# vtk DataFile Version 4.2
vtk output
ASCII
DATASET POLYDATA
POINTS 642 double
-0.711503 -19.9246 -0.308677
0.893335 -19.8421 -0.331325
-1.02795 -22.5775 0.0404624
0.785286 -22.5429 0.124014
-0.056196 -21.746 1.07962
-0.00479701 -20.2068 0.866378
-0.0950122 -21.5114 -0.115636
-0.107771 -20.2101 -0.889794
1.06047 -20.4355 -0.487185
0.67345 -20.9181 0.266077
-1.06949 -20.4553 -0.692122
-0.711305 -21.1105 0.340426
-0.946192 -20.2774 0.0613849
-0.418621 -20.5143 0.748402
-0.307753 -19.8468 0.586898
0.313274 -19.8485 0.577699
-0.00517472 -19.6548 -0.137919
0.716002 -19.842 -0.577134
-0.649533 -19.8955 -0.650888
-1.03007 -20.226 -1.09522
-1.24717 -20.0744 -0.687325
-0.883257 -20.7309 -0.172497
0.387328 -20.498 0.719602
1.08139 -20.2144 0.0416225
-0.287331 -21.6011 0.787758
-0.0351087 -21.3202 0.880882
-0.813666 -22.0321 -0.0158079
-0.865586 -22.1527 0.250814
-0.105199 -20.5076 -0.811684
-0.56023 -20.9022 -0.277899
1.3225 -20.0082 -0.615252
0.895093 -20.1271 -0.659917
0.747513 -22.0065 0.326314
0.276622 -21.6247 0.72114
0.463442 -22.4993 0.667301
-0.544158 -22.4727 0.565061
-0.0167116 -22.41 0.249866
-0.655726 -22.3262 -0.0392625
0.452359 -22.3316 0.0131106
0.413126 -21.0338 -0.196863
0.713589 -21.8411 -0.0229783
1.0343 -20.5775 -0.137968
-0.901805 -20.0813 -0.137516
-0.596278 -20.0588 0.395181
-0.45577 -19.8602 0.189443
-0.552345 -20.7916 0.508151
-0.614433 -20.3629 0.502466
-0.803608 -20.5974 0.203411
-0.129284 -19.9875 0.784552
-0.398749 -20.1426 0.718467
-0.195458 -20.3198 0.827275
-0.176722 -19.6666 0.305659
-0.347996 -19.7323 -0.238732
0.13236 -19.9875 0.783477
0.000252921 -19.7968 0.645661
0.431881 -19.7373 -0.237312
0.17458 -19.7005 0.297373
0.528908 -19.9107 0.0991764
-0.313957 -19.5594 -0.497454
-0.679052 -19.8673 -0.582056
0.846737 -19.7898 -0.515977
0.310163 -19.5824 -0.46218
-0.513947 -20.0191 -0.71828
-0.0468055 -19.7313 -0.583283
0.289605 -19.9891 -0.686014
-1.08909 -19.7969 -0.85016
-1.08148 -19.9532 -0.538979
-0.684536 -20.1527 -0.776383
-0.931954 -19.9573 -1.08917
-1.21947 -20.3113 -0.812991
-1.2394 -20.1344 -1.07088
-1.14487 -20.3157 -1.01146
-1.24421 -20.1387 -0.297817
-1.05594 -20.5592 -0.444568
-1.26042 -20.3584 -0.434675
-1.09201 -20.4404 -0.14591
-0.776228 -20.9668 0.0916332
0.625164 -20.0878 0.289826
1.03517 -19.9762 -0.131275
0.18079 -20.3108 0.833742
0.38645 -20.1205 0.704219
0.916557 -20.5046 0.172491
0.66527 -20.3493 0.408669
0.563753 -20.725 0.453951
-0.170127 -20.8545 0.783262
-0.0107137 -20.5467 0.86606
-0.628733 -21.3723 0.55881
-0.328152 -21.1317 0.697157
-0.0537538 -21.5932 1.19502
-0.126724 -21.5092 1.06416
-0.155462 -21.7075 1.095
-0.851456 -21.6279 0.13315
-0.829242 -21.5778 0.343363
-0.708032 -20.9695 -0.163098
-0.798158 -21.4302 -0.0403272
-1.07774 -22.4832 0.148097
-0.869501 -22.2264 0.0980645
-1.03356 -22.4979 -0.0261408
-0.914891 -20.3473 -0.799829
-0.858708 -20.5716 -0.543516
-0.114483 -20.3422 -0.951671
-0.672784 -20.2562 -0.745371
-0.354571 -21.3067 -0.169426
-0.435063 -20.5866 -0.536629
-0.105668 -20.8881 -0.36628
0.935466 -19.913 -0.744849
0.342623 -20.1988 -0.728172
1.16649 -19.7897 -0.462253
1.11486 -19.7515 -0.751078
1.06231 -20.2352 -0.646759
1.20414 -20.05 -0.844349
1.2567 -20.2156 -0.632829
0.767495 -22.4592 0.204563
0.677293 -22.3206 0.471023
0.714295 -22.5723 0.35543
0.580998 -21.3412 0.524705
0.6416 -21.8865 0.543214
0.740038 -21.4645 0.348106
0.183986 -22.1038 0.668119
0.449756 -22.0988 0.649004
0.0581846 -21.6972 0.983336
0.346221 -22.586 0.45514
0.579789 -22.589 0.0697407
-0.147221 -22.0089 0.655263
0.082489 -22.3798 0.547267
-0.679161 -22.5846 0.0850002
-0.384671 -22.5406 0.414007
-0.83232 -22.5779 0.336697
0.414699 -22.4755 -0.00946861
0.682437 -22.5588 -0.104964
-0.872979 -22.5619 -0.173467
-0.481337 -22.3879 0.0540778
0.150218 -21.8807 -0.0208365
-0.0684646 -22.1502 0.0857872
-0.326175 -21.8879 -0.0403623
0.565401 -22.2282 0.04003
0.706521 -22.4085 0.0767793
0.166436 -21.3571 -0.151998
0.418998 -21.827 -0.0658349
0.667385 -20.9411 -0.0992506
0.573186 -21.5078 -0.0762465
0.755135 -20.6026 -0.352778
0.725196 -22.0014 0.140476
1.11296 -20.4981 -0.354146
0.701501 -21.1465 0.0145897
0.752731 -21.4121 0.161728
0.837648 -20.7511 0.0709752
0.0485021 -21.4917 0.998984
0.299262 -21.0783 0.672946
0.142406 -20.8127 0.792445
-0.839788 -22.3789 0.417083
-0.436559 -22.0356 0.579924
-0.723048 -21.9125 0.478873
-0.578639 -21.8416 -0.0847508
-0.788628 -22.3318 -0.03754
-0.672989 -21.5251 -0.109015
0.649145 -20.4151 -0.524005
0.165029 -20.6403 -0.520176
0.264135 -20.3812 -0.784315
1.22244 -20.3675 -0.0624485
1.32118 -20.2849 -0.358471
1.26358 -20.0927 -0.250711
-0.806965 -19.9878 -0.241422
-0.645716 -20.0066 0.0195695
-0.581334 -19.9183 -0.12115
-0.765428 -20.1923 0.215547
-0.716492 -20.0999 0.13024
-0.955901 -20.1591 -0.0265198
-0.38965 -19.8251 0.410555
-0.529057 -19.9511 0.310541
-0.442189 -19.9448 0.503759
-0.63922 -20.987 0.392724
-0.657014 -20.6919 0.374165
-0.700532 -20.8852 0.268634
-0.520389 -20.4227 0.653746
-0.599559 -20.5413 0.530594
-0.484948 -20.6321 0.638207
-0.892195 -20.4154 0.134076
-0.709778 -20.4771 0.333618
-0.754828 -20.3251 0.280854
-0.0505734 -20.1198 0.817508
-0.171904 -20.1518 0.812321
-0.078069 -20.244 0.868075
-0.35401 -19.981 0.6628
-0.265089 -20.0537 0.758608
-0.210119 -19.9062 0.710942
-0.317347 -20.4091 0.794014
-0.306475 -20.2223 0.791463
-0.422574 -20.3129 0.746694
-0.61461 -20.2056 0.455317
-0.527606 -20.244 0.641646
-0.500733 -20.0807 0.588663
-0.397432 -19.7967 0.00360902
-0.529022 -19.8326 -0.277739
-0.245056 -19.7561 0.460089
-0.322487 -19.7382 0.272628
-0.196933 -19.6921 -0.188836
-0.244869 -19.7155 0.0690106
-0.0916708 -19.6571 0.101104
0.0437027 -20.1183 0.816625
-0.00339809 -19.9688 0.788712
0.161385 -19.797 0.633944
0.0735491 -19.8566 0.748916
0.217151 -19.9053 0.706874
-0.0770493 -19.8472 0.762844
-0.152155 -19.8069 0.631913
0.702517 -19.8304 -0.305089
0.480952 -19.8372 -0.0570076
0.748166 -19.8978 -0.187196
0.0875694 -19.6688 0.0973588
0.276093 -19.7365 0.0483666
0.216705 -19.7075 -0.174234
0.408585 -19.8423 0.385348
0.347222 -19.7742 0.247396
0.256096 -19.7631 0.461126
-0.0828255 -19.7323 0.485614
0.0834212 -19.7352 0.489146
-0.00529178 -19.6617 0.31555
-0.498516 -19.682 -0.436146
-0.695305 -19.8825 -0.444097
-0.161816 -19.6323 -0.355031
-0.34562 -19.5849 -0.40664
-0.664507 -19.8808 -0.628168
-0.486227 -19.5971 -0.538455
-0.45507 -19.6051 -0.615864
0.891586 -19.7974 -0.42452
0.636162 -19.7443 -0.412108
0.477342 -19.6862 -0.549827
0.565977 -19.7069 -0.488365
0.780591 -19.8091 -0.551732
0.387217 -19.6162 -0.369037
0.137027 -19.6629 -0.340498
-0.261186 -20.1364 -0.78695
-0.0849887 -19.992 -0.733091
0.0480557 -20.1297 -0.830415
-0.380385 -19.7076 -0.644818
-0.25746 -19.8376 -0.674139
-0.612145 -19.9388 -0.689025
0.573939 -19.8885 -0.595206
0.138982 -19.8409 -0.639491
0.336533 -19.7246 -0.612976
-0.0292793 -19.6589 -0.464233
0.143498 -19.6691 -0.53416
-0.212807 -19.587 -0.58413
-0.937401 -19.8824 -0.613101
-0.894016 -19.9426 -0.415072
-0.928182 -19.7769 -0.850535
-0.949741 -19.812 -0.758976
-1.20201 -19.9687 -0.611663
-1.11409 -19.8356 -0.706998
-1.21304 -19.9172 -0.787523
-0.330705 -20.2002 -0.787757
-0.657097 -20.1028 -0.770034
-0.994198 -20.1203 -1.09757
-0.896668 -20.0677 -1.0001
-0.938725 -20.1553 -1.00754
-0.81604 -19.9974 -0.879813
-0.880834 -19.8916 -0.899213
-1.13402 -20.3694 -0.769655
-1.19007 -20.3146 -0.962534
-1.10252 -20.3528 -0.830838
-1.2427 -20.0876 -0.888416
-1.24214 -20.2285 -0.964937
-1.24876 -20.2069 -0.765927
-1.11321 -20.2918 -1.09235
-1.22146 -20.277 -1.09605
-1.12492 -20.2057 -1.12254
-1.01369 -19.8736 -0.974392
-1.08576 -20.0336 -1.08951
-1.18056 -19.9449 -0.967421
-1.0401 -19.997 -0.327964
-1.25415 -20.1037 -0.485594
-1.20075 -20.0169 -0.404709
-1.11102 -20.0937 -0.230988
-1.09382 -20.2181 -0.154162
-1.07535 -20.4963 -0.600092
-1.18355 -20.4236 -0.631967
-1.16893 -20.4971 -0.33116
-1.2191 -20.4755 -0.467927
-0.985977 -20.6302 -0.312288
-1.25064 -20.3293 -0.612526
-1.28303 -20.2193 -0.558384
-0.804853 -20.7575 0.118362
-0.739289 -21.0704 0.243101
-1.05824 -20.3559 -0.0488189
-0.952893 -20.5095 0.0262486
-0.819555 -20.8525 -0.0430254
-0.923719 -20.637 -0.0476573
-1.04467 -20.5451 -0.202243
-1.28974 -20.2467 -0.373976
-1.24289 -20.4015 -0.280321
-1.20891 -20.2948 -0.219587
0.792888 -19.9791 -0.069216
0.953374 -19.8875 -0.261868
0.457586 -19.9432 0.477158
0.578675 -19.9847 0.21059
1.08623 -20.0921 -0.0298432
0.843032 -20.0784 0.0259314
0.879234 -20.1834 0.111707
0.0682365 -20.2412 0.867785
0.166809 -20.1428 0.808599
0.388638 -20.298 0.713876
0.288899 -20.2045 0.787329
0.289399 -20.3947 0.792751
0.275508 -20.0319 0.779566
0.350879 -19.9764 0.650406
0.765976 -20.7155 0.226817
0.740392 -20.6078 0.313476
0.634958 -20.8557 0.32176
0.880601 -20.2942 0.205244
0.81844 -20.4305 0.259037
1.00185 -20.3461 0.0853232
0.48947 -20.6091 0.610707
0.622975 -20.5122 0.438433
0.505979 -20.4106 0.595402
0.502008 -20.0709 0.550191
0.510726 -20.2293 0.578688
0.667834 -20.2073 0.365301
-0.0985234 -20.4236 0.871249
-0.00671572 -20.3224 0.872828
-0.304417 -20.643 0.791038
-0.202409 -20.5311 0.814096
-0.0256172 -20.925 0.78552
-0.0949696 -20.7005 0.810725
-0.0774258 -21.1463 0.796628
-0.707649 -21.2292 0.43555
-0.572514 -21.1068 0.516175
-0.28472 -21.4351 0.764115
-0.473287 -21.2617 0.641658
-0.477205 -21.4989 0.653927
-0.450012 -20.9335 0.606923
-0.368602 -20.7718 0.705717
-0.0474783 -21.7109 1.19284
-0.102973 -21.6517 1.19515
-0.0886482 -21.7401 1.12447
-0.0753722 -21.4518 0.999035
-0.104302 -21.54 1.19284
-0.0504488 -21.5116 1.11822
-0.182453 -21.662 0.976197
-0.153574 -21.6047 1.13887
-0.1793 -21.5542 0.991509
-0.231796 -20.9956 0.742498
-0.17693 -21.3682 0.837106
-0.119682 -21.2687 0.820052
-0.836229 -21.3179 0.261161
-0.802742 -21.2896 0.369082
-0.791292 -21.1291 0.0180264
-0.825412 -21.2773 0.13508
-0.872585 -21.8697 0.302028
-0.846275 -21.6298 0.236595
-0.904832 -21.9246 0.202642
-0.91324 -20.6174 -0.478481
-0.806724 -20.7999 -0.252433
-0.825066 -21.7739 -0.0251014
-0.751813 -21.1782 -0.102954
-0.777123 -21.5872 -0.0919528
[...]
POINT_DATA 642
SCALARS Mean_Curvature double 1
LOOKUP_TABLE default
-0.539629
-0.546188
1.62343
9.06062
10.5508
7.37831
-0.164321
1.65469
3.596
-1.43737
7.29998
0.0032968
2.52681
3.90657
4.33777
4.07589
1.67224
0.0964441
0.46235
12.139
1.84279
0.188598
1.70563
4.77205
-0.212683
-0.951812
14.4323
-0.546561
3.70477
-0.562768
5.22566
-0.318967
2.81765
-1.11706
9.42174
4.80825
-0.195055
-0.59327
-0.116869
-0.862501
15.1896
2.41273
-0.95887
3.01223
0.266956
-0.160282
0.898588
1.11197
3.05179
2.73407
-0.358428
4.54839
-1.05879
2.48095
1.22947
-0.36694
2.02362
-0.665806
5.88948
1.25088
1.27496
10.0618
-0.202668
-1.59421
0.702043
8.7879
-1.03391
-0.150269
12.3092
6.84625
9.96429
7.46834
7.18692
3.12129
1.53268
1.49492
-0.802564
-0.307561
1.85701
1.02817
3.06407
3.7694
1.22344
-0.421753
1.67257
5.65992
2.50144
-0.367835
13.0629
8.64952
12.9416
0.558865
4.61181
-0.910186
5.14071
12.5092
-1.62817
3.0109
-0.046208
-1.22385
10.2054
-0.115058
-0.199274
-0.838809
-0.0805821
2.24158
0.374934
6.30576
7.68358
0.391991
11.7212
4.9642
-0.0927588
1.03642
11.8539
3.19199
3.38576
4.84898
0.522271
0.775672
1.73995
3.15769
0.36931
-1.13441
0.559162
2.6983
4.30639
7.87288
9.22085
20.0032
21.3686
-1.78727
-0.118975
-1.41513
-0.119749
-0.738972
4.34811
0.00327526
2.02605
-1.28935
2.04654
0.129437
1.24604
5.32967
-0.460459
6.5866
1.35364
4.38215
0.101546
2.70132
3.05026
-0.122228
1.98002
0.877174
0.789199
0.626859
0.102178
-0.535686
4.88893
8.51759
8.48234
0.545983
-0.172608
-0.853177
-0.928229
2.91094
-0.258979
4.57817
3.06194
0.991075
0.982213
-0.467064
-0.424258
-1.62089
2.09972
2.02805
0.68832
1.81365
-0.496437
1.06685
-0.86197
1.16625
5.2902
2.61619
2.67416
2.95064
1.7764
3.13787
3.57891
0.603795
3.74164
3.23231
0.481922
-1.28525
2.31411
3.16909
-0.478678
0.448458
2.39843
-0.888632
1.49352
4.84038
7.26538
2.5186
10.0747
2.82523
-1.69663
-1.02806
-0.444822
1.59815
0.531474
-1.15612
2.69091
2.05088
3.10523
1.30475
1.38243
3.1561
1.41842
-0.429469
1.20558
6.27139
1.34047
9.84415
12.4719
1.35366
2.15485
6.50772
4.11134
0.850033
5.40265
-1.13013
0.861337
-0.452241
0.648487
0.971115
0.528191
0.0504521
0.073165
-0.612236
6.92132
-1.27027
3.43637
11.4227
-0.417011
-0.261959
13.9487
1.42359
5.33114
6.65305
5.62058
1.25108
-0.00888828
8.51517
3.07253
2.42008
0.470395
2.22741
-0.138444
10.0318
0.0473775
2.1515
4.51856
1.59357
14.6221
16.9838
8.00392
4.3227
5.15782
6.40767
2.53069
2.11839
7.17418
4.06115
-0.672416
4.48948
4.38098
4.97901
8.38383
0.205435
3.31104
4.21908
0.202909
-0.409494
4.59219
1.92113
0.214667
0.617882
0.907085
6.29186
8.34932
4.70386
-0.225787
-0.57928
1.99409
0.613584
2.64301
-0.780892
-0.380247
5.13565
0.134465
1.2184
3.44783
3.05833
7.53783
1.41042
0.134097
1.70775
-1.4721
4.62094
-0.0182809
-1.97895
2.46974
-0.345718
0.763116
3.36924
1.00026
1.90971
4.16832
0.977921
4.49876
-0.854111
1.35585
0.841884
-1.45018
1.40422
0.165903
-0.849851
1.33254
1.02039
-0.241742
0.679492
23.508
15.1996
13.2999
-1.74332
22.2716
11.5755
0.93925
8.55466
2.38306
-0.376831
0.238532
-0.653816
4.20161
6.30643
-0.572382
3.83933
3.616
0.201895
5.0859
-1.34364
-0.95097
1.6269
-1.1472
16.6423
-0.224554
-1.15927
19.4381
12.9873
24.6102
-1.6289
5.15126
4.84015
-1.22889
2.59913
-1.72596
4.96257
6.45287
3.28167
-0.785892
12.9306
0.855663
5.53012
-1.07664
3.60861
-0.254589
8.50792
1.40473
1.36875
1.42892
5.1751
-0.172778
0.654152
-0.13977
-0.5179
1.01062
-0.830641
-0.349869
-0.575266
0.382338
-0.487254
0.497735
0.201211
-0.99686
0.20152
0.534792
2.0974
2.23699
-1.26476
-1.11021
-1.15216
0.423568
4.88506
6.46023
4.14347
3.10118
4.03
9.42998
9.7182
2.02973
6.15643
1.66797
3.29069
5.43505
0.409172
7.06619
11.6457
9.18685
12.4061
9.16161
5.56368
25.697
9.48874
16.4418
3.32936
4.68276
-1.35416
10.8436
1.25078
2.67103
1.41856
2.19808
2.08528
-0.623534
0.756703
0.2307
2.52924
0.980106
4.16525
0.556308
0.498858
7.50826
0.46126
1.20727
1.00732
0.634976
-1.09626
0.57905
2.83029
4.80772
5.9903
0.399842
5.74062
6.94979
1.4413
7.17763
1.0957
2.10624
1.42301
-0.412345
0.40902
-1.17105
-0.385764
-0.0511885
12.6315
0.558202
0.835215
3.8257
0.826308
4.06858
0.443177
12.409
1.71109
11.6458
5.74084
1.1439
1.13216
13.3222
18.7254
0.268307
8.53492
1.98843
19.336
7.53471
6.8839
5.35087
4.3377
12.9686
8.16843
10.6418
-0.131995
-0.569334
-0.991242
-0.587901
-0.60315
-0.292216
-0.0695592
1.66918
-0.0963667
-0.205732
-1.08494
-0.274467
-0.852199
11.3259
1.67895
-1.30511
5.40208
-0.552279
-1.30594
2.88079
0.0608904
0.026731
0.986181
0.682266
-0.350372
0.397309
0.328424
7.93147
-0.609538
4.42462
2.04551
0.100171
0.490833
-0.80996
-1.07777
0.314196
2.22909
1.20169
5.57445
2.58462
2.32966
0.31726
-1.2139
2.78638
7.01786
-0.270116
0.636049
-0.332962
4.78971
-0.426649
14.3873
0.126156
-0.44467
0.0678774
4.02863
1.08042
-0.645114
-0.575468
3.30661
-0.0589604
1.82455
6.01608
1.58011
9.64216
12.9142
1.55046
-0.528801
0.359289
-0.473991
-0.017039
-0.566339
3.93561
-0.946424
-0.525861
-0.409786
4.89903
-0.558982
0.766844
-1.21057
9.27374
4.05784
4.00237
9.4474
0.0296175
1.37099
-0.680728
0.554331
-0.184052
1.86718
2.25928
3.32064
1.21196
-0.159824
-0.832031
1.05601
1.9605
3.49714
0.196267
2.39294
1.12401
0.514781
-0.0431932
20.3967
-3.44009
9.87439
2.0823
1.21299
-0.855273
-0.406791
-0.853348
-1.13928
1.01348
0.0360218
2.72541
5.12392
2.99608
-0.814602
0.508332
0.702789
0.257484
0.0668105
1.77907
-0.516692
-0.178809
0.0190718
11.3987
-0.915582
3.07688
7.94217
4.58201
-0.80972
1.71699
-0.130953
2.42862
5.2097
1.92887
4.07531
3.35725
2.11668
4.84333
5.10855
2.20294
1.2015
4.35974
6.8963
6.0294
1.51242
2.12273
6.70581
4.40335
7.61302
SCALARS CoVolArea double 1
LOOKUP_TABLE default
0.0249885
0.0163143
0.00926352
0.0039065
0.00662986
0.0074291
0.02189
0.0173355
0.0075722
0.0166246
0.00962762
0.0180806
0.0331231
0.0281735
0.0256179
0.0258609
0.0486147
0.0267028
0.0260703
0.01108
0.0273152
0.0300069
0.0313255
0.0254486
0.0415211
0.0184971
0.017322
0.0254183
0.0325416
0.0366275
0.0204754
0.0268114
0.0262239
0.0452027
0.0206582
0.0249689
0.0389665
0.019566
0.0195653
0.0552887
0.0209053
0.0253242
0.0416383
0.0369832
0.0437425
0.0438896
0.0346556
0.0428456
0.0189601
0.0245634
0.0224688
0.0334062
0.0440332
0.0192321
0.023203
0.0495379
0.0380645
0.0469487
0.0243242
0.031726
0.0216843
0.0324197
0.0484487
0.043672
0.0510925
0.0243279
0.031545
0.0193389
0.0237473
0.0192557
0.0240257
0.0101941
0.0241429
0.0294392
0.0214266
0.0276543
0.0392343
0.0435466
0.0340565
0.0213414
0.026421
0.028154
0.0390772
0.0469576
0.0336238
0.0257653
0.0431831
0.0495233
0.00666533
0.0172198
0.0160906
0.0348721
0.0317457
0.0289299
0.0237496
0.0116505
0.0185595
0.0106818
0.0228992
0.0277879
0.0204493
0.0281069
0.0506319
0.0542467
0.0531789
0.023079
0.0268863
0.0234553
0.0221374
0.0175611
0.0149573
0.0161532
0.0119545
0.0273671
0.0214236
0.0431025
0.0320602
0.0322457
0.0327859
0.0377338
0.0218494
0.0416631
0.0240601
0.0452008
0.037318
0.0341107
0.0367139
0.0244748
0.0239887
0.00874235
0.0113359
0.0339334
0.04256
0.0417759
0.0415231
0.0178188
0.0154141
0.050809
0.0291811
0.0291284
0.0317893
0.0327431
0.0207459
0.0239011
0.0282228
0.0309011
0.0286448
0.0221062
0.0525999
0.0333429
0.0285227
0.0436929
0.0417627
0.030314
0.0164866
0.0281801
0.0403963
0.0536109
0.0303752
0.0175347
0.0186264
0.025072
0.0380041
0.0492348
0.0441018
0.0386983
0.0433818
0.0349438
0.0305099
0.0395824
0.0300554
0.0357482
0.045042
0.0364297
0.029141
0.0377731
0.0360013
0.0347764
0.0404066
0.0376112
0.0143712
0.0197436
0.0147396
0.0255755
0.0215379
0.0208561
0.024488
0.0218381
0.0242196
0.0363306
0.0290603
0.0307568
0.0467733
0.0435749
0.0283485
0.0348627
0.0410511
0.0411431
0.0415219
0.0146088
0.0176226
0.0238153
0.018912
0.0207708
0.0187228
0.0236297
0.0377847
0.05243
0.0377774
0.0449548
0.0489394
0.0478705
0.0355118
0.0426124
0.0304212
0.0292919
0.0303836
0.0353194
0.0395389
0.0381267
0.0378126
0.0287664
0.0192961
0.0236204
0.0252112
0.0224589
0.0329499
0.0281642
0.0228751
0.0205697
0.0363749
0.043279
0.0395966
0.0639315
0.0421067
0.0406492
0.0563906
0.0361204
0.0397566
0.0584841
0.0400078
0.0355595
0.0346948
0.0341472
0.036345
0.0341664
0.0246519
0.0259101
0.0252861
0.0261118
0.0277922
0.0191827
0.0288078
0.0158566
0.0222922
0.0169604
0.0303948
0.0289852
0.0135273
0.0123176
0.0107062
0.0282704
0.0192549
0.0247717
0.00968342
0.0124172
0.0149101
0.0260827
0.0257327
0.0308531
0.034267
0.0243888
0.0263368
0.0287636
0.0275273
0.023489
0.0222793
0.025799
0.024659
0.0256531
0.0226941
0.0247651
0.039831
0.0315685
0.0285694
0.034295
0.033869
0.0355365
0.0295963
0.0228673
0.0229435
0.0251169
0.0424248
0.027682
0.0347506
0.0434158
0.0297105
0.0417592
0.0382354
0.0146183
0.0194892
0.0282086
0.0220933
0.0246071
0.0212983
0.0256116
0.0259978
0.0373506
0.0346515
0.0339635
0.0336884
0.0249092
0.0405749
0.0402353
0.0366612
0.0357442
0.0362041
0.0415364
0.0226585
0.0144034
0.0322749
0.0289214
0.0283458
0.0305695
0.0261697
0.0310351
0.0441879
0.0443759
0.0497692
0.0485612
0.0467933
0.0393879
0.00682617
0.00762691
0.0102492
0.0151499
0.008665
0.0100852
0.0251236
0.0122866
0.0254092
0.0396221
0.0354507
0.0267152
0.035977
0.0271849
0.0367899
0.0379024
0.0294089
0.0331083
0.0271763
0.0231238
0.0312418
0.0234701
0.0257306
0.0261367
0.0232713
0.0285311
0.00989012
0.00803344
0.00821007
0.0211876
0.0138845
0.018843
0.0159345
0.0133897
0.0184316
0.0336997
0.0241099
0.0249408
0.0158381
0.0195418
0.0146808
0.0133246
0.0329132
0.0237656
0.0345956
0.0181743
0.0178107
0.0340138
0.0218596
0.0243245
0.0183142
0.0185869
0.0401851
0.0542094
0.0426574
0.0479057
0.0549436
0.0455127
0.0437829
0.0543588
0.0464085
0.0266551
0.0423083
0.0390904
0.0338901
0.0249434
0.0230323
0.0285528
0.0298615
0.0283455
0.0261282
0.0202021
0.021341
0.0237323
0.0210977
0.0235229
0.0213165
0.0230086
0.0134236
0.0149732
0.0127463
0.0170103
0.0141386
0.0194992
0.0155926
0.01405
0.0185266
0.0217867
0.0221483
0.0190154
0.0061141
0.0129303
0.0126384
0.0259133
0.020364
0.0206967
0.0222925
0.0219492
0.0258211
0.0314113
0.0337755
0.0267549
0.042038
0.037892
0.0489094
0.0289858
0.0315354
0.0284368
0.0213511
0.0274401
0.0141889
0.028526
0.0347867
0.0255181
0.0305123
0.0353093
0.0404062
0.028567
0.0340777
0.0303903
0.0269418
0.01333
0.0238829
0.0288952
0.0371118
0.0370097
0.0439798
0.0219139
0.0435955
0.037484
0.0504924
0.0393764
0.0376202
0.0245333
0.0223129
0.0311412
0.0189286
0.0391687
0.0408517
0.039723
0.0221986
0.0304124
0.0309251
0.0355967
0.0363018
0.041296
0.0115936
0.00715356
0.0346114
0.0200019
0.0111154
0.0104339
0.0169567
0.0133461
0.0205582
0.0232772
0.0160684
0.010367
0.032297
0.0396381
0.0360901
0.0453898
0.0362116
0.0331545
0.0461758
0.0340545
0.0327328
0.0440027
0.0359634
0.0398375
0.0385937
0.0339749
0.0123899
0.00792753
0.0166136
0.0132901
0.0166414
0.0154055
0.0189299
0.039388
0.0410454
0.0414992
0.0395924
0.0539104
0.033056
0.0237784
0.0200246
0.0310991
0.0200305
0.0260719
0.030213
0.024956
0.0457716
0.0334515
0.0403965
0.0227499
0.0311465
0.0240335
0.0114694
0.0199307
0.0179957
0.0165351
0.022984
0.0151643
0.0230722
0.0273395
0.0270364
0.0259798
0.0262249
0.0252684
0.0319639
0.0257714
0.0281026
0.0323853
0.0250973
0.0313376
0.0285536
0.0264929
0.0286403
0.0270534
0.0112373
0.0333458
0.0172652
0.0104634
0.017068
0.0476491
0.0412757
0.0502627
0.0537454
0.051978
0.0215695
0.0267813
0.029918
0.0266113
0.0319286
0.0424535
0.0417781
0.0313058
0.0170865
0.0261646
0.0216699
0.0191939
0.0262294
0.0246694
0.0454377
0.0298332
0.0376936
0.0338364
0.0356762
0.030883
0.0351325
0.0455125
0.0527467
0.0394051
0.0489307
0.0361097
0.0423121
0.023763
0.0338052
0.0401702
0.0365754
0.00963897
0.0174429
0.0143867
0.0112464
0.0143855
0.0262493
0.0341944
0.0283826
0.0262754
0.0223968
0.0219038
0.0218919
0.0300931
0.0231418
0.0578306
0.0383042
0.0256457
0.0295507
0.0533526
0.03786
0.0502298
0.0575186
0.0633118
0.0224217
0.0323098
0.0258369
0.0220214
0.0270549
0.0553521
0.0409455
0.039464
0.026742
0.019779
0.0220491
0.0211387
0.01961
0.0180469
0.0185457
0.0172283
0.0197991
0.0202844
0.0271019
0.0226051
0.0272006
0.0264105
0.0237337
0.0182984
0.0213337
0.0198093
SCALARS SignedDistance double 1
LOOKUP_TABLE default
0.241843
0.154017
0.018731
0.0312282
0.0264293
0.0208732
0.176463
0.0692169
0.0429024
0.240453
0.0322429
0.10496
0.0382074
0.0339936
0.0179863
0.0242931
0.0578895
0.303943
0.325865
0.0375841
0.0275723
0.180085
0.043798
0.0418126
0.187614
0.128457
0.0217658
0.0804471
0.0669943
0.300647
0.0174879
0.194256
0.0298645
0.239702
0.0301083
0.0517823
0.356236
0.106446
0.1269
0.246986
0.0149637
0.0577974
0.111912
0.0503063
0.0798269
0.135399
0.0658034
0.0863349
0.0243079
0.0300887
0.0508045
0.0203573
0.153826
0.0240558
0.031782
0.17452
0.0344234
0.140981
0.0292985
0.299554
0.176673
0.0258147
0.363161
0.133124
0.138497
0.0217679
0.0791863
0.299493
0.0250006
0.0275267
0.00872396
0.0294657
0.0159534
0.0485878
0.0290772
0.0490646
0.28947
0.0855932
0.0541824
0.0389321
0.0227804
0.0384819
0.0728178
0.132729
0.0665992
0.0280889
0.0499854
0.119572
0.013109
0.0296933
0.0209424
0.0588123
0.038959
0.347889
0.0637491
0.0129686
0.124469
0.0309177
0.157971
0.160022
0.0202322
0.313013
0.186469
0.304261
0.189231
0.138712
0.171941
0.0184531
0.0118274
0.0760705
0.0143521
0.0190043
0.0498385
0.0487286
0.00977029
0.0445229
0.0396448
0.0332791
0.178989
0.0672855
0.0800149
0.0321816
0.035237
0.404542
0.225296
0.0287425
0.0827294
0.021382
0.0471277
0.0102481
0.0104898
0.138185
0.255148
0.36217
0.207665
0.134615
0.06387
0.161238
0.0874651
0.316519
0.0881638
0.161295
0.0507651
0.0282478
0.202774
0.0416903
0.14781
0.0477425
0.0987446
0.0491479
0.0256247
0.183568
0.0693362
0.0993298
0.0921683
0.112393
0.264943
0.218528
0.075591
0.0113722
0.0119945
0.0376937
0.152639
0.131553
0.178018
0.0490984
0.097903
0.038677
0.0319828
0.0559443
0.0466942
0.156656
0.132942
0.24905
0.0373567
0.0611764
0.0647964
0.0497972
0.101787
0.0567464
0.0495599
0.0388424
0.0220428
0.0307862
0.0276116
0.0255301
0.036546
0.0345159
0.0287609
0.0582834
0.0311771
0.0290464
0.0793305
0.244214
0.0273078
0.0360864
0.101298
0.0614181
0.0369163
0.0503487
0.0324267
0.0214071
0.0143299
0.0288215
0.00616039
0.0268296
0.289313
0.177269
0.230524
0.0522584
0.0644837
0.121067
0.0396364
0.0469056
0.0239413
0.0345876
0.033554
0.0317598
0.115572
0.263792
0.0859458
0.0332846
0.314284
0.0326653
0.0313936
0.135928
0.20087
0.111061
0.15591
0.242683
0.0508318
0.115041
0.190623
0.106257
0.085107
0.11655
0.150597
0.341538
0.294847
0.110493
0.063864
0.123687
0.0977605
0.0172278
0.13649
0.108999
0.0355289
0.0941391
0.0317228
0.0188091
0.0134419
0.222387
0.311605
0.0481314
0.138064
0.126884
0.208341
0.126441
0.0732068
0.0245474
0.0744984
0.0186961
0.0147226
0.0302248
0.0127372
0.00796712
0.018019
0.0434881
0.0145154
0.00827591
0.0354005
0.0273954
0.0185738
0.0329402
0.0455674
0.0484718
0.0359194
0.04019
0.0156699
0.124495
0.0279602
0.0336996
0.17605
0.157646
0.0280152
0.0587294
0.259299
0.115781
0.0839109
0.0235631
0.015929
0.0209392
0.17983
0.12361
0.0366345
0.0956783
0.046213
0.133959
0.0963319
0.0211806
0.0383248
0.0439298
0.0297098
0.0368692
0.0128804
0.0299391
0.139387
0.0732578
0.228091
0.0355854
0.0859602
0.0870292
0.0461662
0.0998069
0.0526523
0.0403909
0.0501306
0.0495691
0.026822
0.0307353
0.0349899
0.0617219
0.0839858
0.0614714
0.154002
0.0663929
0.107184
0.171128
0.083869
0.109621
0.106097
0.0861764
0.00678611
0.0112699
0.017803
0.0791791
0.00460241
0.029226
0.0745274
0.0200568
0.0614751
0.102027
0.119031
0.141636
0.038285
0.0251602
0.222861
0.068171
0.0382342
0.0543589
0.0310843
0.155048
0.247708
0.041008
0.240634
0.0375483
0.304604
0.344397
0.0138002
0.02249
0.0084802
0.103785
0.0302722
0.0273033
0.096507
0.0433983
0.123393
0.0414165
0.0299923
0.0371007
0.102834
0.0335557
0.0722768
0.0435423
0.265116
0.099283
0.22044
0.0298179
0.224052
0.203337
0.216392
0.0317294
0.299682
0.152625
0.16756
0.215378
0.139024
0.27002
0.223322
0.260842
0.185273
0.236013
0.215326
0.209675
0.357395
0.252001
0.168287
0.0544908
0.176268
0.363592
0.35179
0.35063
0.151626
0.0427903
0.0379651
0.0171559
0.0226864
0.0202572
0.0327544
0.0487298
0.0604508
0.0225975
0.0480448
0.0575524
0.0251571
0.118335
0.0137764
0.0103975
0.00777815
0.017511
0.0106009
0.0429027
0.0205098
0.0269442
0.0240823
0.0446688
0.0288209
0.0805585
0.00952851
0.0422786
0.024682
0.0979657
0.0491517
0.0911801
0.147088
0.0952032
0.119231
0.0466856
0.0516049
0.028874
0.198051
0.25788
0.0328125
0.0538952
0.0856107
0.0652561
0.144362
0.284241
0.18497
0.0364444
0.0409947
0.0267181
0.0281683
0.0264275
0.0223598
0.0302049
0.0220779
0.0360675
0.124994
0.146098
0.336822
0.222261
0.367118
0.196985
0.144433
0.0174399
0.025253
0.0348662
0.0238879
0.311979
0.0355029
0.14145
0.00891061
0.0328747
0.0185917
0.0705076
0.342262
0.344984
0.0254159
0.0192819
0.165454
0.020262
0.0405242
0.00996656
0.0469677
0.0143257
0.0235445
0.0449797
0.0334449
0.0338992
0.0258701
0.307054
0.260083
0.361819
0.240792
0.1737
0.30339
0.15173
0.0952294
0.242081
0.142667
0.364992
0.243973
0.233195
0.01767
0.0399411
0.14867
0.0342096
0.100066
0.131608
0.0592124
0.1592
0.185675
0.117798
0.125441
0.19235
0.150548
0.121498
0.0501487
0.220049
0.0564732
0.052136
0.17386
0.0723177
0.24711
0.297828
0.150633
0.080053
0.0882223
0.0481222
0.0431109
0.0428352
0.0827185
0.0884504
0.038751
0.03056
0.119726
0.213759
0.151962
0.0351078
0.288375
0.0194172
0.157182
0.256169
0.0568318
0.0460394
0.0825711
0.273619
0.295225
0.0354282
0.0988992
0.0417465
0.021788
0.101204
0.0251062
0.0158311
0.0671022
0.139109
0.0785664
0.127845
0.104411
0.15661
0.0257898
0.138074
0.0652849
0.0549194
0.032516
0.135695
0.0779907
0.154903
0.0218067
0.0252279
0.0256815
0.0197012
0.0818433
0.15655
0.299865
0.217846
0.294455
0.0777242
0.0493149
0.0441827
0.0540639
0.102612
0.185525
0.0390155
0.0888352
0.0276777
0.154071
0.0632037
0.11946
0.130877
0.146039
0.0154538
0.15107
0.0327094
0.050254
0.0689916
0.285679
0.260812
0.334113
0.217317
0.0614189
0.0796767
0.0560394
0.0820069
0.0707794
0.237362
0.178468
0.132693
0.216627
0.173248
0.130152
0.226321
0.18284
0.170482
0.0198751
0.322035
0.108899
0.0180348
0.0355976
0.260322
0.128496
0.294854
0.0521059
0.0289708
0.0495117
0.0366452
0.0268213
0.0322213
0.02021
0.0180653
0.0269027
0.0299728
0.030109
0.0161075
0.0227317
0.0338289
0.0324285
0.0181839
0.024613
0.0167872
