# vtk DataFile Version 4.2
vtk output
ASCII
DATASET POLYDATA
POINTS 642 double
-0.10953 0.205269 -0.0360742
-0.00694983 0.202726 -0.0350996
-0.115718 -0.0549372 0.00407926
0.087423 -0.0521558 0.00796705
-0.0169304 -0.0134204 0.103254
-0.0535402 0.127171 0.0567289
-0.0166305 0.00462294 -0.0834075
-0.0935363 0.195807 -0.086584
0.085228 0.0662911 -0.0394693
0.0939387 0.0611154 0.0568797
-0.121896 0.134542 -0.048285
-0.167347 0.108255 0.0836498
-0.161598 0.174466 0.0465661
-0.127028 0.138883 0.0965209
-0.0968455 0.183647 0.0430283
-0.0159169 0.158288 0.00967035
-0.0318701 0.241751 -0.0315839
-0.00716491 0.229982 -0.0653099
-0.108556 0.226032 -0.105508
-0.11456 0.193661 -0.123666
-0.142746 0.206152 -0.0744229
-0.168249 0.107786 0.0130666
0.0434768 0.0986213 0.073857
0.0667346 0.119579 0.0316614
-0.0989474 0.0405113 0.0828103
-0.0196928 0.0659067 0.101307
-0.132509 0.0106217 -0.0228554
-0.135494 0.00878353 0.0468495
-0.0445901 0.104116 -0.0579412
-0.0799366 0.0592493 -0.0608883
0.0431191 0.129079 -0.0192428
0.00084101 0.130413 -0.040665
0.127767 -0.0122378 0.0435672
0.0531588 0.0254336 0.0959255
0.0406317 -0.0525915 0.0797477
-0.0806297 -0.0537512 0.0844646
-0.0163368 -0.0509993 0.00401713
-0.0669274 -0.0507044 -0.064448
0.0351407 -0.045675 -0.058168
0.0423411 0.0306689 -0.068962
0.114473 -0.00798725 -0.0170151
0.105119 0.0544489 0.00860721
-0.137069 0.185513 0.0136877
-0.132156 0.183887 0.0525877
-0.0969671 0.193618 0.0104654
-0.149131 0.126982 0.0955389
-0.147903 0.159308 0.0839273
-0.165598 0.141602 0.0699449
-0.089674 0.164653 0.0557261
-0.117614 0.165381 0.0759276
-0.10317 0.139498 0.0784079
-0.0562791 0.218764 -0.00696657
-0.0602069 0.224437 -0.0292529
-0.0264533 0.139929 0.0393268
-0.0572856 0.182063 0.0140682
-0.0193281 0.233434 -0.037047
-0.031271 0.220106 -0.018851
-0.0128633 0.18657 -0.0159387
-0.0512406 0.219157 -0.0482718
-0.111589 0.217713 -0.0802193
-0.0053102 0.224262 -0.0532462
-0.0172338 0.241674 -0.0519279
-0.103407 0.216878 -0.108373
-0.0437359 0.213581 -0.0546219
-0.0331169 0.210096 -0.0568219
-0.130436 0.226315 -0.101059
-0.136866 0.214124 -0.0601606
-0.104712 0.203041 -0.121138
-0.115267 0.225184 -0.12375
-0.135853 0.182385 -0.0723878
-0.133433 0.210572 -0.106143
-0.125471 0.173905 -0.105584
-0.146529 0.179083 -0.00369291
-0.1511 0.112407 -0.0192663
-0.14959 0.154934 -0.0182001
-0.168238 0.150131 0.0337697
-0.168158 0.108915 0.0526813
0.0327949 0.136406 0.0291492
0.0266905 0.141803 0.00199077
0.00650674 0.115118 0.0719956
0.0251616 0.131385 0.056057
0.0862338 0.0939708 0.0467658
0.0627198 0.114306 0.056495
0.0709767 0.0829409 0.0705414
-0.0919426 0.106352 0.0815985
-0.0367026 0.0978601 0.075719
-0.136941 0.0878823 0.0833312
-0.123993 0.104062 0.0967893
-0.0147641 0.0312246 0.106075
-0.0594708 0.0557783 0.0868698
-0.0495127 0.00149227 0.0872636
-0.165666 0.0575041 0.0308615
-0.151793 0.0643102 0.0605821
-0.141489 0.0593453 -0.0384086
-0.157279 0.0557771 -0.00883609
-0.119268 -0.0400097 0.0283355
-0.140668 0.003177 0.00777161
-0.126107 -0.0417651 -0.013225
-0.104671 0.16019 -0.0809666
-0.103353 0.109784 -0.0513037
-0.0874626 0.176658 -0.0769008
-0.102538 0.179636 -0.0980131
-0.0443756 0.0233959 -0.0800018
-0.0587852 0.0891098 -0.0610079
-0.0205013 0.0466907 -0.084143
-0.0091529 0.203072 -0.0591931
-0.0320731 0.185315 -0.0536671
-0.00222701 0.16014 -0.0228652
-0.00309133 0.199365 -0.0485429
0.0529944 0.0889353 -0.0465772
0.0184128 0.133047 -0.0309205
0.0736679 0.0966922 -0.0287859
0.1152 -0.0328677 0.0285382
0.0940289 -0.0329698 0.0577476
0.0699606 -0.0534741 0.0436087
0.0788866 0.0433561 0.0750617
0.093357 0.0021413 0.0636756
0.114846 0.01653 0.046541
0.00491155 -0.0335488 0.0954111
0.0498556 -0.016607 0.0897974
0.0228042 0.00575849 0.105577
0.0192992 -0.0543036 0.0519899
0.0435952 -0.057279 0.00480625
-0.0432505 -0.041997 0.102753
-0.0215193 -0.0548457 0.0922544
-0.0770405 -0.056619 0.00400849
-0.0541743 -0.0563171 0.0551094
-0.101839 -0.0553939 0.0538557
0.0171111 -0.055812 -0.0394075
0.0605652 -0.0488852 -0.0276034
-0.0964459 -0.0544596 -0.0297906
-0.0507813 -0.0557734 -0.0415491
0.00573234 -0.0225279 -0.0707017
-0.0196152 -0.0502708 -0.0661329
-0.0395446 -0.0270517 -0.0677489
0.0749912 -0.0250264 -0.0356764
0.112151 -0.0342372 -0.00914591
0.0136068 0.0171085 -0.0831519
0.0436912 -0.0109802 -0.0669627
0.0986577 0.0276588 -0.0268542
0.0763021 0.010566 -0.0490765
0.0689866 0.0486135 -0.0568916
0.127983 -0.0161476 0.00984831
0.102309 0.0610389 -0.016297
0.124865 0.0173249 -0.00519086
0.127469 0.0152318 0.0276992
0.104483 0.0549599 0.0336434
0.0213184 0.0451131 0.106087
0.0520532 0.063235 0.0903523
0.0141471 0.0788054 0.0920881
-0.114705 -0.0443773 0.0725217
-0.0889449 -0.0310475 0.0860735
-0.121793 0.0180732 0.0701714
-0.0635765 -0.0128467 -0.0552524
-0.0989416 -0.0331308 -0.0307647
-0.113073 0.0312343 -0.0457691
0.0339598 0.071309 -0.0636278
0.00580473 0.0555752 -0.083303
-0.0206126 0.115736 -0.0518054
0.0932978 0.0920541 0.0221402
0.0898106 0.0938148 -0.00791991
0.0620603 0.124451 0.00252284
-0.122166 0.194678 -0.0141667
-0.120387 0.18788 0.0144092
-0.100084 0.199971 -0.0108022
-0.147503 0.17956 0.0501733
-0.13728 0.184665 0.036661
-0.152133 0.18094 0.0331528
-0.0970904 0.187202 0.0273032
-0.118712 0.185643 0.035729
-0.114783 0.184295 0.0503864
-0.158059 0.117918 0.0888067
-0.159367 0.133592 0.0859038
-0.167246 0.12416 0.0787316
-0.137817 0.147444 0.0901504
-0.149103 0.143023 0.091845
-0.138346 0.133647 0.0965057
-0.16225 0.159173 0.0571911
-0.154962 0.150252 0.0758158
-0.153852 0.165847 0.0653265
-0.0771575 0.14703 0.0545689
-0.097835 0.154455 0.0686759
-0.082365 0.134874 0.066192
-0.108458 0.176757 0.0633884
-0.103553 0.168879 0.0696282
-0.0939784 0.176324 0.0531729
-0.116222 0.140682 0.0895007
-0.11259 0.154965 0.0801592
-0.123446 0.153286 0.0882808
-0.141243 0.174199 0.0696286
-0.132729 0.163505 0.0816865
-0.125092 0.175998 0.0675629
-0.0774393 0.21478 -0.0130883
-0.0869488 0.209866 -0.0330372
-0.0784783 0.195005 0.0118064
-0.0757645 0.208598 0.00172077
-0.0433342 0.237962 -0.0299141
-0.0558355 0.226089 -0.0174237
-0.0419006 0.233276 -0.0220874
-0.040156 0.132994 0.0480238
-0.0637609 0.151169 0.0412176
-0.0363304 0.175226 0.00875108
-0.0477943 0.159924 0.0246026
-0.0189567 0.14767 0.0263202
-0.0756983 0.16882 0.0366603
-0.0790186 0.181032 0.0264417
-0.0120206 0.221141 -0.0379024
-0.0184744 0.216483 -0.0298415
-0.0101087 0.197006 -0.026566
-0.0297643 0.235015 -0.0252048
-0.0241431 0.230365 -0.0270146
-0.0234842 0.241295 -0.0333687
-0.0139077 0.171946 -0.0040156
-0.0241641 0.207187 -0.0198784
-0.0278975 0.194563 -0.00817955
-0.0576667 0.203039 0.00184972
-0.0424006 0.202851 -0.00636399
-0.0406153 0.223974 -0.0122436
-0.0877351 0.207193 -0.051928
-0.110375 0.212004 -0.0590748
-0.036252 0.238687 -0.0397021
-0.0529682 0.224047 -0.0404286
-0.110846 0.223324 -0.0960132
-0.0899942 0.203326 -0.0647741
-0.089416 0.201314 -0.067264
-0.00568686 0.216989 -0.0448498
-0.012196 0.230412 -0.0464982
-0.0119366 0.237753 -0.0589146
-0.0113467 0.236426 -0.0537225
-0.0050491 0.229132 -0.0587817
-0.0173668 0.240237 -0.0447576
-0.0236806 0.241901 -0.0421098
-0.100145 0.207225 -0.0999328
-0.0866903 0.197966 -0.0679607
-0.0820892 0.193476 -0.0672935
-0.0889692 0.200729 -0.067548
-0.0883374 0.199915 -0.0677782
-0.105746 0.224011 -0.110065
-0.0150509 0.224591 -0.0663292
-0.03945 0.212135 -0.0558354
-0.019313 0.231371 -0.0636348
-0.0287576 0.240301 -0.0512195
-0.022992 0.237722 -0.059152
-0.0472854 0.215672 -0.052567
-0.125746 0.218642 -0.0743368
-0.125829 0.209642 -0.0493459
-0.119183 0.231359 -0.107064
-0.123061 0.22636 -0.0946922
-0.142416 0.212423 -0.0690673
-0.136051 0.221885 -0.0847354
-0.14247 0.220767 -0.0901906
-0.102333 0.201968 -0.110587
-0.104405 0.214387 -0.118902
-0.114736 0.211994 -0.124174
-0.109936 0.215412 -0.123827
-0.109323 0.199865 -0.124032
-0.108689 0.225811 -0.121343
-0.112773 0.231867 -0.118249
-0.130363 0.160873 -0.065684
-0.128288 0.181358 -0.0911563
-0.122225 0.161838 -0.0816307
-0.142498 0.210696 -0.0941508
-0.137144 0.20038 -0.0933459
-0.141866 0.196841 -0.075623
-0.120513 0.185273 -0.116944
-0.127217 0.194289 -0.1067
-0.123487 0.202879 -0.11691
-0.125289 0.232043 -0.116956
-0.126937 0.220236 -0.119545
-0.138928 0.223264 -0.107982
-0.133354 0.196568 -0.0254653
-0.142862 0.194403 -0.0444144
-0.140892 0.197243 -0.0362164
-0.144292 0.182727 0.00535688
-0.160665 0.176342 0.0260239
-0.13328 0.12381 -0.0342081
-0.135951 0.149547 -0.040465
-0.166387 0.130908 0.000549581
-0.152207 0.136086 -0.0180047
-0.162411 0.109183 -0.00392094
-0.139649 0.171589 -0.0457637
-0.143263 0.18458 -0.0491486
-0.168008 0.126119 0.0637006
-0.167865 0.10907 0.0705051
-0.167592 0.164029 0.040589
-0.167826 0.146878 0.0515589
-0.168667 0.108002 0.0318407
-0.169199 0.128978 0.0433752
-0.169206 0.129848 0.0240485
-0.148534 0.170063 -0.0113407
-0.163666 0.151444 0.0119904
-0.16745 0.168199 0.0198328
-0.00120581 0.157288 -0.00902398
-0.00149881 0.158999 -0.0143488
0.00667731 0.143736 0.0186283
0.00149748 0.151335 0.00378114
0.053196 0.132537 0.0203869
0.0319573 0.13803 0.0164698
0.0524176 0.130907 0.0318197
-0.0191251 0.119533 0.0637719
-0.00619694 0.128359 0.0584888
0.0353793 0.115898 0.0653197
0.0173912 0.123581 0.0643916
0.0260254 0.106873 0.0734689
0.00321422 0.135396 0.0497723
0.00762359 0.138169 0.0375134
0.0912263 0.078261 0.0523679
0.0804845 0.0896359 0.0592168
0.0835515 0.0732869 0.0651284
0.0667248 0.117657 0.044594
0.0737118 0.104462 0.0514649
0.0783393 0.107664 0.0400478
0.0581574 0.0913055 0.073799
0.0672245 0.0995534 0.0635443
0.0546394 0.107224 0.0653347
0.0314379 0.135039 0.0436251
0.045013 0.1222 0.056047
0.0505884 0.12703 0.0447416
-0.0766212 0.118015 0.070551
-0.0466154 0.113538 0.0656628
-0.113403 0.126069 0.0939566
-0.100401 0.124098 0.0839783
-0.0264532 0.0794254 0.0866388
-0.0664112 0.0998407 0.0747685
-0.0524023 0.0813813 0.0810588
-0.156702 0.0986012 0.0880179
-0.147581 0.108637 0.0925308
-0.113378 0.0790897 0.0814203
-0.132194 0.0962427 0.0949816
-0.120832 0.066164 0.079488
[...]
POINT_DATA 642
SCALARS Mean_Curvature double 1
LOOKUP_TABLE default
-8.30673
58.5553
12.6804
21.4791
31.8461
-13.0588
20.3707
-1.52678
45.7772
9.38474
-15.2775
116.666
76.3317
72.8358
57.2016
-11.9086
129.18
181.567
78.8394
106.679
15.9623
24.4495
2.08305
13.6383
1.93299
47.5124
29.4062
11.6608
-1.09648
9.9175
42.615
0.533571
79.5646
8.692
81.3854
97.115
-11.0974
123.553
41.0187
-3.62394
22.3811
0.323929
18.6263
39.5424
-8.11895
60.6088
85.2044
46.7614
2.91148
16.1341
-9.36236
52.6208
19.7554
-0.988077
-5.80039
-13.6691
-0.457824
28.968
15.6706
13.0946
-35.5252
151.499
33.2024
9.94183
13.9134
17.7353
81.5794
98.937
117.429
-0.366563
-5.83947
111.319
13.1615
17.6761
3.81197
8.45062
17.2002
10.8846
-25.504
30.5872
46.1769
39.0104
54.7589
7.13847
-12.5531
3.11697
-12.8672
35.6929
9.91954
-15.822
-18.2886
51.3799
17.8205
53.3008
24.5656
-13.8797
38.4222
74.0411
-15.3229
-9.26165
-0.027126
33.9853
37.1135
-0.96454
19.5908
65.899
-3.80835
-6.71515
-4.13862
-8.75532
-5.15884
2.56196
-10.5621
36.0838
27.5221
-12.148
-10.395
14.6838
-1.70727
18.3669
7.58962
-4.89752
6.38862
67.273
54.6328
2.81487
2.6964
5.14949
13.043
11.5751
82.3197
10.5807
1.19032
90.4805
-4.23267
-18.7068
55.7233
39.1283
18.6149
6.23244
9.5098
33.1453
10.6988
45.1746
100.746
46.8858
8.95623
9.1636
-2.49132
4.33478
60.8155
29.2435
3.87941
-17.2503
-14.0679
7.12723
4.1454
45.2295
-2.27314
28.3288
26.0648
11.6854
-7.95654
-8.26394
-6.74718
23.5243
17.0245
26.6393
-0.302646
3.27114
32.3229
20.3416
37.604
58.9986
-3.42285
72.3677
33.5137
14.8857
-19.7092
24.7881
-4.79548
-0.634867
5.7357
38.4108
66.2911
47.3683
13.0549
16.921
56.5952
53.2564
30.4477
27.6103
25.3798
2.17796
-11.4843
74.5908
94.5294
51.2506
44.2093
-9.86849
-11.6139
1.40102
-15.1065
-5.55005
-2.779
-5.89607
36.2791
-11.7666
21.0607
77.7478
54.2319
177.508
2.21196
-9.61315
18.4205
19.5776
-15.9965
77.575
-4.54593
7.8162
24.7042
17.6914
11.4888
21.4654
14.6956
52.1797
-2.2249
169.581
70.829
127.909
126.84
68.5054
-7.65757
11.3591
3.8975
16.0502
13.7703
140.01
65.5467
8.91893
63.839
70.6735
83.7681
12.6279
12.1082
9.38658
74.4675
37.6746
109.773
47.4749
134.25
11.974
82.9136
68.3508
115.569
115.787
140.306
155.856
26.2637
-12.715
58.4323
76.301
7.80606
43.2464
79.2584
-3.36888
24.2424
141.481
64.1224
140.593
20.4018
30.4189
89.5279
39.2729
42.984
-4.51118
-14.127
36.2277
14.2124
19.6161
-7.04132
40.62
6.2331
28.6934
46.5411
20.6123
14.0183
7.42084
12.1806
3.32382
-4.11722
69.0547
-5.38557
-7.65373
-5.3923
-5.51057
43.651
-1.37867
33.2251
5.43389
19.2124
13.115
20.796
12.9017
30.9625
0.196842
23.1193
29.6051
24.6646
38.7462
7.02867
40.8655
13.7225
24.003
18.0979
32.9665
20.432
21.5139
-11.3847
-5.93161
45.3528
20.1677
-8.16788
-11.6049
-5.6435
79.4202
10.3877
-18.4088
78.1832
7.88953
27.6245
16.7076
19.4942
8.75914
-12.2651
7.88996
45.5408
20.6403
-9.69558
-6.43508
23.934
46.8577
-12.4376
-0.793049
-10.0064
40.4763
3.52073
-14.1316
37.8499
12.9721
4.23892
3.47498
1.98192
26.5889
17.124
41.397
0.577616
8.3286
121.701
28.5658
113.302
3.22859
-20.0359
-19.7039
-13.7432
-10.1168
3.074
16.2549
15.447
13.7745
-12.2694
-12.1924
103.028
84.3842
14.965
-4.20819
-4.90203
-0.326544
17.848
-7.41968
2.3216
-8.6582
101.392
141.729
34.3622
26.2726
9.87015
-2.05976
18.6575
0.467357
4.38944
42.9431
1.15916
5.8679
-9.10487
-9.21849
12.3359
-10.7158
118.74
64.0871
7.49338
44.1706
2.28689
-17.0552
4.37968
-3.21934
-10.4031
-7.4672
350.285
104.953
4.31913
37.0589
37.0741
-2.38673
51.9704
0.26762
25.1073
-4.21483
2.44353
74.5955
4.90757
13.4377
29.3062
13.2379
34.058
20.6276
66.0405
99.7623
61.1457
-9.23265
27.098
36.9144
8.72568
-2.74343
-6.06914
16.7689
28.6063
71.8231
12.5375
-1.87686
-16.1634
41.2985
8.21329
-7.03533
13.2638
13.1526
44.4353
32.0937
-6.10876
40.4353
7.14036
-2.96246
4.29775
13.709
12.9966
3.54325
7.06459
6.8497
1.56628
24.7758
67.1584
72.5356
107.072
-0.01057
-6.3708
79.6543
7.87384
8.29054
7.88331
9.05409
1.18532
-0.198565
5.64909
6.80463
1.86669
13.5079
9.57726
-16.8265
17.237
53.3917
-15.0447
4.09084
58.1329
25.761
71.6897
8.42788
1.84288
37.2225
23.1218
80.7531
7.79218
-15.4909
17.1781
-4.56741
60.6197
18.3169
-5.24548
12.9957
22.7179
1.46699
97.4379
15.228
33.1655
51.1111
0.377795
29.4185
22.7781
17.8642
42.3075
35.8606
20.4475
17.056
8.6403
3.35124
0.748205
2.12238
-2.78255
31.7975
18.4848
5.74239
17.507
-17.9272
1.07191
-5.29238
5.31523
9.16512
40.8311
34.5967
15.3173
16.204
-9.86991
71.1636
85.95
80.9519
6.8767
-1.76837
50.0722
-28.4777
-14.6039
10.7485
-20.6157
52.8122
-17.4494
49.3204
22.7958
101.765
-6.31749
-4.2825
0.219136
27.6817
44.2434
6.52081
7.10079
31.7058
3.29705
6.02294
18.9249
-3.33097
17.0757
40.3535
49.0944
7.23187
7.31017
26.3213
-7.69449
-10.8694
4.60299
44.4888
-1.32233
47.9504
88.2235
118.411
91.9811
30.2886
-1.20888
2.21686
-12.9859
-17.7453
-15.7599
56.3366
-23.9193
34.7893
54.0265
8.84369
27.9647
77.2919
-15.6062
20.7812
-11.0994
63.9144
-5.43005
-2.07699
-11.6125
134.628
-14.3992
40.2649
51.1434
5.84728
11.8631
24.399
2.1489
20.8841
27.6054
-10.5293
-3.89755
-7.70141
36.2125
5.695
1.99276
7.05576
4.50842
0.97272
5.55763
23.9371
25.5705
24.0267
-4.71561
0.522446
-2.54076
-9.33526
-1.44967
19.6951
-4.23523
5.28023
20.0389
19.4795
32.4688
0.969514
7.98139
1.21976
31.7857
35.2706
38.7431
26.335
-2.85872
1.12542
56.1485
-15.3742
65.9074
21.5671
15.0525
3.66094
SCALARS CoVolArea double 1
LOOKUP_TABLE default
0.00044346
0.00017769
0.000244388
0.000287459
0.000307132
0.000418993
0.000237798
0.000175016
0.000214488
0.000231375
0.000472563
0.000181743
0.000251762
0.000199368
0.000314583
0.000524366
0.00010274
9.22113e-05
0.000162983
0.000138209
0.000241779
0.000472152
0.000302237
0.000232282
0.00067334
0.000412867
0.00045546
0.000558662
0.000509952
0.000762434
0.000343617
0.00044688
0.000228621
0.00038612
0.000389495
0.000292314
0.000925423
0.00022245
0.000276303
0.000366598
0.000276167
0.000329999
0.000399687
0.000288833
0.000481728
0.000200752
0.000256337
0.000279483
0.000356566
0.00021261
0.00036012
0.000264671
0.000415263
0.000557794
0.000560548
0.000133085
0.00023528
0.000315933
0.000271128
0.000348465
0.00011067
7.46418e-05
0.000163774
0.000158093
0.000261017
0.000162843
0.00028731
0.000109779
0.000103172
0.000445663
0.000222459
0.00027957
0.000352096
0.000601977
0.000555246
0.000365003
0.000409263
0.000336714
0.000270266
0.0003739
0.000304405
0.000223517
0.000225271
0.000255831
0.000430361
0.000556052
0.000388078
0.000324042
0.000404288
0.000638956
0.000683407
0.000469084
0.000438542
0.000429037
0.000484353
0.00044329
0.00053282
0.000264156
0.000315158
0.000573848
0.000373383
0.000214498
0.000414192
0.000536931
0.000328894
0.000175798
0.000519687
0.000216426
0.000115987
0.000330497
0.000314084
0.000269808
0.000303733
0.000391423
0.000412112
0.000358844
0.000431353
0.000265882
0.000383048
0.000490114
0.00035205
0.000684084
0.000564882
0.000278818
0.000363758
0.000615242
0.000715013
0.000369692
0.00045368
0.000376447
0.000270621
0.000472297
0.000394262
0.000309271
0.000336952
0.000417438
0.000291599
0.000327285
0.00035973
0.000343399
0.000407336
0.000307021
0.000229623
0.00026598
0.000250916
0.000244217
0.000287175
0.000320592
0.000312189
0.00037215
0.000294626
0.000422821
0.000529533
0.000556733
0.00047741
0.000597889
0.000439536
0.000346048
0.000766864
0.000267801
0.000252675
0.000309772
0.000534771
0.000502932
0.000589157
0.000280502
0.000322949
0.000278075
0.000346643
0.000371687
0.000302032
0.000204168
0.000233256
0.000224684
0.000206996
0.000211449
0.000177506
0.000262362
0.000264843
0.000281861
0.000468098
0.000347365
0.000470957
0.000240134
0.000226531
0.000280659
0.000231147
0.000232258
0.000205123
0.000299833
0.000255627
0.000277187
0.000472259
0.000546786
0.000356981
0.000343868
0.00018741
0.000254642
0.000157695
0.000516165
0.000559261
0.000606472
0.00065077
0.000551595
0.000490214
0.000427626
0.000170417
0.000223491
0.000251862
0.000128101
0.000150857
8.46229e-05
0.000368021
0.000273562
0.000427088
0.00040507
0.000432209
0.000250446
0.000476296
0.000433158
0.000193623
0.000348876
0.000227045
0.000318566
0.000165125
0.000152214
0.000118961
7.72397e-05
7.40605e-05
7.05268e-05
7.87087e-05
9.04568e-05
0.000196858
0.000201573
0.000314858
0.000108889
0.000129994
0.000142801
0.000153471
0.000169062
0.000151931
0.000202729
0.000166655
0.000202917
0.000309547
0.000408164
0.00014266
0.000204203
0.000212331
0.00019717
0.000180489
0.00017317
0.000122431
0.000138228
7.81132e-05
8.33131e-05
8.62565e-05
0.00010229
0.000511382
0.000380911
0.000413363
0.000199144
0.00028153
0.000281808
0.000182806
0.00026118
0.000213325
0.000158081
0.000202577
0.000201496
0.000394631
0.00033968
0.000295125
0.000321309
0.000280298
0.000628098
0.000598605
0.000528509
0.000543671
0.000482814
0.000470551
0.00040729
0.000314949
0.000271342
0.000262926
0.000310299
0.000445569
0.000393459
0.000456513
0.000531124
0.00054785
0.000395591
0.000307979
0.000200478
0.000419252
0.000363453
0.000263118
0.000333716
0.000249234
0.000466126
0.000419275
0.000288047
0.000308445
0.000319613
0.000387926
0.000430643
0.000245597
0.000238811
0.000258192
0.000219677
0.00020922
0.000205886
0.000248815
0.000226811
0.000255653
0.000350175
0.00027817
0.000268238
0.000501869
0.000525137
0.000271331
0.000367471
0.000479738
0.000504888
0.00052489
0.000283627
0.000252734
0.000524881
0.000319241
0.000482385
0.000207716
0.000221606
0.00042617
0.000537088
0.000457122
0.000511344
0.000461328
0.000348961
0.000741123
0.000670833
0.000721395
0.000400581
0.000598843
0.000581471
0.000407355
0.000306756
0.000480249
0.000466343
0.000466571
0.000458174
0.000524313
0.000560211
0.000562716
0.000446881
0.00042138
0.000376273
0.000497127
0.000502052
0.000291299
0.000346276
0.000215928
0.000629583
0.000536216
0.000573261
0.000358676
0.000382668
0.000472976
0.000522733
0.000533845
0.00055702
0.000357472
0.000536095
0.000171876
0.000255184
0.000631934
0.000399057
0.000613123
0.000246981
0.000182006
0.000359245
0.000237997
0.000514074
0.000113744
0.000120934
0.000325052
0.000340014
0.000308716
0.000694459
0.00046668
0.000585605
0.000390014
0.000401599
0.000456182
0.000269124
0.000393657
0.000496578
0.000393023
0.00038046
0.000109914
0.000175516
0.000387038
0.000249371
0.000224603
0.000183215
0.000179329
0.00022739
0.000196869
0.000311459
0.000102036
9.21582e-05
0.000273738
0.000296775
0.000257113
0.000343699
0.000372688
0.000421738
0.000296527
0.000337844
0.000295577
0.000176002
0.000185618
0.000217964
0.000335166
0.000380121
0.000380687
0.000300333
0.000324366
0.000235104
0.000362618
0.000376788
0.000426035
0.000312668
0.000355915
0.000312793
0.000477024
0.000400977
0.000372998
0.000196937
0.000312682
0.000306104
0.000351154
0.000385736
0.0003804
0.0004702
0.000417031
0.000377577
0.000333808
0.000379758
0.000463049
0.000445955
0.000549003
0.000536066
0.000498541
0.000420877
0.000454339
0.000483599
0.000735592
0.000652375
0.0008753
0.000304755
0.000281198
0.000345226
0.000258392
0.000265958
0.000301791
0.000382518
0.00042936
0.000542429
0.000368088
0.000896238
0.000709809
0.000781377
0.000312783
0.000523067
0.000470628
0.000602523
0.000601907
0.000860962
0.00044683
0.000374167
0.000752195
0.000541286
0.000287844
0.000359168
0.000298995
0.0002789
0.000426618
0.000278906
0.000346899
0.000229191
0.000570364
0.000773113
0.00032653
0.000373708
0.000332177
0.000311657
0.00035511
0.000329818
0.000234495
0.000298626
0.000241344
0.000578645
0.000376599
0.000392553
0.000369926
0.000325414
0.00035215
0.000375182
0.000245214
0.000343238
0.00036874
0.000304107
0.000364293
0.000374494
0.000360431
0.000330612
0.000363965
0.000333671
0.000290567
0.000339257
0.000280242
0.000396677
0.000378615
0.000304474
0.000324546
0.0003439
0.000368161
0.000426069
0.000418282
0.000467529
0.000295868
0.000221794
0.000227552
0.000225301
0.000232367
0.00025854
0.00030021
0.000316568
0.000276618
0.000270392
0.000277954
0.000232795
0.000282891
0.000282492
0.000207212
0.000204164
0.000296611
0.000264403
0.000315382
0.000246281
0.000295779
0.000274238
0.000403593
0.000323295
0.000340559
0.000361302
0.000327057
0.000296092
0.000312847
0.000273141
0.000312734
0.000336922
0.000495608
0.000366322
0.000453341
0.000396191
0.000364528
0.000345468
0.000367953
0.000347012
0.000316861
0.000238166
0.000257195
0.000362245
0.000438752
0.000452449
0.00065504
0.000605307
0.000361275
0.000273514
0.000433088
0.000491797
0.000491805
0.000505407
0.00061771
0.000333723
0.000520349
0.000428781
0.0003937
0.000325083
0.000344771
0.000510811
0.000715945
0.000215192
0.000503281
0.000311718
0.00025561
0.000315716
0.000565857
0.000707263
0.000608116
0.000434095
0.000516175
0.000593969
0.000689607
0.000755534
0.000305522
0.000377633
0.000332611
0.000371256
0.000532236
0.000315905
0.000454255
0.000308309
0.000290192
0.000341529
0.000529181
0.000622881
0.000711625
0.000739326
0.000692973
0.00045705
0.00058128
0.000625459
0.000253006
0.000289061
0.00025788
0.000228542
0.000260518
0.000251955
0.000283915
0.000243776
0.000233532
0.000272777
0.000246899
0.000282687
0.000326031
0.000315845
0.000333904
0.000301738
0.000308856
0.000319797
SCALARS SignedDistance double 1
LOOKUP_TABLE default
0.00979633
0.00320723
0.00222023
0.00208941
0.00330113
0.0154209
0.00231518
0.0154542
0.00101255
0.00249633
0.0222105
0.000759741
0.00122872
0.00118272
0.00326894
0.0273449
0.00110774
0.000474174
0.00184376
0.00105562
0.00143086
0.00254607
0.00436925
0.00299095
0.00556795
0.00287656
0.00318271
0.00524052
0.0160033
0.00620396
0.0031965
0.0171261
0.000765461
0.00300658
0.000523568
0.0016882
0.00828736
0.000719412
0.00255631
0.00530188
0.00243488
0.00456503
0.00395492
0.00125451
0.00724934
0.00099501
0.000987358
0.00109129
0.00905151
0.00338244
0.00760954
0.00251192
0.00330901
0.014357
0.011706
0.00348544
0.00478956
0.00865586
0.0103612
0.00528
0.00294586
0.00117846
0.00323218
0.0114633
0.00996162
0.00182039
0.00168312
0.00172543
0.000794662
0.00333222
0.00339624
0.000771744
0.00333346
0.00517064
0.00450976
0.00284286
0.00221285
0.00536814
0.0111921
0.00246066
0.00165658
0.0018744
0.00212837
0.00334715
0.0129495
0.00736913
0.00645221
0.00222703
0.00323261
0.0108122
0.0161106
0.0019293
0.00257455
0.00188239
0.00182121
0.00974317
0.00224424
0.00100739
0.0156552
0.0189604
0.0213567
0.00629573
0.0023414
0.0121425
0.00367171
0.00299486
0.0179875
0.0292353
0.00422106
0.00600167
0.0126648
0.00257235
0.00286067
0.00223151
0.00197389
0.00514233
0.00493592
0.00365312
0.00588498
0.00336711
0.00269287
0.00620038
0.00667836
0.00125568
0.0016337
0.00426486
0.0039404
0.00288381
0.00344313
0.00284313
0.00143
0.00281338
0.00426772
0.00137864
0.00379646
0.00625708
0.00123663
0.00188331
0.00301666
0.00302199
0.0034363
0.00193332
0.00160797
0.00179142
0.00146872
0.000879333
0.00368696
0.00336308
0.00418839
0.0057226
0.00157247
0.00495035
0.00318058
0.0159534
0.00986847
0.00409572
0.00538847
0.00233238
0.0167837
0.0019352
0.00227971
0.00314781
0.00959837
0.006978
0.0105659
0.00204447
0.00293937
0.00196389
0.0060101
0.00412523
0.00225995
0.0022403
0.00114785
0.00150676
0.0026512
0.00106567
0.00181042
0.00220276
0.00333202
0.00160804
0.0118883
0.00660215
0.00752451
0.00252347
0.00240763
0.00395871
0.00255882
0.00360911
0.00194703
0.000623325
0.00178854
0.00242531
0.00275871
0.0182317
0.0066168
0.00205275
0.00182078
0.00183195
0.00152908
0.0184505
0.0199472
0.019485
0.02834
0.0174993
0.0128516
0.00843807
0.00224023
0.00464451
0.00540988
0.001855
0.0020715
0.000646446
0.0233105
0.00790399
0.00605179
0.00589333
0.00849163
0.00124169
0.0238656
0.0071698
0.00213814
0.00496261
0.00287348
0.0198093
0.0200809
0.00216893
0.00293954
0.00129685
0.00171424
0.00107735
0.0011544
0.00143029
0.00828392
0.022589
0.0264447
0.0204921
0.0210768
0.00132267
0.00137905
0.0108446
0.0021756
0.00106358
0.00191099
0.0116218
0.00320451
0.00333183
0.00145495
0.00212367
0.000973151
0.00178611
0.00075336
0.00497008
0.00209746
0.000800528
0.00110228
0.00106056
0.0011396
0.000617939
0.00480449
0.00464542
0.00457713
0.000835108
0.00240209
0.00174601
0.00142465
0.00287993
0.00129663
0.000454217
0.00119394
0.000637523
0.00346596
0.0023245
0.00152857
0.00262747
0.00218935
0.0146097
0.0124029
0.00160377
0.00489303
0.00332875
0.00558971
0.00246287
0.00223577
0.00228423
0.00220336
0.0017718
0.0034581
0.00405039
0.00403453
0.00456346
0.00438383
0.00153262
0.0270583
0.0281241
0.0130188
0.0218675
0.0021906
0.00716218
0.00276929
0.0067308
0.00463074
0.00337314
0.00274542
0.00430539
0.00382502
0.0078569
0.00222453
0.0022588
0.00252064
0.00217359
0.00250496
0.00187908
0.00299642
0.00243592
0.00358783
0.00349653
0.00312943
0.00294259
0.0128098
0.0112922
0.00207181
0.00677045
0.00776342
0.012682
0.0104089
0.000887289
0.00230902
0.0112505
0.00163183
0.00731432
0.00174049
0.00229837
0.00299914
0.00489357
0.0112897
0.0071609
0.00311387
0.00300148
0.0120642
0.0118965
0.00378216
0.00328092
0.0115762
0.0105124
0.0081656
0.00428168
0.00543829
0.00711047
0.00148684
0.00260935
0.00357022
0.00610999
0.00529727
0.00180703
0.00256397
0.00136929
0.00397145
0.00365485
0.000542273
0.00191763
0.000592248
0.00407945
0.0149053
0.0177648
0.0143085
0.0148659
0.00437361
0.00372031
0.00305681
0.0036705
0.0155086
0.0266533
0.00186407
0.00286056
0.00854201
0.0265819
0.0256392
0.016288
0.00634176
0.0357002
0.0115663
0.0376136
0.00232282
0.0014516
0.00198929
0.00312078
0.00417643
0.00952531
0.00655478
0.00651418
0.00907451
0.00636865
0.0144537
0.00648535
0.0343438
0.0325035
0.0117704
0.0325974
0.00118558
0.0019069
0.0248021
0.00541038
0.0226509
0.0148308
0.00398384
0.0304869
0.0171398
0.0233868
0.000603588
0.00170229
0.00302361
0.00245789
0.00187002
0.0154421
0.00281449
0.00656026
0.00261311
0.0047897
0.00640309
0.00214729
0.0290283
0.0254565
0.00133353
0.00188048
0.00194165
0.00174622
0.000386378
0.000391893
0.00177221
0.00382587
0.00198426
0.00251557
0.00356999
0.00467972
0.0045488
0.00309429
0.0017321
0.00146027
0.00335967
0.00291204
0.00519445
0.00213019
0.00299402
0.00394837
0.00228396
0.00290982
0.00163077
0.00193368
0.0052238
0.0020913
0.00379629
0.0031518
0.00364466
0.00421357
0.00243059
0.00301219
0.00354449
0.00474052
0.00760106
0.00337952
0.00150436
0.00151257
0.000377275
0.0038187
0.00449989
0.000800212
0.00431364
0.00509027
0.00214293
0.00373206
0.0120871
0.00718444
0.0027145
0.00462364
0.00237898
0.00278149
0.00342178
0.00811508
0.0026895
0.00106285
0.00806419
0.00335723
0.00164475
0.00288279
0.0021512
0.00231084
0.00314451
0.00236473
0.00278576
0.00312915
0.00405107
0.00835117
0.00370825
0.00411725
0.00134796
0.00351194
0.00367868
0.00249403
0.00194751
0.00337916
0.00124809
0.00296515
0.00263097
0.0015083
0.00253485
0.00138962
0.00203842
0.00271942
0.00110772
0.00140615
0.00308884
0.00273737
0.00459471
0.00476665
0.00369666
0.00431965
0.00430725
0.00167078
0.00252823
0.00338053
0.00193417
0.00580053
0.00407141
0.00486503
0.00389512
0.00319262
0.00161457
0.00199807
0.00348072
0.00339172
0.00269615
0.000544749
0.000558128
0.00115837
0.00147103
0.00303939
0.00137428
0.00941682
0.00605066
0.00309422
0.00713875
0.0017747
0.00786756
0.00186246
0.00142418
0.000860235
0.00472164
0.0058799
0.0059388
0.0013433
0.000972482
0.00207992
0.00445833
0.00208359
0.00333754
0.00426714
0.00292596
0.00429671
0.00331126
0.00198006
0.00108132
0.00230415
0.00574142
0.00318722
0.00831438
0.00652882
0.00414166
0.00171895
0.00393324
0.00192903
0.00145762
0.00089114
0.00121641
0.00374464
0.0133796
0.0064935
0.011048
0.0127624
0.00900198
0.00229359
0.00875658
0.00239667
0.000877681
0.0041276
0.00286013
0.00123985
0.0138063
0.0102471
0.00648203
0.00120767
0.00908024
0.00678044
0.0122938
0.000841032
0.0122855
0.00155717
0.00218245
0.00574966
0.00531017
0.00402021
0.00558442
0.00360244
0.00299818
0.0139513
0.0103924
0.0108351
0.00252917
0.00424753
0.00452932
0.00564662
0.00655602
0.00318368
0.00760496
0.00341853
0.00302748
0.00349335
0.0317492
0.0169574
0.0339991
0.0369369
0.0166482
0.00294534
0.00833818
0.00690091
0.00256533
0.0029101
0.002272
0.0034429
0.00307183
0.00314638
0.00201742
0.00183806
0.00225546
0.00240794
0.0250629
0.00374109
0.00288649
0.00837976
0.00224551
0.00207198
0.00276141
0.00345303
