# vtk DataFile Version 4.2
vtk output
ASCII
DATASET POLYDATA
POINTS 642 double
-31.07 19.5859 -81.1817
-29.3966 19.5893 -81.2036
-30.9023 16.0561 -81.3366
-29.6257 16.0523 -81.3233
-30.2255 16.9847 -80.224
-30.2092 19.0441 -79.813
-30.2415 16.9489 -82.5738
-30.2224 18.8343 -82.4673
-29.3269 17.9895 -81.933
-29.1863 18.1439 -80.5229
-31.1648 17.9631 -81.9773
-31.3217 18.0981 -80.5417
-31.4083 19.0091 -80.6826
-31.006 18.6445 -79.9105
-30.7644 19.6415 -80.3017
-29.6863 19.6196 -80.295
-30.2294 19.9402 -81.207
-29.7639 19.4747 -82.0224
-30.7077 19.4836 -82.0242
-30.7726 18.4643 -82.3379
-31.2552 18.9307 -81.6128
-31.383 18.0565 -81.1273
-29.4582 18.6578 -79.9054
-29.0502 18.9961 -80.6923
-30.7786 17.5187 -80.281
-30.2349 18.1846 -79.766
-30.9866 16.9589 -81.6252
-31.0846 16.962 -80.8743
-30.2544 17.8906 -82.895
-30.7574 17.3176 -82.4632
-29.2134 18.9321 -81.6085
-29.718 18.5029 -82.3134
-29.3794 16.9652 -80.8619
-29.6818 17.5017 -80.2515
-29.8732 16.2201 -80.7091
-30.5948 16.2059 -80.7732
-30.2457 15.8709 -81.2452
-30.5892 16.3043 -81.7456
-29.9775 16.3621 -81.7403
-29.7533 17.34 -82.4395
-29.5133 17.0349 -81.6035
-29.0819 18.0583 -81.1307
-31.3522 19.3823 -80.9179
-31.2394 19.3578 -80.4772
-30.98 19.6655 -80.7638
-31.2291 18.387 -80.225
-31.2843 18.8676 -80.2913
-31.4003 18.5206 -80.5323
-30.4727 19.3906 -79.9611
-30.9144 19.1641 -80.0931
-30.5868 18.8732 -79.8054
-30.523 19.8452 -80.6933
-30.7408 19.8338 -81.2172
-29.9564 19.3896 -79.9446
-30.2283 19.7462 -80.2351
-29.7201 19.8333 -81.2101
-29.9354 19.8427 -80.6951
-29.4899 19.6719 -80.7512
-30.5082 19.8104 -81.6889
-30.931 19.6228 -81.6254
-29.5211 19.6172 -81.6228
-29.9578 19.8132 -81.694
-30.4337 19.1786 -82.271
-30.2268 19.5436 -82.057
-30.0179 19.1772 -82.2761
-31.0629 19.2775 -81.8769
-31.2213 19.3166 -81.4018
-30.4745 18.6688 -82.4612
-30.7984 19.0482 -82.2316
-31.2 18.4233 -81.8107
-31.0705 18.7601 -82.056
-31.0172 18.1947 -82.1597
-31.4125 19.0224 -81.157
-31.235 18.0245 -81.6117
-31.3996 18.5286 -81.3835
-31.4278 18.5487 -80.9223
-31.4588 18.04 -80.7667
-29.2682 19.3433 -80.4685
-29.1472 19.3343 -80.9273
-29.8455 18.8942 -79.8121
-29.5363 19.1819 -80.0539
-29.0578 18.5408 -80.5422
-29.1845 18.8687 -80.2671
-29.2689 18.4026 -80.2125
-30.5862 18.4025 -79.7316
-30.229 18.5988 -79.6763
-31.1346 17.8695 -80.3523
-30.9209 18.1541 -80.0087
-30.2272 17.5872 -80.0391
-30.5536 17.8686 -79.9125
-30.504 17.1633 -80.2175
-31.2827 17.5912 -80.9598
-31.32 17.6623 -80.674
-31.101 17.5299 -81.8765
-31.1854 17.51 -81.425
-31.0361 16.406 -81.1441
-31.0718 16.8447 -81.2359
-31.026 16.3552 -81.4335
-30.7244 17.872 -82.4639
-30.9767 17.6526 -82.2024
-30.2419 18.2898 -82.6919
-30.4219 18.073 -82.7089
-30.4934 17.079 -82.5736
-30.4287 17.6837 -82.641
-30.2515 17.4257 -82.6076
-29.6683 19.0442 -82.2403
-29.975 18.7003 -82.4677
-29.2309 19.3218 -81.411
-29.3947 19.276 -81.875
-29.4718 18.2264 -82.1197
-29.3887 18.778 -82.0544
-29.262 18.443 -81.7967
-29.5004 16.464 -81.1121
-29.5487 16.5919 -80.7502
-29.7468 16.076 -81.0276
-29.3726 17.8878 -80.3361
-29.522 17.1535 -80.5602
-29.2399 17.6942 -80.7234
-30.0472 16.6617 -80.422
-29.6945 16.8294 -80.3854
-29.9455 17.1635 -80.2144
-30.0174 15.8434 -80.8867
-29.7549 15.832 -81.3036
-30.4084 16.6567 -80.4301
-30.2404 16.1056 -80.7518
-30.7217 15.8573 -81.284
-30.5063 15.7322 -80.8423
-30.7816 16.0126 -81.0092
-29.9598 15.8496 -81.6357
-29.703 16.0286 -81.5008
-30.8563 15.9922 -81.5916
-30.5494 15.8572 -81.6465
-30.086 16.7238 -82.3835
-30.262 16.2962 -81.7829
-30.4016 16.7224 -82.3769
-29.7604 16.6204 -81.6765
-29.5684 16.4113 -81.3728
-30.014 17.0752 -82.571
-29.8355 16.8805 -82.2931
-29.3665 17.5567 -81.8524
-29.5385 17.1698 -82.0887
-29.5182 17.6802 -82.1555
-29.3902 16.8984 -81.1948
-29.2296 18.0458 -81.5938
-29.2858 17.5609 -81.3927
-29.1786 17.6155 -80.9883
-29.0549 18.0727 -80.7984
-29.8983 17.8603 -79.9196
-29.5387 18.168 -80.0005
-29.8679 18.4237 -79.7752
-30.9188 16.5522 -80.7811
-30.7653 16.8166 -80.4051
-30.9772 17.1604 -80.5844
-30.6654 16.8858 -82.2895
-30.7755 16.5417 -81.6874
-30.9456 17.1428 -82.1142
-29.775 17.8908 -82.4276
-30.067 17.6745 -82.6264
-30.0548 18.1008 -82.6987
-29.0375 18.5601 -80.926
-29.0614 18.5432 -81.3712
-29.0462 19.019 -81.1536
-31.2105 19.5169 -81.0641
-31.1994 19.5285 -80.8354
-31.0547 19.6296 -81.01
-31.3867 19.1926 -80.5786
-31.3214 19.3761 -80.6923
-31.3976 19.2089 -80.7907
-30.8781 19.6684 -80.5322
-31.1154 19.5232 -80.6072
-31.0085 19.5112 -80.3813
-31.279 18.2341 -80.4129
-31.3623 18.4617 -80.36
-31.3566 18.2664 -80.517
-31.1292 18.7548 -80.1093
-31.2558 18.6205 -80.2392
-31.1006 18.5233 -80.0842
-31.4075 18.7706 -80.5975
-31.373 18.711 -80.4098
-31.3789 18.9565 -80.4883
-30.3131 19.1893 -79.8839
-30.5386 19.1394 -79.894
-30.3639 18.9701 -79.8205
-30.855 19.4292 -80.1779
-30.6991 19.3005 -80.0172
-30.6214 19.5375 -80.117
-30.7883 18.7543 -79.8824
-30.7665 19.0326 -79.919
-30.964 18.8914 -80.0007
-31.279 19.1217 -80.3801
-31.146 19.0273 -80.1608
-31.0932 19.2872 -80.2644
-30.8591 19.7721 -80.9669
-30.9393 19.7047 -81.2032
-30.659 19.8023 -80.4661
-30.7778 19.8267 -80.7041
-30.4917 19.8694 -81.2109
-30.628 19.8473 -80.9516
-30.3694 19.9267 -80.9558
-30.1105 19.188 -79.8793
-30.2162 19.4043 -79.9532
-29.9429 19.7036 -80.2554
-30.0817 19.5642 -80.1033
-29.8185 19.5184 -80.1063
-30.3631 19.5704 -80.1097
-30.5113 19.7217 -80.2519
-29.5225 19.7087 -81.2061
-29.6059 19.7794 -80.9665
-29.4342 19.6248 -81.0192
-30.0883 19.9279 -80.9563
-29.8307 19.8482 -80.952
-29.9682 19.8744 -81.2067
-29.5802 19.6601 -80.5204
-29.6809 19.827 -80.7016
-29.7945 19.7981 -80.4634
-30.3801 19.8339 -80.434
-30.0788 19.8325 -80.4344
-30.2299 19.872 -80.6883
-30.8427 19.767 -81.4403
-31.0128 19.62 -81.3765
-30.3712 19.8622 -81.4594
-30.6273 19.8371 -81.4609
-30.8355 19.581 -81.8385
-30.7354 19.7401 -81.668
-30.6206 19.6656 -81.8726
-29.4422 19.6152 -81.3782
-29.6193 19.7527 -81.4312
-29.8466 19.668 -81.8787
-29.7362 19.7236 -81.6641
-29.6249 19.5777 -81.8409
-29.8398 19.8334 -81.4567
-30.0916 19.8622 -81.4601
-30.2984 18.9778 -82.4004
-30.2227 19.1898 -82.2755
-30.1445 18.9777 -82.4015
-30.482 19.5348 -82.0558
-30.349 19.3965 -82.1979
-30.5803 19.3713 -82.1988
-29.8828 19.3702 -82.2055
-30.1028 19.395 -82.1992
-29.9792 19.5323 -82.0581
-30.2283 19.8312 -81.7016
-30.0932 19.7031 -81.8885
-30.3644 19.7028 -81.888
-31.109 19.4984 -81.5471
-31.1521 19.4893 -81.2791
-30.9062 19.4023 -81.9658
-31.0317 19.4805 -81.7847
-31.2535 19.1376 -81.5066
-31.1553 19.3173 -81.6658
-31.1801 19.1125 -81.7599
-30.3299 18.7699 -82.4747
-30.4752 18.9531 -82.3967
-30.8029 18.7597 -82.2914
-30.6366 18.867 -82.3326
-30.6164 18.5677 -82.4033
-30.6273 19.1344 -82.2588
-30.7774 19.2984 -82.1618
-31.1771 18.1308 -81.9193
-31.1037 18.3173 -82.0021
-31.117 18.0435 -82.0522
-31.1774 18.8679 -81.8524
-31.1346 18.607 -81.9335
-31.2406 18.6911 -81.7149
-30.9113 18.3423 -82.2558
-31.0624 18.4948 -82.1394
-30.9575 18.6292 -82.2272
-30.9332 19.1803 -82.066
-30.9454 18.9112 -82.1471
-31.0758 19.0338 -81.9662
-31.3124 19.3528 -81.156
-31.3911 18.9917 -81.3928
-31.3883 19.1879 -81.2813
-31.3967 19.2059 -81.0304
-31.4119 19.0273 -80.909
-31.1956 17.9819 -81.8551
-31.2219 18.2253 -81.7064
-31.4036 18.2949 -81.2644
-31.3329 18.2845 -81.4742
-31.3109 18.0624 -81.3628
-31.2996 18.4966 -81.5866
-31.343 18.7456 -81.4923
-31.3896 18.2731 -80.6694
-31.3909 18.0663 -80.6317
-31.418 18.7944 -80.7986
-31.4201 18.5466 -80.7179
-31.4171 18.0404 -80.9185
-31.4137 18.2708 -80.837
-31.4131 18.2828 -81.0367
-31.4094 18.7866 -81.2751
-31.4201 18.5455 -81.1584
-31.4238 18.8018 -81.0342
-29.3074 19.4999 -80.8292
-29.2917 19.4851 -81.086
-29.451 19.5101 -80.3564
-29.3564 19.5289 -80.5808
-29.0603 19.1855 -80.7998
-29.1841 19.343 -80.689
-29.0919 19.1761 -80.5793
-30.0576 18.9901 -79.7909
-29.8862 19.1458 -79.881
-29.4909 18.9127 -79.9704
-29.6735 19.0489 -79.9013
-29.6514 18.7776 -79.8658
-29.7277 19.3084 -79.9822
-29.5741 19.4434 -80.1285
-29.1309 18.3075 -80.5211
-29.1578 18.4843 -80.3806
-29.209 18.2544 -80.3914
-29.0824 18.9446 -80.4825
-29.1184 18.7173 -80.4187
-29.049 18.7685 -80.6011
-29.3609 18.5356 -80.0541
-29.2272 18.636 -80.221
-29.3382 18.7657 -80.0856
-29.3829 19.2934 -80.2363
-29.3347 19.0327 -80.1399
-29.2297 19.1079 -80.3757
-30.4005 18.7221 -79.7144
-30.2182 18.8457 -79.7635
-30.7791 18.5222 -79.8579
-30.5867 18.6153 -79.7661
-30.2335 18.4005 -79.6791
-30.4046 18.4966 -79.6802
-30.4015 18.2962 -79.708
-31.2527 18.0169 -80.4737
-31.1766 18.1402 -80.2744
-30.8746 17.8674 -80.1065
-31.0474 18.0039 -80.1566
-30.9762 17.706 -80.2838
-31.0754 18.2821 -80.1032
-30.9629 18.4113 -79.9496
-30.2233 17.2059 -80.1933
-30.359 17.3912 -80.1566
-30.3407 17.0454 -80.2164
-30.3885 18.0415 -79.8453
-30.3849 17.7341 -79.9367
-30.2317 17.8984 -79.88
-30.6317 17.3186 -80.2467
-30.5097 17.5534 -80.1174
-30.673 17.7145 -80.1026
-30.7613 18.2897 -79.8734
-30.7383 18.0136 -79.9392
-30.569 18.1685 -79.8221
-31.4017 17.8639 -80.7171
-31.3623 17.9189 -80.5825
-31.3659 17.8281 -81.021
-31.3996 17.8416 -80.8532
-31.1128 17.3653 -80.7936
-31.3219 17.6206 -80.8067
-31.1223 17.297 -80.9378
-31.1431 17.8041 -81.9441
-31.191 17.7762 -81.763
-31.0926 17.2056 -81.5608
-31.1531 17.5021 -81.6685
-31.081 17.2462 -81.7907
-31.2261 17.7884 -81.5198
-31.2685 17.8191 -81.2508
-30.9356 16.1926 -81.2649
-31.0501 16.366 -81.303
-30.9474 16.1682 -81.3861
-31.09 16.8869 -81.0597
-31.0679 16.6033 -81.1885
-31.065 16.6656 -81.0093
-30.9663 16.62 -81.4675
-31.0433 16.5775 -81.3349
-31.0146 16.8721 -81.4105
-31.229 17.5451 -81.169
-31.1022 17.1886 -81.3296
-31.1135 17.2262 -81.119
-31.0354 17.9175 -82.2166
-31.093 17.8451 -82.0675
-30.7257 18.1471 -82.3971
-30.8837 18.0294 -82.3013
-30.8612 17.4739 -82.3351
-30.871 17.7509 -82.3358
-30.7397 17.5982 -82.463
-30.2318 18.6062 -82.5102
-30.3366 18.4588 -82.5817
-30.3302 17.9615 -82.8293
-30.3334 18.1706 -82.7407
-30.2517 18.0462 -82.8036
-30.437 18.3453 -82.5625
-30.561 18.2517 -82.4941
-30.3475 16.9934 -82.5779
-30.3714 17.2268 -82.5906
-30.2444 17.0929 -82.5868
[...]
POINT_DATA 642
SCALARS Mean_Curvature double 1
LOOKUP_TABLE default
-0.74228
0.700906
-0.62796
5.16817
1.07389
2.15441
2.61094
2.98831
1.38439
-0.481545
4.82618
-1.97821
0.840518
5.35655
2.07495
1.15183
2.62894
0.528211
1.04181
0.395114
-0.509664
0.96815
4.15074
1.04609
-0.549562
0.719392
-0.302548
0.768346
14.9296
3.18683
-0.212118
-0.900192
1.78294
1.05125
5.14334
-0.187823
-1.30316
0.78513
0.13258
3.4454
-0.845174
0.857968
3.67991
2.63082
0.509503
1.78968
1.50606
1.18398
2.83335
-0.251335
1.85326
-0.100552
2.23715
3.15561
2.91081
2.23846
-0.217891
1.09923
2.40633
0.867476
1.19533
2.82588
-0.366972
0.389526
-0.248251
1.77443
-0.489425
1.13152
2.40111
0.683673
1.63414
0.872487
0.731241
-0.368055
2.20255
0.576033
6.31665
1.39107
1.5117
1.18545
0.320704
3.2228
2.67141
0.97601
3.51475
2.41865
1.19064
0.870512
0.0296992
2.58172
1.03601
0.598008
5.66044
-0.499142
0.218601
3.67439
0.991696
6.77418
0.863756
0.28948
3.33835
1.06225
3.03657
-1.16259
0.763244
2.35444
1.86173
0.394383
2.04786
-0.13874
1.7698
0.734475
1.3806
1.20482
-0.538251
1.47161
-0.496261
-0.544483
0.510202
2.63155
1.07978
6.45291
6.87039
0.463366
-0.5599
2.30484
10.9625
0.841991
8.50729
1.64819
5.27645
7.46948
3.65427
-0.328746
4.27394
-0.852886
1.66489
4.67608
0.878041
0.792731
1.73863
-0.407994
2.04043
0.056553
0.287256
1.66986
2.49264
2.45448
1.16802
0.757891
0.97934
2.53753
-0.274174
0.0905633
-0.719521
1.10148
-0.13089
-0.3834
2.97211
0.331827
2.74982
1.23084
2.61056
1.89497
0.676403
4.02711
2.83781
1.72041
0.221155
0.77904
2.03343
-1.01424
4.41715
2.40163
0.551155
0.889709
-0.311272
0.844619
2.45698
2.1699
0.199442
0.85165
-0.599092
1.43637
1.04358
2.01502
-0.210706
2.06337
0.779613
1.20498
2.51412
1.5648
1.45265
0.843045
3.0149
3.72286
-0.335013
0.192563
2.01088
-0.175682
2.09513
1.76671
0.24245
1.17936
0.0729369
2.51893
1.36312
1.9231
0.210749
2.06727
0.168147
-0.0878801
0.072152
3.78413
3.17006
1.94504
2.0529
0.253257
2.86127
0.690495
0.328257
1.63915
1.74305
1.99792
1.82212
0.77848
2.19566
2.31492
0.888635
1.93506
1.62561
0.295701
1.0929
-0.482247
0.784274
1.15321
2.21114
3.43779
4.17334
2.13798
1.22239
2.36151
1.3036
1.32838
2.81732
0.626101
1.80805
3.8357
-0.693503
1.46136
1.59101
2.09633
3.06784
1.32975
-0.454424
-0.248652
0.489002
3.52938
2.00161
-0.88753
1.11925
1.44953
-0.342648
0.289109
0.59277
3.47082
2.4438
0.952864
0.914627
1.3207
1.52984
3.2947
4.19861
1.74738
0.27393
1.1939
-0.871611
1.77659
0.977094
-0.114497
0.196443
0.748101
-0.299635
1.93222
0.169021
0.702767
0.282421
0.15608
0.290806
0.900588
0.439094
0.480853
0.558577
0.350796
2.33044
2.33448
3.20133
1.2583
4.00896
2.1408
0.656973
1.53193
2.16833
0.0346982
1.93324
3.52191
0.524971
0.689878
0.518817
2.87751
0.489231
1.70763
0.58362
1.30977
0.615933
1.74648
2.0849
-0.660259
2.46879
0.00252066
-0.0713816
0.594078
2.37192
2.71148
3.03963
-1.24733
0.85511
1.0019
2.31981
1.85346
0.646483
2.21787
0.0919217
-0.853235
0.751356
-0.453549
3.05069
0.848428
0.26409
-0.198317
-0.127579
0.652914
1.45402
0.781285
2.83527
5.73354
1.70151
2.04804
-0.901073
3.4843
-0.239654
0.857015
1.05913
0.581007
0.65344
0.950913
0.219355
-1.15416
0.363483
4.75481
2.17198
0.969665
1.82762
1.76478
0.0680591
2.10642
-1.01459
0.290782
-0.0425003
-0.424848
4.16998
0.157683
-0.423129
-0.0368777
0.661729
0.518812
1.06026
-1.79388
3.17203
4.01342
5.4682
3.96254
-0.0126347
-0.635415
1.39879
0.776274
0.614739
1.20739
1.30998
1.9381
5.00597
-1.21622
6.30827
-0.474905
7.23162
0.801528
3.3513
1.60916
2.197
0.303313
1.28791
2.03204
0.09772
1.53024
3.02354
1.23387
1.72334
-0.865185
3.89141
2.27169
1.15408
0.081992
1.95779
2.36213
2.42078
0.862191
-0.36385
0.623051
1.99295
0.0714969
1.17879
2.23454
0.244026
1.99277
0.0575022
4.40583
1.01183
2.74918
0.364485
-0.7172
1.49404
-0.450088
0.0749112
-1.00848
-0.995335
-0.110888
0.948332
-0.888856
-1.04223
2.0566
2.32491
3.37378
0.793496
-0.525406
1.9909
-0.779249
-0.702003
4.18453
2.38509
1.95843
3.86496
3.49582
2.94597
9.51012
5.7281
5.52412
-0.295384
4.799
-0.597068
2.34086
0.303757
-0.330842
-0.145122
-0.440763
-0.315473
0.517757
4.6568
9.27189
-0.537978
-0.943453
1.38986
-0.584561
3.40822
6.33046
3.50616
2.31291
1.49644
10.1038
10.636
5.67193
-0.106794
3.35361
1.23509
6.18938
3.37102
8.95258
7.26706
1.05633
10.3303
3.2704
0.5089
0.416234
3.85282
1.71273
4.11703
0.355124
-0.201737
0.452684
-0.066703
-0.277711
-0.130765
7.05646
0.870819
0.888933
2.74115
2.34754
-0.632194
1.00112
-0.14783
0.236346
-0.933296
1.22727
8.48585
0.387003
2.48918
0.189534
4.31619
0.546171
1.07599
1.64072
1.68412
1.7734
4.12611
1.22431
-0.486843
0.476081
-0.1619
-0.227516
4.46126
0.948439
3.86722
-0.625707
0.950542
4.53415
0.926373
2.16955
0.359581
-0.553891
0.0439102
-0.782104
-0.521642
0.714334
6.19027
0.127301
-0.803827
4.07783
1.11022
2.79927
4.8353
-0.124875
0.215002
-0.688398
-0.963286
0.987754
0.3656
1.79246
0.0615954
2.22005
3.81926
1.10585
0.501559
1.7099
0.584528
2.48683
3.56696
0.574621
2.96343
1.99518
0.438301
-0.658097
-1.59888
2.89719
1.02276
0.580397
2.41961
3.43628
0.232788
4.74067
1.50789
-0.454798
-1.36994
1.83478
-0.23068
-0.243259
-1.08559
1.34756
2.90839
5.77817
6.75078
-0.165819
1.68131
4.52422
2.40194
2.04988
-1.32039
-1.03418
3.20899
0.165165
2.03143
0.980002
1.00371
1.82305
2.73914
0.346308
1.33367
3.18779
2.08161
1.39114
1.75003
0.739159
-0.525518
1.15615
3.41365
-1.30295
2.26075
1.27394
2.65965
-0.774467
-0.0896715
3.85917
3.5084
0.427787
4.31325
0.00257506
2.50977
0.626934
0.420327
0.636878
0.173354
0.0445979
0.707467
0.0582438
-0.388333
2.02834
1.63626
0.773083
2.73932
5.25605
0.773011
0.4972
1.56876
0.186287
SCALARS CoVolArea double 1
LOOKUP_TABLE default
0.0262713
0.0256917
0.0145522
0.00911417
0.0191898
0.0262902
0.0119815
0.0194668
0.0173399
0.0203672
0.0168503
0.0178768
0.0442211
0.052185
0.0601876
0.0600577
0.0699306
0.0498822
0.0495159
0.0593013
0.0541103
0.0552129
0.0476822
0.0434257
0.0689909
0.0450971
0.062319
0.0535612
0.0155519
0.044114
0.0540146
0.0596268
0.0477721
0.0609924
0.0447512
0.0482963
0.0710264
0.0487043
0.0506095
0.0474858
0.0670292
0.0507539
0.0446034
0.0562089
0.058189
0.0465264
0.0526049
0.0439847
0.0578619
0.0660899
0.0577674
0.0702048
0.0595228
0.0565271
0.0623197
0.0585559
0.0708022
0.058744
0.0595523
0.050291
0.0512379
0.0589317
0.048431
0.0555708
0.0461666
0.0482777
0.0512254
0.0496689
0.0503613
0.054997
0.0508194
0.0491305
0.0492165
0.0589705
0.0540979
0.0572293
0.0327124
0.0558456
0.0485025
0.0536031
0.0591395
0.0406459
0.0534621
0.0453474
0.0465947
0.0410779
0.0581744
0.0549613
0.0575611
0.0593315
0.0519187
0.055057
0.0428538
0.0535939
0.077774
0.0405254
0.0558165
0.03234
0.0571343
0.0466362
0.031205
0.0381754
0.0312134
0.0396933
0.0372042
0.0479906
0.0437853
0.0479498
0.0483903
0.0505037
0.0491995
0.0516239
0.038476
0.0504904
0.0426613
0.0568518
0.0572827
0.0554785
0.0527706
0.0473451
0.0500709
0.0330996
0.0306684
0.0543791
0.0527127
0.0392895
0.0346434
0.0397782
0.0378877
0.0267342
0.025755
0.0392482
0.0402652
0.0652723
0.0434488
0.0664822
0.0349161
0.0298035
0.0518261
0.0486544
0.0526279
0.0493506
0.0548444
0.0571498
0.0722907
0.0468529
0.0378356
0.059495
0.0519903
0.050498
0.0518972
0.0533197
0.0586422
0.0534709
0.0602395
0.0533421
0.0585574
0.0418352
0.0398412
0.0537081
0.051971
0.0453974
0.0405838
0.0507716
0.0454722
0.0450674
0.046967
0.0420789
0.0592181
0.0566696
0.0622928
0.0354328
0.0421862
0.0317854
0.0543514
0.0473192
0.047614
0.044613
0.0447141
0.0453661
0.0455803
0.0574458
0.0454863
0.06346
0.0609014
0.0585428
0.0563053
0.0617343
0.0606352
0.0564119
0.0638807
0.0660474
0.0591036
0.0459423
0.0615562
0.0611758
0.0667336
0.0662771
0.0729858
0.0444296
0.0570582
0.0620393
0.0606508
0.0579232
0.0599822
0.0599393
0.0443845
0.0576413
0.0474411
0.0725192
0.0647889
0.0661086
0.0579141
0.0607747
0.0631738
0.0685314
0.0696726
0.0781078
0.0518463
0.0435489
0.0670535
0.057549
0.0488361
0.0520554
0.0549107
0.0414136
0.0527293
0.0547272
0.0543561
0.0509872
0.0589256
0.0669038
0.0365374
0.0478789
0.0353914
0.0538169
0.0505628
0.0480781
0.0464024
0.049278
0.0521832
0.064495
0.0598724
0.0612478
0.0503001
0.0430141
0.0473379
0.0468953
0.0509645
0.0498362
0.0520435
0.0352928
0.0465492
0.0543343
0.0519709
0.0566639
0.0476788
0.0479147
0.0366947
0.0487589
0.0335942
0.0537326
0.0533681
0.0555929
0.0542611
0.0493102
0.0509216
0.0512032
0.0531093
0.0529812
0.046446
0.0506669
0.0465915
0.043732
0.0486898
0.0374333
0.0535389
0.0552768
0.0566147
0.0622387
0.0561026
0.0542449
0.040221
0.0259252
0.0513907
0.0494699
0.0412434
0.046981
0.0542011
0.0550271
0.0587782
0.0572895
0.0559856
0.0443899
0.0583915
0.0559263
0.0418165
0.0499177
0.0485869
0.0434155
0.0528127
0.0554566
0.0542961
0.0514896
0.0554123
0.0591207
0.0332986
0.0430452
0.0354837
0.0479596
0.0447844
0.0420414
0.0445724
0.0471227
0.0517349
0.0621489
0.0615239
0.059236
0.047368
0.0408329
0.0509194
0.0491868
0.036588
0.0388907
0.0429005
0.0385472
0.0494895
0.0636678
0.0554053
0.0657116
0.0495229
0.04975
0.0423495
0.0562977
0.037442
0.050902
0.0568721
0.0515308
0.0593559
0.061122
0.0662894
0.0539581
0.0606434
0.0537605
0.0293969
0.0292839
0.0524001
0.0348495
0.0518766
0.0418853
0.0588581
0.0356784
0.0548883
0.0704898
0.0664932
0.0597578
0.0692994
0.0698024
0.0292838
0.0305309
0.0219641
0.0548574
0.0382961
0.0447464
0.0487812
0.0383633
0.0596337
0.0735832
0.075732
0.0693707
0.0459706
0.0333199
0.0631817
0.0555816
0.0468409
0.0513887
0.0524165
0.0320318
0.0390186
0.0195665
0.0292803
0.0193469
0.0471808
0.0585668
0.0231562
0.0355995
0.0272223
0.0474048
0.0396243
0.0368069
0.024859
0.0348868
0.022988
0.0525296
0.0333579
0.0494575
0.0415369
0.033497
0.04791
0.0446318
0.0516975
0.0447269
0.0505902
0.0404927
0.0475344
0.0518877
0.0481431
0.0500225
0.0471661
0.048715
0.0345081
0.0472156
0.0353863
0.0508461
0.0492009
0.0561677
0.0536678
0.0505359
0.0522738
0.0508968
0.0518231
0.0510406
0.0247554
0.0432058
0.0270508
0.0434167
0.0463937
0.0398017
0.0406306
0.0506895
0.0512735
0.0400496
0.0598537
0.0382569
0.0598738
0.0652064
0.0610345
0.057234
0.0651854
0.0516122
0.03571
0.0439401
0.0368467
0.0528659
0.0502388
0.0533008
0.0541558
0.0452967
0.0505732
0.0474231
0.0494048
0.0507178
0.0317991
0.017691
0.0336333
0.0329788
0.0521221
0.0372262
0.0526023
0.0357961
0.0530982
0.0497975
0.0585704
0.0570623
0.0575173
0.0481485
0.0253465
0.0342812
0.0299784
0.0533127
0.0393127
0.0569157
0.0397848
0.0318501
0.0366881
0.04021
0.0412786
0.0396128
0.0217311
0.0149802
0.0542252
0.033251
0.0395294
0.02739
0.0415674
0.021469
0.0287527
0.0407694
0.0283088
0.0333397
0.0401131
0.0564904
0.0236748
0.0430793
0.0245945
0.0554848
0.0557592
0.0495217
0.0547451
0.0583316
0.058964
0.047539
0.0549014
0.0538132
0.0282296
0.0187661
0.0591531
0.044819
0.0553324
0.0501958
0.0685236
0.0215506
0.0284897
0.0447322
0.0348354
0.0382209
0.0422555
0.057507
0.0341773
0.0440019
0.0339982
0.0606972
0.0477255
0.0578969
0.0512462
0.0489072
0.0499976
0.0676457
0.057328
0.0678595
0.0313291
0.0631773
0.0428468
0.0386382
0.0493004
0.0360952
0.0525146
0.0600523
0.0657477
0.0605983
0.0635224
0.0713865
0.038072
0.0321285
0.0550547
0.0448233
0.0406608
0.034019
0.0430264
0.0732363
0.0623894
0.0630377
0.0556669
0.0612478
0.0589267
0.0573605
0.0533256
0.0467431
0.0462235
0.0463491
0.0528252
0.0594556
0.048552
0.046493
0.0422971
0.0498172
0.0491094
0.0595193
0.0545098
0.0581654
0.0441429
0.0512975
0.0484222
0.0489966
0.0488612
0.0453247
0.0587409
0.0494332
0.053905
0.0570354
0.0530846
0.052119
0.0570872
0.0662052
0.0676386
0.0550886
0.056659
0.0518608
0.030775
0.0583509
0.0467111
0.0353075
0.0415194
0.0282947
0.0627576
0.0461269
0.0388852
0.051091
0.0459029
0.0457448
0.0470905
0.0511444
0.0602154
0.0648615
0.0661084
0.0566979
0.0476386
0.0528114
0.0535852
0.0570215
0.064746
0.0340684
0.0253757
0.0358626
0.0392059
0.0473804
0.0390747
0.0591853
0.0458859
0.0308531
0.0215225
0.0507779
0.0359835
0.05498
0.040055
0.0512727
0.0460887
0.0444282
0.0489459
0.0504721
0.0531003
0.0542506
0.0564382
0.0539723
0.0463426
0.0449185
0.0414177
0.0446853
0.0495047
0.0539205
0.0511072
0.0538883
SCALARS SignedDistance double 1
LOOKUP_TABLE default
0.0564771
0.044179
0.0496121
0.0308183
0.060075
0.0375126
0.0361849
0.0439633
0.0564142
0.0948164
0.0357511
0.115602
0.0592325
0.0172591
0.0265097
0.043349
0.0264527
0.0476781
0.0477094
0.121521
0.0900126
0.0778135
0.0265881
0.0528989
0.119587
0.0607271
0.131095
0.0775854
0.0113597
0.0345652
0.0791591
0.132461
0.0632766
0.0731945
0.0279724
0.0764029
0.330121
0.135081
0.142218
0.0241148
0.154472
0.0764898
0.018598
0.0160783
0.0508915
0.039329
0.0365091
0.0468571
0.0326168
0.0684226
0.0315487
0.052708
0.0391324
0.0224155
0.0388394
0.0385147
0.0477837
0.0382663
0.0260378
0.0463078
0.0369514
0.0282712
0.0747142
0.0523938
0.0765992
0.0391882
0.064148
0.0546027
0.0343671
0.0807523
0.0524999
0.0846448
0.0644016
0.116785
0.0460539
0.0810276
0.0399557
0.0447211
0.0443009
0.0496285
0.0493932
0.041733
0.0260554
0.0537486
0.0343676
0.0436045
0.0492134
0.0487446
0.089465
0.0368242
0.0702057
0.0922923
0.0488127
0.098342
0.0943246
0.0287305
0.0885961
0.0219396
0.0727449
0.0719476
0.0402498
0.0599553
0.0336274
0.112765
0.0793728
0.041656
0.0501554
0.0594466
0.0421545
0.0919457
0.0424338
0.0705094
0.0435977
0.0466824
0.061757
0.0654312
0.132228
0.120609
0.0669619
0.0412275
0.0725543
0.0555012
0.0279117
0.0630656
0.0926045
0.0796141
0.00468981
0.0394952
0.0145275
0.0433565
0.0257923
0.0204437
0.036051
0.179391
0.0373665
0.177005
0.0604048
0.0361877
0.0438203
0.0792534
0.0384748
0.0848264
0.0589515
0.107063
0.106917
0.0721068
0.0451385
0.0383933
0.0487922
0.0550541
0.0492112
0.0388096
0.129695
0.0631152
0.192535
0.054032
0.0961804
0.0981844
0.0525246
0.0709721
0.0423743
0.0575994
0.0295604
0.0324015
0.0542001
0.0285084
0.0304915
0.0434936
0.0431742
0.0423289
0.0303818
0.0927501
0.0232963
0.0618726
0.0521486
0.0444024
0.0563889
0.0584339
0.0335443
0.0411456
0.0608897
0.0501465
0.0693398
0.0374538
0.0385493
0.0303056
0.0618935
0.0301764
0.0470915
0.0322584
0.0200412
0.0354961
0.0441408
0.0434611
0.0230809
0.0243627
0.0748208
0.0550773
0.0353257
0.0638067
0.0343932
0.0361348
0.0415784
0.0387814
0.0403429
0.0368255
0.0379459
0.0373871
0.0463853
0.0343774
0.0565089
0.0807765
0.0520851
0.0235561
0.0220705
0.03732
0.034988
0.0755395
0.0319075
0.0362022
0.0685005
0.043535
0.0313302
0.0345168
0.0353054
0.0426493
0.0460743
0.0296084
0.0358173
0.0257083
0.0359173
0.0690582
0.0541561
0.0785078
0.055452
0.0435984
0.0375905
0.0203898
0.019858
0.0388769
0.045802
0.033804
0.0404562
0.0385271
0.0322425
0.0405202
0.0358934
0.0209679
0.0876926
0.0356421
0.0552314
0.0553915
0.0423784
0.0644849
0.0759293
0.106209
0.0609883
0.0275779
0.0599619
0.0957877
0.0586566
0.0512302
0.0776614
0.0737392
0.0734155
0.0460287
0.0495855
0.0478015
0.0587117
0.0454225
0.0400139
0.0318223
0.0269203
0.0406725
0.0638883
0.0735753
0.120091
0.0512748
0.0814073
0.0984596
0.0830052
0.0647693
0.0829249
0.0737368
0.0723725
0.0737585
0.0690156
0.0706358
0.0677963
0.0605918
0.0746711
0.0781263
0.0474595
0.0509081
0.0365873
0.037254
0.0417339
0.0455643
0.0256853
0.0351613
0.0589671
0.0404355
0.040963
0.063137
0.0339203
0.0231519
0.0663221
0.057531
0.0697776
0.030837
0.0586512
0.0546003
0.0617446
0.0507208
0.0549964
0.0403735
0.0296679
0.0700665
0.0384221
0.0639934
0.0698341
0.0572134
0.0375404
0.0349199
0.0310869
0.125766
0.0520823
0.0489348
0.0336286
0.066548
0.0563176
0.0405453
0.0993059
0.131068
0.0704238
0.074586
0.0389569
0.0666137
0.102353
0.0956426
0.0952229
0.0525133
0.0439384
0.0466765
0.0409963
0.045788
0.0718416
0.0450483
0.169833
0.054288
0.141605
0.0670761
0.071345
0.0913217
0.0841648
0.0746746
0.10928
0.150603
0.0531074
0.0278759
0.0410716
0.080975
0.0556034
0.0508029
0.118476
0.0573221
0.174921
0.108378
0.115289
0.129198
0.0294033
0.0669494
0.114318
0.084992
0.0694213
0.0798934
0.059733
0.0921645
0.0458577
0.0326239
0.0364691
0.0363397
0.0941305
0.137379
0.0357942
0.0589824
0.054202
0.0426617
0.0522149
0.0364045
0.0339949
0.113297
0.0264598
0.0957047
0.0154627
0.0635839
0.0400621
0.0556319
0.0401093
0.0675718
0.0781643
0.0603053
0.0684293
0.0435505
0.0261629
0.0405348
0.0300681
0.0843524
0.0224875
0.0275472
0.0688026
0.0805783
0.0511031
0.0402145
0.0367458
0.0758158
0.0928068
0.0573768
0.0388409
0.0681537
0.0429422
0.0438895
0.0545195
0.0465575
0.0492136
0.0320561
0.0458698
0.0439505
0.0593852
0.0765521
0.0424476
0.0921499
0.107395
0.132396
0.136387
0.140003
0.0730674
0.16465
0.181305
0.0723594
0.0450291
0.0345432
0.073175
0.0891429
0.039144
0.1136
0.103134
0.0328172
0.0514119
0.0604854
0.0430301
0.0437391
0.0373791
0.019183
0.0415339
0.0415595
0.160425
0.0272371
0.173352
0.0457112
0.0732804
0.0840632
0.106451
0.107337
0.112875
0.0560823
0.0513878
0.00781754
0.0589442
0.150376
0.0783337
0.250642
0.0267031
0.0182106
0.0346492
0.0504768
0.0520449
0.00972645
0.0191692
0.0295692
0.161758
0.0464758
0.0608027
0.0312904
0.0453473
0.0147017
0.0159031
0.0607337
0.0122483
0.0341587
0.130492
0.161335
0.018868
0.0458593
0.0188724
0.148366
0.173053
0.145787
0.169839
0.180757
0.169924
0.0209518
0.0773798
0.0718011
0.0469443
0.04931
0.163958
0.0700706
0.124778
0.105317
0.171107
0.0427903
0.0108776
0.0450974
0.0347473
0.0526983
0.0297069
0.123302
0.0691639
0.0530172
0.0556918
0.0597713
0.0289152
0.0607265
0.0884566
0.0636349
0.0623494
0.132365
0.0180582
0.0818333
0.0337158
0.14153
0.0668657
0.0314368
0.0678813
0.0537025
0.0983161
0.130828
0.0993191
0.115902
0.12124
0.0937645
0.0303546
0.0949726
0.17489
0.0549456
0.0490251
0.0389756
0.0336132
0.130528
0.0973172
0.162746
0.128482
0.0564895
0.0744689
0.0547353
0.0698047
0.0461031
0.0282692
0.045901
0.0621314
0.0454357
0.0662488
0.0414892
0.0288266
0.0528765
0.0305135
0.0413597
0.0635239
0.0838445
0.0840328
0.042909
0.0487365
0.0509241
0.0418019
0.0304569
0.0971041
0.0268023
0.04554
0.100331
0.117297
0.0829599
0.165949
0.117208
0.149573
0.0487047
0.0439652
0.0179739
0.0125918
0.155998
0.0526908
0.0250709
0.0375022
0.0495586
0.205738
0.122158
0.0405103
0.148745
0.0520533
0.053725
0.0613064
0.0496183
0.0481649
0.135904
0.0729851
0.0331492
0.0488945
0.0683491
0.0468967
0.0815957
0.112886
0.0614138
0.0358448
0.112795
0.0493652
0.0567525
0.047247
0.116777
0.0834662
0.036673
0.0339149
0.0814435
0.0359418
0.0792216
0.0440672
0.059687
0.0595034
0.0630032
0.0641355
0.100008
0.0715047
0.081836
0.10584
0.0520804
0.0369633
0.063915
0.0424124
0.0227331
0.0569328
0.0626888
0.0499271
0.0657225
