# vtk DataFile Version 4.2
vtk output
ASCII
DATASET POLYDATA
POINTS 642 double
-0.470806 1.09612 0.733345
0.565737 1.11648 0.719937
-0.459212 -1.30326 -0.0265974
0.607105 -1.39449 -0.0367991
0.0368499 -0.809921 2.03296
0.0124516 1.203 1.75536
-0.00486172 -0.781051 -2.14755
0.0148964 0.648591 -2.11964
1.03838 0.00545421 -1.53005
1.17071 0.132352 1.42596
-0.912228 -0.0348961 -1.50044
-1.04764 0.177118 1.41526
-0.913461 0.866798 1.15472
-1.01529 0.683393 1.8779
-0.499027 1.65598 1.39324
0.56997 1.65844 1.38951
0.0397755 1.32196 0.771325
0.417985 0.50501 -1.38664
-0.286967 0.469674 -1.37145
-0.787191 0.46277 -2.1333
-0.451485 0.180359 -0.855554
-0.760239 -0.0366784 0.181471
1.06087 0.727382 1.87019
1.04567 0.917669 1.15517
-0.779907 -0.438279 1.95538
0.016759 -0.153485 2.23271
-0.553004 -0.541368 -0.859879
-0.792118 -0.6603 0.796821
-0.00276088 -0.0067221 -2.49691
-0.879336 -0.565379 -2.16761
0.592963 0.222923 -0.908032
1.00843 0.553695 -2.19396
0.922604 -0.69531 0.801417
0.88182 -0.440459 1.99587
0.44165 -1.26087 1.06151
-0.344463 -1.23175 1.06534
0.0622054 -1.75043 -0.0906766
-0.169366 -1.07182 -0.966533
0.313046 -1.22972 -0.90928
1.01021 -0.563797 -2.19484
0.700447 -0.649378 -0.781596
0.887481 -0.036413 0.183696
-0.68231 1.08353 0.924093
-0.797491 1.27748 1.31347
-0.522581 1.40495 1.10276
-1.08839 0.423542 1.71327
-1.02981 0.880086 1.53793
-1.04084 0.515072 1.31842
-0.304025 1.58828 1.60395
-0.802936 1.29029 1.62347
-0.563325 0.989407 1.84655
-0.193005 1.59223 1.16052
-0.270137 1.23131 0.772285
0.340306 1.58751 1.60417
0.0152032 1.78473 1.42036
0.357782 1.26489 0.745805
0.250552 1.61974 1.13716
0.613245 1.42032 1.10532
-0.0519244 0.604313 -0.101904
-0.243082 0.570019 -0.0562482
0.356107 0.574702 -0.0812639
0.163354 0.607094 -0.110281
-0.244837 0.65387 -1.8316
0.054919 0.510831 -1.36794
0.318428 0.661539 -1.82219
-0.446431 0.358283 -1.23792
-0.435771 0.592452 0.142624
-0.51957 0.630928 -2.20405
-0.605207 0.623046 -1.8411
-0.847262 0.172221 -1.36037
-0.799504 0.413229 -1.64071
-0.910755 0.168893 -1.8174
-0.678029 0.625596 0.509776
-0.658415 -0.0852497 -1.00415
-0.5435 0.0893045 -0.3959
-0.876253 0.434856 0.818836
-0.97307 0.146678 1.03761
0.956447 1.33303 1.33129
0.799594 1.10601 0.934711
0.612404 1.00063 1.84167
0.924118 1.31877 1.63635
1.16596 0.556771 1.29281
1.15289 0.980263 1.5483
1.16001 0.378747 1.70005
-0.615536 0.265579 2.02791
0.0103975 0.598926 1.98501
-1.01487 -0.0784979 1.68975
-1.01019 0.0534893 2.03815
0.0274651 -0.63072 2.32683
-0.53856 -0.365831 2.23047
-0.389089 -0.703383 2.0757
-0.829903 -0.309361 0.544535
-0.95562 -0.162463 1.22541
-0.862778 -0.268373 -1.36983
-0.640093 -0.349863 -0.460248
-0.626753 -1.06524 0.319576
-0.719396 -0.745452 0.0320555
-0.56906 -1.07571 -0.282728
-0.897125 -0.035259 -2.22292
-0.912187 -0.259317 -1.83958
0.00230887 0.497512 -2.37581
-0.621449 0.323883 -2.48002
-0.537949 -0.754953 -2.23313
-0.620249 -0.350641 -2.40905
-0.00309111 -0.581414 -2.3758
0.748085 0.64136 -1.84908
0.600288 0.636606 -2.19953
0.543794 0.595648 0.109679
0.594117 0.408023 -1.29
1.03951 0.239041 -1.87108
0.940095 0.478764 -1.69899
1.00086 0.234131 -1.39207
0.762002 -1.1675 0.296184
0.728772 -1.03611 0.95074
0.575802 -1.4012 0.436328
1.11602 -0.124929 1.73677
0.95868 -0.542506 1.46509
1.07164 -0.231415 1.22837
0.237129 -1.02591 1.64892
0.64718 -0.850345 1.62662
0.456726 -0.731576 2.09659
0.225519 -1.50448 0.418005
0.343644 -1.61545 -0.0883262
-0.153213 -0.993458 1.63492
0.044082 -1.29481 1.09741
-0.173295 -1.52014 -0.0767716
-0.101798 -1.45827 0.421993
-0.426543 -1.3176 0.453333
0.206797 -1.6539 -0.546136
0.469929 -1.44466 -0.473535
-0.35928 -1.37598 -0.479169
-0.07397 -1.64648 -0.550826
0.216935 -0.767664 -1.72608
0.0690245 -1.32736 -0.888574
-0.201501 -0.766527 -1.7631
0.532995 -0.928869 -0.912058
0.71851 -1.18165 -0.279026
0.54576 -0.754997 -2.23401
0.62698 -0.657958 -1.79655
0.963319 -0.249904 -1.37996
0.873874 -0.460156 -1.67552
1.03376 -0.236159 -1.87695
0.828989 -0.833227 0.0308318
0.788013 -0.0545048 -1.0176
0.795882 -0.380433 -0.423031
0.998093 -0.342678 0.558302
1.09151 0.125363 0.99707
0.612305 -0.370516 2.23304
1.09688 -0.00925469 2.09577
0.658558 0.244976 2.03519
-0.635128 -0.980498 0.95908
-0.549695 -0.802095 1.60297
-0.808501 -0.500887 1.43876
-0.595058 -0.678913 -1.8438
-0.406438 -0.779925 -1.01674
-0.824533 -0.518285 -1.68036
1.01738 0.00171714 -2.23775
0.658991 -0.346357 -2.38197
0.672312 0.33307 -2.38663
1.0385 0.464828 0.783361
0.66843 0.11606 -0.426844
0.802997 0.633065 0.503633
-0.55107 1.10965 0.803825
-0.627853 1.25964 1.02076
-0.509025 1.23699 0.882683
-0.884851 1.07366 1.24901
-0.762348 1.20287 1.13695
-0.796824 0.99637 1.04541
-0.524819 1.55819 1.25683
-0.663809 1.39313 1.20805
-0.660807 1.48238 1.36744
-1.04962 0.270148 1.53395
-1.055 0.480956 1.52206
-1.04882 0.310215 1.3824
-1.04577 0.796293 1.7271
-1.06716 0.634884 1.65807
-1.14319 0.548361 1.83404
-1.00463 0.706403 1.24192
-1.04378 0.698531 1.44003
-1.00264 0.904865 1.34213
-0.12842 1.3779 1.6669
-0.440381 1.3022 1.6932
-0.229533 1.12219 1.78579
-0.663036 1.55 1.50891
-0.580271 1.46792 1.60401
-0.428559 1.67533 1.51175
-0.826537 0.83727 1.86733
-0.725326 1.15716 1.74439
-0.962356 1.01561 1.79851
-0.941946 1.10837 1.42926
-1.00809 1.10859 1.61176
-0.811883 1.31671 1.47225
-0.396673 1.34652 0.958279
-0.40937 1.15107 0.749917
-0.346427 1.66962 1.28569
-0.378317 1.52676 1.14707
-0.119524 1.29717 0.774462
-0.239432 1.43231 0.990109
-0.0615717 1.47411 0.998188
0.156618 1.37858 1.66646
0.0124549 1.62572 1.60211
0.31174 1.77812 1.41082
0.180369 1.78164 1.5377
0.475977 1.66953 1.50654
-0.153135 1.78071 1.53823
-0.276456 1.7798 1.4117
0.498112 1.17358 0.733379
0.477594 1.36514 0.944376
0.602933 1.25664 0.875286
0.129436 1.47933 0.993847
0.31071 1.45087 0.97471
0.201613 1.31117 0.762889
0.620372 1.58103 1.25108
0.452362 1.54151 1.13442
0.401194 1.66891 1.27978
-0.112245 1.70926 1.30273
0.152493 1.71364 1.29802
0.0260651 1.65043 1.13965
-0.284837 0.985413 0.487938
-0.393311 0.951545 0.518676
-0.0230237 1.05883 0.476695
-0.154462 1.03314 0.475021
-0.170929 0.312111 -0.789164
-0.150721 0.585508 -0.0917995
-0.0971832 0.331068 -0.838002
0.489987 0.967344 0.500695
0.379206 1.00105 0.470217
0.231134 0.34089 -0.85752
0.264202 0.589414 -0.108771
0.305995 0.325251 -0.818428
0.246947 1.04105 0.466699
0.114674 1.06195 0.473909
-0.112746 0.655241 -2.00944
0.0278047 0.659505 -1.82549
0.157192 0.657112 -2.00746
-0.139902 0.495168 -1.37536
-0.0860168 0.597489 -1.63155
-0.299683 0.585484 -1.64446
0.412781 0.63256 -1.62817
0.175473 0.608002 -1.62447
0.257444 0.514801 -1.37789
0.0551893 0.614442 -0.104901
0.124372 0.352097 -0.867982
0.00529437 0.348183 -0.86153
-0.333798 0.56862 0.0176854
-0.476099 0.939912 0.559149
-0.386812 0.427285 -1.33262
-0.234987 0.29252 -0.711472
-0.379883 0.274932 -0.42112
-0.302398 0.275387 -0.593418
-0.453904 0.271227 -1.06384
-0.223644 0.645508 -2.15603
-0.386197 0.647338 -2.02277
-0.728662 0.600275 -2.02057
-0.596493 0.634431 -2.04707
-0.709832 0.610228 -2.22061
-0.458461 0.643316 -1.8464
-0.452085 0.560742 -1.64096
-0.906772 0.058455 -1.4543
-0.905599 0.190513 -1.58382
-0.91742 0.0355075 -1.62142
-0.719248 0.334732 -1.36786
-0.859512 0.304483 -1.49466
-0.672909 0.200234 -1.21217
-0.888321 0.316728 -1.9987
-0.884504 0.327776 -1.74876
-0.797222 0.449069 -1.90471
-0.565704 0.506916 -1.59384
-0.704324 0.529066 -1.7713
-0.659644 0.424432 -1.49728
-0.58502 0.925253 0.638404
-0.483228 0.30487 -0.168013
-0.556897 0.632869 0.318429
-0.698498 0.876082 0.769748
-0.808385 0.789292 0.897137
-0.871782 -0.0403006 -1.36446
-0.760335 0.0382622 -1.22277
-0.659767 0.0550892 -0.0755883
-0.562249 -0.0225914 -0.73589
-0.601004 -0.107956 -0.470408
-0.59151 0.0711144 -0.973462
-0.474521 0.121128 -0.665373
-1.03447 0.330962 1.19085
-1.04018 0.173661 1.28043
-0.903283 0.655579 1.01973
-0.988174 0.50161 1.10968
-0.855289 0.0754497 0.688028
-0.938281 0.295975 0.935308
-0.810979 0.20068 0.535177
-0.603973 0.327632 0.104256
-0.720667 0.292051 0.339585
-0.791528 0.556265 0.671262
0.737861 1.28137 1.02677
0.652216 1.12829 0.801174
0.781756 1.5024 1.37253
0.778621 1.41538 1.22186
0.929295 1.0327 1.05771
0.894982 1.23908 1.15482
1.02084 1.13169 1.26801
0.259595 1.12509 1.78496
0.490267 1.30612 1.69106
1.03359 1.05568 1.77199
0.807708 1.17768 1.74197
0.884599 0.869915 1.8659
0.655878 1.46924 1.6074
0.765136 1.56458 1.51972
1.17441 0.291788 1.36994
1.16727 0.497899 1.4859
1.17398 0.213762 1.53753
1.11859 0.974609 1.36018
1.16092 0.779385 1.42303
1.1274 0.764212 1.23085
1.15237 0.559424 1.81923
1.14073 0.709724 1.62352
1.13383 0.892835 1.71892
0.986732 1.38052 1.49598
1.13747 1.17988 1.63704
1.08461 1.17966 1.4587
-0.306208 0.796659 1.89904
0.0115147 0.975483 1.8633
-0.867395 0.515401 1.9811
-0.62514 0.647809 1.95066
0.0125545 0.185545 2.0716
-0.319842 0.413036 2.01501
-0.305244 0.0256224 2.13477
-1.04362 0.0893266 1.51821
-1.04395 0.166334 1.70574
-0.887991 -0.209696 2.01293
-1.01789 -0.0197184 1.8885
-0.913347 -0.246812 1.83039
-1.04174 0.27643 1.86007
-1.0228 0.383371 1.95302
0.0324622 -0.759014 2.18982
-0.196215 -0.683525 2.22639
-0.114944 -0.780547 2.06422
-0.281816 -0.276803 2.24091
-0.240589 -0.500738 2.24119
0.0226207 -0.425573 2.26536
-0.619018 -0.603399 2.05445
-0.496666 -0.57454 2.22501
-0.703873 -0.421494 2.14361
-0.84779 0.147654 2.05486
-0.785222 -0.167392 2.14439
-0.585133 -0.0948342 2.16745
-0.99073 -0.00339108 1.13087
-1.03591 0.048407 1.35644
-0.817586 -0.161985 0.377366
-0.892259 -0.0681375 0.816553
-0.848314 -0.405196 1.03232
-0.885101 -0.228642 0.929936
-0.818981 -0.483926 0.686769
-0.907426 -0.133925 -1.45983
-0.779281 -0.15539 -1.22826
-0.589492 -0.437788 -0.690874
-0.643015 -0.27906 -1.00405
-0.693515 -0.365575 -1.20968
-0.604442 -0.200363 -0.76453
-0.701394 -0.231697 -0.161003
-0.536716 -1.21678 0.101596
-0.633936 -1.10132 0.00623428
-0.523297 -1.23262 -0.120049
-0.736702 -0.713548 0.426356
-0.679262 -0.922038 0.194119
-0.689419 -0.878904 0.55315
-0.569408 -0.842101 -0.500853
-0.656237 -0.927296 -0.142978
[...]
POINT_DATA 642
SCALARS Mean_Curvature double 1
LOOKUP_TABLE default
-0.141702
0.2001
1.22772
2.44131
-0.49333
0.343183
0.648005
0.693027
1.2894
1.02899
1.65658
0.946461
0.516972
4.21657
5.26248
4.64686
1.23969
0.628259
0.618422
0.334851
-0.402782
0.88032
4.02487
0.784588
1.41484
1.39651
-0.192311
1.55148
0.251435
5.30312
-0.350759
8.22147
0.778636
0.417102
2.81984
3.28774
10.529
-0.0455572
1.76523
8.63624
0.33067
-0.263192
1.45872
1.43491
0.577975
1.13992
0.689769
1.09971
1.62358
4.59603
1.0814
0.277689
-0.0421182
1.66502
4.37509
1.80615
2.32049
-0.34105
0.649269
0.597186
0.698827
0.684105
1.84949
0.34496
1.20277
1.15188
0.887831
2.33679
4.44211
5.97986
2.85648
0.724676
0.985498
-0.166808
-0.370624
0.399082
0.437105
2.85345
0.933816
0.833327
2.74398
1.4033
2.15597
0.021143
-0.650021
0.613748
1.85667
8.22829
6.94508
2.65727
0.890248
0.229556
0.419184
5.27859
-0.288228
1.44144
-0.0785873
0.616318
2.23857
0.367376
1.41554
4.29775
4.30051
0.388137
0.260035
2.09106
1.75433
1.08705
1.12928
0.659106
1.94681
7.65889
2.03459
1.29474
5.04502
0.765762
0.921179
-0.167725
1.72074
1.55523
2.1796
1.67417
3.98004
0.710047
0.915478
-0.853299
-0.894644
2.03752
3.43529
-0.253891
2.96367
5.81975
-0.552018
1.09063
0.143287
-0.0262987
0.835272
5.78693
1.29692
3.56916
-0.161424
1.24209
-0.428761
-0.250842
-0.229522
1.12342
-0.189352
2.13628
7.19661
-0.793784
2.14768
0.465439
-0.115354
0.455242
0.20573
3.44932
3.63994
-0.349747
0.0162378
1.80703
-0.368214
0.744829
1.18028
1.61735
3.09494
1.10137
1.90512
0.0509439
3.06507
2.5371
0.975352
-0.372237
-0.290447
0.525927
3.05112
-0.284272
9.41844
1.79452
0.932476
2.91341
-0.727763
-0.0622188
0.182999
8.79172
1.79993
5.62064
0.236633
0.985805
6.63485
1.19694
6.13627
2.44758
0.378183
0.609793
2.3016
0.8192
1.27837
0.494742
-0.0299025
-0.737604
0.734089
7.10754
7.60951
4.47314
7.65784
7.46811
0.162751
0.273532
2.64457
-0.368031
0.808652
1.15929
4.0342
0.741326
1.13327
-0.0121728
-0.171014
3.55801
0.45561
0.0584948
0.766211
1.37614
-0.155026
0.71359
0.0536112
-0.0454587
1.02722
0.126353
0.725746
-0.0156915
1.05483
0.785032
0.405664
1.58382
0.32576
0.265657
0.390932
0.662679
1.9862
0.313862
0.322931
0.731944
0.221595
0.205417
0.219594
1.58791
1.32488
-0.498158
-0.143457
-0.479213
-0.279777
1.13165
0.444548
6.50753
1.62301
8.23353
2.19596
0.913715
3.19369
2.04722
0.744509
5.45715
5.15811
-0.201417
2.92048
3.90616
0.305061
0.856812
2.35801
1.00684
2.40747
0.11313
2.55131
0.541425
0.631805
3.98048
0.902665
1.29333
-0.696917
-0.498584
-0.358213
-0.738088
2.16974
1.37017
-0.148843
1.27533
-0.388091
0.651782
0.769022
1.2892
0.801884
1.15402
1.43227
0.484374
1.09994
1.44813
0.00173845
1.76225
1.14849
0.1981
-0.232019
4.02399
0.707303
0.867432
1.07655
8.07189
0.691732
0.446408
0.731812
1.80767
1.71407
1.60338
5.00548
-0.853808
4.70563
6.44479
8.29585
1.64609
-0.206161
0.843245
1.98027
0.48345
-0.605255
0.0923888
0.00196778
1.07598
0.321886
2.90201
2.15599
0.813231
0.751326
5.2446
4.09701
5.26435
0.336327
1.28313
0.136286
0.0514961
2.7833
6.44576
4.67631
0.85946
4.43055
1.0107
1.76432
1.78502
0.725912
0.694751
-0.180417
0.151465
0.437026
2.67637
1.18088
-0.330858
-0.623347
0.154366
-0.56269
0.650796
0.980508
3.34466
2.05152
-0.255104
0.41281
-0.196508
0.16986
0.943063
0.162026
1.00977
3.51732
1.24019
0.636552
0.579087
3.77387
0.770865
0.666182
0.835577
2.08457
3.75933
5.10327
0.867082
0.267934
2.0258
4.42955
4.00619
1.53439
4.83621
5.37887
6.49654
3.14509
7.83379
1.62273
0.324267
1.01618
3.52067
2.29535
4.11851
0.528625
0.93823
2.28329
1.14351
5.32374
0.911169
4.36472
1.71692
0.40305
0.116421
-0.583118
-0.312278
-0.321206
1.02006
0.779857
1.83745
1.98755
3.65729
3.4503
1.25849
0.884783
4.00266
4.59539
3.55233
0.889533
4.79921
1.86982
0.737427
2.87487
-0.410084
2.36336
0.196931
1.78297
1.54765
1.75101
1.50176
0.134155
1.78258
1.42904
1.05649
0.83898
1.36487
1.24919
2.6786
1.89788
-0.0985629
0.193731
0.876672
0.946681
0.148976
3.84817
0.992901
1.45093
0.137897
0.122158
1.20557
-0.617425
-0.8624
-0.0584829
-0.344095
0.719461
-0.958484
3.58205
0.286135
1.46176
1.86678
0.460563
0.231731
2.19272
1.13217
1.36583
1.07753
0.674024
3.68827
-0.357589
3.42566
1.36095
2.86871
0.237922
1.50755
2.09272
2.39164
0.405547
1.31532
0.680139
4.4061
2.17878
1.48554
5.56917
0.688576
-0.579465
2.41855
-1.52173
2.38208
2.81472
2.26996
1.09107
-0.086699
1.15363
1.21405
0.676932
0.769321
-0.0583611
0.470577
0.905739
1.4578
8.01055
5.96794
3.249
2.6801
0.542891
2.84933
0.794654
1.41071
-0.0907988
1.72233
1.55942
2.89448
-0.544927
3.4299
-0.293573
0.422516
2.72053
2.58564
0.392909
-0.0502323
4.13171
-0.127703
2.27797
2.47704
3.36554
0.439235
0.336221
-0.123152
3.15721
0.587345
1.15203
0.575128
-0.475571
4.74975
0.327073
1.84118
-0.465001
-0.385197
-0.0585338
0.0911229
-0.556379
1.44082
0.79252
0.875262
1.63527
0.794042
0.0510445
1.72679
1.59191
-0.381075
5.11741
3.26641
5.01102
0.186798
1.22439
1.13125
4.29982
2.95312
3.15616
4.71365
-0.102104
-0.069072
0.0396117
0.29782
1.52851
5.97217
0.510396
0.671482
0.693209
-0.220042
1.67742
2.48794
0.143694
0.864772
2.50103
1.46934
0.937359
1.08018
1.44623
0.296131
0.995226
0.510826
0.303693
1.63909
0.958268
2.09437
1.70476
-0.181804
-0.0895821
3.2522
0.763639
3.13341
0.0750681
0.229388
1.00322
-0.280098
1.8062
6.32595
2.53887
2.54579
0.793113
0.0490919
0.653549
2.33053
0.0964529
4.05583
0.661731
1.01979
3.94659
4.85144
1.29878
0.340578
3.47422
6.27481
5.27935
6.39207
5.08998
0.384139
1.50725
3.09744
1.0364
3.19521
1.94561
0.778121
0.227147
0.641126
1.08256
0.972585
-0.690051
-0.327829
-0.706902
1.05432
1.97302
1.15018
0.240872
1.41833
0.281518
0.63838
1.20362
1.18714
SCALARS CoVolArea double 1
LOOKUP_TABLE default
0.0160048
0.0177811
0.0191729
0.0175689
0.022134
0.0499047
0.0255379
0.024688
0.0150743
0.0182022
0.0126882
0.0154602
0.0453987
0.0491865
0.0320114
0.0363313
0.0538166
0.0565559
0.0552027
0.03754
0.0606717
0.0911824
0.0553932
0.0452627
0.0499268
0.101882
0.0807646
0.0693187
0.106844
0.0358649
0.0616682
0.0332724
0.0738993
0.050148
0.0645721
0.0638743
0.0277321
0.0695656
0.0633995
0.0366495
0.0873113
0.0973947
0.0427156
0.0388086
0.0354888
0.0396496
0.0435627
0.0397583
0.0631174
0.049497
0.0914569
0.0412022
0.0499263
0.0675731
0.0381571
0.0506675
0.0426344
0.0401911
0.0832878
0.0676587
0.0673613
0.084406
0.0468853
0.0757185
0.0525983
0.052148
0.0673201
0.0399685
0.0323925
0.0371557
0.0351219
0.0416945
0.0771599
0.049249
0.0764356
0.0681305
0.0514118
0.0397752
0.0468011
0.098748
0.0522563
0.0475098
0.0412623
0.0551212
0.105107
0.133485
0.0471895
0.0498964
0.048693
0.0578487
0.0531678
0.0814174
0.053827
0.0409208
0.0793935
0.0537172
0.076916
0.0580307
0.0540593
0.0421534
0.076033
0.0661849
0.0443547
0.0784259
0.0805787
0.0357289
0.0469531
0.070453
0.0501024
0.043645
0.034155
0.0383604
0.0525579
0.0695234
0.0489838
0.0474918
0.0660011
0.0579779
0.0615068
0.0699538
0.0546095
0.0597707
0.0417908
0.0632108
0.0635298
0.0461344
0.0585457
0.0512763
0.0343813
0.0477722
0.0531967
0.0387355
0.0799818
0.0586507
0.0736714
0.0798463
0.0531126
0.0517364
0.0683132
0.0468505
0.0548153
0.0448087
0.0823124
0.0560373
0.0961353
0.0834418
0.062373
0.0615992
0.0532951
0.115301
0.0624089
0.0646112
0.0636517
0.0547381
0.0794906
0.0409349
0.0548073
0.0878667
0.0815723
0.0697194
0.0809299
0.0827973
0.0298636
0.0354097
0.0269674
0.0415436
0.0397364
0.0460193
0.0332791
0.0360735
0.0357668
0.0315309
0.0388939
0.0290997
0.0429759
0.0392989
0.0377306
0.0420487
0.0414066
0.0409589
0.0711496
0.0808379
0.0831574
0.0383152
0.0547957
0.0382727
0.0703374
0.0680355
0.0557055
0.0431988
0.0494379
0.0416922
0.0387501
0.0333254
0.0352625
0.0375664
0.0528327
0.0440029
0.0464806
0.0733688
0.0673139
0.0376845
0.0468079
0.0432852
0.0453333
0.0353482
0.0353082
0.0415659
0.0303244
0.0464829
0.0451658
0.0527597
0.0371439
0.0411539
0.0385767
0.0399533
0.0409442
0.044343
0.0648112
0.0459554
0.0745276
0.0726898
0.0607407
0.0757953
0.0699464
0.0482286
0.0658667
0.0710523
0.0762375
0.0595307
0.0728432
0.07472
0.0415204
0.0536848
0.0444902
0.0674806
0.0564865
0.0450746
0.0487326
0.058637
0.0693654
0.0883051
0.0830877
0.0821037
0.0627138
0.0430093
0.0506333
0.0605732
0.0693633
0.062913
0.0574448
0.0395587
0.0415745
0.0321662
0.0317936
0.0319305
0.0364609
0.0381935
0.0236507
0.0312888
0.0283428
0.0469683
0.0336643
0.0477161
0.0420863
0.0356245
0.0368911
0.0399492
0.0360334
0.044584
0.0539227
0.0766834
0.0744201
0.0578654
0.057946
0.0272694
0.0409902
0.0869638
0.0595306
0.0758302
0.0520799
0.0651824
0.0403049
0.0299231
0.054715
0.0476068
0.0734719
0.0581796
0.0820926
0.0849871
0.0886248
0.076133
0.0397383
0.0335665
0.0389599
0.0395162
0.0472469
0.042025
0.041661
0.0870079
0.0874938
0.0532071
0.0730742
0.0753952
0.0625625
0.0444615
0.0371168
0.051753
0.0387196
0.0402463
0.0453798
0.0435145
0.0506458
0.0512578
0.0441251
0.0423092
0.0433162
0.0398681
0.114357
0.0951868
0.0729591
0.100866
0.132235
0.127811
0.113019
0.0322697
0.0434481
0.0472556
0.0466087
0.0489884
0.0414575
0.048738
0.0347877
0.0473299
0.0415148
0.0789976
0.0559367
0.0679336
0.0479419
0.0489654
0.0466836
0.07279
0.0565803
0.0842099
0.0483594
0.0318396
0.0856106
0.068378
0.0663361
0.0672874
0.0776215
0.0253199
0.0427276
0.0786865
0.057909
0.0568012
0.0634912
0.0870601
0.0369731
0.0495978
0.0361876
0.0759814
0.0633972
0.0637145
0.0805858
0.0658225
0.085613
0.0881432
0.0878699
0.0834462
0.0453771
0.0294959
0.0484784
0.0493462
0.0386495
0.0485354
0.0463494
0.047404
0.0569702
0.0924381
0.0744211
0.0928823
0.0471531
0.0442407
0.0414772
0.0611097
0.0473568
0.0492555
0.0566139
0.0366267
0.102237
0.086443
0.100929
0.0625567
0.0840658
0.0649553
0.0491094
0.0433224
0.0400064
0.0434671
0.0349499
0.0394838
0.0324906
0.0470594
0.0634309
0.0561121
0.0623093
0.0707231
0.0582355
0.0499545
0.0321895
0.0333968
0.0264936
0.0331516
0.0346484
0.0384272
0.0492849
0.0341333
0.0466524
0.0381508
0.0417955
0.0345166
0.0334066
0.0464146
0.0346025
0.0730126
0.0607668
0.0688966
0.0556339
0.0542744
0.0640757
0.0343863
0.0505664
0.0383723
0.0600916
0.055327
0.0485912
0.0643838
0.0588495
0.0688588
0.0436129
0.0597958
0.0406865
0.0695712
0.0674723
0.0659063
0.0515828
0.0612685
0.0618206
0.076811
0.0735652
0.0752211
0.0477807
0.033987
0.0645272
0.056968
0.0330315
0.0478881
0.0390596
0.0446512
0.0559423
0.0640647
0.061082
0.0660268
0.0601381
0.065594
0.0368599
0.0491067
0.0379257
0.0391359
0.0479294
0.0348419
0.0563067
0.0550588
0.0620463
0.0678673
0.0668588
0.0576815
0.0412149
0.0344127
0.0304657
0.0354217
0.0528754
0.039721
0.0440269
0.0370138
0.0467121
0.0533152
0.0479258
0.0642863
0.0409196
0.0309826
0.0524049
0.0773111
0.0500215
0.0585943
0.0786376
0.0781497
0.0752221
0.0773731
0.0617361
0.0342153
0.0454276
0.042917
0.0492876
0.0336701
0.0732437
0.0633907
0.0758208
0.0694955
0.0841756
0.0438775
0.0602089
0.0447547
0.0544953
0.0419201
0.0760025
0.0788113
0.0290938
0.0373068
0.033655
0.071568
0.0483884
0.0682256
0.0380999
0.0382341
0.0396873
0.0780931
0.0611786
0.0765345
0.0466068
0.0866957
0.062083
0.064055
0.0834431
0.0314943
0.0495588
0.096247
0.0754525
0.0842151
0.0717373
0.0932741
0.0584058
0.0392389
0.0792368
0.0680898
0.0783971
0.0732126
0.0890476
0.0999081
0.0974315
0.0947015
0.046259
0.0469263
0.0513571
0.0576071
0.0831608
0.0460107
0.060314
0.0501695
0.0450998
0.0446344
0.119509
0.119842
0.134204
0.109786
0.0844918
0.0592516
0.0824079
0.0921699
0.0497419
0.0634122
0.0549822
0.0567044
0.0641955
0.0593428
0.0565597
0.0575696
0.0660428
0.067856
0.0467625
0.0662507
0.0595269
0.0542469
0.0576688
0.0678909
0.0657058
0.067385
0.0512466
0.0707686
0.0637207
0.0421292
0.0377919
0.0538208
0.0807621
0.0761014
0.0712185
0.0755506
0.0341389
0.0352568
0.035115
0.0393522
0.05827
0.0677715
0.0631711
0.0482438
0.0504599
0.0460697
0.0505174
0.0506266
0.0452952
0.064961
0.107684
0.0906192
0.06266
0.053004
0.0619895
0.0476132
0.0557137
0.0824278
0.103082
0.0726526
0.100853
0.0705863
0.0517471
0.0866076
0.0650537
0.0528859
0.0537442
0.0440849
0.067374
0.0546208
0.0653459
0.0932885
0.0605495
0.0588147
0.0635993
0.0812283
0.0803028
0.0931658
0.0889578
0.0775264
SCALARS SignedDistance double 1
LOOKUP_TABLE default
0.126956
0.120817
0.0623461
0.0534865
0.068549
0.0806392
0.0717356
0.0679013
0.0674939
0.0706139
0.0719926
0.0783964
0.0811355
0.0402165
0.029935
0.0316611
0.0877151
0.184855
0.182673
0.0613583
0.368757
0.129612
0.0573665
0.0705926
0.0485742
0.0463475
0.239111
0.0845856
0.0450303
0.0291205
0.352354
0.0196943
0.0835613
0.0589708
0.0350206
0.0295988
0.0147566
0.173997
0.137965
0.0217844
0.160466
0.178429
0.0772313
0.0582252
0.0782482
0.0710212
0.0550154
0.0716796
0.058202
0.0392342
0.0567281
0.0805452
0.128164
0.0583438
0.0346861
0.0721873
0.0448051
0.0890647
0.209012
0.194681
0.197905
0.209655
0.0766812
0.200512
0.0861489
0.197972
0.155147
0.0461909
0.0408806
0.0544427
0.0535414
0.0698501
0.103522
0.290888
0.305804
0.109334
0.110754
0.0362504
0.086686
0.0574921
0.0430439
0.0654061
0.0504883
0.119936
0.101303
0.0641408
0.0434817
0.021841
0.0208982
0.0386927
0.0388554
0.132866
0.0934378
0.0602386
0.283422
0.0723731
0.131996
0.108122
0.0531385
0.0724162
0.0445518
0.0170413
0.0355008
0.079757
0.0568976
0.0577178
0.0528358
0.16235
0.181094
0.0686803
0.0608949
0.0391806
0.0601889
0.065461
0.0394023
0.0586579
0.0674861
0.109665
0.047913
0.0517972
0.0285337
0.0489266
0.0380896
0.0581575
0.0661766
0.102193
0.0970172
0.0530639
0.0372822
0.0749996
0.037289
0.0191677
0.197334
0.13494
0.17097
0.177969
0.0748236
0.0303913
0.102468
0.0709936
0.11936
0.0619441
0.13941
0.270616
0.230851
0.106021
0.125398
0.041313
0.0130574
0.107611
0.0555354
0.0666206
0.0969749
0.103596
0.165409
0.054307
0.0349734
0.0640156
0.0653827
0.0742751
0.312654
0.1195
0.093741
0.0613762
0.0571921
0.0645944
0.0560364
0.100983
0.0456453
0.0518187
0.0536093
0.0844063
0.0894362
0.0812999
0.0531528
0.0863462
0.0264123
0.0616686
0.0736439
0.0491868
0.106565
0.0737864
0.0962388
0.0310787
0.0522377
0.0339629
0.063977
0.0593421
0.0179377
0.0647702
0.021169
0.0487702
0.0904926
0.111869
0.0436485
0.066959
0.0913672
0.0941002
0.11736
0.107821
0.0571722
0.0258236
0.0137615
0.039575
0.0133888
0.0199635
0.11201
0.0889422
0.0612824
0.124141
0.0884753
0.0831312
0.0438284
0.0577834
0.0427887
0.0627768
0.0665481
0.0331936
0.122693
0.136084
0.12166
0.102149
0.377987
0.203017
0.358956
0.140928
0.113434
0.354764
0.205257
0.356573
0.115548
0.124701
0.0778196
0.0849424
0.0807187
0.199065
0.149531
0.136002
0.0895624
0.152528
0.199863
0.209578
0.358661
0.35769
0.192883
0.103225
0.169238
0.405531
0.325942
0.4058
0.292947
0.0639153
0.0654947
0.0254358
0.0445009
0.0235595
0.0601742
0.119556
0.0654212
0.0639795
0.078008
0.0541611
0.0390139
0.205577
0.0376673
0.0394754
0.0663759
0.114584
0.0568159
0.102552
0.0729975
0.223467
0.0934147
0.10747
0.105423
0.0746167
0.165746
0.151113
0.38917
0.328324
0.314687
0.422544
0.0620299
0.0703673
0.112939
0.0786455
0.158672
0.103425
0.119533
0.150556
0.140786
0.0891492
0.0581219
0.104409
0.0547903
0.0539153
0.0925196
0.0449131
0.0548834
0.0966325
0.0773196
0.0446075
0.0624897
0.0645596
0.0580486
0.035597
0.0755167
0.0668145
0.0748625
0.0536981
0.0590208
0.0619701
0.0604522
0.113898
0.0659006
0.0201441
0.0253337
0.0537348
0.0974397
0.0657735
0.0468987
0.0655042
0.129785
0.0924781
0.082252
0.0734864
0.0748441
0.0411343
0.0349087
0.0644665
0.0636439
0.0377509
0.033339
0.0228132
0.0680693
0.0494707
0.0478691
0.0715426
0.0301667
0.0170181
0.0267948
0.0577642
0.0363072
0.063855
0.0800434
0.0639422
0.121667
0.120311
0.132396
0.132066
0.119179
0.0660457
0.15969
0.27473
0.302148
0.213953
0.349203
0.168444
0.0597826
0.0474672
0.0558206
0.146013
0.105183
0.117281
0.150162
0.0886301
0.151235
0.128625
0.0621813
0.0883255
0.0824084
0.0780999
0.0321516
0.0712204
0.0583609
0.0743353
0.0492175
0.0476232
0.0177416
0.0357204
0.0451126
0.0312196
0.0293821
0.027617
0.0597792
0.0234833
0.0475639
0.0231408
0.0345303
0.0254301
0.0307455
0.0933406
0.0355633
0.0268565
0.025766
0.0319087
0.0782047
0.0667185
0.0740549
0.0782168
0.0311107
0.0643534
0.0318959
0.10605
0.196491
0.250943
0.413599
0.356978
0.381881
0.173411
0.074583
0.0618393
0.0638106
0.0324343
0.0408349
0.048464
0.164817
0.0408569
0.0702649
0.0621488
0.0943421
0.0350437
0.0511992
0.0730563
0.0431178
0.112143
0.044326
0.107311
0.0615469
0.0572001
0.0530765
0.0613273
0.0882471
0.0633594
0.0580221
0.0735806
0.0502456
0.0681566
0.0736864
0.0427495
0.0587811
0.0711892
0.0708353
0.0689161
0.0577482
0.0724841
0.0335834
0.0538447
0.0484411
0.0840387
0.0761655
0.0653839
0.102304
0.0973217
0.0850607
0.0769515
0.0451621
0.0936904
0.0377846
0.0736892
0.0567658
0.0496222
0.0779248
0.073003
0.0505603
0.055974
0.0604777
0.0594313
0.0611271
0.0347337
0.0761369
0.0307575
0.0629765
0.0534726
0.0845179
0.0435145
0.0383019
0.0449611
0.0731933
0.0650413
0.0510143
0.0318534
0.0589134
0.0615357
0.0315563
0.0626102
0.0968587
0.053233
0.109375
0.0583342
0.0390901
0.0424272
0.0884432
0.18211
0.0866297
0.137678
0.136145
0.125455
0.176701
0.154101
0.156675
0.0449736
0.010865
0.0140421
0.0444705
0.0532131
0.155546
0.0493399
0.0955952
0.0800203
0.171205
0.0626083
0.0767059
0.0414686
0.096194
0.0426305
0.165107
0.134914
0.0573291
0.0487992
0.0690638
0.17899
0.0537038
0.197367
0.0457233
0.054524
0.0477413
0.142476
0.108074
0.174892
0.0541645
0.108388
0.0873704
0.0984
0.149843
0.0644727
0.174456
0.126536
0.325152
0.294619
0.234054
0.198422
0.129318
0.0641103
0.0984654
0.0948908
0.0830275
0.101177
0.139707
0.0890107
0.103069
0.151984
0.0307138
0.0424275
0.0225854
0.0509709
0.0539358
0.0586214
0.0341041
0.0396212
0.0313587
0.0344754
0.099602
0.0796348
0.0935657
0.0682326
0.0460332
0.021338
0.0435055
0.0532428
0.0744822
0.092172
0.0628009
0.0606502
0.095868
0.0545516
0.0436828
0.0442055
0.0600366
0.0631284
0.0584077
0.10017
0.0669825
0.0719631
0.0830208
0.0618071
0.0636915
0.0544055
0.070021
0.185162
0.144777
0.0403009
0.0631138
0.0384422
0.203607
0.129056
0.092155
0.19151
0.0589656
0.0337663
0.0515651
0.0572286
0.153589
0.176128
0.144075
0.0550853
0.0693538
0.0313948
0.0614688
0.0695227
0.044092
0.0199725
0.0328105
0.0918557
0.027101
0.0238157
0.0192167
0.0227036
0.0248042
0.0492549
0.032817
0.0328012
0.0577801
0.0373009
0.0596006
0.132021
0.112649
0.0842963
0.0858187
0.163944
0.401466
0.295201
0.374585
0.15823
0.0801329
0.0852871
0.11004
0.121097
0.240558
0.148495
0.150873
0.0951553
