# vtk DataFile Version 4.2
vtk output
ASCII
DATASET POLYDATA
POINTS 642 double
-0.123511 0.273101 -0.13241
0.103777 0.261891 -0.145239
-0.170118 -0.186184 -0.0504967
0.153435 -0.188071 -0.0552519
-0.00628063 -0.207997 0.179565
-0.00868336 0.110832 0.101371
0.000398879 -0.0176045 -0.237154
-0.00498294 0.240236 -0.398014
0.236938 0.0853762 -0.265782
0.177058 0.00108588 0.0361847
-0.254127 0.0887171 -0.267227
-0.206144 0.00063982 0.0417929
-0.169414 0.148433 -0.0674796
-0.113708 0.0685104 0.10124
-0.0721894 0.234836 -0.025809
0.0550147 0.233791 -0.0269996
-0.00477101 0.30707 -0.133682
0.0812006 0.267527 -0.291325
-0.091006 0.273837 -0.295521
-0.157173 0.184043 -0.316964
-0.282254 0.212452 -0.277953
-0.239815 0.0226773 -0.148328
0.103733 0.0688634 0.0981455
0.155586 0.143631 -0.0708098
-0.113448 -0.120216 0.13175
-0.00828696 -0.000812678 0.167404
-0.213322 -0.0974098 -0.17838
-0.207643 -0.134774 -0.00519033
-0.00417402 0.144641 -0.345469
-0.176992 -0.00647497 -0.280718
0.257903 0.208346 -0.285819
0.153274 0.177617 -0.304083
0.182902 -0.129591 -0.0112179
0.0975635 -0.114425 0.124512
0.0737972 -0.260213 0.118415
-0.0883942 -0.265014 0.122207
-0.00262343 -0.192706 0.00624225
-0.141881 -0.113078 -0.175077
0.134586 -0.11408 -0.176348
0.15955 -0.00715681 -0.283273
0.194991 -0.0912609 -0.183267
0.22609 0.024927 -0.156361
-0.13852 0.232498 -0.114363
-0.115601 0.216729 -0.0450126
-0.121155 0.300046 -0.0682862
-0.171228 0.0387709 0.0818656
-0.157072 0.110164 0.0350489
-0.194167 0.0660669 0.00194779
-0.0404572 0.195853 0.0487204
-0.0886548 0.166785 0.0478969
-0.0491232 0.0976355 0.120802
-0.0597917 0.291067 -0.0789808
-0.0846643 0.304057 -0.127413
0.0267304 0.195611 0.0485211
-0.00653728 0.234276 -0.0115801
0.0686756 0.303677 -0.130109
0.0484435 0.29121 -0.0789878
0.0929959 0.289346 -0.0752104
-0.0532905 0.305055 -0.220366
-0.121982 0.273138 -0.218861
0.107835 0.260897 -0.222813
0.0430571 0.30483 -0.218569
-0.0521133 0.266296 -0.367276
-0.00540288 0.290717 -0.306039
0.0414015 0.265819 -0.364984
-0.223114 0.208305 -0.274322
-0.209009 0.214574 -0.236013
-0.0811652 0.222223 -0.396471
-0.136318 0.227295 -0.332414
-0.285559 0.174048 -0.284253
-0.270315 0.205421 -0.301362
-0.24799 0.151048 -0.298868
-0.212433 0.176108 -0.209531
-0.253246 0.0645741 -0.226864
-0.256528 0.144015 -0.243152
-0.21199 0.0904758 -0.109795
-0.224065 0.0026243 -0.0380946
0.0965228 0.206895 -0.0433309
0.12831 0.218655 -0.124239
0.0337425 0.0962912 0.113114
0.0751174 0.163273 0.0461902
0.171088 0.0667371 -0.00168589
0.138317 0.103138 0.0301354
0.155787 0.0376327 0.0787149
-0.0479695 0.0446201 0.163599
-0.00924765 0.066188 0.168074
-0.175376 -0.0447982 0.0891607
-0.130483 -0.00390748 0.128727
-0.00730369 -0.11622 0.177714
-0.0591154 -0.0671736 0.174361
-0.0634397 -0.180057 0.171975
-0.2366 -0.0633078 -0.0633021
-0.21343 -0.0677274 0.0219701
-0.252396 -0.0126045 -0.233409
-0.23832 -0.0313852 -0.162065
-0.191855 -0.179376 -0.0315383
-0.236363 -0.131446 -0.0920129
-0.205788 -0.154368 -0.11697
-0.173427 0.0907854 -0.314588
-0.216009 0.0320056 -0.27564
-0.00486426 0.205141 -0.392058
-0.0789614 0.180463 -0.361867
-0.116787 -0.0137763 -0.259411
-0.107286 0.0677911 -0.304984
-0.000677718 0.0458705 -0.279053
0.130082 0.217282 -0.313002
0.0719102 0.22021 -0.396384
0.196698 0.20905 -0.247425
0.219326 0.211453 -0.27938
0.232505 0.151743 -0.299098
0.257236 0.205914 -0.300252
0.255066 0.176872 -0.283669
0.173387 -0.175054 -0.0345794
0.129207 -0.196277 0.0557146
0.110741 -0.217944 0.0388513
0.158716 -0.041725 0.0875844
0.146288 -0.129655 0.0735588
0.189642 -0.0657865 0.0149861
0.0291563 -0.242902 0.162531
0.0820538 -0.203393 0.137497
0.04792 -0.178342 0.168602
0.046375 -0.239269 0.0801268
0.0965095 -0.192785 -0.0175425
-0.0444033 -0.249077 0.169701
-0.0057911 -0.265461 0.142019
-0.106962 -0.19386 -0.0133185
-0.0578247 -0.240213 0.0834314
-0.1262 -0.223085 0.0465444
0.07188 -0.152462 -0.0940328
0.150902 -0.154083 -0.120142
-0.164687 -0.153032 -0.116689
-0.0758402 -0.151072 -0.0922117
0.0793035 -0.064256 -0.211322
-0.000634247 -0.100949 -0.157401
-0.080929 -0.0630538 -0.209507
0.181744 -0.135907 -0.19887
0.188656 -0.152109 -0.122663
0.110804 -0.0165042 -0.262377
0.15986 -0.0764491 -0.240445
0.237201 -0.00999474 -0.231502
0.1896 -0.0588567 -0.242386
0.207701 0.0349117 -0.272704
0.206346 -0.126142 -0.0954177
0.235912 0.0606117 -0.227956
0.227627 -0.025556 -0.174004
0.20811 -0.0589637 -0.066097
0.195886 0.00246626 -0.0459722
0.0458082 -0.0668855 0.171369
0.119954 -0.00383172 0.127856
0.0300658 0.0400573 0.150076
-0.152303 -0.20663 0.0660131
-0.103261 -0.209724 0.146062
-0.165154 -0.135981 0.0791939
-0.17403 -0.0748655 -0.238939
-0.194822 -0.133599 -0.196492
-0.208408 -0.0650475 -0.253436
0.161553 0.0909248 -0.309668
0.100334 0.0645773 -0.304397
0.0679437 0.175613 -0.353039
0.184914 0.0859822 -0.120095
0.231436 0.139268 -0.248073
0.19585 0.173939 -0.215638
-0.130486 0.257623 -0.122081
-0.126601 0.274899 -0.0860153
-0.125178 0.293989 -0.0954539
-0.139514 0.18368 -0.0542463
-0.125539 0.235825 -0.0783742
-0.153373 0.195683 -0.0980792
-0.0987132 0.272591 -0.0618358
-0.116784 0.266754 -0.06405
-0.0939411 0.232043 -0.0368911
-0.190158 0.0189162 0.0612672
-0.187697 0.0541067 0.0468299
-0.20368 0.0318121 0.0265374
-0.140815 0.0876828 0.0704752
-0.168666 0.0748921 0.064488
-0.150448 0.0561185 0.0969361
-0.182795 0.103618 -0.030572
-0.176719 0.0896773 0.0215326
-0.161344 0.12852 -0.0121799
-0.0209712 0.145957 0.0628932
-0.0436247 0.135863 0.0678326
-0.0271153 0.102512 0.113728
-0.0815869 0.212877 0.0224714
-0.065423 0.185574 0.04867
-0.0585899 0.223004 0.0263106
-0.0758004 0.0844783 0.112733
-0.0696374 0.12376 0.0718296
-0.0995834 0.107374 0.0729283
-0.131698 0.159639 -0.00469031
-0.116166 0.131825 0.034822
-0.101901 0.191159 0.00717179
-0.106074 0.303033 -0.0924769
-0.107587 0.291049 -0.124363
-0.0743072 0.270006 -0.0588514
-0.0956762 0.302068 -0.0695855
-0.049711 0.305787 -0.131816
-0.0753978 0.302325 -0.0982081
-0.0326166 0.304735 -0.102276
0.00627561 0.147038 0.0619918
-0.00645101 0.194425 0.045138
0.0301296 0.234168 -0.0164746
0.0126958 0.223018 0.026544
0.0434462 0.22126 0.0248736
-0.0257546 0.22313 0.0266783
-0.0444665 0.236265 -0.0137999
0.085882 0.286679 -0.131942
0.0861143 0.302903 -0.0950111
0.0951833 0.281655 -0.102837
0.0227594 0.303728 -0.102006
0.0613246 0.302149 -0.0979238
0.0390462 0.305352 -0.132864
0.0759913 0.269715 -0.0621092
0.0775389 0.301895 -0.0696944
0.0588706 0.271334 -0.059702
-0.0302173 0.268942 -0.0501141
0.0187876 0.26818 -0.0521112
-0.00474708 0.29504 -0.0765921
-0.0983481 0.295095 -0.172064
-0.124552 0.271507 -0.176222
-0.0303526 0.307296 -0.174515
-0.0678295 0.304991 -0.173655
-0.109164 0.274713 -0.254968
-0.0886737 0.303148 -0.219968
-0.0736407 0.30284 -0.260452
0.107236 0.260276 -0.186072
0.0812747 0.291671 -0.176791
0.0613187 0.295044 -0.256413
0.0765495 0.299169 -0.218766
0.0996928 0.26481 -0.253549
0.0560125 0.304572 -0.174861
0.0216591 0.307428 -0.174738
-0.028936 0.255911 -0.389765
-0.00533816 0.266297 -0.368088
0.017653 0.252311 -0.385986
-0.0502136 0.28974 -0.304727
-0.0295452 0.278443 -0.339109
-0.0727259 0.272487 -0.335621
0.0614884 0.268925 -0.332845
0.0185768 0.276793 -0.338274
0.0383464 0.285887 -0.302801
-0.00430351 0.307396 -0.22227
0.018795 0.304572 -0.26475
-0.0293765 0.3047 -0.265789
-0.166169 0.230189 -0.224162
-0.150515 0.237946 -0.182125
-0.146659 0.237653 -0.278966
-0.164316 0.228283 -0.254069
-0.254086 0.207793 -0.274178
-0.229982 0.209496 -0.265123
-0.267498 0.222721 -0.282221
-0.0434944 0.232723 -0.398559
-0.0677712 0.244755 -0.386684
-0.14887 0.206313 -0.325068
-0.105383 0.228013 -0.371568
-0.109664 0.208202 -0.36502
-0.0919961 0.254162 -0.359688
-0.118427 0.256119 -0.325836
-0.270146 0.139141 -0.276048
-0.277728 0.166447 -0.297238
-0.252715 0.125583 -0.284192
-0.28422 0.212435 -0.292083
-0.284507 0.196674 -0.296283
-0.285302 0.197769 -0.283576
-0.219618 0.165172 -0.295974
-0.262881 0.184719 -0.301445
-0.223614 0.182963 -0.29228
-0.19186 0.202192 -0.283087
-0.207771 0.192345 -0.289437
-0.261909 0.221103 -0.294663
-0.166109 0.217962 -0.176106
-0.251196 0.194342 -0.264987
-0.216612 0.197599 -0.232057
-0.176556 0.194453 -0.160516
-0.182875 0.16362 -0.132062
-0.255196 0.080639 -0.250586
-0.267334 0.129529 -0.26136
-0.236607 0.0781575 -0.202673
-0.252375 0.108216 -0.238165
-0.253898 0.0432717 -0.193223
-0.272126 0.165085 -0.271928
-0.271003 0.185858 -0.273277
-0.209921 0.0366256 -0.0169655
-0.210954 0.000510436 0.00652912
-0.196379 0.118475 -0.0870785
-0.205728 0.078165 -0.0489565
-0.228286 0.00823769 -0.0917155
-0.214617 0.0440345 -0.0710927
-0.221028 0.0549179 -0.133352
-0.24523 0.165296 -0.233739
-0.220761 0.112188 -0.191155
-0.204148 0.137583 -0.166928
0.0979089 0.259718 -0.0945925
0.114362 0.243499 -0.135584
0.0754113 0.228294 -0.0352651
0.0909482 0.256187 -0.0657845
0.140643 0.183465 -0.104698
0.106202 0.219434 -0.0824561
0.126163 0.17379 -0.0550381
0.00979634 0.103038 0.110335
0.0287422 0.1374 0.0649458
0.0881034 0.106285 0.0699782
0.0564201 0.123425 0.0667515
0.0641868 0.0814729 0.103069
0.0514218 0.184303 0.0484017
0.0644128 0.207448 0.0191512
0.176589 0.0314557 0.0214763
0.164987 0.0529493 0.0424869
0.168354 0.019189 0.0594359
0.144528 0.121861 -0.0150333
0.159514 0.0882645 0.0187117
0.164635 0.102159 -0.0332758
0.133771 0.0531863 0.0897772
0.149034 0.0710843 0.0582447
0.12584 0.085837 0.0670652
0.0854929 0.184574 0.00599299
0.101627 0.127772 0.0340358
0.114233 0.151196 -0.00632331
-0.028017 0.0819942 0.15356
-0.00885269 0.0909287 0.144208
-0.0775922 0.0553545 0.13265
-0.0492299 0.06975 0.149652
-0.00928081 0.0411694 0.176356
-0.0292672 0.0573564 0.175475
-0.0275554 0.0274521 0.176504
-0.195317 -0.0202027 0.0659486
-0.175126 -0.000163118 0.0894059
-0.117034 -0.0556085 0.121323
-0.153362 -0.0236924 0.112709
-0.140029 -0.0792972 0.10303
-0.155046 0.0193644 0.110618
-0.124547 0.0339232 0.115881
-0.0063442 -0.16983 0.177952
-0.0341381 -0.15083 0.177446
-0.0368423 -0.196327 0.17786
-0.0274827 -0.0346533 0.167209
[...]
POINT_DATA 642
SCALARS Mean_Curvature double 1
LOOKUP_TABLE default
11.1293
2.53261
19.1561
50.7568
10.4587
-4.68869
-2.20553
31.8194
26.8856
0.663822
36.679
21.1642
0.426567
0.622519
-4.79121
-1.90337
2.97945
2.11717
-2.40333
-13.6491
83.7379
2.04895
11.2739
6.41119
3.22142
-13.8467
-5.99093
9.61318
1.23284
4.73552
25.4154
-8.89389
-4.10542
0.717561
76.6801
69.4389
-6.1315
-0.434629
-1.17432
27.528
-8.46562
16.568
-3.01579
4.91336
73.6412
7.57809
17.3727
2.21211
17.2326
18.8785
20.2454
3.3008
18.3786
18.7635
-7.48346
27.6926
2.52374
54.1744
0.445632
5.26358
-1.47138
4.98994
16.2395
3.70085
24.917
2.11187
43.5537
67.0137
22.7692
98.8762
37.3202
24.6754
-5.89421
7.7795
12.7438
5.7554
7.09091
1.41681
5.34926
13.0168
20.3671
3.41131
7.22553
23.3942
15.6861
17.0185
9.77093
18.7568
10.6296
28.9296
12.2532
14.9123
7.09988
40.162
-1.16413
23.9146
40.1084
26.4718
16.9376
-6.75556
11.5032
2.37812
0.299225
1.37561
-3.2004
20.026
78.5664
21.4768
25.4135
30.2647
36.4597
12.6561
7.90184
-5.57618
14.5338
23.8303
3.95743
5.00053
5.10733
4.79922
7.85519
-0.144495
-0.542028
29.779
12.9665
-0.329838
-0.409419
22.4018
1.1055
1.38847
-0.419561
0.839783
-0.115929
-1.07058
0.655821
95.056
30.6978
0.750655
1.4636
44.6471
8.50159
1.70413
11.9118
15.2881
17.8699
4.28991
-1.33001
30.2885
33.6938
-5.2178
21.4292
19.0506
4.32581
1.56129
79.2772
52.3025
14.4455
1.12238
1.8321
-4.27522
-8.97229
-1.82581
1.27264
14.5053
53.9301
-1.63181
-5.49032
1.1771
2.22675
34.5321
-0.200151
4.97679
10.7268
12.7805
3.64841
21.5614
22.8215
-1.43822
5.82439
3.14165
-6.22681
-7.39104
-3.74143
28.0322
13.3077
28.2149
2.44758
-4.608
1.95666
3.34365
-10.9975
-0.243598
26.463
1.9201
-3.52756
50.9758
1.89841
9.24481
13.5665
-4.92097
-0.041918
-4.36204
18.742
32.3541
16.8984
-0.747581
1.74109
56.0755
18.1822
11.2566
9.75802
1.91079
11.7945
68.1276
4.15305
2.5755
-0.341029
15.3105
10.5339
6.27321
1.981
6.89229
1.63725
21.7791
20.8757
1.68846
10.3386
12.0054
24.8174
4.46085
12.3424
2.88001
32.2186
7.06306
17.97
8.14403
4.34299
8.09513
8.65586
3.14094
5.68294
2.94146
12.2103
8.33637
-2.9844
1.84277
3.01452
-9.03014
2.04881
10.3741
101.46
29.0143
18.8419
11.4887
30.796
24.793
16.3126
23.3443
39.08
59.1483
8.68903
103.213
77.471
60.9844
-2.02582
20.7365
9.37516
-11.9656
-2.07321
79.4634
0.488196
-9.38855
-1.89022
1.27477
1.73013
3.11753
65.95
-11.6587
-7.45946
34.0129
-17.8761
7.74882
3.32806
-4.62078
6.18717
11.2385
-2.79155
-3.54901
-8.04132
15.3023
-7.627
-2.00153
-3.59922
-0.0948907
5.14444
21.2016
0.0580909
-8.5348
1.56462
-0.739348
-7.00124
6.37203
-8.26333
-3.63263
18.3718
17.7394
5.24591
8.93038
9.35264
2.33206
18.7284
6.29158
14.1965
15.4241
9.21623
0.70683
-7.54151
-0.661273
26.0864
24.8225
7.04728
12.8902
14.0639
51.349
38.9577
11.0937
7.39405
-5.57553
13.4922
-4.79355
23.232
2.64373
0.736888
13.7274
4.95395
0.458569
2.06429
29.8276
-0.0548896
-2.81771
0.366321
-7.75507
-1.81976
-11.1063
9.4471
0.371908
15.5625
1.69492
3.34704
9.93731
-6.54874
43.9545
5.47063
-8.76698
33.2135
-13.1533
7.66909
17.4775
39.3811
40.3545
26.1882
15.0575
9.59706
1.56358
10.8658
23.9699
1.85034
-7.5959
26.982
-9.34078
13.1527
16.4146
9.52205
-12.8196
29.8344
-4.47707
34.7792
32.1883
29.8496
2.07487
6.87484
4.00254
7.05297
3.57314
-2.01643
-0.85986
-3.09743
3.31566
2.06188
1.13822
-1.17278
0.606563
-0.837215
0.0127159
-1.58084
6.8509
0.33793
43.1019
15.4281
25.6677
9.1145
34.2708
-9.78176
0.821465
10.6241
119.128
5.6009
71.2542
2.32774
-11.5397
21.8782
70.385
82.908
21.1354
36.7443
13.1441
31.5202
141.413
162.157
0.679627
110.981
0.562129
43.8082
49.5302
7.06896
-1.4717
25.8542
18.5715
28.1509
54.4473
20.3887
8.02908
12.0586
-1.69072
9.06295
-2.69481
-6.8231
12.7595
9.58865
5.50206
15.3484
31.9676
7.59823
8.02239
41.2269
-4.31803
3.44971
27.211
-2.25407
11.702
28.902
-2.70346
1.54186
-2.29803
-1.52217
19.6616
-0.479455
1.47472
0.947273
7.19758
47.2012
35.0615
40.3167
18.0852
49.1706
55.609
0.844163
-0.384688
8.65623
0.291666
0.86779
0.0446015
60.9756
-4.45726
-5.90854
1.16208
2.47804
-0.122812
1.61935
5.21518
-0.251218
1.13292
0.158436
1.49033
0.539047
6.26803
2.77936
1.23918
0.401103
1.16671
0.850079
-3.39803
0.244886
0.178032
-1.36463
-0.660281
-0.0334499
-0.529822
-0.056426
0.519392
0.283782
-3.31863
0.79574
0.629668
25.5126
41.6313
-6.0242
0.471223
13.1382
64.4081
23.0439
-0.381371
0.187171
38.326
0.431459
0.898435
-0.911167
-2.41542
40.2937
29.8798
31.2943
-0.955699
10.6846
-2.74126
15.4127
-18.4878
21.7715
0.708847
69.0506
72.4608
-4.81178
3.61573
36.8735
49.5949
1.17176
25.9225
7.9192
18.105
16.8137
9.63429
35.0667
-15.996
-1.33436
11.0656
-6.0725
23.7346
4.98668
11.8495
0.557594
11.9671
-9.65822
2.65205
19.3355
0.0167464
-9.42126
-6.39348
3.42819
22.3369
8.79976
3.60906
-3.2345
1.37318
24.0314
36.5915
47.0197
13.4574
4.15688
-5.77062
-4.09415
-11.4868
45.7304
9.2402
29.0931
18.0784
-4.67134
24.0641
0.29285
21.3998
33.9291
4.4651
19.3281
10.226
12.8988
-8.18674
10.6128
11.7123
14.1303
11.0316
0.281984
-1.0404
1.02894
1.15418
1.32887
8.38623
29.354
61.463
-0.513268
-5.51848
7.64629
36.376
19.9566
-15.7194
-1.62577
-1.74807
81.874
48.0438
15.6806
30.8947
-14.555
-9.82499
0.473184
0.0149142
-0.917617
0.656694
1.99123
9.51981
29.5357
-1.0371
-0.181009
4.06085
1.64202
11.9324
-1.04638
6.9972
-3.67344
-9.47959
2.09359
2.9474
5.94214
-17.6134
4.71508
78.1543
22.206
-9.15527
-2.80712
5.05175
3.78824
10.2995
-15.9745
-8.96602
8.49044
-2.45989
SCALARS CoVolArea double 1
LOOKUP_TABLE default
0.000982343
0.00112113
0.000614174
0.000552767
0.000837926
0.000918597
0.001415
0.000638327
0.00060423
0.000913107
0.000722349
0.00090317
0.00259182
0.00167828
0.00128484
0.00117853
0.00172091
0.00215243
0.00207065
0.00165392
0.000387309
0.00203033
0.00154106
0.00236476
0.00206508
0.00108545
0.0015619
0.00170623
0.00256574
0.00106079
0.000296071
0.00173601
0.00159883
0.00196469
0.00084432
0.00090068
0.00302884
0.0017185
0.00153686
0.000987619
0.00137958
0.00177279
0.0018289
0.00184074
0.000652753
0.00119258
0.00182378
0.00165751
0.00135192
0.00178091
0.00133461
0.00134056
0.00119262
0.00129712
0.00182565
0.00106858
0.00118289
0.000647556
0.00186446
0.0020713
0.00187267
0.0017331
0.0012528
0.0017893
0.00125487
0.00105452
0.00128206
0.000766872
0.00150294
0.000469996
0.000629637
0.00120492
0.00206614
0.00115161
0.00146883
0.00273264
0.00188496
0.00197178
0.00205128
0.00147373
0.00170387
0.00157441
0.00164358
0.00104541
0.00128118
0.000627715
0.0016494
0.00177989
0.00151389
0.00191647
0.00124751
0.0016734
0.00147995
0.00118866
0.00160393
0.00104469
0.00110269
0.000867858
0.00202463
0.00149493
0.000965476
0.00177024
0.00199564
0.0023004
0.00313439
0.00134793
0.000849626
0.00111211
0.000686441
0.00100456
0.000418087
0.000371868
0.00102216
0.00144819
0.000921987
0.00139714
0.00163403
0.00141279
0.000915721
0.00121613
0.00123267
0.0015729
0.00173283
0.000890791
0.000885275
0.00196264
0.00172899
0.00101445
0.00283559
0.00105128
0.00125598
0.00303127
0.00209396
0.00293712
0.00219551
0.000655189
0.000827968
0.00173158
0.000838567
0.000870598
0.00105439
0.00141918
0.00117691
0.00100633
0.00137245
0.00177402
0.00186207
0.00199288
0.00161824
0.001489
0.00141871
0.00121479
0.00170175
0.000968174
0.000719559
0.000913889
0.00194713
0.00205512
0.00173786
0.00280589
0.0013416
0.0017413
0.0012812
0.000949188
0.000733403
0.00230614
0.00157758
0.00240529
0.000898926
0.000992562
0.00138972
0.00114895
0.00133047
0.00129371
0.00171054
0.00129736
0.0012586
0.00204353
0.00158365
0.00217881
0.00143534
0.00153303
0.00112303
0.00141664
0.00134465
0.00122055
0.00156909
0.00169632
0.00197208
0.00237811
0.00223458
0.0020777
0.000744804
0.00107384
0.00136019
0.000830058
0.00146376
0.00101196
0.00141482
0.00141341
0.00141444
0.00155314
0.00132966
0.00117753
0.00135632
0.00164501
0.00114968
0.000702713
0.000876237
0.00136721
0.000895427
0.00136208
0.000776562
0.000665202
0.00114995
0.00199268
0.00189873
0.00169371
0.00159968
0.00174911
0.00201919
0.00158609
0.0020517
0.00170143
0.00182342
0.00173167
0.00151913
0.00183296
0.00159985
0.0020058
0.00137584
0.00192457
0.000970165
0.00128827
0.000961916
0.00177483
0.00153281
0.0015308
0.00159629
0.00151503
0.00181032
0.00221583
0.00198878
0.0020096
0.00184579
0.00169542
0.00220081
0.00184005
0.000596133
0.00088321
0.000415366
0.00076191
0.0010151
0.00118892
0.00110654
0.00101308
0.00136648
0.002085
0.000702677
0.000692046
0.000965302
0.000261668
0.000360082
0.000308683
0.00150108
0.000747843
0.00102271
0.00167689
0.00108111
0.000752117
0.0018788
0.000961848
0.0014328
0.00232373
0.00278943
0.000903603
0.000747471
0.00221846
0.00114604
0.00145585
0.000635945
0.000724402
0.00179167
0.00143379
0.00260929
0.00209064
0.00211424
0.00230678
0.00279431
0.00181716
0.0027799
0.00279794
0.00122978
0.00152922
0.00138153
0.00113675
0.0023702
0.00190162
0.0023743
0.00117332
0.00154954
0.00181709
0.00172994
0.00163125
0.00133173
0.00139118
0.0012954
0.00119051
0.00104432
0.00200596
0.00136655
0.00184201
0.00111992
0.00113014
0.00150451
0.00201474
0.00204787
0.00231381
0.000816357
0.000811668
0.00152114
0.00100184
0.000657872
0.000659099
0.001042
0.00123407
0.00129441
0.00212889
0.00157065
0.00195156
0.00121969
0.0015413
0.00129859
0.00147058
0.00112128
0.00144043
0.00153155
0.00132685
0.00156271
0.00163698
0.00215078
0.0020593
0.00237832
0.00194473
0.00155555
0.00130213
0.00177434
0.00166178
0.00158014
0.00150939
0.00166674
0.000975642
0.00109889
0.00172349
0.0013413
0.00151276
0.00130975
0.00157278
0.000757026
0.000869883
0.000726705
0.00137585
0.000981802
0.001325
0.00105062
0.000942526
0.00137335
0.00181407
0.00161426
0.00162208
0.00155001
0.00116821
0.00228274
0.00193773
0.00115874
0.00167738
0.00138931
0.000709757
0.000774076
0.00213043
0.00117508
0.00149878
0.000936945
0.00166484
0.0020875
0.00267251
0.00239627
0.00154992
0.00208328
0.00138435
0.00314207
0.00288239
0.00287599
0.00229206
0.00253761
0.00200657
0.00106806
0.000736298
0.00187577
0.00143729
0.0011732
0.00122028
0.00129895
0.00166337
0.00144624
0.000253605
0.000577348
0.000483027
0.00140004
0.00191641
0.000828344
0.000554225
0.000618344
0.000950264
0.000527564
0.00130642
0.000213774
0.000259501
0.000159711
0.00120839
0.000519803
0.000946759
0.000773287
0.000921344
0.000827433
0.0016238
0.00117805
0.00123578
0.000786612
0.000984697
0.00112589
0.00113417
0.00146099
0.00131452
0.00175039
0.00163674
0.00171725
0.00146636
0.00155333
0.00170019
0.000888829
0.000941836
0.0010657
0.00112821
0.000963873
0.000850761
0.00157648
0.00104389
0.00149612
0.00175947
0.00161788
0.00155642
0.00123933
0.00106958
0.000934103
0.00105566
0.00244023
0.00169543
0.00240882
0.000903031
0.000832622
0.000848624
0.000753221
0.000859883
0.00077353
0.000810292
0.00123696
0.00142842
0.0009237
0.00252053
0.00191945
0.00263643
0.000870206
0.00123254
0.00104001
0.00134466
0.0014074
0.00210855
0.0014299
0.000824088
0.00319574
0.00223192
0.0011938
0.0017353
0.00216069
0.000989921
0.00169203
0.00236663
0.00199576
0.00139552
0.0025076
0.0033232
0.00198219
0.00238659
0.00203725
0.00246014
0.00247613
0.00180481
0.00194659
0.00252312
0.00258644
0.00359465
0.00326598
0.00318453
0.000755165
0.000707696
0.000904777
0.000714666
0.000972579
0.000688659
0.000935925
0.00197502
0.00177461
0.000764631
0.00111299
0.0011116
0.0013875
0.00114127
0.000772193
0.00106959
0.000942824
0.0011184
0.00109726
0.00111622
0.00132853
0.00132207
0.00101987
0.000762488
0.000781534
0.000832829
0.000896828
0.00137926
0.00092006
0.000949906
0.00132176
0.000806767
0.000907657
0.00141826
0.00103533
0.00122372
0.000987743
0.00149582
0.00149249
0.0014625
0.00157087
0.0013903
0.00196125
0.00163526
0.00179715
0.00169712
0.00194081
0.00174654
0.00146482
0.0021151
0.00169199
0.00155815
0.001488
0.00107561
0.00140499
0.0010726
0.00134524
0.00193095
0.000907116
0.00117348
0.00078864
0.00118878
0.00156222
0.00231306
0.00202406
0.00209642
0.000941353
0.0011401
0.000988052
0.00121316
0.00168461
0.000966152
0.00149897
0.00104449
0.000963681
0.00115837
0.00154764
0.00177592
0.00161315
0.00180492
0.00183913
0.00153728
0.00162503
0.00177775
0.00196777
0.00129762
0.0015459
0.00135147
0.000903349
0.000856134
0.000994297
0.000782258
0.00085928
0.00104852
0.00130059
0.000809111
0.00117256
0.001324
0.0012957
0.000858523
0.000815568
0.000716627
0.00139789
0.00135872
0.00169072
0.00174203
0.00221148
0.00250701
0.00274549
0.00269798
0.00181191
0.00130747
0.000773422
0.00180195
0.0010501
0.00122121
0.00208164
0.00179207
0.00230998
0.00220105
0.00184779
0.00260259
0.00228176
0.00211278
0.0024867
0.0006951
0.000656678
0.000510479
0.000997395
0.00194346
0.001886
0.00243899
0.00209393
0.00122467
0.000835828
0.00270732
0.00172728
0.00266474
SCALARS SignedDistance double 1
LOOKUP_TABLE default
0.00622759
0.00838168
0.0122544
0.00474006
0.00784319
0.0131759
0.164189
0.00235965
0.00276077
0.00789439
0.0038612
0.00474845
0.0112329
0.0095031
0.0121879
0.0164961
0.00848626
0.00799037
0.00764642
0.0224077
0.00106326
0.0158614
0.00557165
0.00627907
0.00755224
0.0184073
0.0127121
0.00514679
0.0968818
0.0233928
0.00336747
0.0238579
0.00915166
0.00843789
0.00197556
0.00099866
0.115
0.0619999
0.0514496
0.0120141
0.0109289
0.0120469
0.0148619
0.00962344
0.000252082
0.004973
0.00479033
0.00822222
0.00542523
0.0045178
0.00651136
0.00662443
0.00323679
0.00502181
0.0157761
0.0031155
0.00700193
0.00306571
0.00546468
0.0063123
0.0105129
0.00502726
0.00324706
0.00710312
0.00296466
0.010115
0.00557588
0.00175743
0.00672239
0.00136142
0.00323799
0.00412544
0.0145656
0.00743779
0.00540863
0.0118312
0.00687645
0.0102589
0.00717635
0.00713596
0.0042286
0.00835278
0.00958634
0.0032036
0.00607371
0.00407063
0.00479647
0.00438407
0.00438473
0.00267966
0.00410364
0.00631374
0.00775445
0.00188823
0.0182787
0.00405256
0.00370567
0.00466595
0.00546378
0.00913463
0.0159776
0.0464669
0.0832716
0.0637869
0.152604
0.0101729
0.000846182
0.00594751
0.00535187
0.00273027
0.00230463
0.00401633
0.00457766
0.00768806
0.0115448
0.00433837
0.00712866
0.0074703
0.00505042
0.00555408
0.00582724
0.0340808
0.0514827
0.00233285
0.0122483
0.0578159
0.0391939
0.0113344
0.0981434
0.0269904
0.0414231
0.120631
0.0923942
0.180714
0.121282
0.00201376
0.0019467
0.0605258
0.0147572
0.00263593
0.0141738
0.00836075
0.00426273
0.00718861
0.0080286
0.00687415
0.0113134
0.00305826
0.00190488
0.0104455
0.00380032
0.00387263
0.00990576
0.0277313
0.00428996
0.00727075
0.00876782
0.0545221
0.0508421
0.0176916
0.0121534
0.0152267
0.0104119
0.00560387
0.00295529
0.0149997
0.0169925
0.0119573
0.00887204
0.00599596
0.0143474
0.00562745
0.00426653
0.00521625
0.007165
0.00245447
0.00345819
0.0104457
0.00668814
0.00974473
0.0210361
0.0191299
0.0119562
0.00396736
0.00538397
0.00223596
0.00921214
0.0141403
0.0122789
0.0103315
0.0182691
0.00909237
0.00285462
0.00627961
0.0115321
0.000971414
0.00702309
0.00434321
0.00553594
0.0199123
0.0072734
0.0145378
0.00334164
0.00236467
0.00308357
0.00963046
0.00858937
0.00201645
0.00673391
0.00439233
0.00399716
0.00653046
0.00856568
0.000873268
0.0116373
0.00908074
0.0108019
0.00509784
0.00553543
0.00741849
0.00888934
0.00501114
0.00809313
0.00232856
0.00272087
0.00991147
0.00780337
0.00533347
0.00358136
0.00801453
0.00454932
0.00909834
0.00318016
0.00353217
0.00369003
0.00545965
0.00511574
0.00503771
0.00445127
0.00721341
0.00573487
0.00909408
0.00532498
0.00511688
0.0151755
0.0123669
0.0102343
0.0180939
0.00793731
0.00669772
0.00206023
0.00254852
0.00308869
0.0129879
0.00339374
0.0125804
0.00265644
0.00342987
0.00196308
0.00165727
0.0037343
0.00187773
0.000992365
0.0016561
0.0167767
0.00424414
0.0118068
0.024267
0.0202325
0.00221508
0.0128887
0.0126749
0.0118169
0.0130523
0.0135024
0.00570458
0.00213201
0.0242722
0.00995036
0.00409168
0.00666555
0.00633795
0.00912691
0.00994095
0.0111099
0.00614082
0.0118591
0.0140262
0.0211617
0.00617015
0.0233604
0.0189766
0.0101342
0.00947447
0.0123807
0.00603068
0.0120309
0.0176961
0.0072341
0.0116409
0.0187707
0.00833387
0.0173782
0.0122147
0.00443008
0.00445453
0.00765962
0.00602987
0.00562566
0.00913643
0.00633234
0.00826565
0.00459373
0.00539095
0.00654947
0.00947
0.0184904
0.0122645
0.00339861
0.00382453
0.00818087
0.00581019
0.00345014
0.00231586
0.00329676
0.00619667
0.00451205
0.0145969
0.00343998
0.0127489
0.00267187
0.00762635
0.00579029
0.00446172
0.00591384
0.0122035
0.00631692
0.00534305
0.00783875
0.00670833
0.00741398
0.0152907
0.0138916
0.0179079
0.00508392
0.00745183
0.0067557
0.0118654
0.00751322
0.00782289
0.0146795
0.00413808
0.00525401
0.0198044
0.00194647
0.0221908
0.00596108
0.00876266
0.00511604
0.00439579
0.0122489
0.00511505
0.00491819
0.00594079
0.00575176
0.00354106
0.0064165
0.0159432
0.00479103
0.0118526
0.00910668
0.0063085
0.00983566
0.0230998
0.00451016
0.0111301
0.00579709
0.00604765
0.00689492
0.0683348
0.0292476
0.0490109
0.0136907
0.0365377
0.137266
0.119538
0.158255
0.0316218
0.0664645
0.0460468
0.146925
0.110001
0.11463
0.0407571
0.0755616
0.0274581
0.00441968
0.00242432
0.00542616
0.00262721
0.0176497
0.00393452
0.0249378
0.0109484
0.0122299
0.00116855
0.00591885
0.00387998
0.0140448
0.0232082
0.00211121
0.00180681
0.0028998
0.00674142
0.00338014
0.00693004
0.00312241
0.00059642
0.00168889
0.0155657
0.00101793
0.00851991
0.00312359
0.00453816
0.0170596
0.00572126
0.00323161
0.00445816
0.0060044
0.00169868
0.00400716
0.0054968
0.00522606
0.0109466
0.00683325
0.0146922
0.015104
0.00477919
0.00459313
0.00578034
0.00344899
0.00269208
0.00548795
0.00421091
0.00228154
0.00609628
0.00791217
0.00365088
0.00739361
0.00466765
0.00275564
0.00811462
0.0263011
0.0270238
0.0134921
0.0140755
0.0792208
0.0441867
0.0708966
0.0039971
0.00222244
0.00511371
0.00249152
0.00328806
0.00198269
0.00339672
0.0293736
0.0336926
0.0167616
0.0830645
0.0522366
0.09275
0.0012794
0.0231584
0.0144475
0.022056
0.0265123
0.0614799
0.0391089
0.0181665
0.119034
0.0722984
0.0408839
0.053127
0.0780048
0.0287533
0.0480489
0.0915045
0.0744672
0.0474702
0.0831014
0.129911
0.132269
0.171021
0.163883
0.103621
0.132753
0.0642436
0.0851209
0.159194
0.121319
0.158979
0.163403
0.141326
0.00828908
0.00511325
0.0210921
0.0189936
0.00982118
0.00446457
0.00687567
0.111435
0.0681528
0.0108316
0.0291193
0.0311622
0.0409307
0.0279517
0.00350086
0.00382811
0.00484543
0.0115784
0.0141761
0.0235206
0.0125109
0.0203405
0.00669166
0.0108914
0.00452692
0.00236431
0.00810216
0.00549702
0.00222974
0.00226959
0.00864576
0.00461863
0.00373814
0.00664965
0.00356087
0.00984568
0.00415467
0.0268708
0.0102017
0.00578642
0.0166804
0.00474404
0.00777075
0.00594449
0.0101383
0.00729496
0.0225146
0.00684016
0.00359024
0.00868678
0.0143391
0.0102669
0.0122404
0.00487329
0.00608606
0.00735448
0.00949325
0.0110274
0.00343021
0.0032286
0.00221268
0.00464312
0.009111
0.0121893
0.0173825
0.0188422
0.00524083
0.00347739
0.00527509
0.00432908
0.00791056
0.00446564
0.00686492
0.00353519
0.002543
0.00562998
0.00296735
0.00331941
0.00717744
0.0131224
0.00548967
0.00422708
0.00544871
0.00678763
0.0995516
0.0412357
0.0613968
0.0522702
0.0284274
0.0205324
0.00616576
0.0042983
0.0221242
0.0267252
0.00801882
0.00791288
0.0118292
0.0213295
0.00934169
0.0154613
0.00182495
0.00944753
0.00398457
0.00688018
0.0183983
0.0147089
0.0181768
0.0996057
0.0998932
0.0950377
0.0507886
0.0204299
0.00443525
0.0405856
0.0141079
0.0294106
0.0687543
0.0245949
0.0614904
0.0299403
0.012134
0.0231318
0.009519
0.0109133
0.00887297
0.00644635
0.00471649
0.00304868
0.00727616
0.02333
0.0129848
0.0136207
0.0124546
0.00823074
0.0111105
0.0289081
0.00995861
0.0201985
