# vtk DataFile Version 4.2
vtk output
ASCII
DATASET POLYDATA
POINTS 642 double
-0.130345 0.162976 -0.26882
0.126737 0.162053 -0.268888
-0.129757 -0.393074 -0.135842
0.131663 -0.392288 -0.139161
-0.0023643 -0.324503 0.16013
-0.00207211 -0.0475332 0.114981
-0.00184476 -0.175999 -0.323654
-0.00104721 0.132991 -0.422418
0.132501 -0.0288884 -0.3278
0.150371 -0.145749 0.0568909
-0.137246 -0.02809 -0.330097
-0.150823 -0.142613 0.0608052
-0.102376 -0.0164923 -0.121387
-0.0971112 -0.0813698 0.125493
-0.0392337 0.0112391 -0.0863341
0.0362948 0.0112299 -0.0856996
-0.00210989 0.201436 -0.267983
0.0908362 0.248159 -0.333491
-0.0910126 0.245619 -0.332134
-0.131441 0.0498578 -0.42628
-0.188822 0.137542 -0.288841
-0.153346 -0.107689 -0.138566
0.0885705 -0.0836133 0.124092
0.0985119 -0.0161968 -0.122912
-0.124715 -0.251128 0.158176
-0.00212646 -0.143409 0.208755
-0.169059 -0.285561 -0.206636
-0.151545 -0.284374 0.0285384
-0.00197481 -0.0310985 -0.476358
-0.10076 -0.0935118 -0.378618
0.186226 0.135252 -0.284979
0.11916 0.0481273 -0.420335
0.151648 -0.281752 0.0275183
0.12089 -0.248798 0.155632
0.106076 -0.421525 0.127201
-0.111539 -0.423098 0.127262
-0.00132652 -0.392243 -0.125542
-0.109588 -0.392258 -0.250202
0.108135 -0.392638 -0.24996
0.0899232 -0.0925967 -0.373373
0.154436 -0.284878 -0.206187
0.15201 -0.108078 -0.137427
-0.119457 0.104078 -0.244147
-0.0756512 0.00280128 -0.100971
-0.0743278 0.114398 -0.214664
-0.132328 -0.111021 0.100341
-0.107707 -0.0681349 0.0380994
-0.131426 -0.0911475 0.00268936
-0.0230434 -0.0281846 0.0530503
-0.061923 -0.0421119 0.0563459
-0.04608 -0.0636315 0.127562
-0.0264828 0.136773 -0.20933
-0.0662844 0.198584 -0.27339
0.0201215 -0.028126 0.0526878
-0.00142726 0.0121553 -0.0829343
0.0629236 0.197673 -0.273242
0.022557 0.135272 -0.209666
0.0694764 0.111457 -0.21731
-0.0599743 0.244796 -0.306448
-0.105722 0.20131 -0.303591
0.102413 0.199826 -0.306042
0.0572863 0.244864 -0.306481
-0.0507571 0.19442 -0.378739
2.89335e-05 0.225674 -0.324814
0.0473501 0.194877 -0.378098
-0.176809 0.178602 -0.308081
-0.182747 0.162479 -0.27286
-0.0782848 0.0976422 -0.43595
-0.118575 0.153041 -0.367108
-0.151451 0.080126 -0.304613
-0.174692 0.119548 -0.332021
-0.150554 0.0100724 -0.387412
-0.142805 0.101683 -0.263945
-0.127359 -0.0604665 -0.236223
-0.134672 0.0479617 -0.260092
-0.128966 -0.0483193 -0.129407
-0.152878 -0.133059 -0.0290462
0.0710847 0.00457953 -0.101234
0.115325 0.102873 -0.243255
0.0438256 -0.06431 0.128041
0.0587413 -0.0396471 0.056477
0.125514 -0.0962805 -0.00158145
0.101511 -0.0663111 0.0357941
0.121427 -0.116598 0.0942131
-0.0517101 -0.109795 0.173533
-0.00136379 -0.0901951 0.168768
-0.143785 -0.189017 0.116401
-0.116003 -0.14152 0.1548
-0.00277329 -0.199482 0.194276
-0.0559991 -0.178975 0.192663
-0.0842241 -0.295401 0.172111
-0.158422 -0.199254 -0.0602653
-0.152935 -0.210353 0.0515291
-0.141233 -0.158368 -0.24423
-0.158336 -0.190037 -0.167326
-0.118456 -0.326584 -0.0383319
-0.154619 -0.282306 -0.122527
-0.156902 -0.357796 -0.180145
-0.135139 -0.0291535 -0.44368
-0.133142 -0.0655871 -0.372391
-0.00150594 0.0366364 -0.47495
-0.0884966 0.00528776 -0.474106
-0.0533759 -0.129693 -0.349504
-0.0787604 -0.0663657 -0.462199
-0.00106616 -0.0863503 -0.445015
0.114334 0.154781 -0.366685
0.0737787 0.0980596 -0.435571
0.175825 0.159271 -0.274545
0.167463 0.176395 -0.306285
0.147744 0.00596863 -0.384914
0.169993 0.118142 -0.33057
0.142144 0.0743862 -0.30356
0.118532 -0.322716 -0.0434042
0.147809 -0.364418 0.0918766
0.102076 -0.386956 0.0435348
0.144778 -0.191499 0.113752
0.150715 -0.285246 0.112182
0.152794 -0.210817 0.0496547
0.0680879 -0.393155 0.169647
0.123962 -0.355481 0.15462
0.0790384 -0.294488 0.171749
0.0577695 -0.410702 0.0526895
0.0905033 -0.413162 -0.131369
-0.0724826 -0.393419 0.16939
-0.000772738 -0.40237 0.124268
-0.094058 -0.411638 -0.12878
-0.0644539 -0.410343 0.0538912
-0.108909 -0.39277 0.0502226
0.0727794 -0.423506 -0.204938
0.144158 -0.422149 -0.209765
-0.144449 -0.421884 -0.209228
-0.0739009 -0.423507 -0.204655
0.0569048 -0.316529 -0.263381
0.000533894 -0.378045 -0.230612
-0.0592233 -0.314861 -0.260396
0.148979 -0.360792 -0.2353
0.151722 -0.36085 -0.179681
0.0477474 -0.129216 -0.347541
0.10078 -0.288321 -0.267608
0.136927 -0.159908 -0.240665
0.129661 -0.224936 -0.26104
0.125272 -0.0613731 -0.367616
0.15279 -0.283773 -0.119633
0.122406 -0.0656672 -0.233338
0.155414 -0.187598 -0.168258
0.155314 -0.198575 -0.0571007
0.152133 -0.134863 -0.0290099
0.0520747 -0.178528 0.188882
0.107144 -0.143188 0.151361
0.0487374 -0.1084 0.173478
-0.146155 -0.369186 0.0937164
-0.131942 -0.358463 0.161329
-0.151359 -0.286585 0.115576
-0.103106 -0.28716 -0.267833
-0.15082 -0.358235 -0.234468
-0.130388 -0.221974 -0.261191
0.133082 -0.0308115 -0.438108
0.073241 -0.0674135 -0.461544
0.0817097 0.00687391 -0.473901
0.121609 -0.0525377 -0.130395
0.122263 0.0441726 -0.258005
0.135653 0.100149 -0.262334
-0.134629 0.137884 -0.263242
-0.099228 0.10711 -0.229347
-0.103069 0.141569 -0.255114
-0.0896153 -0.0058252 -0.112042
-0.0813792 0.0477839 -0.188797
-0.09369 0.042938 -0.200708
-0.0457733 0.06098 -0.166933
-0.0645968 0.0535341 -0.176068
-0.0575967 0.00786188 -0.0922198
-0.14646 -0.127198 0.0810831
-0.133954 -0.102483 0.0584452
-0.142279 -0.118888 0.0385603
-0.104113 -0.0800474 0.0873738
-0.123713 -0.0871515 0.0761029
-0.120391 -0.0940872 0.116209
-0.117609 -0.0611466 -0.0505224
-0.119493 -0.0791395 0.0215486
-0.103222 -0.0527706 -0.0340664
-0.0128893 -0.0329717 0.0909927
-0.0340268 -0.0398574 0.0954289
-0.0229814 -0.049556 0.125348
-0.0472965 -0.0268625 -0.00424427
-0.0434716 -0.030064 0.0563525
-0.0299392 -0.0235524 -0.00586109
-0.0724262 -0.0695327 0.130829
-0.0571697 -0.0514324 0.0973119
-0.0790166 -0.0638694 0.0963245
-0.0902303 -0.0378297 -0.021369
-0.0843306 -0.0581405 0.0483922
-0.0677525 -0.033701 -0.0126252
-0.0715011 0.15733 -0.248549
-0.0964078 0.179696 -0.272869
-0.0289052 0.0703218 -0.166379
-0.0479999 0.125012 -0.21213
-0.0391978 0.201109 -0.272537
-0.0436793 0.172103 -0.242524
-0.0188536 0.179661 -0.236968
0.00950554 -0.0330147 0.0907611
-0.00150187 -0.0275188 0.0534456
0.0180502 0.0118102 -0.0833324
0.00870617 -0.022434 -0.00507653
0.027362 -0.0231695 -0.00595378
-0.0112513 -0.0225329 -0.00503777
-0.0208049 0.0119752 -0.0837556
0.0939655 0.17807 -0.272205
0.0694683 0.156422 -0.248203
0.10005 0.141013 -0.254736
0.0139815 0.178238 -0.238331
0.039915 0.16933 -0.244943
0.0356039 0.200134 -0.273987
0.0429961 0.0602142 -0.166131
0.0452648 0.123973 -0.211647
0.0257463 0.0692517 -0.165818
-0.0110527 0.0732014 -0.164565
0.00705989 0.072798 -0.164219
-0.00256348 0.138888 -0.208459
-0.0869203 0.215497 -0.289775
-0.123646 0.182897 -0.285674
-0.0322965 0.218377 -0.295528
-0.0641523 0.23147 -0.291111
-0.0930063 0.230482 -0.317127
-0.0810524 0.243697 -0.306272
-0.0769887 0.253671 -0.317371
0.12115 0.182079 -0.285265
0.0807471 0.209643 -0.295781
0.075115 0.254011 -0.318002
0.0783622 0.242937 -0.308122
0.0919446 0.232429 -0.318244
0.0606882 0.231648 -0.291387
0.029258 0.216976 -0.297001
-0.0258685 0.166506 -0.407176
-0.00068096 0.199096 -0.38519
0.0236607 0.166691 -0.406983
-0.0602362 0.251667 -0.336776
-0.0335834 0.215468 -0.344838
-0.0717421 0.222754 -0.343234
0.0693443 0.224421 -0.342676
0.0325365 0.214842 -0.344017
0.0586103 0.25148 -0.336863
-0.000506349 0.225993 -0.315725
0.0341742 0.234645 -0.319757
-0.0362507 0.237581 -0.31978
-0.157262 0.178711 -0.283965
-0.158697 0.164368 -0.270977
-0.114118 0.19298 -0.31393
-0.132695 0.184304 -0.301928
-0.191023 0.15163 -0.283892
-0.187415 0.173923 -0.289216
-0.201911 0.159916 -0.296399
-0.0413474 0.119874 -0.43382
-0.0663997 0.155266 -0.415229
-0.125107 0.106837 -0.397561
-0.0991846 0.130538 -0.409137
-0.109431 0.0730848 -0.435049
-0.0858737 0.182049 -0.380832
-0.0973152 0.1959 -0.340846
-0.139688 0.0148453 -0.319603
-0.14112 0.0475556 -0.336721
-0.150994 -0.00785851 -0.361088
-0.188455 0.13453 -0.304912
-0.172256 0.106364 -0.316216
-0.185607 0.113501 -0.29428
-0.144752 0.0283378 -0.408955
-0.140687 0.0688601 -0.35385
-0.136921 0.0844574 -0.372838
-0.156699 0.176399 -0.337151
-0.153727 0.134445 -0.346243
-0.188611 0.154809 -0.320586
-0.159314 0.141089 -0.26852
-0.18312 0.128904 -0.273297
-0.176178 0.137984 -0.271373
-0.134627 0.105551 -0.255957
-0.101907 0.0370276 -0.209292
-0.125863 -0.037789 -0.282073
-0.13675 0.0171989 -0.28288
-0.124092 -0.0407675 -0.205068
-0.125755 -0.00548384 -0.246197
-0.143667 -0.0869878 -0.190519
-0.147659 0.0759279 -0.281751
-0.174732 0.108243 -0.281194
-0.14123 -0.111909 -0.0133282
-0.15186 -0.139507 0.023214
-0.115099 -0.030008 -0.127128
-0.132903 -0.0746623 -0.0620331
-0.154306 -0.123441 -0.0857342
-0.146152 -0.0957494 -0.0730907
-0.139744 -0.0763829 -0.132267
-0.141464 0.0823012 -0.266529
-0.113616 -0.00248983 -0.211934
-0.107571 0.0224554 -0.212034
0.0954703 0.105542 -0.229737
0.130209 0.136787 -0.263055
0.0537124 0.00884853 -0.0917019
0.0616581 0.0534081 -0.175244
0.0900983 0.0431113 -0.200029
0.0780937 0.0480429 -0.188345
0.0843335 -0.00568759 -0.11394
0.0199549 -0.053911 0.123081
0.0302396 -0.0442687 0.0933695
0.0727282 -0.0639575 0.0956101
0.0531569 -0.0525079 0.0969797
0.0674557 -0.0690806 0.131265
0.0406511 -0.0300336 0.0558636
0.0435617 -0.0263178 -0.00439361
0.143119 -0.122485 0.0344367
0.1294 -0.107349 0.0528885
0.144462 -0.131485 0.0759801
0.0986625 -0.0524447 -0.0369657
0.114532 -0.0793207 0.0174862
0.111763 -0.0618611 -0.0533448
0.111195 -0.0950087 0.114239
0.112287 -0.0906536 0.0721744
0.0973746 -0.0771779 0.0867494
0.0619562 -0.0322883 -0.0129661
0.0794453 -0.054982 0.0481391
0.0816942 -0.0411256 -0.0244892
-0.0270483 -0.0738833 0.151908
-0.00137556 -0.0654947 0.142341
-0.0792775 -0.090433 0.153848
-0.0537904 -0.0813679 0.156482
-0.00165402 -0.116034 0.193398
-0.0271793 -0.100627 0.177176
-0.0262124 -0.124275 0.200483
-0.150685 -0.162304 0.0899038
-0.140763 -0.143847 0.11256
-0.118656 -0.18854 0.156378
-0.131834 -0.164294 0.138633
-0.133644 -0.220783 0.138156
-0.128965 -0.123603 0.132773
-0.109221 -0.107801 0.14367
[...]
POINT_DATA 642
SCALARS Mean_Curvature double 1
LOOKUP_TABLE default
15.9437
14.2561
10.5292
20.9532
-15.3998
-4.18896
5.25043
-4.63034
7.62481
14.7652
3.15382
12.3947
0.459687
15.7371
9.04725
8.59451
6.87767
74.1804
70.7294
13.9146
5.73877
9.6513
0.669656
4.96668
10.7884
14.4095
20.6523
9.72284
-5.95629
2.48166
65.6936
-0.912292
12.1098
8.26021
32.1363
31.0927
-9.94953
8.69785
5.59304
0.672122
3.60023
13.2812
4.9398
12.2885
12.4091
3.13492
13.4328
10.2656
3.26621
6.07097
-7.90599
13.7772
4.13176
3.77575
0.44979
11.8157
10.0482
1.64699
46.6098
-19.8861
-19.6394
59.0821
7.3746
-3.41102
13.1724
39.3343
65.3818
6.97791
-3.44183
-10.2052
34.5956
9.38658
-1.48257
-7.99708
20.927
14.8913
11.1846
18.5858
13.8177
-3.10102
13.3965
-5.50753
15.553
-9.24743
-4.01555
6.64779
7.42886
18.1802
0.380959
13.2052
0.642688
-2.02186
-0.0387764
10.7893
-1.53439
-1.09168
0.216015
1.35613
13.1291
13.401
8.73005
13.8848
-8.64639
19.2267
-0.708579
1.86573
4.25973
44.0605
29.8307
22.6215
39.3884
-6.73218
-0.013182
24.4013
8.08863
17.0808
6.74016
0.783702
27.787
5.51564
2.08146
8.66193
24.1802
22.4912
-19.9579
18.6568
6.41786
10.7816
11.6878
52.997
52.5167
13.0518
0.0886095
-14.1036
-5.10732
25.9503
-0.790115
-8.19853
5.16838
6.38784
16.9529
12.3885
7.56461
-6.11063
-1.01135
-0.11284
15.1373
6.0449
14.5632
3.2894
14.4926
24.7687
2.1982
5.24405
7.19607
10.4412
20.1541
20.2487
15.3828
-3.15873
1.28921
7.01916
-7.13553
6.87734
-9.18686
3.87522
0.474156
2.97269
2.31265
-1.08175
5.45972
21.0341
5.95465
1.23714
-7.38839
28.1071
31.1264
3.28461
3.56421
-10.9983
22.091
10.549
32.3342
8.33713
27.393
0.56911
21.911
8.62007
4.05057
25.5951
-6.23451
-7.13228
-3.06847
-1.28297
7.10344
-2.69958
1.2317
6.93283
21.1236
29.4377
4.19492
1.28368
-1.64993
1.64354
-1.41334
1.66696
2.02046
1.41875
-7.43118
17.502
-0.495088
0.00790573
3.00754
4.93536
5.14319
5.9195
5.9914
8.60075
25.6778
1.97898
-9.8279
31.6135
24.4775
48.7772
56.8677
5.81791
-6.71567
55.9965
39.903
41.8347
40.8355
-13.6643
5.42177
17.2504
5.46538
67.5511
-12.188
0.823858
2.75181
-14.1943
70.6355
-13.6887
3.51809
24.1976
62.3952
27.9622
-16.1913
-10.0528
31.0978
48.7054
80.4488
8.99401
19.0933
14.6887
10.6371
13.3632
18.2804
-3.74325
-0.563107
-2.80387
16.5462
13.6115
10.3354
51.7901
11.5991
-7.03129
-0.628689
30.2444
-1.42504
37.3261
7.3557
78.8668
20.8461
11.1298
3.78359
-0.564139
6.69522
-4.27828
-3.24699
15.4929
-11.8462
44.1353
-3.73323
13.0755
2.50379
10.0174
1.50897
10.4608
0.296242
-11.5289
-8.46509
-0.116115
8.1219
-7.04633
7.46576
0.900558
3.047
1.48955
-5.24183
14.6039
-6.17798
0.217012
12.6545
28.642
26.0149
9.4201
13.7496
2.35298
28.2205
3.23843
7.58227
6.00965
31.261
3.96683
10.7223
2.92147
-2.89152
3.57347
9.9643
4.77238
18.9223
21.0971
9.84327
9.59958
30.9682
12.9614
8.49864
14.5089
12.7745
1.13815
24.7296
14.0869
-1.44959
0.328766
5.83959
23.4431
3.72175
53.459
16.1515
-2.93335
9.03562
18.0377
0.861089
13.6721
0.672958
1.41993
6.93955
-0.937841
0.862983
0.881293
0.60204
-7.38901
3.47679
-3.67624
3.9031
5.56839
10.3153
-0.328204
-10.8473
13.6379
17.3648
7.73853
-3.37281
-3.65007
18.7958
-1.41829
9.75073
13.1227
2.64359
6.80757
17.2692
0.769115
9.55789
26.8987
32.5919
7.54182
35.3168
-6.73083
1.15388
-0.29599
8.83829
33.4997
3.23785
24.0186
-1.91137
9.46896
-4.83637
16.971
-0.37334
2.53642
26.8603
26.3022
13.1246
43.271
12.4101
27.7216
20.707
9.45483
-1.78498
1.99523
25.4428
19.2483
6.05307
30.6979
64.1913
31.6807
68.9602
82.4047
-11.3923
-15.9608
7.53376
1.36402
5.60889
-7.13536
-1.24069
0.275801
9.03775
2.2603
34.4229
31.7127
43.4972
-0.6525
-12.3829
-8.75237
-5.95157
17.7887
-5.49649
-3.29942
28.0727
15.1753
16.1191
18.1552
5.85314
2.17134
25.5128
6.47703
5.6172
1.82051
4.2302
2.53568
5.84188
4.89486
4.12422
37.6399
28.4751
28.8037
19.9387
20.9186
3.19841
3.94294
31.9969
27.4327
-2.97643
15.972
18.089
24.6897
1.73264
-4.54259
-1.96834
8.36387
-18.4589
12.4882
35.6007
40.9011
34.8868
19.9365
31.502
-4.35369
-5.51577
1.62127
-4.43812
2.71146
44.5791
23.5962
19.3431
12.0171
13.6688
-7.67565
22.0744
47.5981
12.8674
9.4881
50.0392
2.6998
39.6583
41.629
23.1137
41.0238
3.12498
49.2252
11.4395
6.5089
3.35332
-8.47227
4.53779
16.5847
-0.685675
17.3767
20.1973
-1.06455
8.20699
-3.39867
26.3444
23.8371
5.63613
20.4486
31.1568
31.1567
25.2628
-0.349418
4.04589
-3.96928
6.01899
1.07275
1.25441
2.35076
6.3962
15.4062
-8.91708
-7.31815
0.699054
18.7528
7.69964
10.29
17.3582
-3.24367
1.337
23.9188
10.9757
17.7213
19.9243
0.022777
3.11247
-4.55452
12.2512
0.302004
4.02709
-0.0352842
16.1959
7.00271
8.15433
0.604328
0.795098
13.3667
0.539314
0.616007
8.27768
-0.0294591
-1.81867
-2.03172
16.0764
-0.612891
0.503369
12.049
-2.17246
4.32459
22.4019
5.49772
34.5646
1.03655
5.41471
14.5161
12.3916
27.5011
-1.72231
22.4336
28.4992
4.73304
8.92944
19.6157
-9.52407
8.80042
16.6346
10.3559
12.582
2.98033
21.2339
12.9054
23.978
30.6956
6.71067
2.26423
3.26108
10.3424
31.522
29.9387
21.5003
3.9663
2.68812
11.6913
10.6497
1.38491
1.55075
1.9816
27.0885
18.7469
24.8472
29.9436
-8.31475
-1.17476
-4.01299
11.4328
15.3031
32.6689
4.34342
10.9691
26.9969
21.9519
19.6702
35.5577
11.555
9.27379
14.0932
26.061
4.28132
20.6195
0.592399
27.6789
7.04874
8.61349
-1.90186
23.5758
17.3863
29.6611
2.90968
10.9816
10.4986
-2.20523
12.2117
-0.468866
49.0356
-7.34821
-0.279621
-3.51988
3.35494
6.94368
4.41448
44.552
60.3889
-8.04335
-6.57637
2.18959
SCALARS CoVolArea double 1
LOOKUP_TABLE default
0.000743599
0.000711537
0.0014482
0.00142039
0.00219018
0.000582432
0.00218499
0.00166862
0.00140593
0.000706936
0.00149446
0.000762853
0.00174212
0.000963039
0.00173639
0.00166737
0.00140304
0.000870337
0.000892405
0.00169567
0.000370355
0.00222341
0.000922352
0.0017134
0.00150946
0.000723234
0.00136851
0.00226648
0.00167346
0.00182567
0.000345969
0.00188975
0.00207467
0.00151971
0.00120004
0.00110609
0.00416371
0.00111911
0.0011263
0.00189909
0.00144852
0.00214057
0.00110681
0.0019129
0.00176341
0.000936031
0.00138819
0.00140147
0.00102954
0.00134549
0.000881853
0.00149121
0.00115639
0.00103725
0.00180226
0.0011859
0.00156701
0.00172586
0.000675284
0.000721605
0.000714273
0.000671551
0.00187644
0.00125117
0.00181357
0.0009519
0.000472471
0.00203388
0.0021968
0.00150405
0.00121847
0.0015109
0.000946388
0.00231889
0.00136319
0.00205251
0.00166831
0.00189115
0.00105432
0.000819716
0.00125297
0.00150703
0.00144714
0.00107442
0.00104901
0.000941935
0.0013016
0.00118091
0.00181015
0.00148388
0.00192504
0.00237321
0.00178113
0.00222709
0.00226992
0.00231809
0.00247944
0.00128994
0.000990687
0.0017136
0.00202001
0.00139001
0.00257111
0.00135933
0.00181947
0.00212305
0.0019544
0.000428627
0.000892273
0.00135309
0.00132977
0.00154178
0.00234202
0.00139167
0.00210387
0.00127364
0.00132429
0.00164281
0.00150249
0.00128028
0.00188618
0.00294943
0.0020538
0.00162282
0.00219886
0.00203741
0.00303452
0.0018154
0.00175666
0.000884765
0.000923867
0.0017783
0.00256249
0.00216069
0.0026817
0.00109609
0.00121988
0.00247538
0.00186553
0.00216221
0.00205672
0.00170665
0.00243649
0.00220607
0.0022485
0.00237875
0.00150121
0.0015032
0.00124731
0.000970416
0.00139383
0.00122054
0.00141368
0.00186902
0.0011679
0.00216394
0.00102354
0.0012655
0.00137294
0.00206719
0.00145702
0.000823048
0.000897678
0.00149771
0.00134588
0.00183379
0.00165183
0.00140013
0.00181307
0.00186121
0.00190705
0.00094804
0.0010745
0.00109499
0.00112437
0.0009867
0.000878711
0.00163475
0.00127802
0.00171132
0.00077617
0.000897072
0.000798254
0.00155299
0.00108682
0.00136525
0.000879704
0.000963591
0.00112978
0.00188394
0.00159207
0.00186689
0.00155019
0.00120562
0.0016973
0.00164442
0.0011386
0.00132417
0.00133128
0.000794711
0.00103181
0.00175999
0.00141401
0.00132393
0.00141712
0.00175819
0.00119407
0.00153584
0.00130369
0.00137735
0.00137237
0.00116829
0.00177117
0.00165911
0.00173205
0.00173621
0.00177927
0.00157574
0.000916705
0.000836408
0.00126672
0.000788708
0.000569975
0.000536999
0.000502978
0.000829188
0.000955843
0.000513628
0.000556834
0.000545177
0.000819361
0.00126203
0.00193428
0.00213506
0.00189553
0.00101857
0.00184889
0.00139546
0.00135818
0.00180031
0.00100141
0.00102477
0.000737263
0.000729429
0.000633514
0.000627782
0.00118525
0.00071551
0.000324134
0.000567071
0.000499379
0.00213641
0.00194319
0.00204452
0.00198465
0.00174536
0.0019057
0.0017949
0.00196695
0.00171664
0.00149919
0.000607901
0.00111679
0.000684091
0.00152315
0.0016478
0.00186357
0.00179675
0.00183089
0.00102936
0.000640203
0.000523762
0.000494277
0.000875756
0.00138587
0.00223637
0.00210003
0.00221542
0.00183526
0.00219679
0.00121026
0.000712137
0.0014971
0.0012466
0.00179044
0.00172388
0.00190582
0.00180784
0.00228224
0.00120172
0.00211952
0.00171936
0.00145101
0.00088022
0.00178814
0.00179595
0.00135117
0.00160641
0.00186588
0.000797799
0.000888153
0.00106299
0.000897241
0.000809819
0.00103996
0.00142577
0.00106913
0.00122345
0.000973903
0.00173654
0.00143869
0.00168779
0.000932182
0.0011273
0.00110915
0.00177146
0.00154811
0.00189783
0.000907818
0.000842029
0.000998359
0.000877937
0.000845913
0.00090322
0.000916704
0.00107321
0.00106055
0.00150905
0.0011609
0.00136141
0.000924524
0.000997019
0.00275948
0.00229405
0.0023806
0.000899322
0.00135462
0.000811646
0.00152036
0.00185635
0.00176679
0.00129893
0.00162764
0.00130215
0.00177715
0.00129869
0.00213933
0.00203373
0.00195544
0.00217572
0.00250861
0.00223308
0.00233656
0.00191875
0.00209661
0.00168771
0.0022487
0.0022371
0.0020839
0.00198061
0.00147389
0.00277542
0.00258431
0.00246098
0.00116728
0.00179001
0.00176151
0.00245386
0.00244814
0.002742
0.0012169
0.00172996
0.00116493
0.00105796
0.00159127
0.00108847
0.001287
0.00234341
0.00224828
0.00160161
0.00170892
0.00159732
0.00177198
0.00136808
0.00273356
0.00232683
0.00238598
0.00161466
0.00191933
0.00202375
0.00141462
0.00152642
0.00150036
0.00115911
0.00140697
0.00124066
0.00189652
0.00207444
0.00171402
0.00186067
0.00174116
0.00193403
0.00211763
0.000613169
0.000599393
0.000455502
0.000501195
0.000258247
0.000638427
0.00107036
0.00134354
0.00161675
0.00190191
0.00206828
0.00163787
0.00156095
0.000708776
0.00114387
0.000633747
0.00173366
0.00105821
0.00190599
0.00203137
0.00235419
0.00228673
0.00172895
0.00205513
0.00233019
0.00127404
0.00167673
0.00126373
0.00101673
0.00135533
0.00119248
0.00135977
0.00132652
0.0013528
0.00178849
0.0014631
0.00158888
0.00215057
0.00163213
0.00236776
0.00123652
0.00116724
0.00112318
0.00156542
0.0013684
0.00140647
0.00145177
0.00138952
0.00138989
0.00235846
0.00167162
0.00146745
0.00202021
0.00297341
0.0028291
0.00452016
0.00218816
0.00202963
0.00167692
0.001765
0.00118889
0.00168135
0.00157835
0.00152468
0.00219097
0.00212968
0.00456066
0.00285704
0.00302845
0.00108686
0.00190577
0.00147077
0.002494
0.00261176
0.00422254
0.00117507
0.000934861
0.00254156
0.00158206
0.000910331
0.00113152
0.00132447
0.000961446
0.00116977
0.00133022
0.00114331
0.000907923
0.00163038
0.00256375
0.00312915
0.00331926
0.00318568
0.00165936
0.00233266
0.00147667
0.00152647
0.00239299
0.0016954
0.00238827
0.00207609
0.00205655
0.000905103
0.00129682
0.00101938
0.000842452
0.00122568
0.000986932
0.00122868
0.00269792
0.00262835
0.0021634
0.00212565
0.00195923
0.0018392
0.00127468
0.00218348
0.00233315
0.00165486
0.001526
0.00200077
0.00165846
0.00170808
0.00218738
0.00229788
0.00147228
0.00219502
0.00157934
0.00183627
0.00187576
0.0017209
0.00240454
0.00259595
0.0021306
0.00217089
0.00221054
0.00209675
0.00216181
0.00196137
0.00199554
0.00161697
0.00112681
0.0023908
0.00204083
0.00176661
0.00192091
0.00214116
0.00258645
0.00253368
0.0027765
0.00229391
0.00171151
0.00185791
0.00141916
0.000941787
0.00112666
0.00101855
0.00104561
0.00124708
0.00150094
0.00088836
0.000895307
0.000882059
0.000806605
0.000932634
0.00158764
0.00126354
0.00127481
0.00212345
0.00117509
0.00146076
0.00195572
0.00181624
0.00169673
0.00131936
0.00133149
0.00119414
0.00115765
0.00143975
0.00173204
0.00155831
0.00138339
0.00139694
0.00140768
0.00141917
0.00155288
0.00271781
0.00127847
0.0018918
0.00216693
0.00213697
0.000988585
0.00125939
0.0010108
0.000888095
0.00102985
0.00234158
0.00223077
0.00216385
0.00205522
0.00162257
0.00153534
0.00173829
0.00224647
0.00109377
0.00134368
0.00106647
0.000970964
0.00128396
0.00226042
0.00144184
0.00145122
0.00181275
0.00157918
0.00217331
0.00145364
0.00167707
0.00166499
0.00160105
0.00125287
0.00138575
0.00126371
0.00143902
0.00217101
0.0017208
0.00178584
0.00179093
0.00210832
0.000689535
0.00128768
0.00189759
0.00219777
0.000619581
0.00129375
0.000802318
0.000411868
0.000435192
0.00213566
0.00115106
0.00164512
SCALARS SignedDistance double 1
LOOKUP_TABLE default
0.006758
0.00744886
0.00794718
0.0046027
0.0268835
0.0057714
0.0134671
0.0073848
0.00997992
0.00559463
0.012366
0.00614557
0.0139612
0.00350367
0.00930655
0.00934049
0.00767076
0.00135412
0.00229498
0.00372166
0.00443824
0.00920492
0.00589544
0.0101421
0.00558329
0.00345997
0.0037426
0.00540795
0.00645995
0.0133531
0.00207826
0.00668279
0.00659562
0.00516805
0.00161591
0.00289735
0.0558709
0.00454018
0.0046843
0.0170552
0.00851899
0.00734577
0.00985003
0.00768605
0.00674276
0.00557722
0.00556809
0.00577235
0.00788086
0.00728764
0.0073458
0.00807156
0.00531728
0.00797714
0.012106
0.00482374
0.00813415
0.0122303
0.0032292
0.0195669
0.0180497
0.00296679
0.00412755
0.0164084
0.00483261
0.00188599
0.0013827
0.00346519
0.0064175
0.0214625
0.00435599
0.00499342
0.0108962
0.0369861
0.00983786
0.00809587
0.00863719
0.00562526
0.00979293
0.00712464
0.00570571
0.013305
0.00626784
0.00916488
0.0071446
0.00363247
0.00585908
0.00404633
0.0098499
0.00552364
0.00708594
0.0136174
0.00844664
0.0104403
0.0134564
0.0204967
0.0108308
0.00777931
0.00371123
0.00641062
0.00433055
0.00384196
0.0391868
0.00395909
0.00666242
0.00624359
0.00383226
0.00222626
0.00267723
0.00486897
0.00317246
0.0225575
0.0218971
0.00232547
0.00888976
0.003663
0.00640267
0.00827404
0.00331216
0.00563539
0.00670398
0.0118263
0.0113463
0.00284539
0.030929
0.0145385
0.0150799
0.00879299
0.00419495
0.00049568
0.000522926
0.00389528
0.0147634
0.0418722
0.0208102
0.00365798
0.00747747
0.0372954
0.0101803
0.0112078
0.00571282
0.00657084
0.00839571
0.0320074
0.0116984
0.0116271
0.00785094
0.00643318
0.00372923
0.00618163
0.00364081
0.00292503
0.00702786
0.0104167
0.0043823
0.00599638
0.0040064
0.00413334
0.00416488
0.0152987
0.0194867
0.0119729
0.0135326
0.00963297
0.0170058
0.0121311
0.0206853
0.0203645
0.0172785
0.0196178
0.00918052
0.00316173
0.00759757
0.0088213
0.00885742
0.00407141
0.00273308
0.0107128
0.00782677
0.0147299
0.00310853
0.0050591
0.00248924
0.0089532
0.00433256
0.013222
0.00369071
0.00460262
0.00610829
0.00481328
0.0117482
0.0126879
0.0109929
0.00784592
0.0168093
0.0116451
0.00878359
0.00683938
0.00459787
0.00301661
0.00889613
0.0113737
0.0149977
0.0135177
0.0148589
0.0112839
0.00701189
0.00897701
0.0147436
0.00562336
0.0103384
0.00895349
0.0179855
0.0103454
0.017519
0.0181865
0.0184285
0.00944756
0.00365545
0.0088834
0.0171741
0.00224077
0.00560855
0.00314917
0.002055
0.00783448
0.0105726
0.00173115
0.00359447
0.00461009
0.00195802
0.0188695
0.00623542
0.00459764
0.00626072
0.000951605
0.0169693
0.00697411
0.00651664
0.0165984
0.00106251
0.0168109
0.0137504
0.0123276
0.00269667
0.00442417
0.0190563
0.0107609
0.00326237
0.000751336
0.000656231
0.00298192
0.00284278
0.00568014
0.00422816
0.00282556
0.00362719
0.0103485
0.0149984
0.0171644
0.00526284
0.00384527
0.0093945
0.0019627
0.00415188
0.0174141
0.0124268
0.0013772
0.0110724
0.00244413
0.00826526
0.00188981
0.00502111
0.00838793
0.0198796
0.0246216
0.0127327
0.0310374
0.0258673
0.0102963
0.0204984
0.00648279
0.0122546
0.00744399
0.0131262
0.00707044
0.0102457
0.00787964
0.0115707
0.0181814
0.0325811
0.0243382
0.00978874
0.0131725
0.00878357
0.0178143
0.0195096
0.0191126
0.0126813
0.00478152
0.00878989
0.00696268
0.00604717
0.00312202
0.00437313
0.0101637
0.00599319
0.00669354
0.00285115
0.0103334
0.00720811
0.0100637
0.00347502
0.00615381
0.00611875
0.0101994
0.00883696
0.00959649
0.00401055
0.00438009
0.00290556
0.00363463
0.00389434
0.0041253
0.00305641
0.0058647
0.00516129
0.00420604
0.0047363
0.00697355
0.00226614
0.00271623
0.00921432
0.0105927
0.00844388
0.00452739
0.00863695
0.00362228
0.0053399
0.00951692
0.00620396
0.00232555
0.00772872
0.0043805
0.00942542
0.0074121
0.00989145
0.0117707
0.00869608
0.0110532
0.0108162
0.0369381
0.0126395
0.0127846
0.0097765
0.00935928
0.00949543
0.0126878
0.0336165
0.00792639
0.00312688
0.0072345
0.0169146
0.0143322
0.0034379
0.0108403
0.00664099
0.00600888
0.0126548
0.00946996
0.00432363
0.0102012
0.00432614
0.00293605
0.00599939
0.00514989
0.00210817
0.0106764
0.00670098
0.0057219
0.00528635
0.00181428
0.00555051
0.00388694
0.0274668
0.0100569
0.0249389
0.00338585
0.00832772
0.024273
0.00322055
0.00396458
0.00520418
0.00218421
0.00460035
0.00334147
0.00266319
0.00285088
0.00781465
0.00848268
0.0023061
0.00292624
0.00924672
0.00387896
0.00263466
0.0028996
0.00178103
0.0024013
0.01167
0.0187684
0.00855615
0.0124598
0.011109
0.0207423
0.0143519
0.00885513
0.00592731
0.00849175
0.00231752
0.00182813
0.000717718
0.00973265
0.0316802
0.0305384
0.0271307
0.00491513
0.0174232
0.0197582
0.00314437
0.0039654
0.00292525
0.00490163
0.00673064
0.00715769
0.00354727
0.00564337
0.00611464
0.00893737
0.00781944
0.00695829
0.00858959
0.00461424
0.00629083
0.00150363
0.00289165
0.00263913
0.00450141
0.00333696
0.00616503
0.00558941
0.0030352
0.00213461
0.0233394
0.00646444
0.00500191
0.00467303
0.0255357
0.0247471
0.0233233
0.00834543
0.0280638
0.00462923
0.00498958
0.0017726
0.00703967
0.00444846
0.00897138
0.0258701
0.0285526
0.0162879
0.025402
0.0266669
0.00283148
0.00663066
0.00531462
0.0111775
0.00764109
0.0468168
0.00190492
0.00159249
0.0114499
0.00441473
0.000608653
0.00296774
0.00119162
0.00196441
0.00195638
0.00121651
0.00305856
0.000999356
0.00439588
0.0167667
0.0109571
0.0348201
0.0107148
0.0041487
0.0205022
0.00513778
0.00560106
0.0195408
0.00598627
0.0404393
0.00873479
0.00880171
0.0045389
0.00339952
0.00237467
0.00239187
0.00596698
0.00631028
0.00691757
0.0307063
0.0125318
0.0200235
0.0158367
0.0262987
0.00982371
0.00526846
0.0400088
0.0376188
0.00960243
0.00588121
0.0118778
0.00607343
0.00607496
0.0349057
0.0270345
0.00338329
0.00739281
0.00513816
0.00911435
0.0100502
0.00697039
0.02225
0.00625203
0.0217283
0.017261
0.0107894
0.00827417
0.0135168
0.00805629
0.00999287
0.0078103
0.00676702
0.00892441
0.00948404
0.00747703
0.00913196
0.0118105
0.0113696
0.00571295
0.0114798
0.0106436
0.00632013
0.00767123
0.00840493
0.00385232
0.00676117
0.00203781
0.00601472
0.0055193
0.00568368
0.00391116
0.00426712
0.00624984
0.00411359
0.00267704
0.00735384
0.00372307
0.00469803
0.0329576
0.00475391
0.00499524
0.00805944
0.00572375
0.00484667
0.00332534
0.00434078
0.00303357
0.00211645
0.00782172
0.00812437
0.00874854
0.00509181
0.00258287
0.00196408
0.0036035
0.00657196
0.0125946
0.00558116
0.0101076
0.0173903
0.0219488
0.00388684
0.00210715
0.00480921
0.00293297
0.00283446
0.0374821
0.0315791
0.0363893
0.00773726
0.00479729
0.00380887
0.00484713
0.0077578
0.00348495
0.00349543
0.00410278
0.00226443
0.00506429
0.00995744
0.00536159
0.00400886
0.00704646
0.00467213
0.00694958
0.00305293
0.00588422
0.00543896
0.00539464
0.00339671
0.00447795
0.00231061
0.0101547
0.00855451
0.00847349
0.0126899
0.00992391
0.0184938
0.00562875
0.0239161
0.0247456
0.0283283
0.00744684
0.0180987
0.0113651
0.00381524
0.00339306
0.0330228
0.0209962
0.0229722
