# vtk DataFile Version 4.2
vtk output
ASCII
DATASET POLYDATA
POINTS 162 double
-0.0111991 0.0245682 -0.00464945
0.0134765 0.0265452 -0.00511962
-0.0148252 -0.0176382 0.00051087
0.0121681 -0.0175179 0.00104768
-0.000555881 -0.00594912 0.0148558
-6.88988e-06 0.0195938 0.012256
-0.00131781 -0.00212355 -0.0048131
-0.00178853 0.0206916 -0.0158903
0.0167603 0.0154165 -0.00910346
0.0116768 0.00711198 0.00466882
-0.0168151 0.0146832 -0.0116483
-0.0120947 0.00496614 0.00538516
-0.0150133 0.0187782 0.00065909
-0.00655503 0.0140187 0.0111262
-0.00479269 0.0252321 0.00821036
0.00513407 0.025496 0.00828197
0.00040264 0.029218 -0.00333238
0.0107846 0.0270577 -0.0111833
-0.00964375 0.0247542 -0.0117086
-0.0155297 0.0190419 -0.0186814
-0.0199854 0.0213549 -0.0114379
-0.0151368 0.00922046 -0.00355617
0.00644543 0.0147567 0.0109012
0.0165734 0.0198523 0.00059123
-0.00562528 -0.00363207 0.0130646
-0.000631239 0.00177886 0.0157608
-0.0143901 -0.0102599 -0.00156181
-0.0154281 -0.0118767 0.0033514
-0.00218985 0.0145921 -0.0151629
-0.0101396 0.00511322 -0.00669316
0.0201622 0.0231011 -0.0103752
0.0140407 0.0210364 -0.013653
0.0117787 -0.00985671 0.00432505
0.0049141 -0.00339306 0.011506
0.00705765 -0.0163615 0.00940398
-0.00821913 -0.0161095 0.00847461
-0.000417286 -0.0170596 0.00209563
-0.0105772 -0.0149212 -0.00392331
0.00786992 -0.0148956 -0.00375866
0.00761666 0.00476074 -0.00611791
0.0111998 -0.00817996 -0.00130502
0.0159029 0.0117852 -0.0026868
-0.0144881 0.0219348 -0.00176172
-0.00996113 0.0224333 0.00482778
-0.0076219 0.0258998 0.00291698
-0.00895382 0.00996367 0.00826664
-0.010461 0.0166681 0.00709793
-0.0135915 0.0138933 0.00286731
-0.00246933 0.0232858 0.0112955
-0.00599683 0.0206418 0.0107714
-0.00391953 0.0171849 0.0122309
-0.00305628 0.0282233 0.00367887
-0.0049773 0.0281505 -0.00371782
0.00267841 0.0234487 0.0112858
0.000177253 0.026061 0.00937548
0.00666898 0.0285427 -0.00410109
0.00351929 0.0283407 0.00350448
0.00841724 0.0256299 0.00163704
-0.00430948 0.0308045 -0.00832438
-0.0104675 0.0252412 -0.00983249
0.0127064 0.0278481 -0.00929258
0.0054223 0.0307335 -0.0082097
-0.00727085 0.0229989 -0.013972
5.38646e-05 0.0275174 -0.0105449
0.00613998 0.0243042 -0.0124908
-0.0172386 0.0255812 -0.0135951
-0.0177846 0.0237693 -0.00917177
-0.011061 0.0201659 -0.0166999
-0.0142191 0.0231348 -0.0177983
-0.0201947 0.0183419 -0.0129226
-0.0188101 0.0203346 -0.0163346
-0.01788 0.0170929 -0.0171653
-0.0193499 0.0209806 -0.00552141
-0.016488 0.0122648 -0.00721019
-0.0200076 0.0172314 -0.00833855
-0.0171983 0.0153221 -0.0022515
-0.0140128 0.00647924 0.000438588
0.0106537 0.0223247 0.00359355
0.0162559 0.0236878 -0.00188408
0.00372468 0.0175398 0.0121182
0.00601062 0.0210182 0.0105589
0.0149632 0.0155454 0.00247762
0.0111317 0.0171457 0.00610597
0.0091907 0.0112283 0.00785281
-0.00223936 0.00775399 0.0123901
-0.000207739 0.0111909 0.012351
-0.00917099 -0.000759556 0.00920439
-0.00527045 0.00415083 0.011383
-0.000941829 -0.00179493 0.0179522
-0.00261406 -0.00107499 0.0173769
-0.00341927 -0.00440952 0.0155858
-0.0144649 -0.00377507 0.00155667
-0.0138445 -0.0045326 0.00484042
-0.012924 0.00245975 -0.004223
-0.0138391 -0.000785154 -0.00197094
-0.0165894 -0.0153979 0.00252572
-0.0165912 -0.0128893 0.000496932
-0.0163933 -0.0152115 -0.00151436
-0.0146597 0.0157874 -0.0154709
-0.0133793 0.0106425 -0.00954893
-0.0024822 0.0177412 -0.0165244
-0.00987044 0.018142 -0.0159283
-0.00687759 0.000576593 -0.00574211
-0.00734262 0.0115032 -0.0111265
-0.00164305 0.00704207 -0.00859009
0.0140776 0.02424 -0.0144936
0.00820938 0.0205246 -0.0139108
0.0185993 0.0259431 -0.00837052
0.0176309 0.0269381 -0.0124077
0.0165788 0.0194926 -0.0127999
0.0187419 0.0222985 -0.0141947
0.0198538 0.0200191 -0.010943
0.012591 -0.0147146 0.00288508
0.0106812 -0.0143772 0.00647316
0.00998214 -0.0175026 0.0054766
0.00882593 0.000305387 0.00863519
0.0105187 -0.00717992 0.00842897
0.0120415 -0.00216196 0.00506746
0.0032566 -0.0117084 0.0108016
0.00605902 -0.0106959 0.0104041
0.00181931 -0.00514584 0.0141834
0.00501252 -0.0181564 0.00595379
0.00777884 -0.0181428 0.00155145
-0.00265041 -0.0103163 0.0103172
0.000334663 -0.0152624 0.00885196
-0.00944998 -0.0181261 0.00129274
-0.0055966 -0.0179019 0.00561644
-0.0122781 -0.0176119 0.00500466
0.0053896 -0.0166818 -0.00141564
0.0103954 -0.0170294 -0.00253955
-0.0130998 -0.0172852 -0.00329131
-0.00677592 -0.0160181 -0.00106867
0.00311863 -0.00946354 -0.00290212
-0.00114697 -0.0129006 -0.00145807
-0.00567009 -0.00956057 -0.00318656
0.0106789 -0.0137997 -0.00264272
0.0124012 -0.0144853 -0.000574218
0.003979 1.51356e-05 -0.00541549
0.00701752 -0.00839715 -0.00323461
0.0117742 0.00486476 -0.00352308
0.00979208 -0.00233241 -0.00343235
0.01153 0.0107357 -0.00744317
0.0118204 -0.0106667 0.00120872
0.017261 0.0139165 -0.00585466
0.0125307 0.00283687 -0.00110514
0.0128992 3.62041e-05 0.00214
0.0143214 0.00938612 0.000325432
0.00107034 -0.000621077 0.0165881
0.00497503 0.00518794 0.0109302
0.0016826 0.00857459 0.0123265
-0.013631 -0.0149589 0.00590082
-0.00700795 -0.00926526 0.00957645
-0.0118332 -0.00784715 0.00753635
-0.0096626 -0.00845501 -0.00360077
-0.0140524 -0.0147042 -0.00363247
-0.0117498 -0.00264137 -0.00374088
0.0114019 0.0160052 -0.0114822
0.00358229 0.0104769 -0.0101076
0.00544174 0.0173579 -0.0146442
0.0182655 0.0167235 -0.0011579
0.0198252 0.0183784 -0.0068931
0.0192972 0.0223128 -0.00482295


POLYGONS 320 1280 
3 0 42 44
3 12 43 42
3 14 44 43
3 42 43 44
3 11 45 47
3 13 46 45
3 12 47 46
3 45 46 47
3 5 48 50
3 14 49 48
3 13 50 49
3 48 49 50
3 12 46 43
3 13 49 46
3 14 43 49
3 46 49 43
3 0 44 52
3 14 51 44
3 16 52 51
3 44 51 52
3 5 53 48
3 15 54 53
3 14 48 54
3 53 54 48
3 1 55 57
3 16 56 55
3 15 57 56
3 55 56 57
3 14 54 51
3 15 56 54
3 16 51 56
3 54 56 51
3 0 52 59
3 16 58 52
3 18 59 58
3 52 58 59
3 1 60 55
3 17 61 60
3 16 55 61
3 60 61 55
3 7 62 64
3 18 63 62
3 17 64 63
3 62 63 64
3 16 61 58
3 17 63 61
3 18 58 63
3 61 63 58
3 0 59 66
3 18 65 59
3 20 66 65
3 59 65 66
3 7 67 62
3 19 68 67
3 18 62 68
3 67 68 62
3 10 69 71
3 20 70 69
3 19 71 70
3 69 70 71
3 18 68 65
3 19 70 68
3 20 65 70
3 68 70 65
3 0 66 42
3 20 72 66
3 12 42 72
3 66 72 42
3 10 73 69
3 21 74 73
3 20 69 74
3 73 74 69
3 11 47 76
3 12 75 47
3 21 76 75
3 47 75 76
3 20 74 72
3 21 75 74
3 12 72 75
3 74 75 72
3 1 57 78
3 15 77 57
3 23 78 77
3 57 77 78
3 5 79 53
3 22 80 79
3 15 53 80
3 79 80 53
3 9 81 83
3 23 82 81
3 22 83 82
3 81 82 83
3 15 80 77
3 22 82 80
3 23 77 82
3 80 82 77
3 5 50 85
3 13 84 50
3 25 85 84
3 50 84 85
3 11 86 45
3 24 87 86
3 13 45 87
3 86 87 45
3 4 88 90
3 25 89 88
3 24 90 89
3 88 89 90
3 13 87 84
3 24 89 87
3 25 84 89
3 87 89 84
3 11 76 92
3 21 91 76
3 27 92 91
3 76 91 92
3 10 93 73
3 26 94 93
3 21 73 94
3 93 94 73
3 2 95 97
3 27 96 95
3 26 97 96
3 95 96 97
3 21 94 91
3 26 96 94
3 27 91 96
3 94 96 91
3 10 71 99
3 19 98 71
3 29 99 98
3 71 98 99
3 7 100 67
3 28 101 100
3 19 67 101
3 100 101 67
3 6 102 104
3 29 103 102
3 28 104 103
3 102 103 104
3 19 101 98
3 28 103 101
3 29 98 103
3 101 103 98
3 7 64 106
3 17 105 64
3 31 106 105
3 64 105 106
3 1 107 60
3 30 108 107
3 17 60 108
3 107 108 60
3 8 109 111
3 31 110 109
3 30 111 110
3 109 110 111
3 17 108 105
3 30 110 108
3 31 105 110
3 108 110 105
3 3 112 114
3 32 113 112
3 34 114 113
3 112 113 114
3 9 115 117
3 33 116 115
3 32 117 116
3 115 116 117
3 4 118 120
3 34 119 118
3 33 120 119
3 118 119 120
3 32 116 113
3 33 119 116
3 34 113 119
3 116 119 113
3 3 114 122
3 34 121 114
3 36 122 121
3 114 121 122
3 4 123 118
3 35 124 123
3 34 118 124
3 123 124 118
3 2 125 127
3 36 126 125
3 35 127 126
3 125 126 127
3 34 124 121
3 35 126 124
3 36 121 126
3 124 126 121
3 3 122 129
3 36 128 122
3 38 129 128
3 122 128 129
3 2 130 125
3 37 131 130
3 36 125 131
3 130 131 125
3 6 132 134
3 38 133 132
3 37 134 133
3 132 133 134
3 36 131 128
3 37 133 131
3 38 128 133
3 131 133 128
3 3 129 136
3 38 135 129
3 40 136 135
3 129 135 136
3 6 137 132
3 39 138 137
3 38 132 138
3 137 138 132
3 8 139 141
3 40 140 139
3 39 141 140
3 139 140 141
3 38 138 135
3 39 140 138
3 40 135 140
3 138 140 135
3 3 136 112
3 40 142 136
3 32 112 142
3 136 142 112
3 8 143 139
3 41 144 143
3 40 139 144
3 143 144 139
3 9 117 146
3 32 145 117
3 41 146 145
3 117 145 146
3 40 144 142
3 41 145 144
3 32 142 145
3 144 145 142
3 4 120 88
3 33 147 120
3 25 88 147
3 120 147 88
3 9 83 115
3 22 148 83
3 33 115 148
3 83 148 115
3 5 85 79
3 25 149 85
3 22 79 149
3 85 149 79
3 33 148 147
3 22 149 148
3 25 147 149
3 148 149 147
3 2 127 95
3 35 150 127
3 27 95 150
3 127 150 95
3 4 90 123
3 24 151 90
3 35 123 151
3 90 151 123
3 11 92 86
3 27 152 92
3 24 86 152
3 92 152 86
3 35 151 150
3 24 152 151
3 27 150 152
3 151 152 150
3 6 134 102
3 37 153 134
3 29 102 153
3 134 153 102
3 2 97 130
3 26 154 97
3 37 130 154
3 97 154 130
3 10 99 93
3 29 155 99
3 26 93 155
3 99 155 93
3 37 154 153
3 26 155 154
3 29 153 155
3 154 155 153
3 8 141 109
3 39 156 141
3 31 109 156
3 141 156 109
3 6 104 137
3 28 157 104
3 39 137 157
3 104 157 137
3 7 106 100
3 31 158 106
3 28 100 158
3 106 158 100
3 39 157 156
3 28 158 157
3 31 156 158
3 157 158 156
3 9 146 81
3 41 159 146
3 23 81 159
3 146 159 81
3 8 111 143
3 30 160 111
3 41 143 160
3 111 160 143
3 1 78 107
3 23 161 78
3 30 107 161
3 78 161 107
3 41 160 159
3 30 161 160
3 23 159 161
3 160 161 159

POINT_DATA 162
SCALARS Mean_Curvature double 1
LOOKUP_TABLE default
3.08614
49.0848
323.672
498.234
208.905
82.4505
-17.432
178.492
212.079
15.1243
140.402
68.4358
120.943
124.693
149.783
181.22
17.1266
91.5232
28.4367
387.859
214.577
16.0624
107.917
145.972
39.0356
118.501
-20.6436
81.0165
110.249
-0.767307
247.812
85.6352
78.2805
-36.4708
329.545
239.936
-3.79406
247.901
280.075
5.23078
133.105
69.7501
77.7504
90.5724
92.2214
0.99394
79.97
29.7181
211.924
156.232
143.879
133.816
5.28033
220.54
171.064
12.8114
136.121
21.6302
334.979
33.3737
173.089
304.894
21.9522
7.25538
7.07145
322.721
126.557
150.172
311.389
273.827
260.834
457.943
269.551
91.946
225.223
115.316
15.1603
33.4597
143.308
138.83
139.938
74.6049
65.7174
23.8615
9.04593
103.925
22.2332
-12.33
477.097
321.63
273.076
111.835
121.854
10.7997
193.48
410.311
347.68
415.865
112.756
-15.0221
226.693
5.03967
13.8672
-37.2716
-15.5546
276.184
42.3556
234.882
375.783
134.505
436.09
309.865
255.441
134.689
319.246
55.8601
171.034
123.091
82.8683
69.2877
110.406
198.927
142.128
-48.8034
92.507
175.523
182.156
282.376
214.96
444.426
407.206
133.577
-11.7658
-55.8616
0.521855
277.765
317.257
16.0635
31.0466
23.0537
175.72
8.45972
49.6929
224.499
72.1289
206.869
27.0411
222.96
-2.61422
29.1374
170.317
-1.20964
108.032
43.3075
353.08
159.341
19.1994
-4.95198
157.003
222.86
199.127
195.851
SCALARS CoVolArea double 1
LOOKUP_TABLE default
3.50225e-05
2.94915e-05
1.45543e-05
1.22134e-05
1.81636e-05
2.09387e-05
4.81435e-05
3.08536e-05
2.39125e-05
3.75847e-05
2.35979e-05
4.23847e-05
3.22273e-05
3.26398e-05
2.58573e-05
2.82887e-05
4.02197e-05
2.9397e-05
3.1747e-05
1.6233e-05
1.96288e-05
3.33331e-05
3.47541e-05
2.7187e-05
3.34986e-05
1.63205e-05
2.16121e-05
2.3354e-05
4.68524e-05
4.19772e-05
1.72999e-05
2.08152e-05
2.47965e-05
3.92342e-05
2.32184e-05
3.23104e-05
3.50565e-05
2.28953e-05
2.31796e-05
4.70893e-05
2.32892e-05
2.55652e-05
3.40203e-05
3.56613e-05
3.70215e-05
4.41586e-05
3.79736e-05
4.12364e-05
1.89421e-05
2.81571e-05
2.45887e-05
3.66431e-05
3.97996e-05
1.8518e-05
2.52228e-05
3.8225e-05
3.90649e-05
3.81671e-05
3.85475e-05
3.15428e-05
2.57847e-05
3.71164e-05
3.87964e-05
4.49077e-05
4.22237e-05
2.78886e-05
3.013e-05
2.17595e-05
2.6633e-05
1.94481e-05
1.90452e-05
1.84483e-05
2.71281e-05
2.77358e-05
2.68216e-05
3.61182e-05
4.15967e-05
3.72404e-05
3.06401e-05
2.39493e-05
3.00076e-05
3.32879e-05
3.70118e-05
4.37415e-05
2.91257e-05
2.5986e-05
4.55092e-05
4.15253e-05
1.0847e-05
2.18918e-05
1.90702e-05
3.27094e-05
3.89366e-05
2.80866e-05
2.95308e-05
1.30758e-05
2.03765e-05
1.1979e-05
3.4288e-05
2.78678e-05
2.57671e-05
2.9883e-05
5.0472e-05
5.63939e-05
5.77829e-05
2.4292e-05
2.81495e-05
2.30761e-05
2.07734e-05
2.18378e-05
1.56675e-05
1.61592e-05
1.43362e-05
2.39437e-05
1.73286e-05
4.34838e-05
3.56491e-05
3.43124e-05
2.60822e-05
3.05053e-05
2.09553e-05
3.1208e-05
2.3066e-05
3.39022e-05
3.43271e-05
2.68308e-05
3.37318e-05
2.02885e-05
2.85626e-05
1.33838e-05
1.57507e-05
2.99787e-05
4.31636e-05
3.43397e-05
4.40897e-05
1.92378e-05
1.2605e-05
4.9076e-05
3.42129e-05
3.18322e-05
3.32364e-05
3.55433e-05
2.39582e-05
2.37222e-05
3.06934e-05
2.94882e-05
3.13016e-05
2.7491e-05
4.59257e-05
2.98645e-05
2.66891e-05
3.50073e-05
3.65056e-05
3.33504e-05
2.07764e-05
3.09955e-05
4.37332e-05
5.98176e-05
3.87051e-05
2.66082e-05
2.21695e-05
2.30419e-05
SCALARS SignedDistance double 1
LOOKUP_TABLE default
0.00409625
0.00360424
0.00100769
0.000872744
0.00298762
0.0017774
0.00582797
0.00248232
0.00179941
0.00393725
0.0021853
0.00261616
0.00186686
0.00199143
0.00134058
0.00119528
0.00270879
0.0043053
0.00518332
0.00146133
0.00124185
0.00537803
0.00194396
0.00202116
0.00453443
0.00234868
0.00359136
0.00233834
0.00271156
0.00657531
0.000983133
0.00380478
0.00199342
0.00488566
0.00115554
0.00135494
0.00605288
0.00196881
0.00196945
0.005527
0.00238577
0.00310634
0.00216574
0.00187859
0.00200397
0.00360389
0.00222832
0.0029141
0.00111912
0.00135448
0.0017726
0.00160843
0.00303375
0.00111662
0.00117767
0.00349228
0.00154881
0.00296439
0.00126811
0.00454121
0.00309189
0.00125944
0.00641431
0.00301026
0.00451026
0.000922606
0.00135807
0.00479838
0.00159596
0.00123226
0.00101165
0.000919647
0.00104043
0.00318308
0.00136482
0.00209211
0.00514194
0.00269678
0.00184358
0.00181519
0.00147775
0.00204484
0.00229113
0.00330593
0.00354921
0.00264864
0.00321176
0.00383556
0.00097745
0.00114497
0.00246613
0.00215786
0.00188964
0.00453126
0.00222316
0.00109868
0.00181025
0.0011352
0.00334689
0.00526139
0.00232202
0.00646025
0.00459299
0.00690953
0.00564944
0.00274634
0.00572256
0.00103187
0.000849183
0.00234796
0.0010049
0.00103659
0.00138152
0.00147774
0.000858217
0.00263322
0.00159896
0.00191846
0.00376213
0.00274612
0.00361555
0.00146165
0.00134708
0.00703574
0.00458108
0.00142731
0.00178449
0.00101835
0.00205568
0.000739628
0.000868213
0.00321686
0.00518946
0.00720833
0.00412819
0.00184383
0.00136555
0.00437953
0.00352485
0.00502955
0.00232214
0.0053432
0.00242467
0.00185765
0.00315163
0.00185159
0.00465957
0.00150071
0.00339337
0.00324554
0.0015223
0.00445649
0.00251084
0.00309787
0.00171901
0.00254736
0.00507145
0.00524966
0.0027251
0.00145728
0.00137078
0.00137942
