# vtk DataFile Version 4.2
vtk output
ASCII
DATASET POLYDATA
POINTS 162 double
-22.2759 56.6704 -2.39391
8.09552 54.6869 -2.16568
-23.313 -0.0334162 -0.13193
14.1254 0.471455 -0.00761134
-5.07289 11.4125 26.5932
-7.63846 43.2233 21.5727
-4.8673 12.783 -24.2629
-7.83753 47.3769 -27.1618
19.4151 27.7784 -13.7033
20.6363 27.6974 14.204
-31.3516 32.2834 -16.1787
-33.7039 30.4615 17.1853
-32.1949 46.2842 9.86812
-21.7683 39.508 24.5122
-15.5694 53.2523 13.8314
2.24609 50.8342 9.89904
-5.02675 61.0686 -1.54094
3.33929 55.1556 -15.0522
-16.9536 58.144 -18.5767
-21.9437 42.2097 -27.6672
-32.6766 48.154 -12.2307
-37.5442 30.2552 0.394304
9.29844 36.5066 21.1158
17.1588 41.6308 7.90899
-20.6343 19.4383 23.2009
-5.08355 28.6623 27.4529
-30.4852 12.7878 -9.15854
-31.0586 12.6545 9.80846
-6.88793 31.8037 -26.7224
-18.8189 21.0379 -22.0525
15.3252 43.0315 -7.9895
7.19958 38.8444 -20.0797
23.2898 12.1215 9.73599
10.7318 18.9859 23.4468
5.97212 1.9845 16.2787
-15.8572 1.32205 17.0974
-4.68755 -2.46194 -0.224429
-15.0891 2.5819 -16.2385
5.49486 2.91311 -15.8603
9.69382 19.3986 -22.1335
22.2933 12.6726 -9.21767
25.1232 27.0857 0.192848
-27.9693 52.1565 4.20746
-24.5425 51.1146 12.7638
-18.7063 55.2284 6.66806
-28.6089 35.3392 21.9382
-28.1466 43.3786 18.4848
-34.1109 38.6893 14.1359
-12.2419 49.0652 18.7993
-19.3082 47.417 20.4024
-15.0406 42.1931 24.257
-10.2624 58.2195 5.75421
-13.7149 59.5978 -1.9385
-2.26722 47.015 16.6018
-7.0276 53.3173 12.222
1.94483 59.0095 -1.82539
-1.14381 57.9898 4.60274
5.4577 54.2419 4.32745
-11.3219 59.9405 -9.66179
-20.5554 59.3398 -10.9599
6.51971 56.1667 -8.57543
-0.295788 59.8892 -8.78656
-12.2357 53.6025 -24.2931
-6.50781 56.8954 -17.5601
-2.09747 51.6111 -21.2657
-25.9244 55.0011 -16.2396
-28.3976 53.8001 -7.39841
-14.8555 45.8284 -29.5664
-20.2966 51.4702 -25.02
-33.5181 40.5828 -15.5414
-29.2496 46.0954 -21.4197
-27.6818 37.9121 -23.1376
-32.8485 47.7851 -0.910025
-35.1037 30.7736 -8.58021
-35.2885 39.3274 -6.13091
-36.8778 38.8937 5.63099
-37.0488 30.4179 9.01014
10.2931 47.0865 9.7499
12.2199 47.9558 2.62525
2.15955 39.6055 21.7796
6.67007 43.7938 17.014
19.6915 35.3943 11.453
14.3336 39.5984 15.1307
15.3221 32.8212 18.7167
-14.5622 34.8673 27.131
-6.60974 35.9527 25.0036
-28.2826 25.1879 21.4778
-22.7192 30.5756 25.5331
-4.60487 19.7059 27.7292
-12.8612 24.3037 26.5366
-12.8413 13.9931 26.1947
-36.2068 21.4184 5.28516
-32.9588 21.6603 13.6836
-31.8115 21.6933 -12.5368
-35.3499 21.3019 -4.96454
-28.1745 5.02637 5.2557
-32.3629 11.6563 -0.164562
-28.3345 5.01456 -5.41577
-21.581 33.1322 -26.6395
-25.2696 27.2083 -19.7151
-8.18057 40.9295 -28.9359
-14.6229 38.2465 -29.9903
-12.0097 15.5155 -23.928
-12.9309 26.6753 -26.0887
-4.75254 21.0603 -26.1284
5.5992 48.2125 -19.3204
-0.207948 44.111 -24.1874
12.4674 50.2658 -5.60505
9.92448 50.8931 -12.0682
13.891 33.1876 -17.8496
11.9634 41.2786 -15.0751
18.6286 35.3712 -11.2261
19.9152 5.15678 5.17773
15.848 5.87663 13.4005
10.801 0.169109 8.47412
16.6892 23.1615 19.3909
18.3383 14.9157 17.6115
23.5865 19.5496 12.6888
0.273701 6.1538 22.3155
9.18798 9.83494 21.171
3.1902 14.9373 25.8578
1.34681 -2.29906 8.88957
5.3564 -2.37855 -0.096442
-10.4683 5.59606 23.0205
-4.93887 0.420157 17.8536
-14.8563 -2.53191 -0.150081
-10.9157 -2.23931 9.04491
-20.3355 -0.601543 9.03336
1.14636 -1.85362 -8.96251
10.1806 0.971977 -8.35323
-19.804 0.283588 -8.73185
-10.7266 -2.11282 -9.09878
0.207662 7.25174 -20.8219
-4.86833 1.76598 -16.9849
-10.0462 6.74683 -21.4296
14.6513 6.92611 -12.7287
19.4715 5.59431 -5.04132
2.88185 15.9255 -24.0215
8.36121 10.6197 -20.2409
22.0824 19.8622 -11.8749
16.7004 15.7767 -16.4635
15.4047 23.4574 -18.4086
24.5724 11.164 0.0101462
23.3282 27.2853 -6.95173
26.0946 19.6129 -4.7676
26.8005 19.5633 5.04923
24.2171 27.1939 7.3457
3.11516 23.4486 27.095
10.7425 28.3631 23.5037
2.78433 32.6522 25.5013
-25.0526 4.99231 14.3767
-19.0177 8.668 22.3894
-27.1523 15.2598 18.1411
-17.6884 9.73625 -20.7789
-23.9427 6.08597 -13.1688
-25.6757 15.8757 -16.5074
9.63941 28.6093 -21.9516
2.24483 23.8169 -25.4532
0.0333117 35.6504 -24.4292
22.1145 35.0143 4.48508
21.7895 35.0353 -4.2868
17.3357 42.9918 -0.397572


POLYGONS 320 1280 
3 0 42 44
3 12 43 42
3 14 44 43
3 42 43 44
3 11 45 47
3 13 46 45
3 12 47 46
3 45 46 47
3 5 48 50
3 14 49 48
3 13 50 49
3 48 49 50
3 12 46 43
3 13 49 46
3 14 43 49
3 46 49 43
3 0 44 52
3 14 51 44
3 16 52 51
3 44 51 52
3 5 53 48
3 15 54 53
3 14 48 54
3 53 54 48
3 1 55 57
3 16 56 55
3 15 57 56
3 55 56 57
3 14 54 51
3 15 56 54
3 16 51 56
3 54 56 51
3 0 52 59
3 16 58 52
3 18 59 58
3 52 58 59
3 1 60 55
3 17 61 60
3 16 55 61
3 60 61 55
3 7 62 64
3 18 63 62
3 17 64 63
3 62 63 64
3 16 61 58
3 17 63 61
3 18 58 63
3 61 63 58
3 0 59 66
3 18 65 59
3 20 66 65
3 59 65 66
3 7 67 62
3 19 68 67
3 18 62 68
3 67 68 62
3 10 69 71
3 20 70 69
3 19 71 70
3 69 70 71
3 18 68 65
3 19 70 68
3 20 65 70
3 68 70 65
3 0 66 42
3 20 72 66
3 12 42 72
3 66 72 42
3 10 73 69
3 21 74 73
3 20 69 74
3 73 74 69
3 11 47 76
3 12 75 47
3 21 76 75
3 47 75 76
3 20 74 72
3 21 75 74
3 12 72 75
3 74 75 72
3 1 57 78
3 15 77 57
3 23 78 77
3 57 77 78
3 5 79 53
3 22 80 79
3 15 53 80
3 79 80 53
3 9 81 83
3 23 82 81
3 22 83 82
3 81 82 83
3 15 80 77
3 22 82 80
3 23 77 82
3 80 82 77
3 5 50 85
3 13 84 50
3 25 85 84
3 50 84 85
3 11 86 45
3 24 87 86
3 13 45 87
3 86 87 45
3 4 88 90
3 25 89 88
3 24 90 89
3 88 89 90
3 13 87 84
3 24 89 87
3 25 84 89
3 87 89 84
3 11 76 92
3 21 91 76
3 27 92 91
3 76 91 92
3 10 93 73
3 26 94 93
3 21 73 94
3 93 94 73
3 2 95 97
3 27 96 95
3 26 97 96
3 95 96 97
3 21 94 91
3 26 96 94
3 27 91 96
3 94 96 91
3 10 71 99
3 19 98 71
3 29 99 98
3 71 98 99
3 7 100 67
3 28 101 100
3 19 67 101
3 100 101 67
3 6 102 104
3 29 103 102
3 28 104 103
3 102 103 104
3 19 101 98
3 28 103 101
3 29 98 103
3 101 103 98
3 7 64 106
3 17 105 64
3 31 106 105
3 64 105 106
3 1 107 60
3 30 108 107
3 17 60 108
3 107 108 60
3 8 109 111
3 31 110 109
3 30 111 110
3 109 110 111
3 17 108 105
3 30 110 108
3 31 105 110
3 108 110 105
3 3 112 114
3 32 113 112
3 34 114 113
3 112 113 114
3 9 115 117
3 33 116 115
3 32 117 116
3 115 116 117
3 4 118 120
3 34 119 118
3 33 120 119
3 118 119 120
3 32 116 113
3 33 119 116
3 34 113 119
3 116 119 113
3 3 114 122
3 34 121 114
3 36 122 121
3 114 121 122
3 4 123 118
3 35 124 123
3 34 118 124
3 123 124 118
3 2 125 127
3 36 126 125
3 35 127 126
3 125 126 127
3 34 124 121
3 35 126 124
3 36 121 126
3 124 126 121
3 3 122 129
3 36 128 122
3 38 129 128
3 122 128 129
3 2 130 125
3 37 131 130
3 36 125 131
3 130 131 125
3 6 132 134
3 38 133 132
3 37 134 133
3 132 133 134
3 36 131 128
3 37 133 131
3 38 128 133
3 131 133 128
3 3 129 136
3 38 135 129
3 40 136 135
3 129 135 136
3 6 137 132
3 39 138 137
3 38 132 138
3 137 138 132
3 8 139 141
3 40 140 139
3 39 141 140
3 139 140 141
3 38 138 135
3 39 140 138
3 40 135 140
3 138 140 135
3 3 136 112
3 40 142 136
3 32 112 142
3 136 142 112
3 8 143 139
3 41 144 143
3 40 139 144
3 143 144 139
3 9 117 146
3 32 145 117
3 41 146 145
3 117 145 146
3 40 144 142
3 41 145 144
3 32 142 145
3 144 145 142
3 4 120 88
3 33 147 120
3 25 88 147
3 120 147 88
3 9 83 115
3 22 148 83
3 33 115 148
3 83 148 115
3 5 85 79
3 25 149 85
3 22 79 149
3 85 149 79
3 33 148 147
3 22 149 148
3 25 147 149
3 148 149 147
3 2 127 95
3 35 150 127
3 27 95 150
3 127 150 95
3 4 90 123
3 24 151 90
3 35 123 151
3 90 151 123
3 11 92 86
3 27 152 92
3 24 86 152
3 92 152 86
3 35 151 150
3 24 152 151
3 27 150 152
3 151 152 150
3 6 134 102
3 37 153 134
3 29 102 153
3 134 153 102
3 2 97 130
3 26 154 97
3 37 130 154
3 97 154 130
3 10 99 93
3 29 155 99
3 26 93 155
3 99 155 93
3 37 154 153
3 26 155 154
3 29 153 155
3 154 155 153
3 8 141 109
3 39 156 141
3 31 109 156
3 141 156 109
3 6 104 137
3 28 157 104
3 39 137 157
3 104 157 137
3 7 106 100
3 31 158 106
3 28 100 158
3 106 158 100
3 39 157 156
3 28 158 157
3 31 156 158
3 157 158 156
3 9 146 81
3 41 159 146
3 23 81 159
3 146 159 81
3 8 111 143
3 30 160 111
3 41 143 160
3 111 160 143
3 1 78 107
3 23 161 78
3 30 107 161
3 78 161 107
3 41 160 159
3 30 161 160
3 23 159 161
3 160 161 159

POINT_DATA 162
SCALARS Mean_Curvature double 1
LOOKUP_TABLE default
0.0364134
0.0832511
0.0980852
0.0928802
0.104361
0.0265952
0.0752573
0.0887043
0.0610445
0.0549549
0.0428959
0.105629
0.0799893
0.086554
0.075782
-0.00646867
0.104889
0.0860103
0.103898
0.0846526
0.0906904
0.0606386
0.0635081
0.0694184
0.00551064
0.0591867
0.0544237
0.0431714
0.013013
0.0105782
0.0205152
0.010916
0.0880107
0.0536494
0.0720134
0.0812374
0.00828317
0.0794359
0.0836013
0.0606993
0.0874719
0.0582694
0.062871
0.0761669
0.017106
0.0817324
0.0760384
0.0757941
0.068359
0.0885772
0.0780891
0.0751407
0.0480776
0.011663
0.0387354
0.0894341
0.0898096
0.0753593
0.0402734
0.105023
0.0989085
0.0977392
0.0894415
0.0549564
0.04507
0.094177
0.0647819
0.130002
0.0936277
0.0905634
0.101983
0.0679858
0.0552308
0.0410091
0.0302849
0.0788264
0.0701625
0.0614831
0.00816033
0.038657
0.0646507
0.070913
0.0697661
0.0688015
0.0918189
0.0044805
0.0721745
0.0743843
0.0501117
0.0151452
0.0678289
0.0685285
0.0401404
0.0583027
0.0621711
0.0664778
0.0515093
0.100228
0.0846536
-0.00918484
0.0869596
0.102847
0.0406381
0.0292745
0.0513778
0.0861204
0.0524343
0.0936926
0.0825545
0.0592271
0.02672
0.064098
0.0833751
0.0720033
0.0667846
0.0451595
0.078171
0.0938642
0.0540543
0.0561741
0.0601896
0.0605497
0.0589002
0.0750761
0.0789214
0.0518806
0.0466725
0.0836955
0.0700901
0.0579129
0.0732366
0.07189
0.0537406
0.0702051
0.0853563
0.0574998
0.0835262
0.0537133
0.0714239
0.0783944
0.0599567
0.0518216
0.0851336
0.0446679
0.10688
0.111533
0.0546557
0.0686796
0.0698189
0.0677968
0.0937414
0.0902698
0.051618
0.0890179
0.0744304
0.0385811
0.0513323
0.0591503
0.00429246
0.064529
0.0696176
0.0583193
SCALARS CoVolArea double 1
LOOKUP_TABLE default
67.64
44.6004
65.3666
65.7689
58.1306
57.1886
53.9593
51.3683
52.2231
54.2455
68.1093
61.9763
80.4592
66.1359
68.3805
72.8973
65.4225
64.6756
79.5831
71.4624
84.2901
86.887
59.8068
62.6701
89.4064
74.1828
80.3185
88.92
79.8257
89.972
68.2051
72.5279
76.0178
75.7467
86.548
84.2817
97.3789
75.5086
77.8952
67.7133
72.0989
64.6608
79.8491
79.6618
77.4646
69.9762
78.1547
73.5805
62.617
69.0733
59.3553
72.6742
75.7955
74.6709
75.6733
51.25
64.5971
58.3121
83.0294
75.4214
50.913
71.5417
70.9054
82.5251
68.4446
85.2888
78.5574
59.7776
83.1998
76.5971
84.732
75.0141
91.8437
82.2198
93.9664
90.0547
77.6902
68.9544
63.0014
68.6649
70.8127
59.0717
62.1275
60.6231
74.1568
68.724
78.4526
81.7801
72.5277
89.4165
77.4257
91.9389
82.3246
84.5169
89.2638
81.1001
90.1912
76.4767
84.3026
89.035
63.0928
71.1907
72.7611
87.613
72.5116
69.9672
69.1289
56.888
63.5418
63.9862
70.7782
65.4101
78.2112
87.9432
81.6189
68.5102
81.5525
66.2708
77.8082
87.3395
72.3404
97.6048
84.9483
74.5121
92.1531
86.2227
98.6039
82.0969
91.5559
78.4814
76.8426
92.0225
68.5605
82.0998
66.1728
82.1436
76.6166
64.0126
77.1524
62.2478
74.4947
63.1855
79.1684
61.6598
70.3434
71.927
62.1602
74.0615
69.6423
70.2762
89.3515
87.0661
91.3145
81.6381
81.3967
92.2904
77.9596
79.7243
86.7986
67.8999
70.7391
70.2586
SCALARS SignedDistance double 1
LOOKUP_TABLE default
13.2762
15.9987
9.43371
9.72769
13.2449
17.4518
13.4126
15.119
14.5596
13.4847
14.5652
10.317
10.6188
12.9491
14.7631
17.2526
12.9268
13.1192
11.2811
11.3365
10.5497
11.4464
15.0508
15.2874
13.0558
14.8038
12.2976
11.2194
18.289
14.8715
16.52
17.8854
10.3448
12.5782
10.1208
9.93052
11.2552
10.8791
11.3062
14.515
11.8384
14.0561
12.3771
12.3022
14.0944
11.0263
11.1223
10.2415
15.7124
13.7478
15.3709
14.2937
12.7585
17.09
16.6129
14.269
15.1103
16.9797
12.6262
12.5607
14.0086
12.4447
12.6542
12.8343
13.6775
9.07801
11.1716
12.5968
9.41184
12.6052
9.99516
11.958
11.7644
12.7622
12.3095
10.7001
10.8913
16.2265
16.8811
15.7827
15.795
14.3891
14.9747
14.3019
15.7958
16.5759
12.0976
12.3245
13.3428
14.5212
14.5284
10.7604
11.2173
12.5393
11.6633
10.1325
11.3667
10.0999
14.2464
15.1585
16.7382
14.9701
14.1564
16.8717
14.9721
14.8421
16.5708
17.0295
14.9265
15.9561
17.3049
15.448
9.41911
10.2094
9.93961
13.0762
12.3545
12.5765
11.022
11.5718
12.44
10.8337
10.8521
10.5844
10.0023
11.1402
10.7276
9.45663
10.7219
10.7623
10.5145
10.6621
12.7669
11.4538
12.9079
11.8376
10.2081
14.014
12.9544
14.2249
13.7962
14.4555
10.1694
13.9926
13.0535
12.2748
13.7225
13.4363
14.0315
15.2009
9.44244
11.2815
12.2881
13.8239
11.7475
13.3826
15.7907
15.0536
18.5088
14.4927
14.8083
15.9988
