# vtk DataFile Version 4.2
vtk output
ASCII
DATASET POLYDATA
POINTS 162 double
-0.00590531 0.0160692 0.00957543
0.0128916 0.0164272 0.00958109
-0.00451091 -0.0201021 0.00868752
0.0110956 -0.0198972 0.00891955
0.00342985 -0.0114522 0.0216155
0.00354905 0.0101041 0.0247537
0.00325617 -0.0114538 -0.00535733
0.00346406 0.00826025 -0.00505511
0.0152724 -0.00107726 0.000885269
0.0165779 -4.04341e-05 0.0175802
-0.00837374 -0.00125023 0.000909351
-0.00964983 -0.000191502 0.0174187
-0.0101535 0.00927539 0.014817
-0.00484532 0.00577346 0.0232113
-0.002323 0.0160167 0.0189921
0.00927558 0.0161817 0.0191859
0.00347576 0.0199364 0.00945591
0.00871831 0.0151602 0.000309817
-0.00184796 0.0150811 0.000412783
-0.00347826 0.00427498 -0.00417856
-0.00920783 0.00892122 0.00457359
-0.0111693 -0.000500356 0.00988696
0.0118114 0.00597869 0.023529
0.0171553 0.00952212 0.0150154
-0.00372185 -0.00646371 0.021213
0.00344175 0.000184606 0.0256592
-0.00729287 -0.011998 0.00442531
-0.00807125 -0.0114068 0.0133874
0.00338292 -0.00163992 -0.00845932
-0.00315508 -0.00764305 -0.00446233
0.0161673 0.00913242 0.0044797
0.0103056 0.00444336 -0.00429442
0.0149485 -0.011302 0.0136331
0.0106282 -0.00651416 0.0214446
0.00779971 -0.0189218 0.0160907
-0.00119831 -0.0191304 0.0160195
0.00309804 -0.0229421 0.00923657
-0.00158862 -0.0186179 0.00127088
0.00776625 -0.0182379 0.0013437
0.00980342 -0.00745222 -0.00453161
0.0141261 -0.0115417 0.00452456
0.0183573 -0.000463357 0.00993843
-0.00882467 0.0130219 0.0126291
-0.00711504 0.0133114 0.0170069
-0.00452287 0.0167905 0.0146608
-0.00768061 0.00309936 0.0208001
-0.00827833 0.00774688 0.0194847
-0.0103545 0.00484553 0.0164288
0.000477169 0.0137523 0.0224385
-0.00385981 0.0112875 0.0219118
-0.00107897 0.00810601 0.0245697
0.000209768 0.0189921 0.0145179
-0.00133775 0.0188392 0.0094616
0.00656177 0.0138143 0.0225752
0.00348301 0.0169345 0.0198758
0.00829882 0.0190941 0.0094993
0.00672422 0.019146 0.0145507
0.0114379 0.0170422 0.0147294
0.000318442 0.0183962 0.00454508
-0.0040814 0.0163211 0.00443579
0.0110036 0.0165124 0.00445778
0.00654322 0.0184724 0.0045736
0.00074987 0.0125089 -0.0027072
0.003424 0.0157691 -0.000348253
0.00616207 0.0125552 -0.0028027
-0.00621557 0.0127494 0.00222336
-0.00826663 0.0127413 0.00673869
-0.000281461 0.00630321 -0.00521104
-0.00295319 0.0102732 -0.00237545
-0.00916282 0.00430061 0.00267475
-0.0069352 0.00701389 -0.000191451
-0.00622996 0.0017598 -0.00205101
-0.010456 0.00977925 0.00981524
-0.0102443 -0.000786553 0.00545522
-0.0108152 0.00436854 0.00710478
-0.0113921 0.00446792 0.0125467
-0.0112098 -0.000360497 0.0136337
0.0140746 0.0135605 0.0172631
0.0158052 0.0133254 0.0126898
0.00813664 0.00830369 0.0248192
0.0108606 0.0115052 0.0222845
0.0173722 0.00497075 0.0166926
0.0151963 0.00793161 0.0197773
0.0146047 0.00323772 0.0211207
-0.00065026 0.00329703 0.0254294
0.00348231 0.00503066 0.0260237
-0.00699523 -0.00334548 0.0198384
-0.00486852 8.25787e-05 0.0228505
0.00346156 -0.00539953 0.0240075
-0.00034229 -0.00333635 0.0241676
-0.000411481 -0.00934983 0.0220056
-0.0100341 -0.0058204 0.0120174
-0.00913578 -0.00578374 0.0154801
-0.00825261 -0.00663368 0.00231101
-0.00962548 -0.00620761 0.00676824
-0.0063454 -0.0163056 0.0110396
-0.00825376 -0.0126334 0.00904769
-0.00632968 -0.0166327 0.00637335
-0.00354048 -0.00177728 -0.00486009
-0.00589015 -0.00482598 -0.00230806
0.00342704 0.0025628 -0.00759143
0.000430324 0.00116929 -0.0072754
-0.000274306 -0.00978502 -0.00555636
0.000352048 -0.00479349 -0.00705707
0.00333481 -0.00619708 -0.00722625
0.0098714 0.0104148 -0.00258363
0.00716613 0.00640203 -0.00527467
0.0152682 0.0130501 0.0067074
0.0131543 0.0129244 0.00209811
0.0130591 0.0019631 -0.00217716
0.0138603 0.00721843 -0.000388328
0.0161116 0.00447499 0.00257918
0.0130804 -0.0160941 0.0112782
0.0116567 -0.0159108 0.0149358
0.00958562 -0.0203057 0.0129395
0.0137937 -0.00336028 0.0201223
0.0134959 -0.00927236 0.0178774
0.0159827 -0.00574338 0.0156113
0.00582963 -0.0157987 0.0188157
0.00933907 -0.0131953 0.0192766
0.00733905 -0.0093404 0.0221348
0.00604314 -0.0225493 0.0131075
0.00754262 -0.0224173 0.00916627
0.00092266 -0.0158755 0.0186936
0.00326563 -0.0198769 0.0166292
-0.00118509 -0.02265 0.00900984
0.000374698 -0.0226226 0.0130458
-0.00300635 -0.0205187 0.0128416
0.00606353 -0.0219535 0.00505201
0.0097994 -0.0200347 0.00501245
-0.00343794 -0.0203225 0.00472413
8.15339e-05 -0.0221129 0.00494981
0.00557697 -0.0151808 -0.00234091
0.00304862 -0.0189913 0.000653474
0.000785145 -0.0153298 -0.00224394
0.0112393 -0.0158146 0.00288926
0.0129166 -0.0162842 0.00670276
0.00685177 -0.00967189 -0.00560202
0.008857 -0.0129913 -0.00239208
0.0151721 -0.00636436 0.00229074
0.0126663 -0.00959536 -0.000481463
0.0126517 -0.0046133 -0.0023591
0.0151164 -0.0123441 0.00926978
0.0172344 -0.000641259 0.00553898
0.0165568 -0.0059005 0.00688182
0.0171062 -0.00563495 0.0120834
0.0183517 -0.000326565 0.0136805
0.00728072 -0.00337001 0.0242708
0.011813 0.000124124 0.0231212
0.00759477 0.00340723 0.0254973
-0.00484047 -0.0161088 0.0146613
-0.00244792 -0.013305 0.0190079
-0.00657959 -0.00920041 0.0174822
-0.00234755 -0.0132771 -0.00222097
-0.00487376 -0.0163682 0.00271626
-0.00593228 -0.00994123 -0.000401431
0.0103092 -0.00160101 -0.00500617
0.00635398 -0.00468914 -0.00713295
0.00638813 0.00125804 -0.00733612
0.0183292 0.00448439 0.0126251
0.0178796 0.00444934 0.00704825
0.0174477 0.0100469 0.00979646


POLYGONS 320 1280 
3 0 42 44
3 12 43 42
3 14 44 43
3 42 43 44
3 11 45 47
3 13 46 45
3 12 47 46
3 45 46 47
3 5 48 50
3 14 49 48
3 13 50 49
3 48 49 50
3 12 46 43
3 13 49 46
3 14 43 49
3 46 49 43
3 0 44 52
3 14 51 44
3 16 52 51
3 44 51 52
3 5 53 48
3 15 54 53
3 14 48 54
3 53 54 48
3 1 55 57
3 16 56 55
3 15 57 56
3 55 56 57
3 14 54 51
3 15 56 54
3 16 51 56
3 54 56 51
3 0 52 59
3 16 58 52
3 18 59 58
3 52 58 59
3 1 60 55
3 17 61 60
3 16 55 61
3 60 61 55
3 7 62 64
3 18 63 62
3 17 64 63
3 62 63 64
3 16 61 58
3 17 63 61
3 18 58 63
3 61 63 58
3 0 59 66
3 18 65 59
3 20 66 65
3 59 65 66
3 7 67 62
3 19 68 67
3 18 62 68
3 67 68 62
3 10 69 71
3 20 70 69
3 19 71 70
3 69 70 71
3 18 68 65
3 19 70 68
3 20 65 70
3 68 70 65
3 0 66 42
3 20 72 66
3 12 42 72
3 66 72 42
3 10 73 69
3 21 74 73
3 20 69 74
3 73 74 69
3 11 47 76
3 12 75 47
3 21 76 75
3 47 75 76
3 20 74 72
3 21 75 74
3 12 72 75
3 74 75 72
3 1 57 78
3 15 77 57
3 23 78 77
3 57 77 78
3 5 79 53
3 22 80 79
3 15 53 80
3 79 80 53
3 9 81 83
3 23 82 81
3 22 83 82
3 81 82 83
3 15 80 77
3 22 82 80
3 23 77 82
3 80 82 77
3 5 50 85
3 13 84 50
3 25 85 84
3 50 84 85
3 11 86 45
3 24 87 86
3 13 45 87
3 86 87 45
3 4 88 90
3 25 89 88
3 24 90 89
3 88 89 90
3 13 87 84
3 24 89 87
3 25 84 89
3 87 89 84
3 11 76 92
3 21 91 76
3 27 92 91
3 76 91 92
3 10 93 73
3 26 94 93
3 21 73 94
3 93 94 73
3 2 95 97
3 27 96 95
3 26 97 96
3 95 96 97
3 21 94 91
3 26 96 94
3 27 91 96
3 94 96 91
3 10 71 99
3 19 98 71
3 29 99 98
3 71 98 99
3 7 100 67
3 28 101 100
3 19 67 101
3 100 101 67
3 6 102 104
3 29 103 102
3 28 104 103
3 102 103 104
3 19 101 98
3 28 103 101
3 29 98 103
3 101 103 98
3 7 64 106
3 17 105 64
3 31 106 105
3 64 105 106
3 1 107 60
3 30 108 107
3 17 60 108
3 107 108 60
3 8 109 111
3 31 110 109
3 30 111 110
3 109 110 111
3 17 108 105
3 30 110 108
3 31 105 110
3 108 110 105
3 3 112 114
3 32 113 112
3 34 114 113
3 112 113 114
3 9 115 117
3 33 116 115
3 32 117 116
3 115 116 117
3 4 118 120
3 34 119 118
3 33 120 119
3 118 119 120
3 32 116 113
3 33 119 116
3 34 113 119
3 116 119 113
3 3 114 122
3 34 121 114
3 36 122 121
3 114 121 122
3 4 123 118
3 35 124 123
3 34 118 124
3 123 124 118
3 2 125 127
3 36 126 125
3 35 127 126
3 125 126 127
3 34 124 121
3 35 126 124
3 36 121 126
3 124 126 121
3 3 122 129
3 36 128 122
3 38 129 128
3 122 128 129
3 2 130 125
3 37 131 130
3 36 125 131
3 130 131 125
3 6 132 134
3 38 133 132
3 37 134 133
3 132 133 134
3 36 131 128
3 37 133 131
3 38 128 133
3 131 133 128
3 3 129 136
3 38 135 129
3 40 136 135
3 129 135 136
3 6 137 132
3 39 138 137
3 38 132 138
3 137 138 132
3 8 139 141
3 40 140 139
3 39 141 140
3 139 140 141
3 38 138 135
3 39 140 138
3 40 135 140
3 138 140 135
3 3 136 112
3 40 142 136
3 32 112 142
3 136 142 112
3 8 143 139
3 41 144 143
3 40 139 144
3 143 144 139
3 9 117 146
3 32 145 117
3 41 146 145
3 117 145 146
3 40 144 142
3 41 145 144
3 32 142 145
3 144 145 142
3 4 120 88
3 33 147 120
3 25 88 147
3 120 147 88
3 9 83 115
3 22 148 83
3 33 115 148
3 83 148 115
3 5 85 79
3 25 149 85
3 22 79 149
3 85 149 79
3 33 148 147
3 22 149 148
3 25 147 149
3 148 149 147
3 2 127 95
3 35 150 127
3 27 95 150
3 127 150 95
3 4 90 123
3 24 151 90
3 35 123 151
3 90 151 123
3 11 92 86
3 27 152 92
3 24 86 152
3 92 152 86
3 35 151 150
3 24 152 151
3 27 150 152
3 151 152 150
3 6 134 102
3 37 153 134
3 29 102 153
3 134 153 102
3 2 97 130
3 26 154 97
3 37 130 154
3 97 154 130
3 10 99 93
3 29 155 99
3 26 93 155
3 99 155 93
3 37 154 153
3 26 155 154
3 29 153 155
3 154 155 153
3 8 141 109
3 39 156 141
3 31 109 156
3 141 156 109
3 6 104 137
3 28 157 104
3 39 137 157
3 104 157 137
3 7 106 100
3 31 158 106
3 28 100 158
3 106 158 100
3 39 157 156
3 28 158 157
3 31 156 158
3 157 158 156
3 9 146 81
3 41 159 146
3 23 81 159
3 146 159 81
3 8 111 143
3 30 160 111
3 41 143 160
3 111 160 143
3 1 78 107
3 23 161 78
3 30 107 161
3 78 161 107
3 41 160 159
3 30 161 160
3 23 159 161
3 160 161 159

POINT_DATA 162
SCALARS Mean_Curvature double 1
LOOKUP_TABLE default
119.22
132.245
198.966
215.877
103.709
125.395
156.632
96.3139
87.1058
89.9897
89.1981
107.768
132.195
121.536
141.06
143.733
137.458
140.41
142.498
90.6497
99.5425
78.5853
129.139
132.595
53.256
107.512
41.3907
115.306
263.864
109.831
94.7845
90.3203
112.283
58.8221
142.057
160.897
94.8468
154.413
124.469
106.138
49.2819
101.34
139.665
135.2
130.081
108.382
127.268
103.819
129.901
116.273
111.381
129.594
111.044
131.467
134.844
124.14
133.744
124.59
133.151
134.376
129.719
127.622
123.735
128.655
128.044
132.87
111.584
87.9044
111.936
75.0825
100.04
75.697
132.017
67.1294
84.4457
112.538
143.251
135.913
136.201
129.917
133.271
114.577
119.017
109.246
126.199
128.145
83.1677
99.8138
71.471
97.9675
113.585
79.7114
91.5263
75.0185
59.5032
99.6529
105.39
131.396
83.2433
87.153
156.343
134.429
162.275
121.648
111.715
124.494
90.2362
116.961
132.086
73.4156
106.599
72.4704
101.446
99.9775
175.01
77.6976
105.991
66.2061
74.2417
117.942
115.396
246.397
188.044
68.819
154.544
215.751
247.751
182.872
171.948
196.48
219.424
182.928
108.21
111.12
105.003
71.8272
119.214
159.082
114.608
85.2287
98.9292
80.8405
106.887
60.3372
50.735
92.4239
157.052
99.6239
109.476
114.557
89.4359
109.52
83.2699
108.508
110.722
99.4196
89.9413
124.24
139.872
87.888
91.7977
128.278
SCALARS CoVolArea double 1
LOOKUP_TABLE default
2.19741e-05
2.22084e-05
1.53896e-05
1.55733e-05
2.14002e-05
2.10518e-05
1.78772e-05
2.01015e-05
2.23931e-05
2.05989e-05
2.19686e-05
1.95518e-05
2.21521e-05
2.3688e-05
2.66056e-05
2.68104e-05
2.75948e-05
2.41293e-05
2.37514e-05
2.47095e-05
2.36052e-05
2.40763e-05
2.3653e-05
2.34521e-05
2.67384e-05
2.35486e-05
2.53062e-05
2.36616e-05
1.57461e-05
2.23669e-05
2.43534e-05
2.44403e-05
2.40346e-05
2.60296e-05
2.07323e-05
2.0344e-05
2.00197e-05
2.10595e-05
2.25459e-05
2.2471e-05
2.62391e-05
2.38188e-05
2.2601e-05
2.64356e-05
2.52712e-05
2.24858e-05
2.55404e-05
2.09623e-05
2.50249e-05
2.73053e-05
2.33495e-05
3.01889e-05
2.61689e-05
2.46606e-05
2.95918e-05
2.61469e-05
3.02441e-05
2.5741e-05
2.80348e-05
2.40626e-05
2.45102e-05
2.8273e-05
2.30722e-05
2.65326e-05
2.29114e-05
2.54345e-05
2.27668e-05
2.21336e-05
2.60247e-05
2.42357e-05
2.66072e-05
2.4309e-05
2.42089e-05
2.54853e-05
2.56673e-05
2.33401e-05
2.06711e-05
2.72135e-05
2.34509e-05
2.29223e-05
2.70708e-05
2.18665e-05
2.60623e-05
2.30602e-05
2.51404e-05
2.21128e-05
2.44238e-05
2.65184e-05
2.42427e-05
2.70584e-05
2.44834e-05
2.59091e-05
2.28769e-05
2.59297e-05
2.90951e-05
2.02786e-05
2.6053e-05
1.924e-05
2.50072e-05
2.38251e-05
1.83116e-05
2.15079e-05
1.94753e-05
2.04988e-05
1.7173e-05
2.58642e-05
2.174e-05
2.3332e-05
2.5942e-05
2.46837e-05
2.68471e-05
2.48408e-05
2.0382e-05
2.49446e-05
1.82922e-05
2.49994e-05
2.78186e-05
2.39033e-05
2.28422e-05
2.62494e-05
2.4146e-05
1.99371e-05
1.77871e-05
2.28148e-05
2.17776e-05
1.71881e-05
1.95762e-05
1.79624e-05
2.32701e-05
1.85642e-05
1.71725e-05
2.24019e-05
2.20528e-05
2.50774e-05
2.17989e-05
2.51525e-05
2.01808e-05
1.94558e-05
2.48942e-05
2.61107e-05
2.7171e-05
2.41129e-05
2.65019e-05
2.5595e-05
2.89342e-05
2.59462e-05
2.12056e-05
2.70764e-05
2.6566e-05
2.53388e-05
2.49759e-05
2.6791e-05
2.80342e-05
2.41624e-05
2.33728e-05
2.65295e-05
2.50259e-05
2.04427e-05
2.12401e-05
2.45046e-05
2.64908e-05
2.55074e-05
SCALARS SignedDistance double 1
LOOKUP_TABLE default
0.00405002
0.00386216
0.00348224
0.00345894
0.00474971
0.00413907
0.00393986
0.00483831
0.00512256
0.00495318
0.00510462
0.00478305
0.00411296
0.0042527
0.00372044
0.00367444
0.00379601
0.00387528
0.00386037
0.00506947
0.00470038
0.00546567
0.00410747
0.00407951
0.00591725
0.0046493
0.0062021
0.00475879
0.00333445
0.0046726
0.00476506
0.00507654
0.00475723
0.00570562
0.00440046
0.00425582
0.00479343
0.00438062
0.00498369
0.00473286
0.00605564
0.00496277
0.00391627
0.00390531
0.00390045
0.00453482
0.0041858
0.00461007
0.00393397
0.00417389
0.00431866
0.00385455
0.00412141
0.00389139
0.003744
0.00392455
0.00377363
0.00389352
0.00388835
0.00388693
0.0039275
0.00394261
0.00423026
0.00403589
0.00416906
0.00406458
0.0043616
0.00502846
0.00447199
0.0053132
0.00480709
0.00530546
0.00417032
0.0056121
0.0052374
0.00464155
0.00437054
0.00385699
0.00389659
0.00412276
0.003925
0.00442564
0.00421305
0.00452104
0.00429426
0.00420822
0.00525411
0.00478599
0.00543858
0.00498257
0.00479525
0.00561875
0.0053677
0.00541042
0.00586484
0.00472014
0.00502809
0.00474217
0.00520263
0.00510152
0.00415433
0.00451964
0.00398986
0.00447672
0.004635
0.00427812
0.00501934
0.00423161
0.00405232
0.00531891
0.00472141
0.00532118
0.00469824
0.00468012
0.00377974
0.00531085
0.00517291
0.00583656
0.00520688
0.00455118
0.00478682
0.00303072
0.00349541
0.00529988
0.00422527
0.00323153
0.00304571
0.00365879
0.00352235
0.00354221
0.0032977
0.0034869
0.00494113
0.00476524
0.00513482
0.00581605
0.00478803
0.00401294
0.00471479
0.00520915
0.00488838
0.00519169
0.00494485
0.00574499
0.00603509
0.00535379
0.00409203
0.00490409
0.00462665
0.00441965
0.00485186
0.00470032
0.0055667
0.00491071
0.00542163
0.00492375
0.00514255
0.00446986
0.00436754
0.00487805
0.00497748
0.00417114
