# vtk DataFile Version 4.2
vtk output
ASCII
DATASET POLYDATA
POINTS 162 double
-0.00606547 0.0114974 0.00351297
0.0069077 0.0117007 0.00352197
-0.00585501 -0.0134909 -0.000160194
0.00676338 -0.0140224 -0.000191002
0.000250703 -0.00866774 0.0175548
0.000187793 0.00997405 0.016115
-5.5775e-06 -0.00911154 -0.019534
0.000133343 0.00727336 -0.0190673
0.0116531 -0.00030292 -0.0130456
0.0129802 0.000830596 0.0119553
-0.0106818 -0.000385168 -0.012894
-0.0117537 0.000963443 0.0117188
-0.0105382 0.00785408 0.00846999
-0.00883096 0.0056923 0.0161526
-0.0047771 0.0141432 0.0110217
0.00541593 0.0142268 0.0111106
0.000261863 0.0138395 0.00386228
0.00444139 0.00892905 -0.0110264
-0.0037994 0.00873648 -0.0110404
-0.00825742 0.00456817 -0.0188887
-0.00874813 0.00525318 -0.00683631
-0.0111628 -9.5572e-05 0.00088323
0.00961193 0.0058287 0.0163497
0.0118083 0.00822682 0.00867907
-0.00774586 -0.00488554 0.0166448
0.000182914 -0.00086903 0.0196905
-0.00924359 -0.00700795 -0.00740858
-0.00987966 -0.00716043 0.00671973
9.77227e-05 -0.000289969 -0.0228826
-0.00844849 -0.00562861 -0.0190732
0.00967803 0.00550978 -0.00680041
0.00898279 0.00471184 -0.0190679
0.0109735 -0.00744893 0.00680706
0.00858774 -0.00493073 0.0168821
0.00448581 -0.012837 0.00970154
-0.00377727 -0.012555 0.00966383
0.00044084 -0.0168604 -0.000429564
-0.00368141 -0.0123131 -0.0105893
0.00438426 -0.0128057 -0.0103595
0.00902772 -0.00549498 -0.0191259
0.0103816 -0.00749633 -0.00714999
0.0123806 -0.00011404 0.00109411
-0.00859357 0.0103248 0.00627727
-0.00827644 0.0116153 0.00984765
-0.00574106 0.0136275 0.00808307
-0.0110199 0.00337411 0.0145473
-0.0106298 0.00715048 0.0126302
-0.0117269 0.00472063 0.010364
-0.00281139 0.012996 0.013762
-0.00684797 0.0106627 0.0139422
-0.00500158 0.00799363 0.0165629
-0.00238482 0.0148323 0.00777665
-0.00301437 0.013244 0.00384871
0.00330914 0.0130438 0.0138178
0.000198354 0.0147725 0.0115326
0.003618 0.0133723 0.00380683
0.00287315 0.0149352 0.00776975
0.00651541 0.0137708 0.00812952
-0.00166608 0.0105133 -0.00291714
-0.0045135 0.00932351 -0.00359716
0.00526205 0.00952582 -0.00363
0.00229437 0.0106133 -0.0029359
-0.00261628 0.00836163 -0.0156459
0.000249124 0.00935609 -0.011394
0.00304564 0.00844719 -0.0156338
-0.00678596 0.0072922 -0.0094675
-0.00751915 0.00781759 -0.0015547
-0.00497891 0.00629971 -0.01978
-0.00620641 0.00731806 -0.0161592
-0.0102164 0.00296992 -0.0107431
-0.00924091 0.00486138 -0.0141714
-0.0099674 0.00219502 -0.0166049
-0.00938406 0.00693605 0.00218526
-0.0107549 -0.000500627 -0.00657109
-0.0101029 0.00277841 -0.0032587
-0.0113053 0.00387214 0.00565541
-0.0117177 0.000658269 0.00710896
0.00934526 0.0118187 0.0100312
0.00972616 0.010556 0.00645827
0.00554035 0.00810438 0.0166159
0.00771502 0.0109312 0.0141355
0.0129922 0.00504115 0.0104931
0.0118039 0.00760507 0.0128196
0.0119843 0.00338388 0.0147983
-0.00477567 0.0028032 0.018377
0.000174762 0.00459476 0.018432
-0.0103252 -0.00198131 0.0145397
-0.00901433 0.000246784 0.0169215
0.000206153 -0.00514044 0.0198229
-0.00434886 -0.00345306 0.0192945
-0.0041356 -0.00714905 0.0177675
-0.0112042 -0.00345161 0.00433212
-0.0110401 -0.00328833 0.00968961
-0.0105067 -0.00404361 -0.0108365
-0.0106872 -0.00369217 -0.00397477
-0.00822552 -0.0106129 0.0032737
-0.00969905 -0.00799149 0.000108192
-0.008013 -0.0106789 -0.0034211
-0.00903345 -0.000294949 -0.0196253
-0.0100254 -0.00300275 -0.0166367
0.000119591 0.00426166 -0.0219826
-0.00511919 0.0028552 -0.0220592
-0.0050696 -0.0077719 -0.0201445
-0.00512894 -0.00355418 -0.0221575
4.22164e-05 -0.00526264 -0.0222993
0.00684165 0.00746796 -0.0161945
0.0053992 0.00634128 -0.0198139
0.00846846 0.00806106 -0.00149988
0.00760919 0.00757161 -0.00949865
0.010889 0.00232958 -0.0168184
0.0101099 0.00507877 -0.0142947
0.0111841 0.0031574 -0.0108416
0.00922075 -0.0110881 0.00324481
0.00824124 -0.0107973 0.0084173
0.00580037 -0.0139962 0.00475172
0.0115303 -0.0021194 0.014962
0.0105124 -0.00599024 0.012571
0.0122624 -0.00341301 0.00995059
0.00273601 -0.011055 0.0140776
0.00650398 -0.00926515 0.0143663
0.00468811 -0.00730147 0.0179416
0.00255342 -0.0154672 0.00413735
0.00341335 -0.016237 -0.000377931
-0.00215781 -0.0109352 0.014034
0.000332888 -0.0134487 0.0102459
-0.00253865 -0.0159169 -0.000347787
-0.00177784 -0.0153035 0.00416716
-0.00500115 -0.0136331 0.00480175
0.00250398 -0.0159555 -0.00462987
0.00562177 -0.0143525 -0.00509116
-0.0047795 -0.0138435 -0.00519799
-0.00168067 -0.0157432 -0.00466857
0.00282704 -0.0110008 -0.0155223
0.000288073 -0.0134328 -0.0108616
-0.0026284 -0.0109905 -0.015751
0.00785316 -0.0106856 -0.00916408
0.00903114 -0.0112684 -0.00328701
0.00524766 -0.00768728 -0.0201087
0.00685763 -0.00941286 -0.0161141
0.01147 -0.00415147 -0.0107262
0.010255 -0.00632792 -0.0141814
0.0109481 -0.00288183 -0.0167841
0.0108043 -0.00840117 0.000190327
0.0117062 -0.000541026 -0.00648924
0.0119225 -0.00399237 -0.00379462
0.012422 -0.00364674 0.0044937
0.0130655 0.000665421 0.00732737
0.00490975 -0.00349479 0.0194057
0.00997934 0.000139359 0.0173737
0.00533585 0.00277966 0.0185051
-0.00736766 -0.0104195 0.0083612
-0.00583644 -0.00905586 0.014256
-0.00946685 -0.00585091 0.0123591
-0.00641974 -0.00928556 -0.0163728
-0.00691157 -0.0100321 -0.00944109
-0.00949389 -0.00626118 -0.014327
0.0097809 -0.000172399 -0.0198431
0.00542058 -0.00345009 -0.0222151
0.00548878 0.0028908 -0.0221047
0.0126049 0.00415147 0.00589408
0.0111245 0.0029841 -0.003112
0.010499 0.00722978 0.00241775


POLYGONS 320 1280 
3 0 42 44
3 12 43 42
3 14 44 43
3 42 43 44
3 11 45 47
3 13 46 45
3 12 47 46
3 45 46 47
3 5 48 50
3 14 49 48
3 13 50 49
3 48 49 50
3 12 46 43
3 13 49 46
3 14 43 49
3 46 49 43
3 0 44 52
3 14 51 44
3 16 52 51
3 44 51 52
3 5 53 48
3 15 54 53
3 14 48 54
3 53 54 48
3 1 55 57
3 16 56 55
3 15 57 56
3 55 56 57
3 14 54 51
3 15 56 54
3 16 51 56
3 54 56 51
3 0 52 59
3 16 58 52
3 18 59 58
3 52 58 59
3 1 60 55
3 17 61 60
3 16 55 61
3 60 61 55
3 7 62 64
3 18 63 62
3 17 64 63
3 62 63 64
3 16 61 58
3 17 63 61
3 18 58 63
3 61 63 58
3 0 59 66
3 18 65 59
3 20 66 65
3 59 65 66
3 7 67 62
3 19 68 67
3 18 62 68
3 67 68 62
3 10 69 71
3 20 70 69
3 19 71 70
3 69 70 71
3 18 68 65
3 19 70 68
3 20 65 70
3 68 70 65
3 0 66 42
3 20 72 66
3 12 42 72
3 66 72 42
3 10 73 69
3 21 74 73
3 20 69 74
3 73 74 69
3 11 47 76
3 12 75 47
3 21 76 75
3 47 75 76
3 20 74 72
3 21 75 74
3 12 72 75
3 74 75 72
3 1 57 78
3 15 77 57
3 23 78 77
3 57 77 78
3 5 79 53
3 22 80 79
3 15 53 80
3 79 80 53
3 9 81 83
3 23 82 81
3 22 83 82
3 81 82 83
3 15 80 77
3 22 82 80
3 23 77 82
3 80 82 77
3 5 50 85
3 13 84 50
3 25 85 84
3 50 84 85
3 11 86 45
3 24 87 86
3 13 45 87
3 86 87 45
3 4 88 90
3 25 89 88
3 24 90 89
3 88 89 90
3 13 87 84
3 24 89 87
3 25 84 89
3 87 89 84
3 11 76 92
3 21 91 76
3 27 92 91
3 76 91 92
3 10 93 73
3 26 94 93
3 21 73 94
3 93 94 73
3 2 95 97
3 27 96 95
3 26 97 96
3 95 96 97
3 21 94 91
3 26 96 94
3 27 91 96
3 94 96 91
3 10 71 99
3 19 98 71
3 29 99 98
3 71 98 99
3 7 100 67
3 28 101 100
3 19 67 101
3 100 101 67
3 6 102 104
3 29 103 102
3 28 104 103
3 102 103 104
3 19 101 98
3 28 103 101
3 29 98 103
3 101 103 98
3 7 64 106
3 17 105 64
3 31 106 105
3 64 105 106
3 1 107 60
3 30 108 107
3 17 60 108
3 107 108 60
3 8 109 111
3 31 110 109
3 30 111 110
3 109 110 111
3 17 108 105
3 30 110 108
3 31 105 110
3 108 110 105
3 3 112 114
3 32 113 112
3 34 114 113
3 112 113 114
3 9 115 117
3 33 116 115
3 32 117 116
3 115 116 117
3 4 118 120
3 34 119 118
3 33 120 119
3 118 119 120
3 32 116 113
3 33 119 116
3 34 113 119
3 116 119 113
3 3 114 122
3 34 121 114
3 36 122 121
3 114 121 122
3 4 123 118
3 35 124 123
3 34 118 124
3 123 124 118
3 2 125 127
3 36 126 125
3 35 127 126
3 125 126 127
3 34 124 121
3 35 126 124
3 36 121 126
3 124 126 121
3 3 122 129
3 36 128 122
3 38 129 128
3 122 128 129
3 2 130 125
3 37 131 130
3 36 125 131
3 130 131 125
3 6 132 134
3 38 133 132
3 37 134 133
3 132 133 134
3 36 131 128
3 37 133 131
3 38 128 133
3 131 133 128
3 3 129 136
3 38 135 129
3 40 136 135
3 129 135 136
3 6 137 132
3 39 138 137
3 38 132 138
3 137 138 132
3 8 139 141
3 40 140 139
3 39 141 140
3 139 140 141
3 38 138 135
3 39 140 138
3 40 135 140
3 138 140 135
3 3 136 112
3 40 142 136
3 32 112 142
3 136 142 112
3 8 143 139
3 41 144 143
3 40 139 144
3 143 144 139
3 9 117 146
3 32 145 117
3 41 146 145
3 117 145 146
3 40 144 142
3 41 145 144
3 32 142 145
3 144 145 142
3 4 120 88
3 33 147 120
3 25 88 147
3 120 147 88
3 9 83 115
3 22 148 83
3 33 115 148
3 83 148 115
3 5 85 79
3 25 149 85
3 22 79 149
3 85 149 79
3 33 148 147
3 22 149 148
3 25 147 149
3 148 149 147
3 2 127 95
3 35 150 127
3 27 95 150
3 127 150 95
3 4 90 123
3 24 151 90
3 35 123 151
3 90 151 123
3 11 92 86
3 27 152 92
3 24 86 152
3 92 152 86
3 35 151 150
3 24 152 151
3 27 150 152
3 151 152 150
3 6 134 102
3 37 153 134
3 29 102 153
3 134 153 102
3 2 97 130
3 26 154 97
3 37 130 154
3 97 154 130
3 10 99 93
3 29 155 99
3 26 93 155
3 99 155 93
3 37 154 153
3 26 155 154
3 29 153 155
3 154 155 153
3 8 141 109
3 39 156 141
3 31 109 156
3 141 156 109
3 6 104 137
3 28 157 104
3 39 137 157
3 104 157 137
3 7 106 100
3 31 158 106
3 28 100 158
3 106 158 100
3 39 157 156
3 28 158 157
3 31 156 158
3 157 158 156
3 9 146 81
3 41 159 146
3 23 81 159
3 146 159 81
3 8 111 143
3 30 160 111
3 41 143 160
3 111 160 143
3 1 78 107
3 23 161 78
3 30 107 161
3 78 161 107
3 41 160 159
3 30 161 160
3 23 159 161
3 160 161 159

POINT_DATA 162
SCALARS Mean_Curvature double 1
LOOKUP_TABLE default
90.8706
86.8723
104.471
119.389
175.355
86.914
162.312
159.086
103.393
155.619
102.8
154.707
117.049
198.462
260.393
239.831
100.063
89.7202
87.8296
266.197
72.7385
57.3678
177.855
137.813
182.818
82.5105
36.7722
83.2649
94.7844
242.713
73.9282
270.225
82.3147
168.322
112.152
103.412
227.605
80.5697
99.4666
223.262
50.6391
53.8268
115.426
204.265
181.097
229.723
198.733
152.861
164.959
173.165
104.567
173.399
97.881
155
199.625
96.5853
173.594
169.889
48.4046
40.2367
39.9151
49.6823
98.6957
69.3133
95.0115
93.7794
49.4614
220.932
180.741
123.839
164.666
162.625
75.0932
65.7455
35.3602
79.6112
72.1956
208.203
118.62
87.3413
185.769
155.629
221.71
193.527
89.9511
67.8013
155.781
179.334
207.98
177.375
176.068
74.353
84.1814
108.657
68.6301
92.8119
68.5288
92.5163
200.974
132.362
158.812
204.828
206.493
176.665
144.776
174.421
202.575
48.2956
101.568
176.343
165.587
126.322
98.5448
100.647
122.576
185.451
109.038
88.1794
114.326
125.574
183.489
122.347
171.628
114.113
129.515
147.566
121.959
123.924
165.948
130.396
119.452
160.322
73.2118
110.378
108.441
70.8668
99.9168
181.124
150.694
100.179
119.254
154.804
66.3194
40.0877
82.3613
73.9245
82.5754
163.692
195.452
79.0936
100.05
135.502
113.503
165.966
48.65
138
205.909
167.521
191.289
83.6859
33.379
76.2514
SCALARS CoVolArea double 1
LOOKUP_TABLE default
1.85897e-05
1.97317e-05
1.80504e-05
1.77704e-05
1.70223e-05
2.30328e-05
2.09015e-05
1.80673e-05
1.81183e-05
1.56088e-05
1.71119e-05
1.45361e-05
1.81667e-05
1.9676e-05
1.49936e-05
1.59513e-05
2.16256e-05
2.42661e-05
2.35362e-05
1.64336e-05
2.25025e-05
2.57158e-05
2.15105e-05
1.82069e-05
1.90349e-05
2.65143e-05
2.52342e-05
2.30354e-05
2.8589e-05
1.88095e-05
2.35793e-05
1.72953e-05
2.43644e-05
2.0246e-05
2.24874e-05
2.20282e-05
1.58259e-05
2.4137e-05
2.45674e-05
2.06317e-05
2.65991e-05
2.78083e-05
1.85779e-05
1.67367e-05
1.43723e-05
1.50447e-05
1.74378e-05
1.55163e-05
1.96193e-05
1.96044e-05
2.42446e-05
1.65996e-05
2.01775e-05
2.02461e-05
1.7455e-05
2.10253e-05
1.72176e-05
1.54793e-05
2.84151e-05
2.49583e-05
2.58872e-05
2.88052e-05
1.97831e-05
2.78861e-05
2.0384e-05
2.37727e-05
2.33096e-05
1.82643e-05
1.87112e-05
1.99157e-05
1.86954e-05
1.63823e-05
2.52184e-05
2.38013e-05
2.77556e-05
2.42194e-05
2.01662e-05
1.72048e-05
1.93e-05
2.56145e-05
2.07705e-05
1.67387e-05
1.84293e-05
1.67057e-05
2.73922e-05
2.95163e-05
1.7067e-05
2.10848e-05
1.93209e-05
2.31941e-05
1.86225e-05
2.71161e-05
1.9908e-05
2.10258e-05
2.8176e-05
2.1984e-05
2.77448e-05
2.39735e-05
2.08655e-05
1.74986e-05
2.29963e-05
2.47206e-05
2.12474e-05
2.63288e-05
2.55129e-05
1.9664e-05
1.91421e-05
2.43602e-05
2.46667e-05
1.69988e-05
1.95948e-05
2.1294e-05
2.26391e-05
2.55634e-05
2.04379e-05
1.80073e-05
2.3702e-05
2.08784e-05
2.07744e-05
2.38463e-05
1.94571e-05
2.09988e-05
1.664e-05
2.04826e-05
2.38086e-05
1.71933e-05
2.10446e-05
2.01822e-05
2.0509e-05
2.10152e-05
2.16034e-05
2.09065e-05
2.47364e-05
2.6336e-05
2.35948e-05
2.78681e-05
2.41281e-05
2.30685e-05
2.52145e-05
2.26394e-05
2.40982e-05
1.84962e-05
2.86277e-05
2.58812e-05
2.98302e-05
2.84827e-05
2.1477e-05
2.42848e-05
2.2545e-05
2.91066e-05
2.41219e-05
2.24355e-05
2.21465e-05
2.29602e-05
2.6742e-05
2.20429e-05
2.18146e-05
2.74837e-05
2.55855e-05
2.54621e-05
2.97136e-05
2.59698e-05
SCALARS SignedDistance double 1
LOOKUP_TABLE default
0.00564007
0.00562334
0.00459994
0.0043197
0.00346595
0.00449294
0.00348859
0.0038263
0.00471117
0.00405248
0.00476883
0.00414427
0.00470902
0.00327803
0.00301579
0.00310378
0.005362
0.00642646
0.006462
0.00291409
0.00773297
0.00641622
0.00341013
0.00447822
0.00342765
0.00457324
0.0068037
0.00519177
0.00390608
0.00291794
0.00771111
0.00281557
0.0050986
0.00347441
0.0043477
0.00450745
0.0033885
0.00584823
0.00530035
0.00301212
0.00646473
0.00643965
0.00494361
0.00371497
0.00395061
0.00320709
0.003535
0.00430216
0.00356962
0.00354147
0.00429684
0.00407801
0.00545844
0.00364415
0.00338668
0.00543948
0.0040423
0.00401947
0.00783312
0.00825434
0.0081985
0.00777275
0.00497969
0.00674823
0.00508401
0.00663566
0.00746526
0.00319703
0.00392964
0.00511491
0.0042165
0.00392586
0.00619226
0.00718501
0.00795868
0.00564884
0.00558825
0.00360818
0.00483349
0.00446567
0.00342387
0.00411272
0.00319838
0.00334082
0.00454303
0.00480392
0.00392566
0.00342763
0.00326447
0.00355963
0.00339839
0.00567542
0.00507718
0.00514508
0.00663123
0.00501987
0.0056474
0.00520829
0.00325702
0.00414708
0.00339051
0.0031508
0.00308598
0.00328403
0.00349342
0.00410761
0.00332351
0.00742594
0.00644632
0.00381552
0.00405198
0.00504744
0.00484798
0.00458357
0.0042537
0.00349489
0.00439071
0.00495974
0.00421863
0.00410746
0.00331507
0.00423916
0.00383732
0.00424567
0.0041567
0.00409412
0.00426932
0.00429961
0.003836
0.00422928
0.00444728
0.00392385
0.00547163
0.00514283
0.0051506
0.00590588
0.00488004
0.00321753
0.00445952
0.00539119
0.00473742
0.00392965
0.00562279
0.00751639
0.00600372
0.00553865
0.00547392
0.00366744
0.00325388
0.00464087
0.00469546
0.00405429
0.00452346
0.00406109
0.00640885
0.00436594
0.0031461
0.00336914
0.00326823
0.00547169
0.00785841
0.00609815
