# vtk DataFile Version 4.2
vtk output
ASCII
DATASET POLYDATA
POINTS 162 double
-1.35785 1.93426 0.491114
1.29466 1.88963 0.472284
-1.32667 -2.33682 0.74569
1.27589 -2.30073 0.739481
-0.0167424 -1.82697 2.99492
-0.0202768 0.925701 2.61301
-0.0148954 -1.3067 -1.19712
-0.0107129 1.29129 -1.7799
2.15125 -0.0299669 -0.742791
1.91201 -0.290831 1.8568
-2.22644 -0.0147282 -0.766845
-2.00244 -0.291535 1.88713
-1.88222 1.00236 1.19916
-1.14248 0.43436 2.55347
-0.73626 1.73749 1.68766
0.689011 1.71829 1.67545
-0.0140256 2.30441 0.537231
0.831499 1.92423 -0.800382
-0.862709 1.94813 -0.816384
-1.38229 0.738886 -1.52789
-2.2996 1.20866 -0.377158
-2.43307 -0.161324 0.480313
1.09773 0.418286 2.52063
1.80629 0.963574 1.17903
-1.20858 -1.17178 2.73036
-0.0180927 -0.313163 3.14083
-2.01062 -1.4228 -0.123819
-1.98941 -1.54387 1.43486
-0.0128368 0.0710717 -1.87889
-1.2794 -0.871079 -1.30858
2.19584 1.17013 -0.358351
1.34471 0.728169 -1.50758
1.90102 -1.51119 1.41051
1.15357 -1.15396 2.6918
0.755138 -2.50163 2.11998
-0.797998 -2.53235 2.13838
-0.0153278 -2.64152 0.87183
-0.849597 -2.03259 -0.476916
0.822607 -2.0256 -0.472373
1.24745 -0.858026 -1.28152
1.95231 -1.39044 -0.119879
2.3455 -0.172557 0.465556
-1.70064 1.56193 0.81373
-1.35362 1.4801 1.50636
-1.05842 1.95147 1.14113
-1.64665 0.0841578 2.2856
-1.58286 0.728851 1.97205
-2.00383 0.33709 1.61884
-0.374219 1.3761 2.2166
-0.949179 1.13573 2.19397
-0.576839 0.723478 2.67495
-0.432887 2.14592 1.14761
-0.712836 2.23019 0.538488
0.336471 1.36867 2.20652
-0.0167617 1.80172 1.76017
0.674628 2.20869 0.530995
0.397793 2.14036 1.14523
0.998854 1.91737 1.12609
-0.445908 2.25847 -0.154124
-1.19651 2.00608 -0.164731
1.15388 1.97366 -0.164516
0.421851 2.24528 -0.152132
-0.435325 1.71356 -1.3976
-0.0113171 2.06482 -0.912144
0.410868 1.70445 -1.38923
-1.73046 1.67516 -0.62564
-1.90021 1.6099 0.00775537
-0.692908 1.0582 -1.78384
-1.20247 1.42568 -1.30612
-2.39958 0.658912 -0.640511
-2.0448 1.04478 -1.05074
-1.9567 0.398126 -1.20589
-2.16606 1.18228 0.337009
-2.43561 -0.0456561 -0.188193
-2.45715 0.594242 -0.0415595
-2.26583 0.438918 0.823519
-2.27793 -0.271143 1.23705
1.28579 1.43774 1.48437
1.62375 1.51037 0.790458
0.535954 0.713089 2.65155
0.901837 1.11366 2.17133
1.91913 0.319617 1.59297
1.51976 0.700775 1.94625
1.57838 0.0726729 2.25132
-0.594791 0.10654 2.97364
-0.0208546 0.352251 2.97388
-1.68149 -0.721605 2.35774
-1.25624 -0.323413 2.72375
-0.0161693 -1.1133 3.13283
-0.632035 -0.791286 3.06334
-0.660187 -1.56623 2.9826
-2.30423 -0.901436 1.0112
-2.08212 -0.936029 1.70649
-2.17912 -0.766989 -0.491452
-2.3393 -0.826462 0.163898
-1.73398 -2.03709 1.10404
-2.11052 -1.56906 0.643136
-1.7393 -1.94337 0.287913
-1.39539 -0.0334543 -1.50365
-1.82519 -0.47346 -1.09823
-0.0111466 0.674729 -1.97331
-0.661808 0.419834 -1.86803
-0.730225 -1.12437 -1.3318
-0.687197 -0.413161 -1.65776
-0.0157325 -0.627757 -1.55993
1.16185 1.39512 -1.28069
0.671641 1.04524 -1.76428
1.82801 1.57073 0.00188285
1.67519 1.64682 -0.607287
1.88474 0.390432 -1.18013
1.96845 1.0161 -1.02213
2.3001 0.634714 -0.613852
1.66049 -1.99459 1.0908
1.40039 -2.07092 1.8001
1.04051 -2.46712 1.44877
1.61193 -0.708924 2.32309
1.61348 -1.37976 2.14097
1.98648 -0.916803 1.67616
0.392159 -2.27731 2.67522
1.01504 -1.91555 2.54792
0.619714 -1.55357 2.95723
0.392087 -2.7319 1.52547
0.670682 -2.56663 0.821012
-0.428942 -2.29665 2.69538
-0.0159024 -2.69375 2.25935
-0.706326 -2.58239 0.829181
-0.428266 -2.74759 1.53038
-1.08886 -2.5033 1.46074
0.441463 -2.40514 0.177329
1.07984 -2.23723 0.0904067
-1.11995 -2.2619 0.0923927
-0.466569 -2.40843 0.180247
0.454627 -1.69659 -0.910252
-0.00992348 -2.00931 -0.476445
-0.479716 -1.69722 -0.915024
1.43673 -1.82767 -0.345676
1.67782 -1.90594 0.282114
0.701497 -1.12256 -1.32304
1.05488 -1.53325 -0.957064
2.118 -0.762008 -0.468927
1.69976 -1.16412 -0.778996
1.77569 -0.469446 -1.07213
2.02449 -1.52638 0.627202
2.35138 -0.0676993 -0.170077
2.27201 -0.812951 0.155904
2.20731 -0.878638 0.980487
2.18019 -0.269318 1.207
0.593953 -0.788588 3.03864
1.20857 -0.324766 2.68738
0.555351 0.0973248 2.94419
-1.46965 -2.11258 1.82785
-1.06984 -1.94435 2.58312
-1.69208 -1.40972 2.18005
-1.0853 -1.54268 -0.975519
-1.47737 -1.85042 -0.353696
-1.74499 -1.18364 -0.805076
1.35848 -0.0245167 -1.47503
0.661885 -0.409447 -1.6511
0.641641 0.420923 -1.85041
2.17156 0.41473 0.805938
2.34952 0.56341 -0.0312361
2.07616 1.14429 0.327704


POLYGONS 320 1280 
3 0 42 44
3 12 43 42
3 14 44 43
3 42 43 44
3 11 45 47
3 13 46 45
3 12 47 46
3 45 46 47
3 5 48 50
3 14 49 48
3 13 50 49
3 48 49 50
3 12 46 43
3 13 49 46
3 14 43 49
3 46 49 43
3 0 44 52
3 14 51 44
3 16 52 51
3 44 51 52
3 5 53 48
3 15 54 53
3 14 48 54
3 53 54 48
3 1 55 57
3 16 56 55
3 15 57 56
3 55 56 57
3 14 54 51
3 15 56 54
3 16 51 56
3 54 56 51
3 0 52 59
3 16 58 52
3 18 59 58
3 52 58 59
3 1 60 55
3 17 61 60
3 16 55 61
3 60 61 55
3 7 62 64
3 18 63 62
3 17 64 63
3 62 63 64
3 16 61 58
3 17 63 61
3 18 58 63
3 61 63 58
3 0 59 66
3 18 65 59
3 20 66 65
3 59 65 66
3 7 67 62
3 19 68 67
3 18 62 68
3 67 68 62
3 10 69 71
3 20 70 69
3 19 71 70
3 69 70 71
3 18 68 65
3 19 70 68
3 20 65 70
3 68 70 65
3 0 66 42
3 20 72 66
3 12 42 72
3 66 72 42
3 10 73 69
3 21 74 73
3 20 69 74
3 73 74 69
3 11 47 76
3 12 75 47
3 21 76 75
3 47 75 76
3 20 74 72
3 21 75 74
3 12 72 75
3 74 75 72
3 1 57 78
3 15 77 57
3 23 78 77
3 57 77 78
3 5 79 53
3 22 80 79
3 15 53 80
3 79 80 53
3 9 81 83
3 23 82 81
3 22 83 82
3 81 82 83
3 15 80 77
3 22 82 80
3 23 77 82
3 80 82 77
3 5 50 85
3 13 84 50
3 25 85 84
3 50 84 85
3 11 86 45
3 24 87 86
3 13 45 87
3 86 87 45
3 4 88 90
3 25 89 88
3 24 90 89
3 88 89 90
3 13 87 84
3 24 89 87
3 25 84 89
3 87 89 84
3 11 76 92
3 21 91 76
3 27 92 91
3 76 91 92
3 10 93 73
3 26 94 93
3 21 73 94
3 93 94 73
3 2 95 97
3 27 96 95
3 26 97 96
3 95 96 97
3 21 94 91
3 26 96 94
3 27 91 96
3 94 96 91
3 10 71 99
3 19 98 71
3 29 99 98
3 71 98 99
3 7 100 67
3 28 101 100
3 19 67 101
3 100 101 67
3 6 102 104
3 29 103 102
3 28 104 103
3 102 103 104
3 19 101 98
3 28 103 101
3 29 98 103
3 101 103 98
3 7 64 106
3 17 105 64
3 31 106 105
3 64 105 106
3 1 107 60
3 30 108 107
3 17 60 108
3 107 108 60
3 8 109 111
3 31 110 109
3 30 111 110
3 109 110 111
3 17 108 105
3 30 110 108
3 31 105 110
3 108 110 105
3 3 112 114
3 32 113 112
3 34 114 113
3 112 113 114
3 9 115 117
3 33 116 115
3 32 117 116
3 115 116 117
3 4 118 120
3 34 119 118
3 33 120 119
3 118 119 120
3 32 116 113
3 33 119 116
3 34 113 119
3 116 119 113
3 3 114 122
3 34 121 114
3 36 122 121
3 114 121 122
3 4 123 118
3 35 124 123
3 34 118 124
3 123 124 118
3 2 125 127
3 36 126 125
3 35 127 126
3 125 126 127
3 34 124 121
3 35 126 124
3 36 121 126
3 124 126 121
3 3 122 129
3 36 128 122
3 38 129 128
3 122 128 129
3 2 130 125
3 37 131 130
3 36 125 131
3 130 131 125
3 6 132 134
3 38 133 132
3 37 134 133
3 132 133 134
3 36 131 128
3 37 133 131
3 38 128 133
3 131 133 128
3 3 129 136
3 38 135 129
3 40 136 135
3 129 135 136
3 6 137 132
3 39 138 137
3 38 132 138
3 137 138 132
3 8 139 141
3 40 140 139
3 39 141 140
3 139 140 141
3 38 138 135
3 39 140 138
3 40 135 140
3 138 140 135
3 3 136 112
3 40 142 136
3 32 112 142
3 136 142 112
3 8 143 139
3 41 144 143
3 40 139 144
3 143 144 139
3 9 117 146
3 32 145 117
3 41 146 145
3 117 145 146
3 40 144 142
3 41 145 144
3 32 142 145
3 144 145 142
3 4 120 88
3 33 147 120
3 25 88 147
3 120 147 88
3 9 83 115
3 22 148 83
3 33 115 148
3 83 148 115
3 5 85 79
3 25 149 85
3 22 79 149
3 85 149 79
3 33 148 147
3 22 149 148
3 25 147 149
3 148 149 147
3 2 127 95
3 35 150 127
3 27 95 150
3 127 150 95
3 4 90 123
3 24 151 90
3 35 123 151
3 90 151 123
3 11 92 86
3 27 152 92
3 24 86 152
3 92 152 86
3 35 151 150
3 24 152 151
3 27 150 152
3 151 152 150
3 6 134 102
3 37 153 134
3 29 102 153
3 134 153 102
3 2 97 130
3 26 154 97
3 37 130 154
3 97 154 130
3 10 99 93
3 29 155 99
3 26 93 155
3 99 155 93
3 37 154 153
3 26 155 154
3 29 153 155
3 154 155 153
3 8 141 109
3 39 156 141
3 31 109 156
3 141 156 109
3 6 104 137
3 28 157 104
3 39 137 157
3 104 157 137
3 7 106 100
3 31 158 106
3 28 100 158
3 106 158 100
3 39 157 156
3 28 158 157
3 31 156 158
3 157 158 156
3 9 146 81
3 41 159 146
3 23 81 159
3 146 159 81
3 8 111 143
3 30 160 111
3 41 143 160
3 111 160 143
3 1 78 107
3 23 161 78
3 30 107 161
3 78 161 107
3 41 160 159
3 30 161 160
3 23 159 161
3 160 161 159

POINT_DATA 162
SCALARS Mean_Curvature double 1
LOOKUP_TABLE default
0.797285
0.727607
0.869793
0.8619
1.12891
0.756981
0.196692
1.17316
0.788399
0.740181
0.766156
0.762159
0.396099
0.680068
0.725686
0.740688
0.701169
0.67334
0.688788
0.6695
1.54784
0.652375
0.695208
0.421843
0.657188
0.892065
0.784398
0.728462
0.694379
0.783933
1.48429
0.754211
0.729922
0.644267
1.14243
1.1504
0.400759
0.795424
0.845452
0.74385
0.803182
0.68426
0.708544
0.684855
1.00084
0.787315
0.63089
0.633373
0.734195
0.640207
0.757837
0.874217
0.842776
0.737906
0.64806
0.855991
0.947067
0.96006
0.745547
0.536696
0.561441
0.754124
0.954391
0.816519
0.968855
1.13312
0.860699
1.06159
0.728026
1.42449
1.38433
0.940156
0.735919
0.758289
0.920028
0.41155
0.599163
0.622384
0.630182
0.714983
0.634391
0.642735
0.654219
0.794323
0.893234
1.02338
0.693498
0.731293
0.718184
0.731431
1.04366
0.72044
0.74287
0.821214
0.688198
0.848418
0.93783
0.838298
0.595128
0.711221
1.17514
0.829666
0.681112
0.637711
0.0870758
0.670772
1.04555
0.902467
1.21976
0.937947
1.39842
1.39577
0.836594
0.816284
0.824711
0.738964
0.773939
0.717784
1.19663
1.00299
1.03961
0.920578
0.706221
1.25721
1.38757
0.666796
0.929326
0.827675
0.550522
0.842119
0.850419
0.497873
0.677549
0.093032
0.651381
0.924564
0.839618
0.716293
0.974034
0.857249
0.856472
0.751696
0.879464
0.805964
0.799447
0.683241
0.574483
0.721891
0.760809
0.823875
0.84763
1.027
0.804614
0.984708
0.891775
0.867444
0.573377
0.677907
0.820079
0.395092
0.858654
0.748064
SCALARS CoVolArea double 1
LOOKUP_TABLE default
0.386943
0.37501
0.380469
0.370843
0.388126
0.337114
0.412304
0.391112
0.366099
0.357441
0.380724
0.374712
0.562428
0.479803
0.459163
0.450424
0.497272
0.567155
0.580986
0.544722
0.429131
0.528157
0.465554
0.54191
0.519739
0.484912
0.483587
0.513238
0.501733
0.492572
0.403922
0.516959
0.493716
0.502236
0.498803
0.51047
0.524981
0.469617
0.459025
0.485333
0.45689
0.496266
0.473008
0.529003
0.432798
0.452132
0.540024
0.498571
0.439924
0.510325
0.419398
0.481611
0.47381
0.436233
0.491547
0.46277
0.476339
0.426051
0.588734
0.52059
0.497139
0.579988
0.520176
0.59244
0.516924
0.558613
0.452454
0.493296
0.601634
0.407812
0.524617
0.476036
0.517448
0.460881
0.483957
0.585784
0.497791
0.51823
0.461537
0.417714
0.499086
0.475113
0.519306
0.427854
0.49471
0.39656
0.475464
0.532294
0.489759
0.547178
0.48078
0.542379
0.475625
0.481672
0.544127
0.469571
0.519074
0.444721
0.574887
0.491719
0.430875
0.533729
0.464114
0.559776
0.539561
0.581925
0.484153
0.427269
0.530727
0.452353
0.497473
0.391541
0.452597
0.531646
0.461679
0.451491
0.529927
0.457433
0.470425
0.529956
0.47227
0.520026
0.468562
0.47669
0.525376
0.475806
0.523524
0.473938
0.563543
0.434107
0.447247
0.570743
0.441834
0.567071
0.444231
0.45701
0.429533
0.465692
0.445596
0.451164
0.485097
0.471329
0.496475
0.432672
0.505366
0.518093
0.477517
0.538364
0.512988
0.490547
0.553272
0.546743
0.552548
0.453419
0.473632
0.505148
0.555749
0.559734
0.524565
0.558141
0.458475
0.492052
SCALARS SignedDistance double 1
LOOKUP_TABLE default
0.893022
0.965076
0.831367
0.833717
0.667742
0.968425
1.56841
0.612395
0.826342
0.93952
0.809169
0.877362
1.0986
0.946945
0.937762
0.953189
0.861004
0.818961
0.788612
0.905699
0.65345
0.98508
0.963606
1.13255
0.883334
0.823184
0.846538
0.833728
1.15608
0.918908
0.701273
0.931539
0.882085
0.911421
0.634288
0.611152
1.37258
1.13777
1.08803
0.922073
0.873428
1.00705
0.991615
1.0016
0.796191
0.88074
0.987909
0.980009
0.94239
0.986944
0.953535
0.878189
0.801479
0.947274
0.967931
0.811355
0.855352
0.841138
0.813212
0.894057
0.927948
0.803983
0.660979
0.729432
0.665328
0.740865
0.949594
0.660257
0.758587
0.656886
0.566178
0.767639
1.04495
0.896389
0.918862
1.08195
0.977684
1.05941
1.09193
0.983351
1.01158
1.02079
1.00935
0.912292
0.837941
0.806845
0.870421
0.86434
0.800182
0.826061
0.732976
0.882612
0.854784
0.817937
0.901151
0.782363
0.775878
0.817588
0.916989
0.858357
0.794914
0.968771
1.21434
1.17675
1.52355
0.815403
0.684927
0.949506
0.697579
0.790017
0.584139
0.700545
0.821407
0.798462
0.814628
0.888333
0.864279
0.914809
0.584968
0.710386
0.760613
0.899806
1.08164
0.559515
0.559962
1.11933
0.929298
0.794616
1.32163
0.963773
1.00581
1.39872
1.28498
1.60967
1.35521
0.835722
0.839933
1.13613
0.943715
0.831405
0.841682
0.870295
0.838455
0.913574
0.914878
0.971909
1.04482
0.853546
0.880672
0.887223
0.747629
0.663114
0.805312
0.984363
0.836679
0.814354
0.94046
1.12535
0.983354
1.14146
0.959628
1.06948
