<VTKFile type="ImageData" version="1.0" byte_order="LittleEndian" header_type="UInt64">
	<ImageData WholeExtent="0 53 0 56 0 51" Origin="-231.932 -223.885 -225.521" Spacing="8.75213 8.76086 8.84397">
		<Piece Extent="0 53 0 56 0 51">
			<PointData Scalars="Scalars_">
				<DataArray type="Float32" Name="Scalars_" format="ascii" RangeMin="0" RangeMax="100">
299.413
294.281
289.31
284.507
279.881
275.441
271.197
267.157
263.333
259.735
256.373
253.259
250.405
247.822
245.523
243.52
241.829
240.464
239.448
238.814
239.448
240.464
241.829
243.52
245.523
247.822
250.405
253.259
256.373
259.735
263.333
267.157
271.197
275.441
279.881
284.507
289.31
294.281
299.413
304.696
310.124
315.689
321.385
327.205
333.143
339.193
345.35
351.608
357.962
364.408
370.941
377.558
384.253
391.023
294.281
289.068
284.015
279.131
274.423
269.903
265.579
261.461
257.56
253.888
250.455
247.273
244.355
241.712
239.358
237.307
235.574
234.175
233.133
232.482
233.133
234.175
235.574
237.307
239.358
241.712
244.355
247.273
250.455
253.888
257.56
261.461
265.579
269.903
274.423
279.131
284.015
289.068
294.281
299.646
305.155
310.8
316.576
322.474
328.489
334.616
340.847
347.179
353.606
360.123
366.726
373.41
380.172
387.008
289.31
284.015
278.88
273.913
269.124
264.522
260.118
255.921
251.943
248.195
244.69
241.439
238.455
235.751
233.342
231.241
229.465
228.031
226.961
226.294
226.961
228.031
229.465
231.241
233.342
235.751
238.455
241.439
244.69
248.195
251.943
255.921
260.118
264.522
269.124
273.913
278.88
284.015
289.31
294.756
300.346
306.071
311.926
317.902
323.994
330.196
336.502
342.906
349.405
355.992
362.664
369.415
376.243
383.144
284.507
279.131
273.913
268.864
263.993
259.309
254.824
250.547
246.491
242.667
239.088
235.766
232.716
229.951
227.484
225.333
223.512
222.042
220.944
220.259
220.944
222.042
223.512
225.333
227.484
229.951
232.716
235.766
239.088
242.667
246.491
250.547
254.824
259.309
263.993
268.864
273.913
279.131
284.507
290.035
295.704
301.509
307.442
313.496
319.664
325.94
332.32
338.796
345.365
352.021
358.761
365.578
372.471
379.434
279.881
274.423
269.124
263.993
259.039
254.274
249.707
245.35
241.215
237.314
233.661
230.268
227.15
224.321
221.797
219.594
217.728
216.22
215.094
214.391
215.094
216.22
217.728
219.594
221.797
224.321
227.15
230.268
233.661
237.314
241.215
245.35
249.707
254.274
259.039
263.993
269.124
274.423
279.881
285.489
291.239
297.123
303.133
309.263
315.506
321.856
328.308
334.855
341.493
348.217
355.022
361.905
368.86
375.886
275.441
269.903
264.522
259.309
254.274
249.426
244.778
240.341
236.126
232.148
228.42
224.955
221.769
218.876
216.293
214.037
212.125
210.579
209.424
208.703
209.424
210.579
212.125
214.037
216.293
218.876
221.769
224.955
228.42
232.148
236.126
240.341
244.778
249.426
254.274
259.309
264.522
269.903
275.441
281.129
286.958
292.919
299.006
305.211
311.528
317.95
324.472
331.089
337.795
344.585
351.454
358.4
365.417
372.502
271.197
265.579
260.118
254.824
249.707
244.778
240.049
235.531
231.238
227.182
223.379
219.841
216.586
213.629
210.986
208.676
206.718
205.133
203.948
203.208
203.948
205.133
206.718
208.676
210.986
213.629
216.586
219.841
223.379
227.182
231.238
235.531
240.049
244.778
249.707
254.824
260.118
265.579
271.197
276.963
282.869
288.907
295.069
301.347
307.736
314.229
320.821
327.505
334.276
341.131
348.063
355.07
362.147
369.29
267.157
261.461
255.921
250.547
245.35
240.341
235.531
230.934
226.562
222.429
218.55
214.94
211.616
208.593
205.891
203.526
201.521
199.896
198.682
197.922
198.682
199.896
201.521
203.526
205.891
208.593
211.616
214.94
218.55
222.429
226.562
230.934
235.531
240.341
245.35
250.547
255.921
261.461
267.157
273.001
278.983
285.095
291.33
297.681
304.14
310.701
317.36
324.109
330.944
337.861
344.854
351.92
359.054
366.253
263.333
257.56
251.943
246.491
241.215
236.126
231.238
226.562
222.112
217.902
213.949
210.267
206.873
203.786
201.023
198.604
196.551
194.887
193.641
192.862
193.641
194.887
196.551
198.604
201.023
203.786
206.873
210.267
213.949
217.902
222.112
226.562
231.238
236.126
241.215
246.491
251.943
257.56
263.333
269.252
275.308
281.493
287.799
294.219
300.746
307.374
314.097
320.909
327.806
334.782
341.834
348.956
356.145
363.398
259.735
253.888
248.195
242.667
237.314
232.148
227.182
222.429
217.902
213.617
209.59
205.836
202.374
199.222
196.399
193.926
191.825
190.121
188.845
188.046
188.845
190.121
191.825
193.926
196.399
199.222
202.374
205.836
209.59
213.617
217.902
222.429
227.182
232.148
237.314
242.667
248.195
253.888
259.735
265.727
271.854
278.109
284.483
290.97
297.562
304.254
311.039
317.912
324.867
331.901
339.008
346.184
353.426
360.729
256.373
250.455
244.69
239.088
233.661
228.42
223.379
218.55
213.949
209.59
205.49
201.666
198.137
194.92
192.038
189.511
187.362
185.619
184.312
183.494
184.312
185.619
187.362
189.511
192.038
194.92
198.137
201.666
205.49
209.59
213.949
218.55
223.379
228.42
233.661
239.088
244.69
250.455
256.373
262.435
268.631
274.953
281.393
287.943
294.598
301.35
308.194
315.124
322.135
329.223
336.382
343.61
350.901
358.253
253.259
247.273
241.439
235.766
230.268
224.955
219.841
214.94
210.267
205.836
201.666
197.774
194.178
190.9
187.959
185.379
183.184
181.401
180.064
179.226
180.064
181.401
183.184
185.379
187.959
190.9
194.178
197.774
201.666
205.836
210.267
214.94
219.841
224.955
230.268
235.766
241.439
247.273
253.259
259.388
265.649
272.034
278.536
285.147
291.86
298.67
305.569
312.553
319.617
326.755
333.964
341.24
348.577
355.974
250.405
244.355
238.455
232.716
227.15
221.769
216.586
211.616
206.873
202.374
198.137
194.178
190.519
187.18
184.183
181.551
179.311
177.489
176.123
175.266
176.123
177.489
179.311
181.551
184.183
187.18
190.519
194.178
198.137
202.374
206.873
211.616
216.586
221.769
227.15
232.716
238.455
244.355
250.405
256.596
262.918
269.363
275.923
282.591
289.359
296.222
303.173
310.207
317.32
324.505
331.76
339.08
346.46
353.899
247.822
241.712
235.751
229.951
224.321
218.876
213.629
208.593
203.786
199.222
194.92
190.9
187.18
183.784
180.732
178.051
175.767
173.908
172.513
171.637
172.513
173.908
175.767
178.051
180.732
183.784
187.18
190.9
194.92
199.222
203.786
208.593
213.629
218.876
224.321
229.951
235.751
241.712
247.822
254.071
260.45
266.95
273.564
280.283
287.102
294.014
301.013
308.093
315.25
322.479
329.776
337.136
344.556
352.033
245.523
239.358
233.342
227.484
221.797
216.293
210.986
205.891
201.023
196.399
192.038
187.959
184.183
180.732
177.63
174.903
172.577
170.683
169.261
168.367
169.261
170.683
172.577
174.903
177.63
180.732
184.183
187.959
192.038
196.399
201.023
205.891
210.986
216.293
221.797
227.484
233.342
239.358
245.523
251.825
258.255
264.806
271.468
278.235
285.1
292.056
299.098
306.22
313.417
320.685
328.019
335.416
342.871
350.382
243.52
237.307
231.241
225.333
219.594
214.037
208.676
203.526
198.604
193.926
189.511
185.379
181.551
178.051
174.903
172.132
169.768
167.842
166.394
165.484
166.394
167.842
169.768
172.132
174.903
178.051
181.551
185.379
189.511
193.926
198.604
203.526
208.676
214.037
219.594
225.333
231.241
237.307
243.52
249.869
256.346
262.941
269.646
276.455
283.36
290.356
297.435
304.594
311.827
319.129
326.497
333.925
341.412
348.952
241.829
235.574
229.465
223.512
217.728
212.125
206.718
201.521
196.551
191.825
187.362
183.184
179.311
175.767
172.577
169.768
167.369
165.415
163.944
163.019
163.944
165.415
167.369
169.768
172.577
175.767
179.311
183.184
187.362
191.825
196.551
201.521
206.718
212.125
217.728
223.512
229.465
235.574
241.829
248.219
254.735
261.368
268.111
274.955
281.895
288.924
296.036
303.226
310.49
317.821
325.217
332.673
340.185
347.751
240.464
234.175
228.031
222.042
216.22
210.579
205.133
199.896
194.887
190.121
185.619
181.401
177.489
173.908
170.683
167.842
165.415
163.435
161.945
161.008
161.945
163.435
165.415
167.842
170.683
173.908
177.489
181.401
185.619
190.121
194.887
199.896
205.133
210.579
216.22
222.042
228.031
234.175
240.464
246.888
253.436
260.101
266.874
273.748
280.716
287.773
294.911
302.127
309.415
316.77
324.189
331.667
339.201
346.788
239.448
233.133
226.961
220.944
215.094
209.424
203.948
198.682
193.641
188.845
184.312
180.064
176.123
172.513
169.261
166.394
163.944
161.945
160.44
159.493
160.44
161.945
163.944
166.394
169.261
172.513
176.123
180.064
184.312
188.845
193.641
198.682
203.948
209.424
215.094
220.944
226.961
233.133
239.448
245.897
252.47
259.158
265.954
272.85
279.84
286.917
294.076
301.311
308.617
315.99
323.426
330.921
338.471
346.073
238.814
232.482
226.294
220.259
214.391
208.703
203.208
197.922
192.862
188.046
183.494
179.226
175.266
171.637
168.367
165.484
163.019
161.008
159.493
158.538
159.493
161.008
163.019
165.484
168.367
171.637
175.266
179.226
183.494
188.046
192.862
197.922
203.208
208.703
214.391
220.259
226.294
232.482
238.814
245.279
251.868
258.571
265.382
272.292
279.295
286.385
293.556
300.803
308.121
315.505
322.952
330.457
338.017
345.629
239.448
233.133
226.961
220.944
215.094
209.424
203.948
198.682
193.641
188.845
184.312
180.064
176.123
172.513
169.261
166.394
163.944
161.945
160.44
159.493
160.44
161.945
163.944
166.394
169.261
172.513
176.123
180.064
184.312
188.845
193.641
198.682
203.948
209.424
215.094
220.944
226.961
233.133
239.448
245.897
252.47
259.158
265.954
272.85
279.84
286.917
294.076
301.311
308.617
315.99
323.426
330.921
338.471
346.073
240.464
234.175
228.031
222.042
216.22
210.579
205.133
199.896
194.887
190.121
185.619
181.401
177.489
173.908
170.683
167.842
165.415
163.435
161.945
161.008
161.945
163.435
165.415
167.842
170.683
173.908
177.489
181.401
185.619
190.121
194.887
199.896
205.133
210.579
216.22
222.042
228.031
234.175
240.464
246.888
253.436
260.101
266.874
273.748
280.716
287.773
294.911
302.127
309.415
316.77
324.189
331.667
339.201
346.788
241.829
235.574
229.465
223.512
217.728
212.125
206.718
201.521
196.551
191.825
187.362
183.184
179.311
175.767
172.577
169.768
167.369
165.415
163.944
163.019
163.944
165.415
167.369
169.768
172.577
175.767
179.311
183.184
187.362
191.825
196.551
201.521
206.718
212.125
217.728
223.512
229.465
235.574
241.829
248.219
254.735
261.368
268.111
274.955
281.895
288.924
296.036
303.226
310.49
317.821
325.217
332.673
340.185
347.751
243.52
237.307
231.241
225.333
219.594
214.037
208.676
203.526
198.604
193.926
189.511
185.379
181.551
178.051
174.903
172.132
169.768
167.842
166.394
165.484
166.394
167.842
169.768
172.132
174.903
178.051
181.551
185.379
189.511
193.926
198.604
203.526
208.676
214.037
219.594
225.333
231.241
237.307
243.52
249.869
256.346
262.941
269.646
276.455
283.36
290.356
297.435
304.594
311.827
319.129
326.497
333.925
341.412
348.952
245.523
239.358
233.342
227.484
221.797
216.293
210.986
205.891
201.023
196.399
192.038
187.959
184.183
180.732
177.63
174.903
172.577
170.683
169.261
168.367
169.261
170.683
172.577
174.903
177.63
180.732
184.183
187.959
192.038
196.399
201.023
205.891
210.986
216.293
221.797
227.484
233.342
239.358
245.523
251.825
258.255
264.806
271.468
278.235
285.1
292.056
299.098
306.22
313.417
320.685
328.019
335.416
342.871
350.382
247.822
241.712
235.751
229.951
224.321
218.876
213.629
208.593
203.786
199.222
194.92
190.9
187.18
183.784
180.732
178.051
175.767
173.908
172.513
171.637
172.513
173.908
175.767
178.051
180.732
183.784
187.18
190.9
194.92
199.222
203.786
208.593
213.629
218.876
224.321
229.951
235.751
241.712
247.822
254.071
260.45
266.95
273.564
280.283
287.102
294.014
301.013
308.093
315.25
322.479
329.776
337.136
344.556
352.033
250.405
244.355
238.455
232.716
227.15
221.769
216.586
211.616
206.873
202.374
198.137
194.178
190.519
187.18
184.183
181.551
179.311
177.489
176.123
175.266
176.123
177.489
179.311
181.551
184.183
187.18
190.519
194.178
198.137
202.374
206.873
211.616
216.586
221.769
227.15
232.716
238.455
244.355
250.405
256.596
262.918
269.363
275.923
282.591
289.359
296.222
303.173
310.207
317.32
324.505
331.76
339.08
346.46
353.899
253.259
247.273
241.439
235.766
230.268
224.955
219.841
214.94
210.267
205.836
201.666
197.774
194.178
190.9
187.959
185.379
183.184
181.401
180.064
179.226
180.064
181.401
183.184
185.379
187.959
190.9
194.178
197.774
201.666
205.836
210.267
214.94
219.841
224.955
230.268
235.766
241.439
247.273
253.259
259.388
265.649
272.034
278.536
285.147
291.86
298.67
305.569
312.553
319.617
326.755
333.964
341.24
348.577
355.974
256.373
250.455
244.69
239.088
233.661
228.42
223.379
218.55
213.949
209.59
205.49
201.666
198.137
194.92
192.038
189.511
187.362
185.619
184.312
183.494
184.312
185.619
187.362
189.511
192.038
194.92
198.137
201.666
205.49
209.59
213.949
218.55
223.379
228.42
233.661
239.088
244.69
250.455
256.373
262.435
268.631
274.953
281.393
287.943
294.598
301.35
308.194
315.124
322.135
329.223
336.382
343.61
350.901
358.253
259.735
253.888
248.195
242.667
237.314
232.148
227.182
222.429
217.902
213.617
209.59
205.836
202.374
199.222
196.399
193.926
191.825
190.121
188.845
188.046
188.845
190.121
191.825
193.926
196.399
199.222
202.374
205.836
209.59
213.617
217.902
222.429
227.182
232.148
237.314
242.667
248.195
253.888
259.735
265.727
271.854
278.109
284.483
290.97
297.562
304.254
311.039
317.912
324.867
331.901
339.008
346.184
353.426
360.729
263.333
257.56
251.943
246.491
241.215
236.126
231.238
226.562
222.112
217.902
213.949
210.267
206.873
203.786
201.023
198.604
196.551
194.887
193.641
192.862
193.641
194.887
196.551
198.604
201.023
203.786
206.873
210.267
213.949
217.902
222.112
226.562
231.238
236.126
241.215
246.491
251.943
257.56
263.333
269.252
275.308
281.493
287.799
294.219
300.746
307.374
314.097
320.909
327.806
334.782
341.834
348.956
356.145
363.398
267.157
261.461
255.921
250.547
245.35
240.341
235.531
230.934
226.562
222.429
218.55
214.94
211.616
208.593
205.891
203.526
201.521
199.896
198.682
197.922
198.682
199.896
201.521
203.526
205.891
208.593
211.616
214.94
218.55
222.429
226.562
230.934
235.531
240.341
245.35
250.547
255.921
261.461
267.157
273.001
278.983
285.095
291.33
297.681
304.14
310.701
317.36
324.109
330.944
337.861
344.854
351.92
359.054
366.253
271.197
265.579
260.118
254.824
249.707
244.778
240.049
235.531
231.238
227.182
223.379
219.841
216.586
213.629
210.986
208.676
206.718
205.133
203.948
203.208
203.948
205.133
206.718
208.676
210.986
213.629
216.586
219.841
223.379
227.182
231.238
235.531
240.049
244.778
249.707
254.824
260.118
265.579
271.197
276.963
282.869
288.907
295.069
301.347
307.736
314.229
320.821
327.505
334.276
341.131
348.063
355.07
362.147
369.29
275.441
269.903
264.522
259.309
254.274
249.426
244.778
240.341
236.126
232.148
228.42
224.955
221.769
218.876
216.293
214.037
212.125
210.579
209.424
208.703
209.424
210.579
212.125
214.037
216.293
218.876
221.769
224.955
228.42
232.148
236.126
240.341
244.778
249.426
254.274
259.309
264.522
269.903
275.441
281.129
286.958
292.919
299.006
305.211
311.528
317.95
324.472
331.089
337.795
344.585
351.454
358.4
365.417
372.502
279.881
274.423
269.124
263.993
259.039
254.274
249.707
245.35
241.215
237.314
233.661
230.268
227.15
224.321
221.797
219.594
217.728
216.22
215.094
214.391
215.094
216.22
217.728
219.594
221.797
224.321
227.15
230.268
233.661
237.314
241.215
245.35
249.707
254.274
259.039
263.993
269.124
274.423
279.881
285.489
291.239
297.123
303.133
309.263
315.506
321.856
328.308
334.855
341.493
348.217
355.022
361.905
368.86
375.886
284.507
279.131
273.913
268.864
263.993
259.309
254.824
250.547
246.491
242.667
239.088
235.766
232.716
229.951
227.484
225.333
223.512
222.042
220.944
220.259
220.944
222.042
223.512
225.333
227.484
229.951
232.716
235.766
239.088
242.667
246.491
250.547
254.824
259.309
263.993
268.864
273.913
279.131
284.507
290.035
295.704
301.509
307.442
313.496
319.664
325.94
332.32
338.796
345.365
352.021
358.761
365.578
372.471
379.434
289.31
284.015
278.88
273.913
269.124
264.522
260.118
255.921
251.943
248.195
244.69
241.439
238.455
235.751
233.342
231.241
229.465
228.031
226.961
226.294
226.961
228.031
229.465
231.241
233.342
235.751
238.455
241.439
244.69
248.195
251.943
255.921
260.118
264.522
269.124
273.913
278.88
284.015
289.31
294.756
300.346
306.071
311.926
317.902
323.994
330.196
336.502
342.906
349.405
355.992
362.664
369.415
376.243
383.144
294.281
289.068
284.015
279.131
274.423
269.903
265.579
261.461
257.56
253.888
250.455
247.273
244.355
241.712
239.358
237.307
235.574
234.175
233.133
232.482
233.133
234.175
235.574
237.307
239.358
241.712
244.355
247.273
250.455
253.888
257.56
261.461
265.579
269.903
274.423
279.131
284.015
289.068
294.281
299.646
305.155
310.8
316.576
322.474
328.489
334.616
340.847
347.179
353.606
360.123
366.726
373.41
380.172
387.008
299.413
294.281
289.31
284.507
279.881
275.441
271.197
267.157
263.333
259.735
256.373
253.259
250.405
247.822
245.523
243.52
241.829
240.464
239.448
238.814
239.448
240.464
241.829
243.52
245.523
247.822
250.405
253.259
256.373
259.735
263.333
267.157
271.197
275.441
279.881
284.507
289.31
294.281
299.413
304.696
310.124
315.689
321.385
327.205
333.143
339.193
345.35
351.608
357.962
364.408
370.941
377.558
384.253
391.023
304.696
299.646
294.756
290.035
285.489
281.129
276.963
273.001
269.252
265.727
262.435
259.388
256.596
254.071
251.825
249.869
248.219
246.888
245.897
245.279
245.897
246.888
248.219
249.869
251.825
254.071
256.596
259.388
262.435
265.727
269.252
273.001
276.963
281.129
285.489
290.035
294.756
299.646
304.696
309.898
315.245
320.73
326.347
332.088
337.949
343.922
350.003
356.187
362.468
368.842
375.305
381.852
388.48
395.184
310.124
305.155
300.346
295.704
291.239
286.958
282.869
278.983
275.308
271.854
268.631
265.649
262.918
260.45
258.255
256.346
254.735
253.436
252.47
251.868
252.47
253.436
254.735
256.346
258.255
260.45
262.918
265.649
268.631
271.854
275.308
278.983
282.869
286.958
291.239
295.704
300.346
305.155
310.124
315.245
320.512
325.917
331.454
337.117
342.899
348.796
354.802
360.911
367.118
373.42
379.812
386.289
392.848
399.485
315.689
310.8
306.071
301.509
297.123
292.919
288.907
285.095
281.493
278.109
274.953
272.034
269.363
266.95
264.806
262.941
261.368
260.101
259.158
258.571
259.158
260.101
261.368
262.941
264.806
266.95
269.363
272.034
274.953
278.109
281.493
285.095
288.907
292.919
297.123
301.509
306.071
310.8
315.689
320.73
325.917
331.242
336.7
342.285
347.99
353.809
359.739
365.773
371.907
378.136
384.457
390.864
397.353
403.922
321.385
316.576
311.926
307.442
303.133
299.006
295.069
291.33
287.799
284.483
281.393
278.536
275.923
273.564
271.468
269.646
268.111
266.874
265.954
265.382
265.954
266.874
268.111
269.646
271.468
273.564
275.923
278.536
281.393
284.483
287.799
291.33
295.069
299.006
303.133
307.442
311.926
316.576
321.385
326.347
331.454
336.7
342.08
347.586
353.213
358.956
364.81
370.769
376.829
382.986
389.234
395.57
401.991
408.491
327.205
322.474
317.902
313.496
309.263
305.211
301.347
297.681
294.219
290.97
287.943
285.147
282.591
280.283
278.235
276.455
274.955
273.748
272.85
272.292
272.85
273.748
274.955
276.455
278.235
280.283
282.591
285.147
287.943
290.97
294.219
297.681
301.347
305.211
309.263
313.496
317.902
322.474
327.205
332.088
337.117
342.285
347.586
353.014
358.564
364.231
370.009
375.893
381.879
387.963
394.139
400.405
406.756
413.188
333.143
328.489
323.994
319.664
315.506
311.528
307.736
304.14
300.746
297.562
294.598
291.86
289.359
287.102
285.1
283.36
281.895
280.716
279.84
279.295
279.84
280.716
281.895
283.36
285.1
287.102
289.359
291.86
294.598
297.562
300.746
304.14
307.736
311.528
315.506
319.664
323.994
328.489
333.143
337.949
342.899
347.99
353.213
358.564
364.038
369.628
375.331
381.141
387.053
393.064
399.168
405.363
411.643
418.007
339.193
334.616
330.196
325.94
321.856
317.95
314.229
310.701
307.374
304.254
301.35
298.67
296.222
294.014
292.056
290.356
288.924
287.773
286.917
286.385
286.917
287.773
288.924
290.356
292.056
294.014
296.222
298.67
301.35
304.254
307.374
310.701
314.229
317.95
321.856
325.94
330.196
334.616
339.193
343.922
348.796
353.809
358.956
364.231
369.628
375.143
380.771
386.506
392.345
398.283
404.316
410.439
416.65
422.944
345.35
340.847
336.502
332.32
328.308
324.472
320.821
317.36
314.097
311.039
308.194
305.569
303.173
301.013
299.098
297.435
296.036
294.911
294.076
293.556
294.076
294.911
296.036
297.435
299.098
301.013
303.173
305.569
308.194
311.039
314.097
317.36
320.821
324.472
328.308
332.32
336.502
340.847
345.35
350.003
354.802
359.739
364.81
370.009
375.331
380.771
386.324
391.985
397.751
403.616
409.577
415.63
421.771
427.997
351.608
347.179
342.906
338.796
334.855
331.089
327.505
324.109
320.909
317.912
315.124
312.553
310.207
308.093
306.22
304.594
303.226
302.127
301.311
300.803
301.311
302.127
303.226
304.594
306.22
308.093
310.207
312.553
315.124
317.912
320.909
324.109
327.505
331.089
334.855
338.796
342.906
347.179
351.608
356.187
360.911
365.773
370.769
375.893
381.141
386.506
391.985
397.574
403.266
409.06
414.949
420.932
427.003
433.159
357.962
353.606
349.405
345.365
341.493
337.795
334.276
330.944
327.806
324.867
322.135
319.617
317.32
315.25
313.417
311.827
310.49
309.415
308.617
308.121
308.617
309.415
310.49
311.827
313.417
315.25
317.32
319.617
322.135
324.867
327.806
330.944
334.276
337.795
341.493
345.365
349.405
353.606
357.962
362.468
367.118
371.907
376.829
381.879
387.053
392.345
397.751
403.266
408.887
414.608
420.427
426.339
432.341
438.429
364.408
360.123
355.992
352.021
348.217
344.585
341.131
337.861
334.782
331.901
329.223
326.755
324.505
322.479
320.685
319.129
317.821
316.77
315.99
315.505
315.99
316.77
317.821
319.129
320.685
322.479
324.505
326.755
329.223
331.901
334.782
337.861
341.131
344.585
348.217
352.021
355.992
360.123
364.408
368.842
373.42
378.136
382.986
387.963
393.064
398.283
403.616
409.06
414.608
420.259
426.007
431.85
437.782
443.802
370.941
366.726
362.664
358.761
355.022
351.454
348.063
344.854
341.834
339.008
336.382
333.964
331.76
329.776
328.019
326.497
325.217
324.189
323.426
322.952
323.426
324.189
325.217
326.497
328.019
329.776
331.76
333.964
336.382
339.008
341.834
344.854
348.063
351.454
355.022
358.761
362.664
366.726
370.941
375.305
379.812
384.457
389.234
394.139
399.168
404.316
409.577
414.949
420.427
426.007
431.686
437.459
443.323
449.274
377.558
373.41
369.415
365.578
361.905
358.4
355.07
351.92
348.956
346.184
343.61
341.24
339.08
337.136
335.416
333.925
332.673
331.667
330.921
330.457
330.921
331.667
332.673
333.925
335.416
337.136
339.08
341.24
343.61
346.184
348.956
351.92
355.07
358.4
361.905
365.578
369.415
373.41
377.558
381.852
386.289
390.864
395.57
400.405
405.363
410.439
415.63
420.932
426.339
431.85
437.459
443.163
448.958
454.843
384.253
380.172
376.243
372.471
368.86
365.417
362.147
359.054
356.145
353.426
350.901
348.577
346.46
344.556
342.871
341.412
340.185
339.201
338.471
338.017
338.471
339.201
340.185
341.412
342.871
344.556
346.46
348.577
350.901
353.426
356.145
359.054
362.147
365.417
368.86
372.471
376.243
380.172
384.253
388.48
392.848
397.353
401.991
406.756
411.643
416.65
421.771
427.003
432.341
437.782
443.323
448.958
454.687
460.503
391.023
387.008
383.144
379.434
375.886
372.502
369.29
366.253
363.398
360.729
358.253
355.974
353.899
352.033
350.382
348.952
347.751
346.788
346.073
345.629
346.073
346.788
347.751
348.952
350.382
352.033
353.899
355.974
358.253
360.729
363.398
366.253
369.29
372.502
375.886
379.434
383.144
387.008
391.023
395.184
399.485
403.922
408.491
413.188
418.007
422.944
427.997
433.159
438.429
443.802
449.274
454.843
460.503
466.254
397.865
393.914
390.113
386.465
382.976
379.652
376.496
373.513
370.71
368.091
365.661
363.426
361.392
359.562
357.944
356.544
355.367
354.424
353.724
353.289
353.724
354.424
355.367
356.544
357.944
359.562
361.392
363.426
365.661
368.091
370.71
373.513
376.496
379.652
382.976
386.465
390.113
393.914
397.865
401.961
406.196
410.567
415.069
419.698
424.449
429.319
434.303
439.398
444.6
449.905
455.31
460.812
466.406
472.09
404.776
400.887
397.147
393.56
390.13
386.862
383.761
380.832
378.079
375.508
373.124
370.931
368.936
367.142
365.556
364.183
363.031
362.106
361.421
360.996
361.421
362.106
363.031
364.183
365.556
367.142
368.936
370.931
373.124
375.508
378.079
380.832
383.761
386.862
390.13
393.56
397.147
400.887
404.776
408.807
412.978
417.284
421.72
426.282
430.967
435.77
440.687
445.715
450.851
456.089
461.428
466.863
472.391
478.01
411.751
407.924
404.244
400.716
397.343
394.131
391.083
388.206
385.502
382.978
380.638
378.486
376.528
374.769
373.214
371.868
370.739
369.833
369.161
368.745
369.161
369.833
370.739
371.868
373.214
374.769
376.528
378.486
380.638
382.978
385.502
388.206
391.083
394.131
397.343
400.716
404.244
407.924
411.751
415.72
419.828
424.07
428.441
432.938
437.558
442.295
447.146
452.108
457.178
462.35
467.623
472.993
478.456
484.011
294.52
289.31
284.261
279.38
274.676
270.159
265.838
261.724
257.826
254.157
250.727
247.548
244.632
241.992
239.641
237.592
235.861
234.463
233.422
232.772
233.422
234.463
235.861
237.592
239.641
241.992
244.632
247.548
250.727
254.157
257.826
261.724
265.838
270.159
274.676
279.38
284.261
289.31
294.52
299.881
305.386
311.028
316.8
322.695
328.706
334.829
341.058
347.386
353.81
360.324
366.923
373.605
380.364
387.197
289.31
284.015
278.88
273.913
269.124
264.522
260.118
255.921
251.943
248.195
244.69
241.439
238.455
235.751
233.342
231.241
229.465
228.031
226.961
226.294
226.961
228.031
229.465
231.241
233.342
235.751
238.455
241.439
244.69
248.195
251.943
255.921
260.118
264.522
269.124
273.913
278.88
284.015
289.31
294.756
300.346
306.071
311.926
317.902
323.994
330.196
336.502
342.906
349.405
355.992
362.664
369.415
376.243
383.144
284.261
278.88
273.659
268.606
263.73
259.043
254.553
250.273
246.213
242.386
238.803
235.478
232.425
229.656
227.188
225.034
223.211
221.739
220.64
219.954
220.64
221.739
223.211
225.034
227.188
229.656
232.425
235.478
238.803
242.386
246.213
250.273
254.553
259.043
263.73
268.606
273.659
278.88
284.261
289.792
295.466
301.275
307.211
313.268
319.44
325.721
332.103
338.584
345.156
351.815
358.558
365.379
372.275
379.241
279.38
273.913
268.606
263.466
258.504
253.73
249.155
244.79
240.648
236.739
233.078
229.679
226.554
223.719
221.189
218.981
217.111
215.599
214.47
213.766
214.47
215.599
217.111
218.981
221.189
223.719
226.554
229.679
233.078
236.739
240.648
244.79
249.155
253.73
258.504
263.466
268.606
273.913
279.38
284.996
290.754
296.645
302.664
308.801
315.052
321.41
327.869
334.424
341.069
347.8
354.612
361.501
368.464
375.495
274.676
269.124
263.73
258.504
253.456
248.595
243.934
239.484
235.257
231.267
227.527
224.051
220.854
217.951
215.359
213.094
211.176
209.624
208.464
207.74
208.464
209.624
211.176
213.094
215.359
217.951
220.854
224.051
227.527
231.267
235.257
239.484
243.934
248.595
253.456
258.504
263.73
269.124
274.676
280.377
286.218
292.192
298.291
304.508
310.837
317.272
323.806
330.434
337.15
343.951
350.832
357.788
364.815
371.91
270.159
264.522
259.043
253.73
248.595
243.648
238.9
234.365
230.054
225.981
222.161
218.607
215.337
212.365
209.71
207.388
205.419
203.826
202.635
201.89
202.635
203.826
205.419
207.388
209.71
212.365
215.337
218.607
222.161
225.981
230.054
234.365
238.9
243.648
248.595
253.73
259.043
264.522
270.159
275.943
281.867
287.922
294.102
300.397
306.803
313.312
319.92
326.62
333.407
340.276
347.223
354.244
361.335
368.492
265.838
260.118
254.553
249.155
243.934
238.9
234.067
229.446
225.05
220.894
216.993
213.362
210.017
206.976
204.256
201.876
199.856
198.221
196.997
196.232
196.997
198.221
199.856
201.876
204.256
206.976
210.017
213.362
216.993
220.894
225.05
229.446
234.067
238.9
243.934
249.155
254.553
260.118
265.838
271.705
277.71
283.846
290.103
296.476
302.957
309.54
316.219
322.989
329.844
336.78
343.792
350.876
358.029
365.245
261.724
255.921
250.273
244.79
239.484
234.365
229.446
224.739
220.259
216.021
212.039
208.329
204.91
201.798
199.012
196.573
194.502
192.824
191.567
190.781
191.567
192.824
194.502
196.573
199.012
201.798
204.91
208.329
212.039
216.021
220.259
224.739
229.446
234.365
239.484
244.79
250.273
255.921
261.724
267.672
273.757
279.971
286.305
292.752
299.307
305.961
312.71
319.548
326.469
333.47
340.545
347.69
354.902
362.176
257.826
251.943
246.213
240.648
235.257
230.054
225.05
220.259
215.696
211.375
207.312
203.525
200.03
196.847
193.996
191.498
189.374
187.652
186.362
185.554
186.362
187.652
189.374
191.498
193.996
196.847
200.03
203.525
207.312
211.375
215.696
220.259
225.05
230.054
235.257
240.648
246.213
251.943
257.826
263.854
270.017
276.307
282.715
289.236
295.861
302.584
309.401
316.304
323.289
330.352
337.487
344.691
351.96
359.289
254.157
248.195
242.386
236.739
231.267
225.981
220.894
216.021
211.375
206.972
202.83
198.964
195.395
192.142
189.225
186.667
184.491
182.725
181.401
180.571
181.401
182.725
184.491
186.667
189.225
192.142
195.395
198.964
202.83
206.972
211.375
216.021
220.894
225.981
231.267
236.739
242.386
248.195
254.157
260.262
266.5
272.863
279.344
285.934
292.628
299.418
306.298
313.265
320.311
327.433
334.626
341.886
349.208
356.591
250.727
244.69
238.803
233.078
227.527
222.161
216.993
212.039
207.312
202.83
198.608
194.667
191.024
187.701
184.718
182.101
179.873
178.062
176.704
175.852
176.704
178.062
179.873
182.101
184.718
187.701
191.024
194.667
198.608
202.83
207.312
212.039
216.993
222.161
227.527
233.078
238.803
244.69
250.727
256.906
263.216
269.65
276.2
282.857
289.615
296.469
303.411
310.437
317.542
324.72
331.967
339.28
346.654
354.086
247.548
241.439
235.478
229.679
224.051
218.607
213.362
208.329
203.525
198.964
194.667
190.65
186.935
183.543
180.497
177.82
175.54
173.686
172.295
171.421
172.295
173.686
175.54
177.82
180.497
183.543
186.935
190.65
194.667
198.964
203.525
208.329
213.362
218.607
224.051
229.679
235.478
241.439
247.548
253.797
260.177
266.678
273.292
280.013
286.833
293.746
300.747
307.829
314.988
322.219
329.518
336.88
344.302
351.781
244.632
238.455
232.425
226.554
220.854
215.337
210.017
204.91
200.03
195.395
191.024
186.935
183.151
179.692
176.583
173.849
171.518
169.621
168.196
167.301
168.196
169.621
171.518
173.849
176.583
179.692
183.151
186.935
191.024
195.395
200.03
204.91