<VTKFile type="ImageData" version="1.0" byte_order="LittleEndian" header_type="UInt64">
	<ImageData WholeExtent="0 53 0 56 0 51" Origin="-231.932 -223.885 -225.521" Spacing="8.75213 8.76086 8.84397">
		<Piece Extent="0 53 0 56 0 51">
			<PointData Scalars="Scalars_">
				<DataArray type="Float32" Name="Scalars_" format="ascii" RangeMin="0" RangeMax="100">
341.591
336.777
332.107
327.588
323.224
319.022
314.987
311.125
307.442
303.943
300.634
297.521
294.609
291.902
289.406
287.126
285.066
283.233
281.634
280.276
279.173
278.343
277.82
278.343
279.186
280.32
281.732
283.384
284.787
284.702
284.702
284.702
285.214
286.039
287.15
288.534
290.178
292.075
294.216
296.592
299.196
302.021
305.058
308.301
311.742
315.375
319.192
323.186
327.35
331.679
336.166
340.805
345.589
350.513
337.049
332.175
327.445
322.865
318.442
314.181
310.088
306.169
302.43
298.877
295.516
292.351
289.39
286.637
284.097
281.776
279.679
277.812
276.182
274.798
273.673
272.826
272.292
272.826
273.686
274.843
276.282
277.965
279.389
279.295
279.295
279.295
279.817
280.658
281.79
283.2
284.874
286.805
288.983
291.4
294.048
296.919
300.005
303.299
306.793
310.479
314.351
318.402
322.624
327.011
331.556
336.253
341.096
346.079
332.665
327.73
322.941
318.302
313.819
309.499
305.349
301.373
297.578
293.97
290.556
287.341
284.331
281.531
278.947
276.585
274.45
272.548
270.887
269.476
268.329
267.466
266.921
267.466
268.342
269.522
270.989
272.704
274.15
274.046
274.046
274.046
274.578
275.435
276.589
278.024
279.729
281.694
283.91
286.368
289.06
291.977
295.112
298.456
302.003
305.743
309.67
313.777
318.056
322.5
327.103
331.859
336.76
341.801
328.445
323.451
318.602
313.904
309.363
304.985
300.777
296.744
292.894
289.232
285.765
282.499
279.44
276.593
273.965
271.561
269.388
267.451
265.759
264.322
263.152
262.272
261.716
262.272
263.166
264.368
265.863
267.61
269.077
268.963
268.963
268.963
269.506
270.379
271.554
273.015
274.75
276.75
279.004
281.503
284.239
287.203
290.386
293.781
297.38
301.174
305.156
309.319
313.654
318.156
322.816
327.629
332.588
337.687
324.395
319.343
314.436
309.68
305.08
300.645
296.38
292.291
288.385
284.67
281.15
277.833
274.725
271.832
269.16
266.715
264.503
262.531
260.808
259.343
258.152
257.254
256.687
257.254
258.165
259.391
260.914
262.693
264.181
264.057
264.057
264.057
264.61
265.499
266.695
268.183
269.949
271.982
274.274
276.814
279.594
282.605
285.837
289.282
292.933
296.78
300.817
305.034
309.426
313.983
318.7
323.57
328.586
333.741
320.523
315.414
310.449
305.636
300.98
296.488
292.166
288.022
284.062
280.292
276.721
273.353
270.197
267.257
264.541
262.054
259.804
257.798
256.043
254.551
253.337
252.422
251.844
252.422
253.351
254.6
256.151
257.962
259.471
259.336
259.336
259.336
259.9
260.805
262.023
263.537
265.333
267.401
269.731
272.312
275.135
278.192
281.472
284.967
288.669
292.57
296.66
300.932
305.378
309.991
314.764
319.689
324.76
329.971
316.836
311.671
306.65
301.781
297.069
292.521
288.144
283.945
279.931
276.109
272.486
269.069
265.864
262.879
260.119
257.591
255.303
253.262
251.476
249.957
248.72
247.788
247.199
247.788
248.734
250.007
251.586
253.429
254.958
254.813
254.813
254.813
255.386
256.308
257.547
259.087
260.914
263.016
265.383
268.005
270.872
273.973
277.301
280.846
284.598
288.55
292.693
297.019
301.519
306.186
311.013
315.993
321.118
326.383
313.34
308.121
303.046
298.122
293.355
288.753
284.322
280.07
276.004
272.13
268.457
264.99
261.738
258.707
255.904
253.336
251.01
248.934
247.117
245.572
244.313
243.363
242.763
243.363
244.327
245.622
247.229
249.104
250.654
250.497
250.497
250.497
251.081
252.018
253.279
254.845
256.702
258.838
261.242
263.904
266.813
269.959
273.334
276.927
280.729
284.732
288.926
293.303
297.856
302.576
307.456
312.489
317.667
322.984
310.043
304.772
299.644
294.667
289.848
285.193
280.71
276.406
272.288
268.364
264.641
261.127
257.829
254.753
251.908
249.3
246.937
244.827
242.98
241.407
240.126
239.159
238.548
239.159
240.141
241.459
243.094
244.999
246.569
246.401
246.401
246.401
246.995
247.948
249.23
250.821
252.708
254.877
257.317
260.018
262.969
266.159
269.579
273.22
277.07
281.122
285.366
289.794
294.398
299.169
304.101
309.184
314.413
319.781
306.953
301.631
296.453
291.425
286.555
281.85
277.316
272.962
268.794
264.822
261.051
257.49
254.147
251.028
248.141
245.495
243.095
240.952
239.075
237.477
236.174
235.19
234.568
235.19
236.189
237.529
239.191
241.127
242.716
242.536
242.536
242.536
243.14
244.109
245.412
247.028
248.943
251.145
253.621
256.36
259.351
262.584
266.048
269.734
273.631
277.731
282.024
286.501
291.153
295.974
300.954
306.086
311.364
316.78
304.074
298.705
293.479
288.403
283.485
278.731
274.149
269.747
265.532
261.513
257.696
254.091
250.704
247.543
244.617
241.932
239.498
237.322
235.416
233.793
232.468
231.469
230.836
231.469
232.484
233.846
235.534
237.5
239.107
238.916
238.916
238.916
239.53
240.514
241.836
243.477
245.42
247.653
250.164
252.94
255.97
259.244
262.751
266.48
270.423
274.568
278.907
283.43
288.13
292.997
298.024
303.203
308.527
313.988
301.414
296
290.729
285.608
280.644
275.845
271.218
266.77
262.511
258.447
254.587
250.939
247.51
244.31
241.346
238.625
236.157
233.951
232.017
230.369
229.024
228.009
227.366
228.009
229.04
230.423
232.137
234.132
235.755
235.554
235.554
235.554
236.177
237.176
238.517
240.181
242.152
244.415
246.958
249.769
252.837
256.15
259.698
263.469
267.454
271.642
276.025
280.593
285.336
290.248
295.318
300.541
305.908
311.412
298.971
293.517
288.205
283.043
278.037
273.196
268.527
264.038
259.737
255.632
251.731
248.044
244.577
241.34
238.34
235.586
233.086
230.851
228.89
227.219
225.856
224.825
224.172
224.825
225.872
227.275
229.014
231.036
232.675
232.463
232.463
232.463
233.095
234.108
235.468
237.154
239.15
241.442
244.016
246.861
249.964
253.314
256.9
260.71
264.735
268.964
273.388
277.996
282.781
287.732
292.843
298.105
303.511
309.053
296.73
291.242
285.895
280.698
275.657
270.779
266.074
261.548
257.211
253.07
249.134
245.411
241.91
238.639
235.607
232.823
230.295
228.033
226.05
224.358
222.977
221.933
221.271
221.934
222.995
224.418
226.179
228.227
229.88
229.658
229.659
229.659
230.299
231.325
232.702
234.409
236.429
238.748
241.351
244.227
247.363
250.747
254.368
258.215
262.276
266.542
271.002
275.647
280.468
285.455
290.6
295.895
301.333
306.905
294.631
289.12
283.75
278.528
273.462
268.558
263.826
259.274
254.909
250.741
246.778
243.028
239.501
236.204
233.147
230.339
227.788
225.506
223.503
221.795
220.401
219.347
218.678
219.349
220.424
221.865
223.648
225.719
227.386
227.155
227.155
227.155
227.803
228.842
230.235
231.961
234.003
236.346
238.976
241.88
245.046
248.461
252.113
255.991
260.083
264.38
268.871
273.545
278.393
283.406
288.575
293.89
299.345
304.93
292.494
286.981
281.609
276.383
271.312
266.404
261.666
257.106
252.734
248.558
244.586
240.828
237.291
233.986
230.92
228.103
225.543
223.253
221.243
219.53
218.133
217.078
216.407
217.087
218.175
219.633
221.435
223.528
225.205
224.967
224.968
224.969
225.624
226.674
228.081
229.824
231.886
234.25
236.903
239.831
243.022
246.461
250.137
254.038
258.153
262.469
266.975
271.661
276.516
281.531
286.695
291.999
297.435
302.993
289.954
284.462
279.112
273.909
268.863
263.979
259.267
254.735
250.391
246.243
242.301
238.572
235.066
231.791
228.755
225.967
223.437
221.175
219.193
217.507
216.141
215.119
214.463
215.155
216.258
217.733
219.554
221.666
223.35
223.11
223.114
223.116
223.778
224.837
226.257
228.014
230.091
232.472
235.141
238.085
241.288
244.737
248.419
252.32
256.427
260.727
265.208
269.858
274.666
279.621
284.715
289.939
295.287
300.751
286.688
281.21
275.877
270.697
265.678
260.827
256.153
251.665
247.371
243.28
239.401
235.742
232.314
229.123
226.179
223.489
221.062
218.906
217.033
215.461
214.223
213.367
212.803
213.523
214.655
216.156
218.001
220.126
221.806
221.585
221.603
221.615
222.284
223.352
224.779
226.543
228.624
231.005
233.668
236.596
239.773
243.181
246.806
250.632
254.647
258.838
263.196
267.712
272.379
277.19
282.141
287.226
292.442
297.785
282.791
277.288
271.935
266.739
261.708
256.852
252.18
247.701
243.425
239.362
235.522
231.916
228.553
225.445
222.601
220.03
217.743
215.749
214.061
212.697
211.71
211.34
211.139
211.962
213.186
214.763
216.661
218.787
220.41
220.31
220.404
220.468
221.154
222.231
223.644
225.378
227.41
229.716
232.276
235.071
238.087
241.312
244.737
248.354
252.158
256.146
260.311
264.651
269.16
273.834
278.669
283.66
288.8
294.085
278.627
273.066
267.657
262.407
257.324
252.42
247.703
243.184
238.874
234.784
230.925
227.309
223.949
220.856
218.044
215.525
213.313
211.42
209.862
208.662
207.868
208.12
208.589
209.664
211.12
212.9
214.936
217.011
218.458
218.76
219.165
219.524
220.326
221.415
222.643
224.142
225.898
227.902
230.147
232.63
235.349
238.302
241.485
244.895
248.526
252.373
256.428
260.685
265.135
269.771
274.586
279.57
284.717
290.019
274.486
268.854
263.372
258.049
252.895
247.92
243.134
238.547
234.172
230.02
226.103
222.434
219.028
215.896
213.055
210.518
208.301
206.42
204.894
203.746
203.021
203.604
204.535
205.877
207.58
209.597
211.804
213.81
215.108
215.884
216.778
217.799
219.054
220.133
220.601
221.585
222.916
224.567
226.524
228.778
231.32
234.14
237.228
240.574
244.168
247.998
252.054
256.325
260.801
265.472
270.328
275.359
280.558
285.914
270.506
264.798
259.24
253.841
248.61
243.557
238.694
234.031
229.58
225.354
221.365
217.628
214.156
210.964
208.067
205.482
203.224
201.312
199.766
198.61
197.888
198.565
199.65
201.12
202.949
205.096
207.415
209.449
210.781
211.78
212.932
214.346
215.982
216.913
216.65
217.404
218.572
220.109
221.991
224.201
226.723
229.543
232.646
236.02
239.65
243.524
247.63
251.957
256.491
261.224
266.143
271.24
276.505
281.927
266.733
260.95
255.317
249.841
244.533
239.403
234.462
229.722
225.194
220.892
216.829
213.02
209.479
206.221
203.262
200.62
198.312
196.356
194.775
193.594
192.856
193.559
194.689
196.212
198.1
200.316
202.712
204.844
206.285
207.386
208.64
210.192
211.963
212.6
212.019
212.743
213.895
215.431
217.326
219.56
222.115
224.976
228.127
231.554
235.241
239.176
243.346
247.738
252.339
257.14
262.128
267.293
272.626
278.117
263.182
257.328
251.621
246.071
240.687
235.482
230.464
225.648
221.045
216.668
212.531
208.65
205.039
201.714
198.693
195.993
193.632
191.631
190.011
188.801
188.045
188.761
189.915
191.47
193.4
195.666
198.13
200.369
201.925
203.1
204.411
206.031
207.849
208.094
207.414
208.144
209.311
210.871
212.798
215.072
217.673
220.585
223.791
227.276
231.025
235.024
239.26
243.718
248.388
253.256
258.313
263.546
268.947
274.506
259.867
253.943
248.165
242.543
237.087
231.808
226.717
221.826
217.149
212.699
208.49
204.537
200.858
197.468
194.384
191.627
189.213
187.166
185.508
184.268
183.493
184.22
185.393
186.975
188.94
191.251
193.775
196.115
197.778
199.016
200.368
202.034
203.85
203.703
202.993
203.736
204.926
206.516
208.48
210.797
213.447
216.412
219.675
223.22
227.031
231.094
235.395
239.92
244.656
249.592
254.715
260.015
265.482
271.106
256.797
250.807
244.961
239.271
233.745
228.396
223.234
218.272
213.523
209.002
204.723
200.702
196.955
193.501
190.357
187.542
185.078
182.985
181.289
180.02
179.226
179.961
181.15
182.756
184.753
187.104
189.683
192.114
193.878
195.175
196.564
198.267
200.042
199.538
198.808
199.567
200.78
202.403
204.406
206.766
209.465
212.483
215.802
219.406
223.278
227.404
231.768
236.358
241.159
246.159
251.348
256.712
262.243
267.93
253.984
247.931
242.022
236.267
230.676
225.259
220.03
215
210.183
205.594
201.248
197.161
193.35
189.834
186.631
183.761
181.246
179.109
177.376
176.078
175.265
176.006
177.209
178.835
180.86
183.248
185.877
188.392
190.252
191.608
193.032
194.768
196.455
195.637
194.889
195.664
196.902
198.556
200.596
203.001
205.747
208.816
212.19
215.851
219.783
223.969
228.395
233.046
237.91
242.973
248.223
253.649
259.24
264.987
251.439
245.329
239.361
233.545
227.892
222.413
217.121
212.027
207.146
202.493
198.083
193.934
190.062
186.487
183.227
180.305
177.742
175.563
173.794
172.468
171.637
172.38
173.591
175.234
177.284
179.703
182.377
184.969
186.922
188.338
189.798
191.565
193.094
192.023
191.26
192.05
193.311
194.996
197.074
199.52
202.312
205.431
208.858
212.573
216.561
220.805
225.29
230
234.923
240.045
245.353
250.837
256.486
262.289
249.175
243.012
236.99
231.119
225.41
219.874
214.523
209.37
204.43
199.718
195.249
191.042
187.113
183.482
180.17
177.199
174.59
172.371
170.568
169.215
168.367
169.106
170.321
171.976
174.044
176.492
179.206
181.868
183.912
185.391
186.886
188.683
189.95
188.719
187.942
188.747
190.031
191.745
193.857
196.343
199.18
202.346
205.822
209.59
213.631
217.929
222.469
227.235
232.212
237.389
242.752
248.29
253.992
259.847
247.204
240.994
234.924
229.004
223.244
217.656
212.253
207.048
202.054
197.288
192.766
188.506
184.525
180.844
177.484
174.467
171.817
169.56
167.725
166.348
165.484
166.213
167.425
169.084
171.166
173.635
176.383
179.111
181.245
182.789
184.321
186.146
187.002
185.748
184.959
185.777
187.082
188.824
190.97
193.493
196.37
199.58
203.103
206.918
211.009
215.357
219.948
224.764
229.793
235.02
240.433
246.02
251.771
257.673
245.54
239.289
233.178
227.215
221.411
215.779
210.33
205.078
200.038
195.226
190.657
186.35
182.323
178.597
175.194
172.137
169.45
167.16
165.297
163.898
163.019
163.729
164.927
166.583
168.671
171.154
173.931
176.72
178.944
180.559
182.129
183.98
184.4
183.133
182.334
183.165
184.49
186.257
188.433
190.99
193.905
197.155
200.72
204.579
208.714
213.108
217.743
222.606
227.68
232.952
238.41
244.041
249.835
255.78
244.198
237.914
231.768
225.77
219.93
214.261
208.774
203.485
198.406
193.554
188.946
184.6
180.535
176.771
173.332
170.241
167.522
165.204
163.317
161.899
161.008
161.682
162.856
164.499
166.583
169.074
171.873
174.719
177.037
178.728
180.339
182.212
182.173
180.899
180.096
180.938
182.281
184.07
186.273
188.86
191.808
195.093
198.694
202.592
206.766
211.199
215.875
220.777
225.89
231.202
236.698
242.368
248.198
254.18
243.199
236.89
230.717
224.692
218.825
213.128
207.612
202.293
197.185
192.303
187.665
183.288
179.193
175.401
171.934
168.816
166.073
163.732
161.826
160.393
159.493
160.107
161.24
162.856
164.927
167.416
170.233
173.133
175.553
177.332
178.987
180.872
180.346
179.077
178.273
179.125
180.483
182.291
184.516
187.129
190.105
193.419
197.051
200.98
205.187
209.653
214.362
219.297
224.443
229.787
235.316
241.016
246.878
252.89
242.576
236.251
230.062
224.02
218.135
212.42
206.886
201.548
196.421
191.52
186.862
182.466
178.353
174.542
171.056
167.921
165.161
162.806
160.888
159.445
158.538
159.041
160.107
161.682
163.729
166.207
169.036
171.994
174.533
176.422
178.127
179.993
178.945
177.697
176.904
177.763
179.132
180.955
183.198
185.83
188.827
192.165
195.821
199.774
204.006
208.497
213.231
218.191
223.363
228.731
234.284
240.008
245.893
251.928
243.035
236.711
230.524
224.481
218.594
212.874
207.334
201.987
196.847
191.93
187.253
182.833
178.69
174.844
171.32
168.141
165.334
162.929
160.963
159.477
158.538
158.538
159.493
161.008
163.019
165.48
168.32
171.345
174.074
176.193
178.028
179.577
177.991
176.804
176.043
176.907
178.283
180.117
182.371
185.016
188.026
191.379
195.05
199.019
203.267
207.774
212.524
217.5
222.688
228.072
233.64
239.379
245.279
251.328
243.798
237.486
231.308
225.275
219.397
213.686
208.154
202.814
197.681
192.77
188.098
183.683
179.545
175.704
172.185
169.012
166.211
163.815
161.856
160.378
159.445
159.445
160.393
161.899
163.898
166.344
169.17
172.184
174.914
177.038
178.872
178.894
177.462
176.496
176.043
176.907
178.283
180.117
182.371
185.016
188.026
191.379
195.05
199.019
203.267
207.774
212.524
217.5
222.688
228.072
233.64
239.379
245.279
251.328
244.852
238.559
232.4
226.387
220.529
214.838
209.326
204.007
198.894
194.003
189.352
184.958
180.84
177.021
173.523
170.37
167.589
165.211
163.269
161.805
160.883
160.883
161.821
163.311
165.291
167.716
170.519
173.517
176.246
178.378
179.857
178.283
176.907
176.043
176.043
176.907
178.283
180.117
182.371
185.016
188.026
191.379
195.05
199.019
203.267
207.774
212.524
217.5
222.688
228.072
233.64
239.379
245.279
251.328
246.187
239.922
233.792
227.807
221.979
216.318
210.836
205.548
200.467
195.608
190.989
186.627
182.542
178.755
175.287
172.165
169.413
167.061
165.143
163.697
162.787
162.787
163.713
165.184
167.14
169.537
172.31
175.285
178.012
180.153
180.862
179.132
177.763
176.904
176.907
177.766
179.135
180.959
183.201
185.834
188.831
192.168
195.824
199.777
204.009
208.501
213.234
218.195
223.366
228.735
234.287
240.012
245.897
251.931
247.798
241.567
235.473
229.526
223.735
218.113
212.671
207.423
202.382
197.565
192.987
188.666
184.623
180.876
177.448
174.363
171.647
169.327
167.436
166.013
165.118
165.118
166.029
167.478
169.406
171.769
174.507
177.452
180.171
182.319
182.247
180.483
179.126
178.274
178.283
179.134
180.492
182.301
184.526
187.139
190.114
193.429
197.061
200.99
205.197
209.663
214.371
219.307
224.453
229.797
235.325
241.026
246.887
252.899
249.677
243.488
237.437
231.534
225.788
220.212
214.817
209.616
204.624
199.856
195.327
191.055
187.06
183.36
179.978
176.937
174.261
171.978
170.118
168.72
167.84
167.84
168.736
170.161
172.057
174.381
177.077
179.986
182.69
184.81
184.046
182.283
180.94
180.098
180.114
180.957
182.299
184.089
186.292
188.879
191.827
195.112
198.714
202.611
206.785
211.218
215.894
220.796
225.91
231.221
236.718
242.387
248.218
254.199
251.817
245.676
239.675
233.822
228.127
222.604
217.262
212.116
207.178
202.465
197.991
193.774
189.833
186.186
182.855
179.861
177.23
174.987
173.161
171.789
170.927
170.927
171.805
173.204
175.065
177.347
179.995
182.858
185.535
187.542
186.244
184.496
183.171
182.34
182.366
183.197
184.523
186.29
188.466
191.023
193.938
197.188
200.753
204.612
208.747
213.141
217.777
222.639
227.713
232.986
238.443
244.074
249.868
255.813
254.212
248.125
242.177
236.38
230.742
225.276
219.994
214.907
210.029
205.376
200.962
196.805
192.922
189.332
186.056
183.114
180.53
178.328
176.538
175.195
174.351
174.351
175.211
176.581
178.406
180.642
183.235
186.042
188.677
190.45
188.818
187.094
185.789
184.97
185.008
185.827
187.133
188.875
191.021
193.544
196.422
199.632
203.155
206.97
211.061
215.41
220
224.816
229.845
235.072
240.485
246.072
251.822
257.724
256.854
250.824
244.936
239.198
233.623
228.219
223
217.977
213.164
208.575
204.225
200.131
196.31
192.78
189.561
186.673
184.138
181.981
180.228
178.913
178.088
178.088
178.93
180.271
182.056
184.243
186.774
189.514
192.088
193.508
191.745
190.05
188.767
187.963
188.013
188.819
190.104
191.819
193.932
196.418
199.255
202.422
205.898
209.666
213.707
218.005
222.545
227.31
232.288
237.465
242.827
248.365
254.066
259.921
259.735
253.766
247.941
242.268
236.758
231.42
226.268
221.313
216.567
212.046
207.764
203.736
199.98
196.512
193.352
190.52
188.036
185.924
184.209
182.923
182.117
182.117
182.94
184.251
185.995
188.128
190.591
193.252
195.744
196.786
195.004
193.343
192.083
191.293
191.358
192.15
193.413
195.099
197.177
199.624
202.417
205.536
208.963
212.679
216.667
220.911
225.395
230.106
235.028
240.149
245.458
250.941
256.589
262.392
262.846
256.943
251.184
245.579
240.137
234.869
229.787
224.902
220.227
215.776
211.563
207.604
203.914
200.511
197.412
194.636
192.204
190.137
188.461
187.205
186.418
186.418
187.221
188.502
190.202
192.279
194.665
197.233
199.622
200.323
198.572
196.949
195.713
194.939
195.019
195.798
197.037
198.693
200.735
203.14
205.887
208.957
212.331
215.993
219.924
224.11
228.536
233.187
238.051
243.113
248.362
253.788
259.378
265.124
266.18
260.345
254.655
249.12
243.75
238.554
233.544
228.732
224.13
219.751
215.61
211.72
208.098
204.76
201.723
199.004
196.624
194.604
192.966
191.739
190.972
190.972
191.756
193.004
194.66
196.674
198.977
201.439
203.703
204.115
202.429
200.848
199.638
198.879
198.976
199.741
200.957
202.582
204.586
206.948
209.648
212.666
215.986
219.59
223.462
227.588
231.952
236.541
241.342
246.341
251.529
256.893
262.422
268.108
269.729
263.964
258.346
252.884
247.587
242.465
237.53
232.792
228.264
223.959
219.89
216.071
212.518
209.245
206.27
203.609
201.281
199.306
197.707
196.51
195.761
195.761
196.525
197.742
199.349
201.297
203.507
205.85
207.97
208.151
206.555
205.021
203.838
203.095
203.208
203.959
205.152
206.745
208.711
211.03
213.68
216.646
219.909
223.454
227.265
231.328
235.628
240.152
244.888
249.823
254.945
260.244
265.71
271.332
273.484
267.792
262.247
256.859
251.637
246.591
241.732
237.07
232.617
228.386
224.391
220.643
217.159
213.952
211.039
208.435
206.159
204.23
202.668
201.5
200.77
200.769
201.514
202.697
204.255
206.13
208.237
210.449
212.407
212.414
210.931
209.449
208.293
207.567
207.697
208.435
209.604
211.165
213.093
215.367
217.968
220.88
224.085
227.57
231.319
235.317
239.551
244.009
248.677
253.544
258.599
263.831
269.23
274.787
277.437
271.819
266.349
261.037
255.892
250.922
246.14
241.554
237.178
233.022
229.1
225.424
222.008
218.867
216.015
213.469
211.244
209.359
207.835
206.696
205.984
205.983
206.708
207.856
209.36
211.156
213.15
215.22
217.005
216.885
215.539
214.116
212.988
212.278
212.425
213.15
214.296
215.826
217.715
219.944
222.495
225.352
228.5
231.923
235.608
239.541
243.708
248.097
252.696
257.494
262.48
267.643
272.973
278.462
281.581
276.038
270.644
265.409
260.341
255.449
250.743
246.235
241.935
237.854
234.005
230.4
227.053
223.977
221.187
218.697
216.523
214.682
213.194
212.083
211.389
211.387
212.091
213.204
214.649
216.359
218.23
220.15
221.754
221.544
220.359
219.004
217.907
217.212
217.376
218.088
219.212
220.71
222.561
224.745
227.246
230.049
233.138
236.5
240.12
243.986
248.085
252.405
256.934
261.662
266.576
271.668
276.928
282.347
285.907
280.44
275.124
269.966
264.975
260.161
255.533
251.102
246.878
242.872
239.096
235.562
232.283
229.272
226.541
224.107
221.982
220.185
218.733
217.649
216.972
216.968
217.652
218.727
220.108
221.724
223.462
225.227
226.647
226.374
225.375
224.098
223.033
222.354
222.534
223.235
224.336
225.803
227.616
229.756
232.207
234.956
237.986
241.286
244.842
248.641
252.671
256.921
261.379
266.035
270.878
275.898
281.086
286.434
290.407
285.018
279.779
274.699
269.786
265.05
260.5
256.146
251.997
248.066
244.363
240.899
237.687
234.739
232.068
229.687
227.612
225.856
224.439
223.382
222.722
222.716
223.378
224.412
225.722
227.236
228.832
230.44
231.681
231.36
230.568
229.383
228.353
227.691
227.886
228.575
229.655
231.092
232.867
234.963
237.365
240.059
243.032
246.27
249.761
253.493
257.455
261.634
266.021
270.604
275.374
280.322
285.437
290.712
295.076
289.763
284.602
279.6
274.765
270.107
265.634
261.357
257.284
253.426
249.794
246.399
243.253
240.368
237.755
235.428
233.4
231.686
230.302
229.271
228.627
228.617
229.258
230.247
231.478
232.88
234.329
235.782
236.853
236.489
235.922
234.846
233.854
233.208
233.418
234.097
235.155
236.563
238.301
240.354
242.707
245.348
248.263
251.44
254.866
258.532
262.424
266.533
270.848
275.359
280.056
284.93
289.972
295.174
299.904
294.669
289.585
284.661
279.905
275.324
270.928
266.726
262.727
258.943
255.382
252.055
248.974
246.149
243.593
241.318
239.337
237.663
236.312
235.305
234.677
234.662
235.279
236.218
237.361
238.645
239.942
241.248
242.16
241.757
241.417
240.471
239.524
238.895
239.118
239.787
240.825
242.204
243.906
245.916
248.222
250.81
253.668
256.784
260.147
263.746
267.569
271.608
275.851
280.29
284.913
289.714
294.682
299.81
304.885
299.727
294.722
289.875
285.196
280.692
276.372
272.245
268.321
264.607
261.116
257.856
254.839
252.074
249.574
247.349
245.413
243.777
242.459
241.476
240.863
240.841
241.431
242.315
243.36
244.519
245.664
246.834
247.601
247.161
247.039
246.247
245.351
244.739
244.974
245.634
246.652
248.003
249.67
251.64
253.898
256.434
259.236
262.292
265.592
269.125
272.881
276.849
281.021
285.387
289.938
294.664
299.559
304.613
310.013
304.932
300.004
295.234
290.632
286.204
281.96
277.907
274.055
270.412
266.989
263.795
260.84
258.133
255.687
253.512
251.619
250.021
248.733
247.773
247.174
247.144
247.704
248.526
249.462
250.493
251.49
252.537
253.175
252.702
252.772
252.158
251.323
250.73
250.977
251.628
252.627
253.951
255.584
257.513
259.725
262.21
264.957
267.954
271.192
274.66
278.348
282.248
286.349
290.643
295.12
299.774
304.594
309.574
315.281
310.277
305.425
300.732
296.205
291.853
287.683
283.703
279.922
276.349
272.993
269.863
266.968
264.319
261.926
259.798
257.948
256.386
255.127
254.189
253.603
253.561
254.088
254.839
255.657
256.559
257.415
258.356
258.879
258.384
258.604
258.192
257.431
256.859
257.116
257.759
258.74
260.038
261.637
263.527
265.694
268.13
270.822
273.761
276.938
280.342
283.964
287.795
291.826
296.048
300.454
305.034
309.78
314.687
335.865
330.98
326.239
321.65
317.218
312.948
308.848
304.922
301.177
297.62
294.254
291.088
288.125
285.372
282.832
280.512
278.417
276.552
274.923
273.541
272.416
271.569
271.034
271.569
272.43
273.589
275.031
276.713
278.042
277.82
277.82
277.82
278.343
279.186
280.321
281.734
283.414
285.35
287.535
289.959
292.615
295.494
298.59
301.893
305.398
309.095
312.978
317.041
321.275
325.674
330.232
334.942
339.798
344.795
331.252
326.303
321.5
316.848
312.353
308.022
303.86
299.875
296.071
292.456
289.035
285.815
282.801
279.998
277.412
275.049
272.914
271.012
269.351
267.941
266.793
265.928
265.382
265.928
266.807
267.99
269.461
271.176
272.525
272.292
272.292
272.292
272.826
273.686
274.844
276.284
277.996
279.968
282.192
284.66
287.362
290.291
293.438
296.795
300.355
304.109
308.051
312.172
316.467
320.927
325.546
330.317
335.235
340.293
326.797
321.785
316.919
312.205
307.648
303.255
299.033
294.987
291.125
287.452
283.975
280.701
277.635
274.783
272.151
269.744
267.568
265.63
263.936
262.497
261.326
260.443
259.885
260.443
261.34
262.548
264.048
265.797
267.166
266.921
266.921
266.921
267.466
268.343
269.523
270.991
272.735
274.744
277.009
279.52
282.269
285.247
288.445
291.856
295.472
299.283
303.283
307.464
311.818
316.338
321.018
325.851
330.83
335.949
322.506
317.433
312.505
307.729
303.11
298.656
294.373
290.268
286.346
282.616
279.084
275.755
272.637
269.736
267.056
264.606
262.389
260.413
258.687
257.219
256.024
255.123
254.553
255.123
256.039
257.271
258.801
260.584
261.973
261.716
261.716
261.716
262.272
263.166
264.369
265.865
267.642
269.688
271.993
274.548
277.343
280.371
283.621
287.086
290.756
294.625
298.682
302.922
307.336
311.916
316.656
321.549
326.589
331.768
318.388
313.254
308.264
303.427
298.747
294.232
289.889
285.724
281.745
277.958
274.369
270.987
267.817
264.866
262.139
259.644
257.387
255.374
253.614
252.117
250.898
249.978
249.396
249.978
250.913
252.17
253.731
255.547
256.956
256.687
256.687
256.687
257.254
258.165
259.392
260.916
262.725
264.808
267.153
269.752
272.595
275.672
278.974
282.492
286.217
290.142
294.257
298.555
303.028
307.668
312.467
317.42
322.519
327.757
314.449
309.254
304.205
299.307
294.567
289.992
285.59
281.366
277.329
273.485
269.841
266.405
263.183
260.182
257.409
254.87
252.572
250.521
248.728
247.202
245.958
245.02
244.426
245.02
245.974
247.256
248.847
250.698
252.126
251.844
251.844
251.844
252.422
253.351
254.601
256.153
257.995
260.115
262.501
265.143
268.033
271.159
274.512
278.083
281.863
285.844
290.016
294.371
298.902
303.6
308.459
313.47
318.627
323.924
310.695
305.442
300.334
295.377
290.578
285.944
281.483
277.202
273.107
269.207
265.509
262.02
258.747
255.697
252.877
250.294
247.954
245.867
244.04
242.485
241.217
240.26
239.654
240.26
241.233
242.539
244.161
246.046
247.493
247.199
247.199
247.199
247.788
248.735
250.008
251.588
253.463
255.619
258.045
260.731
263.667
266.841
270.245
273.869
277.703
281.739
285.967
290.379
294.966
299.722
304.638
309.706
314.92
320.274
307.136
301.826
296.66
291.645
286.789
282.098
277.579
273.241
269.091
265.136
261.384
257.842
254.518
251.42
248.553
245.927
243.547
241.422
239.562
237.978
236.686
235.71
235.092
235.71
236.702
238.033
239.685
241.605
243.07
242.763
242.763
242.763
243.363
244.327
245.623
247.232
249.139
251.331
253.798
256.527
259.508
262.73
266.184
269.859
273.746
277.836
282.119
286.586
291.229
296.041
301.012
306.136
311.406
316.814
303.778
298.412
293.191
288.12
283.208
278.461
273.887
269.494
265.289
261.28
257.475
253.882
250.508
247.362
244.45
241.781
239.361
237.2
235.306
233.693
232.377
231.383
230.753
231.383
232.394
233.75
235.432
237.385
238.869
238.548
238.548
238.548
239.159
240.141
241.46
243.096
245.035
247.263
249.769
252.54
255.566
258.836
262.338
266.064
270.003
274.145
278.481
283.002
287.699
292.565
297.59
302.768
308.092
313.553
300.628
295.21
289.935
284.811
279.845
275.044
270.416
265.969
261.711
257.65
253.794
250.151
246.729
243.536
240.58
237.869
235.41
233.212
231.287
229.645
228.306
227.293
226.651
227.293
228.322
229.703
231.415
233.401
234.902
234.568
234.568
234.568
235.19
236.189
237.53
239.193
241.163
243.427
245.971
248.783
251.853
255.168
258.719
262.493
266.482
270.675
275.062
279.635
284.385
289.303
294.38
299.61
304.985
310.497
297.695
292.227
286.901
281.725
276.708
271.855
267.176
262.678
258.369
254.258
250.352
246.661
243.193
239.955
236.956
234.203
231.706
229.474
227.516
225.847
224.485
223.454
222.801
223.454
224.502
225.907
227.647
229.665
231.183
230.836
230.836
230.836
231.469
232.484
233.847
235.537
237.537
239.835
242.416
245.269
248.38
251.74
255.336
259.158
263.195
267.436
271.873
276.496
281.295
286.263
291.39
296.669
302.093
307.653
294.986
289.469
284.096
278.872
273.806
268.904
264.176
259.63
255.272
251.113
247.161
243.424
239.911
236.63
233.589
230.798
228.264
225.998
224.01
222.314
220.929
219.881
219.217
219.881
220.947
222.375
224.143
226.192
227.726
227.366
227.366
227.366
228.009
229.04
230.424
232.14
234.17
236.5
239.117
242.008
245.16
248.562
252.202
256.069
260.151
264.44
268.923
273.593
278.44
283.454
288.628
293.954
299.423
305.029
292.503
286.943
281.525
276.257
271.146
266.199
261.426
256.833
252.431
248.228
244.231
240.451
236.896
233.574
230.494
227.666
225.098
222.799
220.783
219.061
217.655
216.59
215.915
216.591
217.673
219.123
220.918
222.997
224.545
224.173
224.173
224.173
224.826
225.872
227.277
229.016