# vtk DataFile Version 3.0
vtk output
ASCII
DATASET STRUCTURED_GRID
DIMENSIONS 38 38 38
POINTS 54872 float
-80.2044 2.09161 -59.1284
-76.4543 2.09161 -59.1284
-72.7042 2.09161 -59.1284
-68.9542 2.09161 -59.1284
-65.2041 2.09161 -59.1284
-61.454 2.09161 -59.1284
-57.7039 2.09161 -59.1284
-53.9539 2.09161 -59.1284
-50.2038 2.09161 -59.1284
-46.4537 2.09161 -59.1284
-42.7036 2.09161 -59.1284
-38.9536 2.09161 -59.1284
-35.2035 2.09161 -59.1284
-31.4534 2.09161 -59.1284
-27.7033 2.09161 -59.1284
-23.9533 2.09161 -59.1284
-20.2032 2.09161 -59.1284
-16.4531 2.09161 -59.1284
-12.703 2.09161 -59.1284
-8.95296 2.09161 -59.1284
-5.20289 2.09161 -59.1284
-1.45281 2.09161 -59.1284
2.29726 2.09161 -59.1284
6.04734 2.09161 -59.1284
9.79741 2.09161 -59.1284
13.5475 2.09161 -59.1284
17.2976 2.09161 -59.1284
21.0476 2.09161 -59.1284
24.7977 2.09161 -59.1284
28.5478 2.09161 -59.1284
32.2979 2.09161 -59.1284
36.0479 2.09161 -59.1284
39.798 2.09161 -59.1284
43.5481 2.09161 -59.1284
47.2982 2.09161 -59.1284
51.0482 2.09161 -59.1284
54.7983 2.09161 -59.1284
58.5484 2.09161 -59.1284
-80.2044 5.84169 -59.1284
-76.4543 5.84169 -59.1284
-72.7042 5.84169 -59.1284
-68.9542 5.84169 -59.1284
-65.2041 5.84169 -59.1284
-61.454 5.84169 -59.1284
-57.7039 5.84169 -59.1284
-53.9539 5.84169 -59.1284
-50.2038 5.84169 -59.1284
-46.4537 5.84169 -59.1284
-42.7036 5.84169 -59.1284
-38.9536 5.84169 -59.1284
-35.2035 5.84169 -59.1284
-31.4534 5.84169 -59.1284
-27.7033 5.84169 -59.1284
-23.9533 5.84169 -59.1284
-20.2032 5.84169 -59.1284
-16.4531 5.84169 -59.1284
-12.703 5.84169 -59.1284
-8.95296 5.84169 -59.1284
-5.20289 5.84169 -59.1284
-1.45281 5.84169 -59.1284
2.29726 5.84169 -59.1284
6.04734 5.84169 -59.1284
9.79741 5.84169 -59.1284
13.5475 5.84169 -59.1284
17.2976 5.84169 -59.1284
21.0476 5.84169 -59.1284
24.7977 5.84169 -59.1284
28.5478 5.84169 -59.1284
32.2979 5.84169 -59.1284
36.0479 5.84169 -59.1284
39.798 5.84169 -59.1284
43.5481 5.84169 -59.1284
47.2982 5.84169 -59.1284
51.0482 5.84169 -59.1284
54.7983 5.84169 -59.1284
58.5484 5.84169 -59.1284
-80.2044 9.59176 -59.1284
-76.4543 9.59176 -59.1284
-72.7042 9.59176 -59.1284
-68.9542 9.59176 -59.1284
-65.2041 9.59176 -59.1284
-61.454 9.59176 -59.1284
-57.7039 9.59176 -59.1284
-53.9539 9.59176 -59.1284
-50.2038 9.59176 -59.1284
-46.4537 9.59176 -59.1284
-42.7036 9.59176 -59.1284
-38.9536 9.59176 -59.1284
-35.2035 9.59176 -59.1284
-31.4534 9.59176 -59.1284
-27.7033 9.59176 -59.1284
-23.9533 9.59176 -59.1284
-20.2032 9.59176 -59.1284
-16.4531 9.59176 -59.1284
-12.703 9.59176 -59.1284
-8.95296 9.59176 -59.1284
-5.20289 9.59176 -59.1284
-1.45281 9.59176 -59.1284
2.29726 9.59176 -59.1284
6.04734 9.59176 -59.1284
9.79741 9.59176 -59.1284
13.5475 9.59176 -59.1284
17.2976 9.59176 -59.1284
21.0476 9.59176 -59.1284
24.7977 9.59176 -59.1284
28.5478 9.59176 -59.1284
32.2979 9.59176 -59.1284
36.0479 9.59176 -59.1284
39.798 9.59176 -59.1284
43.5481 9.59176 -59.1284
47.2982 9.59176 -59.1284
51.0482 9.59176 -59.1284
54.7983 9.59176 -59.1284
58.5484 9.59176 -59.1284
-80.2044 13.3418 -59.1284
-76.4543 13.3418 -59.1284
-72.7042 13.3418 -59.1284
-68.9542 13.3418 -59.1284
-65.2041 13.3418 -59.1284
-61.454 13.3418 -59.1284
-57.7039 13.3418 -59.1284
-53.9539 13.3418 -59.1284
-50.2038 13.3418 -59.1284
-46.4537 13.3418 -59.1284
-42.7036 13.3418 -59.1284
-38.9536 13.3418 -59.1284
-35.2035 13.3418 -59.1284
-31.4534 13.3418 -59.1284
-27.7033 13.3418 -59.1284
-23.9533 13.3418 -59.1284
-20.2032 13.3418 -59.1284
-16.4531 13.3418 -59.1284
-12.703 13.3418 -59.1284
-8.95296 13.3418 -59.1284
-5.20289 13.3418 -59.1284
-1.45281 13.3418 -59.1284
2.29726 13.3418 -59.1284
6.04734 13.3418 -59.1284
9.79741 13.3418 -59.1284
13.5475 13.3418 -59.1284
17.2976 13.3418 -59.1284
21.0476 13.3418 -59.1284
24.7977 13.3418 -59.1284
28.5478 13.3418 -59.1284
32.2979 13.3418 -59.1284
36.0479 13.3418 -59.1284
39.798 13.3418 -59.1284
43.5481 13.3418 -59.1284
47.2982 13.3418 -59.1284
51.0482 13.3418 -59.1284
54.7983 13.3418 -59.1284
58.5484 13.3418 -59.1284
-80.2044 17.0919 -59.1284
-76.4543 17.0919 -59.1284
-72.7042 17.0919 -59.1284
-68.9542 17.0919 -59.1284
-65.2041 17.0919 -59.1284
-61.454 17.0919 -59.1284
-57.7039 17.0919 -59.1284
-53.9539 17.0919 -59.1284
-50.2038 17.0919 -59.1284
-46.4537 17.0919 -59.1284
-42.7036 17.0919 -59.1284
-38.9536 17.0919 -59.1284
-35.2035 17.0919 -59.1284
-31.4534 17.0919 -59.1284
-27.7033 17.0919 -59.1284
-23.9533 17.0919 -59.1284
-20.2032 17.0919 -59.1284
-16.4531 17.0919 -59.1284
-12.703 17.0919 -59.1284
-8.95296 17.0919 -59.1284
-5.20289 17.0919 -59.1284
-1.45281 17.0919 -59.1284
2.29726 17.0919 -59.1284
6.04734 17.0919 -59.1284
9.79741 17.0919 -59.1284
13.5475 17.0919 -59.1284
17.2976 17.0919 -59.1284
21.0476 17.0919 -59.1284
24.7977 17.0919 -59.1284
28.5478 17.0919 -59.1284
32.2979 17.0919 -59.1284
36.0479 17.0919 -59.1284
39.798 17.0919 -59.1284
43.5481 17.0919 -59.1284
47.2982 17.0919 -59.1284
51.0482 17.0919 -59.1284
54.7983 17.0919 -59.1284
58.5484 17.0919 -59.1284
-80.2044 20.842 -59.1284
-76.4543 20.842 -59.1284
-72.7042 20.842 -59.1284
-68.9542 20.842 -59.1284
-65.2041 20.842 -59.1284
-61.454 20.842 -59.1284
-57.7039 20.842 -59.1284
-53.9539 20.842 -59.1284
-50.2038 20.842 -59.1284
-46.4537 20.842 -59.1284
-42.7036 20.842 -59.1284
-38.9536 20.842 -59.1284
-35.2035 20.842 -59.1284
-31.4534 20.842 -59.1284
-27.7033 20.842 -59.1284
-23.9533 20.842 -59.1284
-20.2032 20.842 -59.1284
-16.4531 20.842 -59.1284
-12.703 20.842 -59.1284
-8.95296 20.842 -59.1284
-5.20289 20.842 -59.1284
-1.45281 20.842 -59.1284
2.29726 20.842 -59.1284
6.04734 20.842 -59.1284
9.79741 20.842 -59.1284
13.5475 20.842 -59.1284
17.2976 20.842 -59.1284
21.0476 20.842 -59.1284
24.7977 20.842 -59.1284
28.5478 20.842 -59.1284
32.2979 20.842 -59.1284
36.0479 20.842 -59.1284
39.798 20.842 -59.1284
43.5481 20.842 -59.1284
47.2982 20.842 -59.1284
51.0482 20.842 -59.1284
54.7983 20.842 -59.1284
58.5484 20.842 -59.1284
-80.2044 24.5921 -59.1284
-76.4543 24.5921 -59.1284
-72.7042 24.5921 -59.1284
-68.9542 24.5921 -59.1284
-65.2041 24.5921 -59.1284
-61.454 24.5921 -59.1284
-57.7039 24.5921 -59.1284
-53.9539 24.5921 -59.1284
-50.2038 24.5921 -59.1284
-46.4537 24.5921 -59.1284
-42.7036 24.5921 -59.1284
-38.9536 24.5921 -59.1284
-35.2035 24.5921 -59.1284
-31.4534 24.5921 -59.1284
-27.7033 24.5921 -59.1284
-23.9533 24.5921 -59.1284
-20.2032 24.5921 -59.1284
-16.4531 24.5921 -59.1284
-12.703 24.5921 -59.1284
-8.95296 24.5921 -59.1284
-5.20289 24.5921 -59.1284
-1.45281 24.5921 -59.1284
2.29726 24.5921 -59.1284
6.04734 24.5921 -59.1284
9.79741 24.5921 -59.1284
13.5475 24.5921 -59.1284
17.2976 24.5921 -59.1284
21.0476 24.5921 -59.1284
24.7977 24.5921 -59.1284
28.5478 24.5921 -59.1284
32.2979 24.5921 -59.1284
36.0479 24.5921 -59.1284
39.798 24.5921 -59.1284
43.5481 24.5921 -59.1284
47.2982 24.5921 -59.1284
51.0482 24.5921 -59.1284
54.7983 24.5921 -59.1284
58.5484 24.5921 -59.1284
-80.2044 28.3421 -59.1284
-76.4543 28.3421 -59.1284
-72.7042 28.3421 -59.1284
-68.9542 28.3421 -59.1284
-65.2041 28.3421 -59.1284
-61.454 28.3421 -59.1284
-57.7039 28.3421 -59.1284
-53.9539 28.3421 -59.1284
-50.2038 28.3421 -59.1284
-46.4537 28.3421 -59.1284
-42.7036 28.3421 -59.1284
-38.9536 28.3421 -59.1284
-35.2035 28.3421 -59.1284
-31.4534 28.3421 -59.1284
-27.7033 28.3421 -59.1284
-23.9533 28.3421 -59.1284
-20.2032 28.3421 -59.1284
-16.4531 28.3421 -59.1284
-12.703 28.3421 -59.1284
-8.95296 28.3421 -59.1284
-5.20289 28.3421 -59.1284
-1.45281 28.3421 -59.1284
2.29726 28.3421 -59.1284
6.04734 28.3421 -59.1284
9.79741 28.3421 -59.1284
13.5475 28.3421 -59.1284
17.2976 28.3421 -59.1284
21.0476 28.3421 -59.1284
24.7977 28.3421 -59.1284
28.5478 28.3421 -59.1284
32.2979 28.3421 -59.1284
36.0479 28.3421 -59.1284
39.798 28.3421 -59.1284
43.5481 28.3421 -59.1284
47.2982 28.3421 -59.1284
51.0482 28.3421 -59.1284
54.7983 28.3421 -59.1284
58.5484 28.3421 -59.1284
-80.2044 32.0922 -59.1284
-76.4543 32.0922 -59.1284
-72.7042 32.0922 -59.1284
-68.9542 32.0922 -59.1284
-65.2041 32.0922 -59.1284
-61.454 32.0922 -59.1284
-57.7039 32.0922 -59.1284
-53.9539 32.0922 -59.1284
-50.2038 32.0922 -59.1284
-46.4537 32.0922 -59.1284
-42.7036 32.0922 -59.1284
-38.9536 32.0922 -59.1284
-35.2035 32.0922 -59.1284
-31.4534 32.0922 -59.1284
-27.7033 32.0922 -59.1284
-23.9533 32.0922 -59.1284
-20.2032 32.0922 -59.1284
-16.4531 32.0922 -59.1284
-12.703 32.0922 -59.1284
-8.95296 32.0922 -59.1284
-5.20289 32.0922 -59.1284
-1.45281 32.0922 -59.1284
2.29726 32.0922 -59.1284
6.04734 32.0922 -59.1284
9.79741 32.0922 -59.1284
13.5475 32.0922 -59.1284
17.2976 32.0922 -59.1284
21.0476 32.0922 -59.1284
24.7977 32.0922 -59.1284
28.5478 32.0922 -59.1284
32.2979 32.0922 -59.1284
36.0479 32.0922 -59.1284
39.798 32.0922 -59.1284
43.5481 32.0922 -59.1284
47.2982 32.0922 -59.1284
51.0482 32.0922 -59.1284
54.7983 32.0922 -59.1284
58.5484 32.0922 -59.1284
-80.2044 35.8423 -59.1284
-76.4543 35.8423 -59.1284
-72.7042 35.8423 -59.1284
-68.9542 35.8423 -59.1284
-65.2041 35.8423 -59.1284
-61.454 35.8423 -59.1284
-57.7039 35.8423 -59.1284
-53.9539 35.8423 -59.1284
-50.2038 35.8423 -59.1284
-46.4537 35.8423 -59.1284
-42.7036 35.8423 -59.1284
-38.9536 35.8423 -59.1284
-35.2035 35.8423 -59.1284
-31.4534 35.8423 -59.1284
-27.7033 35.8423 -59.1284
-23.9533 35.8423 -59.1284
-20.2032 35.8423 -59.1284
-16.4531 35.8423 -59.1284
-12.703 35.8423 -59.1284
-8.95296 35.8423 -59.1284
-5.20289 35.8423 -59.1284
-1.45281 35.8423 -59.1284
2.29726 35.8423 -59.1284
6.04734 35.8423 -59.1284
9.79741 35.8423 -59.1284
13.5475 35.8423 -59.1284
17.2976 35.8423 -59.1284
21.0476 35.8423 -59.1284
24.7977 35.8423 -59.1284
28.5478 35.8423 -59.1284
32.2979 35.8423 -59.1284
36.0479 35.8423 -59.1284
39.798 35.8423 -59.1284
43.5481 35.8423 -59.1284
47.2982 35.8423 -59.1284
51.0482 35.8423 -59.1284
54.7983 35.8423 -59.1284
58.5484 35.8423 -59.1284
-80.2044 39.5924 -59.1284
-76.4543 39.5924 -59.1284
-72.7042 39.5924 -59.1284
-68.9542 39.5924 -59.1284
-65.2041 39.5924 -59.1284
-61.454 39.5924 -59.1284
-57.7039 39.5924 -59.1284
-53.9539 39.5924 -59.1284
-50.2038 39.5924 -59.1284
[...]
POINT_DATA 54872
VECTORS grad float
-0.604566 -0.37787 -0.689195
-0.588797 -0.388449 -0.697613
-0.572561 -0.399536 -0.705561
-0.555615 -0.411135 -0.713423
-0.537539 -0.423141 -0.721602
-0.517579 -0.435454 -0.730533
-0.494893 -0.447927 -0.740507
-0.468652 -0.460453 -0.751665
-0.438054 -0.472871 -0.763946
-0.402543 -0.484967 -0.776895
-0.362018 -0.496469 -0.790022
-0.316709 -0.507012 -0.802586
-0.267133 -0.51625 -0.813893
-0.214213 -0.523784 -0.823374
-0.159097 -0.529315 -0.830677
-0.102485 -0.532653 -0.83555
0.0058789 -0.534224 -0.837797
0.0650909 -0.533602 -0.833366
-0.0347582 -0.541674 -0.823505
-0.0880958 -0.542287 -0.828911
0.00266398 -0.541183 -0.832226
0.0870217 -0.53881 -0.831136
0.108025 -0.53559 -0.829206
0.0884097 -0.537089 -0.827804
0.0978769 -0.539137 -0.8311
0.158639 -0.536556 -0.825758
0.216332 -0.532624 -0.816592
0.268933 -0.527797 -0.805004
0.317482 -0.521976 -0.791656
0.362431 -0.515102 -0.777037
0.403707 -0.507216 -0.761572
0.440963 -0.498386 -0.745859
0.473695 -0.488841 -0.730612
0.501457 -0.478795 -0.716565
0.524059 -0.468437 -0.704467
0.541711 -0.458042 -0.694878
0.55518 -0.447699 -0.688005
0.56567 -0.437602 -0.683528
-0.614288 -0.337412 -0.700555
-0.599192 -0.346759 -0.709756
-0.583544 -0.356846 -0.718567
-0.567126 -0.367658 -0.727374
-0.549396 -0.378905 -0.736589
-0.529685 -0.390519 -0.746644
-0.507185 -0.402376 -0.757801
-0.480937 -0.414375 -0.770263
-0.450146 -0.426306 -0.783907
-0.414231 -0.43798 -0.798321
-0.372963 -0.449156 -0.812919
-0.32655 -0.459481 -0.826915
-0.27549 -0.468542 -0.839511
-0.220743 -0.476 -0.850086
-0.163523 -0.481453 -0.858163
-0.104919 -0.484765 -0.863472
0.00513406 -0.48634 -0.86579
0.0602162 -0.487313 -0.860234
-0.0397355 -0.499748 -0.848363
-0.0873856 -0.499194 -0.854509
0.00474081 -0.496884 -0.858381
0.0900219 -0.494002 -0.857287
0.108794 -0.490202 -0.855437
0.0865441 -0.492442 -0.854536
0.0981764 -0.493854 -0.858275
0.161655 -0.491616 -0.852321
0.220292 -0.488649 -0.842279
0.273748 -0.485035 -0.829632
0.323323 -0.480447 -0.8151
0.369375 -0.474703 -0.799143
0.411689 -0.467787 -0.782315
0.44981 -0.459822 -0.765214
0.483168 -0.451039 -0.748546
0.511369 -0.44169 -0.733179
0.534161 -0.431968 -0.719902
0.551818 -0.422145 -0.70925
0.565166 -0.412375 -0.701433
0.575405 -0.402825 -0.696171
-0.622156 -0.2954 -0.710881
-0.608231 -0.302414 -0.720888
-0.59346 -0.310899 -0.730571
-0.577674 -0.3204 -0.740305
-0.560401 -0.330581 -0.750529
-0.54105 -0.341278 -0.761652
-0.518748 -0.352256 -0.774019
-0.492582 -0.363382 -0.787805
-0.461659 -0.374542 -0.802851
-0.425394 -0.385512 -0.818746
-0.38352 -0.396077 -0.834839
-0.336096 -0.405909 -0.850294
-0.283652 -0.41462 -0.864274
-0.227123 -0.421803 -0.875992
-0.167862 -0.427054 -0.88486
-0.107373 -0.430281 -0.890498
0.00333146 -0.432026 -0.892835
0.0516833 -0.436453 -0.885371
-0.046639 -0.455287 -0.871243
-0.085232 -0.452904 -0.878274
0.00785507 -0.448587 -0.882842
0.0937039 -0.444906 -0.88179
0.109585 -0.440086 -0.880055
0.0847579 -0.442853 -0.880161
0.0987036 -0.442902 -0.884519
0.163843 -0.44123 -0.878057
0.222913 -0.439796 -0.867236
0.277136 -0.437989 -0.853588
0.327813 -0.435107 -0.837877
0.375091 -0.430878 -0.820607
0.418589 -0.425245 -0.802381
0.457711 -0.418407 -0.783839
0.491827 -0.410556 -0.765787
0.520529 -0.402057 -0.749073
0.543604 -0.393173 -0.734557
0.561304 -0.384086 -0.722814
0.5745 -0.375015 -0.714091
0.584546 -0.366148 -0.707978
-0.626563 -0.254509 -0.720035
-0.614691 -0.256736 -0.73081
-0.601531 -0.261901 -0.741318
-0.586808 -0.26914 -0.751901
-0.570273 -0.277784 -0.763057
-0.55136 -0.287159 -0.775224
-0.529289 -0.296903 -0.788751
-0.503223 -0.306854 -0.803807
-0.472277 -0.316858 -0.820221
-0.435766 -0.326798 -0.837585
-0.39336 -0.336416 -0.855143
-0.345092 -0.345405 -0.872063
-0.291385 -0.353441 -0.887416
-0.233177 -0.360107 -0.900277
-0.172001 -0.365056 -0.909925
-0.109891 -0.368254 -0.915811
-0.00103742 -0.370678 -0.917817
0.036956 -0.383322 -0.906858
-0.056187 -0.41058 -0.890712
-0.080686 -0.40532 -0.898807
0.0127387 -0.397741 -0.904263
0.0985226 -0.39278 -0.903251
0.110848 -0.386203 -0.901756
0.0837279 -0.38842 -0.903667
0.099799 -0.385821 -0.90898
0.164762 -0.385007 -0.902243
0.223532 -0.385862 -0.890825
0.278437 -0.386628 -0.876365
0.330435 -0.386078 -0.85955
0.379237 -0.383782 -0.84105
0.424159 -0.379728 -0.821438
0.464499 -0.374215 -0.801465
0.499518 -0.367532 -0.782024
0.528751 -0.360044 -0.763993
0.552133 -0.352136 -0.748254
0.569976 -0.343977 -0.735436
0.583103 -0.335787 -0.725762
0.592965 -0.327685 -0.718863
-0.623316 -0.224314 -0.727748
-0.615623 -0.215467 -0.739392
-0.605865 -0.212238 -0.750572
-0.593557 -0.214203 -0.761819
-0.578419 -0.219863 -0.773794
-0.560169 -0.227369 -0.786916
-0.538443 -0.235472 -0.801477
-0.512537 -0.243812 -0.817689
-0.481603 -0.252246 -0.83537
-0.444951 -0.260649 -0.854074
-0.402128 -0.268861 -0.87304
-0.353121 -0.276599 -0.89136
-0.298354 -0.283549 -0.908032
-0.238738 -0.289407 -0.921973
-0.176009 -0.293954 -0.932211
-0.112995 -0.2978 -0.937871
-0.011737 -0.303091 -0.938683
0.0117816 -0.33598 -0.920948
-0.0686366 -0.370552 -0.905054
-0.0723931 -0.360911 -0.914246
0.0203954 -0.34836 -0.920745
0.105242 -0.341557 -0.919649
0.113944 -0.331973 -0.918396
0.0851397 -0.330469 -0.923518
0.102116 -0.32257 -0.930354
0.163802 -0.322823 -0.923922
0.221292 -0.32711 -0.912312
0.276919 -0.331414 -0.897311
0.33066 -0.333801 -0.879643
0.381441 -0.333785 -0.859992
0.428156 -0.331552 -0.839103
0.469907 -0.327538 -0.817789
0.505998 -0.322218 -0.796973
0.535925 -0.315933 -0.777674
0.559672 -0.309117 -0.760759
0.577652 -0.302014 -0.746888
0.590791 -0.294874 -0.736344
0.600533 -0.287714 -0.728667
-0.604292 -0.227004 -0.734418
-0.602615 -0.199003 -0.746824
-0.600267 -0.174977 -0.758437
-0.594432 -0.159692 -0.769998
-0.58344 -0.155576 -0.782382
-0.566969 -0.159948 -0.796174
-0.545731 -0.165916 -0.81161
-0.519998 -0.172061 -0.828777
-0.489114 -0.178343 -0.847524
-0.452381 -0.184634 -0.867368
-0.40931 -0.190794 -0.887555
-0.35978 -0.196659 -0.907081
-0.304192 -0.202017 -0.924873
-0.243582 -0.206668 -0.939664
-0.180395 -0.211096 -0.94993
-0.119028 -0.219454 -0.953752
-0.0392173 -0.23861 -0.950493
-0.0305058 -0.309703 -0.922099
-0.081118 -0.342816 -0.912853
-0.058494 -0.327648 -0.922837
0.0320927 -0.309091 -0.930063
0.11491 -0.300366 -0.928441
0.121936 -0.28665 -0.92703
0.0931312 -0.273735 -0.937049
0.107445 -0.25444 -0.946664
0.160222 -0.255372 -0.941769
0.214941 -0.264642 -0.930831
0.271745 -0.273493 -0.915777
0.328064 -0.279221 -0.897575
0.381486 -0.281618 -0.877001
0.430407 -0.281295 -0.854963
0.473833 -0.278849 -0.832382
0.511122 -0.274931 -0.810338
0.541852 -0.270036 -0.789827
0.566052 -0.264476 -0.771819
0.584219 -0.258593 -0.756995
0.597404 -0.252586 -0.745569
0.607124 -0.246563 -0.737171
-0.567835 -0.273501 -0.742263
-0.563597 -0.237189 -0.755277
-0.566554 -0.190715 -0.766966
-0.574156 -0.137239 -0.777616
-0.578675 -0.0836014 -0.788662
-0.570509 -0.0397197 -0.802208
-0.550556 -0.0156472 -0.818297
-0.524964 -0.0139839 -0.836136
-0.494177 -0.0168051 -0.855631
-0.457402 -0.0202923 -0.876298
-0.414153 -0.0246656 -0.897329
-0.364344 -0.0306655 -0.917732
-0.308362 -0.0401159 -0.936239
-0.247816 -0.0592378 -0.951211
-0.188795 -0.097017 -0.959118
-0.14051 -0.152496 -0.954346
-0.101986 -0.218945 -0.938927
-0.092425 -0.314612 -0.91354
-0.0865813 -0.331871 -0.915568
-0.0386679 -0.312043 -0.925272
0.0476769 -0.290594 -0.93177
0.127683 -0.281874 -0.928698
0.140575 -0.266078 -0.9255
0.11735 -0.2317 -0.940127
0.12048 -0.188757 -0.954204
0.153601 -0.186145 -0.953936
0.203171 -0.201404 -0.945421
0.26234 -0.215092 -0.931204
0.322534 -0.223871 -0.912874
0.379367 -0.228331 -0.891645
0.430925 -0.229654 -0.86862
0.476271 -0.228704 -0.844991
0.514811 -0.226245 -0.821811
0.54638 -0.222801 -0.800225
0.571115 -0.21868 -0.781228
0.589543 -0.214196 -0.765526
0.602821 -0.209478 -0.753335
0.612555 -0.204634 -0.744275
-0.54201 -0.321483 -0.753372
-0.519828 -0.304972 -0.767835
-0.500316 -0.275121 -0.781245
-0.487319 -0.227918 -0.792933
-0.485921 -0.162352 -0.802158
-0.499015 -0.0838558 -0.809006
-0.519996 -0.00469767 -0.816146
-0.521155 0.064298 -0.829348
-0.495423 0.110243 -0.848375
-0.460242 0.124494 -0.868464
-0.419683 0.111175 -0.888535
-0.37523 0.0802546 -0.906673
-0.332765 0.0285297 -0.918731
-0.300483 -0.0422458 -0.917343
-0.273653 -0.12573 -0.908637
-0.240956 -0.210812 -0.901392
-0.201333 -0.282989 -0.899428
-0.143432 -0.333557 -0.909452
-0.0785487 -0.328034 -0.919566
-0.0172177 -0.306171 -0.927889
0.0622613 -0.288074 -0.932276
0.139426 -0.282247 -0.9276
0.17211 -0.270494 -0.920806
0.170452 -0.223474 -0.929973
0.153001 -0.155137 -0.945137
0.147575 -0.130262 -0.957026
0.185994 -0.14437 -0.95514
0.249278 -0.159547 -0.943083
0.314825 -0.169389 -0.925126
0.375703 -0.174871 -0.903518
0.430033 -0.17733 -0.879776
0.477242 -0.177806 -0.85524
0.517025 -0.176915 -0.831157
0.549417 -0.175097 -0.808648
0.574657 -0.172677 -0.788835
0.593421 -0.169754 -0.772386
0.606966 -0.166379 -0.759507
0.616847 -0.162712 -0.749838
-0.543788 -0.321364 -0.765569
-0.517235 -0.324257 -0.781334
-0.489501 -0.323921 -0.796538
-0.461387 -0.317572 -0.810764
-0.434612 -0.300212 -0.82324
-0.412854 -0.264862 -0.83277
-0.402402 -0.205616 -0.837798
-0.410023 -0.126598 -0.837637
-0.433981 -0.0577625 -0.835246
-0.456471 -0.0193699 -0.837451
-0.458392 -0.0227113 -0.844761
-0.446989 -0.0642782 -0.845572
-0.430863 -0.129744 -0.848056
-0.402076 -0.200871 -0.857166
-0.357361 -0.260586 -0.872203
-0.297769 -0.30326 -0.889835
-0.22473 -0.327453 -0.906864
-0.13747 -0.328939 -0.920778
-0.0591957 -0.312614 -0.929139
0.00129232 -0.290682 -0.935755
0.0716006 -0.275312 -0.939504
0.145263 -0.270312 -0.935271
0.199349 -0.262885 -0.927225
0.232706 -0.235207 -0.920361
0.213692 -0.188973 -0.917185
0.164368 -0.119994 -0.944756
0.173886 -0.102758 -0.95809
0.237321 -0.109075 -0.95053
0.307211 -0.116729 -0.933671
0.371426 -0.122285 -0.912045
0.42799 -0.125845 -0.887883
0.476685 -0.128023 -0.862777
0.51752 -0.129144 -0.838057
0.550618 -0.129393 -0.814941
0.576457 -0.128845 -0.794477
0.595841 -0.127418 -0.777404
0.609863 -0.12516 -0.763906
0.620154 -0.12215 -0.753715
-0.549498 -0.28636 -0.776602
-0.522386 -0.291505 -0.793279
-0.493631 -0.296172 -0.809502
-0.46361 -0.299958 -0.824875
-0.433211 -0.302168 -0.838757
-0.404419 -0.301441 -0.849879
-0.381732 -0.295143 -0.856237
-0.373302 -0.279593 -0.854791
-0.388195 -0.253143 -0.843179
-0.42519 -0.224024 -0.825306
-0.464592 -0.210585 -0.813281
-0.482262 -0.222687 -0.816333
-0.469358 -0.244639 -0.832573
-0.431326 -0.264818 -0.855359
-0.376043 -0.279605 -0.879639
-0.307823 -0.289189 -0.902512
-0.227012 -0.294151 -0.921938
-0.128593 -0.293749 -0.935768
-0.0402914 -0.281884 -0.940286
0.020084 -0.263574 -0.944102
0.082631 -0.248106 -0.94647
0.151854 -0.240391 -0.942506
0.207215 -0.233301 -0.933781
0.244364 -0.22556 -0.925603
0.268214 -0.21295 -0.919597
0.233789 -0.154994 -0.91798
0.196912 -0.105155 -0.944993
0.235308 -0.0881786 -0.948297
0.301615 -0.0848571 -0.935567
0.366587 -0.0856862 -0.915497
0.424295 -0.0877496 -0.891936
0.473942 -0.0901032 -0.867007
0.515655 -0.0922728 -0.842221
0.549716 -0.0937639 -0.818893
0.576632 -0.0940798 -0.797991
0.597107 -0.0929095 -0.780299
0.612233 -0.0900933 -0.766134
0.623412 -0.0857774 -0.755242
-0.554408 -0.24497 -0.786452
-0.527047 -0.249105 -0.803882
-0.497953 -0.252886 -0.820936
-0.467383 -0.256233 -0.837193
-0.436096 -0.258914 -0.852036
-0.405829 -0.260607 -0.864389
-0.380554 -0.260668 -0.872277
-0.368024 -0.257788 -0.872617
-0.378412 -0.250454 -0.86235
-0.413913 -0.238998 -0.84365
-0.457055 -0.227872 -0.82857
-0.481043 -0.222088 -0.828889
-0.472994 -0.22212 -0.844433
-0.437041 -0.225492 -0.868011
-0.381732 -0.229891 -0.893629
-0.312315 -0.233994 -0.917734
-0.229291 -0.237217 -0.938036
-0.125203 -0.23902 -0.951941
-0.0290211 -0.237413 -0.95321
0.0350706 -0.22363 -0.955728
0.0947835 -0.208782 -0.956432
0.160067 -0.203078 -0.950622
0.21418 -0.19823 -0.940598
0.253058 -0.192653 -0.931542
0.284258 -0.183419 -0.923524
0.272163 -0.166809 -0.9167
0.240701 -0.118896 -0.934257
0.257619 -0.0853361 -0.941438
0.309703 -0.0709535 -0.932626
0.368533 -0.0664398 -0.914897
0.423573 -0.0665013 -0.892772
0.472162 -0.0684422 -0.868774
0.513859 -0.0708206 -0.844491
0.548811 -0.072467 -0.821119
0.577312 -0.0724908 -0.799644
0.599827 -0.0701977 -0.780854
0.616995 -0.0652253 -0.765205
0.62981 -0.0576415 -0.752831
-0.558044 -0.201963 -0.795117
-0.530302 -0.20469 -0.813191
-0.500759 -0.206901 -0.830911
-0.469637 -0.208578 -0.847941
-0.437585 -0.209533 -0.863586
-0.406173 -0.209569 -0.876938
-0.378913 -0.208212 -0.886126
-0.363088 -0.204478 -0.888148
-0.369404 -0.196948 -0.87946
-0.402608 -0.185229 -0.860993
-0.447681 -0.172496 -0.843888
-0.476511 -0.16343 -0.841725
-0.472762 -0.159286 -0.856012
-0.439097 -0.158261 -0.879588
-0.384545 -0.158564 -0.905753
-0.315148 -0.159163 -0.930493
-0.232037 -0.160139 -0.951345
-0.128789 -0.162805 -0.965433
-0.0249022 -0.173588 -0.965976
0.0487148 -0.158411 -0.967849
0.103183 -0.14307 -0.966782
0.162406 -0.149202 -0.959999
0.21764 -0.151951 -0.948611
0.259175 -0.14854 -0.938553
0.294058 -0.13992 -0.929214
0.298313 -0.127416 -0.920487
0.278385 -0.099981 -0.92727
0.28325 -0.0776992 -0.932929
0.320512 -0.0669501 -0.926907
0.371039 -0.0628877 -0.911966
0.422293 -0.0619172 -0.891977
0.469623 -0.0621602 -0.869415
0.51163 -0.0625946 -0.845886
0.548046 -0.0623372 -0.822545
0.578902 -0.0606943 -0.800294
0.604372 -0.0569363 -0.779847
0.624789 -0.0505764 -0.761807
0.640674 -0.0412485 -0.746562
-0.560245 -0.157703 -0.802543
-0.531985 -0.158966 -0.821173
-0.501841 -0.159571 -0.83946
-0.470015 -0.159368 -0.857033
-0.437087 -0.158223 -0.873328
-0.404508 -0.155939 -0.887407
-0.375462 -0.152158 -0.897578
-0.35676 -0.1462 -0.900957
-0.359163 -0.13703 -0.893821
-0.38946 -0.124088 -0.875785
-0.435256 -0.109356 -0.857014
-0.467833 -0.0969104 -0.852216
-0.467825 -0.0886056 -0.864612
-0.436319 -0.0833143 -0.887229
-0.382634 -0.0795048 -0.912875
-0.31389 -0.0760424 -0.937043
-0.232933 -0.0731578 -0.957177
-0.138651 -0.0725607 -0.97084
-0.0246264 -0.081662 -0.974632
0.0655883 -0.0710328 -0.973967
0.103992 -0.0696418 -0.970098
0.151186 -0.0871446 -0.966732
0.214842 -0.0927706 -0.956016
0.265089 -0.0882574 -0.944218
0.305382 -0.0776546 -0.932405
0.312103 -0.0640758 -0.921268
0.290418 -0.048992 -0.926764
0.29065 -0.0385146 -0.933054
0.324514 -0.0336012 -0.927836
0.373566 -0.0317803 -0.913291
0.4243 -0.0314679 -0.893397
0.471485 -0.0319876 -0.870795
0.513682 -0.0328614 -0.847085
0.550712 -0.0336979 -0.823332
0.582713 -0.0339866 -0.800262
0.609945 -0.0331435 -0.7785
0.632683 -0.0304617 -0.75844
0.651273 -0.0253217 -0.740571
-0.561128 -0.11117 -0.808646
-0.532171 -0.111141 -0.827765
-0.501161 -0.110257 -0.846515
-0.468289 -0.10823 -0.864548
-0.434156 -0.104811 -0.881309
-0.400108 -0.0995238 -0.895877
-0.369174 -0.0916707 -0.906719
-0.347961 -0.0801564 -0.910987
-0.347292 -0.0637619 -0.904786
-0.374934 -0.0430938 -0.886952
-0.420504 -0.0234308 -0.866777
-0.455761 -0.0101823 -0.859317
-0.459166 -0.00253604 -0.869435
-0.429996 0.00277357 -0.890611
-0.377273 0.00687021 -0.915487
-0.308801 0.00973949 -0.93895
-0.228556 0.0112044 -0.95826
-0.137293 0.0105339 -0.971103
-0.0233743 0.00481668 -0.975
0.060735 -0.00553376 -0.974113
0.0870712 -0.0225327 -0.971825
0.139277 -0.0309447 -0.970439
0.216527 -0.0289383 -0.958547
0.274291 -0.020503 -0.94431
0.31824 -0.00917516 -0.9301
0.326975 0.00235553 -0.917138
0.303946 0.0158911 -0.921772
0.298641 0.0258057 -0.929426
0.327246 0.0295135 -0.925995
0.373172 0.0289785 -0.912769
0.422085 0.0259054 -0.893847
0.46823 0.0212196 -0.87203
0.50992 0.0155088 -0.84896
0.546921 0.00916623 -0.82568
0.579456 0.0027096 -0.802807
0.607897 -0.00326898 -0.780777
0.632611 -0.00805591 -0.75986
0.653899 -0.0108667 -0.740322
-0.560876 -0.0558265 -0.812976
-0.531072 -0.0545288 -0.832405
-0.49893 -0.052678 -0.851436
-0.464569 -0.0501053 -0.869737
-0.428381 -0.0465705 -0.886846
-0.391367 -0.0415659 -0.90195
-0.356095 -0.0341998 -0.913768
-0.328851 -0.0228466 -0.919681
-0.3221 -0.0051291 -0.915124
-0.349129 0.0193486 -0.896357
-0.402345 0.043069 -0.87174
-0.446938 0.0595031 -0.860691
-0.454869 0.0703966 -0.869719
-0.426913 0.0785576 -0.890198
-0.375668 0.0844117 -0.914061
-0.309556 0.0870088 -0.936865
-0.232139 0.0865496 -0.95595
-0.145039 0.0835057 -0.969079
-0.0406941 0.0775192 -0.97432
0.0382389 0.0540046 -0.974747
0.0785814 0.0469663 -0.97328
0.14478 0.0600169 -0.970154
0.225284 0.0666282 -0.957252
0.284852 0.0700995 -0.94172
0.32824 0.0715238 -0.926485
0.337169 0.0712738 -0.913314
0.313868 0.0730735 -0.917019
0.304272 0.0752807 -0.925194
0.327687 0.0752688 -0.923315
0.369958 0.0729202 -0.911654
0.416541 0.0688419 -0.894202
0.461088 0.0636082 -0.873845
0.501629 0.0575721 -0.852237
0.537912 0.0510674 -0.830312
0.570277 0.0444149 -0.808517
0.59918 0.0379791 -0.787175
0.625085 0.0321418 -0.766355
0.64838 0.0272969 -0.746178
-0.558979 -0.0280987 -0.806534
-0.529022 -0.0363054 -0.822551
-0.496737 -0.0458267 -0.83743
-0.462181 -0.0563224 -0.850896
-0.425616 -0.067316 -0.862826
-0.387737 -0.0776789 -0.873095
-0.350455 -0.0855444 -0.881623
-0.31889 -0.0874496 -0.888194
-0.305097 -0.0763806 -0.891665
-0.326736 -0.040221 -0.889346
-0.380349 0.0282465 -0.878331
-0.428433 0.102063 -0.866049
-0.440111 0.12427 -0.871643
-0.415981 0.140805 -0.888873
-0.368822 0.152546 -0.910022
-0.306664 0.159463 -0.931263
-0.232059 0.162271 -0.949818
-0.146323 0.162424 -0.962921
-0.0528754 0.160829 -0.968114
0.030182 0.142935 -0.970493
0.0930835 0.146302 -0.967766
0.158939 0.160709 -0.960393
0.22661 0.163191 -0.947722
0.279187 0.158469 -0.934288
0.319414 0.149931 -0.921626
0.328525 0.135076 -0.910614
0.307953 0.120204 -0.914999
0.300836 0.112009 -0.922918
0.324885 0.108702 -0.921011
0.366745 0.106716 -0.909658
0.412773 0.104562 -0.892653
0.45696 0.101917 -0.872716
0.497379 0.0988856 -0.851459
0.533763 0.0956131 -0.829801
0.566368 0.0922906 -0.808189
0.595624 0.0889948 -0.786971
0.621929 0.0858598 -0.766239
0.645576 0.0829111 -0.74611
-0.575826 -0.148982 -0.721348
-0.5488 -0.179598 -0.723668
-0.518947 -0.211557 -0.725257
-0.486059 -0.243956 -0.726566
-0.449737 -0.275698 -0.728109
-0.409596 -0.305294 -0.730356
-0.365866 -0.330453 -0.733814
-0.319687 -0.347256 -0.739412
-0.274872 -0.347612 -0.748841
-0.244502 -0.314419 -0.765719
-0.26006 -0.219289 -0.798607
-0.350915 -0.00461981 -0.859063
-0.416128 0.165271 -0.87165
-0.398637 0.207165 -0.88379
-0.35701 0.223752 -0.901015
-0.299831 0.234565 -0.919554
-0.229177 0.240571 -0.93671
-0.146481 0.243003 -0.949297
-0.0601835 0.241895 -0.954708
0.0237125 0.23146 -0.957428
0.096355 0.229937 -0.955201
0.161669 0.232012 -0.948007
0.223044 0.228662 -0.936949
0.271591 0.221531 -0.925439
0.304848 0.212013 -0.914569
0.307443 0.192187 -0.909364
0.290801 0.170399 -0.916916
0.29277 0.157532 -0.92333
0.322395 0.152316 -0.919363
0.365818 0.149906 -0.906894
0.411742 0.14797 -0.889472
0.455411 0.145735 -0.869486
0.495325 0.143098 -0.848333
0.531317 0.140138 -0.826827
0.563659 0.136931 -0.805452
0.592749 0.133527 -0.784413
0.619002 0.130057 -0.763895
0.642746 0.126588 -0.743936
-0.618299 -0.38266 -0.568475
-0.591597 -0.419854 -0.572323
-0.561096 -0.456524 -0.577635
-0.526322 -0.492068 -0.584215
-0.486954 -0.525727 -0.591854
-0.442492 -0.556778 -0.600472
-0.392417 -0.58411 -0.610002
-0.336049 -0.605932 -0.620525
-0.272259 -0.61901 -0.632041
-0.198412 -0.616307 -0.644799
-0.0705503 -0.578425 -0.659632
-0.0438728 -0.386729 -0.715677
-0.228327 -0.0903338 -0.817441
-0.3575 0.193792 -0.876326
-0.341422 0.286381 -0.888798
-0.289845 0.300536 -0.904114
-0.22362 0.309507 -0.919249
-0.144999 0.314283 -0.930676
-0.064419 0.314421 -0.935984
0.0182239 0.308216 -0.938561
0.0936355 0.304319 -0.937318
0.157665 0.299997 -0.931765
0.216129 0.292912 -0.92259
0.262537 0.283793 -0.912741
0.29007 0.272784 -0.903502
0.286911 0.253627 -0.902517
0.273298 0.233253 -0.912071
0.282753 0.220109 -0.917359
0.31726 0.212975 -0.912231
0.362399 0.208205 -0.899376
0.408602 0.204013 -0.882072
0.452088 0.199783 -0.862469
0.491781 0.195366 -0.841805