# vtk DataFile Version 4.2
vtk output
ASCII
DATASET POLYDATA
POINTS 642 double
-1.55355 4.05324 -0.111212
0.725926 3.96909 -0.0891311
-1.56384 0.116593 -0.0177652
0.926805 0.117369 -0.0105037
-0.345245 0.873382 1.88254
-0.433108 3.20549 1.7419
-0.32894 0.932005 -1.83569
-0.453079 3.35163 -1.98124
1.5002 2.05475 -1.09492
1.55038 2.02116 1.093
-2.23481 2.20437 -1.21413
-2.28729 2.13132 1.1694
-2.19843 3.26392 0.672847
-1.50504 2.80638 1.76516
-1.05954 3.87612 1.05469
0.25376 3.83078 0.941558
-0.340288 4.35479 -0.0676832
0.287227 3.94185 -1.13136
-1.10519 4.05824 -1.24758
-1.51554 2.91785 -1.9201
-2.21786 3.33335 -0.79979
-2.60036 2.13801 -0.00584982
0.722348 2.71349 1.64979
1.37085 3.10371 0.615199
-1.47157 1.37378 1.77037
-0.357802 2.06638 2.11153
-2.14565 0.942433 -0.694897
-2.16814 0.930728 0.691138
-0.408743 2.21673 -2.15688
-1.43341 1.45781 -1.74912
1.3209 3.17381 -0.663591
0.668057 2.81384 -1.704
1.5855 0.922072 0.683296
0.788168 1.3635 1.74353
0.403722 0.217003 1.13139
-1.07448 0.19835 1.13918
-0.336878 -0.19483 -0.0227795
-1.04219 0.248944 -1.13613
0.386122 0.25588 -1.13768
0.746513 1.38825 -1.71811
1.55437 0.937938 -0.695156
1.8876 1.99338 -0.0106815
-1.91619 3.73431 0.296668
-1.70303 3.65151 0.910921
-1.3405 4.03025 0.495899
-1.95756 2.48907 1.53547
-1.92089 3.08541 1.2986
-2.32294 2.71907 0.96307
-0.745401 3.58068 1.47599
-1.33837 3.40541 1.48589
-0.951049 3.06434 1.83058
-0.712995 4.21935 0.489028
-0.995123 4.27568 -0.0939739
-0.0685582 3.55801 1.39108
-0.383915 3.94623 1.03071
0.20939 4.25137 -0.076647
-0.0187996 4.19681 0.469113
0.511969 3.98537 0.445037
-0.762431 4.29171 -0.69383
-1.38151 4.14164 -0.721193
0.571066 4.03182 -0.577271
-0.0163697 4.26336 -0.638476
-0.7571 3.75026 -1.71498
-0.43765 4.06955 -1.27332
-0.0814608 3.68311 -1.62695
-1.74616 3.7866 -1.06988
-1.93173 3.79285 -0.452558
-0.986159 3.18762 -2.06104
-1.36439 3.55911 -1.68717
-2.30757 2.80242 -1.0565
-1.96199 3.18012 -1.43908
-1.94191 2.58808 -1.62808
-2.28979 3.34941 -0.0520342
-2.49794 2.15841 -0.629104
-2.49716 2.76669 -0.417215
-2.5151 2.73061 0.350412
-2.52351 2.13997 0.6389
0.873494 3.5224 0.823479
1.05739 3.60599 0.252507
0.193656 2.96246 1.75479
0.551192 3.29872 1.35764
1.5241 2.60589 0.882372
1.12154 2.96118 1.1746
1.18557 2.39025 1.43633
-0.972972 2.47457 2.03428
-0.411423 2.65943 2.0004
-1.96581 1.78337 1.52185
-1.55981 2.12388 1.85678
-0.329849 1.42985 2.06595
-0.950816 1.73252 2.04295
-0.907318 1.05579 1.89768
-2.49108 1.52334 0.354803
-2.30264 1.56466 0.981418
-2.25673 1.54136 -0.957799
-2.47221 1.52271 -0.370406
-1.93379 0.453758 0.358224
-2.26193 0.883409 -0.0222733
-1.93271 0.467712 -0.384739
-1.51985 2.23004 -1.93898
-1.88605 1.83663 -1.54703
-0.444996 2.85273 -2.16003
-0.974175 2.61082 -2.17456
-0.866315 1.12245 -1.85608
-0.945491 1.84924 -2.0655
-0.337065 1.48687 -2.03726
0.510503 3.43902 -1.50559
0.100722 3.1323 -1.90706
1.06607 3.6418 -0.399694
0.86153 3.633 -0.93772
1.12819 2.42851 -1.45422
1.05921 3.03363 -1.25068
1.48526 2.6126 -0.911613
1.31531 0.431687 0.333637
1.06391 0.477855 0.940167
0.72981 0.0865334 0.551857
1.2407 1.68078 1.46898
1.27021 1.09909 1.27953
1.65392 1.44077 0.924454
0.0108414 0.50666 1.60079
0.643745 0.720258 1.51956
0.221342 1.08437 1.88932
0.0638137 -0.0990907 0.594915
0.369412 -0.109781 -0.0162345
-0.720579 0.473406 1.59264
-0.33915 0.119173 1.20694
-0.991074 -0.129082 -0.0169677
-0.72946 -0.104551 0.607819
-1.36226 0.0819688 0.601805
0.0539568 -0.079653 -0.621738
0.694258 0.108752 -0.599289
-1.36082 0.100656 -0.577231
-0.728489 -0.0875035 -0.608866
0.0154031 0.554811 -1.56766
-0.34365 0.162588 -1.1954
-0.680429 0.548081 -1.575
1.03381 0.508484 -0.943144
1.30318 0.444424 -0.361109
0.234604 1.12641 -1.84264
0.624203 0.775638 -1.51066
1.60699 1.44448 -0.918766
1.21904 1.12599 -1.2693
1.18339 1.69683 -1.46128
1.68364 0.865136 -0.0152864
1.78022 2.01001 -0.569002
1.85125 1.4595 -0.355421
1.86947 1.44306 0.345975
1.79727 2.01883 0.587944
0.239698 1.69398 2.02862
0.812821 2.05904 1.78622
0.215677 2.3941 1.97879
-1.70532 0.479596 0.97713
-1.33063 0.713481 1.56623
-1.8931 1.10225 1.31909
-1.27384 0.760806 -1.51669
-1.67857 0.517904 -0.96338
-1.85705 1.13857 -1.27736
0.764752 2.09157 -1.77915
0.205289 1.74065 -2.0067
0.148268 2.52565 -2.02738
1.71572 2.59852 0.322563
1.6962 2.60606 -0.342686
1.43864 3.18 -0.0233856
-1.7329 3.91677 0.0792075
-1.66539 3.88865 0.422372
-1.46153 4.05486 0.176085
-1.97239 3.47597 0.80038
-1.82403 3.70181 0.628117
-2.09075 3.49343 0.499921
-1.20955 3.97436 0.7834
-1.53971 3.85044 0.728996
-1.38333 3.78608 1.00634
-2.13876 2.31527 1.37095
-2.15881 2.61665 1.27508
-2.32678 2.43232 1.07601
-1.71638 2.95757 1.56322
-1.96088 2.78966 1.43188
-1.74954 2.64815 1.66625
-2.28041 3.00007 0.825173
-2.13959 2.91249 1.14816
-2.09082 3.17543 0.998003
-0.573335 3.38919 1.63416
-0.889091 3.33648 1.66928
-0.668719 3.14972 1.79844
-1.21827 3.65667 1.2854
-1.05149 3.51396 1.49311
-0.931031 3.75419 1.26637
-1.21774 2.95392 1.82465
-1.171 3.23976 1.67836
-1.42278 3.12551 1.64969
-1.83769 3.38171 1.11968
-1.63545 3.2688 1.41742
-1.5355 3.54641 1.22129
-1.15128 4.18085 0.207392
-1.27959 4.18058 -0.121508
-0.885321 4.06055 0.785566
-1.02795 4.1397 0.509046
-0.672244 4.33935 -0.072309
-0.837459 4.27256 0.211565
-0.518337 4.31484 0.215726
-0.255746 3.3877 1.5828
-0.413775 3.59117 1.44468
-0.0640616 3.91729 0.991695
-0.22733 3.76885 1.21819
0.110164 3.71161 1.16558
-0.577938 3.78097 1.26268
-0.740814 3.92902 1.05987
0.518447 4.1072 -0.0816341
0.375002 4.14259 0.19101
0.646749 3.99059 0.148942
-0.185792 4.3073 0.200953
0.108018 4.24365 0.200501
-0.0669725 4.32598 -0.075854
0.407943 3.92735 0.680505
0.256026 4.11227 0.456081
0.12526 4.03653 0.715819
-0.558411 4.1122 0.773015
-0.196473 4.09777 0.757801
-0.371984 4.24269 0.481885
-1.19196 4.22418 -0.423782
-1.48389 4.11258 -0.43784
-0.531617 4.34991 -0.368592
-0.888458 4.30617 -0.407772
-1.26106 4.13437 -0.964493
-1.10072 4.23225 -0.729786
-0.962687 4.20173 -0.991763
0.651666 4.02168 -0.347053
0.411977 4.16143 -0.344869
0.145775 4.12717 -0.898739
0.288058 4.16727 -0.623789
0.42416 4.00598 -0.887031
0.115266 4.27767 -0.347226
-0.179833 4.33882 -0.361117
-0.590464 3.54528 -1.8796
-0.457291 3.74685 -1.68399
-0.289 3.51146 -1.83632
-0.796992 4.08352 -1.28897
-0.609899 3.9372 -1.49968
-0.95703 3.93196 -1.48746
0.122692 3.82736 -1.38668
-0.257955 3.90464 -1.45667
-0.028578 4.02735 -1.19433
-0.382098 4.30651 -0.667015
-0.190859 4.19569 -0.944003
-0.619926 4.21419 -0.997975
-1.67788 3.98743 -0.5984
-1.7739 3.92934 -0.30739
-1.42779 3.95875 -1.17749
-1.57205 3.99457 -0.900694
-2.09129 3.58779 -0.628595
-1.86775 3.79567 -0.783233
-2.01023 3.57541 -0.943857
-0.723463 3.28401 -2.04541
-0.877937 3.49209 -1.91417
-1.45944 3.24565 -1.83531
-1.17191 3.38607 -1.90388
-1.25345 3.0634 -2.01705
-1.06571 3.68662 -1.72034
-1.24661 3.83288 -1.48965
-2.28548 2.46938 -1.1585
-2.15313 2.70136 -1.35726
-2.12377 2.37611 -1.40987
-2.12296 3.26286 -1.13263
-2.15895 2.9973 -1.2591
-2.2863 3.07097 -0.941865
-1.75553 2.74655 -1.78444
-1.96959 2.89321 -1.54872
-1.75016 3.05907 -1.70778
-1.57681 3.69279 -1.39993
-1.68688 3.38422 -1.5877
-1.8828 3.49317 -1.27545
-1.95114 3.76496 -0.0914864
-2.26843 3.35971 -0.446988
-2.13036 3.58016 -0.265367
-2.13861 3.54027 0.126147
-2.26704 3.31546 0.333111
-2.38418 2.18238 -0.930148
-2.41755 2.48895 -0.854398
-2.57449 2.45151 -0.209552
-2.51847 2.47209 -0.532943
-2.56974 2.14318 -0.321277
-2.41759 2.79213 -0.751039
-2.3771 3.05504 -0.633603
-2.45614 2.43321 0.801427
-2.43549 2.13269 0.891953
-2.37754 3.02326 0.52471
-2.43999 2.73329 0.665369
-2.58691 2.14149 0.323737
-2.54503 2.43384 0.483769
-2.58739 2.44117 0.172533
-2.42595 3.06502 -0.247038
-2.53671 2.75523 -0.0258052
-2.43136 3.04825 0.155433
0.808072 3.80152 0.351284
0.895702 3.80732 0.0750858
0.577011 3.69049 0.892442
0.694652 3.76606 0.633729
1.23028 3.3595 0.442805
0.984853 3.5671 0.561502
1.13659 3.32452 0.732299
-0.118295 3.09124 1.76021
0.0730076 3.27053 1.59036
0.642004 3.00415 1.53371
0.383774 3.13727 1.57194
0.468581 2.83956 1.71836
0.260201 3.43786 1.38208
0.41112 3.57137 1.1703
1.55153 2.29786 1.01121
1.37717 2.50085 1.17696
1.39805 2.2035 1.26117
1.26909 3.03916 0.90745
1.33781 2.79172 1.04004
1.46092 2.86558 0.755527
0.985532 2.54752 1.54608
1.17169 2.67102 1.32344
0.936935 2.84044 1.43383
0.728398 3.42628 1.10548
0.848344 3.1444 1.28261
1.01628 3.24817 1.01684
-0.697223 2.87348 1.93606
-0.427569 2.94197 1.88469
-1.24013 2.65225 1.9291
-0.992605 2.76203 1.95536
-0.377447 2.39931 2.06839
-0.710314 2.57272 2.03572
-0.676844 2.28209 2.08599
-2.13353 1.94113 1.3701
-1.97085 2.13409 1.55887
-1.54046 1.76175 1.83132
-1.76441 1.95354 1.71729
-1.72413 1.56369 1.66397
-1.76577 2.31346 1.71829
-1.54978 2.4701 1.83339
-0.341964 1.10822 1.97689
-0.638929 1.22553 1.99593
-0.605809 0.944589 1.91037
-0.657755 1.90146 2.10403
-0.631833 1.58223 2.07433
-0.341796 1.76039 2.10871
-1.19194 1.19319 1.84719
-0.945774 1.36452 1.97303
-1.2232 1.5493 1.92792
-1.27533 2.29933 1.98254
-1.26113 1.94513 1.98712
-0.98449 2.11222 2.06931
-2.44436 1.84186 0.806139
-2.31649 1.82779 1.07593
-2.57485 1.83719 0.17156
-2.53167 1.83505 0.48487
-2.25696 1.24975 0.846699
-2.41677 1.51824 0.667555
-2.35537 1.22118 0.528333
-2.26161 1.86491 -1.08813
-2.40149 1.84584 -0.805517
-2.33059 1.22441 -0.536308
-2.38467 1.52628 -0.672607
-2.21566 1.22803 -0.825692
-2.50383 1.83316 -0.500882
-2.56123 1.8283 -0.197497
-1.73725 0.240558 0.144938
-1.9516 0.435014 -0.0177082
-1.73671 0.247823 -0.181554
-2.23595 0.884477 0.33538
-2.11863 0.648599 0.166345
-2.0656 0.672985 0.533854
-2.05499 0.672021 -0.542926
-2.11585 0.652622 -0.206454
-2.228 0.900155 -0.373187
-2.51186 1.51285 -0.0148839
-2.39217 1.19355 -0.200888
-2.39918 1.18834 0.167966
-1.93124 2.21929 -1.61412
-2.07696 2.02346 -1.39235
-1.52898 2.58116 -1.95752
-1.7462 2.41104 -1.80396
-1.68393 1.6626 -1.66314
-1.71797 2.04597 -1.76532
-1.48747 1.86724 -1.86534
-0.456736 3.08724 -2.10453
-0.704262 3.01184 -2.14754
-0.717384 2.44559 -2.19772
-0.708096 2.7293 -2.19456
[...]
POINT_DATA 642
SCALARS Mean_Curvature double 1
LOOKUP_TABLE default
0.819666
1.0328
0.977257
0.947778
0.969786
0.705476
0.855752
1.17891
0.790946
0.859071
0.736039
0.953645
0.941436
1.02238
0.901365
0.618881
0.981039
0.969197
1.25098
0.997891
1.0518
0.800211
0.808738
0.884835
0.649475
0.771836
0.763826
0.701143
0.490037
0.522053
0.651427
0.610399
1.08126
0.857047
0.921832
0.953889
0.670115
0.920339
0.964256
0.830715
1.04659
0.863275
0.863797
0.940391
0.662311
0.980153
0.963779
0.949817
0.903093
1.02471
0.984789
0.918794
0.778953
0.605191
0.772656
1.09243
0.988969
0.978558
0.793811
1.21366
1.03647
1.02027
1.16962
0.837923
0.788607
1.05975
0.939336
1.39124
0.996023
0.970773
1.17316
0.929955
0.837719
0.746371
0.773521
0.898328
0.903923
0.809652
0.664265
0.73495
0.733363
0.929479
0.834299
0.911982
0.999111
0.687023
0.919421
0.892822
0.846674
0.649223
0.914083
0.812878
0.770054
0.722608
0.837184
0.900599
0.780015
0.988167
0.945773
0.51387
1.11154
1.14634
0.74302
0.597434
0.677874
0.872852
0.834198
1.0193
0.906478
0.786066
0.658866
0.823816
0.992602
0.944287
0.91352
0.846848
1.0047
1.13019
0.870474
0.86448
0.868357
0.805584
0.832894
0.951753
0.94271
0.919455
0.822359
0.959825
0.862205
0.858227
0.980903
0.866677
0.865203
0.906484
1.0128
0.87944
1.0035
0.809241
0.909042
0.980122
0.889065
0.816382
1.01682
0.859209
1.18531
1.23427
0.82024
0.878869
0.858862
0.86821
1.01919
1.15599
0.709523
1.08335
1.02924
0.715183
0.716568
0.738302
0.566351
0.916448
0.807618
0.810725
0.721403
0.888155
0.603526
0.93935
0.903238
0.904394
0.824822
0.885459
0.918142
0.969364
0.991887
0.963082
0.993947
0.975217
0.988505
0.932725
0.967728
0.945562
0.872387
0.984958
0.90485
0.959216
0.952513
0.952451
1.04426
1.03982
1.00799
0.965328
1.0022
0.984528
0.68719
0.628585
0.691303
0.735129
0.884297
0.878854
0.961039
0.521414
0.801259
0.880894
0.6115
0.583526
0.835107
0.8564
1.01936
1.06577
0.941126
1.07478
1.0234
1.07282
0.81972
1.03165
0.915019
0.930545
0.926839
1.03708
0.617447
0.996297
0.833253
0.80348
1.36268
1.02311
1.24794
1.10407
1.05974
0.990939
1.01299
1.02213
1.03868
1.01813
1.15978
0.882979
0.81023
1.14173
1.02076
1.1647
0.851353
0.791993
0.858108
0.893108
0.857068
0.811629
1.02657
0.891939
1.1303
1.183
0.945864
1.05689
1.09816
1.29286
1.21976
1.04569
1.14804
1.16378
1.17897
1.08512
0.887737
0.936612
0.915732
1.11162
1.12971
1.04546
1.00004
0.987117
1.03652
0.951212
1.07508
0.984837
0.760171
0.84592
0.827165
0.836219
0.918392
0.674674
0.666192
0.766023
0.785768
0.774089
0.817555
0.858264
1.00617
0.947373
0.92727
0.913579
0.916274
0.842114
0.911283
0.775705
0.892294
0.854621
0.621422
0.926491
0.667539
0.642692
0.7446
0.778578
0.777644
0.66159
0.64594
0.847654
0.705489
0.811432
0.650394
0.731898
0.842879
0.922382
0.841962
0.910529
0.854952
0.918866
0.831624
0.911898
0.818916
0.830984
0.800224
0.892163
0.90658
0.530499
1.0425
1.01939
0.739511
0.886339
0.619555
0.956965
0.964051
0.833519
0.894209
0.705533
0.914293
0.932719
0.771097
0.669147
1.10671
0.730219
0.685379
0.747995
0.610854
0.612492
0.590414
1.05217
0.979844
1.0011
0.953532
0.939824
0.852344
0.754325
0.777742
0.777188
0.800936
0.709327
0.743711
0.77395
0.787421
0.752827
0.770036
0.806288
0.958252
0.927304
0.995271
0.726879
0.992816
0.870018
1.227
1.05834
0.76624
0.840267
0.823124
0.7835
0.903722
0.534844
1.0034
0.932845
0.60482
0.866232
0.696531
1.28859
1.32236
1.00492
1.1455
0.976707
1.28896
1.08716
0.810508
0.7564
0.849452
0.533525
0.644561
0.638898
0.639963
0.607176
0.554299
1.02063
1.01698
0.939451
0.755747
0.887338
0.892794
0.85606
0.862396
0.794729
0.953211
1.04338
1.02904
0.921786
0.931695
0.828115
0.95879
0.997181
0.771745
0.806181
0.787419
0.746579
0.710953
0.72694
0.725635
0.771022
0.570582
0.948997
0.846556
0.942564
0.974026
0.949621
0.96767
1.00818
0.981764
1.01313
0.905631
0.906978
0.911427
0.856283
0.861231
0.917662
0.795387
0.853645
0.822278
1.05315
1.02035
1.10662
0.938172
0.883606
0.910306
0.916132
0.877757
0.878606
0.851714
0.860019
0.817502
1.00112
0.895702
0.889525
0.952611
0.97665
0.894289
0.915472
0.713813
0.752942
0.695614
1.08311
1.01853
0.873454
0.945452
0.833699
0.947863
0.851768
0.963484
0.854425
0.939788
0.658223
0.975207
0.730342
1.04825
0.857982
0.940856
0.802557
0.971538
0.737423
0.880261
0.952922
0.768283
0.816891
0.919173
0.868663
0.936805
0.980834
1.01248
0.878778
0.877091
0.87527
0.918324
0.865419
0.850944
0.894337
0.841839
0.896504
0.906274
0.958418
1.00717
0.966993
0.970003
0.856527
0.951843
0.829124
0.984903
0.96645
0.915494
0.878687
1.02896
0.996837
0.999228
0.842372
0.832083
0.932652
0.869803
0.824663
0.924311
0.953543
0.791806
0.805138
0.784363
1.04816
0.919441
1.18245
0.792831
0.818846
0.845777
0.891121
0.8949
0.892485
0.991264
1.04104
1.0058
1.00351
1.05852
0.849409
0.810676
1.14885
0.910845
0.859952
1.10494
1.19841
0.989422
0.862428
1.03982
1.16542
0.820828
1.13455
1.16599
1.1112
1.24473
1.0763
0.776931
0.86095
0.844852
0.908452
0.79347
0.889132
0.832944
0.901602
0.842204
0.890403
0.653491
0.845893
0.738897
0.781919
0.805463
0.929249
0.863865
0.920139
0.958277
0.946687
1.00396
0.960509
1.12325
1.06248
1.15053
1.15405
0.996685
1.00021
0.869638
0.683727
0.759958
0.704899
0.688025
1.00164
1.21312
1.12275
0.831152
0.96695
1.09484
0.836757
0.620116
0.990867
1.19872
1.02141
0.994134
0.892701
0.739795
0.64612
0.699834
0.723339
0.758629
1.01554
0.868383
0.725971
0.766365
0.806534
0.766385
0.770122
0.6555
0.827479
0.701756
0.705624
0.770529
0.775453
0.952172
0.393829
0.73348
0.911604
0.592531
0.75726
0.68659
0.682645
0.843897
0.888293
0.844613
0.922643
0.835554
0.864778
0.751783
0.85095
0.820099
0.892735
0.65755
0.858047
0.688585
0.697428
0.720569
0.925323
0.78271
0.895117
SCALARS Redistribution_Potential double 1
LOOKUP_TABLE default
-9.43881e-17
-0.705986
0.411147
0.0980841
0.0412177
-0.511
-0.0629373
-0.0316227
-0.556723
-0.550876
0.270594
0.185619
0.0915905
-0.113309
-0.319881
-0.695611
-0.376231
-0.411003
0.158015
0.257604
0.287477
0.290512
-0.66888
-0.808826
0.156741
-0.297441
0.350625
0.389848
-0.0942793
0.149461
-0.724899
-0.467881
-0.12529
-0.269825
0.151208
0.380022
0.303611
0.257544
0.0435943
-0.314438
-0.179951
-0.53423
0.0378899
-0.0879103
-0.170187
0.0539543
-0.0086017
0.139248
-0.437473
-0.224537
-0.327861
-0.362269
-0.170614
-0.625689
-0.53021
-0.54804
-0.566135
-0.715371
-0.101202
0.113882
-0.582418
-0.373377
0.0858866
-0.105621
-0.216604
0.26795
0.169891
0.183471
0.259882
0.304905
0.328113
0.276044
0.190623
0.29286
0.275465
0.222068
0.250026
-0.802035
-0.800243
-0.626089
-0.738286
-0.721732
-0.769049
-0.642376
-0.21804
-0.423772
0.171066
0.0112817
-0.128906
-0.0594762
0.112091
0.333203
0.282396
0.290688
0.32982
0.435304
0.396711
0.41075
0.18892
0.226893
-0.0527535
0.111551
0.0358153
0.0416126
-0.117116
-0.44933
-0.271771
-0.737948
-0.618536
-0.5621
-0.616879
-0.667225
0.0188086
0.0284075
0.146095
-0.417765
-0.192172
-0.322248
0.106824
-0.0292238
-0.113937
0.263057
0.199335
0.250113
0.276218
0.380976
0.369824
0.426825
0.196102
0.0856874
0.36372
0.303831
-0.0205368
0.155707
0.10154
-0.0598372
-0.0145708
-0.191898
-0.141681
-0.371382
-0.274028
-0.435023
-0.119537
-0.551029
-0.333243
-0.303983
-0.543408
-0.309744
-0.499469
-0.504369
0.429188
0.329611
0.318011
0.194392
0.336104
0.257274
-0.426935
-0.26116
-0.272644
-0.715471
-0.697306
-0.791469
0.0140243
-0.0552915
-0.0827095
0.00975142
-0.0279522
0.0692898
-0.246591
-0.131315
-0.204626
0.124529
0.09674
0.162418
-0.0639741
0.0233665
-0.0230484
0.115657
0.0692297
0.0456918
-0.484739
-0.378446
-0.432431
-0.274154
-0.332563
-0.374619
-0.223259
-0.272906
-0.175247
-0.0441318
-0.111294
-0.15511
-0.182903
-0.0786892
-0.351299
-0.270854
-0.272795
-0.278585
-0.373735
-0.570377
-0.538134
-0.61829
-0.586265
-0.669414
-0.487556
-0.424998
-0.645011
-0.643152
-0.714656
-0.471854
-0.563728
-0.461274
-0.713854
-0.647494
-0.642266
-0.448219
-0.553001
-0.460424
-0.0323336
0.0599084
-0.254387
-0.131262
0.149519
0.0241361
0.0560785
-0.64411
-0.567721
-0.38992
-0.481289
-0.490485
-0.47007
-0.370485
0.0270504
-0.0515437
-0.115432
0.050658
-0.00167471
0.138204
-0.32019
-0.15879
-0.282273
-0.239872
-0.256354
-0.0812364
0.149121
0.100891
0.228695
0.205113
0.237941
0.231601
0.285776
0.0914529
0.146387
0.275586
0.229574
0.230967
0.195115
0.223531
0.28731
0.300104
0.273615
0.322806
0.32187
0.306803
0.271255
0.305776
0.300094
0.279712
0.309238
0.312409
0.104389
0.240652
0.17999
0.125176
0.140609
0.284793
0.28884
0.280375
0.286478
0.295101
0.289228
0.280291
0.202889
0.225124
0.161761
0.18232
0.275183
0.235722
0.262702
0.248007
0.255641
0.209019
-0.771394
-0.76379
-0.759037
-0.770829
-0.817907
-0.80944
-0.816533
-0.574231
-0.638635
-0.714902
-0.689444
-0.657337
-0.693758
-0.731551
-0.637668
-0.687294
-0.602649
-0.796805
-0.75551
-0.777519
-0.663453
-0.714255
-0.724285
-0.778476
-0.764649
-0.800076
-0.381023
-0.471079
-0.16869
-0.267657
-0.374802
-0.321374
-0.264957
0.17941
0.108627
0.0807496
0.0914894
0.165171
0.0273739
-0.0523403
-0.0333705
-0.00223813
0.0793237
-0.179078
-0.103041
-0.220797
0.140617
0.032375
0.0541642
-0.0910904
-0.0228331
-0.134599
0.268627
0.239662
0.308939
0.292854
0.337714
0.316017
0.359221
0.275969
0.293258
0.34126
0.312366
0.315902
0.306021
0.313813
0.428092
0.427546
0.414641
0.400567
0.422923
0.421454
0.398741
0.415887
0.380523
0.341579
0.363278
0.371551
0.246284
0.253979
0.225043
0.238022
0.192038
0.206704
0.158286
-0.0297064
0.067805
0.0144693
0.036757
-0.0676317
0.148261
0.196119
-0.0204324
-0.0384486
-0.0962696
0.096668
0.0255381
0.0985371
-0.117359
-0.0407054
-0.0225099
0.162904
0.0762732
0.128208
-0.252921
-0.156358
-0.43584
-0.347939
-0.379327
-0.369755
-0.464484
-0.725698
-0.671996
-0.686792
-0.687162
-0.739489
-0.601706
-0.521982
-0.572156
-0.621822
-0.612647
-0.549454
-0.598778
-0.528598
-0.699337
-0.656997
-0.674378
-0.533329
-0.620104
-0.541444
0.0655731
0.0852652
0.125647
-0.0407701
0.0259359
-0.0447979
0.154683
0.0940861
0.0903539
-0.484666
-0.379705
-0.438852
-0.238855
-0.303676
-0.354674
-0.218033
-0.259759
-0.146561
0.0748055
0.00502471
-0.0297246
0.0718961
0.0360674
0.13826
-0.195885
-0.0735206
-0.155571
-0.0647866
-0.111865
0.0077106
0.183887
0.15668
0.216227
0.208502
0.251041
0.238141
0.289547
0.160194
0.18031
0.33118
0.263977
0.323009
0.201571
0.215287
0.402843
0.409003
0.422984
0.345588
0.383519
0.345352
0.413946
0.402016
0.381739
0.280361
0.339507
0.323546
0.149974
0.0991094
0.255469
0.204637
0.0677142
0.141453
0.124436
0.392753
0.375745
0.284213
0.333127
0.31464
0.345406
0.311156
-0.0493538
0.045922
0.00972051
0.0988979
0.0703703
0.017673
0.182027
0.134109
0.207568
0.256464
0.237393
0.183135
0.0356112
0.0431439
-0.00898611
0.0159214
-0.0886846
-0.0346455
-0.119177
-0.127136
-0.113105
-0.230502
-0.176595
-0.255021
-0.0813776
-0.0412767
-0.486058
-0.415621
-0.505849
-0.223149
-0.326781
-0.269519
-0.382354
-0.360423
-0.30426
-0.0961149
-0.204531
-0.158756
0.00507101
-0.136537
-0.0638019
-0.0451018
-0.11382
-0.557609
-0.468698
-0.427081
-0.451713
-0.541445
-0.353604
-0.24249
-0.434721
-0.544219
-0.213623
-0.30948
-0.538688
-0.414904
-0.420425
-0.209203
-0.308994
-0.198198
-0.132374
-0.295373
-0.221473
-0.225989
-0.31787
-0.539091
-0.594796
-0.574902
-0.470173
-0.387079
-0.536762
-0.407832
-0.480027
-0.57646
-0.596727
-0.401763
-0.509757
-0.411388
0.43708
0.413586
0.432217
0.438417
0.426041
0.198292
0.252523
0.237443
0.290526
0.363768
0.23596
0.365363
0.299027
0.24313
0.247259
0.397373
0.346563
0.404968
0.0624343
0.227696
0.151706
0.116119
0.156311
0.391937
0.358572
0.381457
0.352464
0.303605
0.258578
0.203492
0.233035
0.277266
0.307699
0.275375
0.293917
0.229024
-0.512965
-0.379402
-0.44714
-0.49861
-0.45718
-0.165643
-0.193124
-0.189605
-0.23878
-0.30189
-0.157958
-0.363918
-0.274074
-0.159144
-0.177034
-0.341956
-0.276671
-0.363712
-0.646197
-0.634152
-0.644125
-0.723647
-0.776317
-0.629226
-0.728323
-0.686518
-0.633619
-0.630492
-0.776742
-0.806167
-0.80502
-0.778351
-0.763179
-0.706742
-0.752435
-0.768533
SCALARS CoVolArea double 1
LOOKUP_TABLE default
0.078311
0.0588805
0.0639608
0.0749138
0.0618063
0.067253
0.0593722
0.0639184
0.0624514
0.0730319
0.076766
0.0807123
0.0977545
0.0991978
0.0968636
0.0987366
0.0936635
0.0926694
0.0967356
0.100462
0.104159
0.106959
0.0923276
0.0924232
0.108473
0.104758
0.100765
0.112276
0.110668
0.116162
0.103265
0.0981749
0.10024
0.102946
0.107556
0.107689
0.118494
0.106743
0.100514
0.0978647
0.0965016
0.0914359
0.10703
0.104523
0.106112
0.0913775
0.105557
0.0964358
0.0939382
0.0964431
0.087896
0.101479
0.101106
0.100851
0.102409
0.0868123
0.0948887
0.0881679
0.112298
0.0862259
0.0847492
0.101831
0.0934842
0.116069
0.10449
0.11154
0.0938124
0.0871188
0.112808
0.0990827
0.106487
0.0979724
0.117159
0.105253
0.113757
0.110553
0.0937793
0.10012
0.0961813
0.0946498
0.1003
0.0910357
0.0965279
0.0892784
0.0969378
0.0949227
0.100425
0.103052
0.101311
0.116044
0.0946743
0.115099
0.0990134
0.104452
0.109634
0.104754
0.112081
0.0979892
0.101453
0.104787
0.0749398
0.0919947
0.102011
0.119306
0.0999352
0.0982245
0.094039
0.0823489
0.096445
0.0970756
0.106225
0.0917102
0.103424
0.10944
0.103176
0.0918831
0.105507
0.089124
0.10234
0.113849
0.102086
0.119958
0.0991851
0.0975877
0.112386
0.105943
0.114197
0.102757
0.113955
0.0984901
0.0956615
0.11085
0.100445
0.106914
0.091588
0.108247
0.0950311
0.0908529
0.103482
0.0929177
0.104099
0.0979459
0.106529
0.0892914
0.0966096
0.0978953
0.0925947
0.0995978
0.103555
0.0998352
0.106347
0.104808
0.113041
0.102565
0.101526
0.112204
0.10794
0.105278
0.11789
0.0977861
0.104282
0.101676
0.097606
0.10235
0.100894
0.103699
0.0977445
0.100543
0.102055
0.0999456
0.105082
0.0947534
0.0955333
0.0951084
0.102594
0.0954939
0.0910541
0.0948058
0.096258
0.103126
0.0818599
0.0881795
0.0800012
0.0974334
0.0902609
0.0916444
0.0888094
0.0859007
0.0962737
0.115264
0.111113
0.112468
0.104339
0.0986
0.104307
0.101709
0.102921
0.0989531
0.0963818
0.0923294
0.0928012
0.095188
0.0954364
0.0959901
0.0973427
0.100775
0.0791164
0.0853348
0.0816907
0.0913893
0.0830999
0.0826155
0.0885914
0.0807652
0.0934458
0.11236
0.107597
0.106586
0.0966928
0.0941186
0.110897
0.106846
0.0871699
0.0920756
0.0988118
0.0717918
0.083783
0.0969447
0.0922772
0.0904028
0.088764
0.0978293
0.0811063
0.0951729
0.089378
0.0993238
0.0940221
0.0944838
0.100886
0.105558
0.110557
0.120877
0.125028
0.124949
0.0911628
0.091162
0.110385
0.0946153
0.099745
0.0973601
0.107381
0.0797785
0.091068
0.107617
0.0989077
0.0925633
0.100172
0.108572
0.0957855
0.0994597
0.094088
0.104644
0.0934348
0.0919628
0.0935487
0.0953568
0.105154
0.127148
0.122337
0.123604
0.102487
0.115579
0.104586
0.106853
0.106867
0.102795
0.105595
0.112739
0.105598
0.102106
0.0995674
0.109075
0.0945454
0.0903133
0.107017
0.0992713
0.0992507
0.0983891
0.108907
0.129167
0.124612
0.126354
0.0949833
0.0813916
0.104801
0.095253
0.0976492
0.0974228
0.0977952
0.0983807
0.103932
0.0959516
0.0953296
0.0856136
0.10123
0.102772
0.0907912
0.0921231
0.0903161
0.0912015
0.088059
0.083262
0.088326
0.0895399
0.0985155
0.107586
0.106327
0.103369
0.0901409
0.0905158
0.0993602
0.0867648
0.096661
0.0893415
0.106509
0.0920356
0.0935084
0.112467
0.0983456
0.106597
0.0910229
0.101006
0.0853378
0.100559
0.086247
0.110448
0.109289
0.0980574
0.0984789
0.106586
0.116899
0.11223
0.119516
0.116139
0.0961362
0.0912441
0.111009
0.103751
0.109345
0.106121
0.117467
0.1062
0.105212
0.10794
0.102209
0.100397
0.102229
0.108985
0.0929368
0.10404
0.0935732
0.114079
0.101771
0.099706
0.0920402
0.0984246
0.107513
0.124333
0.122363
0.127572
0.101676
0.100939
0.101762
0.0958056
0.1085
0.100862
0.112306
0.075808
0.0775218
0.0963691
0.0785125
0.0893854
0.0843153
0.0975015
0.0830829
0.0992885
0.0852522
0.120869
0.11105
0.108906
0.108135
0.110171
0.1161
0.108395
0.114733
0.117573
0.0976272
0.0853879
0.0966915
0.0967624
0.0977106
0.0965886
0.098057
0.078125
0.0791042
0.0962145
0.0828871
0.0868195
0.0907003
0.0947372
0.0865767
0.0957232
0.0872299
0.0982143
0.0967733
0.0926759
0.0965967
0.0967469
0.108056
0.106624
0.111595
0.109029
0.0933564
0.102742
0.0920712
0.106992
0.10196
0.101486
0.10382
0.102077
0.108909
0.0913232
0.0915709
0.0887269
0.104374
0.0930362
0.0957316
0.088705
0.0924753
0.105177
0.088025
0.0990642
0.0870176
0.108484
0.101556
0.104327
0.09826
0.103564
0.110165
0.123
0.125277
0.124551
0.101316
0.0911095
0.116376
0.1079
0.109909
0.10858
0.123223
0.0903025
0.0978557
0.11114
0.102253
0.101598
0.103292
0.112176
0.0955045
0.108781
0.0945674
0.118857
0.105197
0.103188
0.0963041
0.102993
0.109996
0.12898
0.124509
0.131538
0.099746
0.099148
0.11688
0.106019
0.098594
0.103014
0.110308
0.0871218
0.0986832
0.109624
0.0997823
0.0998098
0.0999779
0.11235
0.0868791
0.096818
0.0834028
0.106995
0.0992628
0.0972716
0.0949208
0.0934954
0.105308
0.125864
0.122618
0.122901
0.098321
0.0933856
0.104745
0.0986449
0.097643
0.0993889
0.10479
0.0832902
0.0918608
0.0966881
0.0893826
0.0878283
0.0977033
0.102828
0.0919004
0.0983638
0.0924882
0.0994597
0.0884831
0.085082
0.0916185
0.0895529
0.101072
0.119885
0.117739
0.120151
0.0983572
0.102962
0.0987961
0.104317
0.106707
0.0856119
0.0910974
0.086976
0.0851673
0.0871034
0.0891565
0.100161
0.0895891
0.0879987
0.0975396
0.0892715
0.0930121
0.0920107
0.0925116
0.114896
0.108231
0.114092
0.0961455
0.100143
0.0934673
0.0955867
0.10059
0.0945692
0.0991272
0.0898132
0.0931942
0.106253
0.0992751
0.101564
0.0956919
0.0909502
0.0960424
0.114001
0.112705
0.109776
0.104826
0.108977
0.0977309
0.101072
0.106704
0.0967835
0.102085
0.0942079
0.0977673
0.110768
0.0973337
0.114459
0.10745
0.107796
0.108005
0.119615
0.117507
0.118868
0.0919693
0.107075
0.0915947
0.0958908
0.107457
0.097717
0.100005
0.0946134
0.0980081
0.105446
0.109358
0.117174
0.109073
0.106788
0.104839
0.114179
0.112519
0.118527
0.0988186
0.104152
0.0945862
0.0948315
0.107872
0.0936315
0.113771
0.0977329
0.0938261
0.0993731
0.083665
0.111672
0.100013
0.0964938
0.116296
0.117231
0.124875
0.124278
0.0936474
0.0988382
0.0924789
0.0889962
0.0943832
0.0933167
0.106248
0.0930618
0.0950894
0.100515
0.091969
0.0980114
0.0990501
0.0952517
0.103525
0.110233
0.112533
0.106838
SCALARS SignedDistance double 1
LOOKUP_TABLE default
1.99429
2.29075
1.54671
1.56107
1.92282
2.46961
2.06012
2.11785
2.19771
2.05559
2.1371
1.6614
1.70717
1.94362
2.15501
2.50399
1.94154
1.99627
1.72326
1.77371
1.68936
1.80994
2.25752
2.28802
2.05875
2.20984
1.89107
1.77526
2.51245
2.27613
2.40672
2.52801
1.6346
1.95192
1.61711
1.56699
1.80966
1.73451
1.7673
2.16862
1.80692
2.09322
1.90439
1.89037
2.11506
1.74131
1.76501
1.65535
2.29769
2.02639
2.22888
2.1236
1.97557
2.50851
2.39841
2.09619
2.21522
2.39526
1.92789
1.84069
2.08539
1.88125
1.86395
1.94781
2.0888
1.50997
1.77506
1.85459
1.52203
1.87391
1.61529
1.8961
1.81737
1.96253
1.90162
1.72779
1.73459
2.39585
2.45385
2.36796
2.36933
2.16899
2.25273
2.14986
2.21048
2.40738
1.85388
1.91494
2.03717
2.20135
2.07453
1.73769
1.80717
1.97322
1.84853
1.65176
1.78467
1.64232
2.12714
2.25112
2.32346
2.13962
2.15026
2.3929
2.25121
2.20978
2.35219
2.36427
2.21341
2.35722
2.46005
2.29591
1.51543
1.62697
1.59188
2.01292
1.86892
1.88485
1.74742
1.79983
1.91631
1.71309
1.72441
1.6838
1.59022
1.67007
1.7186
1.54564
1.70761
1.69219
1.64843
1.66765
1.95829
1.77519
1.95608
1.82692
1.61294
2.11973
1.97626
2.07068
2.0485
2.18797
1.6232
2.12535
1.93268
1.84105
2.058
2.05418
2.11185
2.25417
1.56354
1.7726
1.88336
2.04838
1.84143
2.06646
2.34537
2.26502
2.56109
2.19365
2.21993
2.35388
1.99173
1.99196
2.07009
1.78463
1.87825
1.77643
2.11553
1.98477
2.02097
1.69047
1.67213
1.63506
1.83819
1.73915
1.82189
1.67368
1.69438
1.72027
2.39103
2.24566
2.36543
2.07893
2.15729
2.20867
2.08904
2.11103
1.9838
1.81219
1.88511
1.94205
2.06097
2.03336
2.22672
2.13836
1.91874
2.02853
2.00734
2.50355
2.45501
2.45264
2.50841
2.51352
2.37391
2.30188
2.20733
2.24385
2.33809
2.06572
2.15167
2.00859
2.453
2.30052
2.3689
2.25135
2.2999
2.13802
2.01604
1.91755
1.87294
1.92808
1.77379
1.98461
1.93542
2.18047
2.08641
1.91964
1.97165
2.01294
1.98774
1.91005
1.99006
2.05719
2.17112
1.91175
1.98139
1.75507
2.01896
1.98718
1.92386
1.83937
1.85063
1.93553
1.77611
1.86387
1.56102
1.65483
1.70032
1.64469
1.57059