<VTKFile type="ImageData" version="1.0" byte_order="LittleEndian" header_type="UInt64">
	<ImageData WholeExtent="0 44 0 44 0 44" Origin="-0.132051 -0.00436058 -0.0993497" Spacing="0.00523864 0.00523864 0.00523864">
		<Piece Extent="0 44 0 44 0 44">
			<PointData Scalars="Scalars_">
				<DataArray type="Float32" Name="Scalars_" format="ascii" RangeMin="0" RangeMax="100">
0.124095
0.120902
0.117764
0.114677
0.111637
0.108645
0.105706
0.102831
0.100039
0.097351
0.0947903
0.0923818
0.0901494
0.0881139
0.0862958
0.0847135
0.0833828
0.0823187
0.0815359
0.0810551
0.0814236
0.0820132
0.0827586
0.0836348
0.0845922
0.0855436
0.0864174
0.0872597
0.08815
0.0891561
0.0903233
0.0916733
0.0932137
0.0949418
0.0968508
0.0989296
0.101165
0.103543
0.106045
0.108653
0.111347
0.114107
0.11692
0.119771
0.122656
0.122255
0.119018
0.115835
0.112701
0.109612
0.10657
0.103579
0.100651
0.0978035
0.0950592
0.0924422
0.0899775
0.08769
0.0856017
0.0837343
0.0821072
0.0807379
0.0796427
0.0788379
0.0783455
0.0787207
0.0793215
0.0800778
0.0809592
0.0819106
0.0828438
0.0837036
0.084548
0.0854494
0.0864706
0.0876556
0.0890263
0.0905897
0.0923431
0.0942782
0.0963843
0.0986483
0.101054
0.103585
0.106221
0.108942
0.111729
0.114568
0.117445
0.120357
0.120609
0.117331
0.114106
0.110928
0.107794
0.104705
0.101665
0.0986862
0.0957871
0.0929898
0.090319
0.0878006
0.0854603
0.0833213
0.0814061
0.0797357
0.0783286
0.0772029
0.0763768
0.0758728
0.0762547
0.0768662
0.0776298
0.0785064
0.079435
0.0803342
0.0811725
0.0820165
0.0829264
0.0839603
0.0851608
0.0865498
0.088133
0.0899077
0.0918655
0.0939956
0.0962841
0.0987154
0.101272
0.103934
0.106681
0.109494
0.112358
0.115262
0.118199
0.119169
0.115854
0.11259
0.109373
0.106198
0.103066
0.0999809
0.0969554
0.0940083
0.0911616
0.0884412
0.0858729
0.083483
0.0812962
0.0793358
0.0776239
0.0761806
0.0750261
0.0741794
0.0736645
0.0740525
0.0746732
0.0754385
0.0762915
0.0771718
0.0780166
0.0788266
0.0796685
0.0805853
0.0816298
0.0828434
0.0842475
0.0858476
0.08764
0.0896165
0.0917669
0.094077
0.0965311
0.0991107
0.101797
0.104569
0.107408
0.110297
0.113227
0.116191
0.117946
0.114599
0.111302
0.10805
0.104838
0.101668
0.0985433
0.095477
0.0924869
0.0895962
0.0868308
0.0842172
0.0817825
0.079552
0.0775502
0.0758003
0.0743238
0.0731418
0.0722763
0.0717516
0.0721447
0.0727733
0.073527
0.0743201
0.0751138
0.0758826
0.0766612
0.0775014
0.0784248
0.0794787
0.0807039
0.082121
0.0837347
0.0855418
0.0875342
0.0897018
0.0920307
0.0945055
0.0971072
0.099817
0.102613
0.105477
0.108392
0.111348
0.11434
0.116956
0.113582
0.110256
0.106975
0.103733
0.100531
0.0973726
0.0942717
0.0912452
0.088317
0.0855127
0.0828605
0.0803868
0.0781188
0.0760808
0.0742974
0.0727914
0.0715858
0.0707028
0.0701698
0.0705677
0.0712003
0.0719099
0.0725731
0.0732318
0.0739107
0.074663
0.0755058
0.0764383
0.077503
0.0787399
0.080169
0.0817949
0.0836145
0.0856211
0.0878034
0.0901496
0.0926439
0.0952672
0.0979998
0.10082
0.10371
0.106651
0.109634
0.112653
0.116215
0.11282
0.109474
0.106169
0.102904
0.0996766
0.0964933
0.0933646
0.0903094
0.0873519
0.0845175
0.0818344
0.0793299
0.0770313
0.0749647
0.0731543
0.0716247
0.0703994
0.0695025
0.0689627
0.0693644
0.0699887
0.0705633
0.0709773
0.0714694
0.0720708
0.0728128
0.0736672
0.0746142
0.0756938
0.0769457
0.0783885
0.0800268
0.0818588
0.0838785
0.0860763
0.0884396
0.0909532
0.0935979
0.0963536
0.0991991
0.102115
0.105083
0.108093
0.111139
0.115743
0.112344
0.108983
0.105664
0.102384
0.0991407
0.0959397
0.0927933
0.0897202
0.086743
0.0838889
0.0811855
0.078661
0.0763425
0.0742565
0.0724281
0.0708824
0.0696436
0.0687374
0.0681933
0.068597
0.0691475
0.0693321
0.0694005
0.0697725
0.0703403
0.0710947
0.0719722
0.072943
0.0740455
0.0753184
0.0767786
0.0784325
0.0802789
0.0823137
0.0845278
0.086909
0.0894423
0.0921087
0.0948881
0.0977589
0.1007
0.103696
0.106733
0.109806
0.11546
0.112357
0.109223
0.106023
0.102765
0.0995329
0.0963426
0.0932062
0.0901412
0.0871716
0.0843237
0.0816251
0.079104
0.0767872
0.0747017
0.0728725
0.0713247
0.0700841
0.0691764
0.0686318
0.0687749
0.0683788
0.0678841
0.0677894
0.0681444
0.0687261
0.0695101
0.070422
0.0714268
0.0725616
0.0738622
0.0753457
0.0770194
0.0788837
0.0809357
0.0831675
0.0855674
0.088121
0.0908093
0.0936118
0.0965072
0.0994744
0.102496
0.105561
0.108661
0.114026
0.111152
0.108365
0.10563
0.102885
0.100034
0.0969975
0.0938857
0.0908355
0.0878798
0.0850444
0.0823569
0.0798453
0.0775362
0.0754551
0.0736271
0.0720741
0.0708112
0.069808
0.0688218
0.0677852
0.06685
0.066235
0.0662584
0.06665
0.0672657
0.0680841
0.069036
0.0700839
0.0712593
0.0725939
0.0741052
0.0758021
0.0776868
0.0797579
0.0820083
0.0844269
0.0869993
0.0897075
0.0925313
0.0954494
0.0984414
0.10149
0.104581
0.107707
0.112298
0.109439
0.106706
0.104097
0.101608
0.0992125
0.0968503
0.0944013
0.0917103
0.0888388
0.0860292
0.0833577
0.080856
0.0785463
0.0764412
0.0745282
0.0727209
0.0708885
0.0691255
0.0675495
0.0662434
0.0652623
0.0646533
0.0648835
0.0653408
0.065994
0.0668417
0.0678345
0.0689322
0.0701547
0.0715284
0.0730705
0.0747921
0.0766981
0.0787877
0.0810547
0.0834892
0.0860771
0.0888013
0.0916432
0.0945819
0.0975972
0.100671
0.10379
0.106944
0.110682
0.107803
0.105052
0.102437
0.0999625
0.0976298
0.0954321
0.0933461
0.0913158
0.089234
0.086965
0.0844476
0.0818508
0.0792644
0.0766775
0.0741578
0.0717838
0.0696181
0.0677036
0.0660745
0.0647599
0.0637891
0.0631969
0.0636383
0.06421
0.0649119
0.0657803
0.066807
0.0679584
0.0692354
0.0706523
0.0722267
0.0739725
0.0758982
0.0780034
0.0802838
0.08273
0.0853291
0.0880661
0.0909232
0.0938816
0.0969216
0.100025
0.103175
0.106362
0.109245
0.106344
0.103573
0.100939
0.0984476
0.0961024
0.0939019
0.0918331
0.0898594
0.0879026
0.085834
0.083527
0.0809596
0.0782385
0.0755134
0.0729016
0.0704769
0.0682845
0.0663571
0.0647241
0.0634138
0.0624551
0.0618812
0.0624858
0.0632204
0.0640086
0.0648963
0.0659378
0.0671258
0.0684456
0.0698987
0.0715013
0.0732701
0.0752147
0.0773362
0.0796305
0.0820885
0.0846994
0.0874493
0.0903233
0.0933049
0.0963755
0.0995162
0.10271
0.105941
0.107999
0.105081
0.102293
0.0996439
0.0971384
0.0947808
0.0925708
0.0904974
0.0885301
0.0865978
0.0845777
0.0823327
0.0798159
0.0771186
0.0743939
0.0717708
0.0693315
0.067126
0.0651893
0.063552
0.0622446
0.0612975
0.0607434
0.0614346
0.062335
0.0632698
0.0642046
0.0652387
0.0664158
0.0677363
0.0692035
0.0708293
0.072625
0.074596
0.0767418
0.0790567
0.0815325
0.0841589
0.0869246
0.0898172
0.0928235
0.0959285
0.0991164
0.10237
0.105674
0.106949
0.104019
0.101221
0.0985621
0.0960482
0.0936836
0.0914685
0.0893939
0.0874329
0.0855213
0.0835423
0.0813538
0.0788875
0.076218
0.0734987
0.0708689
0.0684192
0.0662039
0.0642605
0.0626222
0.0613217
0.060393
0.0598719
0.0605901
0.0615974
0.0626607
0.0636561
0.0646713
0.0658196
0.0671413
0.0686389
0.0703078
0.0721449
0.0741486
0.0763178
0.0786476
0.0811328
0.0837653
0.0865363
0.0894361
0.0924547
0.0955786
0.0987955
0.102091
0.105451
0.106097
0.103163
0.100361
0.0976991
0.0951832
0.0928186
0.0906055
0.0885356
0.0865847
0.0846943
0.0827545
0.0806217
0.0782108
0.0755781
0.0728749
0.0702487
0.0677985
0.0655833
0.0636433
0.0620144
0.0607333
0.0598415
0.0593906
0.0600509
0.0610621
0.0621541
0.0631706
0.0641704
0.0653071
0.0666464
0.0681904
0.0699206
0.0718185
0.0738723
0.0760759
0.0784262
0.0809204
0.0835551
0.0863249
0.0892233
0.0922422
0.0953724
0.0986034
0.101923
0.10532
0.105444
0.10251
0.0997102
0.0970524
0.0945427
0.0921862
0.0899841
0.0879286
0.085997
0.0841354
0.0822396
0.0801656
0.0778152
0.0752309
0.0725595
0.0699543
0.067522
0.0653258
0.0634074
0.0618014
0.0605423
0.059665
0.0592073
0.0597072
0.0606393
0.0617445
0.0628662
0.0640019
0.0652472
0.0666622
0.068258
0.0700263
0.0719545
0.0740326
0.0762536
0.078613
0.0811071
0.0837327
0.0864846
0.0893578
0.0923456
0.0954427
0.0986421
0.101937
0.105321
0.104963
0.102027
0.0992259
0.0965697
0.0940658
0.0917197
0.0895349
0.0875081
0.0856229
0.0838335
0.0820451
0.0801048
0.077891
0.0754134
0.0727993
0.0702163
0.0677904
0.0655934
0.0636686
0.0620508
0.0607726
0.0598647
0.0593568
0.0597514
0.0606302
0.061712
0.0628671
0.0640827
0.0654065
0.0668767
0.0685063
0.0702942
0.0722337
0.0743163
0.0765337
0.0788796
0.081349
0.0839387
0.0866458
0.0894681
0.0924036
0.0954502
0.0986058
0.101866
0.105228
0.104408
0.101412
0.0985496
0.0958303
0.0932664
0.0908693
0.0886501
0.0866168
0.0847722
0.0831061
0.0815723
0.0800356
0.0782208
0.0759045
0.0733617
0.0708158
0.0684115
0.0662296
0.0643141
0.0626993
0.0614153
0.0604896
0.0599465
0.0603066
0.0611256
0.0621521
0.0632764
0.0644991
0.0658487
0.0673443
0.0689917
0.0707891
0.0727307
0.074809
0.0770156
0.0793451
0.081794
0.0843604
0.0870438
0.0898432
0.0927582
0.095787
0.0989275
0.102175
0.105525
0.10303
0.0998734
0.0968506
0.0939761
0.0912647
0.0887333
0.0863984
0.0842772
0.082388
0.0807477
0.0793696
0.0782527
0.0773349
0.0763166
0.0742054
0.0717222
0.0693542
0.0671988
0.0653022
0.0636983
0.0624159
0.0614804
0.0609167
0.061237
0.0619876
0.0629459
0.064029
0.0652393
0.0665906
0.0680908
0.0697404
0.0715359
0.0734703
0.0755365
0.0777274
0.080038
0.082466
0.0850106
0.0876719
0.0904506
0.0933455
0.0963556
0.0994777
0.102709
0.106043
0.100602
0.0972939
0.0941266
0.0911132
0.0882704
0.0856163
0.083169
0.0809493
0.0789797
0.0772843
0.0758902
0.0748293
0.0741496
0.0742987
0.0743116
0.072909
0.0705965
0.0684794
0.0666108
0.0650255
0.0637523
0.0628163
0.062244
0.0625174
0.0632
0.0640907
0.0651281
0.0663135
0.0676505
0.069139
0.0707751
0.0725537
0.0744673
0.0765101
0.0786753
0.0809595
0.0833612
0.0858802
0.0885171
0.091272
0.0941443
0.0971326
0.100234
0.103444
0.106759
0.0977742
0.0943568
0.0910796
0.0879574
0.0850067
0.0822462
0.0796958
0.0773783
0.0753181
0.0735423
0.0720821
0.0709739
0.0702713
0.0704996
0.0712494
0.0722238
0.0720146
0.0700449
0.0682147
0.0666565
0.0654005
0.0644719
0.0638994
0.0641199
0.0647386
0.0655659
0.0665562
0.0677093
0.0690212
0.0704849
0.0720937
0.0738405
0.0757193
0.0777241
0.0798516
0.0820989
0.0844657
0.0869524
0.0895592
0.0922861
0.0951324
0.0980955
0.101173
0.10436
0.107652
0.0949702
0.0914563
0.0880796
0.0848556
0.0818018
0.0789374
0.0762837
0.0738653
0.0717087
0.0698436
0.0683046
0.0671328
0.0663871
0.0665684
0.0673713
0.0685954
0.0701469
0.0713848
0.0700838
0.0685622
0.0673311
0.0664174
0.0658511
0.0660142
0.0665745
0.0673437
0.0682872
0.0694025
0.0706804
0.0721088
0.0736777
0.0753799
0.0772099
0.0791644
0.0812416
0.0834418
0.0857646
0.0882114
0.0907819
0.0934756
0.0962912
0.0992259
0.102276
0.105437
0.108705
0.0923059
0.0886989
0.0852254
0.0819011
0.0787442
0.0757746
0.0730152
0.0704921
0.0682339
0.0662739
0.0646497
0.0634072
0.062612
0.0627171
0.0635494
0.0648315
0.0664969
0.0684901
0.0705907
0.0707108
0.0695125
0.0686204
0.0680655
0.0681695
0.0686777
0.0693937
0.0702902
0.0713631
0.0725994
0.0739832
0.0755022
0.0771484
0.0789189
0.0808128
0.082831
0.0849751
0.0872467
0.0896469
0.0921752
0.0948312
0.0976114
0.100513
0.103533
0.106666
0.109906
0.0898098
0.0861137
0.0825459
0.0791226
0.0758625
0.0727868
0.0699195
0.0672884
0.0649245
0.0628642
0.061149
0.0598297
0.058979
0.0589888
0.0598522
0.0611893
0.0629262
0.0650118
0.0674017
0.0699997
0.0717444
0.071049
0.0705096
0.0705563
0.0710184
0.0716841
0.0725327
0.0735586
0.0747463
0.0760777
0.0775381
0.0791208
0.0808245
0.0826514
0.0846048
0.0866882
0.0889038
0.091253
0.0937351
0.0963488
0.0990907
0.101956
0.104943
0.108043
0.111253
0.0874945
0.0837141
0.0800557
0.0765363
0.0731748
0.0699933
0.0670171
0.0642757
0.0618027
0.0596373
0.0578254
0.0564229
0.0555091
0.0554076
0.0563074
0.0577026
0.0595128
0.0616819
0.0641646
0.0669214
0.0698978
0.0726402
0.0731344
0.0731466
0.0735675
0.0741844
0.074983
0.0759573
0.0770904
0.0783623
0.0797586
0.0812731
0.0829068
0.0846645
0.0865516
0.0885724
0.0907305
0.0930268
0.0954601
0.0980284
0.100729
0.103556
0.106505
0.109571
0.112747
0.0853657
0.0815081
0.077766
0.0741556
0.0706968
0.0674122
0.0643284
0.0614762
0.0588919
0.0566178
0.0547039
0.053211
0.052224
0.0520011
0.052941
0.0543972
0.0562827
0.0585366
0.0611099
0.0639608
0.0670538
0.0703497
0.073661
0.0755927
0.0762726
0.076863
0.0776102
0.0785283
0.0796013
0.0808096
0.0821388
0.083584
0.0851485
0.0868381
0.0886604
0.0906202
0.0927214
0.0949643
0.0973481
0.0998703
0.102526
0.105312
0.108222
0.11125
0.11439
0.0834245
0.0795007
0.0756846
0.0719923
0.0684438
0.0650621
0.0618744
0.0589135
0.0562178
0.0538329
0.0518127
0.0502228
0.0491517
0.0488019
0.049784
0.0513027
0.053264
0.0556024
0.0582649
0.0612073
0.0643923
0.0677868
0.0713527
0.0749784
0.0780903
0.0795339
0.080368
0.0812417
0.0822529
0.0833955
0.0846578
0.0860363
0.0875348
0.089161
0.0909225
0.0928247
0.0948709
0.0970618
0.0993965
0.101872
0.104483
0.107226
0.110094
0.113082
0.116184
0.0816645
0.0776895
0.0738139
0.0700537
0.0664276
0.062959
0.0596761
0.0566124
0.0538089
0.0513137
0.0491848
0.0474923
0.0463268
0.0458498
0.0468738
0.0484536
0.0504887
0.0529085
0.0556569
0.0586868
0.0619591
0.0654392
0.0690887
0.0728169
0.0764244
0.0796239
0.0822677
0.083843
0.0849733
0.0860897
0.0872966
0.0886151
0.0900544
0.0916233
0.093329
0.0951779
0.0971727
0.0993141
0.101601
0.104029
0.106595
0.109294
0.112119
0.115065
0.118126
0.0800712
0.076063
0.0721474
0.0683384
0.0646539
0.0611157
0.0577524
0.0545981
0.0516952
0.0490948
0.0468586
0.0450607
0.0437939
0.0431932
0.0442554
0.0458912
0.047994
0.0504891
0.0533165
0.0564272
0.0597802
0.0633396
0.0670632
0.0708463
0.0744603
0.0776054
0.0801896
0.0824509
0.0846804
0.0870335
0.0892975
0.0910551
0.0926157
0.094189
0.0958635
0.0976697
0.0996191
0.101714
0.103955
0.106337
0.108858
0.111512
0.114293
0.117196
0.120214
0.0786231
0.0746007
0.0706677
0.066835
0.0631181
0.0595364
0.0561167
0.0528927
0.0499075
0.0472145
0.0448784
0.0429778
0.0416081
0.0408911
0.0419827
0.0436638
0.0458234
0.0483827
0.051279
0.0544608
0.0578854
0.0615153
0.0653046
0.0691306
0.0727345
0.0758105
0.0783216
0.0805545
0.0827962
0.0851846
0.0877621
0.0905325
0.0934671
0.0960805
0.0982225
0.100184
0.102162
0.10424
0.106445
0.108787
0.111265
0.113875
0.116612
0.119471
0.122445
0.0773035
0.0732805
0.0693492
0.065519
0.061801
0.058211
0.0547711
0.0515119
0.0484746
0.0457133
0.0432953
0.0413034
0.0398371
0.0390161
0.04012
0.041828
0.0440267
0.0466345
0.0495856
0.0528257
0.0563103
0.0599999
0.0638438
0.0676988
0.0712731
0.0742635
0.076697
0.0789028
0.0811564
0.0835758
0.0861931
0.0890076
0.0920068
0.0951754
0.0984863
0.101634
0.104298
0.106674
0.10898
0.111336
0.113794
0.116369
0.119066
0.121882
0.124813
0.0761153
0.072094
0.0681732
0.0643619
0.0606698
0.0571092
0.0536959
0.0504533
0.0474154
0.0446311
0.0421675
0.0401106
0.0385654
0.0376576
0.0387439
0.04045
0.0426636
0.0452994
0.0482873
0.0515701
0.0551003
0.0588362
0.0627218
0.0665883
0.0701094
0.0729935
0.0753414
0.077518
0.0797804
0.0822268
0.0848789
0.0877311
0.0907685
0.0939766
0.0973394
0.100842
0.104456
0.107921
0.110964
0.113699
0.116311
0.118932
0.121623
0.124412
0.127305
0.0750866
0.0710593
0.0671429
0.0633488
0.0596898
0.0561796
0.0528333
0.049669
0.04671
0.0439894
0.0415577
0.0394913
0.0379018
0.0369302
0.0379459
0.0396115
0.0418115
0.0444523
0.0474576
0.0507648
0.0543234
0.0580893
0.0619994
0.0658559
0.0692908
0.0720369
0.0742831
0.0764234
0.078689
0.0811558
0.0838355
0.0867182
0.0897875
0.093027
0.0964212
0.0999548
0.103615
0.107388
0.111238
0.114911
0.118225
0.121247
0.124126
0.126981
0.129882
0.0742642
0.0702205
0.0662934
0.0624973
0.0588491
0.0553672
0.0520734
0.0489922
0.0461529
0.0435919
0.0413573
0.039516
0.0381635
0.0374281
0.0383294
0.0399038
0.0420315
0.0446146
0.047573
0.0508421
0.0543692
0.058107
0.0619771
0.0657246
0.068945
0.0714542
0.0735556
0.0756434
0.0779024
0.0803811
0.0830801
0.0859849
0.0890771
0.0923401
0.0957569
0.0993128
0.102995
0.10679
0.110689
0.114678
0.118691
0.122513
0.126027
0.129274
0.132374
0.0737222
0.0696593
0.0657141
0.0619023
0.0582416
0.0547526
0.051459
0.0483881
0.0455717
0.0430479
0.0408633
0.0390781
0.0377749
0.0370757
0.0383006
0.0401255
0.0424202
0.0451074
0.0481271
0.0514288
0.0549695
0.0587057
0.0625426
0.0661394
0.0690413
0.0712306
0.0731652
0.075195
0.077441
0.0799234
0.0826322
0.0855488
0.0886545
0.0919308
0.095361
0.0989301
0.102625
0.106433
0.110343
0.114347
0.118435
0.122587
0.126707
0.130639
0.134299
0.0742994
0.0702501
0.0663167
0.0625141
0.0588595
0.0553725
0.052077
0.0490012
0.0461795
0.0436551
0.0414842
0.0397408
0.0385281
0.0380367
0.0392582
0.0410921
0.0434032
0.0461042
0.0491298
0.0524288
0.0559588
0.0596744
0.0634632
0.0669496
0.0696991
0.0717775
0.0736596
0.0756656
0.0778976
0.0803696
0.0830684
0.0859758
0.0890721
0.092339
0.0957599
0.0993198
0.103005
0.106804
0.110706
0.114702
0.118781
0.122935
0.127142
0.13135
0.135464
0.0752518
0.0712341
0.0673326
0.0635624
0.0599405
0.0564873
0.0532271
0.0501891
0.0474093
0.044933
0.0428178
0.0411392
0.0400035
0.0396571
0.0408483
0.0426476
0.0449235
0.047589
0.0505782
0.0538394
0.0573301
0.0610022
0.0647282
0.0681122
0.0707342
0.0727159
0.0745451
0.0765189
0.0787263
0.0811754
0.0838527
0.0867385
0.0898136
0.0930596
0.0964601
0.1
0.103666
0.107446
0.11133
0.115309
0.119372
0.123512
0.127719
0.131976
0.136248
0.0765456
0.0725751
0.0687233
0.0650048
0.0614375
0.0580419
0.0548427
0.0518699
0.0491596
0.0467571
0.0447188
0.0431173
0.0420549
0.0418203
0.0429659
0.0447063
0.0469181
0.0495179
0.0524415
0.0556382
0.0590656
0.062674
0.0663245
0.0696073
0.0721146
0.0740098
0.0757862
0.0777229
0.0798975
0.0823147
0.08496
0.0878139
0.0908577
0.0940734
0.0974435
0.100954
0.104592
0.108345
0.112203
0.116156
0.120195
0.124313
0.128501
0.132751
0.137048
0.0781525
0.0742427
0.0704547
0.0668035
0.0633072
0.0599864
0.056866
0.053976
0.0513521
0.049038
0.0470874
0.045568
0.0445752
0.0444309
0.0455235
0.0471924
0.0493238
0.0518395
0.0546786
0.0577923
0.0611389
0.0646676
0.0682308
0.0714106
0.073811
0.0756275
0.0773522
0.0792474
0.0813828
0.0837609
0.0863667
0.089181
0.0921851
0.0953614
0.0986939
0.102167
0.105769
0.109488
0.113312
0.117232
0.121241
0.125329
0.12949
0.133717
0.138001
0.0800477
0.0762093
0.072496
0.0689236
0.0655099
0.0622758
0.0592459
0.0564496
0.0539215
0.0517031
0.0498445
0.0484079
0.0474799
0.0474105
0.0484474
0.0500395
0.0520824
0.0545041
0.0572476
0.0602662
0.0635199
0.0669577
0.0704239
0.0734973
0.0757957
0.0775387
0.0792124
0.0810642
0.0831562
0.0854898
0.0880499
0.0908181
0.0937763
0.0969072
0.100195
0.103624
0.107184
0.110861
0.114645
0.118527
0.122499
0.126552
0.130679
0.134874
0.139131
0.0822073
0.078448
0.0748179
0.0713324
0.0680094
0.0648695
0.0619371
0.0592405
0.0568126
0.0546926
0.0529263
0.0515701
0.050702
0.0506949
0.051677
0.0531913
0.0551431
0.0574663
0.0601081
0.063025
0.0661781
0.0695166
0.0728794
0.0758429
0.0780427
0.0797169
0.0813411
0.0831472
0.0851926
0.0874777
0.0899881
0.0927057
0.0956128
0.0986929
0.10193
0.105311
0.108823
0.112453
0.116192
0.12003
0.12396
0.127972
0.132061
0.136218
0.14044
0.0846088
0.0809345
0.0773931
0.0739998
0.0707725
0.0677315
0.0649001
0.0623054
0.0599788
0.0579564
0.0562801
0.0550008
0.0541877
0.0542323
0.0551621
0.0566006
0.0584619
0.0606859
0.0632241
0.0660361
0.0690848
0.0723195
0.0755735
0.0784246
0.0805279
0.0821365
0.0837117
0.0854717
0.087469
0.0897036
0.0921609
0.0948245
0.0976768
0.100702
0.103885
0.107212
0.110671
0.114251
0.11794
0.12173
0.125613
0.129581
0.133626
0.137743
0.141925
0.0872317
0.083646
0.0801966
0.0768989
0.07377
0.0708296
0.0681002
0.0656074
0.0633807
0.0614532
0.0598632
0.0586561
0.0578938
0.0579806
0.0588619
0.0602279
0.0620013
0.0641278
0.0665632
0.0692696
0.0722126
0.0753413
0.078484
0.0812209
0.0832291
0.0847747
0.0863022
0.0880158
0.089964
0.0921462
0.0945489
0.097156
0.099951
0.102919
0.106044
0.109315
0.112718
0.116243
0.119878
0.123617
0.12745
0.131369
0.135367
0.139438
0.143578
0.0900557
0.0865612
0.083206
0.0800052
0.0769755
0.0741358
0.0715075
0.0691147
0.0669848
0.0651487
0.0636402
0.0625006
0.0617848
0.0619057
0.0627425
0.0640404
0.0657299
0.0677622
0.070097
0.0726996
0.0755375
0.0785595
0.0815897
0.084211
0.0861254
0.0876102
0.0890914
0.090759
0.0926579
0.0947873
0.0971341
0.0996834
0.10242
0.105327
0.108393
0.111605
0.114949
0.118416
0.121997
0.12568
0.12946
0.133327
0.137276
0.141299
0.145392
0.120371
0.117153
0.113997
0.110896
0.107844
0.104837
0.101877
0.0989721
0.0961382
0.0933967
0.0907743
0.0882983
0.0859958
0.0838918
0.0820088
0.0803682
0.0789877
0.0778835
0.077071
0.0765716
0.0769514
0.0775579
0.0783201
0.0792167
0.0801951
0.0811562
0.0820221
0.0828572
0.0837501
0.084772
0.0859681
0.0873587
0.088949
0.0907345
0.0927056
0.0948498
0.0971518
0.0995936
0.102155
0.104815
0.107551
0.110344
0.113177
0.116042
0.118936
0.118479
0.115214
0.112009
0.108858
0.105755
0.102694
0.0996787
0.0967162
0.0938223
0.0910199
0.0883355
0.0857974
0.0834338
0.0812707
0.0793324
0.0776413
0.076217
0.0750772
0.0742399
0.0737272
0.0741141
0.0747332
0.0755086
0.0764151
0.0773927
0.078341
0.0791984
0.0800401
0.0809472
0.0819872
0.0832041
0.0846185
0.0862351
0.0880491
0.09005
0.092225
0.0945582
0.0970312
0.0996239
0.102314
0.105079
0.107899
0.110759
0.113651
0.116573
0.116785
0.113476
0.110226
0.107029
0.103877
0.100766
0.0976977
0.0946808
0.0917307
0.0888701
0.0861264
0.0835286
0.0811061
0.0788855
0.0768931
0.0751525
0.0736848
0.0725103
0.0716482
0.0711224
0.0715168
0.0721479
0.0729335
0.0738405
0.0748025
0.0757228
0.0765643
0.0774102
0.0783291
0.0793837
0.0806186
0.0820539
0.0836933
0.0855316
0.0875583
0.0897599
0.0921205
0.0946215
0.097242
0.0999596
0.102752
0.105599
0.108486
0.111405
0.114355
0.115301
0.111953
0.108662
0.105421
0.102225
0.0990684
0.0959522
0.092885
0.0898823
0.0869677
0.0841684
0.0815149
0.0790365
0.076762
0.0747178
0.0729296
0.0714202
0.0702118
0.0693258
0.0687876
0.0691889
0.0698307
0.0706218
0.071513
0.0724349
0.0733073
0.0741258
0.0749739
0.0759019
0.0769684
0.078218
0.0796703
0.0813285
0.0831868
0.0852348
0.087459
0.0898434
0.0923693
0.0950153
0.0977588
0.100577
0.103451
0.106364
0.109311
0.112289
0.114041
0.110657
0.10733
0.104052
0.100817
0.0976193
0.0944604
0.0913479
0.0882982
0.0853351
0.0824859
0.0797816
0.0772525
0.0749279
0.0728363
0.0710038
0.0694555
0.0682153
0.0673069
0.0667574
0.0671648
0.0678162
0.0686017
0.0694447
0.0702896
0.0710902
0.0718815
0.072731
0.0736662
0.0747428
0.0760045
0.0774706
0.0791437
0.0810181
0.0830835
0.0853267
0.0877317
0.0902799
0.0929496
0.095718
0.0985624
0.101462
0.104403
0.107377
0.110384
0.113018
0.109606
0.106249
0.102939
0.0996711
0.0964388
0.0932431
0.0900928
0.0870033
0.0839983
0.0811061
0.0783579
0.0757844
0.0734165
0.071283
0.0694117
0.0678288
0.0665603
0.0656316
0.0650722
0.0654846
0.0661431
0.0668971
0.067627
0.0683422
0.0690526
0.0698202
0.0706736
0.0716169
0.072703
0.0739759
0.075454
0.0771391
0.0790263
0.0811061
0.0833655
0.0857892
0.0883584
0.0910513
0.0938443
0.0967148
0.0996418
0.10261
0.105613
0.108648
0.112253
0.108818
0.105438
0.102105
0.0988103
0.095551
0.0923277
0.0891472
0.0860262
0.0829883
0.0800622
0.0772789
0.0746702
0.0722672
0.0701
0.0681968
0.0665857
0.0652936
0.0643483
0.0637809
0.0641976
0.0648559
0.065504
0.0659982
0.0665375
0.0671626
0.0679199
0.0687848
0.0697404
0.0708398
0.0721262
0.0736166
0.0753133
0.0772123
0.0793052
0.0815803
0.0840222
0.0866124
0.0893285
0.0921467
0.0950436
0.0979985
0.100996
0.104027
0.107091
0.111765
0.108325
0.104929
0.10158
0.0982696
0.0949933
0.091751
0.088551
0.0854097
0.0823503
0.0794017
0.0765954
0.0739634
0.0715373
0.0693472
0.0674227
0.0657921
0.064484
0.0635272
0.0629547
0.063374
0.063995
0.0643008
0.0644161
0.0648071
0.0653889
0.0661586
0.0670459
0.0680233
0.0691441
0.0704496
0.0719559
0.0736666
0.0755793
0.0776868
0.0799789
0.0824398
0.0850511
0.0877908
0.090635
0.0935593
0.0965425
0.0995686
0.102629
0.105722
0.111482
0.108327
0.105157
0.101936
0.0986599
0.095396
0.0921659
0.0889773
0.0858462
0.0827956
0.0798546
0.0770539
0.0744262
0.0720023
0.0698131
0.0678875
0.0662545
0.0649435
0.0639844
0.0634116
0.063646
0.0633928
0.0629126
0.0627795
0.0631362
0.063729
0.0645308
0.065453
0.0664639
0.0676161
0.0689487
0.0704772
0.0722067
0.0741364
0.0762617
0.0785719
0.081053
0.0836863
0.08645
0.0893198
0.0922712
0.0952827
0.0983374
0.101426
0.104547
0.11
0.107059
0.104213
0.101436
0.0986754
0.0958402
0.0928312
0.0896808
0.0865666
0.083532
0.0806056
0.0778182
0.0752019
0.0727872
0.0706041
0.0686812
0.0670455
0.065721
0.0647087
0.0638466
0.0628667
0.0618958
0.0612409
0.0612034
0.0615927
0.0622211
0.0630611
0.0640268
0.0650821
0.0662751
0.0676414
0.0691973
0.0709497
0.0729001
0.0750447
0.0773746
0.0798758
0.0825302
0.0853159
0.0882092
0.0911863
0.0942251
0.0973082
0.100426
0.103574
0.108215
0.105281
0.102474
0.0997967
0.0972476
0.0948107
0.0924392
0.0900299
0.0874157
0.0845227
0.0816321
0.078865
0.0762638
0.0738565
0.0716652
0.0696945
0.0679036
0.0661217
0.0643362
0.0626954
0.061316
0.0602719
0.0596211
0.0598002
0.0602461
0.0609102
0.0617822
0.0627946
0.0639034
0.0651446
0.0665496
0.0681357
0.0699127
0.0718841
0.0740478
0.0763953
0.0789132
0.0815841
0.0843877
0.0873016
0.0903021
0.0933671
0.0964789
0.0996257
0.102802
0.106549
0.103589
0.100761
0.0980696
0.0955232
0.0931263
0.0908767
0.0887602
0.0867346
0.084704
0.082512
0.0800301
0.0774053
0.074826
0.0722345
0.0696601
0.0671965
0.0649277
0.0629104
0.0611866
0.0597911
0.0587579
0.0581263
0.0585471
0.0590975
0.0597997
0.0606903
0.0617442
0.0629162
0.0642164
0.0656655
0.067283
0.0690839
0.0710741
0.073253
0.0756132
0.0781422
0.0808246
0.083642
0.0865735
0.0895971
0.0926905
0.0958348
0.0990156
0.102226
0.105065
0.102082
0.0992294
0.0965163
0.0939496
0.0915357
0.0892769
0.0871678
0.0851855
0.0832699
0.0813018
0.0791196
0.0766314
0.073907
0.0711125
0.0683978
0.065859
0.063553
0.0615185
0.0597893
0.0583982
0.0573785
0.0567676
0.0573895
0.0581096
0.0588825
0.0597799
0.0608517
0.0620735
0.0634258
0.0649138
0.0665591
0.0683814
0.0703896
0.0725835
0.0749562
0.0774962
0.0801898
0.0830215
0.0859728
0.0890241
0.0921543
0.0953425
0.0985708
0.101827
0.103776
0.100774
0.0979031
0.0951724
0.0925887
0.0901594
0.0878876
0.0857693
0.0837862
0.0818858
0.0799589
0.0778437
0.075422
0.0727357
0.0699485
0.0672232
0.0646684
0.0623468
0.0603004
0.0585651
0.0571756
0.0561674
0.0555777
0.056311
0.0572274
0.0581513
0.0590792
0.0601347
0.0613461
0.0627017
0.0642064
0.0658768
0.0677272
0.069763
0.0719814
0.074375
0.0769329
0.0796431
0.0824925
0.0854666
0.0885493
0.0917239
0.0949713
0.0982734
0.101614
0.10269
0.0996739
0.0967905
0.094048
0.0914541
0.0890154
0.0867357
0.0846127
0.0826299
0.0807418
0.0788482
0.0767903
0.0744311
0.0717862
0.0690113
0.0662802
0.0637127
0.0613787
0.059323
0.057584
0.0561996
0.0552095
0.0546554
0.0554291
0.0564844
0.0575562
0.0585358
0.0595566
0.0607342
0.0620963
0.0636391
0.0653573
0.0672498
0.0693162
0.0715549
0.0739605
0.0765258
0.079241
0.0820959
0.0850791
0.088178
0.0913784
0.0946654
0.0980226
0.101433
0.101807
0.0987849
0.0958961
0.0931494
0.0905527
0.0881126
0.0858331
0.0837118
0.0817346
0.0798603
0.0779976
0.0759932
0.0736989
0.071104
0.0683529
0.0656278
0.0630593
0.0607237
0.0586701
0.0569394
0.0555747
0.0546253
0.0541552
0.0548654
0.0559394
0.0570469
0.0580407
0.0590309
0.0601937
0.0615819
0.0631845
0.0649759
0.0669358
0.069053
0.0713232
0.0737443
0.0763137
0.079027
0.0818783
0.0848594
0.0879609
0.0911717
0.0944796
0.097871
0.101331
0.101131
0.0981089
0.095222
0.0924788
0.0898881
0.087456
0.0851864
0.0830772
0.0811147
0.0792611
0.0774328
0.0754836
0.0732583
0.0707246
0.0680146
0.0653145
0.0627659
0.0604511
0.0584209
0.0567164
0.0553777
0.0544464
0.0539687
0.0544925
0.0554844
0.0566239
0.057749
0.0588878
0.0601588
0.0616182
0.0632688
0.0650963
0.0670856
0.0692264
0.0715122
0.0739394
0.0765043
0.0792027
0.0820297
0.0849789
0.0880443
0.0912182
0.0944941
0.0978656
0.101323
0.10066
0.0976413
0.094761
0.0920275
0.0894498
0.0870342
0.0847853
0.0827019
0.0807725
0.0789636
0.077202
0.0753574
0.0732756
0.0708772
0.0682483
0.0655806
0.0630422
0.0607286
0.058693
0.0569768
0.0556183
0.0546546
0.0541204
0.0545279
0.0554659
0.0565863
0.0577575
0.0589879
0.0603405
0.0618532
0.0635337
0.0653776
0.0673753
0.0695176
0.0717956
0.074203
0.0767352
0.0793895
0.0821635
0.0850558
0.0880649
0.0911882
0.0944237
0.0977661
0.101209
0.100334
0.0973001
0.0944023
0.0916513
0.0890567
0.0866286
0.0843762
0.0823044
0.0804125
0.0786845
0.0770721
0.0754553
0.0736066
0.0713507
0.0688179
0.0662002
0.0636895
0.0613953
0.0593726
0.057662
0.0562995
0.0553168
0.0547411
0.05511
0.0559752
0.0570338
0.0581763
0.0594224
0.0608063
0.0623456
0.0640428
0.0658937
0.0678908
0.0700253
0.0722888
0.074676
0.0771844
0.0798129
0.0825618
0.0854311
0.08842
0.0915264
0.0947469
0.0980763
0.101509
0.0996157
0.0964485
0.0934112
0.0905175
0.0877828
0.0852228
0.0828544
0.0806946
0.0787596
0.0770634
0.0756124
0.0743915
0.0733
0.071967
0.0696707
0.0671381
0.0646735
0.0624126
0.0604139
0.0587182
0.0573594
0.0563673
0.0557688
0.0560917
0.0568752
0.0578573
0.0589592
0.0601963
0.0615839
0.0631274
0.064825
0.0666713
0.0686582
0.0707776
0.0730223
0.0753877
0.0778729
0.0804779
0.0832039
0.0860512
0.089019
0.0921054
0.0953073
0.0986192
0.102036
0.097678
0.0943254
0.0911088
0.0880431
0.0851459
0.082436
0.0799331
0.077659
0.0756371
0.0738923
0.0724517
0.0713473
0.0706269
0.0706933
0.0702984
0.0683606
0.0659688
0.0637559
0.0617923
0.0601203
0.0587743
0.0577833
0.0571762
0.0574451
0.0581496
0.0590568
0.0601121
0.061325
0.0626976
0.0642269
0.0659074
0.0677324
0.069694
0.0717851
0.0740001
0.076336
0.0787923
0.0813699
0.08407
0.0868925
0.089837
0.0929005
0.09608
0.0993706
0.102766
0.0949622
0.0914771
0.0881306
0.0849376
0.0819157
0.0790847
0.0764658
0.0740828
0.0719619
0.0701317
0.0686254
0.0674816
0.0667559
0.0670436
0.0678078
0.0685724
0.0675339
0.0653926
0.0634772
0.0618394
0.0605152
0.0595347
0.0589292
0.0591372
0.0597694
0.0606079
0.0616145
0.0627936
0.0641383
0.0656385
0.0672858
0.0690724
0.0709919
0.0730391
0.0752109
0.0775059
0.0799246
0.0824678
0.0851363
0.08793
0.0908467
0.0938842
0.0970381
0.100304
0.103677
0.0921423
0.0885511
0.0850955
0.0817914
0.0786568
0.0757124
0.0729805
0.0704869
0.0682601
0.0663318
0.0647392
0.0635262
0.062755
0.0630211
0.063879
0.0651631
0.0667243
0.067217
0.0654326
0.0638402
0.0625477
0.0615864
0.0609896
0.0611327
0.0617002
0.0624765
0.0634338