# vtk DataFile Version 4.2
vtk output
ASCII
DATASET POLYDATA
POINTS 642 double
-1.87172 4.61666 -0.0575919
1.15759 4.56825 -0.0505017
-1.88665 -0.399034 -0.0259985
1.2368 -0.401338 -0.0223944
-0.331352 0.572982 2.46284
-0.36282 3.60512 2.37315
-0.325604 0.606642 -2.45569
-0.365599 3.68325 -2.54318
2.09662 2.107 -1.50417
2.13157 2.08738 1.4765
-2.79518 2.15551 -1.56035
-2.82538 2.1273 1.5089
-2.70628 3.59431 0.876925
-1.80472 3.02138 2.32162
-1.22978 4.45026 1.41134
0.518555 4.41417 1.35678
-0.324532 5.03493 -0.0370938
0.546237 4.48175 -1.47793
-1.26054 4.55543 -1.53355
-1.82451 3.06374 -2.4328
-2.73248 3.62706 -0.960754
-3.24584 2.1296 -0.0204003
1.08286 2.98563 2.24808
1.96429 3.51579 0.845737
-1.78516 1.20818 2.31891
-0.338955 2.10407 2.82208
-2.68568 0.649241 -0.92164
-2.69152 0.6461 0.88117
-0.356691 2.16222 -2.86595
-1.75943 1.24588 -2.32012
1.92987 3.53692 -0.892232
1.06837 3.01265 -2.31254
2.08577 0.634092 0.888232
1.12251 1.20295 2.30791
0.592521 -0.271845 1.44863
-1.25074 -0.283203 1.44799
-0.328339 -0.812739 -0.0278463
-1.23481 -0.252048 -1.48093
0.58305 -0.250187 -1.48688
1.09938 1.2178 -2.32572
2.06939 0.642785 -0.930914
2.58985 2.08026 -0.0244399
-2.35037 4.19336 0.423314
-2.06144 4.1257 1.20254
-1.60018 4.62101 0.698083
-2.39632 2.59462 1.99821
-2.34963 3.37344 1.69114
-2.86809 2.8881 1.24263
-0.798394 4.09311 1.98649
-1.58587 3.82641 1.96622
-1.07641 3.38341 2.45334
-0.808228 4.87424 0.708751
-1.14991 4.91879 -0.0486565
0.0936884 4.06632 1.92417
-0.340598 4.54804 1.44519
0.44263 4.92065 -0.0434817
0.129716 4.86295 0.706184
0.879072 4.59563 0.685033
-0.823511 4.91261 -0.817809
-1.63501 4.69888 -0.826427
0.918302 4.62301 -0.75868
0.126762 4.9035 -0.802847
-0.80767 4.19153 -2.14447
-0.368812 4.61649 -1.58746
0.100001 4.13499 -2.08541
-2.09463 4.19061 -1.3065
-2.37353 4.22961 -0.512781
-1.11831 3.43253 -2.6073
-1.60611 3.89681 -2.09374
-2.87537 2.91709 -1.31899
-2.38523 3.41033 -1.79183
-2.39879 2.62853 -2.07352
-2.82592 3.67785 -0.0356786
-3.12063 2.13794 -0.816436
-3.11049 2.91052 -0.51265
-3.11922 2.89551 0.448761
-3.14448 2.13306 0.797966
1.31928 4.05079 1.15849
1.59275 4.11319 0.398566
0.396753 3.32034 2.39311
0.866573 3.75854 1.8816
2.13999 2.84462 1.20475
1.61826 3.31437 1.61869
1.68148 2.55754 1.94699
-1.10212 2.59692 2.7118
-0.359519 2.88626 2.69356
-2.39974 1.67359 1.98672
-1.87753 2.12354 2.4347
-0.325688 1.29919 2.73623
-1.0979 1.6445 2.6944
-1.07221 0.828164 2.49484
-3.10065 1.35919 0.449449
-2.85302 1.38947 1.25277
-2.81987 1.37433 -1.26653
-3.09431 1.35978 -0.494514
-2.37263 0.0414677 0.449501
-2.81708 0.575418 -0.0302633
-2.37368 0.046705 -0.497211
-1.86023 2.15869 -2.51041
-2.34616 1.69031 -2.01532
-0.35786 2.97177 -2.84105
-1.11552 2.64005 -2.82838
-1.04858 0.861347 -2.48263
-1.09073 1.69317 -2.72695
-0.327226 1.3231 -2.74096
0.863887 3.82569 -1.99969
0.363171 3.39282 -2.50269
1.62336 4.13614 -0.497024
1.33115 4.10063 -1.24306
1.64598 2.56643 -1.97725
1.59349 3.33254 -1.68292
2.11336 2.8391 -1.24741
1.73666 0.0171474 0.437375
1.41737 0.0708855 1.22143
0.979155 -0.43837 0.721806
1.71132 1.62811 1.96723
1.70806 0.863037 1.69335
2.21919 1.32909 1.23982
0.129972 0.0860183 2.05333
0.917544 0.379194 1.98211
0.408382 0.842463 2.47951
0.155751 -0.682563 0.748702
0.512988 -0.710651 -0.0250686
-0.8081 0.063218 2.03887
-0.329431 -0.396674 1.53138
-1.14337 -0.720333 -0.0253646
-0.813675 -0.68971 0.758144
-1.62019 -0.43804 0.749284
0.153626 -0.673004 -0.799271
0.955671 -0.424446 -0.783693
-1.62138 -0.430017 -0.769811
-0.815791 -0.675225 -0.789553
0.129452 0.115143 -2.06915
-0.334679 -0.370949 -1.55654
-0.784722 0.110017 -2.07606
1.40268 0.0886044 -1.25659
1.73049 0.0245029 -0.487095
0.416223 0.864404 -2.48045
0.909336 0.413028 -2.0124
2.19555 1.33451 -1.27239
1.67837 0.881135 -1.71733
1.67685 1.63674 -1.98857
2.20999 0.558157 -0.0256858
2.4516 2.0845 -0.7979
2.48657 1.33935 -0.496736
2.4941 1.32238 0.454394
2.46101 2.09558 0.778939
0.424543 1.63017 2.70142
1.17909 2.11004 2.39887
0.413035 2.56107 2.67206
-2.07233 0.0759217 1.23655
-1.58903 0.375543 2.00288
-2.34478 0.861593 1.70234
-1.56024 0.406674 -2.01105
-2.05639 0.098577 -1.26801
-2.31204 0.886535 -1.7011
1.15088 2.11652 -2.41287
0.406066 1.64988 -2.7054
0.389068 2.60793 -2.70309
2.39708 2.8471 0.435887
2.37518 2.8498 -0.479094
2.07135 3.59434 -0.0256729
-2.11539 4.42911 0.175906
-2.00846 4.42549 0.580032
-1.74996 4.63442 0.310231
-2.41143 3.88113 1.05068
-2.22432 4.17578 0.832721
-2.56158 3.89718 0.660335
-1.42827 4.56114 1.06225
-1.84826 4.393 0.970202
-1.65233 4.31877 1.33068
-2.63358 2.36486 1.77415
-2.65934 2.75593 1.64927
-2.87391 2.51346 1.38951
-2.0892 3.21257 2.03953
-2.39889 2.98963 1.86306
-2.12076 2.81226 2.18026
-2.81257 3.25097 1.06815
-2.63247 3.14331 1.48683
-2.56381 3.49137 1.29716
-0.567583 3.85433 2.20942
-0.972223 3.76004 2.24574
-0.700938 3.51405 2.43431
-1.42839 4.16473 1.70956
-1.20009 3.98731 1.99455
-1.04011 4.30161 1.70832
-1.43785 3.22114 2.41744
-1.35664 3.61469 2.23501
-1.70183 3.44505 2.17508
-2.2368 3.76829 1.4649
-1.98177 3.62456 1.85629
-1.845 4.00069 1.60858
-1.36856 4.80139 0.334448
-1.51996 4.79078 -0.0654827
-1.01872 4.68111 1.07548
-1.2095 4.76565 0.716365
-0.74463 5.00394 -0.0381016
-0.973828 4.92639 0.337753
-0.561148 4.99049 0.344026
-0.136566 3.84895 2.16907
-0.351663 4.10798 1.97659
0.094096 4.51549 1.4187
-0.116956 4.3286 1.70008
0.318609 4.25989 1.64625
-0.579798 4.34385 1.72752
-0.802914 4.52927 1.44907
0.842746 4.75342 -0.0424718
0.679758 4.79413 0.330627
1.04219 4.59968 0.300611
-0.103789 4.99382 0.336073
0.299194 4.91882 0.337694
0.0568529 5.00977 -0.0441788
0.720662 4.52533 1.01558
0.516384 4.76032 0.701236
0.339289 4.66526 1.05024
-0.58463 4.75199 1.09588
-0.102564 4.73948 1.09234
-0.346429 4.91527 0.716273
-1.39798 4.84871 -0.44633
-1.77306 4.68218 -0.453137
-0.565379 5.00636 -0.423997
-0.999731 4.94664 -0.443112
-1.4634 4.66072 -1.17163
-1.25331 4.84303 -0.839796
-1.06168 4.77607 -1.197
1.04825 4.62676 -0.416374
0.700564 4.80257 -0.414257
0.347784 4.72505 -1.15659
0.534201 4.78872 -0.797158
0.733211 4.57878 -1.14838
0.301193 4.93871 -0.418444
-0.100608 5.009 -0.428721
-0.574821 3.94473 -2.37656
-0.372781 4.20226 -2.13912
-0.141768 3.91705 -2.34609
-0.830429 4.62001 -1.59081
-0.594232 4.43989 -1.88051
-1.05793 4.39942 -1.85121
0.337799 4.32521 -1.7943
-0.132214 4.40693 -1.85074
0.121506 4.57657 -1.53663
-0.347533 4.94328 -0.81871
-0.095796 4.7941 -1.19516
-0.609425 4.80137 -1.22043
-2.03073 4.49253 -0.681252
-2.15313 4.43726 -0.301163
-1.687 4.40763 -1.44025
-1.8802 4.47322 -1.07688
-2.57509 3.95414 -0.741069
-2.26751 4.22663 -0.927174
-2.44498 3.93093 -1.14542
-0.745291 3.57696 -2.60675
-0.970622 3.84175 -2.40503
-1.73606 3.49398 -2.2939
-1.36434 3.68089 -2.37558
-1.48135 3.25801 -2.54534
-1.21734 4.0733 -2.13882
-1.45138 4.24904 -1.83801
-2.85903 2.51402 -1.46461
-2.67079 2.78051 -1.71854
-2.63548 2.37717 -1.81828
-2.59188 3.5287 -1.39108
-2.66108 3.17333 -1.57322
-2.83177 3.27857 -1.1533
-2.1385 2.84472 -2.27329
-2.41759 3.02842 -1.95495
-2.12365 3.2517 -2.14734
-1.874 4.06653 -1.7239
-2.0203 3.6731 -1.9701
-2.26809 3.81798 -1.56949
-2.39241 4.22087 -0.0497607
-2.80383 3.67022 -0.510902
-2.62557 3.96646 -0.283761
-2.62361 3.94196 0.196974
-2.79565 3.65148 0.436059
-2.9798 2.14833 -1.19626
-3.02497 2.53629 -1.08164
-3.20876 2.52127 -0.268233
-3.14436 2.5311 -0.67574
-3.2088 2.13128 -0.42323
-3.02222 2.92342 -0.928607
-2.95384 3.27458 -0.754123
-3.04509 2.51613 1.0262
-3.01739 2.12758 1.14997
-2.94291 3.26943 0.67587
-3.02128 2.90144 0.85455
-3.22578 2.13342 0.396183
-3.16254 2.51467 0.617453
-3.22141 2.51856 0.214968
-3.00503 3.30348 -0.282747
-3.152 2.91362 -0.027267
-3.0074 3.29822 0.210137
1.26342 4.36952 0.550615
1.39303 4.36406 0.174946
0.93149 4.24777 1.26935
1.10568 4.33453 0.92425
1.79551 3.82516 0.627973
1.47903 4.09546 0.798127
1.65972 3.79867 1.01576
0.015772 3.47243 2.39777
0.254694 3.7106 2.17956
0.987071 3.38067 2.1026
0.643822 3.55024 2.1569
0.75108 3.16015 2.34627
0.494527 3.9275 1.91546
0.702357 4.1033 1.6409
2.15266 2.45936 1.36179
1.9393 2.70747 1.59898
1.9354 2.32466 1.71473
1.82293 3.4297 1.25159
1.89931 3.0913 1.42676
2.07408 3.19441 1.03526
1.41113 2.77156 2.10703
1.67325 2.93797 1.80586
1.36891 3.15732 1.96092
1.11381 3.93062 1.54568
1.25922 3.55753 1.77475
1.49613 3.70212 1.41269
-0.726953 3.1479 2.60879
-0.363757 3.25897 2.55664
-1.46106 2.82216 2.55021
-1.11759 2.98775 2.61189
-0.34203 2.52315 2.77911
-0.743023 2.7465 2.73481
-0.724411 2.35872 2.79109
-2.62886 1.887 1.77197
-2.41601 2.13141 2.028
-1.854 1.66554 2.39922
-2.14731 1.89679 2.24267
-2.10397 1.4233 2.17199
-2.14907 2.36675 2.24623
-1.86249 2.5772 2.40865
-0.331998 0.906954 2.61561
-0.714702 1.0481 2.64136
-0.688796 0.682087 2.50488
-0.721796 1.87387 2.79491
-0.707474 1.4742 2.74423
-0.332177 1.70675 2.80898
-1.44 0.99836 2.43801
-1.10108 1.21874 2.60434
-1.45551 1.42052 2.53714
-1.5068 2.35939 2.61112
-1.49487 1.89394 2.60919
-1.12067 2.1214 2.74605
-3.03654 1.74924 1.02662
-2.86552 1.74068 1.3872
-3.21237 1.74742 0.213069
-3.1512 1.74389 0.616723
-2.79768 1.01347 1.08011
-3.00225 1.35311 0.853619
-2.92816 0.989993 0.674455
-2.82563 1.75892 -1.42031
-3.00415 1.7497 -1.05631
-2.91568 0.99305 -0.712607
-2.985 1.36048 -0.891826
-2.77068 1.00002 -1.09899
-3.13376 1.74245 -0.66122
-3.20143 1.74025 -0.264329
-2.13211 -0.220675 0.197541
-2.39818 0.0145063 -0.024807
-2.1318 -0.217118 -0.249114
-2.77878 0.588431 0.429512
-2.62204 0.287647 0.211001
-2.55545 0.324259 0.674483
-2.55275 0.320167 -0.715017
-2.62101 0.29067 -0.265524
-2.78658 0.59329 -0.489282
-3.13477 1.34784 -0.025901
-2.9897 0.952572 -0.266988
-2.9876 0.950778 0.213197
-2.39964 2.15811 -2.07879
-2.59385 1.92106 -1.80547
-1.85943 2.61806 -2.50801
-2.1496 2.39613 -2.31585
-2.07565 1.47478 -2.18853
-2.12542 1.92717 -2.28783
-1.82448 1.70678 -2.44441
-0.367317 3.32607 -2.73016
-0.732199 3.20496 -2.77729
-0.744964 2.41188 -2.89517
-0.73507 2.80478 -2.87351
-0.374435 2.56908 -2.89036
-1.11724 3.04153 -2.75941
-1.47871 2.85979 -2.66723
[...]
POINT_DATA 642
SCALARS Mean_Curvature double 1
LOOKUP_TABLE default
0.694954
0.816903
0.746691
0.694395
0.831771
0.753332
0.670665
0.830797
0.598903
0.642715
0.677963
0.706539
0.715092
0.725625
0.65474
0.675411
0.682789
0.75334
0.789529
0.709595
0.788279
0.661287
0.626471
0.743352
0.490384
0.622907
0.724311
0.570627
0.443985
0.427826
0.458054
0.777473
0.716747
0.649457
0.710958
0.686241
0.552793
0.660877
0.721934
0.704421
0.71627
0.805308
0.667424
0.710755
0.623846
0.711906
0.702982
0.694021
0.682711
0.750432
0.730575
0.725003
0.586959
0.495217
0.577833
0.8085
0.679218
0.815778
0.504763
0.848001
0.67586
0.764343
0.813675
0.547565
0.541368
0.678551
0.732266
0.773137
0.700302
0.759536
0.755636
0.692596
0.641042
0.581266
0.610414
0.668521
0.752236
0.70016
0.437687
0.656913
0.576522
0.741565
0.605228
0.742602
0.776724
0.51746
0.706917
0.67522
0.629058
0.458098
0.792543
0.624563
0.634124
0.591052
0.704437
0.632687
0.66028
0.691868
0.755693
0.415619
0.901521
0.832056
0.605825
0.394489
0.62963
0.733408
0.504809
0.854541
0.65485
0.675847
0.562973
0.722203
0.723832
0.679977
0.709957
0.646558
0.75122
0.771549
0.678641
0.665487
0.682176
0.648284
0.724022
0.657872
0.736876
0.677219
0.693313
0.658527
0.703658
0.648082
0.766168
0.622404
0.682595
0.66667
0.762786
0.667077
0.726016
0.65403
0.69063
0.862598
0.664254
0.660708
0.700606
0.65613
0.781563
0.809237
0.620902
0.667751
0.645018
0.746196
0.773965
0.692643
0.743068
0.70094
0.766034
0.538838
0.588205
0.624761
0.357516
0.725324
0.592027
0.71879
0.556619
0.663174
0.519051
0.69778
0.691289
0.675706
0.659969
0.697914
0.67855
0.709053
0.737416
0.704365
0.700271
0.705903
0.714525
0.686936
0.720235
0.691855
0.698821
0.78939
0.715826
0.751382
0.695959
0.749939
0.703306
0.75907
0.712278
0.704063
0.696401
0.728663
0.538798
0.543362
0.51258
0.567962
0.642144
0.695474
0.685579
0.575956
0.667762
0.801423
0.532226
0.491172
0.64231
0.710203
0.688339
0.825641
0.665876
0.808094
0.68095
0.785046
0.624372
0.827108
0.67866
0.744412
0.673284
0.815423
0.799069
0.768486
0.599199
0.564277
0.786583
0.940947
0.870205
0.869916
0.71454
0.763697
0.671941
0.778267
0.70184
0.776334
0.806511
0.795714
0.700172
0.837274
0.812339
0.801086
0.617593
0.561743
0.621942
0.679529
0.624128
0.520332
0.80666
0.690987
0.711518
0.740916
0.776318
0.775947
0.745042
0.802226
0.798414
0.667994
0.661468
0.702175
0.725826
0.683597
0.75403
0.725174
0.744835
0.678608
0.842237
0.751327
0.741718
0.734932
0.805427
0.660691
0.722475
0.661567
0.611613
0.63017
0.670385
0.61702
0.704849
0.493164
0.617157
0.590621
0.617714
0.609143
0.789867
0.676892
0.749062
0.697678
0.718007
0.67597
0.732032
0.641086
0.721685
0.560696
0.700584
0.632305
0.532463
0.795883
0.448047
0.529635
0.535512
0.649696
0.563511
0.569874
0.509422
0.768585
0.564172
0.726228
0.51998
0.660079
0.596763
0.74391
0.604988
0.768364
0.606854
0.74648
0.620768
0.755254
0.612931
0.754347
0.603771
0.794872
0.716899
0.613303
0.699757
0.797696
0.553546
0.779992
0.577331
0.699327
0.734128
0.626175
0.704616
0.578444
0.709954
0.69862
0.677312
0.680324
0.837731
0.56756
0.55511
0.707029
0.865992
0.437411
0.497178
0.702991
0.685341
0.814799
0.745737
0.692888
0.701743
0.592745
0.638153
0.595157
0.67048
0.566281
0.631623
0.589119
0.672304
0.590836
0.668557
0.644982
0.733525
0.658225
0.758275
0.55091
0.764583
0.694104
0.814289
0.699577
0.750682
0.642044
0.682753
0.600228
0.741664
0.555309
0.738008
0.700073
0.486091
0.697769
0.700822
0.864342
0.896314
0.851011
0.881897
0.845378
0.908923
0.709885
0.64586
0.633735
0.694433
0.383376
0.594533
0.504228
0.538707
0.567121
0.444023
0.715913
0.847169
0.727
0.536702
0.77586
0.650457
0.682172
0.611986
0.647594
0.588922
0.861235
0.689068
0.793941
0.667745
0.724429
0.657434
0.785779
0.613481
0.699482
0.609911
0.760181
0.503414
0.578294
0.561754
0.650361
0.471675
0.793585
0.627886
0.754565
0.731622
0.684906
0.733953
0.7025
0.722532
0.703545
0.700802
0.665961
0.690645
0.654906
0.713942
0.794793
0.657852
0.709192
0.608698
0.768555
0.747722
0.740836
0.744753
0.64641
0.687792
0.668733
0.690362
0.646765
0.644471
0.663409
0.647534
0.705676
0.695727
0.659402
0.747522
0.696156
0.709216
0.644521
0.603926
0.621659
0.599335
0.702102
0.749616
0.624424
0.728245
0.614177
0.729304
0.621815
0.739494
0.605405
0.711395
0.547715
0.714562
0.654995
0.766845
0.713935
0.761686
0.595978
0.727751
0.607092
0.725978
0.695074
0.633763
0.623589
0.694626
0.635866
0.714439
0.68347
0.768503
0.639209
0.689098
0.6311
0.729732
0.686241
0.669868
0.681699
0.688553
0.671425
0.692839
0.705966
0.74674
0.70587
0.742303
0.645782
0.745752
0.60944
0.736662
0.695332
0.682637
0.660533
0.721239
0.714535
0.719516
0.673833
0.670402
0.716656
0.688056
0.696401
0.721371
0.703448
0.584408
0.685617
0.597497
0.738298
0.774108
0.763804
0.603211
0.702862
0.678286
0.663293
0.653543
0.677793
0.724066
0.713165
0.712358
0.701295
0.70763
0.664788
0.69498
0.898367
0.762971
0.692736
0.794585
0.741637
0.756375
0.684178
0.713173
0.756858
0.668938
0.838235
0.8027
0.710429
0.790714
0.682954
0.607762
0.69146
0.654296
0.731045
0.625402
0.699603
0.633093
0.735941
0.624846
0.698773
0.518893
0.685341
0.575838
0.693819
0.63503
0.734813
0.65788
0.755146
0.762157
0.665926
0.766334
0.673047
0.794285
0.672081
0.888539
0.742486
0.756284
0.67906
0.692084
0.63246
0.603787
0.533603
0.630816
0.668744
0.832984
0.702896
0.774899
0.676326
0.758063
0.770694
0.812548
0.68792
0.806521
0.708087
0.76507
0.637683
0.610323
0.514499
0.605827
0.586798
0.632253
0.651706
0.780359
0.718094
0.613968
0.691784
0.617338
0.671879
0.519719
0.676466
0.572821
0.631423
0.638074
0.668476
0.848821
0.512035
0.60139
0.845206
0.330861
0.666448
0.555986
0.609889
0.582939
0.656035
0.570312
0.729929
0.58649
0.713259
0.581214
0.737435
0.574501
0.663293
0.552687
0.737704
0.493249
0.546578
0.537161
0.752886
0.587411
0.767502
SCALARS Redistribution_Potential double 1
LOOKUP_TABLE default
2.02394e-10
-1.05848
0.714575
0.317012
0.175666
-0.741303
0.0131543
-0.174601
-0.714894
-0.703207
0.463936
0.35274
0.193863
-0.132511
-0.448314
-1.01932
-0.559584
-0.631149
0.0886353
0.310124
0.429217
0.529842
-0.909054
-1.13282
0.321165
-0.345854
0.594591
0.664243
-0.123479
0.3182
-0.99105
-0.658601
-0.059239
-0.256687
0.39531
0.668611
0.632612
0.493566
0.216476
-0.36368
-0.151317
-0.704471
0.0975891
-0.0971657
-0.221089
0.139776
0.0357537
0.276986
-0.635245
-0.314278
-0.463331
-0.521334
-0.251243
-0.893427
-0.766046
-0.841237
-0.846975
-1.06975
-0.192421
0.0766959
-0.869777
-0.57867
-0.0120729
-0.234017
-0.372988
0.321422
0.251293
0.11708
0.267391
0.480178
0.433494
0.406769
0.340762
0.527715
0.48712
0.412359
0.462722
-1.14725
-1.12681
-0.872777
-1.03674
-0.978267
-1.06225
-0.855551
-0.278969
-0.568891
0.33304
0.0840784
-0.0808806
0.01972
0.254481
0.599252
0.517025
0.524846
0.585663
0.730377
0.675418
0.67882
0.28132
0.415326
-0.165307
0.0910565
0.151908
0.115079
-0.0960178
-0.671678
-0.430875
-1.07748
-0.901186
-0.752361
-0.850872
-0.902869
0.177737
0.204003
0.395536
-0.487752
-0.14409
-0.374168
0.307468
0.115693
-0.0338938
0.577032
0.486581
0.472344
0.556634
0.705152
0.700102
0.742516
0.466382
0.300251
0.643556
0.600293
0.100207
0.371458
0.254878
0.0607232
0.120048
-0.177364
-0.0775421
-0.454654
-0.278474
-0.540808
-0.0554688
-0.716927
-0.406908
-0.366551
-0.697548
-0.343383
-0.624495
-0.668674
0.698495
0.531994
0.533907
0.371889
0.571511
0.481029
-0.549619
-0.309866
-0.361767
-0.968988
-0.931219
-1.10173
0.0498106
-0.0535293
-0.101764
0.0595393
-0.00180731
0.151338
-0.334996
-0.165179
-0.273127
0.254411
0.207401
0.314394
-0.0518433
0.0870959
0.0119528
0.237929
0.162106
0.121384
-0.703845
-0.556497
-0.617567
-0.388653
-0.48071
-0.546287
-0.301319
-0.39185
-0.230887
-0.025502
-0.129796
-0.203153
-0.243378
-0.117813
-0.48459
-0.367737
-0.400989
-0.395794
-0.546481
-0.825061
-0.7813
-0.912637
-0.845922
-0.962776
-0.705935
-0.614495
-0.967036
-0.978367
-1.06376
-0.71541
-0.852714
-0.705286
-1.0477
-0.977647
-0.952357
-0.655111
-0.814938
-0.690151
-0.086855
0.0409327
-0.380469
-0.217196
0.093333
-0.0456454
-0.0367519
-0.974063
-0.858222
-0.602948
-0.73105
-0.750442
-0.717282
-0.566673
-0.0930555
-0.186656
-0.266391
-0.0594185
-0.118021
0.056759
-0.500819
-0.30186
-0.44486
-0.382062
-0.407367
-0.192547
0.173667
0.139968
0.218702
0.211025
0.353887
0.298399
0.386103
-0.0194158
0.0637224
0.306097
0.199683
0.227735
0.141361
0.197535
0.472471
0.455266
0.436282
0.449423
0.462531
0.469309
0.365858
0.428009
0.385265
0.320189
0.372656
0.404585
0.183439
0.396124
0.300146
0.233223
0.269605
0.50761
0.498348
0.510025
0.510411
0.53648
0.486053
0.46379
0.378528
0.41713
0.31236
0.348417
0.501992
0.438152
0.478169
0.439961
0.460782
0.385489
-1.11448
-1.11828
-1.08172
-1.11133
-1.14089
-1.15112
-1.14687
-0.808408
-0.896108
-1.00155
-0.961705
-0.911025
-0.977172
-1.04842
-0.84029
-0.925508
-0.783576
-1.11734
-1.03378
-1.07621
-0.889373
-0.976993
-0.992895
-1.1135
-1.06746
-1.13706
-0.534953
-0.667581
-0.213173
-0.373039
-0.470889
-0.432282
-0.319001
0.34375
0.231165
0.203382
0.212071
0.331662
0.103816
-0.0270232
0.0538789
0.0926382
0.211398
-0.166062
-0.0401743
-0.220827
0.290823
0.150486
0.179843
-0.0845973
0.0432278
-0.135482
0.489874
0.440806
0.558329
0.536667
0.594595
0.569959
0.630541
0.495192
0.526743
0.60061
0.557332
0.560363
0.549988
0.5668
0.729893
0.716125
0.704123
0.688257
0.70555
0.706126
0.637463
0.68352
0.642006
0.610052
0.634219
0.65393
0.395453
0.443306
0.295021
0.349997
0.368769
0.344853
0.286228
-0.164568
-0.024931
-0.0304071
-0.0337152
-0.14994
0.10643
0.210143
0.073953
0.0288521
-0.0515661
0.224342
0.121785
0.24322
-0.115445
0.00351264
-0.0075723
0.20257
0.0872454
0.200278
-0.413633
-0.311408
-0.655087
-0.537195
-0.554745
-0.557225
-0.670499
-1.07844
-0.995035
-0.983425
-0.997962
-1.05071
-0.889918
-0.787586
-0.748442
-0.836817
-0.812176
-0.76881
-0.807321
-0.716493
-0.947547
-0.895371
-0.924233
-0.793911
-0.883106
-0.788692
0.257858
0.294938
0.362991
0.08374
0.195558
0.073212
0.406183
0.311705
0.304255
-0.598651
-0.438716
-0.543911
-0.203115
-0.315146
-0.379947
-0.207759
-0.261016
-0.0889495
0.242337
0.149244
0.0769799
0.271181
0.211687
0.366536
-0.146784
0.0412209
-0.072251
0.052048
-0.0080258
0.174939
0.455592
0.411044
0.498862
0.491891
0.56455
0.544498
0.61688
0.336186
0.389215
0.622161
0.517719
0.58504
0.443094
0.486361
0.716304
0.737629
0.73767
0.684115
0.713262
0.676637
0.716424
0.729763
0.694204
0.589528
0.650569
0.655386
0.403822
0.318511
0.56039
0.490175
0.264108
0.387397
0.349559
0.689804
0.678413
0.553633
0.622994
0.579932
0.657188
0.627238
0.0472187
0.184738
0.12916
0.29834
0.238234
0.164602
0.375898
0.316442
0.431339
0.547569
0.497051
0.435303
0.211728
0.225149
0.140732
0.185184
-0.00529245
0.0934893
-0.0426436
-0.0822609
-0.0460269
-0.22615
-0.141258
-0.273663
0.0104612
0.0778927
-0.60123
-0.510264
-0.632941
-0.21293
-0.37048
-0.302116
-0.455836
-0.421838
-0.332234
0.000235974
-0.169979
-0.0984494
0.156405
-0.0879066
0.0382754
0.0698391
-0.0443319
-0.722372
-0.590703
-0.553612
-0.574526
-0.710255
-0.432614
-0.267317
-0.543541
-0.700238
-0.206831
-0.365534
-0.699214
-0.533854
-0.54239
-0.213742
-0.375237
-0.191255
-0.0708877
-0.308402
-0.196618
-0.220335
-0.361979
-0.683697
-0.780875
-0.747682
-0.567987
-0.446325
-0.731671
-0.515429
-0.631598
-0.786846
-0.799786
-0.485927
-0.655841
-0.514202
0.740623
0.69678
0.727887
0.725303
0.684923
0.371838
0.425914
0.406213
0.50285
0.61362
0.436546
0.61375
0.530624
0.44482
0.436543
0.64145
0.544902
0.638096
0.190825
0.430797
0.311741
0.263046
0.325453
0.669326
0.58856
0.633197
0.609915
0.544545
0.468815
0.403247
0.437676
0.505566
0.541647
0.490034
0.521592
0.436381
-0.661076
-0.472012
-0.565812
-0.658478
-0.60755
-0.155571
-0.225985
-0.205422
-0.260567
-0.358028
-0.300132
-0.513084
-0.413305
-0.275498
-0.228003
-0.431475
-0.34424
-0.479203
-0.84575
-0.840071
-0.843224
-0.979387
-1.06373
-0.835765
-0.983193
-0.927027
-0.833575
-0.836434
-1.11014
-1.12643
-1.12023
-1.09388
-1.04865
-0.957903
-1.02141
-1.06201
SCALARS CoVolArea double 1
LOOKUP_TABLE default
0.128468
0.116917
0.119745
0.12882
0.118599
0.11748
0.114074
0.123401
0.11674
0.127196
0.126537
0.133615
0.167194
0.172226
0.166018
0.163866
0.165729
0.16433
0.17289
0.173071
0.17539
0.172249
0.161286
0.162415
0.17222
0.169708
0.168237
0.175655
0.170302
0.173728
0.167483
0.162627
0.173396
0.170298
0.174298
0.175399
0.178785
0.175501
0.16994
0.166246
0.170439
0.164632
0.168522
0.178206
0.165233
0.159282
0.180002
0.163019
0.160536
0.174126
0.157897
0.174494
0.16208
0.158413
0.174115
0.159487
0.173899
0.155204
0.183912
0.158055
0.157055
0.1774
0.16481
0.18624
0.166754
0.186229
0.160343
0.164207
0.18643
0.164796
0.183259
0.16405
0.185043
0.164493
0.181554
0.180995
0.158985
0.170523
0.158375
0.155774
0.169294
0.157743
0.170302
0.155854
0.172872
0.157332
0.164256
0.175417
0.162072
0.181009
0.160863
0.182359
0.161507
0.163277
0.178129
0.168734
0.180738
0.165379
0.174976
0.161712
0.150351
0.174887
0.162195
0.181534
0.159749
0.171792
0.158558
0.150645
0.172236
0.158386
0.175466
0.154705
0.168483
0.181326
0.166661
0.157281
0.180157
0.160583
0.166512
0.183912
0.165787
0.185974
0.161817
0.163797
0.182639
0.16889
0.182465
0.167536
0.182616
0.162869
0.162345
0.18102
0.165085
0.17917
0.159443
0.180708
0.16289
0.156137
0.17702
0.161565
0.178424
0.160697
0.181312
0.156288
0.179345
0.180059
0.160373
0.172327
0.176621
0.17193
0.180196
0.181891
0.180889
0.176704
0.176763
0.178286
0.17486
0.172374
0.180018
0.172503
0.175989
0.171156
0.158125
0.164336
0.158946
0.175462
0.163492
0.164058
0.164123
0.164895
0.177531
0.160291
0.163511
0.160331
0.177154
0.164162
0.158733
0.16071
0.164363
0.175678
0.146462
0.158367
0.145701
0.172462
0.161388
0.158392
0.159233
0.158303
0.172766
0.197086
0.194666
0.195539
0.163717
0.157999
0.17364
0.16345
0.166513
0.16293
0.171197
0.150623
0.155935
0.164932
0.157368
0.154239
0.162686
0.171523
0.150611
0.157824
0.149684
0.169597
0.157216
0.154733
0.153519
0.152732
0.167455
0.193275
0.191243
0.191864
0.161786
0.158308
0.180695
0.170137
0.160961
0.162818
0.176326
0.143863
0.157438
0.171
0.164547
0.160269
0.161807
0.172901
0.152469
0.162922
0.155164
0.175066
0.163637
0.165302
0.164383
0.169869
0.180114
0.199067
0.202248
0.203182
0.1615
0.15565
0.186148
0.16758
0.165244
0.167105
0.181392
0.155985
0.165608
0.181905
0.170603
0.165165
0.170999
0.183257
0.157676
0.166686
0.156486
0.180543
0.165223
0.161049
0.16187
0.165856
0.180233
0.206948
0.203772
0.20484
0.165689
0.183895
0.168161
0.169315
0.176879
0.161108
0.166423
0.179655
0.166711
0.162319
0.163781
0.179038
0.161234
0.155329
0.177965
0.165318
0.162384
0.164004
0.177869
0.203488
0.200182
0.20263
0.158281
0.147058
0.172042
0.158088
0.15997
0.159864
0.169016
0.155115
0.162443
0.166027
0.157919
0.149274
0.16058
0.168617
0.155444
0.159128
0.155188
0.164877
0.157031
0.151406
0.154483
0.157772
0.17012
0.185383
0.185797
0.184256
0.157497
0.150486
0.17599
0.157669
0.1584
0.156019
0.17485
0.156963
0.161133
0.179154
0.163489
0.166232
0.158962
0.175026
0.149499
0.161934
0.153197
0.176372
0.167663
0.159575
0.161719
0.165609
0.180574
0.195683
0.196788
0.1955
0.160801
0.155328
0.178707
0.166946
0.167595
0.167637
0.182003
0.162543
0.164435
0.175805
0.163665
0.160723
0.163478
0.176226
0.157716
0.169533
0.158882
0.180124
0.166583
0.163155
0.159718
0.165312
0.176917
0.199649
0.198069
0.201293
0.164349
0.158337
0.176782
0.163565
0.163515
0.163266
0.176436
0.151034
0.158036
0.169223
0.156999
0.155454
0.164114
0.176722
0.147179
0.159972
0.148295
0.180619
0.166776
0.164447
0.163172
0.166229
0.177221
0.193925
0.19511
0.194641
0.16157
0.153716
0.170275
0.161654
0.158971
0.161406
0.169267
0.147063
0.152155
0.1668
0.153791
0.151129
0.162553
0.170357
0.149231
0.158085
0.150371
0.168609
0.15988
0.154227
0.157279
0.158882
0.174094
0.189208
0.190691
0.189446
0.158751
0.168316
0.156949
0.180205
0.168521
0.167602
0.166598
0.167718
0.178573
0.155688
0.159536
0.155061
0.174973
0.160353
0.159754
0.159718
0.163471
0.180836
0.154581
0.164505
0.152584
0.177914
0.166245
0.167239
0.16139
0.167997
0.179389
0.20384
0.204215
0.202501
0.165784
0.155744
0.183925
0.170753
0.167352
0.169327
0.184802
0.158314
0.164697
0.180723
0.167721
0.165461
0.1681
0.180881
0.159998
0.172259
0.15895
0.182276
0.168204
0.163976
0.162098
0.168088
0.179909
0.203882
0.200988
0.203592
0.163849
0.16262
0.182093
0.168006
0.162875
0.167077
0.180067
0.154031
0.165067
0.17948
0.165014
0.163645
0.164771
0.179334
0.15173
0.163528
0.149401
0.178008
0.166155
0.162839
0.162362
0.162305
0.177381
0.201804
0.200618
0.200017
0.164893
0.159494
0.175921
0.164688
0.165225
0.166951
0.178645
0.148096
0.158169
0.169298
0.156724
0.152922
0.164703
0.17514
0.155768
0.163015
0.155001
0.175426
0.158968
0.158
0.155558
0.156161
0.172978
0.199433
0.198519
0.200733
0.165826
0.178152
0.166867
0.171255
0.181297
0.150465
0.159135
0.16766
0.157283
0.155622
0.16329
0.179703
0.160868
0.153898
0.174945
0.163584
0.160722
0.165681
0.173562
0.202173
0.199798
0.200149
0.160849
0.171151
0.158715
0.160809
0.171327
0.161011
0.1714
0.15706
0.159592
0.177422
0.159653
0.171222
0.159174
0.154967
0.167489
0.195337
0.193919
0.190609
0.170018
0.18047
0.165099
0.16759
0.177559
0.166238
0.176109
0.165088
0.165993
0.182143
0.161887
0.180594
0.168124
0.168688
0.175493
0.201962
0.200002
0.199433
0.158943
0.179968
0.161175
0.161202
0.173868
0.165674
0.174026
0.164785
0.16576
0.177034
0.166054
0.179167
0.165755
0.165818
0.173216
0.195509
0.192929
0.196046
0.161305
0.172711
0.158022
0.156713
0.17147
0.157631
0.176542
0.159293
0.158097
0.168399
0.154479
0.172735
0.161503
0.161366
0.179247
0.191434
0.195692
0.194111
0.160485
0.17165
0.159621
0.15747
0.168304
0.158901
0.174133
0.157823
0.161898
0.173553
0.157202
0.168623
0.161924
0.158844
0.171018
0.191867
0.190843
0.18805
SCALARS SignedDistance double 1
LOOKUP_TABLE default
2.59773
2.98379
2.17035
2.17434
2.49719
3.16245
2.74846
2.67103
2.92194
2.76143
2.73042
2.31336
2.36108
2.57401
2.8145
3.22144
2.60616
2.68607
2.23878
2.3438
2.26282
2.44541
3.00681
3.04844
2.70056
2.90785
2.53709
2.40416
3.1556
2.95556
3.1315
3.20591
2.23995
2.6303
2.24591
2.15786
2.42959
2.37905
2.41411
2.88003
2.41871
2.77058
2.5141
2.53976
2.7431
2.38939
2.41878
2.30763
2.9718
2.67526
2.87033
2.79246
2.62799
3.2492
3.07925
2.77325
2.89752
3.10161
2.55356
2.36376
2.7632
2.55712
2.3929
2.56117
2.73411
2.09657
2.36966
2.35275
2.10914
2.44188
2.17061
2.49331
2.43887
2.59892
2.51658
2.34733
2.36408
3.16367
3.18211
3.12833
3.13761
2.90718
3.01289
2.88518
2.83719
3.11373
2.48427
2.55675
2.70536
2.85028
2.64009
2.3886
2.44147
2.63492
2.49943
2.25475
2.41633
2.25937
2.72538
2.86687
2.89466
2.69584
2.85122
3.04494
2.96089
2.91262
3.00416
3.06256
2.92173
3.09671
3.14511
3.04106
2.13405
2.23939
2.20355
2.70429
2.46693
2.50357
2.36689
2.42921
2.56538
2.29822
2.32712
2.28868
2.21249
2.25354
2.30581
2.14391
2.33571
2.31495
2.26594
2.29275
2.61584
2.41936
2.5795
2.45178
2.23122
2.8289
2.64322
2.71132
2.70072
2.91225
2.22387
2.83982
2.52571
2.42797
2.74261
2.75082
2.82154
2.97737
2.17468
2.32266
2.51168
2.65306
2.44281
2.73022
3.07312
2.99446
3.24028
2.9233
2.95255
3.10334
2.61071
2.61411
2.71396
2.43445
2.51332
2.41745
2.76517
2.62977
2.67048
2.33823
2.32784
2.29198
2.48388
2.3925
2.46808
2.3284
2.34932
2.37657
3.06999
2.91483
3.02782
2.73981
2.82037
2.88143
2.71701
2.75724
2.61979
2.46607
2.53082
2.59307
2.72487
2.67281
2.88796
2.80579
2.58258
2.69071
2.67265
3.22743
3.1446
3.15379
3.2019
3.24929
3.05186
2.97302
2.88261
2.93615
3.03666
2.74109
2.82942
2.68051
3.15754
2.99888
3.06516
2.92694
2.98372
2.81704
2.60387
2.48946
2.53165
2.57331
2.26444
2.49414
2.42259
2.86278
2.75196
2.60418
2.64789
2.70819
2.64938
2.57338
2.52643
2.61844
2.74828
2.43603
2.51573
2.28435
2.69048
2.63011
2.59262
2.49502
2.51812
2.54313
2.34345
2.4663
2.12285
2.18933
2.29353
2.21285
2.14796
2.49971
2.33589
2.17896
2.20339
2.30778
2.198
2.12518
2.59898
2.45587
2.61539
2.17311
2.29097
2.3072
2.40786
2.33037
2.23946
2.05756
2.09957
2.08027
2.51854
2.39477
2.44133
2.45784
2.37279
2.70805
2.63159
2.47273
2.56052
2.51153
2.51076
2.42075
2.30747
2.31292
2.32477
2.31827
2.38491
2.36898