# vtk DataFile Version 4.2
vtk output
ASCII
DATASET POLYDATA
POINTS 642 double
-1.12072 3.10741 -0.277961
-0.40738 2.67849 -0.140751
-1.28819 0.534689 -0.00443148
0.673782 0.61099 0.00718877
-0.372133 1.21197 1.04322
-0.588802 2.35265 0.436785
-0.341581 1.38399 -0.852879
-0.916433 2.816 -0.419203
0.558265 1.91667 -0.441326
0.728085 1.87262 0.531066
-1.23114 2.37399 -0.384865
-1.89238 2.08012 0.917753
-1.67928 2.91966 0.431962
-1.15963 2.43734 0.810894
-0.960247 2.806 0.266101
-0.38646 2.57477 0.0446543
-0.504292 3.25119 -0.249732
-0.351862 3.20014 -0.530039
-1.19002 2.9915 -0.631775
-1.24223 2.92585 -0.859747
-1.47676 2.96175 -0.603023
-1.88277 2.16066 -0.0342311
0.145602 2.21668 0.687607
0.39285 2.35906 0.226117
-1.02196 1.61456 0.860782
-0.36942 1.88797 0.848001
-1.44747 1.31183 -0.372319
-1.63099 1.16851 0.490442
-0.594331 2.20763 -0.429189
-0.825006 1.85761 -0.583887
0.123331 2.41595 -0.239906
-0.256922 2.32483 -0.33595
1.03295 1.23498 0.463865
0.364526 1.52682 0.940279
0.200755 0.687254 0.801312
-0.917096 0.626805 0.881235
-0.354025 0.554756 -0.0012364
-0.781014 0.791784 -0.648207
0.143854 0.828546 -0.681434
0.190245 1.6061 -0.693445
0.796004 1.2367 -0.267492
0.836578 1.81826 0.0231022
-1.34715 2.95896 0.0559403
-1.26938 3.00187 0.464178
-1.01273 3.04248 0.0931624
-1.48253 2.37072 1.0302
-1.45181 2.73175 0.809132
-1.92234 2.60941 0.713843
-0.84335 2.54781 0.346665
-1.07904 2.69599 0.608408
-0.935186 2.37323 0.532467
-0.669618 3.08874 -0.0574705
-0.803477 3.29863 -0.21791
-0.405638 2.46712 0.268955
-0.633322 2.71908 0.0911403
-0.315942 3.14439 -0.260229
-0.463103 2.9658 -0.11197
-0.412574 2.66837 -0.108218
-0.65982 3.28927 -0.439929
-1.17571 3.02441 -0.585119
-0.287457 3.00125 -0.340189
-0.398594 3.25254 -0.488372
-1.13657 2.90807 -0.572135
-0.542559 3.15171 -0.526436
-0.55024 2.96981 -0.420092
-1.21977 3.0228 -0.769022
-1.36978 3.14204 -0.439424
-1.14833 2.87901 -0.587362
-1.19733 3.08317 -1.04807
-1.38394 2.82711 -0.680395
-1.43975 2.99065 -0.999102
-1.26019 2.86425 -0.760613
-1.60376 2.91349 -0.0891635
-1.49855 2.24363 -0.280235
-1.60744 2.60214 -0.227118
-1.85665 2.58223 0.194506
-1.85032 2.14228 0.448524
0.0503969 2.46207 0.182991
-0.0773365 2.49055 -0.0195829
-0.134494 2.32314 0.632789
-0.036661 2.4605 0.445451
0.597533 2.15868 0.387026
0.328001 2.33605 0.4701
0.472547 2.06966 0.63892
-0.885477 2.12881 0.643849
-0.497174 2.16166 0.646644
-1.39106 1.93878 0.782604
-1.15573 2.11248 0.857334
-0.366733 1.55348 1.04368
-0.68588 1.79087 0.803194
-0.624246 1.3608 0.872027
-1.91783 1.68756 0.235093
-1.64521 1.78203 0.631035
-1.39735 1.80236 -0.456182
-1.6845 1.73186 -0.192246
-1.31527 0.812271 0.194028
-1.61796 1.20171 0.005467
-1.23189 0.869398 -0.111264
-1.0091 2.5593 -0.408544
-1.03978 2.16077 -0.451706
-0.849869 2.6724 -0.381791
-0.999503 2.68187 -0.427039
-0.616852 1.54421 -0.803838
-0.691764 2.11546 -0.475727
-0.385399 1.74624 -0.776467
-0.540026 2.75517 -0.291199
-0.621512 2.69837 -0.325191
-0.328502 2.58284 -0.167635
-0.497726 2.72524 -0.265057
0.19226 2.11558 -0.461954
-0.0985281 2.36471 -0.300557
0.425444 2.17187 -0.315011
0.97531 0.721051 0.248004
0.731388 0.892347 0.588755
0.502433 0.554619 0.39185
0.600421 1.70005 0.744828
0.686652 1.32288 0.698853
0.853713 1.49994 0.443495
-0.139646 0.930966 1.04319
0.329209 1.10321 0.895068
-0.0311917 1.34167 1.07577
0.00590726 0.55694 0.429915
0.215343 0.554746 0.00256989
-0.559664 0.8681 0.900677
-0.334492 0.555182 0.919494
-0.838283 0.570864 -0.0114813
-0.646482 0.554719 0.450927
-1.13877 0.521127 0.491746
-0.0658561 0.555085 -0.42206
0.43108 0.692022 -0.376863
-1.07318 0.634268 -0.35689
-0.623725 0.545256 -0.443454
-0.140936 1.10242 -0.842353
-0.344899 0.784764 -0.697571
-0.531681 1.10385 -0.77781
0.554849 1.02155 -0.469352
0.861314 0.83041 -0.236163
-0.0503325 1.48419 -0.820452
0.206793 1.23199 -0.71236
0.735737 1.55587 -0.354151
0.53707 1.40271 -0.572426
0.406214 1.73909 -0.570745
1.11716 1.1727 0.00477744
0.759047 1.84794 -0.203674
0.870489 1.49831 -0.104916
0.906234 1.45176 0.173602
0.863974 1.85043 0.309826
0.0021796 1.71647 1.0093
0.269996 1.9085 0.869954
-0.0796422 2.03435 0.787717
-1.24911 0.856104 0.610171
-0.886219 1.05771 0.661837
-1.30794 1.39381 0.771215
-0.751986 1.27542 -0.609307
-1.05179 1.05982 -0.369382
-1.1399 1.5518 -0.572031
0.0295723 1.98385 -0.593968
-0.167298 1.83292 -0.695765
-0.444876 2.27939 -0.381768
0.652349 2.13303 0.148398
0.614795 2.18464 -0.135724
0.331398 2.40058 -0.0384894
-1.21308 3.06649 -0.14713
-1.18101 2.98595 0.0785801
-1.07151 3.12324 -0.0945244
-1.48833 3.00285 0.463068
-1.31928 2.95789 0.296085
-1.53565 2.98587 0.24551
-0.975901 2.93383 0.200908
-1.13423 2.98526 0.29236
-1.08862 2.89215 0.39318
-1.70278 2.25834 1.0421
-1.68778 2.48535 0.916322
-1.94407 2.37177 0.826494
-1.29253 2.55172 0.798509
-1.49828 2.59097 0.976409
-1.29545 2.39674 0.888652
-1.82311 2.80267 0.574052
-1.67256 2.68912 0.813579
-1.67728 2.94702 0.720822
-0.70487 2.42099 0.388025
-0.935221 2.4753 0.430145
-0.736048 2.34236 0.466935
-1.08737 2.75122 0.438207
-1.00526 2.60847 0.464302
-0.9338 2.69435 0.30572
-1.05655 2.39917 0.640694
-1.02084 2.54507 0.593077
-1.16241 2.54765 0.677953
-1.40307 2.93632 0.677084
-1.24533 2.70861 0.716359
-1.13488 2.93017 0.660316
-0.906482 3.26514 -0.0429322
-0.941956 3.21886 -0.280975
-0.816261 2.91845 0.102968
-0.789827 3.11744 0.0658148
-0.631919 3.25756 -0.221578
-0.671025 3.28202 -0.0805909
-0.586169 3.19413 -0.152542
-0.488277 2.41345 0.361594
-0.635055 2.49863 0.290023
-0.507237 2.66263 0.0451299
-0.558883 2.57854 0.173736
-0.366404 2.51594 0.158452
-0.739715 2.62979 0.223799
-0.79514 2.75971 0.164669
-0.362919 2.91568 -0.226445
-0.35069 2.94744 -0.197561
-0.408437 2.67467 -0.13095
-0.469508 3.15591 -0.201314
-0.369021 3.07195 -0.148775
-0.403124 3.24462 -0.267662
-0.420572 2.64616 -0.0581316
-0.389221 2.88601 -0.135034
-0.476176 2.74394 -0.0460751
-0.661623 2.90192 -0.00170142
-0.552367 2.83212 -0.0268754
-0.544988 3.0565 -0.0957696
-0.920096 3.10856 -0.332528
-1.10128 3.07636 -0.437074
-0.570271 3.27454 -0.369497
-0.693918 3.27251 -0.369819
-1.19118 3.00486 -0.623991
-0.899792 3.04439 -0.360512
-0.890083 3.01602 -0.36751
-0.374896 2.86384 -0.227549
-0.292576 3.06813 -0.303886
-0.371799 3.2352 -0.534403
-0.322205 3.1795 -0.415001
-0.330601 3.17028 -0.490456
-0.326345 3.22634 -0.343563
-0.42257 3.26438 -0.404127
-0.999008 2.86005 -0.463944
-0.85128 2.91049 -0.371921
-0.792379 2.8473 -0.368113
-0.879734 2.98185 -0.372377
-0.870954 2.95553 -0.373085
-1.18756 2.98297 -0.630998
-0.417423 3.06017 -0.503744
-0.515866 3.096 -0.486816
-0.36247 3.1994 -0.617943
-0.440512 3.26676 -0.488141
-0.383933 3.37087 -0.624222
-0.56371 3.20342 -0.500011
-1.24022 3.12815 -0.55001
-1.27379 3.12445 -0.43509
-1.20198 3.21182 -0.861624
-1.21321 3.0466 -0.700907
-1.46412 3.04948 -0.517911
-1.33992 3.03366 -0.660475
-1.36409 3.0015 -0.700268
-1.05237 2.84394 -0.496449
-1.14543 2.88897 -0.583401
-1.2161 2.95292 -0.815436
-1.19232 2.9478 -0.818502
-1.21839 2.93417 -0.828348
-1.19245 2.9646 -0.795662
-1.20002 2.97068 -0.796095
-1.2919 2.58162 -0.407329
-1.31039 2.85482 -0.759496
-1.23208 2.58649 -0.410444
-1.36865 2.93392 -0.813556
-1.4575 2.8597 -0.848869
-1.4295 2.90495 -0.703262
-1.26644 2.90016 -0.827054
-1.35083 2.9081 -0.948446
-1.2551 2.86731 -1.1034
-1.20267 2.96456 -0.794878
-1.21603 2.95329 -0.814232
-1.29535 2.95911 -0.837044
-1.37155 3.07564 -0.21063
-1.559 2.99975 -0.453751
-1.51481 3.09284 -0.275983
-1.49671 2.97353 -0.0415098
-1.67814 2.92878 0.189548
-1.33059 2.32175 -0.346994
-1.39593 2.55873 -0.368681
-1.78235 2.40559 -0.182219
-1.59159 2.4313 -0.252426
-1.74169 2.19424 -0.220028
-1.49804 2.68823 -0.438752
-1.52003 2.84421 -0.517248
-1.85053 2.35484 0.569319
-1.91935 2.12447 0.631324
-1.85004 2.79428 0.35278
-1.82197 2.5797 0.439546
-1.85048 2.14356 0.234621
-1.99316 2.36919 0.320347
-1.84956 2.36387 0.117409
-1.60255 2.78675 -0.263258
-1.75796 2.57245 -0.0159678
-1.82743 2.81252 0.0285347
-0.264468 2.54827 -0.0517061
-0.29854 2.57631 -0.097079
-0.203791 2.49209 0.113242
-0.23545 2.5234 0.0153164
0.178966 2.46061 0.106102
0.0276734 2.46827 0.0869604
0.207402 2.46038 0.223817
-0.338921 2.33213 0.521694
-0.306426 2.41201 0.469206
0.099407 2.34196 0.581261
-0.103724 2.40071 0.560378
0.0275149 2.26792 0.657128
-0.238587 2.46058 0.368837
-0.158142 2.46523 0.2457
0.706969 2.00422 0.501198
0.556643 2.11707 0.523735
0.647983 1.97035 0.62885
0.391504 2.33964 0.349461
0.489347 2.27837 0.454468
0.502619 2.27416 0.313986
0.316689 2.13632 0.680242
0.430798 2.19574 0.563379
0.244623 2.29244 0.601322
0.0514198 2.4528 0.304327
0.155836 2.41398 0.479094
0.224925 2.42179 0.342156
-0.735669 2.24693 0.552285
-0.544751 2.27211 0.543777
-1.04594 2.26807 0.697881
-0.956695 2.22966 0.54476
-0.479291 2.04321 0.714962
-0.693034 2.14027 0.622348
-0.652473 2.00932 0.711063
-1.59325 1.99989 0.886433
-1.43462 2.09818 0.958179
-1.11896 1.87053 0.65419
-1.27587 2.0386 0.804558
-1.17722 1.77592 0.845714
-1.27127 2.21293 0.91669
-1.16599 2.27386 0.876528
-0.364735 1.34117 1.04332
-0.545335 1.44942 1.08945
-0.477518 1.25924 0.969239
-0.520892 1.8182 0.796731
-0.537937 1.65795 0.925805
-0.357598 1.78729 1.00634
-0.817503 1.46567 0.796171
-0.619674 1.54477 0.849625
-0.877671 1.69806 0.795727
-1.03715 2.12364 0.695488
-0.971253 1.94466 0.714158
-0.785456 2.0013 0.744386
-1.72019 1.96353 0.523227
-1.65216 2.01232 0.67776
-1.76814 1.94469 0.144259
-1.72467 1.94823 0.298797
-1.67695 1.49658 0.593811
-1.81199 1.69125 0.457839
-1.71381 1.46796 0.360342
-1.2693 2.0766 -0.405051
-1.48389 2.01257 -0.352517
-1.62423 1.5028 -0.339538
-1.57685 1.75912 -0.349424
-1.47681 1.53683 -0.465197
-1.62636 1.97292 -0.240949
-1.64749 1.97027 -0.0891034
-1.43818 0.611828 0.144334
-1.30324 0.840661 -0.000418125
-1.43763 0.661645 -0.151298
-1.6484 1.16432 0.216729
-1.42142 1.06922 0.117346
-1.42496 1.06002 0.345361
-1.34394 1.1243 -0.209424
-1.42373 1.06112 -0.105
-1.57467 1.22556 -0.215225
-1.79918 1.70651 -0.0271996
-1.6851 1.46832 -0.101358
-1.82257 1.4071 0.0949628
[...]
POINT_DATA 642
SCALARS Mean_Curvature double 1
LOOKUP_TABLE default
-0.787582
-0.285471
3.2234
1.04575
6.51984
-1.49216
0.225313
-0.426047
4.17684
0.533736
-1.03902
7.71994
1.80127
4.60835
-1.33502
-0.929375
7.50136
5.79918
-0.0809728
2.24173
7.14488
5.36099
3.96918
1.32956
4.95426
0.932836
3.28457
4.66779
-0.707559
1.36109
5.72392
-0.728405
9.07785
0.647457
2.71023
6.89708
0.239542
5.7404
2.81863
-0.0663037
-1.2404
0.833291
-2.50183
4.2763
1.68776
4.41866
2.03312
5.44219
-0.883441
4.10463
0.606313
-2.59843
5.68966
-1.39582
-0.739335
5.21436
-0.757531
-0.712015
15.1082
-0.225307
20.8122
8.44536
-0.628141
9.21366
0.292537
-0.135162
6.9394
-0.356582
11.2439
2.90941
14.4447
3.2858
1.76036
-1.28563
-0.66478
0.727354
0.682254
-0.0820066
-1.74394
3.46175
4.47491
1.05259
1.97975
0.960383
-1.08478
0.758478
-1.8848
6.00702
2.1102
0.214416
-0.97405
5.6517
1.63795
3.66713
1.42791
-1.19033
2.16747
-3.67928
-0.514139
-1.17326
-0.535408
-0.541899
6.36124
-0.929549
4.82027
-0.695583
-0.0864655
-0.874848
0.340124
0.226054
-1.47087
0.811132
5.75232
1.00763
3.17658
0.453175
1.36525
-0.0406668
4.45147
0.0387309
2.62921
-0.0263589
0.307295
-1.81199
6.48626
-1.41043
0.0351961
2.65281
3.11103
1.09635
4.46733
1.59987
4.00288
0.574722
3.34836
0.302768
5.67723
1.19666
-0.584825
0.07597
2.39581
0.702302
7.83987
0.821995
-0.284262
-0.621599
5.2878
2.70782
4.25426
0.891041
5.3229
-4.24872
2.47443
-1.60243
-1.48408
4.15033
3.1292
-0.281449
-0.788065
0.328754
6.26603
0.439194
-1.09934
-2.00163
0.678957
3.35813
-1.98498
2.46443
1.88019
4.75474
3.24861
4.91734
1.60619
5.20777
-0.734328
5.64543
0.951126
3.2728
1.99165
6.68284
-1.02895
-3.55775
-1.42772
-4.02611
-1.51613
-1.79522
-2.00455
3.9263
-3.08181
3.49914
0.909535
8.25415
7.40915
7.63429
-1.46224
5.78175
1.0174
9.26713
1.16478
-1.21362
-1.05964
-0.829606
-0.752229
-1.14304
-0.998713
-1.29917
-6.09158
9.74831
0.366556
-2.54738
13.38
7.17116
-0.30132
7.6955
-0.329326
-1.66817
-0.177227
1.57855
-0.87905
-0.431022
1.31675
2.37044
7.55386
-0.133345
-0.225165
-1.4148
8.27914
5.02369
6.49751
6.15728
12.0285
5.02817
-0.832113
-0.422815
-0.38962
-0.230887
-0.331494
2.01918
10.0539
-2.19152
17.3695
5.6233
14.2075
3.33906
10.3552
0.622039
12.6134
0.366522
3.03091
1.35462
2.92046
-0.49101
-0.887081
21.9048
63.4404
3.5818
35.6509
4.89329
-0.218212
3.85711
0.00338756
0.914953
16.3199
4.51167
9.08366
1.74023
13.6885
-1.02664
2.03089
-0.192927
0.763371
6.89928
7.13815
1.26676
2.3821
-1.13266
-0.98374
5.15534
0.532554
4.6062
2.10505
5.34749
-2.56085
5.22903
4.90008
-1.72279
0.881551
6.40681
-0.514598
0.616975
-1.21191
5.98868
-1.11223
-1.23478
-1.50974
-1.14879
2.91518
-0.792927
5.88308
-2.11083
4.55577
1.67534
4.28864
2.46409
2.59867
-0.622856
3.85905
1.01304
6.54729
1.36915
7.49976
1.02816
2.19885
1.17708
3.76017
0.619541
4.56604
1.14981
0.480779
0.384822
1.89302
-8.30496
-0.767188
-0.934193
-0.317656
3.69407
5.15635
-7.97004
-2.78162
4.36872
3.41691
4.80113
1.3369
7.65782
-0.0994771
-3.20202
2.33066
4.79216
-2.0444
-2.23037
-0.739124
-3.03526
-0.451296
3.79133
-1.36109
-2.4448
-0.428583
-3.77113
4.04171
3.28389
-1.23911
-1.4939
1.85217
4.10876
2.39268
5.19047
2.25862
-4.44225
8.6287
-1.81967
8.65067
3.13963
-2.62638
0.628707
-1.6276
2.38734
4.84786
2.45712
-0.46911
4.53262
-0.264191
-0.811823
0.430121
0.546281
1.32656
-0.516447
-0.555564
-0.482293
-0.63465
-0.421901
-0.716202
-0.46214
-0.617505
0.04384
2.00026
1.18194
2.92383
0.162698
-1.63661
-0.647172
-0.655175
-0.771689
-1.01103
-0.492494
-0.416157
-0.217546
-0.725957
-0.342382
21.1181
-1.96383
-0.364149
-0.0962119
-0.422488
-0.567768
-0.494731
-0.658816
0.351265
1.10052
-1.35207
2.85667
-0.105244
0.766233
5.55351
-0.956757
8.77528
0.69576
1.40371
0.254621
0.704738
0.159757
-0.736199
-0.533644
4.65058
0.480333
3.23634
1.11471
7.17814
0.979799
5.88567
0.231176
1.70724
0.937641
3.31264
0.359166
2.54055
0.147064
4.21456
-0.0318313
1.33877
0.106626
3.1544
0.408028
-0.860554
0.671758
4.26893
0.757451
3.21086
1.06445
2.24894
0.499577
0.463408
0.364565
0.285517
0.649729
3.25105
-0.02005
0.314942
-0.0284132
0.00909697
-2.73991
-1.90323
5.09993
8.11573
2.73195
-1.16263
2.10087
3.43247
3.60801
1.18787
0.00733899
-0.87473
-0.0087748
1.27691
-1.28962
1.6666
1.20491
0.484789
0.127435
3.69362
0.775906
-1.02816
0.45686
5.14094
1.02593
5.53992
6.15111
1.34423
4.1183
4.71597
5.40873
-0.0636261
0.309356
0.953228
1.23125
2.13171
0.645282
2.62911
-0.334793
-2.82651
-0.157689
2.76878
1.08012
7.40074
1.32497
2.37592
0.601506
4.17756
0.777357
0.929735
-0.429464
1.63141
0.752457
3.75376
-0.0508046
1.01494
0.704759
0.544292
0.125222
4.46643
0.658074
3.74235
0.28201
1.01417
0.549026
0.254275
0.755633
4.53074
0.779278
4.05462
0.50669
3.92467
0.584071
7.33772
0.617726
7.61882
0.843074
1.29209
0.183032
7.1755
1.17577
6.55047
0.135432
4.41444
0.623745
-1.98893
-0.359656
4.32026
-0.223848
-0.390397
0.490689
-1.62251
0.280216
1.46691
1.43134
0.528765
2.41368
3.92781
0.188163
-0.800086
-0.000770972
4.88067
-0.349783
3.36626
-2.59332
-0.98559
1.92825
-3.35423
1.14471
-0.311627
1.64528
1.82162
7.72359
8.24102
-5.79447
-1.25429
-1.52193
1.50991
-2.00983
-1.30629
-2.55874
-2.23175
4.42267
0.207973
4.94297
-1.13738
1.27978
2.89065
-6.37104
7.02571
-0.699378
-0.364651
0.701812
-0.992953
5.22701
1.89033
-2.2246
-1.41926
-1.06077
-2.07798
1.45359
7.36515
-4.31787
0.290319
-1.46266
-0.295539
-2.48975
0.201489
0.215292
0.994726
0.430128
-1.81874
1.02346
5.24559
-0.13758
8.85651
0.981231
-0.367754
-0.396558
-0.391968
-0.531072
-0.938535
-0.326222
-0.231875
0.201226
4.34105
0.696022
3.83229
0.614276
2.83137
0.427628
3.91403
0.583976
4.56818
0.904544
-1.31108
1.20165
1.9923
1.2905
10.5269
0.411642
3.27386
0.353564
SCALARS Redistribution_Potential double 1
LOOKUP_TABLE default
-5.11952e-06
1.06484
-16.9353
-18.9656
-18.4743
-13.4649
3.94222
10.384
13.5676
7.37278
6.50788
-29.7228
-22.8553
-31.1651
-19.3769
-0.366633
-12.1266
-13.5029
20.2966
25.8767
14.9027
-15.2405
6.7099
18.4902
-26.0591
-12.5066
-10.2298
-22.8905
13.0382
6.69415
19.3728
15.9264
-10.3068
-5.80456
-18.6395
-21.5467
-17.6862
-8.14437
-9.50749
7.27779
-7.41499
8.42324
-12.3576
-23.1739
-13.547
-32.0242
-29.7865
-27.7246
-19.69
-27.235
-24.8053
-11.7992
-8.05567
-4.33448
-10.9329
-11.9243
-9.41258
0.440488
-9.59518
17.057
-9.26277
-13.2722
18.3144
-9.84003
-3.83247
23.9814
8.2556
18.9868
14.3803
18.5593
26.449
23.082
-7.32043
-3.23195
-3.24317
-18.9453
-25.1347
13.4562
12.6373
0.949498
7.36253
15.0955
14.2969
9.6477
-24.5811
-13.1075
-30.3992
-30.5766
-15.5957
-20.8228
-21.1566
-20.9256
-27.7245
-4.54237
-12.8648
-18.8289
-17.2611
-14.5766
12.0598
6.72655
10.4756
13.1164
5.26208
11.5325
9.91272
2.55643
5.931
7.09239
2.92112
18.179
17.3789
19.203
-17.2448
-15.6404
-19.5458
0.918191
-7.60824
-2.70114
-18.2579
-13.53
-13.3075
-20.133
-19.0894
-21.3444
-20.5808
-16.8368
-20.0478
-20.5163
-14.3114
-15.4138
-12.9404
-12.4912
-2.08993
-7.91743
-1.70021
-10.1652
-15.4513
5.37672
-1.74645
1.96265
-0.163728
9.60606
-11.4505
10.2849
-1.09817
-3.43256
8.03236
-7.41343
1.29656
-2.75121
-22.1124
-23.2386
-26.1365
-1.13842
-8.41425
-2.00657
15.572
12.4912
14.2245
16.6079
18.4039
20.1703
-4.87403
-13.5448
-7.39099
-23.3173
-19.4319
-18.5875
-16.9837
-19.4105
-22.2575
-31.2315
-30.8708
-29.098
-31.1372
-31.2749
-32.1166
-25.6063
-29.3826
-26.6337
-16.5857
-23.3141
-18.6278
-24.2152
-24.645
-20.4527
-28.4626
-27.309
-29.6842
-26.7748
-29.1467
-25.8333
-9.4964
-3.97405
-14.4863
-12.4105
-10.844
-10.8374
-11.6072
-8.69976
-12.9026
-6.14493
-8.89686
-1.21316
-15.1481
-15.5181
-6.4077
-7.75667
0.918452
-11.9125
-10.5722
-12.7335
-0.433515
-6.70677
-5.20404
-11.6746
-8.93668
-11.1571
-0.168693
7.57415
-11.2149
-8.77585
19.8897
1.99118
2.81867
-4.59094
-10.7236
-13.6325
-12.9132
-13.2431
-13.0096
-12.9261
12.6054
4.97504
5.45739
3.66038
4.24364
20.3734
-9.73301
-8.63862
-13.1121
-12.7377
-14.2003
-10.2642
13.6093
7.6283
26.1576
21.8098
11.2928
18.5076
19.9382
14.919
18.8901
25.2238
25.2207
25.3912
25.2075
24.9123
9.34362
22.4218
10.4811
23.7778
24.0955
19.2164
25.0183
26.3824
27.8282
25.0497
25.2169
25.0386
-1.5115
7.60705
1.51911
-9.1306
-17.1494
2.9555
5.92503
-9.76471
-3.33735
-9.98452
7.10255
10.3384
-26.4837
-27.7217
-21.657
-24.08
-20.9351
-22.0226
-17.476
-2.0085
-12.1789
-14.0915
6.75797
6.09487
6.37113
6.71452
17.4267
14.153
16.4694
-5.15594
-2.18062
8.35828
3.65583
4.83284
1.63667
5.80181
10.7224
12.5659
8.6467
16.9184
15.4641
17.478
8.53725
12.4435
10.6035
11.6764
11.5925
15.0483
-19.6715
-13.3321
-28.7579
-25.4262
-13.6054
-19.4535
-18.8843
-30.8957
-31.881
-27.7374
-30.7239
-28.1564
-32.0606
-31.5674
-17.4651
-18.4837
-19.5852
-16.9816
-17.9742
-13.2053
-23.4753
-20.6196
-24.3645
-27.9772
-26.3908
-22.6122
-26.6334
-29.1277
-19.2406
-22.7186
-25.4115
-24.4052
-22.7482
1.0986
-4.66107
-11.3806
-8.88266
-8.09151
-9.51621
-13.4178
-17.8959
-16.4067
-15.8854
-20.1795
-18.344
-21.1993
-12.6083
-15.1248
-13.8523
-16.8679
-15.4353
-18.9948
11.0221
7.31053
16.8641
15.7852
6.0893
10.883
9.52893
10.8676
14.0233
11.3689
12.0001
11.1634
16.9646
17.4075
4.60765
7.77659
6.36283
9.89578
8.93172
6.43076
12.544
11.1361
12.4047
12.9292
11.4002
11.035
1.96671
6.4723
-9.05419
-4.27948
11.1803
3.09949
11.6465
2.48362
0.604273
12.671
4.66702
15.5522
-4.9956
-10.6444
15.7092
18.8285
16.0997
16.757
19.2038
18.4074
20.4904
20.0174
18.415
2.73311
12.403
12.0107
-18.6667
-18.4341
-19.5747
-13.9121
-16.8065
-14.4401
-19.178
-17.8961
-17.2441
4.08286
-0.567461
2.50479
-6.45227
-3.30643
-2.29098
-7.95498
-5.24323
-9.70107
-18.4687
-15.7814
-16.6896
-16.4767
-16.063
-18.2904
-9.74106
-12.9266
-9.83013
-12.0494
-10.5322
-14.4091
-19.9264
-19.253
-19.8315
-20.019
-18.4433
-19.8373
-19.3834
-20.4516
-20.2324
-20.9159
-21.0036
-21.6817
-19.8893
-19.6554
-16.8643
-18.6591
-18.4444
-18.9213
-18.7593
-17.0913
-21.0618
-20.1929
-20.8985
-20.2497
-20.6396
-20.0683
-17.718
-17.6541
-16.162
-16.9845
-12.9949
-15.0972
-12.2158
-14.9597
-14.7234
-10.1593
-12.6411
-9.89389
-14.8807
-15.1711
1.83928
-2.42126
1.97351
-8.8514
-5.52303
-6.51799
-4.92475
-5.13666
-7.55117
-13.211
-10.4403
-11.1697
-15.9386
-17.3785
-10.1439
-13.2333
-12.1055
-13.142
-9.18766
4.55235
1.90623
2.4606
2.12447
6.35791
-2.09248
-6.35387
9.60698
6.04667
12.3838
-4.09588
0.766895
-3.04076
8.58816
4.58076
3.60601
-6.55963
-1.07178
-5.56642
-16.834
-11.108
-13.9289
-14.5539
-11.246
11.8355
6.95572
3.46531
4.99712
8.94404
0.409833
-5.14703
2.34649
7.61846
-7.753
-3.46554
8.30454
1.99721
2.66805
-7.63728
-2.55378
-8.56882
-14.2833
-6.45336
-10.3702
-11.1338
-9.92708
5.55258
4.35546
5.76913
1.74334
-1.91961
-6.91573
-7.6473
-7.70248
-0.434188
2.17741
-3.1165
-0.455214
-5.01187
-19.9006
-21.6948
-21.1856
-21.2498
-22.6686
-21.5119
-24.5155
-22.9084
-22.3865
-22.3128
-29.4826
-24.7598
-27.3486
-27.9984
-26.5376
-22.4805
-24.4081
-23.3319
1.93153
-5.2778
-1.48047
2.17083
2.38847
-13.8352
-9.21154
-11.4876
-10.7724
-7.81704
0.649513
2.38916
1.22255
-3.26801
-6.61882
-4.89928
-5.66981
-1.20753
14.7299
11.8128
13.2785
17.0011
17.3907
8.23184
13.7405
11.5628
9.34895
10.1122
8.30991
14.922
10.8692
10.797
13.5884
13.8669
14.9101
16.2441
12.2025
13.1679
12.9922
16.0952
18.6888
15.7709
20.5959
18.7703
14.9893
13.6888
10.3704
19.595
17.664
17.3099
20.1173
17.2582
20.292
19.4349
SCALARS CoVolArea double 1
LOOKUP_TABLE default
0.026969
0.00275694
0.0366766
0.0312318
0.0188973
0.0194198
0.0140518
0.00767919
0.0135677
0.0206818
0.0212251
0.0540793
0.0473189
0.0279274
0.0276171
0.0198454
0.015145
0.0071515
0.012436
0.00848199
0.0200713
0.0594043
0.0230606
0.0224135
0.0460612
0.0338964
0.046409
0.0675614
0.0257831
0.0497491
0.0240085
0.0196371
0.0361442
0.037577
0.0510669
0.0553005
0.0604126
0.0342446
0.0410364
0.0286504
0.0321345
0.024395
0.0442177
0.0410681
0.0393434
0.0493758
0.0499255
0.0599332
0.0283028
0.0302436
0.0264117
0.0278011
0.030848
0.0268029
0.027498
0.0135351
0.0198799
0.00987762
0.0219222
0.0167145
0.0159919
0.00859875
0.0147069
0.0214211
0.0222738
0.0122012
0.0276149
0.0070344
0.00369302
0.0331045
0.0272264
0.0167217
0.0509673
0.0509283
0.0453342
0.0570485
0.0497091
0.0227365
0.0155119
0.0273875
0.0303616
0.0248517
0.0254942
0.0256744
0.0262937
0.0267836
0.0425781
0.0313678
0.0394348
0.0436609
0.0429499
0.0667811
0.0470853
0.0454241
0.0497552
0.0563908
0.0575272
0.0409583
0.0162119
0.0373391
0.012895
0.0096345
0.0347914
0.0285073
0.0305376
0.00880315
0.015757
0.015685
0.0158342
0.027197
0.0197095
0.0237943
0.0574621
0.0500196
0.0581731
0.0314654
0.0430271
0.0289106
0.0494471
0.0493276
0.0433325
0.0657594
0.0507541
0.0371783
0.064675
0.0580105
0.0636484
0.0520499
0.0542848
0.0425837
0.0409787
0.0541328
0.0410595
0.0439604
0.0358494
0.0402215
0.0403618
0.0271799
0.0362866
0.0297462
0.0344392
0.0304769
0.0411572
0.0225418
0.026667
0.0254362
0.0268437
0.0330991
0.0328187
0.0296643
0.0610087
0.0504416
0.0580122
0.0423028
0.0427048
0.0526281
0.0307884
0.0300429
0.0317975
0.0257027
0.0281677
0.0263677
0.037712
0.0387226
0.0390148
0.0475894
0.0403397
0.0442029
0.0308491
0.0320879
0.0332434
0.0605326
0.0539366
0.0628889
0.0353721
0.0457865
0.0340189
0.0531975
0.0536579
0.0566639
0.0234414
0.02519
0.0236221
0.0310026
0.0251159
0.0283612
0.0254768
0.0232974
0.0267948
0.0541924
0.0407821
0.0458376
0.0432444
0.0332297
0.0328301
0.0389187
0.0187613
0.0290535
0.0167803
0.0253578
0.0277531
0.0216391
0.0278786
0.0260815
0.0294329
0.0304009
0.00757915
0.0114501
0.00513107
0.0170268
0.0168556
0.0138543
0.0158075
0.0151662
0.0178324
0.0304561
0.0225713
0.0224627
0.0265869
0.0257151
0.0165177
0.0237371
0.00786118
0.0172141
0.0181131
0.00846424
0.0114812
0.00732749
0.0109336
0.0101636
0.0114597
0.0124058
0.00919905
0.0218693
0.0172532
0.0134286
0.0191831
0.0105334
0.0141437
0.0228148
0.0170865
0.0146065
0.0176382
0.0245819
0.0210704
0.0271364
0.0144378
0.0127994
0.0238747
0.018952
0.0153374
0.00544513
0.0041408
0.00260125
0.0048423
0.00697301
0.00617459
0.00873822
0.0296416
0.0254717
0.019671
0.0171252
0.0210173
0.0217195
0.0125732
0.0193414
0.02249
0.00499756
0.0137659
0.0112213
0.0374177
0.0403951
0.0377673
0.0411102
0.0492614
0.0401705
0.0444815
0.0522174
0.0464149
0.0509647
0.0397294
0.0371256
0.0568554
0.0536896
0.0546375
0.0562966
0.0512036
0.0573642
0.0568177
0.0581444
0.0589706
0.06445
0.0107778
0.006239
0.0240059
0.0178377
0.0228528
0.0179272
0.0211522
0.0295861
0.0262486
0.0241151
0.0269221
0.0215041
0.0288307
0.0284861
0.0255009
0.0250386
0.0254537
0.0210846
0.0222262
0.0192182
0.0269852
0.025662
0.0265784
0.0285256
0.0268303
0.0235805
0.0270254
0.0271774
0.0277067
0.0260701
0.0321018
0.0275322
0.0322566
0.0490529
0.0472137
0.0450046
0.0367887
0.0462843
0.0325521
0.0263739
0.0258221
0.0358628
0.0328337
0.0364456
0.0392876
0.0363079
0.0452122
0.0417439
0.0499092
0.0307454
0.043716
0.0341136
0.0475873
0.0459566
0.0583329
0.0513343
0.0650998
0.0589762
0.0704201
0.0402399
0.0494415
0.0532293
0.0473279
0.0461919
0.0451178
0.0547986
0.0509615
0.0492995
0.0521062
0.0652449
0.0546528
0.0612769
0.0433606
0.0442132
0.0534807
0.0647766
0.061412
0.0713154
0.028217
0.0282013
0.0103624
0.0183923
0.0445284
0.0306438
0.0377319
0.0104954
0.00890853
0.0177765
0.0108747
0.0181005
0.00977428
0.00746421
0.0248664
0.0322796
0.0253649
0.0370317
0.0339076
0.0389432
0.0281759
0.0312393
0.0253371
0.010816
0.0177423
0.0240887
0.0163303
0.0135773
0.0107912
0.0125284
0.0167835
0.0125483
0.0110457
0.00735192
0.0112582
0.019046
0.018747
0.0236715
0.0179102
0.0114988
0.0220482
0.0261666
0.0229729
0.0162073
0.0248057
0.0237419
0.0232247
0.0245242
0.0197462
0.00979386
0.0113368
0.0101591
0.0427761
0.0545554
0.0466096
0.0439908
0.049117
0.0523267
0.0606255
0.0549413
0.0568493
0.0283711
0.0307733
0.0283811
0.040736
0.0342601
0.0346841
0.0234117
0.0320861
0.0361291
0.0365057
0.0449987
0.03232
0.0509912
0.0483241
0.0514224
0.0409369
0.0433563
0.0427284
0.0525286
0.0513654
0.0562658
0.0495327
0.0443119
0.0567977
0.0564721
0.0637086
0.0584331
0.0673314
0.0321271
0.0358516
0.0597825
0.0482963
0.0454228
0.0519635
0.0511501
0.0507986
0.0629385
0.0485115
0.0639812
0.0590812
0.0552962
0.0576422
0.0529435
0.0579812
0.0663451
0.0707822
0.073988
0.0489092
0.0450814
0.0620614
0.0573121
0.0451589
0.0492873
0.0486969
0.0439505
0.046012
0.0428575
0.0443957
0.0407114
0.05142
0.0584668
0.0274723
0.0366654
0.0280955
0.0413818
0.0397025
0.0401955
0.032359
0.0333094
0.041104
0.0572436
0.0551342
0.0497762
0.0383963
0.0363078
0.0438588
0.0411452
0.0383715
0.0368898
0.034447
0.0238443
0.0297516
0.0300547
0.0292028
0.0275951
0.0371634
0.0383401
0.026896
0.0317123
0.0251732
0.0310919
0.0279265
0.0241823
0.0273546
0.0287872
0.0311174
0.0442981
0.0395426
0.0413127
0.0523363
0.0365925
0.051463
0.058506
0.0445483
0.0219305
0.0260707
0.0231983
0.0239656
0.0217956
0.0261212
0.0289847
0.0258293
0.023761
0.0268474
0.0247183
0.0277039
0.0279605
0.0250144
0.0311616
0.0275662
0.0312179
0.034628
0.0354725
0.0344989
0.0349077
0.031943
0.029101
0.0294086
0.0297908
0.0322205
0.0334296
0.0318829
0.0337633
0.0317001
0.0290517
0.0245289
0.0335602
0.0304395
0.0332546
0.0463493
0.0721904
0.060833
0.0519812
0.0530875
0.0420469
0.0467522
0.0445038
0.0458724
0.047806
0.0416375
0.0701394
0.0558282
0.0494092
0.0463016
0.0627383
0.0598708
0.0650826
0.03374
0.0381108
0.0330696
0.0378926
0.0449491
0.0434009
0.042199
0.0414431
0.0429345
0.0412283
0.0411397
0.0528134
0.0478907
0.04584
0.0457069
0.0493433
0.0498884
0.0507743
0.0289383
0.0297376
0.0283456
0.0287373
0.029928
0.0301166
0.0296659
0.0285357
0.028293
0.0297122
0.0162492
0.0258708
0.0212131
0.022441
0.0291213
0.0336693
0.0361886
0.0349174
0.0255908
0.0264385
0.0256306
0.0230214
0.022746
0.0247864
0.0279194
0.0241573
0.0247188
0.0259917
0.0162031
0.0253225
0.0254771
0.0257368
0.0258283
0.0287232
0.02824
0.0263812
SCALARS SignedDistance double 1
LOOKUP_TABLE default
1.11661
1.23141
-0.00536963
-0.998159
-0.0042115
1.08106
-0.000128751
1.18185
0.0060185
-0.181621
1.13779
1.05574
-0.0418425
0.669477
0.234324
1.15616
0.356603
-1
0.0856946
-1.00002
-0.897163
0.807511
0.0070303
-0.573026
0.00149216
0.147447
-0.0333247
0.934292
0.371511
-0.177573
-0.0897436
0.808128
-0.0350353
-0.488222
-0.00363238
0.730385
-0.000628691
-0.352259
-0.00648649
0.200386
0.00469134
-0.849416
0.019509
0.832866
-0.00145134
1.06945
-0.0012664
1.09236
1.10913
0.627343
0.267955
0.748863
-0.0326433
0.293477
1.20225
-0.0445909
0.0178355
1.24347
-0.0166677
0.465353
-0.0536661
-1
1.10039
-0.0655425
0.104255
-0.730009
-0.00279926
1.08735
-0.089939
-0.999638
0.0430756
-1.00115
-0.0254019
0.0898711
-0.000935845
0.070514
-0.00401045
0.0483749
0.770042
-0.163014
0.0101418
-0.666795
-0.0119717
-0.398025
0.377405
0.150254
0.788512
0.725959
0.00631972
0.180456
0.581357
1.08262
-0.0022482
0.365395
-0.0232898
0.597258
0.0129224
0.000906331
1.21938
0.271797
1.22542
1.21908
-0.0130962
0.931928
0.00164211
1.14395
1.19148
1.17035
1.17813
-0.260027
0.650105
-0.807535
-0.00488043
-1
0.00326539
-0.328782
-0.000182723
-0.479515
-0.00366926
0.310494
-0.00828428
0.0250192
-0.000229192
-0.270324
-0.011277
-0.0804873
8.38916e-05
0.350594
-0.00753865
-0.818481
0.0102654
-0.0167444
0.00192631
-0.096736
0.00971825
0.0855108
-0.0227526
-0.825994
-0.0106555
-0.283873
0.00386322
-0.883591
-0.034719
-0.765391
-0.00242958
1.02289
0.000590942
-0.849162
0.00636076
-0.137536
-0.0106178
-0.363187
0.00639098
0.165023
0.94788
-0.00650452
0.00540556
0.106413
0.800959
-0.0811584
-0.00576726
-0.0792601
0.950563
-0.365692
-0.013597
0.836712
-0.00164115
0.511065
-0.00369705
0.579872
0.0520661
1.10652
-0.0119944
1.09561
0.0202102
0.935833
-0.0198803
0.832915
0.00715915
1.11415
1.08227
0.181817
0.141129
-0.57334
0.0306451
0.90519
-0.0259432
0.440626
0.00127584
1.0593
-0.00888479
1.05243
-0.0154145
0.282073
1.06501
0.423129
-1
0.398453
0.141833
0.956246
1.13829
1.25281
1.19091
1.09703
1.18174
1.13865
0.122898
-0.0401946
1.23631
0.12332
0.00887658
0.0899062
1.22849
0.151455
1.20383
0.682212
1.11385
0.036384
1.07177
1.12984
-1
-1.00726
0.0531943
1.03041
0.95159
0.617875
-0.175322
-1
-1
-1
-0.00361036
-1
1.20493
0.692283
0.987319
0.894123
0.836171
0.179436
0.0925356
0.674923
0.0380891
-0.973798
0.0616941
-0.702
0.018443
0.000914445
0.0700475