# vtk DataFile Version 4.2
vtk output
ASCII
DATASET POLYDATA
POINTS 642 double
-1.12989 3.2105 -0.235198
-0.000979995 3.05366 -0.187784
-1.29504 0.541557 -0.005737
0.675545 0.551952 0.00739378
-0.3644 1.20542 1.04714
-0.566351 2.59543 0.784014
-0.344893 1.36195 -0.89379
-0.67734 2.90379 -1.04307
0.59578 1.92506 -0.46356
0.7349 1.87036 0.552994
-1.42285 2.30348 -0.692742
-1.80558 2.13854 0.85788
-1.68019 2.90453 0.447521
-1.16626 2.46242 0.899204
-0.884485 2.99155 0.46208
-0.176538 2.9443 0.305762
-0.446929 3.37516 -0.198703
-0.153252 3.21829 -0.669151
-1.00447 3.23059 -0.867882
-1.13615 2.82033 -1.13434
-1.60329 3.02938 -0.635241
-1.85184 2.15753 0.020653
0.182172 2.25457 0.754137
0.460985 2.44992 0.257756
-1.04739 1.60805 0.921404
-0.414223 1.95213 1.0282
-1.46087 1.31147 -0.360332
-1.58384 1.22976 0.479434
-0.531998 2.28212 -1.05997
-0.97043 1.79249 -0.884989
0.360453 2.58879 -0.329757
0.0229902 2.53874 -0.812491
1.07476 1.17938 0.465803
0.340639 1.51644 0.963987
0.209222 0.684403 0.800384
-0.935095 0.655456 0.831615
-0.350219 0.553531 -0.00124173
-0.81639 0.787002 -0.675702
0.150289 0.814744 -0.673149
0.221565 1.59947 -0.79115
0.834612 1.23243 -0.275635
0.874074 1.82393 0.0248359
-1.35444 3.02408 0.0974921
-1.27937 2.96433 0.487706
-1.00271 3.13009 0.157409
-1.48949 2.36095 0.962695
-1.46948 2.72741 0.813997
-1.8349 2.56573 0.706613
-0.744581 2.80567 0.659842
-1.06934 2.75668 0.731505
-0.862119 2.54486 0.848925
-0.633331 3.22375 0.088757
-0.791405 3.33604 -0.213076
-0.33674 2.78448 0.580448
-0.513236 3.02416 0.366532
-0.23079 3.24281 -0.20156
-0.325205 3.17616 0.0446249
-0.0881062 3.04436 0.0501976
-0.675128 3.37554 -0.533692
-1.08604 3.27372 -0.638932
-0.0613831 3.13603 -0.38351
-0.283575 3.40694 -0.471768
-0.834472 3.07966 -0.998105
-0.560629 3.25553 -0.759325
-0.419857 3.04832 -0.885904
-1.38537 3.28998 -0.896021
-1.39489 3.18958 -0.442203
-0.91702 2.88883 -1.11092
-1.18128 3.15671 -1.14976
-1.50156 2.70975 -0.703863
-1.44208 3.00299 -1.03938
-1.29807 2.62603 -0.995566
-1.60956 2.91026 -0.0720811
-1.63168 2.20491 -0.338362
-1.65319 2.58773 -0.257567
-1.85091 2.56571 0.255023
-1.85066 2.15132 0.463872
0.182183 2.71962 0.305201
0.220175 2.79678 0.0262092
-0.130092 2.41483 0.799175
0.0502022 2.59533 0.579066
0.621289 2.18804 0.412056
0.372258 2.37978 0.514649
0.469487 2.08051 0.6846
-0.850714 2.23551 0.960464
-0.510393 2.28034 0.937318
-1.41003 1.93818 0.857997
-1.16537 2.11653 0.958585
-0.356973 1.56819 1.06252
-0.757555 1.81976 1.01509
-0.687515 1.33761 0.990146
-1.85219 1.69049 0.261916
-1.64214 1.76549 0.634903
-1.47196 1.77695 -0.489293
-1.68784 1.72042 -0.187338
-1.38177 0.856037 0.248689
-1.63133 1.21035 0.0100137
-1.33916 0.883485 -0.164371
-1.05583 2.4076 -1.04518
-1.22233 2.08726 -0.831496
-0.648548 2.68226 -1.08409
-0.852072 2.61068 -1.11753
-0.632507 1.50917 -0.908436
-0.753786 2.10514 -1.03762
-0.384359 1.74292 -0.991976
-0.0935346 2.90313 -0.763616
-0.334969 2.77908 -0.958808
0.164245 2.87305 -0.281108
0.0719382 2.93206 -0.501784
0.337386 2.19719 -0.657578
0.21996 2.59229 -0.591023
0.520053 2.24462 -0.392634
0.997525 0.720899 0.255082
0.722998 0.860375 0.633952
0.508372 0.554242 0.401812
0.596434 1.69234 0.778399
0.688607 1.32515 0.699164
0.87354 1.49308 0.471344
-0.128676 0.934594 1.0439
0.299486 1.08821 0.914509
-0.016773 1.34229 1.0638
-0.028746 0.563601 0.443848
0.215584 0.554229 0.00404168
-0.604825 0.890396 0.964794
-0.348129 0.554448 0.919207
-0.85799 0.551873 0.00744686
-0.648646 0.553973 0.456822
-1.14725 0.553428 0.487668
-0.0544201 0.554523 -0.417379
0.433777 0.644618 -0.386647
-1.08959 0.637555 -0.353855
-0.645372 0.554295 -0.417781
-0.139556 1.08592 -0.837269
-0.36389 0.764236 -0.692521
-0.540211 1.09184 -0.795467
0.553446 0.992603 -0.47867
0.882814 0.837464 -0.213082
-0.0446569 1.46888 -0.877262
0.223436 1.21487 -0.736293
0.745809 1.54164 -0.367805
0.543685 1.3977 -0.576583
0.442017 1.74665 -0.650573
1.11936 1.14208 0.0147339
0.791795 1.85965 -0.221662
0.890335 1.50116 -0.104886
0.934631 1.46172 0.198267
0.865255 1.85136 0.317022
-0.0246658 1.72059 1.04865
0.281987 1.90618 0.879248
-0.0897438 2.09457 0.938024
-1.24138 0.831032 0.657376
-0.961278 1.06855 0.847597
-1.32096 1.39243 0.771578
-0.855417 1.2229 -0.721523
-1.12316 1.02969 -0.4601
-1.21844 1.50856 -0.616857
0.163516 2.03453 -0.827996
-0.118407 1.87106 -0.963238
-0.255064 2.40717 -0.98679
0.682087 2.16262 0.159924
0.647224 2.18984 -0.134851
0.454757 2.52528 -0.0344986
-1.23028 3.13604 -0.102173
-1.2066 3.06319 0.157365
-1.06979 3.18446 -0.0556714
-1.48767 2.95979 0.490539
-1.33026 2.99015 0.323342
-1.54087 2.96077 0.29632
-0.943533 3.06734 0.321604
-1.14898 3.01973 0.34323
-1.07035 2.97037 0.482845
-1.66302 2.26654 0.952559
-1.69152 2.47958 0.909159
-1.85307 2.36216 0.799627
-1.3051 2.57698 0.856344
-1.50574 2.54987 0.913429
-1.32631 2.41031 0.926111
-1.77267 2.75318 0.584971
-1.67663 2.68278 0.810369
-1.644 2.86125 0.696682
-0.643202 2.69078 0.73066
-0.839608 2.6858 0.764251
-0.693103 2.57164 0.815691
-0.991282 2.88097 0.611317
-0.916003 2.78643 0.697501
-0.839797 2.91696 0.560272
-1.00258 2.50717 0.874971
-0.987185 2.6522 0.797458
-1.12071 2.61865 0.822873
-1.4077 2.8778 0.672296
-1.25227 2.73303 0.757671
-1.18258 2.87621 0.64056
-0.882065 3.267 -0.0324357
-0.956431 3.27822 -0.242207
-0.759527 3.10897 0.282673
-0.808489 3.18755 0.138678
-0.605 3.39787 -0.193
-0.682073 3.29676 -0.0474921
-0.532036 3.30183 -0.0609439
-0.454005 2.69345 0.693926
-0.549118 2.80286 0.618539
-0.34989 3.00805 0.324358
-0.436746 2.91192 0.474534
-0.237362 2.87364 0.441253
-0.639118 2.92121 0.523478
-0.714634 3.01287 0.423611
-0.0837955 3.12936 -0.197533
-0.160897 3.14674 -0.0794362
-0.0257613 3.05259 -0.0948994
-0.389862 3.2739 -0.0832602
-0.272662 3.21492 -0.0808179
-0.338297 3.31725 -0.205975
-0.115801 3.00264 0.165545
-0.206776 3.12193 0.0383026
-0.259568 3.07435 0.172709
-0.583398 3.13473 0.228255
-0.40883 3.11464 0.199095
-0.477691 3.22135 0.0572291
-0.930333 3.30686 -0.426527
-1.11215 3.25791 -0.470054
-0.538377 3.53792 -0.333156
-0.724985 3.38396 -0.389106
-1.0533 3.26693 -0.747763
-0.912544 3.30021 -0.601291
-0.860431 3.27574 -0.711174
-0.035651 3.10458 -0.299379
-0.129327 3.19508 -0.309029
-0.200335 3.35217 -0.58847
-0.175546 3.26542 -0.435285
-0.11718 3.194 -0.543166
-0.255926 3.31163 -0.321062
-0.360535 3.42739 -0.331064
-0.745332 2.98192 -1.03044
-0.664425 3.07371 -0.945189
-0.577611 2.95765 -0.987445
-0.815318 3.21754 -0.827022
-0.724156 3.15617 -0.887353
-0.958052 3.17574 -0.944262
-0.274031 3.13808 -0.770984
-0.495852 3.17255 -0.825701
-0.324374 3.2897 -0.711803
-0.45605 3.52726 -0.515968
-0.350619 3.48563 -0.675526
-0.627515 3.32665 -0.665943
-1.25022 3.24873 -0.568067
-1.28522 3.192 -0.373381
-1.20279 3.27756 -0.91371
-1.23651 3.27593 -0.773002
-1.56377 3.18293 -0.533416
-1.42658 3.28994 -0.700239
-1.59818 3.25777 -0.78446
-0.807865 2.89786 -1.08415
-0.891165 2.9939 -1.07114
-1.18096 3.02513 -1.18154
-1.04154 3.01271 -1.11454
-1.02701 2.87034 -1.13015
-1.02488 3.10496 -1.05496
-1.15021 3.20036 -1.02668
-1.4588 2.46129 -0.698899
-1.41451 2.67465 -0.87298
-1.37054 2.43427 -0.822804
-1.57047 3.0541 -0.886817
-1.47728 2.86077 -0.873145
-1.54018 2.88017 -0.68945
-1.23727 2.71835 -1.08065
-1.41153 2.80777 -1.06324
-1.31893 2.90831 -1.18005
-1.33591 3.21825 -1.0571
-1.3974 3.15655 -1.26583
-1.43679 3.19089 -1.00178
-1.37996 3.1095 -0.191116
-1.60278 2.99716 -0.390777
-1.51856 3.08915 -0.274367
-1.51017 2.97114 0.0209991
-1.68487 2.91898 0.209931
-1.52793 2.25384 -0.520109
-1.55233 2.44474 -0.509885
-1.78109 2.37844 -0.118428
-1.65077 2.40305 -0.304068
-1.75816 2.17368 -0.171817
-1.57171 2.64939 -0.494502
-1.5964 2.8129 -0.478075
-1.85088 2.35414 0.578044
-1.85233 2.14602 0.644884
-1.85053 2.78886 0.37167
-1.851 2.56951 0.479
-1.85108 2.15435 0.244366
-1.91047 2.36073 0.354261
-1.85096 2.36175 0.135302
-1.65923 2.76915 -0.179403
-1.77247 2.57441 -0.00430863
-1.82246 2.79039 0.101392
0.0781179 2.91804 0.0358434
0.0959754 2.93899 -0.0948782
0.0119623 2.83835 0.310674
0.0428992 2.88837 0.179892
0.350456 2.6249 0.152854
0.215905 2.75032 0.184767
0.327828 2.59114 0.287891
-0.337925 2.50961 0.799865
-0.22741 2.60408 0.70334
0.119812 2.41831 0.68339
-0.0321631 2.50791 0.697878
0.0376392 2.3325 0.781963
-0.125781 2.69455 0.583783
-0.0527909 2.76771 0.464024
0.706292 2.01042 0.506596
0.563972 2.13279 0.557994
0.646003 1.9734 0.633838
0.431342 2.41412 0.38955
0.500952 2.28553 0.469033
0.537082 2.31739 0.334883
0.344481 2.15929 0.715777
0.446075 2.23451 0.622554
0.290438 2.31949 0.644896
0.130106 2.66365 0.445271
0.217984 2.4921 0.550863
0.287649 2.54524 0.420732
-0.704244 2.42298 0.892107
-0.546517 2.44371 0.869159
-1.00695 2.35232 0.9335
-0.885655 2.38728 0.918743
-0.463215 2.14094 0.981098
-0.702084 2.262 0.951882
-0.644952 2.10091 0.994223
-1.57775 2.04223 0.855389
-1.46878 2.13827 0.96198
-1.1228 1.90046 0.94293
-1.28427 2.03453 0.929514
-1.21959 1.76661 0.891131
-1.31795 2.23098 0.968561
-1.18218 2.29205 0.948145
-0.359656 1.34974 1.05455
-0.54016 1.44747 1.05056
-0.507536 1.25158 1.0171
-0.589402 1.88645 1.03409
-0.551766 1.6886 1.05085
-0.381773 1.78396 1.05254
-0.860697 1.45338 0.953666
-0.72777 1.56334 1.01228
-0.906925 1.71771 0.979517
-1.00827 2.17932 0.968424
-0.966332 1.9831 0.978872
-0.824853 2.04928 0.992048
-1.73064 1.96456 0.542364
-1.67135 1.97502 0.704444
-1.77992 1.93804 0.144337
-1.77661 1.93983 0.334625
-1.67271 1.48895 0.58953
-1.74976 1.70067 0.452095
-1.71235 1.46848 0.365785
-1.45006 2.03297 -0.576606
-1.55388 1.99063 -0.4212
-1.61899 1.49875 -0.297004
-1.59059 1.74011 -0.354563
-1.49788 1.52494 -0.436077
-1.66043 1.96211 -0.257438
-1.72771 1.94762 -0.07747
-1.43481 0.590392 0.11956
-1.41524 0.826789 0.00750662
-1.43823 0.607937 -0.138129
-1.62472 1.20233 0.239898
-1.47431 1.04704 0.126815
-1.44195 1.05547 0.364344
-1.37955 1.10278 -0.24836
-1.44755 1.05922 -0.0845072
-1.58625 1.23527 -0.211579
-1.7771 1.6994 0.0250911
-1.68673 1.46565 -0.0949792
-1.77021 1.43517 0.132656
-1.25604 2.36504 -0.911793
[...]
POINT_DATA 642
SCALARS Mean_Curvature double 1
LOOKUP_TABLE default
0.35218
1.50672
1.407
5.12703
1.623
0.847829
0.464594
1.56253
1.02248
-0.914165
0.408443
8.00355
2.99897
0.778633
1.21953
0.703897
1.62932
5.8491
1.42567
1.22055
2.98905
3.83241
1.04522
1.32205
0.644157
1.26383
1.2181
3.3635
1.02478
0.849925
1.37287
1.05648
7.1616
1.13475
2.27902
3.69588
0.174639
4.19401
2.03335
0.836825
-0.102327
1.53536
-0.166306
1.21979
0.667904
2.33547
2.42621
4.09756
1.29646
1.03862
0.997528
1.33523
1.07542
1.05024
1.0602
1.00851
1.14017
1.39237
0.395984
0.780506
1.44259
1.97809
1.76901
1.14477
1.54321
6.77156
0.31501
1.90556
7.41931
0.208032
0.583117
1.33551
1.16097
0.0566049
-0.411274
0.343423
1.35861
1.56234
1.45145
1.13524
1.26194
2.11391
1.10017
0.866136
0.823028
0.946357
-0.0118093
1.00135
0.31546
0.797089
0.640406
5.27123
0.861008
0.549356
0.960688
-0.963527
2.54212
-0.615221
1.87155
0.90768
1.66427
1.93619
0.900908
1.05539
1.19678
1.66089
1.43642
0.871356
1.96909
1.19722
1.30207
1.35291
4.15227
3.40583
3.17384
1.05302
1.07285
2.70482
3.80098
-0.637609
0.681856
-0.483841
-0.00415091
0.151071
5.65994
-1.24469
-0.00855744
1.63895
1.49946
2.37534
3.0326
-0.0509749
2.36494
-0.308638
-0.0957024
-0.771617
3.52079
0.79127
-0.173606
0.605293
0.784453
0.97835
3.82654
1.39638
-0.426049
-0.658771
2.36881
1.93364
0.850828
1.00411
0.105637
-0.0577912
1.40481
0.453329
-0.105558
0.516165
1.04355
1.36756
0.899206
0.612769
1.14197
1.37191
0.092524
0.195391
0.235566
2.89814
-0.321241
0.810602
0.876893
0.437782
1.05186
4.2434
4.13109
5.16746
-0.000535482
2.87671
0.274118
1.92473
3.85867
6.13108
0.748464
1.11921
0.751671
1.23512
1.34033
1.36738
0.979904
1.01637
0.76595
2.4924
0.0131585
1.71292
2.241
0.524409
1.22901
1.13108
2.39379
1.03971
1.25962
1.01091
0.63413
1.0699
0.631687
1.10058
1.12107
1.1029
1.33561
1.21154
1.42904
1.15246
1.08135
0.83953
1.25042
1.2307
1.22783
1.24769
1.13411
1.36266
0.662781
0.16963
8.03173
0.604831
0.969594
0.922543
0.786534
1.54478
1.20887
6.58528
0.486383
1.36058
0.520758
3.19751
1.64219
1.29861
1.38934
0.903637
1.14947
1.69226
1.12388
1.39737
0.401891
5.78218
8.70114
0.764388
0.0593482
-0.24692
3.62706
0.151346
6.23994
3.04718
8.34476
1.88929
1.84562
3.60791
1.58338
1.76705
1.64056
1.28903
0.797568
0.504775
1.13011
4.73074
-0.460646
-0.762878
1.11219
5.69548
5.92685
3.17668
9.88974
4.50324
0.291196
2.75474
3.96589
-0.0817356
2.78841
0.561601
0.352453
2.08599
-0.0548249
1.95418
-0.0936806
0.816711
-0.722454
3.89995
5.50681
0.678137
0.847271
4.1421
0.685127
0.66105
-0.354049
5.25285
0.831605
0.994413
1.28562
1.16885
1.40395
1.51479
1.49661
1.11823
1.12101
1.2477
1.19598
1.19773
1.1526
1.33166
2.19954
0.647904
3.96284
1.38032
1.05129
1.02142
0.548692
3.47247
1.01868
1.44159
1.25057
1.40669
0.710852
0.932229
1.12386
1.07617
0.968402
0.774881
0.887892
0.920388
3.99899
0.595034
0.477249
0.639467
1.94311
0.806808
0.214297
1.39879
0.0712407
1.18731
1.11296
1.08977
0.356304
0.964468
0.779941
1.24234
0.709905
0.787388
-1.21282
0.185289
-0.81723
-0.969107
4.70254
1.08121
-0.0227081
0.677833
0.196448
2.9413
0.984657
2.319
0.548955
-0.83762
7.67795
0.711496
8.46443
2.08279
-0.903583
-0.68863
-0.27129
-0.544556
4.41883
1.37838
0.447686
3.52822
1.48404
0.698438
1.75142
1.76549
1.07038
0.733944
1.02939
1.7633
1.9487
1.63983
1.91762
0.732644
1.95266
1.84696
0.687202
1.04914
0.831945
0.980554
1.31656
0.98193
1.25062
1.39088
1.08584
1.88792
1.0259
0.684037
1.52678
1.36275
1.47334
1.4714
1.22808
1.52199
1.47575
1.65734
1.79854
1.0424
1.69066
1.37199
1.81682
1.67989
1.21423
1.3046
1.16608
1.22518
1.19488
1.16429
1.37538
1.30936
1.31041
1.84938
1.07056
1.50966
1.93921
2.49112
1.59457
1.85582
3.98095
6.07756
6.05917
-1.64479
1.3589
4.91944
2.05864
-0.954368
2.25441
-0.434313
3.14552
0.100375
0.288399
-0.960575
1.2493
0.182574
-0.282799
1.87188
3.5935
-1.03816
1.98424
3.58437
1.53199
0.208057
0.42542
0.260414
-0.0141244
0.463051
2.67081
0.071034
0.165503
0.120777
0.0926646
-0.194932
-0.772246
6.53744
6.15569
-0.553488
-1.19317
5.60391
3.90234
3.50834
0.389697
0.000249982
-0.731775
-0.0219454
2.13188
-0.836094
1.40336
0.742567
-0.0306676
0.0421706
1.60819
3.00699
-0.853146
0.105922
3.07688
3.91094
5.13394
6.10775
1.49628
7.41167
3.55397
2.04292
-0.183541
0.0776697
0.158208
4.64266
0.486821
0.82376
0.977922
-0.918203
-0.189548
-0.585132
0.32492
0.826806
6.27989
3.96741
0.238025
3.89692
1.98379
2.75503
2.10754
-1.16781
-0.0588318
0.581476
1.32408
0.443292
0.343271
0.848305
0.363627
-0.431336
1.71693
1.29471
0.832808
0.992405
-0.0692714
-0.246865
0.88877
1.00214
1.02718
5.04408
1.90667
0.785267
1.27447
5.70803
5.97789
3.51717
2.97195
1.20396
0.787205
-0.227456
3.65087
5.50684
4.48122
-0.271803
2.31858
7.01821
0.780587
-0.802118
2.04278
-0.480742
-0.38263
1.05815
-0.556967
3.91079
2.63911
3.97871
-0.221817
0.358572
0.969891
-0.265978
0.831393
0.358441
3.14115
-0.508403
1.042
1.1553
0.949185
1.09374
1.01745
0.300032
0.928621
1.00917
1.25003
8.22608
7.96775
1.04529
-0.0540269
0.046614
0.393326
0.0319789
-0.162515
1.50097
-0.402936
1.37412
1.18121
0.276489
0.0790404
0.157651
0.124691
-0.118769
1.34761
0.092505
0.511693
0.725842
0.595452
1.66916
0.305168
-0.493967
-0.442329
-0.0418142
0.682703
0.891542
0.682858
0.296238
0.00943074
0.0640959
0.442503
0.544236
1.30707
1.14117
1.24035
1.10896
1.0223
0.968096
1.15947
1.30368
1.12153
1.22099
1.19865
0.957003
0.891022
0.460588
0.960069
1.25834
1.10874
1.08467
1.94981
1.0534
1.58668
0.391882
1.09874
0.948934
1.42157
1.34086
0.416343
2.68766
1.33854
1.32035
1.41285
1.35876
1.4179
0.817967
1.32076
1.22329
SCALARS Redistribution_Potential double 1
LOOKUP_TABLE default
-6.00423e-08
-0.362364
-0.299766
-0.511702
-0.507214
-0.562067
-0.421124
0.168222
-0.589753
-0.658426
0.0138276
-0.322125
-0.231057
-0.457149
-0.361978
-0.482904
-0.218161
-0.127572
0.353595
0.365889
0.301332
-0.152667
-0.663446
-0.620081
-0.461279
-0.598973
-0.241397
-0.2814
-0.143231
-0.211039
-0.478016
-0.298693
-0.575224
-0.605539
-0.477961
-0.361173
-0.387045
-0.351519
-0.4652
-0.510202
-0.568626
-0.642698
-0.133143
-0.294576
-0.225717
-0.389564
-0.35086
-0.286485
-0.467806
-0.419872
-0.516723
-0.276521
-0.113833
-0.535668
-0.420584
-0.295835
-0.355367
-0.416178
-0.010874
0.247685
-0.26871
-0.167781
0.286121
0.0428803
0.0241009
0.868133
0.194568
0.317581
0.579094
0.200629
0.528235
0.26663
-0.0460578
-0.083197
-0.0074792
-0.177378
-0.234471
-0.543588
-0.489479
-0.62884
-0.598352
-0.66984
-0.650297
-0.673436
-0.546545
-0.602709
-0.389654
-0.468229
-0.565036
-0.542627
-0.488731
-0.227692
-0.297038
-0.177785
-0.185106
-0.235757
-0.231464
-0.250478
0.129261
-0.0670039
0.0917319
0.18227
-0.342743
-0.134752
-0.338399
-0.155383
-0.0577722
-0.397598
-0.274639
-0.485297
-0.386908
-0.55606
-0.539692
-0.539274
-0.49332
-0.639672
-0.591329
-0.613081
-0.473073
-0.538846
-0.559434
-0.426965
-0.455474
-0.42059
-0.404621
-0.337717
-0.364772
-0.324229
-0.428556
-0.48821
-0.316931
-0.364691
-0.446951
-0.402845
-0.389411
-0.513395
-0.533335
-0.465765
-0.498619
-0.596067
-0.556672
-0.550968
-0.572055
-0.629461
-0.602251
-0.595151
-0.654035
-0.615359
-0.65432
-0.645458
-0.32564
-0.39747
-0.368636
-0.340173
-0.292627
-0.252264
-0.445011
-0.378475
-0.216815
-0.656789
-0.618104
-0.561878
-0.0561708
-0.185358
-0.113415
-0.262952
-0.227229
-0.196106
-0.302131
-0.27064
-0.330616
-0.355329
-0.337673
-0.306612
-0.408533
-0.371026
-0.424093
-0.260223
-0.317196
-0.295409
-0.528012
-0.488925
-0.547396
-0.389482
-0.439422
-0.404788
-0.490999
-0.467405
-0.445022
-0.324128
-0.388542
-0.360743
-0.166855
-0.0491924
-0.323516
-0.254461
-0.171663
-0.210499
-0.247695
-0.551506
-0.508535
-0.447143
-0.482979
-0.509876
-0.445976
-0.38953
-0.336107
-0.358313
-0.386365
-0.288065
-0.328073
-0.258483
-0.447211
-0.385347
-0.415393
-0.346234
-0.385281
-0.309955
0.0417932
0.140213
-0.132424
-0.0568841
0.308764
0.133802
0.165645
-0.309392
-0.281937
-0.145647
-0.219884
-0.190312
-0.240587
-0.191757
0.222582
0.15729
0.108696
0.198992
0.172339
0.355052
-0.066496
0.0430461
-0.0685529
-0.103024
-0.0845151
0.0282213
0.269983
0.125064
0.556761
0.467308
0.28311
0.469913
0.505686
0.257277
0.324986
0.492341
0.415949
0.358878
0.426815
0.537708
0.0873809
0.249019
0.115286
0.489811
0.357491
0.274773
0.324932
0.385161
0.454364
0.744298
0.598576
0.779466
0.0181508
0.136296
0.0815937
-0.0864275
-0.160242
-0.0393888
0.0234536
-0.0995548
-0.0411349
-0.11855
0.0917597
0.134784
-0.258407
-0.275126
-0.203605
-0.233089
-0.191998
-0.2095
-0.159044
-0.0139297
-0.101488
-0.133031
-0.461903
-0.42834
-0.515025
-0.489004
-0.55889
-0.523213
-0.581489
-0.597895
-0.588492
-0.640615
-0.618661
-0.649193
-0.569813
-0.544568
-0.669654
-0.67357
-0.668208
-0.637138
-0.664065
-0.653917
-0.672849
-0.670999
-0.660361
-0.571341
-0.625158
-0.604647
-0.565918
-0.586632
-0.503171
-0.530366
-0.608356
-0.575767
-0.582121
-0.355098
-0.394518
-0.471894
-0.435955
-0.433665
-0.433247
-0.464549
-0.532406
-0.526951
-0.497577
-0.57101
-0.55336
-0.587649
-0.478884
-0.514617
-0.504689
-0.505806
-0.51503
-0.548898
-0.236543
-0.301695
-0.181288
-0.211701
-0.290302
-0.255832
-0.256071
-0.105096
-0.127047
-0.215981
-0.182733
-0.221012
-0.140917
-0.142503
-0.278716
-0.248446
-0.284549
-0.246262
-0.219492
-0.254318
-0.246544
-0.231686
-0.23245
-0.199243
-0.216926
-0.232449
0.101247
-0.0146668
0.263199
0.216839
-0.128815
0.0395763
-0.0560354
0.143141
0.205942
0.053096
0.143797
0.00280415
0.254648
0.281474
-0.392955
-0.331916
-0.400588
-0.167544
-0.253155
-0.279301
-0.255358
-0.235877
-0.130487
0.179045
0.0302807
0.00756926
-0.00989863
0.0532216
-0.136022
-0.078521
-0.176798
-0.11512
-0.21671
-0.368579
-0.317472
-0.375488
-0.341238
-0.430494
-0.258963
-0.194778
-0.556782
-0.523164
-0.581968
-0.338174
-0.445376
-0.403155
-0.526684
-0.487082
-0.43462
-0.205055
-0.325632
-0.257085
-0.522648
-0.521534
-0.502033
-0.557674
-0.538448
-0.559482
-0.484975
-0.514655
-0.510686
-0.651487
-0.629062
-0.635198
-0.600267
-0.614737
-0.626169
-0.589546
-0.604181
-0.574918
-0.489284
-0.517387
-0.527975
-0.50804
-0.51228
-0.469742
-0.585799
-0.550284
-0.577271
-0.561105
-0.569569
-0.53641
-0.472197
-0.481509
-0.451557
-0.460398
-0.420715
-0.438243
-0.405084
-0.454247
-0.427728
-0.389895
-0.409905
-0.386446
-0.405908
-0.436509
-0.315911
-0.328443
-0.303999
-0.370935
-0.348955
-0.361417
-0.341558
-0.344046
-0.362498
-0.413675
-0.385348
-0.39094
-0.471611
-0.499181
-0.403378
-0.439019
-0.478059
-0.462499
-0.451172
-0.308347
-0.328247
-0.360678
-0.343785
-0.337012
-0.351511
-0.373351
-0.436027
-0.4182
-0.41123
-0.43648
-0.426202
-0.448199
-0.369132
-0.389068
-0.376676
-0.393369
-0.382754
-0.417882
-0.50957
-0.525842
-0.493221
-0.502137
-0.55076
-0.508514
-0.542215
-0.442984
-0.463269
-0.511803
-0.489703
-0.488962
-0.474368
-0.478911
-0.601369
-0.582656
-0.577057
-0.566699
-0.578
-0.583651
-0.534162
-0.561813
-0.539273
-0.510724
-0.528662
-0.538122
-0.53852
-0.570073
-0.555591
-0.558554
-0.572708
-0.614423
-0.616589
-0.622049
-0.62351
-0.638864
-0.604376
-0.585295
-0.633828
-0.656866
-0.589597
-0.597498
-0.648265
-0.622554
-0.622639
-0.586472
-0.596805
-0.586895
-0.565478
-0.611515
-0.590759
-0.59407
-0.613319
-0.659187
-0.667063
-0.666714
-0.648878
-0.626198
-0.620574
-0.62559
-0.63073
-0.644872
-0.658966
-0.634255
-0.653375
-0.633271
-0.292977
-0.339016
-0.323047
-0.292435
-0.300645
-0.449809
-0.434041
-0.439064
-0.409122
-0.3618
-0.339906
-0.322541
-0.336961
-0.383592
-0.414463
-0.350655
-0.386954
-0.340173
-0.380735
-0.348146
-0.366332
-0.344283
-0.300336
-0.286726
-0.267148
-0.265696
-0.297708
-0.322999
-0.143138
-0.240107
-0.188816
-0.213969
-0.248374
-0.31723
-0.285341
-0.299809
-0.527113
-0.485272
-0.506209
-0.467647
-0.383596
-0.412221
-0.281565
-0.350743
-0.434575
-0.456436
0.0138412
-0.252073
-0.126728
-0.0466169
-0.172211
-0.409898
-0.313378
-0.34717
-0.667701
-0.654705
-0.662835
-0.664969
-0.642809
-0.608545
-0.561111
-0.589949
-0.629234
-0.643501
-0.448515
-0.59424
-0.526246
-0.481436
-0.519416
-0.641555
-0.594872
-0.623669
SCALARS CoVolArea double 1
LOOKUP_TABLE default
0.0312803
0.0126504
0.0312438
0.0368503
0.0208854
0.0238617
0.0169878
0.0136315
0.0155167
0.0226915
0.0306748
0.0402348
0.0431439
0.0282991
0.0290004
0.0334832
0.025152
0.0249107
0.0254882
0.0282749
0.0453798
0.050298
0.0279671
0.0255371
0.0460215
0.0361659
0.0436289
0.0583173
0.0393988
0.0531858
0.031494
0.0368522
0.0432473
0.0386761
0.0541796
0.0539194
0.0651171
0.0432848
0.0419355
0.0333349
0.031883
0.0267098
0.0446346
0.0364423
0.0425092
0.0363648
0.0421402
0.0473242
0.0299753
0.0264712
0.0261128
0.0287089
0.036565
0.0382086
0.0330619
0.0195037
0.0225944
0.0251588
0.0397532
0.027756
0.017856
0.0296289
0.0222462
0.0359141
0.0316568
0.0321521
0.0375014
0.0161986
0.0275054
0.042823
0.0420848
0.0347828
0.0503204
0.0459299
0.050815
0.0536969
0.0449543
0.0301735
0.0292505
0.0340023
0.0332604
0.0262843
0.0274877
0.0269675
0.0280659
0.0343131
0.040678
0.0307255
0.0392803
0.0432607
0.0397882
0.0574599
0.046373
0.0436039
0.050059
0.0550664
0.0559445
0.0421829
0.028973
0.0432658
0.0174923
0.0194454
0.0418088
0.0430542
0.0382763
0.0248352
0.0281642
0.0208436
0.0217204
0.0341954
0.0350521
0.0282339
0.0607843
0.0521082
0.0576737
0.0314021
0.042081
0.0289145
0.0476376
0.0507144
0.0414152
0.0660606
0.0514889
0.0388498
0.061627
0.057434
0.06216
0.0549192
0.0560917
0.0463366
0.0418991
0.055662
0.0405017
0.045657
0.0343885
0.043517
0.0425092
0.0308562
0.0374813
0.0306236
0.0356875
0.0328272
0.0434224
0.0251476
0.027288
0.0272268
0.0276892
0.0331386
0.0328457
0.032657
0.0519506
0.0418193
0.0516466
0.0392997
0.0386144
0.0480364
0.0397937
0.0371389
0.047665
0.0265552
0.0294667
0.0307865
0.039788
0.0411101
0.0411106
0.0421565
0.036916
0.0420603
0.0350645
0.0353481
0.0333359
0.0443366
0.0439586
0.0474735
0.0340231
0.038175
0.0301761
0.0447902
0.0438863
0.0457866
0.0259978
0.0258391
0.0252234
0.0276584
0.0244875
0.0272657
0.0236613
0.0221873
0.0264452
0.0441311
0.0358369
0.0361646
0.0404209
0.0379816
0.0328449
0.035946
0.0333647
0.0320875
0.0241434
0.0342369
0.0322138
0.0306494
0.0344918
0.0358815
0.0330262
0.0318342
0.0170302
0.0201176
0.0210385
0.0205926
0.0177785
0.0182112
0.0265048
0.0193826
0.0259458
0.0334181
0.0293184
0.0266224
0.0360851
0.0356642
0.0399394
0.0401978
0.024582
0.0313007
0.0299358
0.0135922
0.0177935
0.0275457
0.0226959
0.0222427
0.0212535
0.0282376
0.0166648
0.0262551
0.0235055
0.0281378
0.0262533
0.0240465
0.0299481
0.0318197
0.0346122
0.0433737
0.0428098
0.041133
0.0333068
0.034078
0.028461
0.0303898
0.0440019
0.0412783
0.0457275
0.0144947
0.0171659
0.030839
0.0198488
0.0201271
0.0220623
0.0249611
0.0398139
0.0402526
0.035729
0.0441575
0.0378002
0.0387269
0.0284435
0.0348564
0.0388851
0.028895
0.0420971
0.0375961
0.0413022
0.0494764
0.0433057
0.0451135
0.0468926
0.04379
0.0462359
0.0508262
0.0462814
0.0461731
0.0439368
0.0477133
0.0460813
0.0439594
0.0505918
0.0480607
0.0475053
0.0479332
0.0513387
0.0584726
0.0582688
0.0593153
0.0297331
0.0221407
0.0345998
0.0300634
0.0293789
0.0299491
0.0279323
0.0390044
0.0394135
0.0300952
0.0327762
0.0276055
0.0372295
0.0360853
0.0272291
0.0275636
0.0279102
0.0246901
0.0239912
0.0215406
0.0260925
0.0255681
0.0294936
0.0340238
0.0322089
0.0298214
0.0301395
0.0334926
0.0263821
0.0253349
0.0343723
0.0299901
0.0366275
0.0400344
0.0366797
0.0411424
0.0345493
0.04362
0.0296337
0.0283063
0.0305425
0.0398001
0.0330136
0.0394996
0.0426769
0.035331
0.0427192
0.043094
0.0464443
0.030977
0.0394948
0.0373316
0.0448015
0.0409944
0.0524501
0.0495135
0.0571576
0.0529245
0.0606626
0.0466229
0.0460544
0.047937
0.0444405
0.0418206
0.0459019
0.0505409
0.0511781
0.0527788
0.0477702
0.0592671
0.0512205
0.0522508
0.0407357
0.0457619
0.0510411
0.0593994
0.0579644
0.0638651
0.0367493
0.0414274
0.0263886
0.0284823
0.0477453
0.0360188
0.0442046
0.0170273
0.0147699
0.0268168
0.0156529
0.026698
0.0160687
0.0217059
0.0282662
0.0382351
0.0295716
0.0501299
0.0455165
0.0487163
0.0404089
0.0424178
0.0407641
0.026222
0.0324566
0.0372155
0.0278602
0.0224176
0.0247183
0.0266631
0.0324889
0.0274781
0.0292851
0.0186743
0.0157193
0.0252084
0.0176888
0.0241232
0.0198306
0.0225882
0.0263697
0.0318347
0.0258364
0.0339551
0.0342925
0.0346818
0.0294162
0.031593
0.0336779
0.0257792
0.0302583
0.030679
0.0476118
0.0566833
0.0472427
0.0517893
0.0550448
0.0584595
0.0577746
0.0536448
0.0545434
0.0307795
0.0320329
0.0298206
0.0404661
0.0338586
0.0346065
0.0282124
0.0327099
0.0416207
0.0351737
0.041928
0.0323485
0.050613
0.0457944
0.0515494
0.0387946
0.0438055
0.0451604
0.054714
0.0539087
0.0578306
0.0533798
0.045241
0.0612725
0.0595674
0.0606328
0.059804
0.0694967
0.0334531
0.0413913
0.0627189
0.0512928
0.0472891
0.0521544
0.0572305
0.0493226
0.0614057
0.0486792
0.065201
0.0574159
0.0548762
0.0538905
0.0564383
0.0602121
0.0685571
0.068723
0.0725099
0.0503506
0.0500466
0.0616066
0.0556186
0.0450284
0.0510629
0.0512248
0.0419301
0.0484261
0.0537225
0.0469011
0.0430197
0.0502288
0.0582951
0.0298506
0.0376532
0.0283098
0.0455728
0.0408754
0.0395411
0.0350348
0.0355497
0.0455744
0.0617481
0.0594032
0.0557597
0.0447467
0.0439158
0.0432863
0.0432403
0.0394391
0.0413178
0.0380914
0.0268926
0.03201
0.0322083
0.0304706
0.0294593
0.037263
0.0396213
0.0286109
0.0337568
0.0289085
0.0329353
0.0286616
0.0252927
0.0300384
0.0292217
0.0339904
0.0469265
0.0418838
0.044736
0.0509084
0.0378485
0.0474931
0.0579317
0.0468155
0.0237675
0.0274851
0.0240824
0.0247165
0.0249723
0.0270337
0.0304357
0.0273918
0.026666
0.0306113
0.0258521
0.0283515
0.0273474
0.025873
0.0354093
0.0299485
0.0358047
0.0356611
0.0353321
0.0341554
0.0341916
0.0330864
0.0304473
0.0302031
0.027512
0.0305818
0.0365239
0.0377166
0.0341036
0.0339407
0.0313636
0.030188
0.0367196
0.0353467
0.0348558
0.0530414
0.060335
0.0565493
0.0492214
0.0494978
0.0382141
0.0432602
0.0385676
0.0403845
0.0462203
0.0410489
0.0562968
0.0510778
0.0471099
0.0468618
0.0499606
0.0510876
0.0517383
0.0344065
0.0383259
0.0328935
0.0393061
0.0478154
0.042222
0.0409995
0.0382222
0.0399448
0.0389513
0.0476951
0.0537419
0.0475886
0.0442838
0.0431018
0.04231
0.0451579
0.0504662
0.0336507
0.0364074
0.0320255
0.0343058
0.0431929
0.033441
0.0413577
0.035173
0.0327599
0.0344525
0.0241339
0.044613
0.0357347
0.0340304
0.0442722
0.042298
0.0470416
0.0488594
0.0270958
0.0282409
0.0262394
0.0241397
0.0251926
0.0272153
0.0313492
0.0267333
0.0269215
0.0284564
0.0269428
0.0283308
0.0303116
0.0290722
0.0315229
0.030474
0.0325574
0.0297806
SCALARS SignedDistance double 1
LOOKUP_TABLE default
1.15844
1.33995
-0.0105575
0.080237
0.139863
1.45014
1.09225
1.55996
0.887358
0.280161
1.39986
0.0731424
-0.0132575
1.11395
1.27196
1.51128
0.606392
0.242181
1.23556
1.16351
0.0152591
0.0379893
1.13143
1.13117
1.10188
1.2094
0.108798
0.0632197
1.60605
1.33353
1.30883
1.54566
0.00884694
0.0933257
0.0144062
0.160304
0.0399651
0.156788
0.0161377
1.12861
0.448008
0.114035
1.10936
0.217955
1.14522
0.0446669
0.0202964
0.0522028
1.40636
1.17325
1.34627
1.20326
0.449577
1.43384
1.44924
1.18489
1.28717
1.40357
1.13335
1.23491
1.19871
0.192321
1.40267
1.25154
1.35011
-0.856759
0.382221
1.32843
0.323417
0.909011
0.126144
1.21694
0.0603936
1.14608
1.08774
0.0138185
0.00662194
1.31244
1.38943
1.23173
1.22247
0.271018
1.09589
0.41127
1.36501
1.3404
1.11828
1.15878
0.682875
1.26479
1.15814
0.0666372
0.0695535
1.0957
0.0738038
1.14306
0.0170634
1.10294
1.53104
1.39377
1.66389
1.53042
1.14278
1.52771
1.22408
1.37213
1.54732
1.47252
1.38534
1.28092
1.42564
1.1655
0.0131913
0.0893926
0.0124271
0.113469
0.054715
0.0873614
0.0169305
0.0895998
0.13729
0.078302
0.016575
0.882925
0.00723827
0.0965926
0.0251526
0.0338913
0.00664173
0.0576907
0.0728288
0.0135018
0.0764216
0.115418
0.763831
0.310058
-0.00857213
0.929567
0.796562
0.306559
0.291727
1.10617
-0.0081374
0.212282
0.591678
1.08895
0.0573564
0.192481
0.459902
1.19776
0.553439
1.18185
0.150335
1.2054
1.18968
1.12837
1.31285
1.27016
1.60736
1.04389
0.991543
1.19969
1.13142
1.10712
1.08324
0.0493195
0.964788
0.0901201
1.23012
1.11163
1.09876
0.0647838
-0.0227468
0.0680089
0.978084
0.052317
0.67341
0.0261956
-0.0109
0.062778
1.47223
1.35837
1.43707
1.18595
1.27835
1.30969
1.25596