<VTKFile type="ImageData" version="1.0" byte_order="LittleEndian" header_type="UInt64">
	<ImageData WholeExtent="0 44 0 44 0 44" Origin="-0.264102 -0.00872117 -0.198699" Spacing="0.0104773 0.0104773 0.0104773">
		<Piece Extent="0 44 0 44 0 44">
			<PointData Scalars="Scalars_">
				<DataArray type="Float32" Name="Scalars_" format="ascii" RangeMin="0" RangeMax="100">
0.248188
0.241802
0.235527
0.229354
0.223273
0.217289
0.211411
0.205663
0.200079
0.194702
0.189581
0.184764
0.180299
0.176228
0.172592
0.169427
0.166766
0.164637
0.163072
0.162111
0.162847
0.164027
0.165518
0.167269
0.169185
0.171087
0.172835
0.174519
0.1763
0.178312
0.180646
0.183346
0.186427
0.189884
0.193701
0.19786
0.202331
0.207087
0.212091
0.217306
0.222694
0.228216
0.233839
0.239542
0.245312
0.24451
0.238035
0.231669
0.225401
0.219224
0.213139
0.207158
0.201301
0.195607
0.190118
0.184884
0.179955
0.17538
0.171204
0.167469
0.164214
0.161476
0.159286
0.157676
0.156691
0.157442
0.158643
0.160156
0.161919
0.163821
0.165687
0.167408
0.169096
0.170899
0.172941
0.175311
0.178054
0.181181
0.184687
0.188557
0.192769
0.197297
0.202109
0.20717
0.212442
0.217885
0.22346
0.229136
0.234892
0.240714
0.241218
0.234662
0.228211
0.221856
0.215589
0.20941
0.20333
0.197373
0.191574
0.185979
0.180638
0.175601
0.17092
0.166643
0.162812
0.159471
0.156657
0.154406
0.152753
0.151746
0.152509
0.153732
0.15526
0.157014
0.15887
0.160668
0.162346
0.164034
0.165853
0.167921
0.170322
0.1731
0.176267
0.179816
0.183732
0.187991
0.192567
0.19743
0.202544
0.207867
0.213362
0.218989
0.224717
0.230523
0.236399
0.238337
0.231707
0.22518
0.218746
0.212396
0.206131
0.199962
0.193912
0.188017
0.182323
0.176882
0.171745
0.166966
0.162593
0.158672
0.155248
0.152361
0.150052
0.148358
0.147329
0.148104
0.149346
0.150877
0.152583
0.154344
0.156033
0.157654
0.159337
0.161171
0.163259
0.165687
0.168496
0.171695
0.17528
0.179233
0.183533
0.188153
0.193062
0.198222
0.203594
0.209138
0.214816
0.220595
0.226453
0.232382
0.235893
0.229198
0.222603
0.216099
0.209677
0.203336
0.197087
0.190954
0.184974
0.179193
0.173662
0.168434
0.163565
0.159104
0.155101
0.1516
0.148647
0.146284
0.144552
0.143503
0.14429
0.145547
0.147055
0.14864
0.150228
0.151765
0.153322
0.155003
0.15685
0.158958
0.161409
0.164243
0.16747
0.171084
0.175068
0.179404
0.184062
0.18901
0.194215
0.199634
0.205227
0.210954
0.216785
0.222698
0.22868
0.233912
0.227163
0.220513
0.213949
0.207466
0.201061
0.194746
0.188543
0.18249
0.176634
0.171025
0.16572
0.160774
0.156237
0.152162
0.148594
0.145583
0.143171
0.141406
0.14034
0.141135
0.142401
0.14382
0.145146
0.146463
0.147821
0.149326
0.151012
0.152877
0.155006
0.15748
0.160338
0.163591
0.167229
0.171242
0.175607
0.180299
0.185287
0.190535
0.196
0.201642
0.20742
0.213303
0.219268
0.225306
0.23243
0.225641
0.218947
0.212339
0.205808
0.199354
0.192986
0.186729
0.180619
0.174703
0.169034
0.163668
0.15866
0.154063
0.149929
0.146308
0.143249
0.140798
0.139005
0.137926
0.138728
0.139977
0.141127
0.141955
0.142939
0.144141
0.145626
0.147334
0.149228
0.151387
0.153892
0.156778
0.160054
0.163719
0.167757
0.172153
0.176879
0.181906
0.187196
0.192708
0.198399
0.204229
0.210167
0.216186
0.222279
0.231486
0.224687
0.217966
0.211329
0.204768
0.198281
0.19188
0.185587
0.17944
0.173486
0.167777
0.162371
0.157322
0.152685
0.148513
0.144856
0.141764
0.139287
0.137475
0.136387
0.137194
0.138295
0.138664
0.138801
0.139545
0.14068
0.142189
0.143945
0.145886
0.148091
0.150637
0.153558
0.156865
0.160558
0.164627
0.169055
0.173818
0.178885
0.184217
0.189776
0.195518
0.201401
0.207392
0.213466
0.219612
0.23092
0.224715
0.218445
0.212046
0.205529
0.199066
0.192685
0.186412
0.180284
0.174344
0.168648
0.16325
0.158208
0.153575
0.149404
0.145745
0.14265
0.140168
0.138353
0.137264
0.13755
0.136758
0.135768
0.135579
0.136289
0.137452
0.13902
0.140844
0.142854
0.145124
0.147725
0.150692
0.154039
0.157768
0.161872
0.166335
0.171136
0.176243
0.181619
0.187224
0.193015
0.198949
0.204993
0.211121
0.217321
0.228053
0.222306
0.216731
0.211261
0.205771
0.200068
0.193995
0.187771
0.181671
0.175759
0.170088
0.164714
0.159691
0.155072
0.150911
0.147254
0.144148
0.141622
0.139616
0.137643
0.135571
0.1337
0.13247
0.132517
0.1333
0.134531
0.136168
0.138072
0.140168
0.142518
0.145188
0.148211
0.151604
0.155375
0.159517
0.164017
0.168855
0.174
0.179416
0.185063
0.190899
0.196883
0.202979
0.209161
0.215415
0.224596
0.218879
0.213412
0.208195
0.203215
0.198425
0.193701
0.188803
0.183421
0.177677
0.172059
0.166715
0.161712
0.157092
0.152883
0.149056
0.145442
0.141777
0.138251
0.135099
0.132487
0.130525
0.129307
0.129767
0.130681
0.131988
0.133683
0.135669
0.137864
0.14031
0.143057
0.146141
0.149584
0.153396
0.157575
0.162109
0.166979
0.172154
0.177603
0.183287
0.189164
0.195195
0.201343
0.20758
0.213889
0.221365
0.215605
0.210105
0.204876
0.199926
0.19526
0.190865
0.186693
0.182633
0.178468
0.173929
0.168896
0.163702
0.158529
0.153355
0.148315
0.143567
0.139236
0.135407
0.132149
0.12952
0.127578
0.126394
0.127277
0.12842
0.129824
0.13156
0.133614
0.135917
0.138471
0.141305
0.144453
0.147946
0.151796
0.156007
0.160568
0.165461
0.170659
0.176133
0.181847
0.187764
0.193844
0.20005
0.206351
0.212724
0.21849
0.212689
0.207147
0.201879
0.196895
0.192205
0.187804
0.183667
0.179719
0.175805
0.171668
0.167054
0.161919
0.156477
0.151026
0.145802
0.140953
0.136569
0.132715
0.129448
0.126828
0.12491
0.123762
0.124972
0.126441
0.128017
0.129792
0.131875
0.134252
0.136892
0.139797
0.143002
0.14654
0.150429
0.154673
0.159261
0.164177
0.169399
0.174899
0.180647
0.186609
0.192751
0.199032
0.205419
0.211882
0.215997
0.210162
0.204588
0.199288
0.194277
0.189561
0.185141
0.180995
0.17706
0.173196
0.169155
0.164666
0.159632
0.154237
0.148788
0.143541
0.138663
0.134252
0.130379
0.127104
0.124489
0.122595
0.121487
0.122869
0.12467
0.12654
0.128409
0.130478
0.132832
0.135472
0.138407
0.141659
0.14525
0.149192
0.153483
0.158113
0.163065
0.168317
0.173849
0.179635
0.185647
0.191857
0.198233
0.20474
0.211347
0.213896
0.208038
0.202443
0.197125
0.192097
0.187367
0.182937
0.178789
0.174866
0.171042
0.167085
0.162708
0.157775
0.152436
0.146997
0.141738
0.136839
0.132408
0.128521
0.125244
0.122643
0.120786
0.119744
0.12118
0.123194
0.125321
0.127312
0.129343
0.131639
0.134282
0.137278
0.140615
0.14429
0.148297
0.152635
0.157295
0.162265
0.16753
0.173073
0.178873
0.184909
0.191158
0.197592
0.204183
0.210903
0.212194
0.206326
0.200722
0.195398
0.190368
0.185639
0.181211
0.177072
0.17317
0.169389
0.16551
0.161243
0.156422
0.151156
0.14575
0.140498
0.135597
0.131167
0.127287
0.124029
0.121467
0.119683
0.118781
0.120102
0.122124
0.124308
0.126341
0.128341
0.130614
0.133293
0.136381
0.139841
0.143637
0.147744
0.152151
0.156852
0.16184
0.16711
0.17265
0.178446
0.184484
0.190745
0.197207
0.203848
0.21064
0.210889
0.20502
0.199421
0.194104
0.189086
0.184373
0.179968
0.175858
0.171994
0.168271
0.164479
0.16033
0.15563
0.150462
0.145119
0.139909
0.135044
0.130652
0.126815
0.123603
0.121085
0.11933
0.118415
0.119414
0.121278
0.123489
0.125732
0.128004
0.130494
0.133324
0.136516
0.140053
0.143909
0.148065
0.152507
0.157226
0.162215
0.167465
0.172969
0.178715
0.184692
0.190885
0.197285
0.203875
0.210642
0.209925
0.204052
0.198451
0.193139
0.188131
0.183439
0.17907
0.175016
0.171246
0.167667
0.16409
0.16021
0.155782
0.150827
0.145599
0.140433
0.135581
0.131187
0.127337
0.124102
0.121545
0.119729
0.118714
0.119503
0.12126
0.123424
0.125734
0.128165
0.130813
0.133753
0.137012
0.140588
0.144468
0.148632
0.153067
0.157759
0.162698
0.167877
0.173291
0.178936
0.184807
0.1909
0.197211
0.203732
0.210455
0.208816
0.202824
0.197098
0.19166
0.186532
0.181738
0.177299
0.173233
0.169544
0.166212
0.163144
0.160071
0.156442
0.151809
0.146724
0.141631
0.136823
0.132459
0.128628
0.125399
0.122831
0.120979
0.119893
0.120613
0.122251
0.124304
0.126553
0.128998
0.131697
0.134689
0.137984
0.141579
0.145462
0.149618
0.154031
0.158691
0.163589
0.168721
0.174087
0.179687
0.185517
0.191576
0.197855
0.204351
0.211052
0.206058
0.199745
0.193699
0.18795
0.182527
0.177465
0.172795
0.168553
0.164775
0.161495
0.158739
0.156505
0.15467
0.152633
0.148411
0.143444
0.138708
0.134398
0.130604
0.127397
0.124832
0.122961
0.121833
0.122474
0.123975
0.125892
0.128058
0.130479
0.133181
0.136181
0.139481
0.143072
0.146941
0.151073
0.155455
0.160076
0.164932
0.170021
0.175344
0.180901
0.186691
0.192712
0.198956
0.205418
0.212086
0.2012
0.194586
0.188251
0.182225
0.176539
0.17123
0.166336
0.161898
0.157959
0.154568
0.15178
0.149658
0.148299
0.148597
0.148623
0.145818
0.141194
0.136959
0.133221
0.130051
0.127504
0.125632
0.124488
0.125035
0.1264
0.128182
0.130256
0.132627
0.135301
0.138278
0.141551
0.145109
0.148937
0.153022
0.157353
0.161921
0.166725
0.171763
0.177036
0.182545
0.18829
0.194266
0.200468
0.206888
0.213518
0.195546
0.188712
0.182157
0.175913
0.170012
0.164491
0.159391
0.154755
0.150635
0.147084
0.144164
0.141948
0.140542
0.140999
0.142499
0.144448
0.144029
0.140089
0.136429
0.133313
0.130801
0.128944
0.127799
0.12824
0.129477
0.131132
0.133112
0.135418
0.138042
0.140971
0.14419
0.147686
0.151445
0.155455
0.15971
0.164205
0.168938
0.173911
0.179124
0.184577
0.190268
0.196194
0.202348
0.208722
0.215306
0.189939
0.182911
0.176158
0.169711
0.163603
0.157874
0.152567
0.14773
0.143417
0.139687
0.136609
0.134265
0.132774
0.133137
0.134742
0.137191
0.140294
0.14277
0.140168
0.137124
0.134662
0.132835
0.131702
0.132028
0.133149
0.134688
0.136575
0.138805
0.14136
0.144219
0.14736
0.150767
0.15443
0.158341
0.162496
0.166896
0.171541
0.176433
0.181573
0.18696
0.192589
0.198457
0.204556
0.210877
0.217412
0.18461
0.177397
0.170451
0.163802
0.157488
0.151549
0.14603
0.140984
0.136468
0.132548
0.129299
0.126814
0.125224
0.125434
0.127099
0.129663
0.132993
0.13698
0.141182
0.141421
0.139025
0.137241
0.136131
0.136339
0.137356
0.138787
0.14058
0.142726
0.145198
0.147968
0.15101
0.154307
0.157852
0.161642
0.16568
0.169968
0.17451
0.179309
0.184364
0.189674
0.195233
0.201036
0.207074
0.213337
0.219817
0.179619
0.172227
0.165091
0.158245
0.151725
0.145573
0.139839
0.134576
0.129849
0.125729
0.122298
0.119659
0.117958
0.117977
0.119704
0.122379
0.125852
0.130024
0.134803
0.139999
0.143489
0.142098
0.141019
0.141113
0.142037
0.143368
0.145065
0.147117
0.149493
0.152157
0.155083
0.158254
0.161666
0.165323
0.169232
0.173398
0.177829
0.182525
0.187487
0.192712
0.198193
0.203924
0.209895
0.216094
0.222512
0.174988
0.167427
0.160111
0.153073
0.146349
0.139987
0.134034
0.128551
0.123605
0.119275
0.115651
0.112846
0.111018
0.110815
0.112615
0.115405
0.119025
0.123364
0.128329
0.133843
0.139795
0.14528
0.146269
0.146293
0.147135
0.148368
0.149966
0.151915
0.154181
0.156727
0.159524
0.16256
0.165833
0.169352
0.173128
0.17717
0.181485
0.186075
0.190939
0.196074
0.201472
0.207124
0.213021
0.219151
0.225502
0.170731
0.163016
0.155531
0.148311
0.141394
0.134824
0.128657
0.122952
0.117784
0.113236
0.109408
0.106422
0.104448
0.104002
0.105882
0.108794
0.112565
0.117073
0.12222
0.127922
0.134108
0.1407
0.147322
0.151186
0.152545
0.153726
0.15522
0.157056
0.159202
0.161621
0.164285
0.167183
0.170318
0.173701
0.177347
0.181267
0.185468
0.189952
0.194717
0.199759
0.205069
0.210638
0.216456
0.222511
0.22879
0.166849
0.159001
0.151369
0.143985
0.136888
0.130124
0.123749
0.117827
0.112436
0.107666
0.103625
0.100446
0.0983032
0.0976038
0.099568
0.102605
0.106528
0.111205
0.11653
0.122415
0.128785
0.135574
0.142705
0.149957
0.156181
0.159068
0.160736
0.162483
0.164506
0.166793
0.169323
0.172087
0.175091
0.178347
0.181871
0.185676
0.189767
0.194147
0.198814
0.203762
0.208982
0.214465
0.2202
0.226174
0.232375
0.163329
0.155379
0.147628
0.140107
0.132855
0.125918
0.119352
0.113225
0.107618
0.102627
0.0983695
0.0949845
0.0926536
0.0916996
0.0937475
0.0969072
0.100977
0.105817
0.111314
0.117374
0.123918
0.130879
0.138177
0.145634
0.152849
0.159248
0.164535
0.167686
0.169946
0.172182
0.174601
0.177244
0.180128
0.18327
0.186683
0.190381
0.19437
0.198651
0.203222
0.208076
0.213206
0.218601
0.22425
0.23014
0.23626
0.160143
0.152126
0.144295
0.136677
0.129308
0.122232
0.115505
0.109196
0.10339
0.0981898
0.0937171
0.0901214
0.0875877
0.0863865
0.0885108
0.0917824
0.0959881
0.100978
0.106633
0.112855
0.119561
0.126679
0.134126
0.141693
0.14892
0.155211
0.160379
0.164902
0.169361
0.174067
0.178599
0.182121
0.185248
0.1884
0.19175
0.195364
0.199262
0.20345
0.207929
0.212693
0.217732
0.223037
0.228598
0.234402
0.240437
0.157247
0.149202
0.141336
0.13367
0.126236
0.119073
0.112234
0.105785
0.0998151
0.094429
0.0897568
0.0859556
0.0832161
0.0817822
0.0839655
0.0873277
0.0916469
0.0967653
0.102558
0.108922
0.115771
0.123031
0.130609
0.138261
0.145469
0.151621
0.156643
0.161109
0.165593
0.170369
0.175525
0.181065
0.186935
0.192172
0.196463
0.200389
0.204345
0.2085
0.212909
0.217591
0.222544
0.227762
0.233235
0.238951
0.244899
0.154607
0.146561
0.138699
0.131038
0.123602
0.116422
0.109542
0.103024
0.0969494
0.0914267
0.0865907
0.0826069
0.0796743
0.078032
0.0802402
0.083656
0.0880535
0.0932692
0.0991713
0.105652
0.112621
0.12
0.127688
0.135397
0.142546
0.148527
0.153394
0.157806
0.162312
0.167152
0.172386
0.178015
0.184014
0.190351
0.196974
0.203276
0.208609
0.213364
0.217976
0.222688
0.227602
0.23275
0.238142
0.243772
0.249633
0.15223
0.144187
0.136346
0.128723
0.12134
0.114218
0.107392
0.100907
0.0948309
0.0892625
0.0843353
0.0802213
0.077131
0.0753152
0.0774878
0.0809001
0.0853273
0.0905986
0.0965748
0.10314
0.110201
0.117672
0.125444
0.133177
0.140219
0.145987
0.150683
0.155036
0.159561
0.164454
0.169758
0.175462
0.181537
0.187954
0.194679
0.201684
0.208912
0.215846
0.221936
0.227409
0.232635
0.237874
0.243255
0.248831
0.254617
0.150173
0.142119
0.134286
0.126698
0.11938
0.112359
0.105667
0.0993381
0.0934201
0.0879788
0.0831154
0.0789826
0.0758034
0.0738604
0.0758918
0.0792231
0.0836229
0.0889046
0.0949151
0.10153
0.108647
0.116179
0.123999
0.131712
0.138582
0.144074
0.148567
0.152847
0.157378
0.162311
0.167671
0.173436
0.179576
0.186054
0.192843
0.19991
0.20723
0.214776
0.222477
0.229826
0.236458
0.242502
0.248259
0.253969
0.25977
0.148529
0.140441
0.132586
0.124995
0.117698
0.110735
0.104147
0.0979842
0.0923055
0.0871837
0.0827146
0.0790322
0.076327
0.0748562
0.0766587
0.0798076
0.0840631
0.0892292
0.0951461
0.101684
0.108738
0.116214
0.123954
0.131449
0.13789
0.142908
0.147111
0.151287
0.155804
0.160762
0.16616
0.17197
0.178155
0.18468
0.191514
0.198626
0.205989
0.21358
0.221377
0.229354
0.237382
0.245029
0.252057
0.258554
0.264752
0.147445
0.139319
0.131428
0.123805
0.116483
0.109505
0.102918
0.0967762
0.0911434
0.0860958
0.0817265
0.0781561
0.0755498
0.0741514
0.0766012
0.080251
0.0848403
0.0902148
0.0962541
0.102857
0.109939
0.117411
0.125085
0.132279
0.138083
0.142461
0.146331
0.15039
0.154882
0.159847
0.165264
0.171098
0.177309
0.183862
0.190722
0.19786
0.205249
0.212865
0.220687
0.228694
0.236869
0.245173
0.253415
0.261282
0.2686
0.148599
0.1405
0.132633
0.125028
0.117719
0.110745
0.104154
0.0980024
0.0923591
0.0873103
0.0829686
0.0794817
0.0770562
0.0760735
0.0785165
0.0821842
0.0868064
0.0922081
0.0982594
0.104857
0.111918
0.119349
0.126926
0.1339
0.139399
0.143555
0.147319
0.151331
0.155795
0.160739
0.166136
0.171951
0.178144
0.184678
0.19152
0.19864
0.206011
0.213609
0.221412
0.229402
0.237562
0.24587
0.254284
0.2627
0.270927
0.150504
0.142468
0.134665
0.127125
0.119881
0.112975
0.106454
0.100378
0.0948186
0.089866
0.0856355
0.0822783
0.080007
0.0793141
0.0816966
0.085295
0.0898471
0.095178
0.101156
0.107679
0.11466
0.122004
0.129457
0.136225
0.141469
0.145432
0.14909
0.153038
0.157452
0.162351
0.167705
0.173477
0.179627
0.186119
0.19292
0.200001
0.207333
0.214893
0.222662
0.230618
0.238743
0.247024
0.255439
0.263954
0.272497
0.153091
0.14515
0.137446
0.13001
0.122875
0.116084
0.109686
0.10374
0.0983192
0.0935143
0.0894375
0.0862343
0.0841099
0.0836406
0.0859318
0.0894126
0.0938363
0.0990357
0.104883
0.111276
0.118131
0.125348
0.132649
0.139214
0.144229
0.14802
0.151573
0.155446
0.159795
0.164629
0.169919
0.175628
0.181715
0.188146
0.194887
0.201908
0.209184
0.216691
0.224406
0.232312
0.24039
0.248626
0.257003
0.265504
0.274097
0.156305
0.148485
0.140909
0.133607
0.126614
0.119973
0.113732
0.107952
0.102704
0.098076
0.0941747
0.0911361
0.0891504
0.0888618
0.0910467
0.0943846
0.0986475
0.103679
0.109357
0.115585
0.122278
0.129335
0.136461
0.142821
0.147622
0.151255
0.154704
0.158495
0.162765
0.167521
0.172733
0.178361
0.18437
0.190722
0.197387
0.204334
0.211538
0.218975
0.226623
0.234465
0.242481
0.250658
0.258981
0.267435
0.276003
0.160095
0.152418
0.144992
0.137847
0.13102
0.124552
0.118492
0.112899
0.107843
0.103406
0.0996891
0.0968159
0.0949599
0.0948208
0.0968947
0.100079
0.104165
0.109008
0.114495
0.120532
0.12704
0.133915
0.140848
0.146994
0.151591
0.155078
0.158425
0.162129
0.166312
0.170978
0.176099
0.181636
0.187552
0.193814
0.200389
0.207249
0.214367
0.221721
0.22929
0.237054
0.244997
0.253103
0.261358
0.269751
0.278263
0.164415
0.156895
0.149635
0.142665
0.136019
0.129739
0.123875
0.118481
0.113625
0.109385
0.105853
0.10314
0.101404
0.10139
0.103354
0.106383
0.110286
0.114932
0.120216
0.12605
0.132357
0.139034
0.145759
0.151686
0.156085
0.159434
0.162682
0.166294
0.170385
0.174955
0.179976
0.185411
0.191225
0.197385
0.20386
0.210621
0.217644
0.224904
0.232383
0.24006
0.247918
0.255943
0.26412
0.272437
0.280883
0.169218
0.161869
0.154786
0.147999
0.141545
0.135463
0.1298
0.124611
0.119958
0.115913
0.11256
0.110002
0.108376
0.108464
0.110324
0.113201
0.116924
0.121372
0.126448
0.132072
0.13817
0.144639
0.151147
0.156849
0.161056
0.164273
0.167424
0.170943
0.174938
0.179406
0.184321
0.189649
0.195354
0.201404
0.20777
0.214424
0.221341
0.2285
0.235879
0.24346
0.251225
0.25916
0.267251
0.275485
0.283851
0.174464
0.167292
0.160393
0.153798
0.14754
0.141659
0.136201
0.131215
0.126761
0.122906
0.119727
0.117312
0.115788
0.115961
0.117724
0.120456
0.124003
0.128256
0.133126
0.138539
0.144425
0.150683
0.156968
0.162442
0.166458
0.169549
0.172604
0.176031
0.179928
0.184292
0.189098
0.194312
0.199902
0.205837
0.212088
0.218629
0.225434
0.232484
0.239756
0.247233
0.254898
0.262736
0.270733
0.278875
0.287155
0.180112
0.173122
0.166413
0.160011
0.153951
0.148272
0.143015
0.13823
0.13397
0.130297
0.127281
0.125001
0.12357
0.123811
0.125485
0.12808
0.13146
0.135524
0.140194
0.145399
0.151075
0.157119
0.163179
0.168422
0.172251
0.17522
0.178183
0.181518
0.185315
0.189574
0.194268
0.199367
0.204839
0.210655
0.216787
0.223209
0.229898
0.236831
0.243991
0.251359
0.258917
0.266652
0.274549
0.282597
0.290781
0.240741
0.234305
0.227992
0.221791
0.215687
0.209674
0.203754
0.197944
0.192276
0.186794
0.181549
0.176597
0.171991
0.167783
0.164018
0.160737
0.157975
0.155767
0.154142
0.153144
0.153903
0.155116
0.15664
0.158434
0.16039
0.162312
0.164044
0.165715
0.1675
0.169544
0.171936
0.174717
0.177898
0.181469
0.185411
0.1897
0.194304
0.199188
0.204311
0.209631
0.215103
0.220687
0.226353
0.232083
0.237872
0.236957
0.230428
0.224018
0.217716
0.211509
0.205388
0.199358
0.193432
0.187645
0.18204
0.176671
0.171595
0.166867
0.162541
0.158665
0.155283
0.152434
0.150154
0.14848
0.147454
0.148229
0.149467
0.151017
0.15283
0.154785
0.156682
0.158397
0.16008
0.161894
0.163974
0.166408
0.169238
0.172471
0.176099
0.180101
0.18445
0.189117
0.194063
0.199248
0.204628
0.210158
0.215798
0.221519
0.227303
0.233147
0.23357
0.226952
0.220452
0.214057
0.207753
0.201532
0.195396
0.189362
0.183462
0.17774
0.172253
0.167057
0.162212
0.157771
0.153787
0.150305
0.14737
0.145021
0.143296
0.142245
0.143034
0.144296
0.145867
0.147681
0.149605
0.151446
0.153129
0.154821
0.156658
0.158768
0.161238
0.164109
0.167387
0.171064
0.175117
0.179519
0.18424
0.189243
0.194484
0.199919
0.205504
0.211198
0.216972
0.22281
0.22871
0.230602
0.223905
0.217323
0.210843
0.20445
0.198137
0.191905
0.18577
0.179765
0.173935
0.168337
0.163029
0.158073
0.153524
0.149436
0.145859
0.14284
0.140423
0.138651
0.137575
0.138378
0.139662
0.141244
0.143026
0.14487
0.146614
0.148252
0.149947
0.151804
0.153937
0.156437
0.159341
0.162657
0.166374
0.17047
0.174918
0.179687
0.184739
0.190031
0.195518
0.201155
0.206902
0.212729
0.218622
0.224578
0.228081
0.221314
0.21466
0.208104
0.201634
0.195239
0.188921
0.182696
0.176597
0.17067
0.164971
0.159563
0.154505
0.149856
0.145673
0.142008
0.138911
0.136431
0.134614
0.133515
0.13433
0.135633
0.137204
0.138889
0.140579
0.14218
0.143763
0.145462
0.147333
0.149486
0.15201
0.154942
0.158288
0.162037
0.166167
0.170653
0.175463
0.18056
0.1859
0.191437
0.197125
0.202925
0.208806
0.214755
0.220768
0.226037
0.219212
0.212497
0.205878
0.199342
0.192878
0.186488
0.180186
0.174007
0.167997
0.162212
0.156715
0.151569
0.146833
0.142566
0.138824
0.135657
0.13312
0.131263
0.130144
0.130969
0.132286
0.133794
0.135254
0.136684
0.138105
0.13964
0.141347
0.143234
0.145406
0.147953
0.150908
0.154279
0.158053
0.162212
0.166731
0.171579
0.176717
0.182102
0.187689
0.193429
0.199283
0.205221
0.211225
0.217296
0.224505
0.217637
0.210875
0.204209
0.19762
0.191103
0.184655
0.178295
0.172052
0.165976
0.160123
0.154557
0.14934
0.144534
0.1402
0.136394
0.133171
0.130587
0.128696
0.127562
0.128395
0.129712
0.131008
0.131997
0.133075
0.134326
0.13584
0.137569
0.139481
0.14168
0.144253
0.147234
0.150627
0.154425
0.158611
0.16316
0.168044
0.173224
0.178657
0.184294
0.190087
0.195997
0.201991
0.208053
0.214181
0.223531
0.216649
0.209859
0.20316
0.196539
0.189986
0.183502
0.177102
0.170819
0.1647
0.158803
0.153191
0.147927
0.143074
0.138694
0.134845
0.131584
0.128968
0.127054
0.125909
0.126748
0.12799
0.128601
0.128832
0.129614
0.130778
0.132317
0.134092
0.136047
0.138288
0.140899
0.143912
0.147334
0.151159
0.155374
0.159957
0.164879
0.170102
0.175582
0.18127
0.187119
0.193085
0.199137
0.205257
0.211443
0.222963
0.216654
0.210314
0.203873
0.197319
0.190791
0.184331
0.177954
0.171693
0.165592
0.159709
0.154109
0.148853
0.144005
0.139626
0.135774
0.132509
0.129887
0.127969
0.126823
0.127292
0.126786
0.125825
0.125559
0.126273
0.127458
0.129061
0.130906
0.132928
0.135233
0.137898
0.140955
0.144414
0.148273
0.152524
0.157144
0.162107
0.167374
0.1729
0.178639
0.184542
0.190566
0.196675
0.202852
0.209094
0.220001
0.214119
0.208426
0.202872
0.197351
0.191681
0.185662
0.179362
0.173133
0.167064
0.161211
0.155636
0.150404
0.145574
0.141208
0.137362
0.134091
0.131442
0.129418
0.127693
0.125734
0.123792
0.122482
0.122407
0.123185
0.124442
0.126122
0.128054
0.130164
0.13255
0.135283
0.138395
0.141899
0.145801
0.15009
0.15475
0.159753
0.165061
0.170632
0.176419
0.182372
0.18845
0.194616
0.200851
0.207148
0.21643
0.210562
0.204948
0.199594
0.194496
0.189622
0.184879
0.18006
0.174832
0.169045
0.163264
0.15773
0.152527
0.147713
0.14333
0.139389
0.135807
0.132243
0.128672
0.125391
0.122632
0.120544
0.119242
0.1196
0.120492
0.12182
0.123565
0.125589
0.127807
0.130289
0.133099
0.136271
0.139825
0.143769
0.148096
0.152791
0.157827
0.163168
0.168776
0.174603
0.180605
0.186735
0.192958
0.199251
0.205605
0.213097
0.207179
0.201522
0.196141
0.191047
0.186253
0.181754
0.17752
0.17347
0.169408
0.165024
0.16006
0.15481
0.149652
0.144469
0.13932
0.134393
0.129856
0.125821
0.122373
0.119582
0.117516
0.116252
0.117094
0.118195
0.119599
0.12138
0.123489
0.125833
0.128433
0.131331
0.134566
0.138168
0.142148
0.146507
0.151227
0.156285
0.161649
0.167284
0.173147
0.179194
0.185381
0.19167
0.198031
0.204451
0.21013
0.204163
0.198459
0.193033
0.187899
0.183071
0.178554
0.174336
0.170371
0.16654
0.162603
0.158239
0.153263
0.147814
0.142224
0.136795
0.131718
0.127106
0.123037
0.119579
0.116796
0.114757
0.113535
0.114779
0.116219
0.117765
0.11956
0.121703
0.124147
0.126852
0.129828
0.133118
0.136762
0.140779
0.145167
0.149912
0.154992
0.16038
0.166043
0.171946
0.178048
0.184308
0.190685
0.197141
0.203654
0.207553
0.201548
0.195807
0.190345
0.185178
0.180319
0.175775
0.171539
0.167572
0.163772
0.159918
0.155688
0.150844
0.145471
0.139897
0.134446
0.129336
0.124694
0.120601
0.11713
0.114351
0.112335
0.111155
0.112622
0.114455
0.116302
0.118158
0.12027
0.122692
0.125403
0.128413
0.131754
0.135454
0.139526
0.143963
0.14875
0.153866
0.159286
0.164985
0.170933
0.177099
0.183447
0.189943
0.196547
0.203228
0.205378
0.199347
0.193581
0.188097
0.182908
0.178031
0.173472
0.169225
0.165259
0.161483
0.157696
0.153581
0.148862
0.143572
0.138022
0.13256
0.127425
0.122757
0.118646
0.115168
0.112399
0.110419
0.109311
0.110858
0.112968
0.115112
0.117071
0.119114
0.121468
0.124192
0.127278
0.130715
0.134499
0.138633
0.14311
0.147921
0.153052
0.158482
0.164192
0.170158
0.176356
0.182758
0.189331
0.196046
0.202866
0.203614
0.19757
0.191792
0.186299
0.181106
0.176226
0.171667
0.167424
0.163469
0.15972
0.155995
0.151987
0.147398
0.142208
0.136707
0.131255
0.126118
0.121447
0.11734
0.113879
0.111149
0.109251
0.10831
0.109731
0.111879
0.114094
0.116081
0.118062
0.120387
0.123164
0.126369
0.129952
0.133871
0.138106
0.142646
0.147488
0.152627
0.158054
0.163757
0.169719
0.175922
0.182343
0.18896
0.195742
0.202663
0.202262
0.196217
0.190443
0.184958
0.179776
0.174912
0.170373
0.166154
0.162229
0.158522
0.154865
0.150967
0.146516
0.141449
0.136029
0.130629
0.125532
0.120902
0.116842
0.113433
0.110755
0.108893
0.107937
0.108985
0.110968
0.113248
0.115498
0.117776
0.120317
0.123236
0.126538
0.130193
0.134171
0.138453
0.143024
0.147879
0.153009
0.158405
0.164059
0.169958
0.176089
0.182437
0.188988
0.19573
0.202647
0.201319
0.195282
0.189521
0.184054
0.178899
0.174068
0.16957
0.165404
0.161545
0.157927
0.154404
0.150715
0.146551
0.141754
0.136496
0.131161
0.126085
0.121457
0.117386
0.113954
0.111237
0.109309
0.108241
0.109056
0.110932
0.113172
0.115515
0.117975
0.120681
0.123706
0.127068
0.130755
0.134751
0.139035
0.143591
0.148406
0.153471
0.158779
0.164327
0.170112
0.17613
0.182377
0.188847
0.195532
0.202419
0.200667
0.1946
0.188805
0.183302
0.178113
0.173256
0.168751
0.164609
0.160824
0.157368
0.154144
0.150911
0.147213
0.142702
0.137636
0.1324
0.127379
0.122791
0.118745
0.115324
0.112599
0.110634
0.109482
0.11022
0.11195
0.114068
0.116352
0.118845
0.121613
0.124692
0.128086
0.131787
0.135782
0.14005
0.144578
0.149352
0.154369
0.159626
0.165124
0.170862
0.176841
0.183053
0.189494
0.196152
0.203018
0.199229
0.192894
0.186819
0.181033
0.175563
0.170443
0.165707
0.161388
0.157519
0.154126
0.151224
0.148783
0.146599
0.143934
0.139342
0.134276
0.129347
0.124825
0.120828
0.117436
0.114719
0.112735
0.111538
0.112183
0.11375
0.115715
0.117918
0.120393
0.123168
0.126255
0.12965
0.133343
0.137317
0.141555
0.146045
0.150776
0.155746
0.160956
0.166407
0.172102
0.178039
0.184212
0.190615
0.197239
0.204071
0.195352
0.188647
0.182214
0.176083
0.170289
0.16487
0.159864
0.155317
0.151273
0.147784
0.144903
0.142695
0.141254
0.141386
0.140597
0.136721
0.131938
0.127512
0.123584
0.120241
0.117548
0.115566
0.114352
0.11489
0.116299
0.118114
0.120224
0.12265
0.125395
0.128454
0.131816
0.135467
0.139391
0.143573
0.148003
0.152675
0.157587
0.162742
0.168142
0.173786
0.179675
0.185802
0.19216
0.198741
0.205533
0.18992
0.182951
0.176258
0.169873
0.163829
0.158167
0.15293
0.148164
0.143922
0.140263
0.13725
0.134963
0.133511
0.134087
0.135616
0.137144
0.135068
0.130785
0.126954
0.123679
0.12103
0.11907
0.117858
0.118274
0.119539
0.121216
0.123229
0.125587
0.128276
0.131278
0.134575
0.13815
0.141991
0.146087
0.15043
0.15502
0.159856
0.164942
0.170278
0.175864
0.181697
0.187771
0.194079
0.20061
0.207355
0.184282
0.1771
0.170189
0.163581
0.157312
0.151424
0.14596
0.140973
0.136519
0.132664
0.129478
0.127052
0.12551
0.126042
0.127758
0.130326
0.133449
0.134434
0.130865
0.12768
0.125095
0.123173
0.121979
0.122266
0.123401
0.124953
0.126868
0.129144
0.131757
0.134677
0.13788
0.141351
0.145079
0.149059
0.153291
0.157776
0.162518
0.167518
0.172778
0.178294
0.184063
0.190077
0.196328
0.202805
0.209497
0.17888
0.171498
0.164379
0.157555
0.151062
0.144945
0.13925
0.134032
0.129355
0.125287
0.121912
0.119328
0.117675
0.118077
0.119864
0.122583
0.126088
0.130236
0.134009
0.132171
0.129668
0.1278
0.126636
0.126792
0.127814
0.129253
0.131066
0.13325
0.135768
0.138585
0.141671
0.145013
0.148605
0.15245
0.156551
0.160915
0.165548
0.17045
0.175621
0.181058
0.186755
0.192702
0.19889
0.205307
0.211942
0.173814
0.166241
0.158919
0.151881
0.145165
0.138815
0.132883
0.127427
0.122514
0.118221
0.114641
0.111884
0.110109
0.11033
0.112186
0.11503
0.118704
0.123094
0.128093
0.133298
0.134676
0.132877
0.131752
0.131787
0.132709
0.13404
0.13575
0.137829
0.140236
0.142931
0.145883
0.149081
0.152524
0.156221
0.160183
0.164418
0.168933
0.173728
0.178804
0.184154
0.18977
0.195642
0.20176
0.20811
0.214681
0.169116
0.161362
0.153845
0.146599
0.139662
0.13308
0.126907
0.121205
0.116047
0.111518
0.107718
0.104773
0.102859
0.102855
0.104791
0.107771
0.111613
0.116196
0.121416
0.127186
0.133315
0.137617
0.137256
0.137187
0.138021
0.139244
0.140844
0.142806
0.145089
0.147649
0.150457
0.153504
0.156794
0.160343
0.164165
0.16827
0.172665
0.177351
0.182326
0.187582
0.193112
0.198903
0.204944
0.211222
0.217723
0.164799
0.15688
0.149182
0.141738
0.134588
0.127779
0.121367
0.115416
0.110007
0.10523
0.101197
0.0980462
0.0959739
0.0957053
0.097735
0.100858
0.104877
0.109656
0.115084
0.121071
0.127537
0.13437
0.14064
0.142763
0.143676
0.144799
0.146279
0.148114
0.150261
0.152679
0.15534
0.158238
0.161382
0.164789
0.168477
0.172457
0.176735
0.181312
0.186185
0.191346
0.196784
0.202489
0.208447
0.214647
0.221073
0.160865
0.152804
0.144946
0.137324
0.129977
0.122952
0.116307
0.110111
0.104448
0.099416
0.0951378
0.0917647
0.0895073
0.0889484
0.0910805
0.0943541
0.0985545
0.103532
0.109167
0.115363
0.122038
0.129121
0.136507
0.143747
0.148575
0.150529
0.151985
0.153693
0.155699
0.157973
0.160492
0.16325
0.16626
0.169538
0.173103
0.176965
0.181133
0.185604
0.190375
0.195439
0.200784
0.206399
0.212271
0.218386
0.22473
0.157295
0.149124
0.141139
0.133368
0.125851
0.118633
0.111774
0.105345
0.0994326
0.0941451
0.0896135
0.0860019
0.083532
0.0826695
0.0849071
0.0883323
0.0927121
0.0978841
0.103721
0.110119
0.116993
0.124269
0.131844
0.139413
0.146336
0.151991
0.156499
0.159154
0.161282