<VTKFile type="ImageData" version="1.0" byte_order="LittleEndian" header_type="UInt64">
	<ImageData WholeExtent="0 44 0 44 0 44" Origin="-0.132051 -0.00436058 -0.0993497" Spacing="0.00523864 0.00523864 0.00523864">
		<Piece Extent="0 44 0 44 0 44">
			<PointData Scalars="Scalars_">
				<DataArray type="Float32" Name="Scalars_" format="ascii" RangeMin="0" RangeMax="100">
0.121861
0.118698
0.115534
0.112559
0.109584
0.106803
0.104022
0.101441
0.0988626
0.096507
0.0941521
0.0920728
0.0899931
0.0882912
0.086589
0.0854238
0.0842587
0.0839457
0.0836324
0.0828974
0.0821628
0.0823509
0.082539
0.0830736
0.0836081
0.0844651
0.0853222
0.0863573
0.0873923
0.0887708
0.0901494
0.0918697
0.0935896
0.0956242
0.097659
0.099984
0.10231
0.104904
0.107497
0.110339
0.113181
0.116248
0.119315
0.119315
0.119315
0.119537
0.116321
0.113105
0.110075
0.107045
0.104207
0.101369
0.0987299
0.0960927
0.0936774
0.0912616
0.0891233
0.0869848
0.085228
0.0834711
0.0822607
0.0810504
0.0806913
0.0803321
0.0795623
0.0787928
0.0789381
0.0790833
0.0796214
0.0801596
0.081046
0.0819324
0.0830135
0.0840945
0.0855196
0.0869448
0.0887099
0.0904746
0.0925543
0.0946342
0.0970064
0.0993794
0.102023
0.104666
0.107559
0.110452
0.113572
0.116691
0.116691
0.116691
0.11721
0.113942
0.110674
0.10759
0.104507
0.101612
0.0987167
0.0960172
0.0933203
0.0908452
0.0883709
0.0861733
0.083976
0.0821643
0.0803532
0.0790976
0.0778422
0.0774371
0.0770316
0.0762271
0.0754227
0.0755252
0.0756279
0.0761696
0.0767113
0.0776269
0.0785426
0.0796698
0.0807965
0.0822682
0.08374
0.0855498
0.0873603
0.0894849
0.0916091
0.0940284
0.0964485
0.0991418
0.101834
0.104779
0.107724
0.110896
0.114067
0.114067
0.114067
0.115257
0.111943
0.10863
0.105497
0.102366
0.0994181
0.0964706
0.0937169
0.0909631
0.0884305
0.0858996
0.0836439
0.0813883
0.0795205
0.077653
0.0763468
0.075041
0.0745691
0.0740967
0.073249
0.0724016
0.0724488
0.0724964
0.0730457
0.0735948
0.0745444
0.0754941
0.0766718
0.077849
0.0793671
0.080885
0.0827362
0.084588
0.0867537
0.0889192
0.0913822
0.093846
0.0965857
0.099325
0.102318
0.10531
0.108531
0.111752
0.111752
0.111752
0.113313
0.109953
0.106587
0.103405
0.100223
0.0972231
0.0942235
0.0914118
0.0886113
0.0860211
0.0834313
0.0811173
0.0788009
0.076877
0.0749533
0.0735966
0.07224
0.0717013
0.0711616
0.0702706
0.0693805
0.0693726
0.0693647
0.0699216
0.0704784
0.0714621
0.0724452
0.0736732
0.0749019
0.0764666
0.078031
0.0799235
0.0818159
0.0840227
0.0862295
0.088736
0.0912431
0.0940292
0.0968145
0.0998557
0.102896
0.106166
0.109436
0.109436
0.109436
0.111779
0.108388
0.104989
0.10177
0.0985514
0.0955095
0.0924675
0.0896073
0.0867598
0.0841185
0.0814778
0.0791105
0.0767399
0.0747612
0.0727834
0.0713686
0.0699538
0.0693133
0.0686715
0.0677257
0.0667807
0.0667079
0.0666352
0.0672045
0.0677738
0.0687946
0.0698148
0.0710959
0.0723778
0.0739848
0.0755918
0.0775185
0.0794451
0.0816861
0.083927
0.0864713
0.0890163
0.091844
0.0946705
0.0977555
0.10084
0.104154
0.107468
0.107468
0.107468
0.110246
0.106822
0.103392
0.100136
0.09688
0.0937958
0.0907115
0.0878029
0.0849083
0.0822159
0.0795244
0.0771036
0.0746788
0.0726454
0.0706134
0.0691406
0.0676677
0.0669252
0.0661815
0.0651807
0.0641808
0.0640433
0.0639057
0.0644874
0.0650692
0.0661271
0.0671844
0.0685186
0.0698537
0.0715031
0.0731527
0.0751136
0.0770742
0.0793495
0.0816244
0.0842066
0.0867896
0.0896588
0.0925264
0.0956552
0.0987836
0.102142
0.105501
0.105501
0.105501
0.109135
0.10571
0.102289
0.0990266
0.0957691
0.0926664
0.0895636
0.0866232
0.0836937
0.0809632
0.0782249
0.0757626
0.0733059
0.0712243
0.0691397
0.067593
0.0660489
0.0651345
0.064218
0.0631489
0.0620805
0.0618796
0.0616791
0.0622786
0.0628782
0.06397
0.0650619
0.0664467
0.0678311
0.0695125
0.0711945
0.073178
0.0751611
0.0774611
0.0797626
0.0823757
0.0849814
0.0878855
0.0907973
0.0939637
0.0971294
0.100526
0.103929
0.103929
0.103929
0.108036
0.104609
0.101189
0.0979206
0.0946615
0.0915401
0.0884188
0.0854405
0.0824746
0.0797061
0.0769369
0.0744329
0.0719309
0.0698012
0.0676687
0.0660479
0.0644281
0.0633421
0.0622556
0.0611181
0.0599809
0.0597167
0.0594527
0.06007
0.0606871
0.061813
0.0629387
0.0643735
0.0658095
0.0675231
0.069235
0.0712408
0.0732475
0.0755723
0.0778969
0.0805401
0.0831896
0.0861296
0.089057
0.0922607
0.0954755
0.0989107
0.102347
0.102347
0.102347
0.107168
0.103814
0.100469
0.097316
0.0941724
0.0912129
0.0882534
0.0854548
0.0826678
0.0800152
0.0773621
0.0748276
0.0722949
0.0699744
0.0676512
0.0657155
0.0637807
0.0623179
0.0608546
0.0596498
0.0584454
0.0581501
0.0578551
0.0584962
0.0591372
0.0602725
0.0614075
0.0628736
0.0643411
0.0660682
0.0677934
0.0698095
0.0718264
0.0741689
0.0765113
0.0791795
0.0818547
0.084824
0.0877792
0.0910137
0.0942608
0.0977267
0.101193
0.101193
0.101193
0.106311
0.103031
0.0997526
0.0967153
0.0936696
0.090872
0.0880746
0.0854682
0.0828582
0.0803216
0.0777889
0.0752239
0.072658
0.0701466
0.0676376
0.0653867
0.0631306
0.0612913
0.0594558
0.0581837
0.0569103
0.0565839
0.0562568
0.0569219
0.0575877
0.0587321
0.0598767
0.0613748
0.0628713
0.0646115
0.0663549
0.0683815
0.0704056
0.0727656
0.0751268
0.0778202
0.0805116
0.0835098
0.0865133
0.0897792
0.093032
0.0965277
0.100036
0.100036
0.100036
0.105033
0.10174
0.0984484
0.0954123
0.0923672
0.0895985
0.0868298
0.0842958
0.081759
0.0793378
0.0769207
0.0744451
0.0719691
0.0694296
0.0668922
0.0645452
0.0621929
0.0602915
0.0583939
0.057148
0.0559008
0.0556667
0.0554317
0.0561271
0.0568232
0.0578749
0.0589267
0.0603976
0.0618668
0.0636114
0.0653593
0.0674069
0.069452
0.0718397
0.0742288
0.0769512
0.0796714
0.0826973
0.0857293
0.0890207
0.0922978
0.0958162
0.099348
0.099348
0.099348
0.103756
0.100448
0.0971441
0.0941092
0.0910649
0.0883249
0.085585
0.0831233
0.0806599
0.0783541
0.0760525
0.0736664
0.0712803
0.0687127
0.0661468
0.0637038
0.0612552
0.0592917
0.0573321
0.0561124
0.0548914
0.0547494
0.0546067
0.0553324
0.0560587
0.0570177
0.0579768
0.0594205
0.0608623
0.0626112
0.0643637
0.0664324
0.0684984
0.0709138
0.0733309
0.0760822
0.0788311
0.0818848
0.0849452
0.0882622
0.0915636
0.0951048
0.0986603
0.0986603
0.0986603
0.102881
0.0995542
0.0962545
0.0932038
0.0901302
0.0873841
0.084638
0.082199
0.0797521
0.0774875
0.0752205
0.072895
0.0705547
0.0680248
0.0655017
0.0630794
0.0606584
0.0587224
0.0567845
0.0556308
0.0544779
0.0543151
0.0541516
0.0548303
0.0555094
0.0564613
0.0574132
0.058887
0.0603614
0.0621499
0.0639385
0.0660415
0.06815
0.0705952
0.0730289
0.0758075
0.0785879
0.0816698
0.084751
0.0880974
0.0914519
0.095025
0.09858
0.09858
0.09858
0.102037
0.0986908
0.0953162
0.0922508
0.0892143
0.0864604
0.0837065
0.0812524
0.0788071
0.0765839
0.0743704
0.0721062
0.0698454
0.0673526
0.0648575
0.0624558
0.060051
0.0581436
0.0562391
0.0551518
0.0540638
0.0538803
0.0536975
0.0543289
0.0549599
0.0559046
0.0568488
0.0583536
0.0598599
0.0616871
0.0635163
0.0656538
0.0677847
0.0702586
0.0727356
0.0755415
0.0783555
0.0814658
0.0845709
0.0879471
0.0913107
0.0949145
0.0985329
0.0985329
0.0985329
0.102462
0.0991335
0.0957738
0.0927151
0.0896867
0.0869212
0.0841557
0.0816612
0.0791751
0.0768773
0.0745891
0.0722476
0.0699101
0.0673924
0.0648725
0.0624666
0.0600573
0.058153
0.0562518
0.0551276
0.0540026
0.0538349
0.0536681
0.0543011
0.0549336
0.0559613
0.0569884
0.0585113
0.0600358
0.0618799
0.0637261
0.0658639
0.0679952
0.0704528
0.0729133
0.0756948
0.0784849
0.0815701
0.0846499
0.0880051
0.0913469
0.0949365
0.0985415
0.0985415
0.0985415
0.102878
0.0995669
0.0962738
0.0932206
0.0901393
0.087363
0.0845867
0.0820761
0.0795486
0.0771764
0.0748122
0.0723932
0.0699649
0.067423
0.0648834
0.0624734
0.0600683
0.0581668
0.0562643
0.055103
0.0539405
0.0537889
0.0536387
0.0542732
0.0549072
0.0560179
0.0571297
0.058671
0.0602117
0.0620726
0.0639331
0.066071
0.0682045
0.0706462
0.0730914
0.0758492
0.0785954
0.0816545
0.0847321
0.0880665
0.0913916
0.0949669
0.0985465
0.0985465
0.0985465
0.102616
0.0993275
0.0960577
0.0930412
0.0899955
0.087279
0.0845627
0.0821501
0.0797212
0.0774944
0.0752757
0.0729986
0.0707121
0.0683072
0.0659046
0.0635633
0.0612272
0.0593646
0.0575008
0.056316
0.0551301
0.054953
0.0547774
0.055365
0.055952
0.0570738
0.0581966
0.0597358
0.0612745
0.0631084
0.0649419
0.0670453
0.0691442
0.0715529
0.0739649
0.0766932
0.0794096
0.0824424
0.0854945
0.0888055
0.0921072
0.0956614
0.0992198
0.0992198
0.0992198
0.102346
0.0990807
0.0958041
0.092825
0.0898718
0.0872148
0.0845577
0.0822239
0.0799067
0.077825
0.0757365
0.0736017
0.0714644
0.0691958
0.0669285
0.064656
0.0623898
0.0605657
0.0587369
0.0575287
0.0563209
0.0561182
0.0559154
0.0564564
0.0569975
0.0581299
0.0592623
0.0607991
0.0623341
0.0641408
0.0659553
0.068025
0.0700859
0.0724612
0.0748375
0.0775361
0.080222
0.0832288
0.0862454
0.0895323
0.0928387
0.0963726
0.0998882
0.0998882
0.0998882
0.100701
0.0974166
0.0941205
0.091144
0.0881943
0.0855809
0.0829675
0.0807607
0.078571
0.0768081
0.075038
0.0736667
0.0722931
0.0703497
0.0684075
0.0662547
0.0641082
0.062348
0.0605831
0.0594016
0.0582203
0.0580072
0.057794
0.0583005
0.058807
0.0599221
0.0610372
0.062536
0.0640329
0.0657821
0.0675392
0.0695445
0.0715408
0.0738565
0.0761735
0.0788205
0.0814542
0.0844164
0.0873886
0.0906366
0.0939047
0.0974044
0.100886
0.100886
0.100886
0.0990711
0.0957656
0.0924491
0.0894752
0.0864947
0.0839257
0.0813568
0.0793052
0.0772303
0.0757861
0.0743308
0.0737238
0.0731239
0.0715059
0.069892
0.0678587
0.0658189
0.0641231
0.0624327
0.0612775
0.0601192
0.0598954
0.0596712
0.0601433
0.0606161
0.0617139
0.0628128
0.0642737
0.0657348
0.0674275
0.0691167
0.0710567
0.0730007
0.0752571
0.0775119
0.0801071
0.0827003
0.0856182
0.0885467
0.0917563
0.0949529
0.0984171
0.101879
0.101879
0.101879
0.0966624
0.0932921
0.0899106
0.0868757
0.0838336
0.0812125
0.0785915
0.0765069
0.0743983
0.0729612
0.0715134
0.0713674
0.0712288
0.0709907
0.0707567
0.0693312
0.0678992
0.0662987
0.0647035
0.0636037
0.0625006
0.0622746
0.062048
0.0624836
0.06292
0.0639708
0.0650226
0.066419
0.0678158
0.0694392
0.0710589
0.0729326
0.0748105
0.077007
0.0792018
0.081743
0.0842825
0.0871515
0.0900314
0.0931964
0.096348
0.0997715
0.103192
0.103192
0.103192
0.0942548
0.090821
0.0874023
0.0843053
0.0811916
0.078518
0.0758443
0.0736969
0.0715717
0.0701416
0.0687054
0.0690197
0.0693227
0.0704654
0.0716214
0.0708033
0.0699826
0.068477
0.0669705
0.0659259
0.0648816
0.0646535
0.0644265
0.0648249
0.0652238
0.0662275
0.0672319
0.0685642
0.0698936
0.0714465
0.0730038
0.0748119
0.0766187
0.0787555
0.0808946
0.083382
0.0858679
0.0886882
0.0915031
0.0946235
0.0977473
0.101131
0.104506
0.104506
0.104506
0.0917463
0.0882274
0.0847238
0.081539
0.0783372
0.0755767
0.0728162
0.0705888
0.0683842
0.0668932
0.0653962
0.0657082
0.0660084
0.0673568
0.0687191
0.0694085
0.0700952
0.0698226
0.0695491
0.0685735
0.0675983
0.0673692
0.0671413
0.0674964
0.067852
0.0687794
0.0697075
0.0709648
0.0722191
0.0737082
0.0752019
0.0769564
0.0787095
0.0807971
0.0828872
0.0853269
0.0877648
0.0905386
0.0933069
0.0963821
0.0994611
0.102801
0.106133
0.106133
0.106133
0.0892377
0.0856338
0.0820452
0.0787727
0.0754828
0.0726354
0.0697881
0.0674807
0.0651967
0.0636448
0.0620869
0.0623967
0.0626941
0.0642484
0.0658168
0.0680136
0.0702077
0.0711681
0.0721277
0.0712211
0.070315
0.070085
0.0698562
0.070168
0.0704803
0.0713313
0.0721831
0.0733655
0.0745447
0.07597
0.0774
0.079101
0.0808004
0.0828387
0.0848798
0.0872718
0.0896619
0.092389
0.0951106
0.0981407
0.101175
0.104472
0.10776
0.10776
0.10776
0.0870664
0.0833807
0.0796872
0.0763284
0.0729689
0.0700318
0.0670947
0.064712
0.0623427
0.0607215
0.0590829
0.0593004
0.059528
0.0611458
0.0627513
0.0650728
0.0673968
0.0693376
0.071282
0.0719856
0.0726847
0.0727445
0.0728105
0.0730759
0.0733394
0.0740993
0.0748567
0.0759691
0.0770874
0.0784625
0.0798306
0.0814906
0.0831606
0.0851607
0.0871552
0.0895054
0.091834
0.0945174
0.0972177
0.100204
0.103178
0.106431
0.109696
0.109696
0.109696
0.0848844
0.0811165
0.0773567
0.0739112
0.0704722
0.0674456
0.0644191
0.0619388
0.0594724
0.0577821
0.0560905
0.0562138
0.0563291
0.058014
0.05971
0.0621547
0.0645985
0.0675175
0.0704303
0.0727461
0.0750681
0.0754155
0.0757591
0.0759796
0.0762005
0.076868
0.0775394
0.0785824
0.0796243
0.0809481
0.0822703
0.0838907
0.0855148
0.0874747
0.0894294
0.0917389
0.0940559
0.0966962
0.0993348
0.102276
0.105225
0.108433
0.11163
0.11163
0.11163
0.0831902
0.0793504
0.0755191
0.0719947
0.0684771
0.0653663
0.0622555
0.0596899
0.0571382
0.055374
0.0536093
0.0535895
0.0535612
0.0553077
0.0570662
0.0595908
0.062114
0.0651202
0.0681204
0.0707731
0.073432
0.0744921
0.0755484
0.0764627
0.0773773
0.0786031
0.0798327
0.0810291
0.0822243
0.0835655
0.0849051
0.0865093
0.0881174
0.0900491
0.0919754
0.0942491
0.0965305
0.0991301
0.101728
0.104626
0.107531
0.110694
0.113846
0.113846
0.113846
0.0814986
0.077587
0.0736857
0.0700815
0.066443
0.0632485
0.060054
0.0574243
0.054813
0.0529744
0.0511238
0.0509619
0.0508012
0.0526089
0.0544122
0.057017
0.0596278
0.0627223
0.0658179
0.0688059
0.0717916
0.0735647
0.0753384
0.076946
0.0785532
0.0803381
0.0821211
0.0834707
0.0848216
0.08618
0.0875435
0.089132
0.0907024
0.0926047
0.0945353
0.0967727
0.0990014
0.101561
0.104118
0.106971
0.109821
0.11294
0.116073
0.116073
0.116073
0.0803902
0.0764223
0.0724647
0.0687964
0.0650932
0.0618271
0.0585609
0.0558544
0.0531659
0.0512478
0.0493173
0.0489682
0.0486202
0.0504853
0.0523461
0.0550194
0.0576985
0.0608556
0.064014
0.0669975
0.0699786
0.071576
0.0731741
0.0747533
0.0763321
0.0782834
0.0802327
0.0822184
0.0842053
0.0863791
0.088558
0.0906691
0.0927619
0.0948772
0.0970212
0.0993186
0.101607
0.104165
0.10672
0.109545
0.112367
0.115447
0.118542
0.118542
0.118542
0.0792631
0.0752391
0.0712011
0.0674701
0.0637809
0.0604424
0.0571039
0.054299
0.0515124
0.0495155
0.0475176
0.0469805
0.0464362
0.0483589
0.0502786
0.0530205
0.0557742
0.0589927
0.0622068
0.0651861
0.0681623
0.0695847
0.0710117
0.0725628
0.0741125
0.0762289
0.078347
0.0809695
0.0835932
0.0865826
0.0895653
0.0921976
0.094851
0.0971814
0.0994893
0.101847
0.104208
0.106763
0.109324
0.112123
0.114903
0.117944
0.120988
0.120988
0.120988
0.078945
0.0748775
0.0707955
0.0670166
0.0632806
0.0598883
0.0564961
0.0536281
0.050778
0.0486972
0.0466155
0.0458503
0.0450781
0.0470331
0.0489847
0.0517669
0.0545613
0.0578144
0.0610628
0.0640154
0.0669647
0.0681627
0.0693655
0.0709004
0.072434
0.0745818
0.0767313
0.0793972
0.0820643
0.0851234
0.0881755
0.0912216
0.0942889
0.0972718
0.100232
0.103089
0.105949
0.108775
0.111607
0.11452
0.117413
0.120485
0.12356
0.12356
0.12356
0.078663
0.074552
0.0704648
0.0666365
0.0627509
0.0593063
0.0558616
0.0529588
0.0500394
0.0478745
0.0457062
0.0447137
0.0437232
0.04571
0.0477026
0.0505246
0.0533378
0.0566265
0.059922
0.0628482
0.0657727
0.066746
0.0677182
0.069237
0.0707561
0.0729345
0.0751135
0.0778223
0.0805391
0.083669
0.0867919
0.090252
0.0937009
0.0973339
0.100973
0.104329
0.107684
0.11078
0.113886
0.116911
0.119949
0.123053
0.126133
0.126134
0.126134
0.0787629
0.0746638
0.0705886
0.066778
0.0629091
0.0594909
0.0560728
0.0532132
0.0503365
0.0482536
0.0461672
0.0456312
0.0450975
0.0470539
0.0490164
0.0518005
0.0545759
0.0578142
0.0610592
0.0636606
0.0662605
0.0665056
0.0667496
0.0682565
0.0697638
0.0719626
0.0741619
0.0768977
0.0796417
0.0828
0.0859511
0.089441
0.0929193
0.0966288
0.100344
0.104015
0.107685
0.111229
0.114784
0.118195
0.121618
0.12497
0.128296
0.128296
0.128297
0.0788242
0.0747374
0.0706748
0.0668823
0.0630819
0.0596894
0.0562971
0.0534566
0.0506332
0.048632
0.0466324
0.046553
0.0464663
0.0483929
0.050323
0.0530697
0.0558232
0.0590097
0.0621945
0.0644709
0.0667505
0.066267
0.0657822
0.0672771
0.0687709
0.0709916
0.0732135
0.0759768
0.0787352
0.08192
0.0851086
0.0886284
0.0921358
0.0959232
0.0997206
0.103707
0.107693
0.111684
0.11571
0.119508
0.123271
0.126867
0.130489
0.130489
0.130489
0.0801246
0.0760986
0.0720978
0.0683739
0.0646418
0.0613248
0.0580077
0.0552457
0.0525012
0.0505716
0.0486437
0.0487187
0.0487863
0.050656
0.0525291
0.055205
0.0578877
0.0609942
0.0640992
0.0662255
0.0683548
0.0678166
0.0672771
0.0687414
0.0702044
0.0723862
0.0745691
0.0772912
0.0800081
0.0831521
0.0862999
0.0897808
0.0932497
0.0970011
0.100762
0.104721
0.108678
0.112704
0.116764
0.120702
0.124605
0.128398
0.132218
0.132218
0.132218
0.0814608
0.0774947
0.0735181
0.0698627
0.066211
0.0629693
0.0597276
0.0570338
0.0544052
0.0525458
0.0506502
0.0508797
0.0511016
0.0529148
0.0547406
0.057346
0.0599594
0.0629861
0.0660019
0.0679782
0.0699495
0.0693577
0.0687682
0.0702022
0.0716375
0.0737794
0.0759203
0.0785999
0.081279
0.0843835
0.0874921
0.0909335
0.0943731
0.0980883
0.101814
0.105744
0.109641
0.1137
0.117793
0.121871
0.125936
0.12993
0.133939
0.133939
0.133939
0.0834278
0.0795428
0.0756471
0.0720802
0.0685166
0.0653684
0.0622202
0.0596189
0.0570834
0.0553015
0.0534829
0.0537888
0.054087
0.055838
0.0576016
0.0601247
0.0626559
0.06559
0.0685131
0.0703712
0.0722244
0.0716053
0.0709887
0.0723837
0.0737801
0.0758712
0.0779613
0.0805855
0.0832093
0.0862579
0.0893107
0.0926979
0.0960836
0.0997477
0.103423
0.107308
0.111159
0.115192
0.119258
0.123353
0.127436
0.131502
0.135585
0.135585
0.135585
0.0853947
0.0815909
0.0777761
0.0742976
0.0708223
0.0677676
0.0647127
0.0622039
0.0597617
0.0580571
0.0563155
0.0566979
0.0570724
0.0587611
0.0604626
0.0629034
0.0653524
0.068194
0.0710242
0.0727641
0.0744992
0.0738529
0.0732091
0.0745651
0.0759227
0.077963
0.0800022
0.0825711
0.0851395
0.0881324
0.0911293
0.0944624
0.097794
0.101407
0.105031
0.108871
0.112676
0.116684
0.120724
0.124836
0.128935
0.133074
0.13723
0.13723
0.13723
0.0878427
0.0841301
0.0804123
0.07703
0.0736743
0.0707164
0.0677585
0.0653575
0.0629455
0.061317
0.0597076
0.0601293
0.0605569
0.0621841
0.0638213
0.0661781
0.0685167
0.0712631
0.0740203
0.0756536
0.0772785
0.0766239
0.0759732
0.0772877
0.0786026
0.0805885
0.082575
0.0850824
0.087589
0.0905167
0.0934571
0.0967301
0.0999936
0.103547
0.107091
0.110874
0.114659
0.11862
0.122593
0.126678
0.130749
0.134887
0.138998
0.138998
0.138998
0.0903636
0.0867407
0.083097
0.0798116
0.0765296
0.0736707
0.0708117
0.0684982
0.0662254
0.06467
0.0631059
0.0635675
0.0640387
0.065604
0.0671306
0.0694052
0.0717059
0.0743589
0.0770138
0.078539
0.0800604
0.0793985
0.0787365
0.080009
0.0812827
0.0832128
0.0851448
0.0875903
0.0900434
0.0929094
0.0957631
0.0989707
0.102173
0.105665
0.109188
0.112917
0.116598
0.120513
0.124463
0.12852
0.132544
0.136687
0.140883
0.140883
0.140883
0.0932719
0.0897422
0.0861909
0.083002
0.0798166
0.0770536
0.0742905
0.0720651
0.069881
0.0683933
0.066897
0.0673783
0.0678692
0.0693783
0.0708482
0.0730435
0.075265
0.0778255
0.0803882
0.0818164
0.0832406
0.0825811
0.0819216
0.0831533
0.0843861
0.0862603
0.0881364
0.0905183
0.0929081
0.0957074
0.0984945
0.101635
0.104771
0.108197
0.111655
0.115323
0.118941
0.1228
0.126694
0.130706
0.134683
0.138796
0.142964
0.142964
0.142964
0.0961545
0.0927192
0.0893018
0.0862076
0.0831161
0.0804492
0.0777823
0.0756525
0.0735102
0.0720908
0.0706815
0.0711822
0.0716731
0.0731275
0.0745958
0.0767107
0.0788291
0.0812963
0.0837628
0.0850952
0.0864219
0.0857646
0.0851034
0.0862954
0.0874909
0.0893093
0.0911256
0.0934433
0.0957591
0.0984895
0.101226
0.104301
0.107383
0.110747
0.114082
0.117685
0.121314
0.125118
0.128915
0.132879
0.136811
0.140894
0.145046
0.145046
0.145046
0.0961545
0.0927192
0.0893018
0.0862076
0.0831161
0.0804492
0.0777823
0.0756525
0.0735102
0.0720908
0.0706815
0.0711822
0.0716731
0.0731275
0.0745958
0.0767107
0.0788291
0.0812963
0.0837628
0.0850952
0.0864219
0.0857646
0.0851034
0.0862954
0.0874909
0.0893093
0.0911256
0.0934433
0.0957591
0.0984895
0.101226
0.104301
0.107383
0.110747
0.114082
0.117685
0.121314
0.125118
0.128915
0.132879
0.136811
0.140894
0.145046
0.145046
0.145046
0.0961545
0.0927192
0.0893018
0.0862076
0.0831161
0.0804492
0.0777823
0.0756525
0.0735102
0.0720908
0.0706815
0.0711822
0.0716731
0.0731275
0.0745958
0.0767107
0.0788291
0.0812963
0.0837628
0.0850952
0.0864219
0.0857646
0.0851034
0.0862954
0.0874909
0.0893093
0.0911256
0.0934433
0.0957591
0.0984895
0.101226
0.104301
0.107383
0.110747
0.114082
0.117685
0.121314
0.125118
0.128915
0.132879
0.136811
0.140894
0.145046
0.145046
0.145046
0.118215
0.115007
0.111799
0.108786
0.105774
0.10296
0.100147
0.0975364
0.094928
0.0925379
0.0901484
0.0880241
0.0858994
0.0841452
0.0823908
0.081185
0.0799794
0.0797282
0.0794765
0.0787369
0.0779977
0.0782234
0.078449
0.0789959
0.0795427
0.0804027
0.0812626
0.0822807
0.0832987
0.0846908
0.0860829
0.0878338
0.0895844
0.0916585
0.0937328
0.0961033
0.0984746
0.101118
0.103761
0.106656
0.10955
0.112672
0.115793
0.115793
0.115793
0.115829
0.112565
0.1093
0.106228
0.103156
0.100282
0.0974071
0.094734
0.0920623
0.0896074
0.0871521
0.0849633
0.0827743
0.0809597
0.079145
0.0778905
0.0766362
0.0763429
0.0760493
0.0752735
0.074498
0.0746817
0.0748653
0.0754151
0.0759649
0.0768563
0.0777478
0.0788154
0.0798829
0.0813251
0.0827675
0.0845668
0.0863658
0.0884889
0.0906123
0.0930342
0.0954568
0.0981546
0.100851
0.103801
0.106752
0.10993
0.113108
0.113108
0.113108
0.11344
0.11012
0.1068
0.103669
0.10054
0.0976043
0.0946684
0.09193
0.0891941
0.0866744
0.0841556
0.0819021
0.0796488
0.0777737
0.0758993
0.0745961
0.0732932
0.0729578
0.0726219
0.0718099
0.0709981
0.0711398
0.0712818
0.0718345
0.0723871
0.07331
0.074233
0.0753502
0.0764668
0.0779592
0.0794518
0.0812994
0.0831477
0.0853198
0.0874914
0.0899647
0.0924388
0.0951906
0.0979417
0.100947
0.103954
0.107188
0.110422
0.110422
0.110422
0.111431
0.108061
0.104691
0.101507
0.0983258
0.0953332
0.0923406
0.0895431
0.0867454
0.0841629
0.0815822
0.0792644
0.0769468
0.0750095
0.0730725
0.0717155
0.0703588
0.0699608
0.0695622
0.0687045
0.067847
0.0679324
0.0680183
0.0685778
0.0691371
0.0700975
0.0710579
0.0722304
0.0734024
0.0749451
0.0764877
0.0783804
0.0802737
0.0824909
0.0847079
0.0872294
0.0897516
0.0925545
0.0953572
0.0984158
0.101474
0.104762
0.108049
0.108049
0.108049
0.109431
0.106011
0.102584
0.0993473
0.0961104
0.0930611
0.0900118
0.0871514
0.0843023
0.0816568
0.0790116
0.0766295
0.074245
0.0722456
0.0702465
0.0688355
0.0674246
0.0669639
0.0665022
0.0655987
0.064696
0.0647251
0.0647544
0.0653208
0.0658871
0.0668851
0.0678825
0.0691101
0.0703384
0.0719316
0.0735246
0.0754622
0.0773998
0.0796622
0.0819246
0.0844941
0.0870642
0.0899182
0.0927714
0.095883
0.0989935
0.102334
0.105675
0.105675
0.105675
0.107853
0.104396
0.100933
0.0976549
0.0943767
0.0912808
0.0881848
0.0852713
0.0823705
0.0796685
0.0769671
0.0745255
0.0720808
0.0700208
0.0679616
0.0664907
0.0650197
0.0644604
0.0639
0.062937
0.0619748
0.0619341
0.0618935
0.0624722
0.0630509
0.0640914
0.0651314
0.0664187
0.0677067
0.0693461
0.0709854
0.0729602
0.0749349
0.0772353
0.0795353
0.0821471
0.0847596
0.0876599
0.0905589
0.0937188
0.0968779
0.100267
0.103656
0.103656
0.103656
0.106274
0.102781
0.0992814
0.0959624
0.092643
0.0895005
0.0863579
0.0833912
0.0804386
0.0776802
0.0749226
0.0724216
0.0699165
0.0677959
0.0656767
0.0641458
0.0626147
0.0619569
0.0612979
0.0602754
0.0592537
0.0591431
0.0590325
0.0596236
0.0602147
0.0612978
0.0623803
0.0637272
0.0650751
0.0667606
0.0684462
0.0704582
0.07247
0.0748082
0.0771461
0.0798002
0.0824551
0.0854016
0.0883464
0.0915546
0.0947624
0.0982
0.101638
0.101638
0.101638
0.105136
0.101637
0.0981416
0.0948119
0.0914868
0.0883224
0.085158
0.0821562
0.0791653
0.0763645
0.0735558
0.0710084
0.0684667
0.0662939
0.064118
0.0625173
0.0609191
0.0600875
0.059254
0.0581536
0.0570538
0.0568695
0.0566856
0.0572953
0.0579052
0.0590302
0.0601552
0.0615615
0.0629675
0.0646872
0.0664077
0.0684434
0.0704787
0.0728443
0.0752115
0.0779003
0.0805818
0.0835675
0.0865608
0.0898105
0.0930596
0.0965391
0.100024
0.100024
0.100024
0.104009
0.100504
0.0970055
0.093665
0.090334
0.0871477
0.0839615
0.0809183
0.0778875
0.0750443
0.0722004
0.0696064
0.0670144
0.0647896
0.062562
0.0608914
0.0592218
0.0582166
0.0572111
0.0560327
0.0548548
0.0545967
0.0543387
0.0549673
0.0555958
0.0567628
0.0579295
0.0593946
0.0608609
0.0626152
0.0643678
0.066427
0.068487
0.0708801
0.0732729
0.0759958
0.0787249
0.0817506
0.0847637
0.0880549
0.0913568
0.0948782
0.0984006
0.0984006
0.0984006
0.103135
0.0996979
0.0962688
0.093039
0.0898186
0.086794
0.0837692
0.0809186
0.0780796
0.0753812
0.0726824
0.070088
0.0674955
0.0650969
0.0626956
0.0607001
0.0587057
0.0572455
0.0557848
0.0545205
0.0532566
0.0529538
0.0526512
0.0533062
0.0539611
0.0551453
0.0563293
0.0578361
0.0593442
0.0611109
0.0628757
0.0649438
0.0670126
0.0694247
0.0718367
0.0745874
0.077345
0.0804033
0.0834474
0.0867723
0.0901096
0.0936641
0.097219
0.097219
0.097219
0.102272
0.098903
0.0955363
0.0924173
0.0892898
0.0864268
0.0835638
0.0809181
0.0782688
0.0757153
0.0731659
0.0705713
0.067976
0.0654035
0.0628331
0.0605126
0.0581869
0.056272
0.0543608
0.0530103
0.0516587
0.0513112
0.050963
0.0516446
0.0523267
0.053528
0.0547295
0.0562787
0.0578262
0.0596047
0.0613865
0.0634637
0.0655386
0.0679695
0.0704017
0.0731804
0.0759572
0.0790475
0.082143
0.0855022
0.0888482
0.0924352
0.0960347
0.0960347
0.0960347
0.100951
0.0975636
0.094179
0.0910555
0.0879229
0.085083
0.082243
0.0796681
0.0770906
0.0746671
0.0722478
0.0697763
0.0673046
0.0647152
0.0621276
0.0596899
0.057247
0.0552477
0.0532522
0.0519293
0.0506051
0.0503608
0.0501157
0.0508339
0.0515528
0.0526426
0.0537327
0.0552555
0.0567766
0.0585626
0.0603519
0.0624541
0.0645538
0.0670161
0.0694798
0.0722904
0.0750988
0.078219
0.081345
0.0847313
0.088103
0.0917136
0.0953376
0.0953376
0.0953376
0.09963
0.0962242
0.0928218
0.0896936
0.0865562
0.0837392
0.0809222
0.0784181
0.0759125
0.073619
0.0713297
0.0689812
0.0666332
0.0640269
0.0614221
0.0588673
0.056307
0.0542234
0.0521436
0.0508482
0.0495515
0.0494103
0.0492684
0.0500233
0.0507789
0.0517573
0.0527358
0.0542324
0.055727
0.0575204
0.0593172
0.0614445
0.0635691
0.0660627
0.068558
0.0714004
0.0742404
0.0773905
0.0805471
0.0839603
0.0873578
0.090992
0.0946406
0.0946406
0.0946406
0.0987257
0.0952976
0.0918965
0.0887486
0.0855779
0.0827499
0.0799218
0.0774356
0.0749411
0.0726874
0.0704311
0.0681529
0.06586
0.0632991
0.0607447
0.0582122
0.0556809
0.0536249
0.0515671
0.0503486
0.0491309
0.0489676
0.0488036
0.0495063
0.0502093
0.0511826
0.0521558
0.053689
0.0552228
0.0570598
0.058897
0.0610601
0.0632288
0.0657533
0.0682663
0.0711374
0.0740108
0.0771912
0.0803706
0.0838157
0.0872691
0.0909376
0.0945884
0.0945884
0.0945884
0.0978524
0.0944017
0.0909229
0.0877563
0.0846184
0.0817777
0.078937
0.0764306
0.0739322
0.0717184
0.0695144
0.0673068
0.065103
0.0625868
0.0600683
0.0575579
0.0550445
0.0530173
0.050993
0.0498517
0.0487097
0.0485244
0.0483399
0.0489899
0.0496396
0.0506076
0.0515751
0.0531457
0.0547179
0.0565978
0.0584796
0.0606791
0.0628718
0.0654261
0.0679834
0.0708834
0.0737916
0.0770025
0.0802082
0.0836857
0.0871507
0.0908526
0.0945687
0.0945687
0.0945687
0.0982743
0.0948464
0.0913879
0.0882339
0.0851099
0.082264
0.079418
0.0768765
0.0743427
0.0720531
0.0697732
0.067475
0.0651812
0.0626344
0.0600854
0.0575692
0.0550497
0.0530301
0.0510135
0.049831
0.0486478
0.0484787
0.0483104
0.0489622
0.0496135
0.0506729
0.0517318
0.0533154
0.0549007
0.0567983
0.0586979
0.0608945
0.0630846
0.0656181
0.0681544
0.0710264
0.0739071
0.0770912
0.08027
0.0837266
0.0871702
0.0908597
0.0945645
0.0945645
0.0945645
0.0986869
0.0952822
0.0918954
0.0887528
0.0855817
0.0827313
0.0798808
0.0773281
0.0747593
0.072394
0.0700363
0.0676473
0.0652497
0.062673
0.0600983
0.0575764
0.0550595
0.0530473
0.051034
0.04981
0.0485849
0.0484322
0.048281
0.0489344
0.0495872
0.0507382
0.0518902
0.0534872
0.0550835
0.0569986
0.0589133
0.061107
0.0632963
0.0658092
0.0683258
0.0711707
0.0740038
0.0771601
0.080335
0.0837712
0.0871973
0.0908745
0.0945567
0.0945567
0.0945567
0.098562
0.0951754
0.0918074
0.0886919
0.0855469
0.0827389
0.0799309
0.0774485
0.0749504
0.0726991
0.0704555
0.0682105
0.0659568
0.0635476
0.0611404
0.0587034
0.0562715
0.0543114
0.0523501
0.0510967
0.0498423
0.0496608
0.0494809
0.0500801
0.0506786
0.0518455
0.0530135
0.0546069
0.0561997
0.0580806
0.059961
0.0621149
0.0642642
0.0667408
0.0692212
0.0720344
0.0748357
0.0779642
0.0811121
0.0845235
0.0879249
0.0915798
0.0952395
0.0952395
0.0952395
0.0984294
0.0950612
0.0916812
0.0885937
0.0855322
0.0827661
0.0800001
0.0775689
0.0751543
0.0730168
0.0708718
0.0687712
0.0666687
0.0644264
0.0621853
0.0598332
0.0574871
0.0555788
0.0536657
0.0523831
0.0511009
0.0508906
0.0506801
0.0512253
0.0517706
0.0529531
0.0541355
0.0557251
0.0573127
0.0591592
0.0610135
0.0631283
0.065234
0.067674
0.0701152
0.0728967
0.0756661
0.078767
0.0818774
0.0852634
0.0886685
0.0923019
0.0959173
0.0959173
0.0959173
0.0970127
0.0936261
0.0902277
0.0871437
0.0840866
0.0813637
0.0786408
0.0763311
0.0740385
0.0721968
0.0703472
0.0689364
0.0675239
0.0655966
0.0636704
0.0614648
0.0592653
0.057435
0.0555999
0.0543538
0.053108
0.0528878
0.0526676
0.0531754
0.0536832
0.0548449
0.0560066
0.0575487
0.0590889
0.060867
0.0626532
0.0646943
0.0667261
0.0691006
0.0714763
0.0742021
0.0769153
0.0799688
0.083032
0.086377
0.0897417
0.0933393
0.0969185
0.0969185
0.0969185
0.0956097
0.0922035
0.0887863
0.0857056
0.0826196
0.0799406
0.0772617
0.0751005
0.0729171
0.0713711
0.0698151
0.0690947
0.068381
0.0667688
0.0651608
0.0631016
0.0610361
0.0592842
0.0575373
0.0563274
0.0551147
0.0548845
0.0546536
0.0551241
0.0555953
0.0567363
0.0578784
0.0593732
0.0608682
0.0625789
0.0642862
0.0662528
0.0682232
0.0705323
0.0728397
0.0755097
0.0781783
0.0811846
0.0842016
0.087506
0.0907973
0.0943579
0.0979159
0.0979159
0.0979159
0.0933025
0.0898326
0.0863513
0.0832115
0.0800656
0.0773378
0.07461
0.0724217
0.0702104
0.0686846
0.0671491
0.0669504
0.0667581
0.0664835
0.0662129
0.0646881
0.0631568
0.061519
0.0598863
0.0587453
0.0576015
0.0573703
0.0571384
0.0575685
0.0579994
0.0590827
0.0601671
0.0615862
0.0630056
0.0646401
0.0662709
0.0681675
0.070068
0.0723143
0.0745588
0.0771723
0.0797846
0.0827396
0.0857055
0.0889632
0.0922073
0.0957252
0.0992406
0.0992406
0.0992406
0.0909965
0.0874641
0.0839463
0.0807462
0.0775298
0.0747526
0.0719754
0.0697314
0.067509
0.0660032
0.064492
0.0648139
0.0651244
0.0661879
0.0672653
0.0662744
0.0652804
0.0637564
0.0622313
0.0611591
0.0600877
0.0598557
0.0596248
0.0600138