# vtk DataFile Version 4.2
vtk output
ASCII
DATASET POLYDATA
POINTS 642 double
-1.52365 4.13561 -0.402915
-0.453229 3.77163 -0.306388
-1.73928 0.629307 -0.000680807
0.907421 0.678168 0.0236963
-0.497764 1.56712 1.38923
-0.903239 3.1507 0.603169
-0.451614 1.77289 -1.1363
-1.30722 3.79558 -0.734663
0.795759 2.5185 -0.574694
0.989026 2.43116 0.723763
-1.64937 3.19496 -0.576919
-2.34466 2.90293 1.0649
-2.26 3.86153 0.580986
-1.63723 3.25416 1.14705
-1.32293 3.77639 0.404025
-0.515142 3.52149 0.0545916
-0.631663 4.48336 -0.273984
-0.208052 4.35351 -0.921074
-1.58611 4.05148 -0.997469
-1.63115 3.92838 -1.19668
-2.12449 4.03416 -0.891946
-2.46399 2.87539 0.0507783
0.228994 2.92317 0.930452
0.581263 3.16235 0.349562
-1.39894 2.11655 1.16798
-0.557941 2.4685 1.17067
-1.93521 1.71381 -0.446282
-2.08267 1.62309 0.623836
-0.843777 3.05067 -0.640952
-1.20538 2.45812 -0.814254
0.159838 3.24221 -0.313026
-0.370894 3.21751 -0.492474
1.43496 1.56936 0.620055
0.446169 1.97143 1.29754
0.254204 0.890689 1.06111
-1.25121 0.890515 1.01659
-0.491599 0.740646 -0.000943317
-1.02342 1.02301 -0.726443
0.188128 1.05869 -0.879812
0.250582 2.06784 -0.935876
1.09545 1.58434 -0.301561
1.16759 2.34889 0.0493358
-1.8413 3.94375 0.0909403
-1.77286 3.94632 0.652954
-1.37113 4.05732 0.119283
-2.02842 3.1426 1.28271
-1.98568 3.63534 1.08443
-2.45629 3.40029 0.927272
-1.19323 3.4563 0.527397
-1.54973 3.60288 0.852431
-1.30367 3.23146 0.83126
-0.893927 4.1832 -0.0882909
-1.08596 4.39064 -0.331198
-0.618262 3.32006 0.378418
-0.856346 3.71748 0.119313
-0.464707 4.27025 -0.397437
-0.589571 4.07698 -0.149524
-0.487424 3.74107 -0.205846
-0.928662 4.35256 -0.593852
-1.57305 4.0939 -0.873209
-0.290851 4.09958 -0.510948
-0.368231 4.65272 -0.651042
-1.53688 3.93102 -0.943188
-0.820599 4.1417 -0.619103
-0.748247 3.99503 -0.608739
-1.6454 4.08988 -1.10787
-1.85467 4.25193 -0.616672
-1.5607 3.9009 -0.990437
-1.59467 4.19643 -1.47234
-1.91884 3.7341 -0.920314
-1.77651 3.93941 -1.14888
-1.66362 3.76813 -1.12528
-2.14777 3.87104 -0.101241
-2.09712 2.96068 -0.357341
-2.14853 3.47826 -0.29364
-2.46642 3.41053 0.327243
-2.46598 2.85891 0.606152
0.0711967 3.27862 0.282763
-0.0934863 3.35169 -0.0514409
-0.213878 3.06761 0.903146
-0.0039726 3.2799 0.608671
0.854678 2.89523 0.551953
0.47973 3.09397 0.634665
0.656329 2.73718 0.916633
-1.25302 2.8469 0.884799
-0.772425 2.84641 0.886399
-1.88466 2.59888 1.02921
-1.62436 2.84349 1.15831
-0.48093 2.0239 1.38994
-1.00891 2.36407 1.05984
-0.862052 1.75253 1.15436
-2.37919 2.24522 0.342495
-2.19435 2.37057 0.840122
-1.96327 2.3565 -0.586792
-2.24675 2.27815 -0.22692
-1.7843 1.09114 0.310336
-2.1424 1.57848 0.0191227
-1.718 1.13016 -0.146704
-1.37088 3.49434 -0.695848
-1.4233 2.91243 -0.630959
-1.20964 3.65141 -0.675605
-1.38245 3.6745 -0.757466
-0.823954 1.98877 -1.0732
-0.99715 2.90037 -0.676503
-0.515547 2.29192 -1.07287
-0.580715 3.8882 -0.541274
-0.780461 3.68947 -0.574323
-0.377791 3.53924 -0.303546
-0.532437 3.82613 -0.483087
0.274665 2.81734 -0.645172
-0.142066 3.21916 -0.418573
0.62426 2.8998 -0.443043
1.2851 0.959331 0.331296
0.986481 1.0821 0.901388
0.669754 0.739956 0.527254
0.82406 2.2102 1.04905
0.925111 1.71823 0.920133
1.14735 1.90902 0.586414
-0.200285 1.19513 1.38867
0.38506 1.38171 1.24188
-0.0415175 1.74369 1.4088
-0.0791406 0.801702 0.607593
0.281429 0.740675 0.0114247
-0.815056 1.13947 1.23171
-0.471396 0.739453 1.19649
-1.21063 0.754897 0.00997713
-0.891847 0.740678 0.613027
-1.56063 0.731994 0.658192
-0.104832 0.740689 -0.542209
0.567202 0.821794 -0.51224
-1.4743 0.804222 -0.470539
-0.913294 0.717301 -0.551758
-0.198895 1.4139 -1.08564
-0.544288 0.960826 -0.928375
-0.711153 1.39622 -1.00378
0.732508 1.28271 -0.610965
1.16463 1.08373 -0.278873
-0.055826 1.89597 -1.17028
0.27793 1.58229 -0.921185
1.04098 1.97154 -0.465462
0.732043 1.80806 -0.733807
0.58667 2.26414 -0.835234
1.49673 1.49722 0.0277728
1.12027 2.43107 -0.284177
1.15965 1.91321 -0.0983434
1.1955 1.80902 0.275063
1.15994 2.3898 0.409595
-0.0280815 2.25039 1.4078
0.379279 2.48551 1.16296
-0.141625 2.60901 1.04824
-1.66864 1.10517 0.836836
-1.24708 1.35693 0.948967
-1.75328 1.83486 0.989126
-1.03101 1.60175 -0.724525
-1.41003 1.35787 -0.447306
-1.61528 1.982 -0.702929
0.0586949 2.60428 -0.794369
-0.238237 2.39938 -0.956148
-0.624983 3.14226 -0.590287
0.912452 2.83036 0.216859
0.860907 2.85451 -0.148114
0.49512 3.22539 -0.0144679
-1.65754 4.09426 -0.218532
-1.65235 3.94092 0.163002
-1.45327 4.15403 -0.160231
-2.03618 3.94544 0.653896
-1.81462 3.94313 0.416029
-2.10646 3.94456 0.388414
-1.33713 3.91156 0.277841
-1.60186 3.94576 0.441526
-1.48919 3.90639 0.593124
-2.23909 3.01362 1.24066
-2.26826 3.29332 1.19685
-2.46408 3.13361 1.03987
-1.77688 3.41416 1.10572
-2.0572 3.39581 1.22392
-1.78801 3.20092 1.22106
-2.38147 3.65764 0.764305
-2.24838 3.55626 1.06538
-2.22252 3.79452 0.914323
-1.02381 3.26484 0.555327
-1.32588 3.37948 0.706024
-1.06972 3.15194 0.662731
-1.48034 3.72535 0.688183
-1.41132 3.52433 0.679806
-1.32199 3.65083 0.493509
-1.48339 3.22405 0.909893
-1.48367 3.40665 0.830457
-1.61893 3.41396 0.941964
-1.93487 3.83583 0.898274
-1.7226 3.61975 0.975892
-1.64578 3.8461 0.875108
-1.2335 4.36064 -0.0865365
-1.29203 4.19571 -0.395529
-1.1243 3.92405 0.146446
-1.10533 4.16796 0.0773848
-0.857503 4.49839 -0.258306
-0.914937 4.38431 -0.128276
-0.756692 4.35301 -0.154214
-0.764069 3.23059 0.499568
-0.912266 3.37391 0.412258
-0.689013 3.67466 0.0494457
-0.773543 3.51065 0.230865
-0.524443 3.42295 0.197987
-1.04414 3.56594 0.329597
-1.13032 3.73565 0.266212
-0.382117 4.02746 -0.376831
-0.416621 4.07288 -0.258222
-0.463107 3.75959 -0.273648
-0.636749 4.29675 -0.260477
-0.530305 4.16901 -0.283304
-0.541533 4.41343 -0.373065
-0.512269 3.64713 -0.0990773
-0.494124 3.97329 -0.189346
-0.607341 3.79466 -0.0841091
-0.911964 3.9628 0.00235577
-0.725247 3.88784 -0.0487658
-0.751802 4.18335 -0.152333
-1.28482 4.1179 -0.538302
-1.53244 4.12524 -0.692827
-0.787976 4.70217 -0.452608
-1.00371 4.45411 -0.590392
-1.58769 4.07472 -0.968228
-1.27237 4.03234 -0.606064
-1.26927 3.99401 -0.627792
-0.37757 3.99799 -0.441728
-0.348411 4.18248 -0.462255
-0.259162 4.55431 -0.821929
-0.305094 4.37245 -0.612858
-0.150089 4.34586 -0.76066
-0.423658 4.40209 -0.482297
-0.481178 4.62921 -0.460011
-1.3903 3.84818 -0.790189
-1.24763 3.87567 -0.664956
-1.14087 3.80856 -0.650946
-1.27167 3.94502 -0.652029
-1.26709 3.91364 -0.661055
-1.58492 4.0275 -1.01449
-0.510524 4.12998 -0.752485
-0.782186 4.09618 -0.619667
-0.497355 4.33129 -0.854015
-0.650119 4.6742 -0.714945
-0.545035 4.48973 -0.808503
-0.868059 4.21022 -0.611337
-1.68643 4.20494 -0.804828
-1.76316 4.18462 -0.590014
-1.60204 4.35154 -1.2059
-1.63646 4.11774 -1.05982
-2.08761 4.24425 -0.7485
-1.85294 4.1413 -0.946234
-1.87485 4.10279 -0.986253
-1.45528 3.84476 -0.854305
-1.55492 3.91137 -0.977744
-1.60148 4.05403 -1.24012
-1.58776 4.02463 -1.23781
-1.62292 3.95144 -1.20191
-1.59085 4.03767 -1.22117
-1.60377 4.05645 -1.21811
-1.71788 3.45189 -0.642625
-1.77816 3.76675 -1.09195
-1.61835 3.46786 -0.678804
-1.85628 4.00781 -1.07512
-1.92773 3.87338 -1.17387
-2.02056 3.90235 -0.957627
-1.64273 3.83332 -1.24207
-1.7446 3.91262 -1.16428
-1.66049 3.97135 -1.18046
-1.60817 4.0352 -1.1899
-1.60838 4.03022 -1.18685
-1.71078 4.00483 -1.14536
-1.86877 4.15291 -0.296272
-2.12697 4.00959 -0.584034
-2.02572 4.11466 -0.39779
-2.04625 3.9435 0.000946652
-2.25609 3.87432 0.272517
-1.83717 3.09167 -0.47472
-1.87454 3.39383 -0.517248
-2.36962 3.18378 -0.145659
-2.12691 3.2411 -0.32996
-2.34802 2.90117 -0.212303
-1.99686 3.6062 -0.602145
-2.07482 3.79731 -0.659915
-2.46637 3.12855 0.759174
-2.46351 2.85813 0.845505
-2.46648 3.7039 0.47559
-2.46721 3.41089 0.630104
-2.46636 2.86075 0.329095
-2.55571 3.13501 0.468047
-2.46618 3.14467 0.182064
-2.18321 3.68829 -0.254582
-2.35903 3.42615 -0.00178563
-2.35907 3.67079 0.154485
-0.323432 3.48051 -0.122151
-0.366674 3.5533 -0.221384
-0.259736 3.34887 0.151317
-0.299524 3.41697 0.00350697
0.292144 3.2804 0.164028
0.0263944 3.28688 0.140941
0.324341 3.27989 0.327058
-0.529022 3.06478 0.709706
-0.40406 3.19724 0.639007
0.141984 3.13235 0.845638
-0.101447 3.1784 0.771379
0.0309104 3.01741 0.95704
-0.291643 3.28036 0.493521
-0.241166 3.29112 0.337126
0.94471 2.62286 0.662971
0.748304 2.79523 0.735444
0.879895 2.58594 0.840583
0.582295 3.17647 0.511849
0.684251 3.00287 0.611477
0.709914 3.0325 0.447997
0.472004 2.81641 0.927121
0.642961 2.9437 0.846077
0.374542 3.03285 0.822254
0.0675919 3.2826 0.431031
0.244156 3.199 0.63964
0.331943 3.2982 0.503066
-1.07377 3.00102 0.753707
-0.851974 3.00334 0.732964
-1.48425 3.03764 0.957702
-1.3494 3.03946 0.870571
-0.673349 2.6775 0.957409
-1.0624 2.84564 0.841882
-0.923467 2.65838 0.951096
-2.1261 2.72698 1.11533
-1.96139 2.81286 1.27762
-1.53475 2.52413 1.00955
-1.73566 2.73089 1.12038
-1.64268 2.34303 1.06072
-1.74495 2.96039 1.27595
-1.66149 3.03328 1.18245
-0.48838 1.73198 1.38966
-0.749256 1.84591 1.37435
-0.640245 1.63266 1.26019
-0.773542 2.38267 1.06938
-0.738689 2.17587 1.26024
-0.518646 2.31553 1.34793
-1.11328 1.90763 1.06054
-0.918201 2.01344 1.1216
-1.2073 2.23992 1.06105
-1.45839 2.84262 0.984347
-1.36407 2.6033 0.961033
-1.17994 2.65269 0.950703
-2.28345 2.62255 0.706643
-2.2269 2.64291 0.914529
-2.35696 2.5813 0.207895
-2.35662 2.58666 0.442
-2.24506 1.97079 0.789629
-2.33848 2.24856 0.594186
-2.27195 1.94414 0.480381
-1.78035 2.73857 -0.532661
-2.00703 2.66329 -0.45149
-2.18881 1.95946 -0.369573
-2.12992 2.31313 -0.439726
-2.02427 1.98925 -0.547183
-2.20591 2.61102 -0.312001
-2.26179 2.58671 -0.0695721
-1.91528 0.795687 0.203173
-1.87606 1.07201 0.0154833
-1.91109 0.842601 -0.210565
-2.14519 1.58067 0.307027
-1.86786 1.40258 0.158179
-1.82596 1.41287 0.461627
-1.77744 1.46867 -0.248915
-1.87174 1.4102 -0.0810612
-2.07427 1.62077 -0.24944
-2.37557 2.24231 0.0468852
-2.24668 1.92807 -0.116484
-2.30921 1.90844 0.180534
-1.54508 3.46201 -0.674986
-1.5335 3.10711 -0.609985
-1.55634 3.76692 -0.925343
-1.55879 3.7005 -0.887784
-1.3439 2.74156 -0.681463
[...]
POINT_DATA 642
SCALARS Mean_Curvature double 1
LOOKUP_TABLE default
-1.00617
-0.362034
5.98211
3.49575
4.90616
-0.981447
-0.00275917
-0.150932
4.72743
-1.32123
-0.716612
1.55343
1.93816
5.46585
-0.264075
-0.4697
5.32018
8.87636
1.51296
6.10585
6.54782
3.2398
0.674018
1.3698
4.61763
2.71125
1.77951
2.43394
-0.0456117
2.10287
2.44612
-0.137257
4.89495
1.27367
2.13345
0.874586
0.138774
0.708739
1.52354
-0.830343
-1.58537
0.741235
-1.03581
2.1888
1.42529
2.58765
2.64366
3.57922
-0.635797
2.13498
3.88573
-1.55684
1.39023
-0.773081
-0.382324
-1.09411
4.36018
0.29407
-0.69247
-0.0757862
13.8294
6.90238
-0.616539
-0.248175
-0.119685
1.84431
5.07874
-0.270204
10.548
2.4582
3.49765
7.03928
1.70676
0.112675
-0.668395
0.727414
0.989015
-0.25209
-1.11729
3.75768
3.56071
3.6283
-0.903263
1.85873
-1.28189
2.0798
-1.89121
5.51547
0.744449
0.609642
-1.00764
1.50443
1.46387
4.08591
0.528002
-1.45253
2.44426
-2.16649
0.241833
-0.771453
-0.126987
0.186242
2.03004
-0.530471
2.03165
-0.299087
0.287787
-0.13518
0.436156
1.66815
-0.717866
3.22868
2.09707
3.56164
2.61524
1.8375
0.969814
-0.713396
4.02739
0.284495
0.18384
-1.23822
-0.0236048
0.556224
5.16605
-1.8188
0.0169914
2.00548
0.668916
1.46597
5.75579
2.32216
1.19404
0.940823
1.27643
-0.317486
3.09867
3.18969
-2.12165
0.980841
0.0143603
2.34194
1.99519
3.78269
-1.42757
-3.17615
1.46175
3.51726
1.71014
-2.38207
2.871
-2.84194
1.06069
-1.64829
-1.46526
2.55866
0.762559
-0.836169
0.0608666
0.86805
2.78865
2.2184
-1.24209
-2.48935
0.26892
3.00238
-0.26473
2.3497
0.644812
1.63838
5.74307
4.45921
2.54797
4.8037
0.575682
3.70365
1.46531
1.71636
2.09111
4.85621
-0.760999
-0.817846
-1.04591
0.0697076
-1.5127
-1.11899
-1.46491
-0.583519
-2.06964
2.24339
1.04973
6.23712
5.44094
0.130162
-1.23834
4.43295
3.19512
4.15801
5.66678
-0.99417
-0.808355
-0.214247
-0.664741
-0.678145
-0.831839
-0.902136
2.72262
8.87376
0.282965
-1.55323
-2.55506
-0.929891
-0.31238
2.93426
-0.238923
-1.03266
-0.34921
-1.58207
0.104433
0.000281234
6.56044
8.12183
8.3203
0.173683
0.159195
-2.72028
2.47247
7.78039
0.30215
8.28203
0.365627
5.81565
-0.123006
0.249406
0.342669
0.112449
0.12525
1.08785
1.31662
-0.53554
5.01927
5.50496
3.21287
-0.573881
5.50383
-1.91188
9.80299
2.50587
7.40783
2.21591
2.65233
-0.179399
-0.354744
5.43454
50.139
2.73599
12.5188
9.20046
-0.0709712
2.88484
0.177513
2.95684
10.9461
2.42466
16.0935
4.35235
3.07593
3.64709
-4.59651
1.54079
3.57791
3.07101
2.9331
1.85278
2.77673
-1.07228
-0.731643
2.81007
0.451274
3.3477
0.469182
1.55468
-1.107
4.68071
4.33702
0.0555166
0.603543
3.95973
0.178691
1.38582
0.454864
1.73707
-0.5285
-0.263773
-0.944318
-0.726563
2.32978
-1.98221
1.89776
-1.69517
1.77287
3.511
1.37963
4.20873
1.62303
-1.3796
0.286527
-0.897184
3.83867
5.26653
2.11659
1.35141
0.001936
5.4468
2.23413
0.80441
0.1485
5.51301
-0.982109
-0.828449
-1.32044
-1.70482
-2.50139
-1.76028
1.00335
2.44513
4.59005
-1.89997
-0.231925
0.328516
5.09762
0.693558
0.996104
5.31178
-2.24053
-3.11222
2.09252
3.86391
-1.16781
-1.81953
-1.21596
-1.60607
-1.37485
0.363331
-1.80853
0.602105
-0.31476
-0.52665
3.83187
2.28385
0.135754
-0.514768
0.407283
3.58131
1.46272
3.7864
2.30004
-2.43883
5.97185
2.51541
6.63941
2.55165
-2.15948
-1.72341
-1.26639
0.156988
3.06495
2.85958
0.473281
1.85396
0.252925
-0.425671
0.155795
-0.261365
-0.472505
-0.117915
-0.358067
-0.151458
0.102401
-0.288801
0.0476839
-0.238519
-0.330771
-0.128182
1.14594
5.522
0.130414
-0.655779
-1.11408
-0.215415
-0.54529
-0.74826
-0.213169
0.203635
-0.0150602
0.225459
-0.0239511
0.300587
9.96999
-0.852493
0.254515
0.16781
0.345855
0.491204
-0.750212
0.122667
0.155136
-0.569704
-0.535205
8.73919
1.02484
-2.07202
1.21323
-0.560288
2.78277
1.55783
-1.03693
5.90857
-0.589619
-0.153837
0.414139
0.200847
1.73307
1.93074
1.05899
1.76602
3.18202
4.46581
4.61683
-2.5734
1.97015
2.94435
0.954766
3.17839
1.91284
-0.852483
2.38782
3.91061
-0.119924
0.121066
2.32854
0.0663782
-0.757737
2.34093
3.36295
-0.963993
1.49896
2.79334
1.1279
0.112748
-0.278859
-1.55858
-0.031829
0.166025
2.58379
0.185086
0.110887
0.321141
0.202547
-0.963357
-1.58868
1.55924
6.60174
3.54904
-1.75742
1.94362
3.07264
3.28503
-0.705075
-0.00585263
-0.615695
0.0660107
5.50552
-0.897623
2.68298
1.92313
0.945383
0.0417303
0.960519
3.03458
-0.714799
0.0564741
2.63002
2.62089
4.34858
1.78824
1.87419
1.48524
3.49036
6.05284
-0.239434
-0.0233434
0.809387
4.28304
1.5408
0.607675
1.71879
-1.87945
-0.799903
-2.39735
4.89806
0.268566
5.83293
3.6442
0.484287
3.39923
1.26507
2.33762
3.78182
-2.5646
-1.21173
-0.159506
2.71867
-0.495962
0.143844
-0.531101
1.43367
0.655548
3.14719
0.521245
0.343809
-1.12355
0.945941
2.1769
0.0787161
2.26452
2.93162
4.3343
2.77263
0.820255
0.990152
5.99385
3.40777
3.20004
1.7105
-1.75209
2.8987
-0.344504
1.78741
2.95533
4.19324
-3.65467
0.788095
5.36136
3.16244
-2.13172
1.04799
-1.59638
-0.483866
4.06939
-2.35326
5.00636
3.38817
4.25204
-0.951602
0.145588
3.77653
-0.617279
0.442433
1.77377
1.98524
-1.61474
2.38148
-3.4065
0.0645811
-0.44344
-1.76223
0.36285
1.49442
2.79208
0.475284
1.51493
7.64223
2.44951
-1.24406
-1.64235
-0.258446
-1.51127
-1.36299
6.13804
-1.09706
3.1991
0.483896
3.71873
-0.0105628
0.381553
1.10868
-1.18968
5.32512
-1.11738
-1.86649
0.896019
-1.44924
1.82026
1.12841
-0.85712
-1.42449
-1.55519
-1.40342
1.77292
4.23047
-3.21793
1.46262
-1.27191
0.753365
-1.44286
0.667972
0.233322
0.269278
-0.797977
-1.25148
1.43757
1.35183
1.02403
3.47573
5.04189
0.266606
0.165698
-0.153866
-0.182482
0.0291595
0.263644
0.673144
-0.834506
3.29969
2.88771
0.678586
-0.50971
-0.116
3.94544
2.85936
0.309463
-1.20203
3.27666
-0.720643
1.39137
0.814574
-1.15057
6.87602
0.931556
1.49864
-0.715045
SCALARS Redistribution_Potential double 1
LOOKUP_TABLE default
0.00141376
-4.30277
-1.36142
-27.0615
-4.7656
0.264828
-14.5241
-0.438119
-20.7049
-16.0407
1.09217
3.99833
2.76272
2.61921
0.337635
-2.91967
-4.48942
-5.50797
1.44887
1.9134
2.11085
3.90124
-5.12582
-8.86592
2.06386
-1.31981
1.36878
3.27998
-4.31686
-3.56914
-8.84025
-6.58048
-26.5114
-11.5009
-15.6908
-2.18831
-13.022
-8.18628
-22.3692
-20.5319
-29.4385
-22.4608
1.43081
1.8129
-0.334429
3.30956
2.73393
3.55106
0.563687
1.7918
1.5973
-2.89242
-2.69038
-1.37875
-1.78698
-4.94567
-3.92611
-3.96831
-3.63979
1.03348
-5.00967
-5.29956
1.11087
-3.76926
-3.86158
1.77191
1.44091
1.30324
1.1439
2.10153
2.04555
1.74916
2.30247
2.75148
2.75214
3.56387
4.21995
-4.9965
-5.42715
-2.31621
-3.66411
-11.9253
-7.18194
-9.75467
1.84167
0.131739
3.5976
2.96858
-3.24179
0.760724
-1.13976
4.29574
4.12385
1.74927
3.35333
0.989525
2.80282
-0.157945
-0.0811521
-0.612231
-0.984085
0.117581
-9.72245
-3.73122
-11.6774
-4.22174
-3.47982
-4.841
-4.3386
-14.3315
-7.62898
-15.3765
-27.861
-23.0916
-22.8238
-14.5486
-19.7242
-23.234
-8.93809
-14.4039
-7.83197
-15.2429
-21.6683
-4.01944
-8.28591
-5.52
-6.71287
-1.22913
-18.7124
-25.5952
-3.84139
-9.7073
-17.9496
-14.3124
-11.9122
-27.5882
-29.6818
-18.1367
-22.821
-26.8533
-25.9579
-21.8032
-29.5892
-22.6025
-27.5428
-26.4947
-19.6953
-5.72941
-8.10876
-3.20159
0.646067
-0.0926541
2.84425
-6.63919
-2.4867
-0.887695
-14.5789
-13.5812
-5.4718
-14.768
-16.0685
-9.74916
0.560361
0.874287
-0.395087
2.33608
1.6385
2.32352
-0.0196594
1.1116
1.18186
3.68802
3.44497
3.83215
2.60958
3.09918
2.92286
3.19193
3.1563
2.87351
0.427575
1.27276
0.860578
1.34234
1.29191
0.625356
2.06732
1.76735
2.15736
2.38403
2.2371
1.90374
-1.76212
-1.28527
-1.09068
-1.68523
-3.76121
-3.15857
-3.79704
-0.467452
-0.338739
-2.49236
-1.447
-2.34523
-0.405089
-0.525912
-4.74206
-4.53005
-4.21045
-4.32153
-4.50738
-4.86028
-3.51561
-4.12277
-3.30142
-2.28456
-2.94882
-3.56
-1.19519
0.37958
-4.42569
-3.5162
1.40337
-1.10662
-1.05144
-4.77887
-5.0661
-5.46815
-5.38436
-5.51733
-5.18656
-5.04108
0.0741476
-0.994986
-1.53154
-0.950305
-0.931786
1.47574
-4.82428
-3.84832
-5.11218
-4.89642
-5.08069
-3.65267
1.23992
1.09862
1.76244
1.66238
2.04092
1.89331
1.98844
0.548347
1.25932
1.78744
1.8452
1.8882
1.83619
1.82232
1.50538
1.95329
1.16531
2.07289
2.06863
2.13034
1.92657
2.0438
1.95844
1.8979
1.90902
1.95418
1.28645
2.08127
1.7431
1.98691
2.66114
1.89261
2.04263
3.38613
2.7887
3.45658
2.2704
2.26901
3.94555
4.16137
3.18236
3.60407
4.15209
3.95826
3.80495
2.58169
3.29108
3.10989
-4.37147
-4.51449
-3.62455
-4.00585
-7.04836
-5.30835
-6.57233
-0.947841
-1.65974
-4.26883
-2.91679
-3.60623
-2.45299
-3.09843
-14.2679
-10.901
-13.1023
-8.1346
-9.40503
-10.1779
-7.54814
-8.69315
-6.14369
-4.49909
-5.176
-6.05038
1.10806
0.327499
2.30998
1.92116
-0.30011
1.21362
0.705354
3.84745
3.51503
2.71118
3.23256
2.94475
3.11851
2.87025
-4.13465
-2.14401
-3.13402
-0.184177
-1.10342
-2.21214
0.646329
-0.1111
1.45954
2.45618
2.24547
1.6466
4.3418
4.1373
4.17227
4.33423
3.9067
4.268
3.97863
1.31002
2.32924
2.65312
2.64126
1.78057
3.15978
3.7406
-0.204249
0.462596
-0.631895
3.15687
1.98978
2.24591
0.731423
1.43705
2.19474
3.93859
3.29325
3.83383
0.842007
0.353313
1.16996
1.10549
-1.55694
-0.118168
-1.56555
-0.511263
0.279915
-1.13321
-0.345421
-1.65297
1.00798
1.20077
-12.6846
-10.5946
-13.7308
-3.83365
-7.26735
-6.51748
-8.44406
-7.6173
-3.98535
0.107713
-1.22616
-1.2636
-3.63802
-1.99203
-4.89608
-4.37718
-4.20958
-4.03633
-4.47296
-4.38844
-4.53632
-5.23672
-4.52722
-6.12494
-4.80644
-5.19257
-18.5911
-14.9387
-18.7564
-7.02539
-11.2869
-10.3484
-12.535
-12.1868
-8.23098
-4.26353
-5.02763
-4.64298
-27.717
-25.6974
-25.4914
-25.4432
-25.6636
-27.5173
-19.5178
-22.6938
-19.4441
-15.5268
-18.8348
-19.7403
-15.5342
-17.5774
-13.358
-25.686
-21.7175
-24.1852
-6.37508
-9.03941
-5.88457
-15.3389
-11.8932
-12.3731
-9.68694
-11.3043
-13.1501
-22.0872
-17.3335
-18.9088
-22.4776
-24.274
-15.6265
-18.9867
-17.5991
-18.4111
-14.3919
-4.27095
-6.16767
-5.0855
-5.638
-3.29945
-8.54123
-10.9744
-2.75231
-3.14932
-1.3445
-9.11123
-6.21503
-8.75591
-1.55198
-3.52756
-4.13066
-10.8909
-7.48331
-10.2321
-23.8413
-26.6818
-16.1853
-20.1448
-24.2981
-22.47
-20.868
-2.16537
-4.60805
-9.02137
-6.78944
-5.86686
-7.7225
-11.0847
-15.9198
-14.6665
-13.6633
-18.7186
-16.4609
-20.4863
-10.3301
-12.623
-11.3635
-14.1036
-12.7098
-16.5447
-28.2969
-28.857
-25.2041
-26.9628
-29.9862
-29.188
-29.0769
-16.3453
-18.3437
-22.1982
-20.5431
-19.5687
-20.7786
-22.9915
-23.1252
-24.6486
-21.1315
-28.3031
-26.7046
-28.4774
-21.3983
-24.3343
-23.4871
-25.4405
-24.6636
-27.2863
-29.2522
-30.119
-30.0481
-29.0266
-28.3619
-21.8836
-24.4957
-25.4856
-25.179
-22.7962
-27.336
-29.1143
-21.8879
-18.3754
-27.0054
-25.1084
-21.184
-24.1582
-24.875
-29.3115
-27.2019
-28.5864
-5.30238
-8.29537
-6.76774
-4.39203
-3.27055
-11.9127
-6.4706
-9.21545
-11.0631
-9.7923
-1.14438
-2.361
-1.51733
-2.63804
-4.19921
-6.9372
-5.40344
-4.41281
-0.0571327
-0.583181
-0.141497
0.81164
2.1624
-2.18428
1.1761
-0.285567
-1.61394
-1.12927
3.89516
3.14111
3.652
3.34756
2.49904
-0.00669114
1.54499
1.8963
-11.1884
-7.48884
-9.34651
-8.15109
-5.29143
-1.43105
-0.328682
-1.07439
-3.20974
-5.06216
0.495692
-2.31359
-0.717929
0.604114
0.319752
-4.19678
-1.69781
-3.43637
-18.3195
-17.9978
-18.304
-14.5647
-10.3713
-14.7546
-9.08146
-12.3871
-16.2061
-17.3201
-2.13137
-5.89006
-3.7497
-2.38906
-4.78012
-14.2928
-9.71645
-10.1514
-15.6223
-18.3633
-16.973
-13.2844
-11.2379
-19.0199
-12.7076
-16.1637
-19.3174
-19.3529
-5.17443
-9.58022
-7.32924
-6.73826
-9.40213
-15.7185
-12.5649
-12.2717
SCALARS CoVolArea double 1
LOOKUP_TABLE default
0.0528794
0.0103547
0.0658401
0.0622953
0.0364273
0.0383154
0.0247231
0.00932774
0.0272658
0.0414879
0.0472815
0.0579316
0.0716502
0.0499157
0.0469879
0.0453424
0.0457376
0.045698
0.0235626
0.0100948
0.0574762
0.092148
0.0473516
0.0417849
0.0893897
0.0688851
0.0770524
0.109325
0.0515014
0.100825
0.0484199
0.0430684
0.0721028
0.0687565
0.0921921
0.0657725
0.12411
0.0566133
0.0714993
0.0574531
0.0559657
0.0438602
0.083057
0.0649383
0.080903
0.0704722
0.074189
0.0837716
0.0557414
0.0444841
0.0475076
0.0449511
0.0687393
0.0660496
0.0592265
0.0263475
0.0354872
0.028655
0.0593862
0.0310745
0.0304534
0.0524782
0.0190127
0.0379398
0.0402775
0.0189595
0.0579681
0.0105431
0.00470748
0.0711872
0.00938975
0.0364076
0.0860633
0.0910727
0.0848254
0.0905785
0.0786231
0.0428791
0.038879
0.0598129
0.0574984
0.0453418
0.0492756
0.0463482
0.0441305
0.060174
0.0751484
0.0485892
0.0740966
0.0805128
0.0787081
0.0929223
0.0816952
0.0837035
0.0897654
0.0960161
0.0962229
0.0675437
0.0279656
0.068859
0.0164062
0.0129661
0.0793394
0.059023
0.0665719
0.0157251
0.0368197
0.0231075
0.0269664
0.0558112
0.0411139
0.0443328
0.101882
0.089313
0.0994051
0.0581558
0.0757082
0.0479772
0.0821339
0.0954893
0.0796052
0.123634
0.0908773
0.0634062
0.0973781
0.0961041
0.100968
0.0873846
0.100107
0.0819047
0.0706223
0.0801582
0.0782779
0.0740566
0.0595827
0.075844
0.0711433
0.0538428
0.0707427
0.0575105
0.066124
0.0617481
0.0725553
0.0441058
0.0473285
0.046325
0.0542978
0.056991
0.062324
0.0621415
0.0695789
0.0781136
0.0898836
0.0819942
0.0681371
0.0899853
0.0703592
0.057858
0.0680371
0.0429051
0.0549777
0.0537212
0.0751929
0.0779979
0.0781673
0.0730291
0.0669263
0.0731639
0.0579613
0.0622391
0.0593791
0.0740365
0.0744223
0.0771823
0.0583952
0.068904
0.0514136
0.0795672
0.0765927
0.0791935
0.0455106
0.0471614
0.0444399
0.0499529
0.0424899
0.0501729
0.0423222
0.036206
0.0442887
0.0764177
0.0595127
0.0653934
0.0832474
0.0633899
0.0552718
0.0684595
0.0566174
0.0527265
0.0307013
0.0562712
0.0571221
0.0448725
0.0617369
0.0582936
0.0631198
0.0578782
0.0225192
0.0266279
0.0198899
0.0301272
0.0259799
0.0293773
0.0380279
0.0283908
0.0364885
0.0573042
0.0458084
0.0393409
0.052918
0.0499232
0.0772193
0.0672279
0.0183107
0.03478
0.0289174
0.0160577
0.0251049
0.048022
0.045363
0.0409554
0.0365901
0.0545415
0.0119792
0.030099
0.0297337
0.0225781
0.0228069
0.016686
0.0433285
0.0383911
0.0557633
0.0776045
0.0627849
0.056444
0.0417652
0.0540321
0.026132
0.0248529
0.0657616
0.0405078
0.0315445
0.00684576
0.00636694
0.00427993
0.00757967
0.00918895
0.00969515
0.0161479
0.0664568
0.052593
0.0435085
0.0281127
0.0316423
0.0519223
0.018776
0.0162917
0.00660596
0.00893969
0.00354106
0.0130164
0.0709832
0.0857462
0.0744753
0.0742767
0.0730042
0.0818494
0.0845208
0.0908435
0.0872143
0.0904203
0.0761365
0.0758522
0.0812623
0.0731195
0.0841386
0.0857078
0.080871
0.0860676
0.0893957
0.0991142
0.0949647
0.0949025
0.0308275
0.0167821
0.0503912
0.0410174
0.0498411
0.0421281
0.0427362
0.0680532
0.0682247
0.0510311
0.0584503
0.0472053
0.0643845
0.0554425
0.0506963
0.0477817
0.0506801
0.0392357
0.040976
0.0337133
0.0488575
0.0482453
0.0536126
0.0513548
0.0526022
0.0449998
0.0514385
0.0571822
0.0473958
0.0421587
0.0668673
0.0497429
0.0651731
0.0678234
0.0732611
0.0747638
0.0598523
0.0814401
0.0505809
0.0437742
0.0514405
0.0745333
0.0621369
0.0730258
0.0835883
0.0667105
0.0826424
0.0797407
0.0878667
0.0513129
0.0699927
0.0618314
0.0790033
0.0645635
0.0904374
0.0834077
0.109844
0.0938789
0.106667
0.0820918
0.0864969
0.086613
0.0812488
0.0809361
0.0826981
0.0949249
0.0917035
0.0883813
0.0811394
0.110804
0.0934957
0.100233
0.070495
0.0749164
0.0860192
0.103652
0.100683
0.10743
0.047355
0.0589153
0.0185933
0.0327212
0.0828475
0.052236
0.0646529
0.0136557
0.0107194
0.0281316
0.012181
0.0296806
0.0117233
0.00903944
0.0487901
0.0713249
0.0498089
0.0812746
0.0761123
0.0903981
0.0608325
0.0704176
0.0554489
0.0172559
0.0313321
0.039668
0.0342767
0.0261599
0.0309553
0.0230491
0.0369341
0.0266825
0.0229723
0.015803
0.0183074
0.0296866
0.0268787
0.0378026
0.0324426
0.036446
0.0448572
0.0518982
0.0442471
0.0337968
0.0509845
0.0494337
0.0487153
0.0507387
0.0421725
0.0225886
0.0244438
0.0211532
0.0763206
0.0946321
0.0778342
0.088621
0.0942486
0.10581
0.0992146
0.0922073
0.0915007
0.0575029
0.0576133
0.0539337
0.0723266
0.0598533
0.0662906
0.0458293
0.0578072
0.0727766
0.0611082
0.0762347
0.0568134
0.0879459
0.0820796
0.0866701
0.0724271
0.0842451
0.0850345
0.0994658
0.101888
0.103961
0.0944665
0.0775139
0.105835
0.108751
0.10916
0.110398
0.131871
0.0601496
0.0671636
0.0911601
0.0870055
0.0704447
0.0830427
0.0825471
0.0779194
0.105635
0.0819134
0.119087
0.103406
0.100773
0.0644624
0.0969578
0.0877542
0.109263
0.102844
0.128209
0.0897335
0.0895119
0.111582
0.098252
0.0792067
0.0917151
0.0935145
0.0646555
0.0775093
0.0629835
0.0695282
0.0652133
0.0818961
0.10594
0.0523722
0.0709221
0.0513607
0.0811958
0.0747365
0.07307
0.0534069
0.0535375
0.0600832
0.108298
0.0882341
0.096623
0.0773036
0.0735251
0.0720869
0.0755626
0.0705363
0.070141
0.0638604
0.0419284
0.0532719
0.055102
0.0516931
0.0520443
0.0692548
0.0710508
0.0576554
0.0649435
0.0557676
0.0584245
0.0492977
0.0417504
0.0538955
0.0510396
0.0600438
0.0889121
0.0794203
0.083603
0.0860181
0.0694724
0.0858013
0.104409
0.0821833
0.042449
0.0507565
0.0378593
0.0430229
0.0435998
0.0476502
0.0539948
0.0466614
0.0510341
0.0488389
0.0397456
0.0525954
0.0477431
0.0431533
0.0622566
0.0523291
0.0610886
0.0628383
0.0597549
0.0613884
0.0620847
0.058967
0.0539106
0.0550853
0.0495731
0.0572095
0.0671313
0.0680964
0.0657443
0.066023
0.0578253
0.0545632
0.0635812
0.0652103
0.0604465
0.0827585
0.0586227
0.0726324
0.0825642
0.0780856
0.0737376
0.082762
0.0770626
0.0713998
0.0697317
0.0686474
0.103653
0.0929788
0.0828054
0.0848642
0.078494
0.0906708
0.0872451
0.0667103
0.0706324
0.0635061
0.0781352
0.096194
0.0635074
0.0724292
0.0695307
0.0708332
0.064479
0.0879033
0.108641
0.0910683
0.0876339
0.0758978
0.0792183
0.0771202
0.0982222
0.0599596
0.0636564
0.0583883
0.0575887
0.0702046
0.0569276
0.0597906
0.0553413
0.0582601
0.0578802
0.0298441
0.0617092
0.0482293
0.0459177
0.0615514
0.0672838
0.0674905
0.0766654
0.0507952
0.0468266
0.0479305
0.041392
0.0403281
0.0457824
0.057387
0.0451282
0.0493199
0.0492153
0.0284053
0.0472452
0.0484729
0.045536
0.0579917
0.0493807
0.0570273
0.0451253
SCALARS SignedDistance double 1
LOOKUP_TABLE default
1.17604
1.16429
0.0142971
0.142439
-0.0159615
0.861597
5.28905e-06
1.3281
-0.000524312
-0.0844099
1.24669
-1.00085
-0.00573256
0.240751
0.0338964
1.29709
0.0143766
-0.0048037
0.1188
-0.799805
0.0120714
0.230792
-0.000396561
0.0515069
0.00446413
0.185319
-0.000793635
0.281254
1.20108
0.0924004
-0.014386
1.17913
0.00845716
0.116238
0.00350165
-0.917313
0.000580162
-0.966772
-0.0105768
-0.0364505
0.413447
0.028785
0.0104433
0.145313
-0.0216176
0.218143
0.00118611
0.272123
1.11899
0.0946172
-0.00102998
0.747938
0.00618183
1.04526
1.21621
-0.00114733
0.0296926
1.18073
0.174189
0.3842
0.055061
0.0426901
1.11119
0.490568
0.584799
-1.00648
0.0340769
0.646839
-0.0572176
-0.732401
-1.02786
-0.122869
0.000604764
-0.00824549
4.24721e-05
0.0478626
-0.00678884
-0.00350382
1.12673
0.184273
0.0102931
0.109132
0.00935177
0.0991417
0.858673
0.135382
0.543507
0.241495
-0.0048586
0.02356
0.973139
-1.0007
-0.00375048
0.207309
-0.000654914
0.953873
-0.00541498
0.387199
1.34334
0.99977
1.3815
1.26776
0.032781
1.14329
0.0230698
1.09089
1.27418
1.34182
0.833675
0.0480379
1.08969
0.0582177
0.042545
0.201462
0.0138805
0.126128
-0.00323555
-0.0540721
-0.0288085
0.0467076
-0.0101574
-0.202456
8.01672e-06
0.0800174
0.023537
-0.180261
-5.35102e-05
0.201308
-0.000238572
0.102711
-0.0503171
0.15402
-0.0186892
0.0715362
-0.00018432
-0.0284451
-0.00245653
0.0830214
0.00443722
0.0511015
-0.00202828
0.0864174
0.00185462
0.0896859
-0.00646928
-0.090229
0.00263181
0.191689
0.00353001
-0.165455
0.0152202
0.010492
0.00703099
0.612123
0.89046
0.16464
0.00276935
-0.0133982
1.22723
0.0391065
-0.00205993
0.0974131
1.12477
-0.0860722
0.00441911
0.201329
-0.000292224
0.137052
0.020564
0.0849937
0.0256849
0.302142
0.00667741
0.31118
0.0047196
0.257361
0.0200195
0.150546
0.0171941
0.287824
1.12402
0.0107947
0.938121
0.0259572
0.530708
0.962857
0.0589811
0.00158893
0.0381294
0.193643
-1.88367e-05
0.264467
0.0235135
0.585745
0.782291
0.0707151
-0.0419477
0.0457161
0.0118502
1.16397
1.20545
1.2967
1.32652
1.19953
1.24075
1.15292
-0.0231483
0.0105979
1.17335
0.802252
0.110549
-0.00647144
1.29732
0.0261681
1.16393
0.236034
0.329531
0.715406
1.19778
1.12248
0.0219511
-0.0174943
0.0781345
1.24726
1.26403
0.132368
0.0387776
0.0338434
-0.042612
-0.0151269
0.0276446
0.0444981
1.25601
1.29504
1.27545
1.28404
1.29039