# vtk DataFile Version 4.2
vtk output
ASCII
DATASET POLYDATA
POINTS 642 double
-1.31676 3.61003 -0.165389
0.370163 3.5051 -0.129351
-1.32326 0.499395 -0.00576286
0.696706 0.513729 0.00523719
-0.358585 1.08188 1.4167
-0.498779 2.90021 1.26113
-0.334895 1.16732 -1.35066
-0.552877 3.11051 -1.51852
1.03754 1.99743 -0.771077
1.09179 1.94885 0.78743
-1.80897 2.24896 -0.945051
-1.88049 2.13544 0.908681
-1.81536 3.0054 0.510661
-1.29043 2.62937 1.31765
-0.950911 3.42739 0.761013
0.0432882 3.38998 0.620788
-0.378195 3.81476 -0.114276
0.0553349 3.52545 -0.865833
-1.00671 3.63494 -1.03231
-1.27338 2.83207 -1.50635
-1.80357 3.11342 -0.683771
-2.11238 2.14859 0.00857996
0.447533 2.48735 1.19181
0.912304 2.77779 0.432749
-1.24059 1.50132 1.33681
-0.383823 2.02209 1.56544
-1.73678 1.16142 -0.509805
-1.76783 1.1381 0.548913
-0.462852 2.25497 -1.623
-1.19287 1.62542 -1.31456
0.846633 2.88731 -0.491946
0.349542 2.67232 -1.25273
1.17795 1.12671 0.507425
0.529054 1.46678 1.29523
0.259517 0.579192 0.883945
-0.951924 0.555269 0.913184
-0.343839 0.272943 -0.0117757
-0.90048 0.619274 -0.859322
0.234051 0.632895 -0.847864
0.478108 1.50553 -1.24408
1.13446 1.14684 -0.477917
1.32838 1.90694 0.00699818
-1.59396 3.36796 0.192638
-1.4395 3.2761 0.674509
-1.15496 3.57049 0.330185
-1.62764 2.40591 1.17076
-1.60171 2.85291 0.984608
-1.90801 2.58904 0.746347
-0.729718 3.18783 1.06946
-1.16757 3.06667 1.09768
-0.886511 2.80391 1.33846
-0.657012 3.7089 0.299718
-0.882545 3.77329 -0.146095
-0.200337 3.1729 0.984281
-0.436698 3.48325 0.701627
0.00360587 3.72303 -0.121537
-0.155719 3.67895 0.267554
0.218066 3.51496 0.250262
-0.720552 3.78837 -0.607849
-1.19548 3.68238 -0.660942
0.266784 3.5661 -0.45534
-0.153173 3.75401 -0.522279
-0.75924 3.40299 -1.36029
-0.511049 3.63359 -1.02172
-0.24625 3.34608 -1.26086
-1.47151 3.47603 -0.914316
-1.59397 3.44528 -0.425692
-0.909765 3.0139 -1.58356
-1.19199 3.31143 -1.36935
-1.85935 2.7303 -0.854729
-1.61585 3.02488 -1.15958
-1.58471 2.57951 -1.28421
-1.87518 3.09277 -0.0676655
-2.02698 2.18008 -0.482229
-2.02433 2.66138 -0.338485
-2.05066 2.60915 0.277149
-2.05494 2.14537 0.514626
0.529026 3.11966 0.560528
0.639821 3.20444 0.137793
0.0331264 2.68776 1.27174
0.302735 2.94571 0.961736
1.0459 2.39686 0.629915
0.739585 2.67231 0.833964
0.803899 2.23924 1.03765
-0.896749 2.36213 1.50087
-0.460666 2.47378 1.46771
-1.63635 1.86132 1.16214
-1.32653 2.12012 1.40491
-0.341621 1.51653 1.5428
-0.848713 1.79118 1.53246
-0.789221 1.21826 1.42071
-2.03114 1.64369 0.288011
-1.88683 1.6885 0.770855
-1.83522 1.66829 -0.719756
-2.00531 1.64349 -0.269292
-1.59811 0.750688 0.295073
-1.83667 1.10883 -0.0058171
-1.58983 0.772255 -0.288786
-1.26914 2.30514 -1.4983
-1.54196 1.95699 -1.18669
-0.53566 2.7623 -1.62463
-0.889224 2.60312 -1.65166
-0.739883 1.32285 -1.37485
-0.844556 1.97765 -1.5641
-0.355655 1.61735 -1.50821
0.21947 3.15622 -1.13305
-0.113747 2.94506 -1.43852
0.624362 3.25949 -0.333612
0.483351 3.27646 -0.707635
0.732838 2.31495 -1.05061
0.646422 2.81296 -0.915097
1.00248 2.43235 -0.648454
1.01425 0.726058 0.263206
0.794808 0.7835 0.713062
0.541673 0.484738 0.429027
0.871341 1.7002 1.07313
0.918956 1.25924 0.935672
1.19365 1.50025 0.659579
-0.0806772 0.808083 1.23475
0.431917 0.96755 1.14854
0.0811248 1.25127 1.41857
-0.00337047 0.343653 0.4836
0.257305 0.344602 -0.00361957
-0.659454 0.771068 1.23801
-0.350621 0.503825 0.958722
-0.881396 0.321515 -0.00371018
-0.66863 0.338662 0.49685
-1.1741 0.469623 0.49898
-0.0211955 0.368383 -0.47738
0.497853 0.514802 -0.445269
-1.16476 0.498664 -0.427171
-0.664214 0.357894 -0.46772
-0.0714977 0.873896 -1.15772
-0.351845 0.561089 -0.90115
-0.605954 0.865153 -1.16095
0.746735 0.824747 -0.676832
0.973849 0.764766 -0.250377
0.0929673 1.31333 -1.34657
0.403405 1.03589 -1.1007
1.13905 1.51037 -0.623117
0.854757 1.29211 -0.898874
0.804719 1.73069 -1.047
1.25149 1.09018 0.0033667
1.24933 1.93695 -0.383496
1.31831 1.51638 -0.223869
1.34443 1.50233 0.257093
1.26726 1.93411 0.430987
0.0960147 1.7223 1.50276
0.53057 1.99418 1.30698
0.0612881 2.25139 1.4488
-1.42759 0.760906 0.786738
-1.1249 0.950851 1.19932
-1.55365 1.2753 1.01668
-1.05327 1.01485 -1.10992
-1.3814 0.819714 -0.710652
-1.51849 1.33189 -0.944643
0.46571 2.06649 -1.29844
0.0461874 1.80993 -1.48008
-0.0498052 2.46601 -1.51362
1.18283 2.38485 0.236028
1.16524 2.4029 -0.236366
0.947204 2.85525 -0.0269865
-1.4511 3.50939 -0.00545445
-1.41044 3.46395 0.28879
-1.24928 3.6039 0.063752
-1.64275 3.15663 0.599889
-1.5294 3.32751 0.460097
-1.73428 3.17794 0.370871
-1.05739 3.5149 0.556079
-1.31643 3.42433 0.530823
-1.19603 3.36495 0.738321
-1.76537 2.27686 1.05588
-1.78149 2.50587 0.980571
-1.91233 2.3706 0.835637
-1.44475 2.74822 1.17657
-1.63132 2.63078 1.09073
-1.47306 2.51614 1.257
-1.87575 2.80539 0.635494
-1.76746 2.7296 0.87967
-1.73262 2.92746 0.761184
-0.599809 3.03787 1.18466
-0.84752 3.00587 1.21564
-0.671359 2.86132 1.3074
-1.0763 3.25674 0.942846
-0.960857 3.14109 1.09196
-0.867135 3.32888 0.912713
-1.07834 2.72918 1.34553
-1.05112 2.93829 1.23243
-1.2298 2.8631 1.22416
-1.53992 3.07314 0.842833
-1.38522 2.9773 1.06064
-1.3119 3.18241 0.907151
-0.998705 3.697 0.090972
-1.10304 3.70697 -0.176278
-0.805267 3.57789 0.542069
-0.902016 3.65195 0.332127
-0.628773 3.81498 -0.120484
-0.745814 3.76113 0.0936608
-0.508942 3.7836 0.0928296
-0.35368 3.0418 1.13767
-0.475301 3.19669 1.03255
-0.199529 3.46322 0.65794
-0.326076 3.3407 0.84554
-0.0595565 3.29518 0.800559
-0.596299 3.34815 0.895062
-0.712557 3.46548 0.745845
0.232568 3.60471 -0.127926
0.119202 3.63586 0.0663375
0.320268 3.51765 0.0287539
-0.27023 3.768 0.0751022
-0.0657145 3.7143 0.0741855
-0.186717 3.78414 -0.120688
0.153498 3.46681 0.420085
0.036925 3.61304 0.253527
-0.0567705 3.55564 0.446742
-0.555835 3.61714 0.50816
-0.288735 3.60349 0.485202
-0.408925 3.72003 0.281535
-1.04643 3.74085 -0.416882
-1.26837 3.6623 -0.441412
-0.525473 3.82556 -0.344025
-0.804805 3.80023 -0.391804
-1.11532 3.67956 -0.828471
-0.988678 3.73484 -0.657691
-0.892902 3.70913 -0.839203
0.317265 3.55019 -0.307681
0.155283 3.65465 -0.307876
-0.0416959 3.65795 -0.703744
0.0643361 3.67486 -0.500482
0.15588 3.56114 -0.687044
-0.0583812 3.75104 -0.310772
-0.264591 3.80489 -0.325682
-0.6443 3.2443 -1.46712
-0.549707 3.3961 -1.31799
-0.426099 3.21476 -1.42215
-0.790024 3.63629 -1.04773
-0.651466 3.53329 -1.18816
-0.909184 3.55043 -1.19781
-0.0750005 3.44883 -1.0677
-0.378234 3.51755 -1.1427
-0.179883 3.59832 -0.930552
-0.426855 3.7962 -0.561485
-0.293723 3.71912 -0.755971
-0.637049 3.73407 -0.828345
-1.40906 3.58439 -0.556796
-1.48495 3.53017 -0.326418
-1.24082 3.59133 -0.992778
-1.33275 3.6007 -0.79186
-1.71343 3.30133 -0.558465
-1.55052 3.45825 -0.696655
-1.65847 3.30465 -0.807466
-0.739873 3.07082 -1.56654
-0.842122 3.22147 -1.50011
-1.23989 3.07454 -1.4596
-1.0411 3.16461 -1.50464
-1.08607 2.93532 -1.56809
-0.977407 3.37932 -1.37753
-1.11023 3.50565 -1.22008
-1.84563 2.45177 -0.917449
-1.74478 2.66063 -1.08039
-1.72736 2.39242 -1.10069
-1.73487 3.07594 -0.937581
-1.7515 2.88218 -1.01434
-1.84547 2.92717 -0.781594
-1.45267 2.69745 -1.40077
-1.61046 2.81264 -1.23118
-1.45326 2.9358 -1.35684
-1.38485 3.4594 -1.19619
-1.42496 3.18472 -1.28711
-1.60017 3.27981 -1.07708
-1.61545 3.40591 -0.134013
-1.84563 3.12165 -0.402375
-1.74633 3.27729 -0.261066
-1.7657 3.22609 0.0666362
-1.86524 3.0533 0.24821
-1.9321 2.21454 -0.721717
-1.95528 2.45775 -0.676251
-2.09107 2.40447 -0.160817
-2.04197 2.43082 -0.41816
-2.08664 2.15812 -0.239921
-1.95288 2.70118 -0.612341
-1.92171 2.89692 -0.539257
-2.00661 2.3713 0.629782
-1.99296 2.13835 0.698775
-1.94902 2.83225 0.405917
-1.9964 2.60667 0.521468
-2.10469 2.14837 0.267731
-2.07437 2.37714 0.385251
-2.1037 2.38663 0.143285
-1.97357 2.88665 -0.217169
-2.06263 2.63826 -0.023064
-1.98796 2.85981 0.11329
0.447673 3.36148 0.192164
0.4997 3.37387 -0.00722939
0.298927 3.26615 0.598069
0.372833 3.33105 0.405096
0.790318 2.99373 0.295613
0.601699 3.1591 0.371308
0.731561 2.95671 0.506447
-0.226824 2.79973 1.27723
-0.0743514 2.93674 1.14322
0.37926 2.71052 1.10081
0.177714 2.82138 1.12881
0.2522 2.58648 1.24193
0.0709134 3.06609 0.978934
0.182243 3.16913 0.812965
1.08199 2.15064 0.730128
0.943295 2.31795 0.845433
0.976148 2.0865 0.906759
0.843997 2.72696 0.64078
0.903986 2.53944 0.740171
0.987964 2.59402 0.536786
0.653855 2.35682 1.11481
0.786428 2.44796 0.949532
0.606483 2.5814 1.0283
0.430492 3.04253 0.769643
0.531901 2.81822 0.908611
0.649934 2.89521 0.712462
-0.69302 2.65105 1.414
-0.486948 2.69404 1.37685
-1.09309 2.50451 1.42938
-0.920598 2.57641 1.43639
-0.418468 2.28129 1.52281
-0.700462 2.42375 1.49289
-0.656786 2.20334 1.5432
-1.76047 1.98363 1.05788
-1.63727 2.13309 1.19065
-1.3067 1.83601 1.38688
-1.4797 1.99264 1.30774
-1.4396 1.67091 1.26601
-1.48184 2.26723 1.30302
-1.32238 2.38016 1.37828
-0.352456 1.25459 1.47871
-0.584326 1.35447 1.49534
-0.552429 1.13044 1.42977
-0.621332 1.90848 1.56899
-0.586814 1.65056 1.55354
-0.359041 1.78544 1.57028
-1.01393 1.33688 1.38717
-0.830689 1.47611 1.48272
-1.05436 1.64531 1.4545
-1.11472 2.24327 1.47982
-1.09561 1.97397 1.49104
-0.895326 2.09175 1.53509
-1.99605 1.90939 0.639134
-1.90164 1.89554 0.838987
-2.0934 1.90199 0.146583
-2.06286 1.90206 0.389015
-1.84719 1.41685 0.666887
-1.97463 1.64009 0.528094
-1.92225 1.38985 0.420191
-1.83739 1.94912 -0.83051
-1.94867 1.92242 -0.611312
-1.88987 1.39529 -0.395156
-1.93455 1.64991 -0.501755
-1.79855 1.39948 -0.611263
-2.03069 1.90513 -0.374056
-2.0785 1.89665 -0.139959
-1.45029 0.57837 0.114835
-1.60885 0.74013 -0.00705275
-1.45082 0.586723 -0.129658
-1.82047 1.10354 0.269519
-1.72346 0.914737 0.138919
-1.68352 0.927289 0.429842
-1.65759 0.936586 -0.392646
-1.71223 0.919173 -0.150489
-1.80351 1.12353 -0.271944
-2.04304 1.63464 0.00204464
-1.9415 1.36981 -0.140573
-1.95353 1.36306 0.141356
-1.57683 2.28015 -1.25682
-1.68703 2.10983 -1.07673
-1.28009 2.57606 -1.52216
-1.43785 2.44543 -1.40793
-1.39183 1.81029 -1.25752
-1.41526 2.15352 -1.36313
-1.2384 2.00172 -1.42081
-0.55362 2.92203 -1.59118
[...]
POINT_DATA 642
SCALARS Mean_Curvature double 1
LOOKUP_TABLE default
0.83736
1.30406
1.159
1.43064
1.02869
0.595218
1.06528
1.55835
1.03923
1.16849
0.722948
1.35409
1.33599
1.44192
1.19003
0.64948
1.38962
1.28212
1.86395
1.51262
1.32477
0.979167
1.01123
1.10763
0.819823
1.00309
1.00478
0.98413
0.815062
0.692721
0.929475
0.592015
1.47382
1.12882
1.34419
1.15485
0.828757
1.42039
1.40362
1.01167
1.70592
1.1757
1.19811
1.24913
0.807076
1.38966
1.40072
1.32593
1.14445
1.30901
1.22147
1.17138
1.03674
0.785606
0.984175
1.43824
1.33004
1.21713
1.23447
1.45813
1.46233
1.45862
1.71074
1.37
1.17572
1.44859
1.27621
1.72655
1.68232
1.09772
1.25314
1.23943
1.10628
0.969092
0.953044
1.12634
1.09667
1.00212
0.920018
0.88794
0.90637
1.18748
1.06767
1.14935
1.2542
0.817652
1.18887
1.42658
1.02467
0.892531
0.832043
1.09116
0.946242
0.96787
1.00405
1.51026
1.02796
1.78015
1.32734
0.713034
1.34717
1.47315
0.915912
0.88253
0.790874
1.30915
1.09683
1.27341
1.21189
0.94123
0.733542
1.02775
2.32039
1.44669
1.26859
1.12856
1.11582
1.36807
1.13811
1.14879
1.02701
0.974469
0.997786
1.55325
1.28765
1.21147
0.946407
1.00323
1.1517
1.16941
1.12444
1.29777
1.07879
1.30091
1.02473
1.17274
1.56712
1.02034
1.2352
1.11213
1.0891
1.03614
1.52815
1.16856
1.43832
1.75514
1.19245
1.0903
1.09596
1.0284
1.41867
1.70741
0.998987
1.04692
1.34912
0.915175
0.885923
0.947494
0.758194
1.17051
1.08425
1.01175
0.952319
0.989981
0.794363
1.29794
1.32169
1.26535
1.06951
1.175
1.16907
1.36348
1.36875
1.43306
1.36981
1.44255
1.34194
1.30226
1.31153
1.32833
1.05633
1.21807
1.07061
1.26883
1.233
1.20711
1.35436
1.31676
1.4127
1.3507
1.36026
1.24916
0.89641
0.854528
0.94154
0.96304
1.2679
1.14265
1.33066
0.728143
0.880331
1.00278
0.635041
0.787499
1.04527
1.02509
1.37184
1.37593
1.24039
1.41666
1.39128
1.44699
0.965322
1.32286
1.19465
1.14597
1.22294
1.33749
0.96845
1.26635
1.19995
1.1524
1.67253
0.85199
0.833875
1.40286
1.44959
1.37458
1.48417
1.35216
1.44985
1.40497
1.76576
1.01017
1.04187
1.24866
0.964477
1.81139
1.18095
1.32285
1.26564
1.2978
1.29879
1.3299
1.42101
1.17483
1.76371
1.62392
1.30713
1.36383
1.31874
1.69741
1.9696
1.57855
2.13607
1.73175
1.85614
1.7413
1.05274
1.22033
1.16444
1.42058
1.29749
1.24864
1.34818
1.25698
1.36692
3.90445
1.08729
2.5962
1.02064
1.0787
1.03694
1.10657
1.27084
0.870175
0.813035
1.01849
1.01132
1.00974
1.05338
1.03027
1.2645
1.31446
1.30644
1.3108
1.19658
1.13452
1.12648
1.0453
1.09723
1.23022
0.711017
1.0477
0.907987
0.93483
0.99975
1.00759
1.01271
0.801601
0.802624
1.00218
0.874077
0.948225
0.847303
0.895858
1.15305
1.17596
1.13499
1.11639
1.11181
1.1479
1.05921
1.13111
1.04342
0.991769
1.00877
1.06961
0.995801
0.71724
1.34883
1.24447
0.921598
0.815191
0.901452
1.3545
1.22107
1.11408
1.24865
0.845374
1.2207
1.4139
0.95684
0.865349
0.932696
0.993992
0.903366
0.940889
0.68735
0.866274
0.869344
1.45148
1.24855
1.07615
1.20656
1.3341
1.03869
0.942047
1.00359
1.02349
1.01314
0.886434
0.910416
1.02032
0.954558
0.986734
0.900456
0.966461
1.43993
1.50509
1.60152
0.992337
0.866798
0.851877
0.962698
0.960396
1.03086
1.13154
1.01247
1.04307
1.16707
0.55117
1.44583
1.24599
0.680688
1.11368
0.548921
1.40798
1.53359
1.29592
1.43294
1.244
1.61265
1.6092
0.991134
0.859117
0.926962
0.755086
0.784714
0.771217
0.859323
0.874157
0.875931
1.44303
1.31291
1.26164
1.22306
1.00398
1.11558
1.09457
1.04876
1.22984
1.16127
1.27556
1.34354
1.43472
1.32003
0.742401
1.30674
1.22523
0.988043
0.983496
1.02409
0.654652
0.837877
0.80949
0.955624
0.927379
0.84258
1.23302
1.36207
1.29906
1.17807
1.26256
1.36857
1.55117
1.24354
1.95093
1.35541
1.1981
1.30384
1.14554
1.105
1.16324
1.08673
1.10798
1.09065
1.66347
1.26705
1.49934
1.11473
1.26145
0.992853
1.19182
1.15767
1.19286
1.10834
1.10882
1.06996
1.4274
1.0862
1.14506
1.10278
1.17775
1.23814
1.13237
0.874951
0.937792
0.842406
1.46253
1.55298
1.20202
1.5234
1.35198
1.28782
1.19832
1.34038
1.21511
1.10781
0.837365
1.04266
0.857727
0.93183
1.00343
1.07094
1.14758
1.11846
0.915713
1.13293
1.38997
0.915105
1.0183
1.30806
1.26821
1.27604
1.36417
1.24741
1.20582
1.19799
1.23072
1.00875
0.929429
1.09844
1.06337
1.08249
1.20805
1.10112
1.20798
1.49937
1.26465
1.37866
1.12927
1.24459
1.15114
1.37299
1.37897
1.20937
1.17889
1.57536
1.38686
1.33866
1.06404
1.0091
1.07861
0.989728
0.986554
1.08029
1.22987
1.07749
1.05478
1.01867
1.21688
1.0591
1.34172
1.01115
1.04792
1.03431
1.209
1.16414
1.21401
1.33591
1.72515
1.50361
1.50755
1.42791
1.12038
1.12597
1.1828
1.14272
1.18261
1.18275
1.70041
1.15659
1.19779
1.701
1.68589
1.13298
1.25671
1.22654
1.79304
1.73544
1.92627
1.09045
1.10364
1.0635
1.0666
1.00765
1.1566
1.04807
1.1312
1.10086
1.15258
0.791857
1.03354
0.876584
0.910924
0.971154
1.1933
1.06315
1.09723
1.16137
3.29187
2.6462
1.39013
0.883682
1.43104
0.845486
1.07276
1.49031
1.46325
1.0414
1.01394
1.01692
0.983318
0.931096
1.61227
1.02898
1.03682
0.952319
1.53408
1.13365
0.905407
0.680354
1.81403
0.921188
1.73425
1.5124
1.53451
0.929899
0.719444
0.857077
0.949616
0.955767
1.35604
0.922269
0.800953
0.965879
0.957871
0.947398
0.931664
0.762751
0.931165
0.888784
0.895007
0.895627
0.920503
0.931683
0.601741
0.925078
0.972984
0.771958
0.933053
0.889065
0.812942
1.16987
1.1993
1.16743
1.18847
1.11167
1.10931
1.00434
1.08166
1.12008
1.19272
0.745909
1.05443
0.929884
0.959334
0.965259
1.18279
1.03415
1.10532
SCALARS Redistribution_Potential double 1
LOOKUP_TABLE default
3.25011e-12
-0.395035
0.0681751
-0.133801
-0.199115
-0.447422
-0.202604
0.179611
-0.46441
-0.492722
0.0672927
-0.057427
-0.0433845
-0.169223
-0.253354
-0.496604
-0.17239
-0.13927
0.288806
0.30625
0.15379
-0.0081065
-0.585026
-0.607247
-0.135956
-0.393964
0.0255718
0.00360755
-0.0770178
-0.0457287
-0.494537
-0.303266
-0.215437
-0.380047
-0.126653
0.0251507
-0.0633609
0.0240861
-0.155777
-0.3439
-0.218401
-0.444152
-0.0350582
-0.122148
-0.149682
-0.0991012
-0.102079
-0.0535711
-0.35312
-0.214057
-0.309417
-0.230554
-0.0803367
-0.5039
-0.382803
-0.263994
-0.325594
-0.441324
0.0369447
0.167922
-0.274309
-0.127072
0.299596
0.105837
0.0268012
0.264694
0.108167
0.323559
0.379218
0.135
0.2515
0.196626
0.0298825
0.0234091
0.0463325
-0.013037
-0.0346769
-0.589045
-0.546798
-0.558078
-0.59517
-0.577912
-0.612839
-0.561099
-0.283417
-0.437271
-0.087019
-0.142132
-0.310683
-0.254144
-0.158409
-0.0156375
-0.0468848
0.00572954
0.000229605
0.0822651
0.029477
0.113707
0.151074
0.0338547
0.0908631
0.191787
-0.134392
-0.0317723
-0.205833
-0.182583
-0.0728096
-0.43728
-0.315013
-0.437618
-0.398987
-0.504835
-0.157811
-0.17081
-0.126913
-0.4425
-0.306606
-0.337102
-0.155611
-0.239337
-0.299803
-0.0892403
-0.115825
-0.0295635
-0.0527204
0.0146709
-0.019943
0.0387079
-0.098636
-0.143658
0.0699487
-0.0100169
-0.190025
-0.0818883
-0.101362
-0.200927
-0.146722
-0.278859
-0.2538
-0.355145
-0.318591
-0.403546
-0.179035
-0.455511
-0.310235
-0.281195
-0.464314
-0.410924
-0.501858
-0.507396
0.0573359
0.00934361
-0.0452502
-0.0361
0.0741944
-0.00948451
-0.372052
-0.281629
-0.187144
-0.556381
-0.534828
-0.570924
-0.0263077
-0.0881195
-0.0780361
-0.0753088
-0.0797127
-0.0379754
-0.202675
-0.137201
-0.187216
-0.0761959
-0.0753074
-0.0523228
-0.135998
-0.0977803
-0.128653
-0.0504624
-0.0766107
-0.0745813
-0.408592
-0.3229
-0.389345
-0.234293
-0.279265
-0.293718
-0.238035
-0.252331
-0.192286
-0.109829
-0.150926
-0.16833
-0.127184
-0.036138
-0.259685
-0.198184
-0.125973
-0.165007
-0.200318
-0.481336
-0.434278
-0.436445
-0.448637
-0.509134
-0.375244
-0.318413
-0.340586
-0.351861
-0.416658
-0.242898
-0.296175
-0.21334
-0.472488
-0.380253
-0.411347
-0.302289
-0.356347
-0.268057
0.03521
0.0906862
-0.0875139
-0.0171029
0.225572
0.110722
0.155899
-0.327755
-0.267239
-0.127931
-0.195389
-0.198815
-0.200358
-0.145386
0.253249
0.172761
0.111607
0.206641
0.190256
0.316544
-0.0650507
0.0783641
-0.0408105
-0.0494609
-0.0377471
0.0900342
0.150531
0.071394
0.307119
0.237776
0.140229
0.194032
0.207018
0.272756
0.350567
0.356819
0.395153
0.336859
0.378615
0.361669
0.101066
0.171322
0.123005
0.211409
0.195204
0.150072
0.247896
0.230706
0.288405
0.321009
0.312535
0.266672
0.0253015
0.0881511
0.0610295
0.003221
-0.00999331
0.0429429
0.0654276
0.0138738
0.0375092
0.00663824
0.0875181
0.0958966
-0.0395812
-0.0420973
-0.0228086
-0.0318816
-0.0188235
-0.0253321
-0.00783096
0.0465585
0.0152138
0.0094584
-0.508373
-0.476436
-0.551513
-0.531681
-0.593254
-0.575663
-0.607294
-0.514059
-0.544255
-0.59974
-0.583591
-0.579717
-0.561062
-0.562764
-0.536432
-0.571965
-0.529712
-0.613783
-0.60175
-0.601091
-0.577972
-0.592882
-0.603021
-0.597051
-0.611387
-0.613431
-0.37758
-0.446049
-0.223419
-0.289126
-0.424785
-0.362183
-0.352282
-0.0699386
-0.0957126
-0.145657
-0.115225
-0.116298
-0.124292
-0.153491
-0.249692
-0.234312
-0.177458
-0.323704
-0.292727
-0.361125
-0.148225
-0.21181
-0.189902
-0.198511
-0.196452
-0.267397
-0.0368075
-0.0475336
-0.0152148
-0.0283094
-0.0279726
-0.0291882
-0.0111753
0.0240142
0.013142
0.00885397
0.00258041
0.00646693
0.00253802
-0.00503422
0.07829
0.0939092
0.0952744
0.0206797
0.0520556
0.0374864
0.0639535
0.0622084
0.0319493
-0.00228181
0.00936196
0.00373709
0.122275
0.0570264
0.238818
0.185662
0.000942643
0.0953079
0.0371459
0.139806
0.209368
0.0880007
0.150183
0.0320533
0.258236
0.274502
-0.174594
-0.167644
-0.214398
-0.0406809
-0.11218
-0.089225
-0.162688
-0.127277
-0.0447789
0.191606
0.0966583
0.0869528
-0.0200315
0.0444403
-0.163247
-0.0948139
-0.189855
-0.134908
-0.237893
-0.415308
-0.35642
-0.392803
-0.37697
-0.466569
-0.292941
-0.227865
-0.465531
-0.474909
-0.486883
-0.350919
-0.430681
-0.386192
-0.508233
-0.472111
-0.447225
-0.244204
-0.335994
-0.27948
-0.144806
-0.145627
-0.129661
-0.187675
-0.16632
-0.18176
-0.124857
-0.149082
-0.156185
-0.467078
-0.400304
-0.418617
-0.352021
-0.37378
-0.418711
-0.260471
-0.322346
-0.247272
-0.173733
-0.219778
-0.245651
-0.178081
-0.203557
-0.139736
-0.34472
-0.271464
-0.316501
-0.221321
-0.278226
-0.205306
-0.119434
-0.124995
-0.100433
-0.109608
-0.095564
-0.103261
-0.0788368
-0.0999628
-0.0859998
-0.0124263
-0.0330037
0.00897713
-0.0915775
-0.0957337
0.0520636
0.030338
0.0551799
-0.039906
-0.00548719
-0.0270165
0.0287918
0.0116124
0.00207148
-0.0680619
-0.0316644
-0.0547984
-0.125202
-0.132177
-0.081881
-0.107742
-0.148644
-0.122498
-0.123466
0.0792551
0.0436929
0.00669827
0.027382
0.0517893
-0.000998964
-0.0392619
-0.200603
-0.143163
-0.162434
-0.128992
-0.136926
-0.170389
-0.0288136
-0.0805362
-0.0292372
-0.0595402
-0.042542
-0.0900053
-0.147382
-0.142591
-0.184481
-0.169148
-0.172118
-0.171021
-0.211471
-0.24074
-0.241223
-0.303034
-0.276789
-0.313876
-0.226267
-0.200895
-0.429538
-0.391642
-0.441437
-0.275837
-0.339934
-0.287302
-0.378781
-0.366717
-0.340223
-0.226714
-0.285389
-0.251065
-0.151075
-0.181043
-0.16229
-0.162977
-0.191656
-0.462649
-0.411172
-0.373939
-0.393613
-0.447836
-0.335029
-0.248517
-0.399954
-0.473891
-0.2335
-0.298249
-0.452872
-0.37089
-0.372064
-0.212603
-0.281376
-0.202709
-0.31128
-0.400206
-0.363179
-0.36727
-0.414573
-0.507755
-0.550644
-0.53453
-0.48084
-0.442752
-0.509736
-0.456334
-0.489237
-0.541604
-0.554621
-0.453597
-0.510933
-0.461738
0.0674849
0.0452419
0.0504965
0.0657979
0.0237509
-0.0765212
-0.0819776
-0.0723528
-0.00652705
0.0383388
-0.0654663
-0.0165293
-0.0495899
-0.0779933
-0.0859648
0.0508479
-0.0260275
0.00948928
-0.124959
0.0135046
-0.0615464
-0.0872321
-0.0646874
0.124027
0.0500246
0.110236
0.100458
0.0718377
0.0128568
-0.0331527
-0.00782232
-0.000841439
0.0113279
0.0354578
0.021578
-0.0197205
-0.434783
-0.367911
-0.402164
-0.407321
-0.353247
-0.252072
-0.203101
-0.241438
-0.293204
-0.327365
0.00636263
-0.2436
-0.124608
-0.0351108
-0.124374
-0.325785
-0.250165
-0.300961
-0.530893
-0.507795
-0.521178
-0.569225
-0.591326
-0.498188
-0.536265
-0.52268
-0.501986
-0.500934
-0.502295
-0.592926
-0.567265
-0.522678
-0.536127
-0.544139
-0.559884
-0.57719
SCALARS CoVolArea double 1
LOOKUP_TABLE default
0.0488401
0.0295266
0.0345098
0.0430164
0.0336522
0.0418614
0.0323122
0.0316914
0.0335493
0.0409924
0.0490311
0.0479798
0.0561721
0.0538383
0.0562316
0.0616081
0.0505734
0.0509019
0.0477782
0.054304
0.0600282
0.0680621
0.0539564
0.0529681
0.0707754
0.0655731
0.0622597
0.0732267
0.0716341
0.081631
0.0628233
0.0643404
0.0523789
0.0618788
0.0656117
0.065635
0.0811102
0.0622818
0.0582126
0.0593953
0.04966
0.0501601
0.0669329
0.0597858
0.0692403
0.050914
0.0589679
0.0555506
0.0556178
0.0516791
0.0491914
0.0583627
0.0627957
0.0659089
0.0612133
0.0444845
0.0502133
0.0503571
0.0656389
0.0463302
0.0426755
0.0544755
0.0489444
0.0670036
0.063514
0.0610147
0.0545981
0.0396611
0.0606469
0.0611923
0.0583046
0.0586885
0.0731004
0.0688312
0.0724467
0.0673356
0.0564196
0.0600897
0.0579431
0.0601825
0.061831
0.0517824
0.055396
0.051114
0.0541609
0.0593887
0.0614727
0.0586046
0.0643246
0.0741311
0.0592792
0.0738275
0.0622057
0.068522
0.0701934
0.0645672
0.0713774
0.0553737
0.0589748
0.0699614
0.0384362
0.0467621
0.0674955
0.0775956
0.0657188
0.0555564
0.0552788
0.045475
0.0526389
0.0611357
0.0667792
0.0553179
0.0610846
0.0634743
0.063752
0.0532926
0.0603819
0.047218
0.0623133
0.0696433
0.062588
0.0787354
0.0628492
0.0546305
0.0687925
0.0668239
0.0737861
0.0633854
0.0712368
0.0588266
0.0561215
0.0677616
0.0613341
0.0628306
0.0535033
0.0627132
0.0520764
0.0545345
0.0601461
0.0535658
0.0603136
0.060181
0.0560097
0.0499893
0.0477692
0.0472144
0.0510238
0.0585759
0.0603872
0.0599795
0.0611148
0.0571893
0.071593
0.0610381
0.057371
0.0739287
0.069185
0.066969
0.0788281
0.0547523
0.0606371
0.0610597
0.0608229
0.0641071
0.0651945
0.0598413
0.0573469
0.0603262
0.0629872
0.0601724
0.0611098
0.0546452
0.0541005
0.0551503
0.0559942
0.0530629
0.0497991
0.0545414
0.0545075
0.05879
0.0479714
0.0496732
0.046226
0.0542119
0.0496684
0.0529291
0.0474358
0.0454276
0.0509896
0.0650837
0.0605859
0.0629549
0.0674301
0.062177
0.0625829
0.0638136
0.0606392
0.0594467
0.0524465
0.059423
0.0571016
0.0569265
0.0599592
0.0622766
0.0592748
0.0599012
0.0397831
0.0447454
0.0443661
0.0472163
0.0418826
0.0414886
0.0519406
0.0424159
0.0525701
0.0655181
0.0601903
0.0579815
0.0590885
0.0564811
0.0642915
0.0659923
0.0433509
0.0529176
0.0527522
0.0343665
0.0415125
0.0521194
0.0476273
0.0481176
0.0450971
0.0521997
0.0401818
0.054275
0.0504093
0.052263
0.051393
0.0483792
0.0594508
0.0624832
0.0639541
0.0688282
0.0718978
0.0713946
0.0501909
0.053613
0.0568579
0.0483538
0.0591557
0.0545343
0.0604003
0.0364387
0.0430339
0.0567112
0.0478812
0.0447996
0.0508989
0.0564371
0.060651
0.0601532
0.0587288
0.0573198
0.0513245
0.0519991
0.0522626
0.0532804
0.0582293
0.0721255
0.0687101
0.0701416
0.0631777
0.071781
0.0645732
0.0667108
0.0634926
0.0673961
0.0690063
0.0715643
0.0682542
0.0657409
0.062899
0.067081
0.0552029
0.0526416
0.063105
0.0587311
0.0619399
0.0595253
0.0676581
0.0817959
0.0779916
0.0775935
0.0573147
0.0457259
0.0653278
0.0580338
0.0587672
0.0592223
0.0572174
0.0656692
0.0683832
0.0574119
0.0596917
0.0515313
0.0656621
0.0654127
0.0514359
0.0528477
0.0515237
0.0514355
0.0493176
0.045837
0.0506853
0.0508529
0.0576285
0.0652295
0.0628058
0.0600555
0.0534416
0.0575445
0.0535135
0.0481241
0.0604039
0.0532631
0.0656339
0.0536487
0.0535673
0.0698176
0.0586319
0.0683899
0.0509484
0.055479
0.0504527
0.0643865
0.0506718
0.0698627
0.0717879
0.0618163
0.064151
0.0704287
0.0762549
0.0617446
0.0710292
0.0684282
0.0586114
0.0540549
0.0705966
0.0655276
0.0727255
0.0683657
0.0772358
0.0715705
0.0696474
0.0684805
0.0662577
0.0640545
0.0665416
0.0698368
0.0546786
0.0624419
0.0538027
0.0740322
0.0631186
0.0618672
0.0530267
0.0586664
0.0672661
0.0794107
0.078012
0.0824298
0.0640356
0.0667973
0.0560831
0.0556713
0.0748497
0.0641013
0.0745337
0.037909
0.0361871
0.0556268
0.0385692
0.0521857
0.0396698
0.0497114
0.0494581
0.0646169
0.0518177
0.0824479
0.0755144
0.0756895
0.0720826
0.0740527
0.0753867
0.0587317
0.0668608
0.0712579
0.0575278
0.0471761
0.0545241
0.0566919
0.0606735
0.0564514
0.0583342
0.0416812
0.0396004
0.0549471
0.04352
0.0503181
0.0480443
0.0519369
0.0511284
0.0592395
0.051237
0.0621519
0.0617158
0.0599933
0.0589387
0.0603356
0.0667099
0.0598802
0.065134
0.0640476
0.0534091
0.0612243
0.0538572
0.0591133
0.0589053
0.0570193
0.0639999
0.0607805
0.0654498
0.0528831
0.0521461
0.0501277
0.0620844
0.0536824
0.056758
0.0451472
0.0502866
0.0570121
0.0504442
0.0596892
0.0507722
0.0655492
0.0615657
0.0640223
0.0596677
0.0631984
0.0671471
0.0711036
0.0756572
0.0750578
0.0628256
0.0539273
0.0731173
0.0683702
0.074369
0.071558
0.0848299
0.0501813
0.0563958
0.0682485
0.0606235
0.0596359
0.0627093
0.0689055
0.0568075
0.0686445
0.0566421
0.0801162
0.0673299
0.0672437
0.0580288
0.0645065
0.0688852
0.0818872
0.0784386
0.0873653
0.0615959
0.0594905
0.0768239
0.0682523
0.0584517
0.0632349
0.0663362
0.0490523
0.059235
0.065839
0.0604192
0.0597697
0.0619873
0.0725695
0.0506491
0.0576973
0.0481587
0.0631426
0.058679
0.0574384
0.0537213
0.0531294
0.0611702
0.0786562
0.0739705
0.0747167
0.0565895
0.0524468
0.0612227
0.0577077
0.052994
0.0561715
0.0576691
0.0484195
0.0542801
0.0562466
0.0521859
0.0525029
0.0581267
0.0595401
0.0538668
0.0598921
0.0551745
0.054075
0.0497296
0.0433854
0.0551124
0.052534
0.0597573
0.0705208
0.0687945
0.0696142
0.0554688
0.0532859
0.0541251
0.059024
0.056145
0.0482179
0.0515787
0.0441251
0.0455672
0.0479927
0.0467712
0.0497311
0.0479127
0.0485149
0.0482811
0.0445877
0.0518856
0.0481339
0.0467899
0.0568279
0.0521968
0.0566136
0.0580288
0.0590832
0.0557679
0.0580393
0.060557
0.0547258
0.0575467
0.0514828
0.0540079
0.0628994
0.0643991
0.0620502
0.05967
0.0560999
0.0567214
0.0666759
0.0661697
0.0647781
0.0644541
0.0647089
0.0582821
0.0604694
0.0638265
0.0550755
0.0619609
0.0546184
0.0535834
0.0631271
0.0595133
0.0735175
0.0699968
0.0694507
0.0685397
0.0668255
0.0686376
0.0694275
0.0561219
0.0603473
0.0525269
0.061409
0.0722097
0.0553968
0.0590718
0.0521629
0.0559708
0.0598781
0.0739603
0.0809243
0.0735888
0.0698132
0.0660528
0.0659232
0.0689687
0.0763626
0.0614559
0.0650352
0.058328
0.0600388
0.0720344
0.0583682
0.0740511
0.0627392
0.0583036
0.0616171
0.047213
0.0751961
0.063189
0.0596437
0.0758685
0.074832
0.0815913
0.0824858
0.0524023
0.0557767
0.0516705
0.0494578
0.0529287
0.0545551
0.0637183
0.0547225
0.0544996
0.0569318
0.0542636
0.0574409
0.0600574
0.0575225
0.0625664
0.0627465
0.0662621
0.0613088
SCALARS SignedDistance double 1
LOOKUP_TABLE default
1.555
1.78066
1.08585
1.09885
1.43954
1.96277
1.5586
1.77812
1.63125
1.4896
1.72247
1.15632
1.21116
1.48157
1.6691
1.98388
1.4212
1.45891
1.4237
1.36534
1.25869
1.3235
1.68164
1.69879
1.56706
1.68554
1.3857
1.28763
2.05447
1.77271
1.84838
2.01893
1.17348
1.42266
1.14754
1.1343
1.34009
1.25773
1.28718
1.62092
1.36803
1.52328
1.46367
1.40235
1.61307
1.26459
1.26675
1.14873
1.80355
1.53966
1.76134
1.62527
1.47756
1.95289
1.90128
1.58045
1.70984
1.88733
1.44831
1.48588
1.58486
1.35847
1.51753
1.50718
1.6293
1.13961
1.32867
1.53742
0.952915
1.4376
1.21969
1.46113
1.34518
1.49716
1.44738
1.25885
1.26161
1.81604
1.89344
1.79358
1.78613
1.58581
1.65784
1.57323
1.76119
1.87341
1.40351
1.47547
1.5459
1.71942
1.58598
1.2517
1.33978
1.48297
1.36875
1.28852
1.28995
1.27672
1.73557
1.79761
1.92371
1.76272
1.63244
1.94031
1.71779
1.70629
1.90516
1.86263
1.68325
1.79852
1.93736
1.72372
0.284507
1.16586
1.12794
1.465
1.3936
1.41203
1.26799
1.31492
1.42413
1.28332
1.26814
1.28413
1.12079
1.26572
1.27352
1.13874
1.24429
1.21156
1.1888
1.23761
1.44509
1.28641
1.48382
1.33657
1.13665
1.57737
1.47017
1.52921
1.51727
1.6295
1.15868
1.55176
1.46999
1.40663
1.4904
1.52966
1.55942
1.70778
1.1983
1.45361
1.40324
1.64371
1.50332
1.5788
1.80742
1.72972
2.07447
1.62097
1.64449
1.7757
1.52655
1.55813
1.55716
1.30445
1.42395
1.30975
1.6402
1.52247
1.52014
1.20552
1.16159
1.12342
1.37089
1.23933
1.35642
1.16345
1.18755
1.20947
1.90422
1.75597
1.88957
1.57964
1.66193
1.71126
1.63492
1.63478
1.51859
1.32205
1.40455
1.45054
1.54096
1.5334
1.72256
1.61921
1.40331
1.52423
1.49878
1.9591
1.95861
1.95288
2.0021
1.97044
1.88007
1.80877
1.70237
1.73195
1.8271
1.55253
1.63966
1.49042
1.94965
1.79214
1.86853
1.75533
1.80417
1.63256
1.54978
1.52144
1.34803
1.43503
1.46024