# vtk DataFile Version 4.2
vtk output
ASCII
DATASET POLYDATA
POINTS 642 double
-1.34792 3.66984 -0.157414
0.418666 3.56705 -0.123424
-1.35262 0.451858 -0.00757307
0.726102 0.462369 0.00262823
-0.35677 1.05603 1.47879
-0.489789 2.9408 1.32491
-0.333781 1.13684 -1.41534
-0.538332 3.14136 -1.58199
1.09954 2.00582 -0.814421
1.15345 1.95976 0.828286
-1.86498 2.24283 -0.980777
-1.93337 2.13488 0.942998
-1.86517 3.03983 0.532321
-1.31744 2.65378 1.37803
-0.963919 3.48726 0.801113
0.0718154 3.44868 0.663411
-0.371468 3.88693 -0.106882
0.0877271 3.58068 -0.900442
-1.01714 3.6942 -1.05972
-1.30451 2.84191 -1.56184
-1.85903 3.14154 -0.69852
-2.17636 2.14712 0.00643108
0.484155 2.51809 1.25246
0.973628 2.82168 0.457207
-1.27078 1.48427 1.39479
-0.379727 2.02907 1.6383
-1.79019 1.1325 -0.534744
-1.82057 1.11094 0.568009
-0.454748 2.25035 -1.69502
-1.22435 1.60303 -1.37224
0.910537 2.92592 -0.514093
0.391681 2.69029 -1.3108
1.23172 1.10267 0.531255
0.5636 1.45449 1.35541
0.278017 0.533866 0.91606
-0.964302 0.512871 0.939992
-0.3429 0.211612 -0.013712
-0.918355 0.572348 -0.896369
0.254297 0.583964 -0.887763
0.513809 1.49055 -1.30719
1.19217 1.12088 -0.509331
1.40399 1.91905 0.00443209
-1.63594 3.41768 0.20684
-1.47331 3.32649 0.706742
-1.17881 3.63202 0.352976
-1.67028 2.41723 1.21954
-1.64261 2.88428 1.02678
-1.96214 2.60625 0.774945
-0.730634 3.23997 1.12408
-1.18875 3.11208 1.15
-0.893606 2.83908 1.40437
-0.663167 3.7771 0.326074
-0.896851 3.84082 -0.138217
-0.182454 3.2243 1.0384
-0.428641 3.54499 0.745969
0.0324215 3.7933 -0.114589
-0.136212 3.74769 0.295045
0.258018 3.57797 0.276536
-0.72558 3.85627 -0.619414
-1.21884 3.74447 -0.668211
0.308992 3.62832 -0.47009
-0.133378 3.82236 -0.536881
-0.756346 3.44882 -1.40802
-0.500867 3.69282 -1.05564
-0.223385 3.39004 -1.3098
-1.50436 3.5143 -0.928275
-1.63826 3.49185 -0.42799
-0.917659 3.0357 -1.64956
-1.20906 3.33798 -1.4075
-1.91872 2.73929 -0.881332
-1.66021 3.04129 -1.19484
-1.63187 2.5796 -1.32945
-1.93012 3.12704 -0.0656239
-2.0889 2.17703 -0.501953
-2.08689 2.67528 -0.349205
-2.11179 2.62493 0.286509
-2.11627 2.14476 0.531139
0.575289 3.17328 0.595608
0.695877 3.25859 0.153049
0.0548738 2.72433 1.33579
0.336292 2.99267 1.01407
1.10979 2.42589 0.663544
0.790479 2.71141 0.87905
0.85471 2.26055 1.09074
-0.905704 2.37824 1.57267
-0.453847 2.49902 1.53873
-1.67952 1.85119 1.21005
-1.35648 2.12098 1.46598
-0.339489 1.50581 1.61295
-0.861749 1.78427 1.60123
-0.804383 1.19754 1.48374
-2.0915 1.6281 0.296562
-1.94137 1.67263 0.798962
-1.8904 1.65154 -0.751517
-2.06652 1.62773 -0.283056
-1.64229 0.713881 0.302826
-1.89265 1.07932 -0.00876817
-1.63681 0.733754 -0.302584
-1.30153 2.29421 -1.55702
-1.58723 1.9405 -1.23484
-0.522703 2.77459 -1.69606
-0.899028 2.60405 -1.72216
-0.755842 1.29623 -1.43885
-0.857716 1.96015 -1.63137
-0.352529 1.59967 -1.57807
0.258688 3.1927 -1.18171
-0.0849009 2.96912 -1.50136
0.683217 3.31019 -0.341481
0.53348 3.3233 -0.736783
0.785427 2.33027 -1.10404
0.700855 2.84128 -0.958928
1.06712 2.45666 -0.683562
1.03549 0.706707 0.268197
0.829758 0.744729 0.743622
0.56566 0.433691 0.444483
0.920884 1.699 1.12618
0.966304 1.23971 0.982241
1.25638 1.49426 0.695717
-0.0685724 0.770198 1.28392
0.460246 0.936044 1.1986
0.0995911 1.23057 1.48185
0.00536724 0.285333 0.497868
0.272069 0.285249 -0.00562411
-0.667258 0.733828 1.28618
-0.348776 0.454279 0.99094
-0.895326 0.261707 -0.00582586
-0.676224 0.280823 0.510937
-1.19525 0.422311 0.509879
-0.0114552 0.309704 -0.496988
0.523599 0.46194 -0.466523
-1.18928 0.448044 -0.446623
-0.672357 0.299012 -0.48659
-0.0599117 0.832906 -1.21306
-0.350464 0.509852 -0.940939
-0.615501 0.824777 -1.21669
0.785184 0.783855 -0.713714
1.01629 0.72445 -0.265865
0.11206 1.2892 -1.41256
0.432832 1.00264 -1.1562
1.202 1.50245 -0.662867
0.903753 1.2713 -0.948963
0.855269 1.7268 -1.10236
1.30984 1.06266 -3.65556e-05
1.32088 1.94732 -0.408394
1.39149 1.51089 -0.242432
1.41657 1.49735 0.268805
1.33876 1.94656 0.452086
0.115264 1.71976 1.57307
0.568119 2.00423 1.37078
0.0820394 2.2711 1.51901
-1.46285 0.731243 0.809832
-1.1527 0.921999 1.25037
-1.59844 1.25209 1.05807
-1.08249 0.981551 -1.16577
-1.42264 0.780097 -0.74645
-1.5627 1.30645 -0.989111
0.50585 2.07009 -1.362
0.0678007 1.80074 -1.54973
-0.0229227 2.47387 -1.58219
1.2543 2.41432 0.247589
1.23663 2.43071 -0.25046
1.01322 2.89909 -0.0261666
-1.48806 3.56476 0.00658063
-1.44386 3.52155 0.307352
-1.27716 3.66443 0.0793017
-1.68572 3.19964 0.627147
-1.5675 3.37808 0.482999
-1.78109 3.22031 0.388278
-1.07654 3.57668 0.587405
-1.34524 3.48179 0.558047
-1.21944 3.42107 0.774848
-1.81392 2.28205 1.09791
-1.83033 2.52076 1.01973
-1.96543 2.37867 0.866652
-1.47926 2.7768 1.22886
-1.67358 2.65216 1.13624
-1.50874 2.53429 1.31218
-1.92855 2.83123 0.660726
-1.81578 2.75412 0.915565
-1.77911 2.9606 0.792943
-0.595485 3.08448 1.24483
-0.85199 3.04989 1.27632
-0.670051 2.90002 1.37293
-1.0938 3.31008 0.98923
-0.971602 3.19074 1.1459
-0.874441 3.38551 0.960406
-1.09495 2.7599 1.41003
-1.0656 2.97873 1.2923
-1.2538 2.89881 1.28163
-1.57831 3.1148 0.880405
-1.41682 3.01673 1.10888
-1.3403 3.23137 0.949921
-1.01803 3.76188 0.107481
-1.12616 3.77068 -0.168311
-0.814504 3.64231 0.575633
-0.917634 3.71719 0.356775
-0.633476 3.88529 -0.112939
-0.756897 3.82968 0.110569
-0.508627 3.85446 0.110382
-0.340377 3.08797 1.19704
-0.466554 3.24938 1.08767
-0.180757 3.52393 0.702756
-0.312339 3.39789 0.895297
-0.0364209 3.35089 0.849131
-0.592828 3.40578 0.944474
-0.71513 3.52716 0.788409
0.272451 3.67148 -0.121087
0.154403 3.70329 0.0835594
0.365052 3.58089 0.0446857
-0.257526 3.83968 0.0928288
-0.0411804 3.78459 0.0918244
-0.169206 3.85632 -0.113623
0.188266 3.5284 0.454629
0.0671683 3.67944 0.280902
-0.031579 3.61977 0.482868
-0.55501 3.6831 0.54429
-0.275329 3.66927 0.522119
-0.402776 3.78948 0.309107
-1.06517 3.80601 -0.417494
-1.29666 3.72338 -0.440346
-0.524963 3.89617 -0.346513
-0.815357 3.86827 -0.393632
-1.13267 3.74191 -0.844902
-1.00226 3.80023 -0.667305
-0.901062 3.77592 -0.859176
0.363103 3.61306 -0.312024
0.191245 3.72217 -0.311792
-0.015028 3.72065 -0.729
0.0959394 3.74064 -0.515776
0.193012 3.62022 -0.712844
-0.0335395 3.82136 -0.314468
-0.251732 3.87647 -0.329379
-0.635089 3.28307 -1.52372
-0.536343 3.44225 -1.36686
-0.407077 3.25271 -1.47835
-0.789822 3.69879 -1.08011
-0.644379 3.58852 -1.2302
-0.912442 3.60289 -1.23584
-0.0473175 3.49871 -1.10982
-0.361539 3.56879 -1.18437
-0.158136 3.65564 -0.965277
-0.41992 3.86522 -0.575062
-0.278691 3.78346 -0.78062
-0.634887 3.79968 -0.851188
-1.44415 3.63899 -0.561011
-1.52297 3.58387 -0.323049
-1.26171 3.64129 -1.01304
-1.36307 3.6546 -0.803798
-1.76341 3.33901 -0.566567
-1.59146 3.50207 -0.705649
-1.70396 3.33825 -0.822108
-0.735878 3.09788 -1.63262
-0.844449 3.25659 -1.55765
-1.26754 3.09455 -1.50986
-1.05635 3.19286 -1.56065
-1.10652 2.95106 -1.63008
-0.98566 3.419 -1.42306
-1.12232 3.54761 -1.25301
-1.90359 2.45344 -0.949611
-1.79895 2.66518 -1.11663
-1.77985 2.38959 -1.14134
-1.78571 3.0971 -0.961169
-1.80582 2.89594 -1.04618
-1.9047 2.94532 -0.80273
-1.49249 2.70251 -1.45145
-1.65793 2.82178 -1.27263
-1.49196 2.94985 -1.40306
-1.39052 3.4662 -1.20187
-1.455 3.2037 -1.32305
-1.61592 3.28963 -1.08654
-1.65964 3.45417 -0.127783
-1.90184 3.15288 -0.408017
-1.79724 3.31763 -0.261001
-1.81497 3.26813 0.0746547
-1.91781 3.08823 0.259508
-1.9916 2.2101 -0.749675
-2.01621 2.46169 -0.700174
-2.15472 2.41059 -0.167491
-2.10477 2.43621 -0.433653
-2.15009 2.15596 -0.250919
-2.01429 2.71298 -0.630924
-1.98211 2.91734 -0.551885
-2.06558 2.37941 0.652278
-2.05114 2.13761 0.724018
-2.00471 2.85739 0.421515
-2.0548 2.62328 0.540412
-2.16784 2.14755 0.275049
-2.13622 2.38449 0.398009
-2.16737 2.39379 0.146908
-2.03379 2.91016 -0.221423
-2.12517 2.6536 -0.0236622
-2.04648 2.88458 0.1186
0.496382 3.42037 0.213262
0.553199 3.43205 0.00396226
0.336481 3.32265 0.637198
0.416207 3.38922 0.435589
0.849373 3.043 0.315329
0.653173 3.21367 0.396804
0.785857 3.0059 0.536662
-0.212048 2.83848 1.34133
-0.0542163 2.98111 1.20258
0.414387 2.74976 1.15816
0.2056 2.86337 1.18746
0.281204 2.6204 1.305
0.0966892 3.11551 1.03234
0.2132 3.22259 0.86036
1.14485 2.17136 0.767803
1.00114 2.34349 0.889625
1.03274 2.10331 0.953878
0.900702 2.76901 0.676241
0.96182 2.57395 0.779977
1.05108 2.63102 0.565962
0.698183 2.38307 1.17194
0.837717 2.4785 0.999193
0.650502 2.61646 1.08202
0.470535 3.09353 0.814174
0.574254 2.86189 0.958034
0.698866 2.94235 0.752863
-0.692869 2.68123 1.48392
-0.478822 2.72723 1.44441
-1.11088 2.52513 1.49677
-0.928867 2.60179 1.50601
-0.412434 2.29829 1.59554
-0.701114 2.44459 1.56551
-0.658828 2.21516 1.61633
-1.80912 1.97795 1.09955
-1.68061 2.13344 1.23975
-1.33712 1.82614 1.44678
-1.51654 1.98768 1.3624
-1.47663 1.65652 1.31935
-1.51832 2.27383 1.35838
-1.35126 2.39287 1.43958
-0.350887 1.23607 1.54482
-0.591196 1.33795 1.56175
-0.558939 1.10736 1.4931
-0.625685 1.90859 1.64078
-0.592134 1.64235 1.62315
-0.356116 1.78304 1.64211
-1.03714 1.31786 1.44837
-0.845536 1.46159 1.54791
-1.0762 1.633 1.51782
-1.1346 2.25151 1.54807
-1.11668 1.97092 1.5586
-0.906574 2.09554 1.60805
-2.05499 1.90071 0.661196
-1.95587 1.88656 0.870229
-2.15648 1.89368 0.149497
-2.12443 1.89341 0.401448
-1.90114 1.39519 0.690939
-2.03273 1.62424 0.546472
-1.97916 1.36788 0.434329
-1.8932 1.93788 -0.865004
-2.00809 1.91225 -0.637282
-1.94759 1.37282 -0.414257
-1.99347 1.6337 -0.524611
-1.85312 1.37678 -0.639955
-2.09271 1.89559 -0.391097
-2.14189 1.88766 -0.14797
-1.4824 0.541034 0.117857
-1.65374 0.702734 -0.00900537
-1.48217 0.550285 -0.135655
-1.87501 1.07507 0.277787
-1.77492 0.881517 0.14174
-1.73321 0.895837 0.443455
-1.70971 0.903089 -0.413026
-1.76622 0.885207 -0.158842
-1.85936 1.09404 -0.286139
-2.10455 1.61882 -0.000699887
-2.00058 1.34676 -0.149149
-2.01206 1.34021 0.144406
-1.62335 2.2714 -1.30415
-1.73817 2.09804 -1.11845
-1.31214 2.57568 -1.58039
-1.47819 2.43983 -1.46025
-1.43001 1.79057 -1.31126
-1.45469 2.13843 -1.41645
-1.27053 1.98347 -1.47938
-0.539905 2.94295 -1.6601
[...]
POINT_DATA 642
SCALARS Mean_Curvature double 1
LOOKUP_TABLE default
0.850834
1.26744
1.21441
1.33124
0.994628
0.596787
1.05426
1.56626
0.998431
1.11692
0.723036
1.27492
1.25283
1.36119
1.1447
0.633648
1.3147
1.23015
1.85977
1.40266
1.3027
0.946476
0.978635
1.06809
0.800445
0.96144
0.976634
0.945898
0.773868
0.665299
0.888414
0.55409
1.48221
1.08318
1.22209
1.24302
0.80409
1.28382
1.3235
0.979103
1.61249
1.11951
1.12892
1.18889
0.765893
1.30915
1.31115
1.26197
1.1045
1.26054
1.18635
1.13237
0.995345
0.753139
0.95264
1.37724
1.26857
1.1892
1.16537
1.42848
1.4005
1.37716
1.6093
1.28005
1.1122
1.63954
1.21159
1.70888
1.58532
1.07241
1.4573
1.18732
1.06388
0.932902
0.927509
1.08825
1.05995
0.967625
0.881911
0.862966
0.876726
1.14377
1.02882
1.10987
1.21152
0.798708
1.14599
1.33466
1.01783
0.855943
0.799616
1.04185
0.909928
0.920101
0.978302
1.48448
0.993879
1.74959
1.25124
0.695947
1.30456
1.41541
0.894004
0.840991
0.763541
1.19895
1.06769
1.2183
1.11633
0.919883
0.678556
0.993657
1.40758
1.34646
1.18534
1.08145
1.09828
1.36743
1.06776
1.10607
1.01275
0.961311
0.972932
1.45357
1.22973
1.2065
0.933091
1.23528
1.09994
1.11282
1.11764
1.24552
1.04542
1.21429
1.00472
1.12007
1.42454
0.988199
1.17359
1.06895
1.05293
1.00052
1.43008
1.11467
1.4461
1.68449
1.12612
1.06504
1.0568
1.00042
1.68461
1.67793
0.959462
1.11863
1.45219
0.882561
0.858301
0.908612
0.737328
1.12672
1.03742
0.978882
0.925537
1.01214
0.757156
1.24418
1.22573
1.21128
1.03951
1.14325
1.10752
1.29836
1.30513
1.2978
1.32055
1.33197
1.31241
1.23449
1.25435
1.25598
1.03018
1.17791
1.05291
1.21529
1.18678
1.16645
1.30687
1.27116
1.35339
1.29034
1.29797
1.2227
0.857659
0.814095
0.897989
0.921254
1.19725
1.10034
1.26266
0.69654
0.877536
0.996288
0.635628
0.758028
1.01267
0.998637
1.31591
1.32171
1.1998
1.35475
1.32665
1.37964
0.946399
1.27153
1.15257
1.11386
1.17293
1.28268
0.916898
1.24982
1.13646
1.0906
1.68417
0.774083
0.953303
1.3597
1.38603
1.30505
1.40047
1.29552
1.37855
1.33451
1.64163
0.957722
0.989884
1.31721
1.01219
1.73857
1.13042
1.19416
1.19119
1.2313
1.22029
1.25126
1.3742
1.12791
1.93367
1.66344
1.25132
1.31135
1.47143
1.68637
1.84776
1.51693
2.05719
1.66561
1.76374
1.78869
1.02674
1.17349
1.12595
1.51476
1.32405
1.27461
1.28657
1.22925
1.35891
2.24794
1.40292
1.5817
0.966687
1.03664
1.00113
1.06146
1.19859
0.840326
0.788769
0.975369
0.972857
0.969341
1.00763
0.9949
1.23837
1.26529
1.22162
1.25245
1.14408
1.08491
1.09749
1.00851
1.06557
1.16425
0.692504
1.04284
0.865705
0.883054
0.961586
0.967493
0.973797
0.774345
0.777531
0.977199
0.843951
0.924741
0.810401
0.866357
1.10059
1.13328
1.08549
1.08003
1.06877
1.10899
1.02286
1.09457
1.00549
0.962999
0.973245
1.0373
0.999732
0.676942
1.30244
1.21238
0.893915
0.834818
0.862264
1.28371
1.18351
1.07082
1.16716
0.819423
1.14299
1.32004
0.927514
0.835932
0.910963
0.94717
0.863631
0.901079
0.669702
0.821224
0.806458
1.38691
1.2177
1.10108
1.17333
1.25393
1.00437
0.913477
0.959456
0.982352
0.973796
0.862155
0.881439
0.977666
0.923595
0.950778
0.877221
0.94607
1.23625
1.4402
1.32931
0.955923
0.86927
0.82061
0.985901
1.03356
0.997977
1.08129
0.976944
0.998209
1.12236
0.533554
1.35168
1.18432
0.660782
1.072
0.55109
1.38446
1.491
1.24254
1.38056
1.1987
1.55524
1.53679
0.958365
0.840777
0.91123
0.725189
0.750126
0.748319
0.817842
0.826839
0.832654
1.38134
1.26047
1.21973
1.11733
0.983003
1.09175
1.01971
1.02366
1.19477
1.14126
1.24782
1.30741
1.37746
1.22184
0.743078
1.25295
1.19791
0.952987
0.956266
0.984386
0.616823
0.821797
0.804619
0.917192
0.901209
0.795575
1.13096
1.29277
1.27447
1.25371
1.29163
1.33854
1.52044
1.33046
1.54101
1.20199
1.17883
1.25895
1.09632
1.05112
1.1113
1.03648
1.06275
1.04503
1.54239
1.26977
1.44103
1.11083
1.21846
0.96124
1.16492
1.09933
1.16281
1.0682
1.06344
1.02526
1.37863
1.06137
1.1067
1.084
1.15196
1.19365
1.11726
0.849839
0.910672
0.818015
1.4778
1.47494
1.16401
1.31288
1.26755
1.23228
1.12687
1.29522
1.16018
1.15242
0.809936
1.06606
0.828991
1.30419
1.02471
1.08867
1.09594
1.10633
0.88905
1.07956
1.3184
0.897753
0.989101
1.22607
1.1839
1.2153
1.31077
1.21058
1.15383
1.14197
1.14522
0.995169
0.909039
1.04576
1.03492
1.0334
1.16001
1.08095
1.17027
1.43548
1.25104
1.26395
1.1004
1.19835
1.0951
1.30757
1.32098
1.16615
1.13264
1.47525
1.33761
1.27799
1.03476
0.980918
1.05669
0.964747
0.965948
1.07637
1.18158
1.0307
1.01334
0.980969
1.22819
1.01747
1.36324
0.97507
1.00936
1.00228
1.15465
1.13084
1.16717
1.37581
1.56821
1.43921
1.5371
1.40097
1.07547
1.07118
1.16363
1.08659
1.126
1.17294
1.63992
1.11658
1.14145
1.56702
1.6045
1.07802
1.25563
1.24302
1.6855
1.67212
1.78872
1.03854
1.06024
1.03295
1.04577
0.970246
1.11196
1.01349
1.09452
1.05798
1.10968
0.768777
1.00345
0.855437
0.890214
0.944436
1.14677
1.03287
1.06563
1.19631
1.74885
1.36347
1.49069
1.0024
1.43009
0.842148
1.21158
1.40803
1.51684
1.01731
0.966009
0.963496
0.941236
0.89966
1.7191
1.0863
1.17862
0.921583
1.43695
1.20844
0.862407
0.66056
1.50446
0.892265
1.72765
1.34719
1.38579
0.908839
0.707045
0.840837
0.910973
0.924017
1.34843
0.869216
0.780895
0.933478
0.934261
0.917585
0.906881
0.7538
0.914538
0.856851
0.858593
0.872982
0.893567
0.930584
0.550664
0.908395
0.97279
0.751045
0.903091
0.852153
0.794741
1.1166
1.14499
1.11443
1.14237
1.06443
1.06784
0.962954
1.04213
1.06866
1.14066
0.724563
1.02229
0.892239
0.926497
0.92729
1.13771
0.992339
1.0695
SCALARS Redistribution_Potential double 1
LOOKUP_TABLE default
1.70247e-14
-0.468872
0.110794
-0.123794
-0.178386
-0.482653
-0.207813
0.147243
-0.5082
-0.529342
0.0888141
-0.0429338
-0.0418605
-0.184806
-0.285025
-0.554492
-0.222239
-0.201318
0.301727
0.304356
0.190326
0.0199043
-0.626664
-0.668113
-0.105188
-0.403889
0.0578895
0.0551658
-0.100729
-0.0363047
-0.560028
-0.353727
-0.21901
-0.389755
-0.11488
0.0843303
-0.0307014
0.0308803
-0.154855
-0.368518
-0.238986
-0.485141
-0.0346203
-0.136007
-0.167436
-0.099838
-0.111584
-0.0466824
-0.39028
-0.239001
-0.336256
-0.270175
-0.102923
-0.550169
-0.429806
-0.330129
-0.386463
-0.509504
0.0135835
0.180923
-0.345831
-0.182807
0.275933
0.0706157
-0.0236845
0.313282
0.128525
0.311221
0.388397
0.164834
0.292803
0.208425
0.0471089
0.0505939
0.0727122
0.00469285
-0.01164
-0.651504
-0.615905
-0.596548
-0.646531
-0.629228
-0.666396
-0.602269
-0.296511
-0.460545
-0.0677892
-0.141821
-0.303463
-0.244986
-0.127643
0.0202006
-0.0142131
0.0319619
0.0333002
0.135272
0.0715699
0.149373
0.14414
0.0476566
0.0586011
0.171498
-0.132347
-0.0415967
-0.218136
-0.247865
-0.120294
-0.514099
-0.390848
-0.485177
-0.459351
-0.559359
-0.145955
-0.163809
-0.111797
-0.465888
-0.313343
-0.357406
-0.136519
-0.232502
-0.294475
-0.0596897
-0.0953473
0.00574703
-0.0201877
0.0569012
0.0285524
0.105215
-0.0827146
-0.138672
0.0917451
0.0139481
-0.193045
-0.0758591
-0.0968993
-0.209387
-0.157783
-0.293878
-0.266112
-0.38534
-0.341032
-0.437866
-0.193275
-0.498724
-0.337509
-0.307543
-0.503947
-0.420727
-0.529513
-0.533952
0.139393
0.0666042
0.00375294
-0.0211563
0.102241
0.0128103
-0.408837
-0.305959
-0.22297
-0.610236
-0.589872
-0.635378
-0.0248082
-0.0948381
-0.0868483
-0.0805124
-0.0877952
-0.0366778
-0.227611
-0.1529
-0.210557
-0.068737
-0.0728482
-0.0448995
-0.149273
-0.104231
-0.13622
-0.0461576
-0.0770959
-0.0776584
-0.445103
-0.35543
-0.420511
-0.262859
-0.31092
-0.328901
-0.259694
-0.279207
-0.213415
-0.120944
-0.168344
-0.187687
-0.147967
-0.0462266
-0.294486
-0.226793
-0.162913
-0.198265
-0.246128
-0.521772
-0.475521
-0.489761
-0.495709
-0.561491
-0.416701
-0.357392
-0.412145
-0.421122
-0.488647
-0.299494
-0.360539
-0.272033
-0.536583
-0.44634
-0.472223
-0.346745
-0.410647
-0.319363
0.0283108
0.0975403
-0.125901
-0.0394577
0.243133
0.107625
0.153058
-0.401249
-0.336659
-0.187034
-0.260902
-0.265907
-0.262586
-0.197705
0.221443
0.137529
0.0707157
0.199409
0.167851
0.314242
-0.121927
0.0322158
-0.0932201
-0.0900267
-0.0842
0.0640319
0.170552
0.0831484
0.347201
0.271402
0.170746
0.227768
0.25261
0.251141
0.332016
0.363258
0.39151
0.330147
0.371868
0.380176
0.12484
0.194983
0.14052
0.255694
0.231128
0.186204
0.254739
0.254848
0.307987
0.358927
0.347114
0.314799
0.036044
0.114581
0.0806573
0.0130213
-0.00196942
0.0682343
0.0921009
0.0398798
0.064253
0.0347533
0.115855
0.125474
-0.0241231
-0.0224205
-0.0142969
-0.0195698
0.00697113
-0.00518297
0.0160327
0.0702143
0.037786
0.0255255
-0.577411
-0.548618
-0.612627
-0.597512
-0.658272
-0.641566
-0.66953
-0.550506
-0.587
-0.646302
-0.628734
-0.620027
-0.610383
-0.61764
-0.580412
-0.618589
-0.569296
-0.67146
-0.654798
-0.657728
-0.619967
-0.64053
-0.650887
-0.654382
-0.664494
-0.671712
-0.402189
-0.475598
-0.238722
-0.309422
-0.442501
-0.379927
-0.362612
-0.0531846
-0.0872721
-0.130763
-0.106234
-0.0906089
-0.1255
-0.162457
-0.234676
-0.215533
-0.151946
-0.324312
-0.284606
-0.36312
-0.114825
-0.190852
-0.170621
-0.204699
-0.190258
-0.267384
-0.00962905
-0.0240286
0.0158888
0.00170193
0.0148555
0.00651726
0.0313045
0.0479965
0.0403518
0.0421316
0.0326034
0.0358859
0.032363
0.0263253
0.125666
0.135329
0.132433
0.0677002
0.098054
0.0923691
0.0986441
0.102719
0.0691715
0.032707
0.0467766
0.0444225
0.131369
0.0746234
0.231801
0.186334
0.0123834
0.0981155
0.0382949
0.107918
0.184814
0.0625321
0.124019
0.001657
0.240544
0.261828
-0.176747
-0.172688
-0.222487
-0.0408196
-0.114546
-0.082577
-0.180399
-0.138133
-0.062252
0.177748
0.0783964
0.0768212
-0.0715894
0.00348885
-0.227509
-0.1541
-0.240964
-0.191258
-0.296494
-0.490822
-0.431862
-0.46494
-0.454856
-0.538741
-0.366722
-0.297373
-0.511329
-0.526465
-0.535609
-0.407254
-0.484192
-0.435035
-0.567363
-0.529185
-0.510928
-0.315883
-0.406374
-0.344587
-0.133878
-0.130334
-0.114403
-0.181503
-0.15364
-0.171583
-0.110893
-0.135648
-0.144324
-0.497027
-0.422675
-0.447421
-0.360892
-0.388696
-0.436195
-0.276224
-0.335247
-0.253039
-0.152453
-0.206696
-0.232265
-0.165978
-0.191302
-0.121896
-0.347357
-0.26584
-0.317892
-0.219212
-0.277824
-0.197872
-0.0996322
-0.108949
-0.0784039
-0.087465
-0.0691206
-0.0772346
-0.0461138
-0.0683787
-0.0589787
0.0313833
-0.00340514
0.0550669
-0.065599
-0.072789
0.0945084
0.0818974
0.107413
0.00131172
0.0425355
0.0107288
0.0991148
0.0693003
0.0571479
-0.0360065
0.0114139
-0.0159863
-0.11218
-0.12493
-0.0571782
-0.0885051
-0.146496
-0.112497
-0.11574
0.107828
0.0750638
0.0214035
0.0500737
0.0643586
0.0309281
-0.00964541
-0.205636
-0.14215
-0.163004
-0.124015
-0.134353
-0.171364
-0.0228632
-0.0752269
-0.0233759
-0.0381386
-0.0277709
-0.0776983
-0.148752
-0.141154
-0.187876
-0.170984
-0.188206
-0.179558
-0.226489
-0.250864
-0.250267
-0.321148
-0.290577
-0.333637
-0.233146
-0.206556
-0.467797
-0.424487
-0.481294
-0.295459
-0.36653
-0.310398
-0.408919
-0.395161
-0.364201
-0.236775
-0.302417
-0.266178
-0.148735
-0.201577
-0.171738
-0.161317
-0.199242
-0.50642
-0.448312
-0.40795
-0.429411
-0.489967
-0.364197
-0.272291
-0.430858
-0.512103
-0.253249
-0.323242
-0.493291
-0.402216
-0.404453
-0.235992
-0.308773
-0.224405
-0.306007
-0.41039
-0.365999
-0.369204
-0.42498
-0.540691
-0.585901
-0.569075
-0.50717
-0.461549
-0.540938
-0.474928
-0.514383
-0.574506
-0.589241
-0.472576
-0.538387
-0.480415
0.126239
0.121101
0.122761
0.134393
0.0887254
-0.0381743
-0.0366677
-0.0252962
0.0404111
0.100627
-0.0375414
0.0365168
-0.00956197
-0.0433766
-0.0451027
0.125696
0.0317392
0.0779024
-0.120968
0.0220222
-0.0513404
-0.0784269
-0.0517402
0.140016
0.0798912
0.141708
0.114716
0.0832318
0.0345059
-0.0162186
0.0114685
0.0236055
0.0386457
0.0541008
0.0456374
-0.000731188
-0.476195
-0.398559
-0.438284
-0.449761
-0.396246
-0.265903
-0.226737
-0.260265
-0.312821
-0.351908
-0.0317869
-0.286295
-0.167035
-0.0698974
-0.153669
-0.356182
-0.28015
-0.33701
-0.577385
-0.55594
-0.568906
-0.622313
-0.649671
-0.547868
-0.596246
-0.577741
-0.551681
-0.549793
-0.574452
-0.655937
-0.634618
-0.592713
-0.601701
-0.598742
-0.619975
-0.636597
SCALARS CoVolArea double 1
LOOKUP_TABLE default
0.0523632
0.0327003
0.0377466
0.0467278
0.036673
0.0447887
0.0352519
0.0351971
0.0367968
0.0447479
0.0522567
0.0519127
0.0611268
0.0591485
0.0609739
0.0660479
0.0556144
0.0557572
0.0531401
0.0597527
0.0651201
0.0726862
0.0583666
0.0575574
0.0752627
0.070317
0.0666173
0.0778777
0.0765789
0.085836
0.0677668
0.0682975
0.0579623
0.0667841
0.0706875
0.0701361
0.0856189
0.0677386
0.0632309
0.0638622
0.0551313
0.0549166
0.0718731
0.0650817
0.0737853
0.055661
0.0644883
0.0603974
0.0600486
0.0567398
0.0535206
0.063423
0.0675396
0.0701707
0.0659925
0.04928
0.0552676
0.0547349
0.0712116
0.0507794
0.0473983
0.0601181
0.0541736
0.0730829
0.0686349
0.0660923
0.0592248
0.0448208
0.0663741
0.0655695
0.0632759
0.0633166
0.0784783
0.0732323
0.0773881
0.0724842
0.0607692
0.0648264
0.0625007
0.0642666
0.0663466
0.0563797
0.0601202
0.055546
0.0590105
0.063519
0.0661568
0.0639576
0.0687481
0.0792698
0.0632481
0.0788219
0.0666168
0.0728924
0.0748645
0.069346
0.0761185
0.0603998
0.0639966
0.0741838
0.0423198
0.0518432
0.0716156
0.082876
0.0698536
0.0605673
0.0597957
0.0496148
0.0577615
0.0653491
0.071515
0.059642
0.0657385
0.0690139
0.06843
0.0578443
0.0656041
0.0520021
0.0671263
0.0749509
0.0672548
0.0837058
0.0670857
0.0598134
0.0740127
0.0714322
0.0784464
0.0675345
0.0763849
0.0635916
0.0607238
0.0728733
0.0659032
0.0680517
0.057768
0.0681432
0.0572044
0.0587019
0.0651536
0.0581138
0.0653738
0.0647082
0.062126
0.0546175
0.0531546
0.0529427
0.0558938
0.0633053
0.0654225
0.0645695
0.0656393
0.0624157
0.0764846
0.0656738
0.0624855
0.0784965
0.0737901
0.0715583
0.0836281
0.0597684
0.0658546
0.0659068
0.0652218
0.0686924
0.0695378
0.0651101
0.0622021
0.0652468
0.0677297
0.0649366
0.0662983
0.0594178
0.0590098
0.0598852
0.0614573
0.05808
0.0546604
0.0593433
0.0594661
0.0640724
0.0518153
0.054013
0.0500054
0.0591677
0.0542811
0.057406
0.0521201
0.0499441
0.056149
0.0710097
0.0664261
0.0686897
0.0719911
0.0666609
0.0675324
0.0684181
0.0658388
0.0642057
0.0575541
0.0633697
0.061264
0.0613602
0.0641219
0.0663428
0.0637027
0.0646531
0.0441416
0.0493285
0.0485775
0.052209
0.0464777
0.0461242
0.0562088
0.0466878
0.0572533
0.0709672
0.0656274
0.0635498
0.063654
0.0609784
0.0700293
0.0710848
0.0479692
0.0573218
0.0577131
0.0383967
0.0462313
0.057426
0.0527999
0.0530152
0.0500959
0.0575673
0.0448118
0.0591776
0.0550384
0.0575217
0.0563588
0.0536412
0.0645171
0.0678329
0.0697507
0.0752255
0.0785659
0.0778378
0.0549059
0.058043
0.0625163
0.0534635
0.0639587
0.0593863
0.065473
0.0410564
0.0485269
0.0626253
0.0538353
0.0502641
0.0567502
0.062106
0.0647484
0.0647006
0.0628755
0.0622555
0.0559391
0.0564509
0.0571161
0.0580353
0.0635003
0.0769587
0.0739789
0.0749682
0.0679505
0.0770661
0.0694288
0.0716424
0.0687244
0.0716334
0.0734145
0.0765021
0.0727767
0.0700947
0.0672195
0.0720154
0.059793
0.0570305
0.0683947
0.0635691
0.0663585
0.0640955
0.072531
0.0875139
0.0835404
0.0835097
0.0617957
0.0497585
0.0700737
0.0624921
0.0634479
0.0638295
0.0619762
0.069654
0.0727371
0.0618765
0.0639084
0.0554572
0.0699795
0.069891
0.0560825
0.0574432
0.0560851
0.055976
0.0537646
0.0501098
0.0550153
0.055303
0.0623628
0.0701772
0.0678268
0.0650326
0.0575858
0.0614221
0.0587791
0.0524098
0.0646837
0.0573448
0.0705268
0.058172
0.0582668
0.0750416
0.0634366
0.0730765
0.0557016
0.0608974
0.0543779
0.0686612
0.0545666
0.0748182
0.0764315
0.0661766
0.0681379
0.07488
0.0813
0.0676274
0.0768353
0.0740367
0.0630233
0.0584268
0.0754078
0.070103
0.077309
0.0729522
0.0821905
0.0757766
0.0739322
0.0731827
0.0705601
0.068414
0.07078
0.0744585
0.0591021
0.067375
0.0585193
0.0787944
0.0675171
0.066152
0.0572228
0.0630588
0.0718801
0.0847883
0.083323
0.0879113
0.0685597
0.0709141
0.061512
0.0604332
0.078904
0.0684968
0.0790497
0.041866
0.0404717
0.0604487
0.042897
0.0565322
0.044489
0.0551955
0.0532452
0.0687392
0.0556091
0.0872176
0.0799429
0.0797701
0.0767102
0.0786582
0.0806207
0.0645346
0.0726155
0.0768132
0.0623989
0.0514869
0.059425
0.0615449
0.0650883
0.0612403
0.0629149
0.0457324
0.0439405
0.0599507
0.0479734
0.0545568
0.0529155
0.056826
0.0552391
0.0635415
0.0554598
0.0662581
0.065784
0.0637427
0.0635266
0.0646907
0.0718782
0.0653482
0.0708044
0.0693204
0.0579547
0.0660354
0.0582867
0.0647862
0.0638898
0.0620766
0.0688128
0.0657171
0.0706882
0.0574456
0.0567457
0.0546342
0.0670866
0.0582724
0.0614037
0.050178
0.0551172
0.0626391
0.0547418
0.0643268
0.0548742
0.0706799
0.0663523
0.0689117
0.0642462
0.0680321
0.0723104
0.077276
0.0815585
0.0810018
0.0673138
0.0582204
0.0784076
0.0730957
0.0786529
0.0759577
0.0894954
0.0547607
0.0613571
0.0732762
0.0657262
0.0647794
0.0676429
0.0741703
0.0612853
0.0733077
0.0609556
0.084731
0.071709
0.071438
0.0616255
0.068758
0.0734514
0.087572
0.0837945
0.0926337
0.0661273
0.0642602
0.0816021
0.0727756
0.0632875
0.0680502
0.0716673
0.0533606
0.0637665
0.0711056
0.0650233
0.0646311
0.0663856
0.0772345
0.0547716
0.0621862
0.0520896
0.0683585
0.0633996
0.0620848
0.0585257
0.0577635
0.0664342
0.0843004
0.0798147
0.0805282
0.0616026
0.0572837
0.0663899
0.0626004
0.058421
0.0613653
0.0632468
0.052356
0.0585916
0.0608446
0.0563999
0.0565298
0.0626996
0.0645895
0.0583769
0.0645036
0.059599
0.0592359
0.0541018
0.0479647
0.0593848
0.0568203
0.0645462
0.0763859
0.0745198
0.0755907
0.0604532
0.0592796
0.0595465
0.0643457
0.062144
0.0525912
0.0562009
0.0487868
0.0500309
0.052539
0.051463
0.0554748
0.0526684
0.0531364
0.0540621
0.0496685
0.0566999
0.0530656
0.0517915
0.0636302
0.0584615
0.0634319
0.0624588
0.0638764
0.060139
0.0624186
0.0652302
0.0594269
0.0623362
0.0559072
0.0585991
0.0680462
0.0685603
0.066666
0.063868
0.0601358
0.0612259
0.072184
0.0715425
0.0699551
0.068915
0.0686663
0.0617801
0.0648909
0.0684752
0.0597834
0.0662671
0.0589098
0.0587202
0.0684865
0.0640134
0.0783817
0.0746737
0.0741925
0.073102
0.0724414
0.0738646
0.0747792
0.0601743
0.065839
0.0568433
0.0653467
0.0763292
0.060491
0.0635278
0.0570654
0.0610491
0.0654216
0.0783006
0.0852787
0.0778822
0.0743074
0.0705299
0.0715073
0.0739424
0.0812596
0.0659099
0.069656
0.0625934
0.0640944
0.0763113
0.0624531
0.0789891
0.0669433
0.0624401
0.0660174
0.0512093
0.0796994
0.0675779
0.0639361
0.0808316
0.0798919
0.0868663
0.0875767
0.0572817
0.0608778
0.056495
0.0540453
0.057722
0.0591718
0.0688575
0.0593007
0.0593421
0.062109
0.058659
0.0622242
0.0647497
0.0619801
0.0674554
0.0683367
0.0717705
0.0666274
SCALARS SignedDistance double 1
LOOKUP_TABLE default
1.60979
1.84547
1.1388
1.15193
1.50195
2.02944
1.62377
1.81617
1.70702
1.56564
1.77384
1.22522
1.27422
1.53722
1.7309
2.05105
1.48984
1.52887
1.45633
1.4111
1.3147
1.38807
1.75734
1.77742
1.63247
1.75425
1.45194
1.35179
2.11379
1.83632
1.92263
2.08419
1.23631
1.49349
1.20455
1.18253
1.40172
1.31614
1.34442
1.69351
1.42013
1.59991
1.51457
1.46417
1.67999
1.32719
1.32811
1.21666
1.86614
1.60294
1.81999
1.68927
1.54349
2.02549
1.96552
1.64665
1.77327
1.95144
1.50994
1.52976
1.64754
1.42821
1.55578
1.56086
1.68305
1.17619
1.38405
1.57734
1.13284
1.49543
1.26581
1.51461
1.40777
1.55692
1.50598
1.32025
1.32283
1.89197
1.96807
1.86861
1.86321
1.66351
1.73784
1.65049
1.8179
1.94419
1.46074
1.52644
1.61104
1.78228
1.6523
1.31435
1.40238
1.54653
1.43056
1.32235
1.35637
1.316
1.77756
1.85628
1.97177
1.80678
1.70099
1.99735
1.78821
1.76307
1.95983
1.9248
1.74977
1.87192
2.00596
1.79996
0.973009
1.22099
1.18458
1.53886
1.45919
1.47513
1.33101
1.37788
1.49017
1.34244
1.32782
1.33355
1.17687
1.31666
1.33174
1.18805
1.30325
1.2757
1.24775
1.28942
1.51302
1.34816
1.5495
1.40189
1.19939
1.64778
1.53486
1.60471
1.58891
1.70396
1.22087
1.62945
1.53203
1.46062
1.56863
1.60017
1.63237
1.77861
1.23181
1.48689
1.46723
1.69508
1.53912
1.64038
1.87707
1.79846
2.13601
1.69779
1.72215
1.85308
1.58764
1.61717
1.62651
1.36461
1.47647
1.36706
1.70112
1.57999
1.58434
1.26589
1.23009
1.19339
1.43241
1.3046
1.41741
1.23017
1.25403
1.27787
1.96531
1.81785
1.94958
1.64343
1.72505
1.77488
1.69189
1.69422
1.57651
1.38511
1.46834
1.51545
1.61182
1.60013
1.78917
1.68919
1.47138
1.59065
1.5646
2.03077
2.02169
2.01644
2.06791
2.04168
1.94285
1.87145
1.76622
1.79599
1.89204
1.6175
1.70439
1.55721
2.01297
1.85551
1.93097
1.81903
1.86594
1.6969
1.61092
1.5695
1.4188
1.49898
1.4975
1.63978