# vtk DataFile Version 4.2
vtk output
ASCII
DATASET POLYDATA
POINTS 642 double
-1.11177 3.13622 -0.257116
-0.275031 2.82942 -0.230798
-1.29022 0.536993 -0.00622459
0.675412 0.548398 0.00670521
-0.367809 1.21102 1.04316
-0.616797 2.40321 0.501548
-0.34347 1.3758 -0.852925
-0.812096 2.81242 -0.636102
0.563994 1.91563 -0.441572
0.724412 1.86664 0.546309
-1.26295 2.35574 -0.506976
-1.80808 2.13645 0.85851
-1.67847 2.91223 0.441315
-1.1917 2.42274 0.798841
-0.927737 2.81839 0.313051
-0.333526 2.66349 0.110486
-0.474359 3.32203 -0.207477
-0.170181 3.21261 -0.657255
-1.11775 3.0413 -0.722242
-1.20496 2.9027 -0.915988
-1.60277 3.01971 -0.624548
-1.85392 2.1572 0.0185129
0.148018 2.21367 0.688016
0.397974 2.39311 0.240061
-1.02926 1.61501 0.860409
-0.410479 1.88231 0.842539
-1.45302 1.3147 -0.365734
-1.58554 1.22743 0.479316
-0.582217 2.26689 -0.617928
-0.872112 1.84718 -0.622854
0.141153 2.41984 -0.236203
-0.21979 2.41568 -0.469551
1.04802 1.21304 0.465792
0.339417 1.51489 0.964091
0.202433 0.686188 0.801205
-0.93733 0.657241 0.832815
-0.35323 0.55471 -0.000126721
-0.818487 0.78921 -0.674707
0.146049 0.82258 -0.678194
0.174128 1.59103 -0.690522
0.805431 1.23429 -0.266045
0.872944 1.82262 0.0249608
-1.34526 2.96103 0.0728124
-1.281 2.96087 0.484626
-0.996374 3.04048 0.0973278
-1.49087 2.36074 0.964217
-1.45782 2.72881 0.811558
-1.83767 2.56635 0.705758
-0.80997 2.60357 0.422505
-1.11527 2.68154 0.607269
-0.911617 2.41352 0.598033
-0.67153 3.08665 -0.0297083
-0.799582 3.30506 -0.216927
-0.424951 2.53589 0.337107
-0.597575 2.78247 0.160785
-0.324875 3.14466 -0.260941
-0.443086 2.98608 -0.0935283
-0.308293 2.78185 -0.0867951
-0.647002 3.29896 -0.45624
-1.12005 3.09912 -0.608743
-0.266132 3.0269 -0.382503
-0.288637 3.40446 -0.473702
-0.991832 2.92617 -0.694876
-0.535506 3.16057 -0.546414
-0.516163 2.95926 -0.556808
-1.34772 3.18456 -0.858403
-1.38634 3.15207 -0.436519
-1.06173 2.86997 -0.760541
-1.19111 3.09985 -1.0489
-1.45273 2.73216 -0.683016
-1.43861 2.97668 -1.02599
-1.2375 2.78813 -0.801172
-1.60873 2.90775 -0.0765217
-1.56129 2.214 -0.277639
-1.609 2.59349 -0.226495
-1.85066 2.56556 0.252356
-1.85034 2.14628 0.456407
0.0296463 2.48293 0.201313
-0.0191713 2.53237 -0.0239266
-0.172813 2.31759 0.648412
-0.0289602 2.46112 0.455199
0.619759 2.18669 0.411528
0.329324 2.33043 0.472723
0.465386 2.07653 0.680107
-0.875639 2.15356 0.685913
-0.534598 2.15714 0.659949
-1.39193 1.94946 0.787396
-1.18607 2.12341 0.825029
-0.363569 1.55947 1.04339
-0.722221 1.7847 0.805136
-0.64564 1.35685 0.893951
-1.85601 1.69064 0.261445
-1.64269 1.7763 0.632438
-1.43258 1.7839 -0.441915
-1.68561 1.72463 -0.187512
-1.33874 0.839938 0.224388
-1.62478 1.20528 0.0105615
-1.29906 0.869995 -0.126751
-0.985164 2.51873 -0.638258
-1.07521 2.15377 -0.559931
-0.763097 2.6619 -0.626028
-0.916489 2.6622 -0.659533
-0.612246 1.53769 -0.815742
-0.711874 2.14082 -0.631163
-0.393974 1.74464 -0.784226
-0.368596 2.82249 -0.473531
-0.513075 2.70945 -0.557981
-0.165446 2.62623 -0.226074
-0.288566 2.77679 -0.367108
0.189125 2.12188 -0.480333
-0.0512046 2.41756 -0.364318
0.431895 2.19484 -0.336589
0.984199 0.71921 0.250919
0.723763 0.858069 0.637418
0.504401 0.554406 0.39672
0.59514 1.69083 0.778135
0.684742 1.32237 0.700564
0.875472 1.49263 0.472173
-0.135889 0.933599 1.04322
0.29585 1.08751 0.911873
-0.026973 1.34174 1.06653
-0.0315018 0.569357 0.444205
0.213849 0.554724 0.00394659
-0.58514 0.883314 0.920129
-0.341478 0.554932 0.917423
-0.86092 0.557535 0.00783767
-0.647816 0.554723 0.453976
-1.14943 0.551663 0.488348
-0.0628787 0.554749 -0.417377
0.434004 0.641834 -0.388306
-1.07973 0.635063 -0.354582
-0.647717 0.554846 -0.41764
-0.140746 1.09394 -0.840389
-0.366426 0.765003 -0.689415
-0.532108 1.1032 -0.776691
0.544348 0.994145 -0.470408
0.870628 0.833888 -0.224772
-0.0516187 1.47144 -0.857221
0.20781 1.22498 -0.707029
0.741027 1.54052 -0.363944
0.536899 1.39873 -0.57211
0.411021 1.74008 -0.610176
1.1179 1.1579 0.0108542
0.789039 1.85806 -0.220147
0.870561 1.49844 -0.103172
0.910726 1.44685 0.18882
0.864078 1.8502 0.311004
-0.0261782 1.72031 1.04891
0.270418 1.90504 0.869033
-0.116554 2.02132 0.792772
-1.23927 0.84669 0.624192
-0.925639 1.07082 0.74857
-1.31548 1.39359 0.770072
-0.788195 1.2562 -0.602339
-1.06568 1.05514 -0.380495
-1.17253 1.53571 -0.5397
0.0315022 1.98295 -0.597141
-0.184853 1.83637 -0.713092
-0.405469 2.3464 -0.569976
0.650661 2.13727 0.158487
0.616831 2.18148 -0.131121
0.332416 2.42366 -0.0298686
-1.21172 3.07374 -0.134146
-1.1897 2.97898 0.12689
-1.05859 3.13058 -0.0867194
-1.48927 2.9606 0.488708
-1.32162 2.95813 0.30738
-1.54157 2.95906 0.293101
-0.959488 2.92324 0.21306
-1.14672 2.95807 0.318105
-1.08351 2.88686 0.419129
-1.66487 2.26586 0.953645
-1.6888 2.48143 0.91449
-1.85524 2.36181 0.798926
-1.3017 2.55483 0.808327
-1.50705 2.55059 0.914739
-1.31484 2.39813 0.893384
-1.7741 2.75342 0.583519
-1.67448 2.6856 0.813525
-1.64634 2.86393 0.696798
-0.698333 2.48593 0.461326
-0.9019 2.52756 0.526201
-0.736066 2.39824 0.533678
-1.05612 2.76089 0.487679
-0.98017 2.63567 0.50446
-0.902542 2.72871 0.376681
-1.04955 2.4142 0.670326
-1.04238 2.54319 0.60597
-1.15733 2.55107 0.690609
-1.40959 2.87949 0.671859
-1.25249 2.71024 0.718802
-1.18371 2.87164 0.635204
-0.895885 3.26108 -0.0373845
-0.942206 3.23617 -0.249922
-0.797053 2.92821 0.136304
-0.81666 3.07978 0.0519747
-0.631328 3.37124 -0.172057
-0.687104 3.25032 -0.0852706
-0.575898 3.21197 -0.131818
-0.519801 2.47132 0.427204
-0.618585 2.56939 0.365277
-0.471407 2.74622 0.115237
-0.529346 2.65724 0.244987
-0.359068 2.60114 0.222671
-0.708654 2.68987 0.298255
-0.772657 2.79917 0.23742
-0.300848 2.95375 -0.261794
-0.340032 2.96068 -0.183414
-0.281912 2.81048 -0.177984
-0.462155 3.17008 -0.174746
-0.365649 3.08526 -0.15818
-0.402136 3.24378 -0.261444
-0.313373 2.72219 0.000344621
-0.377892 2.90639 -0.10767
-0.413316 2.82259 -0.00148745
-0.647813 2.93143 0.0593631
-0.515105 2.88456 0.0223499
-0.551479 3.06084 -0.0785625
-0.910732 3.18553 -0.399318
-1.1001 3.13402 -0.466448
-0.546549 3.43008 -0.346305
-0.72029 3.37355 -0.390398
-1.12847 3.07393 -0.686011
-0.891845 3.1173 -0.499315
-0.873849 3.07035 -0.545127
-0.285866 2.93994 -0.313626
-0.268921 3.08377 -0.337899
-0.200329 3.35368 -0.588999
-0.203697 3.22328 -0.424066
-0.200985 3.15984 -0.532559
-0.316618 3.24517 -0.351555
-0.367595 3.42386 -0.334554
-0.88538 2.86216 -0.656078
-0.769566 2.9163 -0.599556
-0.703065 2.84434 -0.600029
-0.860657 3.01256 -0.582928
-0.813953 2.96867 -0.591813
-1.10802 3.00594 -0.741842
-0.369288 3.08192 -0.578096
-0.506034 3.08984 -0.554274
-0.339562 3.2323 -0.670893
-0.45842 3.52698 -0.514659
-0.363705 3.42154 -0.659981
-0.583309 3.22201 -0.523643
-1.25036 3.15076 -0.565009
-1.27644 3.12544 -0.389582
-1.19292 3.24272 -0.886393
-1.24694 3.21317 -0.776609
-1.55611 3.16319 -0.517677
-1.42944 3.26913 -0.710473
-1.56504 3.23484 -0.802575
-0.948178 2.83325 -0.690648
-1.04324 2.90002 -0.742375
-1.25315 3.01996 -1.06717
-1.17538 2.96792 -0.877753
-1.1787 2.92319 -0.876445
-1.16297 2.9945 -0.852349
-1.19666 3.12764 -0.972701
-1.3135 2.51748 -0.544862
-1.3248 2.7774 -0.775176
-1.21987 2.52156 -0.59462
-1.50095 3.05918 -0.862364
-1.46109 2.85906 -0.864916
-1.52102 2.88993 -0.688573
-1.23218 2.86645 -0.882806
-1.35231 2.88955 -0.980121
-1.3094 2.87066 -1.1328
-1.30072 3.10356 -0.979522
-1.31035 3.04306 -1.05455
-1.3784 3.08056 -0.951496
-1.37201 3.07391 -0.206639
-1.60151 2.99814 -0.396771
-1.51902 3.08718 -0.271136
-1.50555 2.95862 0.0145536
-1.68169 2.92446 0.201924
-1.39487 2.28616 -0.40154
-1.42922 2.48332 -0.419
-1.78018 2.37965 -0.120764
-1.58835 2.41132 -0.257828
-1.75761 2.17463 -0.173244
-1.50565 2.66402 -0.449738
-1.58684 2.81619 -0.481023
-1.85054 2.35399 0.573474
-1.85422 2.14462 0.643081
-1.85052 2.79038 0.363548
-1.85117 2.56906 0.476907
-1.85049 2.14767 0.240318
-1.9131 2.36045 0.352471
-1.8504 2.36064 0.127536
-1.65001 2.76845 -0.18204
-1.76514 2.56954 -0.00756295
-1.82293 2.79063 0.0973367
-0.175261 2.63376 -0.0570936
-0.190458 2.66869 -0.141905
-0.163524 2.55613 0.150749
-0.171195 2.59818 0.0464415
0.198585 2.46308 0.111356
0.0265012 2.49824 0.102795
0.216579 2.46126 0.233886
-0.382825 2.33479 0.546546
-0.294751 2.41142 0.478631
0.082097 2.36502 0.616057
-0.094428 2.39789 0.563137
0.00379434 2.28087 0.699435
-0.221021 2.47234 0.382717
-0.179134 2.50886 0.281075
0.705546 2.00551 0.505365
0.555145 2.12488 0.551017
0.644212 1.97012 0.630783
0.40327 2.38814 0.374327
0.487018 2.27644 0.458307
0.508179 2.29192 0.326525
0.319715 2.13436 0.67802
0.445725 2.23559 0.6237
0.252315 2.28821 0.602837
0.0188674 2.46834 0.323635
0.155834 2.41216 0.479682
0.221614 2.46529 0.366709
-0.737565 2.28221 0.600288
-0.583079 2.28469 0.58068
-1.04731 2.28224 0.718715
-0.927173 2.28628 0.656704
-0.478326 2.04324 0.728033
-0.724209 2.15462 0.661042
-0.648725 2.01571 0.723956
-1.57537 2.04718 0.846545
-1.45023 2.11874 0.959097
-1.11 1.89949 0.781302
-1.27591 2.04275 0.836277
-1.20148 1.77737 0.796535
-1.28924 2.22105 0.943422
-1.2016 2.27118 0.855165
-0.362055 1.34451 1.04323
-0.544206 1.44624 1.04966
-0.484038 1.26171 0.968153
-0.566911 1.82883 0.823422
-0.538517 1.66607 0.941452
-0.381234 1.76703 0.980421
-0.826351 1.47157 0.822167
-0.676064 1.55652 0.872339
-0.878692 1.70393 0.809135
-1.0402 2.14327 0.742082
-0.968818 1.95848 0.749057
-0.823397 1.99612 0.728127
-1.72233 1.96296 0.533742
-1.66669 1.97916 0.698475
-1.76848 1.94156 0.146396
-1.76682 1.94089 0.332338
-1.67441 1.49297 0.593344
-1.75074 1.70111 0.451342
-1.71186 1.4679 0.363659
-1.32789 2.05713 -0.440368
-1.48622 2.00083 -0.355235
-1.62068 1.49887 -0.297706
-1.58059 1.75009 -0.349236
-1.49796 1.52566 -0.436649
-1.63466 1.96695 -0.24015
-1.69505 1.95394 -0.0610205
-1.43787 0.598125 0.134512
-1.35021 0.836929 0.0164328
-1.43834 0.634245 -0.14813
-1.62613 1.20019 0.239309
-1.43054 1.06789 0.124105
-1.41446 1.07225 0.354353
-1.34823 1.12565 -0.213547
-1.42443 1.07436 -0.0731807
-1.58143 1.23067 -0.214494
-1.77763 1.70028 0.0241556
-1.68557 1.46741 -0.0972917
-1.773 1.43413 0.131839
[...]
POINT_DATA 642
SCALARS Mean_Curvature double 1
LOOKUP_TABLE default
-0.584837
0.823547
2.31053
5.36127
5.6416
-0.1478
-0.0167941
0.713874
3.53383
-2.83833
-0.298719
8.20096
3.3088
1.81483
-0.340424
0.147588
5.84014
14.4236
0.600756
9.47929
4.75224
4.35821
1.76775
1.71093
4.868
-0.494853
3.25417
3.96611
0.681456
-0.376003
-0.532725
0.600686
7.34012
1.79823
2.19244
5.66176
0.268911
6.35456
2.9975
-2.55169
-0.996184
1.79871
-1.8988
3.93147
1.91883
3.30389
3.42375
4.08975
-0.238127
0.137123
0.213177
-1.1509
1.88264
0.050607
0.177313
3.17971
-0.227457
0.668722
0.0790575
0.506108
3.74867
4.17118
0.784593
-0.381859
0.530691
1.31535
1.80873
0.569185
16.0338
4.91079
11.5761
1.57066
1.77971
-0.826348
-1.25288
0.357263
1.54401
-0.650687
-0.243508
4.05134
4.06795
5.35158
-1.95792
3.41279
-0.654049
-0.504755
-1.41766
0.775283
1.71955
-0.622164
-0.972657
5.50087
1.98815
2.31675
1.66336
-1.23657
2.95937
-1.36825
0.515312
0.00809974
0.514153
1.10228
3.15324
0.468246
-0.251306
1.24614
1.04036
0.67189
1.06657
1.97167
0.00143874
5.12369
3.58417
3.64124
3.12654
1.19842
1.31028
4.37896
4.2953
-0.917208
1.46638
-0.7786
-0.0222045
-0.570052
5.68177
-1.56073
0.00900279
2.06608
1.65394
2.49111
4.16526
-0.114029
3.36223
0.157733
1.69952
-1.61037
4.20745
4.2499
-1.7994
1.34359
0.854048
4.2354
4.02715
2.28563
-1.00362
-1.63406
2.35513
5.21265
4.41169
-0.306462
2.98267
-1.38777
3.73851
-1.14796
-1.29854
2.50809
0.911834
-0.788833
0.715687
-0.308537
5.47567
1.63384
-1.00334
-1.5875
0.472766
3.16495
-0.337146
1.61688
-0.765226
3.25537
3.16324
4.3526
4.28185
5.0722
0.488532
3.71348
2.16281
1.84169
3.8968
6.15149
-0.257599
-0.21319
-0.347214
-0.91811
-0.729524
-0.353512
-0.910978
-0.563265
-1.09843
3.21316
1.64931
7.53019
7.94394
2.96797
-0.683147
1.75813
7.7418
4.41291
-0.510832
-0.0589686
-0.209467
-0.27192
-0.00111062
0.102106
-0.320545
-0.162672
1.13693
0.166465
0.875389
-1.14077
9.60554
-1.50672
-0.216574
0.60089
0.64555
-0.405606
0.175702
-0.852056
-0.06626
-0.118664
6.28177
7.74895
0.55586
0.414942
0.588327
0.169212
4.22586
9.80841
9.15202
4.98671
-2.11424
8.03027
0.618487
0.876562
0.837823
0.778844
0.823858
0.552553
2.49963
0.102889
7.37396
8.80017
8.8583
0.806209
-0.600762
-1.02028
13.1132
3.59452
6.77642
6.3821
10.0513
1.07135
0.819004
9.61047
0.429886
-0.0661017
-0.156476
6.34858
-0.042418
-0.302016
0.396889
2.35984
6.6302
-0.562394
1.53329
1.3393
14.1461
1.82729
12.1096
1.78252
0.201931
3.14586
6.02339
1.12121
3.22441
-0.662369
-0.549907
3.65669
-0.276423
4.33956
-1.25461
3.38162
-0.866643
4.04901
5.36382
0.660012
1.1145
4.20009
0.7715
1.56918
-0.309229
5.31629
0.250789
0.385474
-0.0973683
0.101334
0.580366
-0.604247
1.20133
-0.470997
0.135116
5.00222
2.11517
5.62251
0.144257
-0.369017
2.75143
-0.441938
4.91472
6.61586
2.69244
1.43362
-0.701545
8.14695
2.34715
-0.598253
1.10396
6.28612
-0.388837
-0.284426
-0.450089
-0.602935
-0.34327
-0.551581
-0.408082
1.44076
6.12151
-0.833653
0.734117
-0.478139
6.65323
2.00262
1.05466
7.28115
-1.42926
-0.832606
1.63986
4.20534
-1.2442
-1.20569
-1.02145
-0.968401
-0.866074
-0.494012
-1.5946
0.530547
-0.914426
-1.32604
4.87782
1.21775
-0.154103
-0.705735
0.177954
3.21691
2.78101
5.14805
1.80933
-2.46074
8.39338
-0.95397
8.74562
2.7945
-2.0058
-0.290598
-1.25116
0.451111
5.09741
1.72884
0.401884
3.63961
0.336783
0.0775316
0.868141
0.710464
-0.332224
0.553125
0.190425
0.703369
0.933603
0.635098
0.587213
0.557129
1.15412
0.873083
1.28363
7.92156
0.425647
0.053091
-0.377103
-0.688541
-0.0596521
-0.178406
0.628204
1.09608
0.739638
0.623502
0.887602
0.827994
2.06965
0.637515
0.897086
1.28738
0.776259
0.495793
0.562228
0.657714
0.626567
0.122882
0.491552
9.88421
-0.204593
-1.77562
3.65683
0.414862
2.13854
-0.323538
-1.06217
5.0504
0.0348221
1.16141
1.01417
0.711613
1.99777
2.65534
1.40386
2.36125
4.08914
6.06615
6.03426
-1.99555
1.36961
6.14323
2.35878
-2.34141
2.46961
-0.809602
3.74054
-0.0107605
0.870638
-3.51235
2.53768
0.0657863
-0.791174
2.17253
3.78408
-1.34933
1.82623
3.84222
1.56885
0.679701
0.225987
0.157356
-0.0268151
0.467642
2.71389
0.123142
0.248325
0.19096
0.125972
-1.22911
-1.66712
6.85232
6.96405
-0.228607
-1.54039
5.89892
3.79625
3.69851
0.731887
-0.00167638
-0.766886
0.0259048
2.06896
-0.96361
1.37005
0.766304
-0.0690048
0.0590793
1.48473
3.11315
-1.41663
0.144631
3.04966
4.18166
4.55615
6.41608
1.46103
7.48882
3.69819
3.37214
-0.126988
0.117685
0.19111
6.23198
1.6095
1.49048
1.24221
-2.87719
-1.27423
-2.84865
1.30963
0.944235
6.36795
4.16028
-0.0534554
4.02993
2.06609
3.44093
0.818498
-1.92371
0.217668
-0.217899
3.13102
0.690365
-0.142371
1.17298
1.11966
-0.580743
2.39034
2.66567
1.9915
2.42487
-1.03639
-2.47784
-1.78982
2.89977
3.64081
5.74888
2.85931
1.24684
1.5773
6.5792
5.64935
3.58065
3.81989
3.42166
-0.424761
-0.314228
4.8744
6.1833
6.3156
-1.45133
3.50911
8.02708
-1.56811
-2.17879
2.47914
-1.23238
-0.86932
1.34074
-1.66485
4.95059
1.98242
5.47546
-1.07891
1.92452
3.11739
-1.66332
-0.413394
-2.21946
5.40591
-3.4596
1.07987
-1.36914
-0.956239
0.300367
-1.96256
1.05757
-0.477995
1.53923
1.05709
8.00769
8.23702
-0.846845
-1.13212
-1.22561
0.236855
-1.30668
-1.30687
-0.122073
-2.00609
2.48222
1.12376
3.48809
-0.607487
-0.821417
-0.263582
-1.20478
6.67885
-1.07717
-1.20976
0.0327262
-1.06863
3.99518
1.43967
-1.78305
-1.36257
-1.36302
-1.01926
0.88541
5.16758
-1.80257
0.369943
-1.19489
-0.780218
-1.12837
-0.513202
-0.0812634
0.391431
-0.74374
-0.195134
2.68437
-0.0105316
-0.314483
5.53458
5.17079
0.766481
0.743926
0.630194
0.41249
0.684706
-0.632865
0.127135
0.0472633
2.57182
1.90887
2.52747
-1.01062
0.436728
1.89149
4.50229
0.324105
-0.697386
5.47936
0.154671
4.40608
-0.149297
-0.463267
8.82969
-0.997006
1.51258
0.802785
SCALARS Redistribution_Potential double 1
LOOKUP_TABLE default
-3.71574e-06
-0.829129
-1.14331
-1.5826
-1.28742
-1.06589
-1.27932
-0.190919
-1.54479
-1.60352
-0.29981
-0.861095
-0.62342
-0.91959
-0.727504
-1.01631
-0.303985
-0.409555
0.611463
0.986189
0.768885
-0.663569
-1.44138
-1.48125
-1.05372
-1.25056
-0.910197
-0.997205
-0.844674
-0.86032
-1.30509
-1.04545
-1.60999
-1.52502
-1.4754
-1.18544
-1.37957
-1.1545
-1.47864
-1.44345
-1.60281
-1.61674
-0.338167
-0.67092
-0.452369
-0.895375
-0.810887
-0.778855
-0.903734
-0.83422
-0.966832
-0.504782
-0.208307
-1.08104
-0.830746
-0.524624
-0.672364
-0.900539
-0.162084
0.469667
-0.59739
-0.327504
0.257876
-0.299984
-0.434558
1.37121
0.452127
0.410031
1.64012
0.455601
1.46648
0.583476
-0.200217
-0.493251
-0.226576
-0.607308
-0.78198
-1.29445
-1.20847
-1.30896
-1.3243
-1.56846
-1.48221
-1.54537
-1.02957
-1.16345
-0.934179
-0.96789
-1.29826
-1.12406
-1.13248
-0.871455
-0.9126
-0.735613
-0.795827
-1.02781
-0.954119
-1.00563
-0.283726
-0.573871
-0.401537
-0.194532
-1.11924
-0.817174
-1.16853
-0.667798
-0.618912
-1.02915
-0.793067
-1.37497
-1.17186
-1.47554
-1.60233
-1.58604
-1.55344
-1.58128
-1.59174
-1.60935
-1.36147
-1.50887
-1.41733
-1.44192
-1.50999
-1.19951
-1.30957
-1.25275
-1.29564
-1.18321
-1.44224
-1.54554
-1.12737
-1.27594
-1.37798
-1.32481
-1.22032
-1.55879
-1.59213
-1.37669
-1.48107
-1.59943
-1.55684
-1.50853
-1.60993
-1.60207
-1.60792
-1.57506
-1.61393
-1.42226
-1.50232
-1.3585
-1.10287
-1.0602
-1.02526
-1.03519
-0.958154
-0.868846
-1.31877
-1.23825
-0.936589
-1.57449
-1.54397
-1.42523
-0.104262
-0.421498
-0.221952
-0.650544
-0.550879
-0.528166
-0.609716
-0.599414
-0.699319
-0.880669
-0.844992
-0.828425
-0.874337
-0.858735
-0.911312
-0.709056
-0.794796
-0.738391
-0.999045
-0.924135
-1.02249
-0.77963
-0.852342
-0.8021
-0.930922
-0.893826
-0.881224
-0.748651
-0.825197
-0.763806
-0.306571
-0.133701
-0.634358
-0.489243
-0.227397
-0.354373
-0.408406
-1.0761
-0.98153
-0.898813
-0.955386
-1.06103
-0.870023
-0.767268
-0.70382
-0.711463
-0.861369
-0.470577
-0.590989
-0.404657
-0.962704
-0.766042
-0.845098
-0.669575
-0.757791
-0.563623
-0.032078
0.252493
0.0305764
-0.137735
0.592151
0.0122036
0.00642377
-0.698146
-0.564615
-0.375304
-0.445104
-0.457345
-0.421242
-0.254077
-0.0220772
-0.192446
-0.323721
-0.0106957
-0.102752
0.598774
-0.44722
-0.359908
-0.37496
-0.206215
-0.302969
-0.239102
0.593968
0.288645
1.22862
1.05776
0.692466
1.25152
1.69427
0.0848552
0.385864
1.97904
0.948604
0.870438
0.901919
1.39487
-0.0675175
0.590622
-0.084341
1.34766
0.969685
0.703581
0.885703
1.23105
1.58205
1.60513
2.13792
1.50884
0.0413231
0.319788
0.173882
-0.270912
-0.477587
-0.368856
-0.158974
-0.502683
-0.352064
-0.592823
0.090188
0.287038
-0.774433
-0.824634
-0.608895
-0.701579
-0.728876
-0.705901
-0.620092
-0.162846
-0.448438
-0.464728
-1.07171
-1.01808
-1.16249
-1.1171
-1.37356
-1.26871
-1.40007
-1.18976
-1.20807
-1.40166
-1.32131
-1.38595
-1.21204
-1.1986
-1.59404
-1.56131
-1.58466
-1.49271
-1.53039
-1.53252
-1.50311
-1.52248
-1.46716
-1.31753
-1.41082
-1.41958
-1.05438
-1.11547
-0.965397
-0.992086
-1.20507
-1.08444
-1.13621
-0.903147
-0.917966
-1.00376
-0.958664
-1.00602
-0.938471
-0.947296
-1.29369
-1.22103
-1.22275
-1.18347
-1.2129
-1.2876
-1.07543
-1.12129
-1.07485
-0.982308
-1.02341
-1.07069
-0.817005
-0.876539
-0.773143
-0.808814
-0.960037
-0.896018
-0.939937
-0.561697
-0.620434
-0.864896
-0.766313
-0.847522
-0.672398
-0.716914
-1.10667
-1.01884
-1.09681
-0.977583
-0.9896
-1.01374
-0.964718
-0.979424
-0.932515
-0.8354
-0.888113
-0.919764
-0.227043
-0.421024
0.219742
0.106342
-0.701797
-0.413873
-0.623061
-0.284662
-0.119205
-0.486916
-0.301403
-0.561796
0.0748332
0.25805
-1.22109
-1.13755
-1.24803
-0.842287
-1.00402
-0.984671
-1.04547
-1.01176
-0.824083
-0.184734
-0.511909
-0.536197
-0.520322
-0.443931
-0.513885
-0.533526
-0.819202
-0.660365
-0.86634
-0.912398
-0.797935
-1.05472
-0.924255
-1.169
-0.65354
-0.528486
-1.49623
-1.43074
-1.52519
-1.10232
-1.29747
-1.22929
-1.41573
-1.36307
-1.24035
-0.704877
-0.983802
-0.905592
-1.5939
-1.59013
-1.57209
-1.60276
-1.59532
-1.58831
-1.52256
-1.57032
-1.53998
-1.59604
-1.60528
-1.6129
-1.56369
-1.59029
-1.56074
-1.60921
-1.60696
-1.60903
-1.31415
-1.40251
-1.34219
-1.49536
-1.45005
-1.42325
-1.47786
-1.47328
-1.52176
-1.59069
-1.55992
-1.55205
-1.53266
-1.54777
-1.45829
-1.5008
-1.45057
-1.47756
-1.41439
-1.20802
-1.2537
-1.22389
-1.24711
-1.18315
-1.29717
-1.3821
-1.1836
-1.21931
-1.15958
-1.33532
-1.28058
-1.31302
-1.19709
-1.23751
-1.24108
-1.37677
-1.30471
-1.36128
-1.53016
-1.56688
-1.41418
-1.478
-1.51766
-1.5033
-1.4658
-1.13539
-1.19341
-1.20653
-1.20257
-1.13311
-1.26544
-1.33134
-1.32275
-1.30678
-1.26116
-1.41804
-1.35806
-1.44201
-1.16913
-1.26412
-1.23992
-1.36311
-1.30343
-1.39336
-1.5712
-1.59486
-1.5237
-1.55519
-1.59575
-1.55611
-1.58226
-1.32925
-1.38249
-1.47145
-1.4325
-1.41292
-1.43868
-1.48363
-1.5752
-1.5666
-1.53325
-1.59115
-1.58311
-1.60615
-1.48011
-1.54242
-1.51045
-1.52345
-1.5213
-1.56279
-1.60269
-1.6049
-1.60664
-1.60871
-1.60609
-1.58132
-1.60173
-1.61399
-1.61323
-1.61384
-1.61055
-1.61033
-1.61348
-1.60859
-1.60426
-1.58641
-1.61583
-1.60883
-1.61037
-1.60853
-1.58369
-1.60724
-1.36227
-1.47615
-1.42546
-1.36573
-1.34228
-1.56819
-1.47481
-1.52969
-1.54878
-1.52112
-1.24036
-1.29838
-1.27275
-1.33907
-1.39987
-1.4654
-1.43762
-1.39561
-1.12107
-1.16189
-1.15114
-1.08938
-1.02032
-1.12507
-1.06282
-1.06452
-1.09669
-1.14257
-0.928871
-1.01189
-0.979794
-0.998579
-1.03923
-1.11521
-1.05105
-1.04205
-1.18388
-1.07695
-1.13026
-1.07944
-0.968168
-1.0708
-0.947883
-0.983988
-1.01962
-1.03023
-0.646449
-0.864026
-0.758233
-0.779693
-0.888912
-0.976976
-0.939861
-0.944724
-1.45866
-1.39679
-1.42913
-1.34898
-1.20222
-1.28222
-1.08102
-1.19849
-1.32664
-1.36076
-0.522201
-0.980156
-0.751501
-0.633021
-0.881284
-1.27768
-1.12169
-1.16199
-1.5995
-1.60311
-1.60245
-1.57348
-1.52874
-1.5563
-1.45972
-1.51719
-1.57969
-1.59721
-1.12923
-1.45968
-1.32853
-1.25485
-1.3715
-1.56575
-1.49257
-1.51905
SCALARS CoVolArea double 1
LOOKUP_TABLE default
0.0289543
0.00712387
0.0336401
0.0360885
0.0198543
0.0183853
0.0146804
0.00796554
0.0139797
0.0228188
0.0258663
0.0406854
0.0438659
0.0267614
0.0257504
0.0236793
0.0239921
0.0217053
0.0186289
0.016205
0.0438119
0.050182
0.0251009
0.0231333
0.0446876
0.0332467
0.0448428
0.059675
0.0262894
0.045743
0.0229738
0.0229117
0.0441777
0.0391201
0.0543649
0.0546762
0.064821
0.044639
0.0417873
0.0316891
0.03238
0.0267839
0.0452506
0.0369803
0.0398826
0.0397809
0.0435731
0.0484704
0.0258559
0.0254414
0.0234704
0.025534
0.0337356
0.0282873
0.0266423
0.0158781
0.0186883
0.0166201
0.0337838
0.0240334
0.0129301
0.0301299
0.0140576
0.0280647
0.0214792
0.0252289
0.0366309
0.00829542
0.01239
0.0412086
0.0241866
0.0243833
0.0495607
0.0469973
0.0497163
0.0543103
0.0452859
0.0229528
0.0195066
0.0284017
0.0272801
0.0263322
0.0264087
0.027486
0.0246761
0.0281381
0.0402729
0.027625
0.0385594
0.0403183
0.0416956
0.0581071
0.0455796
0.0428611
0.0505605
0.0547983
0.0572814
0.0403906
0.0180469
0.0351195
0.0108816
0.0111469
0.0394379
0.0299662
0.0328094
0.0138769
0.0172323
0.0127631
0.0138275
0.0283482
0.0218752
0.0250709
0.0625372
0.0520785
0.0584249
0.0316112
0.0425697
0.0293545
0.0476531
0.0506527
0.0419913
0.0661368
0.0512173
0.0379402
0.0644327
0.0573999
0.0607462
0.0514129
0.0564757
0.0465464
0.0417466
0.0565528
0.0425408
0.0447772
0.0355603
0.0433423
0.0424058
0.0291729
0.0383402
0.0308081
0.0352799
0.0318846
0.0438202
0.0246574
0.0277416
0.027157
0.0281371
0.0335615
0.0332714
0.0305995
0.0524499
0.0449988
0.0520058
0.0417951
0.0408541
0.046524
0.0324503
0.0300637
0.0320783
0.0259518
0.0283512
0.0260917
0.0393894
0.0404559
0.0395126
0.042837
0.0382719
0.0423404
0.0310006
0.0332972
0.0316587
0.046252
0.0445972
0.0485987
0.0340095
0.0401615
0.0304087
0.0462507
0.0451581
0.0467387
0.0212162
0.0227755
0.0209981
0.0264436
0.0224489
0.0246587
0.0225349
0.0206597
0.0252041
0.0442707
0.0352854
0.0364661
0.0398112
0.0346688
0.0286965
0.0342065
0.0291891
0.0291192
0.0209244
0.0258793
0.0255352
0.022812
0.0267227
0.026327
0.0275735
0.0273385
0.0117383
0.0146943
0.0131293
0.0184779
0.0154614
0.017688
0.0184315
0.014383
0.0189347
0.028416
0.0229635
0.0229459
0.0324189
0.0314504
0.0342421
0.0356323
0.0179106
0.0262398
0.0230078
0.00820153
0.0138038
0.0270939
0.0231027
0.0191652
0.0213158
0.0289392
0.00968913
0.0196336
0.0153759
0.0205938
0.0202869
0.0159319
0.0210035
0.023771
0.0298201
0.0417652
0.0388753
0.0361601
0.0326658
0.0311689
0.0224355
0.0264424
0.0435568
0.0410749
0.0424127
0.00767558
0.00794992
0.0168069
0.0104918
0.00997868
0.0122706
0.0175747
0.0360685
0.0321876
0.0278519
0.0364541
0.0307654
0.037767
0.0159146
0.0219097
0.0227156
0.0142151
0.0153121
0.0215496
0.0398017
0.0469178
0.0413179
0.0437177
0.0468341
0.0416352
0.044739
0.0507095
0.0468603
0.0479426
0.044225
0.0466001
0.0467405
0.045225
0.0516376
0.0484031
0.0473242
0.048792
0.0515894
0.0574074
0.0577986
0.0598207
0.0190438
0.0127624
0.0245931
0.0205611
0.0235461
0.0214138
0.0233953
0.0304584
0.0299949
0.0262699
0.0274421
0.0246228
0.0277755
0.0265591
0.0272447
0.027757
0.0278576
0.0227434
0.0237492
0.020674
0.0263543
0.0272401
0.027928
0.0270919
0.0278427
0.0259562
0.0252957
0.0263883
0.0248448
0.0225555
0.0305082
0.0255615
0.0321228
0.0412952
0.0405311
0.0388069
0.0326447
0.0417267
0.0300934
0.0253451
0.0283748
0.0393319
0.0334819
0.0360826
0.0401552
0.0345019
0.0422806
0.0406938
0.0446536
0.0284766
0.0380374
0.03391
0.0442722
0.0403641
0.0520757
0.04854
0.0588632
0.0529145
0.0614235
0.0428137
0.0455768
0.0489056
0.0445475
0.0425961
0.0459593
0.0510855
0.0519564
0.0501294
0.0488382
0.0607731
0.0521753
0.0557956
0.0429591
0.0448102
0.052481
0.0602139
0.059128
0.0647099
0.0283732
0.0332213
0.0139726
0.0198873
0.0400365
0.026351
0.0328108
0.0101272
0.00822404
0.0172808
0.00904632
0.0175244
0.00917199
0.0113465
0.0259797
0.0347196
0.0267994
0.0383128
0.0364315
0.042292
0.0290889
0.0320871
0.0276288
0.0147992
0.0205588
0.0245124
0.0173479
0.0135845
0.0148028
0.0152725
0.0199442
0.0163225
0.016851
0.0104747
0.00936332
0.0156634
0.0115705
0.0164375
0.0128741
0.0143027
0.0231412
0.0270108
0.0239683
0.0205807
0.0248059
0.0245576
0.0232836
0.0237675
0.0218823
0.0140811
0.0170284
0.0168047
0.0465292
0.0568625
0.0468113
0.0536239
0.0557661
0.0647953
0.0589483
0.0541703
0.0548443
0.0313212
0.0322526
0.030488
0.0404165
0.0337952
0.0353108
0.0259234
0.0331844
0.0411463
0.0354478
0.0425913
0.031167
0.0504366
0.0462755
0.0520273
0.039663
0.0445086
0.045138
0.0552166
0.0534174
0.0574351
0.0529249
0.0446301
0.0613883
0.0599165
0.0608762
0.0599857
0.0693831
0.0337375
0.0390404
0.0677268
0.0519701
0.0483674
0.0514972
0.0573188
0.049032
0.0611552
0.0473761
0.0642142
0.0574476
0.0547063
0.0546621
0.0549212
0.0605489
0.0676298
0.0692786
0.0714503
0.050559
0.0502259
0.061754
0.0562853
0.0464642
0.052644
0.0516038
0.0431173
0.047463
0.0565837
0.0457754
0.043321
0.0493715
0.0582007
0.0294164
0.0399375
0.0282679
0.0450728
0.0418487
0.0406425
0.0352665
0.0350218
0.0465009
0.0615058
0.0603521
0.0546616
0.0439038
0.0429263
0.0432927
0.0430929
0.0399811
0.0399906
0.0367505
0.0244082
0.0306261
0.0310189
0.0292712
0.0282732
0.0379403
0.0400693
0.0280264
0.0336839
0.0271213
0.0324828
0.0286142
0.0252328
0.0287873
0.0290147
0.032812
0.0487921
0.0422387
0.0450358
0.052566
0.039084
0.0509869
0.0637841
0.0498759
0.0228229
0.0270984
0.0244205
0.0250038
0.0254342
0.0273685
0.0310425
0.0280705
0.0276389
0.0286678
0.0257323
0.0280495
0.0281483
0.0260287
0.0349836
0.0298107
0.0341926
0.0345421
0.0361977
0.0345647
0.0342603
0.0321072
0.0306529
0.0286748
0.0277484
0.0315746
0.0377514
0.0310911
0.0319045
0.0301835
0.0281085
0.0275336
0.0367389
0.0337852
0.0338853
0.0484891
0.0650158
0.0568988
0.0476042
0.0475534
0.0401761
0.0441764
0.0411922
0.0432416
0.0462177
0.039998
0.0578338
0.0517715
0.0463903
0.0467803
0.0520024
0.0526299
0.0511513
0.0347274
0.0403779
0.0346669
0.0392867
0.0454579
0.0426156
0.0422546
0.0409723
0.0417493
0.0401106
0.0438774
0.0503119
0.0447512
0.0440216
0.0426039
0.0440557
0.044734
0.0496332
0.030257
0.0327109
0.0288866
0.0281664
0.0307068
0.0307346
0.0292807
0.0288815
0.0301344
0.0314462
0.015245
0.0290236
0.0229163
0.0227543
0.0298822
0.0346281
0.0337112
0.0352462
0.027424
0.0280478
0.0257907
0.0240932
0.0236012
0.0260072
0.0267764
0.0244727
0.0266557
0.0291211
0.0165416
0.024879
0.0226931
0.0207882
0.0254418
0.0299974
0.0288862
0.0272566
SCALARS SignedDistance double 1
LOOKUP_TABLE default
1.11386
1.16922
-0.00960243
0.16631
-0.00445464
1.14154
0.00129072
1.3468
0.0148609
-0.0588198
1.24074
0.138048
-0.0221347
0.070161
0.948022
1.24901
0.0968376
0.0610856
1.12139
-0.00374277
-0.00057087
0.0754434
-0.00171117
0.0437224
0.00390755
0.152686
-0.0200042
0.115553
1.23569
0.621106
0.412557
1.19837
0.0119835
0.0680492
0.00812697
0.082537
0.000354594
0.144875
-0.00720001
0.0932451
0.0378727
0.0554061
0.0905419
0.0664198
0.00623306
0.0715055
-0.00435387
0.0838908
1.17293
0.156054
0.929627
0.882274
0.024756
1.12867
1.24652
0.0309666
0.544545
1.22862
0.327512
1.12592
0.133949
0.00984573
1.24872
0.744116
1.17011
-1.0146
0.0538057
1.17619
0.0584034
-0.0439643
0.0217722
0.236806
0.00075877
0.0906984
0.0307394
0.00413021
-0.00438418
0.668817
1.11722
0.0898975
0.0287023
0.124612
-0.00702566
0.0873
1.09144
0.544005
0.691366
0.196641
0.00103125
0.304249
0.997449
0.142016
0.000906249
0.0423793
-0.00092064
1.08891
0.00699061
0.807093
1.37514
1.1532
1.4191
1.37601
0.0243043
1.18572
0.191011
1.19959
1.34262
1.21017
1.22021
0.0796257
1.11806
0.108205
0.0344865
0.162169
0.00796128
0.0394599
0.000279172
0.116033
-0.00306764
-0.0455794
-0.0448271
-0.0351233
1.28845e-05
0.170055
-0.00461438
-0.0611425
2.19571e-05
0.0641317
-0.000563498
0.105157
0.00047529
-0.0024425
-0.00347595
0.00661076
-0.00241002
-0.0670635
-0.0246112
0.103226
-0.00758499
0.0446895
-0.00257633
0.118315
-0.0197454
0.0620514
-0.000277618
0.996015
-0.000408056
0.136647
-0.0140709
0.0467
-0.0312744
0.929366
-0.00718373
0.678466
1.0876
0.0537442
0.122308
0.680455
1.24451
-0.00758683
-0.0104486
0.0568679
0.914739
0.0373815
0.0250196
0.0591455
0.00370614
0.0234797
0.36565
0.0448239
0.038724
0.10452
-0.0120995
0.112459
0.0207541
0.0751312
0.00681626
0.0342422
-0.0110321
0.117312
1.17321
1.10223
1.13066
0.676958
1.08331
1.14417
0.968478
0.528398
0.335671
0.0741402
0.00147725