<VTKFile type="ImageData" version="1.0" byte_order="LittleEndian" header_type="UInt64">
	<ImageData WholeExtent="0 44 0 44 0 44" Origin="0.735898 0.991279 0.801301" Spacing="0.0104773 0.0104773 0.0104773">
		<Piece Extent="0 44 0 44 0 44">
			<PointData Scalars="Scalars_">
				<DataArray type="Float32" Name="Scalars_" format="ascii" RangeMin="0" RangeMax="100">
0.248189
0.241803
0.235528
0.229354
0.223274
0.21729
0.211412
0.205662
0.200078
0.194702
0.189581
0.184764
0.180298
0.176228
0.172592
0.169427
0.166765
0.164637
0.163073
0.16211
0.162847
0.164026
0.165518
0.16727
0.169185
0.171088
0.172834
0.17452
0.1763
0.178312
0.180646
0.183346
0.186428
0.189884
0.193702
0.19786
0.20233
0.207086
0.21209
0.217305
0.222694
0.228215
0.233839
0.239541
0.245311
0.244509
0.238034
0.231669
0.225402
0.219225
0.21314
0.207157
0.201301
0.195606
0.190118
0.184884
0.179955
0.175379
0.171203
0.167469
0.164214
0.161476
0.159286
0.157677
0.156691
0.157442
0.158643
0.160156
0.161919
0.163821
0.165688
0.167408
0.169097
0.170899
0.172941
0.175311
0.178053
0.18118
0.184686
0.188556
0.192769
0.197296
0.202108
0.20717
0.212442
0.217884
0.22346
0.229136
0.234892
0.240713
0.241218
0.234661
0.228212
0.221856
0.215589
0.209409
0.20333
0.197373
0.191574
0.18598
0.180638
0.175601
0.17092
0.166643
0.162813
0.159471
0.156657
0.154406
0.152754
0.151746
0.152509
0.153732
0.15526
0.157013
0.15887
0.160669
0.162346
0.164033
0.165853
0.167921
0.170322
0.1731
0.176267
0.179815
0.183731
0.187991
0.192568
0.197431
0.202543
0.207868
0.213363
0.218989
0.224717
0.230524
0.236399
0.238337
0.231707
0.22518
0.218746
0.212396
0.20613
0.199961
0.193911
0.188017
0.182323
0.176882
0.171746
0.166966
0.162592
0.158672
0.155247
0.152361
0.150052
0.148358
0.147329
0.148105
0.149346
0.150878
0.152583
0.154344
0.156033
0.157654
0.159337
0.161171
0.163259
0.165687
0.168495
0.171695
0.17528
0.179233
0.183534
0.188153
0.193061
0.198221
0.203594
0.209139
0.214816
0.220595
0.226454
0.232382
0.235893
0.229198
0.222604
0.2161
0.209677
0.203336
0.197087
0.190954
0.184974
0.179192
0.173661
0.168434
0.163565
0.159104
0.155101
0.151601
0.148648
0.146284
0.144552
0.143504
0.14429
0.145547
0.147055
0.14864
0.150228
0.151765
0.153323
0.155002
0.15685
0.158957
0.161408
0.164242
0.16747
0.171084
0.175069
0.179403
0.184061
0.18901
0.194214
0.199634
0.205227
0.210955
0.216785
0.222696
0.22868
0.233912
0.227164
0.220513
0.21395
0.207466
0.201061
0.194746
0.188543
0.18249
0.176634
0.171026
0.165721
0.160773
0.156237
0.152161
0.148595
0.145583
0.143171
0.141405
0.14034
0.141135
0.142401
0.143819
0.145147
0.146463
0.147822
0.149326
0.151012
0.152877
0.155006
0.15748
0.160338
0.16359
0.167229
0.171242
0.175607
0.1803
0.185287
0.190534
0.196
0.201642
0.20742
0.213303
0.219269
0.225306
0.23243
0.225641
0.218947
0.212338
0.205807
0.199353
0.192986
0.186729
0.180619
0.174703
0.169035
0.163668
0.15866
0.154063
0.149929
0.146308
0.143249
0.140799
0.139005
0.137926
0.138729
0.139977
0.141127
0.141955
0.142939
0.144142
0.145626
0.147334
0.149228
0.151388
0.153891
0.156777
0.160054
0.163718
0.167758
0.172153
0.176879
0.181906
0.187196
0.192708
0.198399
0.204229
0.210166
0.216186
0.222278
0.231485
0.224687
0.217966
0.211328
0.204767
0.19828
0.191879
0.185587
0.17944
0.173486
0.167778
0.162371
0.157322
0.152685
0.148513
0.144856
0.141764
0.139287
0.137475
0.136387
0.137194
0.138295
0.138664
0.138801
0.139546
0.14068
0.142189
0.143945
0.145886
0.148091
0.150636
0.153558
0.156865
0.160558
0.164627
0.169055
0.173818
0.178884
0.184218
0.189776
0.195518
0.201401
0.207391
0.213465
0.219613
0.23092
0.224715
0.218445
0.212045
0.205529
0.199064
0.192684
0.186412
0.180283
0.174343
0.168647
0.16325
0.158208
0.153575
0.149403
0.145745
0.14265
0.140168
0.138352
0.137264
0.13755
0.136758
0.135767
0.135579
0.136289
0.137452
0.13902
0.140844
0.142854
0.145123
0.147725
0.150692
0.154039
0.157768
0.161871
0.166335
0.171136
0.176242
0.181618
0.187224
0.193014
0.198949
0.204992
0.211121
0.217322
0.228053
0.222305
0.21673
0.211262
0.205771
0.200069
0.193995
0.187772
0.181672
0.17576
0.170088
0.164714
0.159691
0.155072
0.150911
0.147254
0.144149
0.141622
0.139617
0.137643
0.13557
0.1337
0.13247
0.132517
0.1333
0.134531
0.136168
0.138072
0.140168
0.142519
0.145188
0.148211
0.151604
0.155374
0.159516
0.164017
0.168854
0.173999
0.179415
0.185062
0.190898
0.196883
0.202979
0.20916
0.215415
0.224596
0.218879
0.213412
0.208195
0.203216
0.198424
0.1937
0.188804
0.183421
0.177677
0.172059
0.166715
0.161712
0.157092
0.152882
0.149057
0.145442
0.141777
0.138251
0.135099
0.132487
0.130524
0.129306
0.129767
0.130681
0.131988
0.133683
0.135669
0.137865
0.14031
0.143057
0.146141
0.149584
0.153396
0.157575
0.162109
0.166978
0.172154
0.177603
0.183286
0.189164
0.195195
0.201343
0.20758
0.213888
0.221364
0.215605
0.210104
0.204875
0.199925
0.195259
0.190864
0.186693
0.182632
0.178468
0.17393
0.168895
0.163702
0.158529
0.153355
0.148316
0.143568
0.139236
0.135407
0.132149
0.12952
0.127579
0.126394
0.127277
0.12842
0.129824
0.131561
0.133614
0.135917
0.138471
0.141304
0.144453
0.147945
0.151796
0.156007
0.160568
0.16546
0.170659
0.176132
0.181847
0.187764
0.193844
0.20005
0.20635
0.212724
0.21849
0.212688
0.207146
0.201877
0.196895
0.192205
0.187804
0.183667
0.179719
0.175805
0.171668
0.167054
0.161919
0.156477
0.151027
0.145803
0.140953
0.136569
0.132714
0.129448
0.126828
0.12491
0.123762
0.124972
0.126441
0.128017
0.129792
0.131876
0.134252
0.136891
0.139797
0.143002
0.14654
0.150429
0.154672
0.159261
0.164177
0.169399
0.174899
0.180647
0.18661
0.192751
0.199033
0.20542
0.211883
0.215998
0.210162
0.204587
0.199288
0.194277
0.189561
0.185141
0.180995
0.17706
0.173195
0.169155
0.164666
0.159632
0.154238
0.148788
0.143541
0.138663
0.134252
0.130378
0.127104
0.124489
0.122595
0.121487
0.122869
0.12467
0.12654
0.128409
0.130477
0.132831
0.135472
0.138407
0.141659
0.14525
0.149192
0.153484
0.158113
0.163065
0.168318
0.173849
0.179635
0.185647
0.191857
0.198232
0.204739
0.211347
0.213897
0.208038
0.202443
0.197125
0.192096
0.187366
0.182936
0.178788
0.174866
0.171042
0.167084
0.162707
0.157775
0.152436
0.146997
0.141738
0.136838
0.132408
0.128521
0.125244
0.122643
0.120785
0.119744
0.12118
0.123194
0.125321
0.127312
0.129343
0.131639
0.134282
0.137278
0.140616
0.144289
0.148297
0.152635
0.157295
0.162265
0.16753
0.173072
0.178873
0.184909
0.191158
0.197592
0.204183
0.210902
0.212194
0.206325
0.200721
0.195398
0.190367
0.185638
0.181211
0.177072
0.17317
0.169389
0.165509
0.161244
0.156422
0.151156
0.14575
0.140498
0.135597
0.131166
0.127287
0.124029
0.121467
0.119683
0.118781
0.120101
0.122124
0.124308
0.126341
0.128341
0.130614
0.133293
0.136381
0.139841
0.143637
0.147744
0.152151
0.156852
0.16184
0.16711
0.172649
0.178446
0.184484
0.190744
0.197207
0.203847
0.21064
0.210888
0.20502
0.19942
0.194104
0.189085
0.184373
0.179969
0.175858
0.171994
0.168271
0.164479
0.160331
0.155631
0.150462
0.14512
0.139909
0.135044
0.130652
0.126815
0.123603
0.121085
0.11933
0.118415
0.119414
0.121279
0.123489
0.125733
0.128004
0.130495
0.133324
0.136516
0.140053
0.143909
0.148066
0.152507
0.157226
0.162215
0.167466
0.17297
0.178716
0.184691
0.190885
0.197285
0.203874
0.210642
0.209925
0.204053
0.198451
0.193139
0.188131
0.18344
0.17907
0.175016
0.171246
0.167668
0.16409
0.16021
0.155781
0.150826
0.145599
0.140433
0.135581
0.131187
0.127338
0.124102
0.121545
0.119729
0.118714
0.119503
0.12126
0.123424
0.125734
0.128166
0.130813
0.133753
0.137013
0.140589
0.144468
0.148633
0.153068
0.157759
0.162698
0.167877
0.173292
0.178937
0.184807
0.1909
0.197211
0.203732
0.210455
0.208816
0.202824
0.197098
0.19166
0.186532
0.181738
0.177299
0.173233
0.169544
0.166212
0.163144
0.160071
0.156442
0.151809
0.146723
0.141632
0.136823
0.132459
0.128628
0.125399
0.122831
0.120979
0.119893
0.120614
0.122251
0.124304
0.126553
0.128998
0.131697
0.134689
0.137984
0.141579
0.145462
0.149618
0.154031
0.158691
0.163588
0.168721
0.174087
0.179686
0.185517
0.191574
0.197855
0.20435
0.21105
0.206058
0.199745
0.193698
0.18795
0.182528
0.177465
0.172795
0.168554
0.164775
0.161495
0.158738
0.156505
0.15467
0.152633
0.148411
0.143444
0.138708
0.134398
0.130604
0.127397
0.124832
0.122961
0.121834
0.122474
0.123975
0.125892
0.128058
0.130479
0.133181
0.136181
0.139481
0.143071
0.146941
0.151073
0.155455
0.160077
0.164933
0.170021
0.175344
0.180901
0.186691
0.192711
0.198955
0.205417
0.212086
0.2012
0.194586
0.18825
0.182224
0.17654
0.171231
0.166336
0.161898
0.157958
0.154568
0.15178
0.149658
0.148299
0.148598
0.148623
0.145818
0.141193
0.136959
0.133221
0.130051
0.127505
0.125633
0.124488
0.125035
0.1264
0.128181
0.130256
0.132627
0.135301
0.138278
0.14155
0.145107
0.148935
0.15302
0.157351
0.161919
0.166723
0.171761
0.177034
0.182544
0.188289
0.194265
0.200467
0.206888
0.213518
0.195547
0.188712
0.182157
0.175913
0.170012
0.164491
0.159391
0.154756
0.150635
0.147084
0.144163
0.141948
0.140543
0.140999
0.142499
0.144448
0.144029
0.14009
0.136429
0.133313
0.130801
0.128944
0.127799
0.12824
0.129477
0.131132
0.133112
0.135419
0.138042
0.14097
0.144188
0.147681
0.151439
0.155448
0.159703
0.164198
0.168931
0.173905
0.179118
0.184572
0.190264
0.196191
0.202345
0.208719
0.215304
0.189939
0.182911
0.176158
0.16971
0.163603
0.157874
0.152567
0.14773
0.143417
0.139687
0.136609
0.134265
0.132774
0.133137
0.134742
0.137191
0.140294
0.14277
0.140168
0.137124
0.134662
0.132835
0.131702
0.132028
0.133149
0.134688
0.136574
0.138805
0.141361
0.144218
0.147356
0.15076
0.15442
0.158329
0.162484
0.166883
0.171529
0.176423
0.181563
0.186951
0.192582
0.198451
0.204551
0.210874
0.217408
0.18461
0.177397
0.17045
0.163802
0.157488
0.151549
0.14603
0.140984
0.136468
0.132548
0.129299
0.126814
0.125224
0.125434
0.127098
0.129663
0.132993
0.13698
0.141181
0.141421
0.139025
0.137241
0.136131
0.136339
0.137356
0.138787
0.140581
0.142726
0.145199
0.147967
0.151004
0.154297
0.157837
0.161625
0.165661
0.16995
0.174493
0.179293
0.18435
0.189662
0.195223
0.201027
0.207066
0.213331
0.219811
0.179618
0.172227
0.165092
0.158245
0.151725
0.145574
0.139839
0.134577
0.129849
0.125729
0.122298
0.119659
0.117958
0.117977
0.119704
0.122378
0.125852
0.130023
0.134803
0.139999
0.143489
0.142098
0.141019
0.141113
0.142037
0.143368
0.145066
0.147117
0.149493
0.152156
0.155076
0.158242
0.161649
0.165303
0.16921
0.173376
0.177807
0.182505
0.18747
0.192697
0.19818
0.203913
0.209885
0.216086
0.222505
0.174988
0.167427
0.160111
0.153072
0.146349
0.139987
0.134034
0.128551
0.123606
0.119275
0.115651
0.112846
0.111018
0.110815
0.112615
0.115405
0.119025
0.123363
0.128329
0.133843
0.139795
0.14528
0.146269
0.146294
0.147135
0.148369
0.149966
0.151915
0.154181
0.156725
0.159517
0.162547
0.165814
0.169329
0.173103
0.177145
0.181461
0.186053
0.19092
0.196056
0.201457
0.207111
0.21301
0.219141
0.225494
0.170731
0.163016
0.155532
0.148311
0.141394
0.134825
0.128657
0.122952
0.117784
0.113236
0.109408
0.106422
0.104448
0.104002
0.105882
0.108794
0.112565
0.117073
0.122219
0.127922
0.134108
0.140699
0.147322
0.151186
0.152545
0.153726
0.15522
0.157056
0.159202
0.161619
0.164277
0.167168
0.170297
0.173677
0.177321
0.181241
0.185442
0.189928
0.194696
0.19974
0.205053
0.210624
0.216444
0.2225
0.228781
0.166849
0.159001
0.151369
0.143985
0.136888
0.130124
0.123749
0.117827
0.112436
0.107666
0.103625
0.100446
0.098303
0.0976037
0.099568
0.102605
0.106528
0.111205
0.11653
0.122415
0.128785
0.135573
0.142705
0.149957
0.156181
0.159069
0.160736
0.162483
0.164505
0.166791
0.169316
0.172073
0.17507
0.178322
0.181845
0.185649
0.189742
0.194124
0.198793
0.203744
0.208966
0.214451
0.220188
0.226165
0.232367
0.163329
0.155379
0.147628
0.140107
0.132855
0.125918
0.119352
0.113225
0.107618
0.102627
0.0983696
0.0949845
0.0926534
0.0916996
0.0937476
0.0969071
0.100977
0.105817
0.111314
0.117374
0.123918
0.130879
0.138177
0.145634
0.152849
0.159247
0.164535
0.167686
0.169947
0.172179
0.174593
0.17723
0.180108
0.183246
0.186658
0.190356
0.194346
0.198629
0.203201
0.208059
0.213191
0.218587
0.224238
0.23013
0.236251
0.160142
0.152126
0.144295
0.136677
0.129308
0.122232
0.115505
0.109196
0.10339
0.0981897
0.0937171
0.0901214
0.0875876
0.0863865
0.0885108
0.0917822
0.0959881
0.100978
0.106633
0.112855
0.11956
0.126679
0.134127
0.141693
0.14892
0.15521
0.160379
0.164901
0.169361
0.174067
0.178595
0.18211
0.185231
0.188378
0.191726
0.19534
0.199238
0.203428
0.207909
0.212675
0.217716
0.223024
0.228586
0.234392
0.240429
0.157246
0.149201
0.141335
0.13367
0.126236
0.119073
0.112233
0.105785
0.0998152
0.094429
0.0897568
0.0859555
0.0832159
0.0817823
0.0839653
0.0873275
0.0916467
0.0967655
0.102558
0.108922
0.115771
0.123031
0.130609
0.138261
0.145469
0.151621
0.156643
0.161109
0.165593
0.17037
0.175525
0.181065
0.186934
0.192161
0.196445
0.200368
0.204325
0.208479
0.212891
0.217574
0.22253
0.22775
0.233224
0.238941
0.244891
0.154607
0.146561
0.138699
0.131038
0.123602
0.116422
0.109542
0.103024
0.0969492
0.0914264
0.0865906
0.0826069
0.0796742
0.078032
0.08024
0.0836558
0.0880535
0.0932691
0.0991713
0.105652
0.112621
0.12
0.127688
0.135398
0.142547
0.148528
0.153394
0.157806
0.162313
0.167152
0.172386
0.178015
0.184013
0.19035
0.196973
0.203268
0.208595
0.213348
0.21796
0.222673
0.227588
0.232738
0.238132
0.243763
0.249625
0.152231
0.144188
0.136347
0.128724
0.12134
0.114218
0.107392
0.100907
0.0948309
0.0892623
0.0843352
0.0802212
0.0771308
0.0753152
0.0774878
0.0809
0.0853272
0.0905987
0.0965747
0.10314
0.110201
0.117673
0.125444
0.133177
0.140219
0.145987
0.150683
0.155036
0.159561
0.164454
0.169758
0.175462
0.181537
0.187953
0.194679
0.201684
0.208913
0.21584
0.221927
0.227397
0.232623
0.237863
0.243246
0.248823
0.25461
0.150173
0.142119
0.134286
0.126698
0.11938
0.112359
0.105667
0.0993382
0.0934199
0.0879788
0.0831155
0.0789826
0.0758035
0.0738603
0.0758919
0.0792231
0.0836229
0.0889045
0.0949149
0.101529
0.108647
0.116179
0.123999
0.131712
0.138582
0.144073
0.148566
0.152847
0.157377
0.162311
0.167671
0.173436
0.179575
0.186054
0.192842
0.19991
0.20723
0.214777
0.222477
0.229821
0.23645
0.242494
0.248252
0.253962
0.259764
0.148529
0.140441
0.132587
0.124995
0.117698
0.110735
0.104147
0.0979844
0.0923058
0.0871839
0.0827146
0.0790321
0.0763269
0.0748562
0.0766586
0.0798075
0.0840631
0.089229
0.0951459
0.101684
0.108738
0.116214
0.123954
0.131449
0.13789
0.142907
0.147111
0.151287
0.155805
0.160762
0.166161
0.171969
0.178155
0.18468
0.191514
0.198626
0.20599
0.213581
0.221378
0.229355
0.237382
0.245026
0.252053
0.258547
0.264747
0.147444
0.139319
0.131428
0.123805
0.116483
0.109505
0.102918
0.0967762
0.0911435
0.0860959
0.0817266
0.0781562
0.0755498
0.0741514
0.0766011
0.0802511
0.0848405
0.0902148
0.096254
0.102857
0.109939
0.117411
0.125085
0.13228
0.138083
0.142461
0.14633
0.15039
0.154882
0.159847
0.165264
0.171098
0.177309
0.183862
0.190722
0.197861
0.20525
0.212866
0.220687
0.228695
0.23687
0.245173
0.253414
0.26128
0.268597
0.148599
0.1405
0.132634
0.125028
0.117719
0.110745
0.104154
0.0980025
0.092359
0.0873103
0.0829684
0.0794816
0.0770561
0.0760735
0.0785164
0.0821843
0.0868064
0.0922083
0.0982595
0.104858
0.111918
0.119349
0.126926
0.133899
0.139398
0.143555
0.147319
0.151331
0.155795
0.160739
0.166137
0.171952
0.178145
0.184678
0.19152
0.19864
0.206011
0.213609
0.221414
0.229404
0.237564
0.245871
0.254285
0.262701
0.270928
0.150504
0.142469
0.134665
0.127125
0.119881
0.112975
0.106454
0.100378
0.0948186
0.0898658
0.0856356
0.0822782
0.0800071
0.0793141
0.0816965
0.0852951
0.0898472
0.0951781
0.101156
0.107679
0.11466
0.122005
0.129457
0.136225
0.141468
0.145432
0.14909
0.153038
0.157453
0.162351
0.167705
0.173477
0.179627
0.186119
0.19292
0.199999
0.207332
0.214893
0.222661
0.230618
0.238744
0.247025
0.25544
0.263954
0.272497
0.153091
0.14515
0.137446
0.13001
0.122875
0.116084
0.109685
0.10374
0.0983191
0.093514
0.0894374
0.0862343
0.0841098
0.0836406
0.0859318
0.0894126
0.0938363
0.0990357
0.104883
0.111276
0.118131
0.125348
0.132648
0.139214
0.144229
0.148019
0.151572
0.155446
0.159795
0.16463
0.16992
0.175628
0.181715
0.188146
0.194886
0.201908
0.209184
0.21669
0.224406
0.232311
0.24039
0.248626
0.257003
0.265503
0.274097
0.156305
0.148485
0.140909
0.133607
0.126614
0.119973
0.113732
0.107952
0.102704
0.098076
0.0941747
0.091136
0.0891503
0.0888619
0.0910468
0.0943846
0.0986477
0.103679
0.109357
0.115585
0.122278
0.129335
0.136462
0.142821
0.147622
0.151255
0.154704
0.158495
0.162766
0.167521
0.172733
0.178362
0.18437
0.190722
0.197387
0.204334
0.211538
0.218975
0.226623
0.234464
0.24248
0.250657
0.25898
0.267434
0.276
0.160095
0.152418
0.144992
0.137847
0.13102
0.124552
0.118492
0.112899
0.107843
0.103406
0.099689
0.0968157
0.0949597
0.0948209
0.0968946
0.100079
0.104165
0.109008
0.114495
0.120533
0.12704
0.133915
0.140848
0.146994
0.151591
0.155078
0.158425
0.162129
0.166312
0.170979
0.1761
0.181636
0.187553
0.193814
0.200389
0.207249
0.214367
0.221721
0.22929
0.237054
0.244997
0.253103
0.261358
0.269749
0.278261
0.164414
0.156896
0.149636
0.142664
0.136018
0.129739
0.123874
0.118481
0.113625
0.109385
0.105852
0.10314
0.101404
0.10139
0.103354
0.106383
0.110286
0.114932
0.120216
0.12605
0.132357
0.139034
0.145759
0.151686
0.156085
0.159434
0.162682
0.166294
0.170385
0.174956
0.179976
0.185411
0.191225
0.197385
0.20386
0.210621
0.217643
0.224904
0.232383
0.24006
0.247918
0.255942
0.26412
0.272437
0.280881
0.169217
0.161869
0.154786
0.147999
0.141545
0.135463
0.1298
0.124611
0.119957
0.115913
0.11256
0.110001
0.108375
0.108464
0.110324
0.113201
0.116924
0.121372
0.126448
0.132072
0.13817
0.144639
0.151147
0.156849
0.161056
0.164273
0.167424
0.170943
0.174938
0.179406
0.184322
0.189649
0.195354
0.201404
0.20777
0.214424
0.221342
0.2285
0.23588
0.24346
0.251225
0.25916
0.26725
0.275484
0.28385
0.174463
0.167292
0.160393
0.153798
0.14754
0.141659
0.1362
0.131215
0.126761
0.122906
0.119726
0.117312
0.115787
0.115961
0.117724
0.120456
0.124003
0.128256
0.133126
0.138539
0.144425
0.150682
0.156968
0.162442
0.166458
0.169549
0.172604
0.176032
0.179927
0.184292
0.189098
0.194312
0.199903
0.205837
0.212089
0.218629
0.225434
0.232484
0.239756
0.247233
0.254898
0.262735
0.270732
0.278876
0.287154
0.180111
0.173123
0.166412
0.160011
0.153951
0.148272
0.143015
0.13823
0.133969
0.130297
0.12728
0.125001
0.123569
0.123811
0.125485
0.128081
0.13146
0.135524
0.140194
0.145399
0.151075
0.157119
0.163179
0.168422
0.172251
0.17522
0.178183
0.181518
0.185316
0.189575
0.194269
0.199367
0.204839
0.210655
0.216787
0.223208
0.229897
0.236832
0.243992
0.251359
0.258917
0.266651
0.274547
0.282595
0.290782
0.240742
0.234305
0.227993
0.221791
0.215687
0.209675
0.203755
0.197945
0.192276
0.186794
0.181549
0.176597
0.171992
0.167784
0.164018
0.160736
0.157975
0.155767
0.154143
0.153143
0.153902
0.155116
0.15664
0.158434
0.16039
0.162313
0.164044
0.165715
0.1675
0.169544
0.171936
0.174717
0.177898
0.181469
0.185411
0.1897
0.194304
0.199187
0.204311
0.209631
0.215103
0.220687
0.226353
0.232083
0.237872
0.236959
0.230427
0.224018
0.217717
0.211509
0.205389
0.199358
0.193433
0.187645
0.18204
0.176671
0.171595
0.166867
0.162542
0.158665
0.155282
0.152434
0.150155
0.14848
0.147455
0.148229
0.149466
0.151017
0.15283
0.154785
0.156682
0.158397
0.16008
0.161895
0.163974
0.166408
0.169237
0.172471
0.176098
0.1801
0.18445
0.189116
0.194062
0.199247
0.204628
0.210158
0.215798
0.221518
0.227302
0.233146
0.23357
0.226952
0.220453
0.214058
0.207753
0.201532
0.195396
0.189362
0.183461
0.17774
0.172253
0.167058
0.162212
0.157772
0.153787
0.150305
0.14737
0.14502
0.143297
0.142245
0.143033
0.144295
0.145867
0.147681
0.149605
0.151446
0.153129
0.154821
0.156658
0.158768
0.161238
0.164108
0.167387
0.171063
0.175116
0.17952
0.184241
0.189243
0.194484
0.199919
0.205504
0.211198
0.216972
0.22281
0.22871
0.230602
0.223904
0.217323
0.210843
0.20445
0.198137
0.191904
0.18577
0.179764
0.173935
0.168337
0.16303
0.158073
0.153524
0.149436
0.145859
0.14284
0.140424
0.138651
0.137575
0.138378
0.139662
0.141243
0.143026
0.14487
0.146615
0.148252
0.149948
0.151803
0.153937
0.156436
0.159341
0.162657
0.166373
0.170469
0.174918
0.179686
0.184738
0.190031
0.195518
0.201155
0.206902
0.212729
0.218622
0.224578
0.22808
0.221314
0.214661
0.208106
0.201634
0.195239
0.18892
0.182696
0.176596
0.17067
0.164972
0.159563
0.154505
0.149856
0.145673
0.142008
0.138911
0.136431
0.134614
0.133515
0.13433
0.135633
0.137204
0.138889
0.140579
0.14218
0.143763
0.145462
0.147333
0.149486
0.152009
0.154942
0.158288
0.162036
0.166167
0.170653
0.175463
0.180559
0.185899
0.191436
0.197125
0.202925
0.208806
0.214754
0.220767
0.226037
0.219211
0.212498
0.205879
0.199343
0.192878
0.186487
0.180186
0.174007
0.167997
0.162212
0.156716
0.151569
0.146833
0.142566
0.138824
0.135658
0.13312
0.131263
0.130145
0.13097
0.132286
0.133794
0.135254
0.136684
0.138106
0.13964
0.141347
0.143234
0.145406
0.147952
0.150908
0.154279
0.158053
0.162212
0.166731
0.171578
0.176716
0.182102
0.187689
0.19343
0.199284
0.205221
0.211225
0.217296
0.224505
0.217637
0.210876
0.204209
0.197621
0.191102
0.184655
0.178294
0.172053
0.165977
0.160124
0.154558
0.14934
0.144535
0.1402
0.136394
0.133171
0.130587
0.128696
0.127562
0.128396
0.129711
0.131008
0.131997
0.133075
0.134326
0.13584
0.137569
0.139481
0.14168
0.144252
0.147233
0.150627
0.154425
0.158611
0.163161
0.168045
0.173224
0.178656
0.184293
0.190088
0.195997
0.201991
0.208054
0.214182
0.223531
0.216649
0.209858
0.20316
0.196539
0.189985
0.183501
0.177102
0.170819
0.164701
0.158803
0.153191
0.147927
0.143075
0.138694
0.134845
0.131584
0.128968
0.127054
0.125909
0.126748
0.12799
0.128602
0.128832
0.129614
0.130778
0.132317
0.134092
0.136047
0.138288
0.140899
0.143912
0.147334
0.151159
0.155374
0.159957
0.164879
0.170101
0.175581
0.18127
0.187119
0.193085
0.199136
0.205257
0.211442
0.222963
0.216653
0.210313
0.203872
0.197319
0.190791
0.184331
0.177954
0.171693
0.165592
0.159709
0.154108
0.148852
0.144005
0.139626
0.135775
0.132509
0.129887
0.127969
0.126823
0.127292
0.126786
0.125825
0.125559
0.126272
0.127458
0.129061
0.130906
0.132928
0.135232
0.137897
0.140955
0.144414
0.148273
0.152523
0.157144
0.162106
0.167373
0.1729
0.178639
0.184542
0.190565
0.196674
0.202852
0.209094
0.22
0.214118
0.208426
0.202872
0.197351
0.191681
0.185662
0.179362
0.173133
0.167064
0.16121
0.155636
0.150404
0.145574
0.141208
0.137363
0.134092
0.131442
0.129418
0.127693
0.125734
0.123791
0.122481
0.122406
0.123185
0.124442
0.126122
0.128054
0.130165
0.13255
0.135283
0.138395
0.1419
0.1458
0.15009
0.15475
0.159751
0.16506
0.170631
0.176418
0.182372
0.188449
0.194615
0.20085
0.207147
0.216431
0.210562
0.204948
0.199594
0.194495
0.189621
0.184879
0.18006
0.174831
0.169045
0.163264
0.15773
0.152527
0.147713
0.14333
0.139389
0.135808
0.132244
0.128672
0.125391
0.122632
0.120544
0.119242
0.1196
0.120492
0.12182
0.123565
0.125589
0.127807
0.13029
0.133099
0.136271
0.139825
0.143769
0.148096
0.15279
0.157826
0.163168
0.168775
0.174603
0.180604
0.186735
0.192958
0.199251
0.205604
0.213097
0.207178
0.201521
0.196139
0.191047
0.186253
0.181753
0.177521
0.173469
0.169408
0.165024
0.16006
0.15481
0.149652
0.144469
0.13932
0.134393
0.129856
0.125821
0.122373
0.119582
0.117516
0.116252
0.117094
0.118195
0.119599
0.121381
0.123488
0.125833
0.128433
0.131331
0.134566
0.138167
0.142148
0.146506
0.151226
0.156284
0.161649
0.167284
0.173147
0.179194
0.185381
0.19167
0.198031
0.204451
0.21013
0.204163
0.198458
0.193032
0.187899
0.183072
0.178554
0.174336
0.170371
0.166539
0.162603
0.158239
0.153263
0.147814
0.142225
0.136795
0.131718
0.127106
0.123037
0.119578
0.116796
0.114757
0.113535
0.114779
0.116219
0.117765
0.11956
0.121703
0.124147
0.126852
0.129828
0.133118
0.136763
0.140779
0.145167
0.149912
0.154992
0.160379
0.166043
0.171946
0.178049
0.184309
0.190685
0.197142
0.203654
0.207553
0.201548
0.195806
0.190345
0.185178
0.180319
0.175775
0.171539
0.167572
0.163771
0.159918
0.155687
0.150844
0.145472
0.139897
0.134446
0.129336
0.124694
0.120601
0.11713
0.114351
0.112335
0.111155
0.112622
0.114455
0.116303
0.118158
0.120269
0.122692
0.125403
0.128413
0.131754
0.135454
0.139526
0.143963
0.14875
0.153866
0.159287
0.164985
0.170933
0.177098
0.183447
0.189942
0.196547
0.203228
0.205379
0.199347
0.193581
0.188096
0.182908
0.178031
0.173472
0.169225
0.16526
0.161483
0.157696
0.153581
0.148862
0.143572
0.138022
0.13256
0.127425
0.122757
0.118646
0.115168
0.112399
0.110418
0.109311
0.110858
0.112969
0.115112
0.117071
0.119114
0.121468
0.124193
0.127278
0.130714
0.134499
0.138633
0.14311
0.147921
0.153051
0.158482
0.164191
0.170158
0.176356
0.182757
0.189331
0.196046
0.202866
0.203614
0.197569
0.191792
0.186299
0.181106
0.176226
0.171666
0.167424
0.163469
0.15972
0.155995
0.151986
0.147398
0.142209
0.136706
0.131255
0.126118
0.121447
0.11734
0.113879
0.111149
0.109251
0.10831
0.10973
0.111878
0.114093
0.116081
0.118062
0.120387
0.123164
0.126369
0.129952
0.133871
0.138106
0.142646
0.147488
0.152627
0.158054
0.163756
0.169719
0.175922
0.182343
0.18896
0.195742
0.202663
0.202262
0.196217
0.190443
0.184958
0.179777
0.174912
0.170372
0.166154
0.162229
0.158522
0.154865
0.150967
0.146517
0.141449
0.13603
0.130629
0.125532
0.120902
0.116842
0.113433
0.110755
0.108893
0.107937
0.108985
0.110969
0.113248
0.115498
0.117776
0.120318
0.123236
0.126537
0.130193
0.134171
0.138453
0.143024
0.147879
0.153008
0.158406
0.164059
0.169958
0.176088
0.182437
0.188989
0.195731
0.202647
0.201319
0.195282
0.189521
0.184056
0.1789
0.174069
0.16957
0.165403
0.161545
0.157927
0.154404
0.150715
0.146551
0.141754
0.136496
0.131161
0.126085
0.121457
0.117386
0.113954
0.111237
0.109309
0.108241
0.109056
0.110932
0.113172
0.115515
0.117976
0.120681
0.123706
0.127068
0.130755
0.134751
0.139036
0.143592
0.148406
0.15347
0.158779
0.164328
0.170112
0.17613
0.182377
0.188847
0.195532
0.202419
0.200667
0.194599
0.188805
0.183302
0.178112
0.173257
0.168752
0.164608
0.160825
0.157369
0.154144
0.150911
0.147213
0.142701
0.137636
0.132401
0.127379
0.122791
0.118745
0.115324
0.112599
0.110633
0.109482
0.11022
0.11195
0.114067
0.116353
0.118845
0.121613
0.124691
0.128085
0.131787
0.135782
0.140051
0.144578
0.149352
0.154369
0.159626
0.165123
0.170862
0.17684
0.183053
0.189494
0.196152
0.203017
0.199229
0.192894
0.18682
0.181033
0.175564
0.170444
0.165708
0.161388
0.157519
0.154126
0.151225
0.148783
0.1466
0.143934
0.139341
0.134276
0.129347
0.124825
0.120828
0.117436
0.114719
0.112734
0.111538
0.112184
0.113751
0.115714
0.117918
0.120393
0.123168
0.126255
0.12965
0.133342
0.137317
0.141555
0.146045
0.150776
0.155746
0.160956
0.166407
0.172102
0.178038
0.184212
0.190615
0.197238
0.204071
0.195352
0.188647
0.182214
0.176084
0.17029
0.16487
0.159865
0.155317
0.151273
0.147783
0.144903
0.142695
0.141254
0.141387
0.140597
0.136721
0.131938
0.127512
0.123585
0.120241
0.117549
0.115567
0.114352
0.11489
0.116299
0.118114
0.120224
0.12265
0.125395
0.128454
0.131815
0.135465
0.139388
0.14357
0.148
0.152672
0.157585
0.16274
0.16814
0.173785
0.179674
0.185801
0.192159
0.19874
0.205532
0.18992
0.182952
0.176258
0.169873
0.163829
0.158167
0.15293
0.148165
0.143923
0.140263
0.13725
0.134963
0.133511
0.134087
0.135616
0.137144
0.135068
0.130785
0.126954
0.123679
0.121031
0.119069
0.117858
0.118274
0.119539
0.121216
0.123229
0.125587
0.128276
0.131277
0.134572
0.138145
0.141984
0.146078
0.150422
0.155012
0.159849
0.164935
0.170272
0.175859
0.181693
0.187768
0.194076
0.200608
0.207353
0.184282
0.1771
0.170189
0.163581
0.157312
0.151424
0.14596
0.140973
0.136519
0.132663
0.129478
0.127052
0.12551
0.126042
0.127758
0.130326
0.133449
0.134434
0.130865
0.12768
0.125095
0.123173
0.121979
0.122265
0.123401
0.124953
0.126868
0.129145
0.131757
0.134675
0.137875
0.141342
0.145066
0.149044
0.153276
0.157762
0.162504
0.167506
0.172768
0.178286
0.184056
0.190072
0.196323
0.202801
0.209494
0.17888
0.171498
0.164379
0.157555
0.151062
0.144945
0.13925
0.134033
0.129354
0.125287
0.121912
0.119328
0.117675
0.118076
0.119864
0.122582
0.126088
0.130236
0.134009
0.132171
0.129668
0.1278
0.126636
0.126792
0.127814
0.129253
0.131067
0.13325
0.135769
0.138583
0.141664
0.145001
0.148588
0.15243
0.15653
0.160895
0.165529
0.170433
0.175608
0.181047
0.186745
0.192693
0.198883
0.205301
0.211936
0.173814
0.166241
0.158919
0.151881
0.145164
0.138815
0.132883
0.127427
0.122514
0.118221
0.114641
0.111884
0.110109
0.11033
0.112185
0.11503
0.118704
0.123094
0.128093
0.133298
0.134676
0.132877
0.131752
0.131787
0.13271
0.13404
0.13575
0.137829
0.140236
0.142929
0.145875
0.149066
0.152504
0.156198
0.160158
0.164394
0.16891
0.173709
0.178787
0.184139
0.189757
0.195631
0.201751
0.208103
0.214675
0.169116
0.161362
0.153845
0.146598
0.139662
0.13308
0.126907
0.121206
0.116047
0.111518
0.107719
0.104773
0.102859
0.102855
0.104791
0.10777
0.111613
0.116195
0.121416
0.127186
0.133315
0.137617
0.137256
0.137186
0.138021
0.139245
0.140844
0.142806
0.145089
0.147646
0.150448
0.153487
0.156772
0.160318
0.164138
0.168243
0.17264
0.177329
0.182307
0.187566
0.193097
0.198891
0.204934
0.211213
0.217717
0.164799
0.15688
0.149182
0.141738
0.134588
0.127779
0.121367
0.115417
0.110007
0.10523
0.101197
0.0980462
0.0959739
0.0957053
0.097735
0.100858
0.104877
0.109656
0.115084
0.121071
0.127537
0.13437
0.14064
0.142763
0.143676
0.144799
0.14628
0.148114
0.150261
0.152676
0.15533
0.158221
0.161359
0.164764
0.16845
0.17243
0.176709
0.181289
0.186165
0.191328
0.196769
0.202477
0.208437
0.214637
0.221065
0.160865
0.152804
0.144946
0.137324
0.129977
0.122952
0.116307
0.110112
0.104448
0.0994161
0.0951379
0.0917646
0.0895073
0.0889485
0.0910805
0.0943541
0.0985545
0.103532
0.109167
0.115363
0.122038
0.12912
0.136506
0.143748
0.148574
0.150529
0.151985
0.153693
0.155699
0.15797
0.160483
0.163234
0.166237
0.169512
0.173076
0.176939
0.181108
0.185582
0.190356
0.195422
0.200769
0.206387
0.21226
0.218377
0.224724
0.157295
0.149125
0.141139
0.133368
0.125851
0.118633
0.111774
0.105345
0.0994326
0.0941452
0.0896135
0.0860018
0.083532
0.0826695
0.0849071
0.0883322
0.092712
0.0978841
0.103721
0.110119
0.116993
0.124269
0.131844
0.139413
0.146336
0.151991
0.156499
0.159154
0.161282
0.163475
0.16587
0.1685
0.171385
0.174546