<VTKFile type="ImageData" version="1.0" byte_order="LittleEndian" header_type="UInt64">
	<ImageData WholeExtent="0 39 0 39 0 39" Origin="-83.9545 -1.65846 -62.8785" Spacing="3.75007 3.75007 3.75007">
		<Piece Extent="0 39 0 39 0 39">
			<PointData Scalars="Scalars_">
				<DataArray type="Float32" Name="Scalars_" format="ascii" RangeMin="0" RangeMax="100">
80.3785
78.0946
75.871
73.7093
71.6129
69.5859
67.6355
65.7702
64.0022
62.3456
60.8163
59.4308
58.2046
57.1518
56.2846
55.6111
55.1364
54.8663
55.1767
55.3401
54.9237
54.6933
54.9403
55.3316
55.7509
56.0299
56.4961
57.1756
58.0534
59.1146
60.347
61.7388
63.2772
64.949
66.7391
68.6308
70.6072
72.6521
74.7511
76.8939
78.9322
76.6111
74.3482
72.1455
70.0066
67.9361
65.9412
64.0315
62.2191
60.5191
58.9477
57.5226
56.2605
55.1765
54.2837
53.5914
53.1051
52.8295
53.1414
53.2741
52.8558
52.6297
52.885
53.2878
53.704
53.9756
54.4502
55.1431
56.0377
57.1192
58.3754
59.7942
61.363
63.0678
64.893
66.8213
68.8349
70.917
73.0531
75.2317
77.6302
75.2761
72.9771
70.7365
68.5578
66.4462
64.4092
62.4568
60.6017
58.8595
57.2474
55.7837
54.4863
53.3713
52.4535
51.7427
51.2451
50.9636
51.2711
51.3586
50.9425
50.7245
50.9896
51.4059
51.8171
52.0835
52.5656
53.2693
54.1769
55.2748
56.5508
57.9936
59.59
61.3252
63.1829
65.1456
67.1942
69.3115
71.4825
73.6955
76.476
74.0971
71.7683
69.4941
67.2792
65.1297
63.0535
61.0612
59.1663
57.3844
55.7337
54.2332
52.9018
51.7573
50.8149
50.0862
49.577
49.2892
49.5809
49.6025
49.1945
48.9909
49.2684
49.7012
50.1065
50.3718
50.8602
51.5705
52.4859
53.5944
54.8856
56.3478
57.9679
59.7302
61.6177
63.6117
65.6929
67.8431
70.0465
72.2915
75.4658
73.0774
70.7301
68.4304
66.1848
64.0018
61.8904
59.8622
57.9309
56.1129
54.4268
52.8922
51.5294
50.3571
49.3917
48.6456
48.1249
47.828
48.0787
48.0075
47.6169
47.4381
47.7316
48.1863
48.5875
48.8603
49.3533
50.0638
50.9794
52.0914
53.3913
54.8678
56.5067
58.2924
60.2059
62.228
64.3383
66.5183
68.7513
71.0258
74.5684
72.2036
69.8633
67.5546
65.289
63.0794
60.9383
58.8791
56.9164
55.0667
53.3496
51.7852
50.3946
49.1976
48.2113
47.4483
46.9132
46.5992
46.7514
46.5627
46.2029
46.0647
46.3798
46.8647
47.272
47.568
48.0643
48.766
49.6714
50.7778
52.0785
53.5629
55.2156
57.0197
58.9552
61.0015
63.1374
65.3438
67.6033
69.9041
73.6883
71.4088
69.1344
66.8624
64.6047
62.3825
60.219
58.1352
56.1475
54.2727
52.5307
50.9421
49.5287
48.311
47.3065
46.5255
45.9637
45.6023
45.5367
45.2336
44.9232
44.847
45.1902
45.7179
46.1593
46.5109
47.0111
47.6917
48.573
49.6625
50.9558
52.4411
54.1019
55.9194
57.8723
59.9386
62.0963
64.3247
66.607
68.9305
72.6653
70.5181
68.3967
66.2728
64.1208
61.9378
59.7645
57.6648
55.6605
53.7691
52.0103
50.4056
48.9769
47.7443
46.7238
45.9103
45.2625
44.7401
44.3396
43.9636
43.7211
43.7248
44.0996
44.6815
45.2165
45.6884
46.2042
46.8483
47.6897
48.7506
50.028
51.5077
53.1713
54.9973
56.9626
59.044
61.2186
63.465
65.7657
68.1078
71.4548
69.3827
67.396
65.4877
63.6395
61.8147
59.96
58.0292
56.0419
54.1463
52.378
50.7538
49.285
47.9623
46.7369
45.6015
44.5882
43.7385
43.0838
42.7099
42.5452
42.6231
43.0235
43.6536
44.3458
45.0396
45.625
46.2262
47.0155
48.0398
49.2959
50.7656
52.4271
54.2566
56.2291
58.3205
60.5067
62.766
65.0807
67.4376
70.2168
68.1359
66.1531
64.2727
62.4965
60.8206
59.2308
57.6922
56.1454
54.5218
52.7998
51.0343
49.2999
47.6226
46.0494
44.6351
43.429
42.4742
41.8126
41.4949
41.4089
41.5413
41.9576
42.614
43.435
44.3627
45.1513
45.7736
46.5281
47.5212
48.7563
50.2137
51.8691
53.6968
55.6706
57.7656
59.9578
62.2252
64.5498
66.9182
69.0991
66.9984
64.9978
63.1027
61.3174
59.6429
58.0733
56.5885
55.1424
53.6553
52.0442
50.2889
48.4605
46.6678
45.0017
43.5247
42.281
41.3092
40.6533
40.3842
40.3722
40.5601
41.0007
41.6813
42.5315
43.5056
44.5604
45.3843
46.1867
47.1754
48.3967
49.8408
51.4849
53.3038
55.2718
57.3639
59.5567
61.8289
64.1622
66.5422
68.1291
66.0116
63.9953
62.0858
60.288
58.604
57.03
55.5493
54.1203
52.6668
51.0963
49.3711
47.5512
45.7495
44.0658
42.5697
41.3096
40.3265
39.6673
39.4171
39.4577
39.6977
40.1675
40.8711
41.7438
42.752
43.8722
44.8719
45.808
46.859
48.1043
49.5546
51.1966
53.0097
54.972
57.0617
59.2575
61.5393
63.8893
66.2916
67.3134
65.1835
63.1563
61.2374
59.4326
57.7442
56.1698
54.6956
53.2842
51.8622
50.3334
48.6442
46.8436
45.0454
43.3565
41.8518
40.5826
39.5905
38.9213
38.6522
38.7389
39.0288
39.5043
40.2131
41.0991
42.1325
43.2912
44.411
45.4716
46.5941
47.8692
49.3268
50.9652
52.7712
54.7275
56.816
59.018
61.3158
63.6922
66.1317
66.6556
64.5185
62.4856
60.5635
58.7576
57.0717
55.5041
54.0427
52.6539
51.2683
49.7867
48.1436
46.3759
44.5962
42.9175
41.4192
40.1546
39.1633
38.483
38.1592
38.305
38.6471
39.0782
39.759
40.6487
41.71
42.9111
44.0805
45.1799
46.3248
47.6129
49.0791
50.7247
52.5373
54.5012
56.5989
58.8143
61.1311
63.5342
66.0095
66.1611
64.0212
61.9879
60.0681
58.2684
56.593
55.0411
53.6025
52.2455
50.9023
49.472
47.8823
46.1586
44.4105
42.7545
41.2748
40.0277
39.0527
38.3842
38.0566
38.2154
38.512
38.8713
39.5359
40.4428
41.5409
42.7886
44.0145
45.1608
46.3305
47.6265
49.0907
50.7282
52.5293
54.4799
56.5645
58.7686
61.0781
63.4804
65.9637
65.8406
63.7011
61.6708
59.7577
57.9695
56.3125
54.7895
53.3957
52.1067
50.8574
49.5287
48.0131
46.3256
44.5934
42.9483
41.4755
40.2283
39.2448
38.5578
38.1951
38.2654
38.4853
38.8528
39.5417
40.4834
41.6195
42.9012
44.1669
45.3476
46.5329
47.8277
49.2794
50.8971
52.6734
54.5952
56.6485
58.8205
61.0991
63.4742
65.9367
65.7034
63.5523
61.5071
59.5761
57.7679
56.0916
54.5547
53.1614
51.9053
50.7497
49.5909
48.2475
46.6368
44.9562
43.3495
41.9027
40.6685
39.6877
38.9968
38.6278
38.6176
38.8587
39.2978
40.0097
40.9454
42.059
43.3112
44.5509
45.7151
46.8899
48.1745
49.6143
51.2182
52.9795
54.886
56.9244
59.0824
61.3485
63.7122
66.1646
65.2541
62.9918
60.828
58.7738
56.842
55.0462
53.4019
51.9252
50.6317
49.5333
48.6279
47.8615
47.049
45.5492
44.0033
42.5993
41.3918
40.4238
39.7361
39.3618
39.3028
39.5457
40.0095
40.7227
41.6413
42.7268
43.9203
45.0879
46.2022
47.355
48.6313
50.0662
51.6648
53.4193
55.3176
57.3468
59.4946
61.7502
64.1034
66.5456
63.8572
61.4523
59.1486
56.9595
54.8997
52.9851
51.2339
49.6655
48.3024
47.1695
46.2974
45.7311
45.9575
45.9281
44.8916
43.5439
42.3738
41.428
40.7505
40.3735
40.284
40.5181
40.9783
41.6759
42.5693
43.6222
44.755
45.8487
46.9083
48.0317
49.2915
50.7145
52.302
54.0449
55.9308
57.9468
60.0811
62.3226
64.6618
67.09
61.9062
59.4051
57.0067
54.7243
52.573
50.5697
48.7336
47.0867
45.6541
44.4642
43.5519
42.9674
43.3507
44.0391
44.8445
44.7055
43.5834
42.6691
42.009
41.6337
41.5253
41.745
42.1871
42.8587
43.7197
44.7335
45.8054
46.8304
47.8383
48.9293
50.1665
51.5707
53.14
54.8648
56.732
58.7293
60.845
63.0677
65.3884
67.798
59.9174
57.3411
54.8652
52.5033
50.2711
48.1864
46.2698
44.5451
43.0398
41.7856
40.8214
40.2021
40.6153
41.3766
42.4434
43.7417
44.7637
44.1128
43.4771
43.1089
42.9902
43.1919
43.6072
44.2446
45.0643
46.0295
47.0389
48.0015
48.9638
50.0236
51.2363
52.6177
54.1645
55.8664
57.7104
59.6844
61.7766
63.9765
66.2744
68.6621
58.0449
55.4003
52.8523
50.4149
48.1039
45.9386
43.9407
42.1362
40.5551
39.2324
38.2115
37.5532
37.9834
38.7866
39.9176
41.3353
42.9931
44.6972
45.115
44.7638
44.6412
44.8216
45.2034
45.7976
46.5654
47.4702
48.4141
49.3219
50.2475
51.2812
52.4709
53.8294
55.3521
57.0287
58.8471
60.7951
62.8615
65.0355
67.3075
69.6701
56.324
53.6171
51.0021
48.4929
46.1062
43.8617
41.7827
39.8974
38.2384
36.8445
35.7638
35.0639
35.5098
36.354
37.5436
39.0328
40.7812
42.7505
44.8526
46.2998
46.4405
46.5973
46.9381
47.4794
48.1833
49.0167
49.8931
50.7545
51.6538
52.6688
53.84
55.1776
56.6772
58.3291
60.1214
62.0427
64.0817
66.2284
68.4738
70.8094
54.7685
52.008
49.3338
46.7597
44.3025
41.9826
39.825
37.8596
36.1222
34.6558
33.5134
32.77
33.2309
34.1173
35.3665
36.9261
38.7516
40.8046
43.0504
45.4346
47.5822
48.4037
48.7708
49.2543
49.8846
50.6398
51.4501
52.2739
53.1564
54.1599
55.3179
56.6384
58.1177
59.7463
61.5137
63.4086
65.4209
67.5402
69.7578
72.066
53.3855
50.5843
47.8635
45.2359
42.7181
40.331
38.1004
36.0586
34.2447
32.7061
31.5016
30.7138
31.1885
32.1173
33.426
35.055
36.9548
39.084
41.407
43.8886
46.4655
48.9188
50.3955
51.0632
51.6443
52.3249
53.0756
53.8696
54.7418
55.7394
56.8881
58.195
59.6565
61.2643
63.0082
64.8782
66.8643
68.957
71.1474
73.4284
52.1717
49.3492
46.6016
43.94
41.3793
38.9396
36.6476
34.5374
32.6525
31.0455
29.781
28.9497
29.4358
30.405
31.77
33.4639
35.4326
37.6311
40.0221
42.5677
45.1972
47.722
49.8557
51.5112
52.9305
53.9202
54.7331
55.533
56.4057
57.4015
58.5437
59.8391
61.2845
62.8729
64.5948
66.441
68.4017
70.4683
72.6326
74.8866
51.103
48.2844
45.5401
42.877
40.3059
37.8429
35.5126
33.3506
31.4055
29.7386
28.4206
27.5496
28.0433
29.0465
30.4595
32.2084
34.2346
36.4906
38.937
41.5329
44.1926
46.6828
48.6989
50.2404
51.6235
53.0854
54.7044
56.4514
57.8449
59.0411
60.2462
61.554
62.9927
64.5654
66.2672
68.0905
70.0265
72.0674
74.2058
76.4332
50.123
47.3298
44.6223
42.006
39.4847
37.0634
34.7517
32.5751
30.5896
28.8792
27.5214
26.6202
27.114
28.136
29.5785
31.3623
33.4253
35.7183
38.2001
40.826
43.4881
45.898
47.756
49.1787
50.525
51.9941
53.6385
55.46
57.4456
59.5584
61.452
63.1033
64.6799
66.2969
68.0035
69.8148
71.7313
73.7488
75.8618
78.0631
49.1709
46.3912
43.7192
41.1691
38.7569
36.4991
34.412
32.5098
30.8032
29.3008
28.0219
27.1364
26.9971
27.9225
29.3166
31.0736
33.1218
35.4072
37.8855
40.5033
43.116
45.375
47.0373
48.3501
49.6707
51.149
52.8145
54.6612
56.6741
58.8371
61.1336
63.5268
65.7472
67.7542
69.6505
71.5392
73.4781
75.4921
77.5889
79.769
48.2753
45.4697
42.7761
40.2123
37.7986
35.5585
33.5178
31.7033
30.1398
28.8445
27.8244
27.1014
26.827
27.7563
29.1561
30.9199
32.9756
35.2688
37.7534
40.3657
42.9163
45.0231
46.5313
47.7775
49.0888
50.5777
52.2598
54.1249
56.156
58.3369
60.652
63.0871
65.627
68.2085
70.6575
72.9281
75.0808
77.197
79.3333
81.5199
47.5712
44.7381
42.0185
39.432
37.0017
34.7553
32.7249
30.9471
29.4597
28.2922
27.4471
26.9061
27.0272
27.9557
29.3487
31.1026
33.1469
35.4277
37.8967
40.4751
42.9291
44.8872
46.2879
47.4977
48.8047
50.2973
51.9849
53.8551
55.8915
58.0775
60.3975
62.8377
65.3856
68.0295
70.7538
73.4781
76.0859
78.546
80.8968
83.1996
47.1204
44.268
41.5302
38.9274
36.4853
34.2349
32.2149
30.4724
29.0635
28.0461
27.4082
26.6708
26.6251
27.5545
28.9545
30.7187
32.7749
35.0686
37.5513
40.1467
42.6832
44.7003
46.0772
47.2404
48.5159
49.9913
51.6705
53.5383
55.5759
57.7654
60.0905
62.537
65.0918
67.7436
70.4825
73.2986
76.1774
79.0515
81.832
84.4788
47.3819
44.5211
41.7718
39.1542
36.6935
34.4215
32.3772
30.6094
29.1781
28.1496
27.5379
26.842
27.088
28.0348
29.4358
31.1931
33.2383
35.5186
37.9856
40.554
43.0442
45.0054
46.3429
47.4901
48.7588
50.2302
51.906
53.7699
55.8035
57.9893
60.3104
62.7528
65.3036
67.9511
70.6857
73.4984
76.3796
79.3154
82.2735
85.2029
48.0079
45.1736
42.4532
39.8672
37.441
35.2058
33.2001
31.4708
30.0742
29.0694
28.4569
27.7825
28.098
29.0316
30.4021
32.1216
34.1261
36.3654
38.7918
41.317
43.7587
45.6745
46.9804
48.1075
49.3598
50.8144
52.473
54.3196
56.3359
58.5044
60.8088
63.2347
65.7697
68.4024
71.1226
73.9214
76.7908
79.7218
82.7029
85.714
48.9377
46.1483
43.4762
40.9422
38.5711
36.3933
34.4457
32.7724
31.4242
30.451
29.8369
29.1881
29.5346
30.4409
31.7653
33.4299
35.3761
37.5567
39.9254
42.3939
44.7798
46.6504
47.9253
49.0287
50.2579
51.6881
53.321
55.1414
57.1311
59.2732
61.5518
63.9527
66.4632
69.0723
71.77
74.5474
77.3968
80.3103
83.2803
86.2971
50.1354
47.4035
44.7926
42.3232
40.0196
37.9111
36.0322
34.4234
33.1296
32.1906
31.5768
30.9557
31.3159
32.1877
33.4581
35.0588
36.9364
39.0473
41.3472
43.749
46.0726
47.8965
49.1402
50.2172
51.4188
52.819
54.42
56.2074
58.1638
60.2724
62.5181
64.887
67.3662
69.9453
72.614
75.3635
78.1863
81.0749
84.023
87.0232
51.5717
48.9059
46.3646
43.9679
41.7393
39.7063
37.9011
36.3603
35.1227
34.2181
33.6068
33.0142
33.3787
34.2132
35.4264
36.9587
38.7625
40.7975
43.0218
45.3506
47.6069
49.3826
50.5947
51.6436
52.8143
54.1806
55.7453
57.4949
59.4126
61.4827
63.6899
66.021
68.4636
71.0067
73.6412
76.3577
79.1487
82.0073
84.9271
87.9016
53.2211
50.6269
48.1605
45.8413
43.6914
41.7366
40.0068
38.5342
37.3517
36.4805
35.8742
35.3099
35.673
36.4696
37.6252
39.0885
40.8164
42.7726
44.9179
47.1698
49.3561
51.0826
52.2628
53.2824
54.4202
55.7501
57.2754
58.9836
60.8591
62.8862
65.0508
67.3398
69.7412
72.2446
74.8403
77.5191
80.2741
83.098
85.9848
88.9281
55.0611
52.5419
50.1532
47.9133
45.8434
43.9673
42.3118
40.9056
39.776
38.9365
38.3377
37.8007
38.159
38.9184
40.0181
41.4132
43.0658
44.943
47.0079
49.1814
51.2961
52.9728
54.1214
55.1111
56.2151
57.5068
58.9907
60.6552
62.4855
64.467
66.5859
68.8296
71.1862
73.6461
76.1992
78.8372
81.5524
84.3382
87.1885
90.0969
57.0715
54.6289
52.3188
50.1586
48.1681
46.369
44.7856
43.4429
42.3631
41.5537
40.9644
40.4534
40.8048
41.5285
42.5745
43.9039
45.4832
47.2825
49.2675
51.3626
53.4058
55.0327
56.1497
57.1096
58.1791
59.4319
60.8732
62.4929
64.2764
66.2103
68.2812
70.477
72.7866
75.1999
77.708
80.3022
82.9747
85.7194
88.5303
91.4009
77.7795
75.4646
73.2118
71.022
68.8974
66.841
64.8583
62.9571
61.1491
59.4493
57.8749
56.4444
55.1755
54.0846
53.1853
52.487
51.9956
51.7177
52.0424
52.2382
51.8036
51.5623
51.8133
52.2117
52.637
52.9048
53.3881
54.0982
55.0153
56.1221
57.4048
58.8499
60.4431
62.1687
64.0091
65.9454
67.9585
70.0308
72.1488
74.3036
76.2909
73.9355
71.6403
69.4062
67.2359
65.1322
63.1009
61.1507
59.294
57.5457
55.9242
54.4491
53.1394
52.0128
51.0845
50.365
49.8607
49.5766
49.9059
50.0774
49.6385
49.3997
49.659
50.0691
50.49
50.7492
51.2429
51.9695
52.907
54.0383
55.3492
56.8262
58.4547
60.2183
62.0986
64.0758
66.1299
68.2429
70.4006
72.5943
74.949
72.5578
70.2237
67.9486
65.7348
63.586
61.5086
59.5114
57.6071
55.8118
54.1443
52.6253
51.2753
50.1134
49.1561
48.4153
47.8982
47.6082
47.9377
48.0714
47.632
47.3992
47.6685
48.0917
48.5054
48.7575
49.2606
50.001
50.9552
52.1068
53.4424
54.9482
56.6093
58.4083
60.326
62.342
64.435
66.5868
68.7825
71.0131
73.7588
71.34
68.9729
66.6612
64.4077
62.2175
60.0968
58.0555
56.1064
54.2663
52.5551
50.994
49.6049
48.4086
47.4229
46.6614
46.1316
45.8355
46.1573
46.2331
45.7985
45.5774
45.8589
46.2982
46.7019
46.9502
47.4612
48.2106
49.1759
50.3424
51.6976
53.2278
54.9176
56.7487
58.7009
60.7529
62.8826
65.0707
67.3019
69.5673
72.7172
70.2855
67.8973
65.557
63.2701
61.043
58.8833
56.8017
54.8118
52.9306
51.1788
49.5785
48.1529
46.9239
45.9114
45.1302
44.5883
44.2849
44.5803
44.5692
44.1481
43.9485
44.2461
44.7064
45.0988
45.3504
45.8665
46.6179
47.586
48.7597
50.1279
51.677
53.3907
55.2501
57.2332
59.3175
61.4805
63.7021
65.966
68.2634
71.7928
69.3822
66.9979
64.6466
62.3374
60.0806
57.8879
55.7716
53.7459
51.8289
50.0412
48.4061
46.9479
45.6898
44.6528
43.8533
43.2989
42.9841
43.2086
43.0747
42.6806
42.5178
42.8375
43.3274
43.714
43.9823
44.4995
45.2424
46.2018
47.3725
48.7454
50.3068
52.039
53.9215
55.9313
58.0441
60.2366
62.4877
64.7812
67.1072
70.8884
68.5599
66.2399
63.9244
61.6223
59.3517
57.1343
54.9903
52.9362
50.9903
49.1738
47.5103
46.0252
44.7427
43.6852
42.869
42.2975
41.9534
41.9958
41.7187
41.3718
41.2687
41.6187
42.1527
42.5567
42.8691
43.3832
44.1016
45.0366
46.192
47.5602
49.1265
50.8711
52.7715
54.8029
56.9397
59.1572
61.4337
63.7527
66.104
69.8352
67.636
65.4671
63.3005
61.1089
58.8839
56.6575
54.4953
52.4224
50.457
48.6209
46.9384
45.4351
44.1357
43.063
42.2294
41.6107
41.1486
40.8262
40.4376
40.1602
40.1401
40.5269
41.1223
41.6083
42.025
42.5351
43.2066
44.098
45.2247
46.579
48.1429
49.8939
51.8066
53.8541
56.0096
58.2474
60.5446
62.8845
65.2567
68.5847
66.456
64.4153
62.4573
60.5666
58.7086
56.8287
54.8699
52.8287
50.861
49.0177
47.3206
45.7893
44.4341
43.2295
42.1227
41.1244
40.2691
39.5757
39.1658
38.9714
39.0334
39.4504
40.1059
40.7743
41.4171
41.9513
42.5523
43.382
44.4699
45.8038
47.3599
49.1118
51.0311
53.089
55.2575
57.5095
59.8223
62.1786
64.5674
67.3042
65.163
63.1211
61.1842
59.3557
57.635
56.0124
54.4591
52.917
51.305
49.5786
47.7937
46.0524
44.3552
42.738
41.2623
39.989
38.9717
38.2603
37.9142
37.805
37.9241
38.3557
39.0416
39.8892
40.8317
41.533
42.0961
42.8707
43.9216
45.2339
46.7788
48.5261
50.4457
52.5072
54.6813
56.9415
59.2648
61.6329
64.0353
66.148
63.984
61.921
59.9655
58.1237
56.3992
54.7913
53.2883
51.8548
50.4166
48.8687
47.1459
45.2948
43.4361
41.6843
40.1181
38.7916
37.7502
37.0453
36.761
36.7354
36.9155
37.371
38.0837
38.965
39.9634
41.0282
41.7618
42.543
43.5719
44.8631
46.3919
48.127
50.0377
52.0937
54.2663
56.5294
58.8596
61.239
63.6551
65.1435
62.9602
60.8787
58.9059
57.0483
55.3106
53.6936
52.1888
50.7662
49.3577
47.8553
46.1737
44.3394
42.4733
40.7009
39.1114
37.7645
36.7089
36.0007
35.7458
35.7774
36.0156
36.5065
37.2469
38.1541
39.1935
40.3408
41.2872
42.1923
43.2689
44.5747
46.1038
47.833
49.7359
51.7859
53.9576
56.2268
58.5717
60.973
63.4165
64.2975
62.0995
60.0047
58.0202
56.1527
54.4076
52.7866
51.2831
49.8718
48.49
47.0302
45.393
43.5864
41.7275
39.9497
38.3497
36.9916
35.9254
35.2067
34.9347
35.0151
35.3095
35.8088
36.5588
37.483
38.5525
39.7451
40.8472
41.8865
43.0261
44.352
45.8803
47.6005
49.4929
51.5362
53.7087
55.9894
58.3578
60.7956
63.2862
63.6138
61.4066
59.3042
57.3143
55.4438
53.6987
52.0815
50.5871
49.1933
47.8427
46.4304
44.8468
43.0822
41.248
39.4835
37.8917
36.5401
35.4771
34.7483
34.4105
34.5589
34.915
35.3588
36.078
37.0115
38.1172
39.3606
40.5181
41.5946
42.7539
44.091
45.6275
47.3549
49.2544
51.3064
53.4907
55.7888
58.1827
60.6557
63.1926
63.0984
60.8864
58.7819
56.7927
54.9267
53.1904
51.587
50.1126
48.7472
47.4359
46.0756
44.5518
42.8409
41.0459
39.3088
37.7381
36.4066
35.3627
34.6485
34.3066
34.4687
34.7738
35.1385
35.8451
36.8041
37.9551
39.2522
40.4704
41.5902
42.7677
44.1076
45.6383
47.3544
49.2401
51.277
53.4473
55.7344
58.1235
60.6008
63.1536
62.7637
60.5514
58.4492
56.4662
54.6112
52.8925
51.3159
49.8819
48.5767
47.3522
46.0989
44.6666
43.0039
41.2285
39.5049
37.9445
36.615
35.5633
34.8293
34.4476
34.5163
34.7417
35.1208
35.8554
36.8538
38.0466
39.3787
40.6403
41.7932
42.9809
44.3139
45.8268
47.5181
49.3737
51.3769
53.5116
55.7637
58.1207
60.5721
63.1084
62.6624
60.457
58.3624
56.3875
54.5413
52.8322
51.2673
49.8495
48.5714
47.3965
46.2245
44.8831
43.2986
41.5874
39.9131
38.3875
37.076
36.0285
35.2909
34.9029
34.8841
35.1351
35.6002
36.3577
37.3433
38.5053
39.8004
41.0325
42.1693
43.3467
44.6685
46.1678
47.8438
49.683
51.6698
53.7889
56.0266
58.3707
60.8107
63.3368
62.5995
60.3353
58.17
56.1137
54.178
52.3747
50.7184
49.2239
47.904
46.7647
45.7895
44.8839
43.789
42.1845
40.588
39.118
37.8417
36.8115
36.0788
35.6847
35.6158
35.8671
36.357
37.1108
38.0728
39.2
40.4178
41.565
42.6548
43.8171
45.1348
46.6311
48.3021
50.1344
52.1124
54.2215
56.4483
58.7812
61.2099
63.7255
61.7371
59.3109
56.9809
54.7601
52.6647
50.7114
48.9188
47.3075
45.9002
44.7225
43.8058
43.1962
43.2631
42.8587
41.5067
40.1087
38.8803
37.879
37.1601
36.7636
36.6646
36.9038
37.3849
38.1167
39.0475
40.1362
41.2788
42.3433
43.3811
44.5183
45.8217
47.3061
48.9648
50.7837
52.7478
54.8423
57.0537
59.3712
61.7845
64.2846
59.9432
57.3917
54.9402
52.6019
50.3928
48.3305
46.4354
44.7306
43.2429
42.003
41.0486
40.4344
40.8141
41.4896
42.0787
41.3209
40.1536
39.1924
38.4964
38.1034
37.9867
38.2081
38.6647
39.364
40.2558
41.2984
42.3688
43.3592
44.3479
45.4554
46.7364
48.2005
49.8389
51.6372
53.5801
55.6534
57.844
60.1406
62.5334
65.0133
57.9378
55.2997
52.7597
50.3312
48.0305
45.8761
43.8898
42.0968
40.5265
39.2137
38.2006
37.5478
37.9761
38.7734
39.885
41.1753
41.6201
40.7106
40.046
39.6632
39.538
39.7381
40.1614
40.8188
41.6609
42.6453
43.6445
44.5714
45.5184
46.5969
47.8529
49.2923
50.9056
52.6781
54.595
56.6422
58.8071
61.0784
63.4463
65.902
56.018
53.3046
50.6848
48.1724
45.7838
43.539
41.4609
39.5769
37.9195
36.5272
35.4476
34.7484
35.198
36.0479
37.244
38.737
40.4589
41.9824
41.7675
41.401
41.2742
41.4491
41.8315
42.4364
43.2156
44.1283
45.0554
45.9313
46.8477
47.903
49.1359
50.5507
52.1373
53.8821
55.7707
57.7894
59.9257
62.169
64.509
66.9378
54.2463
51.464
48.7697
46.1774
43.7038
41.3695
39.199
37.222
35.474
33.9977
32.8468
32.0973
32.5652
33.4649
34.7314
36.3111
38.1569
40.2208
42.3235
43.1997
43.1533
43.2982
43.6309
44.1717
44.8743
45.7037
46.5603
47.3977
48.2957
49.3361
50.551
51.9439
53.5058
55.2237
57.0838
59.0734
61.1805
63.3943
65.7055
68.1058
52.64
49.7977
47.037
44.3715
41.8182
39.3981
37.1369
35.0667
33.2262
31.663
30.4371
29.6339
30.1197
31.0716
32.4107
34.0749
36.0125
38.18
40.5367
42.9875
44.7277
45.2215
45.5199
45.9864
46.6027
47.3446
48.1362
48.9459
49.8358
50.8688
52.0716
53.4469
54.987
56.6799
58.5134
60.475
62.5533
64.7381
67.02
69.3913
51.2075
48.3184
45.5041
42.7775
40.1546
37.6567
35.3106
33.1501
31.218
29.5669
28.264
27.4046
27.9073
28.913
30.3263
32.0754
34.1024
36.3602
38.8092
41.4068
44.0542
46.3475
47.3548
47.8467
48.3841
49.0446
49.7806
50.5702
51.4572
52.4877
53.6823
55.0435
56.5646
58.2353
60.0438
61.9787
64.0295
66.186
68.4395
70.7822
49.9459
47.0298
44.1825
41.4149
38.7412
36.1814
33.7627
31.5206
29.502
27.7659
26.3868
25.4707
25.9881
27.0467
28.5323
30.3628
32.4741
34.8153
37.3446
40.0158
42.7195
45.1513
46.9967
48.3953
49.7148
50.6738
51.4688
52.2685
53.1602
54.1906
55.3788
56.7274
58.2311
59.8807
61.6656
63.5751
65.599
67.7282
69.954
72.2683
48.8316
45.9139
43.0642
40.2896
37.5997
35.01
32.5446
30.2397
28.1468
26.3346
24.8857
23.9166
24.4438
25.5498
27.0994
29.0009
31.1845
33.5962
36.192
38.9206
41.6445
43.991
45.6806
46.9907
48.3156
49.8089
51.4944
53.2836
54.6738
55.8874
57.1297
58.4864
59.9801
61.6115
63.374
65.2588
67.2563
69.3586
71.5568
73.8431
47.809
44.9105
42.092
39.3588
36.715
34.1648
31.7169
29.3945
27.2524
25.3835
23.8813
22.8702
23.3984
24.5343
26.1268
28.0762
30.3085
32.7671
35.4065
38.1682
40.8733
43.0727
44.5788
45.8093
47.1309
48.6487
50.3704
52.2808
54.3591
56.5452
58.4426
60.1103
61.7233
63.3892
65.1512
67.0203
68.9957
71.072
73.2432
75.502
46.8185
43.9269
41.1364
38.462
35.9201
33.5288
31.3063
29.2695
27.4318
25.8052
24.4125
23.4246
23.2509
24.2922
25.839
27.7642
29.9839
32.4372
35.074
37.8216
40.4334
42.4025
43.7142
44.8843
46.2093
47.7502
49.5007
51.4418
53.5529
55.8148
58.2083
60.6622
62.9027
64.9296
66.8595
68.7931
70.7832
72.8514
75.0036
77.2384
45.8889
42.9652
40.1464
37.4504
34.8987
32.5167
30.3332
28.3796
26.6869
25.2784
24.1641
23.3664
23.077
24.1231
25.677
27.6105
29.8392
32.3017
34.9446
37.6751
40.1673
41.9239
43.1066
44.2515
45.587
47.1473
48.9195
50.8824
53.0148
55.2973
57.7128
60.2459
62.8785
65.5135
67.9841
70.272
72.4525
74.6076
76.7897
79.0253
45.1559
42.1991
39.3475
36.621
34.0437
31.6455
29.4626
27.5376
25.918
24.6469
23.7365
23.1634
23.3007
24.3447
25.8893
27.8103
30.0251
32.4727
35.0953
37.7719
40.1043
41.6944
42.8158
43.9576
45.3017
46.8708
48.6508
50.6202
52.7585
55.0465
57.4672
60.006
62.6494
65.3855
68.191
70.9564
73.5816
76.0548
78.4272
80.7614
44.6857
41.7055
38.8304
36.0816
33.4854
31.0754
28.8943
26.9971
25.4541
24.3507
23.7313
22.921
22.875
23.9214
25.4756
27.4094
29.6387
32.1019
34.7407
37.4399
39.9212
41.539
42.5891
43.6753
44.9894
46.5437
48.3175
50.2864
52.4277
54.7209
57.1484
59.6948
62.3465
65.0918
67.9205
70.8222
73.7733
76.6898
79.4872
82.1436
44.9712
41.9834
39.0973
36.3333
33.7174
31.2832
29.0738
27.1459
25.5736
24.4512
23.8552
23.0959
23.3748
24.4382
25.9908
27.9145
30.1294
32.5758
35.1948
37.8521
40.2637
41.8237
42.8497
43.9284
45.2385
46.7892
48.5592
50.5241
52.661
54.9501
57.3732
59.9153
62.5628
65.3037
68.1279
71.0263
73.9885
76.9957
80.0098
82.9739
45.6333
42.6763
39.8243
37.0981
34.5242
32.1359
29.9759
28.0988
26.5741
25.4859
24.8842
24.1523
24.5003
25.5391
27.0479
28.9209
31.0836
33.479
36.0484
38.6516
41.0036
42.521
43.5234
44.5846
45.8765
47.4078
49.1578
51.1022
53.219
55.4883
57.8922
60.4158
63.0456
65.7697
68.5781
71.4616
74.4117
77.4186
80.4686
83.5383
46.6099
43.7042
40.9083
38.2431
35.735
33.4168
31.3294
29.5241
28.0637
27.0192
26.411
25.7114
26.088
27.0859
28.5325
30.3347
32.4243
34.748
37.2483
39.7843
42.0729
43.5501
44.5277
45.5651
46.8308
48.3335
50.0534
51.9673
54.0535
56.2926
58.6674
61.1627
63.7651
66.4633
69.2468
72.1068
75.0353
78.0238
81.065
84.147
47.8627
45.0219
42.2961
39.706
37.2777
35.0424
33.0392
31.3147
29.9246
28.9257
28.3132
27.6483
28.0356
28.986
30.3625
32.0842
34.0897
36.3296
38.7487
41.2079
43.4282
44.866
45.8176
46.8275
48.0613
49.5291
51.212
53.0878
55.1357
57.3368
59.6744
62.1337
64.7015
67.3664
70.1181
72.9477
75.8474
78.8097
81.8275
84.8939
49.3597
46.5932
43.9463
41.4398
39.0987
36.9529
35.0383
33.3973
32.0776
31.1231
30.5099
29.8797
30.2682
31.1695
32.4739
34.1118
36.0284
38.1785
40.5096
42.8858
45.0344
46.4328
47.3579
48.3378
49.5364
50.9647
52.6055
54.438
56.4419
58.5993
60.8938
63.3111
65.8379
68.4635
71.1776
73.9712
76.8365
79.7664
82.7542
85.7938
51.0735
48.3869
45.8243
43.4058
41.1554
39.1009
37.2754
35.7164
34.4645
33.5518
32.9411
32.3447
32.729
33.5822
34.816
36.3706
38.1975
40.2558
42.4959
44.786
46.8613
48.2203
49.1185
50.0671
51.2282
52.6145
54.2101
55.9955
57.9515
60.0607
62.3075
64.678
67.1594
69.7413
72.4131
75.1659
77.9921
80.8847
83.8373
86.8441
52.9798
50.3763
47.9005
45.5715
43.412
41.448
39.7093
38.2291
37.0408
36.1666
35.5618
34.9975
35.3744
36.1818
37.3482
38.8223
40.5615
42.5286
44.6773
46.8807
48.8823
50.2018
51.0735
51.9902
53.1128
54.4556
56.004
57.7399
59.6452
61.7034
63.8994
66.2198
68.6523
71.1865
73.8122
76.5205
79.304
82.1554
85.069
88.0383
55.0571
52.538
50.1493
47.9094
45.8394
43.9632
42.3076
40.9014
39.772
38.9334
38.337
37.8027
38.1704
38.935
40.0381
41.4358
43.0905
44.969
47.0279
49.1455
51.0738
52.3543
53.1997
54.0849
55.1689
56.4675
57.9679
59.6531
61.5062
63.5113
65.6543
67.9221
70.3032
72.7867
75.3637
78.0245
80.7622
83.5697
86.441
89.3699
75.2326
72.8856
70.6039
68.3879
66.2379
64.1559
62.1452
60.2123
58.3683
56.6278
55.0094
53.5336
52.2211
51.0909
50.1584
49.4342
48.9252
48.6389
48.9778
49.2044
48.751
48.4986
48.7538
49.16
49.592
49.8479
50.3504
51.0936
52.0523
53.2073
54.5424
56.0427
57.6914
59.4702
61.3584
63.3343
65.3766
67.4674
69.5951
71.7543
73.6997
71.3095
68.9818
66.718
64.5186
62.3852
60.3216
58.3351
56.437
54.6425
52.9715
51.4454
50.0867
48.9156
47.9499
47.2014
46.6776
46.3848
46.7307
46.9393
46.4795
46.2278
46.4915
46.9091
47.3361
47.5824
48.0981
48.8615
49.8452
51.0294
52.3981
53.9358
55.6255
57.4476
59.3808
61.4022
63.4896
65.6246
67.7951
69.9959
72.3163
69.8871
67.5174
65.209
62.9625
60.78
58.6657
56.6274
54.6765
52.8294
51.1064
49.5304
48.1253
46.9134
45.9142
45.1413
44.6029
44.3036
44.6538
44.8326
44.3692
44.1214
44.395
44.8255
45.2436
45.4813
46.0092
46.7901
47.795
49.0046
50.4034
51.9757
53.7036
55.567
57.543
59.6078
61.7383
63.9158
66.1272
68.3678
71.0889
68.6287
66.2229
63.8742
61.5845
59.3563
57.1945
55.1071
53.1061
51.2085
49.4355
47.8113
46.361
45.1089
44.0764
43.2794
42.7269
42.4211
42.7702
42.9005
42.4384
42.1997
42.4852
42.9314
43.3358
43.5677
44.1058
44.8993
45.9197
47.1491
48.5731
50.1755
51.9382
53.8394
55.8555
57.9612
60.1326
62.35
64.6004
66.8784
70.015
67.5386
65.1084
62.7278
60.4009
58.132
55.927
53.7947
51.7476
49.8033
47.9837
46.3141
44.8211
43.5307
42.4663
41.6461
41.08
40.7677
41.1027
41.1558
40.7029
40.482
40.7834
41.2495
41.6361
41.868
42.4128
43.2111
44.238
45.4793
46.9216
48.5489
50.3415
52.2767
54.3289
56.4721
58.681
60.9354
63.2215
65.5343
69.0655
66.6054
64.1755
61.7808
59.4287
57.127
54.885
52.7138
50.6263
48.6407
46.7797
45.0694
43.5378
42.2126
41.1191
40.2773
39.6987
39.3784
39.6671
39.6006
39.1701
38.9819
39.3054
39.8
40.1679
40.4113
40.957
41.7481
42.7688
44.0112
45.4631
47.1081
48.9248
50.889
52.973
55.1494
57.392
59.6795
61.9981
64.3422
68.1407
65.7593
63.3895
61.0282
58.6815
56.364
54.0945
51.8919
49.7722
47.7532
45.8585
44.1146
42.5511
41.1965
40.0782
39.2182
38.627
38.2907
38.4435
38.2115
37.8243
37.6925
38.0482
38.5867
38.9511
39.2287
39.7666
40.5313
41.5284
42.758
44.2095
45.8643
47.6988
49.6859
51.7966
54.0014
56.2731
58.5894
60.9363
63.3078
67.0633
64.8083
62.5868
60.3729
58.139
55.8711
53.5936
51.3701
49.2285
47.1871
45.2695
43.5029
41.9173
40.5424
39.4067
38.5324
37.9212
37.5174
37.3122
36.9206
36.6035
36.5572
36.9556
37.5621
37.9846
38.3482
38.8661
39.5757
40.5264
41.7284
43.1691
44.8258
46.6712
48.6756
50.8069
53.0345
55.3298
57.67
60.0404
62.4352
65.775
63.5874
61.4895
59.478
57.5399
55.6442
53.7367
51.751
49.6622
47.6202
45.6973
43.9187
42.3105
40.895
39.6803
38.6119
37.6542
36.8196
36.0879
35.6362
35.4074
35.4516
35.888
36.5703
37.192
37.7692
38.2631
38.8788
39.7608
40.9233
42.3456
43.9979
45.8482
47.8629
50.0086
52.2524
54.5652
56.9236
59.3126
61.7261
64.4511
62.2468
60.1427
58.1454
56.2598
54.4879
52.8247
51.2475
49.7019
48.0967
46.3577
44.536
42.7954
41.099
39.4557
37.9257
36.584
35.4981
34.7295
34.3476
34.2106
34.3142
34.7631
35.4814
36.3551
37.3072
37.8838
38.4036
39.2162
40.339
41.7404
43.3837
45.2323
47.25
49.4017
51.6541
53.9776
56.3489
58.7519
61.1807
63.2546
61.0244
58.8956
56.8756
54.9721
53.1908
51.5356
50.002
48.5669
47.1692
45.6955
44.0328
42.1809
40.2632
38.4219
36.7581
35.3384
34.2173
33.455
33.1511
33.1097
33.2795
33.7505
34.4983
35.4113
36.4316
37.4989
38.115
38.8919
39.9786
41.3542
42.9796
44.8155
46.825
48.9725
51.2254
53.5543
55.9355
58.3525
60.7971
62.2144
59.9618
57.8115
55.7708
53.8479
52.0497
50.3807
48.8393
47.4078
46.0332
44.6066
42.9974
41.175
39.2538
37.3886
35.6955
34.25
33.1107
32.3446
32.0845
32.1058
32.3404
32.8549
33.6356
34.578
35.6478
36.8205
37.6852
38.5661
39.6848
41.0665
42.687
44.5136
46.5135
48.6556
50.9104
53.2508
55.653
58.0982
60.5748
61.337
59.0671
56.9008
54.8457
52.9099
51.101
49.424
47.8791
46.4522
45.097
43.7102
42.1526
40.3687
38.4605
36.5903
34.8844
33.4248
32.2723
31.4947
31.2215
31.2938
31.5918
32.1195
32.916
33.8793
34.9846
36.2104
37.278
38.2951
39.4639
40.8539
42.4653
44.2772
46.2642
48.4002
50.6597
53.0191
55.4556
57.9493
60.4841
60.6264
58.3449
56.1688
54.106
52.1649
50.3536
48.6777
47.1381
45.7234
44.3926
43.0498
41.5511
39.8202
37.9452
36.0925
34.3969
32.9464
31.8002
31.0149
30.6619
30.8128
31.1846
31.6417
32.4049
33.3854
34.5376
35.8243
36.9514
38.0024
39.1875
40.5874
42.2067
44.0261
46.0211
48.1677
50.4429