# vtk DataFile Version 4.2
vtk output
ASCII
DATASET POLYDATA
POINTS 642 double
-2.01751 4.86323 -0.0408379
1.3362 4.83368 -0.0388074
-2.02871 -0.627652 -0.0277365
1.3765 -0.628825 -0.0257496
-0.327417 0.432207 2.70932
-0.341885 3.78235 2.65383
-0.325006 0.454459 -2.72562
-0.343375 3.82988 -2.78127
2.36305 2.12082 -1.68107
2.38764 2.10825 1.64203
-3.04644 2.14002 -1.71339
-3.06369 2.12715 1.65915
-2.93269 3.73851 0.965662
-1.94069 3.11494 2.5621
-1.3145 4.70236 1.56437
0.633792 4.67864 1.53597
-0.324125 5.33047 -0.0315459
0.65044 4.72084 -1.62938
-1.33515 4.7673 -1.66048
-1.95554 3.13803 -2.65268
-2.95263 3.75746 -1.03657
-3.53392 2.12853 -0.0251421
1.24615 3.09663 2.514
2.22801 3.69368 0.946508
-1.92809 1.1306 2.55958
-0.33315 2.11586 3.13804
-2.92442 0.514229 -1.01852
-2.92418 0.513536 0.966398
-0.338302 2.14303 -3.19397
-1.91003 1.15156 -2.57751
2.2024 3.69833 -0.995187
1.2412 3.10702 -2.5803
2.30191 0.503941 0.973384
1.27123 1.12526 2.55327
0.676111 -0.490511 1.58765
-1.33005 -0.496161 1.58574
-0.325992 -1.0905 -0.0284433
-1.32095 -0.476611 -1.62905
0.670308 -0.476916 -1.63481
1.25812 1.13477 -2.58931
2.29196 0.509463 -1.02389
2.88989 2.10573 -0.0269857
-2.54841 4.3927 0.477031
-2.22303 4.33174 1.3299
-1.71987 4.88118 0.785453
-2.59094 2.64208 2.19955
-2.5416 3.49719 1.86111
-3.10841 2.96321 1.36605
-0.835946 4.31924 2.20559
-1.70052 4.00615 2.17285
-1.14794 3.51703 2.72069
-0.853276 5.16328 0.799226
-1.21786 5.20339 -0.0362456
0.162229 4.29828 2.16367
-0.330653 4.81661 1.62344
0.536658 5.20961 -0.0358823
0.187002 5.15461 0.799855
1.0351 4.86764 0.783519
-0.855939 5.18314 -0.880747
-1.74579 4.93393 -0.884133
1.05756 4.88164 -0.843621
0.183937 5.18257 -0.877025
-0.844327 4.38125 -2.32558
-0.347439 4.85963 -1.72753
0.16887 4.34035 -2.28464
-2.24444 4.36859 -1.41483
-2.5678 4.41698 -0.548589
-1.17998 3.54279 -2.83364
-1.71372 4.04691 -2.27173
-3.11764 2.97734 -1.43538
-2.56619 3.51757 -1.94452
-2.59533 2.65828 -2.26816
-3.06438 3.82364 -0.0313103
-3.40074 2.13263 -0.899061
-3.38156 2.97876 -0.554298
-3.3868 2.97118 0.49357
-3.41973 2.13097 0.866843
1.51805 4.28651 1.30415
1.83191 4.33756 0.461721
0.486283 3.47804 2.68026
1.00661 3.96214 2.11737
2.41208 2.94019 1.34521
1.83999 3.46202 1.81523
1.90217 2.62325 2.17011
-1.17046 2.64722 3.00519
-0.342258 2.98198 3.00291
-2.59279 1.62283 2.19192
-2.02133 2.12442 2.68949
-0.325353 1.23574 3.0319
-1.16893 1.60239 2.98573
-1.15008 0.719655 2.74812
-3.37361 1.28483 0.49387
-3.09829 1.30851 1.37233
-3.07525 1.29897 -1.40348
-3.3727 1.28564 -0.546472
-2.56499 -0.144163 0.491616
-3.06205 0.433076 -0.0298398
-2.56584 -0.142202 -0.544141
-2.01331 2.14006 -2.76056
-2.55667 1.62907 -2.22761
-0.336146 3.03155 -3.1286
-1.18299 2.66709 -3.10047
-1.13592 0.740104 -2.76049
-1.16504 1.62655 -3.0329
-0.325653 1.24863 -3.05671
1.01117 4.00241 -2.21716
0.471829 3.51626 -2.76787
1.86201 4.35709 -0.54323
1.52888 4.31161 -1.37676
1.87936 2.62633 -2.20931
1.82801 3.46759 -1.87427
2.39513 2.93669 -1.39426
1.9235 -0.163413 0.48467
1.57572 -0.108929 1.34236
1.09015 -0.670053 0.799567
1.91926 1.59723 2.18261
1.89856 0.751636 1.86559
2.4612 1.27215 1.36846
0.182552 -0.105714 2.2466
1.03954 0.224046 2.18193
0.492937 0.7278 2.73531
0.198626 -0.941876 0.819347
0.576585 -0.978549 -0.0271627
-0.848687 -0.120377 2.23444
-0.326757 -0.626985 1.67438
-1.21284 -0.981864 -0.0269337
-0.85341 -0.949698 0.82594
-1.73407 -0.66792 0.815932
0.198564 -0.93806 -0.875253
1.07412 -0.660048 -0.861528
-1.7361 -0.665028 -0.853283
-0.855351 -0.937342 -0.868189
0.18097 -0.0869675 -2.28054
-0.330605 -0.609305 -1.71197
-0.833414 -0.0909446 -2.28568
1.56703 -0.0979323 -1.38755
1.91966 -0.158738 -0.538994
0.497392 0.741056 -2.75861
1.03551 0.245773 -2.22488
2.44922 1.27635 -1.41421
1.8792 0.763764 -1.90308
1.89797 1.60338 -2.21799
2.43742 0.420889 -0.0275753
2.74547 2.10762 -0.892509
2.75192 1.27492 -0.549602
2.75622 1.26254 0.499111
2.75028 2.11633 0.857819
0.507032 1.59483 2.99626
1.34222 2.12229 2.66716
0.500572 2.62826 2.97945
-2.23229 -0.105912 1.35163
-1.70291 0.22147 2.19294
-2.54577 0.748657 1.87161
-1.68636 0.24198 -2.22219
-2.22172 -0.0915202 -1.39614
-2.5176 0.76887 -1.88795
1.32421 2.12426 -2.69638
0.495471 1.60714 -3.01952
0.488724 2.6482 -3.00976
2.69592 2.94663 0.487174
2.67711 2.94934 -0.537141
2.35304 3.77691 -0.0276894
-2.29203 4.65237 0.214374
-2.1657 4.66265 0.647215
-1.88293 4.89148 0.366907
-2.60721 4.05791 1.16045
-2.40637 4.38245 0.920241
-2.7719 4.07486 0.73003
-1.53057 4.81846 1.18375
-1.98975 4.63087 1.0751
-1.77929 4.54988 1.47008
-2.85268 2.38796 1.95055
-2.88125 2.81645 1.81197
-3.11518 2.55036 1.5281
-2.25828 3.32215 2.24446
-2.59281 3.07717 2.05069
-2.28649 2.88469 2.4036
-3.04762 3.3614 1.17555
-2.85129 3.24345 1.6339
-2.773 3.62953 1.42836
-0.580549 4.06196 2.45896
-1.02025 3.94318 2.49459
-0.73306 3.66942 2.71197
-1.52742 4.38372 1.89204
-1.27672 4.1904 2.21022
-1.09684 4.54089 1.89959
-1.54752 3.3332 2.6717
-1.44673 3.77444 2.47368
-1.83143 3.58111 2.39986
-2.41447 3.93585 1.61574
-2.13954 3.77623 2.04561
-1.98504 4.19628 1.77653
-1.47034 5.0771 0.384106
-1.62986 5.0617 -0.0460094
-1.08603 4.95575 1.19731
-1.29386 5.04399 0.803875
-0.778125 5.2964 -0.0315943
-1.03609 5.21603 0.386804
-0.585783 5.28568 0.391319
-0.0891787 4.05892 2.43296
-0.334582 4.34034 2.21101
0.15706 4.78606 1.60238
-0.0772771 4.58126 1.91258
0.407414 4.50909 1.86156
-0.590796 4.59402 1.92942
-0.837698 4.79476 1.6166
0.969535 5.0365 -0.0336573
0.804347 5.07856 0.382404
1.20641 4.86972 0.36265
-0.0719196 5.29118 0.38693
0.373184 5.21159 0.388341
0.105909 5.30471 -0.0365228
0.852534 4.79295 1.15962
0.622378 5.0461 0.799676
0.425093 4.94674 1.18705
-0.600696 5.03467 1.23194
-0.0688829 5.02411 1.2305
-0.338079 5.20917 0.810558
-1.49056 5.11638 -0.465947
-1.90209 4.92686 -0.469819
-0.587017 5.29379 -0.45656
-1.04823 5.22691 -0.467042
-1.55434 4.88192 -1.27148
-1.32059 5.10068 -0.898416
-1.11114 5.02155 -1.29191
1.2102 4.89179 -0.452159
0.815533 5.0806 -0.450421
0.428323 4.98751 -1.26979
0.632572 5.05976 -0.874305
0.859948 4.83076 -1.26107
0.374296 5.22416 -0.454949
-0.0704482 5.29989 -0.462432
-0.58611 4.11842 -2.58515
-0.348025 4.40177 -2.33512
-0.0896697 4.10004 -2.56483
-0.853225 4.85349 -1.724
-0.599166 4.65808 -2.04539
-1.10956 4.60025 -2.00861
0.421052 4.54939 -1.97269
-0.0867851 4.63148 -2.02399
0.174682 4.82042 -1.68932
-0.338135 5.22329 -0.89049
-0.0646883 5.0578 -1.3098
-0.612121 5.06072 -1.32317
-2.18395 4.70766 -0.727625
-2.32075 4.65861 -0.305923
-1.80353 4.60249 -1.55864
-2.01173 4.67827 -1.16119
-2.78463 4.11185 -0.798477
-2.43714 4.41291 -0.997925
-2.63044 4.08757 -1.23991
-0.766193 3.70539 -2.83997
-1.02123 3.99161 -2.61235
-1.85482 3.6086 -2.49273
-1.45281 3.81239 -2.57939
-1.57898 3.35091 -2.76828
-1.29075 4.24034 -2.31917
-1.5433 4.43168 -1.99119
-3.11079 2.54484 -1.59817
-2.89196 2.8264 -1.87668
-2.85832 2.38945 -2.00053
-2.79123 3.65055 -1.50689
-2.87273 3.25881 -1.70916
-3.06159 3.37604 -1.24836
-2.30112 2.89983 -2.48415
-2.60756 3.0976 -2.13011
-2.28235 3.34322 -2.33334
-2.00341 4.23329 -1.86779
-2.16548 3.80426 -2.13706
-2.43397 3.96397 -1.70069
-2.5896 4.42127 -0.0372667
-3.03805 3.80921 -0.543177
-2.84406 4.13614 -0.296884
-2.83978 4.1198 0.225882
-3.03161 3.79988 0.478894
-3.24721 2.13759 -1.31476
-3.29521 2.56191 -1.18258
-3.49201 2.55637 -0.292897
-3.4236 2.56112 -0.737258
-3.49575 2.12936 -0.46704
-3.28412 2.98823 -1.00708
-3.20394 3.37768 -0.809582
-3.30549 2.55366 1.12641
-3.27415 2.12722 1.26594
-3.19462 3.37728 0.741907
-3.27807 2.97705 0.939285
-3.50993 2.13113 0.427739
-3.43585 2.5534 0.678607
-3.50314 2.55604 0.235845
-3.26096 3.41331 -0.299705
-3.42601 2.98738 -0.0279468
-3.26356 3.41154 0.234076
1.46208 4.624 0.632882
1.60842 4.61273 0.215452
1.08795 4.49881 1.43203
1.28646 4.59144 1.04965
2.04763 4.03069 0.708919
1.70035 4.33152 0.899159
1.89296 4.00711 1.13788
0.0725609 3.64097 2.68465
0.333741 3.90833 2.44552
1.14399 3.54467 2.35609
0.758591 3.73392 2.41991
0.878946 3.29733 2.62693
0.596646 4.1478 2.15692
0.83202 4.34302 1.8509
2.41928 2.52136 1.51228
2.1892 2.78961 1.78224
2.17238 2.36828 1.9133
2.06918 3.59562 1.40271
2.1482 3.21399 1.59637
2.34545 3.33097 1.1573
1.59913 2.86316 2.35628
1.89709 3.0493 2.01759
1.56405 3.29021 2.19386
1.2859 4.1545 1.74054
1.44404 3.73492 1.99393
1.71084 3.89872 1.58664
-0.752031 3.26432 2.90309
-0.343575 3.39652 2.8584
-1.56721 2.89369 2.81883
-1.18302 3.08446 2.89474
-0.331998 2.57005 3.09543
-0.76544 2.82085 3.04122
-0.753986 2.38769 3.10487
-2.84924 1.86477 1.94876
-2.61568 2.13031 2.23191
-1.99677 1.6228 2.65148
-2.32056 1.87108 2.47297
-2.27467 1.36084 2.3966
-2.32201 2.39007 2.47562
-2.00345 2.62514 2.65932
-0.328175 0.809541 2.89773
-0.751594 0.960804 2.92828
-0.731822 0.557204 2.75729
-0.755642 1.85686 3.1021
-0.746993 1.41986 3.04135
-0.32986 1.67688 3.11838
-1.55233 0.907319 2.68815
-1.1741 1.14862 2.88604
-1.56311 1.35986 2.80814
-1.61523 2.38608 2.88637
-1.60594 1.86825 2.88464
-1.18889 2.12318 3.04367
-3.29991 1.70833 1.12594
-3.10929 1.70394 1.52615
-3.4971 1.70631 0.234751
-3.42722 1.70362 0.677809
-3.03842 0.903761 1.1828
-3.26406 1.27913 0.937958
-3.18474 0.884166 0.740397
-3.08145 1.71456 -1.56799
-3.27673 1.7092 -1.16773
-3.17595 0.887898 -0.787807
-3.255 1.28471 -0.987387
-3.01987 0.895977 -1.21836
-3.41764 1.70372 -0.730464
-3.48846 1.70198 -0.291104
-2.30732 -0.424255 0.22395
-2.59374 -0.17436 -0.0264592
-2.30702 -0.422318 -0.278871
-3.01997 0.451756 0.47345
-2.8431 0.121984 0.233219
-2.76988 0.164744 0.73794
-2.77047 0.159131 -0.787644
-2.84097 0.124223 -0.289007
-3.03037 0.452428 -0.535101
-3.41325 1.27312 -0.0276001
-3.25496 0.842917 -0.292365
-3.25034 0.842201 0.23596
-2.60823 2.14046 -2.28481
-2.82725 1.88166 -1.99078
-2.00387 2.64637 -2.74419
-2.32571 2.4023 -2.53958
-2.25551 1.39118 -2.42523
-2.30966 1.88371 -2.52099
-1.97986 1.64178 -2.70303
-0.344472 3.43605 -2.98961
-0.757486 3.29589 -3.03115
-0.76726 2.41033 -3.19809
-0.760242 2.85076 -3.15498
-0.347627 2.58651 -3.19937
-1.18481 3.11337 -3.00748
[...]
POINT_DATA 642
SCALARS Mean_Curvature double 1
LOOKUP_TABLE default
0.658201
0.734601
0.678973
0.624445
0.711427
0.726762
0.620419
0.722706
0.555072
0.607375
0.663537
0.640718
0.644908
0.640631
0.603147
0.677495
0.598847
0.678357
0.657465
0.641422
0.693629
0.6072
0.566384
0.694357
0.481474
0.585841
0.683978
0.54989
0.568452
0.434852
0.436115
0.734496
0.634549
0.595197
0.648933
0.602797
0.534376
0.593907
0.64792
0.654104
0.628139
0.739473
0.611475
0.637196
0.589339
0.628715
0.629733
0.61703
0.605906
0.65978
0.629166
0.662115
0.537693
0.500394
0.524443
0.714394
0.584345
0.749103
0.456362
0.714068
0.583138
0.685797
0.690264
0.507653
0.493796
0.601343
0.663399
0.622899
0.63655
0.663991
0.65863
0.610288
0.59334
0.541925
0.563428
0.598875
0.677038
0.658891
0.405573
0.634234
0.530986
0.678637
0.536347
0.677502
0.668698
0.487637
0.643321
0.613573
0.548411
0.441098
0.685775
0.576984
0.595336
0.559884
0.652489
0.561091
0.626037
0.600884
0.674506
0.433347
0.757351
0.678154
0.604451
0.478451
0.599502
0.668668
0.482099
0.766482
0.575843
0.651319
0.526866
0.679553
0.647277
0.60944
0.644496
0.599554
0.653399
0.655453
0.61631
0.60588
0.621859
0.584231
0.682221
0.584246
0.671203
0.593941
0.646771
0.578379
0.653777
0.589061
0.689064
0.560288
0.622185
0.600033
0.668559
0.606299
0.646745
0.604854
0.623024
0.758859
0.596276
0.614623
0.62643
0.616974
0.654561
0.682822
0.587827
0.608132
0.582312
0.68965
0.692715
0.600992
0.741933
0.620375
0.680318
0.516965
0.547516
0.597293
0.312513
0.656425
0.540633
0.68955
0.522694
0.61603
0.511612
0.624713
0.626408
0.610773
0.601712
0.641885
0.610645
0.63061
0.659497
0.626361
0.624413
0.625672
0.636405
0.612473
0.645725
0.616715
0.618982
0.706749
0.626102
0.663377
0.610211
0.67801
0.62762
0.660712
0.619637
0.627963
0.617311
0.646093
0.511264
0.573957
0.47701
0.546639
0.591343
0.649822
0.599313
0.632142
0.616545
0.756955
0.505674
0.500688
0.585153
0.658475
0.579129
0.727696
0.572013
0.712728
0.571141
0.686939
0.559628
0.738715
0.591633
0.678113
0.591465
0.721554
0.744486
0.679942
0.557448
0.516037
0.6466
0.815113
0.748357
0.77287
0.613734
0.686688
0.584239
0.69234
0.600244
0.694441
0.684845
0.728903
0.6601
0.74603
0.717477
0.682316
0.565481
0.526649
0.571573
0.637694
0.574155
0.487869
0.708751
0.625812
0.636452
0.616419
0.695075
0.658937
0.655952
0.678345
0.680932
0.593226
0.603094
0.593668
0.618963
0.603101
0.695121
0.637755
0.677269
0.588891
0.71605
0.618637
0.661957
0.647438
0.680779
0.595739
0.648507
0.589841
0.580101
0.578691
0.622536
0.560144
0.64314
0.453295
0.627757
0.547246
0.570749
0.568901
0.723182
0.632761
0.674518
0.617547
0.654509
0.60499
0.662387
0.580984
0.657759
0.514441
0.651467
0.578765
0.505143
0.762228
0.391684
0.542646
0.49759
0.636882
0.497285
0.541802
0.479972
0.734419
0.523626
0.681689
0.49775
0.64014
0.533698
0.68434
0.536175
0.703744
0.525939
0.674333
0.560245
0.70301
0.555827
0.710491
0.539983
0.729542
0.631766
0.657184
0.615545
0.695498
0.501926
0.710232
0.593098
0.623783
0.658339
0.579412
0.642152
0.52682
0.639116
0.624702
0.685999
0.719694
0.695378
0.52898
0.515446
0.668416
0.785431
0.470194
0.496898
0.617945
0.624627
0.729042
0.683523
0.62016
0.654085
0.545128
0.592696
0.545804
0.63712
0.526387
0.606068
0.525519
0.633101
0.53764
0.634471
0.591862
0.663472
0.579516
0.687364
0.513833
0.701641
0.618528
0.70466
0.606121
0.684874
0.583201
0.627855
0.552532
0.68152
0.559216
0.651322
0.615939
0.476626
0.645096
0.677367
0.705246
0.701941
0.734402
0.740293
0.763535
0.730603
0.624766
0.595257
0.591104
0.62914
0.36838
0.562314
0.530293
0.46868
0.535076
0.545845
0.618923
0.724741
0.665074
0.487515
0.723556
0.567014
0.638285
0.514644
0.62065
0.532821
0.766203
0.576816
0.754786
0.577125
0.690049
0.577548
0.702874
0.568286
0.670083
0.54923
0.666805
0.459852
0.547318
0.528222
0.632654
0.468646
0.713568
0.569529
0.701685
0.659255
0.604226
0.662179
0.622549
0.652364
0.621817
0.636166
0.59456
0.631429
0.610173
0.631125
0.72277
0.613528
0.665626
0.550219
0.65703
0.659174
0.643861
0.666334
0.582574
0.610819
0.601123
0.634604
0.581807
0.590905
0.607507
0.598169
0.627092
0.631547
0.596504
0.671438
0.61109
0.656642
0.575732
0.57551
0.582945
0.582043
0.613416
0.668259
0.552826
0.660796
0.569891
0.657863
0.558992
0.671181
0.543163
0.644622
0.528911
0.655976
0.605641
0.692501
0.607939
0.70096
0.544881
0.659729
0.570943
0.666975
0.62089
0.605847
0.554315
0.630435
0.570552
0.651192
0.592282
0.686782
0.574771
0.634629
0.568101
0.672352
0.613552
0.61324
0.609941
0.635411
0.607217
0.628014
0.627539
0.665421
0.620881
0.668645
0.588352
0.680335
0.553062
0.664853
0.615851
0.617895
0.598447
0.638989
0.631758
0.640662
0.617589
0.613949
0.642289
0.618625
0.636588
0.646584
0.626791
0.560032
0.67439
0.545538
0.653366
0.640188
0.649212
0.55114
0.668963
0.59989
0.601743
0.59225
0.618589
0.646794
0.627671
0.634729
0.619454
0.63153
0.616035
0.650377
0.756459
0.659769
0.654847
0.670404
0.640032
0.652572
0.661642
0.625097
0.646092
0.615757
0.723234
0.667599
0.625786
0.655605
0.606425
0.572649
0.630081
0.593381
0.646851
0.573135
0.639049
0.579326
0.680232
0.562631
0.641565
0.477295
0.637472
0.533032
0.657331
0.571097
0.661584
0.590282
0.677869
0.68414
0.587091
0.685793
0.586674
0.71002
0.581361
0.731767
0.620983
0.688287
0.608818
0.636778
0.603788
0.540212
0.462758
0.687428
0.587617
0.69419
0.592048
0.685569
0.603085
0.668149
0.6632
0.751466
0.598998
0.696471
0.607245
0.688193
0.573803
0.590816
0.507586
0.598945
0.554551
0.624451
0.585035
0.69835
0.622792
0.568395
0.643155
0.568385
0.650747
0.476165
0.626361
0.52834
0.608778
0.569755
0.625327
0.72084
0.604714
0.590089
0.819827
0.341881
0.632358
0.537524
0.60206
0.522593
0.598509
0.507186
0.670504
0.501511
0.654969
0.554568
0.699873
0.505549
0.5994
0.515316
0.697158
0.456563
0.54012
0.494618
0.683858
0.538455
0.698736
SCALARS Redistribution_Potential double 1
LOOKUP_TABLE default
-4.16538e-22
-1.22785
0.834536
0.404328
0.222746
-0.881182
-0.00524115
-0.221705
-0.824713
-0.782936
0.514991
0.419723
0.234328
-0.139466
-0.516086
-1.20745
-0.634224
-0.733352
0.0962494
0.348837
0.498383
0.610855
-1.05325
-1.31502
0.375971
-0.398388
0.676505
0.776517
-0.207684
0.320912
-1.16084
-0.804143
-0.0136736
-0.265921
0.489431
0.790178
0.745534
0.569501
0.268814
-0.433755
-0.130831
-0.778351
0.118697
-0.105391
-0.258137
0.17729
0.0575007
0.333332
-0.738077
-0.353245
-0.525334
-0.602243
-0.291373
-1.06813
-0.893828
-0.965215
-0.97322
-1.25115
-0.223583
0.0863656
-0.994333
-0.664771
-0.0219609
-0.281789
-0.446061
0.373465
0.298003
0.124061
0.303353
0.550596
0.497852
0.458958
0.399212
0.598952
0.56293
0.483445
0.542867
-1.34879
-1.31408
-1.03472
-1.2211
-1.11414
-1.22585
-0.976025
-0.31499
-0.666781
0.398357
0.107786
-0.0811492
0.025986
0.30123
0.695529
0.610336
0.582764
0.666862
0.85411
0.781189
0.788239
0.29856
0.443169
-0.221018
0.083924
0.135018
0.0715619
-0.155038
-0.798476
-0.532505
-1.25863
-1.04845
-0.902345
-1.01139
-1.06075
0.25032
0.279772
0.493793
-0.530585
-0.119174
-0.383547
0.385099
0.168577
-0.0145841
0.692376
0.589858
0.566273
0.666336
0.826689
0.823992
0.87296
0.557102
0.37745
0.746257
0.704035
0.11889
0.436938
0.286902
0.100615
0.179311
-0.221403
-0.0785047
-0.501638
-0.299487
-0.634035
-0.0104261
-0.807407
-0.419623
-0.369413
-0.766197
-0.380383
-0.702352
-0.77806
0.820842
0.629485
0.63317
0.406872
0.652061
0.524269
-0.670673
-0.400897
-0.46109
-1.10127
-1.06782
-1.28617
0.0619433
-0.0616654
-0.121649
0.078276
0.00465552
0.181599
-0.387241
-0.189599
-0.308898
0.308717
0.254889
0.376293
-0.0421147
0.116405
0.0281209
0.287367
0.202257
0.153146
-0.824632
-0.646047
-0.714604
-0.444773
-0.550645
-0.635809
-0.332292
-0.445179
-0.251182
-0.017345
-0.133468
-0.225352
-0.280952
-0.1413
-0.557089
-0.426187
-0.459024
-0.45628
-0.621822
-0.990628
-0.924289
-1.07808
-0.999566
-1.14601
-0.82636
-0.717492
-1.1065
-1.13055
-1.23276
-0.820513
-0.974699
-0.806562
-1.225
-1.13494
-1.10773
-0.762062
-0.944017
-0.797384
-0.102325
0.0464828
-0.43216
-0.252618
0.104306
-0.0632707
-0.0546854
-1.12402
-0.97973
-0.695807
-0.83542
-0.868491
-0.816974
-0.648088
-0.117709
-0.233207
-0.329329
-0.0837541
-0.149314
0.0557655
-0.586538
-0.361946
-0.514782
-0.441526
-0.468794
-0.231938
0.204017
0.164014
0.251529
0.24482
0.414339
0.348807
0.448988
-0.0375623
0.0644532
0.347173
0.223841
0.253606
0.156941
0.223672
0.533954
0.518871
0.486258
0.521179
0.531167
0.543223
0.412144
0.489157
0.43876
0.368197
0.426624
0.468381
0.216352
0.462588
0.352067
0.274673
0.318864
0.572728
0.565064
0.588167
0.584447
0.613798
0.557716
0.537611
0.447593
0.492498
0.370536
0.413351
0.583011
0.514
0.554387
0.513232
0.533969
0.451645
-1.30267
-1.30817
-1.26821
-1.30764
-1.32834
-1.35101
-1.33466
-0.961438
-1.06556
-1.17916
-1.13564
-1.07116
-1.15973
-1.24473
-0.94624
-1.05504
-0.880793
-1.2953
-1.1831
-1.23718
-1.02082
-1.12608
-1.1495
-1.31304
-1.24448
-1.3301
-0.620718
-0.79292
-0.232846
-0.42648
-0.542672
-0.503869
-0.368802
0.410868
0.281612
0.242381
0.257552
0.394198
0.134879
-0.0184329
0.0720989
0.11117
0.260671
-0.187935
-0.0385719
-0.24879
0.336569
0.170079
0.208722
-0.0881432
0.0573126
-0.154482
0.574224
0.520766
0.64452
0.625791
0.697782
0.665787
0.732282
0.548051
0.588954
0.686412
0.627121
0.630908
0.622175
0.649565
0.852267
0.834668
0.818853
0.800911
0.818901
0.824692
0.732247
0.793123
0.738777
0.703437
0.729282
0.757884
0.432111
0.482623
0.326362
0.386846
0.383826
0.366169
0.288959
-0.214467
-0.0465364
-0.0755195
-0.0636855
-0.21967
0.10728
0.230063
0.0575183
-0.00943103
-0.0932679
0.211599
0.0921965
0.231159
-0.181958
-0.0484805
-0.0719345
0.212167
0.0616083
0.190773
-0.498423
-0.388973
-0.763475
-0.637976
-0.676872
-0.672027
-0.802616
-1.25524
-1.14625
-1.15654
-1.15776
-1.23232
-1.02656
-0.917269
-0.880146
-0.991995
-0.946259
-0.924575
-0.961551
-0.866381
-1.11326
-1.0633
-1.09133
-0.934958
-1.03961
-0.941002
0.338645
0.383144
0.457795
0.145376
0.27201
0.134845
0.50385
0.401173
0.389718
-0.660578
-0.463358
-0.590173
-0.194394
-0.325042
-0.401443
-0.187057
-0.251016
-0.0518735
0.306687
0.199735
0.109473
0.34829
0.276919
0.454274
-0.140613
0.0777298
-0.0463237
0.10613
0.0333019
0.242501
0.557763
0.507395
0.605695
0.599553
0.673131
0.654518
0.731124
0.409149
0.473595
0.740795
0.620595
0.695461
0.53791
0.591268
0.837339
0.866233
0.864081
0.80542
0.836292
0.794381
0.842001
0.858586
0.818086
0.707009
0.771207
0.777382
0.494943
0.402291
0.663316
0.589738
0.329597
0.472706
0.423764
0.8062
0.791568
0.645585
0.726008
0.672501
0.768294
0.73692
0.0476509
0.208668
0.137372
0.358037
0.280707
0.200497
0.430966
0.365031
0.500544
0.646595
0.58253
0.517945
0.281255
0.301701
0.187533
0.245394
0.0357648
0.145291
-0.0107341
-0.114058
-0.0579891
-0.260946
-0.164227
-0.330372
0.0185658
0.104643
-0.678791
-0.584257
-0.731368
-0.213072
-0.401727
-0.311731
-0.533407
-0.482489
-0.377121
0.0209593
-0.17954
-0.086907
0.226447
-0.0538109
0.0924064
0.130413
0.00402478
-0.82421
-0.655887
-0.596322
-0.624622
-0.791122
-0.45944
-0.262439
-0.581534
-0.776755
-0.18208
-0.369851
-0.766402
-0.571044
-0.57543
-0.194669
-0.377268
-0.165304
-0.0618536
-0.333096
-0.202519
-0.239127
-0.406789
-0.766189
-0.893208
-0.850217
-0.627515
-0.49173
-0.859846
-0.596494
-0.735325
-0.924508
-0.925786
-0.546399
-0.748578
-0.58763
0.866419
0.821773
0.854417
0.851241
0.802626
0.44615
0.498981
0.479511
0.596972
0.726324
0.518505
0.724177
0.629468
0.530795
0.512449
0.75798
0.641558
0.754123
0.195866
0.487893
0.343791
0.269344
0.336735
0.778454
0.66953
0.731281
0.703233
0.624741
0.508307
0.425347
0.466005
0.555357
0.602945
0.551473
0.581555
0.474766
-0.782749
-0.572521
-0.675576
-0.797097
-0.741319
-0.212004
-0.310659
-0.281597
-0.328422
-0.442774
-0.381432
-0.649171
-0.522659
-0.366994
-0.317574
-0.541035
-0.446022
-0.604416
-0.944986
-0.941924
-0.93924
-1.11304
-1.21617
-0.963349
-1.14513
-1.07897
-0.945208
-0.9438
-1.29446
-1.3109
-1.3047
-1.28045
-1.22224
-1.09436
-1.17972
-1.2256
SCALARS CoVolArea double 1
LOOKUP_TABLE default
0.156168
0.149896
0.150982
0.157094
0.150586
0.148617
0.1464
0.154682
0.14778
0.155919
0.15471
0.160412
0.203926
0.20801
0.202814
0.200933
0.203103
0.20244
0.209301
0.208451
0.210357
0.206895
0.199274
0.200783
0.206469
0.20476
0.20504
0.208857
0.204459
0.205654
0.20209
0.200072
0.208734
0.20557
0.208584
0.209335
0.210436
0.209512
0.205899
0.203442
0.206724
0.203649
0.199579
0.216073
0.196622
0.194374
0.217237
0.19677
0.195267
0.21382
0.194138
0.213249
0.194785
0.190807
0.212536
0.195472
0.21399
0.191696
0.218854
0.195073
0.193145
0.215853
0.199449
0.220356
0.198093
0.221403
0.195274
0.198807
0.221275
0.19874
0.220021
0.197894
0.21942
0.196068
0.217129
0.217314
0.193908
0.209933
0.191163
0.19043
0.208307
0.192917
0.210026
0.191901
0.213195
0.191301
0.197072
0.2135
0.195295
0.215236
0.195719
0.217438
0.194677
0.195136
0.21514
0.200388
0.217033
0.198478
0.214234
0.193466
0.191134
0.216302
0.195128
0.215598
0.1932
0.211743
0.192639
0.188778
0.212154
0.192276
0.21253
0.190506
0.20051
0.217614
0.198987
0.192212
0.217779
0.19622
0.198971
0.219313
0.198127
0.219973
0.195491
0.196955
0.21866
0.200497
0.218314
0.19975
0.218205
0.196107
0.196554
0.21717
0.198007
0.216293
0.194885
0.21733
0.196924
0.191613
0.215045
0.196938
0.216236
0.194417
0.217877
0.192047
0.2185
0.218655
0.194806
0.211627
0.214551
0.211569
0.217523
0.21908
0.217885
0.215273
0.215485
0.214124
0.212131
0.210358
0.213739
0.212124
0.213451
0.210078
0.190449
0.197237
0.190424
0.21273
0.197857
0.196477
0.195935
0.198819
0.21451
0.19341
0.198036
0.193367
0.214248
0.198848
0.193336
0.194512
0.198915
0.212957
0.183596
0.195216
0.183329
0.211439
0.197703
0.193262
0.194232
0.195467
0.211367
0.238696
0.23711
0.238002
0.195889
0.190703
0.210521
0.196476
0.197676
0.196682
0.210308
0.185019
0.191292
0.204969
0.192096
0.188087
0.197075
0.20961
0.187671
0.195321
0.186474
0.209938
0.195125
0.19157
0.18907
0.191742
0.207673
0.236145
0.235192
0.236214
0.197396
0.192645
0.215333
0.201997
0.196235
0.199047
0.214424
0.183093
0.194368
0.210042
0.199658
0.195136
0.197946
0.211607
0.189192
0.197948
0.18997
0.213239
0.199037
0.199055
0.196092
0.201665
0.2151
0.238921
0.241072
0.241541
0.197487
0.190002
0.220641
0.201952
0.198236
0.201551
0.217389
0.19212
0.200371
0.217249
0.20313
0.198058
0.203802
0.218447
0.191388
0.200888
0.190641
0.2169
0.20046
0.195644
0.195996
0.200721
0.21687
0.244955
0.243214
0.243672
0.198523
0.218116
0.20088
0.201218
0.213341
0.192204
0.199099
0.214613
0.199198
0.194319
0.198393
0.215078
0.19621
0.189805
0.21446
0.199167
0.195621
0.198379
0.214145
0.241499
0.239606
0.241485
0.192905
0.184025
0.209066
0.192849
0.192347
0.193695
0.208104
0.187969
0.194714
0.205642
0.192872
0.186227
0.193491
0.206513
0.189157
0.194689
0.189279
0.205845
0.193922
0.188557
0.189911
0.194242
0.208447
0.229969
0.230151
0.23003
0.193958
0.185342
0.214065
0.195086
0.191573
0.192928
0.212048
0.190799
0.19638
0.21396
0.19772
0.197044
0.195048
0.212665
0.185965
0.196355
0.189149
0.211945
0.199053
0.192869
0.19532
0.197747
0.214219
0.238158
0.237183
0.237408
0.195432
0.189432
0.214461
0.19991
0.19807
0.199785
0.215825
0.192835
0.19665
0.21251
0.197168
0.193306
0.197075
0.212569
0.191499
0.201795
0.19223
0.214722
0.199865
0.195653
0.194801
0.199641
0.214153
0.239366
0.238537
0.239995
0.197888
0.190316
0.214415
0.198678
0.193773
0.197262
0.211838
0.18942
0.196824
0.210043
0.197126
0.192114
0.200939
0.214744
0.18364
0.194045
0.184112
0.21315
0.197642
0.194933
0.193963
0.197712
0.212294
0.237816
0.238033
0.236322
0.195193
0.189681
0.209569
0.195833
0.191884
0.195522
0.208307
0.18555
0.190838
0.206141
0.191865
0.187383
0.198
0.210194
0.184282
0.193015
0.185614
0.207586
0.194312
0.188975
0.190427
0.193396
0.209733
0.234025
0.233696
0.23352
0.19228
0.201117
0.190966
0.216158
0.201552
0.199369
0.198417
0.200904
0.214554
0.189734
0.195376
0.19008
0.212211
0.19604
0.193226
0.194556
0.199121
0.217309
0.189526
0.198148
0.187841
0.213891
0.199518
0.198618
0.194279
0.200759
0.215012
0.243411
0.243569
0.241806
0.199266
0.19009
0.218082
0.20261
0.197797
0.201245
0.217479
0.192424
0.198809
0.216187
0.200976
0.197237
0.201227
0.215983
0.19308
0.203345
0.192269
0.215963
0.200705
0.195889
0.19572
0.201223
0.216075
0.242234
0.240879
0.241583
0.197581
0.194674
0.216278
0.200491
0.195784
0.200082
0.215727
0.189209
0.199241
0.21508
0.198894
0.19599
0.198758
0.214534
0.186961
0.197861
0.185761
0.214324
0.199978
0.196086
0.196203
0.197678
0.21429
0.241002
0.240617
0.239847
0.198688
0.192906
0.212816
0.19863
0.198016
0.200629
0.215274
0.184286
0.193784
0.208495
0.193287
0.189007
0.199144
0.212561
0.189814
0.197605
0.188561
0.213456
0.195968
0.193981
0.190416
0.192956
0.211016
0.239862
0.239452
0.241007
0.199608
0.214876
0.200585
0.203561
0.217048
0.185892
0.195264
0.209593
0.195121
0.191883
0.199701
0.216845
0.197006
0.188632
0.212895
0.199487
0.195004
0.20127
0.213691
0.242846
0.242425
0.241085
0.195398
0.209431
0.194026
0.195831
0.209722
0.195905
0.209465
0.193459
0.194843
0.214019
0.193304
0.209262
0.193782
0.191497
0.206922
0.237834
0.236582
0.234432
0.202417
0.21616
0.199576
0.201098
0.214295
0.200086
0.214419
0.200283
0.199705
0.217019
0.195908
0.215998
0.200407
0.200804
0.212618
0.242026
0.241693
0.240724
0.195067
0.215855
0.197232
0.196715
0.211129
0.199523
0.212981
0.199886
0.199971
0.213419
0.19732
0.213172
0.197038
0.197886
0.210643
0.237285
0.235685
0.237416
0.195119
0.210504
0.193199
0.191909
0.208316
0.193105
0.210887
0.193965
0.193782
0.207528
0.193204
0.208484
0.195359
0.196877
0.212606
0.233497
0.234334
0.233792
0.194926
0.21027
0.194563
0.193775
0.208313
0.194458
0.209942
0.193524
0.196734
0.211767
0.192643
0.207751
0.195123
0.193782
0.20777
0.235282
0.233293
0.232908
SCALARS SignedDistance double 1
LOOKUP_TABLE default
2.86904
3.28937
2.44465
2.44421
2.76305
3.47516
3.05439
2.91962
3.24113
3.06747
3.00432
2.60055
2.64904
2.86037
3.11082
3.5469
2.89646
2.98673
2.48155
2.59395
2.51629
2.72956
3.33772
3.38362
2.98638
3.21989
2.81277
2.67898
3.44877
3.26483
3.45947
3.51403
2.5066
2.92907
2.52388
2.42655
2.70849
2.6645
2.69991
3.1934
2.68665
3.05056
2.79396
2.82898
3.02944
2.67609
2.70616
2.5948
3.27088
2.96276
3.15369
3.09097
2.91786
3.58692
3.38627
3.06718
3.19625
3.41656
2.83347
2.60434
3.06091
2.85216
2.6316
2.83988
3.02209
2.35798
2.62925
2.58967
2.37026
2.69379
2.42852
2.75522
2.71804
2.88808
2.79455
2.63013
2.64627
3.50634
3.51041
3.46869
3.48162
3.22886
3.34611
3.2071
3.11912
3.43023
2.76973
2.84573
3.00618
3.14579
2.90118
2.67993
2.7274
2.93491
2.79205
2.52667
2.69417
2.53429
2.99678
3.15385
3.14325
2.939
3.16374
3.34564
3.27914
3.22377
3.30287
3.3758
3.23353
3.42935
3.46648
3.37315
2.40469
2.51031
2.47511
3.00466
2.73492
2.77347
2.64155
2.70819
2.85396
2.56345
2.59574
2.56126
2.48788
2.5158
2.56971
2.41208
2.61495
2.59017
2.54164
2.57239
2.90499
2.70416
2.86088
2.72811
2.50286
3.14068
2.93657
2.98595
2.98687
3.23218
2.4894
3.1448
2.78254
2.68522
3.03069
3.05825
3.1337
3.29893
2.44745
2.58521
2.7699
2.9369
2.71698
3.03141
3.40191
3.32479
3.55438
3.24077
3.27543
3.43729
2.88732
2.89941
2.99916
2.72228
2.79944
2.70397
3.05571
2.91958
2.96068
2.62378
2.61552
2.58015
2.76981
2.67992
2.75563
2.61615
2.63674
2.66499
3.37287
3.21082
3.32112
3.03148
3.11163
3.18116
2.99937
3.04584
2.90423
2.7552
2.81745
2.88249
3.02121
2.95226
3.1833
3.10419
2.87546
2.98677
2.96644
3.5557
3.45689
3.4709
3.5174
3.58354
3.35718
3.27482
3.17604
3.23837
3.3454
3.03589
3.12392
2.97249
3.4748
3.3056
3.3739
3.22958
3.28727
3.11542
2.85166
2.74539
2.82305
2.85786
2.50587
2.72758
2.65976
3.16195
3.04256
2.90198
2.94346
3.01066
2.93775
2.86275
2.76634
2.87244
3.00989
2.68176
2.76135
2.52842
2.9871
2.91574
2.88656
2.78559
2.811
2.81909
2.59241
2.73282
2.3797
2.44097
2.54926
2.46182
2.40905
2.7395
2.57525
2.43572
2.45949
2.55493
2.45001
2.38239
2.86005
2.71079
2.88124
2.43195
2.53724
2.55872
2.6642
2.5808
2.48592
2.3228
2.36194
2.34431
2.79266
2.66211
2.71072
2.73907
2.65896
2.99242
2.90233
2.75915
2.84537
2.80083
2.76768
2.67968
2.59307
2.59913
2.61279
2.60353
2.67156
2.65138
2.6751
2.72767
2.68893
2.64344
3.49566
3.44493
3.54796
3.54041
3.4451
3.50868