# vtk DataFile Version 4.2
vtk output
ASCII
DATASET POLYDATA
POINTS 642 double
-2.06915 4.94902 -0.0364259
1.39669 4.92621 -0.0356298
-2.07827 -0.707616 -0.0281426
1.42583 -0.708211 -0.0266822
-0.326454 0.381923 2.79435
-0.336456 3.84393 2.75148
-0.324874 0.399946 -2.81937
-0.337755 3.88066 -2.86324
2.45704 2.12423 -1.74236
2.47737 2.11433 1.69944
-3.13465 2.13599 -1.76701
-3.14727 2.12742 1.71186
-3.01204 3.78862 0.996561
-1.98861 3.14766 2.64565
-1.34534 4.79018 1.61759
0.673514 4.77153 1.5972
-0.324364 5.43351 -0.0303872
0.685936 4.80429 -1.68178
-1.3619 4.84051 -1.70493
-2.00075 3.16503 -2.72897
-3.02852 3.80297 -1.06377
-3.63496 2.12853 -0.026441
1.3038 3.13416 2.60725
2.32014 3.75481 0.981633
-1.97874 1.1023 2.64386
-0.331262 2.11941 3.24874
-3.00689 0.466577 -1.05129
-3.00544 0.466333 0.996458
-0.333222 2.13797 -3.30821
-1.96378 1.11805 -2.66854
2.2985 3.75544 -1.03153
1.30105 3.14093 -2.67311
2.37726 0.458175 1.00271
1.32351 1.09735 2.63868
0.705353 -0.567177 1.63609
-1.35805 -0.570968 1.63412
-0.325484 -1.18846 -0.0285286
-1.3512 -0.55566 -1.68057
0.700851 -0.556467 -1.6858
1.31376 1.10478 -2.68037
2.36949 0.462562 -1.05524
2.99246 2.11267 -0.0275036
-2.61859 4.46203 0.495588
-2.27982 4.40332 1.37441
-1.76252 4.97235 0.816045
-2.65906 2.65888 2.26962
-2.60912 3.54008 1.92019
-3.19238 2.98958 1.4093
-0.851212 4.39801 2.28138
-1.74103 4.06835 2.24455
-1.17497 3.56279 2.81301
-0.868815 5.2642 0.830062
-1.24163 5.30321 -0.0332671
0.185603 4.3806 2.24797
-0.328396 4.91117 1.68501
0.568569 5.30972 -0.0339023
0.206147 5.25651 0.831066
1.08814 4.96261 0.816384
-0.868558 5.278 -0.904003
-1.784 5.01453 -0.905266
1.10473 4.97214 -0.873782
0.203514 5.27956 -0.902854
-0.858698 4.44667 -2.38782
-0.341197 4.9452 -1.77722
0.191395 4.41308 -2.35439
-2.29657 4.43109 -1.45299
-2.63519 4.48156 -0.562569
-1.2016 3.58159 -2.91235
-1.75146 4.09958 -2.33394
-3.20084 2.99976 -1.47612
-2.62899 3.55548 -1.99767
-2.66312 2.67033 -2.33578
-3.14814 3.87495 -0.0302711
-3.49955 2.1314 -0.928026
-3.47649 3.0034 -0.569163
-3.48057 2.998 0.509534
-3.51584 2.13046 0.890691
1.58752 4.36859 1.35472
1.91637 4.4168 0.483595
0.517616 3.53273 2.78104
1.05611 4.03335 2.20035
2.50701 2.9725 1.3939
1.91818 3.51272 1.88398
1.97934 2.6452 2.24745
-1.19567 2.66461 3.10652
-0.337235 3.01508 3.11175
-2.6605 1.60478 2.26363
-2.0721 2.12514 2.77842
-0.325212 1.21291 3.135
-1.19459 1.58741 3.08875
-1.17803 0.680368 2.83525
-3.46978 1.25864 0.509747
-3.18436 1.2797 1.41426
-3.16558 1.27229 -1.45137
-3.4702 1.25935 -0.564159
-2.63206 -0.209692 0.506571
-3.1473 0.382536 -0.0294898
-2.63273 -0.208573 -0.560376
-2.06669 2.13581 -2.84722
-2.63135 1.60849 -2.30287
-0.331428 3.05341 -3.22594
-1.20659 2.67853 -3.19333
-1.16716 0.696451 -2.85735
-1.19227 1.60422 -3.141
-0.325328 1.22222 -3.16729
1.06152 4.06475 -2.29241
0.508236 3.56054 -2.86099
1.94338 4.43435 -0.559672
1.5966 4.38624 -1.42336
1.96139 2.64713 -2.29033
1.91007 3.51567 -1.94192
2.49375 2.97003 -1.44502
1.98893 -0.226091 0.501351
1.63156 -0.171831 1.38431
1.12907 -0.75084 0.827049
1.99216 1.58548 2.25717
1.96501 0.711932 1.92445
2.5451 1.25147 1.41219
0.200838 -0.173444 2.3134
1.08247 0.16925 2.25139
0.52274 0.686732 2.82417
0.214081 -1.03314 0.844535
0.598865 -1.07207 -0.0277001
-0.863024 -0.184897 2.30293
-0.326061 -0.707558 1.7243
-1.23754 -1.07338 -0.0273123
-0.867824 -1.04057 0.849883
-1.77391 -0.748396 0.839467
0.214451 -1.03102 -0.901533
1.11604 -0.742475 -0.888363
-1.77614 -0.747047 -0.882143
-0.869403 -1.02945 -0.895635
0.199178 -0.158635 -2.35311
-0.329211 -0.692988 -1.76607
-0.850813 -0.161991 -2.35732
1.62488 -0.163271 -1.43255
1.9859 -0.222411 -0.55673
0.526036 0.696998 -2.8552
1.07965 0.186427 -2.29811
2.53672 1.2549 -1.46161
1.94953 0.721671 -1.96646
1.9756 1.59064 -2.29748
2.51665 0.372667 -0.0279835
2.84765 2.11407 -0.924371
2.84333 1.2514 -0.566948
2.84666 1.24126 0.514358
2.85095 2.12149 0.884385
0.536052 1.58176 3.09902
1.39954 2.12519 2.76082
0.531257 2.65074 3.08652
-2.28773 -0.169699 1.39172
-1.74277 0.167219 2.25934
-2.61426 0.709311 1.9291
-1.73036 0.183497 -2.29543
-2.27919 -0.158369 -1.43981
-2.59014 0.726346 -1.95348
1.38532 2.12629 -2.79584
0.526952 1.59157 -3.12964
0.522663 2.66338 -3.11888
2.79988 2.98013 0.505112
2.78344 2.98272 -0.556925
2.45143 3.84018 -0.0282827
-2.355 4.73017 0.227103
-2.2214 4.74557 0.670529
-1.9303 4.98167 0.386306
-2.67582 4.11948 1.19887
-2.47065 4.45428 0.950597
-2.84573 4.13691 0.754401
-1.56721 4.90844 1.22642
-2.03979 4.71372 1.11176
-1.8248 4.63001 1.51858
-2.92933 2.39631 2.01211
-2.95886 2.83749 1.86854
-3.19951 2.56348 1.57663
-2.31799 3.36019 2.3156
-2.66068 3.10773 2.11604
-2.34465 2.91004 2.48129
-3.1298 3.40003 1.21323
-2.92792 3.2782 1.68505
-2.84617 3.67776 1.47424
-0.587621 4.13432 2.54521
-1.03836 4.00639 2.58056
-0.746991 3.72266 2.80806
-1.56266 4.45951 1.95546
-1.30496 4.26044 2.28495
-1.11769 4.62387 1.96596
-1.58718 3.37168 2.75952
-1.47901 3.82976 2.55639
-1.87752 3.6284 2.47781
-2.47669 3.99417 1.66842
-2.1953 3.82876 2.11145
-2.03422 4.2641 1.83505
-1.50673 5.17406 0.400536
-1.66849 5.15626 -0.0405496
-1.11053 5.05225 1.2394
-1.32376 5.14198 0.834195
-0.789848 5.39897 -0.0303128
-1.05775 5.31749 0.403179
-0.594706 5.38865 0.406861
-0.0739203 4.13241 2.52517
-0.33058 4.42179 2.29269
0.17805 4.88083 1.66496
-0.0649595 4.67056 1.98655
0.438047 4.59729 1.93664
-0.596204 4.68168 1.99963
-0.850633 4.88739 1.67457
1.01179 5.1353 -0.0316916
0.846444 5.17715 0.399164
1.26206 4.96445 0.383338
-0.0610014 5.39419 0.40371
0.397927 5.31348 0.404806
0.122701 5.40683 -0.0344108
0.897479 4.88727 1.20904
0.658136 5.14539 0.832368
0.453782 5.04566 1.2329
-0.606519 5.13328 1.27844
-0.0580105 5.12391 1.2773
-0.335184 5.31104 0.842194
-1.523 5.20777 -0.47443
-1.94683 5.01108 -0.477248
-0.595354 5.39457 -0.468981
-1.06572 5.32509 -0.476647
-1.58642 4.95826 -1.30723
-1.34436 5.18899 -0.919821
-1.12964 5.1064 -1.3256
1.26505 4.98367 -0.465033
0.854501 5.1775 -0.463597
0.455763 5.07885 -1.30901
0.665959 5.15448 -0.901241
0.903144 4.9185 -1.29999
0.398961 5.32347 -0.468125
-0.0600678 5.40083 -0.474394
-0.592351 4.17844 -2.65666
-0.341204 4.47073 -2.40294
-0.0736119 4.16407 -2.64052
-0.862329 4.93417 -1.77054
-0.602638 4.7333 -2.10278
-1.12814 4.66967 -2.06321
0.44901 4.6286 -2.03496
-0.0722621 4.71052 -2.08502
0.191914 4.90615 -1.74299
-0.335255 5.32119 -0.915958
-0.0548808 5.15026 -1.35034
-0.614219 5.1523 -1.36006
-2.23685 4.78157 -0.745028
-2.37909 4.73555 -0.308953
-1.84455 4.67044 -1.60017
-2.05741 4.7498 -1.19122
-2.85699 4.16633 -0.819637
-2.49538 4.47747 -1.02323
-2.69455 4.14237 -1.27341
-0.774525 3.74994 -2.92034
-1.03968 4.04347 -2.68421
-1.89622 3.6492 -2.56227
-1.48396 3.85855 -2.65063
-1.6128 3.38428 -2.84632
-1.31695 4.29861 -2.38214
-1.57541 4.49568 -2.0448
-3.19781 2.55758 -1.64453
-2.96797 2.84395 -1.93157
-2.93516 2.39586 -2.06417
-2.86039 3.69358 -1.54769
-2.94536 3.28938 -1.7562
-3.141 3.41086 -1.28216
-2.35707 2.92063 -2.55715
-2.67299 3.12285 -2.19082
-2.33738 3.37587 -2.39759
-2.04855 4.29199 -1.91833
-2.21615 3.85033 -2.19532
-2.49177 4.01543 -1.74684
-2.65878 4.49137 -0.0340401
-3.11969 3.8583 -0.55531
-2.92024 4.19547 -0.302377
-2.91576 4.18225 0.235664
-3.11439 3.8518 0.493619
-3.3415 2.13473 -1.35662
-3.38937 2.57191 -1.21799
-3.59168 2.5693 -0.301364
-3.52162 2.57245 -0.758726
-3.59687 2.12915 -0.482165
-3.37455 3.01192 -1.03477
-3.29052 3.4144 -0.829639
-3.39636 2.56681 1.16153
-3.36386 2.12746 1.30668
-3.28276 3.4148 0.765018
-3.36787 3.00367 0.969191
-3.60919 2.13057 0.438737
-3.53136 2.56725 0.700328
-3.60162 2.5695 0.243582
-3.35093 3.45253 -0.306022
-3.52204 3.01363 -0.028193
-3.35355 3.45166 0.242513
1.53091 4.71392 0.660485
1.68246 4.69991 0.228649
1.14285 4.58762 1.48848
1.34932 4.68212 1.09289
2.1367 4.10259 0.73745
1.77802 4.41435 0.934153
1.975 4.0797 1.18059
0.0918598 3.69972 2.78554
0.361234 3.9778 2.53958
1.19926 3.60123 2.4444
0.799003 3.7981 2.51266
0.923928 3.3443 2.72487
0.632499 4.2255 2.24227
0.877595 4.42716 1.92402
2.51299 2.54192 1.56447
2.27657 2.81726 1.84572
2.25536 2.38226 1.98266
2.15506 3.65245 1.45513
2.23559 3.25573 1.65548
2.44 3.37747 1.19959
1.66511 2.8942 2.44375
1.97554 3.08725 2.09109
1.63316 3.33578 2.27543
1.34617 4.23223 1.80806
1.50944 3.79632 2.07069
1.78573 3.96632 1.64677
-0.762685 3.30439 3.00512
-0.337981 3.44406 2.96356
-1.60512 2.91842 2.91206
-1.20686 3.11796 2.99241
-0.329379 2.58548 3.20663
-0.774516 2.84673 3.14753
-0.765622 2.39747 3.21396
-2.92651 1.85733 2.01059
-2.68581 2.13006 2.30264
-2.04742 1.60791 2.73991
-2.38175 1.86221 2.55309
-2.33482 1.339 2.47513
-2.38296 2.39829 2.5552
-2.05308 2.64218 2.74656
-0.32698 0.774627 2.99499
-0.76443 0.929409 3.02664
-0.747612 0.512619 2.84357
-0.767995 1.85054 3.20999
-0.761246 1.39985 3.14555
-0.328991 1.66569 3.22629
-1.59212 0.874318 2.77414
-1.20046 1.12265 2.98545
-1.60156 1.33776 2.90311
-1.65367 2.39577 2.98229
-1.64587 1.85913 2.98103
-1.2135 2.12403 3.14711
-3.39205 1.69428 1.16097
-3.19473 1.69143 1.57499
-3.59683 1.69187 0.242815
-3.52415 1.68977 0.699608
-3.12271 0.864598 1.21885
-3.35622 1.2532 0.967888
-3.2749 0.846698 0.763688
-3.172 1.69954 -1.6199
-3.37297 1.69532 -1.2067
-3.26718 0.850423 -0.813698
-3.34991 1.25772 -1.02037
-3.1075 0.858876 -1.25967
-3.51744 1.6903 -0.754288
-3.58932 1.68867 -0.300075
-2.36853 -0.49533 0.233559
-2.66188 -0.240866 -0.0269835
-2.36827 -0.493967 -0.289341
-3.10462 0.402982 0.489057
-2.91988 0.0632821 0.241154
-2.84462 0.108037 0.760367
-2.84569 0.102641 -0.812432
-2.9173 0.0653878 -0.297142
-3.11459 0.402661 -0.550441
-3.51117 1.24673 -0.0279257
-3.34766 0.804017 -0.300937
-3.34284 0.803627 0.244111
-2.68087 2.13617 -2.35662
-2.90953 1.86918 -2.05606
-2.05398 2.65782 -2.82585
-2.38667 2.40632 -2.6173
-2.31952 1.36194 -2.50911
-2.37418 1.87033 -2.6027
-2.03492 1.62057 -2.79366
-0.338677 3.47452 -3.07831
-0.767746 3.32817 -3.11762
-0.776555 2.41268 -3.30109
-0.770729 2.86867 -3.24994
-0.340441 2.59519 -3.305
-1.20869 3.13947 -3.09236
-1.6177 2.93153 -2.99783
[...]
POINT_DATA 642
SCALARS Mean_Curvature double 1
LOOKUP_TABLE default
0.648362
0.705696
0.659075
0.60889
0.679867
0.709277
0.609902
0.689108
0.553245
0.604974
0.659285
0.625794
0.621262
0.615898
0.588149
0.663941
0.576868
0.650078
0.619362
0.618186
0.658556
0.589876
0.551714
0.67073
0.493801
0.57621
0.658744
0.545361
0.594944
0.446396
0.442862
0.699279
0.611105
0.580799
0.627312
0.581824
0.532427
0.576814
0.623454
0.633231
0.603397
0.702406
0.595464
0.613603
0.578806
0.60371
0.607824
0.594715
0.584922
0.630948
0.600303
0.63835
0.527976
0.511153
0.516312
0.681309
0.56315
0.714865
0.453791
0.668008
0.562421
0.656446
0.64998
0.505508
0.48975
0.582738
0.638105
0.587906
0.616593
0.630384
0.630929
0.58593
0.580667
0.534485
0.552094
0.579988
0.649323
0.639244
0.413408
0.62266
0.523671
0.654025
0.524532
0.650524
0.632415
0.48971
0.624361
0.594658
0.530154
0.44907
0.649415
0.56552
0.584177
0.553422
0.631748
0.544323
0.612093
0.577815
0.644082
0.448358
0.700272
0.633629
0.60096
0.516656
0.590132
0.642117
0.484631
0.723429
0.557429
0.637228
0.522404
0.655914
0.622364
0.589842
0.622453
0.586562
0.623538
0.622617
0.596777
0.588302
0.603312
0.569727
0.660941
0.565578
0.647024
0.569289
0.628104
0.557589
0.635128
0.573001
0.660737
0.545197
0.602875
0.58175
0.637078
0.588729
0.621422
0.589699
0.602467
0.714565
0.578777
0.599697
0.605386
0.604964
0.620275
0.644686
0.578515
0.592215
0.56664
0.663423
0.664129
0.578137
0.712405
0.596499
0.650385
0.515583
0.53898
0.588053
0.324351
0.63228
0.532012
0.669409
0.518159
0.601119
0.51281
0.602679
0.605213
0.591361
0.586911
0.621427
0.589981
0.607257
0.633565
0.603442
0.602652
0.601952
0.61258
0.59096
0.621775
0.595009
0.593387
0.675466
0.59787
0.635073
0.584509
0.650696
0.602842
0.633128
0.595108
0.60525
0.595471
0.619985
0.508981
0.580048
0.475585
0.54481
0.57949
0.632491
0.575805
0.6335
0.599146
0.725431
0.502619
0.509088
0.571345
0.637608
0.553332
0.690643
0.548711
0.678442
0.545847
0.653701
0.545856
0.701298
0.568334
0.652318
0.571093
0.684364
0.70666
0.648025
0.550793
0.511813
0.610803
0.763302
0.707331
0.731026
0.588829
0.656884
0.564186
0.660843
0.574546
0.663131
0.645879
0.696681
0.641669
0.707615
0.680913
0.644048
0.555176
0.524232
0.560218
0.621471
0.561636
0.493633
0.672791
0.605119
0.615424
0.588325
0.663398
0.619874
0.63003
0.643318
0.646261
0.574419
0.588495
0.572646
0.594074
0.582505
0.668367
0.609282
0.649741
0.568469
0.671996
0.587133
0.636242
0.620615
0.642436
0.578733
0.625129
0.572355
0.572214
0.567142
0.606126
0.546622
0.622313
0.451706
0.624904
0.538721
0.558562
0.559727
0.692925
0.613245
0.648441
0.593478
0.631855
0.585056
0.636378
0.563891
0.634515
0.508884
0.633096
0.565502
0.502002
0.737564
0.393621
0.550427
0.497297
0.629613
0.486989
0.537034
0.479904
0.709115
0.517978
0.657582
0.498904
0.627546
0.521902
0.660111
0.521825
0.675017
0.510141
0.646585
0.547177
0.678492
0.544542
0.684405
0.527827
0.695727
0.604632
0.654931
0.592837
0.660675
0.495262
0.681912
0.58975
0.601193
0.632188
0.567499
0.620917
0.514691
0.615694
0.602853
0.674193
0.698165
0.648919
0.52368
0.510732
0.649569
0.744579
0.501306
0.496944
0.594764
0.607201
0.693905
0.65967
0.598228
0.635024
0.534545
0.581473
0.534687
0.624229
0.518861
0.597856
0.513371
0.617931
0.526857
0.619373
0.57586
0.639648
0.559338
0.662934
0.508791
0.677023
0.598133
0.667775
0.58099
0.656441
0.56766
0.609681
0.542629
0.655868
0.56128
0.624649
0.590306
0.482729
0.624654
0.662595
0.659611
0.650055
0.683945
0.691321
0.717949
0.678848
0.602705
0.579906
0.578034
0.608421
0.382401
0.548386
0.5483
0.45248
0.521429
0.578624
0.592548
0.674743
0.639386
0.483037
0.696981
0.546839
0.622953
0.504294
0.610814
0.520549
0.722425
0.551462
0.72656
0.554117
0.670123
0.561673
0.670735
0.557008
0.652845
0.53494
0.646578
0.455775
0.541284
0.524311
0.622344
0.476802
0.679162
0.555848
0.673651
0.635451
0.581142
0.637731
0.599716
0.629701
0.597881
0.613841
0.575045
0.612298
0.597029
0.603247
0.6894
0.597284
0.646969
0.536952
0.625678
0.627444
0.616322
0.639434
0.566102
0.589404
0.582381
0.616205
0.565073
0.576502
0.590957
0.583635
0.604248
0.610825
0.579591
0.645007
0.585963
0.63743
0.557427
0.566681
0.570408
0.577033
0.590785
0.640288
0.535866
0.637195
0.560079
0.633124
0.544376
0.647622
0.529727
0.623655
0.525836
0.637178
0.59005
0.664677
0.581058
0.673332
0.53454
0.635327
0.559881
0.645824
0.599352
0.595904
0.537271
0.609977
0.553671
0.629453
0.567687
0.656019
0.558899
0.615902
0.553231
0.652024
0.591732
0.596152
0.58901
0.616153
0.588373
0.608345
0.603813
0.638176
0.596168
0.642613
0.572598
0.655863
0.540711
0.640425
0.593129
0.598767
0.58088
0.614153
0.606618
0.6165
0.599532
0.595952
0.61804
0.597367
0.614291
0.62199
0.603593
0.557868
0.659445
0.53557
0.627305
0.600927
0.617814
0.53971
0.65006
0.578546
0.584698
0.576821
0.600289
0.622075
0.60348
0.611165
0.595676
0.609794
0.601766
0.628112
0.705758
0.625521
0.636287
0.632929
0.61279
0.618651
0.648827
0.601047
0.616192
0.597498
0.683433
0.628874
0.603277
0.618906
0.587308
0.56416
0.608773
0.575956
0.619224
0.559152
0.61812
0.567281
0.656393
0.548202
0.622181
0.473504
0.620718
0.527359
0.639413
0.554457
0.635269
0.5728
0.647865
0.654615
0.566618
0.656992
0.563758
0.680294
0.560611
0.67678
0.591278
0.664652
0.590079
0.620602
0.585886
0.530467
0.452615
0.686656
0.569036
0.65456
0.565918
0.652005
0.58369
0.638015
0.630788
0.708427
0.575834
0.658089
0.580472
0.660582
0.558966
0.582861
0.510989
0.594702
0.546182
0.617656
0.567645
0.665971
0.602811
0.556633
0.623793
0.556193
0.638604
0.47144
0.608189
0.517284
0.600331
0.553514
0.606425
0.67216
0.61624
0.585698
0.788919
0.387413
0.616165
0.534891
0.59681
0.513541
0.584193
0.499372
0.648457
0.486341
0.631989
0.551782
0.677038
0.494547
0.583867
0.511412
0.674799
0.458963
0.54302
0.490841
0.65555
0.530471
0.667402
SCALARS Redistribution_Potential double 1
LOOKUP_TABLE default
-1.00855e-11
-1.28964
0.879953
0.439173
0.243234
-0.933937
-0.0105929
-0.232069
-0.86633
-0.812145
0.53213
0.4431
0.249365
-0.140385
-0.541602
-1.28014
-0.66172
-0.769777
0.104273
0.36821
0.526019
0.638114
-1.10998
-1.38483
0.394145
-0.420353
0.706715
0.815222
-0.234301
0.316828
-1.23045
-0.858371
0.0074166
-0.269148
0.525527
0.836132
0.786386
0.598676
0.29082
-0.457461
-0.117884
-0.799826
0.125639
-0.108073
-0.274167
0.191868
0.0666218
0.354038
-0.775782
-0.365679
-0.545643
-0.633016
-0.308249
-1.14002
-0.943914
-1.00892
-1.01968
-1.31846
-0.236292
0.094145
-1.03961
-0.695394
-0.0189731
-0.299556
-0.47271
0.395585
0.317396
0.133319
0.321162
0.57853
0.525256
0.481198
0.419328
0.621545
0.588932
0.508175
0.571189
-1.42759
-1.39146
-1.09922
-1.29607
-1.16477
-1.29021
-1.02095
-0.326496
-0.706816
0.420957
0.116208
-0.0815661
0.0237524
0.321617
0.727347
0.641694
0.600218
0.694322
0.899393
0.818795
0.829496
0.308252
0.449222
-0.232367
0.0892426
0.129162
0.0553449
-0.176496
-0.844342
-0.570024
-1.32544
-1.1036
-0.960151
-1.07485
-1.12057
0.280941
0.310039
0.532261
-0.5455
-0.106498
-0.382245
0.415453
0.189157
-0.00669861
0.734673
0.629546
0.602237
0.708081
0.872498
0.870748
0.922122
0.591588
0.408122
0.786009
0.742939
0.12851
0.462693
0.302137
0.118478
0.205499
-0.2361
-0.0759941
-0.512709
-0.303708
-0.667803
0.0110526
-0.837784
-0.417507
-0.364348
-0.78866
-0.394563
-0.732178
-0.819926
0.866782
0.666813
0.668205
0.42097
0.683878
0.537214
-0.717967
-0.435755
-0.503727
-1.14977
-1.12067
-1.3577
0.0651824
-0.066047
-0.131319
0.0853262
0.00683256
0.192223
-0.408577
-0.19931
-0.321939
0.328633
0.273047
0.398779
-0.0370622
0.128201
0.0353007
0.305535
0.217793
0.165271
-0.868851
-0.677138
-0.748641
-0.4642
-0.574632
-0.668343
-0.34104
-0.462696
-0.256662
-0.0135422
-0.133333
-0.232309
-0.297617
-0.150806
-0.586626
-0.450857
-0.482225
-0.480278
-0.649836
-1.05475
-0.979364
-1.14072
-1.06079
-1.22005
-0.8728
-0.756488
-1.15658
-1.18485
-1.2958
-0.857805
-1.01842
-0.842204
-1.29377
-1.19184
-1.16612
-0.802151
-0.992692
-0.835837
-0.106944
0.0510065
-0.452765
-0.267642
0.113236
-0.0668556
-0.0576356
-1.1774
-1.02337
-0.728719
-0.873117
-0.910341
-0.852371
-0.677116
-0.119504
-0.245623
-0.348325
-0.0886579
-0.156223
0.061004
-0.618397
-0.383868
-0.540675
-0.463953
-0.491742
-0.247834
0.218605
0.174132
0.267687
0.26117
0.438856
0.37032
0.474859
-0.0364765
0.0715525
0.366962
0.237974
0.268599
0.168179
0.237747
0.557588
0.544911
0.506198
0.549955
0.559436
0.572345
0.433542
0.51537
0.463114
0.389332
0.450612
0.494677
0.228039
0.486775
0.371332
0.288751
0.336284
0.593093
0.588803
0.613891
0.609177
0.638784
0.584641
0.565122
0.472616
0.51921
0.39148
0.436535
0.611263
0.540611
0.58085
0.537789
0.559007
0.47411
-1.37677
-1.38046
-1.34459
-1.38569
-1.40459
-1.43076
-1.40944
-1.02287
-1.13552
-1.24841
-1.2066
-1.13331
-1.23546
-1.32309
-0.986354
-1.10348
-0.917387
-1.36272
-1.24056
-1.29747
-1.07226
-1.18279
-1.21159
-1.39056
-1.31504
-1.40353
-0.651412
-0.840432
-0.238306
-0.443996
-0.572397
-0.530124
-0.387938
0.434389
0.300303
0.254915
0.273747
0.415319
0.14705
-0.0143813
0.0816701
0.120951
0.282409
-0.199064
-0.0403406
-0.260523
0.355076
0.17463
0.217099
-0.0889907
0.0613331
-0.161605
0.603362
0.548304
0.673767
0.655727
0.732517
0.697546
0.766401
0.563714
0.608139
0.71548
0.649859
0.654188
0.645756
0.677072
0.898281
0.878545
0.862289
0.839579
0.860042
0.867195
0.768616
0.833622
0.774466
0.734655
0.762182
0.792718
0.446662
0.494876
0.342705
0.403551
0.384498
0.37408
0.28913
-0.224063
-0.0451188
-0.0831468
-0.0649558
-0.238369
0.115656
0.243266
0.0528714
-0.0231669
-0.107616
0.202389
0.0802733
0.223374
-0.205679
-0.0666288
-0.0917385
0.22096
0.0591933
0.189823
-0.528828
-0.41259
-0.802774
-0.674813
-0.723879
-0.714739
-0.852585
-1.31945
-1.20183
-1.22206
-1.21755
-1.30199
-1.07736
-0.963527
-0.930948
-1.05135
-0.997197
-0.984845
-1.02283
-0.925015
-1.17991
-1.12896
-1.15907
-0.985483
-1.09975
-0.99705
0.371939
0.41862
0.495621
0.17142
0.303504
0.16151
0.541613
0.436366
0.423071
-0.682281
-0.468732
-0.60326
-0.189307
-0.325933
-0.408693
-0.17492
-0.243014
-0.0344224
0.332898
0.219479
0.123307
0.377915
0.302245
0.48755
-0.138054
0.0919334
-0.0357698
0.128739
0.0506255
0.268953
0.597546
0.54528
0.64597
0.640262
0.713168
0.69558
0.77265
0.438071
0.506929
0.785444
0.660145
0.736935
0.574513
0.630443
0.883339
0.914172
0.911813
0.849658
0.882236
0.83791
0.889831
0.907286
0.865586
0.750174
0.816882
0.822177
0.530578
0.435828
0.701402
0.627245
0.356121
0.505631
0.453085
0.850756
0.835292
0.68043
0.765412
0.707642
0.810498
0.777816
0.0501787
0.219897
0.143237
0.381771
0.298631
0.216259
0.453958
0.385333
0.528204
0.683549
0.615605
0.549115
0.310478
0.333491
0.207617
0.27041
0.0556915
0.168411
0.00558375
-0.124165
-0.060039
-0.271058
-0.170054
-0.34917
0.0245076
0.117343
-0.704745
-0.607796
-0.768048
-0.208403
-0.407854
-0.3093
-0.561033
-0.501506
-0.391136
0.0312251
-0.180441
-0.0792941
0.256573
-0.0361443
0.117168
0.157085
0.0263764
-0.860368
-0.674854
-0.604533
-0.636595
-0.816196
-0.462504
-0.254754
-0.59037
-0.802903
-0.168033
-0.366138
-0.786924
-0.578797
-0.580625
-0.182294
-0.371338
-0.150873
-0.0576878
-0.342039
-0.204474
-0.2464
-0.424447
-0.796509
-0.937237
-0.888707
-0.64976
-0.508544
-0.911943
-0.628624
-0.777661
-0.978369
-0.975023
-0.568699
-0.784402
-0.614973
0.914018
0.86872
0.902407
0.897931
0.845787
0.475496
0.528324
0.508966
0.633353
0.768751
0.546316
0.76304
0.662469
0.559682
0.540823
0.801422
0.679168
0.796707
0.20065
0.510363
0.358376
0.27328
0.340547
0.820174
0.701462
0.769134
0.739606
0.655285
0.519251
0.429155
0.472342
0.570355
0.624713
0.574955
0.604973
0.488355
-0.829377
-0.609448
-0.717289
-0.850632
-0.794216
-0.231858
-0.34352
-0.310085
-0.353006
-0.473048
-0.405229
-0.699409
-0.562764
-0.397541
-0.357158
-0.582662
-0.487756
-0.653875
-0.982051
-0.977898
-0.974471
-1.1627
-1.27441
-1.01003
-1.21036
-1.1365
-0.986513
-0.982182
-1.36708
-1.38201
-1.38009
-1.3544
-1.29242
-1.14425
-1.24224
-1.28644
SCALARS CoVolArea double 1
LOOKUP_TABLE default
0.166778
0.162308
0.162883
0.167638
0.162667
0.160883
0.158987
0.166159
0.159855
0.166717
0.165587
0.170291
0.217646
0.221002
0.216655
0.215147
0.216991
0.216618
0.222288
0.221325
0.222953
0.219873
0.213715
0.215218
0.219434
0.218054
0.218704
0.221301
0.217864
0.218122
0.215461
0.214445
0.221554
0.218779
0.221291
0.221827
0.222395
0.22197
0.219236
0.217345
0.219956
0.217915
0.211107
0.230009
0.208566
0.207302
0.230876
0.20915
0.208015
0.228332
0.207294
0.227722
0.207187
0.203586
0.226951
0.208396
0.228495
0.205304
0.23177
0.208344
0.206281
0.229961
0.211722
0.232984
0.209783
0.234093
0.208126
0.210923
0.233982
0.211021
0.23322
0.210186
0.23224
0.20809
0.230466
0.230793
0.20691
0.224943
0.203795
0.203768
0.22334
0.206035
0.224927
0.205395
0.227999
0.204281
0.209216
0.227768
0.20781
0.228436
0.208539
0.230627
0.207188
0.207329
0.229056
0.211915
0.230583
0.210451
0.228732
0.20586
0.20566
0.230765
0.207655
0.228962
0.205906
0.226659
0.205512
0.203054
0.226913
0.205282
0.226644
0.204187
0.212144
0.23102
0.210864
0.205364
0.231474
0.209007
0.210871
0.232375
0.210066
0.232659
0.208097
0.209167
0.231946
0.212048
0.231668
0.211466
0.231454
0.208456
0.209095
0.230607
0.210103
0.23003
0.207856
0.230842
0.209358
0.204938
0.229104
0.209709
0.230081
0.207119
0.231298
0.205416
0.232267
0.232307
0.207524
0.226355
0.228631
0.226456
0.231168
0.232426
0.231546
0.229425
0.229666
0.227893
0.226399
0.224993
0.227002
0.226839
0.22752
0.224996
0.202742
0.20968
0.202565
0.226554
0.210659
0.208457
0.207817
0.211447
0.228088
0.205535
0.21069
0.205482
0.22782
0.211562
0.20608
0.206973
0.211599
0.226741
0.19773
0.208649
0.197571
0.225768
0.210871
0.206128
0.206919
0.20904
0.22555
0.254017
0.252754
0.253585
0.208314
0.20315
0.224485
0.209114
0.209178
0.209471
0.224787
0.198512
0.204886
0.220338
0.205556
0.20139
0.209902
0.223971
0.201183
0.208895
0.200147
0.224663
0.20887
0.204965
0.202494
0.206167
0.22267
0.252068
0.25138
0.252414
0.210444
0.205229
0.228253
0.213732
0.208761
0.212092
0.228226
0.197633
0.207799
0.224579
0.212293
0.207753
0.210995
0.225886
0.20255
0.210773
0.202891
0.227215
0.211927
0.21098
0.207878
0.213439
0.228152
0.25388
0.255574
0.255845
0.210499
0.202811
0.232914
0.214158
0.210176
0.21389
0.230393
0.204865
0.212721
0.230129
0.214848
0.209794
0.215522
0.231136
0.20399
0.213184
0.203422
0.229972
0.213032
0.208093
0.208343
0.213235
0.230075
0.258827
0.257592
0.257827
0.210799
0.23072
0.213023
0.213112
0.226957
0.204035
0.211377
0.227736
0.21146
0.206426
0.211263
0.228388
0.209178
0.202644
0.227958
0.211668
0.207915
0.211113
0.227659
0.255751
0.254408
0.25595
0.206184
0.198091
0.22322
0.206276
0.204646
0.206789
0.222859
0.200771
0.207242
0.220804
0.206302
0.200416
0.206369
0.221238
0.201835
0.20796
0.202044
0.221233
0.207647
0.202416
0.203214
0.207864
0.222897
0.247002
0.247013
0.247288
0.20749
0.198843
0.227846
0.208785
0.204193
0.206818
0.226029
0.203387
0.209404
0.227117
0.210491
0.208601
0.208503
0.226536
0.199781
0.209391
0.20238
0.225493
0.211083
0.205411
0.207744
0.210174
0.227119
0.253727
0.252439
0.253006
0.208443
0.20224
0.227823
0.212182
0.209489
0.211895
0.228619
0.204446
0.209014
0.22624
0.209902
0.205646
0.209869
0.226277
0.204021
0.213535
0.204528
0.227783
0.212205
0.207716
0.207511
0.212207
0.227874
0.254255
0.253686
0.254593
0.210433
0.202659
0.228097
0.211527
0.205598
0.210111
0.225447
0.203014
0.210269
0.225106
0.211078
0.205687
0.21363
0.228361
0.197596
0.207085
0.197867
0.225934
0.20976
0.206736
0.205909
0.209964
0.226056
0.253653
0.253833
0.252032
0.207941
0.202857
0.224171
0.208753
0.204448
0.208448
0.223017
0.199829
0.205054
0.221189
0.206026
0.201264
0.210824
0.224846
0.197789
0.206425
0.199065
0.222354
0.207485
0.202283
0.203215
0.206737
0.223497
0.250631
0.249923
0.250044
0.204634
0.213082
0.203581
0.229297
0.213627
0.210863
0.210095
0.213086
0.22793
0.202489
0.208618
0.203041
0.226116
0.209323
0.205752
0.20715
0.211987
0.230405
0.20246
0.210594
0.201057
0.22732
0.211882
0.210118
0.206584
0.212882
0.228253
0.257781
0.25792
0.256316
0.211632
0.20288
0.230689
0.214353
0.209281
0.21319
0.229874
0.20479
0.211325
0.22926
0.213203
0.208956
0.213415
0.22899
0.205256
0.214646
0.204594
0.228731
0.212785
0.207839
0.208041
0.213369
0.22938
0.256493
0.255686
0.255892
0.210153
0.206441
0.229113
0.212614
0.207943
0.212325
0.22891
0.202236
0.211757
0.228272
0.211488
0.207968
0.211406
0.227746
0.200251
0.21049
0.199434
0.227759
0.212381
0.208268
0.208493
0.210662
0.227886
0.255598
0.255424
0.254692
0.211126
0.205145
0.226555
0.211221
0.209867
0.212944
0.228665
0.19808
0.207149
0.223185
0.207025
0.20259
0.211798
0.226427
0.202597
0.210469
0.2013
0.227294
0.209485
0.206872
0.203575
0.206837
0.225172
0.254814
0.254528
0.255795
0.211943
0.228298
0.21291
0.215263
0.230038
0.199343
0.208621
0.224693
0.208898
0.205193
0.212616
0.230063
0.21012
0.201668
0.226758
0.212301
0.207497
0.21387
0.22793
0.257413
0.257386
0.255919
0.208367
0.223852
0.207392
0.208934
0.224147
0.208904
0.22372
0.207175
0.208111
0.227555
0.206288
0.223677
0.207001
0.205509
0.221837
0.25349
0.252361
0.250782
0.214158
0.229244
0.212208
0.21333
0.227853
0.212273
0.228321
0.212902
0.2121
0.229814
0.20866
0.229104
0.212438
0.212768
0.226612
0.256559
0.25676
0.255762
0.208462
0.228976
0.210432
0.209955
0.225184
0.211821
0.227226
0.212529
0.212468
0.226927
0.209441
0.226265
0.209298
0.210219
0.22484
0.252781
0.251676
0.252866
0.207976
0.224762
0.206657
0.205549
0.222617
0.206552
0.224286
0.207223
0.207302
0.222408
0.207356
0.222608
0.208379
0.210172
0.225647
0.249631
0.249453
0.249318
0.207849
0.224673
0.207726
0.207359
0.22321
0.207802
0.223656
0.20713
0.209707
0.2259
0.206069
0.222603
0.207836
0.207165
0.221969
0.25141
0.249395
0.249682
SCALARS SignedDistance double 1
LOOKUP_TABLE default
2.96394
3.39515
2.54053
2.53874
2.85701
3.58415
3.16154
3.00632
3.35305
3.17397
3.10097
2.7013
2.74957
2.96067
3.21412
3.6604
2.99793
3.09165
2.56734
2.68133
2.60531
2.82939
3.45328
3.49985
3.08761
3.32924
2.90823
2.7748
3.55021
3.37473
3.57551
3.62194
2.59967
3.03328
2.62102
2.52127
2.8069
2.76496
2.79993
3.30197
2.78024
3.14592
2.89225
2.93027
3.13097
2.77612
2.80667
2.69464
3.37539
3.06352
3.25264
3.19495
3.01968
3.70571
3.49426
3.16907
3.30033
3.5255
2.93238
2.6884
3.16493
2.95484
2.71512
2.93859
3.12336
2.44912
2.71871
2.67399
2.46246
2.78128
2.51871
2.84651
2.8166
2.99043
2.89231
2.72937
2.7452
3.62582
3.62684
3.58799
3.60252
3.34035
3.46266
3.31877
3.21758
3.54173
2.86994
2.94712
3.11154
3.2512
2.99252
2.78248
2.82814
3.04056
2.89442
2.62192
2.79109
2.63015
3.09122
3.25763
3.22792
3.02337
3.27253
3.45176
3.3906
3.33158
3.40711
3.48411
3.34282
3.54591
3.58053
3.48868
2.49848
2.6052
2.56972
3.10898
2.8286
2.86756
2.73759
2.80601
2.9551
2.65795
2.68946
2.65722
2.58386
2.60886
2.66257
2.50601
2.71266
2.68654
2.63765
2.6705
3.0057
2.80402
2.95966
2.82498
2.59701
3.24928
3.03879
3.08058
3.08693
3.34373
2.58222
3.24957
2.87216
2.77576
3.12983
3.1654
3.24275
3.41095
2.54217
2.67842
2.85798
3.03682
2.8128
3.1379
3.51754
3.44069
3.66629
3.3507
3.38798
3.55365
2.98535
2.99974
3.09959
2.82366
2.89994
2.80432
3.15857
3.02146
3.06256
2.72373
2.71594
2.68038
2.87022
2.78078
2.85619
2.71642
2.73737
2.76582
3.47837
3.3136
3.42319
3.1337
3.21279
3.28564
3.09757
3.1468
3.00378
2.85618
2.91781
2.9836
3.12543
3.04839
3.28781
3.20931
2.9781
3.09004
3.0691
3.66952
3.56631
3.58123
3.62857
3.70112
3.46435
3.38059
3.27819
3.34277
3.45296
3.13827
3.22616
3.07399
3.58594
3.41147
3.48131
3.33535
3.39354
3.21898
2.93793
2.83396
2.92538
2.95786
2.59199
2.81027
2.74418
3.2655
3.14415
3.00535
3.04662
3.11499
3.0381
2.96354
2.84992
2.96084
3.10096
2.76806
2.84726
2.61378
3.09127
3.01635
2.98991
2.88772
2.91383
2.9165
2.67913
2.82537
2.47045
2.52951
2.63822
2.54836
2.49987
2.82357
2.65964
2.52555
2.54998
2.64339
2.53855
2.47289
2.95055
2.79957
2.97367
2.52308
2.62394
2.64777
2.75321
2.66807
2.57422
2.41567
2.45364
2.43728
2.88865
2.75595
2.80501
2.83814
2.75908
3.09322
2.99671
2.85997
2.9459
2.90281
2.85748
2.76946
2.69234
2.69898
2.71339
2.70337
2.77207
2.74974
2.7746
2.8261
2.78888
2.7441
3.60761
3.55532
3.66613
3.6561
3.56316
3.62776