# vtk DataFile Version 4.2
vtk output
ASCII
DATASET POLYDATA
POINTS 642 double
-2.14046 5.06638 -0.0318376
1.47818 5.0527 -0.0320998
-2.14622 -0.817386 -0.0285333
1.4941 -0.817303 -0.0277258
-0.325509 0.312276 2.91022
-0.330599 3.92791 2.88469
-0.324769 0.323966 -2.94761
-0.33159 3.94991 -2.9748
2.58711 2.12766 -1.82608
2.60076 2.12154 1.77782
-3.25574 2.13195 -1.84072
-3.26236 2.12808 1.78446
-3.12099 3.85707 1.03883
-2.05461 3.1926 2.75995
-1.38853 4.91013 1.69048
0.727185 4.89883 1.67968
-0.324741 5.5749 -0.0293178
0.734054 4.91855 -1.75296
-1.39907 4.94046 -1.76604
-2.0624 3.20275 -2.83316
-3.13177 3.8654 -1.10159
-3.77387 2.12881 -0.0278061
1.38333 3.18481 2.7356
2.44618 3.83748 1.0297
-2.04864 1.06231 2.75926
-0.328736 2.12385 3.40073
-3.11911 0.400668 -1.09531
-3.11692 0.400793 1.0381
-0.327988 2.13283 -3.46261
-2.03857 1.07145 -2.79456
2.43127 3.83489 -1.0818
1.38249 3.188 -2.79947
2.48052 0.395192 1.04265
1.3955 1.05849 2.75561
0.745485 -0.672423 1.70229
-1.39673 -0.674027 1.7006
-0.325046 -1.32365 -0.0285884
-1.3928 -0.664692 -1.75123
0.742768 -0.665757 -1.75515
1.39001 1.06303 -2.80421
2.47572 0.397977 -1.09742
3.13095 2.12062 -0.0280172
-2.71564 4.55681 0.520913
-2.35788 4.50114 1.43547
-1.82172 5.09754 0.85812
-2.75259 2.6821 2.36555
-2.70212 3.59861 2.00099
-3.30764 3.02584 1.46879
-0.873975 4.50581 2.38483
-1.79686 4.15326 2.34254
-1.21368 3.62488 2.93892
-0.889652 5.40235 0.871705
-1.27445 5.4406 -0.0303807
0.217014 4.49444 2.364
-0.326225 5.0418 1.76893
0.611614 5.44619 -0.0315962
0.231832 5.39661 0.8727
1.15929 5.09237 0.85995
-0.887265 5.40903 -0.937152
-1.8359 5.12395 -0.93477
1.16844 5.09669 -0.915517
0.230086 5.41199 -0.938089
-0.879462 4.53574 -2.47239
-0.333725 5.06317 -1.84623
0.220987 4.51378 -2.45054
-2.36808 4.51726 -1.50556
-2.72703 4.56928 -0.582989
-1.23131 3.63529 -3.0207
-1.80332 4.17196 -2.41923
-3.31377 3.03146 -1.53206
-2.71484 3.60768 -2.07045
-2.75552 2.68815 -2.42827
-3.26336 3.94575 -0.029265
-3.63603 2.13027 -0.967894
-3.60698 3.03792 -0.590032
-3.60952 3.03507 0.531721
-3.64748 2.12999 0.923191
1.68263 4.48055 1.4238
2.03325 4.52685 0.513496
0.560659 3.60706 2.91932
1.12478 4.13123 2.3147
2.63686 3.01609 1.46021
2.02638 3.58181 1.97843
2.08503 2.67453 2.35278
-1.23122 2.68837 3.24455
-0.331332 3.06044 3.2619
-2.75357 1.5798 2.362
-2.14216 2.12655 2.90031
-0.325039 1.18077 3.27642
-1.23059 1.56672 3.23164
-1.21667 0.625666 2.9532
-3.60254 1.22257 0.531834
-3.30271 1.2398 1.47192
-3.29048 1.23534 -1.51707
-3.6039 1.22302 -0.588009
-2.72409 -0.300321 0.52731
-3.26376 0.312588 -0.0290141
-2.72453 -0.300042 -0.582632
-2.13961 2.13188 -2.9653
-2.73481 1.58113 -2.40714
-0.327184 3.08386 -3.35674
-1.23884 2.6957 -3.31961
-1.21028 0.635638 -2.9893
-1.23 1.57506 -3.28854
-0.325057 1.1857 -3.31908
1.12975 4.15058 -2.39473
0.556609 3.62221 -2.98931
2.05291 4.54004 -0.582321
1.68852 4.48949 -1.48736
2.07402 2.67542 -2.4011
2.02267 3.58251 -2.03547
2.62876 3.01491 -1.51393
2.07875 -0.311678 0.524321
1.70866 -0.258227 1.44166
1.18255 -0.861419 0.864931
2.09238 1.56865 2.35873
2.05612 0.656975 2.00414
2.6598 1.22263 1.47136
0.225765 -0.266898 2.40447
1.14162 0.093637 2.34647
0.563776 0.629629 2.94568
0.235756 -1.15904 0.879534
0.629455 -1.1999 -0.0282625
-0.882773 -0.273809 2.39718
-0.325339 -0.817935 1.79268
-1.27186 -1.19917 -0.0277789
-0.888022 -1.16489 0.882955
-1.8288 -0.859057 0.872076
0.23639 -1.15864 -0.937329
1.17407 -0.85573 -0.92493
-1.83092 -0.859275 -0.921372
-0.888962 -1.15647 -0.933325
0.22434 -0.25772 -2.45156
-0.327371 -0.80818 -1.84025
-0.875031 -0.260007 -2.45429
1.70466 -0.253041 -1.49373
2.07685 -0.309407 -0.580751
0.565611 0.635847 -2.98712
1.14021 0.104322 -2.39782
2.6556 1.22479 -1.52483
2.04631 0.663169 -2.05224
2.08234 1.57218 -2.40576
2.62516 0.306294 -0.0283722
2.98709 2.1215 -0.966939
2.9681 1.21849 -0.589949
2.97018 1.21189 0.535044
2.98862 2.12663 0.919929
0.576044 1.56339 3.23969
1.4785 2.12802 2.88932
0.573373 2.68072 3.23268
-2.36333 -0.257248 1.44648
-1.7977 0.0924378 2.35071
-2.70689 0.655238 2.00689
-1.79059 0.102569 -2.39562
-2.35781 -0.250229 -1.4987
-2.69023 0.666731 -2.04341
1.46967 2.12841 -2.93267
0.570412 1.56964 -3.2807
0.568707 2.68574 -3.27107
2.94196 3.02516 0.529572
2.93023 3.02721 -0.583619
2.58596 3.9261 -0.0288242
-2.44251 4.83688 0.243923
-2.29834 4.85923 0.702454
-1.99613 5.10584 0.412516
-2.77007 4.2038 1.25167
-2.55931 4.55245 0.9921
-2.94728 4.22201 0.787922
-1.61829 5.0319 1.28528
-2.10884 4.82696 1.16207
-1.88818 4.73936 1.58504
-3.03454 2.40805 2.09657
-3.06531 2.86624 1.94588
-3.31525 2.58171 1.64329
-2.40042 3.41217 2.41285
-2.75393 3.14966 2.20556
-2.42462 2.94482 2.5876
-3.2426 3.45309 1.26507
-3.03314 3.32564 1.75501
-2.94665 3.74391 1.53725
-0.599372 4.23327 2.6628
-1.0641 4.09233 2.69756
-0.768229 3.79487 2.93914
-1.61138 4.56283 2.04218
-1.34489 4.35576 2.38706
-1.147 4.73696 2.0565
-1.64258 3.42399 2.87933
-1.52375 3.90529 2.66931
-1.94136 3.69317 2.5844
-2.56212 4.07407 1.74071
-2.2723 3.90053 2.2016
-2.10176 4.35673 1.91523
-1.55739 5.30778 0.42224
-1.72152 5.28558 -0.0344546
-1.14484 5.18546 1.29698
-1.36498 5.27702 0.875576
-0.805877 5.54009 -0.0292194
-1.08715 5.45666 0.425083
-0.607049 5.5299 0.427598
-0.054366 4.23276 2.65115
-0.326815 4.53346 2.4046
0.206115 5.01039 1.74897
-0.0493087 4.79415 2.08776
0.479783 4.71919 2.03903
-0.605019 4.80211 2.09575
-0.868902 5.01409 1.75352
1.06835 5.27109 -0.02983
0.903012 5.3115 0.421225
1.33702 5.09495 0.410903
-0.0461498 5.5346 0.425996
0.431191 5.4533 0.426456
0.145556 5.54607 -0.0318838
0.9581 5.0176 1.27592
0.706254 5.28072 0.875684
0.49216 5.18194 1.29428
-0.614508 5.26818 1.34122
-0.0437624 5.26128 1.34034
-0.331172 5.44984 0.884505
-1.56777 5.33136 -0.487532
-2.00767 5.12542 -0.488778
-0.607264 5.53331 -0.486857
-1.09053 5.46029 -0.490884
-1.63062 5.06232 -1.35679
-1.37732 5.30838 -0.949702
-1.15612 5.2215 -1.37205
1.33891 5.10875 -0.482711
0.907249 5.31048 -0.482017
0.492966 5.20361 -1.3624
0.711033 5.2847 -0.938302
0.961471 5.0384 -1.35302
0.432105 5.45966 -0.48646
-0.0458061 5.53851 -0.490852
-0.602624 4.26025 -2.75365
-0.333412 4.56429 -2.49517
-0.0535887 4.2517 -2.7437
-0.875713 5.04358 -1.83419
-0.60893 4.83521 -2.18123
-1.15387 4.76435 -2.13777
0.486683 4.73815 -2.12037
-0.0535351 4.81945 -2.16938
0.214675 5.02431 -1.81684
-0.331377 5.45537 -0.950994
-0.0420576 5.27746 -1.40623
-0.618132 5.27887 -1.4116
-2.30877 4.88192 -0.769737
-2.45879 4.84071 -0.314376
-1.90103 4.76359 -1.65721
-2.11986 4.84801 -1.23267
-2.95536 4.24051 -0.849533
-2.5748 4.56598 -1.05835
-2.782 4.21764 -1.31958
-0.786509 3.81092 -3.02999
-1.06537 4.11429 -2.78242
-1.95308 3.70538 -2.65783
-1.52686 3.92215 -2.74848
-1.65909 3.43078 -2.95379
-1.3532 4.3786 -2.4686
-1.61939 4.58379 -2.11848
-3.3159 2.57681 -1.70771
-3.0713 2.86916 -2.00657
-3.03938 2.40649 -2.15119
-2.95521 3.75308 -1.60405
-3.04431 3.33185 -1.8206
-3.2496 3.4593 -1.3291
-2.43308 2.95034 -2.65667
-2.76209 3.15826 -2.27373
-2.41276 3.42119 -2.48534
-2.11045 4.37295 -1.98795
-2.28559 3.91359 -2.27516
-2.57113 4.08648 -1.81051
-2.7538 4.58761 -0.0307467
-3.23152 3.9262 -0.5728
-3.02439 4.27689 -0.310782
-3.02046 4.26829 0.24883
-3.22806 3.92298 0.513691
-3.47197 2.13175 -1.41466
-3.51752 2.58665 -1.26656
-3.72918 2.58763 -0.31282
-3.65649 2.58883 -0.78835
-3.73642 2.12919 -0.502744
-3.49724 3.04516 -1.07301
-3.40868 3.4653 -0.857851
-3.52076 2.58479 1.20974
-3.487 2.1281 1.36269
-3.40366 3.46612 0.79678
-3.49119 3.04035 1.01052
-3.74512 2.13004 0.453792
-3.66249 2.58645 0.730455
-3.73655 2.5882 0.254624
-3.47522 3.50721 -0.315122
-3.65383 3.04989 -0.0284902
-3.47749 3.50716 0.254244
1.62469 4.83833 0.697293
1.78228 4.81928 0.24561
1.21871 4.71091 1.56603
1.43509 4.80702 1.15149
2.26014 4.20121 0.777057
1.88442 4.528 0.982007
2.08827 4.1792 1.23968
0.117711 3.78026 2.92449
0.398712 4.07349 2.6699
1.27508 3.67784 2.56484
0.854962 3.88597 2.64082
0.98568 3.40782 2.85868
0.682012 4.33295 2.36022
0.940268 4.54262 2.02365
2.64222 2.56935 1.6359
2.39615 2.8544 1.93224
2.36951 2.40049 2.07805
2.27243 3.72942 1.52645
2.35622 3.31219 1.73657
2.56922 3.44029 1.25726
1.75611 2.93596 2.56409
2.08309 3.13833 2.1912
1.72884 3.39764 2.38763
1.42879 4.33801 1.89978
1.60004 3.88037 2.17623
1.88797 4.05799 1.72844
-0.778863 3.35893 3.14435
-0.331622 3.50881 3.10684
-1.65765 2.95221 3.03953
-1.24017 3.16366 3.12539
-0.326663 2.60583 3.36005
-0.788057 2.88212 3.29232
-0.782803 2.41073 3.36287
-3.0327 1.84741 2.09553
-2.7822 2.12984 2.39916
-2.1176 1.58758 2.86146
-2.46618 1.85022 2.66256
-2.4179 1.30886 2.583
-2.46697 2.40961 2.66382
-2.12143 2.66583 2.86599
-0.325686 0.726489 3.12631
-0.781616 0.885903 3.15881
-0.769881 0.450787 2.961
-0.78527 1.84176 3.35864
-0.780928 1.37119 3.28899
-0.327623 1.64978 3.37399
-1.64681 0.828169 2.89021
-1.23691 1.08566 3.12182
-1.6551 1.30652 3.03355
-1.70672 2.40945 3.11372
-1.70148 1.8467 3.11319
-1.2477 2.12568 3.28814
-3.51825 1.67536 1.20924
-3.31216 1.67456 1.64221
-3.73357 1.67214 0.254258
-3.65767 1.67109 0.72993
-3.23843 0.810102 1.26852
-3.48336 1.21754 1.00944
-3.3988 0.794966 0.795852
-3.29729 1.67935 -1.69151
-3.50568 1.67646 -1.26
-3.39287 0.79815 -0.848972
-3.48041 1.22031 -1.06509
-3.22833 0.807073 -1.31603
-3.65453 1.6719 -0.786538
-3.72813 1.67043 -0.312069
-2.45233 -0.592713 0.247035
-2.75539 -0.332682 -0.0276758
-2.45217 -0.592093 -0.303726
-3.22125 0.335057 0.510671
-3.02456 -0.0177206 0.252067
-2.94701 0.0294259 0.791406
-2.94815 0.0251619 -0.846053
-3.02181 -0.0158965 -0.308358
-3.22919 0.33396 -0.571026
-3.64615 1.21033 -0.0282398
-3.4747 0.750113 -0.312553
-3.47052 0.75007 0.255399
-2.77998 2.13204 -2.45467
-3.02261 1.85342 -2.14581
-2.12244 2.67467 -2.93716
-2.46982 2.41331 -2.7236
-2.40836 1.322 -2.62535
-2.46247 1.85376 -2.7148
-2.11074 1.59328 -2.91772
-0.33223 3.52711 -3.19854
-0.782724 3.37284 -3.23524
-0.790222 2.41822 -3.43956
-0.786149 2.89446 -3.37764
-0.332644 2.60928 -3.44681
-1.24159 3.17599 -3.20806
-1.66608 2.95943 -3.11424
-0.766754 0.46207 -2.99659
[...]
POINT_DATA 642
SCALARS Mean_Curvature double 1
LOOKUP_TABLE default
0.636236
0.667598
0.636703
0.600429
0.645958
0.677078
0.605092
0.649769
0.567895
0.609453
0.651435
0.615037
0.588308
0.584474
0.566928
0.627618
0.554627
0.607418
0.577431
0.585172
0.608911
0.5681
0.539952
0.626942
0.516913
0.563385
0.61644
0.540944
0.599542
0.474714
0.469861
0.637498
0.581036
0.563974
0.594823
0.559485
0.534058
0.558554
0.589387
0.59901
0.573887
0.640364
0.574306
0.582811
0.563991
0.573506
0.579724
0.568503
0.562275
0.59328
0.568552
0.601991
0.523639
0.528038
0.517726
0.630186
0.546219
0.65322
0.473213
0.608361
0.545037
0.612463
0.598821
0.51353
0.498463
0.563284
0.599985
0.555917
0.587998
0.58666
0.594205
0.559411
0.565162
0.531859
0.542906
0.559877
0.608072
0.605107
0.447494
0.598177
0.524091
0.61365
0.522192
0.608192
0.587445
0.505243
0.596625
0.57117
0.521123
0.478168
0.598244
0.554467
0.568545
0.547968
0.599124
0.531626
0.588392
0.555041
0.600992
0.479851
0.623557
0.585392
0.586003
0.545777
0.576101
0.602407
0.499628
0.652524
0.542782
0.607588
0.525516
0.613914
0.588371
0.567178
0.590884
0.569408
0.586195
0.583785
0.571556
0.567122
0.578367
0.555846
0.622122
0.547694
0.609322
0.544593
0.597703
0.539144
0.604403
0.555743
0.616632
0.534385
0.576862
0.561557
0.595293
0.567686
0.587399
0.569838
0.576382
0.646172
0.560088
0.578403
0.578722
0.584536
0.581886
0.598082
0.56517
0.571696
0.551655
0.619147
0.620009
0.555967
0.649996
0.569381
0.607588
0.521347
0.534576
0.573521
0.385947
0.597327
0.529764
0.627918
0.520589
0.579658
0.520404
0.575248
0.577224
0.567921
0.569648
0.590618
0.565798
0.578208
0.597149
0.575353
0.575728
0.573386
0.58177
0.566039
0.58899
0.56949
0.564057
0.626739
0.566116
0.59712
0.556296
0.609203
0.572569
0.597082
0.567832
0.577014
0.56997
0.585978
0.514556
0.578883
0.488993
0.544989
0.565387
0.602371
0.552385
0.614824
0.575283
0.662933
0.50894
0.52346
0.557134
0.603718
0.533906
0.634225
0.531489
0.62669
0.527788
0.607488
0.537048
0.641264
0.546969
0.611507
0.55212
0.628071
0.644733
0.602272
0.546057
0.516627
0.571963
0.681015
0.643819
0.661373
0.563593
0.611711
0.547238
0.613986
0.550193
0.615812
0.596799
0.641206
0.609607
0.645098
0.625896
0.595522
0.547039
0.528843
0.549678
0.593294
0.549004
0.513132
0.621213
0.57784
0.587328
0.560224
0.615892
0.575421
0.594981
0.599525
0.60123
0.555151
0.570063
0.554557
0.568182
0.560783
0.623427
0.574812
0.607407
0.549766
0.615272
0.557746
0.599761
0.585834
0.596501
0.559974
0.592032
0.554794
0.561927
0.555278
0.581709
0.536206
0.591786
0.469286
0.605094
0.534321
0.547223
0.551231
0.640513
0.585183
0.609257
0.565559
0.598037
0.562677
0.598449
0.546933
0.599225
0.512814
0.602377
0.552092
0.50795
0.679451
0.427568
0.556868
0.509386
0.60789
0.492034
0.536325
0.493534
0.655206
0.52051
0.615284
0.510171
0.600857
0.518567
0.619255
0.516072
0.626899
0.506411
0.605183
0.538127
0.632936
0.537827
0.635247
0.523809
0.638305
0.572096
0.62884
0.566678
0.612243
0.500667
0.633603
0.577143
0.573186
0.595259
0.555197
0.590288
0.510683
0.584187
0.575901
0.633738
0.639561
0.598911
0.524618
0.515689
0.615045
0.672579
0.542039
0.503552
0.568552
0.582452
0.637132
0.619922
0.571103
0.602491
0.528505
0.566226
0.527911
0.599906
0.517959
0.582637
0.510946
0.592284
0.522544
0.592442
0.557357
0.603914
0.541363
0.623065
0.512129
0.63361
0.573839
0.616171
0.555221
0.612874
0.552267
0.583574
0.536308
0.614391
0.558698
0.589759
0.561963
0.500182
0.593264
0.62821
0.603894
0.594651
0.616527
0.626698
0.644314
0.614749
0.576544
0.561795
0.562946
0.580419
0.428902
0.538013
0.564808
0.458105
0.515396
0.595921
0.56489
0.610074
0.602095
0.492652
0.647432
0.532052
0.596738
0.508147
0.591797
0.517363
0.652184
0.533815
0.66684
0.53584
0.629598
0.549244
0.621317
0.546663
0.617818
0.526542
0.61371
0.471237
0.538739
0.526967
0.599194
0.497644
0.625656
0.544637
0.625272
0.600703
0.556798
0.601669
0.572415
0.596776
0.569917
0.583106
0.554771
0.585158
0.577548
0.570419
0.634168
0.574666
0.611924
0.528716
0.587798
0.587583
0.582491
0.601619
0.54992
0.566232
0.561559
0.588991
0.549041
0.559705
0.570023
0.565411
0.576246
0.582601
0.56078
0.605869
0.558559
0.605514
0.541065
0.555545
0.554935
0.568033
0.566485
0.600407
0.525033
0.601755
0.550828
0.597406
0.533986
0.611179
0.522547
0.593588
0.52639
0.60742
0.570395
0.621038
0.554882
0.625751
0.529367
0.599242
0.548994
0.611249
0.573056
0.578579
0.52514
0.582155
0.539359
0.596777
0.544475
0.610461
0.544875
0.588299
0.541021
0.616587
0.565211
0.573942
0.565055
0.587805
0.566606
0.581833
0.574578
0.599485
0.567953
0.603961
0.556172
0.615958
0.532705
0.604134
0.567154
0.574384
0.560907
0.582506
0.575843
0.58471
0.575653
0.572545
0.585788
0.571245
0.583865
0.588578
0.575161
0.555211
0.623365
0.531281
0.592448
0.561995
0.58092
0.53286
0.613155
0.556874
0.564739
0.560023
0.576036
0.588787
0.574452
0.580825
0.568087
0.58145
0.58109
0.592981
0.635684
0.583591
0.603214
0.588351
0.580663
0.577972
0.618398
0.573205
0.580876
0.573173
0.62658
0.584161
0.576001
0.579153
0.565628
0.554853
0.580192
0.557267
0.585455
0.54555
0.5883
0.555452
0.615747
0.537427
0.592857
0.485282
0.593588
0.528462
0.606597
0.540598
0.597557
0.55526
0.604227
0.61136
0.547143
0.613551
0.542385
0.631815
0.54341
0.611099
0.561151
0.624052
0.56853
0.595758
0.566194
0.528168
0.463475
0.65393
0.552209
0.60444
0.543612
0.605271
0.562709
0.59741
0.58847
0.641511
0.553371
0.606231
0.5541
0.617603
0.546175
0.569646
0.521701
0.582195
0.539409
0.597845
0.550962
0.617136
0.577517
0.545826
0.593411
0.545345
0.610849
0.484926
0.581878
0.513661
0.584301
0.539681
0.579246
0.610136
0.599932
0.575039
0.713244
0.466383
0.58893
0.533787
0.583612
0.514725
0.567054
0.504642
0.611778
0.488008
0.597273
0.550406
0.631744
0.497527
0.566367
0.517175
0.630881
0.480347
0.547291
0.499848
0.611497
0.529014
0.618152
SCALARS Redistribution_Potential double 1
LOOKUP_TABLE default
-1.56012e-09
-1.37879
0.945285
0.489025
0.271624
-1.01191
-0.0162996
-0.241472
-0.930131
-0.856289
0.556663
0.474431
0.27068
-0.142327
-0.579377
-1.38723
-0.702789
-0.82144
0.119687
0.401519
0.567135
0.675034
-1.19729
-1.48782
0.418896
-0.456515
0.751632
0.867847
-0.261622
0.308283
-1.33999
-0.937743
0.0387932
-0.276378
0.576697
0.900797
0.84289
0.641326
0.324373
-0.489851
-0.0971625
-0.826815
0.134457
-0.112264
-0.299535
0.212193
0.079537
0.382791
-0.831672
-0.383357
-0.575252
-0.678354
-0.335108
-1.25115
-1.02093
-1.07096
-1.08874
-1.4152
-0.258424
0.108966
-1.10638
-0.738697
-0.00899096
-0.32609
-0.512651
0.429192
0.347532
0.15208
0.351151
0.621067
0.568433
0.51701
0.446439
0.650441
0.623437
0.541688
0.611279
-1.54496
-1.51393
-1.1969
-1.4126
-1.23949
-1.38942
-1.08723
-0.343666
-0.771338
0.451609
0.126552
-0.0870262
0.0131203
0.351602
0.769255
0.683934
0.622469
0.73242
0.962584
0.871804
0.888499
0.328207
0.455947
-0.238772
0.10567
0.125103
0.0419248
-0.205016
-0.910162
-0.62597
-1.42119
-1.18568
-1.0461
-1.17231
-1.20808
0.326099
0.352922
0.587683
-0.568361
-0.0878154
-0.378794
0.457987
0.216877
0.00234943
0.793184
0.687118
0.652117
0.767427
0.937613
0.937559
0.99167
0.641511
0.452466
0.844926
0.79808
0.144941
0.500682
0.328149
0.145283
0.244917
-0.255561
-0.0706331
-0.524471
-0.308518
-0.716925
0.0434115
-0.879916
-0.412075
-0.355067
-0.820427
-0.417737
-0.778745
-0.882367
0.932864
0.719534
0.720597
0.443313
0.732191
0.554251
-0.790498
-0.486099
-0.576357
-1.22091
-1.20136
-1.46335
0.0679486
-0.0738119
-0.148129
0.0948941
0.00936311
0.206426
-0.44145
-0.213938
-0.341404
0.356222
0.29901
0.430014
-0.030151
0.144758
0.0451692
0.330682
0.240021
0.182037
-0.934132
-0.721405
-0.798394
-0.491932
-0.609617
-0.715284
-0.354174
-0.487604
-0.265116
-0.00850518
-0.133537
-0.242345
-0.325055
-0.164554
-0.633766
-0.489977
-0.518102
-0.516383
-0.691786
-1.15034
-1.06205
-1.23158
-1.15508
-1.33297
-0.942975
-0.813896
-1.22997
-1.26214
-1.38932
-0.910728
-1.08275
-0.892763
-1.39758
-1.27313
-1.25313
-0.8606
-1.06558
-0.890377
-0.11058
0.0603485
-0.485006
-0.291997
0.129545
-0.0682322
-0.0576652
-1.25291
-1.08731
-0.775122
-0.928509
-0.969557
-0.903879
-0.718281
-0.115964
-0.25875
-0.372234
-0.0911965
-0.161453
0.0732545
-0.66595
-0.416176
-0.579175
-0.496756
-0.525899
-0.272232
0.242809
0.189908
0.293977
0.28693
0.476182
0.403528
0.514203
-0.0284437
0.08765
0.399574
0.263034
0.294884
0.188998
0.261342
0.59422
0.585661
0.538419
0.592879
0.603633
0.615205
0.469687
0.557305
0.503078
0.422359
0.489254
0.534537
0.244374
0.520704
0.399213
0.30706
0.360445
0.618296
0.623727
0.647387
0.642034
0.671324
0.624716
0.604048
0.508107
0.556194
0.420889
0.468403
0.650936
0.577166
0.617744
0.569439
0.593383
0.503947
-1.48922
-1.4855
-1.46577
-1.50326
-1.52325
-1.55105
-1.525
-1.11811
-1.24598
-1.35093
-1.31719
-1.22581
-1.35446
-1.4412
-1.0482
-1.17507
-0.973835
-1.46178
-1.32863
-1.38613
-1.15148
-1.26653
-1.30732
-1.5052
-1.42401
-1.51102
-0.696966
-0.910691
-0.247271
-0.469277
-0.621547
-0.56891
-0.417652
0.466434
0.326624
0.270012
0.295786
0.442726
0.16401
-0.00964749
0.095321
0.1342
0.313386
-0.22099
-0.0489198
-0.28103
0.383687
0.179033
0.225569
-0.0920472
0.0645356
-0.173098
0.64388
0.585778
0.714232
0.695723
0.779326
0.739274
0.812604
0.583151
0.633375
0.754303
0.680968
0.685326
0.678078
0.714067
0.964451
0.94043
0.925339
0.891395
0.918629
0.926183
0.822507
0.891038
0.826147
0.776306
0.807852
0.838872
0.471288
0.512988
0.372233
0.432006
0.382988
0.388571
0.293037
-0.230567
-0.0349165
-0.0819163
-0.0561216
-0.254259
0.135847
0.268617
0.0494869
-0.0402016
-0.125652
0.186812
0.0652799
0.214152
-0.238716
-0.0888703
-0.107093
0.240399
0.0667182
0.195201
-0.57383
-0.44222
-0.860775
-0.728357
-0.796097
-0.77752
-0.928069
-1.41071
-1.28433
-1.31704
-1.30663
-1.40436
-1.1529
-1.02902
-1.00811
-1.13902
-1.0742
-1.0731
-1.11856
-1.01435
-1.28276
-1.2272
-1.26423
-1.05699
-1.19014
-1.07732
0.420944
0.469686
0.550803
0.209061
0.349476
0.200551
0.595525
0.486308
0.470486
-0.714278
-0.475646
-0.620025
-0.182753
-0.3265
-0.421819
-0.156088
-0.230254
-0.0087068
0.370023
0.245606
0.141191
0.418716
0.337248
0.533303
-0.13698
0.11015
-0.0224212
0.160839
0.0748485
0.305509
0.65518
0.599932
0.703
0.697329
0.7694
0.753444
0.83042
0.478063
0.55448
0.847508
0.716354
0.794518
0.626505
0.684279
0.949985
0.981448
0.98032
0.91097
0.947783
0.89928
0.958755
0.976359
0.934459
0.809293
0.881954
0.884062
0.582582
0.484538
0.755486
0.679998
0.395359
0.552565
0.496426
0.914989
0.899704
0.730455
0.823158
0.758308
0.87216
0.835868
0.0565058
0.238453
0.155649
0.416758
0.326419
0.24071
0.490094
0.416661
0.570298
0.735873
0.66466
0.593259
0.35412
0.380025
0.237884
0.307212
0.0862702
0.203273
0.031204
-0.13647
-0.0606294
-0.283855
-0.176441
-0.374444
0.0354769
0.137252
-0.740591
-0.638564
-0.823332
-0.199449
-0.414469
-0.303309
-0.601471
-0.52625
-0.410497
0.0469782
-0.180859
-0.0668923
0.301513
-0.00907705
0.154591
0.196551
0.0597558
-0.912356
-0.699102
-0.612052
-0.65049
-0.849236
-0.463785
-0.241675
-0.600988
-0.839805
-0.146559
-0.359132
-0.814813
-0.587036
-0.585079
-0.163033
-0.360857
-0.129131
-0.0543246
-0.357291
-0.210153
-0.260252
-0.453627
-0.841924
-1.00529
-0.945891
-0.685024
-0.534958
-0.994936
-0.678482
-0.845223
-1.05942
-1.05085
-0.602672
-0.839908
-0.656114
0.982421
0.934927
0.971613
0.963664
0.907456
0.515983
0.572429
0.550913
0.685285
0.82816
0.583909
0.815963
0.7064
0.597223
0.585131
0.862281
0.734602
0.856444
0.212392
0.544024
0.383096
0.28305
0.349105
0.880348
0.750207
0.824319
0.793995
0.699628
0.533533
0.432366
0.480235
0.589967
0.657505
0.609602
0.641582
0.508849
-0.899983
-0.662804
-0.780164
-0.930523
-0.877962
-0.258209
-0.391406
-0.34966
-0.388066
-0.515906
-0.433687
-0.774677
-0.621381
-0.435114
-0.414579
-0.643447
-0.551695
-0.729511
-1.03908
-1.0301
-1.02843
-1.23595
-1.36364
-1.07789
-1.31083
-1.22058
-1.04912
-1.03812
-1.47743
-1.4869
-1.49811
-1.46584
-1.40157
-1.21661
-1.33818
-1.37487
SCALARS CoVolArea double 1
LOOKUP_TABLE default
0.182155
0.179921
0.180018
0.182719
0.179949
0.178772
0.177421
0.18225
0.177683
0.182208
0.181418
0.184329
0.237181
0.239246
0.236479
0.235615
0.236758
0.236702
0.240239
0.239429
0.240501
0.238402
0.23458
0.235793
0.238072
0.237211
0.237983
0.239143
0.237281
0.23663
0.235162
0.235135
0.239563
0.237692
0.239318
0.239546
0.239652
0.239624
0.238151
0.237079
0.238601
0.237776
0.227552
0.249665
0.225879
0.225557
0.250123
0.226613
0.225971
0.24874
0.225678
0.248285
0.225112
0.222585
0.247598
0.226371
0.248806
0.224518
0.25028
0.226603
0.224835
0.249768
0.228536
0.251055
0.226601
0.251937
0.226176
0.227719
0.251907
0.228031
0.251631
0.227347
0.25062
0.225538
0.2496
0.249962
0.225335
0.246504
0.222511
0.223123
0.245232
0.22471
0.24632
0.224519
0.248719
0.223207
0.226492
0.248161
0.225666
0.247914
0.226476
0.249617
0.225202
0.225077
0.24894
0.22815
0.249875
0.227288
0.249097
0.224098
0.225372
0.250492
0.225635
0.248538
0.224287
0.247771
0.224112
0.223224
0.247804
0.224098
0.247148
0.223754
0.228439
0.250073
0.22761
0.224217
0.250639
0.226752
0.227636
0.250904
0.227023
0.250851
0.226002
0.226499
0.250731
0.228299
0.250603
0.227932
0.250328
0.22605
0.226704
0.249767
0.227172
0.249538
0.226027
0.250011
0.226822
0.223997
0.249039
0.227348
0.249627
0.22529
0.250301
0.224424
0.251223
0.251192
0.225571
0.247377
0.248675
0.24761
0.250367
0.251076
0.25068
0.24934
0.249569
0.247932
0.247098
0.24627
0.246823
0.247724
0.247783
0.246507
0.22057
0.227598
0.22034
0.246187
0.228865
0.225437
0.224861
0.229375
0.247216
0.222626
0.22851
0.222579
0.246978
0.229482
0.224106
0.224606
0.229493
0.246298
0.217988
0.227441
0.217922
0.245927
0.229245
0.224254
0.22469
0.228107
0.245627
0.275696
0.274927
0.275543
0.226511
0.221064
0.244656
0.227531
0.225626
0.227924
0.245269
0.218216
0.224657
0.242475
0.225314
0.220925
0.228249
0.244564
0.220157
0.22774
0.219499
0.245312
0.228069
0.223683
0.221776
0.226474
0.243965
0.274621
0.274227
0.275069
0.228631
0.222769
0.246852
0.230461
0.226014
0.230134
0.247482
0.21815
0.226728
0.245175
0.22995
0.225331
0.229234
0.246008
0.221169
0.228721
0.221161
0.246826
0.229907
0.22733
0.224808
0.230278
0.246881
0.275362
0.276357
0.276421
0.228593
0.221011
0.250012
0.231088
0.22677
0.231008
0.248586
0.222466
0.229835
0.248302
0.231326
0.226242
0.231852
0.248932
0.221818
0.230193
0.221511
0.248276
0.230478
0.22544
0.225588
0.230626
0.248494
0.278436
0.277835
0.277836
0.228347
0.248588
0.230259
0.230124
0.246377
0.221229
0.228841
0.246611
0.229105
0.223928
0.229425
0.247256
0.227558
0.220892
0.247072
0.229408
0.225257
0.229154
0.246859
0.276288
0.275659
0.27662
0.225454
0.218234
0.243783
0.225887
0.222619
0.226034
0.243971
0.21946
0.225713
0.242674
0.22587
0.220792
0.225518
0.242717
0.220108
0.226826
0.220338
0.243134
0.22713
0.222047
0.222265
0.227249
0.243737
0.271472
0.271316
0.271837
0.226631
0.218441
0.247118
0.227991
0.222531
0.22664
0.245939
0.221302
0.227792
0.246142
0.228702
0.225224
0.227634
0.24619
0.219371
0.227821
0.220935
0.245168
0.228638
0.223452
0.225245
0.228298
0.245994
0.275639
0.27443
0.275133
0.227035
0.220567
0.246872
0.229663
0.225871
0.229334
0.247099
0.221414
0.227024
0.245861
0.228252
0.223473
0.228288
0.245919
0.221761
0.230066
0.221967
0.24662
0.229737
0.224908
0.225196
0.229879
0.247172
0.275593
0.275336
0.275649
0.228265
0.220609
0.247274
0.229549
0.2231
0.228499
0.245217
0.221633
0.228606
0.245991
0.229871
0.224502
0.230963
0.247391
0.217747
0.225973
0.217821
0.244965
0.227688
0.224025
0.223394
0.227916
0.245936
0.275716
0.275929
0.274465
0.226417
0.221294
0.244869
0.227428
0.222683
0.22719
0.244059
0.219765
0.22513
0.242893
0.226143
0.221219
0.228901
0.245437
0.217532
0.225774
0.218514
0.243591
0.226627
0.221559
0.221916
0.226193
0.24373
0.273985
0.273161
0.273495
0.222097
0.229893
0.221463
0.247836
0.230645
0.226962
0.226525
0.230294
0.246964
0.220717
0.227309
0.221307
0.245921
0.228158
0.223692
0.224808
0.2299
0.248653
0.220802
0.228284
0.219916
0.246514
0.229497
0.226377
0.224203
0.23011
0.247114
0.277959
0.278075
0.276926
0.229072
0.221044
0.248572
0.230987
0.225767
0.230245
0.247805
0.222178
0.228929
0.247762
0.230446
0.225626
0.230592
0.247505
0.222452
0.2306
0.222057
0.247172
0.230008
0.224942
0.225356
0.230496
0.248063
0.276877
0.276671
0.276474
0.228046
0.223083
0.24751
0.229902
0.225166
0.229747
0.247593
0.220685
0.229276
0.247069
0.22937
0.225035
0.229353
0.24669
0.219333
0.228327
0.218966
0.246849
0.229899
0.225427
0.225677
0.228964
0.247084
0.276432
0.276447
0.2759
0.228704
0.222401
0.246134
0.229132
0.226432
0.230284
0.247528
0.217999
0.226255
0.244166
0.226671
0.221989
0.229632
0.246116
0.220842
0.228562
0.219744
0.246744
0.228414
0.224781
0.222454
0.226652
0.245328
0.276066
0.275912
0.276714
0.229269
0.24725
0.230262
0.231659
0.248309
0.218747
0.227417
0.245593
0.22813
0.223828
0.230394
0.248444
0.228386
0.220288
0.246349
0.230086
0.225025
0.231177
0.247501
0.277779
0.277989
0.27681
0.22692
0.244518
0.226685
0.2277
0.244754
0.227375
0.244225
0.226794
0.227175
0.246763
0.225292
0.24439
0.226253
0.225723
0.243262
0.275543
0.274714
0.273937
0.230572
0.24775
0.229948
0.230524
0.247031
0.22935
0.247646
0.230421
0.229677
0.247988
0.226985
0.247677
0.229661
0.229849
0.246437
0.27707
0.277666
0.276842
0.227327
0.247547
0.228942
0.228658
0.245301
0.229108
0.247052
0.230148
0.230039
0.246228
0.2272
0.245443
0.227436
0.228195
0.245174
0.274842
0.27439
0.2749
0.226554
0.245128
0.226187
0.225479
0.243457
0.225876
0.244115
0.226465
0.226741
0.243737
0.226986
0.243324
0.227253
0.228919
0.245019
0.27292
0.27199
0.272184
0.226456
0.245146
0.226767
0.226796
0.24432
0.226777
0.243792
0.226701
0.228203
0.245895
0.225424
0.243872
0.226512
0.226558
0.24284
0.274252
0.272639
0.273387
SCALARS SignedDistance double 1
LOOKUP_TABLE default
3.09395
3.53938
2.67189
2.66884
2.9864
3.73291
3.30866
3.12523
3.50722
3.31941
3.23376
2.83996
2.88771
3.09876
3.35507
3.81517
3.13742
3.23438
2.6865
2.80098
2.72958
2.96673
3.61248
3.6585
3.21644
3.47934
3.03988
2.90773
3.68591
3.52742
3.7368
3.77052
2.72819
3.17672
2.75398
2.65162
2.94274
2.90285
2.93658
3.44991
2.90929
3.27458
3.02842
3.06939
3.27124
2.91376
2.94452
2.83265
3.51851
3.20156
3.38819
3.33763
3.1599
3.86945
3.64329
3.30845
3.44348
3.67383
3.06987
2.80396
3.30815
3.09483
2.82936
3.07514
3.26291
2.57551
2.84094
2.79235
2.58774
2.90157
2.64298
2.97142
2.95232
3.13163
3.02759
2.86709
2.88087
3.78878
3.78884
3.75094
3.76946
3.49296
3.62305
3.47125
3.35288
3.69608
3.00793
3.08639
3.25621
3.39706
3.11698
2.92466
2.96666
3.18738
3.03539
2.75305
2.92424
2.76314
3.22022
3.39989
3.34226
3.14055
3.41874
3.59169
3.54358
3.47948
3.55071
3.63238
3.49276
3.70588
3.73828
3.64641
2.62775
2.73591
2.69989
3.25149
2.9575
2.99678
2.86949
2.94057
3.094
2.78908
2.81748
2.78929
2.71577
2.73822
2.78986
2.63567
2.84677
2.81921
2.76946
2.80631
3.1438
2.94133
3.09487
2.95815
2.72677
3.39827
3.17922
3.20979
3.22394
3.49649
2.70993
3.3909
2.99556
2.89975
3.26439
3.31183
3.39266
3.56358
2.67235
2.80676
2.97976
3.1749
2.9443
3.284
3.67699
3.59912
3.81914
3.50131
3.54355
3.71249
3.12074
3.13849
3.23901
2.96197
3.03749
2.94257
3.30082
3.16128
3.20205
2.86081
2.85349
2.81798
3.00768
2.91839
2.99458
2.85459
2.87452
2.9042
3.62288
3.4538
3.56279
3.27373
3.3519
3.42839
3.23191
3.28517
3.14167
2.99494
3.05581
3.12273
3.26898
3.18045
3.4322
3.35434
3.11925
3.23205
3.2101
3.82493
3.71647
3.73156
3.78189
3.86308
3.6117
3.52549
3.41812
3.48451
3.60032
3.27778
3.36665
3.21238
3.7388
3.55603
3.62869
3.47979
3.53948
3.36006
3.05539
2.95496
3.06645
3.09687
2.71025
2.92262
2.85945
3.40638
3.28341
3.14612
3.18858
3.25809
3.1764
3.10165
2.96408
3.0814
3.22551
2.88599
2.96469
2.73133
3.23454
3.15473
3.13175
3.02707
3.05496
3.05037
2.7971
2.95208
2.59455
2.6517
2.75981
2.66788
2.62492
2.93939
2.77588
2.65059
2.6742
2.76633
2.66089
2.5974
3.07342
2.92088
3.09952
2.64873
2.74311
2.77211
2.87503
2.78723
2.69547
2.54333
2.57926
2.56446
3.02031
2.8846
2.93373
2.97458
2.89666
3.2328
3.12495
2.99925
3.08444
3.04389
2.97999
2.89329
2.82901
2.83643
2.85141
2.84077
2.90958
2.8853
2.91106
2.96239
2.92586
2.88245
3.76157
3.70534
3.83037
3.81502
3.72661
3.79073
3.71917