# vtk DataFile Version 4.2
vtk output
ASCII
DATASET POLYDATA
POINTS 642 double
-1.11568 3.16648 -0.246989
-0.106248 2.9514 -0.209716
-1.29312 0.539931 -0.00609631
0.674676 0.553826 0.00763665
-0.36486 1.20761 1.0436
-0.587083 2.51491 0.660879
-0.344571 1.37025 -0.85685
-0.722232 2.85752 -0.900727
0.571243 1.91601 -0.443376
0.728288 1.86769 0.548399
-1.3472 2.32424 -0.628564
-1.80425 2.13928 0.856047
-1.67927 2.90722 0.445099
-1.17474 2.43742 0.835137
-0.892172 2.89797 0.39296
-0.238282 2.82668 0.224109
-0.460553 3.34739 -0.210797
-0.165428 3.21295 -0.660087
-1.02807 3.14928 -0.821954
-1.14781 2.84022 -1.04118
-1.60294 3.0262 -0.629585
-1.85014 2.15768 0.0205701
0.153017 2.21708 0.693622
0.400857 2.39629 0.240307
-1.03277 1.61549 0.869132
-0.416269 1.92127 0.916609
-1.45736 1.31445 -0.360798
-1.58186 1.2311 0.477747
-0.551522 2.28466 -0.893451
-0.91898 1.82817 -0.767554
0.234898 2.50367 -0.28529
-0.0739864 2.49715 -0.683923
1.06559 1.1922 0.466173
0.339408 1.5157 0.961859
0.206689 0.685118 0.800683
-0.934552 0.659168 0.824667
-0.351199 0.554596 -0.000777696
-0.813881 0.787678 -0.669679
0.148912 0.818196 -0.674791
0.189126 1.59886 -0.722748
0.819408 1.23284 -0.26725
0.871463 1.82298 0.0248556
-1.34559 2.98567 0.0855724
-1.28007 2.95908 0.485331
-0.988278 3.06128 0.116781
-1.49012 2.36065 0.961727
-1.46465 2.72751 0.812896
-1.8339 2.56516 0.705587
-0.763894 2.71351 0.555914
-1.08248 2.70966 0.66295
-0.875142 2.4847 0.732664
-0.645498 3.13986 0.0304274
-0.791157 3.31702 -0.218093
-0.37461 2.67987 0.474588
-0.541665 2.91383 0.28051
-0.291308 3.16959 -0.238567
-0.37627 3.07309 -0.0180811
-0.171753 2.92955 -0.00448859
-0.662027 3.33215 -0.509435
-1.08385 3.20223 -0.633424
-0.156969 3.06491 -0.385189
-0.287751 3.40299 -0.473574
-0.873652 3.00553 -0.892014
-0.549331 3.2039 -0.675051
-0.461533 2.99413 -0.773312
-1.36781 3.22162 -0.874631
-1.38997 3.17012 -0.442841
-0.954354 2.8673 -0.978913
-1.18542 3.11964 -1.10873
-1.46641 2.72028 -0.688003
-1.43838 2.99336 -1.03677
-1.25507 2.67835 -0.922519
-1.60877 2.90851 -0.0737811
-1.59142 2.20931 -0.308943
-1.62606 2.5879 -0.242886
-1.85049 2.56545 0.254289
-1.85036 2.14952 0.460943
0.0946514 2.60908 0.244179
0.107178 2.68385 -0.00102
-0.165659 2.34375 0.68551
-0.00670548 2.50545 0.490451
0.617199 2.18434 0.410402
0.337756 2.33708 0.481382
0.464723 2.07599 0.677049
-0.854401 2.2023 0.832125
-0.523506 2.22674 0.803993
-1.39763 1.94905 0.818264
-1.16756 2.11984 0.879847
-0.358788 1.56411 1.04482
-0.739887 1.81165 0.9029
-0.666788 1.34735 0.933141
-1.84956 1.69068 0.261279
-1.64133 1.76951 0.633491
-1.43758 1.78305 -0.450264
-1.6858 1.72166 -0.187145
-1.35971 0.854004 0.239679
-1.62909 1.20875 0.0104105
-1.31767 0.878364 -0.146297
-1.01515 2.45058 -0.902784
-1.15069 2.12238 -0.73026
-0.689487 2.66992 -0.919917
-0.864904 2.62634 -0.955117
-0.613743 1.52884 -0.831077
-0.733502 2.13157 -0.880893
-0.390998 1.76001 -0.867989
-0.191055 2.85602 -0.660221
-0.399416 2.74472 -0.818305
0.0350447 2.7721 -0.265879
-0.0582572 2.85343 -0.451615
0.241593 2.15822 -0.556233
0.0974001 2.525 -0.501498
0.439184 2.20017 -0.342125
0.993446 0.719347 0.253477
0.721791 0.860957 0.632009
0.506995 0.55432 0.399714
0.594605 1.69148 0.776421
0.686473 1.32414 0.699186
0.871767 1.49239 0.470393
-0.131195 0.934785 1.04344
0.297813 1.08818 0.912437
-0.0208149 1.34226 1.06127
-0.0293853 0.5661 0.443788
0.21498 0.554675 0.0039825
-0.59365 0.887506 0.939519
-0.345671 0.554602 0.917963
-0.858746 0.554302 0.00759812
-0.648257 0.554649 0.455906
-1.14732 0.554717 0.487487
-0.0575622 0.554708 -0.417181
0.432784 0.645546 -0.385944
-1.08506 0.637352 -0.353321
-0.645811 0.554652 -0.417638
-0.140521 1.08939 -0.837355
-0.364434 0.765153 -0.68956
-0.532847 1.10057 -0.777974
0.547428 0.994078 -0.473132
0.878415 0.836285 -0.216838
-0.0514377 1.47163 -0.854404
0.21466 1.21956 -0.713426
0.740557 1.54109 -0.36301
0.538115 1.39762 -0.571359
0.412043 1.74016 -0.609544
1.11863 1.148 0.0135754
0.787679 1.8577 -0.219109
0.874591 1.49774 -0.102321
0.916992 1.45291 0.19475
0.863961 1.85075 0.314335
-0.0252392 1.71917 1.04484
0.274883 1.90193 0.86843
-0.112428 2.04991 0.838788
-1.23134 0.835752 0.639007
-0.939641 1.07086 0.790659
-1.31869 1.39385 0.768559
-0.817802 1.24542 -0.65162
-1.08852 1.04676 -0.416129
-1.17685 1.53252 -0.551386
0.0878916 2.01719 -0.706193
-0.157378 1.87285 -0.834492
-0.313151 2.38937 -0.83241
0.653667 2.14018 0.158491
0.621083 2.17645 -0.128843
0.353394 2.4468 -0.0321921
-1.21659 3.09595 -0.119192
-1.19354 3.00826 0.138615
-1.05496 3.14326 -0.0742526
-1.48809 2.95867 0.489678
-1.32484 2.96398 0.314981
-1.54076 2.95837 0.295337
-0.939614 2.98008 0.267872
-1.14465 2.96549 0.322125
-1.07558 2.9047 0.442715
-1.66295 2.2665 0.950625
-1.69022 2.48058 0.911343
-1.8513 2.36174 0.79812
-1.30712 2.56139 0.822798
-1.50641 2.54941 0.912188
-1.3256 2.40169 0.902377
-1.77245 2.75272 0.584196
-1.67558 2.68391 0.811557
-1.64391 2.86031 0.695504
-0.662256 2.60325 0.614661
-0.856943 2.61226 0.655484
-0.707379 2.49836 0.692424
-1.00837 2.81056 0.546313
-0.932402 2.71129 0.606515
-0.855339 2.82383 0.477146
-1.01376 2.46134 0.7736
-1.00126 2.59571 0.70265
-1.13092 2.57921 0.749578
-1.4085 2.87731 0.671377
-1.25532 2.71521 0.727956
-1.18457 2.8688 0.633394
-0.885431 3.26131 -0.037067
-0.945592 3.24746 -0.247511
-0.766285 3.01057 0.214816
-0.807699 3.11298 0.0882939
-0.614016 3.38454 -0.187979
-0.684682 3.25603 -0.0769686
-0.550659 3.2432 -0.101581
-0.482289 2.60014 0.578023
-0.57431 2.70275 0.511415
-0.394548 2.89346 0.238424
-0.470915 2.80218 0.378233
-0.287376 2.76 0.347524
-0.661064 2.81683 0.428272
-0.730135 2.90868 0.34259
-0.173361 3.03437 -0.227085
-0.23725 3.04549 -0.126311
-0.123015 2.94411 -0.130913
-0.429392 3.2005 -0.134458
-0.331224 3.12504 -0.132526
-0.375812 3.26777 -0.239494
-0.191454 2.88353 0.0981879
-0.273961 3.01263 -0.0211772
-0.317264 2.95931 0.101417
-0.604089 3.02991 0.154042
-0.448144 3.00343 0.124237
-0.508292 3.12785 -0.00651672
-0.918285 3.25423 -0.425285
-1.10151 3.20144 -0.47506
-0.547323 3.53588 -0.32399
-0.720621 3.37423 -0.389351
-1.06322 3.1884 -0.730619
-0.901407 3.22487 -0.579953
-0.859944 3.19042 -0.668443
-0.13748 3.01714 -0.310235
-0.203663 3.12475 -0.328201
-0.201054 3.35187 -0.588706
-0.200121 3.24151 -0.43775
-0.178949 3.16249 -0.533675
-0.29239 3.27224 -0.339591
-0.365615 3.42201 -0.334757
-0.787202 2.92282 -0.900587
-0.699088 3.00131 -0.830484
-0.622921 2.90221 -0.854899
-0.828065 3.12883 -0.756252
-0.749728 3.07315 -0.7935
-0.99278 3.09467 -0.87497
-0.314178 3.10182 -0.693662
-0.510112 3.11566 -0.728414
-0.330512 3.26569 -0.690064
-0.456591 3.52699 -0.516459
-0.354286 3.46351 -0.672503
-0.608321 3.26849 -0.611308
-1.24732 3.20355 -0.571985
-1.27753 3.1549 -0.381929
-1.19788 3.26418 -0.90296
-1.23989 3.23198 -0.771378
-1.56045 3.17582 -0.526767
-1.42692 3.28786 -0.702618
-1.59567 3.25939 -0.793508
-0.84849 2.8606 -0.944419
-0.9316 2.94264 -0.952333
-1.19123 3.02469 -1.15948
-1.07823 2.98028 -1.02377
-1.06409 2.87321 -1.01505
-1.06508 3.04656 -0.978194
-1.16944 3.15357 -0.993176
-1.3898 2.47782 -0.648377
-1.36448 2.70563 -0.841499
-1.29796 2.46233 -0.749301
-1.55435 3.05669 -0.88073
-1.46227 2.86191 -0.867668
-1.52535 2.88564 -0.68559
-1.21866 2.7559 -1.00019
-1.40417 2.81417 -1.05797
-1.31452 2.8965 -1.17073
-1.32016 3.15646 -1.03429
-1.39642 3.16275 -1.26381
-1.39479 3.12688 -0.986135
-1.37355 3.08602 -0.200309
-1.60214 2.99712 -0.392172
-1.51881 3.0878 -0.272989
-1.50554 2.95997 0.0179082
-1.68326 2.92122 0.206876
-1.46249 2.26616 -0.473297
-1.49308 2.45292 -0.474756
-1.77888 2.37823 -0.118029
-1.61268 2.40474 -0.281357
-1.75569 2.17405 -0.17054
-1.53472 2.65456 -0.47603
-1.58912 2.814 -0.477361
-1.8506 2.35414 0.576214
-1.85077 2.14635 0.643985
-1.8505 2.78953 0.368644
-1.85063 2.56919 0.47826
-1.8505 2.15184 0.242855
-1.90841 2.36052 0.353681
-1.85039 2.36147 0.132348
-1.65313 2.76779 -0.178726
-1.767 2.57155 -0.00485052
-1.8206 2.78935 0.101005
-0.024505 2.80093 -0.00526154
-0.0174643 2.82594 -0.118566
-0.0668108 2.72054 0.236627
-0.0475328 2.76851 0.121121
0.24993 2.5299 0.124298
0.115859 2.63698 0.139285
0.244579 2.50171 0.246771
-0.366413 2.43084 0.67598
-0.266534 2.51452 0.589832
0.0833513 2.36574 0.616973
-0.0776896 2.42849 0.597007
0.00537352 2.28286 0.701339
-0.176645 2.5943 0.482964
-0.115463 2.65691 0.374727
0.705033 2.00737 0.505257
0.556708 2.12646 0.552088
0.644102 1.97131 0.631291
0.402279 2.38553 0.373265
0.488069 2.27467 0.460828
0.509148 2.29258 0.326572
0.326869 2.13912 0.681637
0.44416 2.23246 0.620273
0.264444 2.28878 0.607026
0.0588047 2.56264 0.369288
0.164809 2.42235 0.486723
0.226439 2.47167 0.370494
-0.715036 2.36435 0.762293
-0.563748 2.37669 0.738809
-1.01559 2.3194 0.825624
-0.89561 2.34252 0.796606
-0.47295 2.09796 0.850833
-0.708592 2.21811 0.818355
-0.645385 2.06762 0.862252
-1.57541 2.04659 0.848722
-1.4614 2.1327 0.960481
-1.10946 1.90731 0.854747
-1.27796 2.04319 0.873652
-1.20469 1.77611 0.830203
-1.30994 2.22793 0.959662
-1.18863 2.27795 0.884203
-0.359956 1.34787 1.04425
-0.539325 1.44732 1.04437
-0.496868 1.25768 0.986277
-0.580594 1.8657 0.919422
-0.544346 1.68024 0.986591
-0.380353 1.77031 0.987638
-0.836833 1.46468 0.87727
-0.704154 1.56576 0.933125
-0.887042 1.72007 0.882996
-1.01095 2.16378 0.855128
-0.956476 1.97813 0.864995
-0.818516 2.03097 0.864822
-1.72406 1.96514 0.537718
-1.66716 1.97853 0.700362
-1.77032 1.93995 0.145462
-1.7696 1.94041 0.333151
-1.67338 1.4905 0.591439
-1.74887 1.70083 0.451152
-1.71164 1.46825 0.364827
-1.38275 2.04847 -0.51479
-1.50661 1.99646 -0.381891
-1.61753 1.49913 -0.295834
-1.58362 1.74354 -0.350311
-1.49575 1.52583 -0.432871
-1.64154 1.96465 -0.245712
-1.71352 1.95016 -0.0695615
-1.43571 0.592169 0.124787
-1.38771 0.830147 0.0116876
-1.43829 0.616403 -0.14253
-1.62314 1.20317 0.239281
-1.45398 1.05624 0.12549
-1.42253 1.06627 0.35769
-1.35972 1.11784 -0.227396
-1.42913 1.07089 -0.0754325
-1.58484 1.23416 -0.213105
-1.7756 1.69965 0.0253447
-1.68572 1.46658 -0.0956898
-1.76776 1.43602 0.132602
[...]
POINT_DATA 642
SCALARS Mean_Curvature double 1
LOOKUP_TABLE default
-0.239203
1.51953
1.78534
5.07337
4.00873
0.75343
0.0934619
1.17147
3.51503
-1.92466
0.0984521
8.13294
3.17319
0.843279
0.687
0.636871
2.90537
11.7555
0.969026
1.19145
3.76019
4.05549
0.795972
0.633571
1.78752
0.355484
2.76478
3.65762
1.02617
0.701009
1.23325
1.16327
7.43637
1.35252
2.30403
4.61878
0.243969
5.37883
2.56553
-0.570608
-0.544095
1.78834
-0.8932
3.32075
0.0199673
3.06712
3.27605
4.02845
0.801056
0.154581
0.596149
0.33892
1.67915
0.953345
0.952846
0.125472
0.782993
1.46783
-0.208705
0.430091
0.923096
3.05432
1.51081
0.559452
1.39936
2.07149
0.849905
1.87214
9.05832
0.621245
2.97552
1.20656
1.734
-0.431801
-0.932057
0.409558
1.57258
1.19319
1.29694
0.686458
1.07118
4.58127
-0.473484
2.39325
0.367161
0.728566
-0.763271
0.588441
1.07525
0.114984
-0.309275
5.33237
1.47397
0.423066
1.41603
-1.12963
2.89454
-0.945132
1.48469
0.83114
1.2728
1.94082
1.19405
0.999323
0.703092
1.70311
1.50371
1.06263
1.91833
0.804442
1.36893
0.727868
4.10385
3.33429
3.17104
1.06673
1.22912
3.5168
4.06626
-0.751633
0.983106
-0.609052
-0.00425643
-0.0396953
5.76342
-1.35802
-0.00247154
1.7832
1.69556
2.39126
3.7339
-0.0113364
3.11147
-0.104309
0.270152
-1.19899
3.8804
3.31134
-1.14287
0.873413
0.855678
1.57033
4.13127
2.08417
-1.05788
-1.32037
2.54019
4.56752
3.0055
0.157985
1.09112
-0.596853
3.07132
-0.208998
-0.651843
0.260294
0.737831
0.82011
0.969509
-0.217703
4.51882
0.966049
-0.408561
-0.42894
-0.211843
3.18766
-0.517745
1.44049
0.231785
0.506138
0.340486
4.28775
4.32109
5.09342
-0.229006
3.51114
0.711503
1.91046
3.95725
6.0776
0.545183
0.648549
0.536888
0.629464
0.669753
0.949924
0.293537
0.297888
-0.173335
3.13194
0.0477045
5.08836
6.30765
0.812452
0.584381
0.378088
5.15741
1.21503
0.5546
0.936761
0.514694
0.947876
0.524971
1.00675
0.852927
0.774502
1.10397
1.00785
1.49604
-0.112702
0.466307
-0.317134
1.08472
1.13824
1.19113
0.652472
0.877474
0.350927
0.124567
-0.242136
8.5159
3.08263
0.743796
0.662405
0.740033
1.33386
0.572911
9.07509
4.35599
0.00277351
-0.185511
5.24754
1.38675
1.10378
1.29736
0.861142
1.05097
1.2561
0.453861
1.07581
2.56793
6.97596
9.12284
0.221128
-0.398371
-0.873416
9.93858
-0.190612
6.54005
5.51497
9.16079
1.84222
1.7011
6.89173
1.08088
1.77007
0.942696
0.849149
0.541196
0.378133
0.997967
5.2047
0.345487
-0.863414
1.12773
8.38026
8.22416
2.5937
10.1661
2.5475
0.127196
3.02645
5.2474
0.272527
3.13206
0.105825
-0.0595685
2.94381
-0.58583
3.24671
-0.764008
1.99258
-0.674374
3.95912
5.49051
0.709014
1.08217
4.03826
0.814024
1.07585
-0.37483
5.24891
0.925797
0.714939
1.1359
1.1002
1.02487
1.24731
0.720612
1.00471
1.0672
2.35064
0.605457
1.80271
1.19428
1.21474
2.69245
0.119008
4.74298
4.97386
2.52439
1.32226
-0.449597
7.53758
2.03558
1.12551
0.205499
1.51161
0.520641
0.801961
0.395671
0.559036
0.581431
0.544006
0.527514
1.2671
5.35422
-0.12347
0.0777304
-0.316363
5.38869
0.22219
0.532123
4.82393
-0.787959
0.308471
1.57959
1.15844
-0.40362
-0.0720462
-0.149336
0.401475
0.240923
0.406878
-1.47676
0.360798
-1.05489
-1.14202
4.87392
1.1924
0.00979778
0.2581
-0.523619
3.08276
2.40852
4.33121
0.966984
-1.32793
8.04965
0.292172
8.68543
2.41858
-1.11713
-0.75309
-0.60982
-0.633309
4.93352
1.59437
0.485202
3.48903
0.98401
0.557042
1.8465
1.63854
0.956186
0.728332
0.900344
1.4051
1.90636
0.785992
1.81083
0.753891
2.03434
1.9834
0.821554
0.92665
0.163284
0.83813
1.16458
0.636956
1.09924
1.22617
1.04948
1.8874
0.797317
0.854071
1.53103
1.33649
1.47439
1.41257
1.10974
1.6165
1.22295
1.4217
1.78893
1.36563
1.24055
1.36003
1.76102
1.35247
-0.0574042
0.501478
1.58555
1.30277
1.25905
1.21168
0.772658
1.10534
1.33596
1.88473
0.970348
1.34026
2.0629
2.37385
1.62645
2.0436
4.14515
5.99361
6.05451
-1.64229
1.3963
5.55888
2.42022
-1.9024
2.41761
-0.669185
3.5819
-0.193837
0.573911
-1.89251
1.96676
0.206999
-0.682712
1.88988
3.74811
-1.04492
2.13248
3.61226
1.62423
0.431458
0.280784
0.237605
-0.0104081
0.500241
2.74532
0.0893121
0.232008
0.139673
0.1052
-0.760469
-1.11466
6.72209
6.70774
-0.53647
-1.29116
5.56561
3.95995
3.42225
0.597745
0.00011852
-0.766891
-0.00316006
2.25936
-0.780557
1.52058
0.767475
0.000923526
0.0535831
1.68082
2.92476
-1.25536
0.17167
3.18355
3.85174
5.00876
6.11376
1.54594
7.45689
3.78518
2.68365
-0.165571
0.110048
0.311707
5.6452
1.58359
1.1423
1.15821
-1.82243
-0.715034
-1.25764
0.889482
0.911135
6.42199
3.89859
0.340194
3.8311
2.19861
2.99512
1.82132
-1.47838
-0.349516
0.0583188
3.09865
0.3594
-0.240747
0.11264
0.888391
-0.607205
2.77502
2.26323
0.955882
1.72949
-0.68221
-1.28621
-0.449118
2.40642
2.83503
5.40813
2.82531
1.14194
1.44287
6.04035
5.94713
3.40311
3.49552
2.73514
0.0816018
-0.390842
4.68519
5.95165
5.88819
-0.799802
3.32258
7.48581
-0.194682
-1.37143
2.50042
-1.10511
-0.875369
1.19033
-1.28156
4.34775
2.53875
4.92935
-0.753294
1.53384
0.912049
-1.1181
-0.0910314
-0.933641
4.62418
-1.67137
0.852874
0.144655
0.502985
0.442254
-0.18605
0.533577
0.0555253
0.642986
1.22768
8.29072
8.19612
0.473155
-0.509868
-0.642557
-0.23322
-0.548329
-0.750249
1.19685
-1.0111
1.98289
1.33405
1.86705
-0.514439
-0.468155
-0.46831
-0.450909
5.27727
-0.544004
-0.575822
-0.252656
0.0891894
2.78478
0.0445813
-0.912581
-0.927634
-0.671027
0.245848
0.50771
0.441129
-0.442109
-0.00659711
-0.436377
-0.241672
0.0666726
0.329303
0.227302
0.304617
0.803002
1.07139
0.262208
1.06271
0.869994
2.71252
1.31208
1.15818
1.03059
0.788836
0.583852
0.995126
0.875253
1.02094
1.07399
2.49182
1.7427
2.51515
-0.466931
0.718901
1.65834
1.7159
0.771867
-0.0978637
4.92094
1.38785
0.834194
1.2421
1.41348
0.907062
-0.374728
0.790505
0.849554
SCALARS Redistribution_Potential double 1
LOOKUP_TABLE default
7.09768e-13
-0.276044
0.119634
-0.112352
-0.0563903
-0.306722
-0.108633
0.0173572
-0.307831
-0.295401
0.104864
-0.00692714
-0.0295873
-0.165909
-0.214108
-0.326598
-0.186136
-0.147893
0.130878
0.218033
0.21217
0.102004
-0.335407
-0.369145
-0.0317447
-0.231211
0.114576
0.116486
-0.105139
-0.021531
-0.323585
-0.221493
-0.176057
-0.20065
-0.0594733
0.0787608
0.0211166
0.0557452
-0.0935152
-0.207184
-0.193665
-0.294419
-0.0104062
-0.113702
-0.126281
-0.0823115
-0.0990822
-0.0223243
-0.270553
-0.195544
-0.250791
-0.210823
-0.10887
-0.327436
-0.280353
-0.237414
-0.267752
-0.29874
-0.075869
0.0925731
-0.227321
-0.164527
0.0886676
-0.0731441
-0.0708532
0.319575
0.121891
0.141919
0.296622
0.193807
0.333522
0.202633
0.0633525
0.124363
0.134804
0.0436506
0.0580381
-0.357133
-0.338162
-0.337264
-0.355026
-0.346882
-0.35849
-0.320658
-0.219233
-0.284085
-0.0128071
-0.119732
-0.144264
-0.14276
-0.0221158
0.109147
0.0648391
0.0895794
0.117543
0.179939
0.139542
0.165863
0.0779801
0.0431362
-0.0120886
0.0740938
-0.0681997
-0.0623179
-0.138139
-0.153421
-0.0979537
-0.293654
-0.22338
-0.296949
-0.272686
-0.334099
-0.140085
-0.132354
-0.0866346
-0.253098
-0.191269
-0.220906
-0.0369814
-0.123952
-0.13652
-0.0129017
-0.0544165
0.0420697
0.0308643
0.077048
0.0589195
0.10323
-0.0352354
-0.100446
0.105652
0.0426022
-0.094425
-0.0152272
-0.0221639
-0.144787
-0.142579
-0.165644
-0.151854
-0.248681
-0.212945
-0.261104
-0.177461
-0.304647
-0.228293
-0.188715
-0.295017
-0.216731
-0.272716
-0.290724
0.110728
0.0804625
0.0572149
0.0330503
0.126902
0.0598892
-0.255652
-0.195047
-0.164362
-0.345619
-0.344401
-0.358503
-0.00221259
-0.0657707
-0.0608213
-0.0694524
-0.0739408
-0.0290927
-0.17679
-0.125221
-0.168071
-0.0430694
-0.052323
-0.0159754
-0.136014
-0.0899315
-0.12311
-0.0268366
-0.0590324
-0.0628649
-0.296558
-0.257393
-0.287216
-0.204032
-0.234505
-0.236601
-0.213944
-0.221969
-0.183826
-0.103943
-0.148412
-0.154594
-0.119668
-0.0560684
-0.216602
-0.176581
-0.152327
-0.169344
-0.201827
-0.319088
-0.304776
-0.303606
-0.308797
-0.329409
-0.277161
-0.248257
-0.263554
-0.273237
-0.286086
-0.227493
-0.25505
-0.209827
-0.314865
-0.284287
-0.295088
-0.247042
-0.276385
-0.239519
-0.0207815
0.0560119
-0.126738
-0.0907082
0.116045
0.0123476
0.0200375
-0.24942
-0.233999
-0.156298
-0.196184
-0.181605
-0.20383
-0.172342
0.0490941
0.00180193
-0.021302
0.0309026
0.01215
0.131659
-0.123348
-0.0701689
-0.122029
-0.127276
-0.119706
-0.0703512
0.132113
0.0855248
0.240483
0.204906
0.175564
0.229314
0.270824
0.0869382
0.127622
0.276406
0.200811
0.191282
0.188808
0.253419
0.136952
0.211172
0.130855
0.333381
0.268987
0.219285
0.22443
0.333532
0.294002
0.366899
0.333776
0.381995
0.0515604
0.14027
0.0964232
0.0269364
0.00831549
0.113821
0.137258
0.106176
0.132708
0.115563
0.167358
0.165352
0.0176166
0.0300229
0.00622523
0.0101206
0.0809357
0.0474781
0.0764512
0.102669
0.0839242
0.0447269
-0.326489
-0.311534
-0.343682
-0.336842
-0.36218
-0.352079
-0.367546
-0.324533
-0.336912
-0.352301
-0.350162
-0.33911
-0.34314
-0.345079
-0.318382
-0.334807
-0.307612
-0.367152
-0.356169
-0.362759
-0.327139
-0.344206
-0.349505
-0.358172
-0.360915
-0.366592
-0.273822
-0.298775
-0.198806
-0.232739
-0.266618
-0.25283
-0.232091
-0.0119113
-0.0570043
-0.0828615
-0.0725665
-0.0290632
-0.103936
-0.144223
-0.090655
-0.0845838
-0.0326801
-0.190108
-0.14247
-0.194988
-0.0192622
-0.077558
-0.0842613
-0.172206
-0.141057
-0.187802
0.0955699
0.0381843
0.110061
0.0962276
0.0898275
0.0939669
0.110927
0.0862239
0.110483
0.113833
0.104938
0.100393
0.118335
0.136755
0.139066
0.159942
0.13303
0.136781
0.172455
0.148302
0.142522
0.154919
0.130919
0.119664
0.123796
0.123608
0.0992975
0.0764467
0.16141
0.1491
0.0133752
0.0550751
0.00370009
0.0106679
0.0629185
-0.0160523
0.0335035
-0.0492544
0.112311
0.148566
-0.0922906
-0.10276
-0.124579
-0.04691
-0.0757238
-0.0422643
-0.132897
-0.101095
-0.0824718
0.09349
-0.00618463
0.00564076
-0.0790396
-0.044834
-0.15092
-0.119343
-0.164601
-0.130013
-0.19081
-0.280943
-0.251826
-0.277543
-0.26514
-0.305767
-0.216933
-0.181119
-0.307982
-0.318295
-0.320936
-0.245267
-0.289826
-0.264771
-0.334617
-0.314185
-0.299549
-0.181254
-0.25116
-0.214215
-0.123096
-0.117394
-0.0998325
-0.154971
-0.134766
-0.159432
-0.0732222
-0.107579
-0.0991159
-0.27558
-0.243241
-0.259742
-0.198217
-0.221143
-0.230861
-0.189424
-0.209176
-0.174832
-0.0433457
-0.0869862
-0.0912462
-0.0896992
-0.088009
-0.0445198
-0.173165
-0.13017
-0.166597
-0.157044
-0.162634
-0.126157
-0.0679514
-0.0817594
-0.0342251
-0.0498764
-0.0168142
-0.0306338
0.00625612
0.0162129
0.0263255
0.0524581
0.0385774
0.0632353
0.032
-0.00949437
0.103752
0.0934347
0.116539
0.0450447
0.0689673
0.0509601
0.0909918
0.0823006
0.0702993
0.0108578
0.0445534
0.0292593
-0.0764893
-0.105157
-0.00402819
-0.0419919
-0.0975188
-0.0719996
-0.0671128
0.114752
0.0899595
0.0473714
0.0708417
0.0801997
0.0606388
0.0336027
-0.103893
-0.0551413
-0.0763346
-0.0596868
-0.0543977
-0.0866516
0.0325353
-0.000532479
0.0220098
0.00611946
0.016213
-0.0272012
-0.121519
-0.130581
-0.122974
-0.122628
-0.165894
-0.126376
-0.169823
-0.137443
-0.134337
-0.184
-0.161694
-0.189663
-0.127295
-0.12062
-0.289432
-0.260526
-0.29328
-0.205518
-0.2339
-0.219648
-0.237915
-0.238815
-0.214741
-0.150152
-0.183625
-0.178216
-0.142098
-0.181305
-0.163091
-0.159486
-0.172949
-0.308176
-0.281802
-0.258989
-0.273209
-0.300066
-0.24463
-0.208731
-0.256379
-0.295432
-0.188052
-0.196753
-0.293834
-0.244608
-0.250687
-0.195971
-0.199458
-0.188823
-0.142166
-0.207282
-0.180185
-0.188164
-0.227833
-0.286589
-0.30642
-0.295074
-0.262882
-0.227524
-0.315481
-0.264684
-0.295405
-0.319495
-0.314106
-0.243012
-0.282644
-0.25501
0.128667
0.098843
0.108026
0.127412
0.127117
0.0350714
0.0316446
0.0438524
0.0725676
0.0850198
0.032637
0.0901776
0.0559485
0.0187221
0.0188173
0.0998863
0.0754483
0.104517
-0.0463813
0.0622995
0.0133405
-0.0124429
-0.00220178
0.135599
0.119494
0.154768
0.13586
0.103829
0.0617322
0.016817
0.0384688
0.0808799
0.0929016
0.0872803
0.0913539
0.0476177
-0.288971
-0.239698
-0.265517
-0.278829
-0.246992
-0.155907
-0.160826
-0.167803
-0.186456
-0.209921
-0.0596627
-0.191594
-0.132393
-0.0839099
-0.131162
-0.224634
-0.190342
-0.21809
-0.323905
-0.324357
-0.32547
-0.347322
-0.363137
-0.327767
-0.347778
-0.341439
-0.327687
-0.325488
-0.318574
-0.36641
-0.349634
-0.329355
-0.343344
-0.344461
-0.356172
-0.36073
SCALARS CoVolArea double 1
LOOKUP_TABLE default
0.030409
0.0101861
0.0318817
0.036254
0.0204224
0.0206117
0.0160081
0.0107256
0.0144703
0.0225925
0.0284031
0.0399143
0.0432752
0.0269232
0.0260681
0.0280821
0.0251053
0.0232691
0.0227063
0.0242811
0.0452012
0.0500077
0.0257412
0.0228026
0.0446953
0.0329248
0.0439059
0.0586643
0.0328784
0.0477738
0.0255875
0.0302037
0.0433515
0.0386645
0.0540815
0.0528253
0.0649678
0.0432287
0.0418719
0.0316304
0.0318792
0.0266211
0.0447804
0.0364137
0.0407635
0.037105
0.0425518
0.0475551
0.0266431
0.0250445
0.0237433
0.025955
0.0348758
0.0326143
0.0289351
0.0174036
0.0198348
0.0209335
0.0384982
0.0261243
0.0149714
0.0293795
0.0183608
0.0322249
0.0265893
0.0281099
0.0373227
0.0125595
0.0230885
0.0422079
0.0383831
0.0307279
0.0497266
0.0457734
0.0505348
0.0538084
0.045055
0.0246442
0.0235357
0.0293103
0.0280826
0.0260124
0.0257736
0.0268345
0.0252617
0.0301019
0.0401503
0.0287867
0.0382588
0.0401853
0.0397877
0.0573271
0.0461377
0.0426226
0.0501199
0.0548797
0.0564449
0.041583
0.0235812
0.0385627
0.0139883
0.0151851
0.0386517
0.0362335
0.0333676
0.0198988
0.0230304
0.0164948
0.0173531
0.0294581
0.0282262
0.0251135
0.0611892
0.0518031
0.0579014
0.031353
0.0422579
0.029034
0.0477097
0.0505985
0.041453
0.0660565
0.0513527
0.0385285
0.0622052
0.0574081
0.0616773
0.0535825
0.0560343
0.0461231
0.0416276
0.0556809
0.0409628
0.0452343
0.0345287
0.0433093
0.0424454
0.0294466
0.0377429
0.0305069
0.035242
0.0312613
0.0432089
0.0246948
0.0274941
0.027198
0.0277395
0.0329094
0.0325709
0.0301197
0.0512754
0.042975
0.0518297
0.0391211
0.03928
0.0463913
0.0343672
0.0317301
0.0405706
0.0259324
0.0278314
0.026197
0.0397141
0.0406426
0.0401587
0.0422612
0.03737
0.042165
0.0322737
0.0342447
0.0316585
0.044649
0.0439795
0.0474409
0.0338815
0.0387194
0.0302819
0.0451842
0.0441804
0.0458789
0.0228298
0.0232049
0.022362
0.0255855
0.0220652
0.0243792
0.0219372
0.0203645
0.0251544
0.0438345
0.0352364
0.0354982
0.0393768
0.0365839
0.0294691
0.033884
0.0321193
0.0300255
0.022159
0.0293803
0.0281243
0.026227
0.0299731
0.030508
0.0291811
0.0282522
0.0143012
0.0171254
0.0173783
0.0188498
0.0158353
0.0175022
0.0220383
0.0164929
0.0220075
0.0296132
0.0253827
0.023721
0.0345716
0.0344652
0.040997
0.0388211
0.022149
0.029119
0.0271738
0.0109061
0.0156958
0.0267867
0.0217914
0.020099
0.0208136
0.029138
0.0131708
0.0222333
0.0190958
0.0252966
0.0234873
0.0203969
0.0260467
0.0280828
0.0316737
0.044328
0.0404525
0.0384219
0.0330758
0.0333023
0.0259447
0.0282781
0.0441127
0.0408474
0.0449493
0.0111685
0.0133335
0.0283764
0.0157677
0.0162116
0.0178664
0.0214848
0.0381508
0.0377377
0.0321742
0.0421107
0.0367031
0.038773
0.0244443
0.0322693
0.0379527
0.0242983
0.0387557
0.0314122
0.0408447
0.0483207
0.0424961
0.0444846
0.0467871
0.0422951
0.0452852
0.0507367
0.0463948
0.0466957
0.0439832
0.0473119
0.0460828
0.0441572
0.0509092
0.0480604
0.0474019
0.0480739
0.0512444
0.057966
0.0580725
0.059318
0.0244075
0.017822
0.0285284
0.0246749
0.0243847
0.0243403
0.0235205
0.0335754
0.0334474
0.0265277
0.0280124
0.0244139
0.0312874
0.0300559
0.0270292
0.0272467
0.0277109
0.0224807
0.0232977
0.0205866
0.0256958
0.0255875
0.0276588
0.0283187
0.0281263
0.0256877
0.0268637
0.0291306
0.0243402
0.0229587
0.0307753
0.0267499
0.0328812
0.0402718
0.037709
0.0392399
0.0333966
0.0423126
0.0296968
0.026609
0.0294485
0.0388993
0.032872
0.0361424
0.0403318
0.0335053
0.0417645
0.0411928
0.0441751
0.0283425
0.0370211
0.0339338
0.0446529
0.0405583
0.0520932
0.0490879
0.0577074
0.0528521
0.0606196
0.044257
0.0452824
0.0478521
0.0442505
0.0418574
0.0458724
0.0505272
0.0515718
0.0518439
0.0478122
0.0597129
0.0513487
0.0533412
0.0416633
0.0455411
0.0516737
0.059416
0.0581523
0.0637072
0.0324098
0.0373444
0.021077
0.024042
0.0425604
0.0307901
0.0379894
0.0134147
0.0113151
0.0220044
0.0120882
0.0222289
0.0124727
0.0170425
0.0266177
0.0339858
0.0273676
0.0434119
0.0393826
0.0439307
0.0336588
0.035731
0.0339427
0.0207659
0.0266967
0.0310021
0.0227257
0.0179563
0.0204652
0.0216658
0.0266892
0.0223453
0.0234949
0.0148711
0.0123585
0.0200134
0.0138896
0.0192025
0.0159511
0.0185728
0.0236232
0.0276391
0.0239029
0.0273781
0.0283289
0.0287655
0.024557
0.0261376
0.0271556
0.0204017
0.0240805
0.0243732
0.0470535
0.0566447
0.0469382
0.0520647
0.0549758
0.0600497
0.0582578
0.0536542
0.0545514
0.0308356
0.0320362
0.0299718
0.0403913
0.0337732
0.0347835
0.027234
0.0327896
0.0412815
0.0352523
0.0420305
0.0317394
0.0504616
0.0458792
0.0515569
0.0389804
0.0439006
0.0450433
0.0547597
0.0536756
0.0575548
0.0531689
0.0448599
0.0610847
0.0596893
0.0607347
0.0598379
0.0694061
0.0335265
0.0404618
0.0634775
0.0511238
0.0472656
0.0517269
0.0566617
0.048997
0.061076
0.0480287
0.0648154
0.0573485
0.0548164
0.0536485
0.0557878
0.0597378
0.0679199
0.0685668
0.0721349
0.0502418
0.0497506
0.0616934
0.0557673
0.0454032
0.0513546
0.0512102
0.0418823
0.0478865
0.0536497
0.0460584
0.0426464
0.0499297
0.0582635
0.0294875
0.0380393
0.0278655
0.0452483
0.0410221
0.0398905
0.035088
0.0352979
0.0455773
0.0614855
0.0593843
0.05496
0.0442418
0.0432319
0.0431394
0.0430658
0.0395222
0.0408667
0.0375302
0.025611
0.0313214
0.0315034
0.0298826
0.028105
0.0374418
0.0396325
0.0279697
0.0333059
0.0273554
0.0326581
0.0285042
0.0252083
0.0285053
0.028759
0.0331547
0.0472923
0.0417279
0.0446203
0.0513284
0.0379826
0.0485053
0.0594788
0.0474898
0.0229198
0.0270727
0.0242974
0.0248026
0.0249662
0.0271704
0.0304813
0.0275987
0.0268281
0.0298304
0.0257329
0.0281614
0.0276801
0.0260163
0.0350062
0.0299814
0.0350434
0.0349594
0.0353836
0.0340324
0.0336774
0.0314273
0.0303817
0.029019
0.027369
0.0307993
0.0366087
0.0328459
0.0312454
0.0302619
0.0279054
0.0277082
0.0362312
0.0337779
0.0333525
0.0512394
0.0604739
0.0562976
0.0481532
0.0485562
0.0387248
0.0432803
0.0390809
0.0416615
0.0455042
0.0404859
0.0566833
0.0511163
0.0464826
0.0466835
0.0497878
0.0518485
0.0513029
0.0339389
0.0386454
0.0331275
0.037992
0.0450677
0.0420936
0.0413879
0.0393196
0.0406461
0.039209
0.0447847
0.0500903
0.0445333
0.0433388
0.0427761
0.0422481
0.0444737
0.0488172
0.0304112
0.0327907
0.0288328
0.0295984
0.0363421
0.0307363
0.0345023
0.0302031
0.029812
0.0310389
0.0197767
0.0373705
0.0300148
0.0289205
0.0375248
0.0363592
0.0396443
0.0413207
0.0270056
0.0280112
0.0259434
0.0238198
0.0236426
0.0259642
0.0269146
0.0243703
0.0263342
0.0283382
0.0214859
0.0246917
0.0247259
0.0234665
0.0260951
0.0295088
0.0290449
0.0273819
SCALARS SignedDistance double 1
LOOKUP_TABLE default
1.12382
1.25376
-0.0121335
0.0333866
0.00892361
1.31662
0.133703
1.50451
0.0841311
0.0439801
1.34939
0.022816
-0.0226866
0.660534
1.18848
1.40915
0.153588
0.10817
1.20865
1.13137
0.00384888
-0.00375669
0.255589
0.227968
0.209591
1.1146
0.00355681
0.00724778
1.46858
1.21525
1.16973
1.4165
0.0211215
0.023888
0.0109296
0.0626764
0.00418666
0.0598055
-0.0106269
0.973004
0.160641
0.0251573
0.765983
0.0309426
0.774202
0.018616
-0.00172203
0.0183944
1.31711
1.09967
1.23234
1.13526
0.0865229
1.30301
1.34659
1.08903
1.15834
1.30999
1.08685
1.19858
1.11125
0.0380795
1.36455
1.17739
1.29767
-1.00909
0.151215
1.30084
0.209148
0.367244
0.0151775
1.18328
0.00752716
1.01132
0.680565
0.000611872
-0.0034865
1.20047
1.2754
1.08784
1.09453
0.0429692
0.442308
0.0390524
1.24724
1.19992
0.959111
0.937126
0.0499532
1.15654
1.12348
-0.00285949
0.0101489
0.330728
0.00567621
1.12713
0.00978017
1.08482
1.49648
1.29711
1.60569
1.49763
0.340876
1.39839
1.11616
1.29959
1.47735
1.36475
1.32622
1.14612
1.30151
0.491969
0.0301358
0.0418982
0.0103568
0.0209797
0.00467867
0.0326774
0.00317312
0.00109209
-0.0097266
0.0160397
0.00164457
0.556434
0.00359829
0.00982457
0.00250582
0.00336864
0.000593877
0.0238461
0.0194074
0.00120964
-0.00805672
0.0111237
0.0831308
0.0378312
-0.0173939
0.0474362
0.270563
0.0276437
0.0209196
0.144835
-0.0130025
0.0308729
0.128124
1.06948
0.00663538
0.0407042
0.0255673
1.09676
0.085299
1.12223
0.00991865
1.12636
1.13482
0.491444
1.18071
1.16717
1.47022
0.13079
0.0241449
0.688502
0.964195
0.69276