# vtk DataFile Version 4.2
vtk output
ASCII
DATASET POLYDATA
POINTS 642 double
-1.11753 3.11732 -0.265588
-0.370652 2.73628 -0.175015
-1.28898 0.535366 -0.00519658
0.675733 0.552042 0.00560031
-0.371212 1.21251 1.0431
-0.614961 2.35776 0.449787
-0.34236 1.38118 -0.852887
-0.88918 2.8125 -0.468629
0.559719 1.91619 -0.44148
0.726967 1.86845 0.546496
-1.24186 2.36426 -0.412691
-1.81471 2.13204 0.863432
-1.67848 2.91674 0.437349
-1.18891 2.42452 0.798482
-0.952489 2.80548 0.279191
-0.383437 2.59247 0.0635518
-0.489528 3.29373 -0.22182
-0.188271 3.22012 -0.636342
-1.18496 2.99059 -0.652288
-1.22803 2.90165 -0.891554
-1.59675 3.01063 -0.644109
-1.862 2.15806 0.0115711
0.145468 2.2145 0.688902
0.396801 2.3911 0.238376
-1.02504 1.61435 0.860808
-0.407195 1.88127 0.839636
-1.4503 1.31279 -0.369359
-1.59306 1.21965 0.482681
-0.595179 2.22522 -0.459302
-0.865597 1.84944 -0.602314
0.128817 2.41443 -0.23516
-0.262111 2.34984 -0.357101
1.03409 1.23005 0.465177
0.341603 1.51555 0.962707
0.199491 0.686908 0.801501
-0.937429 0.65205 0.853764
-0.355392 0.554717 0.000211236
-0.818088 0.792068 -0.676645
0.143144 0.825358 -0.680279
0.174056 1.59275 -0.688953
0.798017 1.23472 -0.267105
0.869641 1.82255 0.0240221
-1.34744 2.95839 0.0647951
-1.27899 2.96544 0.481103
-1.00818 3.04114 0.0954307
-1.48972 2.36265 0.971572
-1.45369 2.73018 0.810406
-1.84682 2.57247 0.706692
-0.836193 2.56158 0.369631
-1.11445 2.68235 0.60355
-0.930256 2.38473 0.552168
-0.67866 3.08139 -0.0476347
-0.807438 3.29811 -0.211028
-0.438028 2.47856 0.289257
-0.629948 2.73263 0.107825
-0.328341 3.14329 -0.264092
-0.4614 2.96861 -0.110347
-0.383212 2.7089 -0.110192
-0.655493 3.29021 -0.440329
-1.17351 3.03671 -0.583467
-0.283605 3.01122 -0.353357
-0.294083 3.39896 -0.475628
-1.09866 2.90643 -0.595712
-0.531696 3.16197 -0.518932
-0.539806 2.9735 -0.442729
-1.253 3.0549 -0.798587
-1.37589 3.14329 -0.433845
-1.12463 2.87346 -0.639833
-1.19403 3.08527 -1.05175
-1.43821 2.75671 -0.678129
-1.43971 2.98546 -1.01215
-1.23841 2.79813 -0.796603
-1.60729 2.9094 -0.0806948
-1.5523 2.21918 -0.275715
-1.61008 2.5991 -0.223183
-1.85115 2.5689 0.246161
-1.85037 2.14361 0.452708
0.0245495 2.4605 0.195687
-0.0708827 2.49237 -0.0205863
-0.171312 2.31943 0.646198
-0.0374125 2.46051 0.449081
0.615563 2.18296 0.408295
0.326506 2.33461 0.471888
0.465391 2.07636 0.676286
-0.883716 2.13612 0.653688
-0.531697 2.15153 0.645259
-1.39088 1.94548 0.77744
-1.18885 2.12618 0.817166
-0.367231 1.55575 1.04338
-0.719429 1.78404 0.79602
-0.636612 1.3606 0.881788
-1.86626 1.69142 0.259397
-1.64421 1.78054 0.631602
-1.42948 1.78797 -0.446635
-1.68546 1.72845 -0.188431
-1.33805 0.825251 0.212779
-1.62072 1.20249 0.00907121
-1.28962 0.872441 -0.117107
-1.00298 2.54861 -0.465405
-1.05969 2.14758 -0.463072
-0.826435 2.66886 -0.437294
-0.984429 2.68072 -0.486874
-0.617721 1.54074 -0.805423
-0.707669 2.11849 -0.498098
-0.388396 1.74542 -0.776838
-0.497346 2.80084 -0.338537
-0.593461 2.70417 -0.378378
-0.288386 2.59228 -0.180756
-0.452761 2.76174 -0.298409
0.187289 2.12049 -0.47551
-0.0940362 2.37449 -0.310095
0.42788 2.19033 -0.331607
0.97603 0.719474 0.249169
0.725765 0.8606 0.634472
0.501839 0.554484 0.394543
0.596023 1.69156 0.77598
0.683623 1.32102 0.701511
0.8716 1.49322 0.4683
-0.140118 0.931943 1.04319
0.298131 1.08889 0.910175
-0.0318672 1.34123 1.0734
-0.0289328 0.571847 0.443025
0.212859 0.554724 0.00391485
-0.57961 0.879449 0.906368
-0.337882 0.555167 0.918834
-0.860395 0.561764 0.00584325
-0.647716 0.554724 0.452263
-1.15047 0.545786 0.491378
-0.0668092 0.554773 -0.418475
0.434772 0.645718 -0.389001
-1.07589 0.634116 -0.355947
-0.646579 0.555039 -0.420648
-0.140884 1.09851 -0.841577
-0.365628 0.767382 -0.690146
-0.533586 1.1032 -0.776686
0.54725 0.996132 -0.471818
0.863943 0.831485 -0.232689
-0.0523323 1.47328 -0.852223
0.205364 1.22939 -0.711065
0.738956 1.54206 -0.36225
0.536112 1.40041 -0.573404
0.408458 1.73929 -0.602251
1.11789 1.16661 0.00768933
0.785333 1.85724 -0.218256
0.870572 1.49839 -0.1036
0.911476 1.44397 0.18196
0.864333 1.84985 0.309217
-0.0245935 1.72274 1.0499
0.268076 1.90822 0.870171
-0.114927 2.02284 0.7909
-1.247 0.854049 0.613781
-0.918152 1.07172 0.730348
-1.31257 1.39347 0.770611
-0.773404 1.26245 -0.585661
-1.05916 1.0573 -0.368688
-1.17102 1.53788 -0.545514
0.0281694 1.98351 -0.594007
-0.185747 1.82672 -0.695991
-0.443144 2.2986 -0.415992
0.650676 2.13786 0.157107
0.614485 2.18499 -0.133818
0.330104 2.42032 -0.0309851
-1.21319 3.06864 -0.141752
-1.18688 2.97915 0.119531
-1.06684 3.12505 -0.0922955
-1.48821 2.96594 0.485008
-1.32048 2.95803 0.30209
-1.53935 2.96188 0.286658
-0.972194 2.92777 0.202556
-1.14476 2.96073 0.313953
-1.08738 2.88984 0.404552
-1.66813 2.26613 0.96286
-1.68796 2.48258 0.916239
-1.86448 2.36377 0.801763
-1.29539 2.55195 0.802368
-1.50569 2.55516 0.92019
-1.30191 2.39676 0.890112
-1.77901 2.75969 0.582714
-1.6736 2.68708 0.814396
-1.64834 2.87317 0.697834
-0.709565 2.43416 0.404112
-0.9247 2.4979 0.480262
-0.740463 2.35302 0.479239
-1.0762 2.75182 0.467855
-1.00366 2.61294 0.472931
-0.931303 2.7018 0.336049
-1.06034 2.40068 0.644323
-1.05208 2.53697 0.588853
-1.1641 2.54762 0.680177
-1.40838 2.88603 0.671229
-1.24817 2.70852 0.71743
-1.17843 2.87768 0.636099
-0.904822 3.26285 -0.0394393
-0.938554 3.23015 -0.252036
-0.817391 2.91436 0.109763
-0.813778 3.08366 0.0487845
-0.632882 3.30325 -0.205846
-0.686501 3.2501 -0.0911851
-0.58697 3.20177 -0.143756
-0.52115 2.41956 0.376499
-0.637884 2.51193 0.306345
-0.509895 2.68584 0.0634249
-0.55926 2.59449 0.189548
-0.387016 2.53176 0.177201
-0.736399 2.64162 0.242439
-0.799225 2.76616 0.190821
-0.350869 2.92635 -0.242275
-0.358105 2.95664 -0.193177
-0.372919 2.72569 -0.154336
-0.468956 3.16437 -0.187212
-0.368886 3.07593 -0.149863
-0.410685 3.23469 -0.272056
-0.389754 2.66012 -0.0396918
-0.402685 2.89622 -0.131803
-0.461837 2.7709 -0.0387127
-0.669048 2.90721 0.0208819
-0.546709 2.84586 -0.0157522
-0.55833 3.05501 -0.0954023
-0.91176 3.13412 -0.343568
-1.10503 3.09035 -0.437533
-0.567499 3.35403 -0.362961
-0.713468 3.36317 -0.386152
-1.18824 3.00183 -0.644183
-0.893011 3.06181 -0.393683
-0.882577 3.02419 -0.410613
-0.35551 2.88734 -0.254434
-0.286483 3.07001 -0.315761
-0.217035 3.34015 -0.583097
-0.207433 3.21246 -0.407763
-0.206925 3.16288 -0.533384
-0.325646 3.22984 -0.346391
-0.372653 3.41558 -0.343909
-0.971285 2.85607 -0.508181
-0.826726 2.90547 -0.424477
-0.766113 2.84228 -0.420719
-0.870565 2.98335 -0.421493
-0.856863 2.95012 -0.424899
-1.18058 2.97871 -0.657316
-0.399265 3.06774 -0.519525
-0.506328 3.10204 -0.497391
-0.357341 3.21488 -0.631788
-0.447378 3.4904 -0.507134
-0.375927 3.3816 -0.637791
-0.578143 3.22055 -0.512439
-1.2476 3.13264 -0.550427
-1.27617 3.12277 -0.395843
-1.20138 3.22002 -0.866612
-1.22884 3.0803 -0.74805
-1.53574 3.14039 -0.527723
-1.37071 3.08332 -0.671895
-1.4054 3.04708 -0.715517
-1.02733 2.83823 -0.544781
-1.11886 2.8867 -0.627634
-1.235 2.96763 -0.884633
-1.19201 2.95304 -0.834352
-1.19624 2.92608 -0.859498
-1.19183 2.96979 -0.806403
-1.21368 3.02712 -0.878888
-1.29371 2.55489 -0.447958
-1.323 2.79246 -0.770861
-1.21977 2.56082 -0.46387
-1.40358 2.96749 -0.809332
-1.46565 2.85532 -0.859647
-1.5196 2.89478 -0.695555
-1.2356 2.84619 -0.858437
-1.35463 2.88515 -0.961148
-1.27707 2.86923 -1.12132
-1.23242 2.9996 -0.866249
-1.24062 2.97308 -0.880654
-1.3184 2.98317 -0.867865
-1.37209 3.07451 -0.208929
-1.6046 3.0048 -0.406736
-1.5176 3.08905 -0.27143
-1.5029 2.96081 0.00715779
-1.68039 2.92657 0.196697
-1.36699 2.3015 -0.355839
-1.40121 2.53587 -0.385333
-1.78282 2.38535 -0.130032
-1.59145 2.42241 -0.253045
-1.75925 2.17834 -0.182032
-1.49656 2.68062 -0.436949
-1.59287 2.8185 -0.493463
-1.85053 2.35425 0.5713
-1.86294 2.14241 0.641987
-1.85042 2.79163 0.358542
-1.85248 2.57157 0.473294
-1.85055 2.1448 0.238165
-1.92837 2.36259 0.348715
-1.85034 2.36093 0.123101
-1.63912 2.77314 -0.191186
-1.76266 2.57007 -0.010646
-1.82396 2.79556 0.0875521
-0.252407 2.56562 -0.0583746
-0.281099 2.59908 -0.113799
-0.205288 2.49813 0.124645
-0.231748 2.53411 0.0223729
0.185236 2.46064 0.108798
0.00961015 2.46413 0.0962136
0.209338 2.46041 0.227952
-0.375898 2.31453 0.521573
-0.304834 2.40844 0.471375
0.082566 2.36422 0.612189
-0.103948 2.39917 0.561521
0.00482389 2.28147 0.696746
-0.235502 2.46049 0.372827
-0.193226 2.46627 0.261581
0.705835 2.00459 0.505481
0.556265 2.12593 0.549223
0.644661 1.96954 0.630639
0.400473 2.38324 0.37086
0.486773 2.27826 0.456938
0.506853 2.29081 0.324926
0.315616 2.135 0.681299
0.443952 2.23304 0.618226
0.245421 2.29055 0.602912
0.0183984 2.46017 0.319269
0.153171 2.41377 0.480543
0.220525 2.45969 0.3628
-0.740839 2.24953 0.555721
-0.579887 2.26071 0.544989
-1.04992 2.27146 0.701934
-0.937288 2.26535 0.615107
-0.482206 2.0391 0.715921
-0.725223 2.14016 0.629747
-0.653728 2.0081 0.711697
-1.57666 2.04386 0.850184
-1.44113 2.1047 0.958475
-1.11204 1.89315 0.751969
-1.2762 2.04071 0.812879
-1.19987 1.77767 0.798256
-1.27541 2.21524 0.924768
-1.19743 2.27229 0.85717
-0.364179 1.34173 1.04324
-0.547726 1.44702 1.05531
-0.480599 1.26043 0.967817
-0.557191 1.81655 0.79787
-0.540149 1.65904 0.926339
-0.381543 1.77011 0.983315
-0.821552 1.4685 0.79993
-0.659571 1.54877 0.859966
-0.879331 1.69833 0.79598
-1.04688 2.13605 0.715593
-0.977495 1.9464 0.720023
-0.82117 1.99287 0.714635
-1.72294 1.96141 0.531137
-1.66841 1.97967 0.698871
-1.76845 1.94317 0.147515
-1.76168 1.94392 0.329482
-1.67575 1.49547 0.594212
-1.75627 1.70209 0.45237
-1.7126 1.46814 0.362821
-1.30706 2.0585 -0.403642
-1.48781 2.00763 -0.352775
-1.6237 1.50006 -0.303733
-1.57914 1.7555 -0.348235
-1.49742 1.52778 -0.443611
-1.631 1.97041 -0.238801
-1.68022 1.95874 -0.0609481
-1.43811 0.606875 0.141839
-1.33684 0.845175 0.0128134
-1.43829 0.652591 -0.149698
-1.63224 1.19415 0.237491
-1.42268 1.07032 0.120897
-1.41571 1.07333 0.353649
-1.34624 1.12475 -0.209306
-1.42543 1.07293 -0.0771346
-1.57767 1.22738 -0.21403
-1.78099 1.70251 0.0184659
-1.68555 1.468 -0.0988289
-1.78261 1.43066 0.127572
[...]
POINT_DATA 642
SCALARS Mean_Curvature double 1
LOOKUP_TABLE default
-0.674071
-0.363128
2.77427
5.20686
6.09737
-1.09887
-0.0159948
-0.141673
3.19903
-2.20435
-0.802505
8.15006
3.28454
2.8508
-1.1922
-0.693765
7.88466
14.3876
0.965719
1.68174
9.0341
4.74458
2.39463
1.93941
5.4886
0.6964
3.32636
4.19822
-0.43967
2.65066
4.03919
-0.467522
7.38548
1.74228
2.13136
6.37555
0.238835
6.63715
3.05123
-2.83852
-1.42688
1.88908
-2.17159
3.9683
2.37298
3.49425
3.23264
4.32765
-1.00329
2.09888
-0.74374
-1.704
3.53499
-0.914061
-0.648565
4.52766
-0.43523
-0.40057
2.80414
-0.256712
12.1063
5.26359
-0.254772
2.18732
-0.562526
0.693724
2.81453
-0.532896
13.4122
5.41969
14.8572
9.0089
1.91613
-0.235178
-0.791543
0.280919
1.33887
-0.279704
-1.35117
4.26649
4.4505
4.63808
-1.36712
3.091
-1.57587
0.554662
-1.67479
1.62799
1.77547
0.320855
-1.2283
5.70638
1.98545
3.27323
1.73453
-0.950942
2.75648
-1.82952
-0.238134
-0.947923
-0.252214
-0.340029
3.55159
-0.765763
1.46967
0.0624096
0.28521
-0.551441
0.628738
2.18406
-1.10681
4.24961
3.41071
3.48056
3.0805
1.25939
1.28305
3.88334
4.44217
-0.957476
2.05766
-0.917506
-0.0193095
-1.568
5.59697
-1.8149
0.0335245
2.41587
1.73072
2.51367
4.20946
-0.134724
3.38326
0.16693
2.23019
-1.38808
4.5674
3.92534
-1.4615
1.13453
1.1286
3.65588
4.54602
2.22898
-0.952883
-1.52717
2.65389
5.21333
4.6085
0.337215
3.59904
-2.0537
3.5666
-2.09592
-1.41836
3.27006
3.07879
-0.98853
-0.341693
-0.322607
5.53958
1.29915
-1.1211
-1.7526
0.535229
3.13395
-0.49883
1.61881
0.999777
3.91445
4.27169
4.4689
3.89749
5.12254
0.261981
3.93306
2.48095
1.95209
3.6187
6.27444
-0.933881
-0.743332
-1.15372
-2.10013
-1.4715
-1.13983
-1.86709
0.966289
-1.75533
3.20233
1.87871
7.92819
8.10179
6.01735
-1.27977
3.69095
4.93052
6.57202
-0.186912
-0.955174
-0.983267
-0.822881
-0.708798
-0.914833
-0.975064
-0.871136
-1.17685
6.6749
0.667735
-1.72961
12.996
-1.86174
-0.27493
4.00162
-0.169242
-1.06136
-0.2327
0.156509
-0.366292
-0.161561
0.918708
9.96151
2.47964
-0.0626845
0.131008
-0.854881
5.15656
10.2961
10.1058
6.12486
-3.16073
9.72327
-0.613843
-0.0213871
0.099081
0.17113
0.037149
-0.293715
4.39878
-1.15989
7.12616
10.0484
9.32702
4.29902
7.63706
0.360906
14.4574
1.92221
9.20799
1.88282
2.1576
-0.304604
-0.440779
10.0725
16.2959
16.3205
7.99225
10.7231
-0.316601
-0.457471
-0.0751272
1.74182
11.8787
1.27695
13.4286
1.33885
13.7467
1.23541
2.83681
-0.470418
0.479906
3.67886
6.18298
1.26101
3.11945
-1.15945
-0.874917
4.00526
0.567836
4.61789
-1.19327
4.88277
-1.32994
4.26949
5.21391
0.432387
1.00324
4.83533
0.483988
1.07078
-0.489968
5.48931
-0.79314
-0.662845
-1.13375
-0.946501
2.00419
-2.07127
2.1578
-2.43966
3.25642
4.67293
2.66544
5.73525
2.57091
-1.56989
2.75514
-0.076332
4.93511
5.92147
3.11065
1.40868
-0.102193
7.52306
2.25728
0.621732
1.78322
5.75556
-1.2006
-0.419207
1.05745
-1.69062
-0.632647
-0.784228
0.656103
1.49236
6.48714
-2.10755
-0.702972
0.684004
5.64675
3.41096
1.16104
8.04766
-1.06775
-3.04492
1.44602
4.85352
-2.22945
-1.5958
-1.17378
-1.63833
-1.83851
0.784533
-1.59868
0.317057
-0.796332
-1.76215
4.74541
1.35375
-0.448735
-1.36704
1.49979
3.4385
2.54087
5.31551
1.86476
-3.33187
8.44057
-1.47225
8.61373
3.03968
-2.54714
-0.116
-1.26286
1.17261
5.01345
1.81316
0.221718
3.89288
-0.259576
-0.666029
-0.265564
-0.191968
-0.0721418
-0.239961
-0.762934
-0.203676
-0.411838
-0.111999
-0.454078
-0.152722
-0.687864
-0.48484
1.47188
8.25234
0.631227
-0.731257
-1.26706
-1.72569
-0.553357
-1.17594
-0.728482
-0.282314
0.0167439
-0.0375814
-0.174918
0.06297
-0.398632
-0.762237
0.0601783
0.545002
0.191236
-0.419234
0.0951308
-0.35846
-0.441651
-0.114005
-0.617388
18.1112
-0.234275
-1.08411
4.25858
-0.909729
6.09044
1.97204
-1.18279
4.21487
-0.283119
0.82761
-0.0212329
0.137461
2.26338
2.54723
1.45635
2.37817
4.40887
5.89613
5.99177
-1.82527
1.31746
5.65421
2.30323
-1.87436
2.48332
-0.712733
3.73349
-0.279142
1.07594
-3.66242
2.83744
-0.0926242
-0.846196
2.25759
3.88783
-1.51135
1.6732
3.79252
1.55525
0.719178
0.222195
0.205894
-0.0235114
0.519837
2.71079
0.151979
0.219861
0.232609
0.144639
-1.58048
-2.07549
6.77633
7.06085
-0.0389576
-1.73022
6.01273
3.55867
4.15767
0.822121
-0.00445144
-0.799879
0.0727361
1.64687
-1.30965
1.14815
0.806216
-0.131373
0.0634673
1.56679
3.08898
-1.26709
0.150378
3.19792
4.10305
4.35656
6.63224
1.40189
7.45876
3.63704
3.69492
-0.0759095
0.113975
0.187728
5.97645
1.53888
1.40405
1.38873
-2.64237
-2.26331
-2.84404
1.42569
0.954001
6.38488
4.12006
-0.232289
3.6643
2.23555
3.16149
0.18222
-1.677
0.894734
-0.00654458
3.13441
0.659163
0.0590225
1.46484
0.90883
-0.544298
2.53398
2.44293
2.3551
2.00503
-0.740198
-1.90699
-1.23261
2.72136
3.71615
5.35392
2.81622
1.09676
2.00532
5.99403
5.71875
3.28871
4.48744
3.17498
-0.327814
-0.127857
5.15569
5.67591
6.31625
-1.23686
3.49588
7.29641
-2.23667
-2.17677
2.59511
-0.96536
-0.938648
1.3698
-1.66183
4.18116
1.52933
5.40521
-1.13533
2.08667
3.34104
-1.45942
-0.503322
-2.17582
5.44424
-3.48421
3.16064
-2.43064
-1.39772
0.878882
-3.44956
1.00589
-0.550995
1.68505
0.492317
7.53985
8.17783
-1.6225
-1.18142
-1.37907
1.02247
-1.51499
-1.31707
-1.9701
-1.98573
2.9994
0.834784
4.08233
-0.67359
-0.155166
0.650182
-2.71624
6.67542
-1.08466
-0.542242
1.14294
-1.09497
4.54908
1.84555
-2.87747
-1.46143
-1.50475
-1.41019
1.67913
6.78928
-2.53177
0.301971
-1.37637
-0.126832
-2.28186
-0.426057
0.21048
0.497888
-0.783001
-1.51112
2.86742
4.33087
-0.056522
6.13194
5.08318
-0.0186072
-0.0661199
-0.136449
-0.273161
-0.455709
-1.50906
-0.486441
-0.341876
2.78191
1.84187
2.60816
-0.592697
0.589429
1.42834
3.89499
0.730013
0.151267
4.75331
-1.05368
3.95825
1.97094
0.365235
10.0438
-0.668004
2.02613
0.686848
SCALARS Redistribution_Potential double 1
LOOKUP_TABLE default
0.000275593
1.23311
-3.2316
-0.725171
-3.04268
-1.68504
-0.0718083
0.799693
1.52191
0.148489
-0.680514
-3.72824
-2.74376
-3.41809
-1.42927
0.326755
1.42058
2.04509
0.491489
0.581919
0.00653368
-2.88386
-0.654379
0.772566
-3.75545
-2.5058
-2.67268
-3.82767
0.655089
-0.549808
1.38057
1.28254
-0.149661
-1.49331
-2.09909
-3.30432
-2.24027
-1.80043
-0.410366
0.952783
0.628501
1.07655
-1.41977
-2.39177
-0.712233
-3.73923
-3.28123
-3.45254
-1.72047
-2.71881
-2.63242
0.459136
0.769242
-0.622088
-0.258791
1.5388
0.941823
0.982992
1.43332
0.428313
1.641
1.94496
0.588873
1.61972
1.47074
0.575042
-0.0647467
0.568475
0.787557
0.0672789
0.48185
0.43102
-1.51647
-1.86332
-1.54995
-2.8728
-3.54517
0.511078
0.965842
-1.04854
-0.219058
0.544647
0.194444
-0.230602
-3.01667
-2.19643
-3.90858
-3.68822
-2.82243
-3.20079
-3.32603
-3.52355
-3.92089
-2.04156
-2.8576
-3.46812
-3.38189
-3.0514
0.263578
-0.568561
0.767929
0.516017
-0.348679
0.267738
0.349526
1.39974
1.18429
1.22952
1.38378
1.49249
1.39249
1.55127
-0.50104
-1.02053
-1.33595
-0.613959
-0.75308
0.0435923
-2.71419
-1.84721
-2.42154
-2.18927
-1.3972
-3.26325
-2.86515
-2.87315
-2.97452
-3.40795
-1.31674
-0.545765
-2.63916
-2.12024
-0.251358
-1.18232
-0.862439
0.202682
-0.0282153
0.470883
0.373123
1.10856
0.887342
1.30023
0.250885
1.35341
0.891642
0.525856
0.661378
-2.07248
-1.09572
-1.63586
-3.618
-3.59799
-3.95363
-1.27088
-2.24233
-1.73826
1.26042
0.813939
1.00458
1.01896
1.39717
1.18429
-0.510647
-1.25864
-0.265298
-2.63204
-2.00569
-2.2842
-1.09453
-1.76852
-2.00197
-3.77997
-3.64701
-3.64043
-3.3718
-3.56664
-3.6136
-3.14944
-3.40957
-3.09925
-1.69292
-2.30881
-2.07973
-2.26755
-2.30411
-1.66362
-3.03848
-2.76221
-3.08246
-2.92332
-3.03798
-2.6433
0.209827
0.454498
-0.475518
-0.067509
1.23904
0.757283
1.01018
-1.15874
-1.12811
0.112954
-0.485456
-0.0965878
-1.01376
-0.860619
1.40929
1.30165
1.15695
1.24689
1.28336
1.52053
0.70542
1.05849
0.603071
0.0921982
0.405195
0.787814
0.665669
0.357895
1.54695
1.30203
0.482107
0.767131
0.806746
1.42103
1.62253
2.02875
1.84998
1.94466
1.70017
1.79329
0.713393
0.90735
0.99102
0.838915
0.863571
0.503767
1.74116
1.61974
1.89732
2.12467
1.9781
1.57651
0.244546
-0.0328822
0.653076
0.548693
0.088738
0.319596
0.324772
0.637654
0.574475
0.690653
0.618358
0.598256
0.613529
0.707745
-0.419672
0.308186
-0.223541
0.392075
0.332811
0.0724388
0.513946
0.469369
0.510729
0.680741
0.685154
0.554707
-0.627769
-0.499676
-0.642149
-1.52713
-2.28293
-1.15807
-0.801738
-2.32552
-1.67532
-2.45619
-0.706223
-0.521809
-3.50777
-3.69029
-2.82885
-3.21571
-3.26804
-3.23701
-2.87396
-1.46376
-2.29806
-2.32445
0.924196
1.0709
0.4133
0.697942
0.859739
0.744397
0.636181
-1.32178
-0.867944
-0.441455
-0.643407
-0.828274
-0.403876
0.00436638
0.320075
0.176824
-0.00880348
0.511822
0.385866
0.677832
-0.435415
-0.00666954
-0.226065
0.188941
-0.0111781
0.355133
-2.40005
-1.96773
-3.24786
-2.91272
-2.34867
-2.64963
-2.76908
-3.89815
-3.86506
-3.6957
-3.82157
-3.85492
-3.75844
-3.62741
-2.9795
-3.08236
-3.1805
-2.87837
-3.00495
-2.63675
-3.55373
-3.26284
-3.52049
-3.37326
-3.45454
-3.13171
-3.73414
-3.87249
-3.27179
-3.54143
-3.91637
-3.77611
-3.75002
-1.38328
-1.95405
-2.81879
-2.46405
-2.46312
-2.45151
-2.86784
-3.37361
-3.24859
-3.17131
-3.64044
-3.47263
-3.69421
-2.90066
-3.19771
-3.05814
-3.24367
-3.17186
-3.49643
-0.0947342
-0.559262
0.409629
0.300213
-0.580834
0.0255421
-0.0341676
0.77057
0.6272
0.600495
0.623241
0.723375
0.519468
0.472364
-0.178726
0.00570804
0.112715
-0.0414735
-0.0385751
-0.457824
0.513586
0.25401
0.480504
0.423204
0.449932
0.274053
1.29914
1.03623
1.75059
1.55388
1.19572
1.33936
1.25578
1.22712
1.35674
1.30141
1.30655
1.27087
1.54906
1.82961
1.54193
1.55092
1.56023
1.35407
1.47692
1.40939
1.49653
1.51014
1.40413
1.39641
1.30154
1.28257
-0.616318
-0.886536
-0.98953
-0.565208
-0.760943
-0.346205
-1.71112
-1.23046
-1.57685
-0.226618
-0.268473
0.10387
-1.12745
-0.671635
-0.993353
-0.0656666
-0.32835
-0.384355
-2.93989
-2.54916
-2.83769
-1.98239
-2.28985
-2.40138
-1.97118
-2.12184
-1.65348
-0.854194
-1.26955
-1.42145
-1.38768
-1.08615
-2.16126
-1.79535
-1.81395
-1.82597
-2.23237
-3.18398
-3.0389
-3.02864
-3.1112
-3.31269
-2.81969
-2.53521
-3.12032
-3.19386
-3.34006
-2.68007
-2.95201
-2.59061
-3.33262
-3.23004
-3.18541
-2.60091
-2.91352
-2.64455
-0.989955
-0.619293
-1.78306
-1.37061
-0.477971
-0.908546
-0.855078
-2.96072
-2.7653
-1.95039
-2.38649
-2.15634
-2.51333
-2.2114
-0.120589
-0.641086
-0.352318
-0.77627
-0.730288
-0.365666
-1.32324
-1.10697
-1.46865
-1.73688
-1.62253
-1.25101
-0.226759
-0.331166
-0.0904643
-0.152608
0.301234
0.145961
0.464931
0.193741
0.16503
0.674608
0.444799
0.731744
0.0853215
-0.0398767
1.40158
1.24482
1.47133
0.779583
1.03056
0.873953
1.16732
1.11217
0.939727
0.24806
0.65132
0.553692
-0.247529
0.348206
0.120176
-0.13266
0.0655256
1.45417
1.29104
1.00026
1.16508
1.22445
1.03073
0.722533
0.362602
0.446237
0.160729
0.303213
0.887539
0.610046
0.822511
0.521318
0.722442
0.324654
-2.65821
-1.82695
-2.24929
-2.4485
-2.29111
-0.430067
-0.877819
-0.65023
-0.838166
-1.30063
-1.60766
-2.06774
-1.86053
-1.33027
-1.10451
-1.61626
-1.36837
-1.87644
-3.48962
-3.07515
-3.47472
-3.60403
-3.76687
-3.34106
-3.72808
-3.52196
-3.4358
-3.48804
-3.96147
-3.93249
-3.99115
-3.97203
-3.89421
-3.57163
-3.80474
-3.80197
-0.59333
-1.5645
-1.07541
-0.830828
-0.960986
-2.9149
-2.49691
-2.70862
-2.43017
-1.98478
-1.33567
-1.16209
-1.27048
-1.88471
-2.24633
-1.78244
-2.03898
-1.51548
1.4566
1.14016
1.31934
1.40514
1.3143
0.420759
0.721767
0.608848
0.685443
0.883013
0.974258
1.15721
1.07845
0.885283
0.817051
1.04032
0.932009
1.13222
0.636348
1.07656
0.876272
0.799769
0.916681
1.51113
1.43434
1.50171
1.41442
1.27522
1.11125
1.00941
1.05292
1.19989
1.31446
1.22422
1.31075
1.13205
SCALARS CoVolArea double 1
LOOKUP_TABLE default
0.0269339
0.00401879
0.0353728
0.0353391
0.0193284
0.018211
0.0137834
0.00756355
0.0136178
0.022355
0.0233248
0.0427041
0.0447245
0.0269449
0.0270472
0.0218437
0.0209983
0.020149
0.013538
0.0116129
0.0341034
0.0517924
0.0246611
0.0232922
0.0450313
0.0336883
0.0459221
0.061226
0.0257593
0.0481876
0.0242546
0.0204689
0.0436137
0.039274
0.0542174
0.0594907
0.0643463
0.0446257
0.0415349
0.0312167
0.0325387
0.0264722
0.0450127
0.0373607
0.03927
0.0428439
0.0448338
0.0501187
0.0275993
0.0261832
0.0246875
0.0259319
0.0315784
0.0273397
0.0273118
0.0145068
0.0192051
0.0127564
0.029848
0.0207615
0.016543
0.0288199
0.0142308
0.0238222
0.0215524
0.0128303
0.0315251
0.00740098
0.00722431
0.0390357
0.0256872
0.0219138
0.0495637
0.0492571
0.0481694
0.0551359
0.0459099
0.0239299
0.0174927
0.0286584
0.028557
0.0262063
0.0264724
0.0275256
0.0246475
0.027554
0.040313
0.0272053
0.0393821
0.0413452
0.0425524
0.0599837
0.04513
0.0431211
0.0507803
0.0546071
0.0576736
0.0395528
0.0166357
0.0367946
0.0120954
0.0101841
0.0395772
0.0296468
0.0326397
0.00980433
0.0160461
0.0137672
0.0153082
0.0283599
0.0202553
0.0248596
0.0625156
0.0520295
0.058793
0.0316742
0.0426165
0.0293257
0.0476511
0.0505608
0.0424724
0.066317
0.051166
0.0372687
0.0666915
0.0576064
0.0603954
0.0501729
0.0564517
0.0463571
0.0418421
0.0572808
0.0431878
0.0441992
0.0358885
0.0427606
0.0419354
0.0287334
0.0380478
0.0307925
0.0352005
0.0317496
0.0435179
0.0243122
0.0277164
0.026782
0.0279796
0.0340542
0.0335274
0.0309579
0.0550855
0.0459305
0.0525094
0.0439467
0.0414426
0.047941
0.0326856
0.0301789
0.0306192
0.0259547
0.0286644
0.0270988
0.0384158
0.0397383
0.0391787
0.0435543
0.0388676
0.0425097
0.0300915
0.031656
0.0317576
0.0488568
0.0458629
0.0509568
0.0340209
0.0416721
0.0307016
0.0475393
0.0464911
0.0482699
0.0223249
0.024282
0.0219484
0.0285161
0.0238105
0.0269271
0.0237879
0.0215599
0.0253556
0.0455297
0.0357207
0.0380337
0.0404411
0.0324097
0.0298935
0.0354863
0.0233007
0.0278116
0.0183876
0.0254176
0.0262062
0.0221189
0.0267761
0.0257218
0.0289105
0.029158
0.00923503
0.0130615
0.00783703
0.0181545
0.0161497
0.017016
0.0171857
0.0145909
0.0181915
0.0297374
0.0230698
0.0232181
0.0295799
0.0276162
0.028298
0.0312557
0.0111936
0.0235216
0.0189356
0.00817078
0.0132244
0.0251708
0.0245432
0.0199344
0.0207577
0.0291398
0.00900442
0.0208902
0.016273
0.0161383
0.0193705
0.0125051
0.0196155
0.0229731
0.0262071
0.0377652
0.0329676
0.0341681
0.0244037
0.0278625
0.0158094
0.0157793
0.0349583
0.0230073
0.0203171
0.00593751
0.00510877
0.00649779
0.00665397
0.0084441
0.0093863
0.0129939
0.0332386
0.0315854
0.0240397
0.0221267
0.0256406
0.031701
0.0149471
0.0217835
0.0223729
0.00741501
0.0125604
0.0124558
0.0383872
0.047389
0.0410482
0.0428822
0.0472181
0.0413302
0.0440939
0.0503493
0.0471752
0.0490736
0.0430834
0.0459282
0.0484172
0.0468942
0.0523525
0.0494918
0.0477832
0.050564
0.0527055
0.0573782
0.0578419
0.0605713
0.0134851
0.00786477
0.0246685
0.0190194
0.0236816
0.0203572
0.0233238
0.0304152
0.0292336
0.0263243
0.0279139
0.0246371
0.0279968
0.0271393
0.0270251
0.0276201
0.0275715
0.0225871
0.0236172
0.0204468
0.0265473
0.0276644
0.0279149
0.0282441
0.0277962
0.0258686
0.0254091
0.0262007
0.0257816
0.0230848
0.0312087
0.0259071
0.0322025
0.0426566
0.0430278
0.0385544
0.0323668
0.041802
0.0304553
0.0244954
0.0276353
0.0392426
0.0336854
0.0365311
0.0404544
0.0355982
0.0429931
0.0407878
0.0455402
0.0291384
0.0391804
0.0341009
0.0442362
0.0409189
0.0530851
0.0483162
0.060083
0.0535287
0.0632663
0.0411726
0.0463248
0.0503548
0.0451359
0.0439598
0.0455703
0.0522988
0.0513803
0.0481396
0.0500908
0.0622758
0.0528629
0.0578859
0.043249
0.0432573
0.0527544
0.0615921
0.0602125
0.0666286
0.0282783
0.0301805
0.0111409
0.0190864
0.0428351
0.0297065
0.0349335
0.0103677
0.0086273
0.0174759
0.0101632
0.0176608
0.00988057
0.00916282
0.0259377
0.0362213
0.0264528
0.0390618
0.0368369
0.0420216
0.029037
0.0331053
0.0272957
0.0117621
0.018855
0.0235112
0.016006
0.0134384
0.0141669
0.012788
0.0177458
0.0135086
0.0129161
0.00789181
0.0102953
0.0183106
0.0160455
0.0210257
0.0160383
0.0145825
0.0228195
0.0270198
0.0238855
0.0172674
0.0247663
0.0240776
0.0232016
0.0243897
0.020746
0.01126
0.0134835
0.0116839
0.0455422
0.0565856
0.0466749
0.0534903
0.0552122
0.0662893
0.0594366
0.0544877
0.055269
0.0310034
0.0321024
0.0302204
0.0405382
0.0339316
0.0354837
0.0248128
0.0332846
0.0402613
0.0355883
0.0433551
0.0309611
0.0505598
0.0469037
0.0522031
0.0402453
0.044788
0.0449022
0.054979
0.0529295
0.0572369
0.0524537
0.044433
0.0612675
0.0597289
0.0612999
0.0600318
0.0692734
0.0333749
0.0379059
0.0717511
0.0531112
0.0496179
0.0515764
0.0575958
0.0495693
0.062102
0.0473067
0.0638127
0.0579441
0.0547603
0.0575266
0.0544821
0.0622884
0.0676791
0.0704711
0.0712129
0.0506559
0.0498975
0.0618614
0.0567527
0.0468206
0.0529938
0.0512853
0.0446663
0.0470785
0.0583612
0.0458927
0.043762
0.0491668
0.0582269
0.0290882
0.0405977
0.0286139
0.0443544
0.0419969
0.0407951
0.0346063
0.0341487
0.0467918
0.0611516
0.0607259
0.0539116
0.0427579
0.0416521
0.0432601
0.0426109
0.0398119
0.0388319
0.0361318
0.0234997
0.0300101
0.0305038
0.0287839
0.028211
0.0380001
0.0400202
0.0278929
0.0335057
0.0265521
0.0321885
0.0285034
0.0250796
0.028584
0.0290431
0.0323642
0.0485617
0.0418317
0.0446734
0.0532895
0.0387059
0.052447
0.0660764
0.0504946
0.0227033
0.0270524
0.0243043
0.0249824
0.0249465
0.0273326
0.0309379
0.0278375
0.0271648
0.0273451
0.0256452
0.0279799
0.0284372
0.0259519
0.0339765
0.0290799
0.032593
0.0343941
0.0367149
0.0351763
0.0349562
0.0323809
0.0305462
0.0284608
0.0280345
0.0319693
0.0378287
0.0312999
0.0325334
0.0305478
0.0286839
0.0274029
0.0367615
0.0335367
0.0341001
0.0463338
0.0727395
0.0587017
0.04744
0.0473952
0.0408592
0.0445479
0.0420575
0.0437135
0.0482917
0.0398118
0.0597624
0.0524714
0.0466915
0.046755
0.0550159
0.0528167
0.0522409
0.0349919
0.0411522
0.0353777
0.0396073
0.0461635
0.0439185
0.0424593
0.041998
0.0425693
0.0405284
0.0431422
0.0523394
0.0464814
0.0448217
0.0432859
0.0458631
0.0452655
0.0505697
0.0301237
0.0322919
0.0289067
0.0287244
0.0305632
0.0304108
0.0291191
0.0282575
0.0299989
0.0312664
0.0155885
0.0267684
0.0212367
0.0220844
0.0288441
0.0351189
0.0340097
0.0353126
0.0273361
0.0278382
0.0257839
0.0240504
0.0235059
0.0259284
0.0273097
0.0244105
0.026332
0.0288238
0.0156936
0.0253707
0.0243553
0.0235521
0.0265704
0.0301344
0.0292361
0.0271512
SCALARS SignedDistance double 1
LOOKUP_TABLE default
1.11456
1.19328
-0.00365974
0.0722857
-0.00624226
1.08363
-1.32532e-05
1.22276
0.00935111
-0.00944239
1.16218
0.385881
-0.0224393
0.12603
0.484325
1.1734
0.142386
-0.196255
0.25345
-0.53443
-0.125915
0.261151
-0.00321635
-0.00387663
-0.00251263
0.0401973
-0.0181321
0.33677
0.944756
0.0614024
-0.0513938
1.08114
-0.0031573
0.0408009
0.00503637
0.319382
0.000209239
0.220456
-0.00274447
0.00234383
0.0208989
-0.0123872
0.0083231
0.159695
-0.00548689
0.22576
-0.00247209
0.265633
1.12212
0.0680878
0.39377
0.58762
0.00794838
0.72643
1.20792
-0.0323416
0.0612911
1.22243
0.00686345
0.513444
-0.0160069
-0.0928095
1.13931
-0.0075307
0.477535
-1.01465
0.033803
1.11114
-0.0125124
-0.550811
0.0431977
-0.0583407
-0.00401277
0.0197671
0.000775687
0.01585
-0.00348928
0.0126264
0.82778
0.0723877
0.0104462
-0.00384325
-0.011254
0.0388654
0.597154
0.0259654
0.679865
0.0932862
0.000741953
0.0048707
0.819157
0.408858
-0.000490318
0.140677
-0.00386133
0.916358
0.00643731
0.6711
1.25956
0.649425
1.2712
1.25871
0.0221254
1.07512
-0.000135644
1.12692
1.22501
1.18276
1.15306
-0.0258929
0.920223
-0.0722673
0.0273025
0.092131
0.00608588
0.0290569
0.000200845
0.0289775
-0.00400909
-0.0217064
-0.0453698
-0.0935123
-2.62908e-06
0.0128283
-0.0105747
-0.146946
1.00844e-07
0.188454
-0.00102542
0.0495646
0.00490502
-0.00649397
0.00170954
0.00844868
-0.00361629
-0.00404217
-0.0263664
-0.00219878
-0.0188169
-0.00906969
-0.00212127
-0.0449237
-0.0193543
-0.0159816
-0.00018416
1.01383
-0.000221734
0.142399
-0.0102248
-0.00343189
-0.0135557
0.512237
0.00405398
0.227663
1.00812
0.109115
-0.00753257
0.0109016
1.10372
0.00206868
-0.00689201
0.0122528
0.939379
-0.0653093
0.00334678
0.169241
0.000418857
0.0793918
-0.00984311
0.115149
0.0341136
0.301816
-0.00829046
0.330025
0.0152806
0.233771
-0.0210621
0.123042
-0.0037113
0.31818
1.09703
0.512751
0.532326
-0.0154951
0.260411
1.07584
0.0616108
0.0376626
0.0124658
0.198274
-0.00473606
0.250275
-0.00710027
-0.0216815
1.07029
0.00102053
-1
-0.0361527
0.100153
1.09333
1.15436
1.252
1.20835
1.11303
1.19314
1.15038
0.290197
-0.0306882
1.20107