# vtk DataFile Version 4.2
vtk output
ASCII
DATASET POLYDATA
POINTS 642 double
-1.62986 4.19159 -0.0964699
0.834458 4.11528 -0.0782864
-1.64273 -0.00887073 -0.0204467
1.0018 -0.00974247 -0.0140913
-0.341068 0.80192 2.02797
-0.413788 3.3027 1.8953
-0.327812 0.854695 -1.98837
-0.42698 3.43158 -2.12193
1.64559 2.06999 -1.196
1.69324 2.03989 1.18811
-2.37087 2.19123 -1.29895
-2.41853 2.13003 1.2524
-2.32186 3.34519 0.723344
-1.57736 2.86023 1.90406
-1.09832 4.01716 1.14393
0.318971 3.97138 1.04334
-0.333702 4.52306 -0.0573562
0.354377 4.07361 -1.21626
-1.14113 4.1825 -1.317
-1.59261 2.95018 -2.04801
-2.3463 3.40481 -0.838052
-2.75711 2.13525 -0.00981986
0.809534 2.78244 1.7955
1.51547 3.20533 0.672043
-1.54664 1.33387 1.90577
-0.351955 2.07723 2.28453
-2.27588 0.873364 -0.750507
-2.29523 0.863459 0.736828
-0.394559 2.20329 -2.32602
-1.51142 1.40538 -1.88758
1.46929 3.26281 -0.719003
0.767353 2.86075 -1.85165
1.70988 0.853107 0.735435
0.869815 1.32658 1.88297
0.449804 0.0985644 1.2094
-1.11712 0.0804684 1.21428
-0.334628 -0.344798 -0.0247257
-1.08891 0.127501 -1.22208
0.434251 0.133342 -1.22533
0.831915 1.3488 -1.86758
1.68261 0.867074 -0.756868
2.06108 2.01787 -0.0151232
-2.02068 3.84783 0.3284
-1.78945 3.76859 0.983148
-1.40259 4.17566 0.546461
-2.06439 2.51483 1.64962
-2.02491 3.15709 1.39592
-2.45616 2.76032 1.03159
-0.754599 3.7056 1.60254
-1.39671 3.51029 1.60538
-0.976946 3.14447 1.98467
-0.73458 4.37978 0.54503
-1.03266 4.43302 -0.0808204
-0.0280467 3.6806 1.52041
-0.370669 4.09276 1.13323
0.269562 4.41699 -0.0660653
0.0202791 4.36041 0.530031
0.602921 4.13383 0.5053
-0.776446 4.44596 -0.721939
-1.44328 4.28127 -0.743396
0.660657 4.17749 -0.619762
0.0213426 4.4213 -0.677655
-0.764609 3.85936 -1.82298
-0.41792 4.20381 -1.35069
-0.0336739 3.79208 -1.74066
-1.83269 3.88565 -1.12589
-2.03955 3.90115 -0.46474
-1.01644 3.24615 -2.20123
-1.42326 3.64163 -1.78774
-2.44845 2.828 -1.12051
-2.06848 3.23457 -1.52708
-2.0547 2.59469 -1.73736
-2.42077 3.42988 -0.0473786
-2.64886 2.15249 -0.675058
-2.64714 2.80073 -0.441188
-2.66288 2.77014 0.374255
-2.67452 2.13811 0.678143
0.981906 3.65048 0.906022
1.18812 3.73063 0.288556
0.243501 3.04971 1.90915
0.628528 3.41079 1.48438
1.67468 2.6675 0.961683
1.24249 3.04993 1.28292
1.30633 2.43383 1.56174
-1.0011 2.50629 2.20098
-0.397296 2.7163 2.16914
-2.07144 1.75738 1.63546
-1.63648 2.12396 1.99841
-0.327833 1.40012 2.2297
-0.985089 1.71198 2.20238
-0.947443 1.0013 2.04877
-2.63909 1.48389 0.377144
-2.43638 1.52312 1.04792
-2.39257 1.50092 -1.03302
-2.62281 1.48343 -0.401455
-2.04109 0.354205 0.379889
-2.39698 0.810445 -0.0255754
-2.04015 0.36632 -0.412964
-1.60167 2.20967 -2.07864
-1.99662 1.80009 -1.66056
-0.41994 2.88064 -2.32855
-1.00609 2.61472 -2.3375
-0.909146 1.05898 -2.00906
-0.978741 1.8104 -2.22409
-0.333413 1.44692 -2.20705
0.59965 3.53169 -1.62592
0.166661 3.19378 -2.05281
1.20359 3.76204 -0.42246
0.978996 3.74645 -1.01251
1.25364 2.46291 -1.58201
1.19158 3.10678 -1.35818
1.6376 2.66846 -0.994013
1.4182 0.329821 0.358498
1.14991 0.378537 1.01014
0.790552 -0.0415877 0.592505
1.35618 1.67038 1.59224
1.37857 1.04381 1.38397
1.79481 1.41628 1.0047
0.0399379 0.405869 1.71377
0.710564 0.638407 1.63434
0.266488 1.02768 2.03519
0.0856765 -0.240975 0.63168
0.40462 -0.255732 -0.019082
-0.741241 0.374245 1.70256
-0.336259 -0.00581725 1.28634
-1.02755 -0.273087 -0.0197939
-0.749666 -0.247032 0.644154
-1.42505 -0.0448517 0.637238
0.0781226 -0.223681 -0.665984
0.757421 -0.0215114 -0.645658
-1.42462 -0.0285871 -0.624748
-0.749566 -0.230428 -0.653436
0.0430303 0.44976 -1.69342
-0.34149 0.0331348 -1.28545
-0.705204 0.443548 -1.70114
1.12395 0.406255 -1.02253
1.40772 0.341271 -0.393312
0.278926 1.06465 -1.99927
0.693907 0.689274 -1.63631
1.75274 1.42033 -1.00918
1.33265 1.06893 -1.38269
1.30316 1.68397 -1.59111
1.8147 0.79075 -0.0188927
1.94542 2.03063 -0.626453
2.0119 1.43443 -0.392966
2.02728 1.41656 0.37343
1.96121 2.04119 0.636006
0.284726 1.68092 2.19359
0.902109 2.07471 1.93689
0.263958 2.43676 2.14752
-1.79479 0.382571 1.03981
-1.39375 0.63303 1.67462
-2.00151 1.04626 1.41178
-1.34455 0.676719 -1.64118
-1.77131 0.417183 -1.04006
-1.96698 1.0773 -1.38214
0.858664 2.09846 -1.93276
0.254447 1.71878 -2.17546
0.209057 2.54503 -2.19123
1.88281 2.66231 0.349904
1.86229 2.66768 -0.376327
1.59283 3.28131 -0.0233761
-1.82436 4.04317 0.104002
-1.7474 4.01999 0.461935
-1.53056 4.19668 0.209852
-2.07899 3.57577 0.862173
-1.92029 3.8186 0.679284
-2.20515 3.59247 0.539743
-1.26114 4.11834 0.852429
-1.61338 3.98382 0.788923
-1.44668 3.91772 1.08749
-2.25939 2.32723 1.47014
-2.28078 2.65107 1.36745
-2.4604 2.45194 1.15269
-1.80608 3.02125 1.68187
-2.06771 2.83898 1.53842
-1.83968 2.68857 1.79339
-2.41035 3.06157 0.884788
-2.25968 2.96952 1.2319
-2.20624 3.25321 1.07173
-0.568285 3.50167 1.7755
-0.906104 3.44076 1.81154
-0.672096 3.23988 1.95394
-1.26737 3.78225 1.39095
-1.08457 3.63111 1.61758
-0.955088 3.88846 1.37589
-1.2678 3.0218 1.97272
-1.21361 3.33338 1.81689
-1.48883 3.20579 1.78097
-1.93462 3.47744 1.20501
-1.71843 3.35777 1.52666
-1.60976 3.65923 1.31752
-1.20269 4.33275 0.240637
-1.33702 4.3293 -0.106582
-0.915189 4.2125 0.858718
-1.07099 4.29296 0.561523
-0.689008 4.50289 -0.0611821
-0.869626 4.43275 0.244738
-0.526308 4.48128 0.250172
-0.225629 3.49842 1.7245
-0.39637 3.71623 1.57457
-0.0235754 4.06158 1.09661
-0.198236 3.90446 1.33586
0.162132 3.8439 1.28188
-0.575609 3.91808 1.37736
-0.753538 4.0756 1.15653
0.602526 4.2658 -0.0696553
0.452257 4.30247 0.227805
0.746033 4.13943 0.186873
-0.16365 4.47678 0.236893
0.158137 4.41029 0.237034
-0.0341891 4.49535 -0.0656785
0.485887 4.07276 0.762961
0.322085 4.27043 0.518307
0.17987 4.18915 0.799712
-0.562882 4.26856 0.853868
-0.170998 4.25434 0.841862
-0.364089 4.4077 0.541861
-1.24054 4.37577 -0.427024
-1.55361 4.25297 -0.439056
-0.537651 4.51217 -0.379583
-0.916015 4.46381 -0.414238
-1.31039 4.26832 -1.01242
-1.1385 4.38685 -0.753881
-0.985928 4.34645 -1.04079
0.752442 4.17003 -0.362218
0.486797 4.32 -0.35984
0.198686 4.27397 -0.961651
0.35214 4.32073 -0.665471
0.503255 4.14628 -0.951384
0.164172 4.44165 -0.362579
-0.158113 4.50462 -0.375846
-0.581018 3.64303 -2.00472
-0.432848 3.85849 -1.79746
-0.249552 3.60905 -1.96339
-0.802798 4.21612 -1.36313
-0.602428 4.06129 -1.59466
-0.978929 4.04797 -1.57757
0.179361 3.94812 -1.48705
-0.223976 4.02706 -1.55419
0.0126422 4.16178 -1.27787
-0.371457 4.46355 -0.702446
-0.163843 4.34297 -1.00443
-0.615421 4.35947 -1.05151
-1.76431 4.11281 -0.615695
-1.86627 4.05436 -0.304013
-1.4903 4.0697 -1.24029
-1.64876 4.11425 -0.94113
-2.2104 3.67832 -0.653882
-1.96727 3.90218 -0.815769
-2.11923 3.66286 -0.991435
-0.72465 3.35485 -2.18796
-0.896723 3.57871 -2.03812
-1.52845 3.30436 -1.9496
-1.21733 3.4575 -2.02175
-1.30942 3.10825 -2.15081
-1.10023 3.78279 -1.82501
-1.29576 3.93545 -1.57537
-2.42554 2.47768 -1.23389
-2.28135 2.71767 -1.44569
-2.24921 2.37364 -1.50892
-2.24056 3.326 -1.19529
-2.28471 3.03763 -1.33649
-2.42296 3.1196 -0.993167
-1.85084 2.76704 -1.90535
-2.08141 2.9232 -1.64927
-1.84313 3.1034 -1.81732
-1.65022 3.78382 -1.47901
-1.76934 3.45322 -1.68203
-1.97896 3.57178 -1.34703
-2.05839 3.87712 -0.0798528
-2.40049 3.43546 -0.461837
-2.25157 3.67518 -0.268583
-2.25686 3.63873 0.144177
-2.39559 3.39781 0.359167
-2.52873 2.17311 -0.995308
-2.56524 2.49968 -0.910008
-2.72881 2.46742 -0.224358
-2.6707 2.48576 -0.568453
-2.72471 2.13937 -0.346537
-2.56572 2.8225 -0.794585
-2.52009 3.10704 -0.66321
-2.59959 2.45311 0.856085
-2.57746 2.13103 0.954359
-2.51514 3.08368 0.562078
-2.58193 2.77402 0.711418
-2.74207 2.13925 0.341604
-2.69558 2.45268 0.515901
-2.74173 2.45912 0.182447
-2.5681 3.1223 -0.255833
-2.68655 2.7929 -0.0262423
-2.57198 3.10867 0.168955
0.920041 3.93995 0.401192
1.01837 3.9431 0.100228
0.663823 3.82546 0.985353
0.795282 3.90375 0.705477
1.36834 3.47365 0.488621
1.10514 3.69573 0.620493
1.26407 3.44046 0.802682
-0.0849355 3.18399 1.9144
0.118031 3.37695 1.73287
0.725262 3.09658 1.67176
0.447693 3.23769 1.71358
0.536889 2.91879 1.87049
0.318297 3.55641 1.51095
0.482362 3.69985 1.28433
1.69868 2.3403 1.09837
1.5142 2.55435 1.28097
1.5299 2.23615 1.37267
1.40374 3.13617 0.991667
1.4749 2.86787 1.13483
1.61041 2.94839 0.824247
1.08978 2.6046 1.68292
1.29373 2.73844 1.44161
1.04168 2.91999 1.56259
0.82212 3.54863 1.21245
0.948196 3.2466 1.40212
1.13247 3.35955 1.11341
-0.701463 2.94192 2.10066
-0.410177 3.01986 2.04684
-1.29146 2.69557 2.08363
-1.01972 2.81842 2.11754
-0.366995 2.43223 2.24143
-0.716056 2.61655 2.2067
-0.685964 2.30285 2.25694
-2.25402 1.92761 1.46864
-2.07872 2.13363 1.67443
-1.61598 1.73832 1.96999
-1.8569 1.94015 1.8462
-1.81598 1.52977 1.7883
-1.8584 2.32683 1.84849
-1.62532 2.49665 1.9755
-0.338958 1.06078 2.13316
-0.65672 1.18429 2.15305
-0.624497 0.882334 2.05925
-0.671474 1.89638 2.27242
-0.648361 1.55804 2.23799
-0.338393 1.74938 2.27933
-1.25132 1.1466 1.994
-0.983411 1.32937 2.12775
-1.27867 1.51813 2.07675
-1.33 2.31469 2.13785
-1.31633 1.93373 2.14021
-1.01521 2.11575 2.23496
-2.58829 1.81955 0.859569
-2.45017 1.80621 1.15167
-2.72939 1.81579 0.180764
-2.6823 1.81304 0.516346
-2.38821 1.19402 0.903733
-2.55898 1.47841 0.712517
-2.49437 1.16594 0.563561
-2.39773 1.83854 -1.16918
-2.5471 1.82184 -0.866686
-2.47239 1.16899 -0.579895
-2.52984 1.48633 -0.726328
-2.34984 1.17337 -0.892625
-2.65603 1.81058 -0.54041
-2.7163 1.80661 -0.214611
-1.83318 0.128031 0.156709
-2.06061 0.333457 -0.0200124
-1.83267 0.134439 -0.198209
-2.36818 0.813828 0.357555
-2.24168 0.562232 0.176444
-2.18602 0.589064 0.567665
-2.17518 0.588865 -0.585336
-2.23899 0.566914 -0.221652
-2.36287 0.82824 -0.402575
-2.66302 1.47309 -0.0186726
-2.5372 1.13584 -0.218288
-2.54225 1.13143 0.177968
-2.04481 2.20232 -1.72737
-2.20186 1.99731 -1.49264
-1.60968 2.58677 -2.09394
-1.84484 2.40404 -1.92953
-1.77799 1.61659 -1.79099
-1.81597 2.01487 -1.89253
-1.56809 1.82673 -2.00613
-0.430359 3.14351 -2.26272
-0.706739 3.05677 -2.30837
-0.721783 2.43582 -2.36731
-0.711042 2.7452 -2.36356
[...]
POINT_DATA 642
SCALARS Mean_Curvature double 1
LOOKUP_TABLE default
0.784837
0.968961
0.909014
0.868732
0.997776
0.737685
0.797303
1.06712
0.734592
0.789349
0.729255
0.879819
0.871217
0.947191
0.828179
0.630905
0.892467
0.903327
1.09315
0.911852
0.979072
0.763929
0.758913
0.839691
0.604561
0.727183
0.731715
0.655998
0.418463
0.487851
0.582373
0.671358
0.957186
0.794531
0.854434
0.888913
0.631029
0.839791
0.888212
0.798396
0.942897
0.832945
0.807355
0.871607
0.678679
0.898637
0.883591
0.8736
0.844109
0.941855
0.919194
0.858652
0.724189
0.569777
0.718746
1.01237
0.906217
0.925125
0.694377
1.10673
0.930488
0.934814
1.06141
0.7385
0.709168
0.916294
0.874747
1.21524
0.89417
0.925165
1.06722
0.862375
0.775685
0.695737
0.727549
0.838495
0.867173
0.773182
0.595328
0.70818
0.691089
0.873029
0.774989
0.859822
0.940363
0.643561
0.857377
0.817671
0.78179
0.588787
0.971286
0.756659
0.733899
0.681251
0.801216
0.817392
0.745971
0.904959
0.892512
0.471779
1.06265
1.07679
0.686582
0.5097
0.662446
0.83348
0.713217
0.966906
0.836398
0.744337
0.684504
0.784145
0.906263
0.861073
0.850739
0.783672
0.945628
1.03248
0.815203
0.804744
0.808684
0.762803
0.794991
0.854564
0.877279
0.837559
0.787402
0.871559
0.8103
0.793965
0.921632
0.784422
0.813557
0.833065
0.947427
0.815754
0.915085
0.764592
0.844124
0.969766
0.843898
0.768434
0.913061
0.793661
1.07615
1.10969
0.747209
0.813624
0.799267
0.832666
0.94547
0.988573
0.68016
0.987308
0.939536
0.652056
0.679199
0.699815
0.525126
0.861463
0.744454
0.773758
0.669097
0.801057
0.574543
0.865162
0.838841
0.832371
0.763439
0.826212
0.849168
0.891612
0.915006
0.88612
0.897619
0.893198
0.898903
0.859099
0.892956
0.868877
0.825524
0.931676
0.856771
0.905103
0.882331
0.892961
0.946827
0.968415
0.928122
0.885269
0.905036
0.91252
0.640325
0.588034
0.636027
0.68044
0.8071
0.818957
0.880962
0.506136
0.762159
0.849173
0.59427
0.540864
0.78174
0.812072
0.931041
0.999101
0.864626
0.999839
0.932843
0.990008
0.769247
0.972567
0.85069
0.876205
0.857805
0.974128
0.602781
0.934317
0.757648
0.734407
1.20372
1.10774
1.15137
1.03593
0.964121
0.918936
0.909547
0.951031
0.944193
0.94314
1.05597
0.877415
0.776004
1.0351
0.974213
1.05041
0.778384
0.712436
0.77981
0.814245
0.776856
0.71137
0.966133
0.834015
0.957474
1.06608
0.891123
0.980124
1.0032
1.13272
1.0919
0.921524
0.943891
1.02576
1.04181
0.943608
0.847662
0.878731
0.863346
0.95532
1.05446
0.984172
0.926733
0.918637
0.973389
0.854245
0.942188
0.874726
0.713216
0.780534
0.779913
0.769426
0.850321
0.621089
0.638545
0.713682
0.736921
0.72389
0.804734
0.816371
0.919746
0.873771
0.861252
0.841711
0.862397
0.781269
0.854638
0.708894
0.825563
0.78277
0.598656
0.879195
0.60977
0.593363
0.682089
0.731717
0.720292
0.634209
0.603265
0.81757
0.667296
0.783651
0.610758
0.704142
0.769895
0.867533
0.773473
0.868944
0.790163
0.869973
0.773125
0.863434
0.762626
0.804231
0.749478
0.862149
0.861443
0.52612
0.946022
0.959355
0.690847
0.871024
0.574545
0.880305
0.89555
0.759715
0.838382
0.67147
0.854294
0.859761
0.713544
0.614361
1.05102
0.679852
0.645572
0.736025
0.728101
0.545739
0.544502
0.947642
0.894084
0.944722
0.887662
0.866924
0.801726
0.70972
0.741732
0.72524
0.761545
0.667071
0.708594
0.73189
0.756574
0.70861
0.73727
0.760054
0.893812
0.849819
0.927978
0.673417
0.923245
0.854623
1.05843
0.938253
0.753466
0.784152
0.792634
0.732179
0.852224
0.53713
0.930933
0.86805
0.56965
0.813709
0.707408
1.21105
1.24655
0.955544
1.08483
0.927988
1.21181
0.960639
0.7606
0.727244
0.827802
0.484183
0.622056
0.59684
0.606172
0.574887
0.496168
0.927545
0.967604
0.860225
0.691572
0.851211
0.826725
0.801838
0.81177
0.733961
0.824637
0.989196
0.940044
0.86765
0.853885
0.796849
0.874883
0.937061
0.722843
0.763842
0.735732
0.821554
0.648707
0.684503
0.671916
0.72241
0.530914
0.906069
0.778962
0.852983
0.899254
0.869462
0.891405
0.910053
0.898508
0.91365
0.841336
0.834217
0.839716
0.791982
0.829894
0.883995
0.742318
0.80847
0.759837
0.975779
0.930176
0.997265
0.897309
0.805383
0.869192
0.839315
0.822032
0.807738
0.78962
0.80143
0.766313
0.906062
0.841444
0.820581
0.909141
0.896746
0.836716
0.827905
0.677466
0.711656
0.663648
0.941503
0.929516
0.79709
0.8772
0.763659
0.879463
0.783189
0.895904
0.779042
0.87142
0.617846
0.904983
0.716151
0.947513
0.831349
0.894323
0.73923
0.893231
0.696759
0.839582
0.872238
0.721137
0.768716
0.848494
0.796854
0.864571
0.891659
0.936944
0.805772
0.816387
0.800274
0.875288
0.831975
0.797243
0.837789
0.794548
0.827903
0.844255
0.88676
0.925156
0.891443
0.901383
0.788955
0.887902
0.762357
0.906991
0.883523
0.844102
0.811892
0.929054
0.90941
0.913692
0.792414
0.786988
0.875462
0.826587
0.781256
0.870997
0.880031
0.723811
0.751503
0.729728
0.939689
0.907741
1.07473
0.740617
0.771798
0.799695
0.822145
0.821897
0.82654
0.906496
0.936034
0.910343
0.905805
0.937962
0.792515
0.758061
1.10586
0.889879
0.797927
1.0316
1.05779
0.938549
0.793481
0.939231
1.04414
0.770496
1.05983
1.07854
0.969091
1.11772
0.933416
0.719147
0.811625
0.790946
0.865617
0.74684
0.831044
0.777084
0.849907
0.779677
0.832604
0.61819
0.800353
0.698218
0.754635
0.761284
0.87452
0.809316
0.87756
0.905075
0.864192
0.936646
0.872779
0.992307
0.948792
1.1062
1.04994
0.900823
0.888862
0.82461
0.648985
0.723453
0.657671
0.642962
0.885437
1.13003
0.992872
0.848945
0.872239
0.971064
0.889057
0.658983
0.904139
1.0735
0.924515
0.926766
0.813382
0.688053
0.608833
0.660564
0.674819
0.703609
0.861149
0.96459
0.757062
0.720801
0.772912
0.724707
0.733854
0.619405
0.785344
0.66101
0.677924
0.745648
0.74625
0.949168
0.377898
0.684613
0.881196
0.529995
0.724903
0.643188
0.653108
0.766011
0.820756
0.765679
0.865197
0.770398
0.816898
0.696261
0.808089
0.750666
0.827785
0.636775
0.817893
0.631189
0.639879
0.665004
0.873926
0.725895
0.855855
SCALARS Redistribution_Potential double 1
LOOKUP_TABLE default
-9.76325e-16
-0.789157
0.499294
0.16383
0.0988131
-0.547167
-0.0283914
-0.0766404
-0.584342
-0.578109
0.326739
0.239436
0.123348
-0.106362
-0.345212
-0.760281
-0.424608
-0.469122
0.124897
0.259458
0.321455
0.361608
-0.709485
-0.874909
0.216434
-0.287278
0.425234
0.471924
-0.086635
0.20481
-0.780937
-0.504936
-0.10584
-0.250402
0.22739
0.465314
0.401825
0.326659
0.0984801
-0.310796
-0.169542
-0.569231
0.0555192
-0.0846852
-0.179097
0.0865512
0.0098529
0.182786
-0.47428
-0.238811
-0.348425
-0.398256
-0.190827
-0.673078
-0.578734
-0.621783
-0.632912
-0.794443
-0.129223
0.0984672
-0.656799
-0.428803
0.0464378
-0.147135
-0.261855
0.268517
0.18745
0.151544
0.244432
0.35027
0.346813
0.306763
0.231519
0.361231
0.333861
0.278337
0.314968
-0.871128
-0.871221
-0.664135
-0.792892
-0.773329
-0.82651
-0.679717
-0.21598
-0.439212
0.226346
0.044515
-0.093433
-0.0190763
0.173299
0.412636
0.354639
0.362406
0.40701
0.520656
0.478798
0.487305
0.213729
0.284067
-0.0807497
0.103199
0.0805322
0.0729874
-0.0931066
-0.503184
-0.310602
-0.814418
-0.686393
-0.594712
-0.666867
-0.711952
0.0661805
0.0825624
0.22176
-0.422301
-0.169817
-0.329167
0.174545
0.0224126
-0.0740981
0.3573
0.286084
0.320834
0.362309
0.475619
0.467836
0.517593
0.277538
0.15061
0.445753
0.39069
0.0228651
0.22167
0.151699
-0.0209998
0.0257814
-0.172059
-0.113588
-0.382683
-0.265429
-0.447091
-0.1023
-0.583432
-0.349317
-0.318185
-0.574688
-0.297779
-0.513798
-0.52301
0.507621
0.391991
0.388744
0.249129
0.405302
0.326824
-0.44137
-0.255494
-0.286367
-0.768192
-0.745386
-0.855322
0.0238857
-0.0523495
-0.0851935
0.0276601
-0.0173289
0.0945578
-0.263337
-0.13515
-0.21594
0.168554
0.134347
0.210963
-0.0528042
0.0485913
-0.0032635
0.153896
0.100783
0.0716351
-0.522421
-0.409174
-0.461797
-0.294709
-0.359679
-0.407543
-0.231895
-0.29197
-0.180701
-0.0332288
-0.109513
-0.160479
-0.196287
-0.0877635
-0.379384
-0.291274
-0.30618
-0.306358
-0.416911
-0.611666
-0.581893
-0.67779
-0.635863
-0.724594
-0.529875
-0.462759
-0.724774
-0.723072
-0.796146
-0.531824
-0.635258
-0.523617
-0.786256
-0.723416
-0.710839
-0.492736
-0.611317
-0.51369
-0.0469228
0.0522442
-0.289816
-0.155034
0.125566
0.00639391
0.0260042
-0.725209
-0.642657
-0.447233
-0.547881
-0.557425
-0.535338
-0.42257
-0.016127
-0.094549
-0.160189
0.0111933
-0.0412647
0.102152
-0.37023
-0.202587
-0.329503
-0.280182
-0.300636
-0.117386
0.149977
0.109047
0.208664
0.195853
0.264244
0.241847
0.304571
0.0500341
0.108568
0.267041
0.201265
0.214506
0.163183
0.198616
0.338529
0.338555
0.318444
0.347237
0.353979
0.346399
0.28881
0.331074
0.311253
0.274477
0.31068
0.324484
0.124997
0.280355
0.210911
0.155369
0.177965
0.348938
0.347922
0.346381
0.350011
0.365862
0.342309
0.328223
0.256916
0.284747
0.206622
0.232583
0.343545
0.296533
0.326656
0.299831
0.314196
0.259025
-0.846265
-0.843005
-0.824762
-0.842111
-0.885566
-0.880322
-0.884127
-0.609726
-0.681087
-0.76473
-0.735805
-0.697998
-0.744388
-0.790966
-0.677213
-0.732753
-0.635253
-0.860748
-0.811175
-0.838195
-0.702909
-0.763278
-0.773758
-0.842441
-0.822081
-0.865748
-0.401104
-0.497676
-0.16665
-0.278215
-0.378219
-0.328843
-0.256963
0.233735
0.152418
0.128412
0.13665
0.223977
0.059596
-0.0326859
0.0139636
0.0484325
0.13785
-0.154078
-0.0644007
-0.197712
0.197661
0.0852002
0.106192
-0.0741264
0.0109541
-0.115183
0.336479
0.30292
0.383776
0.366214
0.416067
0.392819
0.440969
0.341933
0.363572
0.418886
0.38697
0.390683
0.379386
0.389187
0.515735
0.510516
0.498626
0.485385
0.506152
0.506194
0.467703
0.492846
0.457883
0.421345
0.444003
0.455013
0.288066
0.31067
0.236921
0.265103
0.247516
0.247253
0.200035
-0.0668199
0.038721
0.0079869
0.0177012
-0.0824157
0.129562
0.188875
0.0188723
-0.00391414
-0.0674202
0.141076
0.0659281
0.149307
-0.099512
-0.0117998
-0.00442317
0.169642
0.0841427
0.151994
-0.29628
-0.197494
-0.492535
-0.397373
-0.417992
-0.415722
-0.512531
-0.807281
-0.750857
-0.752793
-0.760328
-0.807103
-0.673899
-0.58827
-0.602337
-0.661091
-0.64938
-0.594995
-0.639285
-0.562724
-0.748768
-0.703355
-0.726428
-0.595597
-0.680241
-0.598784
0.12342
0.148288
0.19708
-0.00267688
0.0769261
-0.0101299
0.231809
0.160335
0.15698
-0.501183
-0.384619
-0.455681
-0.216515
-0.294608
-0.347429
-0.21113
-0.252825
-0.125756
0.136638
0.0600058
0.0195784
0.13662
0.0967721
0.211439
-0.165883
-0.0272682
-0.119408
-0.0263394
-0.0730667
0.0622077
0.266775
0.233963
0.302371
0.294105
0.3452
0.330565
0.387813
0.222389
0.249622
0.41847
0.34313
0.402029
0.278505
0.298774
0.494052
0.50398
0.514141
0.446
0.480723
0.443463
0.501728
0.497509
0.474388
0.373178
0.432769
0.422468
0.226981
0.165082
0.346898
0.290564
0.128321
0.215735
0.193147
0.478565
0.464463
0.363125
0.418196
0.391649
0.4377
0.405404
-0.0110474
0.0938028
0.0533737
0.161006
0.124873
0.0669198
0.240671
0.191521
0.275011
0.342761
0.314905
0.258799
0.0884965
0.0971353
0.0388361
0.0679498
-0.0632713
0.00451516
-0.0944183
-0.0997268
-0.0817609
-0.215399
-0.153435
-0.243426
-0.0453584
0.000227669
-0.504546
-0.426726
-0.525107
-0.214769
-0.328164
-0.272498
-0.386475
-0.362904
-0.298482
-0.061766
-0.185395
-0.13528
0.0495216
-0.122076
-0.0344075
-0.0120084
-0.0949241
-0.588006
-0.490414
-0.452879
-0.475909
-0.575569
-0.367883
-0.246852
-0.455119
-0.573963
-0.210538
-0.320464
-0.572254
-0.439536
-0.44695
-0.21083
-0.324901
-0.197407
-0.0950993
-0.27996
-0.195613
-0.202506
-0.307486
-0.560939
-0.623408
-0.601291
-0.479986
-0.385063
-0.563354
-0.412674
-0.496405
-0.605936
-0.626815
-0.403446
-0.526859
-0.415585
0.525424
0.495834
0.518267
0.521255
0.501713
0.259753
0.315852
0.296469
0.356686
0.437241
0.300431
0.441712
0.371835
0.309654
0.313229
0.468184
0.411972
0.474625
0.108496
0.28739
0.20186
0.166927
0.211957
0.471696
0.430654
0.454505
0.427416
0.373111
0.323689
0.266246
0.297546
0.348406
0.381087
0.336679
0.365926
0.292101
-0.535293
-0.385483
-0.461233
-0.5227
-0.480929
-0.14513
-0.185257
-0.175144
-0.22694
-0.29823
-0.191433
-0.387384
-0.302473
-0.182466
-0.181064
-0.346544
-0.278884
-0.376833
-0.687373
-0.677326
-0.686387
-0.77643
-0.836359
-0.668788
-0.780236
-0.733624
-0.674331
-0.673115
-0.850422
-0.872009
-0.872052
-0.845918
-0.823221
-0.758522
-0.808198
-0.828642
SCALARS CoVolArea double 1
LOOKUP_TABLE default
0.0891672
0.070889
0.07573
0.0867943
0.0736315
0.0773408
0.0705426
0.0767489
0.0738378
0.0849519
0.0873474
0.0926005
0.113037
0.115923
0.112056
0.112564
0.109663
0.108315
0.114382
0.117097
0.120366
0.121306
0.10709
0.10743
0.122387
0.118966
0.115289
0.126354
0.123915
0.128701
0.117575
0.111431
0.117181
0.117901
0.122543
0.123038
0.131965
0.122477
0.115983
0.112533
0.113463
0.107186
0.121053
0.120963
0.119224
0.106413
0.122437
0.111369
0.10848
0.113596
0.103079
0.117526
0.11456
0.113407
0.117993
0.103024
0.112221
0.102562
0.128933
0.101829
0.100882
0.118863
0.109702
0.132575
0.118726
0.129141
0.108372
0.105199
0.130397
0.113429
0.124247
0.112567
0.132644
0.118397
0.128786
0.126302
0.107907
0.115144
0.110079
0.10762
0.114931
0.10569
0.112392
0.103697
0.113379
0.108413
0.114615
0.119133
0.114593
0.130722
0.109004
0.130081
0.112671
0.117368
0.124432
0.119254
0.127106
0.113203
0.11736
0.117261
0.0904461
0.109838
0.115032
0.133386
0.112622
0.11415
0.108381
0.0967515
0.112992
0.110439
0.12128
0.105167
0.118354
0.125743
0.117433
0.10621
0.122254
0.105014
0.116784
0.129706
0.116429
0.134736
0.112831
0.112681
0.128137
0.120172
0.129287
0.117377
0.129298
0.11286
0.110469
0.126548
0.1149
0.123054
0.106385
0.124648
0.110405
0.104852
0.11976
0.107947
0.120593
0.111707
0.123937
0.103923
0.115421
0.116822
0.107855
0.115256
0.119705
0.115213
0.122869
0.122458
0.127852
0.118734
0.118229
0.126649
0.122327
0.119542
0.131717
0.11404
0.120199
0.116629
0.11098
0.116094
0.113713
0.11965
0.112366
0.114851
0.116027
0.114374
0.121287
0.109449
0.110747
0.109726
0.119551
0.110957
0.106202
0.109511
0.111536
0.119324
0.0952591
0.103283
0.0935551
0.113901
0.10588
0.106289
0.104647
0.101755
0.113411
0.133633
0.129852
0.130973
0.117489
0.111524
0.11963
0.115389
0.11762
0.113224
0.112863
0.104589
0.106301
0.109854
0.108738
0.108383
0.111664
0.116183
0.0946275
0.101101
0.0962405
0.108503
0.0992947
0.0985015
0.102517
0.096026
0.109255
0.130026
0.125778
0.125208
0.110487
0.107961
0.127038
0.12115
0.104055
0.107568
0.116487
0.0870119
0.100141
0.113321
0.108749
0.106106
0.105192
0.114584
0.0967905
0.110183
0.1038
0.116509
0.109627
0.110855
0.115431
0.120428
0.126552
0.138815
0.142898
0.143309
0.10661
0.105199
0.128566
0.111472
0.114472
0.11307
0.124421
0.0969951
0.108508
0.125158
0.116312
0.109783
0.117012
0.126267
0.109118
0.114286
0.107463
0.122168
0.109527
0.107233
0.108836
0.111171
0.122259
0.146097
0.141347
0.142728
0.116612
0.131179
0.118868
0.121004
0.122494
0.1157
0.118929
0.127646
0.119087
0.115397
0.113348
0.124624
0.109205
0.104496
0.122887
0.114033
0.113099
0.112832
0.124127
0.146041
0.141507
0.14365
0.108822
0.0952898
0.11934
0.108909
0.111643
0.11123
0.113098
0.110406
0.11672
0.110771
0.108718
0.0988646
0.114162
0.11671
0.105213
0.106801
0.10466
0.106735
0.102949
0.0977932
0.102694
0.104335
0.114071
0.123864
0.123154
0.12027
0.104485
0.103068
0.116656
0.102033
0.110154
0.103441
0.121379
0.106359
0.108403
0.127475
0.112741
0.120058
0.105887
0.117671
0.0989888
0.113982
0.100774
0.124922
0.122303
0.111336
0.111866
0.119577
0.131127
0.130944
0.136926
0.133671
0.110218
0.105232
0.125911
0.117751
0.122259
0.119806
0.131847
0.118649
0.118189
0.122482
0.115512
0.113569
0.115498
0.123601
0.107189
0.118913
0.10808
0.128768
0.116238
0.113877
0.106897
0.113214
0.122381
0.140907
0.138738
0.143916
0.115399
0.113378
0.118547
0.110709
0.120679
0.114422
0.126247
0.0918216
0.0950256
0.111718
0.0950433
0.103455
0.102207
0.115425
0.0964993
0.112281
0.0984847
0.134264
0.123461
0.121022
0.120291
0.122509
0.129706
0.12704
0.132194
0.134402
0.111949
0.100227
0.112654
0.11119
0.1112
0.111057
0.113298
0.09257
0.0947766
0.11144
0.0981529
0.100588
0.106818
0.111169
0.0999986
0.109233
0.100734
0.112909
0.110401
0.105592
0.110003
0.110274
0.122736
0.124349
0.128733
0.126203
0.107959
0.1176
0.106346
0.123848
0.117169
0.116918
0.117995
0.116879
0.124506
0.105494
0.106391
0.103234
0.119942
0.107766
0.109952
0.104779
0.108306
0.122577
0.102523
0.113637
0.10118
0.124009
0.116048
0.118644
0.112317
0.118094
0.125687
0.141544
0.143184
0.142229
0.11562
0.10522
0.131664
0.122096
0.12268
0.122061
0.136915
0.10552
0.112812
0.126783
0.117003
0.116211
0.117819
0.127626
0.109879
0.123282
0.108824
0.132939
0.119242
0.116616
0.110924
0.117443
0.125475
0.14583
0.141526
0.147553
0.113858
0.113452
0.131409
0.119758
0.113024
0.117332
0.12601
0.10173
0.11343
0.125371
0.114313
0.114244
0.114266
0.127162
0.100857
0.1116
0.0973996
0.122932
0.114275
0.111972
0.110112
0.108739
0.121419
0.142875
0.140118
0.140187
0.113315
0.108248
0.120624
0.113448
0.113261
0.11478
0.121664
0.0970094
0.106232
0.112332
0.10384
0.101595
0.112549
0.118891
0.105931
0.112507
0.106211
0.11648
0.103679
0.101362
0.10539
0.103758
0.116738
0.137806
0.135848
0.138448
0.11366
0.120383
0.114407
0.119916
0.124192
0.0996319
0.105919
0.104284
0.100691
0.101949
0.105682
0.118732
0.10543
0.102614
0.115275
0.106112
0.108146
0.108682
0.110457
0.135476
0.129326
0.13425
0.110325
0.115567
0.107619
0.109671
0.115786
0.10926
0.114943
0.104384
0.107792
0.122127
0.112254
0.116568
0.109397
0.104407
0.111264
0.131823
0.130423
0.127109
0.119538
0.12518
0.112695
0.115953
0.122438
0.112583
0.118182
0.109845
0.11342
0.127269
0.11143
0.128967
0.120714
0.121296
0.122736
0.138467
0.135999
0.136841
0.106214
0.123886
0.106871
0.109688
0.121194
0.112949
0.116295
0.1103
0.113195
0.121665
0.121851
0.130573
0.121698
0.119899
0.119764
0.132296
0.129989
0.134999
0.112499
0.118842
0.108199
0.108009
0.121267
0.107225
0.127683
0.110751
0.107441
0.113877
0.098514
0.124704
0.113459
0.110448
0.130532
0.133031
0.14047
0.139369
0.108673
0.114774
0.107446
0.103944
0.110246
0.107574
0.121432
0.107117
0.109911
0.116582
0.106114
0.113189
0.113083
0.109114
0.118379
0.127999
0.129582
0.12413
SCALARS SignedDistance double 1
LOOKUP_TABLE default
2.13963
2.45891
1.69947
1.71152
2.06152
2.63597
2.22726
2.24881
2.37496
2.23079
2.27755
1.82133
1.8676
2.09597
2.31503
2.67613
2.10563
2.16594
1.84135
1.91349
1.82711
1.9644
2.44058
2.4737
2.21544
2.37873
2.05044
1.92965
2.6629
2.44015
2.58231
2.69084
1.78152
2.11808
1.77114
1.71163
1.96008
1.89179
1.9251
2.34248
1.95779
2.26492
2.05104
2.04789
2.26783
1.8994
1.92489
1.81522
2.46117
2.18321
2.38418
2.28577
2.13432
2.68726
2.56238
2.26277
2.38197
2.5649
2.08066
1.96319
2.25034
2.04852
1.99044
2.09499
2.24569
1.65082
1.91997
1.967
1.66483
2.01173
1.74713
2.04152
1.96834
2.11573
2.05013
1.87709
1.88809
2.58165
2.63085
2.55187
2.55548
2.35085
2.43955
2.33005
2.36067
2.5788
2.00479
2.06949
2.19812
2.35783
2.21264
1.8964
1.96068
2.13284
2.0056
1.79603
1.93954
1.78979
2.26887
2.39503
2.46097
2.27322
2.32016
2.54643
2.42246
2.38065
2.50347
2.53216
2.38613
2.53665
2.6246
2.47672
1.66815
1.77643
1.7408
2.18367
2.01319
2.03642
1.89901
1.95417
2.07502
1.85544
1.87079
1.82848
1.74212
1.81133
1.86119
1.68908
1.86068
1.84466
1.79773
1.81862
2.11954
1.9324
2.10523
1.98011
1.76451
2.29351
2.1398
2.23099
2.20982
2.36441
1.76971
2.30306
2.07849
1.98419
2.23059
2.22332
2.28584
2.42975
1.71008
1.89397
2.03753
2.18986
1.98407
2.22704
2.52069
2.44005
2.72359
2.37314
2.39952
2.53608
2.14169
2.14006
2.22856
1.94298
2.03114
1.93195
2.27368
2.14091
2.17763
1.84879
1.83277
1.79684
1.99565
1.89937
1.97904
1.83489
1.85537
1.88091
2.55436
2.40781
2.5249
2.24182
2.3192
2.37147
2.24083
2.26808
2.14052
1.97165
2.04184
2.10016
2.22322
2.19013
2.38769
2.30145
2.0822
2.18963
2.17021
2.67711
2.61968
2.61978
2.6745
2.6898
2.53709
2.46376
2.37272
2.41289
2.50702
2.23112
2.31807
2.17433
2.62176
2.46979
2.53696
2.4142
2.46507
2.3035
2.16393
2.05161
2.03531
2.08615
1.88471
2.10628
2.04787
2.34696
2.24991
2.08882
2.13771
2.18444
2.15062
2.07339
2.11801
2.19171
2.30994
2.03319
2.10723
1.87907
2.18358
2.14435
2.08836
2.00008
2.01509
2.08205
1.91427
2.00969
1.69027
1.78131
1.84765
1.78267
1.71085
2.09625
1.93483
1.75085
1.76752
1.90319
1.78869
1.696
2.15724
2.01522
2.16544
1.73243
1.87184
1.8894
1.96555
1.89719
1.81388
1.60146
1.65266
1.62635
2.05226
1.9394
1.9816
1.98596
1.89101
2.23357
2.17234
1.98831
2.08088
2.02412