# vtk DataFile Version 4.2
vtk output
ASCII
DATASET POLYDATA
POINTS 642 float
-8.74515 21.4624 -2.76757
-1.51791 21.5968 -2.76902
-9.10245 3.25356 -0.116797
4.7674 3.7855 0.303546
-2.43155 6.45217 6.91242
-5.82559 16.4324 3.88035
-2.27822 7.71675 -5.8253
-6.95818 20.9521 -7.20292
4.45286 11.9512 -2.67062
5.08618 11.7273 3.65742
-9.53518 16.7464 -4.21295
-12.5369 14.6893 5.63797
-12.0178 19.1092 3.21089
-9.48878 16.6415 6.33053
-7.8009 19.681 3.17769
-1.9726 19.019 0.259368
-3.19305 23.4791 -2.00091
-1.57358 22.3916 -4.23018
-8.00586 22.4048 -6.9068
-8.605 20.1712 -8.44015
-11.0296 21.1121 -5.23868
-12.7993 14.4869 0.824924
1.9177 14.1832 4.87581
3.37463 15.4042 2.11834
-7.81712 9.90759 5.64493
-2.32152 11.9123 6.86831
-10.0878 7.63102 -1.6459
-10.4175 7.60463 3.09565
-4.81254 15.5166 -4.5063
-6.45722 11.7172 -4.52722
1.52075 16.5316 -1.41433
-1.06087 17.3438 -2.87435
7.21876 7.0842 2.75331
2.37699 9.52839 6.5046
1.52787 4.04749 5.2753
-6.62467 3.93653 5.65432
-2.50886 3.56877 -0.271059
-5.51076 4.2278 -4.57642
1.06336 4.66175 -4.17372
1.73874 9.61561 -4.9216
6.52509 7.29413 -1.39609
5.99001 10.8335 0.465156
-10.4065 20.0036 0.886098
-9.83532 19.727 3.77987
-7.71341 20.4641 1.05778
-11.1958 15.8179 6.38081
-10.8468 18.0888 5.55762
-12.6071 16.736 4.95302
-7.45382 18.5585 4.14863
-8.96608 18.4874 5.06919
-8.27665 17.0622 5.36709
-4.34143 22.3855 -0.792515
-4.96498 22.8346 -2.03676
-3.01978 17.1037 2.69398
-4.86767 20.4721 0.513764
-2.21973 22.6718 -2.58081
-3.13959 22.4591 -1.3563
-1.90991 21.0204 -1.72576
-4.52964 22.8743 -3.99518
-8.51964 22.3039 -5.60165
-1.50221 22.1121 -3.36942
-2.23712 23.3595 -3.3986
-7.40104 21.6232 -7.44832
-4.19361 22.3671 -4.93377
-3.90188 21.5889 -5.24053
-9.92978 22.792 -6.73372
-10.2318 21.8846 -4.17315
-7.84912 20.9026 -8.08186
-8.55063 22.2325 -8.83647
-10.5685 19.5343 -5.47716
-10.2321 21.1167 -7.33782
-9.64043 18.8186 -7.27234
-11.4866 19.4687 -0.190616
-11.4889 14.8921 -1.74941
-11.6352 17.8773 -1.31075
-12.7882 17.4251 2.18769
-12.7939 14.6969 3.75629
1.48615 16.6695 2.10228
0.447424 17.7998 -0.377757
-0.526863 15.1802 4.81082
1.01525 16.0793 3.66457
4.54024 13.7293 3.09648
3.0281 15.1645 3.65083
3.74605 13.1762 4.51437
-8.06135 14.8046 6.00635
-4.01144 13.9977 5.27094
-10.9513 13.6146 5.97228
-9.25086 14.6361 6.59254
-1.85813 9.37626 7.34062
-5.45351 11.7665 6.01477
-4.11141 6.8459 6.28967
-12.6864 11.1959 1.76789
-11.652 12.4317 4.27261
-10.7334 11.6048 -2.74499
-12.0818 11.026 -0.642914
-9.74035 4.61708 1.63878
-10.8108 7.35585 0.256681
-9.85536 4.53443 -1.13002
-8.23658 18.2417 -6.8705
-8.16827 15.3121 -4.39246
-6.90985 20.0609 -7.13073
-7.82766 19.4592 -7.65998
-3.73579 8.34168 -5.73314
-5.98306 14.382 -4.60642
-2.25241 9.93852 -5.94604
-1.5283 21.0165 -4.20919
-3.92886 20.6325 -5.21242
-1.01038 20.02 -2.66055
-1.26811 20.814 -3.41887
3.03963 13.119 -3.27777
0.174941 17.4985 -2.10516
4.03957 13.5951 -2.09758
6.50875 4.92579 1.62025
5.21212 5.37111 3.94987
3.79254 3.75647 2.51215
4.34596 10.815 4.85641
5.20924 7.7999 4.1525
6.30213 8.987 2.94351
-1.14552 5.4595 6.81715
2.22598 6.5293 6.0111
-0.0352657 8.06389 7.11932
0.176175 3.62397 3.5297
2.34616 3.57863 0.144944
-3.90437 5.0911 6.94639
-2.57769 3.74846 6.11372
-6.96476 3.13848 -0.0655229
-4.94951 3.57531 3.60183
-8.20551 3.60899 3.08994
-0.272582 3.63691 -2.99152
3.19385 4.23177 -1.7175
-8.01549 3.5982 -1.98171
-4.47919 3.33507 -3.26804
-1.08545 6.25812 -5.27174
-2.80385 4.15124 -4.62079
-3.76291 5.78649 -4.96103
4.00824 6.01408 -2.74291
6.19585 5.16114 -0.773968
-0.530195 8.58092 -5.78111
1.75083 6.96589 -4.74895
5.50403 9.49422 -1.88583
4.02829 8.22945 -3.36087
3.57611 10.9922 -3.75812
7.46821 6.99462 0.414293
5.54803 11.5125 -1.31077
6.97283 8.5801 -0.261356
7.23912 8.57727 1.41913
5.84602 11.068 2.2228
0.255999 10.7373 7.10885
2.21026 11.9525 6.07109
0.0628683 12.7176 6.25363
-9.01563 4.70607 4.84739
-7.28242 5.44583 5.80403
-9.214 8.00105 4.77592
-5.53431 5.98933 -4.37841
-8.03518 5.09483 -2.43843
-8.80555 8.98514 -3.2707
1.45371 11.9979 -4.51724
-0.646274 11.0127 -5.7786
-3.39676 15.9342 -4.1369
4.91447 13.7713 1.33797
4.80301 13.7714 -0.551595
3.12909 15.674 0.133195
-9.3992 20.9215 -1.4073
-9.37172 20.104 1.16069
-8.16268 21.1076 -1.05223
-10.9837 19.4881 3.56317
-10.2834 19.8847 2.61449
-11.3298 19.6996 2.28265
-7.74246 20.0196 2.27391
-9.0921 19.9426 2.73692
-8.75325 19.7545 3.70184
-12.0877 15.1181 5.88179
-12.0224 16.2474 5.84223
-12.6212 15.3708 5.48703
-10.0996 17.3249 6.0428
-11.0964 16.9487 6.1668
-10.2319 16.297 6.47728
-12.3676 18.0556 4.0887
-11.8109 17.4987 5.27933
-11.5686 18.7381 4.52927
-7.06743 17.7021 4.13296
-7.92624 17.9421 4.77939
-7.3599 17.067 4.64777
-8.43885 19.2711 4.35528
-8.19516 18.6351 4.68758
-7.67341 19.1895 3.84609
-8.92518 16.8745 5.90937
-8.67115 17.8125 5.32773
-9.32525 17.6173 5.78691
-10.412 19.0507 4.68276
-9.79315 18.3589 5.43878
-9.32911 19.1889 4.6005
-6.04194 22.0678 -0.83154
-7.39245 21.6748 -2.53914
-6.16712 20.706 0.889076
-5.81329 21.5248 0.107395
-3.82819 23.5367 -1.84969
-4.39146 22.8095 -1.22252
-3.62609 23.2515 -1.33925
-4.83585 16.606 3.30066
-6.21004 18.0763 3.15878
-3.53486 20.2243 0.0433347
-4.61314 18.6838 1.65272
-2.17952 17.7597 1.7124
-6.6007 19.0087 2.79989
-6.57064 19.8295 1.85639
-1.73001 22.0443 -2.76811
-2.15323 22.1619 -2.25467
-1.63794 21.4877 -2.45571
-3.13663 23.0875 -1.62169
-2.66264 22.7309 -1.93877
-2.65924 23.1962 -2.26917
-2.04585 20.2244 -0.873955
-2.62306 21.9621 -1.63793
-3.04952 21.4 -0.993704
-4.56324 21.6201 -0.266184
-3.70037 21.7922 -0.709524
-3.64645 22.6121 -1.10484
-6.85963 21.7943 -4.17113
-8.72149 21.8612 -3.97371
-3.38757 23.5963 -2.65492
-4.61647 23.0385 -3.11407
-8.29293 22.4473 -6.41
-6.77776 22.1119 -5.38346
-6.7251 22.0765 -5.80069
-1.515 21.8537 -3.0227
-1.80064 22.4337 -3.07275
-1.83623 23.0117 -3.88984
-1.80267 22.7674 -3.41546
-1.49369 22.3057 -3.72467
-2.22025 23.0494 -2.94424
-2.73032 23.4424 -2.76013
-7.13487 21.1658 -7.33833
-6.26376 21.4252 -6.39326
-6.1734 21.0908 -6.43032
-6.58968 21.957 -6.1092
-6.41917 21.7497 -6.28971
-7.66517 22.1236 -7.30695
-2.1763 22.139 -4.74746
-4.02181 22.0242 -5.14016
-2.30514 22.89 -4.59987
-2.94888 23.591 -3.44826
-2.55933 23.4882 -4.14466
-4.37557 22.6471 -4.58073
-9.46574 22.1886 -5.0478
-9.43041 21.6627 -3.45384
-8.88961 22.7195 -7.01705
-9.21082 22.5805 -6.24809
-10.8807 21.7254 -4.75298
-10.1399 22.3428 -5.64645
-10.9445 22.1621 -6.10409
-7.35558 20.9611 -7.60379
-7.71254 21.3057 -7.93642
-8.61835 21.1295 -8.58377
-8.13725 21.3172 -8.35082
-8.19629 20.6745 -8.31845
-8.0012 21.8943 -8.10545
-8.4092 22.5552 -7.74365
-10.0519 18.1625 -5.19492
-10.0982 19.3092 -6.47289
-9.62793 18.1455 -5.94328
-10.9731 21.2653 -6.42799
-10.5727 20.4329 -6.49675
-10.9692 20.456 -5.47815
-9.20038 19.4946 -8.01736
-9.99198 20.0087 -7.45423
-9.52678 20.6131 -8.37342
-9.48817 22.9633 -7.91713
-9.66635 21.7781 -8.33807
-10.6301 22.2126 -7.3395
-10.2033 20.8691 -1.9014
-11.071 20.4483 -3.22996
-10.7897 20.7479 -2.58065
-11.1074 19.8134 0.388832
-12.1277 19.2651 1.85071
-10.0613 15.9339 -3.161
-10.6177 17.7218 -3.53793
-12.6838 16.0674 0.0686081
-11.6717 16.5412 -1.57501
-12.4413 14.5223 -0.519791
-11.0251 19.0798 -3.82575
-11.0799 19.8906 -3.68015
-12.7406 15.7194 4.4457
-12.6816 14.6944 5.0769
-12.6907 18.4577 2.75149
-12.7506 17.1708 3.60588
-13.0195 14.6034 2.16247
-12.8773 15.9535 2.96764
-12.9531 16.018 1.53273
-11.6144 18.8869 -0.778509
-12.7014 17.5145 0.751344
-12.6721 18.6391 1.34542
-0.838207 19.4743 -1.37377
-1.26623 20.5442 -2.34365
-0.186022 17.3563 1.37449
-0.57801 18.2091 0.0234297
2.41414 16.2904 1.33225
1.19824 16.9511 0.974086
2.52834 16.1065 2.228
-2.75809 15.6117 4.2928
-1.25747 16.0798 4.02877
1.57067 15.2154 4.30187
0.393238 15.6902 4.29661
0.846935 14.65 4.87275
-0.416955 16.5362 3.4557
-0.0420192 16.8696 2.56223
4.89344 12.6229 3.47858
4.30416 13.5777 3.87975
4.5844 12.4522 4.05742
3.2779 15.3281 2.89075
3.77898 14.4572 3.3706
4.04895 14.6091 2.63744
2.85376 13.728 4.79477
3.41533 14.2025 4.10363
2.56648 14.7875 4.30606
1.40447 16.4536 2.96298
2.07484 15.6126 3.68566
2.3996 15.9115 2.99516
-7.2693 15.8471 5.12391
-5.29311 15.5242 4.29643
-8.90775 15.7901 6.33292
-8.28195 15.9579 5.91023
-2.96449 12.8546 6.0114
-6.5644 14.4539 5.28864
-5.38011 13.0056 5.67602
-12.0448 14.3559 5.81565
-11.1811 14.787 6.30467
-8.7132 13.3199 6.04796
-10.0369 14.2426 6.54305
-9.45347 12.4485 5.56222
-10.2001 15.2662 6.7618
-9.45031 15.5584 6.56899
-2.13698 7.54375 7.10151
-3.02383 8.16376 7.029
-3.03668 6.48915 6.73946
-3.99123 11.7053 6.43425
-3.19026 10.1919 7.10308
-1.99356 10.7401 7.17497
-5.89177 7.82521 5.52828
-4.46925 9.26749 6.70693
-6.74598 11.2449 6.00647
-8.73174 14.7925 6.39911
-8.14356 13.5598 5.97079
-7.25031 13.4525 5.73478
-12.5306 13.6734 4.24978
-12.457 14.0627 5.33887
-12.5946 12.8469 1.30464
-12.4482 13.2186 2.67413
-11.5725 9.81292 3.7594
-12.155 11.6452 3.08192
-11.8734 9.67238 2.3795
-9.92156 14.1269 -3.14725
-11.0236 13.0437 -2.20098
-11.5139 9.44487 -1.48828
-11.4319 11.1454 -1.84599
-10.8608 9.79485 -2.40702
-11.8324 12.7644 -1.04784
-12.3681 12.721 0.170334
-9.48954 3.69381 0.527065
-9.98376 4.46603 -0.0631346
-9.52719 3.63245 -0.59269
-10.8908 7.50467 1.63473
-10.0762 5.7426 0.746171
-9.51917 5.90605 2.45124
-9.71474 5.66011 -1.21165
-10.1199 5.54873 -0.517185
-10.4499 7.349 -0.820491
-12.6346 11.0534 0.56653
-11.7808 9.47485 -0.198037
-12.1296 9.52682 1.04801
-9.03648 17.9108 -6.3653
-9.24599 16.4891 -4.29154
-8.53606 19.1889 -7.84347
-8.83223 18.5787 -7.29025
-7.39416 13.7583 -4.52721
-8.20979 17.3866 -6.02949
-7.51841 16.3901 -5.36686
-6.96695 20.7385 -7.23144
-7.47565 20.554 -7.71109
-7.15819 18.6259 -6.68541
-7.45005 19.8014 -7.53
-6.70055 18.8675 -6.451
-7.89392 20.298 -8.03692
-8.20326 19.861 -8.1335
-2.77934 7.88233 -5.79947
-2.95028 9.22845 -5.91575
-2.20565 8.47858 -5.87694
-6.08865 13.6066 -4.60008
-3.99781 10.4315 -5.78998
-4.75023 9.29268 -5.36648
-2.63498 11.6145 -5.79738
-3.38052 11.0805 -5.87908
-5.5021 15.0872 -4.57982
-8.12089 18.8931 -7.41724
[...]
POINT_DATA 642
SCALARS Mean_Curvature float 1
LOOKUP_TABLE default
0.15167
1.05229
1.33875
1.06989
0.384155
0.239212
0.229779
0.219254
0.462527
0.0485912
0.213094
2.14861
0.592238
0.795055
0.870202
0.0337999
1.53875
1.2209
0.539906
1.23482
0.389498
0.163436
0.0714789
0.207855
0.148209
0.633645
0.0266059
0.114949
0.0586939
0.153886
0.310641
0.173458
0.858902
0.308796
0.842053
0.882723
0.0132314
1.05451
0.257088
0.0997711
0.573366
0.00536938
0.138274
0.567761
0.070233
0.505979
0.613697
0.788943
0.397428
0.259225
0.00949993
0.906122
0.157053
0.0358396
0.078551
0.0638769
0.323048
0.134844
0.281863
0.0537387
0.284181
1.37585
0.529707
0.552136
0.453464
1.01779
0.667484
0.421183
1.91669
0.0174056
0.112595
1.13485
0.443902
0.152292
0.0360921
0.0516786
0.149352
0.537876
0.175088
0.282841
0.265527
0.24827
0.713038
0.157925
0.444131
0.0579013
0.491153
0.729832
0.227469
0.249494
0.23421
0.561659
0.204723
0.471038
0.21266
0.43668
0.197057
0.964848
0.56292
0.31497
0.259341
0.48067
0.417203
0.219309
0.170524
0.744321
0.128687
0.632735
0.805863
0.190538
0.327436
0.289041
0.511072
0.644751
0.461767
0.193283
0.066485
0.152866
0.470934
0.194862
0.0156335
0.0126867
0.0837662
1.02334
0.840507
0.208491
0.00866622
0.143689
0.181371
0.0804895
0.669324
0.382777
0.162896
0.631653
0.0780941
0.0680257
0.565255
0.352126
0.213277
0.145544
0.0835783
0.291102
0.435074
0.480754
0.62148
0.444739
0.223163
0.265433
0.309734
0.147961
0.650088
0.415681
0.191017
0.062388
0.0952285
0.0485023
0.0678056
0.552222
0.0551299
0.213467
0.393237
0.289187
0.0363288
0.127123
0.0411101
0.356692
0.234849
0.441127
0.268718
0.136002
0.667088
0.280416
0.547117
1.08722
0.290673
0.721731
0.395686
0.468149
0.274633
0.653139
0.0473898
0.152742
0.0264552
0.808126
0.612839
0.59367
0.153535
0.28404
0.584575
0.414176
0.559925
0.473011
0.316583
0.0341652
0.0975876
0.779477
1.17654
0.557972
2.27582
0.377229
0.0423568
0.0531555
0.210028
0.0897349
0.127995
0.239523
0.425653
0.186734
0.767865
0.848012
0.370526
1.15988
0.203457
0.0822807
0.028386
0.328327
0.217315
0.372683
0.42803
0.0737157
0.684409
0.345394
0.222145
0.275596
0.454525
0.43954
0.111188
1.4709
0.709802
0.655586
0.549167
0.917253
0.341718
0.469987
0.203998
0.718812
0.780883
0.862037
0.63023
0.575185
1.10939
0.732315
1.44334
0.41591
0.0910999
0.105233
0.432604
0.220717
1.14745
0.395667
1.41046
0.360909
0.481216
0.863967
0.761739
0.476068
0.778807
0.782788
0.295307
0.0616306
0.255528
0.88938
0.141772
0.560461
0.909807
0.442495
1.00204
1.54905
0.753316
1.30637
0.292077
0.634154
0.621491
0.410314
0.500456
0.236952
0.0565879
0.288337
0.169914
0.352709
0.416504
0.131722
0.0905752
0.433162
0.757536
0.253713
0.442632
0.0678028
0.237768
0.115754
0.242255
0.781732
0.325452
0.537375
0.137016
0.452881
0.524431
0.214784
0.388896
0.0729327
0.240289
0.24147
0.358866
0.10822
0.32879
0.252212
0.194686
0.835253
0.249171
0.445779
0.154431
0.405797
0.237134
0.287023
0.503706
0.549315
0.283277
0.377945
0.148872
0.303498
0.410778
0.344195
0.0536308
0.330417
0.221919
0.556971
0.307642
0.313097
0.521977
0.230045
0.97057
0.397606
0.106625
0.186808
0.0591579
0.323958
0.312603
0.156339
0.315813
0.227601
0.102239
0.640031
0.201533
0.30457
0.458587
1.06681
0.1048
0.198382
0.520468
0.141201
0.0931734
0.127231
0.0829319
0.598278
0.207227
0.357751
0.0539848
0.0515668
0.876086
0.544669
0.827354
0.212163
0.047831
0.501867
0.313999
0.468047
0.072133
0.54637
0.0621444
0.40659
0.599208
0.0938083
0.948443
0.683129
0.153894
0.607017
0.580215
0.237615
0.273064
0.441717
0.346825
0.197454
0.427521
0.837211
0.102379
0.22276
0.0848798
0.162038
0.364758
0.179958
0.267282
0.332781
0.181192
0.55418
0.494385
0.430292
0.287741
0.172872
2.10636
0.433921
0.200285
0.252564
0.610597
0.779861
0.673284
0.708957
0.825413
0.788324
1.91534
2.072
0.229824
0.334559
0.350693
0.0718901
0.245794
0.0799681
0.277396
0.329858
0.316456
0.973985
0.541659
0.902589
0.106676
0.349008
0.457268
0.404227
0.535364
0.888685
0.65865
0.0891359
0.209232
0.271078
0.0745799
0.493641
0.0884047
0.115625
0.212724
1.21988
0.100239
0.207289
0.0603187
0.354358
0.0749028
0.134304
0.293999
0.0154713
0.388858
0.344976
0.116565
0.403612
0.068449
0.0160832
0.108859
0.181076
0.370543
0.149695
0.0181925
0.0337261
0.0185989
0.172459
0.513798
0.966342
1.11503
0.438693
0.0639722
0.843312
0.263152
0.428809
0.1389
0.00369247
0.0612161
0.0448538
0.216717
0.0130792
0.139573
0.254881
0.15316
0.0434676
0.396579
0.600198
0.0207028
0.0820203
0.865607
0.406728
1.02329
0.910348
0.464065
0.954539
0.072057
1.1334
0.0711782
0.0782705
0.45761
0.225116
0.726423
0.119005
0.0299127
0.215133
0.197506
0.0830901
0.703467
0.289718
1.05355
0.562459
0.44377
0.303679
0.224839
0.0180244
0.58813
0.359231
0.296726
0.28988
0.189383
0.117836
0.0523706
0.124246
0.0480472
0.41538
0.314147
0.238586
0.253527
0.194018
0.0290052
0.14083
0.369771
0.124485
0.26708
0.420553
0.364141
0.170415
0.588362
0.897013
0.675199
0.468363
0.109267
0.0951367
0.388287
0.0804638
0.1061
0.16644
0.0483758
0.730713
0.171241
0.421053
0.320346
0.891993
0.0413911
0.138535
0.14512
0.446113
0.525364
1.33327
0.517658
0.408249
0.0264087
0.220805
0.251635
0.385246
0.205421
0.250384
0.290532
0.0657753
0.140366
0.325585
0.0132434
0.0491119
0.148125
0.663637
0.0137573
0.372997
0.626984
1.50931
1.13843
0.604878
0.225343
0.196307
0.222946
0.244887
0.0208851
0.677072
0.152661
0.22521
0.498738
0.107537
0.0449255
0.949913
0.178168
0.338824
0.213868
0.851642
0.0434881
0.0405243
0.152982
1.30486
0.247608
0.498448
0.411753
0.534616
0.132988
0.239761
0.0406235
0.383267
0.507919
0.0528701
0.266104
0.309086
0.222378
0.0997183
0.214466
0.318418
0.021302
0.0562637
0.205995
0.187836
0.39979
0.22092
0.182526
0.0603761
0.167235
0.250228
0.0476931
0.237449
0.0955651
0.00263188
0.381953
0.374577
0.2475
0.400496
0.165334
0.247478
0.451239
0.317836
0.285984
0.556611
0.370802
0.11321
0.49417
0.144067
0.821082
0.248821
0.211645
0.136088
SCALARS CoVolArea float 1
LOOKUP_TABLE default
1.41497
0.192057
0.565296
0.567316
0.496458
1.69979
0.362104
0.174345
0.342678
0.533614
1.20463
0.328759
1.38083
0.746689
1.16142
3.07035
0.396621
0.514419
0.729276
0.65527
1.225
2.21816
1.20524
0.967561
4.36626
2.09042
2.12044
3.12155
3.11278
4.63785
1.22665
4.16703
1.16014
1.96313
2.0153
1.66357
5.42763
1.11331
1.53866
1.57664
1.03126
1.56724
2.12911
1.23329
3.08761
1.09893
1.34059
1.42494
1.04545
0.754969
1.09376
0.840086
2.70051
3.9628
2.66719
0.392313
0.580923
1.54367
1.50455
1.68415
0.239483
0.452347
0.587231
1.15551
1.04838
1.1015
1.51683
0.271345
1.04305
1.80078
1.26865
1.10972
1.94116
3.47968
3.09212
1.82465
1.80927
1.54759
1.63712
1.94023
1.22808
0.919262
0.860067
1.07489
1.57051
3.58566
1.89928
0.884084
1.82486
3.06691
2.86738
2.33692
2.33596
2.02926
2.2395
1.96817
2.69042
0.978396
0.720036
4.05649
0.987552
0.593324
1.80601
2.7591
1.34244
0.481836
1.78051
0.918925
0.333229
1.21769
1.45092
1.03969
1.64346
2.05706
1.9206
1.79517
1.95785
1.02126
1.75059
2.4899
1.75932
3.15892
2.5918
1.05469
1.88155
2.49784
3.70993
1.92591
2.18568
1.8843
1.51788
1.90184
1.75429
1.53796
1.13562
2.15881
1.43939
1.44073
1.58248
1.3798
2.0304
1.31354
1.21243
1.38931
0.805838
0.720789
1.46609
1.23877
1.29799
1.53226
1.36626
1.28806
2.57554
1.77822
1.69371
3.59502
1.95059
1.31799
5.56237
1.1515
1.03273
1.67645
2.34632
2.73705
3.41996
1.38272
1.56934
1.51147
1.6043
1.71245
1.06419
0.753528
1.17367
0.829385
0.976807
1.20948
0.947651
1.49952
1.45273
1.50041
1.48707
0.82111
1.59221
0.786543
0.680732
1.035
0.765504
0.70539
0.743835
1.32875
1.02823
0.99344
3.18015
3.23001
1.41094
1.77938
0.886535
1.14899
0.445901
3.04472
2.87766
3.31567
4.31169
4.02701
2.32251
1.74142
0.282297
0.600478
0.704272
0.384893
0.469405
0.380178
2.06588
0.917395
1.57683
1.25855
1.19187
0.539079
3.26871
1.90358
0.932281
2.14842
0.853412
1.85641
1.01601
0.200017
0.283235
0.48457
0.317501
0.310503
0.361016
0.431017
0.355568
0.824462
0.623219
0.897949
0.862257
0.702518
0.914001
1.11828
0.970195
0.997383
0.993686
1.30916
1.1982
1.44916
0.790433
0.865409
1.37416
1.09276
1.16176
0.2115
0.31805
0.797115
0.408151
0.333941
0.581321
0.847286
1.97861
1.32323
1.29409
1.06288
1.13017
1.25532
0.938836
1.20245
1.1585
1.33523
1.43408
1.38147
2.1117
1.82532
1.87021
1.90764
1.51413
3.05128
3.24426
2.72632
3.27003
2.68569
2.49965
2.03874
1.4547
0.868659
1.43717
1.68227
2.17996
1.95543
2.11743
2.55468
2.52113
1.85992
1.81316
0.829603
2.28397
2.44493
1.37182
1.82299
1.02765
2.76369
2.62875
1.08012
1.39687
1.44245
2.26709
2.35638
0.838269
0.910632
0.849077
0.837529
0.848818
0.856909
1.10343
0.939048
0.967661
1.29089
0.925276
0.905659
2.55221
3.27739
0.760083
1.33308
2.66299
2.68115
2.68081
0.859797
1.12446
2.44894
1.5486
3.2589
0.977668
0.711251
1.35162
2.38856
1.12881
2.40296
2.73992
1.79053
4.77682
4.40894
4.39016
0.820308
1.63052
1.79782
1.80176
0.998435
2.17548
2.36651
3.10958
2.65676
3.06001
2.14635
2.85564
2.38178
2.13447
2.12708
2.57047
2.2424
1.24328
1.40304
0.845953
3.25763
2.37197
2.68826
1.29427
1.57747
2.24274
2.10159
2.56716
2.70395
1.84205
2.5151
0.575213
0.836407
3.90538
1.72136
2.16406
0.436393
0.392601
1.7642
0.675652
1.99632
0.360548
0.414992
0.918192
1.35584
0.774547
3.39674
2.83567
3.84068
2.70424
2.72232
3.47334
0.583989
1.53744
1.35006
1.0041
0.744097
0.512648
0.813407
3.1866
0.960435
1.42599
0.434684
0.297964
0.488391
0.421553
1.25385
0.25288
0.350393
0.683602
1.03191
0.656918
2.32971
1.95611
2.75006
1.55859
1.72357
1.17508
0.389165
0.453506
0.651907
1.20804
1.75379
1.24646
1.48476
1.77031
1.46745
1.96437
2.04697
2.2159
1.10773
1.51385
0.992437
2.43542
2.08929
2.04289
0.92506
1.35888
1.29383
0.979306
1.76174
1.27125
2.32735
2.15365
2.08305
1.79723
2.07403
2.37946
1.93408
2.50705
2.47507
2.02058
1.28821
2.09653
2.25781
4.39525
3.31027
5.10127
0.615536
1.07409
1.86611
1.42357
1.43931
1.6856
1.96065
1.29278
2.22488
1.4433
5.16271
3.45981
4.09237
1.8226
2.59717
2.40263
2.49907
2.74571
4.1018
1.84658
1.21856
3.66915
2.75241
1.80273
1.91767
1.69685
0.938507
1.72302
1.42068
1.88686
1.56966
2.55989
3.41245
0.987118
1.42832
0.878071
1.7594
1.81661
1.7263
0.911888
1.29184
1.06898
2.129
1.40831
1.74854
1.69875
1.12132
1.92159
2.12383
1.24275
1.77939
1.61816
0.853851
1.52394
1.60449
1.67669
1.57769
1.70053
1.56778
0.960446
1.51381
0.792971
1.58356
1.80132
1.08941
1.5147
1.87704
1.77065
1.91419
1.805
2.0149
1.47961
1.01849
1.3502
1.4896
1.25518
0.877366
1.30343
1.10241
1.26951
1.47844
1.01106
0.793118
1.11395
1.05076
0.876632
0.807919
1.61162
1.10791
1.05359
0.808537
0.691303
0.887345
1.56838
1.42431
1.47595
1.38335
1.33694
1.28001
1.2734
1.24975
1.51068
1.49708
3.12055
1.59147
2.35096
1.90166
1.4783
1.23609
1.30343
1.21259
1.67653
1.46433
1.55262
1.73773
1.99978
1.24831
2.82977
2.23728
1.25701
1.28758
1.84581
2.63174
2.89485
3.04229
3.21569
1.17184
1.59982
1.5853
1.2697
0.995424
1.02141
1.90974
4.07598
1.07364
1.93028
1.12638
1.33133
1.28919
3.13212
4.86032
4.03362
2.38773
2.67354
1.97846
3.1438
3.6943
1.05214
1.49934
1.33062
1.58208
4.0855
1.12208
2.31887
1.27614
1.29181
1.43517
1.69486
6.14968
4.61445
3.42646
3.3871
1.76309
3.09783
4.44331
1.19903
1.51423
1.44742
1.02347
1.03772
1.01722
1.38275
1.04632
1.21574
1.35119
1.32047
1.34882
1.79256
1.88492
1.67851
1.12763
1.29003
1.25053
SCALARS SignedDistance float 1
LOOKUP_TABLE default
1.02292
0.425644
0.0997238
0.124059
0.501173
1.21387
0.469727
1.73719
0.381622
0.491989
1.61522
0.0797729
0.245972
0.31543
0.419067
2.15973
0.199402
0.295471
0.88623
0.279663
0.273926
0.41201
0.582397
0.539005
0.648529
0.363525
0.6651
0.615906
2.33929
0.883472
0.878906
2.18503
0.227631
0.373634
0.203556
0.280182
0.475479
0.257452
0.410355
0.615036
0.409485
0.740258
0.644621
0.285065
0.790543
0.229614
0.252686
0.13916
0.692238
0.563354
0.794159
0.385155
0.69001
1.34145
0.993729
0.604431
0.603832
0.769272
1.34372
0.924183
0.517578
0.219818
1.31007
1.7697
1.94175
0.299744
0.330078
0.804325
0.0317383
0.455139
0.570068
0.204742
0.365189
0.736862
0.603119
0.395905
0.39209
0.63839
1.81915
0.492249
0.523682
0.430786
0.277283
0.501869
0.811401
0.977128
0.410156
0.459229
0.575264
1.13064
1.17369
0.265686
0.703247
0.428223
0.344481
0.65918
0.674252
0.249512
1.33494
2.28285
1.68696
0.904037
0.36438
1.84985
0.58741
0.670363
2.18624
1.24957
0.721339
0.586243
1.85077
0.469604
0.142967
0.19545
0.237
0.453174
0.6092
0.708294
0.280319
0.437759
0.514522
0.480034
0.425567
0.278969
0.19397
0.294306
0.459675
0.393005
0.365561
0.381866
0.234711
0.510323
0.452619
0.320679
0.732349
0.494675
0.174813
0.419157
0.5103
0.495775
0.493908
0.455536
0.294525
0.381104
0.4244
0.415787
0.655334
0.477604
0.528748
0.613316
0.329102
0.642578
0.670898
0.984474
0.956787
0.633118
0.730129
0.418653
2.26429
0.491398
0.40921
0.576209
0.741882
0.803947
1.04463
0.274658
0.491821
0.243042
0.732269
0.605076
0.32999
0.275635
0.248535
0.144341
0.445801
0.229736
0.371582
0.243652
0.271484
0.187744
0.988903
0.725014
0.907616
0.302979
0.470947
0.496826
0.569946
0.598755
0.460052
0.30957
0.342224
0.363773
0.441422
1.61658
0.918018
0.412416
0.181671
0.46772
0.183414
1.5083
1.3613
1.0261
1.9639
1.74937
0.994839
1.06815
0.496826
0.641907
0.486786
0.337616
0.514557
0.335552
0.960147
0.786112
0.875494
0.718595
0.769695
0.488464
2.21832
0.94957
0.284561
0.871094
0.89624
2.25078
2.1834
0.510345
0.578781
0.198067
0.365509
0.399445
0.428253
0.290161
1.56384
2.3792
2.47631
2.20406
2.27346
0.984985
0.549591
1.85617
0.325928
0.273315
0.193604
1.63323
0.604309
0.691292
0.524902
0.546875
0.140991
0.376282
0.112793
1.31349
0.952133
0.380371
0.546631
0.545776
0.664764
0.442139
0.684326
0.511841
0.825287
0.171021
0.404785
0.276123
0.315552
0.371704
0.149902
0.14624
0.128235
0.12207
0.34334
0.324768
0.269958
0.427967
0.352905
1.68362
0.940483
0.259518
0.719589
0.430969
0.317505
0.358002
0.337524
0.249756
0.266602
0.345169
0.387951
0.460693
0.425232
0.532593
0.277908
0.244537
1.97071
0.896014
1.30477
2.14718
0.498519
0.952269
0.488266
0.832561
0.609791
0.512787
0.4496
0.575104
0.564967
0.873266
0.433105
0.231689
0.416626
0.415955
0.511536
0.43235
0.459778
0.40625
0.390991
0.436579
0.547562
0.441818
1.00983
1.19785
0.467285
0.600708
0.860817
1.34927
1.16966
0.250977
0.278809
1.04756
0.412079
1.0104
0.243942
0.440918
0.493034
0.429077
0.793579
0.855187
0.492416
0.537888
1.10942
0.673157
0.949104
0.561523
1.11108
1.31674
0.349731
0.167969
0.626894
0.722946
0.241505
0.482395
0.369263
1.22917
0.724419
0.178162
0.356171
0.318848
0.618332
0.546503
0.229626
0.358512
0.188189
0.496353
1.08654
1.28103
0.91692
0.892815
0.740273
0.239363
0.451893
0.23943
1.11786
1.89767
0.473877
0.724854
1.57564
1.96603
3.02463
1.70408
1.18503
1.93399
1.17815
2.23328
0.774256
0.476563
0.47678
0.536823
0.558291
1.51022
0.45459
0.562134
0.753993
0.560832
2.12375
0.981247
1.9092
2.31261
2.02996
2.54402
0.127563
0.709534
1.31464
0.954435
0.848022
0.637589
0.582855
2.19458
0.801235
2.66995
0.326324
0.218338
0.485321
0.477661
0.438477
2.11297
0.651567
0.750984
0.505997
0.540146
1.4788
0.630489
1.61421
1.04592
0.304146
0.215347
0.205332
0.35025
0.148499
0.166168
0.215111
0.397751
0.3078
0.420349
0.479023
0.320197
0.51825
0.510434
0.430252
0.168671
0.622198
0.469086
0.693304
0.405661
0.489304
0.307251
0.307823
0.464529
0.360832
0.279602
0.420944
0.318207
0.566349
0.439056
0.380937
0.303952
0.327792
0.371208
0.469504
0.449357
0.464425
0.759945
0.469727
0.19194
0.193893
0.490936
0.628157
0.185947
0.223099
0.242506
0.410403
0.491024
0.590707
0.550938
0.338356
0.461802
0.33625
0.382317
0.398464
0.454018
0.251309
0.218607
0.46892
0.423318
0.186699
0.290356
0.149724
0.147828
0.209794
0.273077
0.403297
0.189911
0.530373
0.533535
0.392609
0.477509
0.320183
0.452459
0.491569
0.440704
0.507507
0.574408
0.360634
0.476593
0.219666
0.27224
0.190552
0.202822
0.288239
0.54097
0.255585
0.231628
0.457413
0.495865
0.501198
0.577964
0.562723
0.57865
0.619316
0.269806
0.432617
0.497549
0.416199
0.83149
0.710224
0.623989
0.425293
0.525139
0.40616
0.308197
0.339161
0.478127
0.127537
0.22299
0.179829
0.198929
0.335419
0.571373
0.386299
0.843286
0.871976
0.680927
0.709837
0.346375
0.874937
0.406158
0.330139
0.391846
0.750169
0.88912
0.81436
0.333986
0.387299
0.199341
0.362519
0.336952
0.549213
0.566838
0.480743
0.365234
0.550735
0.452271
0.399475
0.512085
0.721375
0.518833
0.802187
0.783019
0.621067
0.294449
0.67674
0.453985
0.306778
0.0691528
0.198868
0.408233
0.989147
0.662766
1.15135
1.11422
0.800812
0.382641
0.535156
0.538574
0.283386
0.663284
0.747646
0.294922
1.04959
0.951832
0.563721
0.298721
0.859785
0.827698
0.998789
0.19236
1.14795
0.50647
0.602692
0.521423
0.774963
0.512329
0.714215
0.496815
0.305908
0.918945
1.04504
1.09716
0.511261
0.636169
0.5569
0.532928
0.813751
0.587618
0.830746
0.576624
0.473722
0.576868
2.63743
2.18998
2.52218
2.83509
2.32835
0.582642
0.881379
0.852892
0.389923
0.400223
0.486359
0.395905
0.56012
0.489975
0.395279
0.429749
0.429962
0.331387
2.39007
0.607687
0.700736
1.48396
0.475193
0.485948
0.542311
0.593682
