<VTKFile type="ImageData" version="1.0" byte_order="LittleEndian" header_type="UInt64">
	<ImageData WholeExtent="0 29 0 29 0 29" Origin="-0.130741 -0.00305092 -0.09804" Spacing="0.00785796 0.00785796 0.00785796">
		<Piece Extent="0 29 0 29 0 29">
			<PointData Scalars="Scalars_">
				<DataArray type="Float32" Name="Scalars_" format="ascii" RangeMin="0" RangeMax="100">
0.123811
0.119124
0.114605
0.11026
0.106098
0.102145
0.0984432
0.0950514
0.092046
0.0895137
0.0875529
0.0862871
0.0868777
0.0864667
0.0861782
0.0854206
0.0861323
0.0870052
0.0877519
0.0884523
0.089833
0.0918376
0.0943766
0.0973631
0.100715
0.104356
0.108221
0.112259
0.116436
0.120739
0.120765
0.115975
0.111349
0.106892
0.102616
0.0985448
0.0947229
0.0912128
0.0880937
0.0854581
0.083411
0.0820857
0.0826629
0.0821589
0.081768
0.0810121
0.0817444
0.0826652
0.0834689
0.0842008
0.0856366
0.0877144
0.0903372
0.0934134
0.0968565
0.100587
0.104537
0.108651
0.112899
0.117269
0.118138
0.113257
0.108535
0.103975
0.0995922
0.0954115
0.0914774
0.0878546
0.0846265
0.081891
0.0797599
0.0783755
0.0789025
0.0782621
0.077722
0.0769813
0.0777395
0.0787268
0.079617
0.0803998
0.0818925
0.0840374
0.0867338
0.0898861
0.0934055
0.0972094
0.101226
0.105402
0.109706
0.114129
0.115962
0.111014
0.106212
0.101565
0.0970875
0.0928091
0.0887742
0.0850496
0.0817221
0.0788944
0.0766847
0.0752444
0.0756396
0.0747918
0.0740404
0.0733347
0.0741308
0.0752142
0.0762385
0.0771101
0.0786627
0.0808642
0.0836157
0.0868224
0.0903946
0.0942483
0.0983105
0.102528
0.106871
0.111333
0.114244
0.109281
0.104438
0.0997264
0.0951733
0.0908146
0.0866966
0.0828875
0.0794764
0.0765703
0.0742925
0.0728007
0.0728902
0.0717126
0.0706812
0.0700344
0.0708943
0.0721159
0.0733511
0.0743843
0.0760057
0.0782461
0.0810236
0.0842517
0.087844
0.0917173
0.0957982
0.100035
0.104399
0.108887
0.112814
0.108009
0.103259
0.0985541
0.093951
0.0895381
0.0853635
0.0814961
0.0780266
0.0750646
0.0727353
0.0711847
0.0705636
0.0688938
0.067549
0.0669809
0.0679491
0.0693543
0.0709013
0.0722304
0.0739502
0.0762057
0.0789676
0.082173
0.0857455
0.0896052
0.0936795
0.0979165
0.10229
0.106797
0.110982
0.106596
0.102436
0.0984581
0.0945623
0.0905933
0.0864966
0.0826451
0.0791584
0.076092
0.073402
0.0708271
0.0683368
0.0661355
0.0645525
0.0640664
0.0651938
0.0667964
0.0687077
0.0705065
0.0724052
0.074666
0.077375
0.0805212
0.0840462
0.0878731
0.091929
0.0961615
0.100544
0.10507
0.108337
0.103972
0.0999069
0.0961659
0.092755
0.0896281
0.0866223
0.0834367
0.0798671
0.0760793
0.072371
0.0689066
0.0658656
0.0634179
0.0617531
0.0613519
0.0626652
0.0644338
0.0665964
0.0688444
0.071026
0.0733683
0.0760702
0.0791871
0.0826839
0.0864916
0.0905401
0.094778
0.0991773
0.10373
0.105943
0.101524
0.0974167
0.0936556
0.0902682
0.0872463
0.0844761
0.0816228
0.0782622
0.0744196
0.070511
0.0668488
0.0636567
0.0611045
0.0593906
0.0591172
0.0606154
0.062564
0.0648516
0.0673965
0.0698825
0.0723934
0.0751527
0.078272
0.0817511
0.0855403
0.0895818
0.0938285
0.0982512
0.102837
0.103983
0.0995164
0.0953682
0.0915797
0.0881912
0.0852203
0.0825946
0.0799837
0.0768045
0.0729731
0.0690101
0.0652754
0.0620128
0.0593979
0.0576413
0.0574682
0.0590928
0.0612208
0.0636131
0.0662069
0.0688198
0.0715093
0.0744119
0.0776081
0.0811175
0.0849227
0.0889922
0.0932913
0.0977904
0.102467
0.102506
0.0980044
0.0938262
0.0900194
0.0866362
0.0837224
0.0812709
0.0790406
0.076294
0.0726325
0.0687233
0.0650137
0.0617957
0.05923
0.0574968
0.0570086
0.058682
0.060785
0.0630072
0.0654485
0.0679977
0.0707233
0.073696
0.0769509
0.0805025
0.0843507
0.0884823
0.0928741
0.0974984
0.102327
0.101572
0.097048
0.0928501
0.0890295
0.0856445
0.0827589
0.0804166
0.0784992
0.0761995
0.0725361
0.068661
0.0650285
0.0618586
0.0593188
0.0575727
0.0568729
0.0586045
0.0607365
0.0630548
0.0656135
0.0682889
0.0711055
0.0740973
0.0773009
0.0807596
0.0845074
0.0885597
0.0929116
0.097543
0.102424
0.101589
0.0970168
0.0927469
0.0888265
0.0853108
0.0822637
0.0797411
0.0777295
0.0758353
0.0729937
0.0691183
0.0654639
0.0622634
0.0596947
0.0579514
0.0574878
0.0591135
0.0611843
0.0635767
0.0662453
0.0689995
0.0718452
0.0748201
0.077977
0.0813804
0.0850786
0.089093
0.0934207
0.0980429
0.102932
0.0995865
0.0947138
0.0901433
0.0859257
0.0821207
0.0787984
0.0760398
0.0739408
0.0726196
0.0724005
0.0706113
0.0670985
0.0640121
0.061539
0.0598674
0.0594769
0.061011
0.0629836
0.0652857
0.0678474
0.0705045
0.0732633
0.0761633
0.0792593
0.0826127
0.0862677
0.090243
0.0945348
0.0991257
0.10399
0.0961126
0.0909664
0.0861248
0.0816398
0.0775724
0.0739953
0.0709949
0.0686784
0.0671926
0.0676518
0.0691127
0.0693165
0.0665607
0.0642309
0.0626647
0.0623413
0.0637599
0.0656083
0.0677748
0.0701633
0.0726522
0.0752537
0.07802
0.0810142
0.084293
0.0878905
0.0918176
0.0960658
0.100617
0.105445
0.0922102
0.0868325
0.0817531
0.0770248
0.0727114
0.0688905
0.0656579
0.0631351
0.0614949
0.0619517
0.0637419
0.0663938
0.069012
0.06754
0.0660996
0.0658424
0.0671232
0.0688272
0.0708301
0.0729742
0.0752202
0.0776184
0.0802325
0.0831209
0.0863256
0.0898668
0.0937454
0.0979485
0.102455
0.107241
0.0885374
0.082947
0.0776433
0.0726797
0.0681224
0.0640545
0.0605815
0.0578425
0.0560398
0.0564663
0.0584043
0.0613006
0.0649401
0.0689064
0.0699572
0.0698088
0.0709301
0.0724572
0.0742718
0.0761142
0.0780807
0.0802737
0.082752
0.0855521
0.0886948
0.0921857
0.0960174
0.100173
0.104632
0.109368
0.0852736
0.0794919
0.0739817
0.0687961
0.0640029
0.0596891
0.05597
0.0530029
0.0510248
0.0514149
0.0534975
0.0565968
0.060478
0.0649734
0.0698441
0.0733049
0.074944
0.0763443
0.0779641
0.0794943
0.0812019
0.0832225
0.0855927
0.0883223
0.0914123
0.0948558
0.0986397
0.102745
0.107149
0.11183
0.0824687
0.0765292
0.0708449
0.0654673
0.060463
0.0559209
0.0519634
0.0487659
0.0466042
0.0469628
0.049199
0.0525032
0.0566087
0.0613355
0.0665274
0.0719793
0.077043
0.0799396
0.0817566
0.0830843
0.0845973
0.0864882
0.0887739
0.0914439
0.094484
0.0978791
0.101612
0.105661
0.110005
0.114622
0.0801168
0.0740733
0.0682736
0.0627651
0.0576098
0.0528923
0.0487349
0.0453254
0.0429845
0.0433195
0.0457084
0.0492076
0.0535193
0.058448
0.0638241
0.0694255
0.0749435
0.0800819
0.084275
0.0865936
0.088227
0.0900682
0.0922948
0.0949121
0.0979024
0.101246
0.104922
0.10891
0.113188
0.117735
0.0781173
0.0720422
0.0662202
0.0606965
0.0555252
0.0507734
0.0465363
0.0429828
0.0404945
0.0408117
0.0433264
0.046979
0.0514467
0.0565229
0.0620238
0.0676872
0.0731465
0.0781129
0.0826249
0.0869593
0.0906953
0.0934688
0.0959756
0.0986496
0.101625
0.104926
0.108547
0.112471
0.11668
0.121152
0.0762739
0.0701955
0.0644119
0.0589928
0.0540288
0.0496371
0.0459679
0.0432037
0.0414903
0.0404971
0.0429808
0.046604
0.0510432
0.0560889
0.0615264
0.0670139
0.0721478
0.0767459
0.0809981
0.0852217
0.0896273
0.0942614
0.0984194
0.101995
0.105349
0.108775
0.11241
0.116298
0.120448
0.124849
0.0745955
0.0684315
0.0625615
0.0570607
0.0520306
0.0476099
0.0439963
0.0414948
0.0408982
0.0395495
0.0420542
0.0457054
0.0501764
0.055256
0.0607113
0.0661549
0.071171
0.0756398
0.0798163
0.0840234
0.0884496
0.0931625
0.0981621
0.103211
0.107876
0.112117
0.116154
0.120202
0.124386
0.128761
0.0735772
0.067362
0.0614386
0.0558831
0.0507988
0.0463286
0.042678
0.0401737
0.0405943
0.0396886
0.0421929
0.0458435
0.0503139
0.0553915
0.0608223
0.0661954
0.071099
0.0754613
0.0795726
0.0837516
0.0881712
0.0928874
0.0979012
0.103188
0.108635
0.113964
0.118964
0.123649
0.128175
0.132699
0.0741658
0.0679675
0.062061
0.0565224
0.0514546
0.0469995
0.043362
0.0408672
0.041385
0.0410626
0.043529
0.0471297
0.0515447
0.0565611
0.0619004
0.0670929
0.0717173
0.0757985
0.0797142
0.0837856
0.0881539
0.0928507
0.0978621
0.103159
0.108707
0.114444
0.120221
0.125826
0.131139
0.136197
0.0757741
0.0696886
0.0639072
0.0585065
0.0535881
0.04929
0.0458064
0.0434388
0.0439616
0.0438578
0.0462001
0.0496492
0.0539083
0.0587721
0.0639573
0.0689833
0.0734385
0.0773784
0.0811894
0.0851787
0.0894765
0.0941084
0.0990591
0.104299
0.109795
0.11551
0.121386
0.127329
0.133207
0.1389
0.078168
0.0722446
0.0666403
0.0614311
0.0567152
0.0526236
0.0493359
0.0471242
0.0476419
0.04767
0.0498609
0.0531187
0.0571751
0.0618382
0.0668301
0.0716733
0.0759616
0.0797588
0.0834503
0.0873343
0.091534
0.0960732
0.100935
0.10609
0.111506
0.117151
0.122988
0.128969
0.135024
0.141063
0.0812241
0.0754927
0.0700949
0.0651044
0.060615
0.0567485
0.0536683
0.0516161
0.0521254
0.0522419
0.0542785
0.0573337
0.0611695
0.0656094
0.0703869
0.0750343
0.0791505
0.0828002
0.086362
0.0901257
0.09421
0.0986365
0.10339
0.10844
0.113757
0.119308
0.125065
0.130992
0.137049
0.143183
0.0848466
0.079324
0.0741473
0.0693869
0.0651309
0.0614914
0.0586151
0.0567152
0.0572147
0.0573939
0.0592835
0.0621397
0.065753
0.069963
0.0745176
0.0789626
0.0829039
0.0864034
0.0898298
0.0934643
0.0974221
0.101724
0.106355
0.111287
0.116489
0.121932
0.127587
0.133427
0.13942
0.145533
0.0889563
0.0836499
0.0786988
0.0741694
0.070144
0.0667241
0.0640405
0.0622815
0.0627703
0.0629956
0.0647499
0.0674177
0.0708155
0.074799
0.079131
0.0833729
0.0871397
0.0904892
0.0937783
0.0972798
0.101105
0.105274
0.109774
0.114578
0.119655
0.124978
0.130519
0.136253
0.142154
0.148195
0.118288
0.113519
0.108926
0.104507
0.100268
0.0962229
0.0924097
0.0888889
0.0857441
0.0830755
0.080996
0.0796466
0.0802722
0.0799012
0.0797191
0.0789158
0.0796526
0.0805131
0.0812064
0.0818813
0.0833344
0.0854559
0.0881329
0.0912615
0.0947459
0.098501
0.102456
0.106563
0.110797
0.115155
0.115116
0.110234
0.105522
0.10098
0.0966122
0.0924354
0.0884869
0.0848302
0.0815529
0.0787625
0.0765803
0.0751587
0.0757875
0.0753465
0.0750745
0.0742666
0.0750235
0.0759279
0.0766674
0.0773624
0.0788789
0.0810879
0.0838655
0.0871011
0.0906935
0.0945526
0.0986041
0.102798
0.107111
0.111543
0.112375
0.107391
0.102571
0.0979153
0.0934283
0.0891271
0.0850498
0.0812624
0.0778568
0.0749466
0.0726625
0.0711685
0.0717829
0.0712327
0.0708193
0.0700208
0.0708005
0.0717674
0.0725785
0.0733066
0.0748863
0.0771763
0.0800439
0.0833729
0.0870575
0.0910038
0.0951342
0.0993986
0.103775
0.108267
0.110104
0.10504
0.100129
0.0953742
0.0907809
0.0863679
0.0821744
0.0782674
0.0747431
0.0717208
0.0693396
0.067776
0.0683274
0.0676014
0.0669718
0.0662034
0.0670147
0.0680746
0.0690025
0.0697919
0.0714325
0.0737899
0.0767267
0.080125
0.0838768
0.0878852
0.0920711
0.0963841
0.100807
0.105344
0.108317
0.103224
0.0982595
0.09343
0.08875
0.0842449
0.0799542
0.0759467
0.0723212
0.0692022
0.0667362
0.0651107
0.0654774
0.0644504
0.0635035
0.0627941
0.06366
0.0648614
0.0659876
0.0668983
0.0685969
0.0709959
0.0739665
0.0773957
0.0811779
0.0852146
0.0894264
0.0937646
0.0982144
0.102785
0.106867
0.101906
0.0970179
0.092186
0.087449
0.0828808
0.0785231
0.0744454
0.0707483
0.0675598
0.0650319
0.0633595
0.063215
0.0616599
0.0603069
0.0596835
0.060654
0.0620585
0.0635158
0.0646801
0.0664399
0.0688377
0.0717857
0.0751913
0.0789562
0.0829834
0.0871926
0.091536
0.0960005
0.100596
0.105022
0.100468
0.0961475
0.0920296
0.0880243
0.0839705
0.0797417
0.0756975
0.0720126
0.0687807
0.0660496
0.0636258
0.0612098
0.0589343
0.0572263
0.0566921
0.0578398
0.0594754
0.0613839
0.06304
0.064906
0.0672529
0.0701152
0.0734454
0.0771567
0.0811504
0.0853438
0.0896873
0.0941658
0.0987877
0.102257
0.0977088
0.0934612
0.089547
0.0859887
0.0827696
0.0797673
0.0766754
0.0731719
0.0693533
0.0655674
0.0619593
0.0587327
0.0560952
0.0542694
0.0538184
0.0551938
0.0570094
0.0592461
0.0614554
0.063564
0.065931
0.0687487
0.072032
0.0757092
0.079684
0.083874
0.0882292
0.0927325
0.0973884
0.0997472
0.0951329
0.0908283
0.0868761
0.0833181
0.0801774
0.0774005
0.0747114
0.0715647
0.0677579
0.0637227
0.0598428
0.0564089
0.0536279
0.0517347
0.0514342
0.0530533
0.0550708
0.0574366
0.0600577
0.0625043
0.0649999
0.0678325
0.0710903
0.0747339
0.0786843
0.0828688
0.0872391
0.0917728
0.096467
0.0976886
0.0930163
0.0886587
0.084664
0.0810848
0.077967
0.0753023
0.0728598
0.0699632
0.0661962
0.0621023
0.0581315
0.0546059
0.0517406
0.0497865
0.0496237
0.0514156
0.053669
0.0561526
0.0588282
0.0614546
0.064168
0.0671447
0.0704599
0.0741137
0.0780715
0.0822895
0.0867272
0.0913545
0.0961546
0.0961335
0.0914183
0.0870216
0.0829967
0.0794062
0.0763191
0.0737847
0.0716981
0.069342
0.0658165
0.0617964
0.0578449
0.0543684
0.0515656
0.049654
0.0491518
0.0510046
0.0532138
0.0554699
0.0579794
0.0605647
0.0633532
0.0664221
0.0697988
0.0734931
0.0774996
0.081798
0.0863579
0.0911452
0.0961269
0.0951479
0.0904054
0.0859845
0.0819409
0.0783432
0.0752746
0.0728263
0.0710249
0.0692571
0.0657002
0.0616931
0.0578383
0.0544227
0.0516578
0.0497463
0.0490149
0.0509398
0.0531733
0.0555468
0.0581857
0.0609061
0.0637797
0.0668423
0.0701342
0.0737083
0.0776026
0.0818275
0.0863687
0.0911949
0.0962662
0.0955187
0.0908341
0.0864532
0.0824238
0.0788071
0.0756771
0.0731076
0.0711108
0.069252
0.0661836
0.0621769
0.0583005
0.0548482
0.0520419
0.0501163
0.0496539
0.0514423
0.0536174
0.0561099
0.0588814
0.0616745
0.0645582
0.067583
0.0708131
0.0743251
0.0781691
0.0823591
0.0868818
0.0917082
0.0968014
0.0944872
0.0895303
0.0848653
0.0805468
0.07664
0.0732238
0.0703923
0.0682566
0.0669408
0.0664
0.0637439
0.0600592
0.0567614
0.0540858
0.0522566
0.0518749
0.0535416
0.0555931
0.0579692
0.0605935
0.0632643
0.0660435
0.0689848
0.072152
0.075614
0.079414
0.083563
0.0880475
0.0928411
0.0979105
0.0916364
0.0863597
0.0813788
0.0767503
0.0725403
0.0688292
0.0657132
0.0633108
0.0617812
0.0622625
0.0635657
0.0625628
0.0595021
0.0570164
0.0553286
0.055024
0.0565364
0.058436
0.0606431
0.0630444
0.065515
0.0681111
0.0709033
0.0739643
0.0773522
0.0810957
0.085196
0.0896352
0.0943869
0.0994189
0.0878125
0.0822664
0.0770097
0.0720994
0.0676038
0.0636076
0.0602159
0.0575632
0.055839
0.0563438
0.0582598
0.0610296
0.0628224
0.0605598
0.0590368
0.0588074
0.0601379
0.061864
0.0638731
0.0659567
0.0681415
0.0705188
0.0731601
0.0761233
0.0794449
0.0831362
0.0871888
0.0915814
0.0962863
0.101273
0.0840831
0.0782909
0.0727747
0.0675906
0.0628093
0.05852
0.0548387
0.0519199
0.0499902
0.0504622
0.0525808
0.0557119
0.0595928
0.0633794
0.0631922
0.0630254
0.0641479
0.0656574
0.0674447
0.0691506
0.071031
0.0732107
0.0757336
0.0786241
0.0818936
0.0855386
0.0895443
0.0938865
0.0985383
0.103471
0.0807515
0.0747372
0.0689797
0.0635339
0.0584704
0.0538826
0.0498962
0.0466878
0.0445282
0.0449516
0.0472578
0.0506485
0.0548467
0.0596531
0.0646451
0.0671771
0.0683904
0.0696602
0.0712195
0.0725676
0.0741955
0.076225
0.0786602
0.0814944
0.0847179
0.088317
0.0922717
0.0965577
0.101149
0.106017
0.0778932
0.0716914
0.0657248
0.0600449
0.0547206
0.0498453
0.0455525
0.04204
0.0396296
0.0400097
0.0425234
0.0461811
0.0506632
0.0557617
0.061285
0.0669288
0.0714127
0.0735807
0.0751185
0.0762214
0.0776742
0.0795956
0.0819619
0.084745
0.0879215
0.09147
0.0953678
0.0995905
0.104113
0.108909
0.07551
0.0691758
0.0630594
0.0572071
0.0516812
0.0465699
0.0420052
0.0381993
0.0355315
0.03588
0.0386114
0.042534
0.0472853
0.0526387
0.058383
0.0641954
0.0696455
0.0744723
0.0781245
0.0799561
0.0814518
0.0833199
0.0856319
0.0883646
0.0914898
0.0949818
0.0988165
0.102969
0.107416
0.112133
0.0734866
0.0670984
0.0609319
0.0550306
0.0494482
0.044254
0.0395507
0.0355292
0.0326365
0.0329664
0.0358898
0.0400317
0.0449951
0.0505403
0.0564346
0.0622814
0.0675833
0.0721787
0.0764006
0.0806393
0.0842381
0.0869503
0.0895015
0.0922751
0.0953768
0.098819
0.10259
0.10667
0.111037
0.11567
0.0715851
0.0651771
0.0590307
0.0532159
0.0478266
0.0429906
0.0388814
0.0357276
0.0337592
0.0326965
0.0355836
0.0396892
0.0446174
0.0501227
0.0559123
0.0614552
0.0662792
0.0704704
0.0744965
0.0787047
0.0832282
0.0880116
0.0922157
0.0958474
0.099294
0.10284
0.10661
0.110642
0.114939
0.119491
0.0698295
0.0633182
0.0570634
0.0511398
0.0456519
0.0407508
0.0366647
0.0337717
0.0331628
0.0316915
0.0346061
0.0387473
0.0437144
0.0492606
0.0550555
0.0604879
0.0651226
0.0691788
0.0731647
0.0773922
0.0819628
0.0868807
0.0921054
0.0973128
0.102074
0.106401
0.110539
0.114706
0.119021
0.123532
0.0687688
0.0621987
0.0558812
0.0498916
0.0443362
0.0393701
0.0352297
0.0323158
0.0327887
0.0318319
0.0347459
0.0388865
0.0438529
0.0493959
0.0551442
0.0604616
0.0649587
0.0689255
0.0728758
0.0770971
0.0816737
0.0866022
0.0918507
0.0973742
0.103021
0.108487
0.113581
0.118355
0.122981
0.127617
0.0693718
0.0628202
0.0565217
0.0505512
0.0450147
0.0400665
0.0359421
0.0330399
0.0335841
0.0333256
0.0361888
0.0402646
0.0451619
0.0506268
0.0562367
0.0612632
0.0653935
0.0690914
0.0729025
0.0770644
0.0816219
0.0865508
0.0918094
0.0973545
0.103143
0.109097
0.115041
0.120761
0.126161
0.131301
0.0710702
0.0646524
0.0585061
0.0527083
0.0473655
0.0426292
0.0387234
0.0360136
0.0365565
0.0365138
0.0391911
0.0430536
0.0477422
0.0530099
0.0584227
0.0632442
0.0671954
0.0707634
0.0744762
0.0785531
0.0830319
0.0878865
0.0930751
0.0985549
0.104285
0.110222
0.1163
0.122412
0.128418
0.134205
0.0735932
0.0673653
0.0614307
0.0558673
0.0507799
0.0463128
0.0426727
0.040184
0.0407185
0.0407987
0.043262
0.0468659
0.0512913
0.0563063
0.061483
0.0660956
0.0698738
0.0733008
0.0768903
0.0808515
0.0852188
0.0899665
0.0950528
0.100436
0.106076
0.111937
0.117977
0.124142
0.130357
0.136525
0.0768017
0.0707958
0.0651041
0.0598034
0.0549944
0.0508118
0.047442
0.0451686
0.0456922
0.0458521
0.0481072
0.0514477
0.0555947
0.0603355
0.065258
0.0696551
0.0732584
0.0765371
0.0799893
0.0838167
0.0880523
0.0926716
0.0976338
0.102898
0.108426
0.114183
0.120136
0.126246
0.132471
0.138753
0.0805894
0.0748221
0.0693866
0.0643572
0.0598291
0.0559256
0.0528127
0.0507364
0.0512482
0.0514632
0.0535279
0.0566176
0.0604913
0.0649561
0.0696203
0.0738004
0.0772289
0.080357
0.0836653
0.0873491
0.0914412
0.0959186
0.100742
0.105873
0.111272
0.116908
0.122749
0.128766
0.134925
0.14119
0.0848699
0.0793467
0.0741693
0.0694082
0.0651518
0.0615119
0.0586351
0.0567351
0.0572347
0.0574895
0.0593845
0.0622434
0.0658586
0.0700563
0.0744672
0.0784339
0.0816909
0.0846696
0.0878328
0.091369
0.0953114
0.0996389
0.104315
0.109301
0.114562
0.120065
0.125781
0.131683
0.137743
0.143934
0.112908
0.108055
0.103391
0.0989101
0.0946084
0.0904904
0.0865821
0.0829407
0.0796564
0.0768449
0.0746379
0.0731961
0.07385
0.0735006
0.0734321
0.0725806
0.0733458
0.0741901
0.0748296
0.0754883
0.0770269
0.0792782
0.0821021
0.085375
0.0889854
0.092839
0.0968648
0.101022
0.105299
0.109705
0.109603
0.104624
0.0998282
0.0952111
0.0907673
0.0865017
0.0824405
0.0786433
0.0752048
0.0722489
0.0699187
0.0683892
0.0690558
0.068657
0.0685178
0.0676544
0.0684401
0.0693235
0.0699981
0.0706678
0.0722827
0.0746405
0.0775864
0.0809873
0.0847252
0.0886992
0.0928341
0.0970885
0.101453
0.105941
0.106741
0.101648
0.0967306
0.0919861
0.0874086
0.0830024
0.0787941
0.0748453
0.071255
0.0681552
0.0657001
0.0640806
0.0647524
0.0642763
0.0640146
0.0631524
0.063959
0.0648989
0.0656286
0.0663164
0.0680072
0.0704657
0.0735233
0.0770391
0.080889
0.0849664
0.0891928
0.093527
0.0979636
0.102521
0.104367
0.0991801
0.0941595
0.0893023
0.0846045
0.0800709
0.0757281
0.0716386
0.0679056
0.0646684
0.0620921
0.060384
0.0610403
0.0604305
0.0599627
0.0591236
0.0599553
0.0609823
0.0618055
0.0625289
0.0642901
0.0668341
0.0699813
0.0735866
0.077522
0.0816766
0.0859693
0.090361
0.0948508
0.099462
0.10251
0.0972749
0.0921857
0.0872415
0.0824445
0.0778046
0.0733483
0.0691386
0.0652824
0.0619242
0.0592396
0.0574503
0.0580227
0.0571658
0.0563604
0.055578
0.0564516
0.0576194
0.0586143
0.0594153
0.0612341
0.063831
0.0670263
0.070678
0.074658
0.0788527
0.0831801
0.0876034
0.0921279
0.0967799
0.101054
0.0959212
0.0908808
0.0859185
0.0810553
0.0763419
0.071806
0.0675114
0.0635663
0.0601196
0.0573539
0.0555029
0.0557779
0.0544151
0.0531049
0.0524172
0.0533817
0.0547712
0.0560943
0.057084
0.0589368
0.0615242
0.0646959
0.0683283
0.0722981
0.0764897
0.08082
0.0852541
0.0897999
0.0944847
0.0992447
0.0945125
0.0900172
0.0857401
0.0816064
0.077457
0.0731156
0.0688711
0.0649624
0.0615143
0.0586444
0.0563366
0.054108
0.051809
0.0499655
0.0493785
0.0505303
0.052196
0.0540671
0.0555237
0.0573917
0.059871
0.0629256
0.0664697
0.0703834
0.074544
0.0788629
0.0833031
0.0878702
0.0925892
0.0963621
0.0916203
0.0871766
0.0830699
0.0793364
0.0759863
0.0729421
0.0699214
0.066495
0.0626546
0.0588351
0.0551141
0.0517048
0.0488614
0.0468452
0.0463309
0.0477592
0.049614
0.0519338
0.054045
0.0560687
0.0584961
0.0614707
0.0649552
0.0688335
0.0729796
0.0773028
0.0817641
0.086365
0.091126
0.0937293
0.088909
0.0843925
0.0802283
0.07647
0.0731667
0.0703214
0.0677532
0.0648795
0.0611986
0.0570842
0.0529852
0.0492841
0.0462386
0.0441279
0.0437876
0.0455404
0.0476068
0.0500539
0.0527525
0.0551111
0.0575953
0.0605351
0.0639673
0.0677995
0.0719194
0.0762432
0.0807288
0.0853686
0.0901733
0.0915651
0.0866756
0.0820931
0.0778701
0.0740698
0.0707608
0.0679893
0.0656482
0.0630952
0.0594996
0.0553283
0.0511147
0.0472929
0.0441314
0.0419314
0.0417799
0.0437757
0.0461548
0.0487287
0.0514886
0.0541022
0.0568386
0.0599084
0.0633663
0.0671846
0.0713072
0.0756779
0.080253
0.0850068
0.0899334
0.0899254
0.0849845
0.0803529
0.0760873
0.0722589
0.0689548
0.0662697
0.0642321
0.0623198
0.0590657
0.0550052
0.0507978
0.0470273
0.0439436
0.0418121
0.041295
0.0433685
0.0456729
0.0479428
0.0505329
0.0531441
0.0560065
0.0591883
0.0627033
0.0665577
0.0707397
0.0752199
0.0799582
0.0849133
0.0900493
0.0888825
0.0839089
0.0792468
0.0749549
0.071109
0.0678078
0.0651776
0.0633685
0.0622502
0.0589406
0.0548456
0.0507614
0.0470675
0.0440364
0.041923
0.0411569
0.0433212
0.0456394
0.0480563
0.050787
0.0535421
0.0564784
0.059618
0.0630069
0.0667136
0.0707783
0.075202
0.0799559
0.0849942
0.0902651
0.0892945
0.0844419
0.0798959
0.0757047
0.0719328
0.0686679
0.0660091
0.0640292
0.062397
0.0594413
0.0553587
0.0512566
0.0475207
0.0444331
0.0422806
0.041822
0.0438071
0.0460796
0.0486791
0.0515613
0.0543699
0.0572902
0.0603686
0.063682
0.0673227
0.0713392
0.0757329
0.0804765
0.0855282
0.0908417
0.0890937
0.0840561
0.0793005
0.0748821
0.0708709
0.0673566
0.0644515
0.0622938
0.0610386
0.0602699
0.0569827
0.0531469
0.049625
0.0467221
0.0447054
0.0443373
0.046155
0.0482695
0.0507136
0.0533874
0.0560472
0.058845
0.0618342
0.0650863
0.0686785
0.0726497
0.076999
0.0817011
0.0867186
0.0920099
0.0872448
0.0818663
0.0767701
0.0720174
0.0676813
0.0638518
0.0606381
0.0581753
0.0566393
0.0571161
0.0579179
0.0557723
0.0525698
0.0499234
0.0481023
0.0478247
0.0494306
0.0513609
0.0535915
0.0559752
0.0584033
0.0609885
0.0638132
0.0669576
0.0704786
0.0743947
0.0786944
0.083349
0.0883221
0.0935751
0.0836797
0.0779871
0.0725716
0.0674942
0.06283
0.058672
0.0551369
0.0523741
0.0505912
0.0511572
0.0531781
0.0559497
0.0560693
0.0537135
0.0521127
0.0519203
0.0532817
0.055007
0.0569972
0.058962
0.0610652
0.0634268
0.066112
0.0691731
0.0726379
0.0765063
0.0807584
0.0853635
0.090286
0.0954897
0.0799481
0.0739678
0.0682501
0.0628548
0.057857
0.0533538
0.0494722
0.0463837
0.0443409
0.0448804
0.0472026
0.050583
0.0546771
0.0575893
0.056525
0.0563955
0.057484
0.0589433
0.0606775
0.0621768
0.0639696
0.0661575
0.0687507
0.0717584
0.0751808
0.0790052
0.0832074
0.0877565
0.0926192
0.0977618
0.0765797
0.0703415
0.0643433
0.0586415
0.0533094
0.048446
0.0441878
0.0407311
0.038384
0.0388569
0.0414255
0.0451444
0.0496872
0.0548051
0.0595906
0.0610039
0.0618881
0.0630185
0.0645064
0.0656212
0.0671896
0.0692575
0.0717863
0.0747508
0.0781318
0.0819081
0.0860533
0.0905376
0.0953301
0.1004
0.0736973
0.0672396
0.0609937
0.0550107
0.0493593
0.0441364
0.0394841
0.0356222
0.0329249
0.0333352
0.036189
0.0402594
0.0451633
0.0506628
0.0565079
0.0621932
0.065711
0.0671248
0.0684715
0.0693522
0.0707796
0.0727623
0.0752355
0.0781545
0.0814878
0.0852079
0.0892876
0.0936983
0.0984112
0.103398
0.0713226
0.0647014
0.0582666
0.0520616
0.0461462
0.0406077
0.0355834
0.0313073
0.0282263
0.0285905
0.0317646
0.0362017
0.0414606
0.0472827
0.0533876
0.0592657
0.0643733
0.0687111
0.0718497
0.0732895
0.0747256
0.0766577
0.0790797
0.0819478
0.0852252
0.0888812
0.0928878
0.0972174
0.101843
0.106739
0.0693246
0.0626229
0.056104
0.0498066
0.0437792
0.0380871
0.0328331
0.0282231
0.0247786
0.02512
0.0286022
0.0333627
0.0389149
0.0449883
0.0512641
0.0570966
0.0619317
0.0660375
0.0700526
0.0743115
0.0778325
0.0805307
0.083156
0.0860493
0.0892922
0.0928883
0.0968202
0.101065
0.1056
0.1104
0.0673897
0.0606479
0.0541251
0.0478874
0.0420274
0.0366783
0.032034
0.028376
0.0260548
0.024903
0.0283409
0.0330556
0.0385639
0.0445824
0.0506687
0.0559697
0.0601845
0.0639502
0.0678811
0.0721998
0.0769288
0.0818807
0.0861568
0.0898621
0.0934151
0.0970919
0.101006
0.10519
0.109642
0.114349
0.0655605
0.0586951
0.0520374
0.045656
0.0396523
0.0341823
0.029501
0.0260738
0.0254529
0.0238336
0.0273086
0.032069
0.0376255
0.0436939
0.0497482
0.0548102
0.058779
0.0624533
0.0663988
0.070775
0.0755775
0.0807581
0.0862416
0.0916113
0.0964681
0.100884
0.10513
0.109422
0.113872
0.118524
0.0644585
0.0575257
0.0507947
0.0443341
0.0382465
0.0326914
0.027932
0.0244578
0.0249892
0.0239752
0.0274497
0.0322094
0.0377649
0.0438278
0.0497873
0.054676
0.0585147
0.0621422
0.066083
0.0704695
0.0752864
0.0804824
0.0860029
0.0917856
0.0976362
0.103234
0.108419
0.113279
0.118007
0.122759
0.0650753
0.0581629
0.051453
0.045014
0.0389483
0.0334144
0.0286745
0.0252154
0.0257854
0.0256109
0.0290146
0.0336892
0.0391577
0.0451161
0.0508438
0.0552764
0.058722
0.0621592
0.0660305
0.0703993
0.0752207
0.080431
0.0859702
0.0917867
0.0978298
0.104004
0.11011
0.115936
0.121413
0.126633
0.0668662
0.0601121
0.0535872
0.0473651
0.0415527
0.0363105
0.0318919
0.0287401
0.0293026
0.0293317
0.0324408
0.0368046
0.0419882
0.0476883
0.0531624
0.0573623
0.0606438
0.0639629
0.0677309
0.0720022
0.0767306
0.0818534
0.0873112
0.0930522
0.0990313
0.105199
0.111479
0.117755
0.123879
0.12975
0.0695195
0.0629869
0.0567144
0.0507795
0.0452903
0.0404028
0.0363514
0.033524
0.0340747
0.0342122
0.0370083
0.0410157
0.0458536
0.0512338
0.0564229
0.0604028
0.0635199
0.0666972
0.0703287
0.0744652
0.0790628
0.0840603
0.0893993
0.0950293
0.100907
0.106991
0.113238
0.119587
0.125957
0.132244
0.0728797
0.0666023
0.0606144
0.0549941
0.0498474
0.0453209
0.0416255
0.0390939
0.0396314
0.0398366
0.0423466
0.0460074
0.0504927
0.0555357
0.0604291
0.0641916
0.0671431
0.0701679
0.0736455
0.0776269
0.0820708
0.0869188
0.0921148
0.0976094
0.10336
0.109329
0.115482
0.121777
0.128168
0.134592
0.0768299
0.070823
0.0651305
0.0598289
0.0550191
0.0508358
0.0474654
0.0451914
0.0457151
0.0459662
0.0482269
0.0515706
0.0557201
0.0604323
0.0650335
0.068583
0.0713707
0.0742403
0.0775575
0.0813738
0.0856516
0.0903361
0.0953739
0.100717
0.106324
0.112159
0.118189
0.124383
0.130707
0.137121
0.0812758
0.0755429
0.0701437
0.0651517
0.060661
0.0567934
0.0537121
0.0516593
0.0521691
0.0524531
0.0545001
0.0575612
0.0614012
0.0658002
0.0701212
0.0734655
0.0760949
0.078812
0.0819685
0.0856167
0.0897232
0.094237
0.0991075
0.104289
0.109741
0.115429
0.121322
0.127392
0.133611
0.139949
0.107686
0.102743
0.098008
0.0934735
0.0891278
0.0849621
0.0809843
0.0772404
0.0738233
0.0708653
0.0685226
0.06698
0.0676584
0.0673135
0.0673599
0.0664586
0.0672552
0.0680788
0.0686657
0.0693175
0.0709548
0.0733477
0.0763246
0.079737
0.0834571
0.0873839
0.0914525
0.0956378
0.0999455
0.104397
0.104239
0.0991566
0.0942755
0.0895897
0.0850869
0.0807565
0.0766069
0.0726851
0.0690884
0.0659593
0.0634678
0.0618178
0.0625149
0.062135
0.0621364
0.0612139
0.0620332
0.0628901
0.0635021
0.0641591
0.0658906
0.0684148
0.0715398
0.0751057
0.0789755
0.0830405
0.0872314
0.0915241
0.0959289
0.100473
0.101248
0.0960363
0.0910192
0.0861905
0.0815375
0.0770489
0.0727319
0.0686344
0.0648582
0.061555
0.0589097
0.0571465
0.0578592
0.0574288
0.0573374
0.0564058
0.0572459
0.0581517
0.0588021
0.059466
0.0612935
0.0639455
0.0672103
0.070918
0.0749233
0.07911
0.0834055
0.0877878
0.092274
0.0968968
0.0987636
0.0934428
0.0883065
0.08335
0.0785607
0.0739267
0.0694543
0.0651914
0.0612433
0.0577705
0.0549723
0.0530942
0.0538146
0.0532981
0.0530296
0.0521109
0.052971
0.0539549
0.054672
0.0553505
0.0572683
0.0600328
0.0634154
0.0672393
0.0713531
0.0756341
0.080008
0.0844569
0.0890051
0.0936921
0.0968303
0.0914414
0.0862185
0.0811597
0.0762567
0.0715001
0.0668947
0.0624882
0.0583886
0.054763
0.0518239
0.0498375
0.0505411
0.0498492
0.0492515
0.0483838
0.0492711
0.0503895
0.0512381
0.051954
0.053943
0.0567824
0.060236
0.0641288
0.0683069
0.0726424
0.0770603
0.0815489
0.0861399
0.0908775
0.0953807
0.0900573
0.084849
0.079749
0.0747678
0.0699252
0.0652255
0.0607156
0.0565046
0.0527645
0.0497171
0.0476449
0.0482214
0.0471186
0.0459342
0.0451704
0.0461232
0.0474785
0.0486186
0.0494463
0.0514584
0.0542909
0.057728
0.0616126
0.0657924
0.0701342
0.0745618
0.0790674
0.0836878
0.0884675
0.0936731
0.0887522
0.0840683
0.0796133
0.0753305
0.0710743
0.0666334
0.0621912
0.0580408
0.0543335
0.0512446
0.0489011
0.0469886
0.044762
0.0427775
0.0421356
0.0432678
0.0449636
0.0467395
0.0479448
0.0498745
0.0525423
0.0558334
0.059622
0.0637481
0.0680641
0.0724863
0.0770053
0.0816555
0.0864787
0.0906756
0.0857341
0.0810829
0.0767665
0.072832
0.0693132
0.0661777
0.0631907
0.0598325
0.0559434
0.0521392
0.048362
0.0447909
0.0417337
0.03949
0.0388959
0.0403576
0.0422465
0.0446652
0.0465872
0.0485365
0.0510769
0.0542579
0.0579818
0.062078
0.0663893
0.0708274
0.075379
0.0800735
0.0849476
0.0879135
0.0828789
0.0781381
0.073743
0.0697563
0.0662483
0.0632706
0.060749
0.0581702
0.0547231
0.0506142
0.0463106
0.0423195
0.0389687
0.0365909
0.0361905
0.0380864
0.0401658
0.0427053
0.0454816
0.0476837
0.0501788
0.0532748
0.0569241
0.060967
0.0652563
0.0697062
0.0742945
0.0790369
0.0839603
0.0856361
0.0805204
0.0756992
0.0712276
0.0671766
0.0636331
0.0606879
0.0583528
0.0561514
0.0528543
0.0487035
0.0442561
0.0401038
0.0365901
0.0340757
0.0339369
0.0361863
0.0386811
0.041346
0.0441936
0.0467538
0.0495195
0.0527107
0.0563414
0.0603454
0.0646418
0.0691638
0.0738709
0.0787507
0.0838115
0.0839049
0.0787282
0.0738468
0.0693193
0.0652227
0.0616594
0.0587597
0.0566595
0.0551676
0.0523393
0.0483704
0.0439037
0.0397997
0.0363803
0.0339712
0.0334383
0.0357891
0.0381605
0.0404198
0.0431141
0.0457327
0.0486885
0.0520032
0.0556754
0.05971
0.0640871
0.0687644
0.0736895
0.0788141
0.084102