# vtk DataFile Version 4.2
vtk output
ASCII
DATASET POLYDATA
POINTS 642 double
-2.19579 5.15669 -0.0296049
1.5401 5.14988 -0.030068
-2.1987 -0.902232 -0.0286824
1.54744 -0.901931 -0.0283081
-0.325063 0.25804 2.9993
-0.327274 3.99221 2.98675
-0.324763 0.264279 -3.04646
-0.327877 4.00312 -3.06037
2.68874 2.12925 -1.89051
2.69626 2.12612 1.83795
-3.34902 2.13018 -1.89779
-3.35174 2.12883 1.84085
-3.20514 3.90963 1.07133
-2.10574 3.22733 2.84795
-1.42251 5.00223 1.74677
0.767734 4.99667 1.74204
-0.324916 5.68423 -0.0288472
0.770833 5.00649 -1.80722
-1.42806 5.01745 -1.81339
-2.10979 3.23231 -2.9133
-3.21088 3.91367 -1.13118
-3.88134 2.12923 -0.0284496
1.44504 3.22347 2.83518
2.54301 3.90016 1.06669
-2.10285 1.03037 2.84794
-0.32681 2.12695 3.51806
-3.20476 0.349357 -1.1285
-3.20303 0.34954 1.07066
-0.325613 2.13049 -3.57902
-2.09722 1.03487 -2.89297
2.53468 3.89749 -1.12103
1.44491 3.22479 -2.89638
2.56016 0.346439 1.07327
1.45127 1.02812 2.8457
0.776482 -0.753632 1.7531
-1.42683 -0.754081 1.75202
-0.324887 -1.4287 -0.0286179
-1.42497 -0.749389 -1.80587
0.775124 -0.750186 -1.80819
1.4487 1.0304 -2.89893
2.55769 0.347911 -1.12942
3.23602 2.12562 -0.0283315
-2.79109 4.6297 0.540392
-2.41824 4.57639 1.48262
-1.86796 5.19416 0.890727
-2.8249 2.70015 2.43953
-2.77419 3.64356 2.06315
-3.3967 3.05393 1.51489
-0.892997 4.58883 2.46436
-1.84008 4.2185 2.41788
-1.2448 3.67238 3.03568
-0.905206 5.50865 0.903322
-1.3001 5.54717 -0.0291029
0.240629 4.58287 2.45372
-0.32524 5.14358 1.83336
0.644265 5.55075 -0.0300631
0.251268 5.50523 0.903957
1.21277 5.19188 0.892313
-0.903033 5.51133 -0.963924
-1.87555 5.20769 -0.957837
1.21695 5.19335 -0.948024
0.250357 5.51363 -0.965082
-0.896182 4.60405 -2.53708
-0.328882 5.15473 -1.90027
0.242779 4.59235 -2.52538
-2.42336 4.58422 -1.54631
-2.79735 4.63623 -0.599701
-1.25426 3.67723 -3.1049
-1.84338 4.22786 -2.48495
-3.40011 3.05657 -1.57528
-2.78089 3.64805 -2.12654
-2.8265 2.70287 -2.49954
-3.35253 4.00078 -0.0288172
-3.74227 2.12984 -0.998818
-3.70812 3.06517 -0.606674
-3.70941 3.06391 0.549078
-3.74876 2.12981 0.948074
1.75578 4.56624 1.47685
2.12449 4.61339 0.536573
0.593949 3.66368 3.02584
1.17862 4.20704 2.40343
2.73665 3.04922 1.51092
2.11089 3.63495 2.05151
2.16637 2.69661 2.43339
-1.25935 2.7067 3.35047
-0.327665 3.09558 3.37851
-2.8255 1.56047 2.43785
-2.19656 2.128 2.9943
-0.324934 1.15508 3.38588
-1.25901 1.55066 3.3432
-1.24672 0.582945 3.04311
-3.70575 1.19463 0.549129
-3.39422 1.20876 1.51654
-3.38771 1.20655 -1.56776
-3.70693 1.19484 -0.606099
-2.79533 -0.371046 0.543514
-3.35312 0.258154 -0.0287444
-2.7956 -0.371108 -0.599865
-2.19558 2.13028 -3.05576
-2.8155 1.56082 -2.48843
-0.325459 3.10754 -3.45574
-1.26357 2.71 -3.41664
-1.24363 0.588056 -3.09003
-1.25907 1.55408 -3.40124
-0.324947 1.15725 -3.4362
1.18184 4.21698 -2.47286
0.592599 3.67056 -3.089
2.13575 4.62127 -0.599797
1.75884 4.56998 -1.53699
2.16082 2.697 -2.48611
2.10957 3.63489 -2.1084
2.73256 3.04879 -1.56646
2.1481 -0.37742 0.542095
1.76861 -0.325044 1.4858
1.22385 -0.946536 0.894264
2.16989 1.55512 2.43644
2.12648 0.614234 2.06493
2.74808 1.2001 1.51649
0.244825 -0.339449 2.47435
1.18752 0.0349394 2.41975
0.595539 0.584996 3.03914
0.2529 -1.2568 0.906893
0.653058 -1.29794 -0.0285388
-0.898072 -0.342862 2.47028
-0.324988 -0.902846 1.84533
-1.29878 -1.29672 -0.0281633
-0.903946 -1.26038 0.908686
-1.87152 -0.944883 0.897629
0.253409 -1.25704 -0.964719
1.21931 -0.943367 -0.952992
-1.87301 -0.945553 -0.951313
-0.904369 -1.25528 -0.962498
0.243918 -0.334762 -2.5267
-0.326051 -0.897471 -1.89756
-0.89403 -0.33602 -2.52813
1.76661 -0.322445 -1.54056
2.14711 -0.376265 -0.599061
0.596394 0.588131 -3.08849
1.18692 0.0404255 -2.47424
2.74637 1.20118 -1.57225
2.12134 0.617473 -2.11762
2.16485 1.5571 -2.4886
2.70879 0.254882 -0.0285547
3.09391 2.1261 -0.998848
3.06415 1.19268 -0.607159
3.06525 1.18918 0.550887
3.09446 2.12898 0.946644
0.607075 1.54898 3.348
1.53977 2.1293 2.9886
0.60585 2.70316 3.34473
-2.42127 -0.324744 1.48842
-1.84037 0.0343784 2.42162
-2.77722 0.613383 2.06623
-1.83698 0.0395577 -2.47288
-2.41831 -0.321138 -1.54332
-2.76804 0.619597 -2.11284
1.53524 2.12943 -3.03869
0.604196 1.55227 -3.3971
0.603827 2.70458 -3.39107
3.05113 3.05927 0.548235
3.04446 3.06051 -0.603884
2.68921 3.99152 -0.0289254
-2.51105 4.91933 0.256384
-2.35808 4.94682 0.727115
-2.04767 5.20216 0.432402
-2.84293 4.26882 1.29253
-2.62806 4.62793 1.02405
-3.0259 4.28767 0.813915
-1.65836 5.12704 1.33097
-2.16236 4.91394 1.20089
-1.93788 4.82332 1.63635
-3.11579 2.41736 2.16183
-3.14739 2.88835 2.00535
-3.40466 2.59601 1.69483
-2.46446 3.45214 2.48768
-2.82603 3.18202 2.27459
-2.48648 2.97167 2.66947
-3.32979 3.49418 1.30524
-3.11439 3.36204 1.80885
-3.02432 3.79502 1.58598
-0.609985 4.3094 2.75315
-1.08455 4.15796 2.78704
-0.786198 3.85002 3.03987
-1.64916 4.64202 2.10887
-1.3767 4.42894 2.46578
-1.17013 4.82358 2.1259
-1.68612 3.46408 2.97147
-1.55848 3.96325 2.75592
-1.9911 3.74317 2.6665
-2.6281 4.13569 1.79655
-2.33215 3.95576 2.27109
-2.1539 4.42795 1.97706
-1.59709 5.4117 0.4383
-1.76229 5.3846 -0.0309831
-1.17185 5.28925 1.34151
-1.39686 5.38178 0.907346
-0.818177 5.64935 -0.0287972
-1.1095 5.56389 0.441611
-0.616605 5.63913 0.443306
-0.0404939 4.30955 2.74768
-0.325262 4.61946 2.49094
0.227321 5.1097 1.81219
-0.0381151 4.8906 2.16574
0.511816 4.81397 2.11728
-0.613009 4.89521 2.16984
-0.883363 5.11143 1.81395
1.11108 5.37639 -0.0289992
0.945753 5.41441 0.437656
1.39391 5.1964 0.431613
-0.0347882 5.64214 0.442664
0.456503 5.56162 0.44247
0.163097 5.65284 -0.0301872
1.00405 5.11915 1.32675
0.742788 5.3843 0.907868
0.521123 5.28775 1.34063
-0.620595 5.37185 1.38878
-0.0332682 5.3678 1.38821
-0.328044 5.5561 0.916325
-1.60256 5.42502 -0.498811
-2.05412 5.21272 -0.4987
-0.616691 5.64085 -0.501282
-1.11052 5.56522 -0.502707
-1.66485 5.14231 -1.3954
-1.403 5.3988 -0.973024
-1.17743 5.30893 -1.40797
1.39493 5.20435 -0.496202
0.947577 5.41333 -0.496456
0.521401 5.29938 -1.40324
0.745265 5.38561 -0.967119
1.00573 5.13047 -1.39372
0.457143 5.56498 -0.500781
-0.0347221 5.64407 -0.503567
-0.611786 4.32306 -2.82769
-0.328633 4.63547 -2.56557
-0.0398594 4.31897 -2.82272
-0.886692 5.12675 -1.88304
-0.61502 4.91264 -2.24151
-1.1738 4.83715 -2.19511
0.515364 4.82346 -2.18627
-0.0400879 4.9039 -2.23508
0.231695 5.11604 -1.874
-0.328271 5.55866 -0.977989
-0.0325218 5.37605 -1.44952
-0.621991 5.37702 -1.45204
-2.36375 4.95856 -0.789346
-2.51996 4.92154 -0.319616
-1.94474 4.83547 -1.70125
-2.168 4.92411 -1.26483
-3.03051 4.29728 -0.873236
-2.63595 4.63445 -1.08573
-2.84917 4.27581 -1.35529
-0.796037 3.85796 -3.11422
-1.08539 4.16877 -2.85796
-1.99711 3.74917 -2.73179
-1.56006 3.9715 -2.82404
-1.69482 3.46722 -3.03721
-1.38133 4.44037 -2.53537
-1.65327 4.65216 -2.17553
-3.40575 2.59304 -1.75603
-3.15049 2.88946 -2.06428
-3.11875 2.4161 -2.21803
-3.02856 3.79945 -1.64794
-3.12023 3.36495 -1.87027
-3.33332 3.49717 -1.36579
-2.49113 2.97411 -2.73294
-2.83042 3.18615 -2.33747
-2.47092 3.45653 -2.55277
-2.15825 4.43584 -2.04198
-2.33912 3.96238 -2.33666
-2.63254 4.14175 -1.86
-2.82717 4.66189 -0.0292077
-3.31764 3.97911 -0.587017
-3.10434 4.33974 -0.318019
-3.10177 4.33511 0.258807
-3.31582 3.97783 0.529135
-3.57394 2.13033 -1.46015
-3.61533 2.59897 -1.304
-3.83609 2.60227 -0.321505
-3.76097 2.60222 -0.81153
-3.84484 2.12943 -0.518492
-3.59054 3.07123 -1.10272
-3.49944 3.50497 -0.880257
-3.61647 2.59858 1.24691
-3.58222 2.12884 1.40599
-3.49682 3.50558 0.821342
-3.58656 3.06882 1.04272
-3.84975 2.12983 0.465377
-3.76397 2.60138 0.754009
-3.84042 2.60276 0.263501
-3.57209 3.55019 -0.322531
-3.75541 3.07796 -0.0286371
-3.57361 3.55041 0.26349
1.69657 4.93547 0.724882
1.85752 4.9109 0.257593
1.27802 4.80773 1.62634
1.50083 4.90363 1.19596
2.35667 4.27725 0.80817
1.96611 4.61558 1.0189
2.17651 4.25615 1.28601
0.137071 3.84242 3.03218
0.427346 4.14778 2.77182
1.33341 3.73598 2.65701
0.898772 3.95352 2.7407
1.03325 3.45613 2.96133
0.720597 4.41677 2.45196
0.988699 4.63163 2.09979
2.74274 2.59003 1.69104
2.48805 2.88252 1.99854
2.45804 2.41391 2.15213
2.36255 3.78805 1.58091
2.45028 3.35528 1.79929
2.66847 3.48807 1.30149
1.82694 2.96751 2.65731
2.16589 3.1768 2.26772
1.80348 3.44491 2.4746
1.49247 4.41881 1.96967
1.6708 3.94534 2.25801
1.96633 4.1279 1.79071
-0.792546 3.40074 3.25131
-0.327784 3.55839 3.21618
-1.69859 2.97826 3.13777
-1.26625 3.19874 3.22729
-0.325355 2.62087 3.47947
-0.799382 2.9093 3.40294
-0.797106 2.42092 3.477
-3.11481 1.83996 2.16124
-2.85668 2.12978 2.47325
-2.17231 1.57201 2.95552
-2.53171 1.84121 2.74662
-2.48271 1.28522 2.66668
-2.53212 2.41837 2.74721
-2.1744 2.6843 2.958
-0.325061 0.689104 3.22615
-0.794581 0.851735 3.25926
-0.787506 0.402763 3.05102
-0.798799 1.83501 3.47403
-0.796147 1.34788 3.40026
-0.326365 1.63714 3.48752
-1.68884 0.791991 2.97795
-1.26493 1.05612 3.22611
-1.69713 1.28147 3.1345
-1.74785 2.4203 3.21513
-1.74502 1.83729 3.21501
-1.27432 2.12745 3.3961
-3.61529 1.66115 1.2466
-3.40302 1.66174 1.69424
-3.83888 1.65707 0.263365
-3.76134 1.65698 0.753705
-3.32779 0.767426 1.30702
-3.58225 1.18992 1.04203
-3.49439 0.754859 0.820832
-3.39502 1.6641 -1.74724
-3.60853 1.66196 -1.30086
-3.49066 0.756941 -0.87608
-3.58126 1.19124 -1.09908
-3.32225 0.766161 -1.35939
-3.76028 1.65764 -0.81104
-3.83571 1.65635 -0.321109
-2.51674 -0.667739 0.257646
-2.82774 -0.404198 -0.0281799
-2.51667 -0.667563 -0.314784
-3.31189 0.281644 0.527525
-3.10463 -0.0804117 0.260436
-3.02594 -0.0319129 0.815625
-3.02669 -0.0344951 -0.871777
-3.10256 -0.0791438 -0.317104
-3.31677 0.280637 -0.586588
-3.75099 1.18206 -0.0284353
-3.57257 0.70805 -0.321446
-3.56986 0.708132 0.264175
-2.85589 2.13029 -2.5298
-3.10985 1.84247 -2.21512
-2.17509 2.68852 -3.02251
-2.53375 2.41979 -2.80551
-2.47784 1.29142 -2.7162
-2.53024 1.84245 -2.8012
-2.16924 1.57399 -3.01289
-0.328233 3.56754 -3.29042
-0.794831 3.40757 -3.32553
-0.801254 2.42411 -3.54439
-0.798641 2.91516 -3.47444
-0.328183 2.6217 -3.55353
-1.26705 3.20467 -3.29709
-1.70315 2.98167 -3.20396
[...]
POINT_DATA 642
SCALARS Mean_Curvature double 1
LOOKUP_TABLE default
0.628426
0.640479
0.625791
0.608359
0.628481
0.646348
0.611933
0.6292
0.595572
0.617287
0.638839
0.616549
0.561805
0.560447
0.551254
0.582502
0.545071
0.570479
0.554297
0.559884
0.570156
0.552829
0.539065
0.581165
0.536142
0.552222
0.576229
0.540956
0.574292
0.509997
0.507791
0.582667
0.558463
0.551715
0.5658
0.548065
0.538519
0.548353
0.562207
0.567573
0.554506
0.584424
0.556704
0.560242
0.551861
0.554072
0.559108
0.552073
0.549463
0.564968
0.551052
0.569783
0.53111
0.538726
0.53045
0.582084
0.542985
0.591995
0.510577
0.56734
0.541049
0.574141
0.563926
0.529479
0.519586
0.55192
0.567198
0.544187
0.563794
0.557983
0.565522
0.546695
0.553652
0.536411
0.542367
0.549533
0.571497
0.571888
0.496674
0.569107
0.533852
0.574649
0.532422
0.570883
0.559429
0.525903
0.568672
0.555143
0.528341
0.514171
0.561591
0.548785
0.554346
0.545275
0.569113
0.533494
0.564889
0.545383
0.567519
0.513513
0.571717
0.558632
0.563328
0.550518
0.559802
0.569148
0.522178
0.589521
0.541218
0.573325
0.53539
0.573899
0.561675
0.553148
0.563925
0.554792
0.560853
0.55831
0.553833
0.553316
0.558014
0.548859
0.58024
0.541735
0.573987
0.53789
0.568878
0.536637
0.572764
0.546807
0.575896
0.536702
0.556782
0.550424
0.563897
0.553775
0.561157
0.55428
0.557613
0.586815
0.550078
0.559138
0.558898
0.562521
0.558596
0.56586
0.553039
0.556224
0.545997
0.577584
0.578778
0.54686
0.591978
0.553392
0.571845
0.533062
0.53852
0.55848
0.47155
0.567637
0.53646
0.582901
0.531296
0.560421
0.532716
0.556389
0.556877
0.55271
0.55554
0.563955
0.551679
0.557539
0.567121
0.556104
0.556746
0.554796
0.559058
0.55133
0.562836
0.553458
0.548977
0.58153
0.54984
0.566581
0.545002
0.572461
0.553697
0.566665
0.55226
0.557109
0.55374
0.560898
0.528884
0.562804
0.515837
0.545417
0.553747
0.571072
0.544015
0.579923
0.557133
0.597712
0.525514
0.535809
0.548976
0.571179
0.534509
0.583932
0.533418
0.580432
0.531219
0.57034
0.538944
0.586306
0.541581
0.57386
0.545182
0.579737
0.58876
0.56701
0.544625
0.52964
0.551674
0.604131
0.587054
0.595532
0.550872
0.572934
0.542768
0.573702
0.54263
0.574955
0.563633
0.58761
0.575124
0.587911
0.578811
0.562951
0.54455
0.537158
0.545457
0.5656
0.544287
0.532166
0.577802
0.557496
0.563548
0.547744
0.574798
0.55209
0.566248
0.567021
0.567747
0.546334
0.555355
0.546954
0.552595
0.549396
0.579511
0.554431
0.570745
0.543778
0.573272
0.545591
0.568263
0.560477
0.565032
0.549318
0.564577
0.54675
0.552864
0.548399
0.560331
0.537267
0.565105
0.504862
0.575372
0.537929
0.543365
0.546827
0.587752
0.561885
0.573607
0.550137
0.567851
0.550108
0.566942
0.541833
0.568141
0.527233
0.571011
0.546154
0.52547
0.608135
0.485951
0.55318
0.527912
0.575757
0.516069
0.540098
0.518698
0.595227
0.53179
0.575064
0.527664
0.570675
0.528992
0.578727
0.526863
0.580944
0.522137
0.569973
0.539123
0.584699
0.539789
0.585016
0.532354
0.585
0.553294
0.586186
0.551831
0.572942
0.520527
0.584855
0.560029
0.554457
0.565698
0.548159
0.563943
0.523997
0.560213
0.556876
0.587223
0.585614
0.565138
0.533585
0.529002
0.577377
0.601562
0.553418
0.521452
0.552774
0.560977
0.585
0.579714
0.553494
0.570542
0.533562
0.55362
0.533128
0.571272
0.528517
0.563793
0.524701
0.566234
0.530768
0.565573
0.547709
0.570958
0.538762
0.581395
0.526495
0.586501
0.556451
0.574205
0.544799
0.574213
0.545732
0.561293
0.53854
0.57576
0.551768
0.563135
0.548081
0.523283
0.565438
0.584954
0.566769
0.562251
0.571137
0.577925
0.58382
0.571292
0.557583
0.550443
0.552522
0.558697
0.48943
0.538975
0.561071
0.49674
0.527142
0.574709
0.55045
0.568294
0.569588
0.517379
0.592802
0.534424
0.568785
0.524152
0.567617
0.528632
0.59001
0.535544
0.600593
0.535736
0.5838
0.545344
0.5776
0.54349
0.578976
0.532356
0.577048
0.50567
0.541294
0.535437
0.570374
0.522747
0.578916
0.54255
0.579608
0.569332
0.546366
0.569423
0.554782
0.567442
0.552867
0.559491
0.545896
0.562095
0.559139
0.552464
0.58323
0.556881
0.574604
0.533766
0.561186
0.560446
0.55927
0.569161
0.544331
0.551888
0.549867
0.56422
0.543558
0.54949
0.554614
0.552608
0.556748
0.560259
0.549889
0.571727
0.546122
0.572895
0.53854
0.548109
0.546414
0.55655
0.552267
0.567991
0.530904
0.569727
0.546041
0.567017
0.53628
0.575393
0.530467
0.566344
0.533917
0.574581
0.555352
0.579035
0.544767
0.580164
0.534821
0.568079
0.544651
0.576051
0.555141
0.560481
0.530081
0.559898
0.538152
0.567518
0.53896
0.572479
0.541839
0.563574
0.539699
0.578387
0.550403
0.556629
0.551393
0.563145
0.552748
0.560234
0.555212
0.567439
0.551783
0.570198
0.547777
0.576889
0.536047
0.571323
0.551791
0.556529
0.549472
0.55941
0.555601
0.560774
0.557142
0.555671
0.561197
0.554061
0.560216
0.562487
0.556012
0.550157
0.581394
0.536285
0.564634
0.547024
0.557292
0.536434
0.574273
0.547356
0.551887
0.549999
0.55732
0.563008
0.555555
0.558658
0.551883
0.559789
0.561183
0.564236
0.581495
0.557585
0.570418
0.560113
0.558655
0.554743
0.57985
0.555186
0.55795
0.555405
0.579143
0.557792
0.556883
0.556163
0.552134
0.548623
0.558764
0.547745
0.560746
0.542044
0.563486
0.548743
0.576012
0.538132
0.566001
0.51353
0.566816
0.536044
0.572571
0.53952
0.566544
0.547091
0.568967
0.573965
0.541704
0.574676
0.538085
0.584296
0.540734
0.568759
0.547882
0.581879
0.553857
0.569554
0.552401
0.534944
0.500522
0.596001
0.545738
0.568568
0.539211
0.569315
0.550713
0.566044
0.559766
0.585481
0.545167
0.56837
0.544215
0.577067
0.543032
0.556441
0.53425
0.563407
0.539891
0.570492
0.544752
0.57523
0.558065
0.54324
0.565798
0.542681
0.576095
0.513161
0.560294
0.525942
0.564099
0.538666
0.558454
0.568413
0.574806
0.557827
0.622436
0.52133
0.563634
0.537226
0.562954
0.528507
0.554142
0.523309
0.574986
0.513051
0.567352
0.548257
0.583724
0.518494
0.55387
0.531026
0.583867
0.513232
0.547402
0.52133
0.572845
0.535818
0.575486
SCALARS Redistribution_Potential double 1
LOOKUP_TABLE default
-6.12815e-20
-1.4474
0.993153
0.526484
0.290459
-1.07544
-0.0241093
-0.245217
-0.984116
-0.892115
0.57234
0.492466
0.285532
-0.147285
-0.611465
-1.47114
-0.735656
-0.85993
0.13491
0.429403
0.600044
0.69866
-1.27143
-1.56853
0.431969
-0.490326
0.784297
0.901634
-0.278409
0.292463
-1.43392
-1.00205
0.0646698
-0.284906
0.615417
0.946727
0.882764
0.671476
0.350389
-0.515243
-0.0791795
-0.842784
0.139482
-0.117357
-0.322148
0.223965
0.0870627
0.401562
-0.878229
-0.399069
-0.601333
-0.714262
-0.358396
-1.34447
-1.0863
-1.11715
-1.14439
-1.48866
-0.278078
0.123994
-1.15922
-0.770205
0.00318728
-0.347098
-0.545571
0.45638
0.373039
0.168212
0.377213
0.654021
0.603892
0.544661
0.464828
0.666077
0.645755
0.563594
0.638903
-1.63862
-1.61971
-1.27747
-1.51181
-1.2982
-1.47303
-1.13995
-0.360631
-0.829642
0.468801
0.12918
-0.0977968
-0.00430624
0.372474
0.794543
0.709824
0.633067
0.7576
1.00613
0.908879
0.930374
0.343948
0.454339
-0.237678
0.120198
0.120764
0.029124
-0.231151
-0.960791
-0.67195
-1.49363
-1.25179
-1.11508
-1.25382
-1.27646
0.362548
0.385505
0.630639
-0.587387
-0.0730088
-0.374607
0.488887
0.236113
0.00628892
0.835336
0.731934
0.686446
0.811886
0.984706
0.987829
1.04153
0.679206
0.48584
0.889723
0.83703
0.15707
0.528073
0.348131
0.16611
0.277132
-0.272533
-0.0669933
-0.529372
-0.312271
-0.75619
0.0705061
-0.910142
-0.405245
-0.345258
-0.843538
-0.439504
-0.819161
-0.933625
0.980801
0.754662
0.753814
0.457797
0.768624
0.561599
-0.852332
-0.528334
-0.642885
-1.27618
-1.26777
-1.54599
0.067497
-0.0818185
-0.164635
0.100133
0.00954856
0.215157
-0.470055
-0.226901
-0.358895
0.373115
0.316287
0.450096
-0.0278031
0.154308
0.0493306
0.347139
0.254847
0.192323
-0.988183
-0.756959
-0.840139
-0.514958
-0.639802
-0.753049
-0.367984
-0.508831
-0.274953
-0.00692373
-0.136417
-0.252003
-0.350168
-0.17405
-0.676448
-0.523977
-0.547598
-0.54529
-0.725969
-1.22691
-1.13031
-1.30178
-1.23521
-1.42612
-1.00155
-0.860172
-1.28813
-1.32045
-1.46452
-0.950235
-1.13429
-0.930397
-1.48244
-1.33464
-1.3237
-0.906572
-1.12507
-0.931385
-0.109396
0.0705292
-0.511399
-0.31287
0.145114
-0.0641833
-0.0527547
-1.309
-1.13759
-0.809109
-0.971908
-1.01345
-0.943973
-0.748309
-0.108627
-0.263997
-0.387246
-0.0879395
-0.160541
0.0864963
-0.70423
-0.44154
-0.60966
-0.521036
-0.552621
-0.290667
0.264729
0.203223
0.317007
0.308488
0.507199
0.430464
0.546356
-0.0185187
0.103871
0.426495
0.284944
0.316644
0.208106
0.281796
0.622786
0.617398
0.56357
0.626115
0.639128
0.647768
0.499767
0.591239
0.536674
0.449479
0.521785
0.566192
0.256241
0.545729
0.420739
0.318156
0.377396
0.629613
0.649322
0.667483
0.662352
0.690415
0.656025
0.633014
0.532737
0.579991
0.441643
0.489354
0.678048
0.600962
0.643089
0.588717
0.617254
0.523172
-1.58192
-1.56542
-1.57166
-1.59796
-1.62309
-1.64789
-1.62254
-1.19963
-1.34244
-1.43241
-1.41194
-1.30074
-1.45713
-1.53706
-1.1003
-1.2317
-1.02187
-1.53955
-1.40256
-1.45576
-1.21846
-1.33257
-1.38803
-1.59597
-1.51617
-1.59523
-0.736043
-0.967822
-0.258776
-0.491624
-0.668119
-0.601342
-0.444464
0.485259
0.342681
0.274428
0.307557
0.454355
0.173154
-0.0103291
0.104083
0.14233
0.334687
-0.24583
-0.0631127
-0.301208
0.40457
0.180228
0.22436
-0.0994969
0.0614969
-0.185157
0.67088
0.608683
0.740956
0.719985
0.808576
0.763664
0.842611
0.590777
0.64759
0.777234
0.700403
0.70274
0.698612
0.736754
1.01327
0.98376
0.972394
0.923956
0.960946
0.966414
0.862435
0.931039
0.863439
0.801926
0.838509
0.867121
0.490134
0.523468
0.396475
0.453618
0.373542
0.398098
0.294445
-0.231131
-0.0231841
-0.0767419
-0.0441879
-0.259947
0.154186
0.28987
0.044432
-0.0577217
-0.142677
0.164216
0.047295
0.203974
-0.272832
-0.112414
-0.115506
0.255541
0.0738822
0.198539
-0.610629
-0.460747
-0.907507
-0.769925
-0.857613
-0.827053
-0.991205
-1.47904
-1.35065
-1.3895
-1.37867
-1.48372
-1.21324
-1.07787
-1.07244
-1.20849
-1.13806
-1.14325
-1.20117
-1.08912
-1.36874
-1.30572
-1.35305
-1.11069
-1.26369
-1.13882
0.460226
0.509019
0.594303
0.23857
0.386155
0.231785
0.636705
0.524036
0.506717
-0.739425
-0.480386
-0.630477
-0.178649
-0.325959
-0.435394
-0.13995
-0.219312
0.0119353
0.397146
0.262396
0.151689
0.448114
0.362613
0.565733
-0.139456
0.121516
-0.0142388
0.185364
0.092879
0.33218
0.6999
0.641401
0.746094
0.739177
0.81045
0.796153
0.872574
0.505264
0.589622
0.890987
0.757832
0.8346
0.665286
0.722294
1.00001
1.02913
1.03105
0.95439
0.99681
0.943683
1.01012
1.02637
0.986446
0.850885
0.93066
0.928417
0.622939
0.521975
0.795017
0.717749
0.42549
0.586756
0.529583
0.961599
0.948693
0.765918
0.866462
0.794265
0.918831
0.877222
0.0601214
0.251178
0.164733
0.442212
0.346985
0.25875
0.517467
0.439341
0.602287
0.773249
0.701988
0.624136
0.389254
0.416509
0.261272
0.335426
0.111789
0.231259
0.0526638
-0.14809
-0.0622649
-0.294312
-0.182391
-0.395114
0.043716
0.152149
-0.766324
-0.659342
-0.86926
-0.190778
-0.418541
-0.296542
-0.635316
-0.543671
-0.426762
0.0585436
-0.182026
-0.0568096
0.338103
0.013682
0.185593
0.228432
0.0874687
-0.951935
-0.714758
-0.613174
-0.65798
-0.870862
-0.461833
-0.229388
-0.6071
-0.866407
-0.128102
-0.351798
-0.833958
-0.589828
-0.585273
-0.146109
-0.350306
-0.110632
-0.0554142
-0.372199
-0.21855
-0.275483
-0.481523
-0.87884
-1.06317
-0.991781
-0.716258
-0.557915
-1.06945
-0.721563
-0.905568
-1.12628
-1.11585
-0.631494
-0.887802
-0.690797
1.03308
0.981384
1.02281
1.00948
0.951473
0.542381
0.602601
0.578573
0.722549
0.869359
0.606221
0.849575
0.731242
0.614182
0.614109
0.903261
0.772092
0.895418
0.221116
0.567293
0.401422
0.289142
0.353832
0.923725
0.786768
0.863814
0.835311
0.730597
0.539131
0.427694
0.481167
0.598787
0.680732
0.632936
0.669078
0.521305
-0.959096
-0.705892
-0.833067
-0.995042
-0.951512
-0.281141
-0.434581
-0.383518
-0.41913
-0.551012
-0.451222
-0.835832
-0.667195
-0.457108
-0.457235
-0.692824
-0.606741
-0.79188
-1.0866
-1.06975
-1.073
-1.2932
-1.43834
-1.13054
-1.3939
-1.2856
-1.10077
-1.08101
-1.56755
-1.56886
-1.59842
-1.55537
-1.49387
-1.2719
-1.41763
-1.44306
SCALARS CoVolArea double 1
LOOKUP_TABLE default
0.194684
0.193889
0.193852
0.194916
0.193836
0.193325
0.192645
0.19488
0.192643
0.194728
0.194367
0.195608
0.252798
0.253675
0.252451
0.252115
0.252597
0.252641
0.254169
0.253756
0.25424
0.253274
0.251594
0.25223
0.253122
0.252738
0.253199
0.253548
0.252865
0.252254
0.251665
0.251886
0.253807
0.252949
0.253685
0.253732
0.253709
0.253761
0.253213
0.252781
0.253398
0.253199
0.240785
0.26524
0.240033
0.240037
0.265409
0.240467
0.240203
0.264871
0.24012
0.264662
0.239718
0.238533
0.264275
0.240426
0.264865
0.239667
0.265336
0.240622
0.239671
0.265334
0.241407
0.265688
0.240315
0.266127
0.240354
0.240923
0.266142
0.241177
0.266081
0.240808
0.265507
0.239857
0.265092
0.265305
0.239958
0.263867
0.238377
0.238907
0.26321
0.239652
0.263698
0.239653
0.264932
0.238844
0.240359
0.264552
0.240017
0.264214
0.240496
0.265069
0.239799
0.239665
0.264889
0.241063
0.265293
0.240694
0.265082
0.239224
0.24022
0.265678
0.240056
0.264603
0.239343
0.264488
0.23929
0.239134
0.264441
0.239356
0.263991
0.23933
0.241255
0.265341
0.240881
0.239414
0.265685
0.240589
0.240901
0.265703
0.240592
0.265597
0.240232
0.240372
0.26566
0.241161
0.265635
0.240989
0.265453
0.240177
0.240557
0.265185
0.240703
0.265136
0.240288
0.26533
0.240588
0.239329
0.264944
0.240924
0.265185
0.239879
0.26546
0.239568
0.265943
0.265918
0.239999
0.26424
0.264759
0.264412
0.265542
0.265806
0.265693
0.265103
0.265237
0.264357
0.264013
0.263674
0.263686
0.264398
0.264296
0.263871
0.235187
0.242121
0.23505
0.261873
0.243403
0.238979
0.238665
0.243639
0.262347
0.236188
0.242606
0.236164
0.262216
0.243683
0.238447
0.238644
0.243684
0.261918
0.234253
0.242197
0.234228
0.261836
0.243638
0.238558
0.23871
0.243144
0.261644
0.292959
0.292628
0.292932
0.241561
0.235501
0.261115
0.242693
0.238961
0.242925
0.261535
0.234292
0.240849
0.260322
0.241715
0.237
0.243071
0.261165
0.235175
0.242379
0.234893
0.261583
0.243141
0.238348
0.237389
0.242488
0.260962
0.292543
0.292367
0.292811
0.242759
0.236382
0.262024
0.243973
0.239345
0.244074
0.262529
0.234383
0.24181
0.261515
0.243874
0.239045
0.243594
0.261883
0.235691
0.242758
0.235625
0.262236
0.243938
0.239898
0.2386
0.243901
0.262071
0.292741
0.29315
0.293146
0.2427
0.235523
0.263482
0.244356
0.239657
0.244361
0.262918
0.236183
0.243188
0.262756
0.244414
0.239303
0.244675
0.263024
0.235908
0.243373
0.235796
0.262755
0.244125
0.239041
0.239115
0.244208
0.262921
0.294071
0.293867
0.29381
0.242463
0.262859
0.24399
0.243855
0.261945
0.235409
0.242736
0.26195
0.243419
0.238233
0.243724
0.262314
0.242189
0.235461
0.262271
0.243598
0.238959
0.243522
0.262171
0.293045
0.292855
0.293272
0.241191
0.234369
0.260692
0.242022
0.237574
0.242021
0.260936
0.234765
0.241156
0.260374
0.241985
0.237101
0.241695
0.260318
0.23501
0.241878
0.235144
0.260626
0.24268
0.237626
0.237624
0.242736
0.260733
0.291174
0.29104
0.291392
0.241823
0.23438
0.262307
0.243106
0.237615
0.242492
0.261808
0.235628
0.242331
0.261716
0.243311
0.238765
0.242903
0.261877
0.234903
0.24237
0.23554
0.261309
0.243134
0.238082
0.239002
0.243101
0.261614
0.292973
0.292312
0.292744
0.241944
0.235301
0.262141
0.243691
0.239108
0.2435
0.262152
0.235475
0.241817
0.261677
0.243098
0.238038
0.243141
0.261733
0.235853
0.243199
0.235892
0.261953
0.243749
0.238723
0.238985
0.243851
0.262368
0.292832
0.292755
0.292804
0.242476
0.235258
0.262386
0.243737
0.23777
0.243244
0.261372
0.235928
0.242724
0.262036
0.244045
0.238872
0.244359
0.262411
0.234091
0.241404
0.234099
0.261052
0.242683
0.238275
0.237901
0.242794
0.261818
0.293033
0.293184
0.292437
0.241558
0.235727
0.26135
0.242681
0.23768
0.242559
0.26097
0.235198
0.241143
0.260461
0.242245
0.237246
0.24336
0.261653
0.233865
0.241403
0.234365
0.260752
0.242326
0.237278
0.237358
0.242162
0.260603
0.292351
0.291864
0.292105
0.235973
0.243172
0.235705
0.262571
0.244148
0.239649
0.239483
0.243987
0.262193
0.235362
0.24211
0.235707
0.261766
0.243132
0.238189
0.238755
0.243908
0.262964
0.235427
0.242447
0.235042
0.261968
0.24363
0.239349
0.238419
0.243895
0.262238
0.293917
0.293984
0.293429
0.242852
0.23553
0.262853
0.24426
0.239072
0.24394
0.262438
0.235986
0.242804
0.262516
0.244092
0.239015
0.244162
0.262376
0.236113
0.243368
0.235956
0.262186
0.243836
0.238728
0.239004
0.244084
0.262741
0.293347
0.29337
0.293173
0.242363
0.236351
0.262365
0.243786
0.238879
0.243723
0.262472
0.235378
0.242984
0.262188
0.243622
0.238764
0.243629
0.262011
0.234757
0.242503
0.234643
0.262131
0.243831
0.23901
0.239157
0.243468
0.262295
0.293197
0.293247
0.292978
0.242667
0.236096
0.261836
0.243484
0.239449
0.244013
0.262468
0.234183
0.241609
0.26102
0.242465
0.237546
0.243751
0.261845
0.235442
0.242717
0.234844
0.262142
0.243289
0.238786
0.237694
0.242495
0.261493
0.29308
0.293016
0.293375
0.24293
0.262326
0.244003
0.244587
0.262781
0.234497
0.242203
0.261791
0.243188
0.238419
0.244146
0.262866
0.242627
0.235207
0.261952
0.243979
0.238854
0.244499
0.262584
0.293847
0.293999
0.293414
0.241866
0.261159
0.242395
0.242855
0.261279
0.242108
0.260933
0.242537
0.24262
0.262108
0.24103
0.261099
0.242132
0.242062
0.260596
0.292959
0.292542
0.29229
0.243468
0.262512
0.243913
0.244114
0.262261
0.242894
0.262638
0.24411
0.243724
0.262577
0.241854
0.262492
0.243627
0.243681
0.262064
0.29347
0.293902
0.293474
0.242167
0.262405
0.243501
0.243404
0.261486
0.242816
0.262417
0.243978
0.243924
0.261818
0.241866
0.261357
0.242589
0.242977
0.26147
0.292552
0.292457
0.292589
0.241669
0.261441
0.242166
0.241862
0.260593
0.241454
0.260742
0.242252
0.242463
0.260864
0.242124
0.260509
0.242644
0.243578
0.261213
0.291753
0.291058
0.291239
0.241603
0.261473
0.242376
0.242481
0.261122
0.24188
0.260611
0.242478
0.243074
0.261785
0.241177
0.260925
0.242142
0.242357
0.260235
0.292397
0.291563
0.292095
SCALARS SignedDistance double 1
LOOKUP_TABLE default
3.1941
3.65023
2.77323
2.76998
3.08667
3.84699
3.42261
3.21693
3.62693
3.43124
3.33611
2.94771
2.99353
3.20538
3.46418
3.93344
3.24551
3.3441
2.77975
2.8932
2.82457
3.07307
3.73593
3.77959
3.31993
3.59515
3.14045
3.01074
3.78735
3.64687
3.8634
3.88515
2.82667
3.2873
2.85659
2.75329
3.0483
3.01009
3.04216
3.56341
3.00838
3.37218
3.13378
3.17661
3.37984
3.02017
3.0506
2.93908
3.62883
3.30867
3.49317
3.44715
3.26858
3.99695
3.7593
3.41505
3.55401
3.78654
3.17619
2.89246
3.4188
3.20176
2.91742
3.18126
3.3715
2.67322
2.93421
2.88806
2.68472
2.99428
2.73815
3.0679
3.05763
3.24208
3.13282
2.9733
2.98567
3.91369
3.91607
3.87611
3.89927
3.60994
3.7476
3.58824
3.4578
3.81564
3.11467
3.19406
3.36902
3.50865
3.21337
3.03472
3.07409
3.30124
3.14365
2.85535
3.02693
2.86618
3.31917
3.51065
3.42984
3.23284
3.53049
3.6992
3.66157
3.5929
3.66172
3.74556
3.60858
3.82885
3.86095
3.76723
2.72692
2.83694
2.79978
3.36092
3.05655
3.0961
2.97145
3.04476
3.20145
2.89068
2.91556
2.89182
2.81703
2.8384
2.8874
2.7359
2.95004
2.92185
2.87023
2.91157
3.25029
3.04769
3.19886
3.06111
2.82644
3.51305
3.28779
3.30814
3.32966
3.61377
2.80847
3.49866
3.09065
2.99529
3.3675
3.42498
3.50873
3.681
2.77193
2.90723
3.07325
3.28222
3.04538
3.39756
3.8009
3.72155
3.93846
3.61665
3.66377
3.83391
3.22631
3.24564
3.34671
3.06922
3.14423
3.04936
3.41086
3.26946
3.31007
2.96668
2.95909
2.92498
3.11401
3.02511
3.10112
2.96102
2.98039
3.01115
3.7341
3.56162
3.67026
3.38153
3.45914
3.5385
3.33686
3.39145
3.24824
3.10206
3.16286
3.22993
3.38094
3.28081
3.54518
3.46685
3.22859
3.34161
3.31952
3.94388
3.83231
3.84589
3.90128
3.98756
3.72577
3.63687
3.52665
3.59358
3.71419
3.38498
3.4759
3.31858
3.85669
3.66593
3.74273
3.59051
3.65217
3.46792
3.14533
3.04735
3.17597
3.20506
2.80259
3.00883
2.94862
3.51428
3.39195
3.25467
3.29791
3.36752
3.28377
3.2077
3.05194
3.17333
3.32077
2.97605
3.05462
2.8226
3.34592
3.26165
3.24136
3.13426
3.16403
3.15368
2.88748
3.04949
2.69017
2.7473
2.85273
2.76321
2.72153
3.02963
2.86647
2.7476
2.77006
2.86212
2.75523
2.69431
3.16763
3.01429
3.19567
2.7463
2.83728
2.86812
2.96831
2.87979
2.78962
2.64211
2.67661
2.66283
3.12184
2.98366
3.03282
3.08081
3.00268
3.34267
3.22273
3.10791
3.19217
3.15338
3.07328
2.98878
2.93403
2.94229
2.95727
2.94695
3.01534
2.99051
3.0168
3.06901
3.03117
2.98978
3.88099
3.8194
3.95896
3.93691
3.8536
3.91631
3.84643
3.93042
3.94633
3.82787
3.88978
3.8105