# vtk DataFile Version 4.2
vtk output
ASCII
DATASET POLYDATA
POINTS 642 double
-1.1145 3.1268 -0.261168
-0.325218 2.78882 -0.212787
-1.28946 0.536046 -0.00587815
0.674081 0.55156 0.00692422
-0.369447 1.21196 1.04312
-0.619246 2.37448 0.468182
-0.342933 1.37845 -0.85289
-0.852735 2.80975 -0.541705
0.561769 1.91586 -0.44153
0.724868 1.86714 0.546954
-1.24769 2.36154 -0.456136
-1.80613 2.13773 0.856343
-1.67844 2.9144 0.439489
-1.19288 2.42231 0.797538
-0.941914 2.80809 0.293176
-0.362029 2.61912 0.081645
-0.480112 3.30907 -0.212861
-0.171145 3.21246 -0.656677
-1.15879 3.01196 -0.677756
-1.22632 2.90976 -0.899161
-1.60153 3.01729 -0.630628
-1.85227 2.15831 0.0182269
0.146707 2.21394 0.688504
0.397431 2.39276 0.240052
-1.02726 1.61461 0.860536
-0.410288 1.87953 0.839338
-1.45162 1.31389 -0.36762
-1.58347 1.22932 0.478021
-0.591562 2.24762 -0.524487
-0.869885 1.84602 -0.604205
0.133757 2.41329 -0.232024
-0.249743 2.38084 -0.402841
1.04062 1.2218 0.465504
0.338302 1.51422 0.963185
0.200872 0.686508 0.801356
-0.937567 0.657931 0.833218
-0.354326 0.554712 9.52739e-05
-0.817282 0.789583 -0.67064
0.144589 0.824008 -0.679324
0.171635 1.59001 -0.686529
0.801382 1.23447 -0.266669
0.872147 1.82227 0.0250001
-1.34639 2.95872 0.0687519
-1.2816 2.95961 0.483468
-1.00244 3.04085 0.0960894
-1.49124 2.36054 0.962795
-1.45565 2.72948 0.811009
-1.8363 2.56624 0.704587
-0.82567 2.57818 0.390659
-1.11812 2.68081 0.604404
-0.922759 2.39693 0.570247
-0.677935 3.08203 -0.0398459
-0.803899 3.30103 -0.213946
-0.435322 2.49934 0.307473
-0.61729 2.75175 0.128391
-0.325579 3.14493 -0.261385
-0.455433 2.97494 -0.106314
-0.348507 2.74419 -0.104817
-0.64891 3.2919 -0.446083
-1.15634 3.06278 -0.593454
-0.276968 3.01997 -0.370445
-0.287993 3.40585 -0.473429
-1.04795 2.91353 -0.634437
-0.533864 3.16048 -0.524314
-0.528737 2.96773 -0.486277
-1.31239 3.12552 -0.826964
-1.38316 3.14735 -0.434366
-1.09655 2.87262 -0.696708
-1.19276 3.08957 -1.04979
-1.45155 2.73759 -0.68377
-1.4389 2.97914 -1.02338
-1.23918 2.79533 -0.796627
-1.60819 2.90825 -0.0782899
-1.55874 2.21564 -0.275248
-1.60946 2.59624 -0.224287
-1.85057 2.56617 0.250999
-1.85036 2.14493 0.454594
0.024248 2.46447 0.198338
-0.0492088 2.50368 -0.0236473
-0.173383 2.31668 0.647023
-0.0333802 2.46068 0.451997
0.618002 2.18525 0.411078
0.32778 2.33254 0.472223
0.464526 2.07585 0.679284
-0.880915 2.14233 0.663355
-0.534574 2.14998 0.647328
-1.39105 1.94717 0.781126
-1.18999 2.12455 0.817948
-0.365507 1.55761 1.04336
-0.721563 1.78182 0.796594
-0.640833 1.35936 0.886738
-1.85296 1.69128 0.260758
-1.64349 1.77868 0.631981
-1.43199 1.78474 -0.441168
-1.68556 1.72639 -0.187815
-1.33922 0.832128 0.218991
-1.62279 1.20386 0.0100433
-1.29557 0.870456 -0.120819
-0.991728 2.53687 -0.543288
-1.064 2.15105 -0.500933
-0.795578 2.66428 -0.519898
-0.951994 2.67485 -0.561918
-0.61501 1.53962 -0.810786
-0.709612 2.12973 -0.551878
-0.391422 1.74371 -0.778699
-0.43311 2.81916 -0.402675
-0.555398 2.70481 -0.458898
-0.231615 2.60179 -0.202835
-0.373295 2.76864 -0.335329
0.188186 2.12163 -0.479571
-0.0777845 2.39056 -0.330775
0.430667 2.19386 -0.335629
0.98002 0.719318 0.249996
0.721989 0.85949 0.634599
0.50305 0.554431 0.395592
0.59467 1.69041 0.778221
0.684037 1.32157 0.701177
0.873417 1.49226 0.471356
-0.138052 0.93279 1.04319
0.295753 1.08699 0.913074
-0.0295423 1.34147 1.06981
-0.0326028 0.569653 0.444533
0.213274 0.554724 0.00395749
-0.583777 0.882242 0.914708
-0.339898 0.555039 0.917961
-0.861706 0.55635 0.00764109
-0.647783 0.554724 0.453103
-1.1499 0.553039 0.489076
-0.0649279 0.554752 -0.417797
0.432792 0.643078 -0.387797
-1.07779 0.634452 -0.355269
-0.648871 0.554804 -0.41786
-0.140799 1.09609 -0.84101
-0.367609 0.765064 -0.689307
-0.532908 1.10333 -0.776688
0.545041 0.993646 -0.471006
0.86727 0.832779 -0.228638
-0.0527698 1.47157 -0.855326
0.206337 1.22714 -0.708844
0.740365 1.54046 -0.363651
0.536453 1.39946 -0.572804
0.40987 1.73957 -0.608194
1.11792 1.16207 0.00933466
0.788243 1.85774 -0.219693
0.870561 1.49857 -0.103374
0.911181 1.44485 0.18592
0.864227 1.84997 0.309895
-0.0271193 1.71939 1.04621
0.269069 1.90674 0.869627
-0.117329 2.02053 0.791579
-1.24339 0.850697 0.6189
-0.923799 1.07137 0.742628
-1.31414 1.39349 0.770505
-0.783516 1.25821 -0.593756
-1.06232 1.05616 -0.373618
-1.17283 1.53649 -0.538747
0.029452 1.98245 -0.594073
-0.186981 1.82674 -0.698835
-0.430414 2.32248 -0.480151
0.650545 2.13748 0.158463
0.61557 2.1834 -0.132442
0.331423 2.42299 -0.0299964
-1.21232 3.07064 -0.138182
-1.19032 2.97789 0.124713
-1.06252 3.1277 -0.0898815
-1.48942 2.95948 0.487443
-1.32099 2.95805 0.304729
-1.54163 2.95864 0.291419
-0.967672 2.9221 0.204453
-1.14751 2.95771 0.31711
-1.08524 2.88807 0.41196
-1.66431 2.26622 0.951358
-1.68838 2.48187 0.915462
-1.85292 2.36167 0.797305
-1.29849 2.55333 0.80539
-1.5075 2.55018 0.912978
-1.30863 2.39735 0.891422
-1.77402 2.7537 0.582699
-1.6741 2.6863 0.814097
-1.64557 2.86275 0.694877
-0.706991 2.45514 0.425664
-0.915464 2.51 0.500145
-0.74103 2.37155 0.499109
-1.06834 2.75522 0.477825
-0.994108 2.62219 0.485398
-0.920003 2.71122 0.353278
-1.05768 2.40575 0.653493
-1.05219 2.53692 0.592697
-1.16298 2.54808 0.68288
-1.41018 2.8788 0.670222
-1.25041 2.70931 0.718082
-1.18504 2.87072 0.633237
-0.900592 3.26167 -0.0380092
-0.942632 3.23315 -0.250806
-0.809649 2.91725 0.119694
-0.817433 3.08073 0.0516818
-0.629611 3.36893 -0.171625
-0.687485 3.251 -0.0849657
-0.58298 3.20661 -0.138112
-0.524848 2.43869 0.395184
-0.631359 2.53446 0.328785
-0.495722 2.70924 0.0823739
-0.547966 2.6188 0.21024
-0.377317 2.55817 0.194122
-0.725467 2.66019 0.264549
-0.789371 2.77748 0.21014
-0.330215 2.94112 -0.25892
-0.353788 2.9568 -0.189874
-0.329792 2.7715 -0.175397
-0.466765 3.16746 -0.181479
-0.367134 3.08065 -0.153655
-0.40721 3.23848 -0.266601
-0.352629 2.68272 -0.024097
-0.397609 2.89782 -0.124634
-0.441888 2.79277 -0.0270825
-0.662527 2.91458 0.0362141
-0.534975 2.8606 -0.00284811
-0.558875 3.05487 -0.0909897
-0.911595 3.15704 -0.373938
-1.10566 3.10912 -0.45401
-0.553885 3.37751 -0.35865
-0.722059 3.37449 -0.391275
-1.16417 3.03403 -0.655767
-0.893068 3.08286 -0.447542
-0.880915 3.03909 -0.477172
-0.323563 2.9165 -0.290987
-0.278351 3.07575 -0.328737
-0.200127 3.3543 -0.58876
-0.204925 3.21712 -0.415902
-0.201259 3.15988 -0.532872
-0.32204 3.23684 -0.350195
-0.365793 3.42751 -0.331547
-0.931278 2.85586 -0.571811
-0.801174 2.90325 -0.506153
-0.736033 2.83857 -0.501831
-0.869008 2.98951 -0.498853
-0.841198 2.95011 -0.504812
-1.15454 2.99095 -0.692355
-0.383731 3.0768 -0.542916
-0.504799 3.09765 -0.514674
-0.347467 3.22236 -0.652128
-0.459568 3.52833 -0.514455
-0.369415 3.40245 -0.649984
-0.582482 3.22037 -0.518169
-1.25151 3.13719 -0.556681
-1.27798 3.12274 -0.392524
-1.19842 3.22974 -0.876657
-1.24964 3.18957 -0.780249
-1.55496 3.16325 -0.521726
-1.39126 3.13539 -0.695203
-1.43464 3.09626 -0.734249
-0.991185 2.83491 -0.608346
-1.08492 2.89269 -0.67908
-1.26131 2.98659 -0.961111
-1.18996 2.96025 -0.849817
-1.19211 2.92497 -0.861982
-1.18497 2.97959 -0.820209
-1.21017 3.1074 -0.954689
-1.29928 2.53481 -0.49715
-1.3245 2.78817 -0.769926
-1.21303 2.54138 -0.52894
-1.43523 3.01912 -0.827737
-1.46256 2.85755 -0.863431
-1.52066 2.89327 -0.691214
-1.23406 2.85888 -0.869885
-1.35469 2.88698 -0.969835
-1.29771 2.87047 -1.12864
-1.27569 3.06207 -0.93024
-1.28559 3.00408 -0.95544
-1.35033 3.03815 -0.904696
-1.37229 3.07362 -0.207876
-1.60136 3.00003 -0.400731
-1.51867 3.08767 -0.271117
-1.50546 2.9584 0.0119033
-1.68112 2.9255 0.199544
-1.37989 2.29396 -0.376848
-1.4127 2.50697 -0.400744
-1.77858 2.38077 -0.121142
-1.58949 2.41589 -0.255237
-1.75595 2.17608 -0.172781
-1.49814 2.67158 -0.440575
-1.58714 2.81844 -0.484527
-1.85053 2.35406 0.572403
-1.8524 2.14544 0.642328
-1.85048 2.79086 0.361214
-1.8509 2.56932 0.47596
-1.85053 2.14616 0.239286
-1.91295 2.36086 0.3517
-1.85039 2.3606 0.125446
-1.64482 2.76965 -0.183947
-1.76421 2.56956 -0.00891703
-1.81957 2.79005 0.0961235
-0.218836 2.59078 -0.0628806
-0.241884 2.62724 -0.13326
-0.18699 2.51748 0.134977
-0.205288 2.55616 0.030858
0.192183 2.46094 0.109781
0.0131248 2.47458 0.0992786
0.213139 2.46053 0.230749
-0.381345 2.32092 0.532018
-0.299098 2.40724 0.473401
0.0810621 2.36358 0.614548
-0.0994775 2.39835 0.562242
0.00307834 2.27982 0.697551
-0.228001 2.46176 0.375851
-0.189864 2.48099 0.26947
0.705699 2.00507 0.505596
0.555065 2.12492 0.551056
0.644396 1.9698 0.630773
0.401742 2.38635 0.373651
0.486864 2.27742 0.457621
0.507519 2.29174 0.326466
0.317482 2.13454 0.679829
0.443977 2.2339 0.621733
0.248535 2.28927 0.602772
0.017105 2.46094 0.322195
0.154273 2.41285 0.480282
0.220303 2.46298 0.365797
-0.740915 2.2621 0.570009
-0.582982 2.26589 0.555233
-1.05175 2.27562 0.705987
-0.934395 2.27381 0.631736
-0.480127 2.03893 0.718446
-0.7274 2.14316 0.638199
-0.651033 2.00911 0.712677
-1.5754 2.04741 0.846092
-1.44578 2.1119 0.958757
-1.11121 1.89549 0.768831
-1.27581 2.04136 0.824878
-1.20174 1.77731 0.795927
-1.28164 2.21805 0.934466
-1.20223 2.27112 0.854547
-0.363032 1.34309 1.04322
-0.543689 1.44619 1.04613
-0.48199 1.26117 0.967549
-0.563786 1.82136 0.810077
-0.539255 1.6622 0.932307
-0.381409 1.76549 0.977975
-0.824797 1.47108 0.810203
-0.668936 1.55228 0.864142
-0.879158 1.69988 0.798453
-1.04758 2.13951 0.725359
-0.975091 1.95211 0.731757
-0.824931 1.99178 0.71499
-1.72244 1.96215 0.532425
-1.66684 1.97955 0.698034
-1.76848 1.94233 0.147104
-1.76725 1.94148 0.332266
-1.67502 1.49418 0.593857
-1.75037 1.70176 0.450999
-1.71217 1.468 0.36327
-1.31834 2.05766 -0.420323
-1.48709 2.00398 -0.353915
-1.61917 1.49976 -0.296842
-1.57987 1.7528 -0.348701
-1.49666 1.52671 -0.434664
-1.63312 1.96849 -0.239368
-1.69056 1.95544 -0.0599673
-1.43805 0.602182 0.138355
-1.34379 0.841291 0.0159394
-1.43831 0.643131 -0.149104
-1.62467 1.20163 0.238836
-1.42472 1.07053 0.122859
-1.41503 1.07252 0.354405
-1.34702 1.12546 -0.211156
-1.42433 1.07458 -0.0733307
-1.57967 1.22904 -0.214382
-1.77644 1.70097 0.0241861
-1.68558 1.46774 -0.0980042
[...]
POINT_DATA 642
SCALARS Mean_Curvature double 1
LOOKUP_TABLE default
-0.648188
0.269536
2.64507
5.14814
5.88992
-0.69437
-0.0130691
0.284173
3.30792
-2.63284
-0.535277
8.17564
3.44726
2.37428
-0.740253
-0.354456
7.08887
14.3014
0.0760494
6.52909
7.68891
4.36367
2.12753
1.83321
5.33
0.0554117
3.36912
3.8996
0.153692
0.980456
1.40344
0.140099
7.35781
1.75237
2.2053
5.96588
0.257396
6.44368
3.03909
-3.18674
-1.13436
1.86421
-2.07147
3.91698
2.3287
3.29136
3.49456
4.03694
-0.698863
1.1969
-0.183396
-1.45104
1.96353
-0.586269
-0.208165
4.49948
-0.235888
0.16918
1.04398
0.309873
8.09521
4.55764
0.289482
-0.199823
-0.40146
1.68564
2.34259
-0.0634798
16.8646
5.94993
15.3709
5.6106
1.93401
-0.478973
-0.959133
0.381608
1.57787
-0.9296
-0.942334
4.20914
4.59592
5.10128
-1.70583
3.32259
-1.17496
-0.12336
-1.53994
0.947432
1.92916
-0.257093
-1.13123
5.42597
2.07681
2.66643
1.76706
-1.04868
3.00333
-1.45804
0.103504
-0.544807
0.111382
0.229279
3.41096
-0.0197372
0.914938
0.662575
0.62213
-0.0889223
0.652817
2.79652
-0.666419
5.18007
3.51188
3.47849
3.11177
1.27657
1.31009
4.21593
4.37049
-0.824999
1.77693
-0.81896
-0.0170038
-0.941374
5.7526
-1.52733
0.00783893
2.05161
1.72259
2.49878
4.36946
-0.059444
3.39478
0.208564
2.0132
-1.52005
4.41868
4.10116
-1.67663
1.34838
0.946479
4.14347
4.23531
2.32011
-0.952647
-1.58509
2.50074
5.0472
4.52628
0.0105483
3.2777
-1.56737
3.81242
-1.5262
-1.39943
2.7317
2.5371
-1.07402
0.208513
-0.298489
5.53579
1.52992
-1.09467
-1.67017
0.499557
3.10197
-0.264122
1.57152
-0.234312
3.60576
4.09295
4.32728
4.41668
5.01407
0.551465
3.59111
2.49182
1.88332
3.97822
6.05869
-0.635809
-0.249369
-0.830203
-1.39845
-1.04145
-0.821366
-1.28636
-0.349804
-1.48519
3.17856
1.9874
7.64522
8.00194
4.45091
-1.05497
3.03059
9.04803
5.32346
-1.19028
-0.616035
-0.66378
-0.814478
-0.435252
-0.497057
-0.684904
-0.586326
0.0968005
2.84215
0.578535
-1.4212
12.0487
-1.98586
-0.352303
1.81689
0.0563138
-0.813167
-0.16093
-0.741904
-0.20102
-0.05834
0.701999
9.27791
0.251564
0.175764
0.392878
-0.585419
5.05823
10.0692
9.50068
4.79113
-3.04198
9.72447
-0.0347031
0.523876
0.481833
0.563335
0.551335
-0.182363
3.05106
-0.678986
7.32192
9.61889
8.84399
3.69466
3.14339
-0.365817
13.7309
9.64348
9.33117
3.21208
3.41259
0.278698
0.123288
4.29334
5.45402
10.2919
0.19922
9.25518
-0.21513
-0.969253
0.0488578
4.14548
9.1369
0.177654
9.86069
1.33942
14.5373
0.766445
1.36288
1.28895
0.34117
3.19742
6.15833
1.19506
3.31882
-0.93519
-0.720831
3.70292
0.265538
4.41173
-1.51776
3.9971
-0.83172
4.00011
5.35909
0.648506
1.1542
4.23461
0.794813
1.34946
-0.260717
5.22088
-0.335158
-0.102856
-0.744398
-0.530298
1.47939
-1.09141
1.87129
-1.34343
1.81544
4.8334
2.53151
5.62309
1.33964
-0.97523
2.7729
-0.326928
4.94834
6.32204
2.8806
1.46333
-0.413283
7.82327
2.27578
0.0383979
1.48174
6.10764
-0.849673
-0.713382
0.129496
-1.01094
-0.373868
-0.863615
0.00995654
1.47141
6.42139
-1.15789
0.29649
0.104314
6.37538
2.67998
1.21357
7.45199
-1.24466
-1.66139
1.60325
4.34927
-1.67068
-1.35987
-1.29096
-1.32938
-1.32197
-0.0603028
-1.58357
0.55451
-0.808572
-1.32309
4.91119
1.22884
-0.0775883
-0.939999
0.919596
3.1679
2.77948
5.05807
1.87876
-2.79588
8.42089
-1.22848
8.74884
2.81303
-2.37676
-0.0594352
-1.2412
0.79061
5.0945
1.7626
0.478398
3.5793
0.00691344
-0.29963
-0.119628
-0.080734
-0.596763
0.224851
-0.293357
0.227943
0.0487653
0.276147
0.0195866
0.220977
0.0404581
-0.0405315
1.37243
8.25212
0.540568
-0.480366
-0.763324
-1.03472
-0.520813
-0.748841
0.0249172
0.291924
0.421152
0.28815
0.302708
0.439416
-0.7492
-0.372958
0.539585
0.795121
0.714776
0.105881
0.150623
0.0799313
-0.15226
-0.396535
-0.345151
18.6326
-0.128793
-2.09698
3.87706
-0.368004
4.7869
0.245173
-1.51584
5.58052
-0.311444
0.803851
0.592903
0.712576
2.1773
2.55101
1.46447
2.40473
4.28042
5.95044
6.01984
-1.90907
1.37693
5.87226
2.34133
-2.13011
2.48805
-0.782721
3.72888
-0.0448492
0.987612
-3.73828
2.68899
0.0199749
-0.817164
2.11308
3.8744
-1.28139
1.85339
3.60939
1.60888
0.773395
0.215782
0.177522
-0.0219665
0.477493
2.76821
0.129473
0.2373
0.199333
0.134063
-1.36528
-1.92339
6.73155
7.10088
0.0205939
-1.568
5.7386
3.76936
3.69714
0.859607
-0.00181038
-0.769167
0.0209562
2.02137
-0.94867
1.36048
0.810791
-0.0244522
0.0659464
1.532
3.18499
-1.34445
0.160817
3.15803
4.02821
4.49095
6.33232
1.46791
7.43625
3.7597
3.47968
-0.12879
0.115539
0.208159
6.01971
1.59523
1.47029
1.34654
-2.74198
-1.6833
-2.94951
1.48644
0.92191
6.43116
4.08244
-0.0893954
3.82736
2.14813
3.34483
0.502646
-1.98394
0.586918
-0.162309
3.12263
0.843661
-0.0829577
1.55329
1.02232
-0.597033
2.36422
2.63122
2.1333
2.34698
-0.970395
-2.48576
-1.57965
2.87558
3.68961
5.5546
2.8364
1.21515
1.79589
6.32715
5.6695
3.44224
4.1545
3.42954
-0.44817
-0.272538
4.9836
5.97837
6.33969
-1.52137
3.51177
7.69668
-1.9551
-2.31448
2.4958
-1.14316
-0.895869
1.49315
-1.65425
4.73887
1.78009
5.28193
-1.00001
1.97455
3.44102
-1.61338
-0.456618
-2.25915
5.43065
-3.3671
2.48483
-1.85011
-1.42598
0.661744
-2.67448
1.14207
-0.508489
1.65305
0.804952
7.92639
8.26253
-1.15632
-1.21954
-1.29262
0.584545
-1.39299
-1.41076
-0.761519
-2.03792
2.539
1.12517
3.47482
-0.576214
-0.610217
0.038085
-1.61055
6.67907
-1.06371
-0.969453
0.639597
-1.34692
4.13765
1.69998
-2.36993
-1.38277
-1.35731
-1.18152
1.49563
6.23347
-1.88054
0.436798
-1.28666
-0.521946
-1.5558
-0.526202
0.167069
0.505722
-1.24777
-0.992255
2.96869
1.282
-0.10491
5.84944
5.4206
0.372391
0.272684
0.236528
0.0674996
0.168739
-1.27603
-0.211075
-0.468706
2.67248
1.9154
2.54019
-0.889333
0.458065
1.79104
4.20745
0.36724
-0.436974
5.23944
-0.57998
4.31204
1.14467
-0.631158
10.0615
-0.958486
1.68608
0.792011
SCALARS Redistribution_Potential double 1
LOOKUP_TABLE default
-5.08508e-06
-0.306765
-0.325542
-0.631433
-0.406114
-0.346843
-0.49864
-0.0857562
-0.670684
-0.680956
-0.0425535
-0.2767
-0.214043
-0.302537
-0.233021
-0.360096
-0.206045
-0.241079
0.272065
0.432614
0.301869
-0.193422
-0.58444
-0.632484
-0.28672
-0.428488
-0.237398
-0.26333
-0.326238
-0.269811
-0.543449
-0.419477
-0.657491
-0.60089
-0.540933
-0.333009
-0.482264
-0.356823
-0.586326
-0.611283
-0.664001
-0.692865
-0.112027
-0.236349
-0.1621
-0.295518
-0.280448
-0.263249
-0.279974
-0.281116
-0.305367
-0.197703
-0.137733
-0.369751
-0.278911
-0.251811
-0.269162
-0.331777
-0.176689
0.218396
-0.254998
-0.234037
0.134947
-0.203158
-0.212671
0.527689
0.181995
0.195483
0.555464
0.24457
0.467502
0.28306
-0.049214
-0.114641
-0.0350209
-0.192291
-0.235165
-0.518098
-0.467607
-0.502188
-0.525078
-0.674625
-0.624348
-0.64933
-0.307526
-0.398583
-0.259081
-0.290051
-0.434964
-0.339395
-0.288599
-0.247376
-0.254786
-0.183429
-0.217681
-0.248111
-0.251892
-0.233593
-0.0830678
-0.150483
-0.167062
-0.0575182
-0.401464
-0.291689
-0.455866
-0.251561
-0.258665
-0.377419
-0.271644
-0.584511
-0.47006
-0.63887
-0.648264
-0.631022
-0.60105
-0.652302
-0.643407
-0.662455
-0.454362
-0.5721
-0.511237
-0.516842
-0.57441
-0.3291
-0.419761
-0.397378
-0.416775
-0.34146
-0.541636
-0.613352
-0.320654
-0.429213
-0.541357
-0.481174
-0.4311
-0.633178
-0.640248
-0.565362
-0.610569
-0.680607
-0.656525
-0.648076
-0.659483
-0.693409
-0.670142
-0.629053
-0.688645
-0.535641
-0.604523
-0.511782
-0.281878
-0.22867
-0.26946
-0.298721
-0.209725
-0.230483
-0.549788
-0.504819
-0.373569
-0.6813
-0.669764
-0.605954
-0.0238666
-0.147154
-0.086257
-0.228405
-0.192472
-0.181308
-0.205353
-0.208851
-0.237863
-0.287555
-0.284175
-0.274368
-0.296261
-0.292093
-0.300959
-0.242825
-0.273183
-0.258612
-0.315393
-0.2938
-0.322064
-0.257788
-0.272408
-0.249694
-0.297902
-0.292951
-0.295181
-0.262758
-0.28403
-0.266762
-0.137697
-0.0911399
-0.207044
-0.182619
-0.152735
-0.175165
-0.202303
-0.357829
-0.313205
-0.307365
-0.317077
-0.371223
-0.2729
-0.243506
-0.275713
-0.280661
-0.319037
-0.226461
-0.258504
-0.227404
-0.347726
-0.292752
-0.308715
-0.232348
-0.275876
-0.233522
-0.0669548
0.0951863
-0.188652
-0.164941
0.267583
-0.0541102
-0.053731
-0.270564
-0.256734
-0.239442
-0.241679
-0.244978
-0.239797
-0.223546
-0.0064966
-0.11264
-0.15974
-0.0569365
-0.080612
0.273147
-0.235114
-0.210547
-0.232073
-0.2193
-0.222058
-0.191885
0.261699
0.124396
0.546263
0.532864
0.259857
0.4958
0.519707
0.0491261
0.181476
0.510592
0.392965
0.38774
0.376564
0.547565
0.0380055
0.282225
0.0231772
0.531737
0.391041
0.310635
0.378488
0.433988
0.466508
0.524963
0.512937
0.516811
0.0313246
0.147702
0.0836436
-0.0820766
-0.15759
-0.0506533
0.02302
-0.137061
-0.0703133
-0.16251
0.0954375
0.158489
-0.249648
-0.255651
-0.202495
-0.231541
-0.217088
-0.222283
-0.186178
-0.0226457
-0.127016
-0.1458
-0.397563
-0.378098
-0.429501
-0.412452
-0.570797
-0.503322
-0.583778
-0.424275
-0.443745
-0.567724
-0.515894
-0.550897
-0.452532
-0.446775
-0.6809
-0.664935
-0.670835
-0.636324
-0.653733
-0.658675
-0.623008
-0.645055
-0.607567
-0.528582
-0.580224
-0.592626
-0.334337
-0.373671
-0.297248
-0.303314
-0.415575
-0.346009
-0.369701
-0.27298
-0.281261
-0.282523
-0.28176
-0.280604
-0.297818
-0.301122
-0.418761
-0.372889
-0.357333
-0.380533
-0.378929
-0.441874
-0.270055
-0.297756
-0.303499
-0.280347
-0.292449
-0.326162
-0.213006
-0.254392
-0.221721
-0.229258
-0.262236
-0.250127
-0.257793
-0.120602
-0.151698
-0.232795
-0.202108
-0.222812
-0.179729
-0.202789
-0.297654
-0.231627
-0.293805
-0.25877
-0.248605
-0.251441
-0.242897
-0.246216
-0.245407
-0.234245
-0.241479
-0.253558
-0.0223024
-0.0900562
0.126662
0.0893315
-0.200675
-0.111141
-0.196303
-0.116322
-0.0235766
-0.192035
-0.113245
-0.227118
0.0797374
0.145407
-0.463549
-0.430232
-0.489293
-0.28082
-0.347854
-0.321526
-0.395412
-0.367228
-0.308304
-0.0533565
-0.192268
-0.188185
-0.230347
-0.201069
-0.243091
-0.235259
-0.328926
-0.260073
-0.342082
-0.333807
-0.295142
-0.402869
-0.327753
-0.463762
-0.257777
-0.246409
-0.647774
-0.615702
-0.662514
-0.442234
-0.542248
-0.503097
-0.606203
-0.5798
-0.506854
-0.254432
-0.377584
-0.352774
-0.63838
-0.632905
-0.619041
-0.651022
-0.640471
-0.656188
-0.575803
-0.61537
-0.590789
-0.670079
-0.665489
-0.675883
-0.625288
-0.649364
-0.632394
-0.657102
-0.658495
-0.656258
-0.421166
-0.491571
-0.450499
-0.557904
-0.525166
-0.502747
-0.561838
-0.549007
-0.589687
-0.637421
-0.61472
-0.602937
-0.587228
-0.602617
-0.527885
-0.55981
-0.531418
-0.545482
-0.500439
-0.329941
-0.366672
-0.379035
-0.370655
-0.325949
-0.401283
-0.476609
-0.352287
-0.370544
-0.332298
-0.446616
-0.410691
-0.437747
-0.348143
-0.377787
-0.378383
-0.46943
-0.421965
-0.460252
-0.595228
-0.621945
-0.513405
-0.558243
-0.602359
-0.585813
-0.567539
-0.32604
-0.363862
-0.399533
-0.37715
-0.332159
-0.412887
-0.457332
-0.518047
-0.492102
-0.476689
-0.545416
-0.514964
-0.570241
-0.376762
-0.447871
-0.421851
-0.487357
-0.457492
-0.5188
-0.625985
-0.641649
-0.615751
-0.624852
-0.649324
-0.611589
-0.647081
-0.533088
-0.557738
-0.615183
-0.59055
-0.590104
-0.582047
-0.599892
-0.680654
-0.672011
-0.663334
-0.66577
-0.671625
-0.675263
-0.631826
-0.65814
-0.639339
-0.628718
-0.635632
-0.647627
-0.647483
-0.662136
-0.655073
-0.658379
-0.655077
-0.686401
-0.688567
-0.680996
-0.688572
-0.696128
-0.68099
-0.670168
-0.675051
-0.687451
-0.652639
-0.638786
-0.689945
-0.669122
-0.673149
-0.66201
-0.640335
-0.656924
-0.475673
-0.570903
-0.528122
-0.490278
-0.483234
-0.653766
-0.596434
-0.630825
-0.633705
-0.60812
-0.450343
-0.460029
-0.461897
-0.511853
-0.549173
-0.571441
-0.563321
-0.526076
-0.30326
-0.326614
-0.317432
-0.276516
-0.238714
-0.262941
-0.258591
-0.226423
-0.241665
-0.298798
-0.263058
-0.265085
-0.269126
-0.276554
-0.276191
-0.284218
-0.251616
-0.248047
-0.423514
-0.303267
-0.367749
-0.355184
-0.296808
-0.281461
-0.237216
-0.235242
-0.240349
-0.253622
-0.143773
-0.247934
-0.198494
-0.184324
-0.230991
-0.232248
-0.23987
-0.256824
-0.626388
-0.589391
-0.608494
-0.568352
-0.479295
-0.516406
-0.420374
-0.47897
-0.545979
-0.568232
-0.22466
-0.393489
-0.305779
-0.259646
-0.347036
-0.526885
-0.442883
-0.462448
-0.687278
-0.692793
-0.690712
-0.679239
-0.65869
-0.677128
-0.627973
-0.658651
-0.686588
-0.693365
-0.426621
-0.623127
-0.547279
-0.507598
-0.577827
-0.678886
-0.643152
-0.655498
SCALARS CoVolArea double 1
LOOKUP_TABLE default
0.0279501
0.00556129
0.0342753
0.0356233
0.0195934
0.0182502
0.0141684
0.00758348
0.0137822
0.0226348
0.0246987
0.0402784
0.0439709
0.0268226
0.0263605
0.0230116
0.0230889
0.0220642
0.0163976
0.0123814
0.0356816
0.0501507
0.0248583
0.0232423
0.0447619
0.0334362
0.0452066
0.0595943
0.0256267
0.0464837
0.023664
0.0215723
0.0440021
0.0391183
0.0542246
0.0551875
0.064785
0.0440499
0.0416438
0.0317277
0.0324194
0.0266947
0.0452112
0.0368207
0.0396203
0.0408749
0.0438381
0.0485927
0.0266815
0.0256067
0.0240657
0.0258589
0.0337901
0.0278608
0.0269554
0.0153939
0.0188918
0.0151176
0.031598
0.0226752
0.0140449
0.0308984
0.013881
0.0260158
0.021251
0.0149237
0.0334211
0.00753714
0.0108852
0.0409553
0.0232113
0.0231929
0.0492908
0.0478366
0.0489744
0.0543854
0.0452896
0.0234329
0.0186194
0.0285101
0.0278162
0.0263086
0.026434
0.0275565
0.0247626
0.0279326
0.0401874
0.0272608
0.0385945
0.0407366
0.0419917
0.0578129
0.0452876
0.0427583
0.0506473
0.0546676
0.057356
0.0398046
0.0171678
0.0357082
0.0111779
0.0106174
0.0397933
0.0295223
0.0327576
0.0115641
0.0164025
0.0128837
0.0146258
0.02856
0.0208848
0.0251142
0.0624131
0.051903
0.0585917
0.0315926
0.042608
0.029336
0.0475317
0.050554
0.0421397
0.066216
0.051204
0.0375821
0.0646975
0.057271
0.0603737
0.0503336
0.0563983
0.046426
0.0414888
0.0563961
0.0429101
0.0443656
0.03567
0.0430892
0.042251
0.029006
0.0382427
0.0308871
0.0352847
0.0319543
0.0437109
0.0245596
0.0278237
0.0270329
0.0281091
0.0334765
0.0334593
0.0308647
0.0529302
0.0453485
0.0519448
0.042932
0.0411742
0.0468072
0.0328016
0.0302302
0.0307758
0.0259608
0.0285612
0.0268
0.0389735
0.0401239
0.039346
0.042794
0.0384539
0.0423857
0.0305742
0.0325329
0.0316588
0.0463785
0.0445427
0.0483767
0.0339358
0.0406486
0.030329
0.0464518
0.0453147
0.0466912
0.0216525
0.0234893
0.021373
0.0273624
0.0231717
0.0257366
0.0231779
0.0211107
0.0252602
0.0441441
0.0351317
0.0366046
0.0400772
0.0336001
0.0291846
0.0347595
0.0284208
0.0292057
0.0205448
0.0256594
0.0257499
0.0225828
0.0267113
0.0259884
0.0281984
0.0281357
0.0107191
0.0141997
0.0109633
0.0184554
0.0158601
0.0175703
0.0179839
0.0143503
0.0186511
0.029042
0.0230295
0.0232021
0.0313299
0.0291461
0.0315817
0.0348076
0.0155655
0.0252724
0.0208969
0.00786468
0.0134309
0.0274728
0.0241704
0.0200221
0.0215612
0.0302008
0.00903648
0.0199295
0.0155311
0.0183545
0.0197181
0.0151237
0.0204029
0.0231667
0.0289224
0.0410815
0.0373643
0.0354942
0.0275057
0.0294671
0.0197583
0.0214845
0.0359101
0.0265047
0.0209487
0.00668162
0.00634567
0.0105825
0.00864306
0.008288
0.0122285
0.0172674
0.0352648
0.032071
0.0263619
0.0255027
0.028248
0.0352323
0.0150848
0.0216574
0.0203116
0.0109603
0.0120364
0.0135431
0.0391506
0.046869
0.0411852
0.0433156
0.0466831
0.0414932
0.0445224
0.0501123
0.0468021
0.0479955
0.0439974
0.0461638
0.046823
0.0451222
0.0517796
0.0485168
0.0472035
0.0491458
0.0516656
0.0570856
0.0574853
0.0596284
0.0166119
0.0102165
0.0246528
0.0198394
0.0238139
0.021049
0.0235913
0.0304407
0.0297535
0.0263127
0.0276797
0.0246389
0.0277204
0.0267101
0.0271751
0.0277506
0.0277887
0.0226875
0.0237091
0.0206033
0.0264051
0.0274813
0.0279237
0.0276467
0.0278103
0.0260411
0.0254023
0.0262318
0.02536
0.0228705
0.0309263
0.0257308
0.0322576
0.0414791
0.0416093
0.0385682
0.0323682
0.04151
0.0301611
0.0248022
0.0278137
0.0387402
0.0334283
0.0362031
0.0399899
0.0347987
0.0425109
0.0404158
0.0449332
0.0288568
0.0385861
0.0342006
0.0440369
0.040111
0.0519665
0.048068
0.0591019
0.0527329
0.0613356
0.0420913
0.0457702
0.0491945
0.0445264
0.0427399
0.0457457
0.0513515
0.0517137
0.0491083
0.0490649
0.0608453
0.0524253
0.0566174
0.0431885
0.0440737
0.0525685
0.060277
0.0593745
0.064662
0.0281172
0.0319059
0.0120636
0.0191927
0.0410411
0.0273823
0.0330883
0.0100428
0.00821536
0.0170022
0.00932914
0.0171911
0.00920252
0.00990238
0.0258986
0.0354875
0.0265594
0.0383343
0.0366058
0.0421678
0.0289432
0.0324157
0.0271939
0.0132295
0.0195265
0.0235738
0.0166161
0.0132822
0.0143549
0.013783
0.0186738
0.0149003
0.0149617
0.00885532
0.00958895
0.0166053
0.0135133
0.0183139
0.0141373
0.0149057
0.0230093
0.0271512
0.0239806
0.0188531
0.0248313
0.0243473
0.0234217
0.0241788
0.0213346
0.0125123
0.0150731
0.0139946
0.046024
0.0567266
0.0466126
0.0536193
0.0554431
0.0653908
0.0591458
0.0541709
0.0548606
0.0311926
0.0321766
0.0303899
0.0404347
0.0338162
0.0354226
0.0253844
0.0332998
0.0409275
0.0354761
0.0428047
0.0309847
0.0503582
0.0463842
0.0517358
0.0397461
0.0445146
0.0450512
0.0551438
0.0532871
0.0572752
0.0528279
0.0443922
0.061179
0.0599871
0.0609485
0.0600808
0.0694138
0.033632
0.0385111
0.0680671
0.0520025
0.0481649
0.0510586
0.0566431
0.0488443
0.0610433
0.0470049
0.0639871
0.0574411
0.054667
0.0548383
0.054569
0.0605829
0.0671555
0.0690171
0.0711552
0.0505259
0.0500594
0.0617857
0.0563601
0.0466148
0.0526962
0.0514804
0.0431655
0.0470903
0.0563123
0.0452361
0.0428643
0.0491035
0.0581764
0.0292512
0.0402575
0.0283973
0.0447586
0.0419704
0.0407185
0.0349394
0.034541
0.0461589
0.0613726
0.0601116
0.0541897
0.0434832
0.0423406
0.0431405
0.0428637
0.0399142
0.0395322
0.0364691
0.0238738
0.0303036
0.0307991
0.0289629
0.0283167
0.0380288
0.0400409
0.0280394
0.033727
0.0269347
0.0323896
0.0285914
0.025236
0.0288209
0.0290293
0.0326787
0.0487441
0.0421366
0.0449688
0.0528761
0.0388822
0.0517047
0.064855
0.0502572
0.0227975
0.027123
0.0243887
0.0250221
0.0253375
0.027446
0.0311111
0.0280601
0.0275501
0.0280099
0.0257253
0.0280027
0.0283314
0.0260242
0.0346014
0.0295438
0.0334766
0.0344031
0.0360554
0.0346398
0.0344341
0.0321343
0.030635
0.0284979
0.0278059
0.0317461
0.0378736
0.0310935
0.0322271
0.0304017
0.0283152
0.0275203
0.0367255
0.0338239
0.033924
0.0472674
0.066541
0.056844
0.0474773
0.0470946
0.0405322
0.0442785
0.0416802
0.0434074
0.0464002
0.039756
0.0580745
0.0518493
0.0461438
0.0466852
0.0527804
0.0525936
0.0512687
0.0349605
0.0407777
0.0351658
0.0395908
0.0458338
0.0427291
0.0424322
0.0415052
0.0420632
0.0400212
0.0437687
0.0512342
0.0456934
0.0442591
0.0426275
0.0447273
0.0447121
0.049969
0.0302698
0.0327017
0.0289343
0.0284774
0.0305702
0.0305991
0.0290381
0.0286813
0.0301849
0.031497
0.0150292
0.0276477
0.0216687
0.0219489
0.028837
0.0350861
0.0335267
0.0352099
0.0274385
0.0279872
0.0257557
0.0241231
0.0235986
0.0260425
0.0271062
0.0245081
0.0265967
0.0291438
0.0155221
0.0251513
0.0231843
0.0218032
0.0264173
0.0301623
0.0291374
0.0272596
SCALARS SignedDistance double 1
LOOKUP_TABLE default
1.11408
1.16955
-0.00650406
0.0887206
-0.00573011
1.10341
9.90067e-05
1.27415
0.0117302
-0.049961
1.19813
0.06752
-0.0216824
0.0336684
0.71351
1.20208
0.1173
0.0658866
0.971874
-0.559988
-0.02549
0.0491364
-0.00414007
0.0328615
-0.00225302
0.0102081
-0.0194126
0.0667873
1.15235
0.084348
0.014162
1.12605
0.00401706
0.0555398
0.00663694
0.118309
0.000298839
0.106917
-0.0044792
-0.049672
0.0291488
0.0422265
0.0194392
0.0431777
-0.00344734
0.0464374
-0.00320652
0.0558896
1.14236
0.0250788
0.59835
0.692776
0.0149058
1.08887
1.22258
0.029524
0.179797
1.22221
0.0657651
1.03109
0.0299168
0.0344312
1.19122
0.157092
1.10586
-1.02077
0.0390358
1.14004
0.0171793
-0.146426
0.0202623
0.00800904
-0.00167044
0.0142373
0.00377405
0.00241834
-0.00395928
0.142533
1.08524
0.0575995
0.015222
0.073313
-0.0127925
0.0613994
0.863906
0.0604398
0.681471
0.0879993
0.000385734
0.033606
0.902269
0.0707101
-0.00015226
0.0327089
-0.00215775
1.01043
0.00651052
0.7407
1.31004
1.09645
1.33766
1.30792
0.0285747
1.1171
0.0202483
1.14764
1.27835
1.19439
1.17679
0.0494324
1.08188
0.0671064
0.031543
0.107726
0.00750562
0.0342565
0.000422246
0.0751587
-0.00391476
-0.0419706
-0.0485946
-0.0459133
-5.01182e-06
0.115494
-0.00767811
-0.0461297
4.30881e-07
0.0459678
-0.000717844
0.0759015
0.00281198
-0.00323631
0.00099336
0.00549104
-0.0050794
-0.0577521
-0.0265182
0.0645418
-0.0178668
0.0364028
-0.00289404
0.0789594
-0.0192785
0.0466656
-0.000622477
1.00527
-0.000604931
0.0752055
-0.0133515
0.00349789
-0.0236157
0.760226