# vtk DataFile Version 4.2
vtk output
ASCII
DATASET POLYDATA
POINTS 642 double
-1.5112 4.13025 -0.397688
-0.488647 3.71863 -0.280016
-1.75633 0.631794 -0.000543333
0.884523 0.785714 0.0302202
-0.479899 1.57542 1.38994
-0.891275 3.13759 0.585921
-0.449033 1.76361 -1.1363
-1.32594 3.79878 -0.703356
0.800045 2.52105 -0.571464
1.00535 2.41993 0.716463
-1.64484 3.19698 -0.570117
-2.29704 2.92667 1.02389
-2.25583 3.85782 0.598148
-1.6314 3.26178 1.15904
-1.32624 3.74755 0.400436
-0.514194 3.50014 0.0402379
-0.613567 4.49362 -0.293493
-0.309197 4.3631 -0.805472
-1.58962 4.05621 -0.993169
-1.64131 3.90835 -1.36728
-2.13268 4.05562 -0.876056
-2.438 2.87003 0.0464435
0.232843 2.93055 0.92266
0.578685 3.13602 0.3422
-1.39514 2.11432 1.16662
-0.544214 2.47696 1.18734
-1.93129 1.7057 -0.440325
-2.10029 1.60248 0.62103
-0.853447 3.06522 -0.587884
-1.17447 2.43039 -0.794881
0.154281 3.2523 -0.305833
-0.363035 3.18176 -0.465114
1.4414 1.5543 0.617693
0.461009 1.96422 1.27382
0.275795 0.891189 1.06092
-1.20585 0.887664 0.984262
-0.472388 0.740641 -0.00541639
-0.976241 1.04577 -0.703814
0.199484 1.05928 -0.871031
0.268069 2.06375 -0.948878
1.10231 1.58758 -0.281157
1.14502 2.33902 0.0438459
-1.83429 3.9435 0.120923
-1.78147 3.95869 0.66178
-1.34497 4.04763 0.137977
-2.04226 3.13642 1.26998
-1.98951 3.63582 1.08395
-2.43552 3.38437 0.91372
-1.21069 3.45783 0.516731
-1.53447 3.61775 0.874129
-1.31024 3.23972 0.830105
-0.889565 4.17538 -0.0966973
-1.05067 4.42333 -0.311877
-0.600284 3.30546 0.361361
-0.858011 3.70987 0.100981
-0.459411 4.26941 -0.397257
-0.576497 4.0806 -0.149736
-0.505329 3.69189 -0.210089
-0.884251 4.36637 -0.588967
-1.57976 4.09471 -0.868746
-0.276012 4.12642 -0.538946
-0.407873 4.60116 -0.670158
-1.56776 3.94224 -0.960579
-0.776476 4.17899 -0.644473
-0.696565 4.03217 -0.599131
-1.79667 4.23881 -1.17195
-1.8736 4.26343 -0.624487
-1.57803 3.9116 -0.983994
-1.58813 4.22127 -1.49954
-1.93511 3.68954 -0.917307
-1.92119 4.01747 -1.36271
-1.6625 3.76747 -1.09971
-2.15113 3.8747 -0.0853185
-2.09424 2.94501 -0.368946
-2.1458 3.47421 -0.297692
-2.48272 3.40371 0.316674
-2.46601 2.87058 0.618462
0.0871541 3.28143 0.275807
-0.0718899 3.3437 -0.0294928
-0.192401 3.06625 0.898001
0.0126183 3.27952 0.604727
0.833343 2.85699 0.53109
0.48908 3.0985 0.631254
0.665101 2.72406 0.89022
-1.24543 2.8516 0.864009
-0.756206 2.85983 0.913234
-1.87155 2.62158 1.0212
-1.58817 2.82504 1.20128
-0.457221 2.05708 1.39013
-0.98995 2.35971 1.06744
-0.857351 1.7627 1.14448
-2.40566 2.23135 0.327669
-2.19089 2.35656 0.841971
-1.94093 2.34275 -0.556861
-2.2469 2.27513 -0.226377
-1.76029 1.07815 0.287746
-2.14369 1.58037 0.0176731
-1.67886 1.11007 -0.118428
-1.37682 3.5099 -0.658469
-1.41119 2.89961 -0.612645
-1.22087 3.6558 -0.625195
-1.39194 3.67985 -0.721051
-0.819752 1.97864 -1.07918
-0.979416 2.8788 -0.649516
-0.510097 2.29413 -1.0671
-0.579505 3.90815 -0.518272
-0.767794 3.69942 -0.520393
-0.415571 3.52854 -0.289084
-0.546261 3.83202 -0.470488
0.280574 2.79234 -0.624935
-0.144911 3.21391 -0.406833
0.613624 2.86359 -0.41914
1.33744 0.967089 0.343164
0.949871 1.12494 0.795293
0.684065 0.740139 0.543743
0.819436 2.19788 1.01221
0.927467 1.73261 0.917241
1.1673 1.89524 0.581326
-0.183394 1.2032 1.38956
0.408914 1.37047 1.2121
-0.0168837 1.76715 1.40131
-0.0482144 0.763298 0.581678
0.284822 0.740674 0.010387
-0.820307 1.14158 1.27247
-0.470034 0.739397 1.21193
-1.18585 0.760219 -0.00138906
-0.894075 0.740675 0.620381
-1.55069 0.703094 0.64107
-0.0870963 0.74067 -0.536731
0.554593 0.873695 -0.480864
-1.46462 0.819918 -0.470142
-0.878389 0.739983 -0.558936
-0.187545 1.40659 -1.06465
-0.51884 0.962742 -0.90971
-0.713903 1.39185 -0.999734
0.733616 1.28563 -0.612145
1.18658 1.11087 -0.272683
-0.0597084 1.88963 -1.10582
0.285774 1.58282 -0.92071
1.02111 1.96497 -0.446131
0.732011 1.81937 -0.733772
0.571219 2.23625 -0.779571
1.49628 1.49569 0.0270753
1.06139 2.39049 -0.257593
1.15982 1.91347 -0.0915296
1.24119 1.85334 0.263874
1.15998 2.39509 0.410384
-0.00750573 2.24675 1.40103
0.393374 2.49325 1.15696
-0.119702 2.6131 1.05369
-1.65653 1.11028 0.842594
-1.22275 1.3817 0.920185
-1.7494 1.83663 0.99155
-1.01734 1.61099 -0.743979
-1.40574 1.36486 -0.433217
-1.5956 1.97625 -0.709415
0.0737079 2.60278 -0.790524
-0.217121 2.39679 -0.969608
-0.618935 3.12604 -0.541675
0.91215 2.81188 0.207183
0.867662 2.84931 -0.140507
0.496744 3.19283 -0.0170113
-1.65568 4.08253 -0.171292
-1.64734 3.92333 0.16419
-1.43704 4.16336 -0.108501
-2.03626 3.92672 0.652013
-1.8161 3.9432 0.432166
-2.12048 3.97857 0.39527
-1.3231 3.89065 0.290352
-1.60434 3.96813 0.446365
-1.48527 3.89813 0.622895
-2.19842 3.03516 1.17257
-2.26699 3.28438 1.19814
-2.38123 3.14232 0.994178
-1.77623 3.41203 1.10721
-2.07084 3.41987 1.28962
-1.79142 3.20481 1.21924
-2.41827 3.67431 0.779312
-2.24755 3.55947 1.0687
-2.1968 3.73886 0.878278
-1.05953 3.27428 0.540219
-1.32456 3.37702 0.693208
-1.1046 3.15598 0.656787
-1.45793 3.73828 0.70207
-1.41214 3.52924 0.673476
-1.33002 3.64091 0.478262
-1.48537 3.22964 0.907889
-1.49006 3.40668 0.822579
-1.6128 3.41563 0.937043
-1.93846 3.80735 0.880517
-1.71503 3.62232 0.970883
-1.67842 3.79566 0.810105
-1.18561 4.34814 -0.0512687
-1.27516 4.18412 -0.395611
-1.10593 3.90615 0.136608
-1.093 4.16236 0.0765728
-0.816718 4.52113 -0.268051
-0.910817 4.37963 -0.138607
-0.738493 4.35689 -0.168077
-0.748702 3.21763 0.479604
-0.935612 3.37172 0.396078
-0.689681 3.65561 0.0329354
-0.776217 3.50348 0.207089
-0.511294 3.40334 0.185671
-1.06256 3.56071 0.317729
-1.13258 3.7238 0.250929
-0.382181 4.0377 -0.381795
-0.44561 4.05669 -0.284021
-0.494983 3.70887 -0.255025
-0.633183 4.28896 -0.258088
-0.526502 4.16519 -0.283442
-0.536581 4.41927 -0.374218
-0.527128 3.63232 -0.121559
-0.497317 3.96766 -0.197153
-0.611523 3.7918 -0.104972
-0.905224 3.95592 -0.00952093
-0.721396 3.89135 -0.0643662
-0.745323 4.18412 -0.15884
-1.278 4.0949 -0.512142
-1.53561 4.11613 -0.682686
-0.731763 4.71589 -0.456681
-0.938147 4.40324 -0.516823
-1.59002 4.08256 -0.959747
-1.26753 4.01281 -0.572742
-1.26165 3.97817 -0.588461
-0.378371 3.99752 -0.445521
-0.3356 4.20257 -0.472231
-0.348614 4.4869 -0.778842
-0.308876 4.37725 -0.629194
-0.288337 4.33299 -0.756501
-0.419974 4.41365 -0.485638
-0.502823 4.60878 -0.486642
-1.40129 3.85243 -0.762202
-1.24527 3.88321 -0.610318
-1.13857 3.80801 -0.596062
-1.25757 3.93851 -0.601818
-1.25391 3.91087 -0.607653
-1.58974 4.02829 -1.00768
-0.463206 4.17779 -0.797073
-0.74262 4.13011 -0.630165
-0.445546 4.38478 -0.909632
-0.621365 4.62432 -0.689578
-0.500251 4.59304 -0.84976
-0.816615 4.23631 -0.638067
-1.70018 4.22066 -0.806723
-1.76225 4.17631 -0.590185
-1.60773 4.35684 -1.20698
-1.68953 4.28558 -1.0937
-2.09841 4.26306 -0.748122
-1.91079 4.29948 -0.979197
-1.94427 4.22993 -1.01622
-1.46776 3.85241 -0.834163
-1.57645 3.92188 -0.980047
-1.67274 4.10154 -1.51579
-1.59053 4.03651 -1.30654
-1.60541 3.93954 -1.30432
-1.59128 4.06976 -1.27783
-1.61579 4.21668 -1.39564
-1.72306 3.49288 -0.653652
-1.77477 3.74274 -1.07999
-1.62943 3.51689 -0.679211
-1.94018 4.08135 -1.16049
-1.93459 3.87508 -1.16592
-2.02464 3.88518 -0.941153
-1.64706 3.83476 -1.26695
-1.80646 3.89295 -1.33806
-1.76712 3.88161 -1.56543
-1.75066 4.21217 -1.38184
-1.87596 4.2586 -1.67747
-1.84824 4.13788 -1.29523
-1.86945 4.13559 -0.277335
-2.13761 3.99688 -0.571569
-2.02877 4.10897 -0.389695
-2.06447 3.96509 0.00997067
-2.2528 3.88038 0.28991
-1.82984 3.08387 -0.477638
-1.86768 3.43868 -0.546627
-2.36131 3.16439 -0.147139
-2.12021 3.2427 -0.337608
-2.30952 2.88345 -0.195881
-1.99233 3.6014 -0.602143
-2.11445 3.7603 -0.667065
-2.46649 3.13303 0.767277
-2.40772 2.87586 0.819809
-2.46673 3.70261 0.497187
-2.49308 3.41099 0.631495
-2.46651 2.87473 0.335199
-2.5592 3.12815 0.457605
-2.46641 3.14603 0.200211
-2.235 3.6747 -0.260892
-2.36625 3.42946 0.0145107
-2.39364 3.66691 0.142691
-0.329832 3.45693 -0.111521
-0.375327 3.51206 -0.198109
-0.2498 3.33593 0.152695
-0.294024 3.40272 0.00201164
0.330575 3.28 0.182381
0.0446835 3.29752 0.137967
0.342861 3.27958 0.341164
-0.501422 3.07337 0.713059
-0.389596 3.19264 0.643819
0.155643 3.11262 0.823914
-0.0796008 3.17588 0.775632
0.0455079 3.0119 0.937796
-0.27048 3.27958 0.490957
-0.217173 3.29026 0.332909
0.941347 2.66805 0.670426
0.766548 2.79123 0.731105
0.8586 2.60717 0.84056
0.560954 3.12312 0.489681
0.685587 3.00536 0.609407
0.705366 3.0138 0.440329
0.483892 2.82158 0.921136
0.620947 2.89658 0.794139
0.390665 3.03487 0.820028
0.0905999 3.2752 0.427157
0.255012 3.20896 0.631649
0.333245 3.24662 0.482621
-1.09365 3.00354 0.74238
-0.833755 2.99647 0.723341
-1.48113 3.04369 0.952216
-1.35453 3.03375 0.841666
-0.656355 2.67255 0.960948
-1.04703 2.82983 0.815502
-0.915706 2.6698 0.950838
-2.13583 2.71127 1.12211
-1.97596 2.84205 1.2792
-1.56149 2.50334 0.918082
-1.735 2.74154 1.13546
-1.63947 2.32574 1.11534
-1.76104 2.97367 1.28348
-1.64643 3.03467 1.19956
-0.470721 1.7644 1.38977
-0.75963 1.83106 1.39984
-0.650964 1.64539 1.25979
-0.755467 2.36345 1.04474
-0.718946 2.20009 1.28623
-0.510935 2.32106 1.37102
-1.11054 1.91733 1.06004
-0.900249 2.02099 1.09103
-1.19884 2.24533 1.06058
-1.46925 2.83134 0.962813
-1.35583 2.61429 0.953973
-1.16339 2.64341 0.960218
-2.24486 2.6379 0.698692
-2.27024 2.61653 0.930798
-2.35688 2.58306 0.20955
-2.36642 2.57603 0.424354
-2.24582 1.9651 0.787903
-2.40175 2.22976 0.598748
-2.27418 1.94967 0.485275
-1.78272 2.72324 -0.561824
-2.00933 2.65199 -0.449383
-2.15073 1.96548 -0.356154
-2.1311 2.30627 -0.438095
-1.98235 1.99715 -0.504996
-2.21264 2.60584 -0.311501
-2.22748 2.5801 -0.0721084
-1.91584 0.802772 0.189418
-1.88903 1.06843 0.00453004
-1.91378 0.834767 -0.195059
-2.17756 1.54166 0.298206
-1.86597 1.40383 0.156471
-1.80279 1.42209 0.437871
-1.77433 1.4707 -0.252681
-1.87101 1.40865 -0.0926147
-2.0716 1.62106 -0.251452
-2.41009 2.2301 0.0226446
-2.24657 1.927 -0.119726
-2.33959 1.88846 0.165902
-1.57751 3.51702 -0.675849
-1.5298 3.09602 -0.599218
-1.58355 3.80726 -0.94127
-1.57502 3.72398 -0.871511
-1.32728 2.72755 -0.669906
[...]
POINT_DATA 642
SCALARS Mean_Curvature double 1
LOOKUP_TABLE default
-0.870244
-0.222573
6.10185
2.13577
4.09925
-1.27594
0.0369425
-0.519655
4.34961
0.981896
-0.959173
1.28176
2.58806
3.95087
-1.18798
-0.556169
5.45568
9.5798
1.70396
5.15997
4.71231
2.22479
0.757883
1.67883
4.26493
2.85908
2.4034
2.0228
-0.28564
1.77819
3.37523
-0.380835
6.06164
0.73536
2.32123
1.4194
0.257051
0.589988
1.16791
-0.0777192
-2.58034
1.11262
-1.02144
3.65256
1.42952
2.05304
3.35595
2.18017
-0.629933
4.28859
4.63338
-1.70153
3.73556
-0.812983
-0.447646
-1.02147
5.68184
0.562612
2.9179
-0.448126
13.9737
6.69607
-0.886928
2.2437
-0.475169
1.10221
4.65412
-0.249423
13.2342
4.9552
6.56821
5.51237
0.607317
1.17698
-1.38029
1.03242
2.43436
-0.205143
-1.37571
3.69039
3.62352
1.55428
0.51068
1.42351
-1.10551
3.73414
-2.68065
6.61818
0.664923
0.793228
-1.04339
1.29952
1.25029
2.18357
0.785251
-1.97777
2.30573
-3.41889
-0.0790188
-0.741075
-0.375994
-0.244179
3.32921
-0.677378
3.37403
-0.816088
-0.0462717
-0.48244
0.0979755
0.389818
-0.990913
0.889353
4.25439
1.7651
2.78287
1.19663
0.900209
-0.274808
3.89326
0.248881
-0.0506374
-0.621294
0.0483782
3.93043
5.408
-1.81291
0.0357463
2.3241
1.58397
1.24424
6.49888
2.46616
0.445146
1.37744
1.78739
0.55469
3.24732
1.44941
-1.78166
0.494442
0.460446
0.828328
4.82821
1.28729
-1.35817
-0.946015
2.91192
3.529
1.74583
-2.18681
3.60346
-2.01873
1.18736
-1.41118
-1.49589
2.57355
0.733143
0.108924
-0.203068
0.55395
3.22916
0.441252
-1.04855
-2.94339
1.31987
2.06909
-0.21065
3.54001
1.02474
2.57888
6.02269
1.63874
4.7118
1.68302
0.645767
4.98997
2.05997
3.82263
3.50814
1.43258
-0.954451
-0.72186
-1.09216
2.53229
-1.74413
-1.60048
-1.15154
-1.13262
-1.83228
2.10425
2.43275
1.67596
5.33473
0.598525
-1.31914
4.26232
4.73027
3.73747
5.46516
-1.18856
-0.881122
-0.388876
-0.80181
-0.780182
-0.910337
-1.09701
5.06176
4.5641
0.542186
-1.47483
-1.63746
-0.490161
-0.325293
4.46127
-0.255484
-1.01501
-0.186226
-1.56206
0.28313
-0.045483
7.33229
3.10205
4.60982
0.222897
0.160779
-1.91548
3.52744
7.58228
3.28971
5.14649
1.53509
5.73949
-0.525396
0.0605584
0.0918835
0.183846
0.123053
0.92368
2.41323
-1.01092
7.30496
4.5225
6.63338
1.65366
1.79709
-2.07367
10.2351
4.22979
6.62774
7.74962
1.11671
-0.604436
-0.66152
1.183
3.70142
6.88718
1.67404
5.22272
-0.0248771
2.56858
-0.191922
1.82308
4.54264
-0.649539
10.6086
1.26646
9.81237
1.68117
8.02032
1.73806
2.85116
2.2004
2.913
2.60869
2.11538
-1.36254
-0.567903
2.33869
0.454026
1.8426
-1.199
3.87752
1.43308
2.02006
3.95464
1.17003
1.09215
2.82916
0.774154
2.62328
0.382729
2.19236
-0.724669
-0.639434
-1.17652
-0.858448
2.65607
-1.3099
3.38088
-1.03888
1.77219
2.53672
1.76062
4.06724
1.8314
-1.02096
2.28596
0.182362
3.2825
2.90235
3.67348
1.24296
0.906806
2.89035
2.9
0.695751
1.51312
3.05967
-0.651811
-1.19522
-0.662082
-2.67067
-3.46211
-3.558
1.85379
2.76443
5.32485
-4.59109
0.60249
2.42184
5.10678
1.81452
0.601486
5.17821
-1.66575
-3.79671
2.97213
4.01302
-0.714192
-2.39892
-0.865804
-2.74159
-0.663815
0.733448
-3.5024
4.08835
-0.16248
0.237789
3.85974
3.15845
-0.0625398
1.27336
0.181288
2.22942
2.84932
1.84503
3.01651
-2.49141
6.06764
2.90487
6.81775
2.94886
-2.16012
-1.60443
-1.20742
0.431171
3.26238
2.94498
1.06134
1.97729
-0.00238123
-0.668067
1.40698
-0.396209
-0.179154
-0.383747
-0.460723
-0.51738
-0.328513
-0.555777
-0.381713
-0.418393
-0.918982
0.322854
1.39924
2.68909
1.10665
-0.38292
-0.970288
0.507436
-0.360261
-0.669038
-0.459766
-0.17106
-0.3067
-0.0560157
-0.521875
0.0642864
14.4947
-1.03902
-0.0162503
-0.249905
0.0813933
0.231142
-0.713256
-0.0123821
0.151547
-0.629116
2.93
6.10706
0.751872
0.2848
2.63459
-0.726397
5.35584
1.03865
1.20732
1.11244
0.45575
-0.386871
0.332625
0.284475
2.38673
0.91651
2.04097
1.78688
4.0659
2.18053
4.7626
-1.0523
1.72124
1.61426
1.89858
1.64061
1.6995
-0.245133
2.71452
1.47255
0.0137806
0.752499
1.9734
0.338833
-0.657649
1.76262
3.17079
-0.390253
2.04368
2.56878
1.27923
0.573687
-0.286699
-0.816804
0.0391279
0.560827
2.38848
0.0739691
0.263722
0.120463
0.115724
-1.16066
-0.788442
1.64809
6.50241
1.03828
-1.78593
1.61843
3.11915
2.80934
-0.462687
-0.00277703
-0.561295
0.0784789
5.76758
-0.929395
3.74296
1.70902
1.34067
0.013973
1.82624
1.74226
-1.29349
0.324068
3.31489
1.48559
4.99249
1.83677
2.13202
1.43323
5.82581
0.807029
-0.157789
0.127508
1.38146
2.19042
2.29581
0.70916
2.59021
-0.668129
-0.541881
-0.975904
5.17713
0.968313
6.21494
1.24273
1.98051
1.66356
2.91483
1.15515
4.72595
-0.856598
-1.64444
0.424575
3.31958
-0.28496
0.0732925
0.350297
1.67904
0.714318
2.85305
0.499649
1.17525
0.0492908
1.23629
0.722361
0.675936
1.05612
3.52922
1.58494
3.46075
0.44909
1.39637
1.81078
5.63469
1.60556
3.65767
0.294311
3.76597
0.0487765
2.45081
1.60395
4.40008
-0.115948
1.39166
1.64657
4.32395
-1.191
1.62818
-0.814913
-0.902833
2.01348
-2.49036
1.67665
3.90878
3.77661
-0.859449
-0.281943
3.74385
0.204305
0.613408
1.20665
2.0525
-0.784412
1.83677
-3.43607
0.223111
-0.0532496
-2.05053
0.41281
1.54411
2.5707
1.21718
1.75481
7.30355
3.0903
-1.26975
-1.95608
-0.425495
-2.10109
-1.28403
2.36952
-1.45551
3.06701
0.197302
4.22339
-0.137014
-0.379176
1.57841
-1.94215
5.495
-1.25352
-1.87451
0.693946
-1.64339
2.07836
1.22061
0.170562
-1.69792
-1.47117
-1.83431
1.56603
4.53934
-1.99473
2.16944
-1.24352
0.78621
-1.39153
0.297685
0.544171
1.07393
-0.0590098
-1.46067
0.820183
1.33672
0.509485
5.25031
1.79509
0.0360645
-0.0882175
-0.385316
-0.370189
-0.198934
0.322044
1.10887
-0.334135
2.96371
1.53368
2.51035
0.400393
0.230352
1.10131
2.97493
0.836758
1.2473
1.58739
-0.930087
1.06756
2.39165
-0.870014
7.08015
0.799424
1.6281
-0.198218
SCALARS Redistribution_Potential double 1
LOOKUP_TABLE default
-8.16156e-07
2.18542
-8.02873
2.72795
-9.73286
-6.74102
8.00824
4.35022
13.913
7.60101
1.63133
-15.1933
-11.1038
-14.8709
-7.90787
1.04732
-1.83828
-0.64045
6.25074
8.18183
3.96395
-9.03643
3.30779
10.57
-13.9912
-7.59493
-5.4533
-12.6012
6.30447
3.6115
10.6935
8.51144
4.99273
-1.35282
-4.37581
-11.4507
-3.1865
0.0978937
5.9108
11.806
8.87352
11.6985
-6.12949
-10.6805
-5.02296
-15.5909
-13.9897
-13.8327
-8.65774
-12.4584
-11.9395
-2.51107
-1.44841
-1.81396
-3.05615
-1.43806
-1.30024
1.85675
-0.534161
5.04103
-0.828181
-1.13453
6.15816
0.145104
0.816845
7.27409
2.55477
6.27814
8.65845
4.13541
7.85016
6.42361
-4.73886
-3.9814
-3.19468
-10.2829
-13.2205
7.00978
7.08725
-0.171851
4.27365
10.0613
8.04115
6.09567
-12.2046
-7.45326
-15.5081
-15.0688
-8.53038
-11.5614
-11.8048
-11.5726
-14.5334
-3.52852
-7.45578
-10.0484
-9.28622
-6.89241
4.29031
2.40975
4.214
4.68532
6.38565
5.65182
9.09063
1.28956
3.34393
4.70949
1.87509
13.1544
9.49566
13.9228
3.61733
0.84905
-0.460517
3.59753
2.46275
6.25818
-7.94328
-3.43165
-6.14324
-4.43346
0.104148
-11.0463
-8.98153
-6.25302
-8.48229
-10.6018
1.76725
4.29711
-4.57161
-1.3788
7.15054
2.89399
4.45185
7.55655
5.89971
10.1474
9.42058
11.4362
11.0609
12.9444
6.83449
13.0183
10.0786
8.10213
9.87754
-4.42029
1.22969
-2.63988
-12.2468
-12.8943
-14.2023
2.17268
-2.78125
-1.30237
12.3591
10.8586
7.3477
12.2119
13.5697
11.7912
-2.5021
-6.29326
-2.7067
-11.0496
-8.98783
-9.28647
-6.65758
-8.63227
-9.89817
-15.5186
-15.1034
-14.7077
-14.5916
-14.9608
-15.3746
-12.5768
-14.1462
-12.9114
-7.88288
-10.9378
-9.28644
-10.8457
-10.9417
-8.7988
-13.425
-12.6339
-13.6397
-12.55
-13.338
-11.8546
-2.55929
-0.101289
-4.6579
-3.58282
-1.74034
-2.13981
-2.0316
-4.35984
-5.57387
-1.22885
-2.76994
0.331523
-5.95515
-5.80977
-0.248628
-0.628804
2.09445
-1.81497
-1.33175
-1.75773
1.45662
-0.390666
-0.34415
-2.96655
-1.63652
-2.03836
1.2617
3.0497
-1.51801
-0.72593
5.955
2.1482
2.44857
0.189593
-1.05702
-0.758127
-1.14615
-0.818364
-1.50468
-1.50876
4.67018
3.10582
3.27216
2.76132
2.95236
6.39192
-0.453883
0.334675
-0.850632
-1.14151
-1.12591
-0.0432218
4.44358
1.99701
7.61739
6.88566
3.48354
6.1699
6.08321
5.25833
6.27209
8.66674
8.06556
7.96215
7.93504
8.43486
2.61335
5.91921
3.33752
6.7405
6.39322
4.41328
7.51923
7.70697
8.4749
8.26769
8.73304
7.80941
-1.37483
0.876499
-0.404954
-5.45919
-8.73202
-0.667938
0.797766
-6.60549
-3.3058
-6.68592
0.925257
1.32201
-13.7029
-14.2914
-10.9486
-12.4194
-11.3301
-11.8211
-9.80021
-3.65392
-7.27232
-8.09737
4.52025
4.3839
4.02574
4.32731
9.70521
7.35127
8.95481
-3.0508
-0.743783
3.89451
2.09573
1.83814
1.73372
3.24797
8.78491
8.11628
7.02163
9.56149
9.20388
10.5401
5.0298
7.21533
5.77124
6.12446
6.332
8.02019
-10.0246
-7.23704
-13.8445
-12.6942
-7.38735
-10.434
-9.92195
-15.6157
-15.8477
-14.4476
-15.4318
-14.7702
-15.6847
-15.3066
-9.42173
-10.6364
-10.8055
-9.86374
-9.8399
-7.99073
-12.9241
-11.7629
-13.0425
-13.88
-13.5437
-12.2104
-14.0347
-14.9544
-10.6269
-12.2962
-13.6352
-13.036
-12.3202
-1.26515
-3.72104
-6.5768
-5.45158
-4.77801
-6.07275
-8.22274
-8.9956
-8.39201
-7.63161
-10.9543
-9.75685
-11.524
-6.1988
-7.93174
-7.3593
-9.67689
-8.48944
-10.4477
3.57561
2.18553
5.80735
5.27443
2.8137
3.78422
4.08685
4.38094
5.00462
4.38907
4.43869
4.47416
5.83115
5.88775
7.34578
7.7881
8.69652
5.10188
6.66809
5.03206
8.47856
7.53378
6.0184
4.59433
4.47213
4.39683
1.92633
3.53503
-0.519748
0.62276
5.22721
2.08773
5.43965
2.93159
2.18945
6.0104
3.35904
7.45131
-0.266897
-0.720918
13.9692
13.6626
14.1515
8.96864
12.1152
11.3709
13.1321
12.815
10.1079
1.42419
5.8813
5.60806
3.03406
1.54125
1.29049
3.0867
2.30685
4.21488
-2.38465
-0.213694
-1.93367
5.6337
5.18508
7.01195
0.745133
2.98114
1.51255
5.49311
4.59196
3.93963
-9.0647
-7.12767
-8.41763
-4.0279
-5.70101
-6.20526
-3.69031
-4.80244
-2.10819
1.63432
-0.154797
-1.2174
-0.363339
1.25862
-4.57193
-2.61165
-1.45135
-2.25859
-3.94201
-10.7476
-9.85298
-10.3022
-10.2927
-11.1937
-8.73641
-7.44651
-7.41256
-8.4551
-9.07294
-6.15361
-7.44123
-4.86547
-11.2746
-9.70681
-10.4059
-7.14663
-9.00912
-6.80773
2.21469
3.48985
-0.558986
0.866049
5.12263
3.17014
3.98217
-6.36805
-5.3246
-0.630753
-2.9932
-2.27707
-3.88818
-2.36577
7.76019
5.39067
6.57932
4.50227
5.03507
6.29694
2.41915
3.29929
1.84177
0.302597
1.1553
2.37153
5.2499
4.45364
6.79733
6.01456
7.31711
6.80074
8.41153
9.09129
8.93029
10.6374
9.96846
11.1132
8.4096
7.4433
13.2032
12.4252
13.6453
9.89811
11.3823
10.1533
12.5605
12.0875
11.6106
8.265
10.2996
9.15521
4.78686
7.31497
6.38204
5.15745
5.94466
13.5516
12.5638
10.8003
11.8098
12.3165
10.9668
9.23413
8.04001
8.83615
6.45316
7.32523
10.9592
8.91592
10.0307
8.01673
9.18529
7.13171
-7.4021
-3.01976
-5.20819
-6.68419
-5.87091
4.75745
2.37191
3.72096
2.61433
-0.287838
-3.44185
-5.04283
-4.21698
-1.13211
0.602151
-2.07815
-0.720622
-3.6453
-10.5289
-11.853
-11.6609
-11.637
-12.4948
-11.6841
-13.4884
-12.7078
-12.0782
-12.1821
-15.2235
-13.5456
-14.5292
-14.7417
-14.3072
-12.5924
-13.5125
-12.9363
5.54343
1.06271
3.41182
4.17327
3.04034
-6.14193
-4.21677
-4.95895
-3.62405
-1.53863
-0.523016
1.17216
0.272098
-2.44408
-3.46432
-0.558105
-2.05103
0.442449
13.5731
12.3756
13.0712
12.8606
11.162
9.78781
9.20353
9.98868
10.8807
11.5917
3.88233
7.83421
5.08448
4.62373
6.69031
11.5863
9.95763
10.5125
10.3113
12.2437
11.4178
11.1859
11.5652
14.0075
13.2248
13.9525
13.5877
12.9171
5.86722
11.4664
9.98279
8.62418
11.374
12.9231
12.9542
12.4842
SCALARS CoVolArea double 1
LOOKUP_TABLE default
0.0593312
0.0107924
0.0658013
0.0618426
0.0445577
0.0436977
0.0311142
0.00927753
0.032949
0.0437435
0.0509925
0.0485042
0.0667102
0.0485795
0.0452551
0.0465036
0.0401987
0.0248312
0.0288693
0.0248516
0.0693701
0.0866138
0.047552
0.038893
0.0901444
0.071867
0.0727107
0.109242
0.0514615
0.100944
0.0521996
0.0409373
0.0673604
0.0633763
0.0910019
0.0621129
0.123116
0.0584919
0.0694954
0.056408
0.0504893
0.0412904
0.0837256
0.0583677
0.0789144
0.0619152
0.0719715
0.0749105
0.0525362
0.0417588
0.0458576
0.0454401
0.0675749
0.0705215
0.0598475
0.0267914
0.0346608
0.024472
0.0570726
0.0378346
0.0285278
0.0394103
0.0200145
0.0427204
0.0456567
0.0314345
0.063942
0.0135467
0.0311191
0.0686933
0.0526655
0.0369283
0.091391
0.0926392
0.0874526
0.0870519
0.0761284
0.0422135
0.0393728
0.057708
0.0561102
0.0407957
0.0459114
0.0427866
0.0466031
0.0653161
0.0791036
0.0542829
0.0718477
0.0792653
0.0793181
0.0932226
0.0863656
0.0782719
0.0864565
0.0960235
0.0953937
0.070342
0.030363
0.0754822
0.0180221
0.0133172
0.0731333
0.0613906
0.0636056
0.0168206
0.0397708
0.0236046
0.0265982
0.0523028
0.0414457
0.041125
0.0921899
0.0813924
0.0946002
0.0573576
0.0758929
0.0470394
0.0806019
0.0984191
0.0816883
0.120838
0.0911101
0.0597436
0.0936217
0.0956543
0.105185
0.0965327
0.0946612
0.0790937
0.0669457
0.0805249
0.0742219
0.0698423
0.0563447
0.0710136
0.0745787
0.0538783
0.0663861
0.05611
0.0660136
0.0605381
0.0611807
0.0418015
0.04607
0.0433158
0.0560921
0.0546574
0.0626184
0.0596567
0.0693779
0.0731521
0.0959255
0.078996
0.0668291
0.0904785
0.0696238
0.0557809
0.0661606
0.0414083
0.0534033
0.0503207
0.079462
0.0766764
0.0843874
0.0651863
0.0644297
0.0726272
0.0614618
0.0667767
0.0585147
0.0580178
0.065326
0.0587313
0.0603347
0.0715982
0.0514154
0.074862
0.0734668
0.0673027
0.0480165
0.045371
0.0465297
0.0459415
0.0431398
0.0466906
0.04155
0.0362187
0.0433187
0.0651041
0.055816
0.0528223
0.0809656
0.0697998
0.0538975
0.0636849
0.0530969
0.0504278
0.0319659
0.060684
0.0606791
0.0459926
0.0645435
0.0586758
0.0623086
0.0543572
0.024566
0.0256029
0.0172263
0.0295776
0.0251648
0.0287013
0.0375235
0.0274874
0.0370039
0.0553628
0.0468915
0.0390855
0.0522283
0.0510403
0.065609
0.0625856
0.0240628
0.0343038
0.0300096
0.0190645
0.0270296
0.0276927
0.0351376
0.0232337
0.0353541
0.0437494
0.0139897
0.0337621
0.035191
0.0214053
0.0224015
0.024087
0.0426833
0.041637
0.0514081
0.0632105
0.0562226
0.0529711
0.0535465
0.0611104
0.0401805
0.0404642
0.0684634
0.0529743
0.042595
0.00618089
0.00741071
0.0411673
0.0198169
0.0212641
0.0187258
0.0337453
0.0640238
0.056748
0.0390639
0.0472019
0.0479839
0.0617438
0.0280583
0.0389887
0.0567129
0.0386162
0.0667092
0.0386657
0.0762256
0.0932448
0.0763624
0.0757665
0.0753926
0.0874361
0.0825044
0.0922942
0.086914
0.0830036
0.0729629
0.0815519
0.0699259
0.0614759
0.0869861
0.0830971
0.0779341
0.0791635
0.0842136
0.103292
0.0937345
0.0983164
0.0261302
0.0149708
0.0505309
0.0385035
0.0490342
0.0405793
0.0403547
0.0677872
0.0698096
0.049538
0.0582708
0.0443053
0.0659476
0.0541393
0.0502897
0.0422884
0.0501663
0.0349325
0.0393385
0.0325323
0.0483856
0.0445878
0.052487
0.0488203
0.0506203
0.039967
0.0535517
0.0622036
0.0493839
0.0415267
0.0677671
0.0495305
0.0682725
0.0660245
0.0674938
0.0854551
0.065384
0.0874645
0.0503031
0.0465652
0.0575043
0.0796161
0.0658732
0.0738528
0.0855962
0.0629474
0.0814968
0.0825739
0.0902516
0.0547556
0.0731638
0.0636029
0.0837256
0.0639244
0.0904288
0.0887458
0.107914
0.0987739
0.106794
0.0826242
0.0852795
0.0792811
0.0763458
0.0724438
0.0787865
0.0905514
0.0873998
0.0854809
0.0778394
0.111733
0.0928504
0.102866
0.0709853
0.0764831
0.0834476
0.10339
0.0970882
0.107432
0.0489196
0.0601111
0.0182982
0.0354803
0.0858949
0.0591365
0.0660585
0.0131986
0.0117269
0.0262712
0.0144755
0.0288076
0.0137135
0.0105601
0.0504875
0.0644333
0.0503092
0.0819
0.0736422
0.0884597
0.0632127
0.0711439
0.0565385
0.0182075
0.0317161
0.041421
0.0363878
0.0289472
0.0300977
0.0256107
0.0342204
0.0247342
0.0208089
0.015493
0.0204774
0.0315101
0.0305463
0.0415401
0.0308331
0.0265759
0.0454256
0.0465876
0.0432387
0.034234
0.051062
0.0487048
0.0510417
0.0494702
0.0439913
0.0207734
0.021229
0.0191112
0.0803219
0.0941551
0.0784394
0.0778775
0.0866048
0.0838211
0.0969716
0.0869339
0.0846843
0.0558358
0.0555075
0.0492322
0.068262
0.057548
0.0648064
0.0447998
0.0568946
0.0735149
0.0638013
0.0750054
0.0625673
0.0848261
0.0803666
0.0900475
0.0697206
0.0866966
0.0860056
0.0993047
0.106743
0.101791
0.0953235
0.0776658
0.10926
0.109167
0.106305
0.106967
0.12784
0.0652888
0.0667801
0.0812572
0.0818561
0.0660068
0.0817308
0.0842052
0.0804116
0.104455
0.0841913
0.122321
0.1031
0.102973
0.0705417
0.0993777
0.0816567
0.112047
0.103987
0.130818
0.0862789
0.0827502
0.109034
0.0942516
0.0764977
0.087079
0.0911893
0.0654221
0.0784045
0.0611582
0.065985
0.0591799
0.0846422
0.10704
0.0544832
0.0667669
0.0533621
0.0788871
0.0729971
0.0711744
0.0527223
0.0530718
0.0606924
0.103521
0.0839804
0.088182
0.0752754
0.0759073
0.0666332
0.0726052
0.0649385
0.0709727
0.0657328
0.0449306
0.0541961
0.0547744
0.0507208
0.0495662
0.0676451
0.0664976
0.058605
0.0625122
0.0596781
0.0594674
0.0478636
0.0412624
0.0532719
0.0470285
0.0591003
0.0787797
0.0777699
0.0817816
0.0839088
0.052322
0.0734323
0.0857575
0.0733747
0.0424875
0.049279
0.0364939
0.041168
0.0407698
0.047552
0.0480699
0.0446838
0.0496023
0.0474701
0.0394852
0.0530742
0.0480007
0.0417587
0.0541452
0.0491255
0.0537928
0.061806
0.0550164
0.0557585
0.0571701
0.0596177
0.0523874
0.0572347
0.0482287
0.0560839
0.0663785
0.0692108
0.0651041
0.0666814
0.0552048
0.0542924
0.0644847
0.0666554
0.0593575
0.085989
0.0617839
0.0796599
0.0880121
0.0787313
0.0733417
0.0797894
0.0766329
0.0662142
0.0708867
0.0719473
0.105185
0.0936633
0.086293
0.0846062
0.0765407
0.0892795
0.0880974
0.0635505
0.0703672
0.0600413
0.0743297
0.0941555
0.0635689
0.0698858
0.068276
0.0673596
0.0655428
0.0879089
0.108533
0.0935122
0.0846926
0.0745709
0.0797572
0.078239
0.0971612
0.0578292
0.0629259
0.0568666
0.0521348
0.0691803
0.0565106
0.0629826
0.0551796
0.0557279
0.0521898
0.0333141
0.0612997
0.0496701
0.0459911
0.0623173
0.0649534
0.0683004
0.0769714
0.0495496
0.0435361
0.047584
0.03841
0.0401793
0.0432611
0.0604519
0.0450652
0.047626
0.0454705
0.029478
0.0446153
0.049788
0.0473619
0.0597205
0.0459811
0.0543696
0.043432
SCALARS SignedDistance double 1
LOOKUP_TABLE default
1.16884
1.19365
-0.00675436
-0.751439
-0.00483742
0.827797
5.36933e-06
1.3059
0.00197919
-0.0834332
1.23969
-1.02585
0.000795616
-0.208685
0.196426
1.27539
-0.00426408
-0.813906
0.0431412
-0.744873
-0.000110513
-0.742521
-0.0060844
-0.18834
0.00305366
0.308876
0.000837409
0.0434463
1.17161
-0.127626
-0.0121424
1.14045
0.00215053
-0.10542
0.00155924
-1.01581
0.000720093
-1.00084
-0.00469612
0.0718005
0.147915
-0.204193
0.00529322
-0.138655
-0.00597959
-0.538801
0.0013332
-0.824457
0.99878
0.394012
-0.00369159
0.722255
0.0365887
0.87849
1.2065
0.0230706
0.0260522
1.21298
0.0636649
0.248554
-0.089613
-0.497028
0.495908
-0.0462125
0.294994
-1.02113
0.0112168
0.288323
0.0676319
-0.305296
0.0145493
-0.305674
-0.00172362
0.1176
0.000632639
0.224878
-0.00649452
0.028243
1.11642
0.103442
0.00284938
-0.252689
0.00842049
-0.126017
0.510474
0.326035
0.125279
0.587967
-0.00158072
0.0513609
0.892803
-1.00173
-0.00123083
-0.664654
0.00248214
0.771725
-0.00276197
-0.215437
1.3181
0.551545
1.34318
1.25101
0.0197376
1.1097
-0.00136083
0.574368
1.23128
1.33109
0.582834
-0.089312
0.817637
-0.228325
0.00686676
-0.756406
0.0104161
-0.139396
-0.00416702
0.128356
-0.012024
0.105477
-0.0132146
-0.119923
1.17759e-05
0.331244
0.0245627
-0.22756
-8.38139e-06
0.447129
0.00011878
-0.367441
-0.0076285
-0.0254794
-0.0102771
-0.124006
0.00157087
-0.0894041
-0.0128422
-0.476051
0.00496993
-0.188356
-0.00307992
-0.427685
0.00127495
-0.352835
-0.00400364
0.378733
0.00341399
0.0959105
0.00102838
-0.0552726
0.019795
-0.327818
0.00457176
0.469199
0.78659
0.191833
0.000481931
0.00444801
1.1821
-0.0913407
-0.00105487
-0.0918521
1.11919
-0.24292
-0.0138277
-0.584615
0.00106337
0.460262
0.0050321
0.316523
-0.00035217
-1.00038
0.00551156
-1.02169
-0.00130548
0.580279
0.000572865
0.594426
0.0199265
-1.00006
1.11721
-0.0968028
0.861876
0.298133
0.537914
0.803702
0.0198399
-0.0731536
0.0121068
-0.791731
0.000469041
-0.978361
-0.0264428
0.504796
0.903431
0.0235521
0.0176167
-0.0748479
0.00088148
1.13488
1.18585
1.29492
1.31635
1.1782
1.22486
1.14683
-0.0254663
-0.469097
1.20129
0.764439
0.0485082
0.011301
1.28947
-0.0786749
1.12517
0.148201
0.160942
0.677425
1.17284
1.09034
-0.0320469
-1.00106
0.0338851
1.21742
1.22974
0.0956501
0.0274116
-1
-0.014254
-0.975565
0.00896085
-0.260146
1.24292
1.25268
1.22661
1.24318
1.24952
0.0407431
-0.0391794
0.543465
0.0166834
-0.3947
0.105223
-0.0632402
-0.00957172
0.125251
-0.00417833
-0.21784
0.00114358
-0.873938
-1.04619
1.17716
0.32051
-1.00109
0.0205829
-0.0684715