# vtk DataFile Version 4.2
vtk output
ASCII
DATASET POLYDATA
POINTS 642 double
-1.51337 4.16666 -0.399631
-0.365384 3.86108 -0.35857
-1.74692 0.629275 0.00111584
0.900049 0.725149 0.0282223
-0.491383 1.56705 1.38936
-0.898383 3.20238 0.663424
-0.450739 1.7692 -1.13633
-1.21366 3.80689 -0.906402
0.798611 2.518 -0.572392
0.995371 2.42826 0.724405
-1.67984 3.1838 -0.678483
-2.34061 2.90495 1.06487
-2.25791 3.86091 0.586804
-1.63244 3.2566 1.15359
-1.30039 3.77914 0.431174
-0.466951 3.59487 0.107026
-0.622315 4.49307 -0.282122
-0.210332 4.35649 -0.910581
-1.53827 4.07961 -1.04359
-1.64145 3.92336 -1.32892
-2.13354 4.04752 -0.871895
-2.46804 2.87208 0.0532973
0.231482 2.92465 0.929164
0.584081 3.15774 0.349224
-1.40255 2.11775 1.16873
-0.551359 2.46548 1.16812
-1.93625 1.71579 -0.446784
-2.08026 1.62117 0.626775
-0.826862 3.08734 -0.827589
-1.19591 2.44944 -0.81993
0.172087 3.25247 -0.316866
-0.308512 3.28663 -0.627227
1.43849 1.56248 0.619052
0.450116 1.96811 1.28949
0.264134 0.89262 1.06131
-1.24684 0.888898 1.01392
-0.486087 0.740634 -0.00239136
-1.01219 1.0201 -0.73896
0.192011 1.05973 -0.877556
0.258429 2.06481 -0.941199
1.11141 1.5885 -0.30957
1.16259 2.3436 0.0481423
-1.83399 3.94435 0.0996926
-1.77118 3.94851 0.657211
-1.35566 4.05627 0.122551
-2.02632 3.14368 1.28674
-1.98597 3.63459 1.08513
-2.46144 3.40213 0.933099
-1.16503 3.49294 0.575197
-1.54996 3.60137 0.852916
-1.30455 3.23784 0.83395
-0.887855 4.18317 -0.0701765
-1.07139 4.40165 -0.337489
-0.599166 3.38773 0.437922
-0.822219 3.76378 0.176188
-0.461055 4.2702 -0.394074
-0.581994 4.08449 -0.146992
-0.434382 3.8124 -0.170784
-0.923141 4.35131 -0.646528
-1.5367 4.14039 -0.89
-0.274207 4.11915 -0.536573
-0.369866 4.64686 -0.651729
-1.42848 3.94216 -1.01657
-0.833466 4.14423 -0.733689
-0.733688 3.976 -0.760505
-1.79151 4.23421 -1.17758
-1.86582 4.25698 -0.615978
-1.48896 3.89393 -1.11038
-1.58812 4.19883 -1.47562
-1.94845 3.69415 -0.933555
-1.91825 4.00578 -1.37101
-1.65314 3.74778 -1.13187
-2.14904 3.86981 -0.098403
-2.10036 2.95357 -0.355935
-2.14694 3.47319 -0.296581
-2.46672 3.40781 0.334876
-2.46598 2.86314 0.611413
0.0780527 3.29796 0.285413
-0.0380044 3.39909 -0.0526275
-0.209374 3.06734 0.907661
0.00576357 3.28044 0.612068
0.850762 2.8839 0.547816
0.48374 3.09439 0.634594
0.658852 2.73225 0.911737
-1.24794 2.87112 0.917365
-0.769203 2.84941 0.896736
-1.88284 2.6054 1.03797
-1.61984 2.84186 1.16472
-0.472697 2.03053 1.38995
-1.00188 2.362 1.06554
-0.868439 1.74916 1.17
-2.37703 2.24494 0.344793
-2.19211 2.36703 0.841317
-1.96431 2.35227 -0.592032
-2.24689 2.2769 -0.226917
-1.78632 1.09513 0.313661
-2.14488 1.58216 0.0199344
-1.72616 1.13476 -0.159857
-1.35018 3.45373 -0.885177
-1.44199 2.90817 -0.740127
-1.12836 3.63675 -0.875115
-1.30875 3.65072 -0.933571
-0.816964 1.98543 -1.08624
-0.99611 2.91447 -0.834567
-0.516589 2.28933 -1.08001
-0.471095 3.87182 -0.667841
-0.708397 3.69042 -0.769325
-0.261711 3.57925 -0.345824
-0.385295 3.81433 -0.542699
0.278511 2.80657 -0.636825
-0.0915036 3.27109 -0.484749
0.621759 2.88823 -0.434517
1.29718 0.959092 0.332909
0.967882 1.10414 0.850571
0.67577 0.73988 0.529433
0.821748 2.20438 1.03802
0.926848 1.72176 0.917861
1.15392 1.90166 0.586579
-0.192791 1.20218 1.38898
0.38966 1.38093 1.22951
-0.0350471 1.74802 1.40689
-0.0629029 0.773753 0.601647
0.286637 0.740675 0.0108133
-0.806855 1.13703 1.23891
-0.474399 0.739308 1.20416
-1.19679 0.746306 0.0102817
-0.889431 0.740674 0.614509
-1.55224 0.734359 0.655404
-0.0983117 0.740678 -0.542998
0.564322 0.843952 -0.495186
-1.46718 0.806096 -0.473028
-0.89778 0.730885 -0.548561
-0.197072 1.41304 -1.08198
-0.531468 0.962996 -0.920834
-0.709963 1.39969 -1.00637
0.738173 1.28102 -0.610586
1.17317 1.08786 -0.275314
-0.0554339 1.89236 -1.14885
0.282906 1.58135 -0.921202
1.03566 1.96619 -0.456367
0.732952 1.80953 -0.732556
0.584777 2.25186 -0.817891
1.49726 1.49543 0.0287253
1.10225 2.41577 -0.273734
1.16266 1.90841 -0.0961011
1.22725 1.83749 0.273696
1.16 2.39225 0.412093
-0.0222488 2.24589 1.40307
0.383445 2.48679 1.16182
-0.139301 2.62154 1.07088
-1.66635 1.10028 0.842445
-1.25252 1.36021 0.982589
-1.75239 1.83621 0.991278
-1.04041 1.59019 -0.756113
-1.41648 1.3565 -0.462698
-1.6105 1.97999 -0.70253
0.0638555 2.60519 -0.799429
-0.22915 2.40458 -0.971827
-0.574574 3.18464 -0.771304
0.914651 2.82399 0.215795
0.863731 2.85232 -0.144796
0.500124 3.21944 -0.0143567
-1.65371 4.10202 -0.210304
-1.64864 3.94378 0.17168
-1.43854 4.16127 -0.152199
-2.03488 3.9495 0.659267
-1.81177 3.94321 0.421653
-2.10474 3.9464 0.395753
-1.3216 3.90326 0.290189
-1.59832 3.9468 0.444513
-1.48754 3.90494 0.607989
-2.24192 3.01259 1.25233
-2.2667 3.29518 1.19871
-2.47045 3.13477 1.04578
-1.77814 3.41415 1.10749
-2.05558 3.39744 1.22977
-1.79346 3.2038 1.22623
-2.38057 3.65723 0.768996
-2.24765 3.55812 1.06775
-2.22623 3.80114 0.923826
-1.00665 3.31823 0.615716
-1.30835 3.39445 0.730095
-1.06199 3.19855 0.714624
-1.47421 3.72589 0.693983
-1.39043 3.54141 0.702242
-1.29225 3.67084 0.525354
-1.47595 3.23268 0.931721
-1.4733 3.41118 0.842983
-1.60704 3.41605 0.952061
-1.93205 3.83687 0.903897
-1.7211 3.62023 0.974987
-1.64031 3.85119 0.884767
-1.21748 4.36776 -0.0782644
-1.28612 4.24796 -0.401014
-1.09672 3.93748 0.172693
-1.10355 4.1639 0.0759477
-0.841198 4.50777 -0.269462
-0.913722 4.38264 -0.128977
-0.747565 4.36236 -0.15992
-0.754549 3.29256 0.563859
-0.886373 3.43475 0.47978
-0.649134 3.73038 0.105817
-0.73933 3.57492 0.293683
-0.489911 3.49937 0.252926
-1.01132 3.61357 0.389777
-1.0989 3.76669 0.31293
-0.371034 4.03919 -0.390367
-0.419843 4.07163 -0.260486
-0.384361 3.83966 -0.289513
-0.629525 4.30942 -0.259086
-0.520868 4.17659 -0.277138
-0.540609 4.41268 -0.373345
-0.439112 3.70357 -0.0498993
-0.488291 3.97587 -0.182505
-0.563283 3.83987 -0.0471194
-0.88977 3.98121 0.0394561
-0.698029 3.91826 -0.0133669
-0.744501 4.18372 -0.136682
-1.26227 4.20669 -0.604454
-1.52065 4.17862 -0.709379
-0.763613 4.71029 -0.462567
-0.994883 4.45539 -0.581703
-1.55119 4.11639 -0.996243
-1.25645 4.11238 -0.735217
-1.24602 4.06123 -0.784171
-0.343912 4.01216 -0.456244
-0.327665 4.19306 -0.47477
-0.261201 4.54984 -0.818429
-0.304319 4.37305 -0.623578
-0.157849 4.34493 -0.762601
-0.417678 4.40874 -0.485173
-0.482213 4.62492 -0.463558
-1.30271 3.86328 -0.942617
-1.16329 3.90635 -0.848047
-1.05022 3.82961 -0.839817
-1.24951 4.00023 -0.832907
-1.20574 3.9525 -0.841371
-1.53417 4.04789 -1.0774
-0.484806 4.15589 -0.804423
-0.781469 4.09516 -0.747312
-0.477964 4.35073 -0.885779
-0.644963 4.6699 -0.711177
-0.531511 4.50583 -0.819123
-0.878889 4.22214 -0.704475
-1.6914 4.22215 -0.811166
-1.75434 4.19881 -0.580856
-1.60255 4.35234 -1.21229
-1.68214 4.28839 -1.09522
-2.09655 4.25076 -0.732052
-1.89711 4.25626 -0.986433
-1.93972 4.20379 -1.03208
-1.37341 3.84597 -0.999598
-1.47333 3.92052 -1.08417
-1.67619 4.11942 -1.45443
-1.58473 4.02245 -1.29681
-1.59089 3.94126 -1.29503
-1.58053 4.05453 -1.2663
-1.61756 4.20245 -1.38508
-1.74826 3.40563 -0.740593
-1.78256 3.73352 -1.10119
-1.62845 3.41812 -0.817979
-1.94328 4.08759 -1.1546
-1.93443 3.86847 -1.16731
-2.02766 3.89557 -0.947349
-1.64462 3.83288 -1.26364
-1.80392 3.91163 -1.33203
-1.75896 3.97319 -1.40869
-1.73269 4.19169 -1.36829
-1.76373 4.15163 -1.46655
-1.8396 4.14204 -1.30154
-1.86661 4.15058 -0.293109
-2.12995 4.00889 -0.570207
-2.02614 4.1142 -0.395638
-2.04479 3.94426 0.0114285
-2.25504 3.87628 0.27934
-1.86562 3.07176 -0.52053
-1.90264 3.34797 -0.557182
-2.37505 3.17973 -0.143238
-2.12305 3.23246 -0.335305
-2.34953 2.89649 -0.210079
-2.00726 3.5903 -0.611459
-2.11318 3.77893 -0.667665
-2.4664 3.1304 0.762053
-2.46876 2.85625 0.84883
-2.46681 3.70535 0.486482
-2.46737 3.41069 0.635744
-2.46631 2.86518 0.332165
-2.54314 3.13409 0.472448
-2.46634 3.14533 0.187471
-2.19987 3.68595 -0.246566
-2.36002 3.42629 0.000801906
-2.3912 3.68357 0.149164
-0.255064 3.55979 -0.117254
-0.290134 3.63899 -0.251744
-0.210082 3.41068 0.183675
-0.237084 3.48675 0.0356881
0.304757 3.28198 0.169714
0.0495573 3.32771 0.149258
0.331698 3.28049 0.3351
-0.530338 3.09031 0.739089
-0.392942 3.20111 0.647014
0.146618 3.1292 0.846562
-0.0903551 3.17782 0.772971
0.0347893 3.0161 0.956997
-0.274676 3.29335 0.502654
-0.218892 3.34037 0.3592
0.94447 2.62791 0.663605
0.752918 2.79119 0.73534
0.879211 2.58898 0.840818
0.582544 3.16821 0.509415
0.685167 3.00219 0.611215
0.711643 3.02772 0.447572
0.477392 2.81776 0.925706
0.642288 2.93299 0.839027
0.381727 3.03312 0.822276
0.0738847 3.28418 0.434054
0.249081 3.2025 0.637492
0.3358 3.2929 0.50273
-1.06524 3.03478 0.801729
-0.8484 3.03136 0.773053
-1.47125 3.05066 0.984228
-1.33491 3.05004 0.902648
-0.667169 2.68945 0.978438
-1.05421 2.86315 0.880201
-0.915133 2.66901 0.96256
-2.12323 2.7263 1.11724
-1.96586 2.82732 1.27772
-1.52787 2.52739 1.03608
-1.7372 2.73572 1.1304
-1.63993 2.34413 1.06048
-1.7579 2.96601 1.28179
-1.66125 3.03402 1.18231
-0.483718 1.73651 1.38959
-0.740371 1.84424 1.37648
-0.648256 1.63243 1.27302
-0.776973 2.39698 1.10065
-0.729637 2.18444 1.27573
-0.512376 2.31581 1.35274
-1.11614 1.9135 1.07447
-0.924309 2.01607 1.13648
-1.20653 2.24553 1.07364
-1.45649 2.85648 1.01393
-1.35114 2.61681 0.990089
-1.17663 2.65588 0.963276
-2.28094 2.62491 0.709613
-2.22477 2.64081 0.916939
-2.3569 2.5829 0.207743
-2.35639 2.58676 0.44544
-2.24419 1.97109 0.790942
-2.33769 2.24681 0.599326
-2.27163 1.94531 0.483574
-1.79436 2.73528 -0.564929
-2.00506 2.65811 -0.454859
-2.18008 1.95883 -0.366079
-2.12954 2.31014 -0.441167
-2.01829 1.98799 -0.541203
-2.20789 2.60915 -0.312959
-2.26103 2.58463 -0.0673508
-1.91219 0.790809 0.193165
-1.86576 1.06834 0.0173291
-1.91418 0.829735 -0.19352
-2.14622 1.57318 0.310463
-1.88196 1.39477 0.162777
-1.83359 1.4023 0.467005
-1.77685 1.47047 -0.252539
-1.86898 1.40733 -0.0788623
-2.07945 1.62256 -0.253905
-2.38 2.24156 0.0447743
-2.24659 1.9286 -0.118076
-2.30859 1.90488 0.181598
-1.50604 3.38174 -0.829854
-1.55834 3.08662 -0.720778
-1.50224 3.73428 -1.04746
-1.51697 3.64351 -0.996356
-1.35414 2.73132 -0.766275
[...]
POINT_DATA 642
SCALARS Mean_Curvature double 1
LOOKUP_TABLE default
-0.96146
0.093339
6.08108
3.72296
4.32377
-0.275175
0.00460003
0.766344
4.91582
-2.05935
-0.417132
1.52417
2.0463
4.95463
-0.491034
-0.28328
5.46054
8.83591
0.186145
5.85241
4.99644
2.96212
0.362197
1.21106
4.4834
0.809958
1.93426
2.18981
0.546987
-0.210065
-0.517411
0.56014
4.65408
1.41161
2.07419
1.30212
0.17015
0.92552
1.47079
-0.844535
-1.28419
0.473845
-1.09328
2.19397
1.1494
2.42627
2.71495
3.43052
-0.235715
0.957831
1.06244
-1.38702
0.938484
0.00851926
0.0770255
-1.2436
3.12503
0.317046
-0.782826
0.287332
9.84155
6.8562
0.587032
0.0361907
0.41099
1.80987
3.91444
0.211746
16.9966
3.34463
9.8946
0.743712
1.41495
-0.339255
-0.927343
0.540089
1.31343
-0.700083
-0.409018
3.90026
3.42269
4.18919
-1.11592
1.91751
-0.784353
0.277369
-1.56632
4.40241
0.543575
-0.34728
-0.896066
1.42401
1.60175
3.53568
0.694034
-1.23129
2.45892
-1.31402
0.842533
-0.0777957
0.528209
1.03158
2.05897
0.315568
1.40956
0.760848
0.773502
0.268356
0.513061
1.3221
-0.0890911
4.07227
2.18161
3.91989
2.67775
1.89923
0.952345
-1.29765
3.85203
0.119422
-0.0125193
-0.966824
-0.0227993
0.472914
5.12574
-1.45086
-0.00105366
1.88879
0.628846
1.32938
5.5943
2.23377
1.03367
0.936775
0.750799
-0.558687
2.94495
3.70051
-2.08226
1.23008
-0.183248
2.96389
1.57394
4.68512
-2.01044
-3.11426
1.22064
3.65852
1.70953
-1.71835
3.3734
-1.60828
1.39273
-1.21023
-1.24306
2.20168
0.196164
-0.613085
0.57062
0.935743
2.69578
3.07222
-1.15632
-2.11977
-0.150945
2.96021
-0.184904
2.14477
-0.457899
1.51074
5.49395
4.49531
2.94202
4.58781
0.487464
3.43142
1.85299
1.54173
2.36306
4.81065
-0.313057
-0.599952
-0.492349
-0.535887
-0.880777
-0.345804
-0.904898
-0.797015
-1.41026
2.23634
0.935903
6.21493
5.46751
-0.104054
-0.878995
3.4758
3.0783
3.92317
5.12546
-0.243714
-0.315845
0.195243
-0.361441
0.00483614
-0.343282
-0.285174
-0.505341
7.76405
0.321994
-1.52313
-1.62931
-1.57808
0.258545
-0.068939
0.092245
-0.687429
-0.314745
-1.38834
0.119364
-0.0274474
6.15475
6.0197
0.37736
0.245754
0.393548
-0.854059
3.71764
7.80516
-0.754722
9.28784
0.572657
5.7667
0.927588
0.608561
0.722785
0.427355
0.458511
0.0471183
-0.233481
0.152933
5.18094
5.55677
2.43679
-0.257135
0.663134
-1.39385
10.4315
4.1341
6.88059
4.70044
3.93307
0.832369
0.436571
3.94073
4.37162
8.48703
0.97045
4.8386
-0.07892
1.85285
0.329925
2.2251
4.47368
-0.341414
8.89384
2.50062
9.46319
1.97192
13.6763
2.01197
3.09104
2.20096
2.93245
1.64006
2.40591
-0.733753
-0.533938
2.6435
-0.00941235
3.01043
-1.21528
3.19396
-0.603367
4.33097
4.24696
0.364993
0.836406
3.04786
0.559141
1.45994
0.187638
2.89882
-0.00617872
-0.307081
-0.202985
-0.0568487
1.43117
-0.797708
1.37354
-0.533295
0.179147
3.68408
1.07966
4.26483
0.259325
-0.509459
0.447314
-1.41174
3.86053
5.74348
1.76385
1.33268
-0.165514
5.92703
2.20013
-0.348184
-0.0389974
6.07691
-0.484507
-0.521471
-0.835185
-0.643341
-0.957041
-0.728058
-0.125373
2.27253
4.57672
-0.927926
0.121235
-0.301937
5.29302
0.392351
0.668207
4.97
-1.74397
-1.30557
1.97251
4.11597
-1.10272
-1.48624
-0.986418
-1.21178
-0.851502
-0.447783
-1.81205
0.915973
-0.307455
-0.264251
4.02015
1.96188
0.405085
-0.488636
-0.104908
2.95216
1.7462
3.34083
2.30768
-1.98984
6.01617
1.71242
6.59404
2.34382
-1.71316
-1.1911
-1.33542
-0.156932
3.29713
2.58301
0.829518
1.72392
0.635082
0.0202237
0.377312
0.337756
-0.350309
0.321811
0.19211
0.758386
1.05261
0.392584
1.02572
0.15164
0.717591
0.54754
0.966112
5.51783
-0.0263086
-0.0570343
-0.443965
-0.311353
-0.18201
-0.331393
0.466638
0.981435
0.405471
0.559748
0.653679
0.673242
7.00982
0.267403
0.844726
0.92922
0.911112
0.595022
-0.0471849
0.56581
0.547537
-0.0744374
-0.540866
7.35311
1.17524
-2.61481
0.670505
0.416271
0.736143
-0.41482
-1.30811
6.9851
-0.29268
0.438351
0.518492
0.843776
1.3696
2.18316
0.938753
1.80033
2.81349
4.63846
4.67327
-2.97572
2.0419
3.35956
0.775065
3.45989
1.86161
-0.927523
2.37448
4.37018
-0.0189927
-0.00912201
2.12088
0.105187
-0.816716
2.49867
3.18334
-1.15222
1.45878
3.03355
1.10262
0.014061
-0.216707
-1.717
-0.0296214
0.0612677
2.4891
0.140671
0.141238
0.246135
0.156256
-0.716993
-1.49117
1.50861
6.62196
3.55661
-1.49402
2.44966
3.21059
2.16125
-0.379879
-0.00348198
-0.439494
0.0294722
5.73756
-0.542843
2.7511
1.62046
0.964728
0.0298695
0.841745
3.24984
-0.891694
0.0329813
2.45012
2.8932
4.30426
2.31057
1.58574
1.85038
3.75167
5.11698
-0.238048
-0.0224088
0.861856
4.57847
1.51821
0.795516
1.568
-2.18553
-0.480504
-2.73051
4.65477
0.319633
5.71461
3.70521
0.475145
3.71488
1.05873
2.66127
3.85793
-2.88424
-1.33776
-0.392186
2.6945
-0.705553
0.0396738
-0.899089
1.51126
0.719915
3.19851
0.423644
0.101638
-1.38926
0.865803
1.70514
-0.451898
2.58771
2.99297
4.64926
2.7319
0.94437
0.589808
6.16057
3.34696
3.45089
1.33366
-2.89668
2.70189
-0.800055
1.62501
3.21352
3.94101
-2.47344
0.755036
5.88262
3.11817
-1.53352
0.983057
-2.3217
-0.441785
3.8889
-1.48185
5.21343
3.91092
4.50042
-1.12448
-0.101933
3.35653
-0.839973
0.346465
1.98062
1.90345
-1.81084
1.31779
-1.81549
-0.427439
-0.951618
-1.49955
0.389081
1.20499
2.46118
0.699937
1.56014
7.82998
1.58469
-1.13107
-1.45262
-0.334208
-1.36491
-1.37425
4.92532
-1.31305
2.64546
0.693885
3.36518
-0.1368
0.457269
0.540009
-0.996665
5.32099
-0.65676
-1.25255
0.11117
-1.04004
2.2245
0.96956
-0.989129
-1.2331
-1.29285
-1.07496
1.64348
3.33298
-2.49139
1.60474
-1.07514
0.357511
-1.23275
0.516534
0.0267722
0.314634
-0.812506
-0.271881
1.53178
-0.155228
0.189267
3.02654
5.49871
0.582266
0.70918
0.380777
0.148761
0.553938
-0.144747
0.0477333
-0.0449693
3.17547
3.11595
0.603503
-0.917891
-0.157422
5.12009
2.98299
-0.212808
-1.92354
3.69614
-0.0436162
1.5408
-0.477893
-0.729996
6.12608
0.979047
1.41876
-1.09342
SCALARS Redistribution_Potential double 1
LOOKUP_TABLE default
2.85445e-05
-1.45469
-1.34324
-2.36737
-1.80679
-1.57918
-1.93917
-0.00693176
-2.45036
-2.5119
-0.281763
-1.06105
-0.815534
-1.29582
-1.135
-1.6375
-1.0203
-1.06099
1.35445
2.4654
1.19294
-0.774073
-2.23307
-2.36024
-1.40864
-1.82521
-1.1431
-1.19402
-1.23927
-1.23722
-2.0455
-1.66398
-2.44205
-2.31114
-2.11791
-1.42305
-1.90993
-1.54167
-2.22679
-2.26228
-2.43227
-2.55652
-0.49087
-0.974243
-0.78601
-1.21748
-1.13453
-1.01416
-1.35774
-1.22197
-1.39674
-1.00943
-0.666131
-1.68296
-1.35635
-1.18838
-1.2623
-1.50528
-0.66143
0.966401
-1.22972
-1.018
0.890551
-0.727517
-0.895257
2.36789
0.727837
1.25967
3.20538
0.970453
2.79814
1.2908
-0.187924
-0.574851
-0.169459
-0.678414
-0.946857
-2.07316
-1.91879
-2.02023
-2.09075
-2.47637
-2.33026
-2.41803
-1.44526
-1.70175
-1.23159
-1.32231
-1.87003
-1.5597
-1.50724
-0.937684
-1.13492
-0.957323
-0.951796
-1.22965
-1.12573
-1.2031
-0.196826
-0.743801
-0.40206
0.0422055
-1.66731
-1.16005
-1.79824
-1.22311
-1.04263
-1.65753
-1.36832
-2.18205
-1.85193
-2.34793
-2.39394
-2.34733
-2.29907
-2.45575
-2.43517
-2.49345
-1.92074
-2.22513
-2.07978
-2.02378
-2.22082
-1.57453
-1.74324
-1.57246
-1.67325
-1.42438
-2.09946
-2.32763
-1.36827
-1.68418
-2.07566
-1.89705
-1.77211
-2.3927
-2.42063
-2.12457
-2.27486
-2.50049
-2.42743
-2.38143
-2.41652
-2.53329
-2.48932
-2.47596
-2.53906
-2.12757
-2.31355
-2.04616
-1.33069
-1.31554
-1.3032
-1.41847
-1.2234
-1.17549
-2.09023
-1.94994
-1.45221
-2.50714
-2.46575
-2.28307
-0.140677
-0.654223
-0.416279
-0.905245
-0.805433
-0.69775
-0.996445
-0.913919
-1.06343
-1.15388
-1.13306
-1.05913
-1.23709
-1.18257
-1.26895
-0.921132
-1.07922
-1.00434
-1.49091
-1.34815
-1.4976
-1.17119
-1.26175
-1.21798
-1.33754
-1.30081
-1.26751
-1.05961
-1.18647
-1.1064
-0.701406
-0.323939
-1.07223
-0.916283
-0.886443
-0.898426
-1.00979
-1.62982
-1.50073
-1.4713
-1.50574
-1.68402
-1.34864
-1.21212
-1.32982
-1.32285
-1.48353
-1.08926
-1.22246
-1.09446
-1.5817
-1.37605
-1.44038
-1.153
-1.31373
-1.09305
-0.137679
0.533478
-0.873187
-0.669699
1.2737
0.0150921
0.047675
-1.32549
-1.22656
-1.03944
-1.12376
-1.08632
-1.12142
-1.0191
0.318439
-0.135324
-0.410556
0.10257
-0.0216375
1.42667
-1.04801
-0.801381
-1.01592
-0.918413
-0.973606
-0.673115
1.06335
0.567804
2.28993
1.95794
1.02191
1.90283
1.95916
0.602609
1.17402
3.56979
2.34867
2.20695
2.24007
2.92011
0.0946902
1.30847
0.0860491
2.17832
1.85296
1.27305
1.94422
2.6462
3.3838
3.20392
4.41738
2.81556
0.125098
0.590664
0.332069
-0.321771
-0.551428
-0.387201
-0.0600357
-0.544212
-0.352499
-0.681338
0.336156
0.626681
-0.963305
-1.01572
-0.727338
-0.867378
-0.86013
-0.826346
-0.708491
-0.0928339
-0.44074
-0.341505
-1.73067
-1.64282
-1.8631
-1.79839
-2.19122
-2.02325
-2.22395
-1.81165
-1.87427
-2.18645
-2.06556
-2.13861
-1.90995
-1.90363
-2.50748
-2.45297
-2.4835
-2.35196
-2.41307
-2.42826
-2.34516
-2.37878
-2.29358
-2.09911
-2.21684
-2.23026
-1.52058
-1.63419
-1.3533
-1.40517
-1.75666
-1.53949
-1.62127
-1.17126
-1.22933
-1.3602
-1.29316
-1.34019
-1.28638
-1.31206
-1.82846
-1.67238
-1.66495
-1.66429
-1.70808
-1.86662
-1.43632
-1.49134
-1.46604
-1.35264
-1.41044
-1.49303
-0.992816
-1.10162
-0.903325
-0.952125
-1.16336
-1.0541
-1.07489
-0.716005
-0.775775
-1.02916
-0.951928
-1.05371
-0.818651
-0.861168
-1.30735
-1.23931
-1.26093
-1.14542
-1.17905
-1.21424
-1.19894
-1.19065
-1.13468
-0.952838
-1.02407
-0.957718
-0.126382
-0.473861
0.801447
0.559942
-0.957235
-0.440014
-0.809879
-0.145946
0.208877
-0.514806
-0.185138
-0.652578
0.632004
0.930205
-1.83971
-1.70482
-1.90509
-1.2055
-1.499
-1.45553
-1.60126
-1.51441
-1.18795
0.0300391
-0.577476
-0.636526
-0.963561
-0.604018
-1.13108
-1.09304
-1.3261
-1.17594
-1.41448
-1.52784
-1.41532
-1.67098
-1.53391
-1.82315
-1.25464
-1.15331
-2.37602
-2.26937
-2.42235
-1.73838
-2.05231
-1.94247
-2.24344
-2.14462
-1.9445
-1.26767
-1.58479
-1.46278
-2.38923
-2.3721
-2.34485
-2.40477
-2.38126
-2.34455
-2.22853
-2.32194
-2.27419
-2.49077
-2.49271
-2.51525
-2.38928
-2.45262
-2.40286
-2.46387
-2.47638
-2.4475
-1.85278
-2.015
-1.91907
-2.17535
-2.09302
-1.97396
-2.20914
-2.16299
-2.28862
-2.39677
-2.35934
-2.31619
-2.26095
-2.2982
-2.05651
-2.17076
-2.08428
-2.12707
-1.9797
-1.63282
-1.72457
-1.54436
-1.65401
-1.49151
-1.77766
-1.76514
-1.41252
-1.45793
-1.3864
-1.76837
-1.63645
-1.72915
-1.42685
-1.52835
-1.54359
-1.83286
-1.69488
-1.81985
-2.27733
-2.34765
-2.01674
-2.15858
-2.28497
-2.22957
-2.17399
-1.25259
-1.46165
-1.56935
-1.53525
-1.43863
-1.63974
-1.79941
-1.9996
-1.91275
-1.88346
-2.09348
-1.99868
-2.16906
-1.67175
-1.81403
-1.73874
-1.9081
-1.81593
-2.00068
-2.39583
-2.39915
-2.30908
-2.36945
-2.42586
-2.42587
-2.43921
-2.03266
-2.11407
-2.28445
-2.21123
-2.20066
-2.19517
-2.25233
-2.49073
-2.46415
-2.42879
-2.46336
-2.47416
-2.47825
-2.33478
-2.4238
-2.36342
-2.29865
-2.35287
-2.41206
-2.40924
-2.35951
-2.41009
-2.38914
-2.42624
-2.50633
-2.52557
-2.53302
-2.53811
-2.5549
-2.50698
-2.43534
-2.52441
-2.51271
-2.4611
-2.47238
-2.55215
-2.5252
-2.53063
-2.42626
-2.46816
-2.42097
-1.987
-2.21416
-2.11648
-2.00789
-1.99412
-2.44436
-2.27848
-2.38302
-2.39874
-2.32097
-1.88405
-1.94681
-1.91839
-2.04312
-2.13152
-2.21867
-2.19136
-2.10185
-1.34666
-1.35252
-1.36868
-1.3189
-1.2258
-1.43776
-1.37178
-1.34196
-1.36751
-1.37159
-1.19464
-1.24234
-1.24032
-1.2971
-1.35493
-1.34457
-1.31933
-1.26062
-1.74587
-1.49006
-1.60396
-1.54889
-1.3752
-1.18917
-1.20935
-1.22367
-1.26535
-1.33884
-0.848808
-1.21033
-1.03974
-1.05664
-1.15703
-1.28628
-1.22809
-1.24461
-2.31281
-2.19537
-2.26028
-2.14388
-1.90167
-1.97225
-1.67527
-1.86354
-2.05769
-2.11351
-0.71028
-1.54253
-1.17332
-0.828077
-1.32072
-2.01978
-1.75917
-1.82485
-2.52552
-2.5466
-2.53888
-2.49629
-2.43534
-2.46859
-2.321
-2.41786
-2.50983
-2.53947
-1.78634
-2.33809
-2.1151
-1.97162
-2.16241
-2.5014
-2.3873
-2.42922
SCALARS CoVolArea double 1
LOOKUP_TABLE default
0.0559037
0.0119078
0.0625585
0.0638466
0.0367258
0.0382193
0.0255888
0.0115363
0.0276108
0.0426207
0.0506548
0.0564278
0.0706207
0.0481897
0.0455013
0.0479559
0.043532
0.0455712
0.0296963
0.019798
0.0647074
0.0891662
0.047964
0.0416214
0.0878985
0.0669477
0.075063
0.106731
0.0535374
0.0974669
0.0469494
0.0482763
0.073687
0.0682486
0.0909228
0.0637458
0.124503
0.0561482
0.0713345
0.0582871
0.0555101
0.0439358
0.0832246
0.0644723
0.0818888
0.0666572
0.073174
0.0812643
0.0525201
0.0432942
0.0450086
0.0445119
0.0689996
0.066795
0.0572514
0.0280028
0.0346816
0.0328417
0.0612759
0.0392902
0.0274953
0.0543297
0.0201336
0.042253
0.0416468
0.029686
0.0610843
0.0124616
0.0173623
0.0750408
0.0345069
0.0419099
0.0872915
0.0879346
0.0877868
0.0908005
0.076707
0.0411386
0.043494
0.0594504
0.0553704
0.0451878
0.0493637
0.0461416
0.0440223
0.0603298
0.0744203
0.0476567
0.0734028
0.079635
0.0770433
0.0925512
0.0813845
0.0818243
0.0884388
0.0940929
0.0963336
0.0675213
0.028829
0.0679837
0.015832
0.0153556
0.0789106
0.0603905
0.0665362
0.0215392
0.0363219
0.0225182
0.0254137
0.0557305
0.0449361
0.0450439
0.10318
0.0904163
0.0993484
0.0578994
0.0752956
0.0482501
0.0812449
0.0958626
0.0798696
0.123301
0.0907354
0.0640487
0.0980014
0.0958848
0.102797
0.0866931
0.100251
0.082682
0.0689413
0.0820667
0.0779163
0.0733765
0.0596869
0.0772008
0.0727767
0.0546774
0.0711561
0.0572802
0.0663547
0.0624275
0.0741893
0.0449724
0.047423
0.0459977
0.0550519
0.056548
0.0623042
0.0597894
0.0687131
0.0739276
0.0900174
0.0801231
0.0682033
0.0881154
0.0697514
0.0577213
0.0715658
0.0426875
0.0547383
0.0512112
0.0769688
0.0786276
0.0810727
0.0720193
0.0659156
0.0726958
0.0599007
0.0641472
0.0597754
0.071512
0.0726429
0.0740521
0.0582499
0.0672844
0.0505935
0.0779485
0.0750032
0.0774558
0.0430293
0.0440797
0.0420842
0.0477313
0.0408524
0.0464374
0.0405997
0.0352967
0.0432336
0.0751243
0.0589299
0.0638066
0.0822268
0.0692719
0.0529402
0.0664356
0.0575013
0.0541027
0.0321486
0.0561908
0.0551688
0.0450361
0.0604966
0.0586019
0.0600615
0.0542739
0.0225741
0.0265133
0.0266204
0.0302225
0.0256284
0.029215
0.0376337
0.0255589
0.0363766
0.0546355
0.0448818
0.0393905
0.0588652
0.0553966
0.0772711
0.0694701
0.0266836
0.0411221
0.0323271
0.0143349
0.026098
0.0492293
0.0452184
0.0395458
0.0381137
0.0539006
0.013297
0.0301603
0.0281641
0.0276696
0.0257691
0.0235523
0.0452549
0.0409407
0.0552559
0.0775709
0.0644307
0.0563194
0.0505207
0.0568111
0.0377431
0.0390093
0.0660678
0.0502736
0.0397696
0.00948315
0.0105838
0.0211534
0.0153829
0.0161125
0.0182666
0.0288295
0.0696972
0.0591811
0.0502904
0.0460565
0.0471411
0.0604291
0.0221603
0.0311592
0.0249919
0.0254906
0.0265183
0.0295628
0.072692
0.0864648
0.0737865
0.0759048
0.0747066
0.0814154
0.0849114
0.0912326
0.086949
0.0880388
0.0791661
0.0808455
0.0773629
0.0704908
0.0853596
0.0833546
0.0794864
0.0816267
0.0873133
0.101458
0.0964731
0.0983319
0.0406962
0.0241774
0.0500681
0.0425609
0.0498498
0.0441334
0.0427291
0.0672969
0.0692718
0.0511979
0.0582679
0.0470957
0.0638097
0.0541974
0.0510955
0.0477853
0.05092
0.0393509
0.0413303
0.0339266
0.0489036
0.0483301
0.0540932
0.049093
0.0525801
0.0448129
0.0508049
0.0570507
0.0449065
0.0405749
0.064052
0.0482083
0.0649941
0.0664939
0.069806
0.0746565
0.058853
0.0805375
0.049311
0.0430084
0.0525381
0.0750333
0.0612048
0.0719275
0.0833328
0.0652505
0.0813207
0.080455
0.0871791
0.0494873
0.0687562
0.0628398
0.078448
0.0640227
0.0894646
0.0843416
0.107431
0.0926077
0.105259
0.08417
0.0847745
0.0826463
0.0794861
0.0767074
0.0825102
0.0924299
0.0890002
0.0868661
0.0799475
0.10867
0.0914566
0.0973577
0.0705524
0.075793
0.0859768
0.102321
0.0989179
0.106809
0.0491278
0.0645269
0.0206019
0.032003
0.0794433
0.0477111
0.0619767
0.0152116
0.0111976
0.0284986
0.0121098
0.0299996
0.0129093
0.0154384
0.0485096
0.0687907
0.0502632
0.0800382
0.0751905
0.0907003
0.0616755
0.0688973
0.0572904
0.0214196
0.0348838
0.0417973
0.0345937
0.0264418
0.0311698
0.0286598
0.0409506
0.0301261
0.0294315
0.0170317
0.0172497
0.0279066
0.0213303
0.0304573
0.0273017
0.0331067
0.0448542
0.0519883
0.0445811
0.0402996
0.0526907
0.0508491
0.0494084
0.0509201
0.045324
0.0248477
0.0302126
0.0283774
0.0782456
0.0958821
0.0780053
0.0897072
0.0960529
0.107142
0.0985374
0.0929784
0.0910449
0.0578789
0.0576797
0.054486
0.0716664
0.0596462
0.0658793
0.0467788
0.0575491
0.0735028
0.0607291
0.075252
0.0574761
0.0876651
0.0807819
0.086816
0.0719341
0.0844661
0.085381
0.100036
0.102412
0.10454
0.0948303
0.0778339
0.106059
0.108826
0.108837
0.110241
0.131984
0.0604829
0.0671122
0.0892417
0.0845996
0.0697486
0.0832191
0.0856245
0.0781971
0.102654
0.0806494
0.119803
0.101636
0.100701
0.0642928
0.0969658
0.0887917
0.112345
0.104198
0.129019
0.0896333
0.0914245
0.11115
0.0979677
0.0796337
0.092164
0.0937359
0.0661746
0.0779477
0.0636135
0.0682978
0.0625777
0.0831004
0.10591
0.0528559
0.0710613
0.0510678
0.0819354
0.0748395
0.0731876
0.0534851
0.054884
0.0596478
0.10829
0.0875834
0.0965343
0.0790891
0.076714
0.0723589
0.0760262
0.0717317
0.0720028
0.0654495
0.042848
0.0538118
0.0554295
0.0519366
0.052367
0.0694472
0.0713361
0.0575764
0.0650882
0.0565359
0.0586921
0.0493515
0.0411084
0.0542585
0.0508523
0.060495
0.0902109
0.080337
0.0848228
0.0866309
0.070109
0.0854079
0.104716
0.0835444
0.0430662
0.050561
0.0381651
0.0434781
0.0442427
0.0473139
0.0531001
0.0475978
0.0522056
0.0496601
0.0404339
0.0528996
0.0480743
0.0427651
0.0632341
0.052315
0.062329
0.0634028
0.0592687
0.0606444
0.0612031
0.0581372
0.0538105
0.0556839
0.0490609
0.0567039
0.0675482
0.0674206
0.0624707
0.0643723
0.0563049
0.0544245
0.0640355
0.0653189
0.0591761
0.0822662
0.0569281
0.0706121
0.0800761
0.0780478
0.0723799
0.0808492
0.0750075
0.0697984
0.0662362
0.0687879
0.10211
0.0918702
0.0822905
0.0844926
0.0755524
0.0893473
0.0872405
0.0652499
0.0684616
0.0616783
0.0769945
0.0950703
0.0656215
0.0721974
0.0687209
0.0696372
0.0636106
0.0883562
0.105423
0.088404
0.085291
0.0742602
0.0777722
0.0764408
0.0976523
0.0599582
0.0643869
0.0584585
0.0563525
0.0701913
0.0576735
0.0610032
0.0558715
0.0586723
0.0584728
0.0297405
0.066304
0.050883
0.0472075
0.0644509
0.066926
0.0684191
0.076731
0.0510136
0.0469239
0.0479076
0.0412205
0.0403459
0.0468397
0.0568028
0.0455647
0.0501683
0.0497198
0.0335674
0.046601
0.0495122
0.0425194
0.0530746
0.0493188
0.0566122
0.0450645
SCALARS SignedDistance double 1
LOOKUP_TABLE default
1.18763
1.15775
0.014513
0.308534
-0.0131813
1.16393
0.000757647
1.4305
-0.00184399
-0.122389
1.3233
-1.00193
-0.00488513
0.174122
0.715064
1.36426
0.018332
0.184414
1.11147
-0.84347
-0.000827492
-0.00377564
0.00158007
0.099257
0.00596046
0.0789298
-0.00384181
0.0216387
1.36381
0.329625
0.36921
1.31268
-0.00323745
0.15394
0.00823154
-0.928266
0.000806169
-0.976232
-0.0112966
-0.0629429
0.635387
0.0534929
0.025022
0.096583
-0.007199
0.10811
0.000329958
0.11028
1.17313
0.0525446
0.130212
0.884343
0.0290799
1.19115
1.26129
0.0602332
0.0852358
1.18253
1.09697
1.12136
-0.0537921
0.194101
1.22417
1.14485
1.22934
-1.02026
0.0223154
1.16069
0.0730887
-0.198192
0.0253508
0.246034
0.00166042
0.0155607
0.00900658
0.00583641
-0.00678474
0.416568
1.17635
0.252115
0.0222952
0.253193
0.0139014
0.143906
1.11989
0.302434
0.517629
0.153696
-0.00450847
0.14254
1.08621
-1.00045
-0.00206697
0.0945141
0.00178201
1.02094
-0.00169537
0.625821
1.44673
1.20922
1.51643
1.38974
0.034662
1.28235
0.0549637
1.19611
1.41377
1.36126
1.20882
0.109037
1.18881
0.226196
0.048574
0.394889
0.0149111
0.180633
-0.00528112
-0.105436
-0.022494
0.00218274
-0.0107551
-0.0784702
5.41977e-06
0.0707235
0.0261931
-0.103322
2.41868e-05
0.0998561
2.55913e-05
0.176058
-0.00431385
0.173955
-0.0193131
0.0792588
0.00298413
-0.0588337
-0.00389892
0.244682
0.0185087
0.126351
-0.001917
0.26532
0.00101128
0.267933
0.0632662
0.101265
0.00388
0.253637
0.00453666
0.250181
0.0186056
0.666396
0.00940713
0.918748
1.03263
0.102049
0.131487
0.19697
1.37489
0.0749828
-0.000437864
0.213602
1.13531
0.0242516
0.014316
0.112219
0.00158378
0.0541982
0.154926
0.0653424
0.0382511
0.156088
0.00845191
0.0209419
0.00866623
0.12466
0.0283836
0.0523489
0.0115131
0.188294
1.20183
0.641802
1.15581
0.148469
0.942102
1.12463
0.438961
0.311572
0.307572
0.120029
0.00268913
0.221052
0.0142939
0.753753
1.11651
0.129504
-0.00308958
0.121783
0.0171694
1.23518
1.2932
1.32376
1.38351
1.27767
1.30047
1.19179
0.21987
0.13917
1.16491
0.919294
0.2873
-0.0158816
1.32962
0.290314
1.17722
0.888407
0.934958