# vtk DataFile Version 4.2
vtk output
ASCII
DATASET POLYDATA
POINTS 642 double
-1.52344 4.10215 -0.413379
-0.529086 3.63286 -0.248983
-1.75416 0.630561 -0.000812779
0.907182 0.849108 0.0271019
-0.480549 1.57478 1.39003
-0.815128 3.09182 0.54757
-0.449413 1.76445 -1.1363
-1.35416 3.79442 -0.648854
0.79898 2.52052 -0.572384
0.997884 2.41607 0.668612
-1.62292 3.20623 -0.552129
-2.39048 2.88487 1.06695
-2.25723 3.85754 0.594614
-1.42236 3.36651 1.37238
-1.33126 3.75185 0.394026
-0.474653 3.4464 0.0146901
-0.616082 4.49128 -0.290547
-0.364816 4.33983 -0.767583
-1.59027 4.05892 -0.9839
-1.66132 3.92298 -1.35835
-2.13046 4.05173 -0.881815
-2.62383 2.82931 -0.109364
0.234163 2.93106 0.922556
0.595787 3.08637 0.323341
-1.39206 2.11271 1.16596
-0.453068 2.47637 1.2377
-1.92997 1.70627 -0.442264
-2.16031 1.47381 0.62326
-0.851388 3.04043 -0.541026
-1.07657 2.42569 -0.779639
0.15271 3.25205 -0.308931
-0.338362 3.1302 -0.446251
1.44108 1.5551 0.617775
0.512183 1.9757 1.22478
0.275043 0.890326 1.0606
-1.17983 0.859198 1.01459
-0.471821 0.740707 -0.00658923
-0.93761 1.05346 -0.729683
0.199807 1.06065 -0.871977
0.306391 2.07165 -0.929226
1.09479 1.58819 -0.28053
1.11827 2.332 0.0388009
-1.83697 3.94427 0.112781
-1.76692 4.12355 0.656444
-1.34934 4.04933 0.134877
-2.0778 3.08379 1.66347
-1.98969 3.6379 1.08205
-2.91081 3.49381 1.04554
-1.22829 3.43805 0.489185
-1.4033 3.64581 0.968589
-1.30636 3.23735 0.829062
-1.00383 4.16912 -0.241083
-1.05409 4.41827 -0.31032
-0.476006 3.27462 0.342604
-0.866139 3.68847 0.0702568
-0.489005 4.24532 -0.427641
-0.579888 4.07897 -0.149872
-0.53167 3.61977 -0.210197
-0.893002 4.36284 -0.58399
-1.59398 4.08708 -0.945115
-0.351604 4.13733 -0.56078
-0.417272 4.61257 -0.675938
-1.57874 3.94611 -0.950524
-0.819915 4.12506 -0.645173
-0.705308 4.03345 -0.586902
-1.7295 4.16199 -1.18346
-1.869 4.26299 -0.626301
-1.59065 3.92389 -0.968741
-1.588 4.21315 -1.48132
-1.84749 3.81699 -0.958679
-1.92049 4.0131 -1.35697
-1.7128 3.83564 -1.07536
-2.14837 3.87499 -0.0920074
-1.97815 2.99196 -0.396057
-2.14437 3.47561 -0.299743
-2.53694 3.43078 0.178325
-2.46594 2.86846 0.614424
0.15672 3.28419 0.265008
-0.0639473 3.33658 -0.0283896
-0.097179 3.0498 0.859517
0.0141224 3.2795 0.603569
0.835258 2.82666 0.501776
0.490267 3.09805 0.630479
0.69457 2.70497 0.839653
-1.25149 2.83918 0.846509
-0.66289 2.87622 0.952458
-1.87269 2.62094 1.01599
-1.39945 2.73357 1.44857
-0.457582 2.05311 1.39046
-0.92079 2.38243 1.14501
-0.83146 1.76938 1.1188
-2.67673 2.21247 0.261916
-2.19227 2.35668 0.841085
-1.891 2.36573 -0.633864
-2.24598 2.27531 -0.229278
-1.52811 1.02988 0.190136
-2.14192 1.57958 0.0142045
-1.6507 1.10158 -0.148572
-1.39362 3.54504 -0.600104
-1.38873 2.9348 -0.602522
-1.25976 3.66278 -0.567022
-1.3971 3.67959 -0.652787
-0.819478 1.98051 -1.07781
-0.944417 2.87125 -0.62111
-0.508994 2.29306 -1.06826
-0.598441 3.92 -0.470891
-0.790918 3.69734 -0.468537
-0.443513 3.48434 -0.273813
-0.58008 3.8185 -0.442161
0.317214 2.771 -0.613507
-0.144538 3.20044 -0.394572
0.639323 2.83155 -0.407391
1.3367 0.966678 0.341225
0.980892 1.16781 0.728667
0.684191 0.740226 0.539846
0.839149 2.20209 0.941685
0.92981 1.73202 0.915112
1.18339 1.906 0.547746
-0.183304 1.20102 1.38955
0.48301 1.40086 1.15362
-0.0171258 1.76602 1.40198
0.052697 0.741024 0.548108
0.285806 0.740702 0.00917126
-0.77804 1.1204 1.27217
-0.468481 0.739526 1.20787
-1.1248 0.754493 -0.0310507
-0.893112 0.740666 0.618092
-1.50799 0.698027 0.620708
-0.0879392 0.740811 -0.538403
0.58339 0.950525 -0.472365
-1.46451 0.819622 -0.470546
-0.809812 0.776961 -0.584771
-0.187908 1.40792 -1.06617
-0.465139 0.998416 -0.897959
-0.712462 1.39173 -1.00051
0.744012 1.3396 -0.581267
1.18436 1.10875 -0.273956
-0.033671 1.90793 -1.07714
0.2861 1.58316 -0.920392
1.0221 1.98263 -0.427493
0.732538 1.8185 -0.733368
0.593688 2.23998 -0.750296
1.49565 1.49684 0.0261991
1.04358 2.37979 -0.250735
1.15984 1.91371 -0.0936734
1.23885 1.87679 0.247588
1.16 2.39355 0.410655
0.0518838 2.22876 1.32247
0.394937 2.49122 1.1573
-0.0368841 2.64159 1.0769
-1.6557 1.1124 0.841064
-1.17618 1.3465 0.912538
-1.74772 1.83614 0.990961
-0.974316 1.62414 -0.801418
-1.40158 1.3641 -0.440296
-1.5056 2.00365 -0.720086
0.0747262 2.60133 -0.791134
-0.160395 2.38013 -0.96301
-0.620507 3.09775 -0.495661
0.917888 2.7762 0.191155
0.868579 2.84811 -0.141972
0.513535 3.16823 -0.0277013
-1.65385 4.06754 -0.179069
-1.63829 3.81231 0.0527394
-1.44453 4.16179 -0.112343
-2.09226 4.15465 0.642287
-1.81746 3.94283 0.428112
-2.15302 4.09438 0.303004
-1.32756 3.89686 0.287303
-1.61098 4.07764 0.398622
-1.48518 3.89981 0.616901
-2.42364 2.96171 1.46228
-2.26891 3.28173 1.19622
-2.75295 3.09224 1.17569
-1.77627 3.41318 1.10619
-2.09989 3.69287 1.77778
-1.79065 3.20227 1.21998
-2.64148 3.84137 0.776014
-2.2482 3.5591 1.066
-2.40361 4.08837 1.10289
-1.05902 3.25393 0.519067
-1.26529 3.37904 0.67854
-1.09996 3.13852 0.640604
-1.37824 3.77142 0.712455
-1.41878 3.52387 0.66212
-1.53667 3.55239 0.280294
-1.48386 3.22924 0.904581
-1.55156 3.36683 0.729272
-1.61436 3.41661 0.937307
-1.94226 4.05069 1.02708
-1.71605 3.6234 0.970803
-1.50031 4.07758 1.05819
-1.19243 4.3485 -0.05261
-1.32964 4.07826 -0.445611
-1.11287 3.90587 0.125879
-1.0276 4.27197 0.242761
-0.821914 4.5161 -0.264664
-0.898553 4.49311 -0.0363684
-0.740029 4.35369 -0.16666
-0.648654 3.17967 0.447853
-0.935576 3.35148 0.373066
-0.664902 3.59671 -0.00470861
-0.773927 3.47932 0.18497
-0.422186 3.35894 0.164054
-1.07658 3.54081 0.285243
-1.14477 3.69556 0.173019
-0.382501 4.0324 -0.375474
-0.362833 4.05741 -0.226121
-0.529593 3.63008 -0.236103
-0.676376 4.27168 -0.311097
-0.527996 4.16338 -0.283594
-0.576474 4.42097 -0.408356
-0.545049 3.60032 -0.151953
-0.424461 3.93153 -0.146714
-0.620226 3.74889 -0.107161
-0.926914 3.90328 -0.104402
-0.725799 3.8847 -0.0688068
-0.775612 4.13839 -0.251429
-1.31814 4.02772 -0.502196
-1.55786 4.1067 -0.759816
-0.740728 4.71407 -0.451588
-0.996303 4.38932 -0.546587
-1.59082 4.08302 -0.951172
-1.30609 3.96504 -0.538158
-1.3001 3.94343 -0.54379
-0.460459 3.98884 -0.483361
-0.340319 4.20002 -0.469499
-0.394304 4.46326 -0.759426
-0.308676 4.37753 -0.627138
-0.335885 4.30904 -0.729799
-0.419983 4.41109 -0.485558
-0.332099 4.8049 -0.392113
-1.41748 3.84765 -0.708984
-1.28987 3.87805 -0.55229
-1.19005 3.80158 -0.539811
-1.29523 3.91626 -0.548822
-1.29224 3.89824 -0.550698
-1.57846 4.03768 -0.995696
-0.473989 4.16882 -0.793487
-0.76049 4.19792 -0.45845
-0.44567 4.37524 -0.908654
-0.753813 4.83984 -0.845227
-0.50352 4.58178 -0.845939
-0.883735 4.18038 -0.679871
-1.69893 4.22005 -0.805481
-1.76351 4.22861 -0.704135
-1.60784 4.35734 -1.19999
-1.67468 4.18276 -1.08295
-2.09889 4.26319 -0.752209
-1.85518 4.15389 -0.980123
-1.88535 4.13706 -0.998993
-1.47999 3.85122 -0.79191
-1.58743 3.92761 -0.966239
-1.68942 4.10752 -1.50226
-1.59064 4.03628 -1.29717
-1.63409 3.95622 -1.30835
-1.59153 4.06708 -1.26778
-1.63839 4.14004 -1.30735
-1.72055 3.5098 -0.624796
-1.76086 3.84501 -1.0815
-1.64072 3.53057 -0.630645
-1.87147 4.04219 -1.14401
-1.93507 3.87401 -1.16513
-1.94088 3.94279 -1.01901
-1.652 3.83208 -1.26123
-1.79742 3.90874 -1.35058
-1.76321 3.90208 -1.52883
-1.6954 4.12998 -1.31942
-1.87518 4.26312 -1.67671
-1.7921 4.08807 -1.32282
-1.87159 4.1366 -0.278589
-2.07428 4.0217 -0.729258
-2.02835 4.10947 -0.390727
-2.07162 4.0066 -0.116074
-2.25263 3.87979 0.285028
-1.74761 3.13554 -0.498309
-1.86284 3.45316 -0.538144
-2.40869 3.21148 -0.320729
-2.1202 3.24534 -0.337404
-2.3166 2.90805 -0.338201
-1.99241 3.60442 -0.604111
-2.00708 3.81906 -0.759599
-2.46644 3.13137 0.765225
-2.77095 2.72686 0.839496
-2.46628 3.70274 0.491497
-2.31352 3.41564 0.549846
-2.46612 2.87188 0.331168
-2.94094 3.11608 0.386917
-2.46542 3.14673 0.194792
-2.1191 3.70312 -0.430763
-2.36451 3.42926 0.00990444
-2.59623 3.77879 -0.0746708
-0.320371 3.41606 -0.104707
-0.367615 3.45542 -0.176016
-0.227757 3.32625 0.136675
-0.267043 3.37462 -0.00783978
0.326906 3.27995 0.178517
0.0984661 3.29916 0.127827
0.343195 3.27962 0.337903
-0.393108 3.10373 0.737189
-0.388496 3.19454 0.642476
0.208917 3.08427 0.785837
-0.0799693 3.17657 0.774811
0.100056 2.98664 0.881657
-0.272004 3.27964 0.489391
-0.116106 3.28889 0.320372
0.942432 2.66488 0.666803
0.784037 2.7742 0.68904
0.863286 2.6056 0.83849
0.575362 3.07873 0.467092
0.688385 3.00403 0.607472
0.712328 2.98112 0.421717
0.484632 2.82144 0.921025
0.639987 2.8724 0.746688
0.388993 3.03577 0.818956
0.175603 3.25999 0.41251
0.257518 3.20769 0.631628
0.353849 3.22133 0.45814
-1.09119 2.99949 0.734714
-0.717431 2.97475 0.717612
-1.48069 3.04265 0.949905
-1.38132 3.00088 0.73385
-0.654172 2.67162 0.955982
-0.975119 2.78787 0.769885
-0.91607 2.66762 0.950617
-2.26214 2.47317 1.36567
-1.97375 2.83807 1.27932
-1.72201 2.36921 0.457737
-1.7363 2.74103 1.13364
-1.49999 2.32104 1.46245
-1.75893 2.97051 1.28245
-1.64815 3.02206 1.25313
-0.471489 1.76135 1.38989
-0.690491 1.83301 1.39495
-0.646554 1.64287 1.2607
-0.665906 2.33825 1.03067
-0.718455 2.19719 1.28028
-0.438036 2.31874 1.37174
-1.10801 1.91491 1.05971
-0.771477 2.00698 1.00935
-1.19761 2.24374 1.06032
-1.73891 2.7091 0.706324
-1.34992 2.60807 0.951389
-1.09238 2.64715 1.02261
-2.24324 2.63813 0.699557
-2.3933 2.51512 0.96233
-2.35667 2.58072 0.207029
-2.24692 2.52268 0.314756
-2.24648 1.96442 0.786577
-2.64168 2.19057 0.653636
-2.27475 1.94809 0.481201
-1.69798 2.75939 -0.562871
-2.00681 2.65385 -0.450816
-2.19894 1.94211 -0.467013
-2.12987 2.30716 -0.439757
-1.95169 1.99902 -0.574566
-2.21066 2.606 -0.313866
-2.11656 2.59527 -0.125439
-1.91551 0.803651 0.191736
-1.9791 1.0481 -0.0432588
-1.91251 0.837266 -0.201769
-2.22546 1.43219 0.252239
-1.86652 1.40422 0.150261
-1.71767 1.49131 0.369656
-1.77377 1.47035 -0.252998
-1.84291 1.40815 -0.158405
-2.06934 1.62049 -0.252446
-2.44093 2.21933 -0.0685647
-2.24612 1.92642 -0.120782
-2.50865 1.78474 0.0884988
-1.60571 3.53817 -0.630842
-1.50236 3.12442 -0.588152
-1.59063 3.80751 -0.931268
-1.61273 3.80156 -0.929081
-1.32709 2.72757 -0.65386
-1.41575 3.44311 -0.570916
[...]
POINT_DATA 642
SCALARS Mean_Curvature double 1
LOOKUP_TABLE default
-0.663287
-0.116201
5.86844
0.835484
4.32327
-2.13575
0.200739
-0.732425
4.51399
0.676233
-1.14752
-1.48707
-0.900491
7.33218
3.04212
-0.925857
5.31291
2.89807
4.1448
0.688156
7.53465
4.33152
2.01582
0.603277
2.56991
4.814
1.84379
2.56344
-0.721592
0.667395
3.76734
-0.542741
7.31837
0.799579
2.47444
1.10421
0.26082
0.482424
1.33266
-0.0188038
-2.39961
0.505633
-0.313037
3.04188
0.44448
4.73541
0.723644
4.8733
0.00137531
5.21586
5.62363
-5.27129
2.99085
-0.845478
-0.161332
-2.77274
5.72718
0.753043
0.909373
0.196241
9.79047
2.37476
-1.35876
7.38198
3.61929
0.954202
5.24193
0.924989
15.5855
1.02125
9.46586
1.54843
0.034661
-0.504392
-0.943733
1.51784
0.109527
0.021165
-1.53262
2.32461
3.51339
0.526853
1.75776
0.60374
-0.330334
5.12523
-3.26346
6.14613
0.029771
3.24234
0.0662431
4.13564
0.223939
3.4699
0.195194
-4.82093
0.937155
-4.71867
-0.309433
-0.678608
-0.632941
-0.383222
4.77096
-0.301086
4.37997
-2.23256
-0.392398
-0.794922
0.645438
0.0900891
-1.3801
0.346862
4.88952
0.770053
2.772
0.424693
1.16049
-0.260162
3.68094
-0.0394361
0.249623
-0.0243198
0.22858
5.37681
5.30969
-1.98182
0.163275
2.8323
1.99702
0.63163
6.37508
1.4978
0.667021
0.635465
2.26639
0.286847
3.65078
0.691089
-1.51501
0.263441
0.819778
0.374417
5.8949
0.356305
-0.842734
-0.521041
3.63362
1.80102
2.0421
-0.684226
2.17754
-2.40036
-0.538539
-0.895983
-1.8761
1.96354
1.10683
0.294546
-0.466296
0.389233
3.84082
0.133691
-0.765817
-5.12705
1.9498
3.64154
-2.71179
4.14238
1.34
3.54365
3.1189
4.44734
-0.900109
4.91212
-0.569739
5.71079
-1.29953
3.73934
-0.0635705
5.23522
-0.97721
0.8646
-1.13237
2.56087
-1.11245
-7.59874
-1.37205
-4.79389
-1.98503
2.96765
-0.492556
6.0814
3.73109
0.0977164
-1.11383
6.95125
3.68902
6.69756
5.58691
-1.70854
-0.787979
-0.971419
-0.708914
-0.95422
-0.575725
-2.37876
7.31025
6.16169
0.406556
-3.25035
-0.471609
-2.4612
-0.17836
7.49275
-0.399626
-2.76673
1.76365
-3.00982
0.100267
-0.175592
5.91193
3.53024
11.4259
0.431468
-0.120728
-12.293
6.643
1.8015
8.91635
3.4876
1.94004
7.69411
-0.731313
-0.348594
-0.242599
-0.0328188
-0.450425
-0.0452232
5.16948
-11.5166
8.22039
6.29772
5.65598
4.72855
6.19673
-1.06246
11.8722
0.73765
8.08651
1.0073
2.56298
-0.672092
-1.64866
0.475961
8.69874
0.743149
8.71961
1.44368
1.17763
1.17562
-0.524091
1.15338
9.03728
1.38698
17.74
0.58082
10.7876
1.05564
7.81967
0.805308
2.90916
1.65911
3.39865
2.63624
0.0318877
-0.96497
-0.590866
3.9033
-0.358453
2.59554
2.40711
1.57986
-2.39421
5.89586
3.06919
-2.20707
-0.05466
5.71428
-1.56061
0.838038
-1.70731
5.19555
-0.937631
-1.33258
-1.46875
-0.910241
2.93701
-0.338794
5.47695
-0.171614
2.5996
0.955421
3.12562
1.23726
1.89189
0.0834415
2.77942
0.569477
4.62297
0.788508
5.37602
0.485486
1.90753
0.740538
3.50101
0.383866
2.91055
0.768789
0.842605
-1.6329
1.42552
-5.69739
-4.34297
-4.95729
2.36358
5.4062
1.55624
-4.84457
-1.74394
4.44357
3.65205
0.549934
-0.0290874
5.87702
-1.06303
-6.44686
3.73468
4.63111
0.517965
-5.09318
-0.876784
-6.28968
-0.152777
1.894
-3.81378
3.32373
-0.131847
-2.62447
2.69246
4.23322
-1.95606
0.419194
0.435461
4.37208
1.86157
1.78837
3.44718
-4.09845
5.75382
4.79955
6.08111
3.4792
-1.02588
-3.48585
-1.80809
0.497345
2.95922
2.14558
-0.876802
3.9795
-0.363908
-0.657347
9.56447
-0.349566
0.513866
-0.39174
-0.435752
-0.692122
-0.602033
-0.760769
-0.80721
-0.607826
-3.05567
9.74843
1.51128
0.716179
1.73382
0.0858448
-1.02217
0.45406
-0.460888
-0.346662
-0.861599
-0.106732
-0.672026
-0.326896
-0.885897
-0.310583
15.9679
-5.42467
-0.446177
0.0766019
-0.236428
-0.0384788
-0.54459
-0.0942938
-0.0742267
-0.523097
11.2121
2.70925
0.961906
0.34291
3.15488
-0.615127
6.26792
0.150365
1.60627
0.247207
2.35028
0.774382
-0.0271384
-0.294657
3.21969
0.599873
2.55113
0.6692
5.23948
0.619362
4.58763
-0.349417
1.48096
0.438811
2.8338
0.60263
1.69663
0.16609
3.15322
0.683427
0.288637
0.553304
2.04946
0.710478
-0.620671
0.986619
3.43364
0.33151
2.7764
1.18013
1.61133
0.507141
-0.226842
0.0733079
0.219585
0.573052
2.20034
-0.00732012
0.315981
-0.00221551
0.00450056
-1.70357
-0.552634
2.3388
6.2088
1.00425
-1.73205
1.47378
2.58435
3.11013
-0.546786
-0.00356051
-0.620358
0.171623
4.12047
-1.75819
2.92018
1.16518
0.836157
0.0493138
2.62945
0.291261
-1.06409
0.312608
4.03708
0.794607
5.26909
2.30324
2.10664
1.41117
5.8589
0.782197
0.152869
0.469829
1.58159
0.764345
2.48416
0.644382
3.31931
-0.357832
-0.432459
-0.396686
5.35374
0.850185
6.5697
0.655282
3.18965
0.680235
3.49713
0.447143
5.13135
-0.460676
-1.33529
0.327407
3.54389
-0.298719
0.375894
0.34799
1.79787
0.393594
3.32518
0.189292
1.38851
-0.102731
1.73553
0.441017
1.3172
0.485917
3.86385
0.564779
3.85914
0.414667
2.0295
0.612554
6.01887
0.619889
4.80298
0.217116
4.32808
0.114862
3.14594
0.66947
4.88224
-0.00370851
2.0761
0.662428
4.82675
-0.75182
2.37386
-0.296209
-0.868985
0.506126
-2.69571
0.578291
3.83296
1.1889
0.310161
0.337181
3.11263
0.260485
0.769575
0.485585
2.4953
-0.626812
1.88899
-4.18593
0.244426
0.944398
-2.41598
0.931659
1.93441
1.97587
0.53122
3.20188
6.47661
5.13672
-0.51705
-2.43406
0.297363
-4.87386
-1.13694
6.0112
-2.36552
4.85276
-0.770267
4.79387
-1.14353
-1.00934
3.03064
-4.82055
5.92079
-1.05456
-2.1608
0.326371
-1.38453
2.35909
1.07229
1.60667
-2.31641
-1.30151
-2.48453
1.16883
5.0678
-2.84674
2.10358
-1.23315
0.491132
-1.12071
0.448681
0.298426
1.35827
0.0130442
-1.58008
0.413715
1.79695
0.295536
6.40008
0.585694
-0.285615
-0.252564
-0.720886
-0.550183
-0.582655
0.251723
1.30537
0.0312846
3.6336
0.530408
3.21692
0.413125
1.52723
0.370112
3.06034
0.377139
2.74178
0.506691
-1.1167
0.371726
2.22294
0.0618889
7.08564
0.375413
1.90643
0.083734
SCALARS Redistribution_Potential double 1
LOOKUP_TABLE default
-1.10274e-06
-22.4222
-6.65123
49.5078
13.8727
-30.8921
28.2568
23.8967
73.3416
70.7227
11.7565
-65.2104
-59.1253
-69.8228
-56.1193
-15.915
-51.1223
-53.8602
67.1452
91.3258
45.2515
-33.5773
37.488
57.8918
-32.3621
4.4396
-13.9328
-27.175
13.3119
10.3872
37.046
20.2327
67.0956
46.4302
33.0696
0.173222
15.2576
6.89727
37.3938
54.9002
70.4291
81.0671
-36.0801
-62.2128
-42.3738
-70.84
-72.6331
-66.349
-54.7149
-69.5737
-59.6157
-46.291
-36.6358
-14.3378
-41.1086
-52.2157
-46.3373
-22.6768
-38.6239
59.3326
-50.8878
-53.6922
63.1374
-34.793
-33.7159
80.2174
29.9389
64.1601
96.2191
52.3277
88.537
67.0597
-21.1773
-9.42108
-9.63986
-44.9403
-54.7237
30.9658
18.2743
16.9497
23.4436
68.0051
50.5321
59.0141
-46.2148
-14.7635
-55.1177
-57.4975
11.431
-19.2907
-3.57834
-36.0495
-49.0601
-10.7514
-24.3232
-11.5441
-21.6485
-8.78035
21.2824
8.36216
14.8547
26.8352
19.4596
13.9526
29.7578
-32.3805
-12.6125
-6.72811
-28.5763
55.4878
25.8727
66.6951
57.9242
52.8126
42.2844
61.1493
59.09
71.61
22.7982
41.4396
28.1528
26.4355
33.4931
7.71596
14.8201
1.92116
6.44975
-4.40472
25.8724
44.6257
-2.81378
8.76736
31.5279
18.7997
16.5055
56.2487
60.2927
41.9915
48.2568
75.4153
64.9698
65.8946
69.2383
80.2933
78.053
75.9525
77.0258
29.8445
44.5963
23.2907
-10.1405
-7.89962
-30.538
8.60817
-3.87713
-2.69714
48.5515
40.4202
14.3221
74.1563
73.0473
54.419
-16.6913
-37.5956
-25.5839
-61.0409
-53.2253
-48.6392
-50.9812
-54.005
-62.377
-68.7433
-71.3437
-66.5896
-72.6879
-73.0706
-70.9316
-63.8292
-71.2724
-67.5937
-45.5791
-59.5793
-46.0636
-65.1751
-64.0576
-57.6392
-65.2254
-67.0874
-70.6349
-68.7191
-72.145
-68.164
-36.8021
-7.52562
-47.5992
-42.8263
-45.9691
-43.809
-48.4621
-23.0136
-40.0334
-31.5953
-33.4429
-11.7213
-47.595
-49.3294
-45.1654
-45.5523
-22.5718
-50.4431
-49.6305
-52.8487
-23.2467
-41.036
-34.5615
-45.0568
-41.7771
-48.0005
-0.710376
34.6846
-49.2336
-37.0435
63.9628
3.90493
4.99918
-41.4774
-51.7784
-54.2688
-54.666
-54.1275
-54.027
-52.474
31.6519
7.72387
5.10453
6.27757
6.96967
67.8418
-48.1882
-34.8024
-52.1344
-50.372
-52.3382
-34.6195
46.5656
31.5136
85.2089
74.0034
37.956
60.1287
61.7025
42.7028
64.2776
96.8382
89.9567
89.0512
88.4518
91.1231
22.8662
66.585
24.762
73.4828
72.8769
57.7943
82.9694
87.3145
95.1996
90.7138
98.2007
88.6275
-2.56237
28.9437
8.0976
-21.8495
-45.8709
4.33811
13.279
-23.261
-9.77919
-22.7918
18.1377
30.7418
-60.5895
-60.2507
-55.2
-57.4611
-46.075
-50.5979
-41.932
-3.93913
-31.9501
-35.0061
-0.76811
-4.09025
5.33836
2.40044
43.0991
27.7862
43.2314
-3.03223
-1.32208
34.7521
18.8755
29.3511
4.61411
11.7168
69.1514
64.0183
64.7095
55.9421
59.7554
63.3796
49.5812
57.2672
44.708
31.7621
37.7333
43.2766
-42.6029
-23.391
-61.0497
-55.0206
-10.2317
-33.7748
-24.3211
-61.9021
-64.9343
-44.1079
-55.6476
-41.2006
-65.8634
-65.1926
13.0735
5.59387
6.45211
-8.02525
-1.78919
9.00346
-17.0296
-8.59043
-28.6975
-54.8338
-44.3158
-34.2396
-52.1692
-57.5339
-38.9351
-43.1352
-37.8524
-40.522
-34.2907
-1.70418
-12.906
-18.342
-18.1222
-13.3449
-21.5376
-27.5862
-8.77139
-10.649
-8.33247
-24.193
-16.9645
-17.668
-12.3685
-14.0618
-17.894
-30.0511
-24.1434
-28.5634
25.0403
12.0185
56.9778
52.4061
6.48842
17.8226
11.4255
22.5279
36.8879
11.2756
21.3171
9.06654
56.9285
57.4974
24.2423
25.0483
29.669
13.5728
18.9975
16.0531
25.2995
23.2319
13.6001
25.0707
12.0178
12.3293
-24.2568
3.57312
-49.427
-37.7006
-1.1476
-25.1523
-0.532943
-20.4767
-24.9686
0.81132
-18.4292
12.6412
-47.3565
-50.6416
66.9747
61.5879
71.2649
22.9963
45.0033
40.7859
56.8234
52.4545
31.2666
-31.1967
0.4213
-0.0779102
52.8824
51.123
45.7664
60.7821
55.472
62.6737
38.0395
47.6882
42.0519
66.5598
66.4819
72.2052
52.7469
61.5598
53.3381
69.3391
65.8115
65.0379
18.0093
27.9626
19.5881
37.6855
31.4244
29.3835
36.7547
36.5464
43.6026
57.5926
50.4118
47.8689
37.5843
41.7282
29.106
34.8043
24.4728
30.0284
19.9576
9.93829
13.913
7.80204
10.7332
4.58707
17.9817
21.9029
-3.8604
-1.43237
-6.17528
11.1028
3.59476
8.36189
-3.18747
1.14275
2.87454
20.5495
10.366
16.1282
38.1167
47.5411
20.6399
30.5981
40.2741
35.7538
31.862
-4.96015
-1.32002
7.37578
2.01142
1.54108
4.06669
11.9703
29.7098
23.3352
23.2623
29.0755
24.5022
35.6146
11.1273
16.3805
11.84
17.7088
13.2991
22.0376
53.0357
55.6944
45.7342
50.5233
65.5731
60.147
64.6434
35.3657
37.2491
52.5788
45.0706
48.7987
40.2992
43.4947
76.0001
71.8732
70.7998
69.6404
71.0945
73.8769
60.9016
66.5334
60.213
51.8933
56.7723
61.4254
59.6659
68.9598
65.4765
63.8136
68.4782
78.1203
79.2274
80.4169
80.605
81.3709
77.6367
74.4818
74.7887
74.8953
71.3104
74.2798
79.5141
77.8063
79.4863
72.9709
77.3215
72.0463
20.5616
38.2337
28.7981
21.2314
15.7956
60.5934
41.9407
53.8589
53.0146
47.0351
-1.13274
15.3047
4.85976
20.8583
29.5714
37.9761
32.9391
26.8969
-8.61914
-5.5726
-7.1397
-10.2786
-18.1125
3.20096
-18.5068
-6.32872
-0.303461
-2.72759
-52.6686
-28.5032
-40.4724
-40.2785
-30.9664
-8.27519
-18.7523
-16.5744
18.0914
7.1627
11.7895
14.1823
8.26436
-6.31374
-8.93656
-6.79811
-3.39413
1.33591
-2.71335
3.9632
-1.00404
-6.84489
-9.60888
1.85884
-4.50068
3.06038
62.3897
53.9937
58.2188
53.295
37.3797
36.3705
28.0765
35.3274
41.6855
47.32
2.91891
16.9595
0.0930988
5.58003
13.3113
45.0564
31.3652
36.3678
73.1202
78.557
76.1658
71.2937
64.8892
75.5544
61.1791
71.1997
77.8208
79.3368
4.19576
57.7034
39.593
24.7674
45.219
74.9748
64.5355
67.3112
SCALARS CoVolArea double 1
LOOKUP_TABLE default
0.060359
0.0113441
0.0689233
0.059197
0.0433157
0.0508102
0.0325253
0.00833456
0.0328653
0.0406488
0.0427938
0.073644
0.0804765
0.0664385
0.0515888
0.0407207
0.0467581
0.0193489
0.0264201
0.0232655
0.0555091
0.122557
0.0437886
0.0386331
0.110109
0.0825286
0.0744783
0.144915
0.0496002
0.105573
0.0516756
0.0401018
0.0588303
0.0615984
0.0853378
0.0700441
0.110346
0.0539728
0.06969
0.0514369
0.0520247
0.0404377
0.0855523
0.076942
0.0854186
0.0989835
0.0996348
0.122966
0.0577414
0.0559552
0.0494278
0.0625011
0.0738521
0.0704389
0.0619742
0.0278444
0.0386692
0.0194318
0.0626471
0.0297999
0.0230032
0.0450993
0.0202749
0.0454322
0.0473015
0.0258091
0.058813
0.0142137
0.0314996
0.0585912
0.0496647
0.0299812
0.101156
0.0969485
0.0822253
0.10265
0.0994532
0.0385378
0.0325138
0.0524661
0.0612002
0.0394026
0.0470531
0.0405687
0.0626789
0.0676174
0.106565
0.101005
0.0787733
0.0963898
0.0944028
0.12155
0.096945
0.0875548
0.0850592
0.146919
0.0988334
0.0783408
0.0303726
0.0738439
0.0184338
0.0123307
0.0634446
0.0590114
0.061791
0.0179799
0.0433836
0.0255297
0.0259204
0.0490347
0.0418643
0.0399275
0.0913803
0.0808309
0.0932037
0.0598877
0.0775634
0.0474818
0.0871609
0.0954349
0.0842685
0.118696
0.0896892
0.0622513
0.10013
0.0981816
0.117348
0.107754
0.0931095
0.0755515
0.0663068
0.0834008
0.0708809
0.0712283
0.058223
0.0686901
0.0727001
0.0512341
0.0634446
0.0542135
0.0632843
0.0601782
0.061372
0.0402534
0.042787
0.0412774
0.0536427
0.0562433
0.0610553
0.0542776
0.0887984
0.0928718
0.12773
0.0721052
0.071049
0.098884
0.0637392
0.0566808
0.0712459
0.0405989
0.0525536
0.0500054
0.0810776
0.0800566
0.0831442
0.0873588
0.0734969
0.0833122
0.0669317
0.0755971
0.0672973
0.0925829
0.10835
0.0960647
0.0794287
0.117518
0.0784905
0.106521
0.115247
0.102722
0.0524703
0.0469995
0.0527111
0.0580218
0.0514395
0.0615132
0.048711
0.0424911
0.052889
0.0992699
0.0725774
0.0805009
0.0912949
0.0706813
0.067415
0.0807801
0.0553822
0.0596934
0.0362855
0.0629159
0.0688917
0.0492303
0.0731702
0.0603049
0.0670972
0.0603909
0.0293986
0.027274
0.0147266
0.0305325
0.0277494
0.0341236
0.034629
0.031349
0.0394089
0.059412
0.0479199
0.0415306
0.0477654
0.0472569
0.0800651
0.0635315
0.0163653
0.0266457
0.0275456
0.0216251
0.0272992
0.0217516
0.0304529
0.0175703
0.0400646
0.0655419
0.014367
0.0329832
0.0372802
0.0175848
0.0206323
0.0213081
0.0412287
0.0428764
0.0510041
0.0881264
0.0642696
0.0633476
0.0400172
0.0605352
0.034986
0.0303304
0.0635664
0.0406821
0.0350258
0.0058465
0.00684003
0.0387662
0.0192502
0.0210344
0.0163151
0.0276809
0.0551416
0.0406031
0.0307045
0.0375554
0.0368429
0.0491163
0.0274526
0.0339518
0.052284
0.0335747
0.0650056
0.0351852
0.0755809
0.0870151
0.074457
0.0729922
0.0884492
0.0824334
0.0839756
0.106451
0.0869364
0.0931266
0.069671
0.0660464
0.1101
0.0895146
0.101531
0.117561
0.0957154
0.111981
0.106716
0.111092
0.104848
0.126255
0.0203994
0.0110847
0.0467606
0.0355883
0.04764
0.0334362
0.0364149
0.0647223
0.0575133
0.0451486
0.0554133
0.0367217
0.0653973
0.0563123
0.047658
0.0390915
0.0446544
0.0350021
0.0385335
0.0308101
0.0519137
0.0454179
0.0507241
0.0486314
0.0480666
0.0366595
0.0613802
0.0681956
0.068781
0.0472068
0.0752918
0.0579482
0.0752591
0.0956279
0.0875475
0.166366
0.109485
0.149172
0.0611244
0.0694626
0.0572181
0.0900276
0.0689747
0.0880832
0.100312
0.0707633
0.0967254
0.107701
0.124405
0.0916531
0.112479
0.0700597
0.109184
0.083076
0.10867
0.103026
0.133929
0.130023
0.140763
0.0794821
0.0966449
0.0924627
0.0866796
0.0812125
0.0778042
0.103061
0.101837
0.117387
0.0838922
0.129477
0.113688
0.135949
0.067217
0.0834246
0.0847858
0.115941
0.104803
0.13193
0.0482335
0.0523977
0.0171248
0.0365641
0.0951283
0.0614736
0.0757969
0.0115189
0.0122144
0.0247322
0.014304
0.0277667
0.0150337
0.0104732
0.0503577
0.0642373
0.0517788
0.073911
0.0682664
0.0782189
0.0596538
0.0672314
0.0494184
0.017481
0.0288096
0.0425518
0.0396622
0.0296903
0.0281576
0.026958
0.0334929
0.0262822
0.0207818
0.0143231
0.0181711
0.0311171
0.0320993
0.0453217
0.0275749
0.0241462
0.0429022
0.0457414
0.0412047
0.0346263
0.0522583
0.0485041
0.0521241
0.0513041
0.0428935
0.0180805
0.0168596
0.0170516
0.0769541
0.090263
0.0814388
0.0688139
0.0820533
0.0787355
0.101793
0.0901629
0.0904185
0.0517464
0.0536706
0.0472023
0.0695111
0.0588813
0.0637806
0.0417713
0.0553749
0.0653562
0.066152
0.0806757
0.0662065
0.0874619
0.0864099
0.0942594
0.0729413
0.0846616
0.0795645
0.0952314
0.100515
0.100048
0.0867849
0.0822055
0.105463
0.100667
0.112506
0.100073
0.118373
0.0626456
0.0638161
0.0804998
0.0808732
0.0744213
0.090252
0.0840254
0.0846023
0.108309
0.0881733
0.122383
0.109433
0.105155
0.0761613
0.09855
0.0820113
0.11876
0.117818
0.139334
0.0869066
0.077666
0.109525
0.0981257
0.0735037
0.0838039
0.0885156
0.0666556
0.076456
0.0582919
0.0715715
0.0644522
0.0899577
0.106939
0.0524245
0.0634691
0.0532251
0.0745572
0.0695693
0.0700321
0.0487684
0.0543434
0.0612982
0.0948826
0.08226
0.0843536
0.0704243
0.0679492
0.0725416
0.072489
0.0634874
0.0686138
0.0611137
0.0478287
0.0544918
0.0547422
0.0532025
0.0505188
0.0645602
0.0655688
0.0558867
0.0600044
0.0564029
0.0569142
0.047544
0.0392703
0.051077
0.0494387
0.0565646
0.076624
0.072364
0.0761903
0.082388
0.0548049
0.0741114
0.0817294
0.0692944
0.0417531
0.0479541
0.0358311
0.0399686
0.0380891
0.0443886
0.044925
0.0411733
0.0442225
0.0482125
0.0373895
0.0525859
0.0461711
0.0397124
0.0513096
0.0460629
0.0541035
0.0626539
0.0576949
0.0561627
0.0592606
0.0598056
0.0501419
0.0596527
0.0534682
0.0586447
0.0572558
0.0704582
0.070691
0.0704338
0.0565995
0.0451868
0.0581263
0.056848
0.0570426
0.101347
0.0672834
0.0913792
0.124545
0.106875
0.0819459
0.0898071
0.09465
0.0788358
0.087074
0.086733
0.155183
0.113918
0.117528
0.0907454
0.0989952
0.107742
0.12931
0.05939
0.0633931
0.0528943
0.0694019
0.0888383
0.0616193
0.0690502
0.0658697
0.0675399
0.0716884
0.0800253
0.1065
0.0965383
0.0837476
0.0800821
0.0877983
0.0907726
0.0934662
0.0545052
0.0567457
0.0553065
0.0523522
0.0668797
0.056555
0.0644353
0.05698
0.0511877
0.0509461
0.035574
0.0592418
0.0522011
0.0472224
0.061623
0.061854
0.0752736
0.0756718
0.0469887
0.0422447
0.0473187
0.0366516
0.0386107
0.0407204
0.0618825
0.0450118
0.0457605
0.0424165
0.0277819
0.0457453
0.0509083
0.0514988
0.0603539
0.0428662
0.0517504
0.0422125
SCALARS SignedDistance double 1
LOOKUP_TABLE default
1.16273
1.2479
-0.00600692
-1.00124
-0.00327147
0.963644
8.90312e-06
1.27395
0.00286667
-0.790915
1.22065
-0.971453
-0.00723054
1.19306
0.0101169
1.23505
-0.00391717
-1
0.0240348
-1.00193
-0.000773545
1.14126
-0.000512793
-0.494262
0.00681244
0.452291
-0.0157634
1.14399
1.11551
-0.497026
-0.0228565
1.09952
0.000609852
-0.641095
-0.00400481
-0.878372
-0.000437261
-1.00377
-0.00818263
0.0790797
0.0486523
-0.605302
0.0185206
1.12811
-0.0107347
1.17919
0.00217207
1.2314
0.73536
1.0376
-0.00503974
-0.548816
0.0259749
0.124645
1.19539
-0.332527
0.0217642
1.25929
-0.0395465
0.0439753
-1
-1
0.24557
0.518342
0.0267387
-1.03142
-0.0132238
0.099557
0.0667051
-1.00042
0.0155464
-1.00138
0.021971
0.448384
-0.000318244
0.574252
-0.00639778
0.0617711
1.11053
-0.250469
0.00264538
-0.468937
-0.00667386
-0.3519
0.157613
0.731149
0.0802279
1.21241
0.00449224
0.975691
0.391287
1.13967
-0.00461347
0.434478
-0.012931
-0.841988
-0.000622738
-0.746021
1.27365
0.46088
1.28734
1.24486
0.00211971
0.701776
-0.00671248
-0.0281114
1.19754
1.29801
0.392344
0.0223835
0.550783
-0.349452
0.00615786
-1
0.00868458
-0.351357
0.00592099
0.290703
-0.0121308
-0.149318
-0.00295469
-0.0269076
-0.000404612
0.733402
0.0222352
-0.413573
0.00011344
0.9649
-0.00205219
-0.765285
-0.00239556
-0.565221
-0.0126404
-0.275825
0.000496798
-0.275613
-0.0111807
-0.931994
-0.000839821
-0.323166
0.000293675
-0.771373
-0.000428812
-0.554797
-0.00296014
0.558318
0.00359082
-0.747974
0.000837652
0.123071
0.00946617
-0.842623
0.00697043
0.382024
0.739347
0.161083
0.00245526
-0.218129
1.04983
-0.374196
-0.00882595
-0.111543
1.11484
-0.982631
-0.0221067
1.13009
-0.00458744
1.11322
0.0108738
1.04724
0.0199101
1.14272
0.00590949
1.1383
0.00336046
1.29796
-0.00825258
1.11087
0.0250669
1.19784
1.09977
-0.118436
0.561803
0.907108
0.301757
-0.865759
0.00899607
-0.765636
0.00453825
1.13062
0.00237186
1.14314
-0.0420253
1.08266
0.785939
1.12388
0.0080423
0.951312
0.00254167
0.70569
1.16042
1.31222
1.2965
1.14529
1.20895
1.07382
-0.0356972
-0.0251012
1.25045
0.386483
0.00995392
-0.264633
1.29235
0.530908
1.17513
-0.524873
0.0858058
0.020153
1.16598
0.819047
-0.0563462
-1.00076
0.0152483
1.19713
1.20185
-0.493216
0.021658
-0.997944
-0.00408633
-1
0.00759292
1.12416
1.22974
1.21077
1.19389
1.20649
1.20853
0.0118254
-0.00633556
-0.112187
0.00240496
1.11898
0.106719
0.746456
0.00703104
0.387892
-0.000649079
-1.00471
-0.029141
-1.02952
-1.03381
1.16807
0.115752
-1.00431
0.0180188
-0.69473
0.00136362
-0.848435
0.253274
-1.00254
0.947812
-0.850057
-0.00977423
-1.00027
0.0164929
-1.00323
-0.571475
-1.05373
-0.0532992
-1.04755