<VTKFile type="ImageData" version="1.0" byte_order="LittleEndian" header_type="UInt64">
	<ImageData WholeExtent="0 74 0 74 0 74" Origin="-0.133099 -0.00540831 -0.100397" Spacing="0.00314318 0.00314318 0.00314318">
		<Piece Extent="0 74 0 74 0 74">
			<PointData Scalars="Scalars_">
				<DataArray type="Float32" Name="Scalars_" format="ascii" RangeMin="0" RangeMax="100">
0.124333
0.122459
0.120595
0.118737
0.116884
0.115033
0.113185
0.111342
0.109509
0.107693
0.1059
0.104138
0.102415
0.100736
0.0991076
0.0975357
0.0960256
0.0945812
0.0932065
0.091906
0.090683
0.08954
0.08848
0.0875071
0.086621
0.0858249
0.0851172
0.0844984
0.0839695
0.0835322
0.0831938
0.0829723
0.0831447
0.0834227
0.0837945
0.0842418
0.0846411
0.0848557
0.0850866
0.0854049
0.085805
0.0862686
0.0867731
0.087293
0.0878025
0.088289
0.0887708
0.0892747
0.0898216
0.0904186
0.0910708
0.0917845
0.0925604
0.0934031
0.0943145
0.0952956
0.0963453
0.0974622
0.0986447
0.0998925
0.101201
0.102567
0.103989
0.105464
0.106987
0.108555
0.110162
0.111805
0.113476
0.115169
0.116876
0.118592
0.120311
0.122028
0.123747
0.123248
0.121358
0.119478
0.117605
0.115735
0.113867
0.112001
0.110139
0.108288
0.106453
0.10464
0.102858
0.101114
0.0994151
0.0977659
0.096174
0.0946429
0.0931787
0.0917845
0.0904643
0.0892228
0.0880623
0.0869854
0.0859955
0.0850944
0.0842834
0.0835626
0.0829321
0.0823927
0.0819462
0.0816002
0.0813746
0.0815501
0.0818337
0.082213
0.0826693
0.0830775
0.0832895
0.08352
0.08384
0.0842414
0.0847062
0.0852107
0.0857314
0.0862393
0.0867227
0.087201
0.0877033
0.0882479
0.0888447
0.0894973
0.0902112
0.0909892
0.0918351
0.0927516
0.0937381
0.0947938
0.0959181
0.0971082
0.0983628
0.0996792
0.101054
0.102483
0.103966
0.105496
0.107071
0.108686
0.110336
0.112015
0.113715
0.115429
0.117152
0.118878
0.120605
0.122332
0.122231
0.120327
0.118432
0.116544
0.114658
0.112774
0.110891
0.109012
0.107142
0.105289
0.103456
0.101655
0.0998917
0.0981725
0.0965041
0.0948916
0.0933412
0.091858
0.0904446
0.0891059
0.0878458
0.0866675
0.0855742
0.0845682
0.0836519
0.082827
0.0820932
0.0814506
0.0809003
0.0804453
0.080092
0.0798618
0.08004
0.0803291
0.0807159
0.0811803
0.0815974
0.0818049
0.0820347
0.0823552
0.0827567
0.0832204
0.0837234
0.0842421
0.0847471
0.0852258
0.0856996
0.0861982
0.0867407
0.0873348
0.0879854
0.0886982
0.0894776
0.0903257
0.0912454
0.0922362
0.0932973
0.094427
0.0956236
0.0968845
0.0982064
0.0995871
0.101023
0.102513
0.10405
0.105632
0.107255
0.108911
0.110598
0.112305
0.114027
0.115758
0.117493
0.119229
0.120965
0.121285
0.119368
0.117459
0.115556
0.113655
0.111756
0.109856
0.107961
0.106075
0.104202
0.102352
0.100532
0.0987497
0.097012
0.0953243
0.0936935
0.0921243
0.0906219
0.0891904
0.0878335
0.0865554
0.0853602
0.0842507
0.0832293
0.0822982
0.0814599
0.0807132
0.0800593
0.0794989
0.079035
0.0786752
0.0784401
0.0786205
0.0789144
0.0793081
0.0797808
0.0802066
0.0804065
0.0806342
0.0809537
0.0813534
0.081813
0.0823114
0.0828261
0.0833259
0.0837983
0.0842656
0.0847602
0.0852987
0.0858891
0.0865369
0.0872471
0.0880257
0.088875
0.0897963
0.0907903
0.091855
0.0929893
0.0941903
0.0954559
0.096783
0.0981693
0.0996114
0.101106
0.10265
0.104238
0.105868
0.107532
0.109226
0.110941
0.112672
0.114411
0.116157
0.117904
0.11965
0.120414
0.118483
0.116561
0.114644
0.11273
0.110815
0.108901
0.10699
0.105087
0.103198
0.101331
0.0994927
0.0976928
0.0959368
0.0942313
0.0925824
0.0909956
0.0894747
0.0880253
0.0866514
0.085357
0.0841455
0.0830202
0.0819841
0.0810391
0.0801874
0.0794286
0.0787639
0.0781936
0.0777208
0.0773546
0.0771148
0.077297
0.0775951
0.0779946
0.0784753
0.0789092
0.0790977
0.0793218
0.0796382
0.080033
0.0804853
0.0809755
0.0814826
0.081975
0.082439
0.0829005
0.08339
0.0839234
0.0845084
0.0851508
0.0858572
0.086633
0.087482
0.0884037
0.0893996
0.0904663
0.0916035
0.0928078
0.0940772
0.0954089
0.0967995
0.0982465
0.0997467
0.101296
0.102892
0.104528
0.1062
0.107901
0.109625
0.111365
0.113115
0.114871
0.116629
0.118388
0.119617
0.117675
0.115741
0.113811
0.111884
0.109955
0.108027
0.106101
0.104182
0.102278
0.100395
0.098541
0.0967235
0.0949506
0.0932282
0.0915624
0.0899584
0.0884205
0.0869549
0.0855646
0.0842543
0.0830277
0.0818879
0.0808373
0.0798793
0.0790149
0.0782447
0.0775698
0.0769902
0.0765095
0.0761365
0.0758924
0.0760748
0.0763764
0.0767814
0.0772687
0.0777098
0.0778819
0.0780997
0.0784095
0.0787951
0.0792351
0.0797112
0.0802078
0.0806902
0.0811458
0.0816014
0.0820855
0.0826122
0.0831903
0.0838262
0.0845278
0.0853
0.0861469
0.0870679
0.0880638
0.0891322
0.0902712
0.0914778
0.0927499
0.0940849
0.0954792
0.0969303
0.0984351
0.0999907
0.101592
0.103236
0.104916
0.106626
0.108359
0.11011
0.111871
0.113639
0.115408
0.11718
0.118899
0.116946
0.115001
0.11306
0.11112
0.109179
0.107237
0.105298
0.103365
0.101445
0.0995473
0.0976777
0.0958448
0.0940563
0.0923182
0.0906369
0.0890172
0.0874641
0.085983
0.0845778
0.0832531
0.0820122
0.0808585
0.0797954
0.0788245
0.0779485
0.0771676
0.0764828
0.0758947
0.0754063
0.0750276
0.0747788
0.0749606
0.0752646
0.075674
0.0761673
0.0766125
0.0767589
0.0769671
0.0772645
0.0776344
0.0780554
0.0785119
0.0789934
0.0794649
0.0799138
0.0803648
0.0808441
0.081364
0.0819347
0.0825629
0.083258
0.0840259
0.0848692
0.0857886
0.0867833
0.0878521
0.0889921
0.0901999
0.0914738
0.0928108
0.0942076
0.0956632
0.0971729
0.0987343
0.100343
0.101994
0.103683
0.105402
0.107146
0.108908
0.110681
0.11246
0.114243
0.116027
0.118261
0.116298
0.114343
0.112392
0.11044
0.108488
0.106535
0.104582
0.102637
0.100704
0.0987923
0.096909
0.0950621
0.093259
0.0915064
0.0898104
0.0881762
0.0866092
0.0851141
0.0836956
0.0823575
0.0811034
0.0799374
0.0788621
0.0778802
0.0769934
0.076203
0.0755098
0.0749131
0.074418
0.0740336
0.0737807
0.0739603
0.0742652
0.0746786
0.0751752
0.0756188
0.0757245
0.0759175
0.0761938
0.0765391
0.0769323
0.0773628
0.0778271
0.0782879
0.0787333
0.079184
0.0796617
0.080176
0.0807388
0.0813591
0.0820472
0.0828098
0.0836492
0.0845665
0.0855599
0.0866278
0.0877668
0.0889751
0.0902501
0.0915892
0.0929889
0.0944482
0.0959631
0.0975303
0.0991459
0.100805
0.102502
0.104232
0.105988
0.107761
0.109546
0.111339
0.113135
0.114934
0.117703
0.115732
0.113769
0.111809
0.109849
0.107886
0.105921
0.103958
0.102
0.100056
0.098132
0.0962361
0.094377
0.0925615
0.0907959
0.0890866
0.0874402
0.0858606
0.0843529
0.0829223
0.0815722
0.0803068
0.07913
0.0780442
0.0770532
0.0761571
0.0753578
0.0746571
0.0740534
0.073552
0.0731618
0.0729056
0.0730805
0.0733852
0.0737996
0.0742965
0.0747218
0.0747634
0.0749322
0.0751756
0.0754864
0.0758434
0.0762444
0.0766908
0.0771452
0.0775938
0.0780514
0.0785323
0.079045
0.0796011
0.0802141
0.080896
0.0816531
0.0824889
0.083403
0.084394
0.0854597
0.0865975
0.0878062
0.0890814
0.0904217
0.0918245
0.0932877
0.0948074
0.0963811
0.0980041
0.099672
0.101378
0.103119
0.104886
0.106672
0.108471
0.110277
0.112088
0.1139
0.11723
0.115253
0.113282
0.111315
0.109346
0.107375
0.105401
0.103427
0.10146
0.0995053
0.0975707
0.0956637
0.093793
0.0919661
0.0901899
0.0884699
0.0868122
0.0852221
0.0837038
0.0822632
0.0809031
0.079628
0.0784419
0.0773475
0.0763482
0.0754448
0.0746387
0.0739307
0.0733215
0.0728148
0.0724204
0.0721612
0.0723286
0.0726301
0.0730439
0.0735284
0.0738938
0.0738422
0.0739727
0.0741703
0.0744405
0.0747597
0.0751336
0.0755658
0.0760217
0.0764842
0.0769585
0.0774507
0.0779669
0.0785203
0.0791287
0.0798054
0.0805579
0.0813897
0.0823
0.0832885
0.0843517
0.0854877
0.0866952
0.0879709
0.089312
0.0907174
0.0921846
0.0937099
0.0952897
0.0969208
0.0985971
0.100314
0.102066
0.103844
0.105643
0.107455
0.109276
0.111101
0.112928
0.116843
0.114861
0.112885
0.110911
0.108936
0.106958
0.104976
0.102994
0.101018
0.0990542
0.0971103
0.0951941
0.0933147
0.0914784
0.0896928
0.0879642
0.0862971
0.0846983
0.0831718
0.0817224
0.0803547
0.079072
0.0778787
0.0767782
0.0757726
0.0748637
0.0740529
0.0733401
0.0727265
0.0722153
0.0718171
0.0715553
0.0717099
0.0720061
0.0724113
0.0728466
0.073056
0.0728985
0.07298
0.0731284
0.0733646
0.073656
0.0740127
0.07444
0.0749069
0.0753937
0.0758963
0.0764112
0.0769401
0.0774972
0.078105
0.0787786
0.0795276
0.0803557
0.0812625
0.082247
0.0833071
0.0844413
0.0856467
0.0869218
0.0882643
0.0896724
0.0911431
0.0926733
0.0942603
0.0958988
0.0975841
0.0993113
0.101074
0.102865
0.104676
0.106503
0.108338
0.110178
0.11202
0.116537
0.114555
0.112578
0.110601
0.108622
0.106638
0.10465
0.102662
0.100679
0.0987074
0.0967559
0.0948319
0.0929452
0.0911013
0.0893085
0.0875731
0.0858994
0.0842943
0.0827615
0.0813066
0.0799331
0.0786454
0.0774483
0.076343
0.0753339
0.074422
0.0736083
0.0728927
0.0722767
0.071763
0.0713621
0.0710978
0.0712315
0.0715168
0.0718837
0.0721524
0.072079
0.0718637
0.0719027
0.0720202
0.0722415
0.0725244
0.0728794
0.0733129
0.0738
0.0743203
0.0748619
0.0754103
0.0759627
0.0765334
0.077146
0.0778201
0.0785672
0.079392
0.0802945
0.0812741
0.0823302
0.0834605
0.0846642
0.085938
0.0872811
0.088692
0.0901658
0.0917016
0.0932952
0.0949415
0.0966364
0.0983739
0.100147
0.10195
0.103775
0.105616
0.107465
0.10932
0.111176
0.116251
0.114304
0.112349
0.110381
0.108404
0.106417
0.104426
0.102433
0.100444
0.0984674
0.0965106
0.0945809
0.0926879
0.0908388
0.0890412
0.0873007
0.0856231
0.0840139
0.0824779
0.0810197
0.0796442
0.0783546
0.0771556
0.0760498
0.0750398
0.0741289
0.073316
0.0726016
0.0719861
0.071472
0.0710697
0.0708039
0.0709001
0.0711513
0.0713465
0.0712396
0.0709458
0.0707156
0.0707404
0.0708566
0.0710854
0.0713796
0.0717481
0.0721976
0.0727104
0.0732678
0.0738538
0.0744467
0.0750354
0.0756302
0.0762554
0.0769347
0.0776816
0.0785028
0.0794001
0.0803744
0.0814252
0.0825511
0.0837515
0.0850244
0.0863681
0.0877805
0.0892585
0.0907993
0.0923991
0.0940533
0.0957567
0.0975035
0.0992883
0.101103
0.102941
0.104795
0.106659
0.108527
0.110398
0.115726
0.113888
0.112044
0.110172
0.108257
0.106296
0.104306
0.10231
0.100318
0.0983374
0.0963764
0.0944435
0.0925474
0.0906956
0.0888953
0.0871526
0.0854737
0.0838634
0.0823271
0.0808694
0.0794945
0.0782076
0.0770117
0.0759104
0.0749074
0.0740033
0.0731992
0.0724945
0.0718871
0.0713785
0.070978
0.0707104
0.0707128
0.0707664
0.0705037
0.0700941
0.0697333
0.069499
0.0695388
0.0696766
0.0699276
0.0702476
0.0706405
0.0711128
0.0716531
0.0722467
0.0728773
0.0735206
0.0741571
0.0747885
0.0754363
0.0761265
0.0768754
0.0776932
0.0785846
0.0795519
0.0805958
0.0817165
0.0829129
0.0841841
0.0855282
0.0869421
0.0884234
0.0899697
0.0915754
0.093237
0.094949
0.0967059
0.0985005
0.100327
0.102177
0.104044
0.105921
0.107803
0.109687
0.114783
0.113027
0.111303
0.109599
0.107896
0.10616
0.104354
0.102454
0.100483
0.098506
0.0965487
0.09462
0.0927276
0.0908793
0.0890825
0.0873444
0.085669
0.0840626
0.0825302
0.0810763
0.079706
0.0784226
0.0772305
0.0761327
0.0751335
0.0742336
0.0734337
0.0727334
0.0721305
0.0716255
0.0712192
0.0708686
0.0704886
0.0699525
0.0693828
0.0688914
0.0685159
0.0682792
0.0683479
0.0685186
0.0687989
0.0691514
0.069575
0.070074
0.0706422
0.0712688
0.0719399
0.0726331
0.0733248
0.0740055
0.0746882
0.075396
0.0761504
0.0769658
0.0778502
0.078809
0.0798455
0.0809597
0.0821518
0.0834207
0.0847643
0.0861801
0.0876644
0.0892149
0.0908268
0.0924954
0.0942156
0.095981
0.0977858
0.0996227
0.101484
0.103363
0.105253
0.107148
0.109045
0.113673
0.111925
0.110223
0.108566
0.106952
0.10537
0.103801
0.102209
0.100538
0.0987398
0.0968253
0.094904
0.0930177
0.0911755
0.0893846
0.0876512
0.0859821
0.084381
0.0828542
0.0814057
0.080041
0.0787626
0.0775752
0.0764829
0.0754878
0.0745919
0.0737955
0.0730926
0.0724604
0.0717952
0.0710581
0.0702874
0.0695324
0.0688317
0.068222
0.0677199
0.0673401
0.0671001
0.0672007
0.0674063
0.0677187
0.0681071
0.068565
0.0690938
0.0696896
0.0703441
0.0710487
0.0717862
0.0725335
0.0732731
0.0740027
0.0747392
0.0755045
0.0763192
0.0771968
0.0781472
0.0791747
0.0802826
0.0814703
0.0827368
0.0840802
0.0854975
0.0869853
0.0885404
0.0901583
0.091833
0.0935605
0.0953339
0.0971478
0.0989945
0.100866
0.102756
0.104657
0.106564
0.108472
0.112584
0.110826
0.109116
0.107458
0.105851
0.104296
0.102793
0.101333
0.0998983
0.0984489
0.0969173
0.0952305
0.0934011
0.0915714
0.0897885
0.0880621
0.0863994
0.0848055
0.0832851
0.0818425
0.0804828
0.0792098
0.0780264
0.0769362
0.0759367
0.0750168
0.0741254
0.073163
0.0721449
0.0711266
0.0701546
0.0692558
0.0684438
0.0677271
0.0671125
0.066608
0.066225
0.0659827
0.0661124
0.0663536
0.0666985
0.0671229
0.0676174
0.0681776
0.0688004
0.0694794
0.0702104
0.0709827
0.0717795
0.072579
0.0733664
0.0741434
0.0749287
0.0757466
0.07662
0.0775628
0.078584
0.0796859
0.0808699
0.0821345
0.0834783
0.0848978
0.0863895
0.0879493
0.0895723
0.0912532
0.0929868
0.0947678
0.0965892
0.0984447
0.100325
0.102224
0.104135
0.106052
0.107971
0.111554
0.109783
0.108062
0.106392
0.104777
0.103218
0.101716
0.100275
0.0988924
0.0975627
0.0962688
0.0949677
0.0935779
0.0920035
0.0902793
0.0885685
0.0869142
0.0853276
0.0838132
0.0823753
0.081017
0.0797382
0.0785329
0.0773732
0.0761817
0.0749226
0.0736495
0.0724083
0.0712309
0.0701343
0.0691278
0.0682153
0.0673991
0.0666826
0.0660688
0.065565
0.0651816
0.0649377
0.065094
0.0653678
0.0657455
0.0662054
0.0667355
0.0673279
0.0679775
0.0686789
0.0694301
0.0702269
0.0710602
0.0719116
0.0727575
0.0735845
0.0744016
0.0752347
0.0761112
0.0770529
0.0780703
0.0791702
0.0803533
0.0816181
0.0829639
0.0843863
0.0858813
0.0874451
0.0890733
0.0907596
0.0924988
0.0942857
0.0961135
0.0979749
0.0998628
0.10177
0.103689
0.105615
0.107543
0.110589
0.108806
0.107073
0.105392
0.103766
0.102197
0.100688
0.0992409
0.0978589
0.0965434
0.0952935
0.0941035
0.0929569
0.0918067
0.0905602
0.0891049
0.0875053
0.0859281
0.0844081
0.0829469
0.0815255
0.0800959
0.0786016
0.0770804
0.075581
0.0741344
0.0727596
0.0714685
0.0702666
0.0691582
0.0681472
0.0672345
0.0664207
0.0657087
0.0650995
0.0645994
0.0642182
0.0639742
0.0641542
0.0644572
0.0648656
0.0653586
0.0659218
0.0665454
0.0672211
0.0679435
0.0687115
0.0695251
0.0703817
0.0712679
0.072161
0.0730395
0.0739006
0.0747636
0.0756582
0.0766091
0.0776321
0.0787358
0.079922
0.0811914
0.0825406
0.0839671
0.085466
0.0870346
0.0886662
0.0903571
0.0921006
0.0938913
0.0957238
0.0975899
0.0994825
0.101395
0.103322
0.105255
0.10719
0.109693
0.107899
0.106155
0.104463
0.102827
0.101248
0.0997291
0.0982736
0.0968851
0.0955641
0.0943143
0.0931352
0.0920255
0.0909717
0.0899462
0.0888866
0.0876985
0.0863088
0.0847325
0.0830485
0.0813292
0.0796128
0.0779307
0.0763042
0.0747474
0.0732698
0.071877
0.0705736
0.0693642
0.0682518
0.0672391
0.0663276
0.065519
0.0648134
0.0642128
0.0637204
0.0633447
0.063103
0.0633016
0.0636297
0.0640655
0.0645871
0.0651791
0.0658296
0.0665292
0.0672713
0.0680553
0.0688814
0.0697513
0.0706564
0.0715796
0.0725012
0.0734108
0.0743196
0.0752509
0.0762284
0.07727
0.0783863
0.0795822
0.0808584
0.0822136
0.0836452
0.0851489
0.0867205
0.0883564
0.0900496
0.091795
0.0935875
0.0954209
0.0972885
0.0991835
0.1011
0.103031
0.10497
0.106913
0.108866
0.107062
0.105308
0.103606
0.10196
0.100372
0.0988451
0.0973821
0.0959862
0.0946589
0.0934044
0.0922228
0.0911139
0.0900682
0.0890644
0.0880495
0.0869329
0.0856165
0.0840779
0.0823866
0.0806331
0.0788847
0.0771782
0.0755339
0.0739636
0.0724741
0.0710715
0.0697601
0.0685447
0.0674283
0.0664146
0.0655053
0.0647023
0.0640063
0.0634173
0.0629374
0.0625717
0.0623353
0.0625468
0.0628936
0.0633512
0.0638957
0.0645093
0.0651797
0.0658985
0.0666584
0.0674575
0.0682958
0.0691748
0.070091
0.0710322
0.0719858
0.0729416
0.0739033
0.074885
0.0759052
0.07698
0.078121
0.0793345
0.0806234
0.0819883
0.0834257
0.0849334
0.0865068
0.0881416
0.0898328
0.0915755
0.0933639
0.0951935
0.0970586
0.0989532
0.100871
0.102807
0.104754
0.106705
0.108111
0.106297
0.104534
0.102823
0.101169
0.0995734
0.0980388
0.0965689
0.0951667
0.0938344
0.0925754
0.0913914
0.0902808
0.0892384
0.0882453
0.0872533
0.0861741
0.0849003
0.0833948
0.0817188
0.0799674
0.0782134
0.076499
0.0748459
0.073266
0.0717679
0.0703569
0.0690387
0.0678176
0.0666978
0.0656827
0.0647759
0.0639794
0.0632947
0.0627211
0.0622593
0.06191
0.0616829
0.0619001
0.062258
0.0627298
0.0632887
0.0639145
0.0645968
0.065328
0.0661013
0.0669138
0.067764
0.068653
0.0695784
0.0705347
0.0715122
0.0725042
0.0735111
0.0745414
0.0756082
0.0767249
0.0779
0.0791409
0.0804491
0.0818255
0.0832684
0.0847756
0.086345
0.0879716
0.0896531
0.0913848
0.0931639
0.0949864
0.096847
0.0987411
0.100664
0.102609
0.104571
0.106542
0.107428
0.105606
0.103835
0.102117
0.100455
0.0988521
0.0973117
0.0958355
0.0944279
0.0930918
0.0918293
0.0906429
0.0895329
0.0884942
0.0875105
0.0865388
0.0854938
0.0842626
0.0827912
0.0811331
0.0793867
0.0776307
0.0759108
0.0742504
0.0726635
0.0711576
0.0697396
0.0684155
0.0671895
0.0660666
0.0650514
0.0641473
0.0633582
0.0626856
0.0621312
0.0616937
0.0613694
0.0611571
0.0613726
0.0617323
0.0622079
0.0627698
0.0633975
0.0640815
0.064817
0.0655989
0.0664219
0.0672835
0.0681835
0.0691209
0.0700911
0.0710872
0.0721024
0.0731347
0.0741892
0.0752772
0.0764101
0.0775983
0.0788478
0.0801625
0.0815429
0.0829888
0.0844981
0.0860687
0.0876969
0.0893794
0.0911133
0.0928952
0.0947216
0.0965884
0.0984913
0.100426
0.102388
0.104371
0.10637
0.106819
0.10499
0.103212
0.101487
0.0998195
0.0982105
0.0966652
0.0951849
0.0937731
0.0924337
0.0911694
0.0899821
0.088873
0.0878374
0.0868624
0.085909
0.0848951
0.0837046
0.0822685
0.0806311
0.0788927
0.0771378
0.0754149
0.0737501
0.0721581
0.0706476
0.0692252
0.0678965
0.066667
0.0655425
0.0645274
0.0636269
0.062844
0.0621844
0.0616504
0.0612422
0.0609533
0.0607648
0.0609714
0.061323
0.0617893
0.06234
0.0629562
0.0636312
0.0643644
0.0651497
0.0659819
0.0668552
0.067768
0.0687198
0.0697077
0.0707252
0.0717659
0.0728236
0.0739018
0.0750087
0.0761553
0.0773528
0.0786081
0.079926
0.0813085
0.0827557
0.0842661
0.085837
0.0874658
0.0891497
0.0908852
0.0926689
0.0944977
0.096368
0.0982762
0.10022
0.102193
0.104193
0.106213
0.106283
0.104449
0.102665
0.100936
0.0992628
0.0976502
0.0961001
0.0946167
0.0932021
0.0918608
0.0905961
0.0894096
0.088302
0.0872712
0.0863048
0.0853681
0.0843834
0.0832304
0.0818287
0.0802134
0.0784861
0.0767353
0.0750133
0.0733477
0.0717536
0.0702413
0.068817
0.0674864
0.0662561
0.0651312
0.0641169
0.0632183
0.0624418
0.0617925
0.0612766
0.060898
0.0606528
0.0604971
0.0606947
0.0610293
0.0614695
0.0619893
0.0625783
0.0632368
0.0639637
0.0647526
0.0655948
0.0664825
0.0674117
0.0683823
0.0693918
0.0704353
0.0715035
0.0725902
0.0736938
0.074821
0.075982
0.0771881
0.0784481
0.0797682
0.0811511
0.0825977
0.0841077
0.085678
0.0873062
0.088989
0.0907235
0.0925064
0.0943345
0.096204
0.0981118
0.100056
0.102033
0.104038
0.10607
0.105823
0.103985
0.102197
0.100463
0.0987872
0.0971708
0.0956183
0.0941328
0.0927175
0.0913751
0.0901105
0.0889255
0.0878214
0.0867963
0.0858398
0.084919
0.0839602
0.0828411
0.0814722
0.0798795
0.078166
0.0764225
0.0747044
0.0730418
0.0714498
0.0699395
0.0685171
0.0671892
0.0659607
0.0648379
0.0638254
0.0629293
0.0621559
0.061512
0.0610052
0.0606427
0.0604269
0.0602968
0.0605051
0.0608213
0.061216
0.0616881
0.0622431
0.0628843
0.0636075
0.0644035
0.0652606
0.0661684
0.0671213
0.0681175
0.0691531
0.0702228
0.0713178
0.0724297
0.0735565
0.0747034
0.0758795
0.0770971
0.0783654
0.0796912
0.0810791
0.0825284
0.0840392
0.0856094
0.0872356
0.0889149
0.0906434
0.0924185
0.0942369
0.0960959
0.0979932
0.0999266
0.101894
0.103894
0.105925
0.105439
0.103597
0.101806
0.100071
0.098392
0.0967736
0.0952193
0.0937325
0.0923171
0.0909761
0.0897129
0.088531
0.0874309
0.0864127
0.0854662
0.0845625
0.0836285
0.0825415
0.081202
0.0796306
0.0779304
0.0761964
0.074486
0.0728295
0.0712437
0.0697395
0.0683242
0.0670035
0.0657825
0.0646663
0.0636595
0.062767
0.0619951
0.0613507
0.0608411
0.0604767
0.0602645
0.0601537
0.0603706
0.0606552
0.0609907
0.0614162
0.0619464
0.0625786
0.0633026
0.0641067
0.0649782
0.0659078
0.0668891
0.0679179
0.0689881
0.070092
0.0712186
0.072358
0.0735074
0.0746719
0.0758615
0.077088
0.0783617
0.0796898
0.0810759
0.0825209
0.0840248
0.085586
0.0872017
0.0888688
0.0905847
0.0923466
0.0941516
0.0959977
0.0978828
0.0998047
0.101762
0.103755
0.105779
0.105131
0.103288
0.101496
0.0997588
0.0980788
0.0964598
0.0949048
0.0934182
0.092003
0.0906629
0.0894016
0.088223
0.0871285
0.0861174
0.0851829
0.084297
0.0833911
0.0823361
0.0810224
0.0794667
0.0777763
0.0760488
0.0743439
0.0726927
0.0711125
0.0696147
0.0682065
0.0668935
0.0656814
0.0645741
0.0635756
0.06269
0.0619223
0.0612786
0.0607686
0.0604067
0.0602117
0.0601593
0.0603232
0.0605543
0.0608297
0.0612202
0.0617338
0.0623589
0.0630791
0.063881
0.0647529
0.0656881
0.0666821
0.0677322
0.0688321
0.069972
0.0711402
0.0723238
0.0735155
0.074716
0.0759347
0.0771825
0.0784706
0.079807
0.0811972
0.0826427
0.0841437
0.0856984
0.0873042
0.0889588
0.0906591
0.0924023
0.0941867
0.0960111
0.0978736
0.0997747
0.101713
0.103688
0.1057
0.104901
0.103059
0.101267
0.0995304
0.0978508
0.0962324
0.0946777
0.0931917
0.0917768
0.0904378
0.0891783
0.0880022
0.0869125
0.0859086
0.084987
0.0841238
0.0832571
0.0822614
0.0810081
0.0794965
0.0778324
0.0761209
0.074425
0.0727779
0.0711994
0.0697022
0.0682943
0.0669815
0.0657691
0.0646616
0.0636625
0.0627764
0.0620076
0.0613603
0.0608423
0.0604633
0.060227
0.060087
0.060238
0.0604552
0.0607252
0.0611167
0.0616319
0.0622551
0.0629685
0.0637593
0.0646208
0.0655496
0.0665442
0.0676024
0.0687186
0.0698834
0.0710843
0.072307
0.0735409
0.0747822
0.076035
0.0773098
0.0786171
0.0799654
0.0813615
0.0828082
0.0843048
0.0858508
0.0874433
0.0890823
0.0907637
0.0924874
0.0942506
0.0960537
0.097896
0.0997773
0.101698
0.103658
0.105657
0.104752
0.102913
0.101124
0.0993904
0.0977128
0.0960962
0.0945435
0.0930581
0.0916445
0.0903061
0.0890474
0.0878719
0.0867833
0.0857816
0.0848647
0.0840148
0.0831788
0.0822406
0.0810584
0.0796011
0.0779682
0.076273
0.0745853
0.0729433
0.0713684
0.0698735
0.0684682
0.0671582
0.0659489
0.0648457
0.0638512
0.0629703
0.0622056
0.0615617
0.0610441
0.0606599
0.0604123
0.0602663
0.0604103
0.0606104
0.0608563
0.0612283
0.0617297
0.062345
0.0630569
0.0638516
0.0647203
0.0656583
0.0666628
0.0677308
0.0688568
0.070031
0.071241
0.0724728
0.0737171
0.0749697
0.0762343
0.0775198
0.0788353
0.080189
0.0815863
0.0830302
0.0845199
0.0860551
0.087635
0.089258
0.0909226
0.0926279
0.0943734
0.0961595
0.0979859
0.0998524
0.101759
0.103706
0.105692
0.104684
0.102851
0.10107
0.0993445
0.0976749
0.0960657
0.0945206
0.0930429
0.0916352
0.0903021
0.0890461
0.0878705
0.0867803
0.0857753
0.0848542
0.0840048
0.0831854
0.0822974
0.0811848
0.0797786
0.0781852
0.0765161
0.0748448
0.0732133
0.0716458
0.070158
0.0687587
0.0674556
0.0662535
0.0651571
0.0641704
0.0632971
0.0625392
0.0618998
0.0613825
0.0609921
0.0607278
0.060561
0.0606814
0.0608675
0.0611164
0.061489
0.0619867
0.0625971
0.0633039
0.064095
0.0649619
0.0658995
0.0669045
0.0679733
0.0690998
0.0702755
0.071488
0.072724
0.0739733
0.0752325
0.0765041
0.0777949
0.0791145
0.0804692
0.0818647
0.0833028
0.0847841
0.0863086
0.0878753
0.0894837
0.0911336
0.0928245
0.0945561
0.0963293
0.0981439
0.1
0.101899
0.103838
0.10582
0.104529
0.102671
0.100862
0.0991057
0.0974038
0.0957614
0.0941811
0.0926664
0.0912211
0.0898488
0.0885532
0.0873375
0.0862057
0.0851616
0.0842052
0.0833349
0.0825399
0.0817814
0.0809597
0.0799019
0.0784916
0.0768611
0.0752139
0.0735988
0.0720429
0.070565
0.0691758
0.0678818
0.0666893
0.0656024
0.064625
0.0637602
0.0630102
0.062376
0.0618592
0.0614611
0.0611793
0.0609932
0.0610891
0.0612661
0.0615219
0.0618974
0.062393
0.0629978
0.0636983
0.0644827
0.0653435
0.0662756
0.0672757
0.0683397
0.0694613
0.0706321
0.0718402
0.0730733
0.0743214
0.0755807
0.0768533
0.0781453
0.0794646
0.0808173
0.082208
0.0836397
0.085113
0.086627
0.0881822
0.089779
0.0914164
0.0930957
0.0948161
0.0965789
0.0983847
0.100233
0.102125
0.104058
0.106034
0.10364
0.101716
0.0998418
0.098022
0.0962588
0.094556
0.0929168
0.0913453
0.0898441
0.0884183
0.0870704
0.0858051
0.0846259
0.0835366
0.0825412
0.0816429
0.0808429
0.0801397
0.0795198
0.0789325
0.0782334
0.077188
0.0756961
0.0741016
0.0725621
0.0710977
0.0697203
0.0684382
0.0672571
0.0661811
0.0652141
0.0643588
0.0636164
0.0629869
0.0624703
0.0620653
0.0617684
0.0615677
0.0616407
0.0618105
0.0620718
0.0624491
0.0629417
0.0635397
0.0642315
0.0650071
0.0658593
0.066783
0.0677742
0.0688294
0.0699422
0.0711036
0.0723023
0.0735276
0.0747692
0.0760235
0.0772928
0.0785818
0.0798972
0.0812453
0.0826303
0.0840543
0.0855185
0.0870228
0.088567
0.0901529
0.0917798
0.0934479
0.0951589
0.096913
0.0987106
0.100551
0.102436
0.104363
0.106332
0.102089
0.100112
0.0981881
0.0963191
0.0945079
0.0927585
0.0910741
0.0894582
0.0879139
0.0864464
0.0850585
0.0837544
0.0825386
0.0814148
0.0803879
0.0794614
0.07864
0.077927
0.0773261
0.0768385
0.0764568
0.0761389
0.0757307
0.0747144
0.0732009
0.0717526
0.0703897
0.069121
0.0679526
0.066889
0.0659331
0.0650876
0.0643531
0.0637285
0.0632122
0.0628013
0.0624923
0.0622815
0.0623326
0.0624966
0.0627603
0.0631374
0.0636251
0.0642147
0.0648963
0.0656611
0.0665022
0.067415
0.0683951
0.0694387
0.0705392
0.0716877
0.0728735
0.0740865
0.0753174
0.0765626
0.0778249
0.0791076
0.0804171
0.081759
0.0831365
0.0845521
0.0860064
0.0875002
0.0890352
0.0906103
0.092227
0.0938853
0.0955875
0.0973326
0.0991219
0.100954
0.102831
0.104751
0.106714
0.100357
0.0983422
0.0963792
0.0944716
0.092622
0.0908339
0.0891113
0.0874572
0.0858752
0.0843704
0.0829457
0.0816061
0.0803556
0.0791984
0.07814
0.0771842
0.076336
0.0756001
0.0749813
0.0744845
0.0741168
0.0738885
0.0739478
0.0740572
0.0737045
0.0725253
0.0711791
0.0699255
0.0687712
0.0677206
0.0667766
0.0659414
0.0652149
0.0645952
0.0640787
0.0636632
0.0633453
0.0631281
0.063159
0.0633173
0.063581
0.0639551
0.0644358
0.0650157
0.0656853
0.0664374
0.0672655
0.0681652
0.0691321
0.0701616
0.071247
0.07238
0.0735503
0.0747477
0.0759647
0.0771984
0.07845
0.0797235
0.0810243
0.0823571
0.0837257
0.0851321
0.0865763
0.0880604
0.0895844
0.0911495
0.092756
0.0944056
0.0960979
0.0978341
0.0996147
0.101439
0.103308
0.10522
0.107175
0.0986369
0.0965867
0.0945873
0.0926432
0.090757
0.0889317
0.0871713
0.0854797
0.0838608
0.0823181
0.0808567
0.0794807
0.0781944
0.0770029
0.0759116
0.0749247
0.0740475
0.0732854
0.0726434
0.0721276
0.0717452
0.0715086
0.0715709
0.0718313
0.0722212
0.0725329
0.072068
0.0708457
0.0697069
0.0686703
0.0677385
0.0669137
0.0661947
0.0655794
0.0650639
0.0646449
0.0643215
0.0641003
0.0641117
0.064265
0.0645257
0.0648944
0.0653664
0.0659349
0.0665917
0.0673293
0.068143
0.0690279
0.0699793
0.0709928
0.0720613
0.0731762
0.0743275
0.0755067
0.0767074
0.0779258
0.0791638
0.0804255
0.0817156
0.0830384
0.0843965
0.085792
0.0872258
0.0886991
0.0902127
0.0917673
0.0933637
0.095003
0.0966859
0.0984131
0.100185
0.102001
0.103861
0.105765
0.107711
0.09697
0.0948847
0.0928499
0.0908695
0.0889461
0.0870835
0.0852853
0.0835555
0.0818983
0.0803176
0.0788181
0.0774046
0.0760815
0.0748547
0.0737288
0.0727096
0.0718018
0.0710122
0.0703455
0.0698084
0.0694093
0.0691609
0.0692048
0.0694684
0.069887
0.0704448
0.0711014
0.0714866
0.0707537
0.0697314
0.068812
0.0679977
0.0672865
0.0666755
0.0661611
0.0657402
0.0654132
0.06519
0.0651836
0.0653311
0.0655869
0.0659485
0.0664103
0.0669656
0.067608
0.0683305
0.0691283
0.069997
0.0709317
0.071927
0.0729763
0.0740713
0.075202
0.0763607
0.0775407
0.0787415
0.0799636
0.0812108
0.082488
0.0837979
0.0851437
0.0865273
0.0879501
0.0894122
0.0909152
0.0924594
0.0940458
0.095675
0.0973487
0.099066
0.100828
0.102636
0.104487
0.106381
0.108319
0.0953656
0.0932453
0.091175
0.0891577
0.0871976
0.0852971
0.0834602
0.0816917
0.0799955
0.078376
0.0768379
0.0753858
0.0740248
0.0727611
0.0715998
0.0705468
0.0696073
0.0687882
0.0680956
0.0675366
0.0671192
0.0668585
0.0668799
0.0671451
0.0675702
0.0681412
0.06885
0.0696838
0.0705684
0.0708479
0.0699907
0.0691868
0.0684833
0.0678771
0.0673643
0.0669428
0.0666131
0.0663897
0.0663668
0.0665079
0.0667573
0.0671102
0.0675601
0.0681014
0.0687283
0.069435
0.0702162
0.0710669
0.0719834
0.0729597
0.0739882
0.0750612
0.0761688
0.0773041
0.0784624
0.0796419
0.0808449
0.0820749
0.0833361
0.0846313
0.0859635
0.0873341
0.0887439
0.0901944
0.0916859
0.0932194
0.0947959
0.0964154
0.0980787
0.099787
0.10154
0.103338
0.10518
0.107065
0.108994
0.0938273
0.0916719
0.0895662
0.0875128
0.0855149
0.0835762
0.081701
0.0798931
0.0781571
0.0764982
0.0749202
0.073429
0.0720292
0.0707274
0.0695294
0.0684412
0.0674686
0.0666192
0.0658993
0.0653167
0.0648805
0.0646066
0.0646031
0.0648696
0.0653003
0.065882
0.0666057
0.0674625
0.0684463
0.0695385
0.0705746
0.0704741
0.0697784
0.0691773
0.0686669
0.0682452
0.0679152
0.0676915
0.0676539
0.0677885
0.0680298
0.0683721
0.0688094
0.0693361
0.069947
0.0706365
0.0714001
0.0722329
0.07313
0.0740853
0.0750918
0.0761403
0.0772232
0.0783328
0.0794659
0.0806218
0.0818027
0.0830125
0.084255
0.0855332
0.0868493
0.088205
0.0896014
0.0910393
0.0925187
0.0940415
0.0956077
0.0972174
0.0988716
0.100571
0.102314
0.104103
0.105935
0.107812
0.109731
0.0923582
0.0901688
0.088027
0.0859371
0.0839016
0.0819249
0.0800108
0.0781634
0.0763876
0.0746882
0.0730698
0.0715382
0.0700989
0.0687581
0.0675223
0.0663979
0.0653911
0.0645098
0.0637616
0.0631542
0.0626978
0.062409
0.0623789
0.0626458
0.063082
0.063674
0.0644123
0.065288
0.0662945
0.0674236
0.0686662
0.0699881
0.0709864
0.0705697
0.0700624
0.0696418
0.0693125
0.0690886
0.0690377
0.0691649
0.0693976
0.0697284
0.0701518
0.0706633
0.0712576
0.0719299
0.0726755
0.073489
0.0743654
0.0752988
0.0762809
0.0773038
0.078359
0.0794408
0.0805461
0.081675
0.082831
0.0840172
0.0852383
0.0864967
0.0877949
0.0891343
0.0905165
0.0919408
0.0934082
0.0949201
0.0964755
0.0980756
0.0997206
0.101411
0.103146
0.104925
0.106749
0.108616
0.110526
0.0909607
0.0887376
0.086561
0.084435
0.0823621
0.0803472
0.078394
0.0765068
0.0746909
0.0729505
0.071291
0.0697184
0.0682387
0.066858
0.0655833
0.0644211
0.0633792
0.062465
0.0616868
0.0610535
0.0605757
0.0602702
0.060212
0.0604787
0.0609198
0.0615217
0.0622746
0.0631695
0.0641982
0.0653528
0.0666253
0.0680082
0.0694896
0.0709699
0.071528
0.0711255
0.0707972
0.070574
0.0705111
0.0706306
0.0708531
0.0711717
0.0715808
0.0720766
0.0726542
0.0733086