<VTKFile type="ImageData" version="1.0" byte_order="LittleEndian" header_type="UInt64">
	<ImageData WholeExtent="0 74 0 74 0 74" Origin="-0.266197 -0.0108166 -0.200795" Spacing="0.00628637 0.00628637 0.00628637">
		<Piece Extent="0 74 0 74 0 74">
			<PointData Scalars="Scalars_">
				<DataArray type="Float32" Name="Scalars_" format="ascii" RangeMin="0" RangeMax="100">
0.248667
0.244918
0.241188
0.237474
0.233768
0.230067
0.226369
0.222683
0.219018
0.215386
0.211801
0.208277
0.20483
0.201471
0.198215
0.195071
0.19205
0.189162
0.186413
0.183813
0.181366
0.17908
0.176961
0.175014
0.173243
0.171649
0.170234
0.168998
0.167939
0.167064
0.166388
0.165945
0.166289
0.166846
0.167588
0.168483
0.169281
0.169711
0.170173
0.17081
0.17161
0.172537
0.173544
0.174586
0.175605
0.176578
0.177541
0.178549
0.179642
0.180837
0.182141
0.183567
0.18512
0.186807
0.18863
0.190591
0.192691
0.194924
0.197289
0.199785
0.202401
0.205134
0.207979
0.210928
0.213975
0.217111
0.220326
0.22361
0.226951
0.230337
0.233753
0.237183
0.24062
0.244059
0.247493
0.246495
0.242715
0.238956
0.235209
0.23147
0.227733
0.224001
0.22028
0.216576
0.212905
0.20928
0.205716
0.202228
0.198829
0.195532
0.192348
0.189287
0.186358
0.18357
0.18093
0.178446
0.176124
0.173971
0.171992
0.170189
0.168566
0.167125
0.165864
0.164785
0.163892
0.1632
0.162749
0.1631
0.163668
0.164426
0.165338
0.166155
0.166579
0.16704
0.167679
0.168484
0.169413
0.170421
0.171463
0.172478
0.173445
0.174401
0.175406
0.176496
0.177689
0.178994
0.180421
0.181978
0.183672
0.185504
0.187476
0.189588
0.191835
0.194217
0.196726
0.199358
0.202107
0.204966
0.207931
0.210992
0.214142
0.217373
0.220672
0.224028
0.227428
0.230858
0.234305
0.237757
0.241211
0.244664
0.244462
0.240654
0.236864
0.233087
0.229315
0.225547
0.221781
0.218023
0.214285
0.210577
0.206914
0.203311
0.199784
0.196345
0.193008
0.189785
0.186683
0.183716
0.180889
0.178211
0.175691
0.173335
0.171148
0.169136
0.167304
0.165652
0.164185
0.162901
0.161801
0.160891
0.160184
0.159724
0.16008
0.160659
0.161433
0.162361
0.163196
0.16361
0.164069
0.16471
0.165514
0.166441
0.167447
0.168485
0.169494
0.170451
0.171397
0.172395
0.173481
0.174669
0.175971
0.177397
0.178955
0.180652
0.182491
0.184472
0.186595
0.188853
0.191246
0.193769
0.196413
0.199174
0.202047
0.205025
0.2081
0.211264
0.214508
0.217823
0.221194
0.224609
0.228054
0.231517
0.234987
0.238459
0.241931
0.242571
0.238735
0.234918
0.231111
0.227309
0.223511
0.219712
0.215922
0.212147
0.208404
0.204704
0.201065
0.1975
0.194025
0.190649
0.187388
0.18425
0.181243
0.17838
0.175666
0.17311
0.170721
0.168501
0.166459
0.164597
0.162918
0.161425
0.16012
0.158998
0.15807
0.15735
0.15688
0.157241
0.15783
0.158617
0.159561
0.160414
0.160813
0.161268
0.161907
0.162707
0.163626
0.164623
0.165652
0.166652
0.167596
0.168532
0.169521
0.170598
0.171777
0.173073
0.174494
0.176052
0.17775
0.179592
0.18158
0.183709
0.185977
0.18838
0.190912
0.193566
0.196338
0.199221
0.202212
0.205299
0.208476
0.211735
0.215064
0.218451
0.221882
0.225343
0.228824
0.232315
0.235806
0.2393
0.240827
0.236966
0.233123
0.229289
0.225459
0.22163
0.217802
0.21398
0.210174
0.206396
0.202661
0.198987
0.195386
0.191874
0.188463
0.185165
0.181991
0.178949
0.17605
0.173303
0.170715
0.168291
0.166041
0.163968
0.162079
0.160374
0.158858
0.157528
0.156387
0.155442
0.154709
0.15423
0.154594
0.155191
0.155989
0.15695
0.157818
0.158196
0.158644
0.159276
0.160066
0.160971
0.16195
0.162965
0.16395
0.164878
0.165802
0.16678
0.167847
0.169016
0.170301
0.171715
0.173267
0.174963
0.176806
0.178797
0.180933
0.183207
0.185616
0.188156
0.190818
0.193599
0.196492
0.199492
0.202591
0.205782
0.209055
0.2124
0.215802
0.219251
0.222732
0.226231
0.229741
0.233257
0.236775
0.239235
0.235351
0.231483
0.227624
0.223768
0.219911
0.216054
0.212203
0.208365
0.204555
0.200789
0.197082
0.193447
0.189901
0.186456
0.183125
0.179917
0.176841
0.17391
0.171129
0.168509
0.166055
0.163776
0.161675
0.159759
0.15803
0.156489
0.15514
0.15398
0.153019
0.152273
0.151785
0.15215
0.152753
0.153563
0.154538
0.15542
0.155764
0.156199
0.156819
0.15759
0.158469
0.159423
0.160416
0.161381
0.162292
0.163203
0.164171
0.165226
0.16638
0.167652
0.169055
0.1706
0.172293
0.174135
0.176127
0.178264
0.180541
0.182955
0.185499
0.188169
0.190957
0.193859
0.196869
0.19998
0.203184
0.206471
0.209832
0.213251
0.216719
0.220221
0.223743
0.227276
0.230815
0.234358
0.237797
0.23389
0.23
0.22612
0.222239
0.218358
0.214474
0.210595
0.20673
0.202891
0.199095
0.195355
0.19169
0.188113
0.184636
0.181274
0.178034
0.174928
0.171966
0.169156
0.166506
0.164024
0.161717
0.159591
0.157649
0.155897
0.154335
0.152966
0.151789
0.150813
0.150055
0.149558
0.149921
0.15053
0.151349
0.152335
0.153225
0.153517
0.153934
0.154529
0.155268
0.15611
0.157024
0.157986
0.15893
0.159827
0.16073
0.161688
0.16273
0.163869
0.165125
0.166515
0.168051
0.169737
0.171577
0.173567
0.175704
0.177984
0.180399
0.182947
0.185622
0.188416
0.191325
0.194346
0.197468
0.200685
0.203988
0.207365
0.210803
0.214292
0.217816
0.221361
0.22492
0.228486
0.232055
0.23652
0.232594
0.228684
0.224784
0.22088
0.216976
0.21307
0.209165
0.205274
0.201409
0.197585
0.193818
0.190124
0.186518
0.183013
0.179621
0.176352
0.173218
0.170228
0.167391
0.164715
0.162207
0.159875
0.157724
0.15576
0.153987
0.152406
0.15102
0.149826
0.148836
0.148067
0.147561
0.147921
0.148531
0.149357
0.150351
0.151237
0.151448
0.151834
0.152388
0.153078
0.153864
0.154726
0.155654
0.156576
0.157466
0.158369
0.159323
0.160353
0.161477
0.162717
0.164094
0.165619
0.167298
0.169133
0.17112
0.173255
0.175534
0.17795
0.1805
0.183177
0.185978
0.188896
0.191925
0.19506
0.19829
0.20161
0.205005
0.208464
0.211975
0.215522
0.219093
0.222679
0.226271
0.229868
0.235406
0.231465
0.227538
0.223619
0.219696
0.215771
0.211843
0.207915
0.204
0.200112
0.196264
0.192472
0.188754
0.185123
0.181592
0.178173
0.17488
0.171721
0.168706
0.165845
0.163144
0.160614
0.15826
0.156088
0.154106
0.152314
0.150716
0.149314
0.148107
0.147104
0.146324
0.145811
0.146161
0.14677
0.1476
0.148593
0.149442
0.149528
0.149863
0.150352
0.150972
0.151687
0.15249
0.153381
0.154291
0.155188
0.156104
0.157065
0.15809
0.159201
0.160428
0.161791
0.163305
0.164977
0.166806
0.168788
0.17092
0.173197
0.175612
0.178163
0.180843
0.183649
0.186574
0.189614
0.192761
0.196007
0.199343
0.202757
0.206237
0.209771
0.213344
0.216942
0.220555
0.224175
0.227801
0.234461
0.230507
0.226565
0.222629
0.218691
0.214749
0.210801
0.206855
0.20292
0.199011
0.195141
0.191327
0.187586
0.183932
0.18038
0.17694
0.173624
0.170444
0.167408
0.164526
0.161806
0.159256
0.156884
0.154695
0.152696
0.15089
0.149277
0.147861
0.146643
0.14563
0.144841
0.144322
0.144657
0.145261
0.146088
0.147056
0.147788
0.147684
0.147945
0.148341
0.148881
0.149519
0.150267
0.151132
0.152043
0.152968
0.153917
0.154901
0.155934
0.157041
0.158258
0.159611
0.161116
0.162779
0.164601
0.166577
0.168704
0.170977
0.17339
0.175942
0.178625
0.181435
0.184368
0.187418
0.190578
0.193839
0.197194
0.200628
0.204131
0.207688
0.211286
0.21491
0.218552
0.222203
0.225857
0.233687
0.229723
0.22577
0.221822
0.217873
0.213916
0.209952
0.205989
0.202037
0.198108
0.194221
0.190388
0.186629
0.182957
0.179386
0.175928
0.172594
0.169397
0.166344
0.163445
0.160709
0.158144
0.155757
0.153556
0.151545
0.149727
0.148106
0.14668
0.145453
0.144431
0.143634
0.143111
0.14342
0.144012
0.144823
0.145693
0.146112
0.145797
0.14596
0.146256
0.146729
0.147312
0.148026
0.14888
0.149814
0.150787
0.151793
0.152822
0.15388
0.154994
0.15621
0.157558
0.159056
0.160711
0.162525
0.164494
0.166615
0.168882
0.171293
0.173843
0.176528
0.179343
0.182285
0.185346
0.188519
0.191796
0.195168
0.198623
0.202147
0.205729
0.209353
0.213006
0.216676
0.220356
0.224039
0.233072
0.22911
0.225155
0.221202
0.217243
0.213275
0.209301
0.205324
0.201358
0.197415
0.193512
0.189664
0.18589
0.182203
0.178617
0.175146
0.171799
0.168589
0.165523
0.162613
0.159866
0.157291
0.154897
0.152686
0.150668
0.148844
0.147217
0.145785
0.144553
0.143526
0.142724
0.142196
0.142463
0.143033
0.143768
0.144304
0.144158
0.143728
0.143806
0.14404
0.144483
0.145049
0.145759
0.146626
0.1476
0.14864
0.149723
0.150821
0.151925
0.153067
0.154292
0.15564
0.157135
0.158783
0.160588
0.162548
0.16466
0.166921
0.169328
0.171877
0.174563
0.177383
0.180332
0.183405
0.18659
0.189883
0.193273
0.196747
0.200294
0.2039
0.207551
0.211231
0.21493
0.218639
0.222352
0.232502
0.228608
0.224697
0.220764
0.216807
0.212834
0.208851
0.204866
0.200889
0.196935
0.193021
0.189162
0.185376
0.181678
0.178082
0.174601
0.171246
0.168028
0.164956
0.162039
0.159288
0.156709
0.154311
0.1521
0.15008
0.148258
0.146632
0.145203
0.143972
0.142944
0.142139
0.141608
0.141801
0.142302
0.142693
0.142478
0.141892
0.141432
0.141482
0.141713
0.14217
0.14276
0.143497
0.144395
0.145421
0.146535
0.147707
0.148894
0.150071
0.15126
0.152512
0.15387
0.155363
0.157005
0.1588
0.160749
0.16285
0.165102
0.167502
0.170049
0.172736
0.175561
0.178517
0.181599
0.184798
0.188106
0.191514
0.195008
0.198576
0.202206
0.205882
0.209589
0.213317
0.217055
0.220797
0.231451
0.227777
0.22409
0.220343
0.216512
0.212593
0.208613
0.204621
0.200636
0.196675
0.192753
0.188887
0.185095
0.181391
0.177791
0.174305
0.170947
0.167727
0.164654
0.161739
0.158989
0.156415
0.154023
0.151821
0.149815
0.148007
0.146398
0.144989
0.143774
0.142757
0.141956
0.141421
0.141426
0.141532
0.141007
0.140187
0.139468
0.138999
0.139078
0.139353
0.139855
0.140496
0.141282
0.142226
0.143306
0.144493
0.145755
0.147041
0.148314
0.149577
0.150873
0.152252
0.15375
0.155386
0.157169
0.159105
0.161192
0.163433
0.165825
0.168368
0.171056
0.173883
0.176848
0.179939
0.18315
0.186473
0.189897
0.193411
0.197
0.200652
0.204353
0.208087
0.211841
0.215606
0.219375
0.229567
0.226055
0.222607
0.219198
0.21579
0.21232
0.208706
0.204908
0.200967
0.197012
0.193097
0.18924
0.185456
0.181759
0.178166
0.174689
0.171339
0.168126
0.165061
0.162153
0.159412
0.156845
0.15446
0.152266
0.150268
0.148468
0.146868
0.145467
0.144262
0.143252
0.142438
0.141737
0.140977
0.139904
0.138765
0.137783
0.137032
0.136559
0.136697
0.137038
0.137598
0.138304
0.13915
0.140148
0.141284
0.142537
0.14388
0.145266
0.14665
0.148011
0.149376
0.150792
0.152301
0.153931
0.155701
0.157619
0.159691
0.161919
0.164304
0.166841
0.169528
0.17236
0.175329
0.17843
0.181654
0.184991
0.188431
0.191962
0.195571
0.199244
0.202968
0.206726
0.210506
0.214296
0.21809
0.227348
0.223851
0.220446
0.217132
0.213902
0.210739
0.207602
0.204418
0.201076
0.19748
0.193652
0.189809
0.186036
0.182351
0.178769
0.175304
0.171964
0.168762
0.165709
0.162811
0.16008
0.157523
0.15515
0.152965
0.150975
0.149185
0.147591
0.146186
0.14492
0.143591
0.142117
0.140574
0.139064
0.137663
0.136444
0.13544
0.13468
0.1342
0.134402
0.134813
0.135438
0.136214
0.13713
0.138188
0.139379
0.140688
0.142097
0.143572
0.145067
0.146546
0.148006
0.149479
0.151009
0.152637
0.154394
0.156295
0.15835
0.160565
0.16294
0.165473
0.16816
0.170995
0.173971
0.177081
0.180316
0.183667
0.187122
0.190668
0.194295
0.197988
0.201731
0.205511
0.209314
0.213127
0.216944
0.225169
0.221652
0.218232
0.214915
0.211701
0.208593
0.205584
0.202666
0.199797
0.196899
0.193835
0.190462
0.186801
0.183142
0.179577
0.176125
0.1728
0.169612
0.166571
0.163686
0.160966
0.158419
0.156054
0.153872
0.151874
0.150035
0.148251
0.146325
0.14429
0.142253
0.14031
0.138512
0.136888
0.135453
0.134225
0.133216
0.13245
0.131966
0.132226
0.132707
0.133397
0.134246
0.135234
0.136355
0.137601
0.138959
0.140421
0.141965
0.143559
0.145158
0.146732
0.148286
0.149856
0.151494
0.153242
0.155127
0.157169
0.159373
0.16174
0.164271
0.166958
0.169797
0.17278
0.175897
0.179143
0.182506
0.185974
0.189536
0.193178
0.196888
0.200649
0.204449
0.208271
0.212105
0.215942
0.223108
0.219567
0.216125
0.212784
0.209554
0.206435
0.203433
0.200551
0.197785
0.195125
0.192536
0.189936
0.187156
0.184006
0.180557
0.177137
0.173829
0.170655
0.167626
0.16475
0.162034
0.159477
0.157067
0.154748
0.152364
0.149845
0.147299
0.144816
0.142462
0.140269
0.138256
0.136431
0.134798
0.133365
0.132138
0.13113
0.130363
0.129875
0.130189
0.130736
0.131491
0.132411
0.133471
0.134656
0.135955
0.137358
0.13886
0.140454
0.14212
0.143823
0.145514
0.147169
0.148804
0.15047
0.152224
0.154106
0.156141
0.15834
0.160707
0.163237
0.165928
0.168772
0.171763
0.17489
0.178146
0.181518
0.184998
0.188572
0.192228
0.19595
0.199726
0.20354
0.20738
0.211232
0.215087
0.22118
0.217614
0.214147
0.210784
0.207532
0.204394
0.201375
0.198482
0.195717
0.193087
0.190586
0.188208
0.185913
0.183613
0.181121
0.178211
0.175012
0.171856
0.168817
0.165894
0.163051
0.160191
0.157203
0.154161
0.151162
0.148268
0.145519
0.142936
0.140533
0.138316
0.136294
0.134469
0.132841
0.131417
0.130199
0.129199
0.128436
0.127948
0.128308
0.128914
0.129731
0.130717
0.131844
0.133091
0.134442
0.135887
0.137423
0.13905
0.140763
0.142536
0.144322
0.14608
0.147801
0.149528
0.151316
0.153218
0.155265
0.157472
0.159846
0.162383
0.165081
0.167933
0.170932
0.174068
0.177332
0.180714
0.184202
0.187784
0.191447
0.195179
0.198965
0.202792
0.206644
0.21051
0.214381
0.219386
0.215799
0.21231
0.208926
0.205653
0.202494
0.199458
0.196548
0.193769
0.191129
0.18863
0.186272
0.184051
0.181944
0.179893
0.177773
0.175397
0.172618
0.169465
0.166098
0.162658
0.159226
0.155862
0.152609
0.149496
0.14654
0.143754
0.141147
0.138728
0.136504
0.134478
0.132655
0.131038
0.129627
0.128426
0.127441
0.126689
0.126206
0.126603
0.127259
0.128131
0.129174
0.130358
0.131659
0.133058
0.134543
0.136111
0.137763
0.139503
0.141313
0.143159
0.145003
0.146823
0.14864
0.150502
0.152457
0.15454
0.156773
0.159165
0.161717
0.164427
0.16729
0.170297
0.173442
0.176713
0.1801
0.18359
0.187175
0.190841
0.194577
0.198368
0.2022
0.206064
0.209941
0.213826
0.217733
0.214124
0.210616
0.207211
0.20392
0.200744
0.19769
0.194764
0.191972
0.189319
0.186811
0.184447
0.182227
0.180135
0.178128
0.1761
0.173867
0.171233
0.168156
0.164773
0.161266
0.157769
0.154356
0.151068
0.147927
0.144948
0.142143
0.13952
0.137089
0.134857
0.132829
0.131011
0.129405
0.128013
0.126835
0.125875
0.125143
0.124671
0.125094
0.125787
0.126702
0.127791
0.129019
0.130359
0.131797
0.133317
0.134915
0.136592
0.13835
0.140182
0.142065
0.143972
0.145884
0.147807
0.149771
0.151811
0.15396
0.156242
0.15867
0.161248
0.163975
0.16685
0.169865
0.173013
0.176283
0.179666
0.183151
0.186729
0.190389
0.194118
0.197907
0.201744
0.205615
0.209507
0.213411
0.216221
0.212596
0.209069
0.205647
0.202338
0.199146
0.196077
0.193137
0.190333
0.187669
0.185152
0.182782
0.180561
0.178477
0.17649
0.174507
0.172349
0.169802
0.16679
0.163438
0.159935
0.156427
0.152998
0.149692
0.146532
0.143536
0.140714
0.138077
0.135635
0.133396
0.131365
0.129552
0.127959
0.126589
0.125442
0.124519
0.12382
0.123366
0.1238
0.124516
0.12546
0.126577
0.127829
0.129194
0.130656
0.132203
0.133828
0.135528
0.137306
0.139157
0.141069
0.143024
0.145008
0.147022
0.149083
0.151216
0.153449
0.1558
0.158282
0.160898
0.16365
0.166537
0.169552
0.17269
0.175945
0.179308
0.182772
0.18633
0.189973
0.193694
0.197483
0.201329
0.205219
0.209141
0.213084
0.214856
0.211212
0.20767
0.204234
0.20091
0.197704
0.194622
0.191671
0.188855
0.186183
0.183659
0.181286
0.179066
0.176989
0.17502
0.173078
0.170989
0.168525
0.165582
0.162266
0.158773
0.155261
0.151822
0.148501
0.145327
0.142315
0.139479
0.136831
0.134379
0.132133
0.130103
0.128295
0.126716
0.125371
0.124262
0.123387
0.122739
0.122314
0.122745
0.123465
0.124416
0.12554
0.126795
0.128163
0.129634
0.131198
0.132844
0.134567
0.136367
0.138242
0.140182
0.142174
0.144204
0.146269
0.148378
0.150554
0.15282
0.155196
0.157695
0.160324
0.163085
0.165977
0.168997
0.172137
0.175394
0.178761
0.182228
0.185792
0.189444
0.193177
0.196984
0.200853
0.204776
0.208743
0.212739
0.213636
0.20998
0.206425
0.202976
0.199639
0.196422
0.19333
0.190368
0.187546
0.184867
0.182339
0.179964
0.177745
0.175675
0.173725
0.171819
0.169792
0.167411
0.164538
0.161262
0.157786
0.154276
0.15083
0.1475
0.144316
0.141295
0.13845
0.135793
0.133334
0.131085
0.129055
0.127254
0.125688
0.124369
0.123301
0.122484
0.121907
0.12153
0.121943
0.122646
0.123579
0.12468
0.125912
0.127262
0.128729
0.130299
0.131964
0.13371
0.135536
0.13744
0.139415
0.141451
0.143531
0.145648
0.147804
0.150018
0.152311
0.154706
0.157216
0.159852
0.162618
0.165513
0.168533
0.171675
0.174932
0.1783
0.18177
0.185338
0.188995
0.192736
0.196554
0.20044
0.204386
0.208384
0.212425
0.212567
0.208898
0.205332
0.201872
0.198527
0.1953
0.1922
0.189233
0.186406
0.183723
0.181192
0.17882
0.176604
0.174542
0.172609
0.170738
0.168768
0.166461
0.163658
0.160427
0.156973
0.153471
0.150027
0.146695
0.143507
0.140483
0.137634
0.134973
0.132512
0.130262
0.128234
0.126437
0.124884
0.123585
0.122553
0.121796
0.121306
0.120994
0.121389
0.122059
0.122939
0.123979
0.125157
0.126474
0.127927
0.129505
0.13119
0.132965
0.134823
0.136765
0.138784
0.14087
0.143007
0.14518
0.147388
0.149642
0.151965
0.154377
0.156897
0.159537
0.162303
0.165196
0.168215
0.171355
0.174611
0.177978
0.181447
0.185013
0.188668
0.192407
0.196223
0.200111
0.204065
0.208075
0.21214
0.211647
0.207969
0.204393
0.200926
0.197574
0.194342
0.191236
0.188263
0.185433
0.18275
0.18022
0.177851
0.175643
0.173593
0.171679
0.169839
0.16792
0.165683
0.162945
0.15976
0.156332
0.152845
0.149409
0.146084
0.1429
0.139879
0.137034
0.134378
0.131921
0.129676
0.127651
0.125859
0.124312
0.123024
0.12201
0.121285
0.120854
0.120594
0.12101
0.121643
0.122432
0.123376
0.124486
0.125769
0.127215
0.128807
0.130521
0.132337
0.134243
0.136235
0.138306
0.140445
0.142634
0.144859
0.147113
0.149406
0.151758
0.154193
0.156731
0.159383
0.162158
0.165057
0.168078
0.171219
0.174471
0.17783
0.181287
0.184837
0.188474
0.192192
0.195987
0.199853
0.203789
0.20779
0.211851
0.210879
0.207195
0.203613
0.200141
0.196784
0.193547
0.190438
0.187465
0.184633
0.181952
0.179425
0.177061
0.174862
0.172826
0.170933
0.169125
0.167258
0.165084
0.162405
0.159261
0.155861
0.152393
0.148972
0.145659
0.142487
0.139479
0.136648
0.134007
0.131565
0.129333
0.127319
0.125534
0.12399
0.122701
0.121682
0.120953
0.120529
0.120307
0.120741
0.12131
0.121981
0.122832
0.123893
0.125157
0.126605
0.128213
0.129956
0.131816
0.133778
0.135836
0.137976
0.140184
0.142437
0.144716
0.147016
0.149344
0.151723
0.154176
0.156724
0.159381
0.162153
0.165043
0.168051
0.171173
0.174404
0.177738
0.18117
0.184694
0.188304
0.191996
0.195765
0.199611
0.203527
0.207511
0.211559
0.210263
0.206576
0.202992
0.199517
0.196158
0.192919
0.189811
0.186836
0.184005
0.181326
0.178803
0.176445
0.174257
0.172236
0.170367
0.168595
0.166782
0.164671
0.162044
0.158933
0.155552
0.152098
0.148688
0.145385
0.142225
0.139229
0.136413
0.133787
0.131363
0.129148
0.127151
0.12538
0.123845
0.122557
0.121537
0.120813
0.120423
0.120319
0.120646
0.121109
0.121659
0.12244
0.123468
0.124718
0.126158
0.127762
0.129506
0.131376
0.133364
0.135464
0.137664
0.139944
0.14228
0.144647
0.147031
0.149433
0.15187
0.154365
0.156942
0.159614
0.162394
0.165285
0.168287
0.171395
0.174608
0.177917
0.181318
0.184805
0.188373
0.192022
0.195748
0.19955
0.203426
0.207376
0.211398
0.209801
0.206117
0.202535
0.199061
0.195701
0.192463
0.189355
0.186382
0.183554
0.180875
0.178358
0.176005
0.173825
0.171819
0.169974
0.168248
0.166514
0.164522
0.162016
0.158993
0.155666
0.152242
0.14885
0.145556
0.142399
0.139404
0.136589
0.133963
0.131538
0.129323
0.127325
0.125553
0.124015
0.122721
0.121685
0.120927
0.120454
0.120174
0.120476
0.12091
0.12145
0.122233
0.123264
0.12451
0.125937
0.127519
0.129242
0.131099
0.133088
0.135205
0.137437
0.139766
0.142168
0.144614
0.147082
0.149564
0.15207
0.15462
0.157234
0.159931
0.162724
0.165616
0.168609
0.171702
0.174889
0.178166
0.181529
0.184974
0.188501
0.192107
0.195792
0.199554
0.203397
0.207317
0.211314
0.209505
0.205827
0.202249
0.19878
0.195425
0.192191
0.189085
0.186115
0.183288
0.180612
0.178095
0.175744
0.173566
0.171564
0.16973
0.168029
0.166359
0.164482
0.162117
0.159203
0.155937
0.152546
0.149171
0.145887
0.142737
0.139747
0.136936
0.134316
0.131898
0.129691
0.127702
0.125941
0.124411
0.123123
0.122088
0.12132
0.120825
0.120533
0.120821
0.121221
0.121713
0.122457
0.123459
0.12469
0.126114
0.127703
0.129441
0.131317
0.133326
0.135462
0.137714
0.140062
0.142481
0.144946
0.147433
0.149939
0.15247
0.15504
0.157671
0.160378
0.163173
0.166059
0.169039
0.17211
0.17527
0.178516
0.181845
0.185256
0.188747
0.192319
0.195972
0.199705
0.203519
0.207412
0.211385
0.209369
0.205703
0.202141
0.19869
0.195351
0.192133
0.189043
0.186085
0.183271
0.180603
0.178091
0.175742
0.173559
0.17155
0.169708
0.168008
0.166371
0.164596
0.16237
0.159558
0.15637
0.153032
0.14969
0.146427
0.143292
0.140316
0.137517
0.134911
0.132507
0.130314
0.128341
0.126594
0.125078
0.1238
0.122765
0.121984
0.121456
0.121122
0.121363
0.121735
0.122233
0.122978
0.123973
0.125194
0.126608
0.12819
0.129924
0.131799
0.133809
0.135947
0.138201
0.140552
0.142976
0.145448
0.147947
0.150465
0.153008
0.15559
0.158228
0.160938
0.163728
0.166605
0.169568
0.172617
0.17575
0.178967
0.182267
0.185648
0.189112
0.192657
0.196287
0.2
0.203798
0.207677
0.21164
0.20906
0.205342
0.201724
0.198211
0.194808
0.191524
0.188363
0.185332
0.182442
0.179696
0.177105
0.174675
0.172412
0.170323
0.16841
0.166669
0.16508
0.163564
0.16192
0.159803
0.156984
0.153722
0.150428
0.147198
0.144086
0.14113
0.138352
0.135764
0.133379
0.131205
0.12925
0.12752
0.12602
0.124752
0.123718
0.122922
0.122359
0.121986
0.122178
0.122532
0.123044
0.123795
0.124786
0.125996
0.127397
0.128965
0.130687
0.132551
0.134551
0.136679
0.138923
0.141264
0.143681
0.146146
0.148642
0.15116
0.153707
0.156291
0.158928
0.161634
0.164416
0.167279
0.170225
0.173253
0.176363
0.179556
0.182832
0.186189
0.18963
0.193155
0.196767
0.200465
0.204247
0.208115
0.212066
0.20728
0.20343
0.199683
0.196044
0.192518
0.189113
0.185835
0.182691
0.179688
0.176836
0.17414
0.17161
0.169252
0.167073
0.165083
0.163286
0.161686
0.16028
0.15904
0.157864
0.156466
0.154376
0.151392
0.148203
0.145124
0.142195
0.139441
0.136876
0.134514
0.132362
0.130428
0.128718
0.127233
0.125974
0.124941
0.124131
0.123537
0.123135
0.123281
0.123621
0.124144
0.124898
0.125883
0.127079
0.128463
0.130014
0.131719
0.133566
0.135548
0.137659
0.139884
0.142207
0.144605
0.147054
0.149538
0.152047
0.154585
0.157163
0.159794
0.162491
0.165261
0.168108
0.171036
0.174044
0.177134
0.180304
0.183558
0.186896
0.190317
0.193825
0.19742
0.201102
0.20487
0.208724
0.212663
0.204177
0.200223
0.196376
0.192637
0.189015
0.185517
0.182149
0.178916
0.175829
0.172893
0.170117
0.167509
0.165077
0.16283
0.160776
0.158922
0.15728
0.155854
0.154652
0.153677
0.152913
0.152277
0.151461
0.149429
0.146402
0.143505
0.140779
0.138242
0.135905
0.133778
0.131866
0.130175
0.128706
0.127457
0.126424
0.125603
0.124985
0.124563
0.124665
0.124993
0.125521
0.126275
0.12725
0.12843
0.129793
0.131322
0.133004
0.13483
0.13679
0.138877
0.141078
0.143375
0.145747
0.148173
0.150635
0.153127
0.15565
0.158215
0.160834
0.163518
0.166273
0.169103
0.172012
0.175
0.178068
0.18122
0.184453
0.187772
0.191175
0.194665
0.198243
0.201908
0.205661
0.209501
0.213427
0.200714
0.196683
0.192758
0.188942
0.185243
0.181668
0.178223
0.174914
0.171751
0.168741
0.165892
0.163212
0.160711
0.158397
0.15628
0.154368
0.152672
0.1512
0.149963
0.14897
0.148235
0.147777
0.147896
0.148115
0.147409
0.145051
0.142358
0.139851
0.137542
0.135441
0.133553
0.131883
0.13043
0.12919
0.128157
0.127326
0.126691
0.126256
0.126318
0.126635
0.127162
0.12791
0.128871
0.130031
0.131371
0.132875
0.134531
0.136331
0.138264
0.140323
0.142495
0.14476
0.147101
0.149495
0.15193
0.154397
0.156899
0.159445
0.162047
0.164714
0.167451
0.170263
0.173153
0.176121
0.179169
0.182298
0.185511
0.188811
0.192195
0.195667
0.199228
0.202877
0.206614
0.210438
0.214349
0.197274
0.193172
0.189175
0.185287
0.181514
0.177864
0.174343
0.17096
0.167722
0.164637
0.161714
0.158961
0.156389
0.154006
0.151823
0.149849
0.148095
0.146571
0.145287
0.144256
0.143491
0.143017
0.143142
0.143663
0.144443
0.145066
0.144136
0.141692
0.139415
0.137341
0.135478
0.133827
0.132389
0.131159
0.130128
0.12929
0.128642
0.1282
0.128223
0.12853
0.129052
0.129789
0.130733
0.13187
0.133183
0.134659
0.136286
0.138056
0.139959
0.141985
0.144123
0.146352
0.148656
0.151014
0.153414
0.155851
0.158327
0.16085
0.163431
0.166076
0.168792
0.171582
0.174451
0.177398
0.180425
0.183534
0.186728
0.190007
0.193372
0.196826
0.200369
0.204
0.207721
0.211529
0.215423
0.19394
0.189768
0.185699
0.181738
0.177891
0.174167
0.170571
0.167112
0.163797
0.160635
0.157637
0.154809
0.152163
0.149709
0.147457
0.145419
0.143604
0.142024
0.140691
0.139617
0.138818
0.138322
0.138409
0.138938
0.139775
0.14089
0.142202
0.142974
0.141508
0.139463
0.137624
0.135995
0.134573
0.133351
0.132323
0.13148
0.130826
0.13038
0.130367
0.130663
0.131174
0.131897
0.13282
0.133931
0.135216
0.136661
0.138257
0.139994
0.141863
0.143854
0.145953
0.148142
0.150404
0.152722
0.155082
0.157483
0.159927
0.162421
0.164975
0.167595
0.170287
0.173055
0.1759
0.178825
0.181831
0.184918
0.188092
0.19135
0.194697
0.198132
0.201656
0.205271
0.208972
0.212762
0.216639
0.190731
0.18649
0.182349
0.178315
0.174394
0.170593
0.166921
0.163384
0.159991
0.156752
0.153675
0.150771
0.14805
0.145522
0.1432
0.141094
0.139215
0.137576
0.136191
0.135073
0.134239
0.133717
0.13376
0.134291
0.135141
0.136283
0.137699
0.139368
0.141137
0.141696
0.139982
0.138373
0.136966
0.135754
0.134729
0.133885
0.133227
0.13278
0.132733
0.133016
0.133515
0.13422
0.135121
0.136203
0.137457
0.13887
0.140433
0.142134
0.143967
0.145918
0.147976
0.150121
0.152337
0.154609
0.156925
0.159284
0.16169
0.16415
0.166672
0.169263
0.171927
0.174668
0.177488
0.180389
0.183372
0.186439
0.18959
0.192829
0.196156
0.199573
0.203079
0.206676
0.21036
0.21413
0.217988
0.187654
0.183344
0.179132
0.175024
0.171028
0.167152
0.163402
0.159786
0.156314
0.152996
0.14984
0.146857
0.144057
0.141455
0.139059
0.136882
0.134938
0.133239
0.131799
0.130634
0.129762
0.129212
0.129207
0.12974
0.130601
0.131764
0.133211
0.134926
0.136892
0.139076
0.141149
0.140949
0.139557
0.138355
0.137333
0.136491
0.135831
0.135384
0.135308
0.135577
0.13606
0.136744
0.137619
0.138672
0.139895
0.141273
0.142801
0.144466
0.146259
0.14817
0.150183
0.15228
0.154446
0.156666
0.158932
0.161244
0.163606
0.166025
0.168509
0.171066
0.173699
0.17641
0.179202
0.182078
0.185038
0.188083
0.191214
0.194433
0.197742
0.20114
0.204628
0.208205
0.21187
0.215623
0.219461
0.184716
0.180336
0.176054
0.171873
0.167803
0.16385
0.160022
0.156327
0.152775
0.149376
0.146139
0.143076
0.140197
0.137516
0.135044
0.132795
0.130782
0.12902
0.127523
0.126308
0.125396
0.124817
0.124758
0.125292
0.126165
0.127348
0.128824
0.130577
0.132589
0.134846
0.137332
0.139976
0.141972
0.141139
0.140124
0.139284
0.138625
0.138178
0.138076
0.13833
0.138795
0.139456
0.140303
0.141327
0.142515
0.14386
0.145351
0.146978
0.148731
0.150597
0.152562
0.154607
0.156718
0.158881
0.161092
0.163351
0.165662
0.168034
0.170476
0.172993
0.17559
0.178269
0.181032
0.183882
0.186817
0.18984
0.192951
0.19615
0.19944
0.20282
0.20629
0.209849
0.213497
0.217232
0.22105
0.181921
0.177475
0.173122
0.168869
0.164724
0.160695
0.156788
0.153015
0.149382
0.1459
0.142582
0.139436
0.136477
0.133716
0.131166
0.128842
0.126758
0.12493
0.123374
0.122107
0.121152
0.12054
0.120424
0.120958
0.12184
0.123043
0.124549
0.126339
0.128396
0.130705
0.13325
0.136016
0.138978
0.14194
0.143055
0.142251
0.141595
0.141148
0.141022
0.141261
0.141706
0.142343
0.143162
0.144153
0.145308
0.146618
0.148071
0.149659
0.15137
0.153189
0.155101
0.15709
0.15914
0.161242
0.16339
0.165589
0.167844
0.170163
0.172557
0.17503
0.177588
0.180232
0.182964
0.185786
0.188696
0.191698
0.194788
0.197969
0.20124
0.204603
0.208056
0.211597
0.215227
0.218943
0.222744
0.179276
0.174763
0.170341
0.166017
0.161799
0.157693
0.153709
0.149856
0.146143
0.142579
0.139177
0.135949
0.132907
0.130064
0.127434
0.125033
0.122876
0.12098
0.119361
0.11804
0.117039
0.11639
0.116216
0.116746
0.117636
0.118859
0.120394
0.122222
0.124325
0.126685
0.129288
0.132115
0.135153
0.138386
0.141762
0.144633
0.144726
0.144281
0.144135
0.144356
0.144779
0.14539
0.146179
0.147139
0.148259
0.149533
0.150948
0.152495
0.15416
0.155928
0.157784
0.159711
0.161695
0.163728
0.165808
0.16794
0.170134
0.172396
0.174738
0.177165
0.179681
0.18229
0.184989
0.187783
0.190668
0.193646
0.196717
0.19988
0.203134
0.206479
0.209915
0.213441
0.217053
0.220752
0.224535
0.176783
0.172206
0.167718
0.163325
0.159034
0.154854
0.150794
0.146861
0.143066
0.139421
0.135936
0.132623
0.129497
0.126571
0.12386
0.12138
0.119148
0.11718
0.115497
0.114118
0.113067
0.112378
0.112145
0.112666
0.113561
0.114802
0.116366
0.118233
0.120383
0.122797
0.125457
0.128347
0.131451
0.134753
0.138239
0.141887
0.145511
0.147345
0.147398
0.1476
0.148001
0.148584
0.149342
0.150269
0.151355
0.152592
0.153967
0.15547
0.157085
0.158798
0.160591
0.162449
0.164359
0.166317
0.168323
0.170386
0.172514
0.174718
0.177005
0.179385
0.181859
0.18443
0.187098
0.189863
0.192723
0.195681
0.198732
0.201877
0.205115
0.208444
0.211863
0.215372
0.218968
0.22265
0.226415
0.174447
0.16981
0.165257
0.160797
0.156437
0.152184
0.148047
0.144037
0.140162
0.136434
0.132866
0.12947
0.126259
0.123249
0.120455
0.117894
0.115584
0.113544
0.111793
0.110353
0.10925
0.108514
0.108223
0.108728
0.109625
0.110884
0.112477
0.114383
0.11658
0.119048
0.121768
0.124721
0.127891
0.131261
0.134818
0.138546
0.142431
0.146414
0.149795
0.150898
0.15135
0.151908
0.152635
0.153528
0.154579
0.155776
0.157107
0.158561
0.160123
0.161773
0.163495
0.165276
0.167106
0.168984
0.170914
0.172905
0.174968
0.177114
0.17935
0.181683
0.184116
0.186652
0.189287
0.192024
0.194861
0.197797
0.20083
0.203957
0.207178
0.210491
0.213895
0.217388
0.220967
0.224632
0.22838
0.172266
0.167573
0.162962
0.158439
0.154011
0.149688
0.145478
0.141391
0.137438
0.133629
0.129979
0.126498
0.123203
0.120109
0.117231
0.114588
0.112198
0.110082
0.108261
0.106758
0.105597
0.104812
0.104462
0.104942
0.105838
0.107112
0.108735
0.110681
0.112926
0.115449
0.118229
0.121247
0.124484
0.127923
0.131549
0.135348
0.139306
0.14341