# vtk DataFile Version 4.2
vtk output
ASCII
DATASET POLYDATA
POINTS 2562 float
-8.64565 21.0645 -2.80554
-1.7395 21.5342 -2.78262
-9.11869 3.31289 -0.176662
4.8046 3.87163 0.400686
-2.33343 6.61758 6.76534
-5.49678 16.2051 3.53914
-2.20791 7.78233 -5.61979
-8.12819 20.6363 -6.66124
4.31219 11.9245 -2.53274
4.85878 11.8798 3.578
-9.32964 17.3622 -3.96111
-12.5413 14.8295 5.53455
-12.1037 18.9088 3.21577
-9.68175 16.6309 6.27705
-7.99056 19.5917 3.35313
-1.95846 17.9873 0.198652
-3.33489 23.4144 -2.11108
-1.7728 22.5134 -4.19981
-8.54777 22.3372 -7.09765
-8.786 20.3266 -8.29706
-10.8898 21.2285 -5.38091
-12.6702 14.6911 1.01959
1.89454 14.1273 4.63855
3.23478 15.1805 2.18256
-7.81788 10.0756 5.40479
-1.80153 11.651 6.82889
-10.0567 7.97448 -1.52886
-10.5809 8.10068 2.97119
-4.87159 14.882 -3.61516
-6.22053 10.6885 -4.18511
1.95093 15.8454 -1.10326
-1.55026 17.1617 -2.31954
7.09485 6.8416 2.65073
2.24567 9.53713 6.36023
1.55649 3.96772 5.15968
-6.88472 3.85172 5.54637
-2.35872 3.71358 -0.190949
-5.47383 4.05754 -4.41566
1.1005 4.51639 -3.93683
1.67029 9.58299 -4.67388
6.54519 7.1444 -1.18758
5.6202 11.091 0.457937
-10.7496 19.6387 1.64195
-9.99351 19.5906 3.74425
-7.71402 20.046 1.19048
-11.1579 15.9873 6.27425
-11.0598 17.9588 5.47259
-12.481 16.9254 4.70048
-7.78484 18.5994 3.89002
-9.12892 18.3982 4.85737
-8.66793 16.9312 5.24998
-4.26918 22.4218 -1.09524
-4.28915 23.1754 -1.86259
-1.57637 16.3863 2.9496
-4.85846 20.3222 0.0646367
-2.60563 22.7956 -2.64841
-3.31932 22.4334 -1.58509
-2.37822 20.8194 -1.7365
-3.87506 23.0593 -3.16039
-8.87955 21.9143 -5.85889
-1.75923 22.1658 -3.58444
-2.39945 23.3614 -3.46571
-8.35021 21.6017 -7.47193
-3.08044 22.498 -3.98434
-2.62899 21.8959 -4.34101
-10.1043 22.8183 -6.9766
-10.4243 21.7735 -4.42715
-8.39395 20.8791 -8.01256
-8.77916 22.219 -8.55199
-10.5247 20.0823 -5.51495
-10.2026 21.4051 -7.26343
-9.58025 19.2185 -7.45029
-11.6661 19.2237 0.278375
-11.9778 14.6914 -1.07897
-11.5877 17.7299 -0.976237
-12.6085 17.567 2.35666
-12.6668 14.8037 3.46566
1.72775 16.2743 2.35562
1.39585 16.4484 0.647651
0.0413507 15.0215 4.65086
1.0169 15.8118 3.62289
4.29396 13.8695 2.93779
2.97988 15.0509 3.61427
3.43202 13.237 4.43654
-8.38207 14.9896 5.68612
-2.86335 13.5439 5.24347
-10.8272 13.7972 5.98165
-9.59955 14.8531 6.60144
-1.59927 9.72119 7.11045
-4.86497 11.5427 5.88213
-4.09596 6.98052 5.97052
-12.5519 11.1108 1.72638
-11.5377 11.7673 3.87672
-10.9048 10.8861 -2.62536
-11.9943 10.9396 -0.503134
-9.36584 4.69667 1.72162
-10.8522 7.74727 0.366046
-9.74877 4.44574 -1.10732
-8.59638 18.9857 -6.42272
-7.7813 15.0013 -3.76051
-8.11327 20.0068 -6.48439
-8.36134 19.7049 -7.34798
-3.84166 8.52661 -5.58479
-5.56295 14.0761 -3.83905
-2.19901 10.1781 -5.65989
-1.70884 21.3198 -4.02579
-2.80479 20.5759 -3.80661
-1.73703 18.9892 -2.14623
-1.66798 21.095 -3.49757
2.78277 13.0106 -3.15758
-0.442912 17.1408 -1.75781
3.88956 13.6739 -1.81011
6.61934 5.17215 1.75063
5.27729 5.35417 3.70667
3.60205 3.83693 2.77359
3.95904 10.7136 4.98241
5.09881 7.72779 3.96939
6.52142 8.54839 2.84104
-0.750954 5.405 6.49377
2.01149 6.50272 5.86596
0.361578 8.21428 6.89863
0.342383 3.76386 3.7016
2.0985 3.75498 0.0766841
-3.93257 4.68639 6.81009
-2.78996 3.85441 6.14537
-6.84263 3.26528 -0.103969
-4.98122 3.73804 3.74633
-8.20156 3.80899 3.62765
0.0440484 3.7997 -2.95594
2.72835 4.30248 -2.00974
-7.74239 3.72759 -2.01566
-4.44802 3.43211 -3.53835
-0.80613 6.04667 -4.97078
-2.95859 4.10163 -4.4292
-3.92285 5.44414 -4.57423
3.84322 5.98626 -2.58236
6.29415 5.37015 -0.710241
-0.305444 8.77099 -5.57307
1.71104 6.92851 -4.52776
5.42083 9.17901 -1.66912
3.82153 8.34403 -3.31937
3.2601 10.7631 -3.80185
7.23191 6.81687 0.524495
5.45144 11.6536 -1.07285
6.79711 8.4212 -0.187627
7.1313 8.38731 1.40001
5.561 11.3019 2.05468
0.316409 10.6424 6.8869
2.2249 11.8603 5.81389
0.11382 12.5669 6.04186
-8.88305 4.37001 4.78251
-7.28636 5.24662 5.57159
-9.20661 8.14022 4.48599
-5.31514 5.83906 -4.04479
-7.93882 5.04845 -2.059
-8.9939 9.34613 -3.04153
1.55496 11.7128 -4.22971
-0.589937 10.7449 -5.58437
-2.22079 14.4836 -3.55123
4.76631 13.5994 1.39212
4.70319 13.6165 -0.483379
3.21623 15.243 0.311374
-9.5674 20.257 -0.696238
-9.53731 19.7184 1.75354
-7.54266 20.877 -0.359893
-11.086 19.2693 3.51581
-10.484 19.6167 2.81436
-11.5198 19.4101 2.50699
-7.98698 19.6524 2.41921
-9.25539 19.6522 2.94614
-8.92038 19.5954 3.6781
-11.899 15.4207 5.82342
-12.0482 16.3588 5.67099
-12.567 15.823 5.29666
-10.3787 17.2426 5.86169
-11.1819 16.9308 5.99228
-10.3684 16.3415 6.27422
-12.3191 18.0787 3.87617
-11.7894 17.4799 5.10641
-11.6035 18.5367 4.38301
-7.49017 17.8273 3.76993
-8.25371 17.924 4.55252
-7.90356 17.01 4.58195
-8.5683 19.1906 4.27534
-8.40544 18.6764 4.52224
-7.92657 19.1412 3.73172
-9.18927 16.7885 5.78728
-8.94477 17.738 5.14859
-9.5167 17.5826 5.60797
-10.633 18.9216 4.59384
-10.0081 18.2358 5.30224
-9.50193 19.0819 4.44814
-5.49864 22.0849 -1.02006
-6.19114 21.736 -2.05833
-6.19951 20.5428 0.605121
-5.60705 21.5943 -0.273342
-3.75414 23.4437 -1.97167
-4.18912 23.0065 -1.47288
-3.70812 23.3562 -1.45836
-3.49637 16.2706 3.11465
-6.51344 17.8028 2.84101
-3.69781 20.2521 -0.481759
-4.59772 18.4674 1.11585
-1.40253 16.7938 1.877
-7.04361 18.6963 2.70533
-6.79681 19.3655 1.82224
-2.16498 22.1851 -2.81428
-2.55478 22.1262 -2.29726
-2.08427 21.3446 -2.35028
-3.28062 23.1515 -1.75391
-2.93026 22.7845 -2.00342
-2.87741 23.3088 -2.29436
-2.30766 19.5935 -0.944084
-2.9706 21.8733 -1.80538
-3.30118 21.3382 -1.32055
-4.48493 21.5951 -0.68269
-3.83637 21.7455 -1.03251
-3.74911 22.6269 -1.34888
-6.84886 21.3076 -3.61803
-8.80847 21.5336 -4.49784
-3.45178 23.4432 -2.60329
-4.04125 23.4546 -2.48281
-8.78357 22.1863 -6.59398
-7.43019 21.0288 -4.66399
-7.83208 20.9512 -5.2378
-1.77215 21.8827 -3.26941
-2.11134 22.5648 -3.2701
-2.04529 23.0174 -3.91687
-2.02218 22.8781 -3.58944
-1.74038 22.4107 -3.85856
-2.41555 23.19 -3.1167
-2.84251 23.3655 -2.91518
-8.26848 21.0505 -7.12361
-7.18239 20.6154 -4.80946
-6.83271 20.3796 -4.56676
-7.82223 20.9403 -5.23916
-7.6064 20.8371 -5.1112
-8.41507 22.0783 -7.47047
-2.0059 22.3455 -4.43177
-2.8976 22.2305 -4.13827
-2.26386 22.978 -4.38304
-2.91594 23.4279 -3.38072
-2.53758 23.3902 -4.01244
-3.33178 22.8096 -3.70989
-9.62455 21.9609 -5.3751
-9.71452 21.4556 -3.79543
-9.27848 22.6948 -7.23961
-9.47544 22.4305 -6.53978
-10.8521 21.6589 -4.99797
-10.3381 22.3173 -5.95019
-10.8882 22.2169 -6.30617
-8.3205 20.8403 -7.59404
-8.39056 21.4314 -8.03275
-8.71029 21.4535 -8.51782
-8.47383 21.5519 -8.54208
-8.46568 20.7474 -8.20398
-8.42667 22.0996 -8.36567
-8.826 22.572 -7.92576
-10.2772 18.8493 -5.45883
-9.94756 19.7261 -6.59515
-9.60169 18.7487 -6.5073
-10.8798 21.4534 -6.55405
-10.6103 20.8233 -6.51098
-10.9023 20.6954 -5.55462
-9.21479 19.8483 -8.00588
-9.8201 20.3451 -7.52071
-9.63664 20.8224 -8.29811
-9.68485 22.8653 -7.94255
-9.72767 22.0343 -8.23038
-10.4879 22.3302 -7.338
-10.2213 20.6909 -1.88479
-10.8779 20.5911 -3.53275
-10.6531 20.7159 -2.88679
-11.4079 19.5326 1.02193
-12.2118 19.0349 2.01258
-10.4787 15.5486 -2.16674
-10.5784 17.8781 -3.16271
-12.5954 15.9253 0.233385
-12.0292 16.1184 -0.966284
-12.4846 14.6574 -0.137698
-10.8043 19.4041 -3.98268
-10.9177 20.0747 -3.97274
-12.5979 15.9146 4.37817
-12.5749 14.8041 4.7278
-12.5402 18.354 2.79865
-12.5805 17.3266 3.56788
-13.0112 14.8593 2.10944
-12.7339 15.9085 2.85079
-12.917 15.8434 1.75712
-11.6676 18.6993 -0.375473
-12.5875 17.5839 0.972544
-12.5525 18.5514 1.60167
-1.25387 18.1438 -0.916449
-1.66513 18.9594 -1.74311
0.289809 16.5043 1.82383
-0.487182 17.1248 0.518926
2.61731 15.7802 1.70079
1.78377 16.3078 1.69956
2.4867 15.8308 2.31731
-1.11983 15.2925 4.45368
-0.432612 15.7435 4.02395
1.52079 15.0987 4.12284
0.61283 15.5115 4.15033
1.02915 14.5549 4.64484
0.114463 16.1611 3.55768
0.443391 16.3112 2.98664
4.5829 12.9838 3.28637
4.02051 13.6174 3.75628
4.19543 12.7288 4.17731
3.16918 15.1427 2.91519
3.56089 14.4607 3.26954
3.81108 14.5761 2.57353
2.68432 13.7326 4.62948
3.23285 14.2536 4.01564
2.5397 14.7014 4.12424
1.46187 16.1066 2.99779
2.03849 15.3715 3.60298
2.3684 15.6731 2.9623
-7.65002 15.8645 4.84487
-4.41302 14.9031 4.33284
-9.08449 15.8034 6.15361
-8.58292 15.9799 5.77276
-2.00102 12.3943 6.23101
-6.6417 14.4421 4.90345
-4.98097 12.9577 5.40358
-11.8199 14.3487 5.7256
-11.1156 14.8997 6.23346
-9.29357 13.8818 5.95265
-10.1537 14.4571 6.36596
-9.47505 12.7385 5.3851
-10.2617 15.2394 6.55271
-9.71319 15.4654 6.43322
-1.87811 8.3415 6.96914
-2.87581 8.62802 6.88498
-3.12444 6.68166 6.43945
-3.1604 11.267 6.74205
-2.9421 10.3118 6.89728
-1.74216 10.7779 6.92277
-6.09135 7.7434 5.2223
-4.1075 9.56279 6.83884
-6.857 11.3987 5.55358
-9.04737 14.9458 6.26342
-8.6954 14.1488 5.8517
-7.39867 13.8001 5.27419
-12.4241 13.7514 4.11697
-12.4311 13.8796 5.10054
-12.4713 12.5044 1.37665
-12.2895 13.0292 2.44586
-11.4672 9.76371 3.44812
-12.1256 11.2402 2.72221
-11.9208 9.88551 2.28756
-10.3703 12.3642 -2.64949
-11.2016 12.1737 -1.8585
-11.4713 9.64574 -1.38284
-11.4009 10.7982 -1.64715
-10.8607 9.75404 -2.19186
-11.8198 12.3478 -0.733078
-12.2967 12.4222 0.331527
-9.61133 3.8673 0.647103
-9.78643 4.41437 -0.0689299
-9.56762 3.81193 -0.721398
-11.127 8.08497 1.57387
-9.61318 5.68385 0.662814
-9.20983 5.86674 2.62917
-9.32363 5.48576 -0.956393
-9.63774 5.37707 -0.399323
-10.3101 7.6422 -0.650812
-12.5559 11.0013 0.783146
-11.7174 9.64756 -0.016185
-12.0619 9.77427 1.15762
-9.02904 18.6946 -6.15796
-8.75306 16.5629 -3.73152
-8.70293 19.4468 -7.75636
-8.98912 19.0508 -7.26333
-7.34961 13.0123 -3.79806
-8.32975 18.2087 -5.03365
-7.57239 17.1341 -4.20297
-8.15556 20.3601 -6.74538
-8.30238 20.3999 -7.4699
-8.06369 19.3988 -5.83535
-8.28755 19.9246 -7.10344
-7.6946 19.3206 -5.26499
-8.37553 20.2835 -7.84097
-8.44098 20.0006 -7.95644
-3.00363 8.10248 -5.61153
-2.98704 9.43495 -5.65038
-2.16791 8.94875 -5.65704
-5.54089 12.6783 -4.17184
-3.79567 10.1827 -5.59559
-4.51904 9.23256 -5.22204
-2.4085 11.2172 -5.54235
-3.12436 10.8334 -5.60521
-5.39679 14.6481 -3.69378
[...]
POINT_DATA 2562
SCALARS CoVolArea float 1
LOOKUP_TABLE default
0.791654
0.10576
0.212349
0.29278
0.355831
1.04182
0.207096
0.0718021
0.230784
0.321264
0.931904
0.152698
0.269279
0.175131
0.248688
0.914649
0.0679368
0.0756247
0.125168
0.147378
0.221522
0.543708
0.264331
0.174971
1.29598
0.293289
0.677792
0.899084
0.908454
1.76091
0.429111
0.987641
0.220573
0.365905
0.34348
0.402141
1.52635
0.188541
0.293969
0.361766
0.238357
0.429042
0.465184
0.250046
0.66752
0.243166
0.283986
0.280668
0.164768
0.182785
0.214126
0.144595
0.238071
0.959925
0.648988
0.119304
0.118176
0.396762
0.583179
0.262682
0.0641627
0.0634184
0.137837
0.318466
0.367956
0.196159
0.296855
0.0461634
0.152708
0.340136
0.30698
0.185268
0.530446
0.754238
1.05979
0.426832
0.433841
0.186746
0.532816
0.256937
0.180302
0.192749
0.162676
0.257298
0.309928
1.31135
0.41171
0.110093
0.307987
0.966696
0.946639
0.301452
0.676109
0.26419
0.445204
0.550649
0.786878
0.176646
0.154077
1.41359
0.100002
0.068981
0.345385
0.818713
0.286659
0.0607848
0.435074
0.165863
0.0855505
0.248816
0.572332
0.208551
0.302937
0.436812
0.453446
0.430279
0.500425
0.216281
0.557198
0.622667
0.413236
0.738102
0.713678
0.228057
0.330298
0.573896
1.06844
0.403083
0.42046
0.51727
0.391352
0.259928
0.499408
0.346839
0.30971
0.61346
0.308787
0.318099
0.342514
0.34687
0.54381
0.25634
0.29275
0.293804
0.181242
0.168194
0.399424
0.255505
0.298266
0.339823
0.241295
0.206846
0.827977
0.312006
0.441408
0.809501
0.340583
0.166787
3.70713
0.25882
0.195035
0.269002
1.08531
0.566788
1.28573
0.309616
0.280599
0.264151
0.362223
0.304969
0.195578
0.240899
0.265001
0.212259
0.235267
0.238306
0.197079
0.293228
0.328568
0.333815
0.461093
0.1909
0.428185
0.149733
0.139692
0.159865
0.170109
0.167413
0.174127
0.308899
0.244925
0.239957
0.412195
1.0446
0.520351
0.407185
0.066419
0.128767
0.0720213
0.935811
0.854433
0.770256
2.44926
0.922997
0.461334
0.497062
0.113695
0.139508
0.211593
0.0851856
0.10392
0.0813594
0.574825
0.165734
0.263387
0.270639
0.17849
0.0970619
0.812991
0.512801
0.0663406
0.37284
0.1322
0.512861
0.177329
0.0701461
0.0855667
0.0781318
0.0650121
0.0623388
0.0780331
0.0767433
0.114622
0.304924
0.201061
0.127457
0.260456
0.135662
0.0895276
0.32618
0.0915069
0.0508836
0.0675041
0.441704
0.288429
0.391555
0.165117
0.176355
0.220298
0.241035
0.20896
0.069312
0.0747014
0.173677
0.0653259
0.0635698
0.108558
0.160075
0.569319
0.358953
0.267436
0.182236
0.243762
0.18895
0.172463
0.295716
0.257659
0.18849
0.28828
0.21646
0.619146
0.436438
0.466679
0.533448
0.224507
1.67583
0.927187
0.516884
0.814303
0.450927
0.596778
0.412477
0.362278
0.213334
0.212804
0.324124
0.390809
0.534892
0.469535
0.715603
0.49393
0.243772
0.664381
0.337222
0.507137
0.652983
0.176385
0.298603
0.151049
0.516152
0.255711
0.20804
0.196516
0.275616
0.206194
0.314752
0.246584
0.200744
0.24573
0.158073
0.185997
0.163265
0.237312
0.198142
0.185844
0.167223
0.182648
0.166535
0.68784
1.41619
0.162706
0.230929
0.613372
0.858966
0.790123
0.234995
0.242868
0.457158
0.226435
0.763892
0.180794
0.170429
0.50032
0.574062
0.351671
0.699401
0.343644
0.282567
1.56848
1.12399
1.75493
0.115158
0.354136
0.555186
0.511832
0.298002
0.502065
0.752699
0.463587
0.630912
0.49493
0.903241
0.599087
0.434284
0.363276
0.354204
0.646315
0.575367
0.342449
0.245916
0.183626
0.936564
0.692693
0.864675
0.297801
0.35525
0.70957
0.325233
0.577647
0.399272
0.308175
1.06836
0.100833
0.140353
1.10126
0.346438
0.614998
0.0898765
0.0618519
0.269417
0.0891845
0.28822
0.0449741
0.0687927
0.308819
0.269598
0.244568
1.20745
0.351911
0.634003
0.321586
0.349593
0.874782
0.114354
0.290906
0.218967
0.280271
0.221279
0.0649147
0.0882077
0.188518
0.0828017
0.123813
0.120382
0.0657305
0.149135
0.120421
0.201811
0.0494481
0.0575427
0.229039
0.218943
0.206975
0.578122
0.430184
0.574257
0.276379
0.351732
0.502266
0.0564386
0.159858
0.129823
0.357569
0.406274
0.351513
0.316796
0.343543
0.223925
0.31746
0.53951
0.557531
0.378761
0.458405
0.406872
0.646219
0.560187
0.404414
0.170478
0.330596
0.317247
0.45719
0.374036
0.466622
0.539435
0.483867
0.49547
0.318779
0.43518
0.604814
0.424734
0.715807
0.732211
0.538022
0.393904
0.366711
0.476397
1.16182
0.887507
1.35077
0.213045
0.265214
0.370016
0.184664
0.390438
0.449346
0.389054
0.353638
0.577524
0.559345
1.51485
0.822969
1.26839
0.289784
0.660205
0.574214
0.48082
0.533931
1.11212
0.499266
0.355552
1.01685
0.568116
0.286446
0.29248
0.253092
0.221899
0.374252
0.210147
0.46919
0.290729
0.775557
0.89242
0.325625
0.408654
0.322688
0.481946
0.527831
0.35886
0.204888
0.276112
0.20569
0.395997
0.218345
0.46592
0.439369
0.371401
0.422896
0.60534
0.261365
0.407996
0.400666
0.27618
0.450725
0.360981
0.429048
0.363053
0.418875
0.338146
0.352685
0.384175
0.274337
0.436085
0.46573
0.233717
0.274198
0.418544
0.374098
0.428988
0.393295
0.593325
0.304745
0.23503
0.24757
0.29865
0.308996
0.2814
0.349502
0.316156
0.357106
0.357931
0.243028
0.169693
0.329682
0.33494
0.24297
0.158615
0.458677
0.330287
0.244914
0.225275
0.139731
0.167355
0.321641
0.263288
0.356156
0.28891
0.254785
0.303717
0.301095
0.265088
0.307203
0.345679
0.47967
0.231199
0.391891
0.411498
0.346627
0.277964
0.34786
0.249238
0.403074
0.198978
0.204564
0.263982
0.456007
0.351879
0.484977
0.496
0.44266
0.280163
0.57599
0.77394
0.62134
0.888245
1.03604
0.211131
0.366142
0.409278
0.380838
0.19158
0.239547
0.414379
1.06174
0.193769
0.48119
0.20493
0.353036
0.334857
0.54099
0.976391
0.535688
0.323393
0.679212
0.447427
1.04125
1.209
0.237022
0.319285
0.259262
0.244859
0.653512
0.265423
0.277389
0.191866
0.210137
0.297047
0.333851
1.57057
1.57257
1.56506
1.08229
0.30733
0.372401
0.666318
0.259458
0.283529
0.279658
0.196597
0.220801
0.221161
0.203866
0.196972
0.218804
0.222714
0.468548
0.25396
0.391057
0.488476
0.352648
0.235463
0.22225
0.297236
1.06904
1.45736
1.40295
0.488045
0.923549
0.700518
0.883641
1.05573
0.707213
0.316789
0.266326
0.256728
0.252486
0.255808
0.283613
0.287071
0.259263
0.312877
0.288209
0.224582
0.191826
0.486969
0.324497
0.472887
0.215398
0.217066
0.238179
0.356158
0.304352
0.421056
0.200766
0.218699
0.187037
0.250005
0.247064
0.246191
0.241579
0.236249
0.277191
0.209032
0.196803
0.171617
0.239578
0.217301
0.244869
0.217072
0.206083
0.228598
0.264192
0.318559
0.323266
0.323135
0.33564
0.288655
0.321911
0.322284
0.284927
0.272296
0.289646
0.314382
0.753594
0.425986
0.815408
0.168185
0.223808
0.225488
0.271176
0.239717
0.210483
0.153462
0.125515
0.172973
0.140522
0.125639
0.162736
0.14728
0.132258
0.143933
0.156989
0.155503
0.184499
0.184494
0.163279
0.174346
0.174068
0.151823
0.154922
0.167595
0.161833
0.186881
0.355834
0.328955
0.339192
0.33182
0.301454
0.230983
0.222486
0.205992
0.245502
0.294802
0.196599
0.258941
0.220275
0.200773
0.226142
0.303151
0.26358
0.289388
1.19118
1.20461
0.627689
0.769944
0.609997
0.638315
0.278449
0.446245
0.43786
0.218414
0.408596
0.313365
0.482733
0.57554
0.0551912
0.0584838
0.0660538
0.142876
0.0837769
0.0914158
0.0892255
0.0803047
0.120116
0.422947
0.21681
0.228046
1.07756
0.740176
1.51779
0.918555
0.88552
0.549299
0.2886
0.895967
1.20854
0.873001
1.22983
1.59878
0.609851
0.973336
2.05808
2.26563
0.276258
0.372576
0.224748
0.236379
0.600302
0.443567
0.767245
1.78363
1.23127
0.571574
0.105764
0.130031
0.160657
0.126029
0.126365
0.118507
0.298921
0.157287
0.197072
0.0716983
0.0710893
0.0668537
0.101193
0.0857587
0.0984191
0.100096
0.0897935
0.111915
0.65185
0.391223
0.627686
0.235509
0.317527
0.474675
0.156141
0.18819
0.125153
0.125732
0.126581
0.156092
0.582395
0.430979
0.516813
0.444035
0.198587
0.493485
0.148734
0.211547
0.312712
0.329589
0.0880592
0.108866
0.0867145
0.0980125
0.117574
0.197463
0.129555
0.13095
0.838285
0.683975
0.658507
0.9199
0.398105
0.657206
0.495415
0.0727306
0.0576778
0.503344
0.0950647
0.15713
0.0803637
0.282903
0.11862
0.202973
0.178486
0.348437
0.258303
0.168441
0.457897
0.319901
0.605094
0.660472
0.705491
0.637567
0.0884254
0.0951208
0.0724885
0.080106
0.0623512
0.102793
0.108024
0.0816937
0.0625193
0.0642209
0.059217
0.0602364
0.0736374
0.0595518
0.0621938
0.0676276
0.0730689
0.0832369
0.104203
0.0871937
0.0601208
0.064225
0.0559794
0.0751087
0.0688872
0.0880699
0.0973046
0.165027
0.135674
0.199233
0.182296
0.126487
0.333488
0.311655
0.454562
0.179957
0.189159
0.120565
0.264958
0.192909
0.261107
0.137009
0.21614
0.218041
0.0720964
0.0856027
0.0855395
0.344982
0.140274
0.127073
0.146321
0.136601
0.291872
0.296155
0.338297
0.392629
0.0894469
0.065233
0.0699766
0.0648841
0.194735
0.0994572
0.157265
0.0952252
0.0879367
0.0751005
0.11648
0.560089
0.337858
0.276621
0.380399
0.0579324
0.152307
0.167976
0.398037
0.540241
0.263298
0.334349
0.321798
0.314313
0.300231
0.146858
0.129855
0.179993
0.149741
0.170154
0.143154
0.183976
0.201176
0.180469
0.206192
0.269956
0.21557
0.249074
0.210465
0.196774
0.205267
0.228814
0.224107
0.276582
0.079888
0.0884291
0.0541366
0.0687185
0.0564412
0.0918655
0.103507
0.172953
0.0823521
0.0951815
0.0955037
0.0825345
0.166083
0.0445187
0.0544441
0.0479264
0.121682
0.141043
0.11061
0.112346
0.150895
0.125405
0.115527
0.067895
0.0911703
0.0946272
0.828815
0.394171
0.543945
0.371834
0.390681
0.456408
0.210372
0.292878
0.269077
0.199426
0.162943
0.183989
0.256309
0.176652
0.224002
0.221664
0.175838
0.257116
0.147617
0.194703
0.212636
0.247022
0.220089
0.177626
0.299911
0.242865
0.290165
0.338566
0.326572
0.339906
0.189322
0.199348
0.187254
0.184369
0.197746
0.275927
0.344112
0.30936
0.267738
0.241328
0.230013
0.21488
0.220302
0.217382
0.289629
0.241681
0.282853
0.220484
0.671379
0.405023
0.497226
0.717285
0.651065
0.293907
0.253373
0.555308
0.384667
0.575974
0.278141
0.336452
0.245333
0.235186
0.502708
0.304129
0.32307
0.303836
0.506365
0.576339
0.685927
0.725315
1.67386
1.03596
0.955467
1.17294
1.21142
0.766748
0.580621
0.469791
0.371353
0.472668
0.970985
0.539347
0.777356
0.504662
0.399142
0.655507
0.232872
0.279506
0.39843
0.281075
0.733302
0.412851
0.849094
0.985807
1.05017
0.787388
0.21024
0.183086
0.290841
0.250733
0.304111
0.28331
0.430282
0.232333
0.239633
0.367523
0.245577
0.254871
0.265704
0.291344
0.416208
0.263053
0.406269
0.464421
0.325569
0.443516
0.56463
0.414043
0.537479
0.385226
0.513784
0.527402
0.480005
0.96106
0.679234
0.650231
0.632649
0.590816
0.483984
0.616214
0.614535
0.821739
0.216918
0.376228
0.221857
0.214788
0.299944
0.601933
0.342409
0.438698
0.310615
0.24464
0.543689
0.400579
0.486498
0.46839
0.610089
0.756291
0.630495
0.418915
0.533693
0.310364
0.669606
0.617278
0.161211
0.145786
0.165568
0.422676
0.190603
0.273094
0.14394
0.145714
0.21788
0.710333
0.536981
0.622196
1.18032
0.862181
0.221831
0.325119
0.261502
0.630329
0.460688
0.237221
0.221518
0.250138
0.171541
0.191375
0.187155
0.269763
0.229909
0.220499
0.528449
0.705648
0.348063
0.408273
0.176397
0.222959
0.164155
0.205201
0.188248
0.226161
0.31127
0.24906
0.312421
0.199168
0.209334
0.215942
0.242383
0.216003
0.228606
0.167314
0.150108
0.156093
0.162246
0.154088
0.15819
0.170044
0.168247
0.188169
0.233085
0.200739
0.229597
0.232452
0.212303
0.239504
0.157749
0.172064
0.162654
0.204705
0.197546
0.215516
0.500045
0.191518
0.206971
0.258353
0.177487
0.223421
0.179719
0.177189
0.197874
0.200061
0.176611
0.162958
0.159206
0.165848
0.183107
0.194039
0.192866
0.177817
0.873349
1.40089
0.322632
0.544333
1.32
0.962721
1.2584
0.174465
0.161503
0.259141
0.161496
0.171396
0.175626
0.215348
0.375132
0.758325
0.640418
1.39584
1.03964
0.98186
0.532211
0.786557
0.505546
0.396766
0.480993
0.887712
0.194666
0.22757
0.271131
0.248093
0.29167
0.238982
0.245681
0.995006
0.512051
0.938284
0.151095
0.273143
0.18856
0.567257
0.40898
0.301065
0.18226
0.183752
0.239879
0.212117
0.115387
0.156839
0.119015
0.243608
0.181907
0.22475
0.486949
0.419681
0.335083
0.502657
0.493514
0.397294
0.501536
0.468401
0.724096
0.512378
0.306137
0.242512
0.510299
0.369695
0.822833
0.277842
0.316546
0.392587
1.35294
2.05719
1.60773
1.25695
1.91726
1.39637
1.39778
1.77906
0.927445
0.5076
0.497601
0.715737
0.188704
0.0992918
0.136904
0.151684
0.204033
1.0508
0.838821
0.9524
0.384079
0.157933
0.87422
0.370777
0.611963
0.931537
0.941836
0.166365
0.468433
0.255438
0.201515
0.186139
0.440271
0.259804
0.519696
0.356252
0.650185
0.659269
0.572603
0.459318
0.573721
0.331034
0.667218
0.651425
0.589664
0.459066
0.66727
0.730221
0.516136
0.541806
0.386729
0.439895
0.425718
0.727908
0.681413
0.772864
1.48615
1.62782
0.353135
0.660324
0.335878
1.20462
0.849134
0.561845
0.353108
0.515192
0.387676
0.328732
0.423301
0.272016
0.309019
0.317473
0.579774
0.666599
0.725229
0.643955
0.470371
0.58856
0.471992
0.420995
0.475285
0.638348
0.289016
0.210427
0.196483
0.395763
0.252001
0.425725
0.173052
0.194405
0.20548
1.01989
1.21711
0.912464
0.738721
1.02185
0.778792
0.681568
1.0576
0.613975
0.501997
0.477574
0.682797
0.21463
0.292078
0.193476
0.759968
0.507539
0.609431
0.38246
0.471341
0.27571
0.591154
0.441995
0.427596
0.346471
0.278003
0.672625
0.722043
0.728042
0.557182
0.513706
0.693733
0.33689
0.460203
0.568876
0.60814
0.456327
0.505763
0.349793
0.442926
0.851506
0.181876
0.241392
1.505
0.604444
0.739284
0.122493
0.122766
0.134207
0.105735
0.105681
0.139932
0.146749
1.38655
0.850223
1.83986
0.595212
0.614603
1.06925
0.211675
0.387265
0.192269
0.214025
0.217996
0.374989
0.0884207
0.0722518
0.0705901
0.0663777
0.085655
0.0629855
0.0539754
0.392019
0.340013
0.465135
0.071916
0.118554
0.127342
0.120302
0.111968
0.0875578
0.0612515
0.101997
0.0430936
0.0455896
0.0601514
0.0469125
0.0514074
0.071888
0.0643369
0.0549426
0.259471
0.253896
0.23789
0.304969
0.285289
0.331954
0.269308
0.251433
0.273246
1.81536
1.06776
1.14218
0.783947
0.928791
0.974362
0.405174
0.439705
0.318215
0.788828
0.853227
0.915892
0.271495
0.33606
0.242797
0.764098
0.765486
0.731931
0.286537
0.363729
0.280995
0.099687
0.0926297
0.0770311
0.0944985
0.136047
0.242417
0.397254
0.303267
0.239957
0.164034
1.14602
0.153139
0.272816
0.532953
0.457945
0.174559
0.286577
0.171272
0.165866
0.130142
0.273627
0.158003
0.367568
0.200996
0.350072
0.0769414
0.0709905
0.0677007
0.0655367
0.0607607
0.086119
0.125845
0.319693
0.109545
0.235879
0.149006
0.0921595
0.183443
0.0691054
0.0628283
0.0634688
0.134944
0.0928443
0.142253
0.134684
0.0740703
0.107103
0.0734582
0.131196
0.0560154
0.0554827
0.241281
0.183321
0.35817
0.110727
0.158452
0.109739
0.176441
0.149039
0.145849
0.0571614
0.0751923
0.0544369
0.0519862
0.0574929
0.0479746
0.0630038
0.100916
0.076416
0.0606424
0.242834
0.213108
0.235575
0.236222
0.212233
0.226176
0.200746
0.203974
0.214203
0.802609
0.877166
0.967889
0.682848
0.701028
0.517217
0.321435
0.498862
0.304443
0.413376
0.551869
0.40897
0.240158
0.315977
0.220824
0.549856
0.618266
0.677055
0.284168
0.401205
0.260911
0.0749439
0.0689464
0.0574697
0.0617628
0.0621628
0.194874
0.216423
0.193161
0.134489
0.0966351
0.238483
0.081296
0.143013
0.215891
0.218976
0.114876
0.165505
0.103019
0.355294
0.343454
0.343165
0.364716
0.357085
0.330623
0.384309
0.362635
0.441017
0.271012
0.23753
0.210625
0.346166
0.282877
0.340113
0.251227
0.270266
0.332547
0.267537
0.368197
0.397793
0.511893
0.470995
0.409219
0.584546
0.51613
0.469098
0.409233
0.437757
0.484125
0.382381
0.420044
0.417215
0.494905
0.441933
0.39698
0.316552
0.406439
0.328702
0.516171
0.476143
0.354875
0.509848
0.556194
0.6169
0.426956
0.517715
0.528621
0.181261
0.219282
0.259764
0.256465
0.226902
0.166574
0.379206
0.287153
0.391433
0.532095
0.47825
0.405037
0.450647
0.473654
0.52197
0.421781
0.422661
0.476991
0.41814
0.390407
0.389008
0.453502
0.467698
0.390383
0.50109
0.483327
0.575473
0.568383
0.507453
0.481458
0.321908
0.404165
0.499514
0.385548
0.373334
0.345218
0.63585
0.467816
0.510756
0.43146
0.483284
0.4163
0.368954
0.482232
0.39473
0.379358
0.435044
0.731224
0.765897
0.765737
0.755928
0.630985
0.623127
0.609001
0.727835
0.714883
0.750612
0.576702
0.734728
0.575762
0.38666
0.337128
0.456856
0.412883
0.507485
0.478886
0.654565
0.329939
0.292562
0.541643
0.369823
0.471187
0.348785
0.446965
1.35904
1.17734
1.45763
0.884929
1.0359
0.925607
1.10176
1.01959
0.797141
0.561867
0.679063
0.734891
0.300859
0.306842
0.183286
0.211428
0.176794
0.348564
0.470632
0.476916
0.334979
0.421786
0.200105
0.213179
0.260634
0.34679
0.270179
0.212099
0.404309
0.352836
0.578508
0.53931
0.390789
0.412422
0.314376
0.213987
0.262239
0.373583
0.288238
0.447738
0.395676
0.559376
0.476269
0.440561
0.505857
0.542822
0.570269
1.56759
1.38473
1.49758
0.986705
1.14739
1.31044
0.815705
1.03066
0.717184
0.282143
0.391603
0.471308
0.530261
0.417326
0.320618
0.760391
0.565318
0.83625
0.659044
0.787595
0.687542
0.393642
0.449287
0.426417
0.428672
0.611097
0.536704
0.82674
0.593057
0.416959
0.40564
1.65027
0.992691
1.42631
1.50844
1.1853
0.53537
0.789111
0.719415
0.339098
0.331805
0.565018
0.424234
0.452801
0.411967
0.487629
1.4564
1.20982
0.417078
0.758221
0.605492
0.898832
0.700737
0.243156
0.213905
0.26141
0.401735
0.267235
0.395566
0.31103
0.224633
0.273195
0.543184
0.378794
0.442173
0.198392
0.247735
0.388973
0.279077
0.290314
0.322308
0.434826
0.204459
0.252098
0.204274
0.362672
0.292351
0.203467
0.364644
0.376418
0.452312
1.30777
1.44296
0.641136
0.995556
0.441798
0.853833
0.52766
0.501851
0.610278
0.558725
0.254865
0.287824
0.260715
0.474498
0.369997
0.438019
0.359062
0.356381
0.362736
0.344158
0.38896
0.304259
0.417358
0.505188
0.511779
0.438592
0.473906
0.52328
0.180961
0.19489
0.199823
0.285854
0.22258
0.231977
0.229007
0.20721
0.270545
0.481628
0.392988
0.370054
1.03749
0.290307
0.493322
0.636891
0.531696
0.215342
0.29576
0.212261
0.183562
0.197705
0.386702
0.485254
0.399896
0.512469
0.464366
0.295349
0.364216
0.450167
0.355748
0.364221
0.534407
0.396331
0.340925
0.358398
0.348198
0.339625
0.338312
0.585382
0.49408
0.541917
0.456489
0.568311
0.233278
0.289129
0.316302
0.322456
0.307454
0.274742
0.523665
0.371259
0.50766
0.59233
0.572338
0.453792
0.250632
0.292019
0.391856
0.342037
0.293092
0.395745
0.489772
0.377099
0.361456
0.350722
0.37119
0.365766
0.348821
0.339435
0.390644
0.408446
0.310619
0.337712
0.471552
0.378187
0.326923
0.324908
0.351794
0.471673
0.447722
0.490434
0.311529
0.314517
0.275803
0.401253
0.362377
0.371884
0.261485
0.3153
0.318219
0.322274
0.292882
0.209658
0.500611
0.414425
0.533626
0.278465
0.336874
0.391213
0.294911
0.313757
0.357401
0.322994
0.321913
0.255728
0.453146
0.383618
0.4767
0.459374
0.500989
0.415621
0.414741
0.368314
0.383089
0.461871
0.577033
0.391246
0.514282
0.404156
0.362404
0.361705
0.46515
0.633949
0.557335
0.572508
0.605563
0.418331
0.523871
0.544224
0.370673
0.315366
0.344718
0.339025
0.309882
0.222715
0.218852
0.253541
0.226685
0.268182
0.247872
0.283849
0.244428
0.272329
0.280919
0.25469
0.310514
0.300622
0.301966
0.279878
0.273601
0.296065
0.280511
0.326232
0.334774
0.315279
0.279298
0.353951
0.353738
0.426529
0.401178
0.381714
0.249923
0.322111
0.227423
0.309741
0.394217
0.36941
0.177285
0.195714
0.291078
0.218682
0.161254
0.168572
0.195558
0.371659
0.304073
0.335174
0.397323
0.360918
0.254707
0.363925
0.34381
0.380233
0.402546
0.251722
0.174325
0.167591
0.161858
0.192943
0.141084
0.166854
0.398041
0.367318
0.381678
0.432686
0.4361
0.442321
0.176096
0.277851
0.211227
0.234492
0.234874
0.338
0.22618
0.190536
0.206643
0.260111
0.278889
0.308015
0.141609
0.175333
0.210828
0.181564
0.323562
0.253452
0.275339
0.239613
0.16457
0.177289
0.137993
0.199987
0.536436
0.427503
0.431639
0.389404
0.242462
0.31017
0.262842
0.296212
0.260749
0.243153
0.307332
0.396373
0.251479
0.234691
0.227299
0.26259
0.258469
0.277908
0.29793
0.387663
0.355061
0.279019
0.303612
0.281529
0.265877
0.318346
0.351363
0.305532
0.257291
0.248156
0.249696
0.279703
0.25716
0.272633
0.331867
0.342521
0.3538
0.345547
0.324979
0.314828
0.279484
0.296769
0.284588
0.322088
1.10585
0.939343
1.0496
0.451661
0.329525
0.228058
0.263128
0.338684
0.273888
0.271491
0.414726
0.681146
0.307481
0.318298
0.344141
0.34206
0.361865
0.358084
0.381591
0.486928
0.438218
0.423503
0.339283
0.33467
0.322398
0.268841
0.248072
0.364388
0.365139
0.363586
0.338113
0.340784
0.246371
0.244756
0.238812
0.243993
0.30843
0.33346
0.324607
0.272865
0.482175
0.369514
0.523809
0.469826
0.471331
0.235571
0.213704