<VTKFile type="ImageData" version="1.0" byte_order="LittleEndian" header_type="UInt64">
	<ImageData WholeExtent="0 44 0 44 0 44" Origin="-0.13317 -0.00547991 -0.100469" Spacing="0.00528952 0.00528952 0.00528952">
		<Piece Extent="0 44 0 44 0 44">
			<PointData Scalars="Scalars_">
				<DataArray type="Float32" Name="Scalars_" format="ascii" RangeMin="0" RangeMax="100">
0.121683
0.118893
0.115556
0.111953
0.108489
0.105176
0.10203
0.0990675
0.0963042
0.0937581
0.0913879
0.089122
0.0871159
0.0853332
0.083715
0.0824033
0.0814147
0.0807612
0.0804509
0.0804878
0.0808434
0.0813248
0.0821189
0.0832074
0.0843036
0.0854325
0.0867949
0.0873287
0.0878689
0.0886931
0.0897895
0.0909326
0.0921761
0.0936975
0.095488
0.0975328
0.0998163
0.102323
0.104948
0.107614
0.110391
0.113267
0.116308
0.1193
0.12237
0.120078
0.11725
0.113848
0.11019
0.106668
0.103297
0.100093
0.0970706
0.0942487
0.0916455
0.0892381
0.0869224
0.0848641
0.0829709
0.0813038
0.0799526
0.0789333
0.0782591
0.0779388
0.0779769
0.0783313
0.078818
0.0796371
0.0807703
0.0819106
0.08307
0.084408
0.0849316
0.0854912
0.0863381
0.0874668
0.0886459
0.0899222
0.091481
0.0933141
0.0954055
0.0977387
0.100123
0.102625
0.105332
0.108145
0.111074
0.113896
0.116869
0.120002
0.118687
0.115825
0.112364
0.108656
0.105083
0.101659
0.0984013
0.0953256
0.0924505
0.0897952
0.0873525
0.0849955
0.0828731
0.0808841
0.0791731
0.0777848
0.0767368
0.0760431
0.0757135
0.0757526
0.076102
0.076595
0.0774376
0.0786118
0.0797968
0.0809845
0.0822696
0.0828031
0.0833816
0.0842497
0.0854088
0.0866222
0.0879291
0.0895226
0.0913943
0.093432
0.0955537
0.0978859
0.100443
0.103132
0.105933
0.108734
0.111598
0.114631
0.117824
0.117519
0.114627
0.111112
0.107361
0.103743
0.100274
0.0969693
0.0938467
0.0909249
0.0882236
0.0857486
0.0833603
0.0811526
0.0790966
0.077346
0.0759244
0.0748503
0.0741389
0.0738008
0.073841
0.0741811
0.0746811
0.0755451
0.0767556
0.0779849
0.0791979
0.0800854
0.0806584
0.0815246
0.0824484
0.083635
0.0848801
0.0862043
0.0877663
0.0894802
0.0913403
0.0933244
0.0955605
0.0980313
0.10072
0.103608
0.106588
0.109508
0.112598
0.115846
0.116578
0.113663
0.110101
0.106313
0.102659
0.0991516
0.0958083
0.0926466
0.0896857
0.086946
0.0844424
0.0820339
0.0797249
0.0776289
0.0758445
0.0743942
0.0732977
0.0725711
0.0722256
0.0722667
0.072593
0.0731007
0.0739831
0.075224
0.0764964
0.07749
0.0777539
0.0783439
0.0792247
0.0801822
0.081435
0.0827177
0.084058
0.0856392
0.0871486
0.0889119
0.090949
0.0932421
0.0957727
0.0985226
0.101474
0.104609
0.107638
0.11078
0.11408
0.115841
0.112939
0.109336
0.105521
0.101838
0.0983015
0.0949283
0.0917363
0.088745
0.0859753
0.0834478
0.0810158
0.0786257
0.0764996
0.0746882
0.073215
0.0721006
0.0713618
0.0710104
0.0710522
0.0713601
0.0718756
0.0727729
0.0740372
0.0747132
0.075209
0.0757208
0.0763265
0.0772169
0.0781912
0.0794755
0.0807114
0.0821288
0.0834183
0.08493
0.0867384
0.0888255
0.091172
0.0937585
0.0965657
0.099575
0.102769
0.105999
0.109188
0.112535
0.115314
0.112445
0.108823
0.104989
0.101287
0.0977307
0.0943371
0.0911244
0.0881123
0.0853221
0.0827762
0.0803076
0.0778711
0.0757238
0.0738934
0.072404
0.0712769
0.0705295
0.0701739
0.0702162
0.0705026
0.0710243
0.0719322
0.0724321
0.0725588
0.0730693
0.0739014
0.0745965
0.0753925
0.0764996
0.077626
0.0788082
0.0802076
0.0814421
0.0829898
0.0848396
0.0869722
0.0893674
0.0920046
0.0948637
0.0979253
0.101166
0.104458
0.107817
0.11122
0.115029
0.112141
0.108566
0.104723
0.10101
0.0974441
0.0940402
0.090817
0.0877944
0.0849937
0.0824377
0.0799221
0.0774711
0.0753124
0.0734717
0.0719736
0.0708396
0.0700876
0.0697298
0.0697723
0.0700352
0.0705603
0.0708598
0.0706052
0.0707352
0.0712587
0.0721496
0.0730622
0.0738699
0.0749397
0.0758509
0.0770582
0.0784556
0.0797682
0.0813477
0.083234
0.0854067
0.0878446
0.0905262
0.0934306
0.0965377
0.0997836
0.103054
0.106456
0.110008
0.113876
0.111093
0.108437
0.104723
0.101011
0.0974443
0.0940404
0.0908171
0.0877945
0.0849938
0.0824378
0.0798834
0.0774312
0.0752713
0.0734296
0.0719306
0.070796
0.0700434
0.0696854
0.0697275
0.0698163
0.0692085
0.0688657
0.0688862
0.069193
0.0697798
0.0706026
0.0715623
0.0726262
0.0734602
0.0744079
0.0756368
0.0770128
0.078416
0.0800223
0.0819391
0.0841452
0.0866186
0.0893371
0.0922789
0.0954196
0.0986273
0.101905
0.105344
0.108932
0.111992
0.109253
0.106624
0.104005
0.101266
0.0976995
0.0942954
0.0910714
0.0880473
0.0852444
0.0826853
0.0801943
0.0777519
0.0756012
0.0737678
0.0722758
0.0711466
0.0703979
0.0700416
0.0689254
0.067974
0.0673833
0.0670241
0.0670486
0.067489
0.0683245
0.0690285
0.0700232
0.0711682
0.0723355
0.0733189
0.074558
0.0759051
0.0773885
0.0790293
0.0809696
0.0832015
0.0857021
0.0884487
0.0914191
0.0945503
0.0977143
0.10102
0.104488
0.108105
0.110236
0.107481
0.104851
0.102252
0.0997948
0.0975052
0.0947698
0.0915625
0.0885552
0.0857689
0.083226
0.0808509
0.0784289
0.0762973
0.074481
0.0730035
0.0718858
0.0702032
0.0686243
0.067256
0.0662827
0.0657221
0.0655304
0.0655838
0.0660339
0.0668996
0.0678288
0.0688156
0.0699626
0.0712641
0.0725999
0.0738361
0.0751499
0.0766748
0.0783815
0.0803375
0.0825864
0.0851051
0.0878655
0.0907918
0.0938623
0.0970777
0.100406
0.103895
0.107503
0.108578
0.105786
0.103182
0.100659
0.0981975
0.0959386
0.0939073
0.0920703
0.0893738
0.0866139
0.0840965
0.0817871
0.079453
0.0773496
0.0748204
0.072418
0.0703321
0.0685915
0.0672231
0.0659695
0.064977
0.064405
0.0642647
0.0644966
0.0649469
0.0657886
0.0668492
0.0678238
0.068872
0.0702511
0.0717089
0.0732082
0.0747621
0.0762956
0.0780871
0.0800506
0.0823071
0.0847882
0.0874443
0.0903091
0.0933859
0.0966544
0.100048
0.103477
0.106976
0.107154
0.104324
0.10169
0.0992383
0.096848
0.0945621
0.0925172
0.0907349
0.0891291
0.0876469
0.0852867
0.0823181
0.0792694
0.0763111
0.0735779
0.0711336
0.0690089
0.067234
0.0658374
0.064833
0.0639845
0.0634187
0.0632901
0.0635545
0.0639495
0.0647435
0.065951
0.067112
0.068161
0.069491
0.0707594
0.0722922
0.0738871
0.0757275
0.0775465
0.0795465
0.0818401
0.0844033
0.087199
0.0900721
0.0931288
0.0963756
0.0997112
0.103082
0.106488
0.105976
0.103114
0.100448
0.0979957
0.0957016
0.0934652
0.0913957
0.0895793
0.0878712
0.0863916
0.0846088
0.0813291
0.0782627
0.0754157
0.0727
0.0702251
0.068072
0.0662721
0.0648548
0.0638455
0.0631409
0.0625921
0.0624668
0.0627191
0.0632076
0.0640284
0.0651078
0.0664283
0.0674753
0.068499
0.0698789
0.0714583
0.0732186
0.0750863
0.0770271
0.0791157
0.0814275
0.0840032
0.08681
0.0896901
0.0927273
0.0959242
0.0992041
0.102534
0.105946
0.105052
0.102163
0.0994719
0.0969949
0.0947457
0.0926185
0.0905697
0.0886903
0.0869163
0.0854202
0.0838422
0.0806096
0.0775519
0.0747198
0.0721308
0.0696698
0.0675063
0.0656976
0.0642738
0.0632482
0.0624235
0.062007
0.0618741
0.0620331
0.06264
0.063551
0.0644672
0.0654723
0.0668546
0.0678913
0.0692808
0.0708357
0.0726567
0.0747991
0.0767377
0.0788832
0.0813102
0.0839188
0.0866793
0.0894512
0.0923996
0.0955287
0.0988352
0.10219
0.105578
0.104387
0.101479
0.0987698
0.0962748
0.0940114
0.0919518
0.0899524
0.0880597
0.0862758
0.0847683
0.0832769
0.0800118
0.076972
0.0741853
0.0716572
0.0692771
0.0671086
0.0652954
0.06387
0.0627558
0.0619244
0.0615379
0.0615559
0.0617707
0.0623802
0.0632584
0.0638864
0.0649005
0.0663222
0.0676904
0.0690768
0.0706051
0.0724319
0.0745898
0.0768121
0.0789555
0.0813848
0.0839522
0.0865863
0.0893042
0.092235
0.0953693
0.0986587
0.101971
0.105352
0.103988
0.101069
0.0983476
0.0958416
0.0935677
0.0914466
0.0894272
0.0876414
0.0859556
0.084427
0.0828289
0.0797427
0.0766923
0.073895
0.0713806
0.0691545
0.0670797
0.0652652
0.0638386
0.0627049
0.0618742
0.0614763
0.0613237
0.0614703
0.0620691
0.0629192
0.0636838
0.0646478
0.0659771
0.0674408
0.0691166
0.0706602
0.0725391
0.0747281
0.0771916
0.0793811
0.0817459
0.0841934
0.0867449
0.089447
0.0923733
0.095503
0.0987495
0.101891
0.105119
0.103856
0.100934
0.0982089
0.0956992
0.0934176
0.0912272
0.0891986
0.0874434
0.0858967
0.084147
0.082545
0.079824
0.0767768
0.0739827
0.0714714
0.0692625
0.0671706
0.0653577
0.0639321
0.0629157
0.0620847
0.0615723
0.0613781
0.0615247
0.0621055
0.0628413
0.0636265
0.0645719
0.065891
0.0673505
0.069156
0.0708492
0.0727534
0.074983
0.077458
0.0798286
0.0821817
0.0845584
0.0871088
0.0898574
0.0928034
0.095882
0.0987409
0.101795
0.105026
0.103903
0.100801
0.0978714
0.0951312
0.0925979
0.090298
0.0882555
0.0864839
0.0848918
0.0835881
0.0824764
0.0802366
0.077197
0.0744078
0.0718984
0.0696776
0.0675945
0.0657932
0.0643773
0.0633326
0.0624238
0.0618934
0.0618115
0.0620288
0.0625472
0.0630703
0.0639267
0.0649225
0.0662281
0.0676748
0.0694719
0.0714181
0.0733075
0.0755208
0.0777921
0.0800156
0.0824397
0.0849527
0.0875498
0.0903313
0.0933002
0.0960717
0.0989252
0.101973
0.105194
0.100755
0.0975195
0.0944563
0.0915939
0.0889542
0.0865575
0.0844246
0.0825662
0.0808907
0.0795214
0.0784855
0.0777963
0.0774629
0.0749806
0.0724842
0.0702979
0.06839
0.0666471
0.0652436
0.0641325
0.0631845
0.0626606
0.0625555
0.0627165
0.0631252
0.0636507
0.0645626
0.0656953
0.0669763
0.0684078
0.0701861
0.0720422
0.0739703
0.0759871
0.0781582
0.0804044
0.0828905
0.0855328
0.0882474
0.0909532
0.0937941
0.0965513
0.0993758
0.102359
0.105495
0.0977211
0.094366
0.0911945
0.0882263
0.0854826
0.0829857
0.0807586
0.0788043
0.0770451
0.0756063
0.0745159
0.0737896
0.073438
0.0734444
0.0734378
0.0712807
0.0694598
0.0678029
0.0662856
0.0651415
0.0643536
0.0638255
0.0635321
0.0635877
0.0640579
0.06466
0.0655586
0.0666606
0.0679061
0.069484
0.0711565
0.0727379
0.0746503
0.0766562
0.0788463
0.0811369
0.0836018
0.0863051
0.0890059
0.0916274
0.094448
0.0972099
0.099954
0.102889
0.106007
0.0948674
0.0914076
0.0881296
0.0850545
0.082205
0.0796048
0.0772459
0.0751318
0.0732986
0.0718062
0.0706759
0.0699252
0.0695063
0.0694279
0.0697154
0.0703977
0.0708234
0.0690888
0.0675791
0.0664572
0.0657411
0.0651968
0.0648233
0.0648778
0.0653618
0.0660744
0.0669389
0.0679225
0.0691364
0.0707069
0.0722491
0.0738071
0.0756946
0.0776806
0.0798498
0.0821981
0.0846377
0.0873073
0.0898076
0.0923984
0.0952127
0.0980585
0.100772
0.103684
0.106778
0.0922289
0.0886662
0.0852829
0.0821013
0.0791399
0.0763846
0.0738509
0.0715933
0.069665
0.0680939
0.0669052
0.0661158
0.0656084
0.065484
0.0657861
0.0665087
0.0676386
0.0691452
0.0692535
0.0681592
0.0674125
0.0668647
0.0665113
0.0665645
0.0670362
0.0678357
0.0686547
0.0695379
0.0706736
0.0721459
0.0736554
0.0751458
0.0769481
0.0790045
0.081148
0.0834797
0.0859758
0.0885802
0.0908985
0.093459
0.0962314
0.0990895
0.101854
0.10474
0.107804
0.0898247
0.0861627
0.082677
0.0793752
0.0762456
0.0733127
0.0706431
0.0682796
0.0662549
0.0646009
0.0633466
0.0624518
0.0618708
0.0617389
0.0620591
0.0628247
0.063974
0.0654747
0.0673579
0.0695931
0.0692626
0.0688011
0.0685668
0.0686136
0.0690123
0.0697089
0.0704746
0.0712699
0.0723035
0.0737031
0.0752329
0.076669
0.0784358
0.0804919
0.0826095
0.0848971
0.0874452
0.0899974
0.0922801
0.0948033
0.0974866
0.100237
0.103081
0.106032
0.109077
0.0876741
0.083918
0.0803046
0.0768328
0.0735355
0.0704784
0.0676971
0.0652269
0.0631043
0.0613603
0.0600054
0.0589894
0.0583737
0.0582338
0.058562
0.0592802
0.0604349
0.0620207
0.0639978
0.0662959
0.0688788
0.070999
0.0708659
0.0708253
0.0711407
0.071739
0.0724127
0.073216
0.0742225
0.0755866
0.0771179
0.0785192
0.0802453
0.0822653
0.0843644
0.0866056
0.0891048
0.0915864
0.0939397
0.0964052
0.0989726
0.10162
0.104433
0.107432
0.11055
0.0857919
0.0819044
0.0781299
0.0745124
0.0711047
0.0679383
0.0650467
0.062447
0.0601703
0.0582551
0.0567579
0.0557245
0.0551564
0.0549639
0.0552037
0.055944
0.0571435
0.0587432
0.0607145
0.063059
0.0657464
0.0687364
0.0719913
0.0732728
0.0735756
0.0740597
0.0746596
0.0754819
0.0764599
0.0777848
0.0793112
0.0806744
0.0823553
0.084331
0.086407
0.0885974
0.0910132
0.0930811
0.0953979
0.0979407
0.100577
0.103252
0.106023
0.108979
0.112107
0.0841366
0.0801048
0.0762145
0.0725013
0.0689781
0.0656644
0.0625936
0.0598156
0.0573916
0.0553682
0.0537908
0.0526992
0.0521241
0.0518892
0.0520971
0.0527772
0.053926
0.0555543
0.0576239
0.0600891
0.0629034
0.0660223
0.0694047
0.0730139
0.0762754
0.0766449
0.0772041
0.0780352
0.0789888
0.0802719
0.0817624
0.0831108
0.0847434
0.086668
0.0887157
0.0908508
0.0928094
0.0948477
0.0971223
0.099626
0.10232
0.105022
0.107849
0.110756
0.113835
0.0827044
0.0785857
0.0745824
0.0707225
0.0670368
0.0635763
0.0603814
0.0574965
0.0549703
0.0528544
0.0511995
0.0500515
0.0494155
0.0489812
0.0490872
0.0497585
0.0509728
0.0526925
0.0548701
0.0574536
0.0603909
0.063633
0.0671358
0.0708607
0.0747744
0.0788333
0.0800178
0.0808482
0.0817819
0.0830191
0.0844254
0.0858045
0.0873868
0.089255
0.0910676
0.0928312
0.094825
0.0968712
0.0990993
0.101554
0.104023
0.106632
0.109435
0.112372
0.115352
0.0814398
0.0772591
0.0731415
0.0691793
0.0654051
0.0618534
0.0585647
0.0555855
0.0529683
0.050769
0.0490327
0.0477321
0.046807
0.0463177
0.0464298
0.047139
0.048419
0.0502262
0.0525062
0.0552004
0.0582514
0.0616051
0.0651923
0.068968
0.0729032
0.0769723
0.0799397
0.0810297
0.0824454
0.0841701
0.0861856
0.0884717
0.0902576
0.0918036
0.0933242
0.0950649
0.097017
0.0990529
0.101219
0.103542
0.105913
0.108477
0.111233
0.114116
0.117047
0.0804402
0.0762194
0.0720384
0.068012
0.0641693
0.0605451
0.0571811
0.0541259
0.0514298
0.0490799
0.047103
0.0455499
0.0445389
0.0441224
0.0442477
0.0449913
0.0463306
0.0482162
0.0505778
0.0533234
0.0563949
0.059742
0.0633218
0.0671182
0.0711056
0.0752537
0.0779979
0.0791147
0.080564
0.0823282
0.0843876
0.0867212
0.0893074
0.092125
0.0951535
0.0974717
0.099378
0.10131
0.103425
0.105703
0.108029
0.110544
0.11325
0.116074
0.118954
0.0786704
0.0750267
0.0712916
0.0672044
0.0632907
0.0595848
0.0561279
0.0529687
0.0501616
0.0475808
0.0453975
0.0437481
0.0426944
0.0422811
0.0424927
0.0432629
0.0445617
0.0463852
0.0487174
0.0514892
0.0546009
0.0580046
0.0616748
0.0655666
0.0696429
0.0738732
0.0763737
0.0775139
0.0789926
0.0807911
0.0828887
0.0852633
0.0878925
0.090754
0.0938268
0.0970906
0.100527
0.103781
0.105846
0.108076
0.110359
0.112821
0.115474
0.118236
0.121062
0.0772231
0.0735076
0.0699867
0.0665143
0.0625312
0.0587547
0.0552271
0.0519991
0.0491228
0.0464639
0.0442229
0.0425237
0.0413778
0.0407858
0.0407833
0.0414391
0.0427444
0.0446421
0.0470608
0.0499247
0.0531619
0.0566973
0.0604472
0.0644132
0.0685581
0.0728514
0.0750305
0.0762463
0.07775
0.0795766
0.0817054
0.0841134
0.0867774
0.0896746
0.0927831
0.0960824
0.0995535
0.103179
0.106944
0.11053
0.112794
0.115227
0.117844
0.120576
0.123361
0.0761165
0.0723443
0.0687404
0.0651857
0.061799
0.0582528
0.0546783
0.0513994
0.0483585
0.0456067
0.0432908
0.0415216
0.0402566
0.0395297
0.039504
0.0401807
0.0415255
0.0434765
0.0459566
0.0488852
0.0521869
0.0557956
0.059655
0.0636797
0.0678695
0.0722037
0.0739402
0.0752007
0.07677
0.0786485
0.0808237
0.0832724
0.0859711
0.0888973
0.092032
0.0953573
0.0988539
0.102504
0.106293
0.110205
0.114228
0.117653
0.120233
0.122974
0.125774
0.0753658
0.071554
0.0678694
0.0642247
0.0607844
0.0575744
0.0541614
0.0508263
0.0477639
0.0449794
0.0426257
0.0408254
0.0396471
0.0389339
0.0389077
0.0395947
0.0409587
0.0429355
0.0454451
0.0484047
0.0517371
0.0553751
0.0592624
0.0633531
0.067589
0.0719401
0.0730889
0.0743266
0.0759134
0.0778281
0.0800471
0.0825459
0.0852998
0.0882851
0.0914775
0.0948524
0.0983908
0.102076
0.105892
0.109822
0.113852
0.117977
0.12219
0.125452
0.128224
0.0749817
0.0711474
0.0673881
0.0636899
0.0602191
0.0569098
0.0536179
0.0503531
0.0473338
0.0447288
0.0425387
0.0408068
0.0396117
0.038982
0.0389992
0.039707
0.041071
0.0430426
0.0455463
0.0484997
0.051826
0.0554581
0.05934
0.0634257
0.0676784
0.0716862
0.0725631
0.0738096
0.0754073
0.0773345
0.0795673
0.0820807
0.0848497
0.0878503
0.0910595
0.0944561
0.0980205
0.101735
0.105584
0.109553
0.113601
0.117731
0.12195
0.12625
0.130623
0.0749697
0.0711203
0.067305
0.0635921
0.0601075
0.0567047
0.0533275
0.050195
0.0473488
0.0447767
0.0426809
0.0411365
0.0398896
0.0392625
0.039343
0.0401266
0.0415738
0.0436129
0.0461539
0.0491186
0.0524352
0.0560412
0.0598865
0.0639374
0.0681581
0.0715422
0.0724208
0.0736697
0.0752704
0.077201
0.0794376
0.0819549
0.0847281
0.0877329
0.0909462
0.0943468
0.0979153
0.101634
0.105487
0.109459
0.11354
0.117712
0.121939
0.12624
0.130613
0.0753154
0.0713788
0.0675841
0.0639333
0.0604345
0.0569641
0.0535489
0.0504303
0.0476959
0.0453686
0.0433744
0.0418808
0.0407878
0.0401747
0.0402533
0.0410196
0.0424364
0.0444415
0.0469595
0.049913
0.0532295
0.0568454
0.0606796
0.0646766
0.0688481
0.0717887
0.0726643
0.0739091
0.0755047
0.0774295
0.0796596
0.0821702
0.0849364
0.087934
0.0911402
0.0945339
0.0980955
0.101807
0.105654
0.109621
0.113695
0.117866
0.122124
0.126449
0.130817
0.0759175
0.0719735
0.068212
0.0646646
0.0611925
0.0576816
0.0542872
0.0512136
0.0485234
0.0462836
0.0445494
0.0431364
0.0422353
0.0417425
0.0418181
0.0425562
0.0439235
0.0458636
0.0483075
0.0511833
0.0544224
0.057964
0.0617508
0.0656839
0.0697952
0.0724217
0.0732898
0.0745241
0.0761069
0.0780168
0.0802306
0.0827238
0.0854721
0.0884515
0.0916397
0.0950155
0.0985597
0.102255
0.106085
0.110036
0.114096
0.118253
0.122497
0.12682
0.131214
0.0768419
0.072948
0.0692394
0.0657338
0.0622802
0.0588403
0.0555219
0.0525206
0.0499009
0.0477258
0.0460576
0.0446911
0.0438194
0.0435768
0.0438688
0.0446355
0.0459709
0.0478314
0.0501797
0.0529539
0.0560908
0.0595332
0.0632313
0.0670943
0.0711242
0.0734313
0.0742876
0.0755056
0.0770682
0.0789549
0.0811431
0.0836091
0.0863291
0.08928
0.0924396
0.0957872
0.0993039
0.102972
0.106777
0.110703
0.114739
0.118874
0.123097
0.127399
0.131774
0.0781144
0.0742872
0.0706489
0.0671683
0.0637178
0.0604206
0.0572208
0.0543135
0.0517846
0.0496919
0.0480924
0.0467928
0.045961
0.0457298
0.0461082
0.0469674
0.0482822
0.0501236
0.0524359
0.0551477
0.0581907
0.0615187
0.065104
0.0688831
0.072814
0.0748021
0.0756429
0.0768394
0.0783754
0.0802314
0.0823857
0.0848156
0.0874982
0.0904109
0.0935323
0.0968421
0.100322
0.103954
0.107724
0.111617
0.115622
0.119726
0.123919
0.128194
0.132543
0.0797182
0.0759718
0.0724169
0.0689451
0.0655512
0.0623915
0.0593441
0.056546
0.0541215
0.0521228
0.0506003
0.0493741
0.0485865
0.0483678
0.0487258
0.049648
0.0509835
0.0527306
0.0549333
0.0575394
0.0604967
0.0637565
0.0672746
0.0709977
0.0748403
0.076439
0.077337
0.0785077
0.0800117
0.0818306
0.0839438
0.0863299
0.0889668
0.0918329
0.0949076
0.0981711
0.101605
0.105193
0.10892
0.112772
0.116737
0.120803
0.124961
0.129201
0.133517
0.0816338
0.0779795
0.0744954
0.0710424
0.0677489
0.0647172
0.0618461
0.0591684
0.0568559
0.0549567
0.0535148
0.052364
0.051622
0.0514163
0.0517532
0.0526223
0.053998
0.0557191
0.057808
0.06029
0.0631186
0.0662494
0.0696418
0.0732593
0.0770703
0.0783185
0.0792507
0.0804866
0.0819573
0.0837339
0.0858003
0.0881361
0.0907205
0.0935329
0.0965534
0.0997631
0.103144
0.106681
0.110358
0.114161
0.118079
0.1221
0.126215
0.130415
0.134692
0.0838399
0.0802861
0.0768512
0.0734571
0.0702769
0.0673624
0.0646691
0.0621314
0.0599333
0.0581347
0.0567737
0.0556969
0.0549999
0.0548068
0.055123
0.0559398
0.0572358
0.0589784
0.0610068
0.0633636
0.0660607
0.0690583
0.072319
0.0758088
0.0794977
0.0805022
0.0814094
0.0826459
0.08418
0.0859211
0.0879361
0.0902167
0.0927431
0.095496
0.0984563
0.101606
0.104928
0.108406
0.112026
0.115775
0.11964
0.123611
0.127677
0.13183
0.136062
0.0863142
0.0828595
0.0794598
0.0761631
0.0731007
0.0703034
0.0677704
0.0653887
0.0633002
0.0615715
0.0602575
0.0593139
0.0586608
0.0584798
0.0587763
0.059543
0.0607622
0.0624073
0.0644429
0.0667155
0.0692823
0.0721461
0.0752732
0.078632
0.0821943
0.0829662
0.0838468
0.0850478
0.0865559
0.0883491
0.0903316
0.0925532
0.0950175
0.0977063
0.100602
0.103686
0.106943
0.110358
0.113916
0.117605
0.121411
0.125326
0.129338
0.13344
0.137623
0.0890343
0.085656
0.0823087
0.0791306
0.0761876
0.0735078
0.0711134
0.0688597
0.0668555
0.0652198
0.0639808
0.0631439
0.0625552
0.0623855
0.0626635
0.0633832
0.0645299
0.0660813
0.0680098
0.0702788
0.0727462
0.0754787
0.0784731
0.0817005
0.0851117
0.0856804
0.0865391
0.0877033
0.0891665
0.0909144
0.0929099
0.0951063
0.0975236
0.100148
0.102974
0.10599
0.109178
0.112525
0.116017
0.11964
0.123385
0.127238
0.131192
0.135238
0.139366
0.117631
0.114743
0.11203
0.108568
0.104992
0.101565
0.0983042
0.0952254
0.0923472
0.0896888
0.0872654
0.0849416
0.0828344
0.0810163
0.0793702
0.0779854
0.0769402
0.0762483
0.0759195
0.0759586
0.0763285
0.0768321
0.0776721
0.0787613
0.0798166
0.0809914
0.0822217
0.0827435
0.0832987
0.0841677
0.0852738
0.0863984
0.0877012
0.0892988
0.0911757
0.0933151
0.0956993
0.0983055
0.100982
0.103742
0.106614
0.109594
0.112734
0.115808
0.118693
0.11597
0.113039
0.110284
0.106749
0.10311
0.0996184
0.0962914
0.0931461
0.0902016
0.087478
0.0849959
0.0826309
0.0804631
0.0785668
0.0768228
0.0753912
0.0743095
0.0735929
0.0732522
0.0732927
0.0736611
0.0741737
0.0750435
0.0761901
0.0772833
0.0784953
0.0797122
0.0802107
0.0807865
0.0816822
0.0828262
0.0839895
0.0853291
0.0869703
0.0888964
0.0910893
0.0935303
0.0960651
0.098679
0.101442
0.104292
0.107327
0.110233
0.113303
0.116399
0.11453
0.111561
0.108769
0.105164
0.101469
0.0979189
0.0945321
0.0913262
0.088321
0.0855376
0.0829983
0.0806015
0.0783776
0.0763781
0.0745641
0.0730884
0.071972
0.0712319
0.0708799
0.0709217
0.0712845
0.071807
0.0727052
0.0739064
0.0750378
0.0762848
0.0774311
0.0779547
0.0785507
0.0794716
0.0806516
0.0818521
0.0832261
0.084908
0.0868798
0.0890851
0.0913217
0.0937592
0.0964255
0.0992625
0.102098
0.104896
0.107858
0.110993
0.114287
0.113318
0.110317
0.107492
0.103826
0.10008
0.0964798
0.0930406
0.0897815
0.0867227
0.0838863
0.0812955
0.0788752
0.0765995
0.0744828
0.0726212
0.0711051
0.0699571
0.0691954
0.068833
0.0688761
0.0692286
0.0697619
0.0706861
0.0719375
0.0731065
0.0743854
0.0754522
0.0760002
0.0766154
0.0775593
0.0787726
0.0800078
0.0814125
0.0831028
0.0849363
0.0869331
0.0891771
0.0915626
0.0941384
0.0969344
0.0998108
0.10267
0.105694
0.108892
0.112248
0.112325
0.109315
0.106463
0.102742
0.098956
0.0953128
0.09183
0.0885263
0.0854226
0.0825415
0.0799071
0.07747
0.0751302
0.0729224
0.0710198
0.0694688
0.0682933
0.0675129
0.0671414
0.0671856
0.0675227
0.0680673
0.0690142
0.0703098
0.071515
0.0727068
0.0729891
0.0736173
0.0745135
0.0755073
0.0768364
0.0780836
0.0794466
0.0811177
0.0827452
0.0846003
0.0867388
0.0891403
0.091784
0.0946498
0.0977181
0.100672
0.103755
0.107011
0.110424
0.111532
0.108556
0.105689
0.101922
0.0981042
0.0944282
0.0909115
0.0875731
0.0844345
0.0815184
0.0788498
0.0764018
0.0739822
0.071719
0.0697837
0.0682046
0.0670069
0.0662113
0.0658324
0.0658775
0.0661946
0.06675
0.0677152
0.0690475
0.0700039
0.0705311
0.0708193
0.0714665
0.0723727
0.0733897
0.0747203
0.0759778
0.0774024
0.0788068
0.0804052
0.0823131
0.0845095
0.0869725
0.0896802
0.0926112
0.0957448
0.098918
0.102054
0.105362
0.108788
0.110985
0.108003
0.105176
0.101372
0.0975323
0.0938339
0.090294
0.086932
0.0837693
0.0808292
0.0781371
0.0756849
0.0731802
0.0708909
0.0689323
0.0673332
0.0661197
0.0653134
0.0649293
0.0649749
0.0652693
0.0658324
0.0668109
0.067564
0.0676999
0.0682467
0.0689874
0.0696319
0.0704991
0.071601
0.0728031
0.074075
0.0754067
0.0767118
0.078353
0.0803097
0.0825594
0.0850789
0.087845
0.0908351
0.094028
0.0973309
0.100602
0.103956
0.107352
0.110688
0.107698
0.104842
0.101096
0.0972451
0.0935354
0.0899837
0.0866097
0.0834347
0.0804825
0.0777784
0.0753293
0.0727543
0.0704512
0.0684801
0.0668702
0.0656481
0.0648359
0.064449
0.0644949
0.0647641
0.0653316
0.0658875
0.0656017
0.0657416
0.0663046
0.067214
0.068018
0.0688697
0.0700081
0.0709464
0.0722293
0.0735894
0.0749324
0.0766117
0.0786117
0.0809086
0.083478
0.0862954
0.0893374
0.0925676
0.0958381
0.099206
0.102736
0.106161
0.109903
0.107019
0.104264
0.101096
0.0972453
0.0935355
0.0899839
0.0866098
0.0834349
0.0804827
0.0777785
0.0753173
0.0727118
0.0704073
0.0684349
0.0668239
0.065601
0.0647882
0.064401
0.0644451
0.0646889
0.0643094
0.0640125
0.063942
0.064139
0.0647371
0.0656976
0.0666351
0.0676126
0.0684286
0.0694014
0.0706989
0.0720781
0.0734913
0.0752028
0.0772393
0.0795758
0.0821869
0.0850471
0.0881322
0.0913491
0.0946012
0.0980116
0.101583
0.105222
0.107948
0.105104
0.102396
0.0997702
0.0971717
0.093801
0.0902499
0.0868759
0.0837004
0.0807468
0.0780403
0.0756076
0.0730533
0.0707599
0.0687976
0.0671953
0.0659793
0.0651712
0.0647863
0.0641284
0.0630811
0.0624354
0.062027
0.0620535
0.0625254
0.0633567
0.0640086
0.0650488
0.0662033
0.0672266
0.0682326
0.0695307
0.0708939
0.0724088
0.0741453
0.0762101
0.0785773
0.0812204
0.0841135
0.0872195
0.0903818
0.0936472
0.0970911
0.100695
0.104443
0.106177
0.103301
0.100612
0.0979846
0.0954149
0.0930065
0.0907455
0.0873906
0.0842345
0.0813003
0.0786129
0.0761983
0.0737734
0.0715032
0.0695618
0.0679775
0.0667758
0.0654474
0.0638143
0.0623447
0.0612935
0.0606868
0.060432
0.0604678
0.0609557
0.061881
0.0627158
0.0637735
0.0649632
0.0662368
0.0674594
0.0687432
0.0700845
0.0716871
0.0734544
0.0755381
0.0779257
0.0805902
0.0834782
0.0865173
0.0896911
0.0929847
0.0964523
0.100064
0.103725
0.104473
0.101568
0.0988605
0.0962837
0.09375
0.0913813
0.0892373
0.0872903
0.0850947
0.0821912
0.0795339
0.0771434
0.0748418
0.072625
0.0704697
0.0679136
0.0656848
0.0638161
0.0623279
0.0609546
0.0598791
0.0592579
0.0591054
0.0593069
0.0597994
0.0607273
0.0617348
0.0627112
0.0638228
0.0652562
0.0667107
0.0682191
0.0696685
0.0713106
0.0731405
0.0752329
0.0776171
0.0802048
0.0829868
0.0860003
0.0892258
0.0926072
0.0960316
0.0995536
0.102978
0.102993
0.100045
0.0972952
0.094755
0.0923107
0.089935
0.0877824
0.0859019
0.0842739
0.0827581
0.0807914
0.0782574
0.0750672
0.0720492
0.0691491
0.0665423
0.0642659
0.0623563
0.0608478
0.0597654
0.0588497
0.0582294
0.0580848
0.0583603
0.0587858
0.0596487
0.0609538
0.0619371
0.0630549
0.0644442
0.0657774
0.0673234
0.068963
0.0708294
0.0726537
0.0747847
0.0772198
0.0799313
0.0827785
0.0857689
0.0889736
0.0923136
0.0956921
0.0990868
0.102499
0.101766
0.0987818
0.0959961
0.093427
0.0910631
0.0887738
0.0865995
0.0846928
0.082982
0.0814165
0.080028
0.0772569
0.074022
0.0710317
0.0682098
0.0655702
0.0632589
0.0613179
0.0597832
0.0586868
0.0579427
0.0573549
0.0572192
0.0575011
0.0579964
0.0588673
0.0600221
0.061369
0.0623428
0.0634253
0.0648968
0.0665185
0.0682634
0.0701889
0.0721571
0.0743329
0.0767823
0.0795087
0.0823657
0.0853546
0.0885211
0.0917849
0.0951158
0.0985058
0.102054
0.100803
0.0977891
0.0949742
0.0923767
0.0900154
0.0878366
0.0857273
0.083792
0.0819732
0.0803851
0.0790004
0.0764778
0.0732661
0.070265
0.0675262
0.064989
0.0626625
0.0607081
0.0591625
0.0580586
0.0572219
0.0567532
0.0566097
0.0567835
0.0574443
0.0583592
0.0593094
0.0604004
0.0616723
0.0627684
0.0642382
0.0658494
0.0678044
0.0698766
0.071867
0.0741535
0.0766966
0.079385
0.082158
0.0850495
0.0881287
0.0914033
0.0947586
0.0981353
0.101645
0.10011
0.0970748
0.0942386
0.0916202
0.0892389
0.0871106
0.0850781
0.0831491
0.0812937
0.079692
0.0782812
0.0758579
0.0726445
0.0696849
0.0670112
0.064548
0.0622476
0.0602884
0.0587417
0.0575858
0.0566815
0.0562591
0.0562703
0.0564968
0.0571625
0.0580152
0.0586776
0.0597801
0.0613175
0.0625535
0.0640023
0.0656012
0.0675634
0.0698718
0.0719464
0.0742305
0.0767559
0.0793583
0.0820249
0.0848774
0.0879558
0.0912235
0.094535
0.0978941
0.101359
0.0996938
0.0966452
0.093796
0.0911649
0.0887713
0.0866101
0.0845238
0.0826606
0.0809373
0.0793463
0.0777762
0.075574
0.072348
0.0693758
0.0666912
0.0643297
0.0622052
0.0602539
0.0587056
0.0575241
0.0566266
0.0561911
0.056038
0.0561984
0.05685
0.0576973
0.0584564
0.0595049
0.060886
0.0624359
0.0640209
0.0656788
0.0676907
0.0700261
0.0724132
0.0746727
0.0770622
0.0795701
0.0821804
0.0850277
0.0881009
0.0913329
0.0945067
0.0976929
0.101043
0.0995554
0.096504
0.0936505
0.0910152
0.0886176
0.0864101
0.084282
0.0824221
0.0808284
0.0791772
0.0774725
0.0756598
0.0724376
0.0694692
0.0667884
0.0644311
0.0623072
0.0603509
0.0588041
0.0577024
0.0568543
0.0562936
0.0560976
0.0562578
0.0568685
0.0576125
0.0583976
0.0594223
0.0607882
0.0623384
0.0642176
0.0658892
0.0679326
0.070313
0.0727418
0.0750778
0.0774659
0.0799177
0.0825851
0.0854721
0.0885304
0.0914088
0.0944033
0.0975928
0.100959
0.09955
0.0965727
0.0937735
0.091169
0.0887793
0.0865129
0.0843717
0.0825126
0.0808396
0.0791003
0.0774249
0.0758992
0.0728722
0.0699089
0.0672299
0.0648704
0.0627523
0.0608223
0.0592878
0.0581751
0.0572236
0.0566445
0.0565562
0.0567964
0.0573018
0.057846
0.0587459
0.0598032
0.061149
0.0626886
0.0646246
0.0665005
0.0685257
0.0708308
0.0729643
0.075311
0.0777945
0.0803676
0.0830621
0.0859649
0.0888342
0.0916077
0.094596
0.0977747
0.101098
0.0980395
0.0947653
0.0916649
0.0887565
0.0860595
0.0835945
0.0813854
0.079466
0.0778089
0.0763845
0.0753055
0.0745868
0.0734572
0.0705115
0.0678509
0.0655102
0.0635187
0.061744
0.0602184
0.0590436
0.0580525
0.0574818
0.0573423
0.0574812
0.0579133
0.0584783
0.0594623
0.0606228
0.0619421
0.0634792
0.0653917
0.0671098
0.0691054
0.0711732
0.0733888
0.0757381
0.0783448
0.081051
0.0837528
0.0865164
0.0893461
0.0920962
0.095016
0.0981024
0.101368
0.0950388
0.091624
0.0883787
0.0853224
0.0824823
0.0798918
0.0775758
0.0755598
0.073803
0.0722996
0.0711587
0.0703977
0.0700291
0.070059
0.0688687
0.0665637
0.0646105
0.0629227
0.0613131
0.0600744
0.0592683
0.0587221
0.0583678
0.0584283
0.0589339
0.0595754
0.0605268
0.0616093
0.0629451
0.064641
0.0661582
0.0678561
0.0698366
0.0718871
0.0741633
0.0765153
0.0791243
0.0818713
0.0844364
0.0871861
0.0900315
0.0927229
0.0955872
0.0986522
0.1019
0.092168
0.0886081
0.0852226
0.0820386
0.0790805
0.0763747
0.0739487
0.0718306
0.0699677
0.0683801
0.0671726
0.066366
0.0659748
0.0659933
0.0663866
0.0671465
0.0660972
0.0643283
0.0627093
0.0614987
0.0607261
0.0601704
0.0597707
0.0598298
0.0603538
0.0611095
0.0619897
0.0629627
0.0642694
0.0658712
0.0673319
0.0689985
0.0709504
0.0729785
0.075269
0.0776459
0.0802181
0.0827925
0.0852683
0.0879928
0.0909099
0.0936039
0.0964421
0.0994807
0.102702
0.0894552
0.0857774
0.0822754
0.0789727
0.0758952
0.0730715
0.0705267
0.0682479
0.0662526
0.0645964
0.0633361
0.0624958
0.0620443
0.0619704
0.0622986
0.0630613
0.0642518
0.0658469
0.0645075
0.06333
0.0624735
0.0619313