# vtk DataFile Version 4.2
vtk output
ASCII
DATASET POLYDATA
POINTS 642 double
-1.11193 3.14974 -0.252157
-0.191542 2.88515 -0.226171
-1.29164 0.538533 -0.00625673
0.6743 0.55408 0.00770112
-0.36604 1.20931 1.04328
-0.603708 2.4569 0.575024
-0.344131 1.37269 -0.853412
-0.762419 2.82995 -0.777883
0.567173 1.91546 -0.441873
0.726894 1.86709 0.547586
-1.30017 2.34101 -0.573944
-1.80366 2.13949 0.855074
-1.67879 2.90954 0.443327
-1.18602 2.42613 0.807298
-0.907352 2.84843 0.34937
-0.285603 2.74318 0.165544
-0.466782 3.33559 -0.208708
-0.169776 3.21269 -0.657051
-1.06128 3.09396 -0.780376
-1.17711 2.87461 -0.957388
-1.60287 3.02337 -0.626408
-1.84942 2.15756 0.0204384
0.149848 2.21383 0.688129
0.397775 2.39224 0.24003
-1.03111 1.61558 0.861687
-0.413714 1.8982 0.866691
-1.45516 1.31504 -0.363042
-1.58079 1.23167 0.476854
-0.566439 2.28134 -0.761132
-0.889056 1.84399 -0.687676
0.173517 2.45064 -0.254672
-0.150022 2.46067 -0.579846
1.05756 1.20198 0.46607
0.338954 1.51519 0.961622
0.204675 0.685645 0.800953
-0.934589 0.660777 0.821319
-0.352067 0.554696 -0.000460642
-0.813131 0.787859 -0.666973
0.147697 0.820437 -0.676474
0.181419 1.59491 -0.704983
0.811748 1.2336 -0.265737
0.871231 1.82257 0.0249057
-1.34466 2.971 0.0790351
-1.28074 2.9586 0.484966
-0.989435 3.04272 0.101033
-1.49059 2.3603 0.961313
-1.46118 2.72806 0.812237
-1.83364 2.56471 0.705057
-0.785011 2.65324 0.484579
-1.10002 2.68986 0.626888
-0.892511 2.44508 0.656471
-0.659013 3.10344 -0.00540541
-0.794677 3.31088 -0.218777
-0.401957 2.60504 0.400724
-0.56712 2.84293 0.219537
-0.320592 3.14579 -0.258021
-0.41402 3.01811 -0.0613123
-0.238588 2.85066 -0.0464883
-0.654448 3.31177 -0.485363
-1.09114 3.15393 -0.6247
-0.223033 3.03824 -0.388748
-0.288201 3.40301 -0.473917
-0.919962 2.95905 -0.798765
-0.54074 3.17667 -0.611617
-0.491089 2.96671 -0.673489
-1.35887 3.20308 -0.868889
-1.38806 3.16045 -0.440604
-1.00333 2.86378 -0.867172
-1.18836 3.10234 -1.07969
-1.45581 2.72624 -0.682777
-1.43826 2.98463 -1.03347
-1.23514 2.73999 -0.851565
-1.6088 2.90797 -0.0750739
-1.57241 2.21187 -0.290558
-1.6137 2.59012 -0.233229
-1.85041 2.56512 0.253767
-1.85033 2.14803 0.458753
0.0513444 2.53549 0.214741
0.0352744 2.60256 -0.0163382
-0.171703 2.31744 0.648305
-0.0234892 2.46661 0.460598
0.617194 2.1841 0.4105
0.332128 2.32982 0.474868
0.464513 2.07552 0.677013
-0.863745 2.17746 0.750194
-0.531303 2.18748 0.718594
-1.39409 1.95093 0.800355
-1.17738 2.12178 0.844668
-0.361064 1.56184 1.04356
-0.729503 1.79817 0.843055
-0.654924 1.35223 0.90946
-1.84817 1.69062 0.260992
-1.64181 1.77278 0.633
-1.43241 1.78301 -0.441486
-1.68563 1.72291 -0.187356
-1.34712 0.848586 0.232377
-1.62715 1.20719 0.0106191
-1.30708 0.873386 -0.136088
-0.993735 2.48599 -0.779492
-1.10681 2.14439 -0.648906
-0.723582 2.6641 -0.782514
-0.8842 2.64291 -0.815602
-0.610481 1.53342 -0.820268
-0.720841 2.14323 -0.758509
-0.393839 1.75506 -0.813613
-0.274494 2.83212 -0.574641
-0.452564 2.72415 -0.698625
-0.0657228 2.69558 -0.250712
-0.169126 2.80544 -0.411854
0.198805 2.13064 -0.497678
0.0115131 2.47034 -0.430721
0.431066 2.19306 -0.33447
0.989319 0.719177 0.252236
0.72126 0.860866 0.631598
0.505865 0.554371 0.398231
0.594377 1.69104 0.776483
0.685604 1.32333 0.699817
0.871568 1.49202 0.470274
-0.133302 0.934397 1.0433
0.29741 1.08763 0.912582
-0.0237233 1.34205 1.06312
-0.0301322 0.566621 0.443877
0.214481 0.554717 0.00395294
-0.588238 0.885218 0.928797
-0.343683 0.554752 0.917431
-0.859283 0.554296 0.00764345
-0.648002 0.554714 0.455053
-1.14762 0.555269 0.487306
-0.0600513 0.554735 -0.417175
0.432328 0.645531 -0.38576
-1.08236 0.636324 -0.353752
-0.646423 0.554685 -0.417539
-0.140702 1.09153 -0.838844
-0.365101 0.765056 -0.68921
-0.531875 1.10246 -0.776684
0.546489 0.993883 -0.472284
0.874816 0.835197 -0.220304
-0.0519318 1.47135 -0.853709
0.21056 1.22227 -0.707277
0.740168 1.54071 -0.36272
0.537411 1.398 -0.571437
0.4104 1.73894 -0.606598
1.1181 1.15261 0.0124456
0.787498 1.85737 -0.218982
0.871125 1.498 -0.102615
0.912647 1.44958 0.192127
0.863929 1.8505 0.312658
-0.0255746 1.71862 1.04442
0.272504 1.90306 0.86834
-0.115936 2.02907 0.804159
-1.23394 0.841047 0.631204
-0.93067 1.07074 0.764784
-1.3172 1.39387 0.76908
-0.799143 1.25231 -0.620772
-1.07376 1.05247 -0.394494
-1.1714 1.53562 -0.538849
0.0470974 1.99653 -0.63172
-0.175541 1.85792 -0.762327
-0.358963 2.37222 -0.707225
0.651351 2.1377 0.158512
0.618671 2.17875 -0.129659
0.334683 2.42596 -0.0299484
-1.21283 3.08167 -0.127527
-1.19075 2.98853 0.131566
-1.05486 3.13496 -0.081456
-1.4886 2.95829 0.489287
-1.32304 2.95901 0.310994
-1.54121 2.95805 0.294768
-0.94692 2.94144 0.236186
-1.14602 2.95715 0.319004
-1.08196 2.88695 0.42793
-1.66302 2.26624 0.949627
-1.68948 2.48108 0.912942
-1.85052 2.36134 0.797311
-1.30562 2.55716 0.813218
-1.50694 2.5491 0.911755
-1.32139 2.3997 0.897477
-1.77246 2.7523 0.583718
-1.67499 2.68477 0.812522
-1.64417 2.85991 0.695041
-0.680018 2.54191 0.533392
-0.877931 2.56484 0.583659
-0.721831 2.44635 0.607187
-1.03362 2.77619 0.510037
-0.955028 2.66677 0.548638
-0.876306 2.76828 0.422515
-1.03112 2.43396 0.71286
-1.02093 2.56398 0.645812
-1.14427 2.56116 0.712878
-1.40916 2.87712 0.671028
-1.25487 2.71177 0.720887
-1.18533 2.86856 0.632951
-0.890123 3.2611 -0.0373088
-0.942974 3.23999 -0.248452
-0.779239 2.95938 0.171042
-0.813443 3.08509 0.0614124
-0.623061 3.37704 -0.180348
-0.686571 3.24985 -0.0838496
-0.563796 3.22343 -0.120313
-0.503189 2.5331 0.49686
-0.595839 2.63311 0.435215
-0.431157 2.8158 0.176011
-0.49878 2.72719 0.310082
-0.324624 2.67836 0.281413
-0.682613 2.74811 0.360843
-0.748383 2.84652 0.287713
-0.243829 2.98161 -0.2501
-0.294935 2.98939 -0.160932
-0.201737 2.87186 -0.158222
-0.451838 3.17589 -0.161171
-0.362409 3.09088 -0.159744
-0.393284 3.25192 -0.254198
-0.251157 2.79942 0.0480351
-0.327109 2.94618 -0.0660442
-0.363867 2.88407 0.0488568
-0.62432 2.97171 0.103779
-0.480704 2.93618 0.0711976
-0.532174 3.08395 -0.0477094
-0.913366 3.22279 -0.41832
-1.09832 3.16905 -0.473802
-0.555229 3.53263 -0.317565
-0.720969 3.3736 -0.389844
-1.08531 3.13358 -0.715269
-0.894777 3.17337 -0.551421
-0.864056 3.13002 -0.621008
-0.217588 2.97014 -0.319054
-0.249786 3.09681 -0.341812
-0.200878 3.35227 -0.588882
-0.202251 3.23291 -0.43273
-0.199571 3.15917 -0.531916
-0.307085 3.25745 -0.348687
-0.366348 3.42196 -0.335177
-0.829045 2.88661 -0.786864
-0.729987 2.95407 -0.727377
-0.66021 2.86819 -0.738601
-0.842068 3.06717 -0.685013
-0.776212 3.01676 -0.705705
-1.03631 3.04294 -0.814467
-0.345065 3.08925 -0.631278
-0.512035 3.09133 -0.643554
-0.332561 3.24947 -0.685384
-0.457066 3.52703 -0.516531
-0.357914 3.44407 -0.668146
-0.59448 3.23853 -0.56581
-1.24803 3.17795 -0.570822
-1.27606 3.13793 -0.38527
-1.19387 3.25667 -0.896349
-1.24372 3.21769 -0.772945
-1.55805 3.16986 -0.522107
-1.42764 3.28635 -0.704123
-1.59396 3.25895 -0.803508
-0.892034 2.84124 -0.823396
-0.979908 2.9152 -0.849543
-1.1961 3.02498 -1.15488
-1.12456 2.96893 -0.947448
-1.12331 2.89594 -0.925832
-1.10976 3.01581 -0.91666
-1.18565 3.13461 -0.977065
-1.34698 2.49532 -0.603372
-1.33457 2.74362 -0.806238
-1.252 2.49038 -0.681217
-1.5299 3.05888 -0.870666
-1.46046 2.86074 -0.86615
-1.52181 2.88735 -0.685377
-1.21806 2.82062 -0.921204
-1.35237 2.87571 -1.00757
-1.31158 2.88399 -1.15623
-1.3124 3.1281 -1.02022
-1.39414 3.16871 -1.25834
-1.38415 3.09706 -0.984262
-1.37226 3.07758 -0.204247
-1.60196 2.99686 -0.393211
-1.51901 3.0873 -0.271964
-1.50544 2.95827 0.016901
-1.68242 2.92291 0.204509
-1.42483 2.27558 -0.437966
-1.45847 2.46358 -0.447644
-1.77817 2.37803 -0.118084
-1.59477 2.4076 -0.266881
-1.755 2.17402 -0.170164
-1.51806 2.65869 -0.463378
-1.58753 2.8143 -0.477843
-1.85056 2.3541 0.574878
-1.85008 2.14621 0.643384
-1.85051 2.78998 0.366252
-1.8505 2.56883 0.477785
-1.85046 2.14985 0.241641
-1.90756 2.3602 0.353301
-1.85037 2.36113 0.13004
-1.65165 2.76725 -0.179151
-1.76585 2.57028 -0.00613563
-1.81993 2.78869 0.100599
-0.101443 2.71562 -0.0341324
-0.104519 2.74494 -0.13429
-0.120188 2.63513 0.187808
-0.112545 2.68102 0.080331
0.212662 2.48204 0.11492
0.0603152 2.55909 0.115251
0.222959 2.46932 0.237976
-0.381201 2.37597 0.596667
-0.287028 2.45299 0.518829
0.0821262 2.36259 0.614155
-0.0884715 2.40013 0.566438
0.00431202 2.27945 0.696387
-0.205602 2.5244 0.420347
-0.154183 2.57768 0.318339
0.70525 2.00632 0.505187
0.555729 2.12536 0.551373
0.644038 1.97068 0.630893
0.401945 2.38506 0.373181
0.487189 2.27524 0.459401
0.507873 2.29116 0.326479
0.322785 2.13511 0.676747
0.444016 2.23224 0.620286
0.258156 2.28776 0.604083
0.0295043 2.50258 0.335528
0.158237 2.41237 0.479583
0.221689 2.46219 0.366098
-0.726545 2.32191 0.674082
-0.576231 2.32797 0.650554
-1.03132 2.29844 0.761617
-0.91043 2.31223 0.718146
-0.47694 2.06575 0.77414
-0.716363 2.18494 0.730329
-0.646872 2.03998 0.780276
-1.5749 2.04774 0.846434
-1.45599 2.12675 0.959738
-1.10841 1.90542 0.811133
-1.277 2.04462 0.850915
-1.20197 1.77751 0.806951
-1.30041 2.22493 0.95314
-1.19806 2.27223 0.860117
-0.360918 1.34625 1.04335
-0.539627 1.44675 1.04342
-0.489897 1.26084 0.97465
-0.573431 1.84608 0.860703
-0.539806 1.67245 0.95907
-0.379388 1.76609 0.978457
-0.828783 1.46894 0.844069
-0.688713 1.56196 0.896341
-0.880895 1.71322 0.837705
-1.02354 2.15259 0.789149
-0.959315 1.96963 0.797956
-0.819335 2.01338 0.785601
-1.72254 1.96425 0.535528
-1.6663 1.97906 0.698979
-1.76873 1.94085 0.145835
-1.76861 1.94023 0.332859
-1.67385 1.49164 0.592508
-1.74873 1.70074 0.450786
-1.71166 1.46804 0.364227
-1.34846 2.05464 -0.473025
-1.49 1.99828 -0.362651
-1.61702 1.49911 -0.295346
-1.58188 1.74665 -0.349745
-1.49537 1.52586 -0.431903
-1.63676 1.96565 -0.242001
-1.70674 1.95132 -0.0655906
-1.43687 0.594351 0.129294
-1.36729 0.83282 0.0146471
-1.43828 0.624172 -0.145507
-1.62228 1.20346 0.23899
-1.44185 1.0621 0.124912
-1.41595 1.07051 0.355159
-1.35209 1.12361 -0.218645
-1.42466 1.074 -0.0732899
-1.58339 1.23264 -0.213997
-1.77511 1.6996 0.0254227
-1.6856 1.46706 -0.096448
-1.7667 1.43624 0.132607
[...]
POINT_DATA 642
SCALARS Mean_Curvature double 1
LOOKUP_TABLE default
-0.479533
1.43418
2.08881
5.08066
4.95843
0.441223
-0.000558696
0.927367
3.87445
-2.19434
-0.111033
8.16674
3.29076
0.91436
0.133831
0.552959
4.17034
13.9091
0.866589
1.63266
4.26007
4.11069
1.4206
1.62598
3.62476
-0.344644
3.19121
3.75152
0.950156
0.110507
-0.0732608
1.08666
7.46539
1.49445
2.28981
5.09585
0.271155
5.8299
2.805
-1.29521
-0.792291
1.81331
-1.33316
3.85921
0.678881
3.17349
3.48781
3.98784
0.308381
-0.0619761
0.207927
-0.563626
1.87276
0.673795
0.692593
0.870293
0.361335
1.30904
-0.497199
0.337084
1.83538
3.61348
1.43309
0.133861
1.21054
1.2395
1.25858
1.58602
9.62871
2.3514
6.82688
1.18443
1.82645
-0.656461
-1.18904
0.421521
1.63317
0.2193
0.6765
1.44035
1.48817
4.86068
-1.55186
2.96784
-0.0392493
0.226564
-1.07886
0.697951
1.6194
-0.409911
-0.647005
5.31399
1.76929
1.42412
1.58563
-1.2189
3.01939
-1.09788
1.00025
0.50866
0.845307
1.72216
2.45937
0.836734
-0.322209
1.84729
1.38669
1.20826
1.74151
0.339349
1.03402
2.97511
3.96345
3.29361
3.14726
1.10846
1.27494
3.74726
4.17477
-0.729061
1.21597
-0.636982
-0.00319685
-0.231235
5.80243
-1.34384
-0.00357396
1.84155
1.77615
2.41226
4.11154
0.00749108
3.30264
0.0651568
1.07822
-1.25043
4.0846
3.8244
-1.6643
1.06774
0.907939
3.15545
4.22655
2.21911
-1.14079
-1.47345
2.54982
4.93784
3.92766
-0.336883
2.16241
-1.01202
3.62218
-0.677851
-1.06711
1.58329
0.0217063
-0.0111619
0.948675
-0.311517
5.28141
1.35321
-0.783204
-1.02876
0.269327
3.17749
-0.40935
1.5711
-0.467343
2.12244
1.18776
4.28966
4.43429
5.04448
0.170905
3.56957
1.77982
1.88424
4.01419
6.04341
0.256183
0.220497
0.226076
-0.273134
-0.0155478
0.376644
-0.292424
-0.231178
-0.656674
3.21624
0.888065
6.70332
7.56665
1.56671
-0.0646384
0.350699
5.96258
2.84314
0.34895
0.637901
0.276118
0.533574
0.483109
0.682836
0.341286
0.441188
0.719783
0.512103
1.38906
-0.465442
1.94857
-0.821662
0.565693
0.861176
1.03119
0.171133
0.609265
-0.283803
-0.0547811
-0.314072
8.60689
5.184
0.683042
0.534652
0.648963
0.827137
0.693547
9.50698
8.08537
1.68034
-0.750847
5.92884
1.11834
1.02721
1.08949
0.841181
0.916177
1.10742
0.143141
0.881235
5.66541
7.52856
8.98858
-0.119448
-0.647467
-1.05296
12.192
0.722869
6.58641
6.18679
9.54032
1.57403
1.62666
9.87094
1.11247
1.65654
0.740119
2.01714
0.243426
0.262396
0.820726
3.79358
3.902
-0.727973
1.64088
2.8421
11.0051
2.07306
9.96706
1.87589
0.0661169
3.09506
5.73961
0.701397
3.25735
-0.247473
-0.283906
3.33659
-0.66871
3.82971
-1.00731
2.71638
-0.648523
3.94257
5.46104
0.724754
1.15995
3.97225
0.876598
1.37585
-0.276648
5.19788
0.811984
0.703248
0.661304
0.76387
-0.120914
0.411578
0.231552
0.442587
0.320013
4.50676
0.876014
4.73175
0.515704
0.584703
2.75108
-0.0799451
4.88183
6.23239
2.88068
1.44052
-0.743741
7.88097
2.62747
-0.117973
0.795011
4.61449
0.212596
0.442881
-0.246845
0.086878
-0.0243722
0.137395
0.000389184
1.39016
5.84117
-0.538043
0.380243
-0.651684
6.53888
0.614311
0.867901
6.1607
-1.14699
-0.285243
1.67675
2.6611
-0.907787
-0.654939
-0.742514
-0.299577
-0.286674
-0.0996763
-1.55497
0.503678
-1.02086
-1.15032
4.92928
1.20933
0.0451856
-0.311629
-0.518469
3.06549
2.85221
4.82496
1.45191
-1.68236
8.26105
-0.350134
8.78814
2.57141
-1.41964
-0.552787
-0.992714
-0.212082
5.08366
1.65734
0.528944
3.46406
0.945886
0.401692
1.77133
1.59033
0.359936
0.74021
0.603433
1.05024
1.68668
0.765701
1.37831
0.741866
1.87973
1.78677
1.20853
4.83173
0.319958
0.514188
0.338269
-0.0612375
0.546465
0.509792
0.9439
1.66207
0.877848
0.820891
1.37719
1.13541
2.48021
1.42013
0.917128
1.69261
1.02155
1.12989
1.55124
1.35007
0.877982
0.981942
1.32132
2.67916
-0.407721
-0.469164
3.29331
1.12904
0.584054
0.769029
0.0139099
1.64123
0.653629
1.77743
1.368
1.03691
2.13755
2.33934
1.61218
2.1527
4.23894
5.97273
6.04202
-1.61438
1.39686
5.67313
2.4343
-2.03249
2.45336
-0.689422
3.70461
-0.14016
0.763179
-2.53739
2.2796
0.176879
-0.75722
1.88004
3.79997
-1.01428
2.10121
3.55058
1.64479
0.558521
0.244026
0.221919
-0.00843207
0.514412
2.76961
0.0935477
0.25712
0.144645
0.109575
-0.977722
-1.37201
6.76549
6.93843
-0.290932
-1.36781
5.53941
3.95423
3.34484
0.73758
0.000234691
-0.753316
-0.0038976
2.29873
-0.750816
1.5581
0.77191
0.0156837
0.0582159
1.69382
2.88698
-1.39325
0.192685
3.2186
3.85214
4.87387
6.10401
1.53355
7.44832
3.85094
3.06721
-0.162127
0.124319
0.287485
5.77733
1.70864
1.3096
1.25922
-2.36393
-0.973502
-1.83695
1.21011
0.933276
6.47172
3.85078
0.311831
3.80923
2.22109
3.05379
1.4143
-1.65946
-0.184608
-0.0203439
3.22334
0.416271
-0.154334
0.610089
1.07432
-0.52148
2.71152
2.43758
1.7731
2.02813
-0.813869
-1.81926
-1.14136
2.65268
3.42207
5.464
2.98145
1.18219
1.57043
6.15074
5.88234
3.37229
3.78479
3.02301
-0.178318
-0.268575
4.88645
5.96246
6.20609
-1.06364
3.50755
7.54814
-0.856689
-1.67454
2.55989
-1.16622
-0.929379
1.30694
-1.50959
4.4507
2.28644
5.08603
-0.846545
1.79124
2.55389
-1.34702
-0.360576
-1.64077
5.0686
-2.45994
0.160108
-0.721232
-0.339772
-0.0422582
-1.11419
0.903503
-0.254592
1.04547
1.23335
8.25141
8.25946
-0.227765
-0.85868
-0.9761
-0.0997481
-0.975011
-1.10719
0.649242
-1.46122
2.2099
1.29134
2.7387
-0.627138
-0.699574
-0.592783
-0.691222
6.37772
-0.845789
-0.952906
-0.549272
-0.606028
3.37203
0.769924
-1.18971
-1.17632
-1.00926
-0.553761
-0.050166
2.55164
-1.18857
0.27691
-0.860856
-0.638532
-0.59219
-0.269205
-0.146565
-0.0286637
0.1309
0.77009
1.32638
0.652635
0.0186265
4.97145
3.15408
1.00827
1.00157
0.790973
0.597418
0.939321
0.105586
0.705002
0.780839
2.59671
1.83187
2.59864
-0.683586
0.604
1.75605
4.35093
0.779852
-0.40217
5.1616
0.96744
3.30134
0.0472424
0.482227
3.36024
-0.696041
1.4164
0.770529
SCALARS Redistribution_Potential double 1
LOOKUP_TABLE default
5.63456e-11
-0.277318
0.227505
-0.0748359
0.0724908
-0.199078
-0.065609
-0.0663748
-0.283352
-0.250791
0.0926155
0.085474
0.0229346
-0.0453341
-0.142792
-0.292104
-0.164592
-0.173866
0.0831381
0.184681
0.179321
0.149438
-0.249971
-0.332776
0.1283
-0.0700457
0.205249
0.22865
-0.14526
0.00942397
-0.329494
-0.257621
-0.141165
-0.125756
0.0101872
0.212709
0.0901959
0.150723
-0.0583513
-0.180372
-0.168339
-0.264914
0.0133889
-0.0487754
-0.0885184
0.0206731
-0.0145873
0.0506702
-0.178497
-0.091948
-0.124634
-0.166626
-0.0974271
-0.260466
-0.228375
-0.222485
-0.239431
-0.285689
-0.0918917
0.0583323
-0.229255
-0.166236
0.0217057
-0.117377
-0.134854
0.241289
0.100491
0.074059
0.250186
0.159792
0.282822
0.150076
0.0763713
0.147238
0.134582
0.0894905
0.129818
-0.328845
-0.334276
-0.234906
-0.295165
-0.30336
-0.305126
-0.260265
-0.0661213
-0.142448
0.108739
0.0163423
-0.00403623
0.035146
0.145426
0.194233
0.164819
0.155412
0.183367
0.29652
0.233087
0.276499
0.00447197
0.03709
-0.0956922
-0.0175551
-0.0179874
-0.0890112
-0.114941
-0.192471
-0.162789
-0.306349
-0.249142
-0.287359
-0.298861
-0.315629
-0.104904
-0.0864385
-0.0391247
-0.196415
-0.14192
-0.181417
0.0639434
-0.0519043
-0.0329203
0.0541046
-0.00672764
0.178875
0.132162
0.170185
0.15536
0.222813
0.0155019
-0.0643009
0.211775
0.122811
-0.0532745
0.0459561
0.0446328
-0.117056
-0.111309
-0.135008
-0.126866
-0.224506
-0.188292
-0.236148
-0.146979
-0.278616
-0.20174
-0.151707
-0.258988
-0.104795
-0.190572
-0.161586
0.24698
0.246638
0.188837
0.13302
0.251064
0.146945
-0.243382
-0.181169
-0.203404
-0.312612
-0.318319
-0.34141
0.0125912
-0.0320039
-0.0439412
-0.0109165
-0.0275877
0.0131941
-0.116683
-0.0699793
-0.0953774
0.0538585
0.0347319
0.0667919
-0.0341457
0.00368648
-0.0125207
0.0357474
0.0187915
0.00690694
-0.19518
-0.146205
-0.169966
-0.110807
-0.132052
-0.155916
-0.0826612
-0.104047
-0.0681329
-0.0285599
-0.0544056
-0.069211
-0.0957378
-0.0552103
-0.162087
-0.135178
-0.129025
-0.141324
-0.172056
-0.231477
-0.223112
-0.261653
-0.248508
-0.282305
-0.206076
-0.184633
-0.259862
-0.260388
-0.282152
-0.199375
-0.23373
-0.189006
-0.294211
-0.264545
-0.266443
-0.199664
-0.23839
-0.200857
-0.0378796
0.0338108
-0.0960179
-0.0924112
0.0773924
-0.0263933
-0.0287785
-0.253051
-0.228525
-0.170972
-0.196312
-0.191894
-0.193493
-0.159133
-0.0311326
-0.0723037
-0.100532
-0.0297909
-0.0540984
0.0799387
-0.160532
-0.125608
-0.153843
-0.130208
-0.13825
-0.103399
0.10358
0.067811
0.187805
0.160482
0.147893
0.194992
0.238213
0.00413295
0.0602788
0.259533
0.16271
0.157564
0.144723
0.209129
0.109687
0.162543
0.0881849
0.279744
0.222093
0.183612
0.186442
0.277671
0.264649
0.293485
0.355005
0.299709
0.0535028
0.127156
0.090116
0.0456464
0.0444574
0.126635
0.133732
0.134151
0.140147
0.151871
0.155838
0.150277
0.0884093
0.111738
0.0548845
0.0694164
0.140226
0.106064
0.121177
0.109427
0.110981
0.0783488
-0.318405
-0.31133
-0.316509
-0.319818
-0.338988
-0.335119
-0.333056
-0.221331
-0.255438
-0.275257
-0.268541
-0.244503
-0.284274
-0.302891
-0.273371
-0.283534
-0.256551
-0.322666
-0.307393
-0.321097
-0.257399
-0.285889
-0.281664
-0.314343
-0.302453
-0.321732
-0.140377
-0.174488
-0.0564168
-0.0917782
-0.112607
-0.103638
-0.0703685
0.0924342
0.0551343
0.0693217
0.0557072
0.11108
0.0141078
-0.0157088
0.0429813
0.0674596
0.110087
-0.0196742
0.0173749
-0.0454947
0.159098
0.100088
0.0956587
-0.0201237
0.0236566
-0.0219924
0.182017
0.133501
0.172766
0.170019
0.194606
0.185298
0.20739
0.122839
0.147472
0.194306
0.169628
0.183856
0.163708
0.18612
0.250719
0.273957
0.242724
0.237947
0.274215
0.261378
0.241434
0.25332
0.221064
0.19248
0.205627
0.213252
0.0492964
0.0628417
0.0839423
0.0785361
0.0216194
0.00707649
-0.0265149
-0.0770229
-0.0285221
-0.0878576
-0.0567802
-0.116918
0.023614
0.0691857
-0.0457937
-0.0707131
-0.088362
-0.0524254
-0.0635984
0.0066174
-0.145846
-0.108224
-0.118573
0.00625373
-0.070485
-0.0490708
-0.146488
-0.123255
-0.175368
-0.164701
-0.215347
-0.180048
-0.236245
-0.290175
-0.265057
-0.29873
-0.284496
-0.319894
-0.229786
-0.193942
-0.285352
-0.301575
-0.297101
-0.278047
-0.30169
-0.283141
-0.325761
-0.315853
-0.316933
-0.214285
-0.27735
-0.253087
-0.0869705
-0.0769456
-0.0588188
-0.11636
-0.0950263
-0.124192
-0.0166034
-0.0601161
-0.042525
-0.225332
-0.196777
-0.218745
-0.13688
-0.168646
-0.16736
-0.152803
-0.166289
-0.137953
0.0745591
0.0124364
0.0277156
-0.018994
-0.00339226
0.0385124
-0.0842298
-0.0444892
-0.0932088
-0.111199
-0.103655
-0.0691724
-0.0205164
-0.0394241
0.0342933
0.00702834
0.0399804
0.0260446
0.0737292
0.155753
0.146798
0.174854
0.159007
0.198827
0.13376
0.0767805
0.207394
0.198728
0.226267
0.127672
0.162387
0.132753
0.217482
0.19189
0.185313
0.0949778
0.143992
0.111877
-0.0349534
-0.068426
0.0537906
0.00670125
-0.0619242
-0.0299682
-0.0239547
0.223524
0.188465
0.137086
0.164701
0.183196
0.146732
0.107318
-0.0611637
-0.000689898
-0.0250479
-0.0147427
-0.00398729
-0.0531892
0.118361
0.0649748
0.0990669
0.0701318
0.0863861
0.028311
-0.0888381
-0.0972521
-0.0922814
-0.090976
-0.136971
-0.0957948
-0.143565
-0.101691
-0.0994865
-0.157405
-0.132703
-0.162428
-0.0954745
-0.090524
-0.264947
-0.236066
-0.268999
-0.181045
-0.209964
-0.19608
-0.212163
-0.213884
-0.189069
-0.122615
-0.158559
-0.152563
-0.109335
-0.15221
-0.132785
-0.126706
-0.139565
-0.283051
-0.256936
-0.230859
-0.246947
-0.272556
-0.21953
-0.182959
-0.218655
-0.256175
-0.152763
-0.159175
-0.261438
-0.211035
-0.219755
-0.166218
-0.167374
-0.155877
-0.0202462
-0.11483
-0.0734396
-0.0614032
-0.0904005
-0.228494
-0.220745
-0.22637
-0.196411
-0.154166
-0.192085
-0.112285
-0.152327
-0.200645
-0.20412
-0.145981
-0.178619
-0.133321
0.247717
0.253296
0.239406
0.254565
0.259009
0.198641
0.190562
0.218432
0.237059
0.227035
0.141005
0.21226
0.171886
0.147001
0.161268
0.24101
0.220863
0.242102
0.0147157
0.168475
0.0944791
0.0621217
0.0813424
0.246693
0.221624
0.267478
0.256166
0.222853
0.112474
0.0850003
0.0940614
0.168567
0.183696
0.207313
0.195676
0.152492
-0.265726
-0.215761
-0.242126
-0.268183
-0.264044
-0.127619
-0.175996
-0.153361
-0.161491
-0.186069
-0.133967
-0.230469
-0.187721
-0.147576
-0.171677
-0.212472
-0.20653
-0.234924
-0.284645
-0.29304
-0.290522
-0.309683
-0.32752
-0.302839
-0.33176
-0.318744
-0.301539
-0.297436
-0.325166
-0.339292
-0.340633
-0.335082
-0.338638
-0.315556
-0.332907
-0.330815
SCALARS CoVolArea double 1
LOOKUP_TABLE default
0.0298087
0.00868604
0.0325458
0.0359004
0.0201617
0.0190101
0.0153712
0.00909281
0.0142255
0.0225829
0.0271636
0.0397489
0.0434483
0.0266583
0.0254051
0.0252309
0.0258913
0.0221491
0.021037
0.0207128
0.0448853
0.0497608
0.025311
0.0227767
0.0446906
0.032672
0.0442033
0.0588662
0.0289875
0.0458097
0.0232206
0.0259628
0.0434822
0.03876
0.0540581
0.0525196
0.064871
0.0432158
0.0418158
0.0315281
0.0320121
0.0266134
0.0450197
0.0365857
0.0402206
0.0381044
0.0429033
0.0477592
0.0255915
0.0249668
0.023128
0.0254327
0.0342156
0.0297097
0.0271756
0.0164066
0.0187941
0.0185011
0.0379264
0.0253073
0.0134651
0.0296073
0.0158421
0.030248
0.0234941
0.028127
0.0371022
0.010306
0.0213465
0.0416293
0.0342211
0.026468
0.0495419
0.0461833
0.0502305
0.0539104
0.0450784
0.0229208
0.0209227
0.0281512
0.0267798
0.0260786
0.0259183
0.0270438
0.0245254
0.0285032
0.0401291
0.0280699
0.0381002
0.039836
0.0405492
0.0571848
0.0459023
0.0426167
0.0502576
0.0548383
0.0567768
0.0409812
0.0203395
0.0361465
0.0120239
0.0127639
0.0383771
0.03235
0.0323998
0.0169509
0.0197707
0.0140741
0.0149975
0.0282282
0.0243596
0.0248396
0.0615086
0.0516731
0.0580801
0.0313994
0.0423927
0.0291098
0.0477075
0.0505298
0.0416505
0.0660518
0.0512719
0.0382863
0.0627825
0.0572887
0.0612601
0.0524594
0.0560484
0.0460612
0.0414993
0.0557443
0.0416007
0.0448937
0.0349553
0.0431255
0.0423817
0.0291662
0.0380076
0.03062
0.0352063
0.031415
0.043207
0.0245871
0.0276279
0.0271409
0.0278644
0.0330132
0.0328674
0.0301853
0.0513798
0.0441165
0.0519252
0.0402983
0.0401326
0.0462756
0.0326055
0.0301372
0.0358123
0.0259274
0.0279466
0.0254008
0.0396487
0.0406093
0.0397819
0.042394
0.0377706
0.0422098
0.0314396
0.0338683
0.0313789
0.0449895
0.0440541
0.0474888
0.0339713
0.0392769
0.0303966
0.0455402
0.0444726
0.0460052
0.0214851
0.022453
0.0211873
0.0254352
0.0217301
0.0238857
0.0218339
0.0201383
0.0250181
0.0437547
0.0351803
0.035682
0.03952
0.035756
0.0286134
0.0337555
0.0317894
0.0295462
0.0214956
0.0269374
0.026208
0.0239766
0.0277185
0.0277121
0.0276962
0.0271519
0.0128056
0.0155057
0.0151884
0.0183878
0.0151192
0.0176497
0.0196664
0.0150756
0.0200304
0.0284341
0.0236967
0.0229171
0.0336256
0.0334743
0.0422111
0.0382253
0.0204773
0.0278015
0.0253742
0.00934203
0.0146256
0.0267573
0.0221175
0.019267
0.0211058
0.0304944
0.011158
0.0202949
0.0166738
0.0232869
0.0216784
0.0180091
0.0232123
0.0257108
0.0305221
0.0452779
0.0395877
0.0372484
0.0331861
0.0325645
0.0247695
0.0276959
0.0443413
0.0416515
0.0455117
0.00925815
0.0106584
0.0283473
0.0133676
0.0131666
0.0149318
0.0195503
0.0371409
0.0342857
0.0298485
0.039816
0.0332067
0.0383208
0.0187781
0.0247708
0.0355454
0.0225072
0.0382931
0.0296541
0.0404312
0.0476407
0.0419542
0.0441155
0.0467058
0.0418647
0.0449595
0.0506885
0.0466422
0.0471703
0.0441233
0.0470315
0.0461303
0.0443281
0.051185
0.0480888
0.0472609
0.0482106
0.0512364
0.0575979
0.0578351
0.0593297
0.0214502
0.0152832
0.025711
0.0220084
0.0233621
0.0221642
0.0229201
0.0311967
0.0308282
0.0260847
0.0269488
0.0242887
0.0286089
0.0273898
0.0270587
0.0273636
0.0277174
0.0224013
0.0233842
0.0205517
0.025966
0.0261939
0.027642
0.0267672
0.0276271
0.0252939
0.0255738
0.0271279
0.024169
0.0223287
0.030016
0.0256351
0.0319276
0.0405084
0.0389215
0.038947
0.032977
0.0419492
0.0299308
0.0259242
0.0287946
0.0387693
0.033057
0.0356852
0.039912
0.0336768
0.0420176
0.0408276
0.0442516
0.0279576
0.0370841
0.0333291
0.0444487
0.0402395
0.0518263
0.0487176
0.0581545
0.0527146
0.0606032
0.0434259
0.045325
0.0481086
0.0442953
0.04194
0.045951
0.0505433
0.0518341
0.0510944
0.0480355
0.0599317
0.0516394
0.0543619
0.0423452
0.0452981
0.0520882
0.0594565
0.0584335
0.0636922
0.0299289
0.0350434
0.0170453
0.0213691
0.0403289
0.0278351
0.0346032
0.0113944
0.00940266
0.0192367
0.0101393
0.0195134
0.01047
0.013778
0.0261024
0.0333035
0.0269332
0.0400133
0.0369021
0.0425623
0.0304904
0.0328689
0.0300517
0.017385
0.0231952
0.0272286
0.0196042
0.0153373
0.017323
0.0183346
0.0229482
0.0190911
0.0198485
0.0125976
0.010492
0.0171204
0.0119468
0.0167
0.0138575
0.0159001
0.0232812
0.0268668
0.0238522
0.0233956
0.0256582
0.0257454
0.0233637
0.024156
0.0238519
0.0170987
0.0202676
0.0204043
0.0466477
0.0566141
0.046754
0.052399
0.0550083
0.0615534
0.0585796
0.053681
0.0545833
0.0309121
0.0320572
0.0300835
0.0403843
0.0337627
0.0350041
0.0265414
0.0328998
0.0410698
0.0353618
0.0422203
0.0314445
0.0503698
0.0459794
0.0515552
0.0392001
0.0440393
0.0450224
0.0548521
0.0535553
0.0574033
0.0530348
0.0446099
0.0610003
0.0597827
0.0608072
0.0598834
0.0693611
0.0336892
0.0397423
0.0643714
0.0511053
0.0473293
0.0513944
0.056355
0.0487734
0.0607749
0.0475742
0.0645237
0.0572645
0.0547443
0.053579
0.0552646
0.0595434
0.0674937
0.0685441
0.0718217
0.0502149
0.0496551
0.0617245
0.0559173
0.045772
0.0516918
0.0512646
0.0419837
0.0475464
0.0538648
0.0455539
0.0424906
0.0496675
0.0582258
0.0293674
0.0386026
0.0279132
0.04503
0.0412588
0.040225
0.035145
0.035061
0.0455513
0.0613349
0.0594337
0.0544718
0.0438991
0.0428152
0.0430544
0.0429269
0.0396317
0.0404226
0.0371115
0.0249958
0.0309614
0.0312581
0.0295844
0.0280282
0.0376929
0.0397148
0.0279361
0.0333808
0.0272081
0.0325236
0.0285148
0.025179
0.0285291
0.0287766
0.032941
0.0477259
0.0419096
0.0446714
0.0517341
0.0382256
0.0494392
0.0609608
0.0482429
0.0227885
0.0270371
0.0243457
0.024863
0.025057
0.027255
0.0306604
0.0277545
0.0270366
0.0292387
0.0256744
0.0280913
0.0279072
0.026038
0.0348571
0.0299154
0.0345
0.0347247
0.0355029
0.0341235
0.0337889
0.0316127
0.0304347
0.0288837
0.0275496
0.0311391
0.0369612
0.0312324
0.0312742
0.0297058
0.0276415
0.0275302
0.0362826
0.0337361
0.0335175
0.0498999
0.0614359
0.0561758
0.0477775
0.0479372
0.0394591
0.0438379
0.0401185
0.0426212
0.0454205
0.0401696
0.0570422
0.0513686
0.0463399
0.046784
0.0504931
0.0524102
0.0511002
0.0342979
0.0393632
0.0338863
0.0385388
0.044953
0.0419791
0.0418465
0.0401255
0.0411834
0.0395645
0.0439581
0.0495035
0.0439379
0.0434373
0.0425755
0.043066
0.0445885
0.0490779
0.030131
0.0325028
0.0286102
0.0281431
0.0325431
0.0305746
0.0310414
0.0289441
0.0297071
0.0308763
0.0171182
0.0326098
0.026157
0.0255056
0.0331655
0.034595
0.0357454
0.0372348
0.0271081
0.0279595
0.0258458
0.0239127
0.0235554
0.0258866
0.0262363
0.0242686
0.0264084
0.0285768
0.0186303
0.0244032
0.0229452
0.0210651
0.0245259
0.0296663
0.0287337
0.0272267
SCALARS SignedDistance double 1
LOOKUP_TABLE default
1.11648
1.20163
-0.0118684
0.0261361
-0.00122834
1.22366
0.0176605
1.43493
0.0277389
-0.00493029
1.30588
-0.00118789
-0.0235238
0.284995
1.13665
1.33098
0.061567
0.0673365
1.17714
0.877801
0.00179241
-0.0236409
0.0290237
0.0320863
0.0443405
0.753946
-0.0148985
-0.0225272
1.35742
1.13334
1.09375
1.31138
0.0186019
0.0155358
0.00972246
0.0098931
0.000830622
0.0151306
-0.0109802
0.458549
0.0745936
0.0176946
0.366184
0.016863
0.142767
0.00842843
-0.00483588
0.00263613
1.24243
0.701901
1.15013
1.0841
0.0448418
1.21026
1.29092
0.22026
1.09296
1.25924
1.06356
1.17104
0.512971
0.0195817
1.32031
1.11982
1.2489
-1.01401
0.0866796
1.24863
0.135351
0.0878913
0.00867127
1.11983
0.00255925
0.544451
0.283155
-0.00165602
-0.00443829
1.1233
1.19158
0.130617
0.219764
0.0387383
0.0901724
0.0240735
1.16325
1.10728
0.784379
0.515413
0.00700214
1.09287
1.10606
-0.0414213
0.00339642
0.0516805
-0.000505685
1.11801
0.0081828
0.963091
1.44085
1.23059
1.52976
1.443
0.0557697
1.29525
1.06365
1.25063
1.42063
1.2901
1.27611
0.64408
1.20698
0.0481774
0.0358797
0.0302246
0.00902693
0.00904305
0.000648227
0.0269212
-0.000809668
-0.00842238
-0.0354589
0.00460694
0.000216628
0.346679
-0.000196622
0.00753382
0.000329949
-0.0108821
-0.000225137
0.0160045
0.00432114
0.000178793
-0.0135641
0.00139568
0.00980426
-0.00419409
-0.0215303
0.0228145
0.0640151
0.0113596
0.000335481
0.0390717
-0.0132234
0.019002
0.0188828
1.05269
0.00108335
0.0306222
-0.00821123
0.401102
-0.00791052
1.09396
-0.00538589
0.965609
1.11011
0.0548612
0.995073
1.10161
1.36093
0.0146853