# vtk DataFile Version 4.2
vtk output
ASCII
DATASET POLYDATA
POINTS 642 double
-1.13878 3.09216 -0.302146
-0.406395 2.63493 -0.116148
-1.28449 0.532417 -0.00199388
0.248277 -0.355851 -0.799184
-0.368556 1.21007 1.04392
-0.52084 2.30549 0.51201
-0.339612 1.38289 -0.852861
-0.952355 2.83853 -0.409783
0.558579 1.91511 -0.44164
1.0216 3.44117 1.50719
-1.20792 2.39324 -0.324693
-1.97121 2.10081 1.02817
-1.68081 2.92105 0.421966
-1.19627 2.36857 0.755676
-0.963278 2.80832 0.258161
-0.357474 2.52132 0.0832927
-0.513904 3.24377 -0.257941
-0.383772 3.16957 -0.521555
-1.19291 2.99554 -0.626012
-1.24908 2.97725 -0.814607
-1.31738 2.98314 -0.62174
-2.40992 1.99091 -0.207886
0.149056 2.21808 0.685252
0.567229 2.22409 0.268601
-1.01566 1.60793 0.860828
-0.472719 1.97925 1.26516
-1.44147 1.31058 -0.377297
-1.39408 1.20513 0.493491
-0.594296 2.19891 -0.42279
-0.703468 1.73102 -0.686874
0.122329 2.41756 -0.242835
-0.138099 2.25593 -0.364522
1.03493 1.23123 0.479905
-0.094479 1.39598 -0.0712232
0.204845 0.68769 0.801766
3.76965 1.11812 0.247287
-0.341661 0.562525 -0.00410287
-0.645396 0.727923 -0.47075
0.155791 0.829673 -0.678489
0.334744 1.48882 -0.877499
0.795592 1.23427 -0.267561
0.780623 1.42814 0.00277917
-1.34743 2.96048 0.0352956
-1.26795 3.02672 0.505804
-1.01378 3.04374 0.0904254
-1.62778 2.33641 0.951075
-1.45289 2.7363 0.806296
-2.1862 2.68544 0.822367
-0.860341 2.52516 0.328458
-1.15984 2.71607 0.592152
-0.935004 2.36116 0.520989
-0.833751 3.10758 -0.22031
-0.804289 3.29741 -0.228336
-0.328325 2.43702 0.369583
-0.657744 2.68812 0.057041
-0.364625 3.14705 -0.272207
-0.460181 2.95839 -0.112056
-0.412899 2.63438 -0.0967796
-0.674219 3.28464 -0.440037
-1.20829 3.01649 -0.625165
-0.291018 2.99266 -0.340419
-0.432015 3.23131 -0.497853
-1.15925 2.91752 -0.611405
-0.582209 3.21731 -0.504286
-0.564236 2.96447 -0.411652
-1.21759 3.0157 -0.747441
-1.35979 3.13884 -0.459035
-1.16383 2.90103 -0.619183
-1.19857 3.07252 -1.01915
-1.26024 2.98081 -0.739726
-1.42859 2.98855 -0.984103
-1.24558 2.98152 -0.760087
-1.59229 2.92488 -0.115638
-1.34945 2.27586 0.100603
-1.59746 2.60408 -0.24184
-2.03468 2.74274 -0.022
-1.84668 2.14144 0.438593
0.20101 2.45442 0.27156
-0.0341849 2.48276 -0.000486378
-0.0319634 2.22413 0.729423
-0.021274 2.45932 0.444482
0.655985 1.97651 0.387964
0.33736 2.33289 0.46761
0.183338 1.42383 0.0635863
-0.877581 2.11285 0.636624
-0.398965 2.08569 0.696038
-1.39777 1.9241 0.780557
-1.10073 2.06122 0.851532
-0.357603 1.54676 1.04497
-0.437345 1.8656 0.594355
-0.600828 1.34417 0.870481
-2.2149 1.61985 0.315964
-1.64246 1.78433 0.632674
-1.41923 1.78665 -0.623231
-1.68064 1.73465 -0.203721
-1.27268 0.717009 0.237035
-1.61103 1.19804 0.00267304
-1.31707 0.767648 -0.260857
-1.03431 2.57207 -0.348561
-0.938386 2.13947 -0.287022
-0.879404 2.68423 -0.349981
-1.02263 2.70013 -0.404797
-0.611602 1.54434 -0.809318
-0.658529 2.063 -0.520505
-0.377998 1.74107 -0.780566
-0.549483 2.73943 -0.257234
-0.637579 2.69732 -0.292603
-0.281517 2.54899 -0.149772
-0.50396 2.69655 -0.23838
0.335218 1.9027 -0.377122
-0.0664813 2.35726 -0.315835
0.265116 1.6188 -0.0849784
0.976903 0.724255 0.248942
-3.99708 -10.4744 -3.41408
0.502882 0.557454 0.380648
-0.952482 0.583994 -0.0535233
0.691456 1.33273 0.691975
-5.25171 2.8332 -1.55005
-0.133824 0.929247 1.04269
-5.4393 2.47938 -3.48616
-0.0271243 1.34609 1.06976
4.37591 0.127003 -0.897684
0.227334 0.555177 0.00217566
0.241996 0.808997 0.40804
-0.327987 0.559949 0.918293
-0.759327 -0.354872 0.343392
-0.642073 0.553932 0.44947
-0.900378 1.43608 -0.469775
-0.0660275 0.55506 -0.424175
1.25472 0.0245991 -0.78661
-1.07015 0.630106 -0.357251
-0.386316 -0.207287 -0.466669
-0.13778 1.10362 -0.841777
-0.16628 0.850679 -0.453411
-0.527139 1.10457 -0.779023
-1.59724 2.61069 -3.24046
0.863286 0.832836 -0.235472
0.102006 1.36782 -0.770077
0.219651 1.2352 -0.70708
0.669408 1.85659 -0.150626
0.541905 1.40791 -0.564854
0.612554 1.54817 -0.491971
1.11627 1.18151 0.00314716
0.690682 1.74141 -0.185109
0.874168 1.49819 -0.105919
2.25217 1.35811 -2.19961
0.865163 1.8469 0.309445
0.515766 2.3873 1.90498
0.281046 1.90363 0.865967
0.0481622 2.15485 1.24072
-1.25103 0.852347 0.611411
-1.4854 0.633366 1.12024
-1.30082 1.39792 0.770807
-0.63996 1.08012 -0.707069
-1.02191 1.02248 -0.379173
-1.0055 1.36775 -0.600305
0.0474798 1.97407 -0.596807
0.0990727 1.65856 -0.776929
-0.42813 2.26097 -0.381574
0.52683 1.78509 0.213067
0.623896 2.17282 -0.137837
0.526738 2.25522 0.00561335
-1.21794 3.05667 -0.156341
-1.20251 2.95583 0.0178367
-1.08282 3.11913 -0.102542
-1.47676 3.04645 0.4932
-1.32033 2.95634 0.286131
-1.5261 2.98976 0.200465
-0.981924 2.93872 0.201273
-1.15223 2.9706 0.285688
-1.09257 2.90012 0.376817
-1.7807 2.19296 0.935031
-1.68846 2.48214 0.918984
-2.09499 2.30376 0.950958
-1.29071 2.552 0.794636
-1.50677 2.43399 0.942077
-1.29059 2.39255 0.887893
-1.92953 2.87474 0.67713
-1.67383 2.69504 0.807775
-1.73932 3.11337 0.812629
-0.698208 2.40378 0.383034
-0.896607 2.45691 0.458714
-0.730197 2.33681 0.465106
-1.04678 2.73474 0.430393
-0.999065 2.60463 0.456369
-0.949248 2.65732 0.29989
-1.05066 2.39698 0.63889
-1.06304 2.51837 0.572316
-1.15738 2.54585 0.674847
-1.41202 2.94888 0.700179
-1.24268 2.70998 0.715666
-1.11158 2.99235 0.730875
-0.913181 3.2632 -0.0472956
-1.0071 3.13007 -0.303933
-0.850093 2.91465 0.0881247
-0.757615 3.20009 0.221049
-0.640562 3.25769 -0.208996
-0.626954 3.39972 0.0071699
-0.585737 3.19704 -0.166203
-0.415428 2.36434 0.463751
-0.629333 2.47658 0.285161
-0.509509 2.60416 0.0592802
-0.555525 2.54785 0.169894
-0.285767 2.47173 0.246532
-0.75383 2.60224 0.198958
-0.831036 2.72313 0.140136
-0.344964 2.90395 -0.224395
-0.351382 2.94739 -0.195189
-0.408011 2.63521 -0.110757
-0.491374 3.14941 -0.210587
-0.37009 3.06658 -0.146887
-0.405257 3.20151 -0.281896
-0.424326 2.62715 -0.0674476
-0.385446 2.88023 -0.127433
-0.491836 2.70534 -0.0577251
-0.799068 2.77957 -0.216154
-0.588805 2.80784 -0.0809265
-0.523219 3.09033 -0.0498651
-0.953673 3.0888 -0.342853
-1.13939 3.06584 -0.49346
-0.579959 3.26411 -0.368428
-0.715936 3.26259 -0.369463
-1.19596 3.00835 -0.621173
-0.933018 3.04567 -0.366083
-0.922049 3.02887 -0.371209
-0.360669 2.84217 -0.218357
-0.288159 3.06422 -0.304865
-0.40198 3.20994 -0.530839
-0.350562 3.16532 -0.417698
-0.366659 3.14952 -0.477838
-0.333666 3.21643 -0.354925
-0.437224 3.23086 -0.393671
-1.02769 2.88203 -0.464065
-0.906205 2.94662 -0.363538
-0.830063 2.86469 -0.352665
-0.911937 3.00566 -0.373164
-0.900758 2.98871 -0.370689
-1.20012 2.97708 -0.684837
-0.430862 3.06107 -0.489589
-0.53905 3.1951 -0.426383
-0.359552 3.17802 -0.601523
-0.46953 3.26175 -0.496236
-0.383799 3.37274 -0.616215
-0.622417 3.20676 -0.492083
-1.23934 3.12185 -0.562848
-1.26376 3.13197 -0.514091
-1.20679 3.20684 -0.851736
-1.21888 3.02784 -0.665736
-1.36747 3.03359 -0.532864
-1.25691 3.00458 -0.67857
-1.25233 2.99492 -0.70378
-1.07287 2.86634 -0.505424
-1.16285 2.90633 -0.616364
-1.23616 2.97942 -0.796046
-1.19458 2.93444 -0.795829
-1.22848 2.96198 -0.79057
-1.19358 2.95995 -0.767427
-1.13789 3.03434 -0.792002
-1.28518 2.60322 -0.388856
-1.24878 2.98544 -0.761009
-1.2363 2.60828 -0.393634
-1.23546 2.98183 -0.797943
-1.27675 2.97718 -0.844017
-1.26062 2.98377 -0.739066
-1.25461 2.98305 -0.801804
-1.30696 2.96498 -0.92863
-1.25808 2.87693 -1.0793
-1.19672 2.93732 -0.656733
-1.23609 2.97973 -0.795194
-1.24012 2.98243 -0.802316
-1.37599 3.07932 -0.215415
-1.40279 3.01009 -0.516401
-1.51221 3.09666 -0.284722
-1.48335 2.98391 -0.134564
-1.6741 2.93278 0.172157
-1.2917 2.37667 -0.265975
-1.39232 2.56861 -0.352521
-1.97255 2.58829 -0.437825
-1.58734 2.44523 -0.255973
-1.80611 2.26875 -0.450717
-1.49025 2.69029 -0.446559
-1.38526 2.90175 -0.578034
-1.85494 2.34419 0.573051
-2.14618 1.98137 0.7538
-1.85083 2.80261 0.33414
-1.48668 2.58983 0.426388
-1.8501 2.14129 0.225706
-2.51989 2.37557 0.349742
-1.84686 2.373 0.104591
-1.51703 2.89063 -0.408357
-1.74675 2.58126 -0.0288254
-1.89613 2.94113 -0.111424
-0.229592 2.52356 -0.0301395
-0.263713 2.54791 -0.0733979
-0.157161 2.47696 0.141832
-0.184315 2.49775 0.0450164
0.176445 2.46047 0.103879
0.131867 2.4604 0.134305
0.212191 2.4593 0.221475
-0.254261 2.26382 0.604972
-0.293295 2.4158 0.469917
0.180653 2.2664 0.607918
-0.0931402 2.40038 0.561742
0.10923 2.19139 0.669057
-0.229313 2.46011 0.371383
0.000274141 2.45027 0.358409
0.708519 2.00215 0.493253
0.742861 2.1026 0.60799
0.661149 1.96849 0.621401
0.538449 2.22985 0.387952
0.506892 2.26901 0.450803
0.471816 1.99858 0.352527
0.322435 2.13405 0.677843
0.674353 2.1849 0.655911
0.24538 2.29261 0.600387
0.21517 2.4131 0.393115
0.17263 2.40723 0.477068
0.317701 2.35894 0.374894
-0.726037 2.24563 0.553549
-0.448135 2.204 0.623414
-1.04081 2.26265 0.693718
-0.899295 2.20437 0.592348
-0.463648 2.04912 0.717902
-0.610525 2.05341 0.659535
-0.637321 2.00536 0.714196
-1.68586 2.1234 0.899791
-1.4279 2.0942 0.957096
-1.02663 1.74201 0.621079
-1.26818 2.02053 0.800301
-1.21385 1.6075 0.816166
-1.26723 2.20802 0.909426
-1.19409 2.22059 0.768227
-0.362843 1.34065 1.04322
-0.138628 1.40118 0.559733
-0.467061 1.25432 0.974853
-0.462633 1.642 0.737049
-0.513803 1.6537 0.908182
-0.360484 1.79436 1.13718
-0.812791 1.46109 0.796263
-0.88426 1.45696 1.37216
-0.874621 1.69399 0.79644
-0.960201 2.041 0.638661
-0.956971 1.93457 0.715277
-0.615813 1.83755 0.709768
-1.69839 1.988 0.508775
-1.56624 1.89037 0.692054
-1.76998 1.94648 0.130539
-1.51545 1.91648 0.326793
-1.67404 1.49244 0.592789
-1.81208 1.63213 0.490122
-1.71471 1.4667 0.357185
-1.27652 2.10162 -0.453052
-1.47404 2.01924 -0.354434
-1.73336 1.395 -0.433247
-1.57156 1.76294 -0.353401
-1.47568 1.44759 -0.560201
-1.61862 1.97707 -0.247474
-1.23796 2.02864 0.0553472
-1.43475 0.610571 0.146333
-1.26913 0.692148 0.0343229
-1.43507 0.662962 -0.156311
-1.41285 1.18945 0.345039
-1.41472 1.0595 0.118878
-1.23202 0.908154 0.31182
-1.33536 1.12065 -0.21086
-1.3509 0.925581 -0.064713
-1.57001 1.22289 -0.219586
-2.03308 1.66268 -0.151743
-1.68267 1.46542 -0.106477
-1.79877 1.29751 0.174538
[...]
POINT_DATA 642
SCALARS Mean_Curvature double 1
LOOKUP_TABLE default
-1.2562
1.35145
2.39603
-6.03305
5.5034
-1.15188
0.184544
-0.858212
4.64758
9.75415
-0.00408345
3.07931
-3.68083
2.881
3.24292
-2.31075
5.32036
0.960108
-2.406
14.9691
1.81583
5.31766
5.65684
0.385759
6.26049
-8.77006
2.1611
0.987063
-0.38553
-0.106811
4.01463
-1.90388
8.2281
8.41761
6.73645
-2.94859
-4.6662
0.367615
4.82667
-8.02538
-2.56391
1.97159
-0.558113
3.63569
-0.380798
4.46715
-0.556622
3.05324
-0.410339
6.77427
-2.29732
-5.28526
4.32628
-0.0759919
0.333088
12.7366
-3.32128
-0.0370275
4.29375
-11.6719
18.3156
0.432891
-0.709003
9.33728
5.98037
7.17144
12.0467
-1.13463
6.81722
9.74612
4.51753
-2.40236
-1.77828
-6.94321
-3.01319
4.7504
-0.306634
-0.562039
-1.50231
-3.1878
4.64882
3.47584
1.89398
10.0742
-6.47366
1.05754
-0.283153
-6.46458
4.23861
5.43713
0.572575
4.59443
1.37409
4.87324
-0.459204
2.27053
1.8815
-5.80241
-0.392948
-7.78109
-0.462022
0.0942392
9.62891
-5.11175
5.29672
-0.810389
0.12696
-4.88239
-0.199007
9.14874
-1.85902
9.5625
4.06798
0.0314407
-1.80163
6.82901
0.692389
0.899599
6.89311
5.68282
-2.34548
-4.09089
-1.69258
5.19078
2.12579
-4.4409
-0.216704
4.97603
2.47891
-2.40995
7.20434
-5.62763
5.16081
1.22554
3.07853
-2.2676
3.41803
-0.457809
-1.64144
-4.2475
0.00473999
-0.194876
4.5225
5.03956
3.93452
8.57932
0.513499
-9.12989
3.9699
-7.9957
7.54421
9.74117
3.95813
-1.28386
-1.35518
2.19808
6.94566
0.616932
-1.56803
4.72444
10.2649
0.993465
-0.596311
-7.70021
1.62809
4.21647
-5.30699
3.1186
0.90631
5.39911
1.98354
3.41035
-2.32417
2.68699
-0.844573
6.30051
-0.6977
5.13174
-0.855703
4.36086
-0.955722
-6.94011
-0.178219
-6.86271
2.6075
-8.50585
-1.57759
4.71248
-3.43102
3.8987
-1.1329
5.19602
2.57921
6.43822
1.88495
5.25048
1.17391
6.09921
1.73697
-0.177069
-0.70591
-0.473625
-0.239333
-1.70036
0.0808756
-2.70543
-1.93691
17.8113
-0.297675
-9.42699
7.37851
10.4464
-0.344745
12.2038
0.194924
-5.9392
-0.412975
6.05804
-0.326541
0.205739
0.165356
5.58565
46.5626
0.467773
-2.01818
-5.53307
0.0572027
-1.0406
-0.51067
2.6288
6.22178
4.98065
-0.72071
-2.66129
-0.94461
-0.738277
-1.66624
5.67337
6.99264
-7.8278
11.3309
-0.953815
11.1101
6.85176
16.5373
2.3492
-10.5697
13.0978
2.0923
-1.15073
9.29773
-0.355312
-2.4772
14.8392
53.408
6.33733
25.6199
-18.875
0.141259
4.98249
0.0897321
-3.81931
-19.909
-5.85465
-6.98893
4.41697
0.86777
-9.39005
-1.32614
46.392
2.33561
1.21407
12.225
-0.711718
0.878672
0.0616008
-0.969603
6.56862
0.232076
3.36016
12.3549
0.591586
-2.40615
3.50178
5.16705
-3.58165
0.815915
3.91113
-2.52103
1.70465
-4.62323
6.70108
-1.30946
-2.23932
-1.52625
-1.41813
2.79795
1.3234
7.42552
1.63823
3.06068
1.27925
7.59597
3.38018
2.80744
1.29362
3.84546
-3.31804
5.13623
0.24537
8.96497
4.30362
2.07991
-3.59954
3.94288
0.500699
5.78128
1.05942
-1.00482
0.371716
-1.29517
2.1147
1.17433
1.49776
-2.38474
3.28478
0.270771
4.65318
-0.274483
-1.25569
3.91088
4.88664
1.656
6.27505
0.699458
4.21989
2.63712
-0.327017
0.292495
-8.14939
-2.98057
4.93879
-4.82029
2.06297
0.27118
-3.85127
1.06795
-5.46385
5.38696
5.07498
-2.39733
1.03823
2.48323
6.24817
1.4727
4.65736
4.2563
-5.28311
7.82642
5.4982
9.0259
1.21822
-2.7687
3.94347
-1.48735
-1.04895
4.51744
4.37508
-2.54683
4.79914
-0.365259
0.113209
-31.4825
16.485
2.57577
-1.56104
-0.149975
-0.990318
-0.762041
-0.092114
-0.659985
-1.01594
-0.456924
-3.40982
2.01819
0.595226
2.9874
11.1421
-6.83212
-1.61439
-1.78936
-1.18489
-2.90579
-0.437454
-0.0948806
-0.473569
-0.630723
-0.914693
21.4166
-17.9649
-0.748731
0.273403
-1.08618
-2.04197
-1.33343
-0.483103
-0.740001
9.20736
-2.44582
11.7863
2.97386
-11.7831
5.37581
-1.53617
7.39251
-2.68425
-0.628003
4.95053
0.780059
0.335288
-1.38861
-1.91467
-3.7947
2.94112
2.68417
-4.58022
2.55051
-3.89441
5.96062
2.59847
2.06701
-8.20756
4.11723
7.09144
1.48002
-6.83409
4.29335
0.681677
2.86695
-6.48212
3.62775
-5.39277
0.229148
4.7787
3.3049
7.57834
0.609297
4.81388
-2.5954
3.12149
-2.21031
2.17154
-4.43915
6.40074
0.860823
-5.09225
-0.405049
-4.91755
-1.9021
5.27352
-6.64751
-1.00883
3.52616
-2.98834
0.946033
-6.3521
-0.270632
4.00381
-0.467227
6.64778
1.93454
-3.79928
-4.67351
-5.34042
-0.984215
7.89545
0.0484342
1.88672
5.86876
-5.46183
-3.7202
5.88387
4.74447
-6.32094
4.02802
8.61906
1.54103
4.13217
2.52218
7.90894
4.45288
7.3069
1.125
-1.66819
2.05672
6.57329
3.64129
-7.42778
1.19368
1.33464
4.47468
7.35249
7.92997
-8.89634
1.65806
7.63813
-0.275574
6.911
-1.35619
1.99556
2.83562
-0.969378
5.8883
-7.62931
0.472937
6.43892
2.86993
6.69135
9.09647
-6.14711
4.01192
-6.14654
-1.56131
6.46556
-1.73993
4.92405
9.88292
-4.54255
5.79754
8.31326
0.771947
6.60871
3.70605
6.69455
4.41385
-12.4972
5.3804
11.7708
7.63414
-10.3663
5.18651
-5.6015
1.22241
11.2641
-1.6449
9.75146
1.33911
9.93911
-4.69168
-7.51292
-4.2839
7.58015
1.24853
5.56156
3.68066
6.79034
8.29528
-8.57601
-1.20732
8.42063
9.09787
-12.9814
4.16774
7.73542
-1.67582
-3.50738
4.06592
8.16591
6.22532
-3.28248
-1.95353
-3.82135
9.99317
-8.54375
-4.79614
-4.97656
2.49356
-3.91582
2.86501
3.89489
-1.48816
-6.76165
2.73278
-5.24615
2.54868
-5.08422
1.25349
7.5155
7.09593
-4.0569
-1.35077
3.49757
-3.64358
1.20477
1.91999
-1.63982
-0.0938564
-7.21661
-3.86159
1.78455
6.71215
-3.83082
-0.000479179
2.75657
-0.970449
-1.02351
0.284803
8.91359
0.190164
-4.39343
-1.42272
0.460888
4.93794
0.624774
10.3251
-3.02902
-0.260285
1.25616
-0.350052
-1.55711
-1.3721
-2.80627
-0.369428
0.988605
7.10422
6.98746
7.71394
-11.6293
2.7618
9.32487
4.06156
-12.6895
6.75322
1.69183
-0.986281
-0.260352
0.321068
-1.95499
12.4166
-4.91986
1.87491
5.41398
SCALARS Redistribution_Potential double 1
LOOKUP_TABLE default
0.609459
-47.3283
137.675
675.435
298.938
41.1932
140.028
-63.6716
316.708
497.988
-121.538
44.4217
2.69543
62.4355
12.2766
-23.4767
38.6136
56.6983
5.67284
42.3136
-3.41691
-57.1474
163.472
194.269
117.729
204.428
-35.7684
68.7564
-108.248
-61.0236
16.4472
-45.75
646.984
463.834
553.632
221.995
385.835
206.08
474.044
352.255
633.937
538.961
-5.23453
16.2924
6.39638
58.705
44.9426
23.9414
21.7546
37.5748
45.7923
11.2394
17.1173
13.1532
-2.95203
48.476
14.4564
-44.3472
35.5061
7.7196
28.1129
57.8882
-19.1448
33.1054
-8.44013
30.0831
-7.79167
-22.3886
35.8801
20.2149
83.0785
23.7236
-25.6167
-107.283
-71.1691
-29.7558
-1.0752
52.9153
-7.14906
116.099
52.1477
347.857
155.571
349.347
73.2592
97.8795
64.6757
75.5558
247.513
165.645
207.953
-11.286
37.5287
-91.1959
-58.9017
111.441
4.21085
84.464
-121.716
-125.994
-104.67
-102.121
28.3565
-100.673
36.1634
-70.19
-85.7619
-49.4662
-69.3395
179.364
-29.7463
256.643
679.035
589.241
631.256
482.959
559.437
594.852
396.476
503.547
381.236
456.267
566.205
282.593
344.842
251.966
294.01
207.201
467.808
633.96
147.515
327.585
288.559
375.948
160.632
633.252
691.802
260.807
397.592
573.964
506.217
401.697
684.964
471.998
610.492
622.975
488.381
329.465
317.51
223.354
144.445
202.035
97.4087
92.7009
60.0543
-37.6364
93.724
146.741
-91.3113
385.077
249.656
150.931
-3.03902
-0.514815
2.72977
9.96468
4.36368
-6.4114
8.51806
9.78593
18.6058
53.369
47.6742
32.2539
55.461
58.7126
63.1773
14.9556
41.2722
24.3686
25.9815
34.0683
37.9963
25.6461
31.6764
17.7197
54.5736
43.8995
51.1518
28.5598
44.4432
31.1289
10.5135
-0.663896
7.10084
10.0451
23.7712
16.6184
21.3482
28.8585
11.8372
-17.3206
-3.45582
-2.04986
7.1778
5.58123
4.13357
12.2616
-46.4947
31.0898
29.8782
50.7603
-39.0116
0.731028
-20.7025
1.33696
-1.40349
14.4656
-6.28116
2.34403
40.78
26.8382
6.69214
-12.5442
-15.5222
-9.32783
38.7884
58.4609
57.1261
57.8505
55.8563
53.9979
-46.9046
-37.1769
-54.7305
-20.8651
-25.1176
4.78325
31.5636
22.6105
51.2473
54.1283
59.1324
33.4542
3.83838
-0.550994
32.7204
13.6406
-11.4559
13.5681
17.4923
-47.5832
-21.348
37.194
31.263
33.5688
26.74
29.1889
-104.776
24.8339
-109.405
36.4891
48.0525
20.943
39.272
70.8153
95.4468
32.1501
37.0422
38.0029
-10.2531
-17.6236
-15.9146
-18.4543
-12.2407
-118.03
-101.844
-73.4037
-90.2385
-78.8756
-64.3692
-23.3318
-1.30807
20.5462
-4.92736
-8.14606
-24.8689
-24.1686
-40.2862
-39.0722
-55.0297
-32.7155
-33.3242
-38.8651
-6.9409
-21.8697
41.6454
27.7565
61.7691
69.3501
34.6512
132.589
69.3443
146.839
20.7206
31.9357
397.227
352.987
392.525
202.853
221.614
261.649
244.644
291.886
158.212
74.8701
95.3528
113.367
54.5629
68.2187
64.5461
60.084
110.052
85.7669
99.2751
49.1986
62.7026
100.043
72.8148
92.0023
67.5723
69.2509
280.158
223.923
261.515
165.236
185.925
206.238
159.228
175.473
130.03
77.936
91.7044
119.454
16.5123
32.4427
-32.455
-11.309
39.4366
12.1274
21.7254
-115.618
-99.0884
-52.4201
-76.9907
-62.7522
-81.6568
-65.6945
113.464
86.8411
101.849
47.0479
47.1336
92.3787
11.7474
42.839
-18.3668
-36.1162
-32.5083
-3.32919
-110.322
-123.286
-48.0105
-48.9311
-116.794
-127.417
-128.324
-80.6063
-66.0381
-131.351
-104.698
-128.147
-46.5899
-45.0971
94.5811
55.0102
100.084
-86.959
-37.8519
-1.94152
-36.8523
-20.6231
-109.245
-108.971
-134.346
-134.634
-52.4012
-77.6437
28.4858
-7.34549
-96.69
-72.7349
-87.7271
-50.529
-47.5376
-59.4977
-67.4772
-2.03836
-1.08152
41.1343
237.512
219.385
268.923
-32.6307
44.6519
76.1379
102.352
114.302
-8.26981
-70.1942
-70.1138
-80.5059
684.197
715.766
656.031
615.218
658.281
680.297
608.489
671.322
609.658
480.608
533.255
513.034
502.228
522.237
456.308
625.256
583.017
624.668
338.249
411.138
328.253
554.735
468.395
514.495
415.453
411.929
471.95
578.085
536.758
554.914
591.13
641.575
524.468
552.137
483.293
544.02
437.321
305.482
329.958
300.715
303.813
268.585
377.277
476.876
175.951
198.685
154.53
355.415
266.74
281.448
232.759
268.788
263.251
420.194
319.627
437.093
600.794
662.214
432.209
557.16
559.042
613.015
479.829
147.814
189.302
257.093
203.645
195.455
253.176
384.743
198.189
289.832
146.532
443.672
315.51
428.431
173.542
303.212
235.704
413.702
302.467
411.087
663.952
699.304
534.882
619.564
670.963
649.165
620.578
233.014
248.272
403.355
296.901
301.422
349.222
498.465
410.113
503.348
317.855
590.964
534.931
583.072
295.77
488.989
386.7
545.222
453.307
552.497
700.419
685.179
695.537
703.728
677.416
443.388
481.898
583.875
534.047
516.22
583.975
636.336
559.223
515.843
646.21
619.599
493.756
556.843
576.775
669.901
624.654
658.14
306.794
389.061
338.275
303.08
227.118
394.872
240.896
380.422
397.937
391.186
81.6741
215.804
121.586
166.365
172.502
312.527
245.242
279.42
139.864
212.629
173.721
142.996
95.166
257.549
150.254
227.868
241.427
216.002
51.5459
69.7718
62.6002
89.0702
107.814
141.273
141.745
114.879
91.8664
157.3
104.307
69.8295
-20.7522
103.059
0.355943
85.7037
111.779
138.273
-109.445
-47.994
-97.2502
-74.4318
-46.3822
95.5672
-5.49307
27.629
210.357
253.751
197.207
170.568
10.7386
167.067
-30.5701
108.464
137.95
236.995
-99.9374
-60.1164
-108.785
-121.278
-103.01
168.388
-17.0366
58.3279
398.742
454.679
400.113
362.952
205.845
362.249
128.402
284.231
336.935
443.766
-26.4627
184.065
20.5977
35.9621
46.4801
375.893
158.482
281.035
SCALARS CoVolArea double 1
LOOKUP_TABLE default
0.0245938
0.00240971
0.0376546
0.048624
0.0209896
0.0241267
0.0172156
0.00727965
0.0160186
0.0617505
0.017952
0.406358
0.0989232
0.0283408
0.0347915
0.0249555
0.0205123
0.00547672
0.0138664
0.00364291
0.00766134
0.138324
0.0173217
0.0258488
0.0415155
0.0493715
0.0453243
0.0469046
0.0258655
0.0564293
0.0210812
0.0234177
0.196259
0.044255
0.0794683
0.787525
0.0595092
0.0338833
0.0394345
0.019411
0.0871056
0.0193411
0.0438626
0.0864134
0.0590245
0.113169
0.10659
0.316841
0.0317196
0.0571004
0.0267362
0.170757
0.0515589
0.0271502
0.0413385
0.025833
0.0359208
0.00976288
0.0219834
0.0109972
0.0171948
0.00911025
0.0118044
0.0736593
0.0442369
0.0168492
0.0231384
0.00556439
0.0310971
0.0220977
0.0181853
0.0098694
0.052056
0.0644336
0.0446493
0.145329
0.111756
0.0220773
0.0139548
0.032008
0.0297124
0.020885
0.0281152
0.0432968
0.0274641
0.0224962
0.0444824
0.0330867
0.0463574
0.0542253
0.0511946
0.161048
0.0648007
0.0560249
0.0641151
0.0476229
0.0719173
0.0465242
0.016168
0.0396487
0.0142846
0.00922213
0.0285409
0.0330904
0.0354097
0.012806
0.0177445
0.0226112
0.0184882
0.0265824
0.0213207
0.034569
0.11085
0.943139
0.218588
0.0824354
0.103362
0.213445
0.0587945
0.285316
0.0677522
0.269202
0.0847117
0.0860175
0.132147
0.120813
0.126531
0.175428
0.0798679
0.0592906
0.0463794
0.0734118
0.0419796
0.0499367
0.0514561
0.0962341
0.0501557
0.0210447
0.0432514
0.029906
0.0515712
0.0393353
0.0930396
0.019848
0.0506787
0.0768371
0.026785
0.0643347
0.0491076
0.0343105
0.093426
0.0705097
0.0699516
0.0368038
0.0558682
0.0591199
0.0262373
0.03906
0.039862
0.0244406
0.0350989
0.0271011
0.0377936
0.0434263
0.0398828
0.104948
0.05074
0.0542629
0.0407806
0.0415338
0.0626285
0.328209
0.247748
0.514982
0.0503501
0.0957592
0.0572791
0.194581
0.170534
0.194443
0.0291862
0.0274812
0.0278027
0.0615741
0.0329515
0.036421
0.0258743
0.0261343
0.0292728
0.150271
0.080927
0.133886
0.0897612
0.0349546
0.0893611
0.145025
0.03042
0.130756
0.0543992
0.0290095
0.0361594
0.0263557
0.0348112
0.0299607
0.031641
0.0478194
0.0111992
0.0173074
0.00551769
0.0398838
0.0328407
0.034371
0.0170186
0.0203571
0.0227134
0.11037
0.0446308
0.0873733
0.0241615
0.0192774
0.0174414
0.0250489
0.00562478
0.0141478
0.0143328
0.00908046
0.0154176
0.0073589
0.010842
0.00963073
0.0189287
0.0174618
0.00833457
0.0344763
0.0194314
0.0189339
0.0375784
0.0116348
0.0255288
0.0816912
0.0419652
0.0188742
0.0326367
0.0394996
0.011007
0.0252754
0.0336979
0.0083113
0.0139926
0.0104557
0.00374191
0.00457462
0.00281162
0.00426933
0.00788369
0.00479645
0.00874822
0.0351319
0.0235626
0.00619571
0.0138194
0.00246818
0.00313261
0.00692558
0.00733489
0.0103832
0.0204812
0.0462732
0.0231551
0.0036525
0.0363836
0.0302898
0.0315078
0.0368262
0.0536793
0.0413272
0.0496026
0.0831273
0.0492803
0.0913729
0.0351938
0.0245218
0.304594
0.362157
0.0894102
0.239388
0.108423
0.202003
0.127309
0.0646841
0.0743819
0.0838877
0.0111686
0.00602374
0.0301504
0.020726
0.0277073
0.0161033
0.0220819
0.0267748
0.0248386
0.0230651
0.0327385
0.0166575
0.0240241
0.0301628
0.0345779
0.0211453
0.0514237
0.0225208
0.0241078
0.0209584
0.0470696
0.0362655
0.0282551
0.0250319
0.0217043
0.0184999
0.0342741
0.0275009
0.0259273
0.0284794
0.0490164
0.0279825
0.0384745
0.161982
0.0939818
0.0511125
0.0547328
0.0428886
0.045174
0.0278567
0.0265591
0.0475589
0.0338611
0.0295401
0.042348
0.0342251
0.0636328
0.0677592
0.053273
0.0327746
0.0479363
0.0443302
0.0957116
0.206571
0.130057
0.108932
0.069098
0.109267
0.0983998
0.0414269
0.0612233
0.0626859
0.0576864
0.0525565
0.0615927
0.11289
0.0406015
0.0556869
0.0526581
0.0746489
0.0672417
0.059374
0.0552856
0.0580051
0.0608249
0.126164
0.0758042
0.119601
0.0278852
0.0261548
0.00614411
0.0182679
0.0614735
0.0353901
0.0461454
0.0101621
0.0082348
0.0175323
0.0116573
0.0187095
0.00737133
0.00447864
0.0229845
0.0309446
0.0313697
0.0409324
0.0360134
0.0344811
0.0328115
0.0309228
0.0250283
0.0105808
0.0180673
0.0274755
0.0202321
0.0147211
0.0137403
0.0188831
0.0212269
0.0145572
0.0134692
0.00822569
0.0131298
0.0216746
0.0245823
0.028428
0.0200339
0.0120002
0.0152079
0.0348202
0.0252633
0.0180307
0.0370251
0.0302988
0.0336283
0.0360031
0.0191677
0.0107049
0.0113511
0.0113157
0.0883365
0.397505
0.0896594
0.45353
0.479063
0.143024
0.12871
0.532889
0.448491
0.0713668
0.0668494
0.0778208
0.0522169
0.0832426
0.0609083
0.345819
0.146736
0.293313
0.0393367
0.0867131
0.0386756
0.28022
0.123535
0.0875242
0.0748768
0.145277
0.0803104
0.675624
0.193096
0.898361
0.0785607
0.0833689
0.145231
0.197069
0.0999103
0.197959
0.154052
0.0348329
0.0366152
0.650796
0.181702
0.622426
0.0732706
0.09714
0.0973586
0.230006
0.107601
0.121829
0.0956683
0.068463
0.105785
0.131416
0.246142
0.149705
0.177332
0.209416
0.061261
0.071475
0.0590227
0.0920117
0.0668113
0.0773254
0.0594617
0.0512731
0.0548707
0.0458692
0.0525466
0.0617005
0.0701253
0.0655165
0.0260444
0.0387405
0.0342525
0.0502788
0.0482494
0.0663506
0.0380484
0.0423272
0.0471019
0.0470588
0.0632058
0.0412455
0.0661982
0.0541394
0.0779816
0.100712
0.0567879
0.054035
0.0566678
0.025368
0.0227677
0.0220057
0.0259298
0.0292228
0.0482416
0.0525606
0.0302119
0.0270294
0.0270087
0.085636
0.036048
0.0709847
0.0282126
0.0267781
0.0249539
0.0722092
0.0407389
0.085163
0.0729347
0.116431
0.089157
0.0970532
0.0590331
0.0277834
0.0249468
0.0299892
0.0247966
0.0232139
0.0344624
0.105293
0.0589136
0.0453667
0.133844
0.188402
0.0239161
0.0407274
0.0427412
0.107919
0.0762194
0.0843715
0.032137
0.0646786
0.0448339
0.046273
0.0419884
0.0590938
0.0373589
0.0485677
0.0507927
0.037599
0.0273461
0.0612081
0.0424942
0.0294477
0.0142182
0.0614915
0.0326708
0.0440877
0.0511888
0.388292
0.0913956
0.0484671
0.0538561
0.0402881
0.0498617
0.0382073
0.083536
0.512908
0.060352
0.0677213
0.0697644
0.0358356
0.0324752
0.22413
0.0721025
0.0852073
0.0279007
0.0287708
0.0212849
0.0317954
0.0448103
0.036801
0.0502732
0.0438855
0.053779
0.0593777
0.0421716
0.0593123
0.05972
0.0513503
0.0445069
0.0569249
0.0598151
0.0518024
0.0235731
0.0230309
0.0286461
0.0292895
0.0318254
0.0348211
0.0394089
0.036655
0.0258431
0.0295784
0.0186532
0.0296853
0.0264191
0.0251828
0.0295208
0.0357221
0.0510604
0.0358645
0.0236546
0.0171952
0.0175574
0.0254671
0.0255067
0.0299137
0.0326824
0.033967
0.0249852
0.02809
0.0170467
0.0303131
0.0294244
0.0289621
0.021938
0.0331866
0.0327725
0.02782
SCALARS SignedDistance double 1
LOOKUP_TABLE default
1.12801
1.22118
-0.0316356
-1.08186
0.0138274
0.716154
-0.000612539
1.17207
0.00640237
-1.06665
1.11215
1.79771
-0.0807153
0.75622
0.0397166
1.109
-0.00244045
-1
0.0486594
-1.01403
-1.05947
1.36195
0.0303619
-0.225865
-0.0867028
-1.0478
-0.0955839
-1.01935
0.0941145
0.733348
-0.0782039
-0.420254
-0.100757
1.13677
0.0218569
1.28577
-0.0834126
-1.03154
-0.101839
-0.942925
-0.0278941
-0.123695
0.0515034
1.18825
-0.000871592
1.26462
0.0128778
1.65717
0.822341
1.12004
0.22313
-0.036247
-0.0526377
-0.38862
1.19227
1.11875
0.010854
1.21785
0.00187048
-0.449228
-0.0328837
-0.912034
0.716118
1.22743
0.0603259
-1.00809
-0.13596
0.503236
-0.227592
-1.03401
0.0507525
-1.02258
-0.165779
-1.0473
-0.0406632
1.18291
-0.0719231
-0.297953
0.617868
-1.00785
-0.0095796
-0.891986
-0.000790172
1.14348
0.198187
-0.564614
1.07752
0.430088
0.0446487
0.313466
0.223396
1.3946
0.000635148
1.08716
-0.109782
1.09959
-0.00835198
-1.00079
1.18674
-1.00004
1.20238
1.19011
-0.0599833
0.940766
0.0131958
1.15599
1.177
1.1341
1.20096
0.899555
0.728532
0.470239
-0.124943
1.47318
-0.0182197
1.2891
0.0336824
1.21386
-0.0149274
1.25984
0.0805621
1.10374
-0.0157365
1.25988
-0.0377855
-1.16387
0.00942277
1.25784
-0.00868684
-1.07567
-0.00409077
-1.05676
0.0198317
-0.303888
0.0219073
-0.248341
-0.020543
-0.365649
0.036392
0.962269
0.0556356
-0.748666
-0.084134
-0.803331
0.0422628
-1.00618
-0.0166711
-1.12907
0.0899047
-0.369948
-0.0550699
1.04316
-0.0631035
-0.0929605
0.77387
-0.287733
0.103405
-0.932618
0.592874
-0.30391
0.0220901
-0.323737
0.961389
-0.987508
-0.0386334
1.19349
-0.0341123
1.08314
0.00400473
1.09312
0.122101
1.58769
0.0237237
1.80817
0.0167912
1.331
-0.0426852
1.33447
0.107644
1.61825
0.808244
-0.810602
0.0709637
-1.00937
-0.0786461
-1.00066
-0.0636066
0.635014
-0.00836367
1.29611
-0.00524911
1.48068
-0.0264144
1.10404
0.246855
1.36731
-1
1.27848
-0.00399773
0.358631
1.12179
1.20222
1.16278
0.456511
1.15619
1.10529
0.995699
1.04946
1.22039
-1.00402
0.00432161
1.10522
1.20922
1.0681
1.22808
1.10331
1.08131
1.19305
1.10162
1.09132
-1.00127
-1.00045
-0.0407563
1.11338
1.11217
1.09117
-0.0751235
-1
-1
-0.99396
-0.239385
-1
1.18089
1.10514
0.915599
1.10935
1.10334
-0.310535
0.0801742
-1
-0.0755776
-0.779756
-0.0574472
1.12363
-0.0864452
0.0223295
-0.00729731
-0.949261
-1.0449
-1.02821
-1.02788
1.15294
0.564987
-1.01048
-0.0145081
-1.00271
-0.00252621
-1.01796
0.694356
-1.02524
0.541342
-1.01454
-1.02604
-1.03401
-1.02138
-1.02566
0.0812123
1.18654
-1.01055
-1.01739
-0.109606
-1.0647
-0.017097
0.626764
-0.0453962
1.00025
1.07732
1.19086
-0.0269334
1.13908
0.000311672
-1.05924
0.0638266
1.58534
-0.0174376
-1.23689
-0.0130648
1.53169
-0.0883257
-1.0001
0.139929
1.1638
1.10646
1.12992
0.495315
1.08265
0.0102039
0.093208
-0.00854806
-0.672604