# vtk DataFile Version 4.2
vtk output
ASCII
DATASET POLYDATA
POINTS 642 double
-1.52413 4.13372 -0.403154
-0.458648 3.76393 -0.302432
-1.73889 0.629332 -0.000845435
0.896648 0.724877 0.020551
-0.498204 1.56712 1.38921
-0.901302 3.1489 0.59938
-0.451692 1.77316 -1.1363
-1.31109 3.79521 -0.725774
0.795583 2.51861 -0.574781
0.997667 2.43527 0.727338
-1.64757 3.19532 -0.572082
-2.35214 2.89976 1.06996
-2.26013 3.86158 0.580624
-1.62471 3.26066 1.1591
-1.32327 3.77722 0.403555
-0.515047 3.51834 0.0509714
-0.632289 4.48282 -0.273496
-0.218035 4.35607 -0.899647
-1.58672 4.05103 -0.995742
-1.6291 3.92816 -1.18691
-2.12363 4.0331 -0.893366
-2.47665 2.8733 0.0440605
0.228851 2.92309 0.930522
0.579496 3.15814 0.347599
-1.39877 2.11648 1.16794
-0.55643 2.47356 1.17558
-1.93516 1.71367 -0.446214
-2.09455 1.61127 0.627182
-0.84405 3.04791 -0.632219
-1.19852 2.45631 -0.805403
0.159396 3.24225 -0.313415
-0.370852 3.21224 -0.487101
1.43465 1.56988 0.620077
0.447993 1.97176 1.29263
0.253586 0.890517 1.06106
-1.252 0.887625 1.02085
-0.492046 0.740645 -0.00084515
-1.02156 1.02431 -0.726827
0.187805 1.05859 -0.879954
0.253779 2.0705 -0.943921
1.09464 1.58389 -0.301371
1.16542 2.34893 0.0474611
-1.84167 3.94375 0.0903862
-1.77131 3.95413 0.65228
-1.37203 4.05737 0.119161
-2.02893 3.14463 1.29635
-1.98569 3.63539 1.08438
-2.47454 3.40706 0.932506
-1.19412 3.45492 0.525279
-1.54493 3.60463 0.854775
-1.3035 3.23115 0.831314
-0.891928 4.1842 -0.0897218
-1.08703 4.38996 -0.330493
-0.615354 3.31859 0.374086
-0.857397 3.7157 0.116609
-0.463476 4.2699 -0.397007
-0.589958 4.07672 -0.149555
-0.489944 3.73508 -0.208091
-0.930126 4.35254 -0.592219
-1.57308 4.0918 -0.872575
-0.292777 4.09856 -0.509608
-0.375813 4.63964 -0.652499
-1.5408 3.93124 -0.941056
-0.819433 4.14163 -0.615896
-0.74918 3.99584 -0.603946
-1.63812 4.08352 -1.10224
-1.85388 4.2515 -0.616861
-1.56332 3.90163 -0.984952
-1.59472 4.19634 -1.47187
-1.9154 3.73691 -0.920024
-1.77057 3.9348 -1.13746
-1.66462 3.77271 -1.12221
-2.14765 3.87117 -0.101489
-2.09309 2.96161 -0.36011
-2.14856 3.47857 -0.293598
-2.46932 3.41202 0.322985
-2.46599 2.85868 0.605925
0.0728598 3.27862 0.280199
-0.095653 3.35077 -0.0514028
-0.210719 3.06877 0.900851
-0.00461099 3.27989 0.608484
0.839195 2.88083 0.543429
0.479428 3.09399 0.634661
0.655234 2.73545 0.909579
-1.25244 2.84572 0.883244
-0.769925 2.85 0.889092
-1.8849 2.59839 1.02921
-1.61461 2.84048 1.17276
-0.481475 2.02359 1.38992
-1.00807 2.36745 1.06243
-0.861948 1.75272 1.15404
-2.38719 2.24426 0.340281
-2.1945 2.37074 0.840042
-1.9617 2.35783 -0.593711
-2.24677 2.27825 -0.226905
-1.78031 1.09076 0.306428
-2.14231 1.5783 0.0190465
-1.71281 1.13022 -0.146212
-1.37157 3.49584 -0.685448
-1.42042 2.91258 -0.627793
-1.2138 3.65226 -0.665572
-1.38476 3.67512 -0.747638
-0.824551 1.98877 -1.07225
-0.994231 2.89936 -0.671028
-0.51554 2.29231 -1.07237
-0.586386 3.88696 -0.534354
-0.784081 3.68957 -0.564746
-0.384225 3.53721 -0.301624
-0.538419 3.82667 -0.479473
0.270081 2.80759 -0.628075
-0.142721 3.21792 -0.417434
0.607644 2.88223 -0.422759
1.28427 0.959342 0.331297
0.973741 1.10453 0.859694
0.669084 0.739868 0.527127
0.82147 2.20996 1.03991
0.924916 1.71803 0.920333
1.1541 1.90996 0.585966
-0.200828 1.1947 1.38866
0.38914 1.3823 1.23814
-0.041979 1.74348 1.40891
-0.0741846 0.801532 0.603629
0.281003 0.740674 0.0114952
-0.814826 1.13925 1.23279
-0.471453 0.7395 1.19618
-1.20853 0.756709 0.00648443
-0.892102 0.740679 0.612961
-1.56185 0.723671 0.657406
-0.105237 0.740699 -0.542282
0.563344 0.836906 -0.504259
-1.47492 0.804108 -0.470358
-0.909261 0.726676 -0.553607
-0.198978 1.414 -1.08588
-0.540903 0.96471 -0.923834
-0.711422 1.39617 -1.00352
0.739775 1.28301 -0.617927
1.16434 1.08375 -0.279084
-0.0654841 1.89698 -1.13548
0.277551 1.58234 -0.921226
1.03146 1.97205 -0.457133
0.731944 1.808 -0.733928
0.573995 2.25423 -0.80508
1.49668 1.49776 0.0274893
1.08575 2.41742 -0.266547
1.15957 1.91421 -0.0980541
1.2192 1.83525 0.275574
1.15988 2.38979 0.409179
-0.0256333 2.25108 1.4065
0.378878 2.48556 1.16302
-0.138591 2.61079 1.04727
-1.66873 1.10551 0.836554
-1.24257 1.35527 0.933458
-1.75344 1.83479 0.988976
-1.02953 1.60249 -0.729836
-1.40934 1.35812 -0.446936
-1.61036 1.98349 -0.704001
0.0582793 2.60458 -0.79425
-0.235269 2.40474 -0.963424
-0.626541 3.13915 -0.581532
0.90956 2.82652 0.214472
0.860585 2.85485 -0.148262
0.489766 3.21223 -0.0158755
-1.65776 4.09375 -0.218997
-1.6493 3.93718 0.158536
-1.45425 4.15352 -0.160657
-2.03743 3.95759 0.654394
-1.81483 3.94313 0.415681
-2.10698 3.95231 0.38538
-1.33795 3.91219 0.277359
-1.60066 3.94924 0.439928
-1.48941 3.90657 0.59235
-2.25122 3.00932 1.26108
-2.26838 3.29319 1.19674
-2.48777 3.13313 1.05097
-1.77681 3.41417 1.10562
-2.05719 3.4033 1.23938
-1.78771 3.20081 1.22077
-2.38902 3.66308 0.765519
-2.24842 3.55617 1.06519
-2.23346 3.81358 0.925841
-1.02409 3.26253 0.552828
-1.32533 3.37895 0.702744
-1.06948 3.14986 0.660787
-1.47868 3.72616 0.686435
-1.41195 3.5237 0.67883
-1.32257 3.65022 0.490015
-1.48331 3.22384 0.909271
-1.48352 3.40686 0.828619
-1.6192 3.41406 0.94175
-1.93454 3.84579 0.90332
-1.72265 3.61978 0.975904
-1.6352 3.86205 0.889861
-1.23452 4.3601 -0.0870612
-1.29095 4.19227 -0.396406
-1.12524 3.92404 0.145038
-1.10322 4.16972 0.0751391
-0.858363 4.49806 -0.257621
-0.91411 4.38274 -0.132303
-0.757192 4.35248 -0.153914
-0.761114 3.22876 0.495136
-0.912933 3.37148 0.40936
-0.689 3.67214 0.0457833
-0.774591 3.50795 0.227919
-0.522518 3.42051 0.194077
-1.04532 3.56415 0.326873
-1.13018 3.73496 0.262432
-0.382155 4.02712 -0.375911
-0.425414 4.06919 -0.266233
-0.467791 3.75277 -0.272099
-0.635861 4.29607 -0.260026
-0.530705 4.16864 -0.283596
-0.540335 4.41347 -0.372711
-0.515603 3.64461 -0.102207
-0.495104 3.97256 -0.192336
-0.609451 3.79196 -0.0858074
-0.909992 3.96316 -0.000485775
-0.726357 3.88656 -0.0499926
-0.750217 4.18413 -0.152747
-1.28536 4.11316 -0.533657
-1.5317 4.12222 -0.691899
-0.789333 4.70122 -0.451961
-0.992359 4.44161 -0.573907
-1.58779 4.07358 -0.966428
-1.27275 4.02933 -0.598512
-1.26989 3.99183 -0.618891
-0.377087 3.99719 -0.440279
-0.349451 4.18189 -0.461502
-0.267291 4.54209 -0.814261
-0.305164 4.37244 -0.612123
-0.169939 4.34375 -0.763889
-0.4241 4.40176 -0.482106
-0.486502 4.62191 -0.467051
-1.39304 3.8479 -0.782077
-1.25098 3.87573 -0.654657
-1.14586 3.8081 -0.641302
-1.2721 3.94349 -0.641855
-1.26869 3.91312 -0.650646
-1.58629 4.02698 -1.01252
-0.512139 4.12898 -0.748706
-0.781979 4.09598 -0.616069
-0.498547 4.33036 -0.851616
-0.643797 4.65803 -0.702839
-0.545889 4.48894 -0.807931
-0.866896 4.20982 -0.609499
-1.68559 4.20388 -0.804608
-1.76249 4.18351 -0.592
-1.60196 4.35135 -1.20616
-1.63207 4.10959 -1.05489
-2.08171 4.23645 -0.748621
-1.8509 4.136 -0.94303
-1.87202 4.09754 -0.982266
-1.45799 3.84492 -0.846963
-1.55788 3.91169 -0.973174
-1.59893 4.05217 -1.23597
-1.58775 4.02492 -1.2337
-1.62185 3.95114 -1.19417
-1.59112 4.03711 -1.21662
-1.60125 4.05084 -1.21193
-1.71704 3.45482 -0.636801
-1.77574 3.77242 -1.0886
-1.61911 3.47089 -0.670363
-1.85297 4.00268 -1.06784
-1.92596 3.87377 -1.17518
-2.01938 3.90269 -0.959268
-1.64188 3.83357 -1.24017
-1.74026 3.90748 -1.15157
-1.65427 3.96799 -1.17165
-1.60427 4.03144 -1.18483
-1.60442 4.02729 -1.18219
-1.70501 3.99966 -1.13677
-1.86888 4.15306 -0.296477
-2.12961 4.01145 -0.587591
-2.02567 4.11476 -0.397989
-2.04661 3.94812 -0.00192237
-2.25615 3.87422 0.272056
-1.83218 3.09309 -0.473289
-1.87356 3.39653 -0.514944
-2.3755 3.18622 -0.154096
-2.12715 3.24172 -0.329648
-2.35459 2.90127 -0.2226
-1.99707 3.60689 -0.602114
-2.0749 3.79787 -0.662462
-2.46638 3.12846 0.758969
-2.48422 2.84916 0.849593
-2.46648 3.70383 0.474914
-2.4688 3.41196 0.628115
-2.46637 2.86051 0.328871
-2.57541 3.13556 0.465619
-2.46617 3.14467 0.181699
-2.18412 3.6898 -0.260219
-2.35889 3.42617 -0.00196821
-2.3623 3.67339 0.149557
-0.32602 3.47635 -0.121869
-0.369724 3.54793 -0.219012
-0.261103 3.34703 0.149003
-0.300563 3.41474 0.00137485
0.291326 3.28038 0.163817
0.0285945 3.29058 0.13911
0.323811 3.27989 0.326659
-0.524787 3.06522 0.706476
-0.404867 3.19739 0.638722
0.142944 3.12809 0.839237
-0.102113 3.17845 0.771275
0.0329003 3.01685 0.951812
-0.292702 3.28024 0.49322
-0.23848 3.29157 0.33414
0.944644 2.62267 0.662965
0.753342 2.79806 0.735379
0.879836 2.58597 0.84058
0.57232 3.16012 0.50355
0.684038 3.00306 0.611504
0.707627 3.02922 0.446081
0.471644 2.81639 0.927163
0.632536 2.92997 0.829416
0.374108 3.03287 0.822236
0.0703078 3.28069 0.428415
0.243763 3.19888 0.639755
0.329955 3.27925 0.495297
-1.07389 2.99968 0.751918
-0.849011 3.00363 0.730309
-1.48446 3.03704 0.956675
-1.35017 3.03915 0.865596
-0.673773 2.67712 0.956699
-1.05998 2.84405 0.83733
-0.924013 2.65812 0.950971
-2.13176 2.72042 1.12292
-1.96127 2.81205 1.27765
-1.5365 2.52432 1.00017
-1.73568 2.73061 1.11985
-1.64149 2.34193 1.06376
-1.74429 2.96009 1.27555
-1.65856 3.03357 1.18415
-0.48864 1.73173 1.38966
-0.757011 1.84488 1.38967
-0.640038 1.63261 1.25967
-0.766781 2.37823 1.05803
-0.73931 2.17547 1.25953
-0.518628 2.31927 1.35362
-1.11322 1.90729 1.06038
-0.913936 2.01381 1.11763
-1.20734 2.2398 1.0609
-1.45876 2.84129 0.981227
-1.36417 2.60261 0.959699
-1.17672 2.65349 0.951853
-2.28402 2.62229 0.706442
-2.23022 2.64229 0.916141
-2.35696 2.58124 0.207867
-2.35502 2.58684 0.438893
-2.24512 1.97076 0.789505
-2.35139 2.24758 0.595654
-2.272 1.94412 0.480156
-1.77544 2.73916 -0.532768
-2.00719 2.66364 -0.451324
-2.1958 1.95749 -0.37762
-2.12996 2.31333 -0.439622
-2.02431 1.98874 -0.554463
-2.2058 2.6112 -0.311919
-2.25232 2.58825 -0.0708136
-1.91537 0.795978 0.203639
-1.88342 1.07219 0.0114469
-1.9109 0.843336 -0.211576
-2.15675 1.57016 0.305463
-1.86751 1.40289 0.157832
-1.82037 1.41713 0.456765
-1.77755 1.46856 -0.248732
-1.87107 1.41061 -0.0854698
-2.07397 1.62068 -0.249157
-2.3882 2.24177 0.0402367
-2.2467 1.9281 -0.116392
-2.31744 1.9053 0.177232
-1.54896 3.46647 -0.666751
-1.53067 3.10788 -0.605869
-1.55915 3.76879 -0.918629
-1.56125 3.70386 -0.880984
-1.34343 2.74187 -0.67758
[...]
POINT_DATA 642
SCALARS Mean_Curvature double 1
LOOKUP_TABLE default
-1.01659
-0.329944
5.98866
4.58765
4.93533
-1.00938
0.0272573
-0.193574
5.00466
-3.53524
-0.771755
2.10928
2.21678
4.89431
-0.198813
-0.498145
5.23122
8.51213
1.51883
5.93845
6.72353
2.88619
0.587547
1.16696
4.62026
2.69055
1.88818
2.30857
-0.0735395
2.53305
2.63721
-0.208069
3.65833
1.69429
1.9112
0.907851
0.136672
0.676122
1.60671
-1.31079
-0.951388
0.142115
-0.988377
2.25394
1.3612
2.50229
2.87906
3.28677
-0.678196
2.06187
3.9014
-1.72979
1.15375
-0.808719
-0.387976
-1.21953
4.30376
0.329565
-1.30592
-0.0837313
13.8426
6.78469
-0.685157
-0.152999
0.0326519
1.51095
5.20978
-0.251871
10.3709
2.33299
2.55815
7.43306
1.91764
0.264379
-0.551277
0.742012
1.27897
0.034653
-1.00128
3.81749
3.52347
4.92571
-1.35207
2.23487
-1.39304
1.94594
-1.82127
4.6749
0.748647
0.630614
-1.0692
1.55039
1.60057
3.80038
0.668839
-1.36836
2.60964
-2.14527
0.215418
-0.78227
-0.152778
0.183327
1.41019
-0.568545
1.17339
-0.363382
0.2492
-0.138023
0.502037
3.29017
-0.483738
5.63152
0.95819
4.95733
2.6581
2.32379
1.0411
-1.31847
4.10261
0.1997
0.0343578
-1.89888
-0.0874042
0.533973
5.00662
-2.08689
0.0207731
1.98202
0.13759
1.45344
5.6344
2.87558
1.19602
1.09178
0.854061
-1.23425
2.71674
4.71803
-2.24891
1.58136
-0.498692
3.69367
0.0818007
5.99094
-1.23521
-4.93147
0.591204
3.75765
1.71458
-2.53625
2.93205
-2.84921
1.30139
-1.95835
-1.42533
2.52361
0.877534
-1.72631
0.0324386
1.05143
2.5785
2.94015
-1.25891
-2.36643
0.298925
2.86855
-0.0940405
2.16082
0.665115
1.52901
5.87009
4.11724
3.13414
4.47837
0.806041
3.29224
1.87138
1.73187
2.45791
4.54734
-0.802228
-0.702169
-1.08219
0.256694
-1.57165
-1.1051
-1.38376
-0.459293
-1.97693
2.29266
1.25011
6.02102
5.37026
0.126135
-1.2986
4.6449
2.95165
4.48148
5.57651
-1.01455
-0.83216
-0.236379
-0.676401
-0.714828
-0.856826
-0.934079
2.3795
9.90935
0.276274
-1.67862
-2.8638
-1.20334
-0.341109
2.91309
-0.275353
-1.10265
-0.306068
-1.69986
-0.0258501
-0.0355245
6.37591
8.52848
8.93515
0.109156
0.158388
-3.75578
2.51871
7.48879
-0.214263
8.03994
0.117691
5.87962
-0.162893
0.19259
0.311028
0.145396
0.109111
1.48797
1.30892
-0.628783
4.63756
5.66253
2.73101
-0.691262
5.75753
-1.90491
9.63964
2.30947
7.41645
2.16668
2.70987
-0.211234
-0.381386
5.27426
52.6888
2.84985
12.7108
9.78131
-0.046776
2.76397
0.197195
2.63838
11.2442
2.66843
15.9891
3.61112
2.404
3.9112
-3.92828
1.14729
3.62382
2.97015
3.05378
1.67548
2.9918
-1.01954
-0.764503
2.61261
0.58449
3.13089
0.692588
1.5387
-0.639453
4.14793
4.40889
0.294413
0.813376
3.49812
0.481112
1.21006
0.642655
1.55577
-0.524457
-0.264517
-0.886712
-0.764183
2.32545
-2.55968
1.34624
-1.76322
1.81111
3.78198
1.25506
4.35901
1.77194
-1.59977
0.282522
-1.72723
3.79099
6.03172
1.43258
1.35228
-0.436327
6.30174
2.02621
0.873129
-0.214689
6.15715
-1.12102
-0.674145
-1.39648
-1.53222
-2.48572
-1.56618
1.01762
2.18232
4.84373
-1.64751
0.0224948
0.442049
5.28838
1.0206
1.03153
5.34792
-2.24408
-3.16176
2.02167
3.93997
-1.17288
-1.79128
-1.22435
-1.27966
-1.51098
0.365332
-1.71796
0.749001
-0.290686
-0.348747
3.97686
1.93038
0.383202
-0.490674
0.487151
3.27154
1.67213
3.69614
2.24178
-1.95071
5.94878
2.42574
6.65346
2.31627
-2.18071
-1.46352
-1.25632
0.17231
3.10301
2.47755
0.719676
1.75771
0.256775
-0.452754
0.212552
-0.205214
-0.617286
-0.154766
-0.345167
-0.194103
0.0674576
-0.286523
0.0112835
-0.286294
-0.356008
-0.0370756
1.15845
6.47217
-0.291215
-0.840914
-1.29621
-0.310303
-0.417763
-0.915489
-0.217358
0.185029
-0.0509981
0.238379
-0.0805799
0.272918
8.6639
-0.931044
0.193683
0.15637
0.274307
0.562653
-0.721795
0.156647
0.159804
-0.600243
-1.1451
9.52038
1.24947
-4.27061
0.0374298
-0.716344
1.02911
2.64527
-2.82818
8.23427
-1.12347
-0.0386302
0.419076
0.299171
0.519832
3.31835
0.121761
1.95083
1.87271
4.97267
4.63286
-4.22607
2.19316
3.99559
0.275604
4.452
1.95749
-1.45504
2.17401
6.13604
-0.127017
-0.494512
2.34532
-0.069355
-0.762446
3.31485
3.06751
-1.59221
1.12533
3.49371
0.917484
-0.389891
-0.0953105
-2.59357
-0.104786
-0.268545
2.59924
0.323489
0.0679978
0.584651
0.277116
-1.03978
-1.58949
1.68611
6.5542
3.61611
-1.88005
2.2679
3.13187
3.51068
-0.810458
-0.0139079
-0.589488
0.11711
5.56657
-0.984557
2.63291
2.51091
0.821819
0.0227199
0.0684214
3.99988
-0.734956
-0.197135
1.7786
3.86994
3.80966
1.81397
1.93273
1.44193
3.12521
6.41259
-0.317785
-0.159943
0.707862
5.48483
1.27358
0.769055
1.28236
-3.20629
-0.465472
-3.57381
4.88229
0.013573
5.5406
4.52544
-0.501675
4.81507
0.082585
3.85175
3.45693
-4.33113
-0.411833
-0.8964
2.40498
-0.733685
0.078298
-1.25669
1.50126
0.949932
3.22738
0.316677
-0.074768
-2.64816
0.779619
4.34685
-0.652316
3.54411
2.6246
5.51121
2.19319
1.40669
0.152729
6.14261
2.50269
4.29702
0.33753
-4.30194
2.27357
-0.774094
1.28759
3.8989
3.5815
-5.74268
0.629113
6.91782
2.18554
-2.39092
0.778134
-2.43648
0.22184
5.22758
-2.28316
6.16226
3.34539
4.89611
-1.1835
0.0790922
3.67374
-1.25691
0.377442
2.18954
1.96585
-2.22936
2.42108
-3.47624
0.116323
-0.490147
-1.79223
0.237111
1.44938
2.95961
0.471549
1.46717
7.67238
2.30046
-1.27744
-1.68845
-0.257385
-1.49446
-1.4453
6.17575
-0.947376
2.88048
0.756551
3.12037
0.084559
0.270655
1.09426
-1.02684
5.23738
-1.27627
-1.81129
1.22858
-1.4617
1.77267
1.13479
-0.84992
-1.45812
-1.75936
-1.4008
1.84708
4.1984
-2.94723
1.50169
-1.31337
0.882352
-1.50991
0.461147
-0.122574
0.0678208
-1.77108
-1.3348
2.04176
1.43676
1.82705
2.26036
6.52294
0.244533
0.199961
-0.196886
-0.225168
-0.00463343
0.472283
1.02471
-1.32409
2.92174
3.74432
-0.0120951
-1.4214
-0.189689
6.67602
2.83571
-1.10864
-3.31222
4.30876
-0.61763
1.50449
0.716905
-1.39646
6.55285
0.889589
1.39858
-1.21857
SCALARS Redistribution_Potential double 1
LOOKUP_TABLE default
-0.000454088
3.47867
-4.48262
4.99869
-5.7579
-3.65379
6.58101
2.28828
9.94363
4.79022
0.450708
-8.1055
-6.2069
-7.86422
-3.75031
1.63534
1.99204
2.97786
1.59119
1.82092
0.465602
-5.39166
0.857421
5.68408
-7.75045
-4.6925
-2.89042
-7.08634
4.69221
2.72801
7.35558
6.32387
6.02355
-0.813431
-1.49212
-6.74398
-0.924087
1.08288
5.95838
9.08284
8.8137
8.40511
-3.35959
-5.7537
-1.98842
-8.31159
-7.52873
-7.60611
-4.26178
-6.5494
-6.23467
0.68206
1.16242
-0.74978
-0.507313
2.45225
1.81508
2.96106
2.38189
1.35699
2.97542
2.67695
1.79713
2.85618
3.23335
1.63124
0.107141
1.80717
1.77278
0.768949
1.56006
1.67067
-3.12359
-2.62381
-2.60734
-5.96603
-7.26839
3.87517
4.82751
-0.85726
1.79105
5.4744
3.74523
2.7321
-6.63181
-4.42631
-8.26985
-8.0985
-5.26687
-6.56539
-6.76974
-6.43846
-7.89243
-2.05407
-4.30282
-5.80234
-5.17886
-3.62928
2.16328
1.51843
2.67606
2.18324
5.21631
4.01513
6.99436
3.5891
3.82286
4.60984
3.75615
9.2179
6.91775
9.39187
5.57411
3.31165
2.16385
2.24118
2.77979
5.71309
-4.39571
-1.28535
-3.73094
-1.61715
2.16073
-6.45384
-4.83783
-3.34586
-4.65829
-6.30975
2.87274
5.4313
-1.97241
0.119432
6.31971
3.44953
4.27358
7.67296
7.20615
8.10723
8.00415
9.32155
9.05218
9.70484
8.09704
9.47919
8.81692
7.57922
6.90816
-3.01679
-0.0368551
-2.3017
-7.15872
-7.41878
-7.91571
2.34157
-0.852014
-0.352705
8.88294
8.05515
5.52108
7.33762
8.76896
7.07231
-1.16784
-3.26221
-0.78327
-6.13262
-4.85004
-5.26983
-2.93382
-4.49944
-5.05249
-8.30282
-8.10583
-7.96465
-7.74787
-8.04332
-8.1532
-6.99729
-7.67785
-7.09802
-3.90211
-5.67364
-4.7287
-5.63767
-5.66387
-4.34742
-7.07159
-6.60593
-7.21483
-6.82965
-7.12695
-6.3841
0.0199933
0.736195
-1.49014
-0.58019
1.60124
1.02519
1.46719
-2.29655
-2.52133
0.63681
-0.762333
0.807852
-2.52075
-2.36597
2.95173
2.55179
3.34281
1.9112
2.20959
2.24492
2.3995
2.33777
1.64126
-0.0175524
0.918598
1.31994
1.33776
0.985394
2.18378
2.12681
1.53116
1.70323
1.83334
3.16563
2.79393
2.84368
2.74825
2.91095
2.52282
2.43119
2.06497
2.19105
2.6014
1.97486
2.06223
1.63664
3.11922
2.99302
2.93227
2.58379
2.77747
2.66135
0.881518
0.137739
1.65365
1.56458
0.427261
1.06011
1.11382
1.97719
1.80388
1.80015
1.80755
1.81789
1.79895
1.79628
0.504769
1.42762
1.00259
1.29895
1.28216
0.746598
1.75144
1.63448
1.76873
1.79864
1.79929
1.62273
-1.22194
-0.54881
-1.08741
-3.34153
-5.07164
-0.838932
-0.577298
-4.18466
-2.5506
-4.14943
-0.617245
-0.392605
-7.49079
-7.78811
-6.1757
-6.9347
-6.42603
-6.71284
-5.68766
-2.67915
-4.49256
-4.86422
3.86837
4.09333
2.74971
3.34063
5.50193
4.41138
4.81969
-2.10464
-0.738663
1.25448
0.41613
0.0769238
0.713797
1.83043
5.04527
4.09973
3.84865
4.85725
4.64189
5.62186
1.88015
3.32533
2.28772
3.0696
2.78843
3.99479
-5.32193
-4.1222
-7.36221
-6.75662
-4.50657
-5.76502
-5.67281
-8.32675
-8.40498
-7.83852
-8.23671
-8.04601
-8.30672
-8.11977
-5.66533
-6.21209
-6.28236
-5.71321
-5.89408
-4.88888
-7.2941
-6.68331
-7.27428
-7.46302
-7.37361
-6.71083
-7.59138
-8.06256
-6.0337
-6.85884
-7.53745
-7.21781
-6.81533
-0.830971
-2.28521
-3.7735
-3.18071
-2.69999
-3.63736
-4.83565
-5.16782
-4.6902
-4.10804
-6.17203
-5.47569
-6.5831
-3.27518
-4.36266
-4.06788
-5.4924
-4.80124
-5.81405
1.30628
1.03265
1.77514
1.71861
1.95107
1.95431
2.65044
2.38766
2.08938
2.84204
2.38307
3.13777
1.85002
1.79678
6.09709
6.32018
6.89635
3.67072
5.03806
3.92938
6.22304
5.52502
4.38276
2.17164
2.85863
2.781
3.4875
2.97414
3.17998
3.3661
4.69961
3.74173
4.89278
3.87583
3.73046
5.36629
4.26806
5.80154
3.22356
3.04531
9.85768
9.43922
9.85812
6.60304
8.53999
8.06773
8.79635
8.98613
7.17915
3.64969
5.261
5.01713
5.19095
3.98425
3.71639
4.69312
4.35216
6.48353
0.367325
2.44041
0.755761
3.56943
3.99624
5.29945
0.964236
2.53415
0.977863
6.08523
4.38303
4.66723
-5.31915
-4.01488
-5.10603
-1.34491
-2.79375
-3.03985
-2.24148
-2.48068
-0.87331
3.01389
0.931595
0.830387
2.06192
3.24932
-1.59534
0.0157397
0.628228
0.145268
-1.29218
-6.23079
-5.65532
-5.88886
-5.93847
-6.58027
-4.74351
-3.61711
-4.10564
-4.91033
-5.20439
-3.21029
-4.04681
-2.34177
-6.61221
-5.7068
-5.9409
-3.66866
-4.87756
-3.55087
3.80952
5.36061
1.06055
2.37107
5.75678
4.3529
4.5401
-3.32313
-2.58513
0.747805
-0.900756
-0.243773
-1.57855
-0.550174
6.56044
5.17132
5.78976
4.80749
4.93017
6.01598
2.85145
3.57321
2.4886
1.4357
2.16051
3.39489
6.64897
6.42339
6.97587
6.76371
8.15745
7.69263
8.31043
7.29749
7.38019
8.58522
8.09537
8.69514
7.24489
6.97178
9.77544
9.59067
9.9034
8.87858
9.26405
9.09218
9.47832
9.45319
9.1405
8.30945
8.65137
8.41749
6.53056
9.1807
7.76576
7.17537
7.2384
9.77469
9.4757
8.57526
9.07581
8.91295
9.12519
9.13832
6.31284
6.25176
7.01935
6.75755
7.70452
7.25859
7.98857
8.94588
8.31631
8.42761
-4.63625
-2.0162
-3.36501
-4.22392
-3.87112
2.3611
0.398456
1.41441
1.12489
-0.525859
-2.53087
-3.49652
-3.02962
-1.49288
-0.556118
-1.75655
-1.19222
-2.73971
-6.13067
-6.9622
-6.84794
-6.8192
-7.14095
-6.76189
-7.62875
-7.26175
-7.01315
-7.13188
-8.18566
-7.60947
-7.98948
-8.1171
-7.95083
-7.3048
-7.67673
-7.46256
4.87193
1.72235
3.3775
3.61785
2.70139
-3.14669
-1.95586
-2.42016
-1.28938
0.115905
-0.254878
1.17785
0.446147
-1.22751
-1.64063
0.543349
-0.546291
1.01506
9.70964
9.24141
9.51532
9.1029
7.93541
7.59512
6.7087
7.47718
8.37994
9.07883
3.21012
5.84673
4.39245
3.54996
5.03563
8.48926
7.18659
7.52988
6.22037
7.99446
7.1461
6.40907
6.54648
9.73413
8.53697
9.2581
9.26378
8.70058
4.84165
6.5538
6.03259
6.01432
7.38273
8.04368
8.0095
7.35837
SCALARS CoVolArea double 1
LOOKUP_TABLE default
0.0525288
0.0104318
0.0657905
0.0715561
0.0364487
0.0381067
0.0244803
0.00921476
0.0274525
0.0444282
0.0470266
0.0554858
0.0705378
0.0490025
0.047089
0.0454866
0.0462375
0.0513519
0.0233552
0.00982271
0.0567076
0.0892829
0.0477687
0.0422365
0.0896269
0.0688858
0.0766559
0.106553
0.0516165
0.100898
0.0486931
0.0428445
0.0832061
0.0704718
0.0948321
0.0660949
0.126462
0.0582371
0.0731182
0.0601237
0.064396
0.0455204
0.0828418
0.0638085
0.0810527
0.0690474
0.0730677
0.0812025
0.0559823
0.0438059
0.0475355
0.0454555
0.0702805
0.0659379
0.0593467
0.0266628
0.0356801
0.0284792
0.0618393
0.0304578
0.0308465
0.0575606
0.0189528
0.0377634
0.0402289
0.0187538
0.0573657
0.0103836
0.0041995
0.0705323
0.00931857
0.0356292
0.0856439
0.0905653
0.084178
0.0897707
0.0772113
0.0434062
0.0388785
0.0600243
0.0573394
0.0467052
0.0504387
0.0471824
0.0439092
0.0600641
0.0743505
0.0475264
0.0742863
0.0802074
0.0787175
0.09127
0.0813043
0.0818621
0.0887043
0.0956246
0.0956227
0.0670283
0.0281125
0.0690812
0.0164141
0.0128378
0.0831789
0.059212
0.0693985
0.0155515
0.0370328
0.023089
0.0272852
0.0571863
0.0416195
0.047806
0.116662
0.103075
0.103164
0.0592551
0.0751826
0.0494777
0.0817057
0.0972867
0.0793923
0.125937
0.0915221
0.0639168
0.0970893
0.096231
0.0992335
0.0863627
0.10512
0.089109
0.0718042
0.0800376
0.0807029
0.0765941
0.0608873
0.0853924
0.0759996
0.0565582
0.0759341
0.0581747
0.0669921
0.0636362
0.09201
0.0488568
0.0512156
0.0529533
0.0567708
0.057851
0.0622133
0.0625782
0.0691284
0.0779852
0.0887659
0.0830747
0.0675848
0.0889438
0.070803
0.0595142
0.0676462
0.0431507
0.0555421
0.0546388
0.0749466
0.0777516
0.0779799
0.0715627
0.0664919
0.0726721
0.0578465
0.0620879
0.0588794
0.0710614
0.0718656
0.0729752
0.0577322
0.0678535
0.0505487
0.0781181
0.0748552
0.0765899
0.0456478
0.0473425
0.0443753
0.0495888
0.0425609
0.05035
0.0420665
0.0361238
0.0439076
0.0742247
0.0585766
0.0634078
0.0834806
0.0629969
0.055378
0.0688585
0.0577933
0.0533423
0.0309097
0.0562216
0.0571306
0.0447759
0.0615841
0.0581374
0.0632812
0.0580238
0.0232658
0.0276092
0.0198014
0.0302053
0.0263712
0.029847
0.0380757
0.0288722
0.0365932
0.0575764
0.0460675
0.0396112
0.0533755
0.0496028
0.0803978
0.0706678
0.0178858
0.0352992
0.0287364
0.0162762
0.0250875
0.0540049
0.0482909
0.0461367
0.0378824
0.058065
0.0120158
0.0301259
0.029924
0.0223075
0.022612
0.0163396
0.0438878
0.0382158
0.0580466
0.0823372
0.06601
0.0575124
0.0412723
0.0537285
0.0258545
0.0241629
0.0650023
0.0400039
0.0310843
0.00675341
0.00618486
0.00390241
0.00726684
0.00885876
0.00903342
0.0154027
0.0660231
0.0514923
0.042638
0.0276137
0.0312456
0.0513053
0.0187711
0.0155734
0.00646999
0.00868568
0.00336995
0.0128224
0.0709012
0.0851989
0.0740686
0.0739576
0.0725177
0.0816863
0.0842127
0.089073
0.0864601
0.0880961
0.075613
0.0752616
0.0782006
0.0700742
0.084047
0.08435
0.0796929
0.0841352
0.0877668
0.0984913
0.0943071
0.0945835
0.0303016
0.0163853
0.0505449
0.0408731
0.0498401
0.0424608
0.0436709
0.0680899
0.0685291
0.0516692
0.058681
0.0478685
0.064258
0.0553287
0.0526329
0.0494162
0.0515444
0.0406518
0.0419086
0.0343446
0.0490194
0.0497831
0.0543427
0.0515452
0.0532125
0.0465281
0.0512923
0.0568917
0.0471275
0.0421279
0.0666662
0.0496387
0.0650728
0.0667219
0.0725225
0.0744371
0.0590569
0.0807712
0.0501917
0.0431068
0.0517098
0.0749433
0.0623424
0.073083
0.0837974
0.0668133
0.0822901
0.0794113
0.0874637
0.0507714
0.069545
0.0615672
0.0779714
0.0634253
0.0888618
0.0829025
0.108351
0.092854
0.104733
0.0817356
0.0855669
0.0848365
0.0796657
0.0791046
0.0822546
0.0927904
0.0922052
0.0879208
0.0810502
0.10886
0.0925858
0.0990184
0.0703077
0.0743253
0.0855109
0.101614
0.0995775
0.10579
0.047064
0.058554
0.0186096
0.0328206
0.0823799
0.0528701
0.0644358
0.0135308
0.0107215
0.0281356
0.0121825
0.0297023
0.0116436
0.00875022
0.0502935
0.0775592
0.0515514
0.0822926
0.0788508
0.0914611
0.0612205
0.0727532
0.0560765
0.0171677
0.0312569
0.0394339
0.0343283
0.0262149
0.0323797
0.0227436
0.0366308
0.0265398
0.0225744
0.0158086
0.0182272
0.0298863
0.0271447
0.0384006
0.0337711
0.0403366
0.0459038
0.0558542
0.0465406
0.0334356
0.0526953
0.0496202
0.0506448
0.0556954
0.043682
0.0228594
0.0242922
0.0208536
0.082721
0.100806
0.0810646
0.102531
0.110663
0.1358
0.100625
0.103616
0.0974756
0.0603461
0.0597111
0.0588781
0.0729059
0.0606096
0.0668756
0.0501993
0.0590407
0.0752501
0.0610002
0.0765733
0.056179
0.0915078
0.0829292
0.0875642
0.0732744
0.0856973
0.0861449
0.10389
0.101726
0.109987
0.0961266
0.0817263
0.107634
0.110595
0.108389
0.112124
0.133654
0.0605636
0.0678389
0.092364
0.0879238
0.0706943
0.0823427
0.0842645
0.0774945
0.106297
0.0815007
0.119207
0.103501
0.100695
0.0642526
0.0978708
0.0882181
0.110556
0.101433
0.128234
0.0947823
0.102099
0.11206
0.0998709
0.0822887
0.0976322
0.0981553
0.0647655
0.0776907
0.0646562
0.069985
0.0673199
0.0808038
0.106601
0.053865
0.0767035
0.0524564
0.0858824
0.0778966
0.0747054
0.0538869
0.0561416
0.0604052
0.112713
0.0898107
0.105062
0.0871114
0.0859766
0.0789466
0.0813501
0.0799108
0.0759816
0.0663692
0.0426613
0.0541798
0.0556965
0.05265
0.0551796
0.0696523
0.0774504
0.0577672
0.0662304
0.0560496
0.060032
0.0509668
0.0455819
0.0554999
0.0535374
0.0612333
0.104933
0.0844011
0.0896817
0.0940441
0.0963098
0.0997196
0.126785
0.0995077
0.0458948
0.0522837
0.0387827
0.0447088
0.0470076
0.0499398
0.0691695
0.0496816
0.0574976
0.0552056
0.0422987
0.0531059
0.0491412
0.0444746
0.0817278
0.0589805
0.0761922
0.0629651
0.0616375
0.0626032
0.0624492
0.0590496
0.0546977
0.0547963
0.049273
0.0573693
0.0686023
0.0679146
0.0657207
0.0657824
0.0578909
0.0551467
0.0642138
0.0655564
0.0607856
0.0826365
0.058613
0.0724061
0.0823943
0.0769922
0.073674
0.082358
0.0768046
0.0714628
0.0700175
0.0678618
0.101272
0.0916699
0.0811393
0.0846133
0.0781993
0.0903252
0.0865376
0.0676061
0.0720203
0.0650936
0.0791802
0.0965646
0.0637406
0.0723396
0.0696297
0.0716623
0.0649169
0.0879021
0.10898
0.0903901
0.0865504
0.075396
0.0785301
0.0760033
0.0985834
0.0609207
0.0662394
0.0590525
0.0585563
0.070678
0.057758
0.0595265
0.0553745
0.0618187
0.0641626
0.0299333
0.0613703
0.0481624
0.0460082
0.0615963
0.0692394
0.0668167
0.0767332
0.0532889
0.0487972
0.0486582
0.0422207
0.0402501
0.0502991
0.0570306
0.0461227
0.0524718
0.0523544
0.028223
0.0471958
0.048247
0.0457678
0.0590468
0.0506071
0.0579791
0.0452661
SCALARS SignedDistance double 1
LOOKUP_TABLE default
1.17526
1.16747
0.014095
1.11434
-0.0159761
0.838112
9.88555e-07
1.32335
-0.000419271
-0.194897
1.24226
-1.00137
-0.00593693
0.00712005
0.0129191
1.29302
0.0143594
0.322841
0.104588
-0.75888
0.0135787
-0.0436375
-0.000300854
0.134977
0.00431785
0.154258
-0.00096158
0.0335829
1.19258
0.207034
-0.0191445
1.1745
0.00833814
0.300406
0.00322691
-0.905115
0.000555114
-0.95594
-0.0106064
-0.1548
0.387603
0.149194
0.010756
0.0606511
-0.021835
0.042719
0.00124695
0.00560312
1.11712
0.0459725
-0.00153929
0.704834
0.00495687
1.02709
1.21454
-0.0192735
0.028132
1.18307
0.144289
0.355005
0.0569898
0.228575
1.04857
0.412811
0.476303
-1.00105
0.034311
0.591782
-0.0594259
-0.780402
-1.02718
-0.20696
0.00059022
-0.00636257
5.92469e-05
0.0024031
-0.00692635
-0.0142236
1.1241
0.212238
0.0100776
0.458499
0.00910503
0.246609
0.848655
0.113862
0.548279
0.00807195
-0.00475603
-0.00122675
0.973328
-1.00085
-0.00373657
0.0185788
-0.00109908
0.978917
-0.00575203
0.436353
1.33728
0.905923
1.37298
1.26183
0.0317771
1.13593
0.0225309
1.08555
1.26695
1.34024
0.760427
0.257994
1.0094
0.436116
0.0422652
1.13343
0.0137131
0.341663
-0.00297785
-0.239895
-0.0289663
0.054399
-0.00994244
-0.304032
9.05176e-06
0.156709
0.0233104
-0.328837
-5.98577e-05
0.165247
-0.000270087
0.589455
-0.0519065
0.445269
-0.0186705
0.232357
-0.00015152
-0.137116
-0.00236872
0.651307
0.00411769
0.310116
-0.00197184
0.600518
0.00186397
0.595138
-0.00663674
-0.696386
0.00261024
0.337506
0.00344687
-0.231059
0.0149343
-0.0159908
0.00703847
0.509313
0.891777
0.126593
0.00153423
-0.0958733
1.22012
0.145055
-0.00217231
0.219954
1.12397
-0.0525038
0.00481438
0.0437481
-0.000345963
0.0269848
0.0205804
0.0497897
0.0254635
-0.000373721
0.0064456
-0.0418877
0.00486463
0.054171
0.019565
0.0230633
0.0171326
-0.0454207
1.12136
0.0181603
0.908762
0.00810739
0.510037
0.934871
0.0505931
0.00529575
0.0317145
0.0533168
2.89364e-05
-0.0136958
0.0238216
0.566295
0.758191
0.15977
-0.0439046
0.133575
0.0117078
1.16113
1.20166
1.29593
1.32317
1.19499
1.23886
1.15115
-0.0256527
0.206485
1.17591
0.782881
0.102698
-0.0276174
1.2956
0.0824329
1.16448
0.171077
0.310067
0.696285
1.19556
1.11923
0.0266547
0.362239
0.0743296
1.24222
1.25815
0.0920059
0.036885
0.222984
-0.0426992
0.311867
0.0278458
0.179561
1.25246
1.2892
1.26972
1.27952
1.28549
0.127439
0.200232
0.629516
0.117616
0.37464
0.0501735
0.405891
0.0649778
0.307339
0.0188298
-0.860617
-0.458095
-1.04207
-1.05083
1.18844
0.702633
-0.190084
0.0729187
-0.60111