# vtk DataFile Version 4.2
vtk output
ASCII
DATASET POLYDATA
POINTS 642 double
-1.95105 4.75168 -0.0477357
1.25629 4.71345 -0.043647
-1.96438 -0.524016 -0.0270602
1.31295 -0.525847 -0.024352
-0.329007 0.49666 2.5982
-0.350403 3.70216 2.52676
-0.325236 0.524107 -2.60363
-0.35226 3.76365 -2.67404
2.24194 2.11529 -1.60121
2.2715 2.09942 1.56725
-2.93232 2.14639 -1.64398
-2.95559 2.12706 1.59099
-2.82996 3.6733 0.92551
-1.87884 3.07255 2.45341
-1.27543 4.58824 1.49521
0.581786 4.55842 1.4554
-0.324039 5.19672 -0.0336094
0.60376 4.61251 -1.56098
-1.30096 4.67178 -1.60294
-1.89649 3.10376 -2.55334
-2.85341 3.69838 -1.00183
-3.40317 2.12882 -0.0231585
1.17183 3.04704 2.39336
2.10845 3.61353 0.900887
-1.86295 1.16631 2.45039
-0.335692 2.11083 2.99471
-2.81667 0.575652 -0.975151
-2.81875 0.574075 0.927668
-0.346083 2.15096 -3.04511
-1.84122 1.19455 -2.46036
2.0785 3.62493 -0.948367
1.16305 3.06369 -2.45915
2.2041 0.563073 0.93505
1.20369 1.1609 2.44229
0.638217 -0.391269 1.52472
-1.29396 -0.39949 1.52318
-0.326895 -0.964175 -0.028249
-1.28184 -0.374577 -1.56211
0.630738 -0.373987 -1.56816
1.18603 1.17296 -2.47035
2.19128 0.570046 -0.982402
2.75505 2.09524 -0.0260564
-2.45815 4.30255 0.452815
-2.14962 4.23861 1.2722
-1.66521 4.76316 0.745855
-2.50269 2.62047 2.10849
-2.45438 3.44131 1.78427
-2.99953 2.92912 1.31008
-0.817805 4.21689 2.10675
-1.6483 3.92507 2.07951
-1.11442 3.457 2.60017
-0.832886 5.0323 0.758647
-1.18709 5.07426 -0.0411832
0.131437 4.19248 2.05479
-0.334493 4.69459 1.54306
0.494577 5.07913 -0.0389278
0.161547 5.02253 0.758239
0.965088 4.74432 0.739645
-0.840637 5.06046 -0.851581
-1.69582 4.82825 -0.857382
0.995312 4.76446 -0.804864
0.15827 5.05636 -0.843427
-0.826828 4.29575 -2.24408
-0.356486 4.74915 -1.66372
0.138476 4.24681 -2.19439
-2.17674 4.28784 -1.36557
-2.47997 4.33253 -0.531608
-1.15202 3.49281 -2.73161
-1.66488 3.97877 -2.19107
-3.00859 2.94929 -1.3826
-2.48447 3.4687 -1.87546
-2.50674 2.64391 -2.18017
-2.95611 3.75742 -0.0330393
-3.27336 2.13472 -0.861589
-3.25862 2.94743 -0.53531
-3.26542 2.93669 0.473112
-3.29506 2.13182 0.835755
1.42791 4.17973 1.23831
1.72315 4.2356 0.433214
0.445695 3.40674 2.54985
0.942936 3.86986 2.01022
2.28882 2.8975 1.28174
1.73922 3.39565 1.72615
1.8021 2.59402 2.06928
-1.13876 2.62456 2.87287
-0.34958 2.93885 2.86238
-2.50518 1.646 2.09893
-1.95589 2.12383 2.57408
-0.325514 1.2648 2.89806
-1.13631 1.62164 2.85318
-1.1143 0.769624 2.63389
-3.24954 1.31864 0.473552
-2.98696 1.34547 1.3181
-2.95897 1.33329 -1.3414
-3.24638 1.31944 -0.523168
-2.47793 -0.0597375 0.472409
-2.95118 0.49801 -0.0301853
-2.47896 -0.0564325 -0.523
-1.94394 2.14733 -2.64754
-2.4607 1.65644 -2.13088
-0.344463 3.00387 -2.99986
-1.15236 2.65373 -2.97861
-1.09588 0.795735 -2.63457
-1.13059 1.65638 -2.89341
-0.326244 1.28258 -2.91348
0.945039 3.92198 -2.11891
0.423343 3.45972 -2.64752
1.75479 4.25686 -0.5221
1.44003 4.21556 -1.31628
1.77329 2.59924 -2.10412
1.72168 3.40597 -1.78718
2.26726 2.8928 -1.32795
1.83875 -0.0818047 0.463147
1.50372 -0.0274283 1.28774
1.03978 -0.565141 0.764154
1.82492 1.61174 2.08536
1.81232 0.802561 1.78827
2.35194 1.2984 1.31087
0.158752 -0.0184293 2.15942
0.984119 0.294663 2.09161
0.454477 0.7803 2.61969
0.17897 -0.824076 0.78708
0.547732 -0.857108 -0.0263161
-0.830194 -0.0370103 2.14578
-0.327849 -0.522533 1.6096
-1.18115 -0.863292 -0.0263338
-0.835117 -0.831756 0.79508
-1.68247 -0.563692 0.785618
0.178109 -0.817752 -0.840968
1.02018 -0.553252 -0.826465
-1.68414 -0.558559 -0.815603
-0.83732 -0.818324 -0.83259
0.15752 0.00518503 -2.18545
-0.332444 -0.501101 -1.64169
-0.811153 0.000575141 -2.19156
1.49236 -0.0133239 -1.32863
1.83386 -0.075883 -0.515695
0.460478 0.797474 -2.63289
0.978306 0.322051 -2.12917
2.33481 1.30337 -1.35106
1.78817 0.817554 -1.81974
1.79755 1.61905 -2.11435
2.33453 0.483217 -0.0268644
2.61251 2.09799 -0.850234
2.63249 1.30471 -0.526277
2.63813 1.28992 0.479059
2.61942 2.108 0.822579
0.469563 1.61126 2.86283
1.26816 2.11747 2.54567
0.460849 2.59833 2.84025
-2.16005 -0.0233592 1.29952
-1.65132 0.291515 2.10688
-2.45537 0.799887 1.79561
-1.6292 0.317137 -2.12682
-2.14696 -0.00511221 -1.33863
-2.4241 0.822908 -1.80312
1.24539 2.12107 -2.56771
0.454847 1.62683 -2.87693
0.444027 2.62946 -2.86983
2.56071 2.90224 0.463889
2.53993 2.90495 -0.511088
2.22531 3.69436 -0.0267923
-2.21136 4.55135 0.197303
-2.09403 4.55515 0.616877
-1.8222 4.77481 0.341416
-2.51838 3.97793 1.11068
-2.3235 4.28899 0.880719
-2.67641 3.99436 0.698459
-1.48377 4.70189 1.12865
-1.92529 4.52319 1.02757
-1.72116 4.44547 1.40706
-2.75336 2.37735 1.87068
-2.78064 2.78909 1.7384
-3.00586 2.53353 1.46526
-2.18133 3.27264 2.15188
-2.50489 3.03752 1.9658
-2.21126 2.85184 2.3026
-2.9411 3.31136 1.12681
-2.75203 3.19819 1.5674
-2.67818 3.56697 1.36891
-0.573332 3.96792 2.34638
-0.997728 3.86058 2.38232
-0.717057 3.59956 2.58663
-1.48216 4.28485 1.80954
-1.2412 4.09886 2.11284
-1.07056 4.43275 1.81315
-1.49703 3.28274 2.55694
-1.40543 3.70233 2.36591
-1.77226 3.51963 2.29835
-2.33389 3.86007 1.54742
-2.06772 3.70778 1.96001
-1.92143 4.10795 1.70052
-1.42378 4.95187 0.362073
-1.57987 4.93886 -0.054208
-1.05498 4.83111 1.14243
-1.25537 4.91752 0.764378
-0.76292 5.16373 -0.0339811
-1.00787 5.08461 0.364999
-0.574401 5.15206 0.370464
-0.110058 3.9635 2.31317
-0.341325 4.23484 2.1049
0.129077 4.66318 1.51986
-0.0944478 4.46628 1.81641
0.367395 4.39558 1.76396
-0.585003 4.48054 1.83814
-0.821493 4.6745 1.54099
0.913231 4.90835 -0.0370395
0.748657 4.95004 0.359681
1.1329 4.74721 0.335046
-0.0862179 5.15688 0.364438
0.340304 5.07923 0.36607
0.0839019 5.17156 -0.0396637
0.793353 4.67132 1.0948
0.575046 4.91682 0.755939
0.38691 4.81891 1.12609
-0.593255 4.90661 1.1708
-0.0836438 4.895 1.1687
-0.341822 5.07636 0.768525
-1.44855 4.99603 -0.456216
-1.84374 4.81664 -0.461429
-0.576768 5.16343 -0.441245
-1.02607 5.09987 -0.455549
-1.51293 4.78217 -1.2257
-1.28999 4.98476 -0.871287
-1.08813 4.91072 -1.24859
1.13777 4.77199 -0.435681
0.764151 4.95482 -0.433721
0.392246 4.86874 -1.21864
0.588554 4.937 -0.839375
0.803105 4.7167 -1.21026
0.341659 5.09511 -0.438159
-0.08398 5.16842 -0.447027
-0.579732 4.04007 -2.49136
-0.358289 4.31167 -2.24662
-0.1122 4.01698 -2.46607
-0.842288 4.74805 -1.66362
-0.596028 4.55965 -1.97079
-1.08582 4.50966 -1.9375
0.383998 4.44738 -1.89191
-0.106665 4.52944 -1.94529
0.151365 4.70969 -1.61996
-0.342114 5.09634 -0.857708
-0.0781562 4.93818 -1.25758
-0.610306 4.94274 -1.27612
-2.11484 4.61083 -0.705942
-2.24488 4.55852 -0.303083
-1.75056 4.5143 -1.5049
-1.95231 4.58548 -1.12264
-2.69009 4.0407 -0.771878
-2.36091 4.32887 -0.965536
-2.54681 4.01658 -1.1968
-0.756103 3.64739 -2.73498
-0.997823 3.92401 -2.51878
-1.80111 3.55637 -2.40264
-1.41258 3.75272 -2.48707
-1.53493 3.30833 -2.66732
-1.25715 4.16475 -2.23752
-1.50163 4.34886 -1.92175
-2.99709 2.52987 -1.53778
-2.79241 2.80479 -1.8052
-2.7578 2.38281 -1.91791
-2.70126 3.59511 -1.45427
-2.77756 3.21966 -1.64782
-2.95802 3.33147 -1.20502
-2.22791 2.87401 -2.38896
-2.52202 3.06566 -2.05102
-2.21073 3.30138 -2.2495
-1.94482 4.15752 -1.80247
-2.09975 3.74467 -2.06145
-2.35894 3.8976 -1.6411
-2.50008 4.33043 -0.0423722
-2.93202 3.74598 -0.528138
-2.7451 4.05924 -0.290489
-2.74161 4.03908 0.212954
-2.92449 3.73259 0.459631
-3.12563 2.14203 -1.26087
-3.17282 2.5498 -1.13677
-3.36334 2.54013 -0.281798
-3.29684 2.54711 -0.709435
-3.3653 2.12998 -0.447284
-3.16593 2.95829 -0.971394
-3.09094 3.33055 -0.784108
-3.18754 2.53662 1.08093
-3.15783 2.1272 1.21326
-3.08043 3.32848 0.711975
-3.1617 2.94269 0.900746
-3.38115 2.13204 0.413459
-3.31201 2.53566 0.650717
-3.37541 2.53884 0.22617
-3.14478 3.36312 -0.291844
-3.30167 2.95369 -0.0276263
-3.14726 3.35993 0.223209
1.37235 4.50826 0.596181
1.51131 4.49981 0.197519
1.01699 4.38457 1.3586
1.20466 4.47452 0.993089
1.93297 3.93751 0.672173
1.59982 4.22433 0.853568
1.78704 3.9128 1.08262
0.0470769 3.56467 2.55431
0.297971 3.81854 2.32449
1.07258 3.47066 2.24125
0.70648 3.65065 2.30034
0.820801 3.23563 2.49971
0.550335 4.04763 2.04701
0.77312 4.23414 1.75577
2.29824 2.49388 1.44434
2.07588 2.75298 1.69947
2.06493 2.34921 1.82339
1.95761 3.52102 1.33438
2.03527 3.15904 1.51961
2.22257 3.26975 1.10216
1.51384 2.82216 2.24316
1.7955 2.99932 1.92184
1.47518 3.23048 2.08826
1.20782 4.05321 1.65244
1.35991 3.65491 1.89452
1.61353 3.81015 1.50807
-0.739676 3.21191 2.77013
-0.351981 3.33446 2.72163
-1.51863 2.86144 2.69746
-1.15281 3.04081 2.7672
-0.336108 2.54931 2.95183
-0.754645 2.78721 2.9027
-0.739934 2.37479 2.96298
-2.74924 1.87468 1.86865
-2.52499 2.13075 2.13977
-1.93168 1.64217 2.53702
-2.24171 1.8827 2.36877
-2.19708 1.38912 2.2948
-2.24336 2.37947 2.37197
-1.93937 2.60329 2.54593
-0.329885 0.854224 2.7704
-0.734801 1.00087 2.79904
-0.711914 0.614299 2.64407
-0.74 1.86481 2.96267
-0.728784 1.44496 2.90656
-0.330901 1.69082 2.97825
-1.50108 0.949214 2.57535
-1.1405 1.18113 2.75779
-1.51392 1.3878 2.68516
-1.56574 2.37382 2.76174
-1.55499 1.88002 2.75967
-1.15751 2.12232 2.90905
-3.18046 1.72678 1.08076
-2.9987 1.72042 1.46304
-3.36791 1.72501 0.224665
-3.30193 1.72178 0.649897
-2.92925 0.953877 1.13623
-3.1451 1.3127 0.899522
-3.06818 0.932388 0.710391
-2.96494 1.73442 -1.50094
-3.15268 1.7274 -1.11719
-3.05791 0.935874 -0.753951
-3.13232 1.31931 -0.944259
-2.90668 0.943452 -1.16448
-3.28863 1.72119 -0.699256
-3.35809 1.71928 -0.279178
-2.22791 -0.332031 0.211777
-2.50525 -0.0885368 -0.025752
-2.22759 -0.329355 -0.26535
-2.91052 0.514191 0.4534
-2.74312 0.197509 0.223032
-2.67281 0.237532 0.709065
-2.67227 0.232265 -0.755071
-2.74163 0.200006 -0.278442
-2.92041 0.516526 -0.51473
-3.28677 1.30712 -0.0269979
-3.13474 0.892894 -0.281053
-3.13097 0.891711 0.22552
-2.51375 2.14753 -2.19148
-2.721 1.89891 -1.90647
-1.93861 2.63268 -2.63764
-2.2462 2.39851 -2.43844
-2.17347 1.42909 -2.31747
-2.22601 1.90252 -2.41516
-1.90901 1.67056 -2.58566
-0.353597 3.38612 -2.87313
-0.745212 3.25442 -2.91758
-0.756304 2.40952 -3.06213
-0.747863 2.82888 -3.02926
-0.358732 2.57729 -3.06026
-1.15407 3.08031 -2.89643
[...]
POINT_DATA 642
SCALARS Mean_Curvature double 1
LOOKUP_TABLE default
0.673622
0.772292
0.70775
0.652445
0.758608
0.743553
0.640244
0.770264
0.56932
0.618297
0.669329
0.666856
0.675872
0.676532
0.624106
0.682546
0.633331
0.712754
0.71436
0.670905
0.737016
0.631025
0.591077
0.718517
0.476767
0.600288
0.707763
0.55758
0.515584
0.427581
0.439919
0.765595
0.668124
0.617256
0.676482
0.636186
0.540493
0.621026
0.680408
0.677397
0.664964
0.776679
0.634497
0.669382
0.603988
0.664335
0.660693
0.649533
0.638143
0.699509
0.672682
0.690915
0.556975
0.492701
0.544067
0.755982
0.621847
0.783478
0.471525
0.775153
0.61941
0.721764
0.744967
0.519521
0.509663
0.631577
0.694416
0.683615
0.663326
0.707277
0.698399
0.645855
0.61257
0.556838
0.582044
0.627593
0.712623
0.67951
0.41224
0.645266
0.548007
0.707554
0.562212
0.708608
0.717594
0.494907
0.66977
0.640335
0.581031
0.444215
0.730567
0.595783
0.611107
0.571755
0.676759
0.589964
0.641693
0.637837
0.712333
0.421686
0.827886
0.745505
0.604423
0.431003
0.612675
0.699885
0.487687
0.811881
0.607658
0.663992
0.539423
0.702674
0.680525
0.638712
0.673374
0.618733
0.695577
0.704073
0.643041
0.631184
0.647743
0.609358
0.703536
0.614076
0.700803
0.62961
0.667763
0.611654
0.676335
0.613599
0.723937
0.585552
0.648243
0.627692
0.710899
0.631853
0.681011
0.625977
0.65189
0.809843
0.623855
0.634584
0.656941
0.632599
0.706795
0.736569
0.601144
0.632231
0.607726
0.71785
0.728577
0.638196
0.76016
0.655531
0.718886
0.524664
0.563796
0.609277
0.322402
0.687288
0.55946
0.706349
0.534897
0.636039
0.512949
0.656007
0.654937
0.63842
0.626123
0.667041
0.639754
0.664015
0.693539
0.659388
0.656016
0.65983
0.669632
0.644079
0.678014
0.648441
0.655066
0.744828
0.666157
0.701515
0.647074
0.711133
0.659328
0.701339
0.657581
0.660269
0.649973
0.681925
0.520756
0.559401
0.4887
0.552522
0.610798
0.670018
0.63554
0.611784
0.639874
0.783467
0.515736
0.493524
0.607876
0.682819
0.623456
0.772864
0.611102
0.755628
0.615264
0.73049
0.585193
0.781207
0.628503
0.708634
0.624883
0.765802
0.780183
0.720818
0.571924
0.531955
0.701467
0.875887
0.801435
0.81957
0.654205
0.722511
0.618672
0.731347
0.641687
0.732331
0.738409
0.762888
0.679482
0.789335
0.761703
0.734451
0.585011
0.537472
0.591081
0.656402
0.594217
0.493755
0.753679
0.654053
0.667256
0.66347
0.732874
0.714195
0.692869
0.728854
0.729969
0.622967
0.625112
0.632216
0.660689
0.635255
0.724064
0.676748
0.709603
0.623845
0.774518
0.672074
0.696436
0.684934
0.735569
0.621996
0.679801
0.618078
0.592352
0.598712
0.643567
0.583045
0.670075
0.466163
0.625759
0.563886
0.590079
0.584584
0.756186
0.653723
0.70737
0.651943
0.682853
0.634867
0.694409
0.606537
0.686601
0.530723
0.673439
0.600285
0.515161
0.780809
0.409028
0.533684
0.508593
0.641908
0.522408
0.552539
0.489644
0.754703
0.538468
0.705498
0.503806
0.65089
0.55779
0.712037
0.563422
0.735408
0.557704
0.708064
0.58402
0.728281
0.57761
0.734732
0.564715
0.764273
0.669626
0.643911
0.650302
0.741596
0.520222
0.742399
0.591485
0.655916
0.692077
0.59849
0.669757
0.548494
0.670372
0.656201
0.688219
0.718016
0.76443
0.542301
0.529641
0.68781
0.827629
0.441933
0.497529
0.652438
0.648484
0.769624
0.711458
0.651163
0.676004
0.56407
0.610654
0.565424
0.651668
0.541861
0.616578
0.55021
0.650854
0.558875
0.650777
0.61481
0.694297
0.611887
0.718139
0.527152
0.730066
0.649026
0.75319
0.644895
0.71819
0.607542
0.651892
0.571036
0.710662
0.555144
0.688522
0.652744
0.477533
0.669178
0.689683
0.771146
0.782845
0.792836
0.804492
0.808489
0.807597
0.658209
0.617279
0.6101
0.657365
0.367419
0.579327
0.512871
0.499145
0.551697
0.500306
0.659218
0.785021
0.694407
0.504368
0.749427
0.601393
0.657105
0.549065
0.631763
0.555172
0.814338
0.6219
0.777625
0.615122
0.707885
0.607657
0.741368
0.586752
0.685742
0.57439
0.703246
0.474473
0.558843
0.539736
0.641428
0.46592
0.752862
0.592945
0.729208
0.690671
0.638464
0.693827
0.655978
0.682619
0.65631
0.665
0.624467
0.656892
0.628392
0.668789
0.75904
0.633969
0.685481
0.573498
0.704244
0.700241
0.684196
0.701651
0.608843
0.643065
0.62924
0.658648
0.608501
0.612773
0.630989
0.618982
0.660034
0.659407
0.62238
0.705284
0.647784
0.679884
0.604346
0.587802
0.600059
0.588828
0.649234
0.704286
0.582348
0.690695
0.586558
0.689837
0.584252
0.701388
0.567932
0.673234
0.536042
0.68098
0.627465
0.726278
0.651209
0.730612
0.564779
0.690658
0.586649
0.693114
0.652211
0.617916
0.582717
0.65811
0.597489
0.678963
0.630583
0.724572
0.600839
0.658771
0.593225
0.697123
0.644611
0.637367
0.640441
0.659581
0.634547
0.655543
0.661202
0.701223
0.656924
0.701538
0.612337
0.709824
0.575322
0.696208
0.64941
0.645108
0.624542
0.673778
0.667311
0.674251
0.642093
0.638601
0.675009
0.648652
0.664791
0.679438
0.659588
0.566703
0.682989
0.565573
0.68974
0.699365
0.695322
0.571766
0.68658
0.633613
0.627208
0.616653
0.643802
0.680276
0.663255
0.667754
0.654126
0.662763
0.636055
0.67413
0.821601
0.706604
0.673799
0.724279
0.681108
0.69888
0.672292
0.661316
0.691447
0.639775
0.774681
0.724869
0.660068
0.711422
0.636671
0.585042
0.657509
0.619926
0.68594
0.594548
0.666071
0.600157
0.706626
0.58761
0.666566
0.492451
0.658252
0.547994
0.675696
0.598002
0.694793
0.618044
0.714369
0.719603
0.619542
0.722152
0.622864
0.747242
0.617432
0.806747
0.667794
0.717821
0.637207
0.658873
0.621426
0.563337
0.490148
0.666933
0.619618
0.750648
0.636707
0.727861
0.633176
0.708221
0.707086
0.792115
0.635471
0.74668
0.649256
0.722468
0.599133
0.59984
0.508173
0.601746
0.568084
0.62792
0.612823
0.737153
0.655246
0.587224
0.666188
0.58849
0.661294
0.493352
0.649135
0.547043
0.618647
0.597501
0.646662
0.783392
0.564135
0.595418
0.838537
0.315395
0.649618
0.54362
0.606852
0.544391
0.620928
0.529282
0.697022
0.534691
0.682479
0.562737
0.720341
0.53148
0.624565
0.528138
0.71812
0.466666
0.539721
0.509296
0.716778
0.556431
0.73352
SCALARS Redistribution_Potential double 1
LOOKUP_TABLE default
-1.0382e-09
-1.1493
0.778927
0.363377
0.19858
-0.816152
0.00501485
-0.201766
-0.772291
-0.745859
0.493553
0.388316
0.215337
-0.138194
-0.484568
-1.1185
-0.599792
-0.685934
0.0903688
0.330252
0.465717
0.57487
-0.984956
-1.2288
0.34988
-0.37348
0.640128
0.725015
-0.166938
0.324722
-1.07834
-0.735359
-0.0363646
-0.261769
0.445503
0.7328
0.694436
0.535455
0.244885
-0.400225
-0.142098
-0.74606
0.109265
-0.101998
-0.239782
0.158501
0.0462248
0.306761
-0.69105
-0.33681
-0.498908
-0.564187
-0.272039
-0.983892
-0.833575
-0.908601
-0.915002
-1.16645
-0.208864
0.079731
-0.936785
-0.625107
-0.0196233
-0.259265
-0.411626
0.348166
0.275506
0.119415
0.285482
0.51781
0.466982
0.434868
0.372834
0.568387
0.529051
0.451098
0.506101
-1.25291
-1.22346
-0.957556
-1.13265
-1.05056
-1.14828
-0.919686
-0.30017
-0.620357
0.367061
0.0956066
-0.0816804
0.0236532
0.277335
0.652506
0.567405
0.559173
0.631292
0.796763
0.733341
0.737876
0.29162
0.434259
-0.197039
0.0861858
0.145942
0.0956782
-0.125013
-0.738971
-0.483988
-1.17379
-0.979298
-0.83003
-0.934049
-0.985476
0.215538
0.243935
0.447854
-0.510953
-0.13212
-0.38124
0.348161
0.143655
-0.0242517
0.639513
0.542265
0.521451
0.614938
0.770648
0.766432
0.811837
0.515951
0.34177
0.699064
0.65686
0.110971
0.407498
0.272702
0.0818852
0.150719
-0.199447
-0.0776156
-0.481656
-0.290084
-0.589507
-0.0330224
-0.765911
-0.416562
-0.370744
-0.735315
-0.363384
-0.665882
-0.726793
0.762827
0.582045
0.58422
0.392582
0.615417
0.507763
-0.611571
-0.355642
-0.410656
-1.03957
-1.0027
-1.19814
0.0568058
-0.0572531
-0.111354
0.0692373
0.00162322
0.167694
-0.362148
-0.177978
-0.292611
0.282582
0.231834
0.347097
-0.0482747
0.101472
0.018979
0.264127
0.182728
0.137778
-0.769339
-0.606111
-0.671216
-0.419762
-0.519718
-0.594764
-0.320497
-0.422485
-0.243802
-0.0219789
-0.133239
-0.216097
-0.262313
-0.129888
-0.522454
-0.397557
-0.431446
-0.427398
-0.586928
-0.912334
-0.857236
-1.00044
-0.926594
-1.05811
-0.769946
-0.669327
-1.04256
-1.0607
-1.15399
-0.77246
-0.918973
-0.760366
-1.14135
-1.06238
-1.0354
-0.71213
-0.883924
-0.748088
-0.0961237
0.0426407
-0.407652
-0.235688
0.0966918
-0.0566536
-0.0480854
-1.05503
-0.923974
-0.652909
-0.787288
-0.814007
-0.771411
-0.610665
-0.108559
-0.21279
-0.300978
-0.0739233
-0.136217
0.0541251
-0.546124
-0.33364
-0.48191
-0.413599
-0.439976
-0.213109
0.188388
0.152337
0.234541
0.227342
0.385566
0.324034
0.418838
-0.0312439
0.0621294
0.32728
0.211537
0.240841
0.147864
0.209907
0.506253
0.489229
0.463998
0.487145
0.498366
0.508395
0.390299
0.460175
0.412941
0.344829
0.400605
0.437957
0.201359
0.432075
0.328109
0.255966
0.296364
0.545136
0.535511
0.553692
0.551874
0.580136
0.52498
0.50355
0.415491
0.457507
0.343711
0.383329
0.546356
0.479344
0.520026
0.480404
0.501173
0.421837
-1.21292
-1.21836
-1.17875
-1.21371
-1.23799
-1.25509
-1.24503
-0.888633
-0.984043
-1.09484
-1.05217
-0.995414
-1.07155
-1.15083
-0.896549
-0.994391
-0.835344
-1.21159
-1.11281
-1.16175
-0.958606
-1.05586
-1.07503
-1.21838
-1.16016
-1.23916
-0.582224
-0.734528
-0.225912
-0.403791
-0.508712
-0.471458
-0.346147
0.379009
0.256963
0.223631
0.235297
0.364081
0.118946
-0.0240708
0.0618232
0.101005
0.235133
-0.177365
-0.0391788
-0.235807
0.313531
0.161745
0.195192
-0.0880292
0.0501053
-0.146557
0.535576
0.483601
0.606039
0.585653
0.650533
0.622459
0.686407
0.526709
0.563057
0.6488
0.597392
0.600817
0.5911
0.61317
0.795429
0.780001
0.765867
0.749838
0.766923
0.769886
0.688836
0.742899
0.695024
0.661982
0.686923
0.711393
0.416687
0.467366
0.311717
0.370314
0.381514
0.358758
0.29123
-0.193624
-0.0389113
-0.0555745
-0.0517491
-0.187473
0.105546
0.220336
0.0672254
0.0110537
-0.0717668
0.222517
0.109456
0.241447
-0.148739
-0.0216422
-0.0402355
0.207827
0.0735484
0.197182
-0.458499
-0.353764
-0.712934
-0.590439
-0.61807
-0.617355
-0.739776
-1.17309
-1.07613
-1.07444
-1.0829
-1.14591
-0.962775
-0.857164
-0.81678
-0.917572
-0.882367
-0.850018
-0.886844
-0.793956
-1.033
-0.982354
-1.01024
-0.869251
-0.965115
-0.869129
0.300334
0.341475
0.413287
0.115648
0.235565
0.104943
0.458294
0.35913
0.349653
-0.632133
-0.453425
-0.570164
-0.199096
-0.321323
-0.391777
-0.198413
-0.257565
-0.0705825
0.275184
0.175468
0.0929548
0.312162
0.246112
0.413216
-0.143801
0.0603682
-0.0587718
0.0800993
0.0133893
0.210695
0.510222
0.462478
0.556245
0.54971
0.623761
0.604068
0.679196
0.373583
0.433114
0.685049
0.571912
0.643325
0.493178
0.542471
0.781268
0.806618
0.805222
0.749993
0.779498
0.740576
0.782847
0.798317
0.759824
0.652783
0.714894
0.721302
0.452835
0.36318
0.616728
0.544273
0.299526
0.433673
0.38996
0.752301
0.739242
0.603987
0.678905
0.630555
0.717364
0.686941
0.0485622
0.198527
0.134674
0.331129
0.261808
0.184435
0.406245
0.343317
0.469308
0.601739
0.543777
0.480696
0.248407
0.265393
0.165956
0.217362
0.0153577
0.120427
-0.0266221
-0.0976977
-0.0513977
-0.24421
-0.152804
-0.302928
0.0153693
0.092605
-0.642776
-0.550106
-0.684297
-0.214184
-0.388662
-0.309345
-0.496259
-0.454249
-0.355878
0.0116097
-0.174791
-0.0925174
0.192737
-0.0713771
0.065786
0.100902
-0.0200158
-0.776566
-0.627019
-0.579529
-0.603783
-0.755039
-0.449587
-0.266994
-0.565997
-0.741772
-0.195452
-0.370092
-0.736803
-0.556249
-0.563124
-0.205582
-0.379326
-0.179221
-0.066908
-0.321941
-0.2004
-0.231041
-0.386045
-0.72783
-0.840099
-0.8022
-0.599839
-0.470663
-0.798901
-0.55827
-0.685968
-0.859413
-0.866379
-0.518495
-0.705105
-0.553709
0.807491
0.762606
0.794735
0.792168
0.74728
0.409719
0.462028
0.442951
0.551813
0.672712
0.480046
0.672554
0.583216
0.489578
0.474523
0.7022
0.593462
0.698444
0.1949
0.462804
0.330069
0.268759
0.33455
0.728122
0.632596
0.686158
0.660513
0.588752
0.493556
0.419596
0.45707
0.53563
0.576853
0.524652
0.555303
0.460217
-0.724074
-0.523983
-0.622491
-0.72995
-0.676222
-0.183712
-0.268028
-0.243411
-0.294859
-0.401651
-0.344701
-0.582563
-0.469916
-0.323408
-0.270459
-0.487366
-0.394616
-0.542636
-0.898634
-0.894909
-0.894641
-1.05051
-1.14445
-0.903287
-1.06675
-1.00666
-0.892801
-0.893934
-1.2064
-1.22322
-1.21558
-1.19086
-1.13843
-1.03053
-1.10387
-1.14877
SCALARS CoVolArea double 1
LOOKUP_TABLE default
0.143138
0.134447
0.13631
0.143941
0.135603
0.133764
0.13109
0.140194
0.133114
0.142513
0.141413
0.148007
0.186812
0.191538
0.185632
0.18346
0.185737
0.184699
0.192643
0.192157
0.194297
0.190739
0.181461
0.182839
0.190439
0.188344
0.187901
0.193384
0.188201
0.190562
0.185798
0.182407
0.192483
0.189135
0.192667
0.193634
0.195645
0.193814
0.189196
0.186086
0.189998
0.185578
0.185167
0.19853
0.181917
0.178112
0.200037
0.181164
0.179192
0.195486
0.177429
0.195185
0.179471
0.175422
0.194611
0.178966
0.195548
0.174674
0.202691
0.178059
0.176528
0.198054
0.183621
0.204564
0.183538
0.205278
0.179079
0.183155
0.205225
0.183094
0.203178
0.182286
0.203446
0.181272
0.200544
0.200446
0.177647
0.191412
0.175771
0.17409
0.189915
0.176543
0.191502
0.175069
0.194504
0.175363
0.181859
0.195743
0.179745
0.199148
0.179547
0.201079
0.179188
0.180172
0.197847
0.185803
0.20013
0.183274
0.195994
0.178435
0.172388
0.197488
0.179667
0.199443
0.177515
0.193102
0.176718
0.170948
0.193625
0.176317
0.195169
0.173638
0.185757
0.200802
0.184026
0.175892
0.200424
0.179869
0.183963
0.202915
0.183146
0.204167
0.179774
0.181615
0.201963
0.185902
0.201621
0.184908
0.201656
0.180667
0.180727
0.200375
0.182773
0.199073
0.178487
0.200368
0.181207
0.175048
0.197409
0.180638
0.19877
0.178651
0.200986
0.175374
0.200699
0.201075
0.17885
0.193292
0.196937
0.193036
0.20029
0.202046
0.200662
0.197414
0.19757
0.197261
0.194604
0.192445
0.197767
0.193701
0.195992
0.191744
0.175307
0.181847
0.175597
0.195419
0.181864
0.181445
0.181145
0.183036
0.197397
0.178109
0.182073
0.178096
0.197126
0.182814
0.177312
0.178851
0.182934
0.195668
0.166134
0.178194
0.165676
0.193383
0.180969
0.177085
0.178119
0.178304
0.193518
0.219431
0.217459
0.218357
0.18073
0.175342
0.193269
0.180975
0.183269
0.180889
0.192145
0.168656
0.174637
0.186084
0.175703
0.171998
0.181078
0.191805
0.170563
0.178037
0.169347
0.191305
0.177661
0.174578
0.172436
0.17361
0.188931
0.216204
0.21482
0.215709
0.180876
0.176726
0.199252
0.187261
0.180122
0.182376
0.196889
0.164845
0.177363
0.191863
0.183555
0.179088
0.181339
0.193654
0.172239
0.181736
0.173777
0.19559
0.18269
0.183659
0.181391
0.186939
0.198844
0.220347
0.223017
0.223738
0.180915
0.174003
0.204913
0.186274
0.183039
0.185763
0.200854
0.175681
0.184514
0.200974
0.188241
0.183067
0.188811
0.202307
0.175651
0.185165
0.174689
0.200242
0.184339
0.17976
0.180295
0.18473
0.20005
0.227446
0.225038
0.225795
0.183235
0.202276
0.185682
0.186387
0.196364
0.177638
0.183832
0.198317
0.184015
0.179357
0.182274
0.198361
0.179962
0.17376
0.197526
0.183477
0.180183
0.182413
0.19726
0.2238
0.221222
0.223433
0.176618
0.16665
0.191673
0.176459
0.177216
0.177752
0.189805
0.172396
0.179483
0.186994
0.176419
0.168784
0.177926
0.188577
0.173436
0.178122
0.173395
0.186688
0.176754
0.171235
0.173378
0.177248
0.190548
0.208977
0.209338
0.208579
0.176997
0.168851
0.196546
0.177771
0.176036
0.175669
0.194661
0.17507
0.180023
0.197699
0.181786
0.182687
0.178245
0.195235
0.168826
0.180171
0.17246
0.195272
0.184306
0.177318
0.179717
0.182591
0.198427
0.218513
0.218302
0.217901
0.179262
0.173517
0.197803
0.184581
0.183875
0.184781
0.200016
0.178609
0.181503
0.195399
0.181457
0.178056
0.181302
0.195571
0.175808
0.186936
0.176785
0.198561
0.184415
0.180569
0.178628
0.183774
0.196876
0.22085
0.219673
0.221923
0.182241
0.175229
0.197069
0.182434
0.17946
0.18134
0.19517
0.171872
0.179284
0.191025
0.178886
0.175011
0.184359
0.197357
0.166477
0.178013
0.167243
0.197746
0.183007
0.180554
0.17941
0.182816
0.195604
0.217626
0.218113
0.216825
0.179465
0.173023
0.191287
0.179862
0.176442
0.179572
0.190049
0.167596
0.172923
0.18763
0.174147
0.170303
0.181722
0.191727
0.167769
0.176548
0.169053
0.189337
0.178141
0.172627
0.17481
0.177107
0.192951
0.213164
0.213572
0.212927
0.176748
0.185982
0.175162
0.199573
0.186306
0.184767
0.183693
0.185557
0.197831
0.173859
0.178736
0.173807
0.194865
0.179426
0.177634
0.178554
0.182727
0.200592
0.173306
0.182546
0.17139
0.19715
0.184063
0.184124
0.178964
0.185568
0.198461
0.225196
0.225414
0.223601
0.183727
0.174101
0.202259
0.187855
0.183565
0.18637
0.202184
0.176732
0.183026
0.199757
0.185581
0.182533
0.185884
0.199698
0.177758
0.189041
0.176808
0.200194
0.185606
0.181019
0.180168
0.185904
0.19931
0.224425
0.222333
0.223842
0.181881
0.179853
0.200332
0.185366
0.180524
0.184758
0.199188
0.172872
0.183427
0.198565
0.183142
0.180994
0.182944
0.198119
0.170488
0.181966
0.168764
0.197482
0.184345
0.180717
0.180608
0.181312
0.197191
0.222778
0.222058
0.221325
0.183042
0.177466
0.19566
0.182872
0.182945
0.185078
0.198366
0.167292
0.177163
0.190208
0.176211
0.172127
0.183203
0.195189
0.173918
0.181484
0.172846
0.195931
0.178861
0.177489
0.174107
0.175729
0.193327
0.221119
0.22051
0.222391
0.184012
0.197937
0.185021
0.188704
0.200598
0.169288
0.178476
0.1903
0.177645
0.175076
0.183065
0.199894
0.180345
0.172423
0.1954
0.183069
0.179187
0.185026
0.195348
0.224248
0.223067
0.22228
0.179274
0.19154
0.177506
0.179515
0.19179
0.179663
0.191741
0.176438
0.178385
0.197044
0.177446
0.19144
0.177544
0.174283
0.188455
0.218131
0.216781
0.214
0.1875
0.199674
0.183629
0.185633
0.197265
0.184562
0.19674
0.184141
0.184125
0.200924
0.180065
0.199546
0.185392
0.18586
0.195207
0.223614
0.222487
0.221667
0.178258
0.199298
0.180548
0.180154
0.193682
0.183938
0.194937
0.183763
0.184177
0.196534
0.182558
0.197167
0.182217
0.182789
0.19308
0.217889
0.215741
0.218147
0.179267
0.192808
0.176666
0.175279
0.190872
0.17648
0.194658
0.177667
0.177061
0.18914
0.175248
0.191436
0.179405
0.180274
0.196856
0.213673
0.216074
0.214976
0.178884
0.192285
0.178268
0.176861
0.189675
0.177843
0.193152
0.17675
0.180533
0.194028
0.176047
0.189386
0.179558
0.177349
0.190461
0.215086
0.21341
0.211951
SCALARS SignedDistance double 1
LOOKUP_TABLE default
2.74589
3.15117
2.32035
2.3218
2.64211
3.33346
2.91567
2.80713
3.09645
2.92914
2.87963
2.47031
2.51862
2.72984
2.97692
3.39945
2.76496
2.85105
2.37009
2.4808
2.40196
2.60052
3.18781
3.23185
2.85643
3.07831
2.68769
2.55403
3.31552
3.12368
3.31006
3.37384
2.38576
2.79368
2.39786
2.3042
2.58163
2.53497
2.57044
3.05164
2.56527
2.925
2.66673
2.69792
2.8987
2.54636
2.5759
2.46466
3.13515
2.83231
3.02563
2.95549
2.78656
3.43248
3.24683
2.9342
3.06072
3.27402
2.70634
2.49559
2.92581
2.71882
2.52326
2.71301
2.89143
2.2393
2.51224
2.48081
2.25186
2.57969
2.31153
2.63683
2.59109
2.75651
2.66831
2.50185
2.51761
3.35113
3.361
3.31443
3.32549
3.08327
3.19501
3.0613
2.99106
3.28614
2.6402
2.71447
2.86933
3.01226
2.78097
2.54777
2.59779
2.79827
2.65942
2.40318
2.56814
2.40981
2.87388
3.02242
3.03148
2.82907
3.02253
3.20975
3.13478
3.08295
3.16746
3.23437
3.09235
3.27829
3.3199
3.22274
2.28246
2.38749
2.35203
2.86893
2.61348
2.65169
2.51706
2.58145
2.72314
2.44275
2.474
2.43725
2.36316
2.39687
2.44998
2.29083
2.48863
2.46532
2.41662
2.44553
2.77419
2.57517
2.73271
2.6028
2.38016
2.9996
2.80353
2.86235
2.85745
3.08713
2.36909
3.00777
2.66678
2.56899
2.90076
2.91912
2.99221
3.15344
2.324
2.46547
2.65307
2.8075
2.59272
2.89439
3.25253
3.17514
3.41074
3.09733
3.12905
3.28597
2.76133
2.7697
2.87015
2.59185
2.66981
2.5742
2.9229
2.78818
2.82888
2.49443
2.48542
2.44973
2.64024
2.54996
2.62529
2.48566
2.50675
2.53424
3.23575
3.07683
3.18864
2.89882
2.97986
3.04519
2.87187
2.91439
2.77506
2.62411
2.68747
2.75128
2.88668
2.82569
3.04916
2.9684
2.74266
2.85267
2.83317
3.40659
3.31517
3.32747
3.37409
3.43173
3.21853
3.1378
3.04347
3.10197
3.20553
2.90265
2.99084
2.84025
3.33099
3.16689
3.23428
3.09247
3.14957
2.9806
2.73953
2.6298
2.69069
2.72882
2.39562
2.62138
2.5516
3.02692
2.91111
2.76707
2.80986
2.87358
2.80718
2.73167
2.65776
2.75727
2.89129
2.5701
2.64981
2.41762
2.85279
2.78617
2.75302
2.65409
2.67814
2.69383
2.47987
2.61215
2.26344
2.32608
2.43367
2.34923
2.29085
2.63045
2.46637
2.31863
2.34333
2.44145
2.33556
2.26578
2.74185
2.59572
2.76095
2.31446
2.42569
2.4427
2.54858
2.46744
2.37345
2.20276
2.24292
2.22442
2.66835
2.54089
2.5886
2.61135
2.52918
2.86283
2.77993
2.62902
2.71587
2.66938
2.65111
2.56227
2.46333
2.46959
2.48234
2.47422
2.54151
2.52355
2.54607
2.60156