# vtk DataFile Version 4.2
vtk output
ASCII
DATASET POLYDATA
POINTS 642 double
-1.11926 3.17829 -0.243676
-0.0674058 2.98652 -0.20153
-1.29382 0.540548 -0.00598312
0.674957 0.553268 0.0075498
-0.364481 1.20683 1.04404
-0.57929 2.5436 0.704431
-0.344744 1.36901 -0.862434
-0.705077 2.87324 -0.95422
0.574771 1.9173 -0.445891
0.72981 1.8683 0.549417
-1.37267 2.31644 -0.652331
-1.80472 2.13904 0.85669
-1.67956 2.90619 0.445949
-1.17039 2.44497 0.854211
-0.887492 2.92893 0.416744
-0.215892 2.86819 0.253111
-0.456867 3.35423 -0.209332
-0.161903 3.21384 -0.662635
-1.01746 3.17701 -0.838983
-1.14062 2.83115 -1.07614
-1.603 3.02738 -0.631475
-1.85073 2.15768 0.020576
0.157518 2.22394 0.704536
0.409441 2.4054 0.241927
-1.03503 1.61449 0.879251
-0.416385 1.93313 0.951411
-1.45843 1.31379 -0.360075
-1.58259 1.23062 0.478333
-0.544506 2.2843 -0.954454
-0.936587 1.8167 -0.809446
0.277385 2.53418 -0.301331
-0.0383416 2.51276 -0.731313
1.06911 1.18762 0.466144
0.33969 1.51596 0.96227
0.207609 0.684866 0.800562
-0.934705 0.658036 0.826934
-0.350831 0.554436 -0.000935585
-0.814623 0.787548 -0.671544
0.149413 0.817037 -0.674053
0.196541 1.6007 -0.739596
0.823995 1.23256 -0.269105
0.871885 1.82322 0.0248408
-1.34707 2.99568 0.0891101
-1.27975 2.95976 0.48568
-0.991405 3.08035 0.130439
-1.48989 2.3608 0.962036
-1.46638 2.72736 0.813234
-1.83425 2.56541 0.70593
-0.755739 2.74537 0.592343
-1.07586 2.7238 0.685264
-0.869049 2.5054 0.772762
-0.639938 3.16557 0.0508436
-0.790101 3.32097 -0.217064
-0.360967 2.7171 0.51209
-0.530847 2.95158 0.310809
-0.270722 3.19141 -0.225353
-0.357791 3.10655 0.00412327
-0.141202 2.9696 0.015368
-0.666002 3.34516 -0.518933
-1.08341 3.22605 -0.636052
-0.121962 3.08652 -0.383809
-0.287057 3.4035 -0.473197
-0.857562 3.03088 -0.931653
-0.553906 3.21974 -0.704801
-0.446911 3.01167 -0.815712
-1.37265 3.23656 -0.879615
-1.39124 3.17586 -0.443193
-0.937817 2.87372 -1.02829
-1.18416 3.13148 -1.12252
-1.47617 2.71655 -0.692666
-1.43889 2.99712 -1.0375
-1.26854 2.65587 -0.950343
-1.60882 2.90892 -0.0731493
-1.60357 2.20782 -0.31891
-1.63356 2.58736 -0.247673
-1.85057 2.56559 0.254526
-1.85041 2.1502 0.461994
0.12393 2.6484 0.264422
0.146998 2.72441 0.00828952
-0.155357 2.3679 0.722693
0.0107898 2.5362 0.518797
0.61749 2.18472 0.410489
0.343306 2.34577 0.487671
0.465149 2.07654 0.677773
-0.851835 2.21414 0.875993
-0.518893 2.24608 0.850227
-1.40051 1.94653 0.82969
-1.16451 2.11862 0.90321
-0.357838 1.56541 1.04701
-0.745679 1.81603 0.938996
-0.673667 1.34451 0.949296
-1.85052 1.69066 0.261476
-1.6413 1.76803 0.633793
-1.44508 1.78222 -0.460476
-1.68612 1.72117 -0.187068
-1.36697 0.855389 0.24298
-1.62993 1.20941 0.0102741
-1.3243 0.880529 -0.152036
-1.02865 2.43401 -0.956971
-1.17507 2.11006 -0.76754
-0.67399 2.67378 -0.981627
-0.858542 2.61971 -1.0166
-0.618615 1.52535 -0.84838
-0.740397 2.12296 -0.938179
-0.389188 1.75694 -0.907117
-0.154378 2.87113 -0.698365
-0.375624 2.75623 -0.870659
0.0822591 2.80831 -0.271553
-0.00973093 2.88026 -0.469662
0.272795 2.1729 -0.591431
0.141685 2.5499 -0.534312
0.457173 2.21224 -0.3555
0.995104 0.719687 0.254058
0.72221 0.860792 0.63264
0.507497 0.554293 0.400447
0.594925 1.69174 0.776713
0.687004 1.32451 0.698969
0.872158 1.49261 0.470609
-0.130263 0.934826 1.04355
0.298099 1.08835 0.912667
-0.0194212 1.34231 1.06117
-0.0291295 0.565617 0.443793
0.215201 0.554607 0.00400151
-0.597148 0.888697 0.946709
-0.346575 0.554538 0.918348
-0.858551 0.554108 0.00757357
-0.648391 0.554546 0.456261
-1.14728 0.55425 0.487581
-0.0564227 0.554677 -0.417226
0.433125 0.645272 -0.38619
-1.08652 0.637647 -0.353304
-0.645627 0.554603 -0.417696
-0.140337 1.08829 -0.836858
-0.364217 0.765079 -0.690022
-0.534253 1.09873 -0.780656
0.548616 0.993898 -0.474225
0.880034 0.836746 -0.215388
-0.0508405 1.4717 -0.856116
0.217161 1.21818 -0.718866
0.741225 1.54126 -0.363625
0.538908 1.39758 -0.571896
0.415687 1.74177 -0.615612
1.11888 1.14586 0.0140333
0.788187 1.85804 -0.219448
0.878452 1.49816 -0.102626
0.921046 1.45521 0.195942
0.86413 1.85089 0.315231
-0.0251397 1.71951 1.04531
0.276338 1.90207 0.869414
-0.106928 2.06507 0.868468
-1.23217 0.833578 0.643957
-0.946081 1.07065 0.808223
-1.31933 1.39364 0.768764
-0.830014 1.23942 -0.673156
-1.09901 1.04209 -0.430149
-1.18738 1.52657 -0.570198
0.113312 2.02471 -0.748349
-0.145131 1.87485 -0.876892
-0.291901 2.39612 -0.889306
0.65749 2.14384 0.158534
0.623247 2.17629 -0.128957
0.38008 2.46988 -0.033571
-1.21988 3.10656 -0.114076
-1.19633 3.02338 0.143954
-1.05785 3.15205 -0.0692152
-1.48789 2.95899 0.489922
-1.32611 2.97008 0.317297
-1.54065 2.95878 0.295621
-0.938996 3.00765 0.286327
-1.14441 2.97821 0.326806
-1.07172 2.92519 0.455418
-1.66298 2.26656 0.951317
-1.69064 2.48026 0.910557
-1.85192 2.36192 0.798637
-1.30664 2.56527 0.831365
-1.50615 2.5496 0.912572
-1.32653 2.40353 0.906818
-1.77253 2.75293 0.584459
-1.67592 2.68349 0.811107
-1.64391 2.86065 0.695875
-0.654747 2.6341 0.655592
-0.849239 2.63746 0.693085
-0.701522 2.52423 0.735734
-0.999187 2.83377 0.568188
-0.924409 2.73658 0.637828
-0.847929 2.85541 0.505939
-1.0079 2.47659 0.807472
-0.994318 2.61421 0.734482
-1.12576 2.59131 0.772834
-1.40818 2.87747 0.671635
-1.25445 2.71911 0.735395
-1.184 2.86959 0.634276
-0.883567 3.26164 -0.03635
-0.94816 3.25436 -0.246534
-0.762315 3.04272 0.238646
-0.806227 3.13611 0.106318
-0.610188 3.38859 -0.190722
-0.683127 3.26531 -0.068522
-0.543951 3.2585 -0.0891306
-0.471974 2.63339 0.619111
-0.564757 2.73799 0.5494
-0.37809 2.93335 0.268969
-0.458203 2.84072 0.412443
-0.26929 2.80039 0.380767
-0.652335 2.85289 0.461817
-0.723385 2.94386 0.370906
-0.140646 3.06563 -0.21597
-0.209617 3.07899 -0.109122
-0.0872001 2.98167 -0.11773
-0.415773 3.22113 -0.117367
-0.310596 3.15289 -0.114147
-0.36412 3.28077 -0.229147
-0.163747 2.92564 0.122501
-0.249515 3.04954 0.00030014
-0.296142 2.99891 0.12689
-0.595797 3.06418 0.179952
-0.433572 3.04079 0.150668
-0.496916 3.15663 0.0155034
-0.921632 3.27038 -0.426622
-1.1043 3.21897 -0.474164
-0.543891 3.53665 -0.327336
-0.721031 3.37548 -0.389229
-1.05754 3.21512 -0.736675
-0.90509 3.25025 -0.589185
-0.859452 3.21988 -0.685502
-0.0999692 3.0457 -0.305818
-0.177804 3.14587 -0.320786
-0.20104 3.35179 -0.588604
-0.196826 3.24588 -0.438387
-0.159134 3.17031 -0.537038
-0.281954 3.28258 -0.333543
-0.364695 3.42272 -0.334058
-0.770695 2.94305 -0.949465
-0.686084 3.02621 -0.8738
-0.606191 2.92107 -0.904855
-0.822885 3.15956 -0.783607
-0.739683 3.10185 -0.829165
-0.978263 3.12211 -0.900417
-0.299771 3.11239 -0.722608
-0.506365 3.13343 -0.764818
-0.329803 3.27347 -0.694894
-0.45641 3.52702 -0.516333
-0.35284 3.47214 -0.674003
-0.615206 3.28654 -0.631486
-1.24756 3.21767 -0.571275
-1.27918 3.16536 -0.379734
-1.19975 3.26783 -0.906346
-1.23777 3.24418 -0.771489
-1.56168 3.17851 -0.52907
-1.42672 3.28833 -0.702017
-1.59657 3.25895 -0.789615
-0.831848 2.87305 -0.997067
-0.914709 2.95981 -0.996546
-1.18848 3.02459 -1.16367
-1.06301 2.99067 -1.05637
-1.04614 2.87004 -1.05715
-1.04904 3.06548 -1.00525
-1.1617 3.16746 -1.00378
-1.41299 2.47097 -0.667215
-1.3813 2.69211 -0.853122
-1.32273 2.45099 -0.77716
-1.56325 3.05561 -0.884564
-1.46545 2.86214 -0.86906
-1.52902 2.88408 -0.686527
-1.22351 2.73937 -1.03135
-1.40917 2.80984 -1.06177
-1.31618 2.90091 -1.17454
-1.32529 3.17521 -1.04078
-1.39682 3.15991 -1.26478
-1.40463 3.14648 -0.988136
-1.37492 3.09249 -0.197601
-1.60226 2.9972 -0.391766
-1.51869 3.08817 -0.273508
-1.50622 2.96218 0.018591
-1.68376 2.92038 0.20799
-1.48372 2.26168 -0.490055
-1.51206 2.44937 -0.487221
-1.77944 2.37834 -0.118119
-1.62389 2.40375 -0.288807
-1.75627 2.17401 -0.170867
-1.54546 2.65255 -0.482292
-1.59057 2.81376 -0.477428
-1.85064 2.35415 0.576858
-1.85133 2.14628 0.644298
-1.8505 2.7893 0.369742
-1.85074 2.56934 0.478498
-1.85059 2.15277 0.243413
-1.90914 2.36064 0.353865
-1.85048 2.36159 0.13343
-1.6544 2.76814 -0.178763
-1.76813 2.57239 -0.00438967
-1.82118 2.78974 0.101105
0.0128939 2.84282 0.00946065
0.0240246 2.86611 -0.110131
-0.0387657 2.76275 0.262689
-0.0149384 2.81146 0.142082
0.281025 2.56225 0.132651
0.150093 2.67746 0.154628
0.268053 2.53088 0.257811
-0.356607 2.459 0.719457
-0.253198 2.54644 0.629566
0.0885848 2.37546 0.628046
-0.0645791 2.45495 0.628983
0.0105068 2.2931 0.717458
-0.159079 2.63021 0.518206
-0.0934564 2.69675 0.405982
0.70508 2.00808 0.505445
0.557906 2.12761 0.553069
0.64437 1.97175 0.631756
0.403737 2.38744 0.374066
0.489403 2.27533 0.461951
0.511978 2.29553 0.327039
0.330109 2.1434 0.688449
0.44432 2.23271 0.62047
0.268753 2.29271 0.612092
0.0817366 2.59803 0.394153
0.176652 2.44068 0.501644
0.239403 2.49069 0.381829
-0.71048 2.38515 0.807701
-0.557393 2.40067 0.784651
-1.01056 2.33051 0.861529
-0.890636 2.35798 0.83837
-0.469869 2.11376 0.894894
-0.705675 2.23391 0.864648
-0.64495 2.08009 0.90718
-1.57592 2.04555 0.850417
-1.46405 2.135 0.960903
-1.11212 1.90601 0.882608
-1.27898 2.04111 0.889472
-1.2079 1.77394 0.848221
-1.31359 2.2291 0.962131
-1.18495 2.2822 0.902427
-0.35963 1.34866 1.04571
-0.53936 1.44756 1.04516
-0.500351 1.25575 0.993969
-0.58387 1.87439 0.95613
-0.546914 1.68396 1.00455
-0.381301 1.77495 1.00254
-0.843606 1.4617 0.899774
-0.712238 1.56623 0.956309
-0.892197 1.72092 0.912356
-1.00786 2.16924 0.892722
-0.95813 1.98068 0.902883
-0.819764 2.03818 0.907976
-1.72555 1.96529 0.539059
-1.66802 1.97784 0.701359
-1.77239 1.93937 0.145189
-1.77097 1.94035 0.333456
-1.67311 1.48997 0.590788
-1.74909 1.70083 0.451418
-1.71175 1.46836 0.365137
-1.40426 2.04366 -0.536698
-1.51965 1.9951 -0.394311
-1.61799 1.49906 -0.296224
-1.58495 1.74221 -0.350958
-1.49613 1.52571 -0.433624
-1.64607 1.96403 -0.248814
-1.71732 1.9495 -0.0718862
-1.43531 0.591406 0.122819
-1.39797 0.829026 0.0101316
-1.43828 0.613154 -0.141009
-1.62373 1.20288 0.239477
-1.46066 1.05317 0.125883
-1.42836 1.06279 0.359756
-1.36531 1.11349 -0.233584
-1.43418 1.06748 -0.077844
-1.5854 1.23471 -0.212584
-1.77604 1.69962 0.0252588
-1.6859 1.4663 -0.0953665
-1.76861 1.43577 0.132595
-1.20912 2.38939 -0.846201
[...]
POINT_DATA 642
SCALARS Mean_Curvature double 1
LOOKUP_TABLE default
-0.0383395
1.51585
1.64428
5.09213
3.36905
0.81839
0.10136
1.2748
2.54823
-1.67448
0.21852
8.10332
3.11321
0.77416
0.894609
0.650119
2.20144
9.94443
1.10661
1.1921
3.4965
4.01567
0.555942
0.32992
0.95808
0.759904
2.34108
3.58195
1.03106
0.795767
1.38068
1.13569
7.37518
1.29209
2.30068
4.30667
0.221545
5.05824
2.4096
-0.00917651
-0.406168
1.73763
-0.687326
2.71286
0.181149
2.93612
3.05769
4.05647
1.00422
0.445114
0.761975
0.755959
1.40561
1.01031
1.00942
0.443885
0.908605
1.45977
-0.0232862
0.539191
1.10284
2.73849
1.59827
0.785809
1.44922
2.97932
0.657678
1.92767
8.66043
0.322165
2.03229
1.26393
1.61226
-0.279491
-0.808636
0.393049
1.5162
1.42748
1.41255
1.01006
1.25504
4.1822
0.0324865
1.88962
0.54257
0.851596
-0.561834
0.6049
0.684131
0.393338
-0.0394031
5.33281
1.29797
0.182555
1.29555
-1.08921
2.78968
-0.865566
1.70923
0.868998
1.52056
1.99643
0.741196
1.02255
1.14353
1.64664
1.49245
1.00985
1.89089
1.04014
1.37369
0.793408
4.13221
3.37808
3.17877
1.04848
1.19091
3.33872
3.99985
-0.753001
0.878744
-0.584698
-0.0056886
0.0206475
5.73087
-1.35824
-0.00213604
1.75007
1.63101
2.38634
3.50476
-0.0281016
2.95607
-0.194127
-0.0358897
-1.12514
3.76446
2.50428
-0.817968
0.75158
0.828311
0.755473
4.0437
1.95907
-0.878175
-1.18345
2.50658
4.02543
2.27621
0.533883
0.602358
-0.394381
2.60727
0.0427542
-0.444107
0.196636
0.933799
1.19263
0.946881
-0.0905165
3.17905
1.20064
-0.232103
-0.212846
-0.327826
3.15172
-0.50754
1.28292
0.52751
0.0457561
0.667419
4.28494
4.25085
5.12164
-0.233385
3.39043
0.273538
1.91929
3.92018
6.1014
0.634412
0.819182
0.631008
0.883843
0.951112
1.1164
0.56829
0.561703
0.171567
3.00845
-0.140848
3.88536
5.11746
0.616063
0.846207
0.691326
4.46169
0.956855
0.591647
0.989167
0.578331
0.990859
0.587376
1.06896
0.962593
0.912505
1.16082
1.08541
1.49129
0.306604
0.659596
0.00805405
1.17849
1.19922
1.23491
0.852074
0.999738
0.690019
0.266737
-0.129895
8.43636
2.1027
0.793935
0.78247
0.778292
1.40337
0.769834
8.58438
1.99819
0.617952
0.0923376
4.6937
1.54666
1.19754
1.35578
0.875591
1.07705
1.40583
0.678912
1.18747
1.4163
6.63337
9.07624
0.423791
-0.249361
-0.725222
8.1922
-0.147142
6.48066
4.91565
8.97764
1.89643
1.73775
5.37502
1.20254
1.80538
1.15984
0.822793
0.647929
0.431046
1.05927
5.35855
-0.207405
-0.864403
1.10964
7.58109
7.52893
2.88233
10.1682
3.26968
0.200065
2.96629
4.89466
0.0887689
3.04111
0.270637
0.0654237
2.705
-0.474628
2.86582
-0.57058
1.5759
-0.698968
3.96167
5.4987
0.697039
1.01655
4.0845
0.771079
0.93427
-0.398891
5.27169
0.859434
0.828284
1.22925
1.16988
1.39648
1.42983
1.3362
1.09705
1.15345
1.24819
1.03158
0.998537
1.22684
1.33405
2.60441
0.297093
4.5851
2.94667
2.11085
1.11138
-0.206171
6.92323
1.28028
1.44765
0.696351
1.22409
0.612507
0.882416
0.694127
0.764539
0.778368
0.666232
0.698891
1.17006
5.0158
0.162264
0.0707416
0.0747519
4.40991
0.266656
0.388663
3.84574
-0.613602
0.664206
1.33509
1.02751
-0.0766399
0.255892
0.248289
0.771302
0.454204
0.58987
-1.41133
0.288658
-1.01317
-1.11766
4.82694
1.17216
-0.0126968
0.431619
-0.346271
3.08371
1.96252
3.7935
0.769269
-1.18611
7.92627
0.526628
8.61484
2.32019
-1.04522
-0.757324
-0.483033
-0.661168
4.79861
1.54496
0.461107
3.51079
1.12126
0.60215
1.83013
1.70733
1.0314
0.737236
0.961341
1.57182
1.98638
1.11942
1.93047
0.686917
2.05884
1.97816
0.387579
0.707137
0.138954
0.916515
1.35094
0.858868
1.22845
1.3793
1.06723
1.9196
0.75917
0.775901
1.53282
1.36634
1.35991
1.37477
1.19832
1.56193
1.28806
1.59482
1.79126
1.25855
1.2552
1.37832
1.78389
1.45113
0.503321
0.995165
0.769982
1.27615
1.30534
1.25022
1.18777
1.24631
1.39612
1.83124
0.964472
1.48891
2.01498
2.4206
1.61578
1.98921
4.08361
6.01863
6.05909
-1.6727
1.39011
5.4433
2.34539
-1.69008
2.38392
-0.634877
3.48942
-0.159644
0.466398
-1.57683
1.76651
0.206304
-0.587033
1.90525
3.70898
-1.07143
2.11023
3.64522
1.60145
0.356394
0.315301
0.243019
-0.0125969
0.487618
2.72348
0.0859496
0.210525
0.136363
0.101809
-0.613406
-0.997446
6.67383
6.54715
-0.57081
-1.26035
5.5963
3.94718
3.4752
0.520016
-0.000172841
-0.767316
-0.00438832
2.21965
-0.808842
1.48555
0.762619
-0.0114075
0.0497252
1.65518
2.96249
-1.13731
0.150124
3.14828
3.87686
5.05779
6.12961
1.54154
7.45622
3.72401
2.45766
-0.167829
0.0985451
0.297684
5.50163
1.33706
1.03923
1.09712
-1.49995
-0.549313
-1.02039
0.698756
0.888897
6.38309
3.94209
0.311549
3.85844
2.14916
2.95507
1.9638
-1.38105
-0.312019
0.0897344
2.83292
0.34794
-0.199553
-0.024347
0.737956
-0.605719
2.62558
2.058
0.609357
1.50411
-0.525552
-0.963942
-0.0648325
2.09638
2.2904
5.35626
2.64551
1.07616
1.37809
5.97688
5.96187
3.44339
3.32076
2.45522
0.295694
-0.438877
4.47287
5.9254
5.58109
-0.639395
3.08002
7.41968
0.1709
-1.22786
2.41021
-0.957804
-0.764287
1.12148
-1.13076
4.26455
2.63542
4.77681
-0.628815
1.13864
0.285704
-0.881619
0.123588
-0.528804
4.29389
-1.30776
0.997748
0.645334
0.741698
0.847973
0.445982
0.33126
0.234201
0.645845
1.21106
8.28363
8.13836
0.787421
-0.342966
-0.418522
-0.0846993
-0.319786
-0.556557
1.44586
-0.817941
1.82054
1.336
1.26718
-0.401423
-0.342658
-0.238474
-0.373721
4.15992
-0.341477
-0.304516
0.114101
0.31014
2.42547
-0.0792004
-0.784014
-0.78228
-0.473445
0.427827
0.724527
0.535959
-0.17605
-0.187241
-0.243148
0.0542286
0.269472
0.803424
0.708578
0.765188
0.978144
1.08182
0.27513
1.14868
1.20926
1.13473
1.28292
1.19557
1.00778
0.815419
0.537618
0.988555
1.14611
1.09092
1.11172
2.3939
1.62084
2.36812
-0.288098
0.693868
1.25569
1.24832
0.55245
0.211777
4.58993
1.43395
0.806971
1.47381
1.46668
1.29625
-0.132893
0.561498
0.767321
SCALARS Redistribution_Potential double 1
LOOKUP_TABLE default
2.34176e-15
-0.281905
0.024975
-0.185775
-0.161648
-0.364362
-0.163977
0.0695862
-0.354037
-0.358659
0.0888759
-0.0832504
-0.0759233
-0.239271
-0.247386
-0.348475
-0.193516
-0.136771
0.177415
0.24788
0.220188
0.0448289
-0.402335
-0.406084
-0.143303
-0.324055
0.0356973
0.0229556
-0.0908025
-0.0509207
-0.332828
-0.21546
-0.246447
-0.28181
-0.144344
-0.0258724
-0.0624437
-0.0345901
-0.160564
-0.262445
-0.256574
-0.351294
-0.0350818
-0.15575
-0.147833
-0.157785
-0.159486
-0.0850197
-0.315241
-0.252521
-0.317162
-0.225883
-0.10967
-0.366064
-0.306937
-0.247846
-0.283012
-0.311816
-0.0590784
0.122687
-0.228474
-0.161651
0.140876
-0.0392069
-0.0344286
0.40685
0.132081
0.192019
0.350353
0.188542
0.357335
0.214115
0.0383117
0.07914
0.105099
-0.00681361
-0.00999686
-0.374306
-0.347447
-0.397895
-0.393346
-0.401852
-0.410531
-0.38626
-0.304109
-0.361118
-0.106602
-0.210088
-0.245272
-0.249406
-0.14182
0.0306752
-0.0211105
0.0316736
0.0505419
0.0851712
0.056445
0.0716824
0.109951
0.0297591
0.0357504
0.121619
-0.118259
-0.0573427
-0.159377
-0.138684
-0.0683832
-0.297122
-0.21923
-0.318356
-0.274164
-0.365239
-0.211762
-0.208573
-0.163867
-0.325047
-0.264985
-0.289019
-0.13259
-0.20779
-0.229253
-0.0968129
-0.130989
-0.0681189
-0.065577
-0.0139408
-0.0342427
0.00431528
-0.111226
-0.171289
0.0101412
-0.0439168
-0.158651
-0.0927825
-0.0974717
-0.208666
-0.211466
-0.215125
-0.210419
-0.305987
-0.271241
-0.310486
-0.245716
-0.357613
-0.28911
-0.257843
-0.355138
-0.305787
-0.35051
-0.374229
0.00637609
-0.040582
-0.0470559
-0.052369
0.0279101
-0.00826367
-0.276321
-0.210239
-0.152744
-0.394985
-0.387083
-0.380198
-0.0139094
-0.090933
-0.0692735
-0.114246
-0.107072
-0.0666007
-0.204953
-0.156298
-0.205834
-0.119194
-0.121006
-0.0857447
-0.202408
-0.158201
-0.197605
-0.0814652
-0.120549
-0.118007
-0.348979
-0.313597
-0.348951
-0.248798
-0.284173
-0.274582
-0.285136
-0.284387
-0.251021
-0.15641
-0.206778
-0.205162
-0.130189
-0.0537362
-0.23972
-0.194125
-0.157193
-0.178759
-0.213276
-0.367379
-0.347441
-0.327153
-0.341391
-0.35811
-0.312246
-0.278039
-0.270545
-0.284364
-0.295026
-0.242153
-0.268319
-0.220887
-0.329983
-0.298368
-0.312667
-0.267273
-0.295374
-0.255158
-0.00666684
0.0719436
-0.129043
-0.0822477
0.153676
0.0408053
0.0552879
-0.252541
-0.238959
-0.148095
-0.19721
-0.178288
-0.210036
-0.17551
0.103059
0.0499955
0.0257315
0.0737391
0.0572482
0.181437
-0.0999965
-0.0332065
-0.101808
-0.118914
-0.106171
-0.0433895
0.155091
0.0920757
0.297975
0.250852
0.188856
0.265891
0.301362
0.141261
0.179808
0.312581
0.246282
0.231138
0.238739
0.306586
0.127744
0.211334
0.13221
0.348993
0.269872
0.220659
0.239357
0.297757
0.307909
0.440651
0.37375
0.459382
0.0427366
0.134026
0.0896887
0.002105
-0.02978
0.0815287
0.112143
0.0607009
0.0959934
0.0639192
0.146744
0.153019
-0.0472039
-0.0423395
-0.0419758
-0.0463725
0.0186591
-0.0118683
0.023247
0.0760236
0.0423853
0.0039089
-0.337428
-0.319117
-0.362542
-0.351092
-0.379235
-0.364978
-0.390531
-0.382563
-0.38498
-0.407122
-0.400226
-0.403737
-0.380385
-0.372119
-0.379413
-0.395055
-0.372262
-0.411222
-0.409852
-0.410934
-0.393454
-0.40426
-0.408386
-0.383484
-0.406786
-0.399525
-0.345487
-0.36612
-0.277901
-0.308972
-0.351114
-0.33428
-0.321736
-0.095382
-0.140494
-0.186135
-0.164536
-0.135331
-0.186525
-0.226428
-0.195096
-0.194213
-0.144312
-0.289426
-0.245959
-0.291305
-0.140914
-0.193093
-0.197962
-0.259999
-0.240498
-0.282699
0.0180847
-0.0428629
0.0443665
0.0253138
0.000311517
0.0121844
0.0256917
0.0471236
0.0601708
0.0402574
0.0417247
0.0286042
0.0620001
0.0758758
0.0444205
0.0677042
0.0385829
0.0491971
0.0852681
0.0560355
0.0563371
0.0698151
0.0504001
0.0476328
0.0474529
0.0419424
0.109621
0.0641285
0.196344
0.17548
-0.00581881
0.0671061
0.0075032
0.0628836
0.116941
0.0205189
0.0828751
-0.0152685
0.163463
0.193569
-0.146325
-0.137016
-0.169237
-0.0552281
-0.0940048
-0.0826643
-0.133952
-0.105951
-0.0709815
0.134215
0.0225424
0.0259667
-0.0453981
-0.00215301
-0.137503
-0.096731
-0.14517
-0.109115
-0.175278
-0.282894
-0.251938
-0.278148
-0.264993
-0.310439
-0.214494
-0.175316
-0.348438
-0.34484
-0.362769
-0.242477
-0.301308
-0.271813
-0.355636
-0.33066
-0.305001
-0.172005
-0.246916
-0.20163
-0.195726
-0.192132
-0.174595
-0.227969
-0.208713
-0.231436
-0.153629
-0.184644
-0.179098
-0.343397
-0.312163
-0.324445
-0.275348
-0.293859
-0.306664
-0.259335
-0.279553
-0.245605
-0.144937
-0.180792
-0.190909
-0.174465
-0.177117
-0.133998
-0.2598
-0.218335
-0.249119
-0.231682
-0.240847
-0.205406
-0.144925
-0.15658
-0.118901
-0.130393
-0.0963519
-0.110736
-0.0773902
-0.0959837
-0.0778717
-0.0509756
-0.0648936
-0.0439369
-0.0643767
-0.100632
0.00971009
-0.00144079
0.0213262
-0.0433534
-0.0225053
-0.0366865
-0.010609
-0.0143581
-0.0289159
-0.079331
-0.0505678
-0.0598307
-0.1503
-0.177269
-0.0829743
-0.118167
-0.166715
-0.145311
-0.139095
0.0185437
-0.00290996
-0.0421232
-0.0204184
-0.0138717
-0.0281393
-0.0510512
-0.163983
-0.125852
-0.140023
-0.13054
-0.12555
-0.150859
-0.0550967
-0.0792567
-0.0621822
-0.0746666
-0.0661981
-0.104067
-0.190756
-0.201653
-0.188516
-0.19024
-0.232334
-0.192875
-0.233103
-0.188809
-0.191383
-0.240067
-0.216796
-0.23905
-0.18775
-0.183304
-0.340881
-0.314575
-0.34007
-0.266121
-0.291247
-0.279697
-0.290371
-0.294009
-0.271078
-0.212988
-0.242578
-0.23971
-0.212698
-0.248282
-0.231632
-0.230351
-0.243041
-0.358315
-0.336505
-0.318076
-0.330309
-0.355305
-0.303557
-0.2712
-0.320469
-0.35695
-0.257782
-0.265028
-0.352201
-0.30726
-0.311576
-0.262093
-0.264768
-0.257348
-0.239601
-0.292761
-0.270597
-0.282396
-0.319149
-0.355515
-0.380857
-0.366941
-0.337246
-0.306487
-0.384043
-0.353288
-0.374999
-0.392768
-0.391993
-0.326559
-0.364181
-0.341853
0.0314857
-0.0100537
0.00578965
0.0290582
0.0248849
-0.0866371
-0.0869443
-0.0806301
-0.0482377
-0.0227855
-0.0573094
-0.00885434
-0.0391978
-0.0820988
-0.0887198
-0.00814676
-0.0401353
-0.00307356
-0.113713
-0.0321853
-0.0699155
-0.0844536
-0.0648268
0.0394782
0.0330157
0.0587533
0.0350538
0.00397272
0.0204605
-0.0347506
-0.00700507
0.0148451
0.01786
-0.008202
0.00363976
-0.0312576
-0.326593
-0.278618
-0.303865
-0.300235
-0.253573
-0.193615
-0.161485
-0.182649
-0.221435
-0.244972
-0.0207834
-0.181835
-0.108976
-0.0530153
-0.117108
-0.241829
-0.192075
-0.222018
-0.381807
-0.378023
-0.381062
-0.399046
-0.407374
-0.372785
-0.374202
-0.378794
-0.376134
-0.376779
-0.32499
-0.396242
-0.361936
-0.337922
-0.357551
-0.390794
-0.390049
-0.400638
SCALARS CoVolArea double 1
LOOKUP_TABLE default
0.03067
0.0109972
0.0316291
0.0364685
0.0205586
0.0216644
0.0163015
0.0116815
0.0146706
0.0226076
0.0291066
0.0400466
0.0432173
0.0272386
0.0268345
0.0298479
0.0248755
0.0237154
0.0235397
0.0256864
0.0453252
0.0501376
0.0261846
0.0232585
0.0448899
0.0336541
0.0437787
0.0585554
0.035071
0.0494438
0.0274233
0.0325065
0.0433234
0.0386492
0.0541188
0.0531642
0.0650195
0.0432591
0.0418948
0.0318583
0.0318482
0.0266358
0.0446775
0.0363247
0.0411642
0.0367651
0.0423977
0.0474822
0.0275953
0.0253322
0.0243863
0.0265895
0.0353507
0.034456
0.0301756
0.0180032
0.0206042
0.0223311
0.0388338
0.0265881
0.0158993
0.0294002
0.0196489
0.033359
0.0282748
0.0283572
0.0373975
0.0137782
0.0243698
0.0424148
0.0396507
0.0322442
0.0498779
0.0456962
0.0506402
0.0537721
0.0450384
0.0263036
0.0253672
0.0306644
0.0295906
0.0260148
0.0259227
0.0267787
0.0260205
0.0313817
0.0402419
0.0292874
0.0384668
0.0408712
0.0395518
0.0574086
0.0462242
0.0427964
0.050076
0.0549285
0.056268
0.0418258
0.0254225
0.0400779
0.0151528
0.0165976
0.0394306
0.0385124
0.0347121
0.0215022
0.0247757
0.0179381
0.0187309
0.0307984
0.0305307
0.0257444
0.0610581
0.0519129
0.057825
0.0313467
0.0421899
0.0289892
0.0476914
0.0506433
0.0413905
0.0660618
0.051398
0.0386275
0.061998
0.0574517
0.0618588
0.0540847
0.0560566
0.0461996
0.0417073
0.0556844
0.040721
0.0453997
0.0343821
0.0434024
0.0424745
0.0296892
0.0376169
0.0304781
0.0353172
0.031427
0.0432721
0.0247882
0.0274079
0.0272115
0.0276941
0.0328934
0.0325047
0.0305886
0.0514393
0.0424396
0.0517236
0.0388815
0.0389191
0.0467227
0.0359701
0.0332849
0.0430595
0.0259629
0.0279683
0.0273456
0.0396803
0.0406789
0.040384
0.0422154
0.037174
0.0421375
0.0329864
0.034478
0.0320232
0.0445372
0.0439724
0.0474688
0.033846
0.038498
0.0301841
0.0450406
0.0440691
0.0458496
0.0238011
0.023935
0.0232317
0.0260672
0.0226781
0.0251272
0.0223327
0.0208015
0.025432
0.0439178
0.0353303
0.0355074
0.0394939
0.0369856
0.030333
0.0342681
0.0323923
0.0304889
0.0226287
0.0309661
0.0294122
0.0276364
0.0314176
0.0322739
0.0303256
0.0292451
0.0151747
0.0180717
0.0185906
0.0192547
0.0163627
0.0175527
0.0234946
0.0173847
0.0232474
0.0306358
0.026544
0.0244503
0.0350367
0.0348437
0.0404722
0.0391955
0.0228918
0.0297983
0.0280576
0.0117826
0.0163129
0.0269388
0.0219262
0.0206678
0.0207765
0.0286371
0.0143168
0.0235008
0.0205364
0.0262179
0.0243811
0.0215623
0.0274018
0.029294
0.0325742
0.0439155
0.0411924
0.0392192
0.0330813
0.0335626
0.0264158
0.0286561
0.0440455
0.0406569
0.044758
0.0122649
0.014633
0.028912
0.0170398
0.0175664
0.0192242
0.0225068
0.0386452
0.0387614
0.0333547
0.0430119
0.0373217
0.0388558
0.0259543
0.0334303
0.0381988
0.0253357
0.0395493
0.0327492
0.0409943
0.0486931
0.0427614
0.0446815
0.0468308
0.0426653
0.0455268
0.0507592
0.0462916
0.0464752
0.043921
0.0474351
0.0460902
0.0441037
0.0507909
0.0480639
0.0474606
0.0480305
0.0512731
0.0581461
0.0581705
0.0593277
0.0261776
0.0192607
0.0304836
0.0264309
0.025769
0.0260722
0.0246303
0.0353148
0.0353646
0.0273747
0.0293718
0.0251349
0.0332186
0.0319991
0.027044
0.0272404
0.0277323
0.0227699
0.0233493
0.0206714
0.0256375
0.0254042
0.0279261
0.0299964
0.0290706
0.0266448
0.0278509
0.0305212
0.0248168
0.0236051
0.0317312
0.0276964
0.0338852
0.0401895
0.0372324
0.0396427
0.0336668
0.0425999
0.0295614
0.0270549
0.0297896
0.0390259
0.0328275
0.0369254
0.0408376
0.0338146
0.0418177
0.0415326
0.0445668
0.0289845
0.0375234
0.0348004
0.0447278
0.0407293
0.0522352
0.0492561
0.0574982
0.0529028
0.0606508
0.0449136
0.0453997
0.0478178
0.0442453
0.0417874
0.0458352
0.0505398
0.0514399
0.0521803
0.0477743
0.0595827
0.0512646
0.0529121
0.0413332
0.045623
0.0514454
0.0594206
0.0580628
0.0637704
0.0337948
0.0386556
0.0229769
0.0255469
0.0442091
0.0325253
0.0400636
0.0146104
0.0124593
0.0235607
0.0132581
0.0237267
0.0136654
0.0186828
0.0269891
0.0351204
0.0278014
0.045621
0.0413218
0.0453405
0.035851
0.0378716
0.0362095
0.0226375
0.0286141
0.0331129
0.0244459
0.0194465
0.0219386
0.0233751
0.0286707
0.024069
0.025452
0.0161302
0.0134398
0.0217516
0.0151063
0.0208248
0.0172162
0.0198952
0.0242119
0.0287081
0.0242032
0.0296303
0.0302432
0.0307367
0.0258793
0.0277701
0.0292922
0.0221518
0.0261732
0.0265065
0.0472605
0.0566689
0.0470469
0.0519683
0.055007
0.0594688
0.058095
0.0536666
0.0545516
0.0308069
0.0320305
0.029913
0.0404038
0.0337899
0.0346953
0.0275759
0.0327492
0.0413973
0.0352028
0.0419716
0.031909
0.0505172
0.0458467
0.0515723
0.0388969
0.0438616
0.0450717
0.054736
0.0537437
0.0576488
0.0532411
0.044999
0.0611567
0.0596472
0.0606968
0.0598238
0.0694365
0.033449
0.0408041
0.063197
0.0511944
0.0472677
0.0519024
0.0568843
0.0491257
0.0612324
0.0482613
0.064955
0.0573933
0.0548474
0.0537313
0.0560372
0.0598997
0.068157
0.0686205
0.0722735
0.0502828
0.0498565
0.0616655
0.0557118
0.04526
0.0512462
0.0512108
0.041896
0.0480738
0.0536851
0.0463502
0.0427616
0.0500452
0.0582774
0.0295772
0.0378551
0.0279438
0.0453662
0.0409503
0.0397421
0.0350385
0.035394
0.0456004
0.0615809
0.0594052
0.0552482
0.0444286
0.0434778
0.0431965
0.0431407
0.0394849
0.0410488
0.0377273
0.0259092
0.0315184
0.0316239
0.0300192
0.0282808
0.0373368
0.0396204
0.028065
0.0333264
0.0275921
0.032733
0.0285129
0.0252266
0.0286859
0.0287934
0.0332801
0.047135
0.0416961
0.0446298
0.051173
0.0379174
0.0481261
0.0588996
0.0472205
0.0230699
0.0271331
0.0242394
0.0247676
0.0249472
0.0271211
0.0304269
0.027518
0.0267495
0.0301101
0.0257664
0.0282045
0.0275554
0.0259727
0.035112
0.0299735
0.0353151
0.0351208
0.035362
0.0340271
0.0337117
0.0316816
0.03037
0.0291644
0.0273076
0.0306669
0.0365257
0.0343146
0.0318278
0.0312212
0.0287409
0.0281769
0.0362839
0.0339995
0.0335404
0.0518801
0.0603098
0.0564062
0.0484714
0.0488962
0.0384267
0.0430616
0.0387054
0.0411508
0.0456646
0.0406599
0.056523
0.0510413
0.0466042
0.0466036
0.0496884
0.0515033
0.0514469
0.0338646
0.038399
0.0328348
0.0381234
0.0457091
0.0421507
0.0411786
0.038907
0.0403654
0.0390528
0.0456016
0.0510803
0.0453652
0.0434669
0.0428172
0.0420572
0.0445381
0.0491039
0.0310899
0.0335742
0.0295156
0.0309776
0.0386632
0.031222
0.0367562
0.0315964
0.030373
0.0317558
0.0212534
0.0398978
0.0320051
0.0307039
0.0398655
0.0380867
0.0420942
0.0438479
0.0269882
0.0280492
0.0260081
0.023808
0.0238054
0.0261207
0.0279851
0.0247646
0.0263523
0.0282749
0.0232886
0.0254751
0.0264113
0.0252588
0.0276466
0.0295208
0.0296956
0.0277255
SCALARS SignedDistance double 1
LOOKUP_TABLE default
1.1326
1.28059
-0.0118091
0.0497976
0.0242824
1.36483
0.32404
1.52821
0.180118
0.0975083
1.36672
0.0424206
-0.0208511
0.873097
1.21827
1.44273
0.262428
0.123507
1.22176
1.14566
0.00581366
0.0121785
0.627139
0.789632
0.423224
1.14462
0.0220602
0.0299642
1.51937
1.2576
1.22031
1.4639
0.0199349
0.0372021
0.0117093
0.0955871
0.00956126
0.0915406
-0.00665024
1.07163
0.228025
0.0389656
1.05596
0.0540113
1.08986
0.0268235
0.00253203
0.0317689
1.35279
1.1339
1.27283
1.15985
0.141434
1.34946
1.38047
1.12178
1.20462
1.34107
1.10262
1.21012
1.14023
0.0650225
1.38009
1.20414
1.31772
-1.00264
0.208161
1.31387
0.242519
0.573619
0.033327
1.20048
0.0146827
1.1113
0.879839
0.0032439
-0.00184703
1.24073
1.31658
1.13715
1.13706
0.0600915
0.694075
0.075938
1.28938
1.24863
1.06932
1.08207
0.127009
1.1923
1.13353
0.0247949
0.0191159
0.631209
0.016086
1.13226
0.0110559
1.08947
1.51628
1.33251
1.63377
1.51082
0.688177
1.44624
1.15101
1.32553
1.50272
1.40742
1.34784
1.1947
1.34822
0.911495
0.0189999
0.0597137
0.0110363
0.0382453
0.0116607
0.044529
0.00632295
0.0141463
0.0179315
0.0282397
0.0039122
0.670434
0.00517884
0.0185395
0.00595167
0.0158457
0.00160936
0.0361187
0.0326474
0.00287136
0.00380441
0.0266494
0.20086
0.0913427
-0.0148405
0.11337
0.434169
0.0595201
0.0561879
0.356106
-0.0122148
0.0537522
0.242591
1.07389
0.0142085
0.0559654
0.0772031
1.12659
0.197228
1.14109
0.0307117
1.15124
1.15167
0.903586
1.22767
1.20173
1.5209
0.324478
0.0998354
1.03165