# vtk DataFile Version 3.0
vtk output
ASCII
DATASET STRUCTURED_GRID
DIMENSIONS 38 38 38
POINTS 54872 float
-80.2044 2.09161 -59.1284
-76.4543 2.09161 -59.1284
-72.7042 2.09161 -59.1284
-68.9542 2.09161 -59.1284
-65.2041 2.09161 -59.1284
-61.454 2.09161 -59.1284
-57.7039 2.09161 -59.1284
-53.9539 2.09161 -59.1284
-50.2038 2.09161 -59.1284
-46.4537 2.09161 -59.1284
-42.7036 2.09161 -59.1284
-38.9536 2.09161 -59.1284
-35.2035 2.09161 -59.1284
-31.4534 2.09161 -59.1284
-27.7033 2.09161 -59.1284
-23.9533 2.09161 -59.1284
-20.2032 2.09161 -59.1284
-16.4531 2.09161 -59.1284
-12.703 2.09161 -59.1284
-8.95296 2.09161 -59.1284
-5.20289 2.09161 -59.1284
-1.45281 2.09161 -59.1284
2.29726 2.09161 -59.1284
6.04734 2.09161 -59.1284
9.79741 2.09161 -59.1284
13.5475 2.09161 -59.1284
17.2976 2.09161 -59.1284
21.0476 2.09161 -59.1284
24.7977 2.09161 -59.1284
28.5478 2.09161 -59.1284
32.2979 2.09161 -59.1284
36.0479 2.09161 -59.1284
39.798 2.09161 -59.1284
43.5481 2.09161 -59.1284
47.2982 2.09161 -59.1284
51.0482 2.09161 -59.1284
54.7983 2.09161 -59.1284
58.5484 2.09161 -59.1284
-80.2044 5.84169 -59.1284
-76.4543 5.84169 -59.1284
-72.7042 5.84169 -59.1284
-68.9542 5.84169 -59.1284
-65.2041 5.84169 -59.1284
-61.454 5.84169 -59.1284
-57.7039 5.84169 -59.1284
-53.9539 5.84169 -59.1284
-50.2038 5.84169 -59.1284
-46.4537 5.84169 -59.1284
-42.7036 5.84169 -59.1284
-38.9536 5.84169 -59.1284
-35.2035 5.84169 -59.1284
-31.4534 5.84169 -59.1284
-27.7033 5.84169 -59.1284
-23.9533 5.84169 -59.1284
-20.2032 5.84169 -59.1284
-16.4531 5.84169 -59.1284
-12.703 5.84169 -59.1284
-8.95296 5.84169 -59.1284
-5.20289 5.84169 -59.1284
-1.45281 5.84169 -59.1284
2.29726 5.84169 -59.1284
6.04734 5.84169 -59.1284
9.79741 5.84169 -59.1284
13.5475 5.84169 -59.1284
17.2976 5.84169 -59.1284
21.0476 5.84169 -59.1284
24.7977 5.84169 -59.1284
28.5478 5.84169 -59.1284
32.2979 5.84169 -59.1284
36.0479 5.84169 -59.1284
39.798 5.84169 -59.1284
43.5481 5.84169 -59.1284
47.2982 5.84169 -59.1284
51.0482 5.84169 -59.1284
54.7983 5.84169 -59.1284
58.5484 5.84169 -59.1284
-80.2044 9.59176 -59.1284
-76.4543 9.59176 -59.1284
-72.7042 9.59176 -59.1284
-68.9542 9.59176 -59.1284
-65.2041 9.59176 -59.1284
-61.454 9.59176 -59.1284
-57.7039 9.59176 -59.1284
-53.9539 9.59176 -59.1284
-50.2038 9.59176 -59.1284
-46.4537 9.59176 -59.1284
-42.7036 9.59176 -59.1284
-38.9536 9.59176 -59.1284
-35.2035 9.59176 -59.1284
-31.4534 9.59176 -59.1284
-27.7033 9.59176 -59.1284
-23.9533 9.59176 -59.1284
-20.2032 9.59176 -59.1284
-16.4531 9.59176 -59.1284
-12.703 9.59176 -59.1284
-8.95296 9.59176 -59.1284
-5.20289 9.59176 -59.1284
-1.45281 9.59176 -59.1284
2.29726 9.59176 -59.1284
6.04734 9.59176 -59.1284
9.79741 9.59176 -59.1284
13.5475 9.59176 -59.1284
17.2976 9.59176 -59.1284
21.0476 9.59176 -59.1284
24.7977 9.59176 -59.1284
28.5478 9.59176 -59.1284
32.2979 9.59176 -59.1284
36.0479 9.59176 -59.1284
39.798 9.59176 -59.1284
43.5481 9.59176 -59.1284
47.2982 9.59176 -59.1284
51.0482 9.59176 -59.1284
54.7983 9.59176 -59.1284
58.5484 9.59176 -59.1284
-80.2044 13.3418 -59.1284
-76.4543 13.3418 -59.1284
-72.7042 13.3418 -59.1284
-68.9542 13.3418 -59.1284
-65.2041 13.3418 -59.1284
-61.454 13.3418 -59.1284
-57.7039 13.3418 -59.1284
-53.9539 13.3418 -59.1284
-50.2038 13.3418 -59.1284
-46.4537 13.3418 -59.1284
-42.7036 13.3418 -59.1284
-38.9536 13.3418 -59.1284
-35.2035 13.3418 -59.1284
-31.4534 13.3418 -59.1284
-27.7033 13.3418 -59.1284
-23.9533 13.3418 -59.1284
-20.2032 13.3418 -59.1284
-16.4531 13.3418 -59.1284
-12.703 13.3418 -59.1284
-8.95296 13.3418 -59.1284
-5.20289 13.3418 -59.1284
-1.45281 13.3418 -59.1284
2.29726 13.3418 -59.1284
6.04734 13.3418 -59.1284
9.79741 13.3418 -59.1284
13.5475 13.3418 -59.1284
17.2976 13.3418 -59.1284
21.0476 13.3418 -59.1284
24.7977 13.3418 -59.1284
28.5478 13.3418 -59.1284
32.2979 13.3418 -59.1284
36.0479 13.3418 -59.1284
39.798 13.3418 -59.1284
43.5481 13.3418 -59.1284
47.2982 13.3418 -59.1284
51.0482 13.3418 -59.1284
54.7983 13.3418 -59.1284
58.5484 13.3418 -59.1284
-80.2044 17.0919 -59.1284
-76.4543 17.0919 -59.1284
-72.7042 17.0919 -59.1284
-68.9542 17.0919 -59.1284
-65.2041 17.0919 -59.1284
-61.454 17.0919 -59.1284
-57.7039 17.0919 -59.1284
-53.9539 17.0919 -59.1284
-50.2038 17.0919 -59.1284
-46.4537 17.0919 -59.1284
-42.7036 17.0919 -59.1284
-38.9536 17.0919 -59.1284
-35.2035 17.0919 -59.1284
-31.4534 17.0919 -59.1284
-27.7033 17.0919 -59.1284
-23.9533 17.0919 -59.1284
-20.2032 17.0919 -59.1284
-16.4531 17.0919 -59.1284
-12.703 17.0919 -59.1284
-8.95296 17.0919 -59.1284
-5.20289 17.0919 -59.1284
-1.45281 17.0919 -59.1284
2.29726 17.0919 -59.1284
6.04734 17.0919 -59.1284
9.79741 17.0919 -59.1284
13.5475 17.0919 -59.1284
17.2976 17.0919 -59.1284
21.0476 17.0919 -59.1284
24.7977 17.0919 -59.1284
28.5478 17.0919 -59.1284
32.2979 17.0919 -59.1284
36.0479 17.0919 -59.1284
39.798 17.0919 -59.1284
43.5481 17.0919 -59.1284
47.2982 17.0919 -59.1284
51.0482 17.0919 -59.1284
54.7983 17.0919 -59.1284
58.5484 17.0919 -59.1284
-80.2044 20.842 -59.1284
-76.4543 20.842 -59.1284
-72.7042 20.842 -59.1284
-68.9542 20.842 -59.1284
-65.2041 20.842 -59.1284
-61.454 20.842 -59.1284
-57.7039 20.842 -59.1284
-53.9539 20.842 -59.1284
-50.2038 20.842 -59.1284
-46.4537 20.842 -59.1284
-42.7036 20.842 -59.1284
-38.9536 20.842 -59.1284
-35.2035 20.842 -59.1284
-31.4534 20.842 -59.1284
-27.7033 20.842 -59.1284
-23.9533 20.842 -59.1284
-20.2032 20.842 -59.1284
-16.4531 20.842 -59.1284
-12.703 20.842 -59.1284
-8.95296 20.842 -59.1284
-5.20289 20.842 -59.1284
-1.45281 20.842 -59.1284
2.29726 20.842 -59.1284
6.04734 20.842 -59.1284
9.79741 20.842 -59.1284
13.5475 20.842 -59.1284
17.2976 20.842 -59.1284
21.0476 20.842 -59.1284
24.7977 20.842 -59.1284
28.5478 20.842 -59.1284
32.2979 20.842 -59.1284
36.0479 20.842 -59.1284
39.798 20.842 -59.1284
43.5481 20.842 -59.1284
47.2982 20.842 -59.1284
51.0482 20.842 -59.1284
54.7983 20.842 -59.1284
58.5484 20.842 -59.1284
-80.2044 24.5921 -59.1284
-76.4543 24.5921 -59.1284
-72.7042 24.5921 -59.1284
-68.9542 24.5921 -59.1284
-65.2041 24.5921 -59.1284
-61.454 24.5921 -59.1284
-57.7039 24.5921 -59.1284
-53.9539 24.5921 -59.1284
-50.2038 24.5921 -59.1284
-46.4537 24.5921 -59.1284
-42.7036 24.5921 -59.1284
-38.9536 24.5921 -59.1284
-35.2035 24.5921 -59.1284
-31.4534 24.5921 -59.1284
-27.7033 24.5921 -59.1284
-23.9533 24.5921 -59.1284
-20.2032 24.5921 -59.1284
-16.4531 24.5921 -59.1284
-12.703 24.5921 -59.1284
-8.95296 24.5921 -59.1284
-5.20289 24.5921 -59.1284
-1.45281 24.5921 -59.1284
2.29726 24.5921 -59.1284
6.04734 24.5921 -59.1284
9.79741 24.5921 -59.1284
13.5475 24.5921 -59.1284
17.2976 24.5921 -59.1284
21.0476 24.5921 -59.1284
24.7977 24.5921 -59.1284
28.5478 24.5921 -59.1284
32.2979 24.5921 -59.1284
36.0479 24.5921 -59.1284
39.798 24.5921 -59.1284
43.5481 24.5921 -59.1284
47.2982 24.5921 -59.1284
51.0482 24.5921 -59.1284
54.7983 24.5921 -59.1284
58.5484 24.5921 -59.1284
-80.2044 28.3421 -59.1284
-76.4543 28.3421 -59.1284
-72.7042 28.3421 -59.1284
-68.9542 28.3421 -59.1284
-65.2041 28.3421 -59.1284
-61.454 28.3421 -59.1284
-57.7039 28.3421 -59.1284
-53.9539 28.3421 -59.1284
-50.2038 28.3421 -59.1284
-46.4537 28.3421 -59.1284
-42.7036 28.3421 -59.1284
-38.9536 28.3421 -59.1284
-35.2035 28.3421 -59.1284
-31.4534 28.3421 -59.1284
-27.7033 28.3421 -59.1284
-23.9533 28.3421 -59.1284
-20.2032 28.3421 -59.1284
-16.4531 28.3421 -59.1284
-12.703 28.3421 -59.1284
-8.95296 28.3421 -59.1284
-5.20289 28.3421 -59.1284
-1.45281 28.3421 -59.1284
2.29726 28.3421 -59.1284
6.04734 28.3421 -59.1284
9.79741 28.3421 -59.1284
13.5475 28.3421 -59.1284
17.2976 28.3421 -59.1284
21.0476 28.3421 -59.1284
24.7977 28.3421 -59.1284
28.5478 28.3421 -59.1284
32.2979 28.3421 -59.1284
36.0479 28.3421 -59.1284
39.798 28.3421 -59.1284
43.5481 28.3421 -59.1284
47.2982 28.3421 -59.1284
51.0482 28.3421 -59.1284
54.7983 28.3421 -59.1284
58.5484 28.3421 -59.1284
-80.2044 32.0922 -59.1284
-76.4543 32.0922 -59.1284
-72.7042 32.0922 -59.1284
-68.9542 32.0922 -59.1284
-65.2041 32.0922 -59.1284
-61.454 32.0922 -59.1284
-57.7039 32.0922 -59.1284
-53.9539 32.0922 -59.1284
-50.2038 32.0922 -59.1284
-46.4537 32.0922 -59.1284
-42.7036 32.0922 -59.1284
-38.9536 32.0922 -59.1284
-35.2035 32.0922 -59.1284
-31.4534 32.0922 -59.1284
-27.7033 32.0922 -59.1284
-23.9533 32.0922 -59.1284
-20.2032 32.0922 -59.1284
-16.4531 32.0922 -59.1284
-12.703 32.0922 -59.1284
-8.95296 32.0922 -59.1284
-5.20289 32.0922 -59.1284
-1.45281 32.0922 -59.1284
2.29726 32.0922 -59.1284
6.04734 32.0922 -59.1284
9.79741 32.0922 -59.1284
13.5475 32.0922 -59.1284
17.2976 32.0922 -59.1284
21.0476 32.0922 -59.1284
24.7977 32.0922 -59.1284
28.5478 32.0922 -59.1284
32.2979 32.0922 -59.1284
36.0479 32.0922 -59.1284
39.798 32.0922 -59.1284
43.5481 32.0922 -59.1284
47.2982 32.0922 -59.1284
51.0482 32.0922 -59.1284
54.7983 32.0922 -59.1284
58.5484 32.0922 -59.1284
-80.2044 35.8423 -59.1284
-76.4543 35.8423 -59.1284
-72.7042 35.8423 -59.1284
-68.9542 35.8423 -59.1284
-65.2041 35.8423 -59.1284
-61.454 35.8423 -59.1284
-57.7039 35.8423 -59.1284
-53.9539 35.8423 -59.1284
-50.2038 35.8423 -59.1284
-46.4537 35.8423 -59.1284
-42.7036 35.8423 -59.1284
-38.9536 35.8423 -59.1284
-35.2035 35.8423 -59.1284
-31.4534 35.8423 -59.1284
-27.7033 35.8423 -59.1284
-23.9533 35.8423 -59.1284
-20.2032 35.8423 -59.1284
-16.4531 35.8423 -59.1284
-12.703 35.8423 -59.1284
-8.95296 35.8423 -59.1284
-5.20289 35.8423 -59.1284
-1.45281 35.8423 -59.1284
2.29726 35.8423 -59.1284
6.04734 35.8423 -59.1284
9.79741 35.8423 -59.1284
13.5475 35.8423 -59.1284
17.2976 35.8423 -59.1284
21.0476 35.8423 -59.1284
24.7977 35.8423 -59.1284
28.5478 35.8423 -59.1284
32.2979 35.8423 -59.1284
36.0479 35.8423 -59.1284
39.798 35.8423 -59.1284
43.5481 35.8423 -59.1284
47.2982 35.8423 -59.1284
51.0482 35.8423 -59.1284
54.7983 35.8423 -59.1284
58.5484 35.8423 -59.1284
-80.2044 39.5924 -59.1284
-76.4543 39.5924 -59.1284
-72.7042 39.5924 -59.1284
-68.9542 39.5924 -59.1284
-65.2041 39.5924 -59.1284
-61.454 39.5924 -59.1284
-57.7039 39.5924 -59.1284
-53.9539 39.5924 -59.1284
-50.2038 39.5924 -59.1284
[...]
POINT_DATA 54872
VECTORS grad float
-0.609685 -0.381071 -0.695032
-0.593493 -0.391547 -0.703177
-0.576825 -0.402512 -0.710815
-0.559344 -0.413894 -0.71821
-0.540601 -0.425551 -0.725711
-0.519875 -0.437386 -0.733774
-0.496407 -0.449298 -0.742773
-0.469438 -0.461226 -0.752926
-0.438249 -0.473081 -0.764285
-0.402383 -0.484773 -0.776584
-0.361716 -0.496054 -0.789362
-0.31647 -0.50663 -0.801981
-0.267094 -0.516173 -0.813773
-0.214408 -0.524261 -0.824124
-0.159455 -0.530507 -0.832548
-0.102879 -0.534698 -0.838757
0.0059165 -0.53764 -0.843154
0.0656358 -0.538068 -0.840342
-0.0352411 -0.5492 -0.834947
-0.0885875 -0.545314 -0.833538
0.00268352 -0.545154 -0.838332
0.0875186 -0.541887 -0.835882
0.108783 -0.539349 -0.835026
0.0892372 -0.542116 -0.835552
0.0983215 -0.541587 -0.834875
0.159042 -0.53792 -0.827857
0.216623 -0.533342 -0.817692
0.269078 -0.52808 -0.805437
0.317486 -0.521983 -0.791667
0.362345 -0.51498 -0.776853
0.403659 -0.507155 -0.761481
0.441152 -0.4986 -0.746179
0.474373 -0.48954 -0.731656
0.502926 -0.480197 -0.718663
0.526608 -0.470715 -0.707893
0.545513 -0.461257 -0.699755
0.560242 -0.451781 -0.694278
0.571796 -0.442341 -0.69093
-0.619901 -0.340495 -0.706956
-0.604343 -0.34974 -0.715857
-0.588209 -0.359699 -0.724311
-0.571174 -0.370282 -0.732565
-0.552731 -0.381206 -0.74106
-0.532206 -0.392378 -0.750197
-0.508866 -0.403709 -0.760312
-0.481826 -0.415141 -0.771688
-0.450399 -0.426545 -0.784347
-0.41408 -0.43782 -0.79803
-0.372651 -0.448779 -0.812237
-0.326298 -0.459127 -0.826277
-0.275462 -0.468494 -0.839425
-0.220969 -0.476488 -0.850959
-0.163935 -0.482666 -0.860325
-0.105363 -0.486817 -0.867126
0.00517 -0.489745 -0.871851
0.0607934 -0.491984 -0.868479
-0.0403236 -0.507144 -0.860918
-0.0879585 -0.502466 -0.860111
0.00477984 -0.500975 -0.865448
0.0906089 -0.497224 -0.862878
0.10968 -0.494195 -0.862405
0.0874129 -0.497386 -0.863114
0.0986628 -0.4963 -0.862526
0.16212 -0.49303 -0.854774
0.220651 -0.489448 -0.843655
0.273956 -0.485402 -0.830261
0.323362 -0.480506 -0.8152
0.369299 -0.474606 -0.798979
0.411621 -0.46771 -0.782186
0.449964 -0.459979 -0.765475
0.483844 -0.45167 -0.749593
0.512874 -0.44299 -0.735337
0.536802 -0.434104 -0.723462
0.555793 -0.425187 -0.71436
0.570475 -0.416249 -0.708022
0.581837 -0.407328 -0.703953
-0.628572 -0.298446 -0.718211
-0.614068 -0.305316 -0.727806
-0.598695 -0.313642 -0.737016
-0.582229 -0.322927 -0.746142
-0.564186 -0.332814 -0.755599
-0.543963 -0.343115 -0.765752
-0.52076 -0.353622 -0.77702
-0.493738 -0.364235 -0.789655
-0.462126 -0.374921 -0.803663
-0.42541 -0.385527 -0.818777
-0.383344 -0.395895 -0.834455
-0.335974 -0.405762 -0.849987
-0.283746 -0.414757 -0.86456
-0.22748 -0.422466 -0.877368
-0.168408 -0.428442 -0.887736
-0.107932 -0.432524 -0.895139
0.00335876 -0.435566 -0.90015
0.0522869 -0.44155 -0.895712
-0.0473908 -0.462625 -0.885286
-0.0859329 -0.456629 -0.885497
0.00793198 -0.452979 -0.891486
0.0944495 -0.448446 -0.888806
0.110687 -0.444513 -0.888908
0.0857065 -0.447809 -0.890012
0.0992872 -0.445521 -0.889749
0.16446 -0.442891 -0.881363
0.223449 -0.440853 -0.869321
0.277517 -0.438593 -0.854764
0.328007 -0.435364 -0.838373
0.375139 -0.430933 -0.820712
0.418617 -0.425273 -0.802435
0.457948 -0.418624 -0.784244
0.492596 -0.411198 -0.766985
0.522173 -0.403328 -0.75144
0.546435 -0.395221 -0.738383
0.565549 -0.386991 -0.728281
0.580152 -0.378704 -0.721115
0.591389 -0.370435 -0.716266
-0.634283 -0.257645 -0.728907
-0.621617 -0.259628 -0.739044
-0.607643 -0.264562 -0.74885
-0.592121 -0.271577 -0.758709
-0.574707 -0.279943 -0.768989
-0.554859 -0.288981 -0.780142
-0.531841 -0.298334 -0.792554
-0.504867 -0.307856 -0.806433
-0.473175 -0.317461 -0.821781
-0.436151 -0.327086 -0.838324
-0.393522 -0.336554 -0.855495
-0.345284 -0.345598 -0.872549
-0.291774 -0.353913 -0.888602
-0.233815 -0.361093 -0.902741
-0.172797 -0.366744 -0.914133
-0.110646 -0.370784 -0.922104
-0.00104807 -0.374481 -0.927234
0.0375097 -0.389066 -0.920446
-0.0571939 -0.417938 -0.906674
-0.0815614 -0.409718 -0.908559
0.012894 -0.402591 -0.915289
0.0995307 -0.396799 -0.912494
0.112283 -0.391203 -0.913429
0.0848165 -0.393471 -0.915416
0.100553 -0.388735 -0.915846
0.16564 -0.38706 -0.907054
0.224384 -0.387332 -0.894218
0.279132 -0.387594 -0.878554
0.33092 -0.386645 -0.860812
0.379526 -0.384075 -0.841692
0.4244 -0.379944 -0.821905
0.464931 -0.374563 -0.80221
0.50048 -0.36824 -0.78353
0.53064 -0.36133 -0.766721
0.555269 -0.354137 -0.752505
0.574574 -0.346752 -0.741369
0.589176 -0.339284 -0.73332
0.600289 -0.331732 -0.727741
-0.633385 -0.227938 -0.739505
-0.624389 -0.218535 -0.74992
-0.613434 -0.214889 -0.759949
-0.600024 -0.216537 -0.770119
-0.583796 -0.221906 -0.780986
-0.564497 -0.229126 -0.792997
-0.541776 -0.236929 -0.806438
-0.514923 -0.244947 -0.821496
-0.483197 -0.253081 -0.838135
-0.445987 -0.261256 -0.856062
-0.402896 -0.269374 -0.874707
-0.353878 -0.277192 -0.893272
-0.299262 -0.284412 -0.910797
-0.239846 -0.290749 -0.92625
-0.177218 -0.295972 -0.938613
-0.114081 -0.300662 -0.946883
-0.0118979 -0.307247 -0.951555
0.0120173 -0.3427 -0.939368
-0.0700103 -0.377969 -0.923167
-0.0734532 -0.366196 -0.927634
0.0207133 -0.35379 -0.935096
0.106665 -0.346176 -0.932086
0.115894 -0.337653 -0.934109
0.0864755 -0.335654 -0.938008
0.103151 -0.325838 -0.939781
0.165072 -0.325325 -0.931083
0.2226 -0.329043 -0.917704
0.278078 -0.3328 -0.901064
0.331568 -0.334718 -0.882058
0.382111 -0.334371 -0.861503
0.428727 -0.331995 -0.840222
0.470643 -0.328051 -0.819071
0.507261 -0.323023 -0.798963
0.538134 -0.317236 -0.78088
0.563191 -0.311061 -0.765543
0.582704 -0.304656 -0.753419
0.597342 -0.298144 -0.744509
0.608378 -0.291473 -0.738187
-0.618019 -0.23216 -0.751102
-0.614884 -0.203055 -0.762028
-0.610687 -0.178015 -0.771603
-0.603011 -0.161997 -0.781111
-0.59035 -0.157419 -0.791648
-0.572454 -0.161495 -0.803876
-0.550133 -0.167254 -0.818156
-0.523444 -0.173201 -0.834271
-0.491743 -0.179301 -0.85208
-0.454415 -0.185465 -0.871269
-0.411021 -0.191592 -0.891266
-0.361426 -0.197559 -0.911231
-0.305921 -0.203165 -0.930127
-0.245428 -0.208235 -0.946786
-0.182275 -0.213296 -0.959834
-0.120732 -0.222596 -0.967406
-0.0399862 -0.243288 -0.96913
-0.031346 -0.318233 -0.947494
-0.0829029 -0.35036 -0.932939
-0.0596256 -0.333986 -0.94069
0.0327275 -0.315205 -0.948459
0.11695 -0.305697 -0.944919
0.124683 -0.293108 -0.947914
0.0949692 -0.279138 -0.955543
0.108956 -0.258018 -0.959977
0.162029 -0.258252 -0.952393
0.216827 -0.266964 -0.938998
0.273488 -0.275247 -0.921652
0.329511 -0.280453 -0.901537
0.382641 -0.282471 -0.879657
0.431413 -0.281953 -0.856963
0.47499 -0.27953 -0.834415
0.512796 -0.275832 -0.812992
0.544486 -0.271348 -0.793666
0.570037 -0.266338 -0.777253
0.589782 -0.261055 -0.764204
0.604529 -0.255599 -0.754462
0.615549 -0.249984 -0.7474
-0.583141 -0.280873 -0.762271
-0.579967 -0.244079 -0.777215
-0.582626 -0.196125 -0.788722
-0.588089 -0.140569 -0.796487
-0.589429 -0.0851551 -0.803319
-0.579086 -0.0403168 -0.814269
-0.558152 -0.015863 -0.829587
-0.531677 -0.0141627 -0.846829
-0.500063 -0.0170052 -0.865822
-0.46263 -0.0205242 -0.886314
-0.418929 -0.02495 -0.907676
-0.368812 -0.0310416 -0.928986
-0.312573 -0.0406637 -0.949023
-0.251655 -0.0601554 -0.965946
-0.192192 -0.0987626 -0.976375
-0.143874 -0.156148 -0.977199
-0.105195 -0.225834 -0.96847
-0.0952239 -0.32414 -0.941204
-0.088556 -0.33944 -0.93645
-0.0395685 -0.319311 -0.946823
0.0487894 -0.297375 -0.953513
0.130435 -0.287952 -0.94872
0.144447 -0.273407 -0.950991
0.120317 -0.237558 -0.963893
0.122923 -0.192584 -0.973551
0.1561 -0.189173 -0.969457
0.205689 -0.203901 -0.95714
0.264703 -0.21703 -0.939591
0.324572 -0.225285 -0.91864
0.381069 -0.229356 -0.895646
0.432455 -0.230469 -0.871704
0.47791 -0.229492 -0.8479
0.516989 -0.227202 -0.825288
0.54954 -0.22409 -0.804853
0.575648 -0.220416 -0.78743
0.595689 -0.216429 -0.773507
0.610567 -0.21217 -0.763015
0.621621 -0.207663 -0.75529
-0.551839 -0.327312 -0.767034
-0.532548 -0.312434 -0.786624
-0.517041 -0.284318 -0.807361
-0.508571 -0.237858 -0.827514
-0.510525 -0.170573 -0.842775
-0.522955 -0.0878788 -0.847818
-0.537332 -0.00485429 -0.843357
-0.53092 0.0655027 -0.844887
-0.501134 0.111514 -0.858155
-0.464547 0.125659 -0.876588
-0.42438 0.112419 -0.898479
-0.381127 0.0815159 -0.920922
-0.340405 0.0291847 -0.939826
-0.310986 -0.0437225 -0.949408
-0.285877 -0.131346 -0.949222
-0.251898 -0.220386 -0.942326
-0.208819 -0.293511 -0.93287
-0.146471 -0.340624 -0.928721
-0.0801945 -0.334907 -0.938832
-0.0176185 -0.313299 -0.949491
0.063678 -0.294628 -0.953488
0.142335 -0.288136 -0.946952
0.176518 -0.277422 -0.944393
0.175449 -0.230026 -0.957239
0.157744 -0.159947 -0.97444
0.151039 -0.13332 -0.979496
0.189069 -0.146757 -0.970935
0.252195 -0.161414 -0.954119
0.317428 -0.170789 -0.932775
0.377963 -0.175923 -0.908953
0.432117 -0.178189 -0.884038
0.47945 -0.178629 -0.859197
0.519778 -0.177857 -0.835582
0.553183 -0.176297 -0.814191
0.579809 -0.174225 -0.795907
0.600198 -0.171693 -0.781207
0.615348 -0.168676 -0.769997
0.626561 -0.165275 -0.761646
-0.547892 -0.323789 -0.771346
-0.521647 -0.327022 -0.787998
-0.494721 -0.327376 -0.805032
-0.46821 -0.322268 -0.822753
-0.44433 -0.306924 -0.841646
-0.427168 -0.274045 -0.861642
-0.422737 -0.216006 -0.880134
-0.435657 -0.134513 -0.890005
-0.460197 -0.0612519 -0.885702
-0.478494 -0.0203044 -0.877856
-0.476804 -0.0236235 -0.878692
-0.466291 -0.0670539 -0.882086
-0.448797 -0.135144 -0.883356
-0.415429 -0.207542 -0.885633
-0.365426 -0.266466 -0.891885
-0.301959 -0.307528 -0.902357
-0.226997 -0.330756 -0.916009
-0.139226 -0.333141 -0.932541
-0.0602743 -0.31831 -0.946069
0.00131887 -0.296655 -0.954984
0.0729408 -0.280465 -0.957089
0.147575 -0.274616 -0.950162
0.202555 -0.267113 -0.942137
0.237934 -0.240491 -0.941037
0.222475 -0.19674 -0.954881
0.170078 -0.124162 -0.977577
0.177589 -0.104946 -0.978493
0.240749 -0.110651 -0.964259
0.31037 -0.117929 -0.943273
0.374293 -0.123229 -0.919086
0.430723 -0.126648 -0.893553
0.479571 -0.128798 -0.867999
0.520958 -0.130002 -0.843624
0.555062 -0.130438 -0.821518
0.582281 -0.130147 -0.802503
0.60324 -0.129 -0.787058
0.618855 -0.127005 -0.775169
0.630452 -0.124179 -0.766231
-0.553088 -0.288231 -0.781676
-0.525774 -0.293396 -0.798424
-0.496951 -0.298164 -0.814947
-0.467049 -0.302183 -0.830994
-0.437054 -0.304849 -0.846198
-0.409211 -0.305013 -0.85995
-0.388397 -0.300297 -0.871189
-0.383364 -0.287129 -0.877832
-0.403467 -0.263103 -0.876351
-0.445206 -0.23457 -0.864157
-0.483945 -0.219358 -0.84716
-0.495164 -0.228645 -0.838173
-0.475746 -0.247969 -0.843906
-0.433979 -0.266447 -0.860621
-0.377299 -0.280539 -0.882578
-0.30892 -0.290219 -0.905727
-0.228383 -0.295928 -0.927506
-0.129999 -0.296961 -0.945999
-0.0410109 -0.286917 -0.957077
0.0204853 -0.268841 -0.962967
0.0841514 -0.252671 -0.963886
0.15425 -0.244185 -0.957382
0.21047 -0.236966 -0.948446
0.248456 -0.229337 -0.941103
0.273326 -0.217008 -0.937123
0.243561 -0.161473 -0.956349
0.202792 -0.108295 -0.973215
0.239859 -0.089884 -0.966638
0.305699 -0.0860061 -0.948236
0.370334 -0.0865622 -0.924856
0.427888 -0.0884928 -0.899489
0.477673 -0.0908125 -0.873832
0.519896 -0.0930317 -0.849149
0.554854 -0.0946403 -0.826547
0.583039 -0.095125 -0.806856
0.605013 -0.0941397 -0.790631
0.621658 -0.0914802 -0.777929
0.63416 -0.0872563 -0.768263
-0.558362 -0.246717 -0.792062
-0.53076 -0.25086 -0.809545
-0.501516 -0.254695 -0.826809
-0.47093 -0.258177 -0.843546
-0.43981 -0.261119 -0.859293
-0.409995 -0.263282 -0.873262
-0.385672 -0.264173 -0.884008
-0.374958 -0.262645 -0.889058
-0.38833 -0.257018 -0.884953
-0.426876 -0.246483 -0.870071
-0.469584 -0.234118 -0.851281
-0.488984 -0.225754 -0.842573
-0.476309 -0.223677 -0.850352
-0.438073 -0.226024 -0.87006
-0.382278 -0.230221 -0.894909
-0.313173 -0.234637 -0.920254
-0.23059 -0.238561 -0.943354
-0.126538 -0.24157 -0.962098
-0.0295302 -0.241578 -0.969932
0.0357073 -0.22769 -0.973079
0.0963705 -0.212278 -0.972446
0.162478 -0.206137 -0.96494
0.217479 -0.201283 -0.955085
0.257084 -0.195719 -0.946362
0.289016 -0.186489 -0.938984
0.280381 -0.171846 -0.944381
0.247619 -0.122313 -0.961106
0.262937 -0.0870978 -0.960873
0.314336 -0.0720148 -0.946576
0.372795 -0.0672081 -0.925477
0.427682 -0.0671464 -0.901432
0.476375 -0.069053 -0.876526
0.518486 -0.0714583 -0.852095
0.55419 -0.0731772 -0.829167
0.583776 -0.0733025 -0.808599
0.607639 -0.0711119 -0.791023
0.62631 -0.0662101 -0.776757
0.640553 -0.0586248 -0.765673
-0.562445 -0.203556 -0.801387
-0.534488 -0.206306 -0.81961
-0.504819 -0.208579 -0.837647
-0.473664 -0.210366 -0.855212
-0.441765 -0.211535 -0.871835
-0.410734 -0.211922 -0.886784
-0.384303 -0.211174 -0.898731
-0.370103 -0.208428 -0.905307
-0.379261 -0.202203 -0.902926
-0.415765 -0.191282 -0.889129
-0.461179 -0.177696 -0.869332
-0.485762 -0.166602 -0.858067
-0.477165 -0.16077 -0.863983
-0.440969 -0.158935 -0.883338
-0.385819 -0.15909 -0.908754
-0.316661 -0.159927 -0.934959
-0.233852 -0.161391 -0.958784
-0.130419 -0.164866 -0.977655
-0.0253647 -0.176812 -0.983918
0.049611 -0.161325 -0.985654
0.104995 -0.145582 -0.983759
0.164878 -0.151473 -0.974613
0.220944 -0.154257 -0.96301
0.263137 -0.15081 -0.952898
0.29865 -0.142105 -0.943724
0.305657 -0.130553 -0.943149
0.28602 -0.102723 -0.952702
0.2896 -0.0794412 -0.953845
0.326041 -0.0681051 -0.942899
0.376092 -0.0637442 -0.924387
0.427062 -0.0626165 -0.902052
0.47432 -0.0627819 -0.878111
0.516507 -0.0631912 -0.853948
0.553378 -0.0629438 -0.830548
0.584993 -0.061333 -0.808716
0.611548 -0.0576124 -0.789107
0.633311 -0.0512663 -0.772197
0.650667 -0.0418919 -0.758207
-0.56512 -0.159075 -0.809527
-0.536674 -0.160367 -0.82841
-0.506419 -0.161027 -0.847118
-0.474589 -0.160919 -0.865373
-0.441799 -0.159929 -0.882744
-0.40957 -0.15789 -0.898512
-0.381269 -0.154511 -0.91146
-0.364045 -0.149186 -0.919356
-0.369137 -0.140835 -0.918642
-0.402969 -0.128392 -0.906163
-0.44992 -0.11304 -0.885886
-0.478846 -0.0991917 -0.872277
-0.473964 -0.0897682 -0.875957
-0.439743 -0.083968 -0.89419
-0.385327 -0.0800644 -0.9193
-0.316696 -0.0767221 -0.945419
-0.235804 -0.0740594 -0.968975
-0.140996 -0.0737877 -0.987257
-0.0251712 -0.0834685 -0.996192
0.0670121 -0.0725747 -0.995109
0.106317 -0.0711983 -0.99178
0.153901 -0.0887099 -0.984096
0.218282 -0.094256 -0.971323
0.269211 -0.0896299 -0.958901
0.310281 -0.0789005 -0.947365
0.320169 -0.0657318 -0.945077
0.29865 -0.0503807 -0.953032
0.297178 -0.0393796 -0.95401
0.329951 -0.0341641 -0.94338
0.378391 -0.0321907 -0.925086
0.428787 -0.0318007 -0.902846
0.475882 -0.0322859 -0.878916
0.518236 -0.0331527 -0.854595
0.555653 -0.0340003 -0.830719
0.58829 -0.0343118 -0.807922
0.616391 -0.0334938 -0.786728
0.640268 -0.0308269 -0.767532
0.660165 -0.0256674 -0.750682
-0.566498 -0.112234 -0.816384
-0.537367 -0.112226 -0.835848
-0.506273 -0.111382 -0.85515
-0.473418 -0.109415 -0.874016
-0.43942 -0.106082 -0.891996
-0.405707 -0.100917 -0.908415
-0.375453 -0.0932298 -0.922141
-0.355618 -0.0819204 -0.931034
-0.357574 -0.0656498 -0.931574
-0.388973 -0.0447074 -0.920164
-0.436354 -0.024314 -0.899447
-0.468527 -0.0104675 -0.883387
-0.466994 -0.00257927 -0.884257
-0.434785 0.00280446 -0.90053
-0.381006 0.0069382 -0.924546
-0.312402 0.00985306 -0.949899
-0.231988 0.0113727 -0.972652
-0.139978 0.01074 -0.990096
-0.0239664 0.00493871 -0.999701
0.0622271 -0.00566972 -0.998046
0.0892143 -0.0230873 -0.995745
0.141993 -0.0315482 -0.989365
0.220244 -0.029435 -0.975001
0.278878 -0.0208459 -0.9601
0.323717 -0.00933307 -0.946108
0.335812 0.00241919 -0.941926
0.313114 0.0163704 -0.949575
0.305807 0.0264249 -0.951727
0.333054 0.0300373 -0.942429
0.378267 0.0293741 -0.92523
0.426852 0.0261979 -0.903942
0.472953 0.0214337 -0.880827
0.514836 0.0156583 -0.857145
0.552205 0.00925479 -0.833657
0.585257 0.00273673 -0.810844
0.614331 -0.00330358 -0.789041
0.639802 -0.00814748 -0.768497
0.661965 -0.0110007 -0.749454
-0.566967 -0.0564328 -0.821805
-0.537037 -0.0551412 -0.841754
-0.504859 -0.0533041 -0.861554
-0.470541 -0.0507494 -0.880917
-0.434468 -0.0472323 -0.899448
-0.397699 -0.0422384 -0.916543
-0.362882 -0.0348516 -0.931183
-0.336602 -0.0233851 -0.941357
-0.332005 -0.00528682 -0.943263
-0.362866 0.0201098 -0.931624
-0.41864 0.0448133 -0.907046
-0.459984 0.0612399 -0.885813
-0.462262 0.0715406 -0.883853
-0.431054 0.0793196 -0.898833
-0.378756 0.0851057 -0.921575
-0.312521 0.0878423 -0.94584
-0.235069 0.0876423 -0.968019
-0.147484 0.0849132 -0.985413
-0.0415991 0.0792431 -0.995987
0.0391395 0.0552765 -0.997704
0.0803839 0.0480436 -0.995605
0.147324 0.0610715 -0.987201
0.228562 0.0675977 -0.97118
0.288793 0.0710695 -0.95475
0.333066 0.0725753 -0.940106
0.3454 0.0730138 -0.935611
0.322911 0.0751787 -0.943439
0.311484 0.0770649 -0.947121
0.333481 0.0765996 -0.93964
0.374998 0.0739137 -0.924074
0.421234 0.0696175 -0.904276
0.465709 0.0642457 -0.882603
0.506398 0.0581194 -0.860339
0.542992 0.0515496 -0.838154
0.575806 0.0448454 -0.816355
0.605231 0.0383626 -0.795125
0.631733 0.0324836 -0.774505
0.655658 0.0276033 -0.754554
-0.569396 -0.0286224 -0.821565
-0.540559 -0.0370971 -0.840488
-0.509605 -0.0470138 -0.859123
-0.476499 -0.0580672 -0.877255
-0.441308 -0.0697979 -0.894637
-0.404536 -0.0810445 -0.910924
-0.367903 -0.0898034 -0.925517
-0.336471 -0.0922709 -0.937162
-0.32268 -0.0807827 -0.943054
-0.344541 -0.0424129 -0.937813
-0.397205 0.0294983 -0.917256
-0.440955 0.105046 -0.891361
-0.447119 0.126248 -0.88552
-0.419571 0.14202 -0.896544
-0.37116 0.153513 -0.915791
-0.30872 0.160532 -0.937508
-0.234136 0.163723 -0.958319
-0.148187 0.164493 -0.975183
-0.0538005 0.163642 -0.985052
0.0307532 0.14564 -0.98886
0.0946761 0.148805 -0.984324
0.161093 0.162886 -0.973405
0.22936 0.165172 -0.959225
0.282605 0.160409 -0.945729
0.323666 0.151927 -0.933894
0.336107 0.138193 -0.93163
0.316535 0.123554 -0.9405
0.30787 0.114628 -0.944498
0.330617 0.11062 -0.93726
0.371729 0.108166 -0.922018
0.41736 0.105724 -0.90257
0.461403 0.102908 -0.881202
0.501879 0.0997803 -0.859163
0.538465 0.0964553 -0.837109
0.571401 0.0931108 -0.815372
0.601055 0.0898063 -0.794146
0.62783 0.0866745 -0.773509
0.652023 0.0837391 -0.753561
-0.615895 -0.15935 -0.771544
-0.592776 -0.193989 -0.781656
-0.566197 -0.230819 -0.791292
-0.535566 -0.268804 -0.800571
-0.500198 -0.306631 -0.809803
-0.459555 -0.342532 -0.819439
-0.413853 -0.373795 -0.830062
-0.364432 -0.395859 -0.842903
-0.315892 -0.399488 -0.860594
-0.283279 -0.364284 -0.887158
-0.299595 -0.252625 -0.920013
-0.378149 -0.00497834 -0.925732
-0.424653 0.168657 -0.889508
-0.402087 0.208958 -0.891438
-0.358927 0.224954 -0.905852
-0.301265 0.235687 -0.923954
-0.230585 0.242049 -0.942466
-0.147842 0.245261 -0.958118
-0.060994 0.245152 -0.967564
0.0240664 0.234914 -0.971718
0.0976043 0.232918 -0.967586
0.16342 0.234525 -0.958276
0.225319 0.230995 -0.946506
0.27445 0.223863 -0.93518
0.308839 0.214789 -0.926544
0.314044 0.196314 -0.92889
0.297677 0.174429 -0.938596
0.298331 0.160524 -0.940867
0.326944 0.154465 -0.932335
0.369768 0.151525 -0.916685
0.415374 0.149275 -0.897319
0.458949 0.146867 -0.87624
0.498957 0.144147 -0.854554
0.53519 0.141159 -0.832854
0.567873 0.137954 -0.811473
0.597401 0.134575 -0.79057
0.624137 0.131136 -0.770232
0.648416 0.127705 -0.750499
-0.669897 -0.414593 -0.615914
-0.640241 -0.454376 -0.619382
-0.606137 -0.493171 -0.624003
-0.567398 -0.530471 -0.629809
-0.523938 -0.565656 -0.636806
-0.475395 -0.598178 -0.645122
-0.421375 -0.627214 -0.655016
-0.361294 -0.651452 -0.667141
-0.294137 -0.668751 -0.682829
-0.217137 -0.67447 -0.70565
-0.080157 -0.657188 -0.749453
-0.0538539 -0.47471 -0.878493
-0.267511 -0.105836 -0.957725
-0.370052 0.200597 -0.907095
-0.343395 0.288036 -0.893933
-0.291048 0.301783 -0.907865
-0.224654 0.310938 -0.923498
-0.146028 0.316513 -0.937281
-0.0651037 0.317763 -0.945932
0.0184444 0.311946 -0.949921
0.0945888 0.307418 -0.946862
0.159019 0.302573 -0.939767
0.217915 0.295332 -0.930211
0.264857 0.286301 -0.920806
0.293785 0.276278 -0.915074
0.292648 0.258698 -0.920561
0.278792 0.237942 -0.930408
0.2871 0.223493 -0.931464
0.320779 0.215337 -0.92235
0.365416 0.209938 -0.906861
0.411362 0.205391 -0.888029
0.454791 0.200978 -0.867625
0.494596 0.196484 -0.846622