# vtk DataFile Version 4.2
vtk output
ASCII
DATASET POLYDATA
POINTS 642 double
-1.52497 4.11465 0.16234
0.35444 5.83374 2.39621
-1.2838 0.53195 -0.000205964
-5211.63 -3649.52 -3359.49
-0.365844 1.21016 1.04366
-1.22584 -0.446958 2.87894
-0.341107 1.38455 -0.853184
-1.42695 2.8677 0.658621
0.557397 1.9168 -0.441248
-478.129 4582.05 6496.65
-4.73892 2.97218 3.41419
-38.6146 31.4202 -53.3513
-1.67627 2.89304 0.442372
3.3739 6.87671 -0.529293
-0.963299 2.81021 0.258687
3.28693 11.2822 3.16709
-0.517283 3.24282 -0.25345
-0.329187 3.59432 -0.570261
-1.19085 2.99698 -0.628026
0.452651 -1.06268 -1.35463
-2.46355 2.21315 -1.92731
99.5909 132.051 -56.6698
0.148659 2.21486 0.68631
-40.0969 140.541 -33.2721
-0.967775 1.60153 0.86509
-166.346 -45.8102 55.3959
-1.45322 1.36605 -0.341113
-9.89458 43.0678 69.5567
-0.591336 2.18955 -0.434414
-80.3703 -136.745 -125.892
0.122281 2.40791 -0.245591
-10.535 13.7842 -26.5694
1.03422 1.25115 0.45542
-1634.98 1008.8 -3990.61
0.204765 0.688178 0.801072
23400.9 130.199 2506.55
-0.204791 0.510847 0.0917396
-7.06169 -18.692 -3.23857
0.144856 0.795396 -0.692898
135.565 61.846 214.14
0.793948 1.23113 -0.26837
-96.7409 3.22772 33.0623
-1.34723 2.96825 0.035331
6.00701 -28.8774 22.5094
-1.01432 3.04463 0.0892908
-3.60642 -2.14144 3.56132
-1.4548 2.73492 0.805073
72.3864 29.18 -15.606
-0.791775 2.21091 0.547135
28.2836 -13.1553 6.1865
-0.962923 2.06282 0.272253
51.4866 -60.626 20.8754
-0.809799 3.29744 -0.226215
5.90573 -6.07416 0.590711
0.148652 1.01713 -1.22556
-11.1728 1.51717 -2.60222
-0.463544 2.9558 -0.112081
-0.240655 4.62897 1.40704
-0.679804 3.28286 -0.436818
-1.61526 2.15207 -0.270602
-0.291916 2.98969 -0.34048
-0.371165 4.10843 0.0165828
-0.397476 6.29292 -4.0897
-1.74511 -9.87657 -15.8758
-0.568621 2.97149 -0.39867
11.7939 -15.267 -6.85615
-1.36159 3.1616 -0.453867
-0.0444205 3.59925 -2.86143
-1.1813 3.07274 -1.03879
-1.59724 0.12419 -2.98045
-1.34146 3.00846 -1.16001
1.07352 -1.06985 -2.71703
-2.03047 3.34032 -0.116432
-68.3642 -25.0634 -57.9559
-1.62185 2.6369 -0.246843
38.3906 -39.5322 204.335
-1.86675 2.12277 0.432472
0.852767 -14.093 -7.15136
0.422389 3.38255 -0.0961184
5.7229 -13.6919 -0.734542
-0.0117768 2.45614 0.4485
67.0931 -140.443 15.2953
0.33991 2.33393 0.469075
-896.29 -2501.37 -1862.86
-0.622665 2.16579 0.854369
9.67495 0.634723 8.31291
-1.01969 1.93783 0.668637
-0.994089 18.9133 -14.0051
-0.358476 1.54311 1.04159
73.0645 160.593 -19.5601
-0.364573 1.53813 1.47198
125.755 -125.084 -42.5685
-1.64107 1.78289 0.633381
21.4323 -110.947 48.5973
-1.81262 1.6692 -0.129099
-16.3631 -144.336 -155.865
-1.6079 1.19715 0.00443684
-0.205526 -2.46753 11.2898
-0.531775 -1.736 -9.7783
-29.3358 10.8075 -28.4517
-0.879531 3.43323 0.849503
0.617984 6.75802 3.61581
-0.621805 1.54754 -0.807199
168.075 37.575 35.4797
-0.377245 1.73895 -0.783812
-1.67911 3.12138 3.42327
-1.11083 2.96389 0.522819
7.06424 27.1458 21.513
-1.0647 3.48591 1.75965
-25.4923 157.952 -19.7333
0.912929 2.11461 2.99766
193.899 594.969 58.7172
0.968906 0.723604 0.261145
-261822 -538595 -233811
0.499792 0.558476 0.376351
-7340.93 -7037.21 -2755.14
0.688182 1.33804 0.693479
-55498.2 14742.5 -14766.5
0.241725 1.14155 1.0186
-89702.7 28590.7 -76939.6
-0.0355567 1.34846 1.06504
37785.7 -17806.7 -17207.9
0.227536 0.553301 0.00565796
4009.21 3427.62 2323.37
-0.339222 0.572277 0.909203
-178.426 -1243.69 1468.81
-0.642896 0.554919 0.452814
398.257 1160.45 -1476.82
-0.0684999 0.556023 -0.421139
15310.8 11788.8 -3175.84
-1.06653 0.630059 -0.356252
1003.08 -1582.52 72.4158
-0.138704 1.10655 -0.836163
-267.049 320.62 -148.892
-0.531309 1.1098 -0.77745
-21213.6 7539.2 -27944.5
0.608782 1.29359 -0.311796
-213.751 -27.1036 -14.4415
0.21758 1.24126 -0.707774
252.192 1697.15 450.843
0.538867 1.4086 -0.569713
-17.8328 -17.8879 -22.7761
1.11813 1.178 0.0018182
46.6275 84.0563 -21.1108
0.875729 1.49683 -0.109572
6616.43 -2064.8 -22834.9
1.03582 1.85711 0.272472
1701.59 2963.31 4681.2
0.274636 1.8995 0.873512
78.3226 180.888 424.501
-1.25538 0.849656 0.608046
-5168.31 1815.94 2926.72
-0.938548 1.32918 0.454417
-94.077 55.0243 104.798
-4.61343 0.136691 -0.0181952
105.002 -8.89054 -2.20408
1.15426 -1.04705 -2.90156
-51.3854 14.3321 -142.782
0.347313 1.51076 1.97671
54.9194 -17.4909 -151.306
0.620949 2.17037 -0.137526
-35.8216 36.5905 205.056
-1.26821 3.35177 -0.00408032
-5.09967 23.9018 13.0298
-1.0866 3.12123 -0.103374
-10.0956 -28.1651 58.7493
-1.30333 2.94096 0.256543
-2.47011 -10.7478 -1.71024
-0.983624 2.93879 0.202375
10.0688 -17.0698 -5.72673
-1.10163 2.89584 0.3787
-18.9527 -9.55485 15.34
-1.7003 2.45732 0.924246
43.2741 -3.33855 -99.5802
-1.28787 2.55048 0.793955
-3.2548 -2.73993 -20.654
-1.29013 2.39227 0.888188
30.1382 -162.347 66.0929
-1.66795 2.68773 0.803745
-21.6324 -36.7994 -77.6775
-0.735764 2.16507 0.321327
-6.47972 -3.94217 -7.61967
-0.73895 2.3336 0.470764
-25.1172 22.6466 19.0512
-0.991629 2.61601 0.493236
10.4429 8.78212 21.8938
-1.03925 2.39622 0.639777
6.10105 0.559574 2.82103
-1.1533 2.54406 0.674071
9.00998 36.8834 -45.702
-1.24255 2.71034 0.71555
-26.157 -8.62606 -22.0814
-0.920659 3.25923 -0.0443194
-3.24573 4.48971 -0.338726
-0.505241 2.46744 0.0128916
4.54705 -13.2879 -46.1321
-1.45043 2.76163 0.248443
-38.2808 -24.5181 21.6596
-0.59048 3.18913 -0.16541
3.47654 0.38235 4.6246
-0.1887 1.83336 0.257201
2.03237 -1.03494 -0.512388
0.548461 0.961929 -0.0833728
4.04199 16.0934 14.9387
-0.0156315 2.65907 0.936481
2.80483 6.23554 3.36003
1.17843 3.68387 2.14554
4.63255 4.30452 8.34529
0.238816 5.52078 2.20311
-2.67491 2.66409 5.21279
-0.371326 3.06518 -0.144724
0.485942 7.88502 3.84302
-0.0830857 4.51806 0.707516
-1.62474 2.59997 -1.28392
-0.640585 2.85425 -0.666155
3.63703 48.1552 25.8509
-2.66579 4.7904 -3.93879
-19.9315 4.46024 -39.8405
-1.01446 3.14233 -0.216298
-2.01915 3.20525 1.00945
-0.612729 3.56557 -0.205169
-0.925393 4.86144 -0.266518
-1.21514 2.79762 -0.620008
-1.28126 3.56152 0.828886
-1.21289 3.69502 1.4743
0.862878 4.05841 1.26673
-0.341991 3.05507 -0.303098
-0.48918 3.58412 -0.494091
-0.533193 3.4717 -0.437846
-0.304503 3.80746 -0.571134
-1.12294 3.26853 -0.399018
-0.561426 3.48165 -0.181438
-1.34295 2.90123 0.314727
-2.56986 1.11134 4.04438
-1.40577 2.38834 1.20023
-0.943982 3.96814 3.15016
-1.34669 2.79519 3.3257
3.67475 39.2784 -35.5151
-0.432825 3.07636 -0.473573
1.17396 24.0438 19.7068
-0.368727 3.14203 -0.647759
0.0122725 5.7587 0.912585
-0.372816 3.37182 -0.602442
-13.7522 7.40607 -16.6817
-1.24185 3.1157 -0.551179
0.00144896 10.3918 1.14255
-1.21099 3.20357 -0.850447
-0.606065 0.604845 -1.56358
-2.76171 3.30105 -1.2753
-0.743253 0.284177 -2.04287
0.49227 -1.33883 -2.57119
-0.950916 3.17383 -0.606467
-0.228309 4.414 -3.10505
1.72309 -3.55909 -1.36068
-1.17267 2.88759 -0.796661
0.247326 -0.197196 -1.65006
-1.19228 2.96194 -0.76333
90.8525 14.7067 -0.99459
-0.827441 2.20033 -1.10058
0.598713 -1.02162 -2.6544
-0.54214 2.18972 -1.16471
2.24648 -4.28389 -3.47095
0.708275 -1.00057 -2.46329
-0.927779 -0.219797 -2.6999
0.375986 -0.952189 -1.32473
-0.100623 0.958934 -1.75445
-1.30046 2.97364 -1.09091
-3.50099 1.38851 43.8197
1.73359 -3.58068 -1.36144
2.35736 -4.44873 -3.52222
-1.37272 3.10393 -0.21015
-5.85813 4.41347 -2.79141
-1.51228 3.09769 -0.287388
-1.65559 4.40971 -0.344508
-1.67283 2.92902 0.168826
-14.4602 5.56773 13.6684
-2.33152 2.55837 0.0620163
90.8539 -141.156 10.2044
-1.58933 2.4516 -0.257055
-133.842 -15.0379 202.612
-1.48846 2.6902 -0.448047
-6.1954 3.07983 -3.89016
-1.95205 2.47177 0.271584
40.1819 41.163 42.1081
-1.84739 2.80186 0.334922
-144.971 -4.24357 -35.7712
-1.84735 2.14168 0.226238
91.8398 67.5627 -128.926
-1.82651 2.3674 0.105624
-13.0363 5.77814 -3.45692
-1.74934 2.53571 -0.0886055
24.0101 -92.157 -32.5234
-0.581227 6.52608 -0.048824
-0.204383 5.33218 0.829101
-0.126957 2.45903 0.169381
1.62 13.5435 -2.05333
0.17332 2.45966 0.103348
12.7658 9.03157 -2.73049
0.236545 2.42572 0.221983
6.46802 4.65541 16.2916
-0.257975 2.38302 0.49623
0.414414 -2.53847 -0.261826
-0.091391 2.39937 0.559749
8.13751 -6.40451 -3.22553
-0.224385 2.45537 0.378027
3.14382 -3.93497 8.76278
0.706379 2.00261 0.493071
891.01 17.5282 -587.519
0.626999 1.96715 0.633997
-0.371269 -58.878 -14.3225
0.522492 2.25581 0.444341
14.1979 27.6206 -6.64264
0.315131 2.13603 0.679444
113.925 -52.5817 379.727
0.245569 2.28998 0.602186
8.54848 -0.548958 7.95509
0.185235 2.39916 0.479428
2.20613 -0.80097 3.30516
-0.721345 2.24145 0.559399
3.34482 -6.64461 -2.10505
-1.02719 2.26595 0.689359
5.46933 4.37347 6.68065
-0.462312 2.05249 0.720819
-8.13988 9.21309 15.6337
-0.640846 1.9969 0.715035
-1.20948 -18.8768 14.578
-1.43422 2.06633 0.976488
2.93395 12.2284 17.2606
-0.552407 3.94412 -0.0488393
34.0293 -3.75576 0.0158653
-1.26767 2.2063 0.90771
31.6521 20.5591 -2.81439
-0.361969 1.33924 1.04352
200.293 -62.6254 2.09331
-0.466699 1.2611 0.969662
8.95959 -75.2085 -52.0211
-0.672647 1.67948 0.879228
376.651 -286.218 291.987
-0.814276 1.46149 0.796525
105.6 18.166 227.468
-0.876675 1.69136 0.796548
-7.39321 -9.40205 32.9147
-0.950372 1.93489 0.71905
3.56123 16.4532 -1.71805
-3.7381 2.16376 0.0319136
-59.588 1.80672 35.2576
-1.77041 1.94075 0.132397
-54.0033 -65.6938 17.5924
-1.67382 1.49214 0.593146
-30.504 40.8531 -150.953
-1.71141 1.46587 0.354724
-5.29631 -48.5412 4.25804
-1.4772 2.01463 -0.34856
82.6869 0.787609 -1.40635
-1.56922 1.76217 -0.353319
-74.7718 156.948 91.5263
-1.6611 1.96439 -0.222005
-176.809 -20.7903 -43.3201
-1.43499 0.611643 0.149795
2.05285 -1.82347 8.12079
-1.4347 0.662636 -0.150567
14.4761 -8.351 15.2581
-1.40781 1.04054 0.0819846
48.8587 120.681 99.652
-1.31822 1.15235 -0.218961
4.56441 29.3562 -5.32386
-1.5683 1.2209 -0.219776
31.1057 -82.5168 217.275
-1.67337 1.47838 -0.0925069
25.1145 150.869 -14.9804
0.135711 2.09412 -1.80462
-4.17717 1.59489 3.01792
4.13882 3.76587 -8.77137
10.845 4.94516 -20.9715
-1.04273 1.9573 -0.564469
22.6572 -4.95075 -28.6761
-0.918182 2.24093 -0.441448
-1.34376 3.04477 0.672699
-0.611566 3.30358 -0.459817
-4.81246 -1.14642 -0.332959
-0.337387 4.77915 2.0516
[...]
POINT_DATA 642
SCALARS Mean_Curvature double 1
LOOKUP_TABLE default
-4.3507
-23.3788
4.18683
-0.0435948
9.21695
5.48049
-3.14961
-3.02754
0.205242
0.0361231
-12.4393
-3.24477
3.46481
3.51543
-6.24881
4.36607
3.32283
2.39163
-7.96509
-38.3039
3.8243
-1.23505
-1.36735
-1.37401
1.23557
-0.518082
2.56388
-2.00902
-8.08417
2.32443
2.79339
10.8444
0.00288278
0.204801
0.0360495
-0.0201397
0.109936
-0.902926
0.865009
0.547746
0.00799994
-0.163401
-4.35122
4.7002
0.979707
0.646256
1.75926
2.30091
-2.04459
2.6555
-2.57744
-4.41334
6.16931
-9.04656
1.28212
-11.8462
5.8617
-8.99117
3.58099
-4.01296
18.0217
-0.056112
0.405834
6.19969
5.99499
15.7919
5.87253
3.95108
3.45833
6.24902
-17.0805
1.517
-2.62947
2.15656
-5.94457
1.41005
0.138224
-3.38235
0.461118
3.38534
9.51774
-2.50841
0.137924
0.11762
0.633729
7.72426
-0.088185
-1.68886
-0.143992
-0.825438
-0.0688311
-1.22269
0.848441
2.85
-0.573924
-0.880344
1.91161
-1.40253
-3.49007
2.77336
-2.60299
-5.36749
1.44601
-1.86542
6.56172
-7.22083
0.468989
-1.1118
0.293454
0.755849
-0.926342
-0.251594
0.0566767
-0.00645864
-0.0346341
-0.0521558
0.00133626
0.023449
1.6798
-0.0136232
-0.0603237
0.0125552
2.46505
0.000828978
0.0992296
0.180866
-0.0718645
-0.0953756
0.0960104
0.0426846
-1.27656
0.200179
-1.95195
-0.722536
0.98628
-0.0325632
1.48216
0.541689
-0.0984238
-0.141279
-0.00228878
1.73666
0.05806
-0.401726
0.0226708
-0.0192961
6.7608
0.164343
0.303198
0.391262
-0.0122024
0.0560938
-0.0228919
1.39525
-2.63833
2.71816
2.29489
0.683525
0.00833664
-0.880838
-1.07306
-3.2981
-0.354357
6.2016
0.970403
7.3067
6.50909
-5.14324
-0.786133
-7.0843
4.17273
2.74771
-3.56968
-1.7517
3.11397
-6.83031
6.03129
3.35071
-3.64491
2.95341
-1.17827
-10.3478
-1.27061
7.90337
-5.45812
7.50707
-1.61308
5.29468
-5.05549
-10.0546
4.59259
2.51368
7.41398
2.64681
2.7596
-2.8669
0.0175954
6.13037
4.50707
-3.11725
-1.40569
-5.73557
-0.704921
12.7143
-5.1152
0.344535
3.94955
16.2565
-15.9169
4.98366
14.5657
16.4853
-0.958954
-18.1432
-3.68966
-3.77354
1.57939
-4.79699
0.625685
-1.68164
0.299966
3.42816
16.5815
0.523696
-2.32239
1.25028
12.3022
-1.84849
0.274099
4.08033
13.3809
-0.0380552
-2.61362
-5.07839
0.237983
-3.81396
-1.15165
-7.0224
5.6366
-6.63131
10.0177
3.33361
10.4465
9.99077
12.572
10.9096
-4.23465
16.7365
1.67915
2.96874
3.15344
-5.33461
-3.91625
49.5109
42.8239
10.8924
-6.71927
-4.13466
-0.840339
-0.134691
-3.05646
-22.3444
1.73214
1.13655
-1.20554
-6.49344
-12.4567
-2.20564
-5.38519
77.8026
-0.995259
4.18607
9.65177
0.59228
3.58363
-3.44815
-1.90461
-1.81548
0.4592
-1.53271
7.93405
4.50189
-5.63772
-2.35091
-1.37923
-1.11857
-0.186262
1.63247
2.17274
2.47842
0.234562
4.83966
-2.31949
-3.73697
-6.59172
4.21994
0.976902
0.120922
-6.00144
7.32147
7.05633
6.94904
-1.06757
4.2326
-14.8481
-8.41967
-0.0400147
-0.795573
0.00382626
-1.98547
-2.01881
-0.843886
-0.149602
-0.337767
-5.03483
-7.60827
5.46851
-1.0099
-3.64094
-11.8154
-4.71871
-9.6317
0.446632
5.97851
4.21102
3.09028
6.70129
1.34722
0.271759
-5.26494
2.10349
-7.45549
5.74042
0.617867
-0.34489
-0.874447
0.492427
-2.06576
-2.47003
0.503711
0.569178
2.62711
-0.445947
-1.38146
-1.21803
2.87569
0.0940794
1.66356
1.36676
3.54949
1.52422
7.91813
1.4239
1.82105
3.74721
2.72839
-1.02161
-0.968727
1.33651
1.27507
0.84856
5.03797
1.72297
-1.33992
7.70508
-2.66856
2.22809
-1.51188
1.59504
-1.31748
-3.24513
0.472914
2.22225
9.37344
-3.18374
5.99123
-3.54225
-4.29282
-3.86434
-10.8368
-5.40644
-1.56536
0.336038
2.9333
4.92944
-7.18105
3.49904
0.934476
-0.33898
2.73001
-1.72213
-4.76031
-0.606649
0.133763
0.125821
3.41184
0.175824
-1.67881
22.2295
-14.7589
-1.76266
-3.10667
-3.66914
-2.88912
-18.0429
-6.87633
-0.634285
2.8354
-0.264462
-5.74277
-1.15459
-0.425615
-0.0126908
-1.03257
-2.89278
-2.84986
-0.215531
-0.476727
1.07275
-2.62631
-0.25656
5.5589
-0.129448
0.0298902
0.0137891
0.00652837
-0.00316397
-0.0174781
5.66714
0.0175187
-0.00158895
-0.0352419
-0.0162421
0.0265548
-2.32497
-0.14463
0.123566
0.0112064
0.00584379
0.00912767
0.158912
0.11993
-1.70316
-0.0126686
0.00593314
0.02866
0.289697
0.0313088
-0.0083197
0.00424335
-0.00608476
-0.00654426
0.100565
-0.146132
-0.0263212
-0.0312467
1.66197
-0.0365583
0.0364098
-0.275589
0.202926
-0.0281198
-0.076518
-0.0252801
0.0164433
-0.0605376
-0.0175376
-0.0827393
0.038834
0.0914453
0.0412324
0.312464
-0.023223
-0.132776
0.0144185
0.0324241
0.0383033
0.0308282
0.0377643
-0.0917201
0.0978307
-0.141227
-0.055778
0.176011
-0.0506852
0.638596
0.154288
-0.421317
0.219346
-0.71605
0.362876
0.141388
0.221904
-0.898453
0.267491
-0.310635
0.242119
-0.513823
-1.46483
2.2295
-0.0578552
0.157807
-0.435891
-0.281016
-0.000377605
-0.16546
0.00594223
-0.0329535
4.81722
-0.0445418
-0.0259002
1.59465
1.42672
0.858816
-0.0805868
0.492309
0.345972
0.17244
-0.0250916
0.630904
0.641439
-0.0622329
0.0882448
-0.0362577
-0.606859
0.559135
2.60466
-0.0398025
-0.0809521
-0.0375831
2.06004
-0.0406544
3.84993
-0.0974648
0.0874088
-0.43565
-0.994796
-0.339236
0.441425
-0.237057
-0.0225005
-0.0281001
-0.0278177
0.0736466
0.0208135
-0.0235026
2.50312
-0.02547
-0.067081
-0.0310085
-0.0190762
-0.0493082
4.75679
0.0615451
0.340019
-0.33752
0.0904487
-0.0546341
-7.16888
0.103224
0.0549264
0.151692
-5.20616
0.391558
3.78185
-3.77523
-0.179073
0.121789
-0.0915839
0.160075
-1.39855
-0.0268926
-8.99372
-0.606415
0.168847
-0.247579
0.530523
0.666978
-0.00475163
-0.021688
-3.08181
-1.70034
-1.02766
-3.14857
2.49099
0.0348777
0.0730929
-0.247968
5.3995
2.6404
0.094888
2.89037
-0.436133
2.55027
-1.21552
1.50773
-2.06404
-0.540437
-0.449127
3.42298
0.405589
1.30449
1.08583
-0.753502
2.83803
-2.26937
-0.808307
-0.451114
-0.147586
-1.11117
1.53658
1.32627
-3.10708
5.09095
-0.925807
0.768063
-0.634285
-7.78906
-1.88104
8.63882
0.456619
1.21495
-1.73369
2.90643
4.37063
-0.496455
0.734444
-0.596917
-0.0161295
-0.240451
-1.0654
0.363898
-0.553482
0.392625
0.497054
-0.876809
3.27266
2.95338
3.19818
-0.368267
1.22696
-0.591694
SCALARS Redistribution_Potential double 1
LOOKUP_TABLE default
-290.364
-4876.3
3868.26
12422.1
6803.22
-3614.78
-1838.49
-4857.44
183.062
4826.02
-4831.8
-4807.82
-4838.73
-4155.34
-4817.21
-4628.92
-4860.15
-4872.3
-4704.29
-4851.54
-4827.28
-4815.86
4201.4
-2746.69
334.301
2399.32
-3954.53
1602.18
-4767.99
-4595.51
-3736.4
-3778.78
21208.7
9150.79
20454.5
9197.66
16339.3
-505.474
13167.9
-2661.91
20043.8
-1187.06
-4489.53
-4841.16
-4563.02
-4641
-4836.99
-4776.76
-4855.53
-4842.59
-4694.97
-4833.24
-4629.21
-3990.14
-4854.65
-4871.09
-4867.87
-4878.99
-4826.96
-4551.7
-4872.46
-4870.04
-4843.93
-4842.58
-4863.99
-4828.45
-4403.59
-4856.82
-4851.57
-4850.93
-4864.01
-4854.03
-4786.98
-4778.5
-4836.47
-4847.35
-4528.88
-3626.75
-3992.32
-1973.38
-2343.44
1279.34
1514.22
4905.8
-2549.28
-2478.53
-2494.36
-914.234
6429.87
1930.06
4499.31
-4686.2
-2657.57
-4736.78
-4395.84
2355.67
-2734.61
-1311.65
-4850.31
-4854.61
-4871.85
-4870.67
-4003.32
-4733.7
-4173.93
-4871.14
-4879.58
-4578.11
-4836.57
-2437.83
-3584.21
-2800.74
20995.8
62020
20167.9
9119.65
10830.8
10306.1
8075.26
14788.6
9735.5
22144.1
18841.8
4878.02
6688.31
6969.86
6481.1
4535.65
15380
17010
2502.47
3096.51
913.717
2464.56
-1209.45
16929.9
20265.5
-3696.04
1548.75
847.065
1484.16
-731.78
20862.5
-124.679
2963.34
12700.7
3685.3
7986.92
7678.44
2419.66
5204.99
3536.83
1950.46
-3140.27
-1186.1
-4346.45
-2597.9
-4577.55
-4367.13
-1068.5
-2438.45
-3015.19
-3504.86
-4644.86
-3730.33
-4862.84
-4731.87
-4815.75
-4702.59
-4823.5
-4825.66
-4613.97
-4778.41
-4806.59
-4705.9
-4814.41
-4222.69
-4816.55
-4829.99
-4846.94
-4773.1
-4831.88
-4693.86
-4841.02
-4851.74
-4857.28
-4476.48
-4802.99
-4760.87
-4844.82
-4837.3
-4852.82
-4474.57
-3467.49
-4795.94
-4780.91
-4790.13
-4771.44
-4832.72
-3757.1
-4803.26
-4824.22
-4822.53
-4456.93
-4858.03
-4848.37
-4857.57
-4866.82
-4878.31
-4855.91
-4869.27
-4867.86
-4839.37
-4870.27
-4862.58
-4857.31
-4862.87
-4858.07
-4129.73
-3476.57
-4847.87
-4741.98
-4678.91
-4483.73
-4585.55
-4848.12
-4873.27
-4871.77
-4873.09
-4874.1
-4871.85
-4868.01
-4840.24
-4762.97
-4833.89
-4670.03
-4712.23
-4821.15
-4869.2
-4847.89
-4868.38
-4862.96
-4870.73
-4837.08
-4394.48
-3412.43
-4790.44
-4706.68
-4742.64
-4792.44
-4822.75
-4856.09
-4854.4
-4845.12
-4852.11
-4851.8
-4848.05
-4832.72
-4860.07
-4853.41
-4859.48
-4844.65
-4852.95
-4847.27
-4852.15
-4856.72
-4866.45
-4845.67
-4845.05
-4844.23
-4257.86
-4788.3
-4612.2
-4682.09
-4810.15
-4793.92
-4846.87
-4834.6
-4835.49
-4788.82
-4854.41
-4838.48
-4728.43
-4820.43
-4829.3
-4748.68
-4665.87
-4808.48
-4767.3
-4818.91
-4809.38
-4844.87
-4550.47
-4664.81
-3920.94
-4003.22
-2880.94
-2675.59
-2248.44
-2695.62
-3438.15
467.205
-2102.69
714.945
-3881.24
-2437.08
3683.89
4782.61
3760.62
-1748.6
1307.11
-211.809
6361.78
6041.93
3522.87
-1838.51
-318.064
-576.252
-4211.58
-2511.68
-3743.01
-4010.21
-90.2779
-3980.07
-281.494
-4175.74
-3973.39
-3294.54
-1985.37
-894.049
-3335.17
-2955.07
6031
2867.85
5562.88
468.471
4319.47
3495.65
3078.23
3611.09
1204.65
-2595.66
-46.7227
-765.717
-4135.45
-4416.79
-4653.33
-4504.61
-646.397
-4105.53
-1532.85
-4754.81
-4745.97
-4732.57
-4586.4
-4544.73
-4683.49
-4645.43
3599.75
-360.525
2752.9
-110.339
-1561.04
2853.64
-2397.76
-2015.83
-3783.96
-4684.7
-3916.89
-4869.85
-4854.63
-4823.87
-4865.27
-4864.16
-4736.87
-4834.24
-4792.05
-4867.95
-4865.48
-4860.37
-4870.89
-4869.06
-4864.85
-4865.17
-3415.3
-3980.64
-2727.92
-4820.08
-4561.57
-4578.94
-4445.98
-4625.9
-4766.53
-4865.24
-4828.2
-4806.48
-4869.56
-4866.91
-4869.14
-4869.9
-4732.11
-4874.82
-4647.92
-4861.01
-4795.78
-4369.69
-4731.76
-4599.23
-4846.62
-4868.04
-1121.83
-2779.58
-651.119
-3771.49
-3277.89
-3634.14
-3234.29
-3697.61
-3622.26
-4856.94
-4452.25
-4556.77
20608.3
22639.1
20387.7
64033.7
21119.7
21395.7
20332.9
20239
20541.1
7772.37
10824.3
6184.69
9520.77
9733.18
8749.98
30288.9
10857.9
41411.2
8281.51
8671.6
9208.1
22033.6
8141.61
15533.1
10063
9508.67
10396.5
78082.1
10798.5
47363.7
19466
18622.8
20386.8
20581.3
18020.4
19511.5
17478.5
5747.29
6769.3
6825.04
6750.27
7502.58
7890.03
13816.2
4728.02
4412.16
4894.7
12199.2
6543.64
8711.45
5971.38
4827.58
6006.97
16517
6516.75
13145
18782.7
19278.8
16113.1
10135.7
13855.1
15745
14332.7
-494.667
4395.07
949.193
3855.66
694.178
4513.59
11267.9
-742.977
-4527.4
-1278.56
5321.28
1190.76
7114.4
272.268
-773.546
1635.59
7798.15
2695.2
8987.22
20217.1
19113.5
13707.6
18140.3
20249
20621
20029.9
-3433.9
-276.836
-3293.64
-5.48591
-2504.92
1837.86
7082.57
1709.5
1359.72
656.582
10762.2
1455.79
10425.2
-629.831
-1725.28
494.978
7286.94
1522.42
11489.2
20665.4
18699.1
20611.7
20863.2
21126.4
-666.806
2280.24
1800.27
2247.2
-370.655
2827.46
9167.92
3774
3887.22
21170.6
15662.2
3634.79
3758.2
3632
11032.4
3470.9
12253.3
7949.61
8772.73
9638.49
7044.13
4013.98
6150.35
6955.58
7762.75
8317.85
8523.14
-1968.39
1334.85
11.5562
1552.64
5354.46
8033.89
7051.28
3652.2
5376.69
7189.42
5409.04
4741.54
4268.4
3963.66
2454.74
3346.85
4139.65
6351.52
-2361.95
2504.51
34.5132
-2465.2
839.657
4890.05
2387.53
3469.94
-2991.28
-1548
-1961.53
-3900.05
-4005.27
2170.12
-2622.54
-1165.22
978.485
24.0848
-4721.83
-4476.14
-4660.34
-4391.11
-4019.61
-3128.2
-2842.63
-3137.61
-1437.7
-2643.98
-1589.64
-3525.8
-3555.37
-3799.39
-4175.9
-4203.72
-3836.18
-3456.81
-4874.3
-3760.89
-4866.51
-4875.13
-4672.33
-3446.5
-4014.27
-3247.14
3617.07
-757.671
3275.57
-59.4172
-1586.01
-1730.07
-3029.17
-3104.41
-1882.62
-1640.27
-4398.08
-3008.61
-3264.04
-4338.32
-3563.53
-4166
-2755.97
-1581.19
SCALARS CoVolArea double 1
LOOKUP_TABLE default
0.0182459
0.0022386
0.340271
935.195
0.244978
0.0362276
0.090049
0.00892163
0.274895
3910.03
0.0505616
0.46274
0.381483
0.0617023
0.0604057
0.0617221
0.0144868
0.00539239
0.0998945
0.00477163
0.0116109
2.86172
0.0573848
2.96266
0.180546
11.2071
0.493791
0.969417
0.0203042
1.68623
0.130712
0.106955
34597.1
230.334
3520.75
14995.1
53.2458
11.304
17.4238
10.2859
1919.19
84.822
0.0691636
0.153393
0.122993
0.0550382
0.158292
0.660729
0.0444218
0.138012
0.0451411
0.420719
0.0501498
0.040082
0.0565207
0.0193621
0.0293392
0.0124295
0.04185
0.0151022
0.0164479
0.0116575
0.0305309
0.0912216
0.0533373
0.0567999
0.0319574
0.00975722
0.236556
0.0240245
0.0233896
0.0356407
0.121709
0.601411
0.153257
2.71635
0.32418
0.159308
0.0176348
0.413279
0.049905
4.25226
0.25533
485.715
0.274974
0.0856587
0.166945
0.443084
2.32172
9.90773
9.00612
2.97814
0.153753
0.986259
0.86614
3.21098
0.353463
2.26728
0.0496988
0.304484
0.0201609
0.0179751
0.312149
1.08028
0.0690105
0.0184754
0.0205007
0.232977
0.0238105
3.31039
0.163805
93.3384
775.981
175131
2064.22
2292.81
18260.6
15698.1
6.47603
40999.2
353.382
11023.8
6.62767
1117.27
729.675
173.191
308.154
394.288
85.9279
2394.8
1.00062
180.018
0.642729
14.5694
0.737653
6908.82
3.40486
12.8919
170.561
319.738
462.662
4.96974
1690.12
31.3183
788.2
10035.5
6.76549
421.857
41.7894
29.7747
728.948
2493.81
2.39914
3.4594
1.0603
0.701972
1.63363
3.65946
0.122645
14.4469
1.80359
2.3532
0.0484196
0.103036
0.0444834
0.22089
0.0713531
0.0891908
0.0681239
0.088385
0.152075
0.185275
0.253322
0.665307
0.0525256
0.0817551
0.08935
1.12011
0.406268
0.613156
0.0382126
0.0350782
0.0340045
0.143647
0.0580884
0.0846863
0.0409903
0.0314188
0.0335489
0.189547
0.11445
0.286603
0.11391
0.026692
0.212644
0.226006
0.0338802
0.209891
0.135553
0.040358
0.042347
0.0350359
0.0415976
0.058163
0.0416747
0.0813084
0.0121929
0.0148323
0.00523381
0.0236324
0.0185008
0.0189709
0.0289812
0.0164662
0.0321694
0.292386
0.0864545
0.197267
0.0266226
0.0262004
0.0175925
0.0229633
0.00886069
0.0189292
0.0271729
0.00840952
0.0168643
0.00852955
0.0106146
0.00906552
0.0165414
0.0147683
0.0128828
0.0416653
0.021955
0.0364141
0.0594746
0.114427
0.0303306
0.102282
0.0539178
0.0310681
0.0420317
0.0620376
0.0200276
0.0319282
0.242587
0.0110266
0.0183952
0.0133129
0.00521362
0.00698756
0.00458922
0.00547646
0.0088149
0.00724468
0.0737478
0.466693
0.0374978
0.0114419
0.0222825
0.00311035
0.00359854
0.0114847
0.0146053
0.0145751
0.0290151
0.40038
0.0452426
0.00816761
0.0396221
0.0375282
0.0370044
0.0537627
0.144799
0.167763
0.172686
1.92779
0.857445
3.32194
0.0376721
0.0401324
0.659206
0.642306
1.33721
2.6491
0.409967
2.10781
1.48681
0.0937703
0.385042
0.466884
0.0187357
0.00770878
0.10631
0.0868697
0.455849
0.079736
0.253078
0.0955119
0.0989209
0.0965272
0.139852
0.337751
0.0338078
0.0614169
259.095
23.8032
1075.92
1.58124
3.54333
5.40684
47.3068
14.0578
0.240147
0.0836434
0.0468618
0.0752352
0.0826319
0.0541189
0.11677
0.0646891
4.01177
0.103084
1.74566
0.122264
0.0548675
0.615466
0.292551
0.490231
0.177496
0.259035
0.281973
7.4978
5.78292
8.3032
9.31904
6.42155
0.717571
12.0891
2.90523
0.523819
1.03161
3.54822
0.480497
0.334598
1.78997
0.808164
0.648075
0.989728
1.30655
0.155977
0.191578
1.00077
0.641807
1.38663
0.877441
3.05149
0.608414
2.38036
2.24656
0.761273
1.05153
2.3791
0.183884
0.769919
0.216697
3.33619
1.1411
2.62406
0.17542
0.16217
0.0217491
0.0681836
0.329275
0.162852
0.906969
0.0114481
0.0133701
0.0230527
0.0185616
0.0216678
0.0141748
0.0108722
0.0241029
0.0499696
0.201149
2.91615
1.0535
1.68194
0.049938
0.160651
0.13577
0.0362182
0.110691
0.786576
0.0258593
0.0161159
0.0183858
0.0291899
0.0656978
0.020035
0.0207764
0.0131805
0.0130571
0.185553
0.165492
0.542001
0.0167137
0.0112363
1.07729
28.7904
34.1276
0.105479
2.32143
1.68527
18.0167
24.8133
0.238685
0.0116923
0.0105507
0.025219
147.303
4115.39
187.113
153767
38397
19166.7
18.9616
22224.1
39590.7
5596.99
2772.88
6791.03
2.10018
341.424
185.654
36634
14326.8
99431.9
1.83384
703.453
1.05823
43483.1
9681.8
7028.28
71.0878
5347.87
2331.02
205892
33599
147509
786.185
550.516
3865.05
4843.14
6.77684
4862.67
2441.42
111.252
29.8859
6292.88
1705.04
11606.6
711.98
2847.65
77.974
573.523
91.5408
680.947
222.333
120.07
1468.73
399.162
1469.95
7154.99
898.842
5297.05
452.629
1011.93
39.5304
142.623
1052.11
477.82
13.5353
1.73751
1.37121
43.0644
20.7429
14.2079
52.0087
178.794
0.287977
1.71028
0.215989
41.7496
12.0472
32.3021
0.544855
2.26043
3.26099
184.831
64.1379
52.0686
1577.54
493.713
2015.28
5246.84
7.37142
3078.38
1660.68
3.4551
1.98422
7.22941
8.57272
20.4641
7.50432
353.037
14.983
34.0583
1.20665
1642.86
517.894
2455.48
2.88451
6.43617
1.17268
3601
521.26
3940.35
3.73864
4114.26
7.91555
1538.63
775.147
29.065
4.05528
65.6241
14.9642
75.986
871.916
5498.61
5053.37
1942.55
6600.41
21406
13.8568
6763.2
897.59
5750.7
2168.1
4298.34
0.508234
672.402
88.7129
42.3839
66.7341
2388.87
1.1869
477.982
499.675
397.663
0.141459
39.3311
2.12727
1.23734
0.674383
560.111
50.8465
200.365
1.65214
8786.53
8.00502
2.7862
3.84973
139.176
29.4829
64.1382
2656.2
14725.5
0.107925
5.14336
0.338761
0.306889
0.124192
5217.87
401.1
206.648
0.122873
2.89629
0.638585
1.18418
1.03845
1.93524
0.0763972
0.478779
1.29002
6.02609
0.514167
0.700705
0.444792
1.20391
0.44606
3.87658
0.392303
1.84017
0.817488
7.12732
0.570073
2.00119
0.509637
1.72077
0.213539
0.540342
8.22826
11.0972
0.0231877
0.124076
0.036853
0.0308377
0.0272195
5.21121
1.32264
0.544044
3.03392
19.0397
3.7736
8.5696
7.92535
91.3569
0.45142
55.7389
20.5742
27.9348
0.0722604
2.44025
0.675371
0.816415
0.490268
10.4108
1.96469
9.47319
SCALARS SignedDistance double 1
LOOKUP_TABLE default
1.1182
1.24615
-0.0407079
8.50097
0.0127476
-1.00017
-0.000344176
1.17661
0.00512763
8.50097
1.06478
-1.01992
-0.115285
1.12097
0.0233594
1.20336
-0.0119543
-1
-0.0142678
-1.01463
-1.07141
1.68313
0.0555255
1.39007
-0.0746452
4.20942
-0.198122
1.2643
0.0471998
1.62525
-0.0932221
1.34416
-0.109557
6.49803
-0.0111969
6.61743
-0.231693
2.30464
0.105061
1.61364
0.0638376
5.44326
0.0682246
-1.2294
-0.0112644
-1.05812
0.00412558
-1.12333
1.1075
1.18997
0.414505
1.26792
-0.0490229
-0.616823
1.22804
0.040527
0.00936762
1.23351
-0.000800449
-0.858741
-0.0147677
-1
1.10546
1.27529
0.0472487
-0.574113
-0.107361
1.11335
0.06106
-1.03013
-0.35646
-1.0028
-0.316693
1.8901
-0.0751674
1.9304
-0.128696
-1.54442
0.582137
-1.61127
-0.0376721
2.38297
-0.0277092
8.50097
0.794317
1.24255
0.755055
-1.18462
-0.000563109
4.00734
0.660387
1.26731
0.0181646
1.45233
-0.21708
1.5931
-0.0269966
1.69714
1.26184
1.68023
1.22103
1.2503
0.0684657
1.79134
0.014872
1.17262
1.18736
1.20536
1.2002
3.27036
-0.811419
6.87099
-0.11838
8.50097
-0.0828854
8.50097
-0.0525858
7.57936
-0.0588809
8.50097
-0.0308165
8.50097
0.00184385
8.50097
0.238808
6.84595
0.00570197
8.50097
-0.0347215
8.50097
-0.0111223
8.05187
0.0254956
2.97633
0.0236712
7.14229
-0.0707586
4.41385
0.00964056
5.16122
-0.0106833
1.78746
-0.0312358
3.88688
0.0606534
8.50097
-0.126508
7.88895
-0.0967317
2.79282
-0.0293859
6.44201
-0.151175
1.47369
1.2054
-1.14634
0.70789
3.34915
-0.914004
4.7726
0.0173266
1.47667
1.04625
1.36437
-0.0439122
-1.18996
-0.0510548
-1.21368
-0.00235794
-1.12504
-0.0208458
-1.0399
0.1094
-1.07948
0.013935
-1.21788
-0.0679504
-1.21431
0.0503531
-1.19802
0.684089
-1.00687
0.0786812
-1.04297
-0.0715328
1.36711
-0.0639666
1.07725
-0.014802
-1.27081
0.000815434
1.35134
-0.0308381
-0.462467
0.257415
1.06307
-1.00114
-1.03021
-0.0427273
0.926034
1.12144
1.13343
1.15815
1.21685
1.19212
1.27983
0.532888
0.210483
1.24192
0.0614356
0.00780619
1.09807
1.23657
1.09494
1.24166
1.90204
1.13428
-1.00573
0.14461
1.09152
-1.0037
-0.999369
-0.188557
1.06916
1.07497
0.968031
-0.101845
-0.945368
-1
-1
-0.572287
-1
1.20011
1.07281
0.912475
1.07509
1.06962
0.288674
0.0686036
-1.00006
-0.228264
-0.83185
-0.121346
1.31302
-0.0723543
1.16124
0.0177231
-1.00971
-1.05176
-1.04722
-1.04025
1.18776
1.1099
-1.00887
-0.0461064
-0.793635
0.00524015
1.17417
1.07764
-1.008
1.10567
-1.01342
-1.03291
-1.03945
-1.01602
-1.01419
-0.294699
-1.00575
-1.00886
-1.01579
-0.137038
-1.00104
-0.018467
-0.458705
-0.0618125
-0.970494
1.07125
1.23471
0.0343703
1.99529
-0.00236263
-1
0.139536
1.54414
0.0201585
2.97916
-0.0216268
1.10119
-0.114396
0.023192
-0.0969981
-1.03567
1.13262
1.13592
-0.00216981
1.15898
0.00524489
1.08872
-0.0639183
1.29357
0.0920459
1.39061
0.0133774
1.35901
-0.0142777
-1.06097
0.13495
2.85973
0.185652
-1.01509
-0.0587152
4.3664
0.00158385
2.33345
-0.00355242
-1.07998
0.03605
-1.00786
0.0127048
-1.02542
0.0474512
1.29847
-0.0510592