# vtk DataFile Version 4.2
vtk output
ASCII
DATASET POLYDATA
POINTS 642 double
-1.11527 3.12463 -0.262252
-0.335877 2.77777 -0.205141
-1.28931 0.535857 -0.00575576
0.674191 0.552027 0.00701736
-0.369849 1.21212 1.04311
-0.618495 2.36946 0.462915
-0.342805 1.37908 -0.852888
-0.861789 2.81 -0.522913
0.561275 1.91593 -0.441521
0.725728 1.86751 0.547448
-1.2456 2.36233 -0.445262
-1.808 2.13629 0.857901
-1.67844 2.91491 0.439031
-1.19198 2.42258 0.797859
-0.944617 2.80698 0.289532
-0.367111 2.61145 0.0768793
-0.481854 3.30584 -0.214606
-0.172721 3.21298 -0.655049
-1.16606 3.00548 -0.669597
-1.22892 2.90844 -0.896662
-1.60092 3.01614 -0.633507
-1.85461 2.158 0.016808
0.146378 2.21404 0.688623
0.39717 2.39215 0.240013
-1.02676 1.61454 0.860599
-0.40958 1.87955 0.839425
-1.45132 1.31366 -0.368032
-1.58498 1.2273 0.478982
-0.592932 2.24252 -0.506574
-0.869452 1.84653 -0.603353
0.132699 2.41333 -0.232409
-0.253736 2.37325 -0.390497
1.03903 1.22373 0.465461
0.338258 1.51438 0.962326
0.200479 0.686594 0.801407
-0.937242 0.657531 0.835006
-0.354594 0.554713 0.000144215
-0.817861 0.789904 -0.671868
0.144232 0.824307 -0.679558
0.17196 1.59042 -0.686644
0.800538 1.23449 -0.266781
0.871359 1.82228 0.0251418
-1.34667 2.95856 0.067872
-1.28109 2.96123 0.483176
-1.00383 3.04093 0.0958977
-1.49091 2.36081 0.964943
-1.45519 2.72963 0.810881
-1.83908 2.56753 0.705235
-0.828531 2.57361 0.384976
-1.11755 2.68096 0.604198
-0.924747 2.39376 0.565356
-0.678581 3.08156 -0.0417544
-0.804935 3.30016 -0.213126
-0.436305 2.4933 0.30273
-0.620843 2.74639 0.122629
-0.325999 3.14471 -0.261797
-0.457193 2.97319 -0.107748
-0.356421 2.73618 -0.107004
-0.650308 3.29104 -0.444586
-1.16286 3.05552 -0.590721
-0.278739 3.01811 -0.366865
-0.288582 3.4052 -0.47369
-1.06011 2.91142 -0.623222
-0.533465 3.16073 -0.522293
-0.531353 2.96973 -0.474064
-1.30185 3.10667 -0.821615
-1.38168 3.14639 -0.434132
-1.10342 2.87305 -0.683102
-1.19298 3.08762 -1.0505
-1.45024 2.73962 -0.684072
-1.43924 2.98063 -1.0214
-1.23925 2.79661 -0.796279
-1.60802 2.90845 -0.0787609
-1.55753 2.21627 -0.275272
-1.60965 2.59689 -0.223927
-1.85076 2.56653 0.249947
-1.85036 2.14462 0.454179
0.0242314 2.46275 0.198057
-0.0550094 2.50003 -0.0230176
-0.172729 2.31646 0.646496
-0.0343839 2.46063 0.451301
0.616683 2.18402 0.410571
0.327447 2.33304 0.472156
0.464187 2.07545 0.678059
-0.881499 2.14044 0.660417
-0.533811 2.1497 0.646663
-1.39094 1.94672 0.780048
-1.18997 2.12462 0.817106
-0.365951 1.55717 1.04337
-0.720765 1.78161 0.796206
-0.639848 1.3597 0.885495
-1.85613 1.69098 0.260644
-1.64367 1.77916 0.631889
-1.43171 1.78524 -0.442155
-1.68555 1.72683 -0.187906
-1.33918 0.830192 0.21779
-1.62233 1.20353 0.00989555
-1.29456 0.870636 -0.11966
-0.994111 2.54025 -0.523727
-1.06265 2.15013 -0.490085
-0.80305 2.66522 -0.498642
-0.960249 2.67691 -0.542901
-0.615665 1.53992 -0.8095
-0.7093 2.12697 -0.536813
-0.390718 1.74401 -0.778161
-0.448135 2.81671 -0.387266
-0.564539 2.70439 -0.438446
-0.245809 2.59886 -0.197423
-0.392888 2.76741 -0.327289
0.188068 2.12151 -0.47864
-0.0822349 2.38604 -0.325036
0.430117 2.19316 -0.334529
0.979073 0.719358 0.249806
0.721701 0.860408 0.633615
0.502755 0.554448 0.395355
0.594429 1.69056 0.777633
0.683891 1.32141 0.701299
0.872051 1.49229 0.470671
-0.138564 0.932597 1.04319
0.29629 1.0873 0.913335
-0.0301211 1.34139 1.07064
-0.0321756 0.569656 0.444779
0.21314 0.554724 0.00396499
-0.583017 0.882006 0.913616
-0.339447 0.555064 0.918116
-0.861568 0.556878 0.00766101
-0.647779 0.554724 0.452911
-1.14991 0.552254 0.4895
-0.0654174 0.554751 -0.417889
0.432982 0.643479 -0.38761
-1.07738 0.634332 -0.355406
-0.648715 0.554807 -0.417934
-0.140833 1.09661 -0.841143
-0.367499 0.765152 -0.689366
-0.533089 1.10331 -0.776683
0.545633 0.993845 -0.471058
0.866478 0.832475 -0.229569
-0.0526832 1.47183 -0.855058
0.206053 1.22765 -0.709349
0.740186 1.54076 -0.363127
0.536358 1.39965 -0.572964
0.409743 1.7396 -0.607081
1.11792 1.16308 0.00896867
0.787641 1.85763 -0.219077
0.870568 1.49855 -0.103414
0.911336 1.44462 0.185301
0.864257 1.84993 0.30974
-0.0267598 1.71929 1.04546
0.268791 1.9071 0.869773
-0.116805 2.02066 0.791509
-1.24428 0.851519 0.617705
-0.922806 1.07139 0.741189
-1.31383 1.39348 0.770537
-0.781965 1.25886 -0.591877
-1.06161 1.05637 -0.372289
-1.17276 1.53662 -0.539742
0.0291271 1.98265 -0.593966
-0.186929 1.82616 -0.697526
-0.434308 2.31685 -0.462988
0.650608 2.1376 0.158543
0.615306 2.18379 -0.132756
0.331148 2.42226 -0.0298494
-1.21254 3.07012 -0.139056
-1.18982 2.9778 0.123541
-1.06351 3.12706 -0.0905143
-1.48934 2.96124 0.487082
-1.32089 2.95804 0.304137
-1.54135 2.95945 0.290392
-0.968889 2.92324 0.203774
-1.14703 2.95868 0.316664
-1.08571 2.88844 0.410285
-1.66526 2.2659 0.954256
-1.68829 2.48198 0.91566
-1.856 2.36197 0.798536
-1.29776 2.55299 0.804716
-1.50708 2.55122 0.915036
-1.30709 2.39719 0.891097
-1.77523 2.75483 0.58276
-1.67401 2.68645 0.814199
-1.6464 2.86515 0.695756
-0.708032 2.44947 0.419655
-0.917808 2.50666 0.495167
-0.741203 2.36664 0.49356
-1.07071 2.75405 0.475359
-0.996635 2.61975 0.482045
-0.923106 2.70835 0.348816
-1.05881 2.40427 0.650688
-1.05281 2.53641 0.591228
-1.16356 2.54783 0.681964
-1.40984 2.88058 0.670818
-1.24991 2.70911 0.717944
-1.18342 2.87247 0.634336
-0.901679 3.26191 -0.0382294
-0.942219 3.23242 -0.251293
-0.811843 2.91604 0.117001
-0.816906 3.08134 0.0514624
-0.62909 3.36674 -0.172555
-0.687336 3.2511 -0.0855452
-0.584217 3.20556 -0.139414
-0.524444 2.43307 0.390049
-0.63336 2.52821 0.322533
-0.499528 2.70295 0.0771333
-0.551145 2.61204 0.204397
-0.379935 2.55065 0.189558
-0.728529 2.65498 0.258488
-0.79221 2.77401 0.205055
-0.335615 2.93775 -0.255927
-0.354766 2.95667 -0.190525
-0.339731 2.7617 -0.171782
-0.467466 3.16674 -0.182856
-0.367571 3.07951 -0.152672
-0.408249 3.23737 -0.267953
-0.360841 2.67623 -0.0280423
-0.399484 2.89703 -0.126671
-0.446783 2.78748 -0.0306894
-0.664673 2.91215 0.0321788
-0.538188 2.85668 -0.00665608
-0.559225 3.0545 -0.0923635
-0.911815 3.15114 -0.36713
-1.1064 3.10416 -0.450681
-0.557459 3.37362 -0.358895
-0.721482 3.37339 -0.390941
-1.17107 3.0244 -0.650882
-0.893155 3.07676 -0.434984
-0.881716 3.03418 -0.461331
-0.331708 2.90965 -0.282707
-0.280378 3.07417 -0.326066
-0.201506 3.35321 -0.588312
-0.20528 3.21589 -0.41393
-0.201942 3.1601 -0.532954
-0.323052 3.23507 -0.34952
-0.366402 3.42653 -0.332577
-0.941283 2.85541 -0.555274
-0.807844 2.90242 -0.486266
-0.743369 2.83866 -0.48152
-0.869693 2.98671 -0.480095
-0.845951 2.94858 -0.485604
-1.16199 2.98738 -0.682332
-0.387119 3.07486 -0.536638
-0.505068 3.09903 -0.509245
-0.349498 3.22055 -0.647035
-0.458974 3.52628 -0.514116
-0.370829 3.39763 -0.647103
-0.582112 3.22009 -0.517334
-1.25117 3.13597 -0.554581
-1.27785 3.12267 -0.393514
-1.1994 3.22766 -0.874521
-1.24518 3.15426 -0.781554
-1.55405 3.16389 -0.523729
-1.38451 3.12012 -0.690138
-1.42548 3.08252 -0.729201
-1.00023 2.83563 -0.59213
-1.09333 2.89121 -0.666249
-1.25829 2.98181 -0.944789
-1.1908 2.95806 -0.845488
-1.19376 2.92531 -0.860949
-1.1879 2.97678 -0.81583
-1.21501 3.09063 -0.940148
-1.29727 2.53898 -0.485948
-1.3242 2.78963 -0.770051
-1.21345 2.54567 -0.513773
-1.42413 3.00582 -0.821566
-1.46314 2.85712 -0.862769
-1.52022 2.8938 -0.69232
-1.23473 2.85576 -0.86724
-1.35491 2.88646 -0.967822
-1.29354 2.87034 -1.12746
-1.26843 3.04837 -0.918108
-1.27792 2.99749 -0.939271
-1.34286 3.0231 -0.896318
-1.37233 3.07377 -0.208127
-1.6019 3.00086 -0.402201
-1.5185 3.08787 -0.271134
-1.50514 2.95896 0.0107587
-1.68098 2.92573 0.198947
-1.37666 2.29585 -0.371717
-1.40946 2.51351 -0.397044
-1.7796 2.38159 -0.123067
-1.58993 2.41722 -0.254726
-1.7569 2.17636 -0.174809
-1.49698 2.67378 -0.439152
-1.58769 2.81872 -0.486315
-1.85053 2.35408 0.57215
-1.85497 2.14439 0.642263
-1.85048 2.791 0.36064
-1.85142 2.56959 0.475399
-1.85053 2.14583 0.239045
-1.91653 2.361 0.351053
-1.85039 2.36062 0.124944
-1.64379 2.77026 -0.185624
-1.76393 2.56961 -0.00926369
-1.82126 2.79135 0.0939909
-0.227419 2.58366 -0.0625164
-0.251947 2.61969 -0.129233
-0.191521 2.51164 0.132358
-0.211954 2.54957 0.0284344
0.190634 2.46082 0.109513
0.0117136 2.4712 0.0987783
0.212279 2.46049 0.230104
-0.380164 2.3189 0.529774
-0.300366 2.40734 0.47288
0.0811771 2.3627 0.61366
-0.100594 2.39851 0.562083
0.0034125 2.27943 0.696566
-0.229739 2.46118 0.375122
-0.191187 2.47685 0.267693
0.705728 2.00495 0.505624
0.555273 2.1251 0.551059
0.644429 1.9697 0.630786
0.400978 2.38479 0.373034
0.486817 2.27763 0.457498
0.507205 2.29133 0.326412
0.317008 2.13462 0.680227
0.44307 2.23234 0.619972
0.24776 2.28955 0.602825
0.0174272 2.46059 0.321997
0.153972 2.41305 0.480381
0.220178 2.46126 0.365259
-0.741012 2.25853 0.565539
-0.582155 2.26325 0.551783
-1.05164 2.27455 0.704749
-0.935135 2.27145 0.627521
-0.480664 2.03874 0.717571
-0.727048 2.1416 0.635374
-0.651705 2.00863 0.712178
-1.57549 2.04652 0.846678
-1.44474 2.11025 0.958687
-1.11101 1.89451 0.765808
-1.27588 2.04115 0.822035
-1.20117 1.77693 0.796134
-1.28006 2.21736 0.932253
-1.20124 2.27113 0.855045
-0.363308 1.34277 1.04322
-0.543811 1.44621 1.04702
-0.481654 1.26102 0.967585
-0.562303 1.82002 0.80783
-0.53947 1.66138 0.930632
-0.380917 1.76558 0.978087
-0.824169 1.47063 0.807621
-0.666834 1.55128 0.863117
-0.879264 1.69936 0.797409
-1.04792 2.13861 0.722741
-0.975956 1.95069 0.728824
-0.824127 1.99139 0.714271
-1.72255 1.96189 0.532136
-1.66703 1.97926 0.698101
-1.76848 1.94251 0.14725
-1.76628 1.94163 0.33177
-1.67518 1.49445 0.593951
-1.75134 1.70149 0.451261
-1.71226 1.46802 0.363181
-1.31594 2.05785 -0.416202
-1.48736 2.00479 -0.353705
-1.62019 1.49962 -0.298061
-1.57971 1.75341 -0.348578
-1.49709 1.52673 -0.436493
-1.6327 1.96891 -0.239193
-1.68837 1.95591 -0.0600148
-1.43806 0.603217 0.139202
-1.34244 0.842092 0.015554
-1.43829 0.645275 -0.149325
-1.62589 1.20003 0.2388
-1.42401 1.07064 0.122479
-1.41488 1.07237 0.354442
-1.34683 1.12531 -0.210681
-1.42439 1.0742 -0.0737147
-1.57924 1.22866 -0.214314
-1.77743 1.70098 0.0231592
-1.68558 1.4678 -0.0981695
[...]
POINT_DATA 642
SCALARS Mean_Curvature double 1
LOOKUP_TABLE default
-0.656509
0.119343
2.67174
5.10872
5.9339
-0.802355
-0.0140635
0.155181
3.30375
-2.2334
-0.596415
8.21511
3.35276
2.5573
-0.83948
-0.461669
6.97542
14.3159
0.157763
2.35912
8.01609
4.49851
2.25635
1.92557
5.39034
0.219018
3.35155
3.98902
0.00318438
1.45364
2.07477
0.0638411
7.38139
1.64437
2.21116
6.00522
0.253757
6.50157
3.04618
-3.1314
-1.2045
1.87238
-2.09583
3.92621
2.35135
3.36481
3.36896
4.16346
-0.783423
1.43556
-0.3224
-1.53862
2.07329
-0.686993
-0.341028
4.60962
-0.279365
0.0204993
1.30186
0.220181
9.07749
4.68189
0.160282
0.226137
-0.576541
1.96788
2.37653
-0.212149
16.2817
6.06031
15.5105
6.21558
1.88785
-0.429782
-0.922239
0.332369
1.4816
-0.849623
-1.07434
4.13017
4.59085
4.75356
-1.51812
3.11544
-1.25031
0.0937789
-1.58163
1.06401
1.95826
-0.138965
-1.15272
5.56666
2.05801
2.80791
1.75748
-1.01745
2.94302
-1.52564
0.0252653
-0.6696
0.016013
0.068284
3.4265
-0.210205
1.06616
0.550878
0.535518
-0.231431
0.665552
2.6307
-0.796889
4.81787
3.53805
3.36555
3.1
1.2623
1.29779
3.94256
4.3836
-0.747347
1.86468
-0.80811
-0.0143147
-1.03796
5.74973
-1.55579
0.00953454
2.09077
1.72879
2.49819
4.34579
-0.0771784
3.38602
0.208218
2.05137
-1.46011
4.46646
4.06997
-1.63157
1.26971
0.998517
4.00157
4.36293
2.31105
-0.95781
-1.54501
2.6629
4.97215
4.50942
0.0854799
3.32875
-1.62815
3.76435
-1.62289
-1.39797
2.83801
2.74025
-1.09059
0.0638408
-0.310141
5.52339
1.44675
-1.10159
-1.7402
0.503955
3.12447
-0.364025
1.5976
0.0300262
3.75969
4.10798
4.37314
4.19043
5.07687
0.471215
3.74746
2.4304
1.85221
3.80916
6.22053
-0.713419
-0.319382
-0.887314
-1.64498
-1.11114
-0.917668
-1.46224
-0.126573
-1.57746
3.17873
1.90793
7.80577
8.01668
4.81616
-1.12858
3.25086
9.15688
5.45067
-1.30982
-0.716374
-0.754225
-0.827966
-0.523423
-0.623368
-0.762114
-0.670214
-0.255356
3.80933
0.597331
-1.48858
12.3228
-2.02771
-0.296095
2.26506
-0.0357844
-0.880665
-0.201699
-0.571926
-0.241893
-0.06534
0.596195
9.3675
0.61521
0.115961
0.332905
-0.722268
5.10489
10.1357
9.64605
4.81221
-3.13458
9.72299
-0.178496
0.422581
0.388453
0.492747
0.464405
-0.288088
3.23337
-0.824288
7.24934
9.67527
8.91153
4.00995
4.44532
-0.201098
14.5989
8.29063
9.47355
2.67926
2.94128
0.146951
-0.0435203
4.42692
7.92584
13.8112
0.821085
9.15977
-0.233897
-0.938633
0.00143711
3.3128
9.84389
0.399314
12.5399
1.32146
14.3788
0.871958
1.60054
0.677504
0.371777
3.24577
6.15468
1.23264
3.21628
-0.992817
-0.758806
3.7835
0.337262
4.48681
-1.55192
4.17688
-1.02934
4.07989
5.29619
0.581336
1.09295
4.42547
0.693689
1.31656
-0.351618
5.36767
-0.461051
-0.249418
-0.871878
-0.646813
1.66181
-1.27964
2.09909
-1.54568
2.18227
4.66443
2.66689
5.54561
1.66381
-1.08605
2.77339
-0.103803
4.94239
6.05568
3.10269
1.471
-0.255075
7.52933
2.33647
0.247071
1.67657
5.826
-0.921138
-0.773318
0.356997
-1.15388
-0.442826
-0.932591
0.186828
1.42955
6.40831
-1.30387
0.0844877
0.199796
6.20628
2.89078
1.22218
7.53237
-1.20573
-1.92134
1.59283
4.34023
-1.80328
-1.394
-1.29736
-1.43028
-1.44589
0.10979
-1.59815
0.46358
-0.815711
-1.43866
4.87496
1.22732
-0.188647
-1.01992
1.06987
3.23637
2.71563
5.14323
1.87466
-2.9632
8.42901
-1.28032
8.72306
2.86575
-2.4401
-0.0827374
-1.23572
0.874711
5.07567
1.76311
0.4052
3.66505
-0.0713706
-0.387187
-0.21379
-0.126009
-0.552523
0.128217
-0.421218
0.108205
-0.0936858
0.183955
-0.101536
0.132209
-0.15477
-0.205376
1.39533
8.29747
0.554698
-0.591443
-0.896867
-1.1688
-0.63201
-0.832384
-0.184042
0.141816
0.332818
0.196342
0.179409
0.341898
-0.937013
-0.47515
0.424579
0.715209
0.618006
-0.00206787
0.148978
-0.0276683
-0.356426
-0.407114
-0.472132
19.4054
-0.165031
-1.74105
4.00796
-0.532375
5.26605
0.64085
-1.38089
5.15782
-0.340429
0.823213
0.469803
0.588404
2.23679
2.46653
1.49533
2.36198
4.38182
5.88894
6.01514
-1.78719
1.37968
5.55972
2.35027
-1.90527
2.49221
-0.712407
3.74071
-0.130173
1.01926
-3.55882
2.71854
0.0200119
-0.824108
2.02918
3.90579
-1.23008
1.90777
3.49468
1.63601
0.747862
0.215696
0.19152
-0.0186108
0.490393
2.77803
0.126425
0.234571
0.195041
0.132495
-1.38428
-1.97372
6.73952
7.10097
0.0257409
-1.59774
5.70917
3.72692
3.75291
0.870518
-0.00171999
-0.775591
0.0251604
1.96811
-0.982356
1.3395
0.811037
-0.0348946
0.066724
1.55593
3.14142
-1.32588
0.159729
3.18325
4.02094
4.4678
6.42159
1.44308
7.44515
3.7362
3.49747
-0.123687
0.114526
0.199517
6.04159
1.57794
1.46019
1.34587
-2.71952
-1.80166
-2.94786
1.47419
0.918682
6.41924
4.08356
-0.0898124
3.75746
2.16917
3.27636
0.444491
-1.90436
0.661075
-0.132746
3.12252
0.81795
-0.0559287
1.53991
0.996335
-0.584104
2.43192
2.56331
2.20006
2.23436
-0.890121
-2.31601
-1.47907
2.83328
3.7036
5.50585
2.83295
1.17567
1.86959
6.17305
5.70915
3.36796
4.30022
3.32253
-0.395941
-0.210042
5.05599
5.82174
6.33856
-1.41856
3.51822
7.29956
-2.01885
-2.19211
2.54601
-1.05784
-0.924452
1.48983
-1.65229
4.50569
1.73657
5.14232
-0.934898
1.97192
3.51911
-1.44546
-0.485843
-2.10325
5.37841
-3.17121
2.70687
-1.91415
-1.46411
0.752511
-2.83947
1.12152
-0.491339
1.63513
0.734787
7.84595
8.24825
-1.22972
-1.23737
-1.30569
0.67679
-1.41333
-1.40658
-0.923165
-2.03824
2.60566
1.05272
3.64793
-0.601274
-0.549638
0.121832
-1.76351
6.67497
-1.07599
-0.885903
0.767537
-1.36231
4.22389
1.74231
-2.53014
-1.39985
-1.39542
-1.23483
1.56302
6.39175
-2.00199
0.400404
-1.30615
-0.435335
-1.70199
-0.496792
0.19133
0.510659
-1.14652
-1.12223
2.96209
2.15236
-0.0568038
5.91423
5.37242
0.273614
0.185337
0.138884
-0.0181054
0.021527
-1.38504
-0.343228
-0.52278
2.75361
1.86982
2.58194
-0.673478
0.535217
1.66046
4.13356
0.504134
-0.191383
4.99373
-0.735995
4.1114
1.46183
-0.54488
10.1646
-0.813629
1.78579
0.748911
SCALARS Redistribution_Potential double 1
LOOKUP_TABLE default
1.17636e-06
-0.218795
-0.642267
-0.712523
-0.62961
-0.472978
-0.601096
-0.0236689
-0.599727
-0.648429
-0.140791
-0.559715
-0.444369
-0.574135
-0.349551
-0.339053
-0.129386
-0.143315
0.372264
0.488088
0.291693
-0.468225
-0.608874
-0.568915
-0.589798
-0.604872
-0.530102
-0.611677
-0.32834
-0.394984
-0.465202
-0.360248
-0.670242
-0.684176
-0.701573
-0.618738
-0.703669
-0.584541
-0.68871
-0.614216
-0.652959
-0.622114
-0.236697
-0.431756
-0.226956
-0.596002
-0.54352
-0.548702
-0.413489
-0.496093
-0.509242
-0.179757
-0.0974201
-0.415264
-0.303892
-0.162217
-0.213311
-0.265974
-0.0995747
0.302246
-0.154387
-0.136766
0.216803
-0.114872
-0.12366
0.673803
0.183314
0.266758
0.71652
0.238352
0.526049
0.325102
-0.188194
-0.316915
-0.191511
-0.445525
-0.541339
-0.478684
-0.400624
-0.564464
-0.529138
-0.616888
-0.591186
-0.638414
-0.541232
-0.559267
-0.578421
-0.583378
-0.633728
-0.584652
-0.549328
-0.569009
-0.59024
-0.420677
-0.50849
-0.581288
-0.584805
-0.550309
-0.085872
-0.254908
-0.121812
-0.0218204
-0.526273
-0.332931
-0.519669
-0.158043
-0.186285
-0.292452
-0.176686
-0.522628
-0.396007
-0.555556
-0.697435
-0.705043
-0.715629
-0.669344
-0.682762
-0.648641
-0.654656
-0.69498
-0.672093
-0.70865
-0.718163
-0.592552
-0.656223
-0.678724
-0.683176
-0.648506
-0.70407
-0.704527
-0.605017
-0.665771
-0.649125
-0.656635
-0.595207
-0.671479
-0.675567
-0.617522
-0.659595
-0.637033
-0.647033
-0.608798
-0.659135
-0.616714
-0.626925
-0.600133
-0.632879
-0.662706
-0.65546
-0.611994
-0.600188
-0.531471
-0.605505
-0.500369
-0.480846
-0.457144
-0.521035
-0.525602
-0.342431
-0.603738
-0.582388
-0.529471
-0.0715711
-0.257834
-0.115295
-0.446583
-0.361307
-0.376276
-0.298246
-0.356941
-0.401062
-0.587924
-0.578152
-0.567726
-0.564976
-0.579478
-0.589781
-0.504418
-0.549356
-0.506034
-0.443799
-0.473766
-0.480934
-0.439511
-0.454932
-0.382143
-0.537193
-0.510595
-0.539175
-0.498455
-0.52468
-0.473292
-0.134992
-0.0700481
-0.252198
-0.20137
-0.081321
-0.13664
-0.148609
-0.443415
-0.398525
-0.305145
-0.355304
-0.378764
-0.352904
-0.314838
-0.183
-0.197768
-0.23783
-0.157515
-0.182215
-0.144212
-0.300515
-0.226767
-0.271364
-0.236825
-0.255291
-0.19253
-0.0267742
0.140352
-0.108846
-0.0974548
0.37169
-0.00408824
0.000186794
-0.17583
-0.159399
-0.140023
-0.141142
-0.143459
-0.146403
-0.133289
0.0605385
-0.0505544
-0.0941774
-0.00163722
-0.0214604
0.3699
-0.137102
-0.119563
-0.134871
-0.124913
-0.12522
-0.107936
0.318925
0.132323
0.778673
0.770449
0.256042
0.537654
0.546316
0.114149
0.257859
0.596621
0.485459
0.463895
0.480094
0.70982
-0.0264254
0.308097
-0.0196256
0.556439
0.420812
0.308656
0.42809
0.48322
0.527332
0.647379
0.604049
0.598016
-0.0240406
0.0929017
0.0239567
-0.218269
-0.355704
-0.194513
-0.0804831
-0.364436
-0.246075
-0.409695
0.00954579
0.0965327
-0.544185
-0.561278
-0.444885
-0.505054
-0.512147
-0.505371
-0.448998
-0.164335
-0.340728
-0.352415
-0.332394
-0.302482
-0.397992
-0.362735
-0.509063
-0.450794
-0.531932
-0.516829
-0.500144
-0.580617
-0.548206
-0.591139
-0.475592
-0.44363
-0.638184
-0.6288
-0.646696
-0.583876
-0.606099
-0.596031
-0.627783
-0.62002
-0.601544
-0.507764
-0.564915
-0.554349
-0.517491
-0.520043
-0.551936
-0.529753
-0.583648
-0.547963
-0.576557
-0.587644
-0.591774
-0.578266
-0.58852
-0.59412
-0.59828
-0.58969
-0.6341
-0.604982
-0.598181
-0.593895
-0.599595
-0.624837
-0.554943
-0.551148
-0.5811
-0.545464
-0.564327
-0.56839
-0.535942
-0.575567
-0.526827
-0.54675
-0.607718
-0.585316
-0.600033
-0.29657
-0.37123
-0.529816
-0.467718
-0.497582
-0.435296
-0.48701
-0.622977
-0.556619
-0.61242
-0.603378
-0.586148
-0.593082
-0.552482
-0.571623
-0.561329
-0.547345
-0.558246
-0.587479
-0.0495237
-0.182451
0.166781
0.112749
-0.316129
-0.143895
-0.251792
-0.06103
0.0338709
-0.172599
-0.0739613
-0.19972
0.140375
0.197829
-0.576142
-0.525505
-0.576307
-0.354614
-0.437027
-0.451621
-0.433681
-0.430413
-0.32749
-0.0329708
-0.190995
-0.207827
-0.148029
-0.136291
-0.14328
-0.139843
-0.263085
-0.172497
-0.270354
-0.247047
-0.202266
-0.322007
-0.237133
-0.385447
-0.158126
-0.145282
-0.578879
-0.541282
-0.585148
-0.375157
-0.473295
-0.445361
-0.524596
-0.502917
-0.429645
-0.161408
-0.29931
-0.27806
-0.705098
-0.709434
-0.715171
-0.692387
-0.700618
-0.688902
-0.712728
-0.711676
-0.70761
-0.659302
-0.663492
-0.650434
-0.685182
-0.676202
-0.677113
-0.660271
-0.668419
-0.67874
-0.637543
-0.669995
-0.65147
-0.69949
-0.684844
-0.683637
-0.683324
-0.687861
-0.690023
-0.693191
-0.692413
-0.70111
-0.718635
-0.717628
-0.704997
-0.714767
-0.713397
-0.715979
-0.708178
-0.578699
-0.6043
-0.639836
-0.622736
-0.602697
-0.624093
-0.680783
-0.657998
-0.670692
-0.648958
-0.696311
-0.686214
-0.692329
-0.642238
-0.668375
-0.657705
-0.688625
-0.673641
-0.694743
-0.714163
-0.707397
-0.70586
-0.713316
-0.698474
-0.710764
-0.699318
-0.630101
-0.649058
-0.629355
-0.637911
-0.584947
-0.673361
-0.690289
-0.621846
-0.634026
-0.602088
-0.682387
-0.657065
-0.677371
-0.575598
-0.624932
-0.623684
-0.689609
-0.66163
-0.688615
-0.684621
-0.695803
-0.686064
-0.688538
-0.661858
-0.645339
-0.656595
-0.611293
-0.634721
-0.641377
-0.640564
-0.6167
-0.658793
-0.677568
-0.617003
-0.627875
-0.60161
-0.652045
-0.641908
-0.646689
-0.609736
-0.632565
-0.635741
-0.676054
-0.654582
-0.661193
-0.688625
-0.662301
-0.671521
-0.681785
-0.660335
-0.610802
-0.624422
-0.6233
-0.625925
-0.620574
-0.63516
-0.644974
-0.638473
-0.640059
-0.645271
-0.617766
-0.625578
-0.624471
-0.620419
-0.643953
-0.603294
-0.645442
-0.656762
-0.677841
-0.670902
-0.651764
-0.632782
-0.656567
-0.633731
-0.649206
-0.665153
-0.673729
-0.558435
-0.597345
-0.58621
-0.591977
-0.608321
-0.662249
-0.637607
-0.64021
-0.625452
-0.594115
-0.626302
-0.601675
-0.576135
-0.531518
-0.564801
-0.515252
-0.527329
-0.596483
-0.593021
-0.610391
-0.610246
-0.608731
-0.598219
-0.59224
-0.573083
-0.578394
-0.569857
-0.523082
-0.551918
-0.521591
-0.46916
-0.588364
-0.522199
-0.535737
-0.519231
-0.503021
-0.322162
-0.42783
-0.379105
-0.416928
-0.494867
-0.471784
-0.493938
-0.474626
-0.572324
-0.57553
-0.572873
-0.520805
-0.434399
-0.575682
-0.437891
-0.518588
-0.580159
-0.582509
-0.168785
-0.34651
-0.250552
-0.219017
-0.333761
-0.524347
-0.439796
-0.439637
-0.628774
-0.615278
-0.621389
-0.610318
-0.586232
-0.593133
-0.544055
-0.572373
-0.601137
-0.608866
-0.35001
-0.550651
-0.477324
-0.433481
-0.499489
-0.59465
-0.559906
-0.575871
SCALARS CoVolArea double 1
LOOKUP_TABLE default
0.0277084
0.0051605
0.0345156
0.0354538
0.0195242
0.0182556
0.0140682
0.00754611
0.0137457
0.0224224
0.0243769
0.0414174
0.0442615
0.0268711
0.0265298
0.0227861
0.0229528
0.0218111
0.0158632
0.0121039
0.0353544
0.0506399
0.0247466
0.0231956
0.0447608
0.0334532
0.045371
0.0599811
0.0256068
0.0468043
0.0238335
0.0213154
0.0437505
0.039045
0.0541861
0.0557892
0.064712
0.0442346
0.0416042
0.0316296
0.0324227
0.0265635
0.0451842
0.037144
0.0395564
0.0414353
0.0442128
0.0491452
0.026896
0.0258123
0.0242101
0.0259158
0.0336475
0.0277584
0.0270491
0.0152214
0.018949
0.0146351
0.0313152
0.0222289
0.0145366
0.0306596
0.0139388
0.0254875
0.0212903
0.0139829
0.0330763
0.00747105
0.0103894
0.0407374
0.0234847
0.0228707
0.0494494
0.0481624
0.0488102
0.0546541
0.0454778
0.0235336
0.0183716
0.0284924
0.0279544
0.0261953
0.0263
0.0274223
0.0247591
0.0278368
0.0402464
0.0272278
0.0386556
0.0408589
0.0420589
0.0585296
0.0452258
0.0428425
0.0506886
0.0546206
0.0574518
0.0397241
0.0170072
0.0359402
0.0113528
0.0105075
0.0398153
0.0295212
0.0327584
0.011064
0.0163033
0.0130393
0.0148687
0.0285144
0.0207083
0.0250128
0.0622489
0.0517971
0.058629
0.0315156
0.0425503
0.0292468
0.047527
0.0504474
0.0421561
0.0662117
0.0511999
0.0374695
0.064938
0.0572989
0.0603187
0.0502004
0.0564085
0.0463773
0.0415579
0.0566027
0.0430178
0.0443159
0.0357386
0.0430014
0.0421723
0.0289562
0.0382204
0.0308544
0.0352786
0.031898
0.0435711
0.0244616
0.0278095
0.0269626
0.0280016
0.0334056
0.0334397
0.0308785
0.0533777
0.045448
0.0519967
0.0431763
0.0412407
0.0469917
0.0328144
0.0302418
0.0306842
0.0259272
0.0285749
0.0269099
0.0388597
0.0400592
0.0393082
0.0431608
0.0386
0.0424496
0.0304796
0.0323927
0.031809
0.047365
0.0450663
0.0494905
0.0339908
0.040975
0.030457
0.0468943
0.0457845
0.047412
0.0218085
0.0236661
0.0215052
0.0277037
0.0233284
0.0260087
0.0233334
0.0212127
0.0252949
0.0447626
0.0353659
0.0372209
0.0401681
0.0333242
0.0293517
0.034935
0.0281049
0.0291649
0.0203816
0.0256202
0.025867
0.0225406
0.0267622
0.0259339
0.0283649
0.028364
0.0103861
0.0139937
0.0102767
0.0184076
0.0159369
0.017475
0.0178346
0.0144008
0.0185818
0.0292082
0.0230509
0.0232268
0.0309561
0.0286518
0.0312568
0.0344018
0.014407
0.0249223
0.0204166
0.00788277
0.0133738
0.0271393
0.0243167
0.0201147
0.0214661
0.030251
0.00896432
0.0200858
0.0156633
0.0178156
0.0195994
0.0146725
0.0202552
0.0230974
0.0284039
0.040723
0.0365509
0.0352744
0.0266102
0.0290408
0.0186799
0.0197577
0.0360896
0.0254842
0.0204486
0.00648509
0.00604952
0.00979459
0.00829542
0.00827906
0.0119094
0.016705
0.0349343
0.0320268
0.0258943
0.0243467
0.0275862
0.0344355
0.0149634
0.0216472
0.0206471
0.0101939
0.012006
0.0129064
0.0389844
0.047116
0.0412902
0.0432118
0.0469053
0.0414502
0.0444638
0.0502588
0.0469129
0.0483244
0.0438848
0.046082
0.0473569
0.0458791
0.0520256
0.0488114
0.0473775
0.0494983
0.0519507
0.0572085
0.0576554
0.0601152
0.0158999
0.00960824
0.0246752
0.0196649
0.0238029
0.0209114
0.0235003
0.0304232
0.029636
0.0262288
0.0276867
0.0245151
0.0277444
0.0267857
0.0270636
0.0275883
0.0276761
0.0225218
0.0235531
0.020505
0.0263348
0.0272993
0.0278244
0.0277551
0.0277268
0.0258773
0.0254422
0.0262167
0.0254757
0.0229493
0.0309951
0.0257696
0.0322439
0.0419485
0.04199
0.0385067
0.0323788
0.0415567
0.0302467
0.0247339
0.027699
0.0386619
0.033415
0.0362141
0.0399539
0.0348557
0.0426167
0.0404196
0.0450416
0.0289492
0.0387235
0.0342208
0.0441013
0.040458
0.0523305
0.0482117
0.0593419
0.052969
0.0618513
0.0418959
0.0458862
0.0494669
0.0446789
0.0430306
0.0457173
0.0516299
0.0516184
0.0488614
0.0492539
0.0612056
0.0525314
0.0569054
0.0432403
0.0439014
0.052627
0.0607006
0.0595713
0.0652143
0.0281451
0.0315353
0.0117406
0.019125
0.0414176
0.0278408
0.0333932
0.0100928
0.00827821
0.0170617
0.00948049
0.0172482
0.00932999
0.00969006
0.0259143
0.035714
0.0265476
0.0384798
0.0366962
0.0421567
0.0289638
0.0325795
0.0271949
0.0128528
0.0193448
0.0234849
0.0164781
0.0132986
0.0143101
0.0135127
0.0184488
0.0145798
0.014492
0.0085509
0.00973979
0.0170018
0.0141221
0.0189123
0.0145803
0.0149713
0.0229666
0.0270893
0.0239661
0.0184306
0.0247868
0.0242657
0.0233421
0.0241881
0.0211906
0.0121768
0.014685
0.0133531
0.0458649
0.0566526
0.0465613
0.0533489
0.0552021
0.0651469
0.0591652
0.0541028
0.0548825
0.0309702
0.0320756
0.0301972
0.0404474
0.0338327
0.035393
0.0252105
0.0332269
0.0406405
0.035489
0.0428778
0.0309641
0.0503501
0.0464026
0.0516678
0.0397444
0.0444403
0.0449651
0.0549718
0.0531726
0.0571972
0.0527725
0.0443335
0.0610517
0.0599269
0.061008
0.0601264
0.0694427
0.0335458
0.0383493
0.0686056
0.0521329
0.0483048
0.0510212
0.056516
0.0489718
0.0611452
0.0470153
0.0639525
0.0574682
0.0546736
0.055304
0.0544807
0.0607662
0.0670567
0.0692037
0.0711407
0.0505148
0.049965
0.0617725
0.0564023
0.0466864
0.0527585
0.0514489
0.0434904
0.0471069
0.0568293
0.0453286
0.04302
0.0490994
0.0581564
0.0292382
0.040409
0.0284644
0.0446839
0.0420326
0.0407565
0.0348869
0.0344682
0.0463163
0.0613337
0.0602872
0.0541088
0.0433019
0.0421253
0.0431478
0.0427909
0.0398466
0.03935
0.0363647
0.0237783
0.0302334
0.0307329
0.0289192
0.0283145
0.0380483
0.0400425
0.0279968
0.033663
0.0268266
0.032335
0.0285803
0.0251975
0.0287718
0.029031
0.0326087
0.04873
0.0420916
0.0449182
0.0529237
0.0387378
0.051817
0.0649035
0.0501218
0.0227848
0.027098
0.0243552
0.0250138
0.0251786
0.0274026
0.0310566
0.0279293
0.0272754
0.0278261
0.0256705
0.027969
0.0283505
0.0260053
0.034391
0.0294218
0.0331894
0.0343813
0.0359116
0.0346148
0.0344467
0.0320918
0.0305156
0.0284764
0.0278009
0.0317304
0.0377023
0.0310955
0.0322909
0.0304439
0.0283521
0.0274445
0.036593
0.0337546
0.0338911
0.0470004
0.0678152
0.0572321
0.0474136
0.0470951
0.0405758
0.044345
0.0417648
0.0434332
0.0466405
0.0397618
0.0583876
0.0519968
0.0462707
0.0466607
0.05323
0.0526131
0.0513652
0.0349908
0.0408977
0.0352495
0.0396238
0.0459234
0.0429801
0.0424666
0.0416638
0.0421729
0.0401027
0.0436713
0.0514978
0.0459151
0.0443872
0.0427459
0.0449341
0.0447741
0.0500776
0.0302327
0.0326182
0.0289275
0.0285524
0.0305927
0.0305606
0.0290326
0.0285884
0.0301702
0.031479
0.015108
0.0274355
0.0215205
0.0219197
0.0287678
0.0351357
0.0336127
0.0352545
0.0273294
0.0278777
0.0257331
0.0240692
0.0235508
0.0260041
0.0271455
0.0244438
0.0264728
0.029002
0.0154709
0.0251418
0.0234092
0.0221904
0.0265508
0.0301534
0.0292026
0.0272101
SCALARS SignedDistance double 1
LOOKUP_TABLE default
1.11426
1.1733
-0.00592009
0.0634267
-0.00590937
1.09738
4.36386e-05
1.2604
0.0111965
-0.0209957
1.18904
0.234526
-0.0213178
0.0605659
0.660897
1.19386
0.120438
0.0239763
0.777877
-0.673817
-0.0395403
0.123195
-0.00429534
0.0120563
-0.00268301
0.010373
-0.0188689
0.139335
1.13551
0.0610988
-0.00752559
1.11207
0.00279345
0.0268611
0.00663812
0.147141
0.00028938
0.129781
-0.00388041
-0.0389972
0.027638
0.0163131
0.0141982
0.0958388
-0.00421858
0.116023
-0.00298912
0.144666
1.13678
0.0337836
0.54369
0.656933
0.0131468
0.977734
1.21813
0.0174424
0.137319
1.22025
0.0478062
0.845852
0.0183424
0.015518
1.17869
0.0946469
1.04961
-1.02689
0.0381633
1.13287
0.0106396
-0.183134
0.0294612
-0.0274888
-0.00207775
0.0149034
0.00237836
0.00777588
-0.00375647
0.0889754
1.04532
0.0343081
0.0137835
0.00709396
-0.0126021
0.0215081
0.781674
0.0365224
0.680315
0.0865984
0.000317133
0.0210924
0.882647
0.203877
-0.000234481
0.0571281
-0.00219452
0.987869
0.00615431
0.72445
1.29728
1.08573
1.32083
1.29378
0.0280856
1.10523
0.0110105
1.13994
1.26543
1.19241
1.16626
0.0284766
1.07691
0.0135047
0.0306638
0.0688982
0.00717268
0.0185347
0.000423023
0.0265983
-0.00398123
-0.022428
-0.0490991
-0.038267
-5.08355e-06
0.0998428
-0.0081294
-0.0554648
-6.98294e-07
0.0622955
-0.000680654
0.0650078
0.00282853
-0.00286878
0.00105759
0.0059935
-0.0048435
-0.0401453
-0.0267565
0.0523339
-0.0185476
0.0181055
-0.00287138
0.0403534
-0.0191478
0.0217066
-0.000470671
1.01239
-0.000596858
0.0385354
-0.012837