# vtk DataFile Version 4.2
vtk output
ASCII
DATASET POLYDATA
POINTS 642 double
-1.11144 3.14472 -0.253818
-0.223415 2.86352 -0.2302
-1.29109 0.537974 -0.00628077
0.674175 0.554021 0.00771677
-0.366608 1.20995 1.04323
-0.609302 2.43624 0.545837
-0.343914 1.37373 -0.853108
-0.779193 2.82194 -0.727642
0.565986 1.91549 -0.441702
0.726712 1.86697 0.547541
-1.28506 2.34682 -0.550927
-1.80343 2.13954 0.854736
-1.67865 2.91048 0.442653
-1.18923 2.42389 0.802108
-0.914315 2.83546 0.335407
-0.303507 2.71266 0.144418
-0.469093 3.33117 -0.207211
-0.170435 3.21273 -0.656616
-1.07923 3.07391 -0.760874
-1.19231 2.89061 -0.929723
-1.60284 3.02213 -0.625505
-1.84931 2.15743 0.0204112
0.149142 2.21365 0.687864
0.397616 2.39199 0.24006
-1.03056 1.61541 0.860872
-0.412407 1.89115 0.855044
-1.45436 1.31504 -0.364009
-1.58034 1.23182 0.476565
-0.572149 2.27772 -0.709646
-0.88113 1.84632 -0.661539
0.159598 2.43754 -0.246466
-0.177476 2.44518 -0.53943
1.0543 1.2058 0.466007
0.338745 1.51498 0.961623
0.203856 0.685845 0.80106
-0.934776 0.661427 0.819909
-0.352446 0.554705 -0.000341498
-0.812978 0.787907 -0.666009
0.147152 0.821228 -0.677109
0.179239 1.59356 -0.700329
0.809339 1.23388 -0.265704
0.871226 1.82242 0.0249395
-1.34471 2.96665 0.0767077
-1.28095 2.95849 0.484906
-0.991622 3.04105 0.0990864
-1.49074 2.36013 0.961188
-1.45993 2.72831 0.811993
-1.83362 2.56452 0.704932
-0.793923 2.63358 0.460351
-1.10667 2.68541 0.617413
-0.899855 2.43216 0.632072
-0.663925 3.09511 -0.0156231
-0.796305 3.30876 -0.218456
-0.411123 2.57836 0.375545
-0.577884 2.81908 0.197352
-0.323502 3.14437 -0.259965
-0.425864 3.00372 -0.0746358
-0.264329 2.82355 -0.0618478
-0.651397 3.30654 -0.474421
-1.09782 3.13489 -0.619649
-0.243183 3.03301 -0.388251
-0.288278 3.40319 -0.473939
-0.943567 2.94499 -0.75995
-0.538017 3.16858 -0.586191
-0.501116 2.96088 -0.631889
-1.35553 3.19848 -0.867193
-1.38745 3.15731 -0.439295
-1.02593 2.86648 -0.824813
-1.1896 3.09962 -1.06769
-1.45444 2.72749 -0.681928
-1.4385 2.98125 -1.03064
-1.23475 2.76418 -0.825027
-1.60881 2.90784 -0.0755406
-1.56738 2.21231 -0.284653
-1.61077 2.59127 -0.23016
-1.85042 2.56496 0.253635
-1.85034 2.14742 0.457933
0.0414666 2.51307 0.208417
0.0134814 2.57458 -0.0201219
-0.171746 2.31612 0.646825
-0.0255334 2.46298 0.458029
0.617248 2.18407 0.410584
0.330901 2.32943 0.473733
0.464468 2.07541 0.677164
-0.868139 2.1682 0.723618
-0.53305 2.17428 0.692499
-1.39318 1.9508 0.795003
-1.18095 2.12228 0.835804
-0.361964 1.56101 1.04345
-0.726097 1.79227 0.826159
-0.651056 1.35395 0.902641
-1.84758 1.69053 0.260939
-1.64209 1.77405 0.632811
-1.43198 1.78282 -0.440493
-1.68562 1.72346 -0.187411
-1.34382 0.845491 0.229569
-1.62635 1.20654 0.0106643
-1.30417 0.871588 -0.132625
-0.988463 2.49842 -0.729361
-1.09354 2.14945 -0.617246
-0.737117 2.66267 -0.72721
-0.89368 2.64962 -0.759561
-0.610703 1.53509 -0.81873
-0.716891 2.14414 -0.71206
-0.394314 1.75079 -0.799467
-0.308293 2.82643 -0.539227
-0.473929 2.71783 -0.649382
-0.10302 2.66738 -0.242969
-0.213143 2.79214 -0.395818
0.192277 2.12454 -0.485787
-0.0149802 2.45002 -0.404754
0.430925 2.19286 -0.33437
0.987589 0.719191 0.251768
0.72106 0.860762 0.631577
0.505393 0.55439 0.397685
0.594337 1.69087 0.776624
0.685301 1.323 0.700075
0.871583 1.49188 0.470288
-0.13418 0.934158 1.04327
0.297247 1.08737 0.912785
-0.0248547 1.34194 1.06419
-0.0305289 0.566718 0.443969
0.214271 0.554721 0.00394739
-0.586825 0.884471 0.925778
-0.342892 0.554806 0.917338
-0.859564 0.554237 0.00770613
-0.64792 0.55472 0.454687
-1.14781 0.555465 0.487279
-0.0610531 0.554738 -0.4172
0.432175 0.645414 -0.385728
-1.08143 0.635855 -0.353989
-0.646756 0.554689 -0.417483
-0.140741 1.09234 -0.839465
-0.365437 0.764957 -0.689147
-0.531833 1.10281 -0.776671
0.546376 0.99369 -0.472181
0.873355 0.834732 -0.221797
-0.0520728 1.47123 -0.853712
0.209422 1.22323 -0.706621
0.740144 1.54056 -0.362726
0.537232 1.39823 -0.571635
0.410275 1.73877 -0.606525
1.11797 1.15445 0.0119278
0.787543 1.85728 -0.219
0.87076 1.49817 -0.102832
0.911842 1.44855 0.191045
0.863969 1.8504 0.312091
-0.0257821 1.71843 1.04432
0.271717 1.90372 0.86855
-0.116087 2.02492 0.798224
-1.23569 0.84311 0.628645
-0.928541 1.07065 0.758247
-1.31659 1.39379 0.769416
-0.794553 1.25367 -0.613271
-1.07027 1.05364 -0.388749
-1.17116 1.5357 -0.537593
0.038272 1.98937 -0.612933
-0.179968 1.8498 -0.740835
-0.37634 2.36401 -0.657968
0.651174 2.13745 0.158538
0.617984 2.17973 -0.130129
0.33327 2.42377 -0.0297012
-1.21216 3.07823 -0.130052
-1.19021 2.98405 0.130106
-1.05594 3.13323 -0.0835192
-1.48878 2.95821 0.489209
-1.32249 2.95848 0.309651
-1.54138 2.95802 0.294619
-0.951024 2.93297 0.22698
-1.14634 2.95658 0.318749
-1.08259 2.8864 0.424809
-1.66304 2.26608 0.94932
-1.68923 2.4812 0.913525
-1.8503 2.36115 0.797082
-1.30436 2.55624 0.81119
-1.50711 2.54897 0.911662
-1.31925 2.39914 0.895983
-1.77249 2.75213 0.583594
-1.6748 2.68508 0.812884
-1.64429 2.85979 0.694958
-0.686949 2.52044 0.505279
-0.886805 2.54958 0.560259
-0.727444 2.42793 0.578106
-1.04258 2.76887 0.500465
-0.964402 2.6537 0.530543
-0.885422 2.75195 0.404699
-1.03834 2.42561 0.6946
-1.02906 2.55486 0.628853
-1.14936 2.55662 0.703118
-1.40937 2.87704 0.670967
-1.25413 2.71116 0.719842
-1.18554 2.86852 0.632906
-0.892111 3.26103 -0.0372695
-0.942521 3.23842 -0.248584
-0.785296 2.94578 0.15727
-0.815129 3.08079 0.055962
-0.626639 3.37451 -0.176969
-0.686929 3.24928 -0.0846755
-0.568334 3.21857 -0.12512
-0.510044 2.50926 0.469247
-0.604236 2.60867 0.408267
-0.445946 2.78834 0.152808
-0.509985 2.70021 0.285072
-0.337819 2.64897 0.258546
-0.691796 2.72517 0.33689
-0.756617 2.82732 0.268724
-0.266998 2.96866 -0.255861
-0.313217 2.97592 -0.170448
-0.231642 2.84786 -0.166966
-0.456511 3.17246 -0.167093
-0.364441 3.08843 -0.160576
-0.397059 3.24852 -0.257223
-0.274052 2.76947 0.0298194
-0.346789 2.92736 -0.082117
-0.381953 2.85935 0.0298628
-0.632639 2.95474 0.0868298
-0.493315 2.91518 0.0526049
-0.540068 3.07302 -0.0603413
-0.912048 3.21022 -0.41329
-1.09807 3.157 -0.471854
-0.557999 3.52763 -0.316532
-0.721126 3.37361 -0.390001
-1.0983 3.11243 -0.706714
-0.892899 3.15329 -0.535611
-0.866914 3.10751 -0.596924
-0.245395 2.95754 -0.319662
-0.259141 3.09154 -0.342646
-0.200854 3.35245 -0.588886
-0.202766 3.2294 -0.430001
-0.201037 3.1594 -0.532104
-0.310876 3.25292 -0.350428
-0.36655 3.42214 -0.335149
-0.847825 2.87585 -0.739917
-0.743246 2.93855 -0.683228
-0.675101 2.85782 -0.690256
-0.848554 3.04553 -0.651368
-0.788638 2.99751 -0.66685
-1.05981 3.02681 -0.788068
-0.354814 3.08636 -0.610968
-0.51008 3.08795 -0.60939
-0.334525 3.24309 -0.682308
-0.45728 3.52697 -0.51635
-0.359699 3.43629 -0.665828
-0.589455 3.2301 -0.547498
-1.24855 3.16857 -0.569267
-1.27591 3.13244 -0.386346
-1.1925 3.25322 -0.893516
-1.24452 3.21582 -0.773496
-1.55724 3.16747 -0.520395
-1.42793 3.28586 -0.704731
-1.59285 3.25784 -0.807736
-0.911352 2.83698 -0.774721
-1.00283 2.90892 -0.808294
-1.19889 3.02547 -1.15268
-1.14709 2.97012 -0.917272
-1.15108 2.91025 -0.897929
-1.1311 3.00845 -0.89131
-1.18958 3.13152 -0.974243
-1.3333 2.50289 -0.583514
-1.32877 2.75822 -0.790592
-1.23778 2.50196 -0.650922
-1.52074 3.05948 -0.867335
-1.46051 2.86023 -0.865757
-1.52132 2.88774 -0.685465
-1.22624 2.84894 -0.899001
-1.35023 2.88506 -0.995544
-1.31077 2.8782 -1.1472
-1.31015 3.12103 -1.01372
-1.38809 3.16445 -1.2459
-1.38195 3.08953 -0.981349
-1.37208 3.07576 -0.205261
-1.60202 2.99682 -0.393517
-1.51905 3.08719 -0.271615
-1.50556 2.95809 0.0166528
-1.68215 2.92349 0.203607
-1.41302 2.27894 -0.424689
-1.44706 2.46928 -0.437122
-1.77812 2.37792 -0.118132
-1.59072 2.40876 -0.262469
-1.75492 2.17391 -0.170083
-1.51322 2.66024 -0.458474
-1.58734 2.81434 -0.478042
-1.85055 2.35406 0.574374
-1.84989 2.14607 0.643198
-1.85052 2.79012 0.365305
-1.85048 2.56866 0.477663
-1.85047 2.14908 0.241169
-1.90741 2.36003 0.35321
-1.85038 2.36094 0.129156
-1.65139 2.7671 -0.179302
-1.76559 2.56994 -0.00663089
-1.81992 2.78853 0.100457
-0.129546 2.68421 -0.0437158
-0.137235 2.71524 -0.138713
-0.137412 2.60476 0.172561
-0.135108 2.64931 0.0667993
0.20583 2.47191 0.113234
0.045888 2.53401 0.109526
0.219869 2.46449 0.236522
-0.383104 2.35811 0.573705
-0.291097 2.43334 0.498939
0.0820026 2.36241 0.614145
-0.0904257 2.39848 0.564565
0.0041859 2.27924 0.696354
-0.212745 2.50156 0.40271
-0.164936 2.55048 0.302078
0.705367 2.006 0.50522
0.555588 2.12515 0.551336
0.64409 1.97046 0.630847
0.401931 2.38508 0.373256
0.487095 2.27565 0.458991
0.507795 2.29106 0.326515
0.321643 2.13462 0.676837
0.443969 2.23221 0.620379
0.256029 2.28788 0.603566
0.0240351 2.48728 0.329372
0.157285 2.41199 0.479357
0.221502 2.46188 0.366043
-0.730983 2.30664 0.644423
-0.579734 2.31084 0.621774
-1.0378 2.29167 0.742696
-0.916851 2.30181 0.692734
-0.477561 2.05527 0.752229
-0.719408 2.17285 0.701593
-0.647463 2.0297 0.754839
-1.57476 2.04797 0.845792
-1.45397 2.12409 0.959494
-1.10873 1.90336 0.798889
-1.27665 2.04426 0.844948
-1.20154 1.77743 0.801735
-1.29642 2.22361 0.950006
-1.20042 2.27132 0.856453
-0.361332 1.34566 1.04327
-0.53982 1.44652 1.04302
-0.487386 1.26149 0.97136
-0.570832 1.83906 0.844559
-0.538899 1.66996 0.951803
-0.379432 1.76545 0.977597
-0.827422 1.4702 0.834816
-0.683689 1.56002 0.886055
-0.879561 1.70961 0.825533
-1.02959 2.14866 0.769226
-0.96219 1.96551 0.777338
-0.820558 2.00618 0.760565
-1.72227 1.96379 0.534831
-1.66609 1.97908 0.698575
-1.76857 1.9411 0.145989
-1.76851 1.94005 0.332854
-1.67403 1.49208 0.592833
-1.74871 1.70065 0.45071
-1.71172 1.46798 0.364012
-1.33985 2.05547 -0.460379
-1.48732 1.99898 -0.358527
-1.61693 1.49901 -0.295216
-1.58137 1.74786 -0.349586
-1.4953 1.52578 -0.431652
-1.63586 1.96606 -0.241179
-1.70403 1.95169 -0.0641655
-1.43738 0.595446 0.131146
-1.36088 0.834064 0.0154975
-1.43826 0.627522 -0.146589
-1.62194 1.20349 0.238949
-1.43769 1.0642 0.124693
-1.41501 1.07095 0.354796
-1.3503 1.12476 -0.216448
-1.42419 1.07421 -0.0729905
-1.58274 1.23197 -0.214248
-1.77504 1.69949 0.0254808
-1.68558 1.4672 -0.0967415
[...]
POINT_DATA 642
SCALARS Mean_Curvature double 1
LOOKUP_TABLE default
-0.526069
1.25846
2.21946
5.07318
5.24552
0.250113
-0.0146307
0.900009
3.82547
-2.21148
-0.161375
8.16942
3.34134
1.12474
-0.0728751
0.44325
4.43273
14.2186
0.844857
2.35888
4.42295
4.1249
1.60988
1.76017
4.1696
-0.415313
3.26502
3.74998
0.885963
-0.172665
-0.516037
0.967734
7.46136
1.53587
2.28518
5.20235
0.274258
5.93263
2.86499
-1.58069
-0.879159
1.8102
-1.54898
3.8952
1.1675
3.19071
3.52408
3.9714
0.115058
-0.0858373
0.121301
-0.816329
1.87308
0.497987
0.569424
1.77016
-0.00314895
1.25572
-0.596789
0.372398
2.23886
3.81069
1.36177
-0.0280706
1.04412
1.08129
1.44094
1.4001
9.91489
3.37749
7.91662
0.8351
1.8339
-0.726549
-1.26043
0.422669
1.64924
-0.185145
0.363317
2.61438
2.51433
4.87041
-1.7311
3.03301
-0.232469
-0.0339014
-1.1904
0.710502
1.75739
-0.587198
-0.7606
5.29124
1.87301
1.73147
1.63853
-1.23097
3.04891
-1.14991
0.926784
0.329147
0.714154
1.60098
2.85426
0.72534
-0.478095
1.76111
1.28319
1.10946
1.57714
0.599878
0.722712
3.77063
3.90342
3.26862
3.13708
1.12059
1.28331
3.7818
4.21393
-0.705757
1.32093
-0.63801
-0.0023353
-0.333375
5.82434
-1.328
-0.00454224
1.84932
1.80019
2.41923
4.23696
0.0196193
3.35025
0.128098
1.3682
-1.24708
4.15953
3.86819
-1.75003
1.1104
0.931015
3.53034
4.26431
2.24113
-1.10524
-1.50111
2.55623
4.9495
4.11846
-0.358895
2.49276
-1.13726
3.73807
-0.822642
-1.17824
1.92037
0.0116548
-0.304135
0.903239
-0.316369
5.36815
1.46649
-0.882257
-1.24578
0.374873
3.1599
-0.334028
1.58165
-0.617928
2.55583
2.01839
4.28767
4.48047
5.02569
0.346605
3.54965
2.04584
1.87495
4.03881
6.02613
0.0987379
0.0372829
0.0511662
-0.576078
-0.289762
0.138353
-0.520235
-0.377465
-0.780423
3.2169
1.24647
7.02313
7.77489
1.9784
-0.303951
0.662363
6.19671
3.46461
0.090416
0.434006
0.132508
0.193435
0.31639
0.523587
0.0934661
0.275404
0.613141
0.230444
1.28633
-0.815172
5.02834
-1.11999
0.202528
0.609465
0.952814
-0.0195513
0.4898
-0.5601
-0.070776
-0.261844
8.64506
6.01456
0.672043
0.505776
0.633352
0.471551
1.57742
9.59129
8.68054
3.01458
-1.18606
6.11101
0.956755
1.00506
0.99848
0.837593
0.895411
1.05656
0.621934
0.705628
6.62616
7.72016
8.90669
-0.169125
-0.721271
-1.12378
12.6305
1.52669
6.57742
6.34998
9.66357
1.51511
1.50608
10.5774
1.01935
1.25966
0.646276
3.33049
0.142335
0.124173
0.727536
3.07762
5.09752
-0.689056
0.987792
1.96111
11.4317
1.80054
9.99281
1.70136
0.0975143
3.12099
5.85927
0.86293
3.29336
-0.391568
-0.377323
3.44841
-0.600167
3.99418
-1.0879
2.96086
-0.636183
3.93246
5.44772
0.731559
1.17968
3.94943
0.89736
1.47282
-0.239498
5.17944
0.645162
0.484286
0.42658
0.573878
-0.0451974
0.0391131
0.609871
0.16538
-0.0559719
4.65956
1.53051
5.09248
0.194884
0.271935
2.75181
-0.102026
4.89603
6.30291
2.94964
1.45087
-0.703007
7.8646
2.62233
-0.461805
1.03751
5.33604
0.0324039
0.234478
-0.452744
-0.136483
-0.243282
-0.0712003
-0.240495
1.4139
5.99182
-0.611316
0.549022
-0.630983
6.70859
1.03174
0.998478
6.47706
-1.28478
-0.42429
1.73548
3.1782
-1.04317
-0.843248
-0.864136
-0.533549
-0.490698
-0.296699
-1.56874
0.55482
-0.980401
-1.14136
4.9467
1.21275
0.0666295
-0.469636
-0.366243
3.05369
2.90873
4.86535
1.60922
-1.84812
8.31992
-0.579822
8.81416
2.60501
-1.60027
-0.406606
-1.128
0.0167267
5.10824
1.6806
0.550796
3.45129
0.684067
0.301952
1.63879
1.48529
0.116408
0.69811
0.462994
0.956895
1.52552
0.756085
1.15473
0.697619
1.82316
1.64021
1.24488
6.10856
0.424281
0.363136
0.0395409
-0.293743
0.335807
0.237705
0.862846
1.58732
0.855026
0.766649
1.24304
1.03339
2.765
1.23655
0.898896
1.61676
0.916565
0.858304
1.29072
1.15255
0.729941
0.716018
0.961308
4.74329
-0.38129
-0.66259
3.56715
0.933483
0.617023
0.379368
-0.196041
2.63083
0.360795
1.6182
1.34004
0.971257
2.17396
2.32248
1.6091
2.18605
4.28133
5.95924
6.03636
-1.59443
1.39756
5.66631
2.41799
-2.01277
2.46224
-0.685437
3.73721
-0.132933
0.820514
-2.72698
2.37562
0.159446
-0.76897
1.86632
3.82052
-0.990818
2.08606
3.50785
1.65226
0.596395
0.237068
0.21688
-0.00733771
0.519274
2.78019
0.0935099
0.259812
0.144299
0.110031
-1.04225
-1.47501
6.74682
7.01412
-0.11972
-1.40508
5.51296
3.95168
3.30202
0.79609
0.000244991
-0.744854
-0.00572729
2.32734
-0.734063
1.58144
0.775262
0.0288855
0.0594662
1.6999
2.87671
-1.40651
0.19584
3.23574
3.8445
4.82356
6.08297
1.5307
7.43625
3.87396
3.17075
-0.1624
0.126518
0.276452
5.78782
1.70982
1.34522
1.29471
-2.4607
-1.06653
-2.07304
1.32631
0.932552
6.49264
3.82869
0.285797
3.79065
2.22388
3.05711
1.23791
-1.69697
-0.0601921
-0.0305227
3.21754
0.466631
-0.109738
0.809153
1.08867
-0.500506
2.66343
2.46294
1.95979
2.07646
-0.82411
-1.93897
-1.39124
2.69284
3.5559
5.45888
2.99417
1.17528
1.62835
6.16006
5.85856
3.35663
3.89566
3.08416
-0.233167
-0.24101
4.92775
5.95229
6.25509
-1.12164
3.51867
7.53085
-1.07639
-1.76729
2.56477
-1.1397
-0.925797
1.33502
-1.57102
4.44846
2.19122
5.10176
-0.847415
1.81783
2.93955
-1.36619
-0.405583
-1.78857
5.17197
-2.70838
-0.0139616
-0.963655
-0.587212
0.0998111
-1.37121
0.993391
-0.343099
1.23786
1.20337
8.2597
8.28273
-0.452868
-0.982425
-1.05619
-0.00187971
-1.08594
-1.2062
0.46152
-1.64886
2.25957
1.28182
2.93286
-0.60309
-0.736065
-0.540948
-0.80936
6.5523
-0.913577
-1.1139
-0.424284
-0.851833
3.52799
1.04764
-1.31215
-1.24574
-1.09929
-0.789444
0.150556
3.66631
-1.36666
0.372921
-0.984218
-0.750046
-0.757901
-0.325595
-0.132471
0.124455
-0.237612
0.497472
1.80375
0.449416
-0.150924
5.39683
3.89264
0.944283
0.945373
0.771632
0.559878
0.881977
-0.172606
0.534284
0.570453
2.62708
1.83801
2.60329
-0.701393
0.578161
1.7426
4.56617
0.659011
-0.406268
5.16801
0.730328
3.78048
-0.301899
0.0598061
5.87832
-0.740808
1.49648
0.75446
SCALARS Redistribution_Potential double 1
LOOKUP_TABLE default
-9.73851e-11
-0.317376
0.159588
-0.195615
0.00207388
-0.228166
-0.155578
-0.0927475
-0.386006
-0.3553
0.0544266
0.0382605
-0.0151693
-0.07722
-0.161331
-0.329657
-0.156997
-0.19587
0.121819
0.243574
0.202666
0.0957519
-0.323908
-0.412842
0.0821072
-0.119518
0.140586
0.173288
-0.207075
-0.0461228
-0.398667
-0.328234
-0.262408
-0.223506
-0.0927429
0.173158
-0.00784434
0.068986
-0.170974
-0.283038
-0.288797
-0.375033
-0.0108783
-0.0777599
-0.102699
-0.0214303
-0.05268
0.00542544
-0.200068
-0.116769
-0.148102
-0.171321
-0.0939108
-0.296071
-0.252284
-0.234865
-0.255915
-0.322978
-0.0922678
0.0837729
-0.258014
-0.170153
0.0303365
-0.13608
-0.174878
0.315144
0.11422
0.0907857
0.378144
0.163984
0.382413
0.165199
0.0517876
0.0966152
0.0975764
0.0439137
0.0772188
-0.383959
-0.391197
-0.288021
-0.35117
-0.397524
-0.385289
-0.351873
-0.0927387
-0.176903
0.0612684
-0.0216859
-0.0679541
-0.00541324
0.0956482
0.138019
0.109565
0.0998261
0.122804
0.238277
0.169657
0.210602
-0.0365806
-0.01133
-0.138217
-0.0531252
-0.0931478
-0.148544
-0.189641
-0.247633
-0.21746
-0.362623
-0.301181
-0.372535
-0.370786
-0.405863
-0.227595
-0.203649
-0.155451
-0.299994
-0.254303
-0.296296
-0.0206532
-0.153954
-0.117223
-0.0478457
-0.120674
0.119986
0.0543611
0.090831
0.0803635
0.173815
-0.0932596
-0.182303
0.137388
0.0322407
-0.155317
-0.0533376
-0.0450971
-0.235769
-0.23364
-0.231263
-0.237547
-0.339245
-0.302123
-0.340727
-0.269327
-0.386827
-0.319215
-0.26931
-0.367366
-0.182207
-0.278797
-0.224588
0.20888
0.206582
0.137367
0.060534
0.18603
0.0861254
-0.32621
-0.257026
-0.269636
-0.409785
-0.413914
-0.417063
0.00536402
-0.0539147
-0.0511626
-0.0450792
-0.0557532
-0.0197119
-0.133954
-0.0932898
-0.117446
0.0085928
-0.00964882
0.0201147
-0.0695981
-0.0369073
-0.0505885
-0.00666886
-0.0234674
-0.0322015
-0.220602
-0.167717
-0.195544
-0.129696
-0.151316
-0.17518
-0.106517
-0.12725
-0.0968617
-0.0629138
-0.0862079
-0.0968787
-0.100053
-0.0561458
-0.176104
-0.145104
-0.114956
-0.14046
-0.170827
-0.263815
-0.250059
-0.290104
-0.277582
-0.31991
-0.228383
-0.204156
-0.289409
-0.285499
-0.321481
-0.201414
-0.247322
-0.189874
-0.331412
-0.290933
-0.294866
-0.214249
-0.25929
-0.207617
-0.0362281
0.0451813
-0.0467053
-0.0844846
0.113101
-0.0266592
-0.0310597
-0.286663
-0.249891
-0.184741
-0.211087
-0.214218
-0.200473
-0.150385
-0.0448752
-0.0950457
-0.134735
-0.0356372
-0.0680414
0.118091
-0.193842
-0.154267
-0.174603
-0.122327
-0.147002
-0.114634
0.13033
0.0749139
0.266162
0.218945
0.169629
0.246786
0.301558
-0.00438934
0.0773416
0.423469
0.232403
0.215131
0.210549
0.310058
0.0824686
0.176495
0.0583674
0.33677
0.262726
0.203544
0.229785
0.333662
0.382004
0.412826
0.714404
0.397137
0.0475351
0.127354
0.0867527
0.0210653
0.00976058
0.0860168
0.101909
0.086592
0.0957652
0.0991269
0.137867
0.145551
0.0393407
0.0612117
0.013253
0.0232693
0.0864622
0.0564258
0.0715935
0.0818023
0.0688973
0.0406746
-0.367398
-0.360752
-0.363949
-0.367657
-0.406757
-0.39152
-0.401923
-0.260067
-0.296374
-0.34172
-0.323643
-0.309299
-0.328808
-0.349174
-0.374197
-0.377145
-0.356172
-0.40368
-0.394867
-0.408813
-0.341812
-0.372837
-0.359106
-0.369596
-0.370691
-0.391537
-0.167077
-0.205844
-0.0823964
-0.116145
-0.151882
-0.132138
-0.103482
0.0437931
0.0108757
0.0279
0.0126166
0.0630338
-0.0266396
-0.0509186
-0.0252013
0.0101146
0.0468376
-0.062978
-0.0340648
-0.103011
0.115978
0.0560125
0.0524979
-0.0487765
-0.00944673
-0.0531457
0.127713
0.081125
0.114943
0.113763
0.137959
0.128458
0.148969
0.0762597
0.093408
0.13222
0.110767
0.123137
0.106752
0.125912
0.186169
0.213216
0.175611
0.177966
0.210884
0.205611
0.174249
0.187722
0.156023
0.132545
0.143158
0.153259
0.00961551
0.0189029
0.0736519
0.0586065
-0.0300227
-0.039815
-0.0792143
-0.11221
-0.0560139
-0.135407
-0.096613
-0.16704
0.0076879
0.0664583
-0.130658
-0.144392
-0.173213
-0.11093
-0.126829
-0.0551239
-0.212716
-0.172107
-0.179279
-0.0297918
-0.119571
-0.099567
-0.195218
-0.166787
-0.215323
-0.21129
-0.277287
-0.236853
-0.299405
-0.338582
-0.309788
-0.361313
-0.339013
-0.383255
-0.268773
-0.228073
-0.383134
-0.390554
-0.395699
-0.349674
-0.380321
-0.360067
-0.407804
-0.396547
-0.387548
-0.266916
-0.340165
-0.315688
-0.209014
-0.197356
-0.17835
-0.236857
-0.215717
-0.246417
-0.127622
-0.176745
-0.153841
-0.329813
-0.306557
-0.328982
-0.242368
-0.277263
-0.26922
-0.271978
-0.280713
-0.257375
-0.00115004
-0.0741895
-0.048175
-0.121944
-0.0983033
-0.0560744
-0.175722
-0.138772
-0.193537
-0.227311
-0.212196
-0.179987
-0.135896
-0.157142
-0.0682111
-0.102888
-0.0672729
-0.0826725
-0.026447
0.0924748
0.0752361
0.120201
0.0931052
0.148355
0.052767
-0.0136512
0.136157
0.13162
0.162189
0.0403168
0.084725
0.0444015
0.17847
0.131314
0.128101
0.00521055
0.0691924
0.0233258
-0.151584
-0.188226
-0.0511781
-0.104955
-0.177861
-0.144149
-0.135186
0.154259
0.11091
0.053136
0.0825311
0.105252
0.0605519
0.0126518
-0.15659
-0.097037
-0.115806
-0.121858
-0.10563
-0.162507
0.0319481
-0.030541
0.00757447
-0.030533
-0.010409
-0.0759213
-0.209632
-0.21951
-0.208428
-0.209755
-0.258661
-0.216062
-0.263514
-0.19484
-0.199382
-0.264302
-0.236442
-0.261612
-0.202408
-0.202718
-0.372841
-0.346199
-0.372412
-0.298922
-0.324518
-0.314471
-0.316766
-0.323817
-0.298064
-0.237782
-0.27124
-0.269654
-0.232451
-0.274286
-0.255846
-0.249785
-0.261673
-0.388954
-0.368235
-0.345266
-0.360123
-0.382221
-0.335747
-0.302805
-0.330793
-0.363422
-0.272739
-0.27604
-0.370897
-0.325247
-0.334117
-0.286908
-0.284964
-0.276647
-0.0945853
-0.202868
-0.154941
-0.131994
-0.153753
-0.326789
-0.302146
-0.317546
-0.293531
-0.250091
-0.235614
-0.165147
-0.200491
-0.259422
-0.273835
-0.229569
-0.255281
-0.203654
0.194579
0.267664
0.205964
0.209181
0.211447
0.147426
0.144265
0.175276
0.192624
0.188065
0.0875691
0.159383
0.117707
0.0958386
0.1117
0.203486
0.173455
0.195667
-0.0699045
0.0917479
0.011263
-0.0136253
0.0194876
0.178123
0.154979
0.19965
0.187194
0.151647
0.0658137
0.0263932
0.0411967
0.111346
0.120223
0.140581
0.128859
0.0880036
-0.362014
-0.309346
-0.337576
-0.351466
-0.340621
-0.213474
-0.245614
-0.228182
-0.249685
-0.276227
-0.182134
-0.298725
-0.246735
-0.200662
-0.235224
-0.290989
-0.278828
-0.309772
-0.386788
-0.39719
-0.39372
-0.405521
-0.415717
-0.403263
-0.416152
-0.412167
-0.404088
-0.401606
-0.382157
-0.417727
-0.40563
-0.398783
-0.410993
-0.412747
-0.419336
-0.419003
SCALARS CoVolArea double 1
LOOKUP_TABLE default
0.0295271
0.00816247
0.0328341
0.0357547
0.0200578
0.0186772
0.0151283
0.00861734
0.0141339
0.0225674
0.0267289
0.0396514
0.0435247
0.0266714
0.0254412
0.0245053
0.0261281
0.0218791
0.0202832
0.0193647
0.0448037
0.0496679
0.0251896
0.0228698
0.0446982
0.0328333
0.0443237
0.0588964
0.0278161
0.0456108
0.0228937
0.0246805
0.0435174
0.0388001
0.0540466
0.05226
0.0648373
0.0431281
0.0417777
0.0315163
0.0320663
0.0266027
0.0451247
0.0366155
0.0400849
0.038558
0.0430315
0.0478239
0.0255382
0.025065
0.023148
0.0254106
0.0340224
0.0290244
0.0268154
0.0161627
0.0186596
0.0177583
0.0376021
0.0249307
0.0130977
0.029755
0.0149978
0.0295462
0.0225684
0.0280074
0.0370093
0.00955042
0.0206883
0.0413886
0.0332128
0.0254983
0.0494962
0.0464028
0.0500623
0.0539536
0.045081
0.0227762
0.0203108
0.0281578
0.0268122
0.0261025
0.0260032
0.0271159
0.0245095
0.0282706
0.0401607
0.0278872
0.0380998
0.0399508
0.0408705
0.0570794
0.045783
0.0426633
0.0503231
0.0548077
0.0568807
0.0407215
0.0193781
0.0355642
0.0114677
0.0120729
0.0386247
0.0312764
0.0324225
0.0158466
0.0187145
0.0134358
0.0143315
0.0281746
0.0232997
0.0248584
0.0616099
0.051625
0.0581486
0.0314131
0.0424347
0.029127
0.047689
0.0504993
0.0417345
0.0660525
0.051246
0.038164
0.0629697
0.057222
0.0610829
0.0519757
0.0560473
0.0460382
0.0414289
0.0557367
0.0418511
0.0447525
0.0351162
0.0430409
0.0423444
0.0290982
0.0380738
0.030665
0.0352138
0.0315058
0.0432173
0.0245517
0.0276624
0.0271069
0.0279068
0.0330491
0.0329936
0.0303357
0.0513757
0.0444834
0.0519015
0.0408257
0.0404278
0.0462976
0.0324138
0.0299584
0.034269
0.0259266
0.0280613
0.0255155
0.0395802
0.0405771
0.0396722
0.0424382
0.0379294
0.0422263
0.0312428
0.0336634
0.0313842
0.0450993
0.0440753
0.0474777
0.033979
0.0395117
0.0303729
0.0456778
0.0445769
0.0460398
0.0212573
0.02245
0.0209987
0.025675
0.0219029
0.0240376
0.0220195
0.0202645
0.0250735
0.0437186
0.0351422
0.0357647
0.0396246
0.035394
0.0285352
0.0338565
0.0316335
0.0294051
0.0213096
0.026398
0.0258098
0.0234061
0.0271869
0.0270329
0.0274769
0.0270662
0.0124093
0.0151038
0.0144603
0.0183775
0.0151053
0.0176784
0.0190653
0.0147273
0.0195161
0.028285
0.0233152
0.0228588
0.0332212
0.0329153
0.0423555
0.0379693
0.0196839
0.0272646
0.0246157
0.00887635
0.0142901
0.0268186
0.0223663
0.0191009
0.0211629
0.0309476
0.0105512
0.0198945
0.0160269
0.0224103
0.0210688
0.0170765
0.0222893
0.0248974
0.030296
0.0454567
0.0394354
0.0369015
0.0331752
0.0321641
0.024218
0.0274699
0.0444678
0.0420747
0.045676
0.0086614
0.00963939
0.0284454
0.0124961
0.0119989
0.013725
0.0188212
0.0366678
0.0332673
0.029034
0.0389852
0.0323573
0.0381794
0.01729
0.0234284
0.0349712
0.0215945
0.0377887
0.0289885
0.0402386
0.0474232
0.0417483
0.0439902
0.0466756
0.0417812
0.0448684
0.0506386
0.0467297
0.0473126
0.0441537
0.046911
0.0461432
0.0443733
0.05129
0.0480989
0.0472006
0.0482637
0.0512437
0.0574439
0.0577322
0.059325
0.0205687
0.0144395
0.0251136
0.0213661
0.023346
0.021776
0.0229953
0.0307663
0.0303752
0.0260388
0.0269983
0.0243026
0.028135
0.0268903
0.0270721
0.0274072
0.0277198
0.0224221
0.0234272
0.0205496
0.0260528
0.026422
0.02768
0.0267339
0.0276392
0.0254153
0.0253705
0.0267208
0.0243534
0.0223294
0.0300964
0.0255079
0.0319072
0.0406029
0.0394178
0.03891
0.0328526
0.0418325
0.0299784
0.0257152
0.0285476
0.0387005
0.0331255
0.0357729
0.0398546
0.0338894
0.0421222
0.0406813
0.0443923
0.0280838
0.0373892
0.0334652
0.0443528
0.0401119
0.0517291
0.0485631
0.0583126
0.0526239
0.0605629
0.0432232
0.0453841
0.048231
0.0443207
0.0419529
0.0459307
0.050572
0.0519031
0.0507605
0.0481309
0.0599747
0.0517709
0.0547639
0.0426012
0.0451618
0.052215
0.0594682
0.0585495
0.0636689
0.0292305
0.0343393
0.0157784
0.0207592
0.0400094
0.0270232
0.0337363
0.0108186
0.00886643
0.0183801
0.00959984
0.0186557
0.00991293
0.0127372
0.025985
0.0335226
0.0268268
0.0391984
0.0364821
0.042408
0.0297829
0.0323295
0.0289617
0.0163665
0.0221045
0.0260951
0.0186423
0.0145622
0.0162809
0.0171642
0.0217245
0.0179834
0.0186528
0.011849
0.00995621
0.0163476
0.0115165
0.0162343
0.0132856
0.0150861
0.0232289
0.0268408
0.023868
0.0222305
0.0251478
0.0250915
0.0232325
0.0238191
0.0230021
0.015911
0.0190216
0.0190546
0.0464789
0.0565948
0.0466798
0.0525136
0.055008
0.0621255
0.0586917
0.0536828
0.0545924
0.0309238
0.0320594
0.0301068
0.0403849
0.0337646
0.0350908
0.0262778
0.0329398
0.0409721
0.0353955
0.0423056
0.0313457
0.050334
0.0460173
0.0515232
0.0392808
0.0440884
0.045016
0.0548791
0.0535158
0.057349
0.0529905
0.0445074
0.0609568
0.0598207
0.0608311
0.059909
0.0693543
0.0337171
0.0394689
0.064611
0.0510868
0.04727
0.0512497
0.0561904
0.0486747
0.0606291
0.0473905
0.0644121
0.0572216
0.0547145
0.0533394
0.055046
0.0594222
0.0673052
0.0684848
0.0716886
0.0502018
0.0496204
0.0617202
0.0559712
0.045917
0.0518211
0.051282
0.0419995
0.0474169
0.0538796
0.0453397
0.042374
0.0495617
0.0582042
0.029326
0.0388432
0.0279768
0.0449293
0.0413584
0.0403315
0.0351199
0.0349456
0.0454919
0.0612725
0.0594211
0.0542785
0.0437533
0.0426464
0.0430155
0.0428584
0.0396635
0.0402216
0.0369523
0.0247582
0.030823
0.0311557
0.0294537
0.0280406
0.0377829
0.0397407
0.0279485
0.0334291
0.0271525
0.0324756
0.0285155
0.0251641
0.0285722
0.0287964
0.0328664
0.0478671
0.0419734
0.0446968
0.0519028
0.0383024
0.0498188
0.0615645
0.0485412
0.0227673
0.027035
0.0243448
0.0248819
0.0250854
0.0272808
0.0307263
0.027799
0.0271005
0.0289958
0.0256542
0.0280668
0.0279877
0.0260304
0.0347833
0.029854
0.0342685
0.0346472
0.0355369
0.03416
0.0338674
0.031756
0.0304446
0.028819
0.0276036
0.0312645
0.0371203
0.0310954
0.0314948
0.029851
0.0277834
0.0274984
0.0363322
0.0337467
0.0336149
0.0493574
0.0614751
0.0559457
0.0476863
0.047708
0.0397251
0.0439979
0.0405245
0.042907
0.0452927
0.0400638
0.0571584
0.0514667
0.0462834
0.0467605
0.0507461
0.0525304
0.0510583
0.0344504
0.0396363
0.0341645
0.0388297
0.0451282
0.0419127
0.042013
0.0404105
0.0413492
0.0396396
0.0438897
0.0497006
0.044129
0.0435463
0.0424771
0.0434181
0.0446356
0.0492616
0.0301627
0.0325656
0.0287058
0.0280333
0.0316142
0.0306077
0.030187
0.0288377
0.0298083
0.0310004
0.0162987
0.0311148
0.0248569
0.0243717
0.0317819
0.0344332
0.0347542
0.0362227
0.0271487
0.0279357
0.025814
0.0239461
0.0235527
0.0258916
0.026322
0.0243204
0.0264369
0.0286652
0.0178413
0.0245177
0.0227521
0.0207299
0.0245654
0.0297499
0.0287404
0.0272075
SCALARS SignedDistance double 1
LOOKUP_TABLE default
1.11513
1.18688
-0.0114203
0.0205964
-0.00266587
1.19277
0.00742379
1.40402
0.0209701
-0.00944656
1.28197
-0.0159807
-0.0231003
0.168421
1.11062
1.29959
0.0548572
0.057828
1.15993
0.513471
0.00107994
-0.0302017
0.0101884
0.0208206
0.0226423
0.519242
-0.0179235
-0.0389431
1.31347
1.10731
0.970376
1.26987
0.0168915
0.0131121
0.00933783
-0.0173041
0.000535229
-0.00543551
-0.00978083
0.334846
0.0567198
0.0157908
0.249068
0.0117414
0.0563206
0.00253294
-0.00488968
-0.0042815
1.21573
0.487358
1.12244
1.02686
0.0365811
1.17845
1.27271
0.0814841
1.06251
1.244
0.871047
1.15909
0.398929
0.0173003
1.29687
1.09641
1.22407
-1.01435
0.0721402
1.2187
0.103708
0.0377829
0.0131075
1.00158
0.00181417
0.350069
0.147571
-0.00186348
-0.00444432
1.09916
1.1623
0.0507068
0.0931575
0.0354097
0.0311105
0.0209989
1.13394
1.07819
0.739136
0.337057
0.00325088
0.894047
1.07773
-0.0634893
0.00230659
0.0187915
-0.000780908
1.11544
0.00761329
0.905479
1.42268
1.20401
1.49503
1.42121
0.0326834
1.25523
0.726487
1.23582
1.39562
1.2586
1.2558
0.31646
1.1729
0.0317438
0.0354873
0.0240965
0.00854092
0.00667606
0.000358698
0.0236146
-0.00177095
-0.00831881
-0.0398812
0.00490624
9.05671e-05
0.27985
-0.00163527
0.0113648
0.000136767
-0.0186846
-0.000333718
0.0122655
0.00158246
4.2953e-05
-0.0130455
0.000411152
0.00300393
-0.0072094
-0.0228118
0.0191674
0.0251761
0.00962535
-0.00142561
0.03223
-0.0173657
0.0168883
0.00667739
1.02953
0.000351769
0.0229604
-0.0120242
0.221322
-0.0237965
1.08678
-0.00690451
0.864654
1.10432
0.0199825