# vtk DataFile Version 4.2
vtk output
ASCII
DATASET POLYDATA
POINTS 642 double
-2.03455 4.89162 -0.0392866
1.35631 4.8643 -0.0377019
-2.0451 -0.654089 -0.0278818
1.39277 -0.655072 -0.0260726
-0.327072 0.415633 2.7375
-0.33998 3.80274 2.68616
-0.324957 0.436514 -2.75665
-0.341403 3.8467 -2.80844
2.39407 2.12203 -1.70136
2.41729 2.11033 1.66104
-3.0756 2.1386 -1.73111
-3.0913 2.12722 1.67656
-2.95892 3.7551 0.975885
-1.95651 3.12576 2.58975
-1.32463 4.73142 1.58198
0.646969 4.70934 1.55631
-0.324193 5.36454 -0.0311241
0.662221 4.74844 -1.64675
-1.34396 4.79154 -1.67517
-1.97052 3.14691 -2.67794
-2.97778 3.77251 -1.04553
-3.56731 2.12851 -0.0255962
1.26518 3.10911 2.54481
2.25849 3.71396 0.958129
-1.9448 1.12132 2.58745
-0.33252 2.11706 3.17463
-2.95176 0.498497 -1.02942
-2.95105 0.497979 0.976315
-0.336521 2.14124 -3.23184
-1.92773 1.14052 -2.60754
2.23412 3.71716 -1.00718
1.26102 3.11818 -2.61103
2.32684 0.488823 0.983104
1.2885 1.11607 2.58153
0.685779 -0.515852 1.60368
-1.33929 -0.520872 1.60172
-0.325806 -1.12283 -0.0284768
-1.33095 -0.502711 -1.64609
0.680405 -0.503205 -1.65171
1.27652 1.1249 -2.61949
2.31761 0.493972 -1.03431
2.92395 2.10814 -0.0271736
-2.57156 4.41565 0.483178
-2.24179 4.35543 1.34462
-1.73393 4.91132 0.795564
-2.61346 2.64763 2.22274
-2.5639 3.51139 1.88066
-3.13617 2.97192 1.38035
-0.840871 4.3453 2.23069
-1.7139 4.02675 2.19659
-1.15677 3.53221 2.75127
-0.858439 5.19666 0.809467
-1.22571 5.23637 -0.0351794
0.169998 4.32543 2.19152
-0.329841 4.84782 1.64384
0.54726 5.24277 -0.0351954
0.193376 5.18829 0.810258
1.05274 4.89906 0.794485
-0.860027 5.21447 -0.888361
-1.75846 4.96067 -0.891079
1.07323 4.91154 -0.853569
0.19043 5.21468 -0.885576
-0.849 4.40293 -2.34622
-0.345303 4.88788 -1.74391
0.176407 4.36434 -2.30768
-2.26168 4.38924 -1.42743
-2.59012 4.43839 -0.553126
-1.18713 3.55559 -2.85965
-1.72619 4.06432 -2.2923
-3.14524 2.98468 -1.44885
-2.58698 3.53008 -1.96211
-2.61779 2.66218 -2.29054
-3.09205 3.84058 -0.0309381
-3.43336 2.13219 -0.908631
-3.41294 2.98686 -0.559187
-3.41779 2.98003 0.49883
-3.45152 2.13079 0.874741
1.54103 4.31368 1.32089
1.85977 4.36369 0.468962
0.49664 3.49616 2.71357
1.02294 3.98568 2.14477
2.44349 2.95093 1.36134
1.86579 3.47882 1.83796
1.92769 2.63056 2.19573
-1.17873 2.65298 3.03876
-0.340534 2.99294 3.03885
-2.61516 1.61688 2.21563
-2.03809 2.12463 2.71891
-0.325307 1.22824 3.066
-1.17736 1.59745 3.0197
-1.1593 0.706728 2.77703
-3.40536 1.27618 0.499099
-3.12673 1.29901 1.38619
-3.10505 1.29017 -1.41931
-3.40494 1.27697 -0.552349
-2.58717 -0.165786 0.496547
-3.09027 0.416407 -0.0297285
-2.58796 -0.164123 -0.549514
-2.03098 2.13852 -2.78926
-2.58129 1.62221 -2.25243
-0.334426 3.03873 -3.16097
-1.1908 2.67077 -3.13127
-1.14623 0.725737 -2.79256
-1.17399 1.61909 -3.06861
-0.325533 1.23992 -3.09327
1.02788 4.023 -2.2421
0.483968 3.53084 -2.79862
1.88905 4.38265 -0.548656
1.55134 4.33623 -1.39217
1.90647 2.63322 -2.23612
1.85514 3.48343 -1.89659
2.42775 2.94777 -1.41109
1.94513 -0.184165 0.490179
1.59415 -0.129722 1.35625
1.10301 -0.696779 0.808639
1.94335 1.59339 2.20731
1.92053 0.738546 1.88513
2.48898 1.26535 1.38298
0.188607 -0.128072 2.26873
1.05372 0.205958 2.20492
0.502779 0.714275 2.76472
0.203706 -0.972009 0.827646
0.58395 -1.00949 -0.0273517
-0.853421 -0.141687 2.25707
-0.326513 -0.653629 1.69089
-1.22098 -1.01212 -0.0270653
-0.858147 -0.979764 0.833843
-1.74723 -0.694518 0.823697
0.203807 -0.968785 -0.883959
1.08794 -0.687295 -0.87042
-1.74935 -0.69216 -0.862847
-0.859982 -0.967765 -0.877264
0.186978 -0.11061 -2.30461
-0.330141 -0.63695 -1.72987
-0.839144 -0.114396 -2.30946
1.58614 -0.119529 -1.40247
1.94156 -0.179815 -0.54488
0.506845 0.726539 -2.79059
1.05011 0.226198 -2.24915
2.47823 1.26931 -1.43001
1.90244 0.749902 -1.92412
1.92362 1.59923 -2.24432
2.46363 0.404959 -0.0277229
2.7793 2.10985 -0.903119
2.78221 1.26719 -0.555396
2.78617 1.25552 0.504172
2.78359 2.11816 0.866663
0.516615 1.59055 3.03025
1.36116 2.12333 2.69813
0.510715 2.63575 3.01489
-2.25065 -0.126996 1.3649
-1.71608 0.203553 2.21489
-2.56847 0.735676 1.89066
-1.70092 0.222689 -2.24644
-2.24074 -0.113609 -1.41065
-2.54154 0.754894 -1.9096
1.34438 2.12497 -2.72924
0.505864 1.60203 -3.05592
0.499994 2.65314 -3.04572
2.73033 2.95778 0.493111
2.71221 2.96046 -0.543713
2.38559 3.79788 -0.0278988
-2.31278 4.6781 0.218626
-2.18408 4.69007 0.654931
-1.89854 4.92129 0.373349
-2.62988 4.07828 1.17314
-2.42759 4.40623 0.93029
-2.79629 4.09538 0.738084
-1.54263 4.84821 1.19784
-2.00627 4.65829 1.08722
-1.79428 4.57641 1.48613
-2.87802 2.3907 1.9709
-2.90691 2.82342 1.83069
-3.14306 2.55468 1.54414
-2.27799 3.33474 2.26801
-2.61524 3.08727 2.07231
-2.30571 2.89307 2.42931
-3.07479 3.37417 1.188
-2.87662 3.25496 1.65083
-2.79719 3.64548 1.44352
-0.582744 4.08591 2.48753
-1.02617 3.96413 2.52307
-0.737517 3.68708 2.7438
-1.53904 4.40882 1.91303
-1.28598 4.21361 2.23496
-1.10368 4.56838 1.92156
-1.56057 3.34596 2.7008
-1.45737 3.79275 2.50106
-1.84663 3.59676 2.42566
-2.43504 3.95515 1.63316
-2.15795 3.79362 2.06739
-2.00129 4.21873 1.79589
-1.48232 5.10912 0.389595
-1.64263 5.093 -0.0441141
-1.09408 4.98762 1.21125
-1.30373 5.07635 0.813916
-0.782003 5.33029 -0.0311203
-1.04327 5.24957 0.392259
-0.588723 5.31973 0.396505
-0.0840442 4.08325 2.46349
-0.333142 4.36727 2.23803
0.164055 4.81741 1.62319
-0.0731163 4.61072 1.93706
0.417564 4.53819 1.88641
-0.592492 4.62299 1.95265
-0.841936 4.82541 1.63581
0.983613 5.06916 -0.0329476
0.818348 5.11121 0.388016
1.22491 4.90102 0.369548
-0.0683003 5.3253 0.392531
0.381419 5.24529 0.393852
0.111476 5.33854 -0.0357968
0.867464 4.82408 1.17602
0.634271 5.07898 0.810588
0.43465 4.97941 1.20232
-0.602617 5.0673 1.24738
-0.0652405 5.05709 1.24606
-0.337124 5.24291 0.821094
-1.50127 5.1467 -0.468653
-1.91692 4.95479 -0.472183
-0.589736 5.32708 -0.460609
-1.05397 5.25935 -0.470146
-1.56493 4.90722 -1.28326
-1.32843 5.12999 -0.905452
-1.11718 5.04967 -1.30303
1.22843 4.92223 -0.456406
0.828475 5.11264 -0.454752
0.43743 5.01775 -1.28278
0.643664 5.09107 -0.883209
0.874294 4.8598 -1.27397
0.3825 5.25701 -0.459286
-0.0670137 5.33331 -0.466381
-0.588051 4.13831 -2.60887
-0.345664 4.42463 -2.35759
-0.0842294 4.12122 -2.5899
-0.856172 4.88024 -1.73939
-0.600211 4.68303 -2.06438
-1.11568 4.62325 -2.02669
0.43035 4.57552 -1.99328
-0.081904 4.65758 -2.04413
0.180447 4.84873 -1.70704
-0.33717 5.25566 -0.898897
-0.0613953 5.08835 -1.32318
-0.612746 5.09093 -1.3353
-2.20148 4.73217 -0.733318
-2.34006 4.68408 -0.306842
-1.81707 4.62496 -1.57237
-2.02686 4.70193 -1.1711
-2.80861 4.1299 -0.805413
-2.45643 4.43427 -1.00626
-2.65167 4.10568 -1.25097
-0.768902 3.72013 -2.86659
-1.0273 4.00878 -2.63614
-1.86851 3.62199 -2.51571
-1.4631 3.82763 -2.60294
-1.59018 3.3619 -2.79407
-1.29939 4.2596 -2.33999
-1.55392 4.45283 -2.00891
-3.13964 2.54894 -1.61352
-2.91716 2.83212 -1.89485
-2.8838 2.39145 -2.02158
-2.81411 3.66475 -1.52036
-2.89679 3.26888 -1.72472
-3.08788 3.38751 -1.2595
-2.31967 2.90662 -2.50833
-2.62924 3.1059 -2.15021
-2.30056 3.35398 -2.35461
-2.01833 4.25267 -1.88449
-2.18224 3.81948 -2.15633
-2.45308 3.98096 -1.71593
-2.61246 4.44444 -0.0361278
-3.06505 3.82541 -0.547134
-2.86927 4.15576 -0.298644
-2.86487 4.14043 0.229135
-3.05897 3.81705 0.483774
-3.27833 2.13659 -1.32857
-3.32638 2.56515 -1.19428
-3.52492 2.56061 -0.295706
-3.45598 2.56481 -0.744351
-3.52913 2.12927 -0.472053
-3.31411 2.99601 -1.01622
-3.23262 3.38979 -0.816173
-3.33555 2.55801 1.13802
-3.30381 2.12728 1.2794
-3.22376 3.3897 0.749546
-3.30776 2.98584 0.949154
-3.54276 2.13093 0.431378
-3.46743 2.55796 0.685768
-3.53571 2.56047 0.238376
-3.29066 3.42622 -0.301767
-3.45776 2.99604 -0.0280291
-3.29328 3.42478 0.236858
1.48489 4.65368 0.642082
1.633 4.64156 0.219884
1.10607 4.52809 1.4507
1.30727 4.62138 1.06399
2.07701 4.05446 0.718329
1.72603 4.3589 0.910743
1.92005 4.03113 1.15198
0.0789801 3.66041 2.71798
0.342844 3.93128 2.47655
1.16225 3.56343 2.38532
0.771926 3.75515 2.45052
0.89381 3.31292 2.65934
0.608484 4.17344 2.18508
0.847076 4.37083 1.87511
2.45023 2.52821 1.52956
2.2181 2.79881 1.80327
2.1998 2.37297 1.93623
2.0976 3.61448 1.42008
2.17706 3.22785 1.61592
2.37674 3.34642 1.17131
1.62092 2.87348 2.38518
1.92303 3.06191 2.04194
1.58685 3.30533 2.22082
1.30583 4.18025 1.76292
1.46561 3.75525 2.0193
1.73563 3.92114 1.60657
-0.755446 3.27761 2.93688
-0.341637 3.41228 2.89323
-1.57971 2.90188 2.84969
-1.19086 3.09555 2.9271
-0.331077 2.5752 3.13215
-0.768368 2.82941 3.07643
-0.757754 2.39094 3.14098
-2.87478 1.86229 1.9692
-2.63885 2.13022 2.25533
-2.01347 1.61787 2.6807
-2.34076 1.86814 2.49949
-2.29452 1.35363 2.42256
-2.34213 2.39279 2.50197
-2.01984 2.63076 2.68819
-0.327764 0.798031 2.93
-0.755859 0.95046 2.96097
-0.737001 0.542515 2.7859
-0.759701 1.85479 3.13773
-0.751691 1.41331 3.07578
-0.329582 1.67322 3.15408
-1.56547 0.896472 2.71669
-1.18278 1.14012 2.91888
-1.57577 1.35261 2.83953
-1.62791 2.38926 2.9181
-1.61909 1.86524 2.91651
-1.19699 2.12343 3.07792
-3.33038 1.70366 1.13751
-3.13753 1.69978 1.54229
-3.53008 1.70153 0.23739
-3.45924 1.69902 0.68499
-3.06629 0.890863 1.19471
-3.29449 1.27056 0.947825
-3.21453 0.871802 0.748084
-3.11132 1.70956 -1.58514
-3.3085 1.7046 -1.18062
-3.20609 0.875557 -0.796387
-3.28636 1.27582 -0.998324
-3.04881 0.883763 -1.23204
-3.45062 1.69928 -0.738368
-3.52178 1.69757 -0.294092
-2.32757 -0.447763 0.227107
-2.61628 -0.196318 -0.0266344
-2.32727 -0.446016 -0.28233
-3.04793 0.435692 0.478597
-2.86852 0.102614 0.235838
-2.79461 0.146048 0.745339
-2.7954 0.140455 -0.795871
-2.86623 0.104807 -0.291696
-3.05829 0.435995 -0.540209
-3.44559 1.26441 -0.0277194
-3.28562 0.83009 -0.295211
-3.28087 0.829487 0.238646
-2.63228 2.13893 -2.30857
-2.85442 1.87745 -2.01234
-2.02046 2.65007 -2.77124
-2.3459 2.40353 -2.56531
-2.2766 1.38151 -2.45289
-2.331 1.87917 -2.548
-1.99803 1.63466 -2.733
-0.342443 3.44878 -3.01905
-0.760809 3.30654 -3.05983
-0.770259 2.41094 -3.23234
-0.763628 2.85659 -3.18657
-0.345112 2.58923 -3.23448
-1.19269 3.12194 -3.03561
[...]
POINT_DATA 642
SCALARS Mean_Curvature double 1
LOOKUP_TABLE default
0.654739
0.724977
0.672114
0.618583
0.700571
0.721444
0.616361
0.711249
0.553447
0.606016
0.662061
0.635199
0.637093
0.632178
0.598229
0.674321
0.591096
0.669204
0.644292
0.633809
0.682248
0.601358
0.561063
0.687167
0.484976
0.582559
0.675646
0.548023
0.578822
0.437972
0.437325
0.723527
0.626643
0.590208
0.641891
0.595449
0.533454
0.587891
0.639819
0.647542
0.619659
0.727986
0.606086
0.6293
0.585776
0.620177
0.622343
0.609401
0.598568
0.650076
0.619132
0.654449
0.533935
0.503511
0.521033
0.703677
0.576553
0.738658
0.454563
0.698746
0.575573
0.676262
0.676729
0.506168
0.491598
0.594783
0.655248
0.610223
0.629914
0.652903
0.649335
0.60184
0.588964
0.539015
0.559413
0.592297
0.667967
0.652781
0.406797
0.630808
0.52794
0.670822
0.531565
0.668922
0.656495
0.487565
0.63696
0.607132
0.541488
0.442581
0.673976
0.572898
0.591586
0.557501
0.645873
0.554962
0.621563
0.592742
0.664541
0.437582
0.738589
0.662624
0.603803
0.491435
0.596339
0.66015
0.482135
0.753056
0.569118
0.647178
0.525124
0.672347
0.639025
0.602661
0.637235
0.5951
0.643321
0.644138
0.609732
0.599879
0.615648
0.578941
0.675745
0.577592
0.663424
0.585423
0.640938
0.570975
0.647812
0.583446
0.679927
0.554801
0.615743
0.59367
0.658028
0.600253
0.63832
0.599759
0.616075
0.74474
0.590141
0.609693
0.619286
0.613112
0.642647
0.669843
0.584713
0.602688
0.576722
0.681466
0.683444
0.592811
0.73279
0.612178
0.670461
0.516095
0.544265
0.594243
0.313694
0.648524
0.53719
0.683719
0.52068
0.61113
0.511633
0.617202
0.619329
0.604164
0.596428
0.635289
0.603563
0.622661
0.650943
0.618557
0.616967
0.617546
0.628391
0.605094
0.637714
0.609259
0.610238
0.696668
0.616432
0.653893
0.601415
0.669178
0.619332
0.651257
0.611128
0.620253
0.609794
0.63734
0.509954
0.576741
0.475658
0.545896
0.58718
0.644379
0.591044
0.634079
0.61075
0.747697
0.504077
0.503208
0.580226
0.651877
0.569672
0.715692
0.563488
0.701582
0.561827
0.675948
0.55434
0.726884
0.583299
0.669847
0.584141
0.709589
0.732495
0.669543
0.554842
0.51393
0.634133
0.798506
0.734915
0.759724
0.604861
0.677092
0.57695
0.682144
0.591111
0.684341
0.671652
0.718941
0.654405
0.733942
0.705706
0.669437
0.561639
0.525282
0.567475
0.632585
0.569755
0.488791
0.696948
0.618916
0.629299
0.606479
0.684882
0.645451
0.647255
0.666397
0.669259
0.586647
0.598065
0.585981
0.610038
0.595872
0.686766
0.628164
0.668451
0.58154
0.701106
0.607243
0.653443
0.638438
0.667622
0.589834
0.640768
0.583577
0.577359
0.574511
0.617176
0.555204
0.636318
0.4517
0.627593
0.543972
0.566388
0.565585
0.71371
0.626565
0.666034
0.609325
0.647136
0.598074
0.65393
0.574996
0.650228
0.511826
0.645606
0.574067
0.503597
0.755356
0.390557
0.545307
0.496666
0.634979
0.492825
0.539862
0.479141
0.727136
0.52114
0.67431
0.497545
0.636457
0.52906
0.676684
0.530671
0.694738
0.519741
0.665322
0.555361
0.695532
0.551541
0.702662
0.535202
0.719093
0.622548
0.657785
0.60771
0.683957
0.498889
0.701316
0.592477
0.6161
0.649743
0.575238
0.635181
0.522392
0.631331
0.617275
0.683383
0.715195
0.678944
0.526718
0.513135
0.662643
0.772856
0.479905
0.496652
0.609892
0.618851
0.71791
0.675966
0.612743
0.648081
0.541161
0.588789
0.541687
0.633147
0.52341
0.603481
0.520774
0.628298
0.533589
0.629794
0.586385
0.655671
0.572314
0.679489
0.511628
0.693921
0.611567
0.692545
0.597237
0.67605
0.577703
0.621831
0.548819
0.673398
0.560188
0.642339
0.607145
0.478083
0.638571
0.673146
0.689707
0.683723
0.718013
0.723949
0.749476
0.712858
0.617142
0.590004
0.586608
0.62224
0.371558
0.557423
0.536469
0.462165
0.530371
0.557657
0.60965
0.708383
0.656852
0.485095
0.715578
0.559633
0.633373
0.509826
0.617615
0.528128
0.752367
0.567425
0.746627
0.568752
0.684242
0.571573
0.692536
0.564255
0.664947
0.543906
0.65952
0.457634
0.545092
0.52637
0.629708
0.470619
0.70258
0.56454
0.693082
0.651422
0.596188
0.654179
0.614738
0.64487
0.613613
0.628802
0.587737
0.6251
0.605806
0.621717
0.71233
0.608142
0.660001
0.54532
0.646211
0.648422
0.634478
0.657394
0.576734
0.603334
0.594645
0.628565
0.575881
0.585916
0.601892
0.593242
0.619276
0.624644
0.590615
0.662812
0.602386
0.650505
0.569217
0.572526
0.578733
0.580436
0.605407
0.65911
0.546526
0.653112
0.566371
0.649748
0.553595
0.663499
0.538111
0.637647
0.527626
0.649797
0.600359
0.683544
0.598337
0.692331
0.540939
0.651773
0.567102
0.660163
0.61354
0.602697
0.548127
0.623606
0.564497
0.644117
0.583594
0.67681
0.569091
0.628462
0.562688
0.665886
0.606136
0.607481
0.602737
0.629133
0.600706
0.621415
0.619494
0.656452
0.612396
0.660142
0.582825
0.672518
0.54847
0.656843
0.608034
0.611411
0.592402
0.630618
0.623218
0.632533
0.611555
0.607888
0.634204
0.611417
0.629172
0.638388
0.618932
0.559147
0.670389
0.541655
0.644586
0.626392
0.638419
0.546846
0.663332
0.592337
0.595866
0.586839
0.612446
0.638519
0.619376
0.626763
0.611287
0.624155
0.611262
0.643356
0.739745
0.648196
0.64918
0.657602
0.630585
0.641112
0.658026
0.61678
0.6358
0.609709
0.710146
0.654261
0.618038
0.642755
0.59976
0.569728
0.62303
0.587276
0.63737
0.568236
0.632146
0.574976
0.672782
0.557347
0.635232
0.475111
0.632092
0.53056
0.651853
0.565105
0.65298
0.584105
0.668125
0.67459
0.579812
0.676429
0.578565
0.700433
0.573804
0.713199
0.61047
0.680809
0.602344
0.631489
0.598582
0.536253
0.458459
0.688451
0.580908
0.680987
0.582574
0.674518
0.596334
0.658086
0.652438
0.7377
0.590785
0.683815
0.597795
0.679275
0.568431
0.588306
0.508322
0.597835
0.551522
0.622775
0.578809
0.687901
0.615997
0.564198
0.636932
0.563997
0.647245
0.473448
0.620426
0.524219
0.606133
0.563902
0.619309
0.704553
0.611563
0.588677
0.811513
0.355022
0.627311
0.536496
0.60045
0.518791
0.59353
0.503609
0.663477
0.495282
0.647571
0.553387
0.693126
0.500883
0.593922
0.513454
0.690501
0.4562
0.540874
0.492518
0.67482
0.535209
0.688798
SCALARS Redistribution_Potential double 1
LOOKUP_TABLE default
-5.99913e-12
-1.24825
0.849564
0.41567
0.229408
-0.898216
-0.00727858
-0.225852
-0.838416
-0.792447
0.520668
0.427684
0.239335
-0.13959
-0.524397
-1.23131
-0.643312
-0.745637
0.09841
0.354624
0.507293
0.620071
-1.07151
-1.33781
0.3823
-0.405254
0.686852
0.789715
-0.217273
0.319719
-1.18333
-0.822412
-0.00695903
-0.26687
0.501278
0.805403
0.759095
0.57903
0.275795
-0.441924
-0.126952
-0.785769
0.121067
-0.106215
-0.263175
0.18226
0.0605841
0.340271
-0.750318
-0.357256
-0.53188
-0.612312
-0.296818
-1.09112
-0.910029
-0.979778
-0.98849
-1.27333
-0.227777
0.088567
-1.00934
-0.675047
-0.0216208
-0.287795
-0.455082
0.380458
0.304191
0.12642
0.30873
0.559561
0.506467
0.465894
0.405967
0.606657
0.571645
0.491767
0.552358
-1.37442
-1.33895
-1.05546
-1.24517
-1.13069
-1.24662
-0.990666
-0.318626
-0.679399
0.406127
0.110841
-0.0810941
0.0257938
0.307896
0.706415
0.621038
0.588814
0.676176
0.869245
0.793896
0.801965
0.301244
0.44528
-0.225733
0.084788
0.132792
0.0656367
-0.162444
-0.813945
-0.545207
-1.28069
-1.06667
-0.92149
-1.03231
-1.0805
0.26017
0.289651
0.506351
-0.535412
-0.115132
-0.383306
0.395073
0.175378
-0.0119292
0.706414
0.602838
0.578175
0.680065
0.841814
0.83942
0.889247
0.568382
0.38741
0.759295
0.716848
0.121742
0.445258
0.291596
0.106246
0.18763
-0.226564
-0.0780033
-0.505769
-0.301217
-0.645368
-0.00365663
-0.817647
-0.419288
-0.368018
-0.773714
-0.384887
-0.711942
-0.791581
0.836111
0.641942
0.644914
0.411429
0.662504
0.528721
-0.686329
-0.412605
-0.474893
-1.11721
-1.08505
-1.30952
0.0631262
-0.0629639
-0.124585
0.0806673
0.00544466
0.185185
-0.394051
-0.192693
-0.31309
0.315467
0.260978
0.383858
-0.0403209
0.120421
0.0306368
0.293448
0.207459
0.157226
-0.838974
-0.656173
-0.725638
-0.451111
-0.558456
-0.646451
-0.335009
-0.450816
-0.252856
-0.01601
-0.133337
-0.227579
-0.28621
-0.144396
-0.566543
-0.434072
-0.466588
-0.464094
-0.631033
-1.01129
-0.942082
-1.09862
-1.01929
-1.16993
-0.841393
-0.730222
-1.12305
-1.14855
-1.25343
-0.832921
-0.989153
-0.818464
-1.2474
-1.15377
-1.12686
-0.775194
-0.959917
-0.810131
-0.104078
0.0477341
-0.43892
-0.257513
0.106837
-0.064761
-0.0560469
-1.14178
-0.99419
-0.706895
-0.847954
-0.882533
-0.828769
-0.657813
-0.119011
-0.237896
-0.33615
-0.0858424
-0.152135
0.0569556
-0.59723
-0.369393
-0.523484
-0.449022
-0.476489
-0.237241
0.208542
0.167233
0.256452
0.249892
0.422206
0.355618
0.457235
-0.0379636
0.066105
0.353168
0.227926
0.257939
0.160109
0.227871
0.541544
0.527114
0.492544
0.530402
0.540118
0.552658
0.418668
0.497349
0.446256
0.374778
0.434072
0.476752
0.220229
0.470578
0.358388
0.279435
0.32469
0.579676
0.572823
0.596893
0.592764
0.622311
0.566493
0.54669
0.45596
0.501492
0.377532
0.421134
0.592493
0.522943
0.563262
0.521553
0.54238
0.459223
-1.32672
-1.33188
-1.29277
-1.33299
-1.3529
-1.37686
-1.35881
-0.981061
-1.08785
-1.20161
-1.15836
-1.09126
-1.18395
-1.27012
-0.959235
-1.07083
-0.892629
-1.31732
-1.20171
-1.2569
-1.03738
-1.14453
-1.16949
-1.33828
-1.26721
-1.35409
-0.630592
-0.808196
-0.234461
-0.432105
-0.551975
-0.512282
-0.374836
0.41889
0.287957
0.246875
0.263149
0.401545
0.139069
-0.0168912
0.0751083
0.114236
0.267747
-0.191178
-0.0388045
-0.252396
0.342712
0.171858
0.211872
-0.0881596
0.0589623
-0.156609
0.584071
0.53012
0.654409
0.635973
0.709646
0.676657
0.743927
0.553434
0.595521
0.696371
0.634886
0.638925
0.630177
0.658909
0.867531
0.849321
0.833241
0.814065
0.832684
0.838987
0.744366
0.806695
0.75077
0.714083
0.740438
0.769787
0.436594
0.486585
0.331163
0.391906
0.384193
0.36851
0.288773
-0.218478
-0.0469664
-0.0791003
-0.0651171
-0.226778
0.109179
0.233724
0.0556824
-0.0142646
-0.0983154
0.208589
0.0880299
0.228453
-0.190163
-0.0549247
-0.0793833
0.214404
0.0598678
0.189909
-0.508762
-0.397418
-0.776665
-0.650398
-0.692696
-0.686423
-0.819325
-1.2765
-1.16457
-1.17815
-1.17741
-1.25515
-1.04333
-0.932787
-0.896884
-1.01161
-0.963028
-0.944561
-0.981663
-0.885785
-1.13492
-1.0849
-1.11337
-0.951918
-1.05944
-0.959778
0.349395
0.394684
0.470087
0.153784
0.282203
0.143412
0.516222
0.412671
0.400632
-0.667668
-0.465234
-0.594652
-0.192723
-0.325426
-0.403732
-0.183264
-0.248531
-0.0463046
0.315257
0.20627
0.11404
0.358044
0.285253
0.465253
-0.13967
0.0824622
-0.0428106
0.113492
0.0389683
0.251188
0.570755
0.519749
0.618966
0.612969
0.686351
0.668056
0.744899
0.418694
0.484509
0.755579
0.633602
0.709223
0.549919
0.604229
0.852504
0.882128
0.879873
0.820115
0.851485
0.808781
0.857795
0.874689
0.833732
0.721336
0.786265
0.792269
0.506549
0.413174
0.675861
0.602067
0.338142
0.48347
0.433252
0.820897
0.805903
0.657026
0.738939
0.684072
0.782152
0.7504
0.0481634
0.212087
0.138954
0.365675
0.286354
0.205411
0.438288
0.371477
0.509463
0.658757
0.593285
0.528146
0.290635
0.311946
0.193891
0.253412
0.0419821
0.152608
-0.00572004
-0.117708
-0.0589889
-0.264631
-0.16649
-0.336904
0.02019
0.108524
-0.68762
-0.5924
-0.743541
-0.211915
-0.404162
-0.311335
-0.542738
-0.489132
-0.382057
0.0240665
-0.180135
-0.0847092
0.23609
-0.0483288
0.100232
0.138926
0.0111228
-0.836281
-0.662506
-0.599463
-0.628971
-0.799695
-0.46088
-0.260253
-0.584687
-0.785437
-0.177691
-0.368879
-0.773376
-0.573902
-0.577497
-0.190892
-0.375608
-0.160797
-0.0604148
-0.335927
-0.203049
-0.241353
-0.412357
-0.77604
-0.907368
-0.862728
-0.634666
-0.497139
-0.876375
-0.606739
-0.748735
-0.941852
-0.941614
-0.553613
-0.760094
-0.59647
0.882193
0.837366
0.870298
0.866799
0.817053
0.455862
0.508694
0.489289
0.608988
0.740432
0.528005
0.737363
0.640777
0.540744
0.522105
0.772485
0.654085
0.768429
0.1971
0.495185
0.348347
0.270413
0.337984
0.792261
0.680069
0.743807
0.715163
0.634795
0.512067
0.426815
0.46826
0.560553
0.610276
0.559217
0.589248
0.479299
-0.798168
-0.584941
-0.689436
-0.814852
-0.75878
-0.21888
-0.321732
-0.291282
-0.336801
-0.453074
-0.390021
-0.666389
-0.536306
-0.377703
-0.330694
-0.554976
-0.459823
-0.620827
-0.95704
-0.95382
-0.95074
-1.1293
-1.23509
-0.978832
-1.16629
-1.09792
-0.95878
-0.956495
-1.31804
-1.33411
-1.32896
-1.30448
-1.24494
-1.11081
-1.20001
-1.24558
SCALARS CoVolArea double 1
LOOKUP_TABLE default
0.159621
0.153955
0.154861
0.160541
0.154531
0.152597
0.150485
0.15845
0.151694
0.159444
0.158245
0.163647
0.208413
0.212278
0.207334
0.205564
0.207647
0.207082
0.213584
0.212678
0.214503
0.211136
0.20398
0.2055
0.210697
0.209094
0.209517
0.212921
0.208812
0.209691
0.206428
0.204755
0.212945
0.209886
0.212744
0.213428
0.214335
0.213596
0.210265
0.207991
0.211067
0.208339
0.20335
0.220643
0.200511
0.198612
0.22171
0.20083
0.19945
0.218584
0.198464
0.217984
0.198827
0.194939
0.217245
0.199727
0.218759
0.196153
0.223077
0.199451
0.197456
0.220483
0.203504
0.224485
0.20191
0.225572
0.199492
0.202806
0.225444
0.202784
0.224364
0.201936
0.223608
0.199982
0.221485
0.221726
0.198165
0.214828
0.195259
0.194768
0.213194
0.197207
0.214892
0.196317
0.218056
0.195523
0.201047
0.218162
0.199385
0.219517
0.199929
0.221741
0.198758
0.199102
0.219686
0.204172
0.221464
0.202412
0.21899
0.197484
0.19594
0.221092
0.199213
0.219928
0.197341
0.216627
0.196836
0.193452
0.21699
0.19651
0.217124
0.194969
0.204333
0.222003
0.202882
0.196506
0.222279
0.200432
0.202875
0.223591
0.202037
0.224117
0.199615
0.200955
0.223014
0.204289
0.222685
0.203598
0.222538
0.200146
0.20067
0.221565
0.201974
0.220791
0.199145
0.221756
0.201006
0.195966
0.21965
0.201147
0.220777
0.198565
0.222275
0.19642
0.223049
0.22316
0.198971
0.21644
0.219158
0.216437
0.222001
0.223472
0.222366
0.219917
0.220141
0.218601
0.216775
0.215117
0.218026
0.216941
0.218042
0.214936
0.194452
0.201295
0.194367
0.217256
0.202045
0.200401
0.199816
0.202952
0.218964
0.197388
0.202188
0.197341
0.2187
0.203018
0.197513
0.198596
0.203075
0.217471
0.188207
0.199631
0.18798
0.21614
0.202033
0.197481
0.198402
0.199924
0.216016
0.243718
0.242235
0.243114
0.199924
0.194761
0.215072
0.200586
0.201438
0.200851
0.215051
0.189398
0.195713
0.209976
0.196464
0.192398
0.201268
0.214298
0.192109
0.199789
0.190953
0.214775
0.199645
0.195973
0.193451
0.196472
0.212582
0.241359
0.2405
0.241537
0.201684
0.19678
0.219551
0.205839
0.200369
0.203345
0.218962
0.187858
0.198777
0.214801
0.203815
0.199287
0.202238
0.216289
0.193585
0.20216
0.194202
0.217827
0.203274
0.202996
0.199943
0.205515
0.219364
0.243804
0.245809
0.246211
0.20177
0.194193
0.224684
0.205977
0.202165
0.205617
0.221665
0.196327
0.204443
0.221475
0.20698
0.201919
0.207661
0.222618
0.195513
0.204941
0.194824
0.221199
0.204603
0.199742
0.200057
0.204842
0.221215
0.249504
0.247933
0.248315
0.202535
0.222246
0.204855
0.205105
0.217792
0.196055
0.203113
0.218896
0.203198
0.198265
0.202609
0.219439
0.200457
0.194006
0.218881
0.203261
0.199651
0.20255
0.218567
0.24615
0.244438
0.246214
0.197226
0.188614
0.213673
0.19721
0.196348
0.197943
0.212922
0.192126
0.198777
0.210581
0.197238
0.190851
0.197658
0.211295
0.193293
0.199031
0.193449
0.210877
0.198415
0.193094
0.194256
0.198697
0.21316
0.235522
0.235648
0.235672
0.198391
0.189732
0.218597
0.199585
0.195681
0.197466
0.216618
0.194917
0.200648
0.218248
0.201896
0.200816
0.19945
0.217209
0.190482
0.20062
0.193493
0.216355
0.202964
0.196962
0.199393
0.201784
0.21841
0.243266
0.242158
0.242513
0.199683
0.193616
0.21883
0.203924
0.201799
0.203735
0.219995
0.196609
0.20067
0.216998
0.201319
0.197328
0.201245
0.217044
0.1956
0.205649
0.196259
0.218981
0.203904
0.1996
0.198984
0.203766
0.218654
0.244229
0.243488
0.244755
0.201992
0.194328
0.21891
0.202898
0.197603
0.201457
0.216264
0.193913
0.201278
0.214995
0.201757
0.196575
0.205144
0.219225
0.188186
0.198291
0.188588
0.217284
0.201565
0.198764
0.197842
0.201688
0.216764
0.243029
0.24322
0.241453
0.199346
0.194009
0.214351
0.200044
0.195974
0.199732
0.213111
0.190237
0.195501
0.211043
0.1965
0.191907
0.202212
0.215002
0.188671
0.197382
0.189995
0.212401
0.198598
0.193307
0.19458
0.197731
0.2142
0.239471
0.238994
0.238925
0.196329
0.205046
0.195097
0.220469
0.205514
0.203147
0.202248
0.204899
0.21893
0.193902
0.199717
0.194329
0.216758
0.200388
0.197318
0.198695
0.203355
0.22162
0.193762
0.202223
0.192161
0.21828
0.203562
0.202389
0.198299
0.204728
0.219344
0.248131
0.248281
0.246558
0.20332
0.194275
0.222211
0.206457
0.201545
0.205149
0.221517
0.196486
0.202915
0.220471
0.204986
0.201074
0.205224
0.22024
0.197072
0.207054
0.196306
0.220124
0.204656
0.199794
0.199764
0.205207
0.220441
0.246897
0.245728
0.246253
0.201694
0.198531
0.220469
0.204455
0.199767
0.204089
0.220045
0.193476
0.203352
0.219397
0.203015
0.199909
0.202897
0.218849
0.191299
0.202002
0.190228
0.218723
0.204045
0.200083
0.200243
0.201937
0.218747
0.245775
0.245465
0.2447
0.202765
0.196921
0.21731
0.202751
0.201913
0.204671
0.219668
0.18878
0.19815
0.213296
0.197775
0.193445
0.203295
0.217101
0.193991
0.201822
0.192711
0.218
0.200409
0.198228
0.194711
0.197491
0.215647
0.244757
0.244391
0.245855
0.203658
0.219278
0.20463
0.207407
0.221313
0.190276
0.199644
0.214569
0.199651
0.196254
0.203966
0.2212
0.20132
0.192891
0.217442
0.20371
0.199108
0.205432
0.218393
0.247639
0.247368
0.245955
0.199635
0.214139
0.198383
0.200112
0.214435
0.200158
0.214119
0.197938
0.199174
0.218452
0.197521
0.213964
0.198082
0.196061
0.211789
0.242968
0.241751
0.239784
0.206278
0.22045
0.203723
0.205114
0.218738
0.204094
0.218992
0.20444
0.203765
0.221211
0.200071
0.220293
0.204339
0.204715
0.217192
0.246796
0.246652
0.245664
0.199458
0.220158
0.201567
0.201051
0.215719
0.203562
0.217664
0.204047
0.204073
0.217836
0.201254
0.217425
0.201007
0.201895
0.215276
0.242356
0.240916
0.242468
0.199308
0.215161
0.197579
0.196339
0.212963
0.197491
0.215226
0.198281
0.198192
0.212383
0.19786
0.213064
0.199596
0.20123
0.216824
0.238751
0.239224
0.238826
0.199143
0.214982
0.198854
0.198214
0.213191
0.198822
0.214396
0.197959
0.200977
0.216398
0.197021
0.212598
0.199252
0.198138
0.212378
0.240564
0.238542
0.2384
SCALARS SignedDistance double 1
LOOKUP_TABLE default
2.9002
3.32436
2.47628
2.47529
2.79426
3.51111
3.08976
2.94849
3.27804
3.10276
3.03632
2.63388
2.68244
2.89333
3.14512
3.5846
2.92999
3.02168
2.51001
2.62276
2.54544
2.76254
3.37599
3.42211
3.01971
3.25604
2.84432
2.71049
3.48249
3.30105
3.49784
3.54982
2.5375
2.96354
2.55613
2.45796
2.74098
2.69789
2.73318
3.22943
2.71781
3.08223
2.82662
2.86269
3.06302
2.70887
2.73953
2.62792
3.30552
2.99582
3.18653
3.12534
2.95141
3.62601
3.42206
3.10102
3.23067
3.45269
2.86596
2.6321
3.09545
2.88595
2.65915
2.87237
3.05551
2.38805
2.65892
2.61735
2.40052
2.7226
2.45841
2.78528
2.75058
2.92183
2.82679
2.66278
2.67901
3.54565
3.54888
3.50813
3.52159
3.26581
3.38456
3.2441
3.1517
3.46706
2.80253
2.87905
3.04104
3.18054
2.93143
2.71364
2.76065
2.96978
2.82582
2.55838
2.7261
2.56616
3.02796
3.18803
3.17137
2.96696
3.19972
3.3807
3.31598
3.25964
3.3374
3.41153
3.26983
3.46806
3.50423
3.41148
2.43573
2.54162
2.50642
3.03913
2.76603
2.80441
2.67312
2.7403
2.88744
2.59438
2.62676
2.59299
2.51985
2.54614
2.60036
2.44309
2.64709
2.622
2.57345
2.60471
2.93825
2.73724
2.89348
2.76004
2.53405
3.17666
2.97031
3.01735
3.02005
3.26913
2.52018
3.17961
2.81189
2.71511
3.06358
3.09373
3.16974
3.33605
2.47871
2.61538
2.79891
2.9698
2.74868
3.06659
3.44018
3.36315
3.59124
3.27722
3.31268
3.47579
2.91977
2.93247
3.03224
2.75597
2.83269
2.73726
3.08961
2.95345
2.99405
2.65676
2.6488
2.61334
2.8029
2.71315
2.78905
2.64942
2.66999
2.69833
3.40798
3.24475
3.35502
3.06538
3.14508
3.21588
3.0319
3.07924
2.93734
2.7884
2.85072
2.91587
3.05563
2.98416
3.21761
3.13891
2.90939
3.02098
3.00042
3.59357
3.49308
3.50743
3.55405
3.62278
3.39248
3.30976
3.2098
3.2728
3.38097
3.06985
3.15783
3.00612
3.51171
3.34079
3.40956
3.26464
3.32241
3.14971
2.88029
2.77482
2.85686
2.89085
2.53429
2.75497
2.68752
3.19624
3.07611
2.93616
2.97738
3.04522
2.97098
2.89613
2.79367
2.90169
3.03996
2.71035
2.78995
2.55642
3.02177
2.94904
2.92061
2.81941
2.8451
2.85119
2.62091
2.76352
2.40985
2.47018
2.57857
2.49041
2.43937
2.76715
2.60333
2.46533
2.48922
2.58426
2.47924
2.412
2.88996
2.74023
2.9118
2.46224
2.5661
2.58814
2.69363
2.60981
2.51507
2.35372
2.39215
2.37456
2.8242
2.69315
2.74187
2.77154
2.69202
3.02556
2.93356
2.79244
2.87862
2.83446
2.79733
2.70928
2.6259
2.63227
2.64593
2.6365
2.70482
2.68385
2.70802
2.76022
2.72185
2.67682
3.53262
3.48141
3.58706