# vtk DataFile Version 4.2
vtk output
ASCII
DATASET POLYDATA
POINTS 642 double
-1.72458 4.36052 -0.0798201
0.964887 4.29448 -0.0662005
-1.73952 -0.163279 -0.0231065
1.09436 -0.165242 -0.0178297
-0.336712 0.71292 2.20235
-0.391768 3.42206 2.08376
-0.326699 0.758136 -2.17436
-0.399079 3.53094 -2.29125
1.82385 2.08659 -1.31891
1.8673 2.06053 1.30334
-2.53826 2.17601 -1.40265
-2.5797 2.12866 1.35406
-2.47372 3.44429 0.784587
-1.66665 2.92458 2.07086
-1.14838 4.18928 1.2512
0.398363 4.14525 1.16801
-0.328336 4.72724 -0.0473858
0.432956 4.23514 -1.32018
-1.18709 4.33208 -1.40265
-1.68583 2.99288 -2.20233
-2.50087 3.49258 -0.885723
-2.95012 2.13245 -0.0143282
0.917022 2.86487 1.97447
1.69292 3.32905 0.74117
-1.64018 1.2847 2.07028
-0.346081 2.08897 2.49707
-2.43716 0.786251 -0.818308
-2.45166 0.778939 0.793674
-0.378704 2.18658 -2.53585
-1.6084 1.34191 -2.05809
1.65121 3.37143 -0.78722
0.887808 2.91974 -2.03443
1.86027 0.767058 0.797386
0.969809 1.27918 2.05232
0.506325 -0.0475789 1.3045
-1.16985 -0.063849 1.3067
-0.331929 -0.52936 -0.0263882
-1.14649 -0.0222304 -1.32576
0.493179 -0.0178869 -1.33049
0.93722 1.29857 -2.04998
1.83726 0.778893 -0.828566
2.27217 2.04522 -0.019618
-2.15003 3.98558 0.366541
-1.89645 3.91087 1.07055
-1.48001 4.35291 0.607307
-2.19573 2.54632 1.78848
-2.15308 3.24367 1.51378
-2.61952 2.81089 1.11531
-0.769011 3.85903 1.75608
-1.47026 3.63698 1.74968
-1.01272 3.24077 2.17194
-0.762761 4.5758 0.611453
-1.07918 4.62554 -0.066622
0.0208254 3.83202 1.67961
-0.356755 4.2727 1.25781
0.340325 4.61811 -0.055402
0.0656103 4.56021 0.602194
0.713355 4.31619 0.577878
-0.794171 4.63214 -0.758167
-1.51927 4.44888 -0.773497
0.766092 4.3548 -0.67362
0.0647749 4.61325 -0.726722
-0.778334 3.99194 -1.95235
-0.396429 4.36729 -1.44458
0.0217971 3.92678 -1.87828
-1.93757 4.00684 -1.1965
-2.17187 4.03245 -0.481874
-1.05572 3.31927 -2.36621
-1.49557 3.74262 -1.90954
-2.61937 2.86135 -1.19905
-2.19572 3.3029 -1.63299
-2.19204 2.60556 -1.87095
-2.58111 3.52814 -0.0421755
-2.83481 2.14598 -0.731166
-2.83092 2.8433 -0.469876
-2.84379 2.81923 0.403582
-2.86044 2.13594 0.725931
1.1151 3.80833 1.00657
1.3482 3.88255 0.332433
0.304308 3.15687 2.09969
0.722913 3.54843 1.64081
1.85903 2.74002 1.05838
1.39102 3.1566 1.41586
1.45459 2.48472 1.71482
-1.03852 2.54326 2.40434
-0.38121 2.7847 2.3764
-2.20125 1.72471 1.77465
-1.73129 2.12372 2.17137
-0.326414 1.36168 2.43025
-1.02853 1.68597 2.39728
-0.996141 0.934221 2.22787
-2.82136 1.43491 0.40522
-2.60105 1.47093 1.12927
-2.56056 1.45104 -1.12539
-2.80877 1.4348 -0.438915
-2.17275 0.230976 0.407063
-2.56334 0.718712 -0.0285355
-2.17285 0.24044 -0.447049
-1.70325 2.18703 -2.24998
-2.13369 1.75602 -1.80022
-0.392198 2.91538 -2.53362
-1.04787 2.62185 -2.5351
-0.962979 0.981429 -2.19653
-1.0212 1.76351 -2.42077
-0.330191 1.39823 -2.41713
0.706318 3.6468 -1.77386
0.24576 3.27071 -2.23046
1.37103 3.90966 -0.451262
1.12056 3.88602 -1.10406
1.4081 2.50421 -1.73842
1.35185 3.19613 -1.48774
1.82504 2.73639 -1.09458
1.5443 0.205385 0.389416
1.25554 0.256622 1.09468
0.86513 -0.198756 0.643129
1.49708 1.65535 1.74188
1.50991 0.973868 1.5089
1.96485 1.38354 1.10028
0.0755943 0.280484 1.84987
0.792448 0.536691 1.7733
0.32232 0.956052 2.21237
0.113 -0.415674 0.677492
0.447557 -0.43531 -0.0219102
-0.767248 0.251568 1.8363
-0.33319 -0.160027 1.38352
-1.07295 -0.450017 -0.0225305
-0.774658 -0.422137 0.689054
-1.5024 -0.200759 0.681327
0.107881 -0.401051 -0.719383
0.835402 -0.181204 -0.701232
-1.50271 -0.187438 -0.682547
-0.775632 -0.406246 -0.707718
0.0770583 0.318914 -1.84459
-0.338836 -0.126384 -1.39399
-0.736173 0.31309 -1.85234
1.23424 0.280608 -1.1171
1.5356 0.21528 -0.43138
0.333218 0.987021 -2.19061
0.779249 0.581406 -1.78748
1.92944 1.38846 -1.11649
1.47044 0.996569 -1.51811
1.45051 1.66666 -1.7493
1.97277 0.698946 -0.0222472
2.14664 2.05391 -0.695646
2.20372 1.39962 -0.436246
2.21578 1.38099 0.406238
2.16024 2.06547 0.693679
0.339974 1.66255 2.39528
1.01164 2.09099 2.1206
0.323004 2.4874 2.35491
-1.90507 0.261986 1.11751
-1.47105 0.53239 1.80533
-2.13599 0.975209 1.52585
-1.43031 0.571693 -1.78978
-1.88447 0.292067 -1.13164
-2.10275 1.00265 -1.5091
0.973955 2.10622 -2.12211
0.314445 1.69184 -2.38404
0.282016 2.56938 -2.39319
2.08698 2.73781 0.383659
2.06539 2.74145 -0.417383
1.7819 3.40528 -0.0239494
-1.93811 4.19689 0.13335
-1.84965 4.1808 0.509404
-1.61641 4.37011 0.250207
-2.21028 3.6973 0.937173
-2.03963 3.96075 0.740823
-2.34591 3.71341 0.587895
-1.32607 4.2942 0.936096
-1.70528 4.14645 0.861312
-1.52635 4.07749 1.18488
-2.40756 2.34195 1.59106
-2.43062 2.69286 1.47976
-2.62437 2.47613 1.24656
-1.91734 3.09788 1.82496
-2.19887 2.89891 1.66779
-1.95069 2.73764 1.94756
-2.56974 3.13674 0.957527
-2.40719 3.03881 1.33356
-2.34788 3.34796 1.16138
-0.564979 3.64063 1.94814
-0.92977 3.56798 1.98472
-0.67988 3.34949 2.14457
-1.32971 3.93503 1.51853
-1.12795 3.77348 1.76835
-0.986872 4.05259 1.50861
-1.33237 3.10244 2.15098
-1.26837 3.4464 1.98439
-1.57195 3.30223 1.93928
-2.05402 3.59351 1.30851
-1.82171 3.46488 1.65851
-1.70211 3.79576 1.43376
-1.26716 4.51838 0.279242
-1.40856 4.51182 -0.0894841
-0.954302 4.39828 0.94616
-1.12492 4.4802 0.624019
-0.710594 4.70204 -0.0500777
-0.910256 4.62837 0.283155
-0.538555 4.68389 0.289552
-0.189485 3.63573 1.8994
-0.376765 3.87048 1.73387
0.0244705 4.23986 1.22482
-0.164285 4.0715 1.48014
0.224871 4.00731 1.42539
-0.57514 4.08646 1.51692
-0.771363 4.25522 1.27347
0.701341 4.45957 -0.0570356
0.544526 4.49784 0.270653
0.86543 4.32167 0.232783
-0.13869 4.68292 0.278266
0.216469 4.61307 0.279162
0.00343243 4.70083 -0.0555575
0.580103 4.25145 0.86368
0.400956 4.46443 0.592717
0.244835 4.37698 0.900962
-0.570267 4.46007 0.951167
-0.142077 4.44637 0.943017
-0.35616 4.60935 0.612975
-1.30205 4.5632 -0.432665
-1.63988 4.42413 -0.442613
-0.547124 4.70903 -0.395355
-0.949609 4.65593 -0.423875
-1.37079 4.42663 -1.07355
-1.18414 4.57015 -0.785446
-1.01494 4.51877 -1.10178
0.872548 4.35134 -0.382407
0.574519 4.51259 -0.38006
0.260021 4.45306 -1.03892
0.42686 4.50719 -0.717381
0.596741 4.31785 -1.02996
0.220733 4.64031 -0.38342
-0.133922 4.70574 -0.395718
-0.574499 3.76291 -2.15457
-0.406331 3.99483 -1.93409
-0.204193 3.73004 -2.11663
-0.812039 4.37685 -1.45348
-0.596636 4.21196 -1.70887
-1.00846 4.18841 -1.68674
0.244989 4.09676 -1.60928
-0.185317 4.17714 -1.67224
0.0589186 4.32609 -1.38019
-0.360482 4.65422 -0.747357
-0.134264 4.52213 -1.07922
-0.611508 4.53527 -1.11771
-1.87025 4.26491 -0.639478
-1.97979 4.20676 -0.301442
-1.56791 4.20467 -1.31895
-1.74174 4.25842 -0.993357
-2.35565 3.78847 -0.686757
-2.08756 4.03153 -0.858082
-2.2501 3.76944 -1.05126
-0.730028 3.44281 -2.35766
-0.923517 3.68395 -2.18605
-1.6117 3.37827 -2.08729
-1.27461 3.54563 -2.1633
-1.37831 3.16601 -2.31062
-1.14508 3.89913 -1.95089
-1.35699 4.0602 -1.67973
-2.59732 2.48995 -1.32568
-2.43708 2.74023 -1.554
-2.40267 2.37277 -1.63099
-2.3817 3.40511 -1.27247
-2.43612 3.08951 -1.43082
-2.58799 3.18134 -1.05657
-1.96626 2.79526 -2.0523
-2.21637 2.96268 -1.77139
-1.95571 3.16048 -1.94989
-1.73944 3.89561 -1.57597
-1.86943 3.53942 -1.7968
-2.09473 3.66884 -1.43497
-2.19027 4.01373 -0.0668014
-2.56095 3.52827 -0.480565
-2.39981 3.79094 -0.273619
-2.40189 3.75895 0.165627
-2.55362 3.49842 0.39028
-2.70661 2.1625 -1.07489
-2.74687 2.51343 -0.97797
-2.91846 2.48787 -0.242052
-2.85787 2.50306 -0.611401
-2.91564 2.13546 -0.37719
-2.74752 2.86112 -0.847858
-2.69347 3.17216 -0.699175
-2.77597 2.47784 0.923306
-2.75185 2.12931 1.03143
-2.68422 3.15747 0.607429
-2.75605 2.82422 0.767971
-2.93316 2.1367 0.363351
-2.88044 2.47654 0.555731
-2.9314 2.48193 0.194952
-2.7415 3.19323 -0.266376
-2.87057 2.83992 -0.0266631
-2.7443 3.18322 0.185373
1.05653 4.10965 0.461443
1.16758 4.10943 0.130419
0.769962 3.99184 1.09864
0.918364 4.07334 0.79276
1.53737 3.61306 0.544195
1.25274 3.85362 0.691735
1.42047 3.58249 0.887947
-0.0445869 3.29809 2.10471
0.172523 3.50833 1.90872
0.82804 3.2095 1.84178
0.525569 3.36118 1.88827
0.621089 3.01519 2.05805
0.388623 3.70262 1.67007
0.569435 3.85857 1.42492
1.87855 2.38961 1.2038
1.68228 2.61714 1.40762
1.69079 2.27342 1.50866
1.56931 3.25375 1.09475
1.64295 2.95859 1.25074
1.79387 3.04773 0.908125
1.21723 2.67243 1.85075
1.44364 2.81901 1.58615
1.17059 3.01562 1.72043
0.937265 3.69942 1.3441
1.07089 3.37087 1.54928
1.27573 3.49579 1.23194
-0.709142 3.02458 2.30233
-0.390264 3.11507 2.24747
-1.35664 2.74671 2.27008
-1.05597 2.88625 2.31481
-0.355869 2.47007 2.45404
-0.725061 2.66879 2.41623
-0.699345 2.32626 2.46752
-2.40223 1.91121 1.58907
-2.21173 2.1328 1.81523
-1.70949 1.70954 2.13984
-1.97115 1.92322 2.00364
-1.92945 1.48781 1.9403
-1.97281 2.34277 2.00688
-1.71865 2.52854 2.14788
-0.335907 1.00168 2.32384
-0.678828 1.13245 2.3452
-0.64849 0.805156 2.23711
-0.690064 1.88862 2.4791
-0.670306 1.52641 2.43844
-0.33531 1.73393 2.48906
-1.32602 1.0883 2.17347
-1.02949 1.28638 2.31654
-1.34779 1.47994 2.25898
-1.39862 2.33261 2.32615
-1.38551 1.91872 2.32629
-1.05505 2.11876 2.43757
-2.76553 1.79181 0.925427
-2.61455 1.77992 1.24476
-2.91998 1.78907 0.192854
-2.86761 1.78577 0.555533
-2.54992 1.12372 0.973753
-2.73406 1.42903 0.768054
-2.66556 1.09704 0.607225
-2.56592 1.80656 -1.26856
-2.72692 1.79283 -0.941696
-2.64751 1.09979 -0.63297
-2.70917 1.43686 -0.792079
-2.51563 1.10536 -0.974468
-2.84408 1.78325 -0.588558
-2.90761 1.78017 -0.234903
-1.95145 -0.0101987 0.17216
-2.19476 0.207727 -0.0223666
-1.95107 -0.00492371 -0.218486
-2.53062 0.725727 0.38548
-2.39248 0.454816 0.189467
-2.33261 0.485361 0.609641
-2.32422 0.484389 -0.637012
-2.39063 0.459265 -0.239783
-2.53043 0.736755 -0.43799
-2.8493 1.42384 -0.022322
-2.71612 1.06382 -0.238572
-2.71827 1.06058 0.191194
-2.18484 2.1831 -1.86635
-2.35584 1.96616 -1.61584
-1.70884 2.59654 -2.25962
-1.96583 2.39826 -2.08304
-1.89455 1.56049 -1.94781
-1.93744 1.97848 -2.04868
-1.66834 1.77819 -2.17931
-0.40181 3.21457 -2.45198
-0.713798 3.11399 -2.49981
-0.729043 2.42441 -2.57608
-0.717748 2.76633 -2.5687
-0.408883 2.56041 -2.56807
[...]
POINT_DATA 642
SCALARS Mean_Curvature double 1
LOOKUP_TABLE default
0.746372
0.902991
0.835951
0.790519
0.961359
0.745006
0.739256
0.961631
0.674995
0.718919
0.710159
0.802039
0.800882
0.842392
0.748909
0.649024
0.798818
0.836598
0.955424
0.815531
0.88902
0.721792
0.703075
0.795118
0.548562
0.679973
0.721349
0.613816
0.379661
0.452308
0.520327
0.745035
0.84355
0.728312
0.788404
0.803154
0.59229
0.758023
0.813448
0.760009
0.838419
0.821002
0.743874
0.800195
0.670572
0.816331
0.801663
0.794106
0.776994
0.853634
0.843126
0.797365
0.66462
0.530581
0.658438
0.923851
0.811065
0.874723
0.603104
0.994918
0.815959
0.855198
0.95232
0.642327
0.63089
0.800056
0.810995
1.00426
0.797743
0.857881
0.924241
0.789665
0.713028
0.643113
0.677051
0.767913
0.824192
0.739258
0.523283
0.683493
0.642984
0.814321
0.704816
0.807714
0.877477
0.587116
0.791753
0.750595
0.718376
0.531382
0.912736
0.697195
0.692034
0.640636
0.759927
0.735733
0.70786
0.818437
0.836098
0.43761
1.00533
0.986737
0.635578
0.439773
0.65208
0.791648
0.587298
0.919097
0.759369
0.706936
0.647979
0.752875
0.822647
0.777984
0.787726
0.719319
0.866657
0.921109
0.755571
0.743048
0.754291
0.71914
0.760885
0.763991
0.814249
0.764118
0.74877
0.776436
0.760904
0.728031
0.854311
0.709436
0.757106
0.757867
0.867921
0.748813
0.828464
0.716779
0.777109
0.938455
0.76968
0.719761
0.812591
0.727071
0.950611
0.976848
0.680666
0.748437
0.732301
0.795519
0.872781
0.83131
0.679934
0.836971
0.859752
0.589237
0.640372
0.662816
0.470453
0.803214
0.67626
0.743643
0.61601
0.731944
0.545092
0.790219
0.772346
0.761137
0.716384
0.767227
0.768374
0.810493
0.835422
0.805783
0.805345
0.809504
0.815231
0.782602
0.815543
0.789971
0.77653
0.87286
0.803655
0.847554
0.803066
0.829049
0.833397
0.884132
0.842891
0.803699
0.808684
0.832349
0.590917
0.553663
0.579036
0.623972
0.729608
0.759225
0.795424
0.517539
0.72235
0.823587
0.569872
0.508556
0.722003
0.765291
0.82982
0.926505
0.780955
0.91713
0.827128
0.900736
0.709118
0.910896
0.779947
0.818712
0.779926
0.907479
0.690286
0.865167
0.682163
0.662193
1.01071
1.05883
1.02903
0.964699
0.856634
0.848567
0.801943
0.875708
0.839651
0.867834
0.948142
0.846991
0.742627
0.940187
0.908929
0.938106
0.704366
0.638965
0.704854
0.744431
0.702291
0.619028
0.904027
0.771962
0.832139
0.930971
0.8457
0.889764
0.890229
0.981286
0.95947
0.797161
0.781963
0.889755
0.901982
0.81449
0.806409
0.815724
0.812122
0.815013
0.968102
0.912705
0.845722
0.84145
0.912081
0.760967
0.832786
0.771854
0.665215
0.710852
0.730742
0.700217
0.784005
0.562496
0.617932
0.657428
0.683454
0.671553
0.811345
0.754011
0.840474
0.796644
0.795452
0.767557
0.805939
0.717222
0.79563
0.638949
0.764575
0.711822
0.570937
0.834679
0.54296
0.552912
0.614952
0.687141
0.655114
0.607417
0.560826
0.79168
0.624123
0.757669
0.56924
0.68059
0.692593
0.811485
0.699651
0.826297
0.714727
0.817982
0.707401
0.813635
0.698334
0.781393
0.69002
0.834722
0.804962
0.553254
0.834323
0.895363
0.633849
0.842843
0.554265
0.799748
0.824507
0.694902
0.780073
0.633761
0.79246
0.786669
0.680125
0.605094
0.953293
0.628919
0.608856
0.729516
0.86529
0.482517
0.507483
0.834592
0.79487
0.889863
0.823234
0.789736
0.755225
0.657517
0.701255
0.667515
0.7196
0.623069
0.672344
0.677618
0.720573
0.66144
0.705443
0.709969
0.822636
0.766589
0.852641
0.617659
0.84812
0.789598
0.939701
0.827922
0.765101
0.72164
0.749875
0.673407
0.803832
0.541306
0.847706
0.796506
0.52504
0.758505
0.71594
1.0782
1.12154
0.917995
1.01268
0.890641
1.10073
0.846188
0.705497
0.686828
0.781053
0.43369
0.605589
0.541921
0.585747
0.567579
0.421557
0.836854
0.925406
0.789684
0.622574
0.819184
0.753512
0.745991
0.748619
0.693558
0.685932
0.935036
0.836699
0.825784
0.775359
0.763049
0.780711
0.872635
0.673896
0.728872
0.682725
0.845235
0.579588
0.633538
0.620498
0.679384
0.498281
0.859574
0.708262
0.803147
0.823935
0.787429
0.81916
0.814074
0.81709
0.815626
0.777868
0.759398
0.770428
0.726544
0.791376
0.849264
0.701244
0.762739
0.692794
0.894437
0.843871
0.877852
0.836263
0.732873
0.79299
0.761715
0.763355
0.735436
0.722957
0.73947
0.713845
0.814187
0.777775
0.747758
0.846491
0.804208
0.779207
0.739842
0.642318
0.669987
0.632401
0.824916
0.849295
0.718805
0.810268
0.69228
0.812343
0.711693
0.826388
0.702013
0.798675
0.582061
0.81368
0.699307
0.860854
0.796623
0.84106
0.674533
0.809688
0.656008
0.794969
0.792433
0.676788
0.710075
0.778356
0.724373
0.794833
0.800267
0.859732
0.730483
0.75787
0.723442
0.811685
0.77657
0.741281
0.771068
0.745106
0.75768
0.777521
0.805891
0.844913
0.810801
0.830607
0.723479
0.823576
0.692941
0.829078
0.799193
0.770857
0.743447
0.833016
0.821128
0.82515
0.741008
0.73745
0.805732
0.770572
0.745899
0.808745
0.801653
0.654997
0.708484
0.672075
0.848901
0.872704
0.939911
0.682151
0.734946
0.752761
0.750051
0.745878
0.757955
0.82314
0.832612
0.81822
0.811047
0.826467
0.734693
0.723939
1.03235
0.853245
0.742573
0.935896
0.906241
0.867131
0.732391
0.835331
0.916205
0.725533
0.967697
0.966637
0.840545
0.975781
0.808538
0.666142
0.76024
0.731433
0.814465
0.694502
0.771947
0.714293
0.797383
0.711868
0.772275
0.577047
0.749473
0.647489
0.727239
0.709918
0.815147
0.745891
0.828442
0.845056
0.775206
0.861618
0.786925
0.896632
0.817866
1.01666
0.93295
0.836219
0.787751
0.768802
0.630493
0.682818
0.610769
0.609024
0.788127
1.02044
0.852273
0.852576
0.779605
0.867173
0.874143
0.759242
0.809461
0.920478
0.837166
0.856355
0.73209
0.646458
0.558775
0.626971
0.631237
0.662339
0.753737
0.915244
0.793987
0.673783
0.738238
0.679383
0.701277
0.576388
0.732677
0.624466
0.659579
0.711526
0.712472
0.92903
0.403221
0.63854
0.858268
0.435784
0.696301
0.599586
0.626835
0.683292
0.747209
0.678943
0.804713
0.695957
0.770971
0.6411
0.77152
0.674913
0.756608
0.605864
0.778394
0.569235
0.588045
0.607433
0.82128
0.665114
0.818769
SCALARS Redistribution_Potential double 1
LOOKUP_TABLE default
-4.05887e-09
-0.892003
0.588641
0.230534
0.14045
-0.611567
0.00246027
-0.117102
-0.6257
-0.622869
0.388879
0.289262
0.154677
-0.111773
-0.38217
-0.85177
-0.480045
-0.532198
0.102248
0.276746
0.364493
0.434699
-0.777655
-0.967393
0.267535
-0.29851
0.496704
0.55114
-0.0813989
0.264527
-0.853303
-0.5515
-0.0883971
-0.245527
0.301599
0.551425
0.50311
0.400471
0.15371
-0.318199
-0.160797
-0.619765
0.0744238
-0.0865255
-0.192101
0.112308
0.0231794
0.224156
-0.531394
-0.265217
-0.388076
-0.444467
-0.215141
-0.747166
-0.646498
-0.709457
-0.716402
-0.897025
-0.157895
0.0842824
-0.741763
-0.489668
0.0169456
-0.184847
-0.305347
0.283659
0.211578
0.13052
0.246269
0.404984
0.378328
0.348704
0.277739
0.434388
0.399519
0.336181
0.378908
-0.968875
-0.964275
-0.732439
-0.87687
-0.847793
-0.910968
-0.740971
-0.232576
-0.479208
0.274848
0.0675048
-0.0766828
0.00693801
0.21681
0.49178
0.423892
0.435996
0.484419
0.605391
0.558952
0.563645
0.246866
0.347384
-0.108968
0.101318
0.125393
0.106184
-0.0761675
-0.562935
-0.350903
-0.910822
-0.766066
-0.641631
-0.727216
-0.774372
0.113459
0.134862
0.297554
-0.442599
-0.156607
-0.346964
0.235451
0.066435
-0.0487365
0.453278
0.374693
0.387353
0.447257
0.573277
0.567938
0.611122
0.361827
0.217233
0.52997
0.481952
0.0642156
0.290154
0.203292
0.0174797
0.0666072
-0.160135
-0.0898618
-0.405078
-0.263014
-0.471683
-0.0848529
-0.630137
-0.373198
-0.340039
-0.620919
-0.305843
-0.549358
-0.568365
0.585403
0.450599
0.452153
0.307572
0.477141
0.399864
-0.468025
-0.259537
-0.304127
-0.841622
-0.810986
-0.942068
0.0353572
-0.0500829
-0.0894381
0.0433097
-0.00840116
0.12011
-0.288185
-0.143653
-0.235546
0.207334
0.167423
0.256412
-0.0490379
0.0677343
0.00753209
0.190923
0.128668
0.0946176
-0.584896
-0.46069
-0.514967
-0.327919
-0.403047
-0.45695
-0.254871
-0.326852
-0.19667
-0.0272567
-0.114979
-0.1743
-0.213276
-0.0994136
-0.417674
-0.318479
-0.34473
-0.340548
-0.468626
-0.681813
-0.650443
-0.761393
-0.709073
-0.806431
-0.592339
-0.516955
-0.820588
-0.822153
-0.898218
-0.604602
-0.721926
-0.596817
-0.882481
-0.820235
-0.801106
-0.552575
-0.687914
-0.581332
-0.0659551
0.0445667
-0.328182
-0.182124
0.104868
-0.0166361
-0.00414673
-0.82215
-0.729471
-0.509449
-0.622133
-0.632963
-0.60964
-0.481274
-0.0513855
-0.132962
-0.202208
-0.0223993
-0.0756445
0.0768276
-0.421187
-0.243376
-0.376471
-0.322589
-0.345197
-0.151313
0.155951
0.120457
0.204478
0.195707
0.299343
0.260918
0.33428
0.0171955
0.0833334
0.276431
0.192121
0.214306
0.146289
0.189759
0.397276
0.387364
0.370936
0.385388
0.397399
0.396888
0.319342
0.369149
0.33795
0.286038
0.329809
0.351779
0.149417
0.328068
0.247761
0.188776
0.21763
0.419082
0.414019
0.417137
0.419661
0.44023
0.403865
0.385382
0.309689
0.342171
0.252561
0.282825
0.412258
0.35782
0.392478
0.359027
0.377402
0.313184
-0.944553
-0.944676
-0.916705
-0.938773
-0.977398
-0.977124
-0.978478
-0.674592
-0.752435
-0.845138
-0.81188
-0.768823
-0.823347
-0.879608
-0.736539
-0.801678
-0.688002
-0.952608
-0.89188
-0.924294
-0.76763
-0.83864
-0.850569
-0.936909
-0.908362
-0.961509
-0.444791
-0.552085
-0.179432
-0.3083
-0.403959
-0.359181
-0.269648
0.282646
0.189223
0.166875
0.173523
0.274781
0.0829307
-0.0243679
0.0425921
0.0800639
0.177874
-0.147354
-0.0429616
-0.194763
0.246272
0.12387
0.147157
-0.0711403
0.0323825
-0.113173
0.402523
0.362647
0.459069
0.4393
0.491108
0.468042
0.520693
0.4118
0.436753
0.495869
0.462254
0.465174
0.454708
0.466197
0.603657
0.593142
0.582979
0.568386
0.586585
0.587316
0.53432
0.56764
0.532478
0.501552
0.52367
0.537847
0.337559
0.372476
0.26096
0.302508
0.308545
0.29486
0.246152
-0.104132
0.0129804
0.00285562
0.00131793
-0.0981727
0.118899
0.195386
0.056227
0.0266997
-0.0446553
0.189152
0.105545
0.202607
-0.0873855
0.0130131
0.0137191
0.186163
0.0955299
0.181348
-0.339493
-0.238827
-0.554031
-0.448999
-0.462321
-0.464647
-0.565935
-0.908987
-0.845032
-0.834414
-0.84885
-0.893688
-0.757381
-0.663897
-0.647116
-0.716266
-0.702202
-0.651509
-0.691983
-0.60854
-0.815112
-0.765077
-0.792485
-0.667291
-0.751303
-0.663642
0.181527
0.21141
0.269277
0.0333643
0.127253
0.0238847
0.308261
0.225894
0.221591
-0.534584
-0.402938
-0.487517
-0.205683
-0.298157
-0.354552
-0.210551
-0.255114
-0.110825
0.187724
0.104288
0.0528811
0.196977
0.150232
0.28077
-0.15007
0.00810319
-0.0939122
0.00770988
-0.042258
0.112334
0.350075
0.311897
0.388535
0.380468
0.442033
0.424763
0.488455
0.274953
0.312674
0.505941
0.4196
0.480302
0.351721
0.381066
0.587448
0.602112
0.607005
0.549291
0.580162
0.544546
0.591976
0.595925
0.568777
0.467133
0.526849
0.523637
0.30546
0.232522
0.441467
0.379025
0.190061
0.292248
0.263811
0.566586
0.555455
0.446379
0.506636
0.47289
0.532732
0.502548
0.0244148
0.14095
0.0963331
0.224558
0.179622
0.115039
0.303109
0.250654
0.345781
0.433106
0.395976
0.337735
0.142679
0.152381
0.0866351
0.120913
-0.0380317
0.0441553
-0.0702542
-0.078432
-0.0553658
-0.208624
-0.137037
-0.241622
-0.012925
0.039803
-0.534547
-0.449621
-0.556687
-0.209722
-0.338237
-0.281686
-0.401573
-0.375737
-0.301557
-0.0294472
-0.170971
-0.114294
0.0947255
-0.108416
-0.00445333
0.0213601
-0.0763926
-0.63275
-0.524356
-0.491735
-0.512182
-0.624571
-0.391606
-0.255477
-0.489167
-0.620101
-0.211472
-0.340126
-0.620664
-0.477171
-0.485845
-0.214234
-0.347834
-0.197833
-0.0748151
-0.282272
-0.186636
-0.19857
-0.318162
-0.602678
-0.676423
-0.650607
-0.508119
-0.401293
-0.617388
-0.441485
-0.538198
-0.664228
-0.683982
-0.42651
-0.568004
-0.443511
0.61405
0.579047
0.604932
0.603753
0.575052
0.311833
0.367105
0.347282
0.420189
0.510877
0.359805
0.513407
0.43949
0.369437
0.370695
0.539174
0.469521
0.540195
0.155377
0.352479
0.255569
0.219323
0.269716
0.553084
0.496044
0.527444
0.504986
0.447661
0.392238
0.333781
0.365922
0.421352
0.453693
0.405428
0.439337
0.360277
-0.571195
-0.404179
-0.488149
-0.560304
-0.51531
-0.132883
-0.183841
-0.169272
-0.224617
-0.305881
-0.227396
-0.420308
-0.335069
-0.208615
-0.185724
-0.362712
-0.28828
-0.400109
-0.746241
-0.737621
-0.745306
-0.850761
-0.919433
-0.725029
-0.850025
-0.799026
-0.730708
-0.732434
-0.945376
-0.962611
-0.961145
-0.934046
-0.902407
-0.830241
-0.883703
-0.911966
SCALARS CoVolArea double 1
LOOKUP_TABLE default
0.103636
0.0874976
0.0917902
0.102489
0.0899166
0.091453
0.0861066
0.094059
0.0893974
0.100703
0.101635
0.108114
0.133216
0.137483
0.132153
0.131213
0.130706
0.12911
0.1369
0.138565
0.141361
0.140276
0.126989
0.127624
0.140901
0.13778
0.134643
0.144803
0.140991
0.145324
0.136194
0.129808
0.138811
0.137522
0.142052
0.142951
0.14954
0.142709
0.136245
0.132281
0.135274
0.128366
0.139087
0.142487
0.136445
0.126225
0.144304
0.130876
0.12787
0.13632
0.123477
0.138734
0.132209
0.129992
0.138786
0.124408
0.135349
0.121917
0.150106
0.122726
0.122144
0.140974
0.130723
0.153303
0.13701
0.151317
0.127707
0.128314
0.152235
0.132579
0.146978
0.131859
0.152552
0.135618
0.148542
0.14689
0.126805
0.135373
0.128234
0.125147
0.134737
0.125097
0.133763
0.122954
0.135385
0.126488
0.133259
0.140187
0.132094
0.149664
0.128298
0.149718
0.13085
0.134412
0.14428
0.138102
0.147071
0.133053
0.138656
0.133665
0.112163
0.134064
0.132464
0.151412
0.129767
0.135383
0.127148
0.116352
0.135013
0.128126
0.141481
0.123189
0.137504
0.146827
0.136009
0.125198
0.144136
0.125992
0.135584
0.150255
0.135087
0.154022
0.13098
0.132106
0.148664
0.13863
0.149167
0.136429
0.149332
0.131663
0.129961
0.147061
0.133821
0.144174
0.126142
0.145897
0.130316
0.123723
0.141231
0.127956
0.142362
0.129885
0.145993
0.123362
0.139955
0.141241
0.127721
0.136301
0.141032
0.136005
0.144492
0.145224
0.147359
0.140348
0.140217
0.14588
0.141579
0.13879
0.149782
0.135736
0.14111
0.136601
0.128562
0.134125
0.130565
0.140575
0.131518
0.133431
0.134183
0.133299
0.142478
0.128663
0.130655
0.128838
0.141484
0.131082
0.125986
0.128776
0.131488
0.140528
0.113698
0.123674
0.112312
0.13578
0.126674
0.125741
0.125396
0.122931
0.135891
0.157594
0.154338
0.155269
0.134728
0.128618
0.13978
0.133334
0.136389
0.131866
0.134658
0.121175
0.124463
0.129794
0.126566
0.125028
0.130681
0.136695
0.115474
0.122228
0.115896
0.131336
0.120967
0.119602
0.121256
0.116818
0.130632
0.15353
0.150104
0.150049
0.129109
0.126479
0.14761
0.139685
0.125911
0.128204
0.139342
0.107828
0.121781
0.134851
0.130089
0.126628
0.126691
0.136514
0.117622
0.129941
0.122906
0.138705
0.129983
0.131786
0.134104
0.139373
0.146973
0.161721
0.165562
0.166402
0.127143
0.123915
0.151178
0.133136
0.133651
0.133572
0.146267
0.119614
0.130679
0.147195
0.137768
0.131552
0.138098
0.148422
0.126996
0.133932
0.125451
0.144643
0.130669
0.127515
0.128902
0.131903
0.144399
0.169732
0.165399
0.166798
0.135056
0.151256
0.137437
0.139289
0.142909
0.132655
0.136554
0.147158
0.136843
0.132903
0.131929
0.145096
0.128613
0.123386
0.14362
0.133349
0.131451
0.131935
0.144195
0.167822
0.163552
0.165991
0.127133
0.114147
0.138739
0.127047
0.129862
0.12935
0.133644
0.126605
0.133619
0.130881
0.126731
0.11702
0.131303
0.135543
0.124082
0.126265
0.123548
0.127914
0.122947
0.117466
0.121892
0.124135
0.134859
0.146097
0.146009
0.143424
0.123945
0.120178
0.1392
0.12262
0.128071
0.122626
0.141098
0.1253
0.128108
0.146926
0.131686
0.137476
0.125598
0.139344
0.117343
0.131583
0.120125
0.144005
0.139211
0.129115
0.130298
0.136697
0.149703
0.155375
0.159474
0.156725
0.128989
0.123863
0.145597
0.136176
0.139223
0.137766
0.150688
0.134994
0.135345
0.142097
0.133299
0.131024
0.133194
0.143073
0.126097
0.138233
0.127233
0.148053
0.13521
0.132446
0.126476
0.132715
0.142386
0.162842
0.160715
0.165433
0.133556
0.129888
0.140577
0.130465
0.136617
0.132463
0.144766
0.113807
0.118813
0.132535
0.117871
0.12241
0.125979
0.138903
0.114892
0.129701
0.11657
0.151603
0.139559
0.137107
0.136084
0.138593
0.147187
0.151966
0.155424
0.156689
0.130576
0.120083
0.13398
0.130088
0.128965
0.129929
0.133825
0.112345
0.115981
0.131743
0.118682
0.119043
0.127974
0.13314
0.118022
0.127159
0.118882
0.133231
0.128702
0.123277
0.127544
0.128216
0.141915
0.148181
0.151625
0.149419
0.127069
0.136843
0.125232
0.145429
0.136743
0.136475
0.136377
0.13611
0.144848
0.124212
0.126143
0.122519
0.140469
0.127318
0.128611
0.125706
0.129113
0.144935
0.121885
0.132764
0.12019
0.144279
0.134956
0.137128
0.130729
0.136965
0.145918
0.165381
0.166378
0.165099
0.134431
0.123992
0.151465
0.14051
0.139378
0.139744
0.154815
0.125432
0.132341
0.147158
0.136162
0.134995
0.136766
0.147733
0.128731
0.141995
0.127634
0.151381
0.137649
0.134326
0.130186
0.136499
0.145896
0.167738
0.16381
0.16852
0.132512
0.132055
0.150413
0.137809
0.131818
0.136045
0.146413
0.121209
0.132805
0.145825
0.133348
0.132962
0.133137
0.146687
0.119614
0.131085
0.116436
0.143708
0.133883
0.131178
0.129887
0.128838
0.14249
0.165061
0.16292
0.162708
0.132811
0.127619
0.141399
0.132752
0.133207
0.134632
0.143391
0.115658
0.125455
0.133346
0.123316
0.120322
0.132127
0.140002
0.124472
0.131237
0.124346
0.138793
0.124164
0.122838
0.123863
0.122939
0.13763
0.161117
0.159536
0.162138
0.133461
0.142567
0.134427
0.139693
0.146273
0.118369
0.12565
0.12777
0.12165
0.121831
0.127506
0.142407
0.126313
0.121808
0.138114
0.128082
0.127966
0.130446
0.134276
0.161442
0.156567
0.159769
0.129091
0.136137
0.126506
0.128551
0.136239
0.1286
0.135988
0.123855
0.127097
0.142927
0.12965
0.136711
0.127776
0.122739
0.131859
0.155506
0.154055
0.150479
0.138716
0.146204
0.132406
0.135461
0.143047
0.13308
0.139792
0.130725
0.133515
0.148324
0.130212
0.148033
0.138277
0.138967
0.142209
0.16276
0.160159
0.160302
0.125651
0.145355
0.127193
0.128618
0.140236
0.132939
0.13774
0.130832
0.133046
0.142636
0.138208
0.148497
0.138089
0.136991
0.139539
0.156145
0.153505
0.157559
0.130591
0.138597
0.126476
0.125759
0.139427
0.12565
0.145848
0.128393
0.125934
0.133653
0.11891
0.142131
0.131223
0.129177
0.148915
0.154305
0.161009
0.159419
0.128231
0.135918
0.127054
0.123847
0.131612
0.126526
0.14121
0.12579
0.129387
0.137838
0.124984
0.133524
0.131408
0.127476
0.13792
0.151684
0.152243
0.147493
SCALARS SignedDistance double 1
LOOKUP_TABLE default
2.32007
2.66626
1.8866
1.8954
2.23235
2.84191
2.43345
2.41449
2.59187
2.44254
2.45406
2.01674
2.06337
2.28223
2.51169
2.88966
2.30498
2.37301
1.99573
2.08404
1.99694
2.15431
2.6651
2.7013
2.40742
2.58731
2.24683
2.11945
2.85426
2.64266
2.7987
2.89355
1.96369
2.32125
1.95867
1.88726
2.14521
2.08475
2.11864
2.55538
2.14074
2.46908
2.23293
2.24198
2.45444
2.09352
2.12119
2.01089
2.66304
2.37829
2.57676
2.48612
2.32942
2.90796
2.76561
2.46606
2.58656
2.77611
2.268
2.11885
2.45395
2.25032
2.14798
2.27788
2.43874
1.82747
2.09894
2.11362
1.84057
2.18196
1.91071
2.22027
2.15393
2.3053
2.23409
2.05951
2.0757
2.8115
2.848
2.7793
2.78496
2.57208
2.66728
2.5506
2.54801
2.79005
2.19319
2.26146
2.3966
2.55127
2.37884
2.09028
2.14958
2.33
2.19993
1.97743
2.12956
1.97612
2.44712
2.58062
2.63227
2.44011
2.52961
2.74081
2.63438
2.59064
2.69684
2.74046
2.59818
2.75703
2.82536
2.69942
1.85333
1.96006
1.924
2.39125
2.19262
2.22264
2.08396
2.14243
2.26886
2.03063
2.05091
2.01017
1.92813
1.98593
2.03672
1.8677
2.04818
2.03109
1.98248
2.00597
2.31686
2.12552
2.29247
2.1668
1.95045
2.50587
2.33991
2.42313
2.40385
2.58132
1.94947
2.51808
2.25758
2.16054
2.43663
2.43194
2.49853
2.64587
1.89349
2.05746
2.22663
2.36726
2.16284
2.42502
2.73775
2.65735
2.92615
2.59219
2.61909
2.75984
2.32611
2.32526
2.42147
2.13718
2.22042
2.12352
2.46899
2.3333
2.3721
2.04299
2.02964
1.99375
2.18903
2.09484
2.17191
2.0311
2.05184
2.07798
2.75715
2.60836
2.72332
2.44003
2.51804
2.57259
2.42765
2.46197
2.33013
2.16736
2.23539
2.29489
2.42186
2.38224
2.58528
2.50095
2.28101
2.38771
2.37013
2.89325
2.82558
2.82899
2.88182
2.90928
2.73971
2.66421
2.57556
2.62086
2.71651
2.4344
2.52212
2.37567
2.83227
2.67887
2.74501
2.6156
2.67007
2.50693
2.34291
2.22365
2.23237
2.27974
2.0292
2.25769
2.19218
2.55149
2.4497
2.29396
2.34061
2.39323
2.34936
2.27256
2.27891
2.35869
2.48041
2.18852
2.26611
2.03748
2.38447
2.33653
2.28878
2.19623
2.21573
2.2636
2.08414
2.19033
1.85962
1.94058
2.02607
1.95364
1.87918
2.25472
2.09263
1.91875
1.93929
2.0618
1.94774
1.86337
2.33084
2.18991
2.34177
1.90585
2.037
2.05434
2.14123
2.06958
1.98471
1.78327
1.82897
1.80735
2.23697
2.11934
2.16377
2.17124
2.08105
2.41946
2.35366
2.17937
2.26949
2.21605