# vtk DataFile Version 4.2
vtk output
ASCII
DATASET POLYDATA
POINTS 2562 float
-8.64762 21.0854 -2.79987
-1.92593 21.5024 -2.85412
-9.03518 3.49487 -0.209503
4.73819 4.00763 0.41793
-2.32028 6.62788 6.69792
-5.47433 16.2095 3.56133
-2.20801 7.78404 -5.59824
-8.14444 20.6304 -6.65686
4.27587 11.9103 -2.50084
4.85309 11.8781 3.57426
-9.32761 17.323 -3.94254
-12.3439 14.8572 5.40474
-12.0438 18.8409 3.19807
-9.7316 16.5672 6.09762
-8.10338 19.3777 3.27066
-1.94383 18.0129 0.231537
-3.39945 23.2477 -2.16287
-1.98252 22.4251 -4.07097
-8.70625 22.1906 -7.14773
-8.83983 20.377 -8.09679
-10.83 21.2207 -5.3823
-12.6762 14.69 1.01813
1.89333 14.1249 4.63453
3.21843 15.1634 2.18054
-7.81783 10.0768 5.40278
-1.79593 11.6122 6.73731
-10.0493 7.98162 -1.52263
-10.5513 8.12556 2.95814
-4.8727 14.8773 -3.62822
-6.22234 10.6881 -4.19637
1.91023 15.815 -1.05976
-1.53618 17.1598 -2.33304
6.98545 6.84553 2.60044
2.23424 9.53736 6.33894
1.49969 4.11928 5.00153
-6.88226 4.05924 5.36914
-2.35873 3.71401 -0.190945
-5.40872 4.15951 -4.22667
1.09446 4.5297 -3.91414
1.67282 9.58337 -4.68115
6.51221 7.13747 -1.13156
5.62266 11.091 0.458011
-10.7461 19.6167 1.64062
-9.98057 19.4849 3.70823
-7.72226 20.064 1.19299
-11.132 15.982 6.18525
-11.0221 17.8828 5.37952
-12.3888 16.8922 4.66589
-7.83562 18.5792 3.85069
-9.13225 18.3934 4.84752
-8.66339 16.9337 5.25482
-4.27393 22.3569 -1.1956
-4.21401 23.0799 -1.89998
-1.57884 16.3559 2.92891
-4.85514 20.3246 0.0708687
-2.61409 22.7875 -2.65336
-3.3443 22.4254 -1.61703
-2.43938 20.7757 -1.77175
-3.84967 23.0199 -3.12822
-8.89267 21.8879 -5.85922
-1.81704 22.1471 -3.59601
-2.53286 23.1365 -3.49006
-8.41979 21.5851 -7.46445
-3.06859 22.4852 -3.95115
-2.6 21.901 -4.21149
-10.0192 22.5806 -7.03863
-10.3687 21.6175 -4.48756
-8.51101 20.8884 -7.94513
-8.8243 22.0544 -8.27516
-10.5382 20.0722 -5.52077
-10.2279 21.3948 -7.28457
-9.4668 19.3512 -7.29932
-11.613 19.1756 0.289689
-11.9091 14.7034 -1.00905
-11.5978 17.7323 -0.979733
-12.6032 17.5665 2.35653
-12.6716 14.8031 3.46409
1.70228 16.1782 2.33342
1.37965 16.4298 0.64052
0.0321637 14.9783 4.57284
1.00639 15.7832 3.60185
4.2395 13.8302 2.91439
2.91121 14.9575 3.5455
3.42317 13.2299 4.4235
-8.38768 14.9794 5.64705
-2.8657 13.5391 5.23347
-10.7915 13.8636 5.89554
-9.65683 14.8917 6.42854
-1.59547 9.71733 7.09252
-4.88131 11.5451 5.90217
-4.11033 6.98079 6.00051
-12.4742 11.1207 1.71771
-11.5271 11.7746 3.86909
-10.7654 10.8846 -2.49718
-11.9359 10.9469 -0.476445
-9.373 4.70305 1.7305
-10.7973 7.79126 0.377291
-9.57393 4.43487 -1.03504
-8.6154 19.0294 -6.37478
-7.81256 15.01 -3.77179
-8.13708 20.0154 -6.46894
-8.49944 19.7721 -7.301
-3.82052 8.53326 -5.50862
-5.55313 14.0802 -3.85082
-2.19897 10.1773 -5.64287
-1.84788 21.3996 -3.92335
-2.81733 20.5799 -3.75575
-1.71973 18.8891 -2.11218
-1.80883 21.1243 -3.47485
2.77523 13.0023 -3.14392
-0.455722 17.1423 -1.78726
3.87303 13.6604 -1.79644
6.56041 5.25215 1.73214
5.2382 5.41955 3.62782
3.56466 3.95051 2.73744
3.94067 10.7114 4.96294
5.10734 7.72864 3.9818
6.45672 8.48822 2.77819
-0.754892 5.42227 6.46717
2.01321 6.50254 5.86821
0.360768 8.21475 6.89336
0.342319 3.77108 3.70137
2.09836 3.75953 0.0767691
-3.893 4.68544 6.67395
-2.8195 3.97376 6.09677
-6.84961 3.31884 -0.106003
-4.98121 3.73913 3.74627
-8.19891 3.82366 3.62652
0.0435212 3.81856 -2.95342
2.73792 4.2977 -2.01271
-7.71356 3.77752 -1.96947
-4.43876 3.51115 -3.55218
-0.815402 6.05878 -4.93541
-2.9717 4.14682 -4.33781
-3.92366 5.44383 -4.57774
3.84473 5.98468 -2.58449
6.25373 5.40998 -0.680519
-0.329413 8.77796 -5.49366
1.70815 6.93027 -4.51571
5.38328 9.17818 -1.63875
3.80676 8.34515 -3.30501
3.22791 10.7555 -3.75623
7.24013 6.81813 0.526356
5.37529 11.6397 -1.04551
6.73714 8.37035 -0.153691
7.06295 8.3328 1.3939
5.54909 11.2997 2.05338
0.314637 10.6398 6.86693
2.21785 11.8541 5.79795
0.11126 12.553 6.02312
-8.78366 4.38932 4.73357
-7.2781 5.19881 5.4809
-9.19336 8.15296 4.45721
-5.32128 5.84126 -4.05426
-7.9538 5.05014 -2.08127
-8.99456 9.34366 -3.04746
1.55751 11.7156 -4.23648
-0.601729 10.7341 -5.51368
-2.22367 14.4854 -3.54768
4.73795 13.5787 1.39045
4.64288 13.573 -0.466515
3.20345 15.23 0.311944
-9.56976 20.275 -0.690207
-9.53668 19.7212 1.75263
-7.53566 20.8617 -0.365516
-11.0842 19.2622 3.51438
-10.4802 19.5881 2.81123
-11.4891 19.3493 2.49909
-7.99173 19.6097 2.37047
-9.25546 19.6359 2.94441
-8.92863 19.5069 3.6514
-11.8969 15.421 5.82459
-12.0127 16.3381 5.62534
-12.4593 15.8145 5.25833
-10.379 17.2387 5.85463
-11.1541 16.8933 5.91695
-10.3679 16.3313 6.22841
-12.2711 18.055 3.85201
-11.7738 17.4686 5.09328
-11.5813 18.5159 4.35526
-7.48552 17.8183 3.76302
-8.26525 17.9194 4.53831
-7.90765 17.0043 4.57406
-8.61174 19.1017 4.18316
-8.47017 18.6351 4.42065
-8.00189 19.0807 3.67679
-9.21219 16.771 5.75377
-8.96683 17.723 5.1146
-9.54803 17.5466 5.53774
-10.6246 18.8724 4.55413
-10.0127 18.1959 5.25311
-9.5036 19.0519 4.41925
-5.47096 22.0024 -1.0489
-6.19125 21.7234 -2.05893
-6.20746 20.5072 0.586535
-5.60815 21.4834 -0.378835
-3.75296 23.271 -2.01842
-4.13603 22.8834 -1.59572
-3.74341 23.1081 -1.73729
-3.50459 16.2833 3.12548
-6.50149 17.8097 2.84845
-3.6995 20.2484 -0.483779
-4.59039 18.4797 1.1313
-1.41351 16.8102 1.87579
-7.04734 18.6872 2.6941
-6.78601 19.3687 1.82526
-2.18482 22.1742 -2.82719
-2.55979 22.1245 -2.30074
-2.15615 21.3201 -2.39128
-3.38291 23.0527 -1.87284
-3.00027 22.7597 -2.06063
-3.04964 23.1339 -2.37731
-2.3119 19.5658 -0.944944
-2.96356 21.8737 -1.79737
-3.29363 21.342 -1.30936
-4.49842 21.5774 -0.713362
-3.85293 21.7362 -1.0607
-3.77623 22.5931 -1.42031
-6.87736 21.315 -3.62246
-8.80775 21.52 -4.49596
-3.45708 23.3229 -2.60019
-3.96765 23.3199 -2.45054
-8.83898 22.1143 -6.61513
-7.42959 21.0145 -4.64144
-7.76877 20.907 -5.14336
-1.82899 21.8669 -3.28773
-2.12589 22.556 -3.27597
-2.20002 22.8702 -3.88128
-2.13799 22.7957 -3.62516
-1.87696 22.3525 -3.85233
-2.54283 23.0691 -3.18896
-2.90476 23.2222 -2.94523
-8.29477 21.0399 -7.11241
-7.19403 20.5852 -4.80993
-6.87958 20.3363 -4.60676
-7.76473 20.9016 -5.14476
-7.61319 20.8171 -5.07084
-8.54889 22.0221 -7.47605
-2.0981 22.3059 -4.21971
-2.88955 22.2234 -4.0984
-2.35515 22.8296 -4.11383
-2.90745 23.2413 -3.35569
-2.54803 23.1001 -3.90624
-3.31131 22.7849 -3.67587
-9.62456 21.9571 -5.37744
-9.71385 21.433 -3.80443
-9.30587 22.6128 -7.2631
-9.48299 22.3995 -6.5511
-10.6808 21.547 -5.03168
-10.3037 22.1808 -6.00847
-10.6456 22.0626 -6.34423
-8.36804 20.8401 -7.58167
-8.49762 21.438 -7.99255
-8.76481 21.5083 -8.31509
-8.68097 21.6368 -8.28521
-8.61678 20.7708 -8.05021
-8.67547 21.9739 -8.23553
-8.92259 22.4295 -7.88218
-10.1365 18.9501 -5.38769
-9.96943 19.7196 -6.60216
-9.51314 18.9455 -6.45562
-10.7476 21.4703 -6.52042
-10.5675 20.8451 -6.48709
-10.7937 20.7203 -5.54368
-9.17722 19.9225 -7.88496
-9.79909 20.3498 -7.50899
-9.50741 20.8564 -8.10545
-9.6136 22.6166 -7.80519
-9.64142 22.0254 -8.09603
-10.335 22.2671 -7.2516
-10.1669 20.5761 -1.93076
-10.7872 20.5638 -3.54533
-10.5801 20.657 -2.91503
-11.3667 19.4494 1.02402
-12.1572 18.9696 2.01056
-10.4882 15.5575 -2.18089
-10.5842 17.8615 -3.15769
-12.5566 15.9219 0.242001
-11.9588 16.1113 -0.920157
-12.4263 14.6696 -0.116784
-10.7595 19.4123 -3.96978
-10.8556 20.0779 -3.96859
-12.5881 15.914 4.37727
-12.5463 14.8068 4.72398
-12.4741 18.3333 2.79047
-12.5513 17.323 3.5639
-12.925 14.8814 2.11342
-12.7527 15.9111 2.85425
-12.8633 15.8324 1.76457
-11.6602 18.6952 -0.374655
-12.5445 17.5807 0.979006
-12.4694 18.5234 1.60636
-1.23445 18.177 -0.907276
-1.62663 18.8899 -1.69547
0.269057 16.504 1.81292
-0.488959 17.1596 0.513153
2.60109 15.7603 1.69945
1.7582 16.2266 1.68975
2.45592 15.7881 2.30688
-1.11672 15.2613 4.41306
-0.433155 15.7178 3.99965
1.51481 15.0832 4.10428
0.599482 15.4687 4.10057
1.02356 14.5404 4.61965
0.104281 16.0774 3.50317
0.433377 16.2442 2.96917
4.5845 12.9842 3.2867
3.97578 13.5741 3.72009
4.15593 12.7129 4.14012
3.12895 15.0982 2.90216
3.55246 14.4539 3.26568
3.76957 14.538 2.564
2.66782 13.7122 4.59301
3.18514 14.2187 3.96206
2.51951 14.6681 4.0759
1.43564 16.0323 2.95666
2.03418 15.3613 3.59457
2.34328 15.6258 2.93755
-7.63589 15.863 4.84362
-4.41607 14.9151 4.34483
-9.12484 15.7808 6.07948
-8.64283 15.956 5.70115
-1.99566 12.361 6.18513
-6.63143 14.4502 4.9251
-4.98608 12.9755 5.42732
-11.7983 14.3669 5.68293
-11.0887 14.9132 6.16803
-9.28683 13.892 5.90008
-10.1515 14.472 6.32839
-9.48569 12.7311 5.41185
-10.2374 15.2229 6.44534
-9.7225 15.4525 6.38862
-1.87862 8.34013 6.97648
-2.86975 8.63196 6.85233
-3.13038 6.68123 6.45244
-3.12613 11.2228 6.62367
-2.93985 10.3102 6.87505
-1.74197 10.777 6.91725
-6.098 7.74057 5.24713
-4.04984 9.57172 6.73589
-6.8551 11.3975 5.55988
-9.10712 14.9516 6.17267
-8.71042 14.1432 5.78556
-7.3775 13.796 5.28925
-12.3482 13.7865 4.1036
-12.2791 14.0074 5.01579
-12.4509 12.5077 1.37595
-12.3197 13.0205 2.45072
-11.4233 9.78044 3.43261
-12.0947 11.2444 2.70504
-11.8855 9.90079 2.27579
-10.3347 12.3564 -2.60139
-11.168 12.1687 -1.83275
-11.3707 9.67415 -1.34411
-11.3571 10.7991 -1.62304
-10.8207 9.77015 -2.15253
-11.8142 12.348 -0.730067
-12.2905 12.4221 0.333399
-9.49135 3.98511 0.618936
-9.71757 4.42559 -0.0683424
-9.47213 3.88111 -0.710264
-11.0702 8.12879 1.56178
-9.63129 5.6854 0.667016
-9.24883 5.85824 2.63572
-9.31174 5.48755 -0.948017
-9.59978 5.37522 -0.390263
-10.3083 7.64443 -0.649472
-12.4431 11.0212 0.810778
-11.728 9.64367 -0.0201322
-12.0302 9.79087 1.15758
-9.04196 18.7452 -6.06693
-8.76199 16.5528 -3.7547
-8.80022 19.6237 -7.59506
-9.04524 19.2123 -7.17003
-7.34836 13.0256 -3.7878
-8.30607 18.1686 -4.99886
-7.57116 17.147 -4.21597
-8.17592 20.3617 -6.73678
-8.3547 20.4057 -7.45604
-8.05764 19.407 -5.78119
-8.35604 19.9489 -7.07697
-7.6913 19.328 -5.2529
-8.49636 20.3102 -7.77779
-8.60838 20.0871 -7.8166
-3.00175 8.10395 -5.588
-2.98632 9.43504 -5.63659
-2.16789 8.94892 -5.64874
-5.55543 12.68 -4.16965
-3.78349 10.1812 -5.54423
-4.49939 9.2347 -5.19588
-2.40684 11.1904 -5.47944
-3.11885 10.8223 -5.55196
-5.3867 14.6437 -3.70513
-8.60797 19.468 -7.04699
[...]
POINT_DATA 2562
SCALARS CoVolArea float 1
LOOKUP_TABLE default
0.78814
0.0917675
0.179967
0.269875
0.349501
1.02046
0.205497
0.0678581
0.227363
0.31968
0.906355
0.115428
0.241247
0.150287
0.210524
0.883554
0.0467501
0.0406089
0.102892
0.0998197
0.206689
0.540527
0.262931
0.173992
1.29001
0.280263
0.66971
0.897195
0.887869
1.75252
0.40003
0.95047
0.192748
0.360007
0.274012
0.293136
1.52633
0.142146
0.269281
0.360456
0.210324
0.427878
0.463758
0.23466
0.647015
0.227397
0.260517
0.262612
0.160412
0.176491
0.213657
0.127445
0.203625
0.949209
0.646072
0.115357
0.11472
0.389951
0.545629
0.261166
0.0571409
0.0377533
0.135044
0.284283
0.343053
0.13398
0.255325
0.03908
0.0562498
0.332241
0.293436
0.118623
0.494202
0.734843
1.05078
0.425755
0.428277
0.176852
0.514788
0.248281
0.174874
0.188601
0.144402
0.25572
0.309615
1.30726
0.392467
0.0790814
0.300911
0.952773
0.943585
0.280521
0.665669
0.228249
0.438223
0.503991
0.771763
0.122325
0.149671
1.3944
0.097781
0.0593351
0.319085
0.81047
0.285312
0.035588
0.428287
0.145873
0.0704699
0.247065
0.572235
0.20625
0.282921
0.407326
0.426794
0.427832
0.499266
0.187809
0.531137
0.614672
0.412526
0.737541
0.713341
0.193494
0.290724
0.566845
1.06825
0.39792
0.415349
0.501088
0.343364
0.235087
0.493885
0.318867
0.309147
0.607087
0.28413
0.309117
0.337266
0.341004
0.542256
0.251318
0.280676
0.278322
0.172407
0.158345
0.394995
0.252917
0.29248
0.337866
0.186735
0.189712
0.813783
0.310526
0.440354
0.804967
0.339774
0.153931
3.69852
0.25677
0.189635
0.267838
1.07553
0.566548
1.27135
0.300302
0.274697
0.255002
0.344103
0.30447
0.177388
0.224539
0.238342
0.173143
0.228296
0.219364
0.189998
0.278441
0.319571
0.302621
0.469969
0.189622
0.432101
0.124927
0.125396
0.144159
0.166358
0.165766
0.166265
0.291667
0.23427
0.231297
0.38074
1.0376
0.489052
0.369321
0.0417081
0.0899586
0.0285682
0.933995
0.849458
0.773005
2.44417
0.915815
0.457476
0.482958
0.110145
0.139061
0.204175
0.0560187
0.0948724
0.0546053
0.563963
0.165439
0.262294
0.262466
0.174237
0.0830766
0.762821
0.509531
0.0555256
0.357337
0.126042
0.501135
0.157278
0.0653248
0.0831697
0.0439398
0.0513245
0.0442748
0.0611824
0.0578553
0.114558
0.318693
0.1749
0.102177
0.252322
0.121906
0.0540299
0.311551
0.0306259
0.030599
0.01807
0.403787
0.280774
0.383582
0.13488
0.16853
0.166764
0.210953
0.134408
0.0674216
0.0625222
0.115307
0.0191987
0.0434501
0.044347
0.106222
0.526059
0.349576
0.219342
0.144466
0.228948
0.175195
0.13675
0.279362
0.200965
0.092789
0.239367
0.14173
0.576832
0.407824
0.434265
0.516193
0.201592
1.66959
0.888963
0.510128
0.784355
0.436288
0.583427
0.401424
0.360456
0.206852
0.192661
0.318183
0.368074
0.528048
0.456741
0.690463
0.484263
0.214951
0.637387
0.296993
0.504405
0.638666
0.173622
0.294045
0.143829
0.508397
0.251691
0.20623
0.188322
0.273926
0.19319
0.310429
0.242063
0.186548
0.229511
0.150286
0.182193
0.159627
0.234179
0.190416
0.17629
0.159918
0.177986
0.162045
0.6839
1.40855
0.155518
0.22613
0.607027
0.849137
0.770885
0.212501
0.235698
0.447626
0.203786
0.743115
0.154416
0.152359
0.494404
0.569234
0.349625
0.669917
0.338643
0.281512
1.56468
1.07601
1.73585
0.109529
0.346988
0.550449
0.492215
0.247743
0.495639
0.746068
0.442409
0.6194
0.488304
0.889069
0.59441
0.408579
0.357916
0.345197
0.644169
0.568353
0.283955
0.228553
0.15237
0.921122
0.686372
0.852304
0.287047
0.347929
0.696543
0.305391
0.568811
0.388378
0.27567
1.03572
0.0630004
0.111606
1.09676
0.338408
0.585332
0.0886394
0.0594355
0.244546
0.0858659
0.28432
0.0360028
0.0404103
0.306558
0.268709
0.244258
1.21972
0.333861
0.6213
0.314401
0.342433
0.839664
0.0980922
0.289541
0.210318
0.275247
0.190649
0.0137815
0.0484238
0.169516
0.0658182
0.0920886
0.116257
0.0566785
0.111726
0.110984
0.171978
0.0242742
0.0158411
0.225856
0.214747
0.198425
0.545686
0.424809
0.571848
0.270802
0.348246
0.514359
0.0318443
0.157224
0.112119
0.355447
0.390901
0.33489
0.288036
0.329139
0.192447
0.278882
0.532364
0.541967
0.371717
0.454469
0.40132
0.643315
0.559457
0.398977
0.128953
0.327546
0.312652
0.437076
0.359604
0.466288
0.535784
0.467433
0.483203
0.309005
0.424929
0.600652
0.406065
0.71504
0.728346
0.5368
0.39129
0.354417
0.473094
1.16166
0.887255
1.35052
0.203293
0.242927
0.311348
0.104822
0.325891
0.413772
0.326182
0.347132
0.555795
0.545433
1.51476
0.816445
1.2671
0.279573
0.659083
0.560668
0.471224
0.531738
1.11141
0.487783
0.319076
1.01651
0.56757
0.237377
0.276967
0.20816
0.190727
0.354505
0.155912
0.459141
0.211417
0.770908
0.890963
0.315597
0.404516
0.296616
0.46979
0.522542
0.351198
0.198766
0.274842
0.159964
0.374221
0.152069
0.413261
0.419879
0.365402
0.415394
0.604476
0.234838
0.392694
0.394798
0.272869
0.447018
0.359536
0.428052
0.36174
0.417991
0.32067
0.348205
0.382716
0.270994
0.434401
0.464304
0.230246
0.262999
0.417275
0.367254
0.41498
0.380924
0.591419
0.284135
0.200163
0.230667
0.281827
0.299536
0.275741
0.338155
0.314413
0.35466
0.355402
0.24016
0.151942
0.32563
0.315606
0.233632
0.129995
0.457271
0.328834
0.243916
0.206466
0.127437
0.11733
0.284816
0.255065
0.355803
0.283287
0.249553
0.296995
0.298291
0.258238
0.30035
0.343008
0.478484
0.222812
0.391368
0.411314
0.344397
0.241481
0.345531
0.242816
0.307129
0.10798
0.15463
0.223349
0.44172
0.341908
0.482997
0.494021
0.430527
0.247404
0.555423
0.749561
0.593037
0.871216
1.0223
0.141044
0.361379
0.402308
0.376884
0.159627
0.237935
0.400952
1.06154
0.137415
0.48129
0.184066
0.320988
0.297608
0.536188
0.95064
0.534531
0.309016
0.631464
0.441673
1.03761
1.20556
0.231636
0.318532
0.257454
0.235385
0.652868
0.264477
0.2718
0.18957
0.205993
0.293848
0.351325
1.58469
1.54328
1.54278
1.10124
0.295742
0.361212
0.664337
0.244928
0.272752
0.276732
0.191303
0.22004
0.218194
0.196006
0.192125
0.208331
0.209237
0.448035
0.253308
0.3816
0.471138
0.328614
0.232337
0.221268
0.296776
1.0679
1.45553
1.39953
0.488484
0.919861
0.695232
0.862412
1.05176
0.700693
0.292352
0.257005
0.246654
0.243349
0.244505
0.272592
0.27754
0.24896
0.308448
0.262689
0.216818
0.164333
0.483007
0.322341
0.454365
0.200798
0.211666
0.231134
0.355579
0.30239
0.421811
0.167997
0.172194
0.153331
0.234088
0.21714
0.236752
0.20985
0.175025
0.246769
0.195541
0.188174
0.158557
0.221016
0.206553
0.231451
0.203804
0.188101
0.200986
0.232779
0.296498
0.268875
0.31232
0.329055
0.273019
0.298125
0.315337
0.261847
0.255849
0.274967
0.304448
0.755578
0.430246
0.80832
0.164932
0.224714
0.226532
0.272506
0.240367
0.210377
0.123291
0.104815
0.144866
0.129757
0.103259
0.14666
0.138011
0.115792
0.134772
0.143682
0.151035
0.171932
0.183909
0.161945
0.173125
0.166804
0.148679
0.152339
0.162258
0.157434
0.185533
0.320009
0.30733
0.303447
0.314491
0.289449
0.221909
0.21255
0.192842
0.233694
0.281413
0.166962
0.243442
0.199826
0.182952
0.21899
0.295299
0.257537
0.281991
1.17106
1.19823
0.593211
0.728151
0.599423
0.621698
0.255565
0.414791
0.409942
0.194421
0.371826
0.288071
0.44999
0.547611
0.0377877
0.0245959
0.0313629
0.0991498
0.0390553
0.0553625
0.0621866
0.0404028
0.0977553
0.392235
0.192463
0.200763
1.06562
0.74592
1.50128
0.912171
0.88192
0.551483
0.288993
0.883947
1.1944
0.856638
1.22876
1.59194
0.610102
0.963425
2.03968
2.25414
0.261421
0.342951
0.221831
0.229939
0.594786
0.435769
0.760255
1.77422
1.22737
0.570237
0.0922448
0.119494
0.140849
0.124868
0.124481
0.117724
0.297397
0.154331
0.195837
0.0406369
0.0438415
0.0407389
0.0960691
0.068554
0.085689
0.0851137
0.067418
0.103993
0.633678
0.389062
0.617286
0.233868
0.318757
0.463009
0.15558
0.187729
0.124554
0.123493
0.124815
0.155914
0.559772
0.427767
0.514408
0.429663
0.181838
0.495849
0.145235
0.210372
0.312405
0.326661
0.0396184
0.0915498
0.0547138
0.0702564
0.108286
0.188102
0.11899
0.115988
0.822821
0.68033
0.611575
0.896204
0.396156
0.63438
0.473995
0.0583176
0.0468873
0.469238
0.0761133
0.135035
0.0579274
0.23934
0.108559
0.196174
0.174558
0.335452
0.248792
0.164107
0.412767
0.296504
0.578626
0.628986
0.709536
0.612243
0.0779608
0.0911281
0.0683287
0.0783797
0.057975
0.101811
0.105711
0.0388384
0.0350399
0.0400383
0.0425064
0.0403513
0.0471528
0.0482461
0.0420505
0.0568126
0.05268
0.0619085
0.095519
0.0704192
0.0380584
0.0458602
0.0343587
0.0682298
0.0551991
0.0808113
0.0959889
0.160566
0.12068
0.197173
0.179226
0.126283
0.323559
0.312661
0.457588
0.164472
0.173666
0.100404
0.252751
0.166538
0.238229
0.129772
0.208123
0.216277
0.0360168
0.0408732
0.0342765
0.329547
0.108227
0.100515
0.0802373
0.0959764
0.271927
0.305483
0.339484
0.405199
0.0713525
0.0392301
0.05036
0.0496074
0.167716
0.0382916
0.085539
0.0178081
0.0365014
0.0399981
0.101543
0.51929
0.298346
0.25037
0.341171
0.0272221
0.102163
0.131224
0.394442
0.539198
0.258601
0.328352
0.300902
0.304157
0.283507
0.122638
0.121954
0.154703
0.136932
0.123964
0.136928
0.178211
0.170188
0.135289
0.171303
0.240055
0.173127
0.190607
0.142346
0.142032
0.171741
0.220199
0.211536
0.263439
0.0784943
0.0872291
0.0466235
0.0649401
0.0521018
0.0886766
0.0937558
0.139798
0.0529031
0.0616188
0.00846771
0.019748
0.0764549
0.0337231
0.0327779
0.0350192
0.0958809
0.11025
0.0883379
0.0835176
0.070461
0.0662998
0.0196736
0.038503
0.0202497
0.0585099
0.791627
0.360469
0.518926
0.36662
0.372507
0.433232
0.124686
0.246102
0.220619
0.179152
0.143379
0.172954
0.240303
0.14922
0.182999
0.208857
0.155685
0.242904
0.1034
0.149762
0.166092
0.208155
0.187435
0.136926
0.270144
0.208364
0.28141
0.333015
0.32217
0.325991
0.12773
0.103464
0.097116
0.114919
0.112934
0.228655
0.31697
0.265888
0.214044
0.161936
0.167358
0.129142
0.131645
0.144698
0.249151
0.149406
0.217276
0.118715
0.663936
0.37164
0.473345
0.690994
0.638998
0.270567
0.208753
0.540105
0.354088
0.548578
0.217829
0.287837
0.235653
0.211015
0.490853
0.295005
0.293484
0.294412
0.486672
0.539607
0.66758
0.702533
1.6532
1.00483
0.939564
1.14162
1.20144
0.734486
0.568455
0.465879
0.355634
0.467246
0.953674
0.522023
0.768441
0.483291
0.368392
0.638681
0.222591
0.26635
0.392212
0.272373
0.724101
0.406454
0.841796
0.95557
1.01893
0.755309
0.197788
0.157996
0.281133
0.241358
0.302428
0.280958
0.430162
0.204723
0.217129
0.365997
0.234275
0.249468
0.249653
0.278614
0.404543
0.237395
0.394472
0.454317
0.299838
0.422569
0.561593
0.399262
0.536136
0.381757
0.513045
0.526612
0.462907
0.948924
0.666838
0.62112
0.58779
0.585248
0.481656
0.613255
0.608772
0.809237
0.184299
0.324285
0.184605
0.19436
0.293263
0.576165
0.3276
0.401167
0.28737
0.227513
0.525076
0.388306
0.456971
0.438957
0.590962
0.738406
0.610927
0.41672
0.530852
0.30993
0.640166
0.594333
0.160237
0.141815
0.163191
0.417203
0.18392
0.266172
0.130759
0.135423
0.209215
0.688035
0.529215
0.612404
1.15917
0.849368
0.215701
0.319551
0.254747
0.628663
0.453689
0.235434
0.220043
0.248157
0.16003
0.186312
0.182605
0.265317
0.226426
0.213068
0.526044
0.698419
0.33518
0.399888
0.170181
0.211431
0.154464
0.200318
0.179851
0.218189
0.308395
0.234345
0.307955
0.194066
0.191949
0.212425
0.228423
0.184022
0.216132
0.164948
0.14686
0.154535
0.149026
0.14592
0.140775
0.165807
0.163675
0.184935
0.230956
0.196967
0.227055
0.230068
0.207865
0.236718
0.141811
0.161933
0.147736
0.203051
0.191119
0.212231
0.497755
0.188196
0.201615
0.254224
0.16869
0.216775
0.168118
0.163621
0.193321
0.198499
0.171713
0.153939
0.151648
0.157143
0.17225
0.191679
0.189913
0.173311
0.86946
1.38258
0.323969
0.547479
1.32011
0.957862
1.2435
0.162524
0.156529
0.259387
0.155999
0.167441
0.171576
0.212088
0.367802
0.749053
0.62362
1.38042
1.03218
0.976242
0.521593
0.775794
0.498782
0.394807
0.47727
0.876417
0.156596
0.213235
0.259344
0.243012
0.27699
0.231045
0.236305
0.979517
0.497718
0.929969
0.119765
0.264262
0.176136
0.542636
0.383357
0.27792
0.177567
0.173478
0.23265
0.206276
0.0734218
0.128844
0.0687743
0.22794
0.143394
0.210236
0.482599
0.415384
0.33113
0.500722
0.490369
0.384638
0.499808
0.463654
0.718628
0.494565
0.296212
0.234085
0.495997
0.357245
0.797496
0.277555
0.315457
0.392477
1.34869
2.0482
1.58824
1.23684
1.89714
1.39183
1.38119
1.75477
0.899444
0.5036
0.474927
0.692957
0.180449
0.0817285
0.118236
0.142914
0.204333
1.03076
0.828177
0.939535
0.371894
0.146984
0.857401
0.364824
0.606403
0.914253
0.928809
0.162857
0.462431
0.25627
0.172443
0.142691
0.434812
0.24669
0.489109
0.320044
0.631758
0.655603
0.566561
0.444029
0.568693
0.323016
0.657103
0.645884
0.577769
0.453063
0.658228
0.728402
0.51329
0.525659
0.367714
0.426785
0.39367
0.718352
0.666569
0.763689
1.46035
1.62507
0.339195
0.654114
0.318405
1.20497
0.842082
0.540317
0.334449
0.506105
0.38256
0.315371
0.414003
0.251485
0.299544
0.302474
0.574693
0.662112
0.716433
0.639486
0.463823
0.586802
0.468468
0.416308
0.472295
0.634698
0.260185
0.187145
0.164659
0.351389
0.214309
0.336411
0.118868
0.171917
0.17829
1.01186
1.20824
0.911463
0.732531
1.01291
0.765208
0.670389
1.04825
0.602849
0.497356
0.472042
0.66861
0.187072
0.278238
0.158688
0.749183
0.502696
0.604484
0.371658
0.466886
0.263017
0.580518
0.430523
0.411176
0.332159
0.261976
0.646169
0.709364
0.715565
0.543388
0.508528
0.684587
0.321015
0.452593
0.561258
0.598148
0.44408
0.491062
0.331729
0.414224
0.825795
0.113131
0.189056
1.45863
0.579282
0.715493
0.0732636
0.087358
0.120033
0.080226
0.0847391
0.107287
0.100774
1.37242
0.823114
1.8048
0.58393
0.600955
1.07713
0.206041
0.370486
0.182895
0.174967
0.19819
0.356159
0.0854973
0.0713128
0.0688086
0.0652536
0.0846511
0.0607633
0.048951
0.358315
0.318592
0.447701
0.0674215
0.113949
0.12147
0.115525
0.108352
0.0847396
0.0348836
0.0551028
0.03507
0.0316279
0.0427514
0.031916
0.04156
0.0690879
0.0583042
0.0495157
0.257257
0.253383
0.237292
0.300377
0.284084
0.324743
0.268874
0.251022
0.272412
1.79871
1.05051
1.14067
0.735513
0.889222
0.97588
0.373925
0.418217
0.304795
0.781157
0.844194
0.889159
0.267353
0.327905
0.237521
0.744263
0.752248
0.707011
0.283282
0.350487
0.278542
0.0576823
0.0786532
0.0499469
0.0635868
0.1238
0.207332
0.376745
0.263682
0.226082
0.163662
1.12674
0.144788
0.257544
0.55809
0.464331
0.172618
0.289149
0.163426
0.118534
0.113197
0.258306
0.13547
0.37198
0.179935
0.35182
0.0370029
0.0356043
0.0311188
0.0212027
0.0147697
0.0503328
0.0966032
0.284494
0.0871137
0.200619
0.134219
0.0692707
0.164363
0.0479915
0.0437044
0.0447937
0.110683
0.0668036
0.129896
0.127241
0.0650697
0.106867
0.0692232
0.121049
0.0495564
0.045682
0.22223
0.153371
0.330801
0.101546
0.13871
0.0901776
0.145185
0.117462
0.133088
0.0333358
0.0395491
0.0383216
0.0320884
0.0246397
0.016058
0.03822
0.0945617
0.0633111
0.0443306
0.23936
0.206336
0.230997
0.232656
0.206288
0.223378
0.195833
0.197609
0.21182
0.7618
0.855711
0.954512
0.671346
0.684217
0.503461
0.320318
0.495054
0.302154
0.413427
0.554568
0.412577
0.238174
0.312431
0.218191
0.559467
0.618527
0.672521
0.279972
0.395577
0.257679
0.0183684
0.0473142
0.0167788
0.0125748
0.0313535
0.175593
0.207538
0.182981
0.109941
0.0846322
0.21288
0.0590514
0.114856
0.204151
0.21029
0.108059
0.160411
0.0848442
0.342672
0.329732
0.32217
0.357655
0.34782
0.324565
0.367029
0.339729
0.4215
0.222048
0.199376
0.17941
0.325823
0.260615
0.309397
0.218032
0.243342
0.314925
0.21078
0.333095
0.347064
0.493601
0.449988
0.379912
0.572315
0.507558
0.45737
0.400861
0.428995
0.474557
0.377977
0.414348
0.41341
0.492913
0.436787
0.392769
0.310046
0.397017
0.321254
0.509096
0.471235
0.344992
0.508885
0.554855
0.615391
0.423343
0.51583
0.527256
0.15928
0.203715
0.233683
0.236051
0.200094
0.108303
0.378415
0.284017
0.390604
0.531531
0.477934
0.404286
0.445248
0.471069
0.519124
0.392568
0.404325
0.435361
0.417967
0.388549
0.386482
0.42331
0.465069
0.359135
0.485317
0.476423
0.566104
0.56272
0.504442
0.463081
0.317151
0.395472
0.495605
0.377752
0.358533
0.338215
0.632631
0.458226
0.502407
0.402172
0.467097
0.403558
0.348971
0.4778
0.389689
0.359482
0.398197
0.727691
0.763233
0.763648
0.754031
0.629899
0.610803
0.588316
0.722271
0.712535
0.746529
0.572699
0.733431
0.561209
0.378832
0.321926
0.444009
0.407183
0.506731
0.477858
0.654361
0.281964
0.266175
0.541012
0.365394
0.469073
0.330019
0.429044
1.35898
1.17711
1.45748
0.884742
1.03566
0.925401
1.10145
1.01928
0.796809
0.559345
0.678596
0.734592
0.297811
0.300633
0.156809
0.191617
0.15324
0.332975
0.450919
0.39531
0.247182
0.349506
0.136934
0.135005
0.227949
0.289055
0.167652
0.148769
0.36141
0.296942
0.569612
0.523271
0.348946
0.371407
0.259049
0.165902
0.194331
0.339681
0.266587
0.436252
0.377937
0.547864
0.462444
0.43547
0.493765
0.518969
0.560808
1.56753
1.38454
1.49776
0.985326
1.14713
1.31037
0.81026
1.02848
0.70835
0.238575
0.38268
0.411476
0.529332
0.416259
0.316604
0.75877
0.564197
0.835897
0.642031
0.780557
0.678358
0.354552
0.427899
0.388937
0.418495
0.608842
0.502366
0.825572
0.583642
0.401572
0.391847
1.65012
0.992107
1.42609
1.50826
1.18498
0.529411
0.787763
0.717053
0.321603
0.309885
0.562099
0.417417
0.429064
0.390011
0.46765
1.45639
1.2097
0.416273
0.757955
0.60468
0.898611
0.700185
0.191429
0.154888
0.207769
0.370836
0.226108
0.366298
0.288608
0.198889
0.268809
0.538913
0.375946
0.42641
0.163692
0.231064
0.355762
0.25906
0.265038
0.315206
0.426557
0.156807
0.211528
0.141802
0.350347
0.272927
0.157555
0.298595
0.33344
0.416553
1.30727
1.44279
0.633017
0.993488
0.434956
0.85244
0.524793
0.481427
0.603923
0.544589
0.248246
0.269741
0.2497
0.46888
0.362093
0.433119
0.350588
0.343389
0.360993
0.32487
0.384311
0.300067
0.410169
0.502016
0.484646
0.433393
0.468824
0.514734
0.159465
0.185218
0.159696
0.28539
0.220592
0.230418
0.20153
0.200202
0.262481
0.475537
0.389792
0.36811
1.03698
0.258932
0.488205
0.634519
0.524638
0.13299
0.248237
0.139203
0.10645
0.145987
0.344319
0.458414
0.348729
0.468432
0.404941
0.235728
0.298431
0.416867
0.337171
0.352515
0.522563
0.36672
0.326623
0.338269
0.321113
0.326683
0.318312
0.581856
0.488952
0.528439
0.442399
0.562227
0.200012
0.281065
0.307866
0.292613
0.285986
0.238328
0.520627
0.363851
0.504168
0.588313
0.568149
0.435699
0.248984
0.286244
0.384636
0.334938
0.286721
0.39019
0.487862
0.376171
0.360691
0.349753
0.370758
0.365037
0.34594
0.334841
0.388627
0.404018
0.302959
0.330086
0.469937
0.374895
0.317228
0.318001
0.350843
0.469871
0.447177
0.489406
0.307493
0.310766
0.270838
0.398889
0.360139
0.366937
0.257085
0.312793
0.315067
0.31829
0.291416
0.199776
0.499226
0.412709
0.532615
0.275993
0.334855
0.38858
0.288202
0.303288
0.352457
0.320405
0.315277
0.250604
0.449469
0.379036
0.475529
0.458223
0.500247
0.414275
0.404359
0.354627
0.370154
0.448528
0.562789
0.38661
0.509679
0.397014
0.355376
0.348698
0.460836
0.62829
0.554436
0.571726
0.604798
0.400797
0.515953
0.533584
0.367911
0.298564
0.336109
0.33154
0.292513
0.159825
0.177826
0.246999
0.210272
0.261887
0.224313
0.260295
0.233054
0.263823
0.254608
0.230849
0.289205
0.294363
0.296252
0.252776
0.254791
0.271477
0.278303
0.317103
0.32216
0.296741
0.268185
0.3419
0.345155
0.425074
0.400152
0.381063
0.245958
0.319812
0.222214
0.298856
0.393333
0.365584
0.164683
0.160309
0.28718
0.216094
0.151333
0.161385
0.190224
0.367777
0.299961
0.330239
0.391647
0.352435
0.24261
0.362208
0.33003
0.376218
0.400531
0.239728
0.151452
0.152286
0.140799
0.178819
0.0934201
0.122639
0.396802
0.365875
0.379866
0.430671
0.434493
0.440628
0.173172
0.277104
0.206593
0.220155
0.226748
0.334605
0.188712
0.176798
0.19287
0.247836
0.252377
0.306246
0.130985
0.171366
0.204224
0.166445
0.309587
0.198559
0.231343
0.212402
0.142165
0.153704
0.108958
0.149009
0.532771
0.41966
0.419371
0.364674
0.21134
0.305306
0.256888
0.296062
0.257606
0.236811
0.303411
0.395733
0.250013
0.226662
0.215738
0.262542
0.255496
0.277634
0.297836
0.371898
0.349424
0.249511
0.291216
0.2772
0.252458
0.306615
0.347371
0.304791
0.255564
0.233034
0.242323
0.271289
0.254905
0.271185
0.326901
0.337678
0.348232
0.339085
0.322828
0.311563
0.272853
0.294357
0.276282
0.318418
1.09784
0.940725
1.04879
0.446581
0.325308
0.217974
0.258466
0.337539
0.271599
0.265734
0.412652
0.681083
0.306465
0.317476
0.341258
0.341374
0.359175
0.357561
0.380984
0.486706
0.437935
0.42313
0.330494
0.322247
0.303453
0.245763
0.230735
0.361796
0.36264
0.358134
0.334043
0.338634
0.234438
0.239213
0.229482
0.231803
0.30348
0.320777
0.322503
0.257342
0.454248
0.329078
0.474553
0.383846
0.40067
0.163217