# vtk DataFile Version 4.2
vtk output
ASCII
DATASET POLYDATA
POINTS 642 double
-1.78168 4.46083 -0.0706439
1.04114 4.40138 -0.0596572
-1.7971 -0.255394 -0.0243903
1.14984 -0.257673 -0.0197611
-0.334474 0.658875 2.3049
-0.379691 3.49352 2.19665
-0.32619 0.699577 -2.28461
-0.384677 3.59046 -2.39054
1.93027 2.09529 -1.39163
1.97066 2.07167 1.37134
-2.63835 2.16756 -1.46428
-2.67572 2.12801 1.41458
-2.56447 3.50307 0.820798
-1.72028 2.96247 2.16915
-1.17946 4.29142 1.31417
0.445444 4.24978 1.24206
-0.326308 4.84793 -0.0427161
0.478067 4.33147 -1.38195
-1.21535 4.42004 -1.45381
-1.74052 3.0198 -2.29298
-2.59187 3.54505 -0.914659
-3.06549 2.13112 -0.0168233
0.981521 2.91281 2.0813
1.79884 3.40233 0.78213
-1.69653 1.2551 2.16762
-0.343092 2.09525 2.62395
-2.53418 0.73313 -0.858852
-2.54527 0.727542 0.82781
-0.369835 2.17678 -2.6632
-1.66695 1.30438 -2.16015
1.75987 3.43608 -0.828112
0.958468 2.95544 -2.14287
1.94885 0.715284 0.833354
1.02943 1.24992 2.15254
0.540005 -0.13503 1.36092
-1.20138 -0.149625 1.36184
-0.33042 -0.639778 -0.0270872
-1.18093 -0.111827 -1.38677
0.528286 -0.108441 -1.39212
1.00037 1.26761 -2.15814
1.92839 0.725905 -0.869462
2.39703 2.05992 -0.0217904
-2.22786 4.06707 0.388914
-1.96068 3.99511 1.12226
-1.52659 4.45775 0.642959
-2.2741 2.56514 1.87072
-2.22972 3.29468 1.58338
-2.71675 2.84104 1.16509
-0.779387 3.95053 1.84667
-1.51504 3.71158 1.83479
-1.0363 3.29712 2.28255
-0.780257 4.69246 0.650003
-1.10691 4.74015 -0.0590653
0.0495392 3.92303 1.7749
-0.349708 4.38014 1.33143
0.381045 4.73692 -0.0501652
0.091345 4.6788 0.64373
0.77855 4.42517 0.620314
-0.805258 4.74212 -0.780835
-1.56458 4.54745 -0.793207
0.826736 4.45988 -0.706488
0.0894952 4.72698 -0.756343
-0.788654 4.07034 -2.0281
-0.384933 4.46457 -1.50035
0.0532539 4.00773 -1.95955
-1.99932 4.07876 -1.23922
-2.25073 4.10994 -0.493253
-1.07991 3.36337 -2.46167
-1.53872 3.80282 -1.98167
-2.7201 2.88237 -1.2459
-2.27027 3.34443 -1.69533
-2.27327 2.6136 -1.9503
-2.67668 3.58662 -0.039413
-2.94615 2.14255 -0.764515
-2.94023 2.86921 -0.486668
-2.95142 2.84882 0.421144
-2.97145 2.13475 0.754214
1.19473 3.90286 1.06615
1.4436 3.97272 0.358385
0.340458 3.22077 2.21395
0.779045 3.63053 1.7346
1.96883 2.78171 1.11573
1.4797 3.21896 1.49512
1.54312 2.51383 1.80573
-1.06246 2.56454 2.52494
-0.372307 2.82478 2.50017
-2.27876 1.70489 1.85757
-1.78819 2.12358 2.2743
-0.325996 1.33774 2.5498
-1.05524 1.66998 2.51353
-1.02541 0.893422 2.3329
-2.93029 1.40546 0.422301
-2.6994 1.43934 1.1776
-2.66142 1.42117 -1.18051
-2.9201 1.40563 -0.460871
-2.25105 0.157122 0.423523
-2.66258 0.663149 -0.0295826
-2.2517 0.16489 -0.466934
-1.76435 2.17497 -2.35193
-2.21618 1.73011 -1.88389
-0.377497 2.9368 -2.65471
-1.07386 2.62779 -2.65108
-0.995867 0.934959 -2.30823
-1.04751 1.73595 -2.53907
-0.328806 1.36906 -2.54328
0.768607 3.71622 -1.86215
0.292103 3.31768 -2.33652
1.47017 3.99795 -0.468886
1.20363 3.96958 -1.1585
1.50068 2.52858 -1.83166
1.44647 3.24927 -1.56408
1.93732 2.77667 -1.15438
1.61945 0.131587 0.408048
1.31864 0.183999 1.14449
0.90964 -0.292426 0.673675
1.58083 1.6453 1.83033
1.58759 0.931124 1.58182
2.06492 1.36285 1.15571
0.0968444 0.204926 1.92993
0.841278 0.475469 1.85529
0.35581 0.912267 2.31719
0.129547 -0.519934 0.705129
0.47311 -0.542691 -0.0232907
-0.783053 0.178103 1.91563
-0.331598 -0.252331 1.44134
-1.10033 -0.555686 -0.0238163
-0.789735 -0.526641 0.715968
-1.54848 -0.293559 0.707791
0.125693 -0.507106 -0.7508
0.88219 -0.276294 -0.733757
-1.54914 -0.282228 -0.716779
-0.791263 -0.511206 -0.739816
0.0974515 0.239879 -1.93317
-0.337229 -0.221785 -1.45787
-0.754933 0.234318 -1.94066
1.29998 0.205629 -1.17222
1.61175 0.140518 -0.453454
0.3656 0.939704 -2.30419
0.830084 0.516142 -1.87614
2.03391 1.36815 -1.17856
1.55184 0.952237 -1.59688
1.53872 1.65549 -1.84309
2.06592 0.644024 -0.0238058
2.26603 2.06662 -0.736111
2.31557 1.37698 -0.460659
2.32574 1.35859 0.425323
2.27809 2.07825 0.727403
0.372974 1.65047 2.51516
1.077 2.09924 2.22958
0.358168 2.51671 2.47874
-1.97068 0.189517 1.16402
-1.51722 0.471437 1.88277
-2.21715 0.931507 1.59449
-1.48106 0.507955 -1.87673
-1.95176 0.216838 -1.18534
-2.18419 0.957798 -1.58418
1.0429 2.11048 -2.23547
0.350195 1.67563 -2.50917
0.324491 2.58421 -2.51403
2.20835 2.78136 0.403958
2.18637 2.78442 -0.441666
1.89482 3.47916 -0.0245266
-2.00682 4.28792 0.150303
-1.91129 4.27646 0.537214
-1.66821 4.47337 0.273853
-2.28877 3.76934 0.981609
-2.11141 4.045 0.776975
-2.43003 3.7853 0.616312
-1.36563 4.39882 0.985617
-1.76077 4.24297 0.904025
-1.57495 4.1721 1.24217
-2.49589 2.35082 1.66278
-2.51998 2.71759 1.54624
-2.72198 2.49065 1.30244
-1.98419 3.14295 1.90926
-2.27704 2.93444 1.74435
-2.01704 2.7668 2.0388
-2.66467 3.18143 1.00077
-2.49518 3.0798 1.39368
-2.43228 3.40414 1.21454
-0.564791 3.72395 2.05061
-0.945439 3.64336 2.0872
-0.686702 3.41424 2.25804
-1.36782 4.02531 1.59366
-1.15529 3.85755 1.85725
-1.007 4.1501 1.58699
-1.37256 3.14929 2.25569
-1.30223 3.51274 2.08301
-1.62224 3.3585 2.03205
-2.12537 3.6621 1.36978
-1.88392 3.52776 1.73619
-1.75769 3.87628 1.50235
-1.30635 4.6289 0.301303
-1.45178 4.62072 -0.0797934
-0.978819 4.50883 0.997223
-1.15765 4.59169 0.660464
-0.723789 4.82019 -0.0447104
-0.934927 4.74479 0.305019
-0.546913 4.80401 0.311606
-0.168427 3.71854 2.0044
-0.366175 3.96296 1.82878
0.0522238 4.34702 1.3009
-0.145092 4.17157 1.5661
0.261769 4.10549 1.51143
-0.576169 4.18695 1.59953
-0.783097 4.3623 1.34244
0.757938 4.57464 -0.050662
0.598176 4.61389 0.294888
0.935315 4.43027 0.259668
-0.124693 4.80491 0.301575
0.249656 4.73306 0.302845
0.0247724 4.82215 -0.0505948
0.635511 4.35825 0.923346
0.446784 4.58008 0.635894
0.282436 4.48936 0.960151
-0.575504 4.57415 1.00823
-0.126003 4.56087 1.00214
-0.35211 4.72915 0.654079
-1.33937 4.67517 -0.437239
-1.69178 4.52558 -0.445964
-0.553737 4.82551 -0.405914
-0.969371 4.76987 -0.430735
-1.40688 4.51902 -1.11121
-1.21123 4.67765 -0.805795
-1.03281 4.61998 -1.13867
0.942283 4.45914 -0.395247
0.624818 4.62641 -0.392984
0.295029 4.55948 -1.08496
0.469652 4.61755 -0.748533
0.650859 4.41991 -1.07648
0.252911 4.75752 -0.396708
-0.120498 4.82467 -0.408302
-0.573183 3.83419 -2.2422
-0.392255 4.07594 -2.01456
-0.178784 3.80286 -2.2069
-0.818611 4.47209 -1.50717
-0.594796 4.30127 -1.7762
-1.02722 4.27131 -1.75126
0.282228 4.18575 -1.68175
-0.163768 4.26676 -1.74212
0.0844433 4.42392 -1.44123
-0.35493 4.7673 -0.774852
-0.118342 4.62849 -1.12424
-0.610124 4.63934 -1.15754
-1.93318 4.35454 -0.655024
-2.04752 4.29711 -0.300776
-1.61435 4.28434 -1.36622
-1.79629 4.34297 -1.0255
-2.44173 3.85355 -0.707373
-2.15839 4.10807 -0.884471
-2.32676 3.83258 -1.0876
-0.735085 3.49537 -2.45631
-0.941146 3.74602 -2.27243
-1.66062 3.42311 -2.16836
-1.30937 3.59835 -2.24656
-1.41887 3.20145 -2.40333
-1.1728 3.96751 -2.02471
-1.39376 4.13412 -1.74165
-2.69968 2.49852 -1.38011
-2.52901 2.7551 -1.61842
-2.49388 2.37359 -1.70404
-2.46452 3.45307 -1.31872
-2.52485 3.12163 -1.48669
-2.68437 3.21895 -1.09435
-2.03414 2.81367 -2.13911
-2.29567 2.98762 -1.8435
-2.02191 3.19564 -2.02778
-1.7922 3.96231 -1.63375
-1.92859 3.5914 -1.86473
-2.16285 3.72696 -1.48746
-2.26911 4.09479 -0.0597019
-2.65604 3.58363 -0.49212
-2.48805 3.85964 -0.277213
-2.48842 3.83047 0.178068
-2.64805 3.55826 0.408397
-2.81308 2.15664 -1.12227
-2.85536 2.52203 -1.01844
-3.03172 2.50059 -0.252384
-2.96966 2.51373 -0.636695
-3.02989 2.13356 -0.395283
-2.85544 2.88496 -0.879492
-2.79557 3.21168 -0.720503
-2.88118 2.49273 0.963466
-2.8557 2.12849 1.07761
-2.78518 3.2013 0.634253
-2.85974 2.8543 0.801736
-3.04738 2.13532 0.376222
-2.99065 2.49118 0.579694
-3.04463 2.49597 0.20262
-2.84454 3.23598 -0.272682
-2.98041 2.86842 -0.0268953
-2.84703 3.22795 0.195078
1.13756 4.21099 0.496734
1.25597 4.20873 0.148062
0.833127 4.09153 1.16569
0.99162 4.17498 0.844383
1.63813 3.69598 0.577043
1.34094 3.94793 0.73362
1.51383 3.66706 0.938198
-0.0208243 3.36622 2.21884
0.204735 3.58713 2.01418
0.889819 3.27656 1.94351
0.571821 3.43497 1.99293
0.671634 3.07218 2.17039
0.430156 3.79022 1.76555
0.621315 3.95383 1.50912
1.98562 2.41762 1.26591
1.7826 2.65317 1.48266
1.78644 2.29423 1.58936
1.66828 3.32303 1.1561
1.74311 3.01125 1.31965
1.90332 3.10574 0.957925
1.29304 2.71176 1.95082
1.5332 2.86602 1.67212
1.2478 3.07159 1.81445
1.00611 3.78964 1.4228
1.14427 3.44426 1.63727
1.3616 3.5767 1.30261
-0.715179 3.07317 2.42231
-0.379297 3.17151 2.36783
-1.39674 2.77647 2.38002
-1.07919 2.92615 2.43147
-0.35004 2.49143 2.58096
-0.731471 2.69936 2.54091
-0.708475 2.33934 2.59365
-2.49072 1.90161 1.66065
-2.29135 2.13225 1.89866
-1.76567 1.69237 2.24111
-2.0397 1.91294 2.0972
-1.99744 1.46265 2.0308
-2.04143 2.35216 2.10073
-1.77465 2.5475 2.25003
-0.334347 0.965397 2.43767
-0.692468 1.10032 2.46031
-0.663666 0.757961 2.34212
-0.702003 1.88326 2.60241
-0.684298 1.50651 2.5579
-0.333911 1.72379 2.61412
-1.37036 1.05353 2.27764
-1.05713 1.26035 2.42888
-1.38953 1.45699 2.36754
-1.44036 2.34307 2.43762
-1.42763 1.90931 2.43675
-1.08001 2.12003 2.55818
-2.87135 1.77518 0.964846
-2.71259 1.76444 1.30035
-3.03404 1.77291 0.200496
-2.97828 1.76942 0.579222
-2.64661 1.081 1.01541
-2.83868 1.39943 0.801348
-2.76795 1.05547 0.633416
-2.66693 1.78775 -1.32783
-2.83481 1.77582 -0.986444
-2.75223 1.0582 -0.664325
-2.81661 1.40718 -0.831149
-2.61502 1.06439 -1.02321
-2.95688 1.76718 -0.617075
-3.02214 1.76451 -0.246622
-2.02203 -0.0925082 0.181837
-2.27448 0.132405 -0.0234629
-2.0217 -0.0879175 -0.23048
-2.62755 0.672483 0.402504
-2.48233 0.389938 0.197669
-2.41986 0.422811 0.634903
-2.41391 0.420568 -0.667835
-2.48108 0.393816 -0.250132
-2.63094 0.680975 -0.458554
-2.96066 1.39427 -0.0239879
-2.823 1.02052 -0.250023
-2.82338 1.01791 0.199556
-2.26866 2.17263 -1.94931
-2.44851 1.9481 -1.68978
-1.76784 2.60398 -2.3573
-2.03781 2.39642 -2.17423
-1.96484 1.52705 -2.04159
-2.01054 1.95777 -2.14195
-1.7288 1.74991 -2.28263
-0.386975 3.25779 -2.56217
-0.71996 3.1491 -2.61041
-0.734478 2.41852 -2.70094
-0.723455 2.78031 -2.68927
-0.394827 2.56297 -2.69395
[...]
POINT_DATA 642
SCALARS Mean_Curvature double 1
LOOKUP_TABLE default
0.724716
0.868223
0.798044
0.750509
0.920148
0.751351
0.710306
0.906512
0.64299
0.68465
0.694886
0.761401
0.764943
0.790129
0.705867
0.659524
0.749863
0.802198
0.886915
0.768313
0.845935
0.697572
0.671923
0.773128
0.523225
0.655617
0.723353
0.593315
0.383317
0.43742
0.491824
0.762478
0.787636
0.694522
0.755618
0.755215
0.573903
0.716564
0.775114
0.737751
0.786459
0.818038
0.711662
0.762966
0.652244
0.773185
0.759784
0.752132
0.738887
0.811754
0.799152
0.766851
0.632363
0.513102
0.625265
0.876
0.756991
0.850025
0.559086
0.935384
0.755955
0.816757
0.896188
0.598508
0.591521
0.746688
0.778476
0.901917
0.754708
0.818251
0.848525
0.749984
0.681811
0.616265
0.648686
0.725903
0.797735
0.722944
0.484435
0.671816
0.615731
0.783881
0.66426
0.780892
0.840326
0.557053
0.756831
0.719127
0.683901
0.503418
0.868908
0.666046
0.667484
0.619166
0.737172
0.692091
0.686435
0.765742
0.804687
0.423732
0.96856
0.928494
0.617992
0.401588
0.645109
0.768835
0.539081
0.894986
0.71673
0.691767
0.611653
0.74009
0.780837
0.736183
0.755617
0.687412
0.819923
0.859569
0.723931
0.710526
0.725159
0.692559
0.74586
0.718884
0.782042
0.729157
0.726836
0.725784
0.736673
0.694338
0.818263
0.671814
0.726441
0.719266
0.824656
0.714273
0.785268
0.690979
0.741078
0.913217
0.722945
0.694774
0.763299
0.694764
0.881017
0.906482
0.652329
0.71513
0.695786
0.775683
0.832179
0.769165
0.698737
0.768437
0.822099
0.564672
0.619272
0.645648
0.427768
0.771739
0.640368
0.731971
0.589694
0.701269
0.532976
0.751569
0.73819
0.724837
0.697587
0.737486
0.729037
0.767951
0.794349
0.763536
0.760446
0.766019
0.773214
0.742594
0.775444
0.748887
0.746699
0.83959
0.770508
0.811893
0.758379
0.79574
0.774144
0.835212
0.788866
0.761741
0.760285
0.788827
0.567508
0.54231
0.54975
0.597677
0.691005
0.730814
0.750011
0.537632
0.700203
0.814501
0.553995
0.497826
0.689056
0.742165
0.772419
0.886276
0.734305
0.872433
0.767431
0.852843
0.675169
0.877593
0.739722
0.787927
0.736366
0.870908
0.744859
0.828317
0.644702
0.621615
0.913318
1.01633
0.962665
0.926607
0.79751
0.813191
0.746732
0.835594
0.782489
0.829442
0.890155
0.826528
0.727449
0.895736
0.870465
0.881633
0.66666
0.604196
0.668378
0.714444
0.667661
0.572739
0.866563
0.738261
0.777488
0.851954
0.82086
0.843473
0.825531
0.904981
0.891627
0.738972
0.721338
0.809753
0.824653
0.755447
0.785361
0.780118
0.784784
0.755414
0.918255
0.853997
0.802197
0.798148
0.875035
0.716807
0.783595
0.723453
0.641414
0.6758
0.705349
0.664537
0.750893
0.533049
0.612893
0.628647
0.655494
0.644615
0.812894
0.716821
0.802282
0.755194
0.762792
0.729316
0.775823
0.684455
0.765269
0.605005
0.73672
0.677329
0.556027
0.816363
0.504441
0.538406
0.580357
0.668285
0.618017
0.592074
0.538873
0.781245
0.599547
0.745148
0.547561
0.671055
0.651946
0.783139
0.660348
0.803419
0.671205
0.789604
0.67144
0.788677
0.662705
0.770809
0.655326
0.820359
0.771011
0.574055
0.776394
0.858055
0.601185
0.820457
0.558157
0.75744
0.786892
0.66541
0.748868
0.612168
0.758947
0.75078
0.673223
0.623645
0.905835
0.602231
0.587555
0.723317
0.880438
0.45845
0.498883
0.775798
0.743587
0.860401
0.790661
0.749097
0.733282
0.629637
0.676214
0.63672
0.698184
0.599207
0.654356
0.641968
0.700018
0.63334
0.690208
0.683096
0.784652
0.720773
0.812488
0.588484
0.811313
0.751283
0.889462
0.773689
0.768943
0.688209
0.722441
0.642014
0.777964
0.551104
0.802225
0.757344
0.508073
0.732842
0.707646
0.991431
1.03654
0.89654
0.965071
0.874063
1.02695
0.787489
0.6802
0.664058
0.746911
0.414327
0.602136
0.517696
0.571762
0.570277
0.416765
0.788368
0.899206
0.763898
0.585937
0.802232
0.7121
0.717945
0.704362
0.673133
0.638913
0.906674
0.776758
0.810629
0.732135
0.745946
0.729116
0.837591
0.648726
0.715268
0.653615
0.822482
0.546439
0.610256
0.595209
0.664004
0.485276
0.834331
0.673948
0.781953
0.785067
0.744963
0.783909
0.766014
0.776528
0.767431
0.745668
0.720253
0.736132
0.694574
0.763556
0.82882
0.683069
0.739324
0.657453
0.846403
0.804098
0.818922
0.79883
0.696455
0.748023
0.722235
0.732504
0.69814
0.689309
0.70725
0.686115
0.767852
0.743568
0.710174
0.804255
0.75756
0.749021
0.69896
0.625612
0.6497
0.61743
0.774319
0.807562
0.679163
0.775865
0.658017
0.777829
0.673428
0.789532
0.660782
0.761361
0.565986
0.76864
0.684674
0.819989
0.771293
0.805586
0.641085
0.773722
0.635018
0.767191
0.751855
0.656916
0.675779
0.742948
0.686913
0.76053
0.75182
0.821818
0.691567
0.728477
0.683997
0.77712
0.740696
0.711865
0.734447
0.721937
0.720983
0.742109
0.764122
0.804252
0.767865
0.793746
0.690442
0.791107
0.65746
0.789957
0.755559
0.733346
0.708357
0.784898
0.776016
0.780306
0.71334
0.709999
0.769129
0.737249
0.727099
0.773501
0.760458
0.621697
0.694373
0.641116
0.803044
0.841228
0.864258
0.649327
0.72154
0.725489
0.712975
0.706674
0.723851
0.781132
0.78148
0.772747
0.764108
0.773687
0.704919
0.712082
0.982095
0.821952
0.71904
0.880154
0.831512
0.823393
0.707821
0.782561
0.848737
0.702784
0.91529
0.900703
0.783426
0.898425
0.752564
0.640654
0.732481
0.699017
0.782109
0.666155
0.741758
0.679998
0.771401
0.67545
0.741187
0.553754
0.722194
0.617305
0.71361
0.680267
0.782561
0.710102
0.799916
0.812992
0.728775
0.821511
0.73963
0.854829
0.749989
0.967895
0.857652
0.802337
0.740158
0.737413
0.630701
0.654663
0.583042
0.605756
0.737558
0.947346
0.78784
0.82646
0.735312
0.820722
0.839765
0.802387
0.758426
0.875179
0.784304
0.818607
0.691741
0.629149
0.534026
0.61469
0.611574
0.646885
0.708021
0.844517
0.787223
0.648906
0.719666
0.654133
0.687361
0.554658
0.709181
0.604234
0.648253
0.684687
0.69433
0.906566
0.438288
0.618654
0.848749
0.391197
0.683755
0.578273
0.617072
0.640151
0.708089
0.632712
0.773096
0.652378
0.747549
0.614068
0.75621
0.63338
0.717591
0.584704
0.760402
0.536738
0.567064
0.577616
0.79356
0.632424
0.799406
SCALARS Redistribution_Potential double 1
LOOKUP_TABLE default
3.92835e-10
-0.95541
0.640433
0.266511
0.155942
-0.658287
0.0130805
-0.140103
-0.656709
-0.652416
0.422141
0.315861
0.171467
-0.119088
-0.406575
-0.912914
-0.511655
-0.570163
0.0941753
0.289764
0.390381
0.475279
-0.825178
-1.02825
0.290865
-0.313483
0.53838
0.597146
-0.0889698
0.293211
-0.902579
-0.589546
-0.0771762
-0.247798
0.340512
0.598779
0.557755
0.441057
0.18186
-0.330742
-0.156707
-0.652042
0.0844842
-0.0895971
-0.202218
0.124259
0.0289869
0.246448
-0.569959
-0.28361
-0.416254
-0.473398
-0.229392
-0.799522
-0.690884
-0.7611
-0.766944
-0.961928
-0.172645
0.0786699
-0.791727
-0.524614
0.0035577
-0.204699
-0.331314
0.296703
0.226843
0.123154
0.252624
0.436404
0.399538
0.373348
0.304002
0.474762
0.436575
0.368448
0.414312
-1.03403
-1.02411
-0.78225
-0.93464
-0.896225
-0.966785
-0.782708
-0.248662
-0.510719
0.299252
0.0758862
-0.0754999
0.0150569
0.233553
0.536681
0.462192
0.475756
0.527883
0.655962
0.607145
0.610896
0.264209
0.379792
-0.128994
0.099176
0.143675
0.118468
-0.0761734
-0.602948
-0.379296
-0.972738
-0.816664
-0.679206
-0.770449
-0.819514
0.139694
0.163229
0.338189
-0.458339
-0.150995
-0.35765
0.265454
0.0876083
-0.0406998
0.504689
0.42185
0.421924
0.492256
0.627968
0.622449
0.664399
0.406617
0.252608
0.577776
0.532093
0.082968
0.326194
0.228668
0.0368224
0.0888112
-0.161094
-0.0811515
-0.422639
-0.266462
-0.494053
-0.0736671
-0.661824
-0.38717
-0.351451
-0.649961
-0.317737
-0.576031
-0.603599
0.630615
0.483023
0.485494
0.337921
0.517902
0.437946
-0.493927
-0.272155
-0.3219
-0.889087
-0.854808
-1.00005
0.0416075
-0.0503004
-0.0933138
0.0508403
-0.00472455
0.13367
-0.305162
-0.150804
-0.249278
0.227205
0.184383
0.280791
-0.0494589
0.0763421
0.0102834
0.210868
0.142988
0.106298
-0.628539
-0.496276
-0.552758
-0.350485
-0.432185
-0.490016
-0.272301
-0.351257
-0.209474
-0.0256133
-0.120173
-0.184695
-0.224295
-0.106448
-0.442434
-0.336361
-0.366894
-0.361509
-0.499056
-0.732903
-0.698032
-0.816977
-0.758893
-0.862747
-0.634219
-0.552904
-0.877663
-0.882379
-0.961241
-0.647833
-0.773203
-0.639504
-0.944203
-0.880292
-0.858231
-0.590899
-0.73605
-0.622962
-0.0759136
0.0416738
-0.349247
-0.196861
0.0969666
-0.0299081
-0.0189498
-0.880692
-0.780098
-0.545826
-0.665009
-0.678271
-0.652271
-0.514934
-0.0692345
-0.154574
-0.227177
-0.0385279
-0.0934072
0.0666669
-0.451703
-0.266327
-0.403211
-0.346156
-0.36983
-0.16831
0.161474
0.12784
0.20744
0.199127
0.320831
0.274486
0.353927
0.00135139
0.0734141
0.286657
0.192824
0.21825
0.141787
0.190333
0.429736
0.415757
0.39969
0.41028
0.423694
0.426536
0.338567
0.392895
0.356293
0.29765
0.345423
0.371453
0.163439
0.355897
0.269165
0.207453
0.239592
0.457541
0.450453
0.456684
0.458501
0.481545
0.438638
0.418018
0.338714
0.373629
0.277842
0.310485
0.450347
0.3918
0.428971
0.392778
0.412776
0.343606
-1.00768
-1.00935
-0.977343
-1.00209
-1.03739
-1.04077
-1.04046
-0.722172
-0.803619
-0.901362
-0.865557
-0.819628
-0.878486
-0.940489
-0.775032
-0.84728
-0.723131
-1.0133
-0.944555
-0.980585
-0.811932
-0.88926
-0.902519
-1.00105
-0.966493
-1.02574
-0.477484
-0.593021
-0.191519
-0.33185
-0.426841
-0.384795
-0.285463
0.308137
0.207144
0.183508
0.190429
0.299079
0.0925125
-0.0240751
0.0498672
0.0882985
0.192363
-0.151377
-0.0387309
-0.201618
0.266231
0.137594
0.163213
-0.0746815
0.0390723
-0.119086
0.439028
0.395096
0.50113
0.480161
0.533402
0.510317
0.566182
0.449172
0.476492
0.540337
0.503839
0.506748
0.496149
0.509191
0.655229
0.643283
0.632857
0.617488
0.635245
0.635285
0.577181
0.615034
0.578053
0.547235
0.570121
0.586055
0.364095
0.404703
0.275867
0.32377
0.338754
0.319379
0.268352
-0.127439
-0.00202221
-0.00549209
-0.0105396
-0.113737
0.113964
0.20155
0.0703291
0.0355558
-0.0401128
0.210294
0.120083
0.226651
-0.0904866
0.0177
0.0142215
0.195193
0.0974137
0.194315
-0.367209
-0.266028
-0.592345
-0.481933
-0.495495
-0.498312
-0.604078
-0.972827
-0.902578
-0.888634
-0.904802
-0.950936
-0.808168
-0.710819
-0.681827
-0.75792
-0.740818
-0.693089
-0.731891
-0.645614
-0.861912
-0.810359
-0.838987
-0.714186
-0.799099
-0.708714
0.21308
0.245752
0.30815
0.0537092
0.155081
0.0436047
0.348899
0.261245
0.255834
-0.557727
-0.415924
-0.508472
-0.2031
-0.303359
-0.362726
-0.209637
-0.257176
-0.102148
0.210681
0.123866
0.0642645
0.227936
0.176273
0.316419
-0.146638
0.0231455
-0.0836153
0.0259591
-0.0274882
0.138402
0.394228
0.353413
0.434332
0.426671
0.493786
0.474977
0.542404
0.300071
0.34421
0.553256
0.459766
0.522753
0.389474
0.424524
0.64064
0.657599
0.660412
0.605527
0.635154
0.599862
0.64251
0.650492
0.620154
0.517606
0.57758
0.578285
0.347211
0.26867
0.492064
0.426123
0.222302
0.332895
0.301017
0.617515
0.606761
0.492272
0.555847
0.518515
0.585073
0.555263
0.0387965
0.163162
0.115146
0.257461
0.206983
0.138514
0.336177
0.280987
0.383579
0.481871
0.43964
0.379865
0.171745
0.182514
0.110869
0.14867
-0.024392
0.0651675
-0.0580938
-0.0737857
-0.0465227
-0.211084
-0.133959
-0.248674
0.000556628
0.0584015
-0.557585
-0.469657
-0.582354
-0.209497
-0.348758
-0.289238
-0.418126
-0.389996
-0.309738
-0.0146677
-0.167344
-0.105663
0.119897
-0.100405
0.0127024
0.0407414
-0.0641708
-0.664651
-0.548404
-0.516017
-0.535911
-0.656612
-0.407413
-0.260617
-0.510191
-0.64988
-0.210368
-0.350708
-0.650839
-0.499613
-0.508747
-0.214901
-0.35991
-0.196157
-0.070781
-0.289992
-0.188159
-0.204253
-0.332223
-0.631914
-0.714045
-0.685521
-0.529312
-0.416419
-0.657884
-0.466728
-0.570922
-0.707649
-0.72546
-0.446852
-0.599179
-0.46783
0.665441
0.62629
0.654566
0.652544
0.619006
0.336173
0.39166
0.371727
0.453882
0.552098
0.39138
0.553747
0.47643
0.400371
0.398722
0.579738
0.499877
0.578614
0.176203
0.387754
0.282976
0.243239
0.298336
0.60119
0.535432
0.571499
0.549472
0.489557
0.427891
0.368143
0.400689
0.46001
0.493212
0.443314
0.477178
0.395998
-0.601177
-0.424788
-0.513116
-0.592792
-0.546013
-0.134932
-0.193003
-0.17596
-0.232434
-0.319978
-0.253633
-0.450695
-0.361443
-0.230659
-0.196703
-0.382842
-0.303491
-0.424504
-0.78358
-0.776124
-0.782336
-0.898692
-0.973181
-0.764589
-0.897712
-0.844675
-0.768404
-0.771094
-1.00629
-1.02255
-1.0194
-0.992273
-0.955389
-0.877373
-0.933907
-0.967107
SCALARS CoVolArea double 1
LOOKUP_TABLE default
0.112924
0.0984065
0.10221
0.112434
0.100575
0.100928
0.0964084
0.105134
0.0995491
0.110693
0.110897
0.117821
0.146025
0.150794
0.144916
0.143329
0.143971
0.142367
0.150749
0.151815
0.154384
0.152323
0.139815
0.140636
0.152679
0.149771
0.147183
0.156462
0.151857
0.155958
0.147962
0.141912
0.152107
0.14991
0.154286
0.155336
0.1606
0.155249
0.149006
0.145003
0.148748
0.141982
0.150298
0.156029
0.147312
0.138745
0.157924
0.143102
0.140212
0.150677
0.136495
0.152205
0.143434
0.140598
0.152071
0.13781
0.149998
0.134377
0.163098
0.136077
0.13547
0.154812
0.143779
0.165957
0.148357
0.164806
0.140016
0.142318
0.165436
0.144766
0.160942
0.144061
0.164925
0.146501
0.161019
0.159822
0.138901
0.148463
0.139641
0.136528
0.147591
0.137415
0.147488
0.135291
0.149477
0.138065
0.145016
0.153482
0.143296
0.161538
0.140579
0.162077
0.142416
0.145256
0.156991
0.14982
0.159775
0.145437
0.152302
0.144139
0.126434
0.149574
0.14361
0.162715
0.140921
0.149016
0.138998
0.129112
0.149046
0.13944
0.154309
0.134876
0.149356
0.159967
0.147653
0.137276
0.157846
0.139182
0.147353
0.163073
0.146764
0.166141
0.142562
0.144192
0.161553
0.15016
0.161745
0.14831
0.161934
0.143492
0.142246
0.159943
0.145701
0.157451
0.138716
0.159152
0.14273
0.13587
0.15479
0.140672
0.156063
0.141464
0.159538
0.135752
0.155141
0.156243
0.140141
0.14982
0.154508
0.149432
0.158077
0.159313
0.159862
0.154101
0.15406
0.158073
0.153991
0.151273
0.161186
0.149585
0.154307
0.149473
0.139699
0.145519
0.141237
0.153776
0.143603
0.145064
0.145558
0.145245
0.15579
0.140702
0.143147
0.140819
0.155107
0.143673
0.138413
0.140892
0.143991
0.153862
0.12582
0.136754
0.12467
0.14966
0.139849
0.138082
0.138327
0.136355
0.149946
0.172607
0.169679
0.170558
0.145631
0.139591
0.152545
0.144684
0.147948
0.143604
0.148465
0.132028
0.136195
0.142808
0.138052
0.135836
0.142763
0.149784
0.128766
0.135689
0.128561
0.145828
0.13472
0.132937
0.133329
0.130271
0.144423
0.168504
0.165624
0.165853
0.141263
0.138412
0.16028
0.151279
0.139408
0.141315
0.153513
0.121318
0.135379
0.148484
0.143311
0.13946
0.140113
0.150305
0.130824
0.142422
0.135064
0.152549
0.142759
0.144674
0.145672
0.151046
0.159614
0.175928
0.179553
0.180519
0.140169
0.135863
0.164783
0.146439
0.145663
0.146377
0.159735
0.133644
0.144192
0.160585
0.15056
0.144661
0.150847
0.161875
0.138482
0.146357
0.137055
0.158461
0.143887
0.1403
0.141476
0.144872
0.158133
0.184081
0.180138
0.181457
0.146656
0.163706
0.149086
0.150701
0.155764
0.143379
0.147777
0.159451
0.1481
0.143993
0.143889
0.157974
0.14093
0.135424
0.156646
0.145482
0.143116
0.144046
0.156905
0.181381
0.177414
0.179923
0.13881
0.12639
0.151195
0.138657
0.141281
0.140826
0.146872
0.137152
0.144411
0.143948
0.138363
0.128934
0.14226
0.147797
0.135955
0.138645
0.135498
0.141688
0.135762
0.130169
0.134153
0.13679
0.14813
0.160645
0.160839
0.158576
0.136518
0.131378
0.153246
0.135822
0.139482
0.135083
0.153726
0.137284
0.140596
0.159123
0.14369
0.148376
0.138159
0.152904
0.129257
0.14285
0.132506
0.156165
0.149911
0.140538
0.142142
0.147561
0.161379
0.170684
0.173596
0.17134
0.14096
0.135722
0.158084
0.147813
0.14995
0.149076
0.162542
0.145361
0.146266
0.15474
0.144688
0.142171
0.144532
0.155519
0.138061
0.150222
0.139267
0.160193
0.147125
0.144114
0.139023
0.14508
0.155341
0.176739
0.174776
0.178999
0.145131
0.140504
0.15438
0.142988
0.146703
0.144003
0.156609
0.127926
0.133868
0.146138
0.132657
0.134702
0.14075
0.153464
0.126883
0.140962
0.128358
0.162509
0.149738
0.147366
0.146171
0.148877
0.158317
0.167849
0.170315
0.170921
0.142291
0.132759
0.147626
0.142015
0.140255
0.141826
0.147071
0.125254
0.1296
0.144812
0.131866
0.130976
0.1412
0.147169
0.129657
0.138678
0.130615
0.146449
0.14041
0.134791
0.138689
0.139678
0.154023
0.163538
0.166274
0.164392
0.139089
0.148842
0.137207
0.158751
0.148885
0.148449
0.147869
0.148137
0.15763
0.136084
0.138735
0.134788
0.153483
0.139763
0.140387
0.138735
0.142195
0.15873
0.13423
0.144806
0.132364
0.157022
0.146828
0.148622
0.142334
0.148768
0.158615
0.180118
0.180818
0.17935
0.146293
0.135946
0.163822
0.152013
0.149926
0.150914
0.166124
0.137944
0.144627
0.159913
0.148159
0.14664
0.148662
0.160326
0.140595
0.15359
0.139502
0.163035
0.149236
0.145533
0.142305
0.148502
0.158778
0.181463
0.177864
0.181761
0.14434
0.143689
0.162388
0.149216
0.143606
0.14781
0.159192
0.1336
0.145029
0.158617
0.145337
0.144642
0.145091
0.159028
0.131654
0.14338
0.128752
0.156734
0.146165
0.143219
0.142253
0.141523
0.155731
0.178991
0.177226
0.17685
0.14501
0.139748
0.154474
0.144868
0.145494
0.146968
0.156865
0.127753
0.137752
0.14684
0.135843
0.132481
0.14448
0.153313
0.136256
0.143178
0.135878
0.152761
0.137284
0.13628
0.135738
0.13534
0.150954
0.175692
0.174372
0.17687
0.1458
0.156214
0.146826
0.151821
0.15976
0.130392
0.13825
0.142836
0.135087
0.134551
0.141187
0.15684
0.13945
0.133925
0.152235
0.141721
0.140418
0.143969
0.149269
0.177215
0.173297
0.175347
0.14104
0.149289
0.138596
0.140666
0.149395
0.140838
0.149361
0.136317
0.139348
0.156012
0.140851
0.149643
0.139556
0.134694
0.14517
0.170553
0.169101
0.165521
0.150675
0.159288
0.14482
0.147702
0.156097
0.145782
0.153536
0.143856
0.145948
0.161299
0.142171
0.16023
0.149494
0.150162
0.154643
0.177802
0.175307
0.175112
0.138157
0.158597
0.140054
0.140845
0.152771
0.145441
0.151395
0.143762
0.145495
0.155718
0.148627
0.160008
0.148451
0.147811
0.15214
0.171094
0.168374
0.172085
0.142122
0.151341
0.138258
0.137263
0.15127
0.137586
0.157362
0.13988
0.137931
0.146553
0.132189
0.153437
0.142565
0.141225
0.160399
0.168096
0.174048
0.172324
0.140476
0.149378
0.139393
0.136522
0.145365
0.138659
0.153655
0.137763
0.141684
0.151326
0.137065
0.146624
0.142942
0.139217
0.150344
0.166808
0.166727
0.162621
SCALARS SignedDistance double 1
LOOKUP_TABLE default
2.4283
2.79047
1.99736
2.00432
2.3351
2.96652
2.55637
2.51449
2.72096
2.56775
2.56108
2.13256
2.17951
2.39534
2.62989
3.01836
2.42302
2.49545
2.08914
2.18601
2.10119
2.26783
2.79848
2.83711
2.52192
2.71233
2.36197
2.23064
2.97245
2.76444
2.92811
3.01473
2.07167
2.44231
2.07118
1.99193
2.256
2.19989
2.23441
2.68186
2.24969
2.58831
2.3422
2.35808
2.56626
2.20903
2.23767
2.12688
2.78368
2.49479
2.69164
2.60565
2.44627
3.04001
2.88777
2.58664
2.70832
2.90329
2.37948
2.2137
2.57474
2.37082
2.24327
2.38801
2.55413
1.93276
2.20523
2.2068
1.94536
2.2837
2.01101
2.32699
2.26481
2.41962
2.34423
2.17086
2.18854
2.94883
2.9784
2.9153
2.92261
2.70364
2.80272
2.68143
2.6602
2.91648
2.30656
2.37644
2.51634
2.66806
2.48037
2.20655
2.26386
2.44862
2.31677
2.08592
2.24178
2.0867
2.55529
2.68912
2.73525
2.54028
2.65482
2.8585
2.7616
2.71645
2.81649
2.86578
2.72462
2.88945
2.94754
2.83274
1.96317
2.06893
2.0329
2.51409
2.29966
2.33255
2.19462
2.25459
2.38504
2.13517
2.15863
2.11875
2.03934
2.09032
2.14132
1.97551
2.16092
2.142
2.09255
2.11793
2.43395
2.2403
2.40435
2.27815
2.06053
2.63228
2.45839
2.53633
2.51989
2.71061
2.05701
2.6446
2.36293
2.26489
2.55734
2.55698
2.62486
2.77551
2.00276
2.16074
2.33995
2.47757
2.27163
2.54366
2.86835
2.78809
3.04789
2.72197
2.74987
2.89374
2.43707
2.43771
2.53553
2.25303
2.33483
2.23855
2.58478
2.44869
2.48845
2.15841
2.14657
2.11049
2.30405
2.21141
2.28793
2.14739
2.16812
2.19472
2.87903
2.72819
2.84219
2.55707
2.63632
2.69336
2.53924
2.57703
2.44253
2.28394
2.35051
2.41138
2.54012
2.49663
2.70395
2.61984
2.39886
2.50632
2.48857
3.02504
2.94966
2.95536
3.00605
3.04144
2.86136
2.7845
2.69608
2.74458
2.84153
2.55477
2.64264
2.4954
2.95891
2.80437
2.87046
2.73694
2.79254
2.62804
2.44483
2.32767
2.34944
2.39451
2.12045
2.34885
2.28011
2.67307
2.56801
2.41582
2.46139
2.51675
2.4666
2.39049
2.37538
2.45936
2.58512
2.28413
2.36285
2.13363
2.50454
2.45079
2.40755
2.31309
2.33394
2.37233
2.18591
2.29789
1.96199
2.03607
2.1311
2.05477
1.98456
2.34992
2.18716
2.01994
2.04208
2.15775
2.04567
1.96417
2.435
2.29381
2.44813
2.01068
2.13623
2.15313
2.24565
2.17164
2.08512
1.89054
1.93469
1.91412
2.3469
2.22674
2.27234
2.28248
2.19441
2.53178
2.46167
2.29367
2.38264
2.3308
2.34908
2.25834
2.12799
2.13296