# vtk DataFile Version 4.2
vtk output
ASCII
DATASET POLYDATA
POINTS 642 double
-1.30659 3.59037 -0.168063
0.354187 3.48478 -0.13135
-1.31543 0.512995 -0.0052747
0.687805 0.529639 0.0061465
-0.359181 1.09026 1.39629
-0.501735 2.8869 1.24022
-0.335285 1.17725 -1.32944
-0.5577 3.10051 -1.49762
1.01717 1.99462 -0.756859
1.07154 1.94518 0.774043
-1.79066 2.25099 -0.933351
-1.86363 2.13565 0.897693
-1.7992 2.99413 0.503576
-1.28172 2.62131 1.29777
-0.946755 3.40773 0.747791
0.0338782 3.37066 0.606791
-0.380519 3.79112 -0.116777
0.0446429 3.50737 -0.854577
-1.00375 3.61559 -1.02366
-1.26343 2.82905 -1.48824
-1.78551 3.10444 -0.679154
-2.09149 2.14907 0.00930786
0.435514 2.47722 1.17195
0.892159 2.76336 0.424724
-1.23074 1.50689 1.31778
-0.385196 2.01972 1.54151
-1.71939 1.17084 -0.501626
-1.75069 1.14687 0.542673
-0.465574 2.25645 -1.59925
-1.18259 1.63278 -1.29565
0.825609 2.87461 -0.484725
0.335682 2.66646 -1.23368
1.16152 1.13329 0.499879
0.517727 1.4707 1.27548
0.253514 0.593792 0.873483
-0.949016 0.567494 0.905412
-0.344147 0.292968 -0.0111089
-0.894654 0.634498 -0.847078
0.22738 0.648915 -0.834611
0.466389 1.51039 -1.22338
1.11543 1.15513 -0.467426
1.30351 1.90294 0.00785031
-1.58026 3.35154 0.187948
-1.42851 3.25953 0.66389
-1.14719 3.55025 0.322642
-1.61372 2.40216 1.15469
-1.58843 2.84258 0.970755
-1.89039 2.58339 0.737017
-0.729506 3.17074 1.0515
-1.16076 3.05178 1.08049
-0.88429 2.79234 1.31679
-0.655087 3.6865 0.290986
-0.877903 3.75111 -0.148742
-0.206229 3.156 0.966515
-0.439426 3.46296 0.687031
-0.0059489 3.70002 -0.123883
-0.162221 3.65642 0.258482
0.204864 3.49422 0.241603
-0.71898 3.76612 -0.604056
-1.188 3.66209 -0.658674
0.252848 3.5457 -0.450642
-0.159751 3.73163 -0.51757
-0.760446 3.38816 -1.34478
-0.514356 3.61417 -1.01063
-0.253794 3.33176 -1.2448
-1.46143 3.46372 -0.910964
-1.57956 3.43003 -0.425088
-0.907417 3.0069 -1.56189
-1.18833 3.30509 -1.35971
-1.84002 2.72743 -0.846093
-1.60228 3.02073 -1.14884
-1.56935 2.57958 -1.26949
-1.85722 3.08154 -0.0683237
-2.00674 2.18109 -0.475743
-2.00389 2.65683 -0.334957
-2.03071 2.60403 0.274127
-2.03492 2.14557 0.509227
0.513802 3.10205 0.549021
0.621402 3.18664 0.132788
0.0259623 2.67576 1.25074
0.291684 2.93029 0.944586
1.02492 2.38726 0.618897
0.722883 2.65944 0.819204
0.78723 2.23217 1.02025
-0.893893 2.35677 1.47719
-0.462909 2.46546 1.44438
-1.62231 1.86463 1.14649
-1.31681 2.11981 1.38473
-0.342363 1.51997 1.51978
-0.844467 1.79335 1.5098
-0.784262 1.22501 1.40005
-2.01143 1.64878 0.285231
-1.86903 1.69368 0.761634
-1.81719 1.67377 -0.709321
-1.98532 1.64863 -0.264761
-1.58384 0.762067 0.292605
-1.81846 1.11837 -0.00478673
-1.57487 0.783985 -0.284207
-1.25862 2.30878 -1.47904
-1.5272 1.96242 -1.17094
-0.539971 2.75827 -1.60117
-0.886133 2.60281 -1.62847
-0.734702 1.33157 -1.35385
-0.840271 1.98339 -1.54198
-0.356722 1.62315 -1.48531
0.206479 3.14424 -1.117
-0.123232 2.93723 -1.41786
0.604992 3.24282 -0.331122
0.466935 3.2612 -0.698223
0.715576 2.30992 -1.03312
0.628431 2.80364 -0.900705
0.981234 2.42435 -0.63695
1.01213 0.727409 0.26262
0.783871 0.795611 0.703206
0.534004 0.501247 0.42405
0.855069 1.70049 1.05573
0.903458 1.26544 0.920405
1.17307 1.50202 0.647723
-0.08463 0.820314 1.21859
0.422637 0.977723 1.13212
0.0751002 1.25791 1.39785
-0.00619971 0.362669 0.478984
0.252502 0.363948 -0.00293752
-0.656946 0.782973 1.22215
-0.351273 0.519977 0.948199
-0.876931 0.341039 -0.00300437
-0.666236 0.357441 0.492348
-1.1683 0.484035 0.496199
-0.0243668 0.387582 -0.47091
0.489467 0.531974 -0.438263
-1.15714 0.514606 -0.420958
-0.661589 0.377242 -0.461519
-0.075306 0.887214 -1.13953
-0.352329 0.577677 -0.888105
-0.602835 0.878258 -1.14263
0.734123 0.83801 -0.664644
0.960726 0.777102 -0.245344
0.0866878 1.32118 -1.32493
0.393701 1.04674 -1.08235
1.11836 1.51292 -0.610081
0.838656 1.29884 -0.882415
0.788121 1.73193 -1.02884
1.23305 1.09841 0.00464656
1.2258 1.93351 -0.375329
1.29423 1.51801 -0.21773
1.3207 1.50369 0.253303
1.24377 1.92994 0.424076
0.089702 1.72305 1.4797
0.518257 1.99079 1.28606
0.0544669 2.24487 1.42578
-1.41666 0.768858 0.77979
-1.11591 0.959896 1.18247
-1.53909 1.28283 1.00312
-1.04374 1.02568 -1.0916
-1.36797 0.832431 -0.698914
-1.50405 1.34021 -0.930022
0.452515 2.0653 -1.27761
0.0390665 1.81293 -1.45725
-0.0586582 2.46344 -1.49107
1.15935 2.37511 0.232237
1.14176 2.39372 -0.231752
0.9255 2.84083 -0.0272822
-1.43902 3.49114 -0.00946415
-1.39954 3.44501 0.282665
-1.24016 3.584 0.0586074
-1.62872 3.14244 0.590896
-1.51691 3.31075 0.452503
-1.71906 3.16405 0.365172
-1.05119 3.49458 0.545722
-1.30705 3.40543 0.521847
-1.18846 3.34652 0.72628
-1.74955 2.27515 1.04205
-1.76558 2.50095 0.967702
-1.89493 2.36793 0.825457
-1.43364 2.73883 1.15943
-1.61756 2.62373 1.07575
-1.46156 2.51018 1.23896
-1.85856 2.79694 0.627227
-1.75171 2.72153 0.867883
-1.71754 2.91661 0.750791
-0.601283 3.02257 1.16489
-0.846136 2.99143 1.19571
-0.671847 2.8486 1.28586
-1.07067 3.23924 0.927588
-0.957438 3.12481 1.07424
-0.864834 3.31031 0.897031
-1.07304 2.71905 1.3243
-1.0465 2.92502 1.21276
-1.22208 2.85136 1.20527
-1.52745 3.05942 0.830469
-1.37502 2.96434 1.04478
-1.30272 3.16636 0.893101
-0.992432 3.67568 0.0854867
-1.09548 3.68602 -0.178927
-0.802339 3.55675 0.530978
-0.896975 3.63052 0.323959
-0.627311 3.79191 -0.123034
-0.742257 3.73861 0.0880295
-0.509155 3.76035 0.0869879
-0.358061 3.02663 1.11818
-0.478211 3.1794 1.01447
-0.205759 3.44323 0.643176
-0.330638 3.32188 0.829181
-0.0671908 3.27685 0.784608
-0.597517 3.32923 0.878811
-0.711805 3.44523 0.731819
0.219354 3.58284 -0.130222
0.107554 3.61375 0.0606398
0.305475 3.49689 0.0235262
-0.274507 3.74452 0.0692237
-0.0738708 3.69128 0.0683423
-0.192573 3.7605 -0.123077
0.141958 3.44647 0.408704
0.0269003 3.59124 0.244506
-0.0651328 3.53454 0.434834
-0.556195 3.59549 0.49624
-0.293226 3.58189 0.473025
-0.411034 3.69726 0.272425
-1.04032 3.71943 -0.416729
-1.2592 3.64231 -0.441818
-0.525738 3.80238 -0.343258
-0.801392 3.77789 -0.391231
-1.10994 3.65922 -0.823345
-0.984299 3.71331 -0.654526
-0.890411 3.68748 -0.832762
0.302155 3.52959 -0.306341
0.143365 3.63253 -0.306674
-0.0505275 3.63742 -0.695547
0.0538655 3.65332 -0.495575
0.143638 3.5418 -0.678683
-0.0666363 3.72803 -0.309647
-0.268912 3.78144 -0.324539
-0.647481 3.23168 -1.44834
-0.554177 3.38093 -1.30186
-0.432382 3.20244 -1.4036
-0.790222 3.61578 -1.0372
-0.653891 3.51521 -1.17449
-0.908559 3.53322 -1.1856
-0.0841371 3.43253 -1.05397
-0.383713 3.50078 -1.12908
-0.187087 3.57956 -0.919247
-0.429187 3.77355 -0.557067
-0.298711 3.69804 -0.747953
-0.637748 3.7126 -0.820868
-1.39776 3.56654 -0.555599
-1.47258 3.51257 -0.327595
-1.23479 3.57506 -0.987012
-1.32324 3.58315 -0.788407
-1.69717 3.2891 -0.556022
-1.53739 3.44407 -0.694139
-1.64416 3.29422 -0.803652
-0.741319 3.06209 -1.5448
-0.841632 3.21013 -1.4811
-1.23152 3.0687 -1.44365
-1.03659 3.15575 -1.48629
-1.07967 2.93036 -1.54778
-0.975376 3.36686 -1.36314
-1.10742 3.49218 -1.20988
-1.8267 2.45127 -0.90692
-1.72715 2.65924 -1.06864
-1.71021 2.39339 -1.08743
-1.71857 3.06995 -0.930595
-1.73396 2.87805 -1.00422
-1.82622 2.92144 -0.774831
-1.43978 2.69597 -1.38431
-1.5952 2.80997 -1.21789
-1.44115 2.9318 -1.34222
-1.38381 3.45813 -1.19521
-1.41838 3.18101 -1.27885
-1.59812 3.27873 -1.07606
-1.60102 3.39004 -0.136113
-1.82728 3.11148 -0.400562
-1.72969 3.26408 -0.261153
-1.74959 3.21228 0.0640106
-1.84815 3.04186 0.244532
-1.91264 2.21601 -0.712526
-1.93538 2.45648 -0.668404
-2.07028 2.40247 -0.158607
-2.02146 2.42905 -0.413068
-2.06591 2.15883 -0.236297
-1.93283 2.69735 -0.606261
-1.90201 2.89031 -0.535131
-1.98739 2.36865 0.622479
-1.974 2.13862 0.690581
-1.93103 2.82411 0.400869
-1.97734 2.60126 0.515289
-2.08406 2.14864 0.265346
-2.05417 2.37474 0.381106
-2.08291 2.3843 0.142122
-1.95388 2.87896 -0.215744
-2.04223 2.63326 -0.0228412
-1.96887 2.85172 0.111604
0.431632 3.34213 0.185252
0.482134 3.35478 -0.01092
0.286556 3.24759 0.585241
0.358533 3.31189 0.39508
0.770906 2.97752 0.289144
0.584767 3.14117 0.36294
0.713714 2.94055 0.496537
-0.231697 2.78701 1.2562
-0.0809933 2.92217 1.12374
0.367716 2.69763 1.08201
0.168528 2.80759 1.10958
0.242666 2.57533 1.22127
0.0624056 3.04985 0.961402
0.172043 3.15156 0.797417
1.06134 2.14377 0.717772
0.924314 2.3095 0.830952
0.957561 2.0809 0.891326
0.825374 2.71313 0.62916
0.885003 2.52805 0.727133
0.967242 2.58182 0.527222
0.639305 2.34815 1.09611
0.7696 2.43789 0.933263
0.592037 2.56986 1.01071
0.417314 3.02579 0.755046
0.517981 2.80387 0.892423
0.633853 2.87972 0.699221
-0.693116 2.64109 1.39098
-0.489616 2.68313 1.35465
-1.0874 2.49768 1.40718
-0.917985 2.56804 1.41348
-0.42047 2.27562 1.49891
-0.700284 2.41685 1.46901
-0.656137 2.19937 1.51909
-1.74464 1.98551 1.04424
-1.62318 2.13296 1.17457
-1.2967 1.83928 1.36695
-1.46772 1.99426 1.28976
-1.42756 1.67564 1.2485
-1.47005 2.26505 1.28492
-1.31303 2.37592 1.35806
-0.35299 1.26059 1.45704
-0.582101 1.35983 1.47356
-0.55032 1.13794 1.40899
-0.619917 1.90834 1.54536
-0.585115 1.65317 1.53068
-0.36004 1.78616 1.5467
-1.00636 1.3431 1.36712
-0.825849 1.48084 1.46135
-1.04722 1.64931 1.43365
-1.10833 2.24051 1.45727
-1.08877 1.9749 1.46867
-0.891672 2.09042 1.51095
-1.97682 1.91222 0.631929
-1.884 1.89849 0.828799
-2.07279 1.9047 0.145657
-2.04274 1.90488 0.384963
-1.82958 1.4239 0.658991
-1.95566 1.64526 0.522083
-1.90366 1.39701 0.415572
-1.81914 1.95281 -0.819177
-1.92926 1.92575 -0.602778
-1.87105 1.40262 -0.388883
-1.91532 1.6552 -0.494253
-1.78076 1.4069 -0.601855
-2.01044 1.90824 -0.368457
-2.05778 1.89959 -0.137304
-1.44452 0.584685 0.114068
-1.5951 0.750869 -0.00642322
-1.44582 0.592084 -0.128548
-1.80274 1.11273 0.266856
-1.70691 0.9252 0.138066
-1.66742 0.937234 0.425452
-1.64072 0.947318 -0.385967
-1.6949 0.929866 -0.147705
-1.78536 1.1331 -0.267265
-2.02296 1.63981 0.00298126
-1.92221 1.37732 -0.137723
-1.93444 1.37051 0.140393
-1.56165 2.28306 -1.24134
-1.6703 2.11372 -1.06305
-1.26971 2.57627 -1.50305
-1.42471 2.44733 -1.39084
-1.37937 1.81677 -1.23994
-1.40242 2.1585 -1.34571
[...]
POINT_DATA 642
SCALARS Mean_Curvature double 1
LOOKUP_TABLE default
0.834003
1.31474
1.01942
1.43025
1.04068
0.599163
1.06996
1.55168
1.05315
1.18617
0.722461
1.38657
1.3664
1.465
1.20674
0.656248
1.41708
1.29907
1.85299
1.54595
1.31982
0.990731
1.02245
1.12146
0.826353
1.01782
1.01436
0.993434
0.827614
0.701623
0.942252
0.613971
1.38232
1.14448
1.42349
1.13684
0.837083
1.46558
1.41748
1.0224
1.72982
1.19419
1.22091
1.27022
0.821238
1.41255
1.43217
1.34797
1.15844
1.32658
1.23268
1.18357
1.05034
0.79804
0.995337
1.4608
1.35249
1.22553
1.25814
1.46446
1.48218
1.4875
1.75317
1.4007
1.20002
1.33395
1.29706
1.72903
1.84016
1.10433
1.13559
1.2551
1.12138
0.981795
0.96123
1.13786
1.10853
1.01377
0.932204
0.896531
0.917036
1.20239
1.08181
1.16269
1.26889
0.824176
1.20762
1.45899
1.02514
0.90597
0.842466
1.10857
0.959223
0.984861
1.01258
1.47681
1.0352
1.74842
1.35198
0.719031
1.36317
1.49192
0.923444
0.895345
0.801217
1.33883
1.10741
1.30129
1.25649
0.948727
0.747016
1.03976
2.95439
1.47695
1.30182
1.14482
1.12118
1.36103
1.16711
1.16145
1.03292
0.977461
1.00605
1.59643
1.31245
1.20592
0.946518
0.895112
1.16855
1.18993
1.12188
1.30427
1.08931
1.33855
1.03255
1.19045
1.64844
1.03131
1.24911
1.12756
1.10151
1.04837
1.5439
1.18706
1.43143
1.77276
1.21609
1.09863
1.10947
1.03804
1.28545
1.69572
1.00777
1.02098
1.31361
0.925694
0.895172
0.961297
0.765777
1.18561
1.10058
1.02264
0.955747
0.985329
0.807463
1.31437
1.34729
1.28382
1.07546
1.18751
1.19179
1.37988
1.38761
1.49903
1.39196
1.48228
1.36007
1.32306
1.32764
1.35634
1.06317
1.23214
1.07548
1.28716
1.24924
1.22134
1.36997
1.33242
1.43255
1.37069
1.38207
1.25958
0.910418
0.86778
0.95768
0.978393
1.29345
1.15701
1.35532
0.737152
0.880614
0.999838
0.636464
0.795786
1.05574
1.03401
1.39021
1.39455
1.25263
1.43815
1.41498
1.47084
0.966993
1.34149
1.20776
1.15702
1.24083
1.35782
0.983049
1.27084
1.22166
1.17365
1.66047
0.877323
0.805105
1.41552
1.47118
1.3988
1.51336
1.37203
1.4747
1.43013
1.79933
1.03183
1.06436
1.21564
0.936894
1.81925
1.19867
1.37283
1.29106
1.31988
1.32715
1.35509
1.43093
1.19027
1.70609
1.59825
1.31967
1.37558
1.23928
1.69731
1.99385
1.56274
2.12103
1.74837
1.8717
1.70404
1.06101
1.23297
1.17656
1.36835
1.27217
1.2317
1.36743
1.25435
1.33923
4.41251
1.03199
3.14861
1.04043
1.09326
1.04892
1.1225
1.29779
0.879162
0.821244
1.03322
1.02473
1.02357
1.06845
1.04258
1.27209
1.32907
1.3484
1.32745
1.21475
1.15144
1.13565
1.05626
1.10863
1.25246
0.717713
1.04744
0.923297
0.955483
1.01277
1.02139
1.02647
0.810971
0.811505
1.01017
0.884965
0.956333
0.859685
0.906819
1.17099
1.1907
1.15297
1.12855
1.12713
1.1616
1.07217
1.14347
1.05676
1.00172
1.02134
1.08082
0.991464
0.731422
1.36499
1.25594
0.931133
0.809619
0.914161
1.3766
1.23649
1.12139
1.27928
0.85799
1.25256
1.44607
0.967462
0.876059
0.941484
1.0104
0.91792
0.954976
0.692449
0.883867
0.890433
1.47291
1.25941
1.05836
1.21746
1.36312
1.05069
0.951255
1.01828
1.03741
1.02585
0.894555
0.920637
1.03515
0.965547
0.999447
0.908801
0.972729
1.72279
1.45156
1.97466
1.00133
0.865914
0.850321
0.956168
0.932526
1.03941
1.14893
1.02348
1.05795
1.18206
0.558288
1.47771
1.26862
0.688076
1.1274
0.552602
1.4181
1.54906
1.31431
1.45081
1.26056
1.63083
1.63258
1.00246
0.865479
0.932693
0.764967
0.797499
0.778855
0.873825
0.890347
0.890222
1.46345
1.32974
1.27883
1.25019
1.0117
1.12445
1.12824
1.05779
1.24235
1.16982
1.28456
1.35332
1.43714
1.36325
0.75461
1.32495
1.23431
1.00021
0.993055
1.03808
0.671371
0.84537
0.81188
0.969123
0.937354
0.859325
1.27604
1.38059
1.30953
1.09752
1.19929
1.36416
1.46016
1.11464
2.53967
1.38433
1.19033
1.31596
1.16251
1.12318
1.18107
1.10321
1.123
1.10666
1.69462
1.26149
1.50602
1.11634
1.27339
1.00393
1.19633
1.17631
1.19336
1.12188
1.12594
1.08492
1.43283
1.09334
1.15616
1.1077
1.18632
1.24861
1.13968
0.883342
0.946321
0.850327
1.45131
1.57146
1.21114
1.59117
1.36992
1.29591
1.24378
1.32291
1.2178
1.02955
0.84583
1.03153
0.867235
0.779405
0.980512
1.05209
1.15899
1.11996
0.923931
1.15231
1.40476
0.921271
1.02886
1.34439
1.29548
1.29995
1.36288
1.25531
1.23348
1.21274
1.27774
1.01382
0.938171
1.11698
1.07432
1.09654
1.22457
1.10837
1.22528
1.52023
1.25759
1.42693
1.13972
1.25621
1.17116
1.38664
1.41621
1.225
1.19338
1.60121
1.39127
1.3571
1.0731
1.01887
1.08753
0.999584
0.99381
1.08175
1.25132
1.09355
1.0689
1.03174
1.21475
1.07343
1.33122
1.02401
1.06109
1.04561
1.22865
1.17599
1.22735
1.25707
1.77421
1.53401
1.36018
1.37517
1.13592
1.14513
1.19203
1.16195
1.20251
1.18859
1.71647
1.17142
1.21765
1.73433
1.7094
1.15178
1.25721
1.22221
1.82654
1.75155
1.96163
1.10914
1.1196
1.07305
1.07345
1.0208
1.17203
1.06024
1.14375
1.11557
1.16714
0.800196
1.04395
0.883398
0.917823
0.980652
1.20923
1.0736
1.10836
1.12587
3.89241
3.2632
1.32857
0.836607
1.4261
0.848083
1.02413
1.50161
1.44049
1.04528
1.02372
1.0347
0.996014
0.940644
1.55512
1.00744
0.986131
0.962267
1.56738
1.11012
0.919359
0.687152
1.86917
0.931913
1.70707
1.57217
1.57017
0.935865
0.725065
0.859112
0.964116
0.967592
1.35989
0.940614
0.804457
0.977128
0.965754
0.957884
0.940023
0.765921
0.936924
0.899541
0.908067
0.903911
0.930029
0.934864
0.611389
0.933743
0.963581
0.779678
0.943355
0.902112
0.819632
1.18857
1.21797
1.1854
1.20472
1.12774
1.1236
1.01862
1.0952
1.13829
1.21057
0.751388
1.06527
0.942742
0.969063
0.978104
1.19823
1.04856
1.11755
SCALARS Redistribution_Potential double 1
LOOKUP_TABLE default
4.14505e-10
-0.371481
0.0373615
-0.149431
-0.212636
-0.436377
-0.205525
0.186163
-0.455026
-0.48753
0.0573612
-0.0646299
-0.0435162
-0.165036
-0.242225
-0.477743
-0.155508
-0.119747
0.281583
0.302638
0.139913
-0.0203547
-0.574137
-0.590091
-0.151059
-0.393689
0.00587296
-0.0231108
-0.0721875
-0.0526266
-0.47545
-0.289562
-0.230107
-0.38381
-0.141787
-0.00231497
-0.0835512
0.0144934
-0.163126
-0.340463
-0.222009
-0.438128
-0.0346472
-0.116893
-0.143064
-0.100441
-0.0991365
-0.0572122
-0.340681
-0.205648
-0.301224
-0.216812
-0.072593
-0.488842
-0.366909
-0.242164
-0.30521
-0.419404
0.0440747
0.162109
-0.251424
-0.108779
0.303647
0.115944
0.0412524
0.24609
0.100695
0.322299
0.37305
0.122982
0.235724
0.189884
0.0239164
0.0114673
0.0361393
-0.0200537
-0.0451689
-0.569809
-0.525431
-0.546975
-0.579562
-0.565542
-0.598048
-0.552078
-0.280911
-0.431295
-0.0965668
-0.144736
-0.31788
-0.260689
-0.174566
-0.0331074
-0.0623561
-0.00792097
-0.016374
0.0457071
0.00430622
0.0857121
0.15049
0.0260981
0.0980793
0.194855
-0.139324
-0.0315262
-0.205315
-0.163319
-0.0599134
-0.413818
-0.291062
-0.425438
-0.381605
-0.490624
-0.176875
-0.186374
-0.145019
-0.442118
-0.315198
-0.341313
-0.169962
-0.250758
-0.307978
-0.10915
-0.132475
-0.0489111
-0.0727144
-0.0106218
-0.0457773
0.00549831
-0.112062
-0.153688
0.0516784
-0.0270163
-0.194653
-0.0905164
-0.108526
-0.206404
-0.15392
-0.278417
-0.255765
-0.352843
-0.317913
-0.397214
-0.188335
-0.447695
-0.310935
-0.284028
-0.458775
-0.412368
-0.497465
-0.501528
0.0197551
-0.0183559
-0.0681222
-0.0466566
0.0559493
-0.0227002
-0.363391
-0.276992
-0.178092
-0.543459
-0.521106
-0.552404
-0.0264716
-0.0852246
-0.074666
-0.0731673
-0.0765807
-0.0376904
-0.193633
-0.131253
-0.178761
-0.0808163
-0.0777217
-0.0574587
-0.132012
-0.0965415
-0.127032
-0.0522685
-0.077178
-0.0734353
-0.39675
-0.312332
-0.379676
-0.224371
-0.268614
-0.281626
-0.231664
-0.243696
-0.185639
-0.10589
-0.145118
-0.161411
-0.119754
-0.0326952
-0.247438
-0.187966
-0.113339
-0.153436
-0.184631
-0.468256
-0.420557
-0.418734
-0.433027
-0.49201
-0.361214
-0.305009
-0.31744
-0.329218
-0.393562
-0.223813
-0.274769
-0.193729
-0.451905
-0.358528
-0.391305
-0.287029
-0.338064
-0.250557
0.0370024
0.0877422
-0.0747211
-0.00985926
0.21779
0.110335
0.155283
-0.30427
-0.244706
-0.108931
-0.174092
-0.177408
-0.179797
-0.127961
0.258865
0.180841
0.121622
0.206479
0.195088
0.313217
-0.0476632
0.0918858
-0.0244462
-0.0363293
-0.0229528
0.0975218
0.142795
0.0671072
0.292159
0.224682
0.128873
0.181171
0.190354
0.275002
0.350592
0.349349
0.388956
0.333942
0.37596
0.351578
0.090747
0.160952
0.114598
0.194461
0.180834
0.136176
0.242392
0.219814
0.278393
0.306736
0.300111
0.249778
0.0217414
0.0784981
0.0541183
0.000169516
-0.0123301
0.0316913
0.054378
0.00321158
0.0265554
-0.00565741
0.076402
0.0847031
-0.0468646
-0.0514517
-0.025605
-0.0371646
-0.0302914
-0.0340736
-0.0177517
0.0378394
0.00653518
0.00367434
-0.486544
-0.453628
-0.532088
-0.510893
-0.573908
-0.55536
-0.588837
-0.503031
-0.530971
-0.586457
-0.570142
-0.568612
-0.545526
-0.545358
-0.527702
-0.561209
-0.522397
-0.597703
-0.587935
-0.586087
-0.567847
-0.580903
-0.59011
-0.579475
-0.59592
-0.596293
-0.370634
-0.437392
-0.219709
-0.283656
-0.421175
-0.358047
-0.351196
-0.0783711
-0.100737
-0.154525
-0.120985
-0.129044
-0.125505
-0.152197
-0.260535
-0.245845
-0.192236
-0.326692
-0.299504
-0.364246
-0.164821
-0.223482
-0.20042
-0.198598
-0.201582
-0.269985
-0.0495129
-0.0587593
-0.0296327
-0.0422354
-0.0488485
-0.0463777
-0.0327326
0.0123932
0.000200513
-0.00947031
-0.0127331
-0.00998629
-0.0114393
-0.0196181
0.0441682
0.0612656
0.064621
-0.00602616
0.0219168
0.00597898
0.0401997
0.0348676
0.00921862
-0.0196589
-0.0109855
-0.017833
0.116536
0.0481498
0.237763
0.182596
-0.00631838
0.0916421
0.0338826
0.146621
0.213391
0.0931745
0.155216
0.0388907
0.259794
0.274556
-0.17834
-0.169792
-0.215884
-0.0438314
-0.114886
-0.095529
-0.159928
-0.126883
-0.0420364
0.19289
0.0996118
0.087612
-0.00589806
0.0546227
-0.143467
-0.07708
-0.17556
-0.118698
-0.220991
-0.391567
-0.332609
-0.370994
-0.352545
-0.444852
-0.26954
-0.205964
-0.454724
-0.461549
-0.475331
-0.335204
-0.416091
-0.373155
-0.491921
-0.456361
-0.428658
-0.221882
-0.314947
-0.260161
-0.161786
-0.164797
-0.147396
-0.206736
-0.185918
-0.200114
-0.143306
-0.167187
-0.172344
-0.464439
-0.401973
-0.417916
-0.357724
-0.377954
-0.420128
-0.268615
-0.329316
-0.259136
-0.188081
-0.23168
-0.256615
-0.192083
-0.21616
-0.154949
-0.35048
-0.281019
-0.324094
-0.235105
-0.288443
-0.219045
-0.137266
-0.140934
-0.118528
-0.128417
-0.113666
-0.122082
-0.0993108
-0.117799
-0.103292
-0.0358264
-0.0517077
-0.0147497
-0.108729
-0.111424
0.0245109
0.000821459
0.0227755
-0.0633806
-0.032008
-0.0495285
-0.00296695
-0.0178424
-0.0252914
-0.088051
-0.0551941
-0.0771974
-0.138612
-0.143771
-0.0988151
-0.122916
-0.156515
-0.133893
-0.133406
0.0556724
0.0216266
-0.00574145
0.0102135
0.0391
-0.0216529
-0.0582884
-0.203981
-0.149249
-0.167321
-0.137483
-0.143977
-0.176328
-0.0371164
-0.0889247
-0.0380571
-0.0749452
-0.055258
-0.101504
-0.156778
-0.154546
-0.190607
-0.176931
-0.17816
-0.178014
-0.215909
-0.241954
-0.243273
-0.302345
-0.277341
-0.311927
-0.22967
-0.205367
-0.422908
-0.386969
-0.433316
-0.2777
-0.338399
-0.288677
-0.373661
-0.36321
-0.337856
-0.230302
-0.286023
-0.253785
-0.167124
-0.186614
-0.173161
-0.182208
-0.204812
-0.453964
-0.405949
-0.37148
-0.389763
-0.441014
-0.334047
-0.251187
-0.398975
-0.468694
-0.240649
-0.301565
-0.447128
-0.370158
-0.370544
-0.216753
-0.283116
-0.208858
-0.318561
-0.402516
-0.367788
-0.371263
-0.414873
-0.502718
-0.542757
-0.527844
-0.478015
-0.442392
-0.501028
-0.453114
-0.483186
-0.532981
-0.54605
-0.45206
-0.505589
-0.459274
0.0322214
0.0123182
0.0159475
0.0294052
-0.0081533
-0.0964167
-0.103575
-0.0948316
-0.0304995
0.00925326
-0.0787752
-0.0420053
-0.0685439
-0.0944049
-0.10521
0.0169712
-0.0526574
-0.0213477
-0.131244
0.00413508
-0.0703717
-0.095052
-0.0737786
0.102176
0.0302446
0.0865898
0.0849116
0.0590823
0.00159909
-0.0434616
-0.0186709
-0.0144168
-0.00505912
0.021996
0.00609472
-0.031956
-0.425291
-0.361859
-0.394368
-0.396826
-0.342119
-0.251485
-0.198332
-0.238624
-0.290656
-0.32324
0.0158074
-0.232147
-0.11335
-0.0267758
-0.117616
-0.319178
-0.243248
-0.292053
-0.52145
-0.497982
-0.511425
-0.556442
-0.575848
-0.486707
-0.519836
-0.508641
-0.490963
-0.49065
-0.479994
-0.574994
-0.547128
-0.50167
-0.517101
-0.530859
-0.54359
-0.561311
SCALARS CoVolArea double 1
LOOKUP_TABLE default
0.0477166
0.0285353
0.0335895
0.0418748
0.032704
0.0409264
0.0313878
0.0305985
0.0325226
0.0397951
0.0480029
0.0467187
0.054586
0.052152
0.0547197
0.0601806
0.0489684
0.0493598
0.0461824
0.0526006
0.0584669
0.066581
0.0525537
0.0515054
0.069337
0.0640481
0.0608753
0.0717629
0.0700333
0.0802716
0.0612363
0.0630623
0.0508056
0.06031
0.0639918
0.064395
0.0796622
0.0605171
0.0566067
0.0579707
0.0479396
0.0486502
0.0653405
0.0580926
0.0677741
0.0493979
0.0572037
0.0540027
0.0542074
0.0500801
0.0478236
0.0567475
0.0612668
0.0645364
0.0596912
0.0429687
0.0486122
0.048965
0.0638621
0.0449545
0.0411907
0.0526774
0.0473125
0.0650655
0.0618526
0.0596871
0.0531366
0.0380743
0.0590507
0.0598199
0.0569989
0.0572234
0.0713731
0.0674186
0.0708667
0.0656918
0.0550364
0.0585727
0.0564861
0.0588725
0.0603851
0.0503164
0.0538932
0.0497032
0.0526258
0.0580706
0.0599704
0.0568868
0.0629086
0.0724761
0.0580251
0.0722232
0.0607902
0.067116
0.0686997
0.0631733
0.0698817
0.05387
0.0573687
0.0686057
0.0372188
0.0451607
0.06617
0.0758877
0.0643845
0.0539511
0.0538412
0.0441641
0.0510022
0.0597896
0.0652465
0.0539329
0.0601171
0.0617794
0.0622839
0.0518397
0.0587376
0.0457173
0.0607731
0.0679514
0.0610995
0.0771519
0.0615013
0.0529875
0.0671215
0.0653788
0.0723364
0.0622858
0.069585
0.0573003
0.0546574
0.0661321
0.0598793
0.0611619
0.0521575
0.0609832
0.0505023
0.0532097
0.0585522
0.0521182
0.058707
0.0587297
0.0541342
0.0485125
0.0460899
0.0454268
0.0494743
0.0570734
0.0587826
0.0585173
0.0600287
0.0556238
0.0700659
0.0595905
0.0557724
0.0724596
0.0677099
0.0654937
0.0772818
0.0531539
0.0589662
0.059509
0.0594167
0.0626393
0.0637984
0.0581518
0.055788
0.0587406
0.0614622
0.0586447
0.0594515
0.0531162
0.0525281
0.0536359
0.0542587
0.0514601
0.0482523
0.0530063
0.05292
0.0570992
0.0467517
0.0482989
0.0450298
0.052639
0.0482069
0.0515047
0.0459546
0.044003
0.0493594
0.0631931
0.0587334
0.0611331
0.0659564
0.0607368
0.0609991
0.0623317
0.058967
0.0579201
0.050821
0.0581556
0.0557747
0.0555139
0.0586299
0.0609678
0.0578634
0.0583869
0.0384133
0.0432971
0.0430368
0.0456359
0.0404329
0.0400243
0.0505775
0.041067
0.0510812
0.0637813
0.058463
0.056213
0.0576252
0.0550584
0.0624488
0.0643454
0.041977
0.0515261
0.0512299
0.0331099
0.0400286
0.0504302
0.0459885
0.0465657
0.0435153
0.0504913
0.0387283
0.0527055
0.0489271
0.0506522
0.0498382
0.0467908
0.0578199
0.060759
0.0620894
0.0667812
0.0697564
0.0693571
0.0487301
0.0522089
0.055258
0.0468458
0.0576683
0.0530819
0.0590026
0.0350132
0.0413343
0.054965
0.0460816
0.0431088
0.049135
0.0548171
0.0593473
0.0587296
0.0574071
0.0559676
0.04995
0.0506491
0.0507389
0.0518456
0.0566792
0.0709804
0.0674075
0.0691005
0.0616455
0.0701001
0.0630187
0.0651214
0.0618138
0.0660387
0.0675946
0.0699833
0.0668041
0.0643457
0.061528
0.065522
0.0537443
0.0512457
0.0614109
0.0571875
0.0605264
0.0580704
0.0661026
0.0799652
0.0762192
0.0756965
0.0558825
0.0444524
0.0638011
0.0566038
0.0572671
0.0577438
0.0556975
0.0643821
0.0669776
0.0559878
0.0583395
0.0502803
0.06427
0.0639714
0.0499532
0.0513826
0.050069
0.0499925
0.0479041
0.0444803
0.0493091
0.0494381
0.0561203
0.0636471
0.0612054
0.0584702
0.052129
0.0563025
0.0518427
0.0467716
0.0590345
0.0519685
0.0640678
0.052205
0.0520654
0.0681314
0.0570841
0.0668812
0.0494269
0.0537485
0.0492044
0.0630117
0.0494414
0.0682695
0.0702871
0.0604167
0.0628837
0.0689887
0.0746226
0.0598746
0.0691703
0.0666436
0.0572045
0.0526598
0.0690544
0.0640611
0.071248
0.0668914
0.0756432
0.0702173
0.0682706
0.0669787
0.0648776
0.0626571
0.065184
0.0683586
0.0534668
0.0610209
0.0524716
0.0725215
0.0617774
0.0605813
0.0517328
0.0573333
0.0658122
0.0776871
0.076316
0.0806725
0.0625861
0.065476
0.0543549
0.0541509
0.0735429
0.0626887
0.0730795
0.036678
0.034859
0.0540861
0.037212
0.0507997
0.038171
0.0479854
0.048256
0.0632919
0.0506124
0.0809046
0.0740791
0.0743682
0.070578
0.0725555
0.0736887
0.0568884
0.0650204
0.0694803
0.0559605
0.0458117
0.0529571
0.0551283
0.0592596
0.0549207
0.0568707
0.0404075
0.0382381
0.0533462
0.0421083
0.0489653
0.0465007
0.0503814
0.0498195
0.057863
0.0498891
0.0608287
0.0604074
0.0587911
0.057463
0.0589325
0.065042
0.0581267
0.0633101
0.062356
0.052152
0.0598748
0.0524893
0.0575156
0.0576205
0.0559192
0.0624458
0.0592524
0.0637832
0.0514248
0.0506867
0.0486944
0.0604893
0.0522251
0.0552722
0.0435969
0.0487743
0.0552812
0.0490845
0.0582113
0.0494714
0.0639213
0.0600389
0.0624639
0.0582061
0.0616532
0.0654954
0.069188
0.0737819
0.0731774
0.0614067
0.0525725
0.0714226
0.0668587
0.0729966
0.0701565
0.0833334
0.0487417
0.0548056
0.0666833
0.05897
0.0580228
0.0611192
0.0672267
0.0554397
0.0672465
0.0553865
0.0786473
0.0659674
0.0659132
0.0571946
0.0632692
0.0675353
0.0800772
0.0767549
0.0856894
0.0601451
0.0579767
0.0752955
0.0668022
0.0568988
0.0616841
0.0646221
0.047756
0.0578186
0.0641479
0.0589571
0.0582002
0.0605944
0.0710816
0.0493401
0.0562703
0.0469126
0.0614762
0.0571799
0.0559609
0.0521981
0.0516608
0.0594807
0.0768528
0.0720976
0.072854
0.0550065
0.0509647
0.0595716
0.0561476
0.0512855
0.0545286
0.0559029
0.047173
0.0529115
0.0547867
0.0508493
0.0512231
0.056674
0.0579313
0.0524241
0.0584125
0.0537598
0.0524512
0.0483471
0.0419564
0.0537487
0.0511687
0.0582325
0.0686481
0.0669717
0.0677126
0.0540879
0.051399
0.0524757
0.0576386
0.0544285
0.0468247
0.0501051
0.0426648
0.0441562
0.0465451
0.045299
0.047934
0.0464099
0.0470434
0.0464931
0.0429976
0.0503553
0.0465836
0.0452265
0.0546965
0.0502445
0.0544943
0.0566196
0.0575571
0.0543794
0.0566461
0.0590657
0.0532254
0.0560239
0.0500761
0.0525441
0.0612542
0.0630621
0.0605756
0.0583287
0.054812
0.0552888
0.0649213
0.0644595
0.0631309
0.0632486
0.0639201
0.057612
0.0592747
0.0624864
0.0536111
0.060626
0.0533015
0.0520144
0.0616045
0.0580729
0.0720029
0.0684926
0.0679295
0.0670989
0.0653064
0.0670793
0.0678854
0.0548375
0.0586105
0.0511814
0.0601607
0.070894
0.0538163
0.0576729
0.0506344
0.054351
0.0581051
0.0725636
0.0795226
0.07221
0.0683683
0.064619
0.064171
0.0673938
0.0748058
0.0600297
0.0635562
0.0569647
0.0587448
0.0706577
0.0570643
0.0724554
0.0613858
0.056982
0.0602112
0.0459517
0.0737385
0.0617846
0.0582741
0.0742699
0.073208
0.0798928
0.080846
0.0508458
0.0541476
0.0501314
0.0479978
0.051403
0.0530777
0.0620689
0.0532561
0.0529501
0.0552768
0.0528646
0.0559132
0.0585548
0.0560965
0.0610005
0.0609612
0.0644998
0.0596123
SCALARS SignedDistance double 1
LOOKUP_TABLE default
1.53777
1.75931
1.07066
1.03163
1.41901
1.93915
1.53722
1.76625
1.60649
1.46436
1.70563
1.10879
1.19017
1.46396
1.64863
1.96066
1.39898
1.43615
1.41391
1.35101
1.24041
1.30232
1.65687
1.67254
1.54541
1.66314
1.36349
1.26651
2.03513
1.75218
1.82389
1.99825
1.15316
1.39925
1.12872
1.05994
1.31996
1.2435
1.27065
1.59735
1.35224
1.49812
1.44724
1.38187
1.59058
1.24744
1.24745
1.12647
1.78337
1.51953
1.74228
1.60461
1.45597
1.92947
1.88058
1.5599
1.68899
1.86661
1.42862
1.4717
1.56498
1.33531
1.50778
1.49089
1.61256
1.12941
1.31029
1.52442
0.824321
1.41882
1.20528
1.44411
1.32512
1.47814
1.42767
1.23885
1.24175
1.79114
1.86936
1.76876
1.76083
1.56035
1.63153
1.54827
1.7427
1.85014
1.38537
1.45893
1.52441
1.69894
1.56396
1.2312
1.31906
1.46238
1.34854
1.27805
1.26859
1.26628
1.72205
1.77841
1.90846
1.74856
1.60995
1.92169
1.69471
1.68917
1.88738
1.84222
1.66195
1.77498
1.91433
1.69832
0.165887
1.15027
1.10998
1.44089
1.37217
1.39172
1.24702
1.29416
1.40188
1.26365
1.24867
1.27168
1.10195
1.24896
1.25458
1.12363
1.22502
1.19028
1.16907
1.22039
1.42303
1.26655
1.46159
1.31482
1.11882
1.5542
1.45098
1.50458
1.49342
1.60547
1.13851
1.52623
1.44964
1.38917
1.46439
1.50649
1.53537
1.68472
1.18774
1.44396
1.38287
1.62468
1.49086
1.55883
1.78483
1.70717
2.0543
1.59568
1.61892
1.7502
1.50682
1.53883
1.53421
1.2848
1.40722
1.29075
1.62064
1.50354
1.49979
1.18673
1.1398
1.1015
1.35077
1.22269
1.33668
1.14226
1.16534
1.18603
1.88431
1.73574
1.87021
1.55833
1.64172
1.69063
1.61644
1.61548
1.50009
1.30157
1.38596
1.42922
1.5178
1.51142
1.70085
1.59657
1.38122
1.50253
1.4777
1.93595
1.93817
1.93172
1.98183
1.94698
1.85964
1.78801
1.68174
1.71189
1.80602
1.53134
1.61935
1.46888
1.92822
1.77193
1.84875
1.73473
1.78413