# vtk DataFile Version 4.2
vtk output
ASCII
DATASET POLYDATA
POINTS 642 double
-1.12477 3.1953 -0.239117
-0.0279004 3.02547 -0.193254
-1.29455 0.541159 -0.00584371
0.675301 0.552497 0.00745109
-0.364301 1.20602 1.04522
-0.571498 2.57416 0.751241
-0.344913 1.36633 -0.876033
-0.688289 2.89099 -1.00756
0.582886 1.92067 -0.45285
0.732394 1.86932 0.55121
-1.40156 2.30863 -0.676398
-1.80525 2.13874 0.857405
-1.67991 2.90517 0.446868
-1.16729 2.45458 0.878907
-0.884867 2.96496 0.443119
-0.192529 2.91298 0.284154
-0.451631 3.36461 -0.204479
-0.157719 3.21564 -0.665717
-1.00899 3.20784 -0.856157
-1.13685 2.82412 -1.11087
-1.60313 3.02857 -0.633654
-1.85141 2.15761 0.020603
0.169164 2.23971 0.729567
0.435321 2.42883 0.249132
-1.04047 1.61172 0.899256
-0.415441 1.94483 0.994852
-1.45969 1.31266 -0.359861
-1.58337 1.23009 0.478995
-0.537117 2.28318 -1.01729
-0.956281 1.80286 -0.854122
0.326054 2.56658 -0.318184
-0.00176946 2.52834 -0.779735
1.07256 1.18277 0.466005
0.340137 1.51624 0.963056
0.208562 0.684597 0.800448
-0.934921 0.65661 0.829598
-0.350464 0.554052 -0.00111139
-0.815597 0.787294 -0.673854
0.149922 0.815726 -0.673419
0.209342 1.60102 -0.766897
0.829757 1.2324 -0.272276
0.872811 1.82356 0.0248353
-1.35052 3.01091 0.0937365
-1.27944 2.96153 0.486477
-0.997338 3.1078 0.14638
-1.48965 2.3609 0.962396
-1.46822 2.72733 0.813643
-1.83465 2.56563 0.706333
-0.748635 2.78051 0.631873
-1.07108 2.74201 0.71166
-0.864357 2.52835 0.817125
-0.635407 3.19798 0.0731095
-0.790066 3.32765 -0.21524
-0.346602 2.75686 0.552347
-0.520183 2.99381 0.343536
-0.247499 3.21991 -0.211136
-0.338481 3.14627 0.0279874
-0.109645 3.01335 0.036073
-0.670943 3.36167 -0.52792
-1.08445 3.2532 -0.638012
-0.0858925 3.1143 -0.383231
-0.28552 3.40491 -0.472505
-0.843243 3.05923 -0.971393
-0.558294 3.23954 -0.736896
-0.431128 3.03255 -0.857817
-1.37933 3.26247 -0.888086
-1.39309 3.18332 -0.442884
-0.924394 2.88228 -1.07775
-1.18262 3.14573 -1.13801
-1.48998 2.71246 -0.698898
-1.4403 3.00076 -1.03844
-1.28533 2.6368 -0.977654
-1.60908 2.90956 -0.0724951
-1.61887 2.20617 -0.330044
-1.64382 2.58731 -0.253207
-1.85073 2.56568 0.254807
-1.85052 2.15088 0.463106
0.157913 2.69059 0.288114
0.190214 2.7673 0.0187736
-0.140968 2.39543 0.767086
0.0333072 2.5708 0.553548
0.618599 2.1858 0.410915
0.35607 2.36245 0.500238
0.466597 2.07799 0.680201
-0.850647 2.22672 0.925099
-0.513872 2.26638 0.90119
-1.40527 1.94218 0.845091
-1.16381 2.11729 0.934003
-0.357132 1.56704 1.05308
-0.752473 1.81884 0.982301
-0.681679 1.34081 0.971285
-1.85154 1.69059 0.261726
-1.64159 1.76653 0.634301
-1.45857 1.77983 -0.475921
-1.68685 1.72072 -0.187115
-1.37536 0.856065 0.246361
-1.63077 1.21001 0.010122
-1.33249 0.882451 -0.158904
-1.04418 2.41802 -1.00984
-1.20244 2.0967 -0.805616
-0.658558 2.67857 -1.0434
-0.853997 2.61394 -1.07748
-0.626176 1.51774 -0.879929
-0.748152 2.11275 -0.997351
-0.386506 1.74955 -0.956434
-0.117923 2.88926 -0.737162
-0.351381 2.7694 -0.92338
0.131011 2.84652 -0.277254
0.0390159 2.91023 -0.488494
0.310069 2.18758 -0.630221
0.188095 2.57517 -0.567999
0.490273 2.23047 -0.376011
0.996555 0.720377 0.254656
0.722694 0.860539 0.633441
0.508016 0.554264 0.401245
0.595596 1.69206 0.777444
0.68779 1.32489 0.698931
0.872818 1.49287 0.470964
-0.129315 0.934743 1.04372
0.298711 1.08837 0.913433
-0.0178988 1.34233 1.06209
-0.0288973 0.564664 0.44382
0.215429 0.554446 0.00402435
-0.601471 0.889831 0.95644
-0.3475 0.554479 0.918831
-0.858278 0.553237 0.00752169
-0.648539 0.554302 0.456603
-1.14726 0.55373 0.48765
-0.0552378 0.554609 -0.417304
0.43352 0.64488 -0.386478
-1.08824 0.637718 -0.35351
-0.64547 0.554478 -0.41775
-0.139989 1.087 -0.836759
-0.364023 0.764751 -0.691094
-0.537105 1.0954 -0.787207
0.550954 0.99332 -0.476377
0.881691 0.837187 -0.213982
-0.0488037 1.47119 -0.862896
0.220393 1.21651 -0.727384
0.742982 1.54146 -0.365245
0.540809 1.39764 -0.573659
0.426803 1.74458 -0.631382
1.11915 1.14362 0.014465
0.789551 1.85872 -0.220312
0.884542 1.49948 -0.103603
0.927725 1.45854 0.197244
0.864584 1.85111 0.316261
-0.024979 1.72 1.04645
0.278723 1.90352 0.872883
-0.0978124 2.08244 0.907395
-1.23618 0.831865 0.651075
-0.954475 1.06977 0.830311
-1.32009 1.39312 0.769806
-0.844519 1.23064 -0.700268
-1.11248 1.03543 -0.447177
-1.2042 1.51686 -0.596602
0.142519 2.03095 -0.795075
-0.129827 1.87341 -0.926934
-0.269982 2.40275 -0.947459
0.667706 2.15238 0.15892
0.630567 2.18014 -0.130695
0.422111 2.50194 -0.034379
-1.22514 3.12211 -0.107504
-1.20138 3.04488 0.151272
-1.06384 3.16824 -0.0619877
-1.48774 2.95942 0.490254
-1.32814 2.98033 0.320452
-1.54068 2.95965 0.29599
-0.940815 3.04153 0.306882
-1.14604 3.00004 0.335318
-1.06993 2.95075 0.470903
-1.66302 2.26657 0.952087
-1.69113 2.47987 0.909727
-1.85263 2.36208 0.799228
-1.3056 2.57145 0.844696
-1.5059 2.54977 0.913053
-1.32655 2.40689 0.915888
-1.77262 2.75311 0.584759
-1.67632 2.68307 0.810657
-1.64396 2.86104 0.696346
-0.647656 2.66737 0.699683
-0.842928 2.6655 0.734525
-0.696248 2.55207 0.782629
-0.993213 2.86077 0.593011
-0.91853 2.7653 0.672538
-0.842329 2.89105 0.537597
-1.00393 2.49415 0.846344
-0.989255 2.63588 0.770797
-1.12201 2.60654 0.801104
-1.40788 2.87765 0.671985
-1.2531 2.72594 0.746891
-1.18318 2.8721 0.636762
-0.882166 3.26326 -0.0346878
-0.952342 3.26611 -0.244543
-0.759984 3.0806 0.264505
-0.806752 3.16498 0.125587
-0.606769 3.39347 -0.192685
-0.681946 3.28134 -0.0566512
-0.53672 3.28127 -0.0732834
-0.46127 2.66883 0.663176
-0.555318 2.77606 0.590058
-0.361306 2.97696 0.301513
-0.445375 2.88242 0.448923
-0.250354 2.84359 0.416384
-0.644179 2.89272 0.497981
-0.717706 2.98377 0.401731
-0.106944 3.1021 -0.204833
-0.180787 3.1179 -0.0913876
-0.0506287 3.023 -0.104115
-0.400489 3.24999 -0.097415
-0.288281 3.18779 -0.0943749
-0.349487 3.3 -0.21593
-0.13536 2.97069 0.147881
-0.224175 3.09141 0.022829
-0.274389 3.04286 0.15395
-0.588069 3.10454 0.208247
-0.418776 3.08345 0.179132
-0.485308 3.1929 0.0399128
-0.926246 3.29025 -0.426951
-1.1084 3.24053 -0.472135
-0.540531 3.53739 -0.330838
-0.722551 3.37885 -0.389141
-1.05424 3.24487 -0.743127
-0.90932 3.27879 -0.596891
-0.859765 3.25221 -0.701229
-0.0617178 3.07933 -0.30174
-0.149563 3.17314 -0.313527
-0.200808 3.35187 -0.588498
-0.187435 3.25441 -0.437064
-0.134654 3.1829 -0.540387
-0.267637 3.29783 -0.326259
-0.362811 3.42462 -0.332653
-0.75514 2.96575 -0.998198
-0.673105 3.05389 -0.91676
-0.589121 2.94232 -0.954536
-0.818208 3.19317 -0.809819
-0.730245 3.1334 -0.864132
-0.965612 3.15299 -0.926384
-0.284898 3.12646 -0.751338
-0.500755 3.15549 -0.801291
-0.327541 3.28253 -0.703566
-0.456209 3.52711 -0.516137
-0.351451 3.4805 -0.675115
-0.622539 3.3089 -0.652125
-1.24868 3.23493 -0.569694
-1.28214 3.17977 -0.376383
-1.20166 3.27257 -0.910372
-1.23659 3.26153 -0.772326
-1.56294 3.18119 -0.531593
-1.42659 3.28909 -0.701143
-1.59757 3.25827 -0.786231
-0.816895 2.88746 -1.04942
-0.89999 2.97955 -1.04102
-1.18437 3.02473 -1.17223
-1.04967 3.00326 -1.0903
-1.03317 2.86956 -1.10045
-1.03423 3.08787 -1.0341
-1.15463 3.18532 -1.01653
-1.4393 2.46488 -0.686077
-1.40042 2.68095 -0.864826
-1.35043 2.44059 -0.804577
-1.56838 3.05473 -0.886388
-1.47141 2.86165 -0.871141
-1.53485 2.8819 -0.688064
-1.23096 2.72586 -1.0613
-1.41074 2.8085 -1.06279
-1.31785 2.90535 -1.17794
-1.3316 3.19958 -1.04941
-1.39716 3.15762 -1.26549
-1.42147 3.17211 -0.994624
-1.37735 3.10156 -0.194043
-1.60249 2.99721 -0.391245
-1.51858 3.08869 -0.274038
-1.50796 2.9665 0.0197628
-1.68437 2.91952 0.209148
-1.50865 2.25705 -0.507671
-1.53468 2.44638 -0.500462
-1.78027 2.37841 -0.118265
-1.63836 2.40314 -0.297399
-1.75716 2.17387 -0.171331
-1.55971 2.65055 -0.489313
-1.59327 2.81333 -0.477698
-1.85075 2.35415 0.577551
-1.85196 2.14614 0.644644
-1.85051 2.78904 0.370884
-1.85088 2.56946 0.478781
-1.85081 2.15372 0.243985
-1.90996 2.36071 0.354087
-1.85068 2.36168 0.13455
-1.65668 2.76864 -0.179012
-1.77021 2.57349 -0.00418224
-1.82192 2.79015 0.101243
0.0514811 2.88698 0.0249879
0.0668693 2.90906 -0.101097
-0.00878357 2.80747 0.290922
0.0192531 2.8568 0.164355
0.321024 2.59915 0.144055
0.188686 2.72063 0.172198
0.301742 2.56611 0.274562
-0.345631 2.48893 0.766756
-0.23809 2.58048 0.672947
0.104375 2.39851 0.657138
-0.0461964 2.48585 0.668754
0.0246007 2.31483 0.752445
-0.139564 2.6682 0.556685
-0.0694989 2.73879 0.440089
0.705479 2.00919 0.505909
0.560454 2.12986 0.555155
0.645048 1.9725 0.632682
0.412896 2.39714 0.37913
0.493254 2.27867 0.464387
0.521738 2.30474 0.329596
0.336464 2.15118 0.701639
0.444797 2.23328 0.621081
0.27827 2.30536 0.627214
0.109793 2.63691 0.423894
0.199108 2.4701 0.52893
0.265747 2.52204 0.403421
-0.706514 2.40741 0.85716
-0.550879 2.42609 0.8343
-1.00756 2.34311 0.90299
-0.887094 2.37505 0.885102
-0.466063 2.13 0.944937
-0.703313 2.25052 0.915637
-0.644826 2.09261 0.957756
-1.5768 2.04388 0.852944
-1.46686 2.13707 0.961456
-1.1174 1.90318 0.916744
-1.2813 2.03771 0.910968
-1.21362 1.77023 0.871768
-1.31652 2.23021 0.965063
-1.18255 2.28773 0.927375
-0.359499 1.34942 1.04935
-0.539619 1.44767 1.04696
-0.504442 1.25345 1.00565
-0.587195 1.88212 1.00045
-0.549721 1.68719 1.02886
-0.38189 1.78064 1.02871
-0.853058 1.45735 0.929643
-0.721405 1.56521 0.987113
-0.900031 1.71973 0.949881
-1.00716 2.17514 0.936376
-0.962186 1.9824 0.94669
-0.822341 2.04498 0.956753
-1.72806 1.96506 0.540831
-1.6696 1.97651 0.702903
-1.77616 1.93862 0.144751
-1.77369 1.94012 0.334025
-1.67284 1.48939 0.590044
-1.74944 1.70076 0.451779
-1.71202 1.46845 0.365499
-1.43008 2.03766 -0.560077
-1.53829 1.99283 -0.409761
-1.61857 1.49891 -0.296682
-1.58742 1.74097 -0.352484
-1.49686 1.5254 -0.434762
-1.65339 1.96307 -0.253399
-1.72262 1.94854 -0.0748789
-1.43499 0.590758 0.120853
-1.40848 0.827756 0.00853797
-1.43826 0.609987 -0.139333
-1.62435 1.20254 0.23972
-1.46839 1.0497 0.126404
-1.43596 1.0586 0.362358
-1.37299 1.10763 -0.241754
-1.44146 1.06286 -0.0814426
-1.58591 1.23512 -0.211991
-1.77662 1.69953 0.0251639
-1.68628 1.46595 -0.0950932
-1.76959 1.43542 0.132617
-1.23632 2.37453 -0.8856
[...]
POINT_DATA 642
SCALARS Mean_Curvature double 1
LOOKUP_TABLE default
0.181003
1.51291
1.50026
5.11866
2.4265
0.846072
0.0681731
1.4064
1.18883
-1.27939
0.341067
8.05483
3.04705
0.733816
1.09408
0.692749
1.71334
7.52907
1.29447
1.20485
3.21167
3.93572
0.78356
1.10146
0.517112
1.10392
1.72559
3.47178
1.0276
0.841576
1.38806
1.0967
7.26782
1.21511
2.28996
3.94654
0.193875
4.60149
2.20616
0.541913
-0.244314
1.63811
-0.388648
1.85685
0.466676
2.64534
2.72274
4.08516
1.19126
0.815065
0.909794
1.11247
1.14809
1.04413
1.04953
0.789951
1.02543
1.43191
0.210317
0.685679
1.32167
2.30095
1.71451
1.0136
1.50651
4.73089
0.44898
1.92388
7.98736
0.208109
1.09995
1.3239
1.38552
-0.106604
-0.604443
0.366397
1.4318
1.53308
1.44878
1.12184
1.27166
3.20455
0.665478
1.21682
0.709466
0.922924
-0.247503
0.830121
0.344422
0.656267
0.339127
5.31165
1.06395
0.330951
1.12114
-1.03032
2.65238
-0.749365
1.78587
0.896583
1.65192
1.96138
0.747044
1.04295
1.21497
1.64921
1.46277
0.927655
1.96701
1.16474
1.34549
1.22484
4.14133
3.41308
3.17984
1.04063
1.13031
3.03432
3.90182
-0.713435
0.765858
-0.536647
-0.00604064
0.0904011
5.68974
-1.31809
-0.00414159
1.69706
1.55275
2.38174
3.23373
-0.0451983
2.68588
-0.279357
-0.162734
-0.955531
3.62644
1.07307
-0.432716
0.626264
0.809801
0.629461
3.9233
1.72448
-0.629657
-0.934514
2.44219
2.95381
1.34437
0.851671
0.243245
-0.194041
1.93535
0.295226
-0.241252
0.376019
1.02629
1.35848
0.917178
0.228809
1.3143
1.35079
-0.0566157
0.00717759
-0.0614953
3.04845
-0.458881
1.03084
0.752759
0.183145
0.92467
4.27081
4.17533
5.1513
-0.1102
3.13645
0.163941
1.92391
3.88041
6.12533
0.708436
0.998933
0.708645
1.09233
1.19632
1.27813
0.82443
0.840469
0.536016
2.76935
-0.139918
2.52333
3.43821
0.522143
1.08675
0.977718
3.35485
0.9478
0.927717
1.01
0.611817
1.06433
0.609907
1.08813
1.07745
1.02578
1.26358
1.15948
1.45217
0.834792
0.91286
0.472546
1.25237
1.2185
1.24094
1.10209
1.08774
1.10783
0.485259
0.0366412
8.26572
1.1369
0.880807
0.883264
0.799391
1.47445
1.04316
7.61384
0.619931
1.25197
0.3731
3.86533
1.62857
1.2776
1.40746
0.87836
1.12237
1.59145
0.919337
1.31731
0.6657
6.17913
8.90788
0.636746
-0.0819635
-0.463717
5.69046
0.0595832
6.36268
3.97745
8.70091
1.92013
1.79756
4.16343
1.42633
1.78789
1.45097
0.987706
0.73901
0.470095
1.10037
5.06289
-0.446176
-0.811709
1.12144
6.5147
6.65356
3.08571
10.0585
4.26544
0.255733
2.86472
4.40151
-0.0525522
2.90959
0.435866
0.22827
2.3765
-0.265989
2.36721
-0.307367
1.11376
-0.72113
3.94187
5.504
0.684439
0.922778
4.12774
0.720163
0.773026
-0.391478
5.27692
0.83586
0.951241
1.27517
1.16365
1.44647
1.50472
1.49901
1.12389
1.14598
1.16874
1.18055
1.12812
1.18602
1.34686
2.42922
0.535082
4.3016
1.25584
1.28963
0.894089
0.121161
5.32614
0.870383
1.492
1.14018
1.42566
0.67849
0.921418
0.971749
0.960519
0.913624
0.745711
0.828959
1.02845
4.50163
0.443019
0.232616
0.455599
2.96755
0.552725
0.267867
2.44824
-0.261369
1.01016
1.11817
1.01661
0.218962
0.695663
0.630683
1.07223
0.623632
0.726864
-1.31089
0.221408
-0.913865
-1.0502
4.76197
1.12916
-0.0283494
0.576922
-0.0359871
3.04071
1.36146
2.99364
0.618312
-1.01626
7.7838
0.68429
8.5293
2.19315
-0.976157
-0.727663
-0.373733
-0.611657
4.60083
1.46264
0.444509
3.52952
1.35495
0.653872
1.79385
1.74219
1.06593
0.733566
1.00728
1.75687
1.98201
1.51398
1.9318
0.644321
1.9948
1.89111
0.330664
0.988752
0.635985
0.96323
1.34919
0.968377
1.2576
1.4102
1.07878
1.91898
0.890095
0.700647
1.52974
1.36621
1.38871
1.41353
1.24973
1.53426
1.3925
1.59152
1.82485
1.08621
1.50635
1.40367
1.78357
1.56864
1.01598
1.25662
0.83326
1.25446
1.24907
1.21839
1.37236
1.31595
1.35874
1.82957
0.975554
1.49215
1.96512
2.47242
1.59993
1.91947
4.01782
6.05446
6.06103
-1.68011
1.37557
5.21149
2.19804
-1.30671
2.32256
-0.546397
3.33125
-0.0341009
0.353604
-1.22545
1.49373
0.194909
-0.419778
1.90301
3.64987
-1.07442
2.05242
3.64379
1.56558
0.26871
0.371167
0.250796
-0.0143502
0.472556
2.69367
0.0789336
0.183946
0.129087
0.0966341
-0.394932
-0.87043
6.60325
6.33405
-0.571303
-1.22554
5.61716
3.92345
3.51335
0.438646
-0.000362898
-0.754904
-0.0116766
2.1692
-0.834096
1.43979
0.752818
-0.0245671
0.0449128
1.6241
2.99663
-0.979487
0.122976
3.10447
3.90596
5.10312
6.13375
1.52216
7.44129
3.63399
2.20915
-0.174624
0.0853843
0.237157
5.14426
0.841042
0.917459
1.02704
-1.15571
-0.341489
-0.76094
0.474494
0.856091
6.32843
3.97496
0.267554
3.8888
2.06176
2.86635
2.0708
-1.26821
-0.1848
0.148092
2.16046
0.365157
-0.0602404
0.530724
0.536628
-0.529158
2.17951
1.64624
0.617739
1.20982
-0.266196
-0.568307
0.547353
1.42964
1.50074
5.22994
2.30172
0.940638
1.31269
5.86163
5.97027
3.49332
3.11812
1.80994
0.596561
-0.378438
4.08594
5.7982
5.06489
-0.435437
2.68002
7.25948
0.538875
-1.03639
2.23995
-0.704156
-0.570807
1.0673
-0.85952
4.10527
2.67979
4.43728
-0.407112
0.557399
0.614492
-0.538655
0.476802
-0.0509613
3.75161
-0.885859
1.04248
0.995231
0.893199
1.03969
0.85235
0.228123
0.593926
0.76975
1.21866
8.25692
8.04871
0.995575
-0.166665
-0.152592
0.227905
-0.104195
-0.332923
1.5637
-0.608808
1.58855
1.28299
0.614652
-0.139503
-0.105683
-0.0182192
-0.255138
2.44951
-0.092913
0.174369
0.4898
0.500144
1.99135
0.100748
-0.622346
-0.597331
-0.235522
0.585983
0.84454
0.626628
0.0944215
-0.212734
-0.0550332
0.307695
0.441562
1.19059
1.04704
1.12419
1.07521
1.05154
0.822207
1.16638
1.30886
0.958705
1.19734
1.20286
0.977383
0.855471
0.487724
0.973689
1.25822
1.11151
1.10387
2.20386
1.33637
2.00883
-0.0697661
0.799155
0.780094
1.35949
0.991227
0.424105
3.76214
1.40713
1.22949
1.47751
1.39747
1.42914
0.318538
1.15216
0.978893
SCALARS Redistribution_Potential double 1
LOOKUP_TABLE default
-8.88991e-16
-0.31012
-0.126743
-0.331496
-0.32728
-0.455992
-0.279005
0.136584
-0.456452
-0.491716
0.0605299
-0.19746
-0.148871
-0.344675
-0.298974
-0.405625
-0.201211
-0.118228
0.265418
0.317513
0.256356
-0.0466594
-0.523466
-0.499653
-0.299769
-0.455718
-0.0929786
-0.12133
-0.0975212
-0.117625
-0.388032
-0.238113
-0.392304
-0.429747
-0.296721
-0.184805
-0.210882
-0.18383
-0.296664
-0.373479
-0.393607
-0.479403
-0.0825602
-0.220652
-0.183624
-0.269362
-0.250262
-0.180673
-0.384791
-0.33174
-0.411877
-0.246843
-0.108952
-0.441646
-0.356659
-0.264381
-0.312549
-0.353362
-0.0301222
0.181444
-0.236231
-0.155967
0.224168
0.0118911
0.0104858
0.592697
0.158349
0.269327
0.466139
0.198334
0.444033
0.251084
-0.00141093
0.0047659
0.0543682
-0.0865813
-0.115633
-0.443171
-0.402781
-0.503593
-0.483366
-0.521457
-0.519646
-0.516659
-0.421424
-0.475456
-0.244871
-0.336852
-0.398741
-0.393511
-0.313486
-0.0909513
-0.152488
-0.0655695
-0.0586503
-0.0646012
-0.0774814
-0.078931
0.136868
-0.00588395
0.0862743
0.172927
-0.219121
-0.0782497
-0.23228
-0.130396
-0.0440881
-0.332398
-0.231407
-0.383543
-0.312552
-0.444331
-0.357645
-0.357146
-0.312137
-0.466583
-0.411094
-0.432148
-0.291669
-0.35921
-0.38392
-0.247333
-0.277144
-0.23701
-0.223616
-0.164389
-0.187714
-0.149976
-0.254878
-0.312839
-0.143676
-0.192358
-0.288471
-0.235316
-0.233127
-0.342891
-0.35392
-0.325799
-0.337713
-0.433255
-0.397189
-0.416618
-0.390106
-0.477099
-0.426575
-0.407173
-0.486928
-0.45159
-0.490753
-0.502332
-0.151497
-0.21542
-0.202777
-0.189567
-0.125202
-0.121436
-0.342392
-0.275657
-0.165288
-0.510381
-0.487921
-0.454585
-0.0340707
-0.135338
-0.0887693
-0.184125
-0.162384
-0.127385
-0.248897
-0.208937
-0.26303
-0.23259
-0.224415
-0.191051
-0.300827
-0.259988
-0.306752
-0.165896
-0.213926
-0.202028
-0.431572
-0.395606
-0.441931
-0.313734
-0.356048
-0.333378
-0.384016
-0.371422
-0.344247
-0.23553
-0.292302
-0.278415
-0.145963
-0.0497489
-0.276295
-0.219968
-0.160647
-0.19123
-0.227155
-0.451159
-0.420354
-0.379058
-0.404127
-0.42409
-0.372011
-0.327508
-0.292693
-0.312232
-0.329213
-0.260758
-0.291471
-0.234435
-0.378388
-0.333246
-0.355554
-0.301112
-0.333485
-0.277968
0.0186262
0.103415
-0.126177
-0.0659971
0.227608
0.0890076
0.113836
-0.268964
-0.250165
-0.135634
-0.19789
-0.170805
-0.217539
-0.177231
0.178384
0.117331
0.0844175
0.142434
0.124789
0.272348
-0.0691084
0.017848
-0.0732316
-0.103947
-0.0860916
-0.000458055
0.205293
0.105026
0.416114
0.345981
0.229149
0.352303
0.387826
0.216117
0.264285
0.407186
0.338598
0.306902
0.337447
0.418896
0.115455
0.23657
0.134187
0.411747
0.314542
0.247623
0.292483
0.342794
0.3851
0.589364
0.485629
0.620447
0.0301406
0.13438
0.0847766
-0.0399128
-0.0910443
0.0283997
0.0737082
-0.0131865
0.0336622
-0.0200773
0.122367
0.145168
-0.147031
-0.152784
-0.117894
-0.134295
-0.0796201
-0.104603
-0.0615408
0.0344568
-0.0242818
-0.0604046
-0.386783
-0.360087
-0.425763
-0.407295
-0.45235
-0.428182
-0.469384
-0.4815
-0.476843
-0.51286
-0.498251
-0.516766
-0.46407
-0.445908
-0.508814
-0.520384
-0.505025
-0.511902
-0.524362
-0.519256
-0.521487
-0.525566
-0.523524
-0.462188
-0.502796
-0.486108
-0.450064
-0.469506
-0.38693
-0.415325
-0.473577
-0.450004
-0.447176
-0.220306
-0.263456
-0.327084
-0.297421
-0.282218
-0.306596
-0.342954
-0.357203
-0.356409
-0.316212
-0.425945
-0.395183
-0.4337
-0.309191
-0.352635
-0.350035
-0.379743
-0.37525
-0.412395
-0.101941
-0.166144
-0.0601485
-0.0855716
-0.137868
-0.114463
-0.107242
-0.0206522
-0.0267524
-0.0789738
-0.0624931
-0.0874919
-0.031487
-0.0237125
-0.106401
-0.0791707
-0.112418
-0.0892415
-0.0558043
-0.0892808
-0.0846045
-0.0695525
-0.0808708
-0.0672989
-0.0756129
-0.0868282
0.119043
0.035975
0.246177
0.211187
-0.0539798
0.068749
-0.00820811
0.124282
0.181844
0.0595102
0.135549
0.0155842
0.227612
0.254414
-0.257454
-0.220153
-0.272316
-0.0953117
-0.157729
-0.168356
-0.175741
-0.152793
-0.0818762
0.176551
0.0464098
0.0348628
-0.0100982
0.0447031
-0.121786
-0.0718279
-0.141209
-0.0944105
-0.177558
-0.312416
-0.27102
-0.311406
-0.288696
-0.354231
-0.222889
-0.170813
-0.436408
-0.416172
-0.457191
-0.271819
-0.355074
-0.318676
-0.423822
-0.390975
-0.352249
-0.172596
-0.269877
-0.211448
-0.341538
-0.339671
-0.321299
-0.375041
-0.356078
-0.377385
-0.303641
-0.333164
-0.329177
-0.481125
-0.453096
-0.461298
-0.422244
-0.437669
-0.45124
-0.405511
-0.423793
-0.39177
-0.308171
-0.338075
-0.350853
-0.327021
-0.331939
-0.288802
-0.410592
-0.371839
-0.399135
-0.379229
-0.389432
-0.355113
-0.292234
-0.302333
-0.27069
-0.279847
-0.243413
-0.259093
-0.226918
-0.268653
-0.243627
-0.210903
-0.227918
-0.207069
-0.223443
-0.255643
-0.142292
-0.154051
-0.130656
-0.194305
-0.173947
-0.186479
-0.166622
-0.168506
-0.185402
-0.233444
-0.206334
-0.212304
-0.294434
-0.320979
-0.228476
-0.262962
-0.305781
-0.287986
-0.279588
-0.13492
-0.154839
-0.190801
-0.171433
-0.166258
-0.178022
-0.199204
-0.286488
-0.259852
-0.263746
-0.268757
-0.262406
-0.283546
-0.203756
-0.22315
-0.20879
-0.220518
-0.212247
-0.247119
-0.332092
-0.345889
-0.323836
-0.328658
-0.372718
-0.331474
-0.36883
-0.301233
-0.31255
-0.360436
-0.336848
-0.350543
-0.315238
-0.314503
-0.455267
-0.432674
-0.443102
-0.3982
-0.417196
-0.412922
-0.399364
-0.412496
-0.390268
-0.344919
-0.369146
-0.371249
-0.357396
-0.390401
-0.374961
-0.376193
-0.389252
-0.470644
-0.459433
-0.451387
-0.459
-0.479992
-0.435522
-0.409163
-0.458424
-0.489438
-0.40469
-0.41104
-0.482481
-0.445539
-0.448033
-0.405394
-0.411818
-0.403239
-0.394677
-0.440489
-0.420631
-0.430628
-0.460332
-0.492439
-0.514168
-0.504224
-0.478881
-0.451966
-0.494069
-0.482811
-0.495475
-0.510164
-0.516883
-0.469621
-0.500455
-0.480045
-0.120602
-0.166883
-0.149552
-0.122197
-0.130342
-0.264749
-0.259046
-0.257888
-0.224343
-0.184641
-0.192809
-0.15911
-0.182259
-0.22874
-0.247559
-0.171837
-0.210164
-0.165246
-0.237221
-0.183634
-0.211477
-0.206175
-0.173082
-0.113851
-0.107946
-0.0946536
-0.123345
-0.152406
-0.0519449
-0.12677
-0.0876477
-0.0915723
-0.104554
-0.156225
-0.133019
-0.157644
-0.409936
-0.365948
-0.388577
-0.365737
-0.29974
-0.289245
-0.202316
-0.248595
-0.313433
-0.335195
0.0170582
-0.197579
-0.0980621
-0.0289714
-0.125037
-0.307146
-0.233439
-0.265471
-0.508533
-0.500037
-0.505584
-0.516167
-0.511508
-0.475487
-0.451526
-0.469797
-0.487192
-0.494214
-0.371008
-0.479911
-0.427252
-0.393142
-0.42111
-0.501368
-0.477678
-0.498243
SCALARS CoVolArea double 1
LOOKUP_TABLE default
0.0309852
0.0119365
0.0313951
0.0367051
0.0207301
0.022921
0.0166323
0.0127983
0.0150518
0.0226429
0.0299755
0.0401847
0.0431716
0.0277748
0.0279896
0.0319345
0.0248926
0.0243019
0.024594
0.0271919
0.0453598
0.0502502
0.027041
0.0243748
0.0454019
0.0349376
0.0436594
0.0584251
0.0375716
0.0515588
0.0297372
0.0350445
0.0432921
0.0386534
0.0541615
0.0536021
0.0650762
0.0432827
0.0419186
0.032519
0.0318504
0.0266656
0.0446096
0.0363155
0.0418186
0.0364954
0.0422423
0.0474019
0.0288983
0.0258884
0.0253159
0.0276619
0.0359867
0.0366159
0.0317795
0.018808
0.0216733
0.0239532
0.0393183
0.0272244
0.0169955
0.0295016
0.0211247
0.0347816
0.0302043
0.0296325
0.0374594
0.0151693
0.0261017
0.0426379
0.0410554
0.0337476
0.050106
0.0457581
0.0507341
0.0537335
0.045001
0.0284944
0.0275971
0.0325377
0.0316566
0.0260826
0.026603
0.0268069
0.0271251
0.0330294
0.0404423
0.0300322
0.0388389
0.042094
0.0395429
0.0574665
0.0463097
0.0431637
0.0500542
0.0550082
0.0560783
0.0420485
0.0274714
0.0418857
0.0165012
0.0182279
0.0406701
0.0411303
0.0367008
0.02339
0.026735
0.0196066
0.0204017
0.0326811
0.0331499
0.0269936
0.0609073
0.0520377
0.0577408
0.0313635
0.0421205
0.0289383
0.0476619
0.0506893
0.0413719
0.0660632
0.0514499
0.0387457
0.0617916
0.0574629
0.0620403
0.05459
0.0560845
0.0462892
0.0418111
0.0556863
0.0405491
0.0455613
0.0343309
0.0434824
0.0425001
0.0301937
0.0375079
0.0305088
0.0354832
0.0320219
0.043363
0.0249465
0.0273209
0.0272172
0.027672
0.0329479
0.0325876
0.0316155
0.0517232
0.0420007
0.0516385
0.0389833
0.0386673
0.047372
0.0381199
0.0354444
0.0457607
0.0261414
0.028575
0.0292155
0.0396805
0.040849
0.0407031
0.0421779
0.0369825
0.0420931
0.0340795
0.0348888
0.0326677
0.0444303
0.0439709
0.0474972
0.0338957
0.0382931
0.0301271
0.0448972
0.0439631
0.0458227
0.0250304
0.0249647
0.024343
0.0268833
0.023634
0.0262692
0.0230181
0.0215199
0.0259372
0.044035
0.035559
0.0357631
0.0398581
0.0374904
0.0316559
0.0350657
0.0328506
0.0312814
0.0233776
0.0328439
0.0309955
0.0293472
0.0331646
0.0343491
0.0318236
0.0306464
0.0162155
0.0192177
0.0199907
0.019927
0.0171115
0.0178352
0.0252178
0.0185005
0.0247701
0.0321195
0.0280701
0.0255752
0.035606
0.0352841
0.0400736
0.0397177
0.0238147
0.0306353
0.0291103
0.0128044
0.0171192
0.0272488
0.0223113
0.0215003
0.0209645
0.0283039
0.0156574
0.0250529
0.0222323
0.0272893
0.0254218
0.0229469
0.0288473
0.0307098
0.0337132
0.0435599
0.0421271
0.0402748
0.0331742
0.0338394
0.0272444
0.0293735
0.0440048
0.0407394
0.0449155
0.0135416
0.0160835
0.0299023
0.0186022
0.0190485
0.0208079
0.0238225
0.039282
0.0396727
0.0347112
0.043703
0.0376551
0.0387948
0.0274249
0.0343048
0.0385351
0.0270169
0.0409022
0.0350587
0.0411533
0.0491327
0.0430643
0.0449187
0.0468727
0.0432382
0.0458852
0.0507873
0.046238
0.0462741
0.0438961
0.0475829
0.0460973
0.0440393
0.0506731
0.0480674
0.0474998
0.0479814
0.0513121
0.0583348
0.0582422
0.0593317
0.0282256
0.0209173
0.0328428
0.0285148
0.0277808
0.0282786
0.0264258
0.0374312
0.0376907
0.0288126
0.0312784
0.0264471
0.0355279
0.0343471
0.0271113
0.0273432
0.0278021
0.0236606
0.023569
0.0209983
0.0257521
0.0253487
0.0286351
0.0322687
0.0307366
0.0283385
0.0291272
0.0322151
0.0256296
0.0245387
0.0331563
0.0289655
0.0353628
0.0401013
0.036845
0.0403897
0.0340971
0.0430911
0.0295107
0.0277012
0.0301953
0.0393333
0.0328679
0.0382528
0.0417363
0.0345228
0.0421952
0.0422516
0.0454774
0.0300361
0.0385215
0.0361486
0.0447824
0.0408997
0.0523727
0.0494174
0.0572905
0.0529306
0.0606746
0.045823
0.0456944
0.0478593
0.0443015
0.0417455
0.0458423
0.0505474
0.0512908
0.052537
0.0477668
0.0594141
0.0512254
0.0525088
0.0409777
0.0457061
0.0512009
0.0594194
0.0579971
0.0638431
0.0354594
0.0402165
0.0249781
0.0272349
0.0462162
0.0345263
0.0424461
0.0160014
0.0137887
0.0254126
0.0146294
0.0254391
0.0150456
0.0204484
0.0276043
0.0368288
0.0286783
0.0482139
0.043712
0.0472317
0.0384788
0.040484
0.0388283
0.0247089
0.0308118
0.0354783
0.0264053
0.0211573
0.0235144
0.0252662
0.030882
0.0260242
0.0276546
0.0175846
0.0147247
0.0237317
0.016559
0.0227186
0.0186898
0.0214035
0.0253042
0.0303915
0.0249496
0.0321449
0.0325715
0.0330277
0.0278255
0.0299245
0.0318134
0.0242064
0.0285182
0.0289018
0.0474754
0.0566858
0.0471668
0.0518767
0.0550427
0.0588918
0.0579117
0.0536697
0.0545515
0.0307842
0.032027
0.0298518
0.0404302
0.0338212
0.034625
0.0279456
0.0327179
0.0415269
0.0351705
0.0419347
0.0321355
0.0505763
0.0458166
0.051576
0.0388263
0.0438302
0.0451168
0.0547217
0.0538315
0.0577565
0.0533218
0.0451478
0.0612348
0.0596014
0.0606575
0.0598115
0.0694715
0.0334137
0.0411563
0.0629329
0.0512701
0.047284
0.0520717
0.0571189
0.0492553
0.0613644
0.0485109
0.0651014
0.0574217
0.0548702
0.0538297
0.0562859
0.0600884
0.0684066
0.0686876
0.0724145
0.0503295
0.0499809
0.0616308
0.0556587
0.0451237
0.0511463
0.0512214
0.0419255
0.0482827
0.0537405
0.0466786
0.0429089
0.0501583
0.0582889
0.0296941
0.0377158
0.0280955
0.0454927
0.0408978
0.0396106
0.0350078
0.0354822
0.0456005
0.0616845
0.0594236
0.0555615
0.0446262
0.0437484
0.0432552
0.0432096
0.0394556
0.0412167
0.0379361
0.0263559
0.0317589
0.0318587
0.0302105
0.028778
0.0372608
0.0396213
0.0282818
0.0334498
0.0281733
0.0328334
0.028561
0.0252556
0.0292796
0.0289287
0.0335674
0.047005
0.0417533
0.0446724
0.0510187
0.0378752
0.0477526
0.0583331
0.0469795
0.0233624
0.0272797
0.0241485
0.0247275
0.0249489
0.027064
0.0304103
0.0274353
0.0266884
0.0304061
0.0258092
0.0282734
0.0274226
0.0259086
0.035268
0.0299502
0.035604
0.0353786
0.0353416
0.0340683
0.033888
0.0323224
0.0303874
0.0295886
0.0273361
0.03058
0.0364982
0.0362344
0.0329757
0.0326949
0.0301513
0.0291732
0.0364476
0.0345966
0.034117
0.0525639
0.0602938
0.0565092
0.048897
0.0492563
0.0382313
0.0430596
0.0385196
0.0406597
0.0459484
0.0408733
0.056374
0.0510325
0.0468374
0.0466506
0.0497745
0.0512033
0.0516058
0.0340089
0.0382823
0.0327408
0.0386474
0.0468153
0.0421966
0.0410179
0.0384831
0.0400922
0.038954
0.0467306
0.052523
0.0465612
0.0438323
0.0429164
0.0421021
0.044806
0.0497715
0.0323918
0.0350528
0.0308111
0.0328392
0.0413041
0.0323305
0.0394136
0.0335976
0.03158
0.0331585
0.0229222
0.0426601
0.0341813
0.032648
0.042439
0.0404516
0.044959
0.0467597
0.0270114
0.028107
0.0261046
0.0238872
0.0243844
0.0265682
0.0297693
0.0256803
0.0265515
0.0282985
0.0254011
0.026966
0.0286264
0.02745
0.029817
0.029839
0.0311119
0.0286696
SCALARS SignedDistance double 1
LOOKUP_TABLE default
1.14585
1.31606
-0.0111919
0.0706347
0.0666298
1.41481
0.776151
1.54626
0.477569
0.188586
1.38488
0.0639374
-0.0172359
1.03352
1.25027
1.48457
0.446647
0.178406
1.23179
1.1571
0.00997112
0.029487
1.06852
1.09432
0.859452
1.18112
0.0591681
0.0531286
1.57118
1.30218
1.27264
1.51232
0.0152766
0.0626688
0.013
0.133141
0.0224412
0.129143
0.00324156
1.1017
0.330293
0.0699543
1.09556
0.116954
1.12088
0.0365099
0.0107082
0.0461282
1.38454
1.15757
1.31645
1.18487
0.29192
1.3995
1.41841
1.15786
1.25255
1.37754
1.12011
1.22373
1.17547
0.122634
1.39415
1.23181
1.33739
-0.858962
0.298813
1.32367
0.28537
0.784132
0.0776352
1.21229
0.0328894
1.13089
1.07622
0.00814059
0.00185866
1.28329
1.35984
1.19281
1.18771
0.122904
1.05389
0.195763
1.33437
1.30277
1.10931
1.1408
0.343828
1.23494
1.1468
0.0539121
0.0401453
1.07332
0.0405905
1.1383
0.0136285
1.09703
1.52528
1.36879
1.65454
1.52294
1.09604
1.49493
1.19323
1.35349
1.52937
1.44409
1.36995
1.24627
1.39416
1.12874
0.0133218
0.0803738
0.0117985
0.072497
0.0293276
0.0646554
0.0114347
0.046658
0.0717285
0.0520591
0.00930426
0.795486
0.00655761
0.0502422
0.0141321
0.0286862
0.0038128
0.0506472
0.0531457
0.00720809
0.0332757
0.064437
0.473364
0.196194
-0.0114971
0.394892
0.687819
0.148372
0.14944
0.917564
-0.0103383
0.11303
0.419547
1.08122
0.0319265
0.0991456
0.225149
1.16677
0.385987
1.16433
0.0795751
1.18181
1.17291
1.08461
1.27832
1.24199
1.57251
0.742943
0.460125
1.16011
1.08301
1.02652
1.04405
0.0396659
0.673961
0.0530932
1.2043
1.09213
1.07581
0.0587648
-0.0236318
0.0604763
0.834868
0.0453055
0.518018