# vtk DataFile Version 4.2
vtk output
ASCII
DATASET POLYDATA
POINTS 642 double
-1.98394 4.80705 -0.0441577
1.29615 4.77312 -0.0411475
-1.9963 -0.575415 -0.0274173
1.34442 -0.576942 -0.0250709
-0.328172 0.464798 2.65346
-0.34597 3.74197 2.58984
-0.325114 0.489703 -2.66421
-0.347616 3.79656 -2.72737
2.30193 2.11819 -1.64088
2.32908 2.10393 1.60439
-2.98888 2.14308 -1.67839
-3.00919 2.12707 1.62478
-2.88089 3.70568 0.945438
-1.90947 3.09357 2.50737
-1.29467 4.64487 1.52954
0.607638 4.61799 1.49552
-0.324039 5.26309 -0.0325008
0.627015 4.66625 -1.59497
-1.31785 4.71926 -1.63148
-1.92585 3.12065 -2.60268
-2.90274 3.72769 -1.01899
-3.46799 2.12863 -0.0241805
1.20863 3.07178 2.45317
2.16776 3.6534 0.923526
-1.89518 1.14873 2.50452
-0.334415 2.11339 3.06578
-2.87018 0.545255 -0.996767
-2.87105 0.544143 0.946849
-0.342078 2.14685 -3.11899
-1.87523 1.17329 -2.51835
2.13987 3.66127 -0.971556
1.20192 3.08511 -2.51941
2.25264 0.533771 0.954112
1.23716 1.14331 2.49738
0.657012 -0.440473 1.55595
-1.31183 -0.447401 1.55418
-0.326413 -1.02674 -0.028359
-1.30123 -0.42513 -1.59534
0.650362 -0.425011 -1.6013
1.22177 1.15412 -2.52948
2.24125 0.540027 -1.00311
2.82219 2.10066 -0.0265585
-2.50281 4.3473 0.464851
-2.18601 4.28486 1.30082
-1.69223 4.82167 0.765488
-2.54646 2.63117 2.15369
-2.4976 3.46907 1.82242
-3.05353 2.94602 1.33783
-0.826571 4.26769 2.15587
-1.67415 3.96536 2.12587
-1.13082 3.48689 2.66008
-0.843021 5.09728 0.77886
-1.20235 5.13828 -0.0385861
0.146774 4.24482 2.10874
-0.332455 4.75505 1.58302
0.515553 5.14395 -0.0373432
0.174269 5.08805 0.779048
0.99998 4.8055 0.761578
-0.848089 5.12128 -0.865913
-1.72066 4.88085 -0.870546
1.02635 4.82257 -0.824037
0.171045 5.11903 -0.860103
-0.835337 4.33826 -2.28462
-0.351865 4.80388 -1.69529
0.153721 4.29311 -2.23915
-2.21035 4.32787 -1.38997
-2.52359 4.37452 -0.539871
-1.16588 3.51757 -2.78225
-1.68909 4.01255 -2.23108
-3.06284 2.96306 -1.40878
-2.52506 3.49289 -1.90974
-2.55078 2.65086 -2.22386
-3.00977 3.79023 -0.0321285
-3.33645 2.13362 -0.880168
-3.31958 2.96289 -0.544696
-3.32561 2.95376 0.483227
-3.35691 2.13137 0.8512
1.47262 4.23273 1.271
1.777 4.28608 0.447375
0.465824 3.44215 2.61449
0.974465 3.91563 2.06331
2.34998 2.91879 1.31327
1.78913 3.42867 1.77033
1.85173 2.60863 2.11936
-1.15434 2.63583 2.93864
-0.345839 2.96029 2.932
-2.54861 1.63455 2.14506
-1.9883 2.12408 2.63134
-0.325438 1.25045 2.96448
-1.15241 1.61211 2.91884
-1.13197 0.744996 2.69068
-3.311 1.30189 0.483592
-3.04215 1.32719 1.34499
-3.01653 1.3163 -1.37219
-3.30901 1.30272 -0.534779
-2.52114 -0.101548 0.481912
-3.00621 0.465889 -0.0300357
-2.52209 -0.0989417 -0.533505
-1.97836 2.14348 -2.70368
-2.50819 1.64278 -2.17875
-0.340021 3.01749 -3.06406
-1.16755 2.66013 -3.03929
-1.11566 0.768286 -2.69704
-1.14755 1.64148 -2.96249
-0.325926 1.26578 -2.9845
0.977966 3.96181 -2.16773
0.447566 3.48765 -2.70718
1.8082 4.30657 -0.532548
1.48425 4.26311 -1.3463
1.82585 2.61269 -2.1563
1.7744 3.43643 -1.83029
2.33067 2.91465 -1.3609
1.88078 -0.122333 0.473807
1.53938 -0.0678511 1.31487
1.06475 -0.617202 0.781688
1.87169 1.60464 2.13368
1.85512 0.777383 1.82677
2.40621 1.28546 1.33957
0.170567 -0.0616462 2.20274
1.01158 0.259697 2.13645
0.473528 0.754365 2.6771
0.188669 -0.88244 0.803032
0.562038 -0.917357 -0.026757
-0.83935 -0.0783232 2.18974
-0.327282 -0.574336 1.64174
-1.19682 -0.922095 -0.0266501
-0.844134 -0.890258 0.810362
-1.70806 -0.615385 0.800631
0.188235 -0.877389 -0.858003
1.04688 -0.606219 -0.843898
-1.70992 -0.611383 -0.834327
-0.84624 -0.877309 -0.850253
0.16913 -0.0404136 -2.23276
-0.331529 -0.554735 -1.67658
-0.822155 -0.0447366 -2.23842
1.52936 -0.0552768 -1.35794
1.87641 -0.117024 -0.527296
0.478759 0.769592 -2.69532
1.00668 0.284311 -2.17676
2.39169 1.29009 -1.38262
1.83331 0.790988 -1.86125
1.84732 1.61139 -2.16583
2.3856 0.452326 -0.0272445
2.67852 2.10295 -0.871335
2.69188 1.29004 -0.537971
2.69683 1.27638 0.489048
2.68437 2.11236 0.840168
0.488129 1.60319 2.92905
1.30487 2.12001 2.60595
0.480543 2.61328 2.90934
-2.19593 -0.0642826 1.32538
-1.6769 0.256815 2.14957
-2.50045 0.774437 1.83353
-1.65756 0.279956 -2.17419
-2.18408 -0.0479303 -1.36728
-2.47041 0.796253 -1.84517
1.28443 2.12272 -2.6315
0.474974 1.61713 -2.94762
0.466298 2.63864 -2.93904
2.62783 2.9244 0.475437
2.60789 2.92713 -0.524066
2.28867 3.73537 -0.0272486
-2.25124 4.60148 0.205849
-2.1295 4.60847 0.631945
-1.85222 4.83264 0.354103
-2.56242 4.01763 1.13536
-2.36454 4.33539 0.90035
-2.72374 4.03429 0.714118
-1.50688 4.75971 1.15596
-1.9572 4.57663 1.05115
-1.74987 4.49732 1.43834
-2.80261 2.38258 1.91031
-2.83053 2.80268 1.77492
-3.06009 2.54185 1.49642
-2.21943 3.29723 2.19785
-2.54849 3.05719 2.00794
-2.24855 2.86813 2.35274
-2.99394 3.33618 1.15097
-2.80125 3.22067 1.60041
-2.7252 3.59801 1.39839
-0.576633 4.01459 2.40233
-1.00875 3.90164 2.43812
-0.724699 3.63433 2.64891
-1.50454 4.33397 1.8505
-1.25866 4.14437 2.16122
-1.08349 4.48646 1.85608
-1.52194 3.30785 2.61399
-1.42583 3.73815 2.41945
-1.80152 3.55016 2.34877
-2.37385 3.89769 1.58131
-2.10328 3.74179 2.00251
-1.95296 4.15182 1.73824
-1.44679 5.01392 0.373102
-1.60464 4.99979 -0.0499969
-1.07028 4.89289 1.16971
-1.27441 4.98017 0.783996
-0.770461 5.2295 -0.0326882
-1.02188 5.14977 0.375899
-0.580013 5.21836 0.380917
-0.0995601 4.01082 2.37259
-0.337765 4.28714 2.15756
0.143069 4.72411 1.56097
-0.0857599 4.52321 1.86415
0.38729 4.45176 1.81239
-0.587707 4.5368 1.88345
-0.829447 4.73417 1.57856
0.941385 4.97193 -0.03524
0.776438 5.01388 0.371099
1.16956 4.80795 0.348848
-0.0791022 5.2236 0.375703
0.356736 5.14494 0.377252
0.0948558 5.23771 -0.0380445
0.822834 4.73157 1.12705
0.598665 4.98101 0.777819
0.405994 4.88227 1.15654
-0.596923 4.97015 1.20124
-0.076224 4.95901 1.19952
-0.339963 5.14233 0.789518
-1.46939 5.05599 -0.460867
-1.87273 4.87146 -0.465416
-0.581767 5.22806 -0.448728
-1.03701 5.16287 -0.461115
-1.53344 4.83176 -1.24832
-1.30514 5.04246 -0.884645
-1.09941 4.9658 -1.27002
1.17389 4.83149 -0.443813
0.789771 5.01724 -0.441946
0.410218 4.9277 -1.24405
0.610496 4.99789 -0.856705
0.83142 4.77331 -1.23552
0.357944 5.15917 -0.446442
-0.0772505 5.23371 -0.454649
-0.582645 4.07901 -2.53803
-0.352998 4.35645 -2.2906
-0.100792 4.05817 -2.51513
-0.847589 4.80045 -1.69357
-0.597395 4.60859 -2.00782
-1.09753 4.55468 -1.97282
0.402503 4.49788 -1.93199
-0.0966572 4.57999 -1.98428
0.163079 4.76456 -1.65433
-0.340095 5.15931 -0.873927
-0.0713588 4.99748 -1.28343
-0.611081 5.00117 -1.29935
-2.14919 4.659 -0.716566
-2.28254 4.60822 -0.304343
-1.7768 4.55807 -1.53154
-1.98181 4.63151 -1.1417
-2.73708 4.07606 -0.784952
-2.39886 4.37064 -0.981548
-2.58838 4.05179 -1.21813
-0.760994 3.67619 -2.78718
-1.00935 3.9576 -2.56526
-1.82776 3.58222 -2.44732
-1.43251 3.78229 -2.53286
-1.55681 3.32935 -2.71738
-1.27376 4.20226 -2.27803
-1.52231 4.38993 -1.95619
-3.05359 2.53708 -1.56777
-2.84193 2.81535 -1.8407
-2.80777 2.38587 -1.95889
-2.74594 3.62256 -1.48034
-2.82493 3.23901 -1.67831
-3.00949 3.35349 -1.22646
-2.26432 2.88665 -2.43626
-2.56456 3.08139 -2.09031
-2.24631 3.32206 -2.29117
-1.97389 4.19506 -1.83485
-2.13236 3.7742 -2.09897
-2.39618 3.93047 -1.67062
-2.54445 4.37548 -0.0397163
-2.98463 3.77729 -0.535505
-2.79421 4.09738 -0.293563
-2.79026 4.07909 0.219402
-2.97759 3.76597 0.469213
-3.18585 2.13973 -1.28756
-3.23357 2.5557 -1.15948
-3.4271 2.54811 -0.287319
-3.35967 2.55397 -0.723241
-3.42992 2.12962 -0.457104
-3.22467 2.97303 -0.989066
-3.14708 3.35386 -0.796671
-3.24606 2.54507 1.10348
-3.21554 2.12717 1.23937
-3.13705 3.3527 0.726818
-3.21942 2.95971 0.919831
-3.44503 2.13156 0.420545
-3.37344 2.54442 0.664514
-3.43876 2.54733 0.230921
-3.20236 3.38793 -0.295702
-3.36332 2.97035 -0.0277839
-3.2049 3.38548 0.228593
1.41692 4.56557 0.614511
1.55961 4.55579 0.206517
1.05217 4.44112 1.39507
1.24527 4.53242 1.02121
1.98974 3.98372 0.690375
1.64965 4.27746 0.876217
1.83952 3.95961 1.11003
0.0597766 3.60254 2.61889
0.315727 3.86305 2.38441
1.10795 3.50745 2.29824
0.732298 3.69196 2.35957
0.849609 3.26634 2.56283
0.57329 4.09724 2.10142
0.802308 4.28811 1.80299
2.35823 2.50763 1.47809
2.13208 2.77127 1.74059
2.11821 2.35881 1.86799
2.01298 3.55815 1.36832
2.09125 3.18643 1.5577
2.28355 3.30025 1.12955
1.55612 2.8426 2.29924
1.84587 3.02421 1.96939
1.51917 3.2602 2.14063
1.24654 4.10351 1.6962
1.40155 3.69467 1.94382
1.66182 3.8542 1.54711
-0.745598 3.23798 2.83617
-0.347652 3.3653 2.78949
-1.54264 2.87747 2.75774
-1.16769 3.0625 2.8306
-0.333973 2.5597 3.02299
-0.759865 2.80391 2.97149
-0.746762 2.38123 3.03341
-2.79882 1.86973 1.90838
-2.56993 2.13052 2.18553
-1.96388 1.63256 2.59377
-2.28075 1.87693 2.4205
-2.23552 1.37509 2.3453
-2.28232 2.38472 2.42345
-1.97112 2.6141 2.60222
-0.329021 0.832147 2.83373
-0.743134 0.981102 2.86332
-0.721713 0.586066 2.70047
-0.747701 1.86091 3.03178
-0.737767 1.43261 2.97338
-0.330391 1.68399 3.04778
-1.52644 0.928561 2.63146
-1.15706 1.16517 2.82127
-1.53823 1.37404 2.74613
-1.59023 2.37986 2.8236
-1.58014 1.8742 2.82164
-1.17299 2.12272 2.97589
-3.2397 1.7176 1.10313
-3.05353 1.7122 1.49431
-3.43197 1.71574 0.229615
-3.36403 1.71275 0.663693
-2.98339 0.929106 1.15931
-3.20404 1.29606 0.91854
-3.12594 0.908522 0.725248
-3.02262 1.72452 -1.53417
-3.21411 1.71835 -1.14225
-3.11644 0.912155 -0.770788
-3.19311 1.30221 -0.965697
-2.96277 0.919981 -1.19125
-3.35256 1.71251 -0.714777
-3.4227 1.71069 -0.285136
-2.26731 -0.377788 0.217775
-2.54917 -0.131058 -0.0261077
-2.26699 -0.375477 -0.272049
-2.96477 0.483328 0.463319
-2.79276 0.160135 0.228066
-2.72098 0.20153 0.723362
-2.72108 0.196011 -0.771295
-2.79097 0.162488 -0.283689
-2.97504 0.484797 -0.524906
-3.34945 1.29028 -0.0273257
-3.19438 0.868166 -0.286696
-3.19011 0.867219 0.230678
-2.56064 2.14382 -2.23779
-2.77362 1.89022 -1.94823
-1.97102 2.6393 -2.69059
-2.28571 2.40019 -2.48866
-2.21403 1.41029 -2.37079
-2.26749 1.89299 -2.46763
-1.94406 1.65613 -2.64384
-0.348829 3.41088 -2.93111
-0.751141 3.27493 -2.97415
-0.761569 2.40961 -3.12989
-0.753816 2.83953 -3.092
-0.352983 2.58157 -3.12952
[...]
POINT_DATA 642
SCALARS Mean_Curvature double 1
LOOKUP_TABLE default
0.665661
0.75367
0.69307
0.637616
0.734402
0.736217
0.629739
0.746459
0.560771
0.611822
0.66608
0.653108
0.660418
0.658121
0.61331
0.681402
0.615449
0.695969
0.685174
0.656345
0.71567
0.61904
0.578171
0.707169
0.477105
0.592777
0.697198
0.553613
0.543693
0.43036
0.436581
0.753742
0.6509
0.60578
0.662819
0.618615
0.536971
0.606934
0.664175
0.666294
0.645966
0.759755
0.622709
0.653255
0.596477
0.646186
0.644978
0.632879
0.621507
0.67942
0.650349
0.676819
0.546546
0.495559
0.533183
0.735309
0.601933
0.76752
0.462397
0.74463
0.600125
0.704121
0.717487
0.51239
0.500461
0.615562
0.679106
0.651263
0.64982
0.685786
0.677808
0.62773
0.602583
0.548805
0.572226
0.612767
0.694942
0.669813
0.406811
0.640171
0.538614
0.693453
0.548046
0.69367
0.693198
0.489941
0.656214
0.62674
0.563867
0.441526
0.708417
0.585899
0.603035
0.565351
0.664992
0.574818
0.634195
0.618614
0.693796
0.426605
0.793738
0.710931
0.604478
0.45372
0.606004
0.684889
0.483864
0.790738
0.590927
0.658341
0.531837
0.692204
0.663816
0.623636
0.658941
0.608838
0.674157
0.679098
0.629502
0.618251
0.634602
0.596042
0.693646
0.598537
0.68623
0.611466
0.657613
0.594396
0.665204
0.60094
0.706747
0.572331
0.635108
0.613412
0.689652
0.618718
0.663744
0.615274
0.637221
0.785388
0.609502
0.624567
0.641264
0.624647
0.679755
0.709328
0.594266
0.619601
0.594436
0.704593
0.710699
0.618617
0.756643
0.637707
0.69969
0.520244
0.555107
0.603331
0.31496
0.671955
0.549083
0.699084
0.528087
0.625899
0.511934
0.640146
0.640611
0.624356
0.613261
0.654705
0.625006
0.646972
0.676563
0.642503
0.639803
0.64241
0.652828
0.62792
0.661773
0.632197
0.636971
0.726118
0.646004
0.68243
0.628326
0.694923
0.643718
0.680485
0.63783
0.643743
0.633171
0.663821
0.515345
0.566717
0.481838
0.548923
0.600466
0.660119
0.616882
0.623748
0.628276
0.772125
0.510091
0.496512
0.595922
0.671067
0.600133
0.750786
0.590675
0.734428
0.591988
0.708765
0.571707
0.760785
0.609479
0.693743
0.6074
0.744336
0.765731
0.700436
0.563858
0.522439
0.673102
0.846435
0.774865
0.797226
0.633039
0.705051
0.600446
0.712109
0.620073
0.713814
0.711387
0.747107
0.670286
0.76853
0.740147
0.708196
0.574473
0.530965
0.580707
0.647288
0.58371
0.489109
0.731583
0.639799
0.651523
0.638017
0.714423
0.686999
0.673888
0.703013
0.705025
0.607362
0.613701
0.611166
0.638673
0.618502
0.710417
0.657161
0.69395
0.605271
0.746068
0.643836
0.679076
0.665843
0.707942
0.608364
0.664009
0.603288
0.585923
0.588101
0.633074
0.570981
0.656614
0.458727
0.627004
0.554921
0.580127
0.576265
0.740577
0.643863
0.691066
0.634483
0.668822
0.619521
0.678733
0.593527
0.672371
0.521573
0.662649
0.589038
0.509559
0.772957
0.398173
0.537774
0.501718
0.639644
0.508613
0.546649
0.483816
0.746076
0.530195
0.694601
0.499816
0.64619
0.544738
0.698614
0.548914
0.720385
0.540617
0.691659
0.571306
0.716397
0.565858
0.723865
0.55136
0.748261
0.65062
0.652202
0.632266
0.718564
0.510001
0.726885
0.593034
0.639534
0.675349
0.588497
0.655989
0.536992
0.654721
0.640065
0.68855
0.722189
0.729909
0.534779
0.521664
0.678713
0.80801
0.453554
0.497235
0.634778
0.636276
0.74994
0.697811
0.635377
0.665365
0.554062
0.601311
0.555065
0.644542
0.533517
0.611201
0.537002
0.642186
0.547529
0.643024
0.603158
0.678918
0.595004
0.70279
0.519727
0.716227
0.63321
0.728999
0.625052
0.70155
0.594947
0.639955
0.561147
0.696657
0.557443
0.669608
0.634112
0.47577
0.65752
0.684156
0.737156
0.740952
0.76519
0.772737
0.788176
0.767866
0.640911
0.606125
0.600458
0.643066
0.365483
0.57157
0.520351
0.483416
0.543891
0.522358
0.63854
0.755942
0.680415
0.494617
0.737452
0.583392
0.647689
0.529205
0.626243
0.543291
0.791566
0.598071
0.76783
0.595384
0.699644
0.591396
0.7226
0.577128
0.678747
0.561206
0.683186
0.466203
0.552369
0.533149
0.637418
0.466601
0.734038
0.580671
0.716715
0.674909
0.620928
0.678021
0.638874
0.667379
0.638681
0.65064
0.609092
0.644097
0.619035
0.64997
0.74195
0.62398
0.675835
0.561208
0.679817
0.680262
0.663524
0.684107
0.595209
0.626397
0.614746
0.646598
0.59462
0.601423
0.618999
0.608377
0.643157
0.645379
0.609027
0.688436
0.629156
0.668381
0.589608
0.58159
0.591468
0.585321
0.630447
0.686389
0.566865
0.675882
0.577733
0.673924
0.570967
0.686345
0.554744
0.658748
0.532132
0.668351
0.616453
0.709708
0.628752
0.716624
0.554114
0.675323
0.578724
0.680208
0.636213
0.61192
0.567896
0.644092
0.583541
0.665079
0.610885
0.706053
0.587165
0.646775
0.579948
0.684819
0.62882
0.625099
0.62489
0.647704
0.620706
0.641505
0.6441
0.683331
0.638542
0.685218
0.599999
0.695359
0.563527
0.680502
0.632219
0.631241
0.611216
0.65603
0.649326
0.657266
0.629774
0.626178
0.658616
0.633386
0.650999
0.662937
0.642934
0.562653
0.679889
0.554762
0.671273
0.669279
0.671723
0.560812
0.678553
0.616153
0.614116
0.603866
0.631017
0.663393
0.645022
0.651016
0.636452
0.646802
0.625817
0.663065
0.789387
0.683204
0.664973
0.696878
0.65988
0.675668
0.667534
0.642557
0.667992
0.62783
0.749087
0.695514
0.64222
0.682677
0.620775
0.578531
0.643939
0.606401
0.666614
0.583435
0.652619
0.589095
0.69401
0.574464
0.654094
0.483885
0.647902
0.539543
0.667132
0.584063
0.678373
0.603587
0.696604
0.702237
0.602777
0.70413
0.604174
0.728922
0.59837
0.769729
0.643449
0.702879
0.622513
0.647534
0.612461
0.550195
0.474376
0.679772
0.602673
0.721317
0.612932
0.707185
0.617592
0.688197
0.684651
0.774847
0.616448
0.721865
0.627563
0.705582
0.585779
0.595387
0.507383
0.600542
0.561069
0.626773
0.598515
0.718349
0.637068
0.577435
0.655011
0.577979
0.656532
0.483741
0.637927
0.537363
0.613801
0.582793
0.636513
0.752855
0.585562
0.592898
0.831635
0.323627
0.641515
0.540151
0.604852
0.532262
0.609181
0.516825
0.68396
0.51672
0.669089
0.557922
0.711241
0.517261
0.611323
0.520987
0.70861
0.459979
0.539246
0.500946
0.700897
0.546501
0.717079
SCALARS Redistribution_Potential double 1
LOOKUP_TABLE default
-1.66874e-10
-1.18766
0.805748
0.383297
0.209959
-0.847979
-3.5715e-05
-0.211823
-0.797425
-0.763884
0.50406
0.403377
0.224472
-0.139238
-0.499957
-1.16171
-0.616554
-0.708943
0.0929645
0.339032
0.481538
0.592529
-1.01802
-1.27059
0.362069
-0.385557
0.657365
0.74984
-0.186833
0.323184
-1.11759
-0.768219
-0.0255231
-0.263781
0.466885
0.760389
0.71947
0.551811
0.256424
-0.416507
-0.136888
-0.762186
0.113926
-0.103766
-0.248539
0.167256
0.0514298
0.319514
-0.714173
-0.345157
-0.512255
-0.582706
-0.281288
-1.02439
-0.862753
-0.936387
-0.943465
-1.20779
-0.215816
0.0826355
-0.964767
-0.644427
-0.0211327
-0.270034
-0.428088
0.360451
0.286387
0.121374
0.293992
0.533638
0.481829
0.446358
0.385831
0.583581
0.545763
0.466897
0.523954
-1.29935
-1.26684
-0.994911
-1.17524
-1.08145
-1.18579
-0.94713
-0.307838
-0.642828
0.381857
0.10113
-0.0815612
0.0248897
0.288093
0.673528
0.588113
0.570831
0.648654
0.824427
0.756504
0.762084
0.294738
0.438848
-0.209241
0.0846257
0.140547
0.0841783
-0.139446
-0.767614
-0.507113
-1.21498
-1.01265
-0.86464
-0.970761
-1.02171
0.232371
0.261365
0.470219
-0.520541
-0.126039
-0.382724
0.365959
0.155767
-0.019627
0.665378
0.565452
0.542864
0.63981
0.797796
0.794308
0.841318
0.536004
0.359133
0.721761
0.679781
0.114693
0.421725
0.279264
0.0909378
0.164493
-0.210054
-0.0780956
-0.491767
-0.294744
-0.61097
-0.0222259
-0.786184
-0.418484
-0.370529
-0.750509
-0.371664
-0.683578
-0.751793
0.790543
0.604337
0.606828
0.399114
0.632806
0.515768
-0.639735
-0.377241
-0.434224
-1.06957
-1.03398
-1.24059
0.0594333
-0.0592907
-0.116192
0.0735271
0.00308168
0.174456
-0.374223
-0.183627
-0.300658
0.294968
0.242721
0.361085
-0.045633
0.108396
0.0230047
0.275314
0.191967
0.145086
-0.796547
-0.625964
-0.692771
-0.432228
-0.53513
-0.614962
-0.326729
-0.433937
-0.247765
-0.0198904
-0.133635
-0.220821
-0.271169
-0.135416
-0.539117
-0.411257
-0.444696
-0.441341
-0.603937
-0.950388
-0.889883
-1.03829
-0.961877
-1.1005
-0.797398
-0.692806
-1.07386
-1.09499
-1.19237
-0.796055
-0.946302
-0.783036
-1.18196
-1.09796
-1.07067
-0.736497
-0.91321
-0.772299
-0.0994431
0.0442996
-0.419372
-0.243721
0.100056
-0.0601271
-0.0515225
-1.08878
-0.951207
-0.673774
-0.810703
-0.840545
-0.793687
-0.628929
-0.113419
-0.222948
-0.314874
-0.0788943
-0.142816
0.0546328
-0.56549
-0.347182
-0.497682
-0.427043
-0.453812
-0.22201
0.195783
0.157979
0.242647
0.235672
0.399504
0.336031
0.433476
-0.0347553
0.0628941
0.336778
0.217306
0.246846
0.152039
0.216453
0.51966
0.503441
0.474647
0.503623
0.514062
0.525249
0.400663
0.474048
0.425246
0.35611
0.413097
0.452692
0.208747
0.447032
0.339838
0.265203
0.307345
0.55885
0.550144
0.570741
0.568002
0.596795
0.540938
0.520164
0.430961
0.474382
0.356725
0.39788
0.564204
0.496195
0.536816
0.496633
0.517292
0.4365
-1.2563
-1.26194
-1.22178
-1.25908
-1.28135
-1.30134
-1.28827
-0.923857
-1.02324
-1.13574
-1.09237
-1.03221
-1.11388
-1.19621
-0.920601
-1.02388
-0.857396
-1.2523
-1.14687
-1.19843
-0.988697
-1.08997
-1.111
-1.26432
-1.20089
-1.28341
-0.601325
-0.763117
-0.229711
-0.415311
-0.525149
-0.487515
-0.357326
0.394169
0.268513
0.23239
0.245686
0.378218
0.126259
-0.0217349
0.0665627
0.10542
0.247042
-0.182462
-0.0389154
-0.242182
0.323934
0.165602
0.20144
-0.088497
0.0532579
-0.150728
0.554253
0.501461
0.624826
0.605226
0.673326
0.643526
0.708683
0.537319
0.575905
0.667099
0.611959
0.615422
0.606396
0.631033
0.822828
0.806396
0.7914
0.774645
0.792002
0.796305
0.709561
0.767087
0.716183
0.68226
0.707527
0.73409
0.424017
0.47477
0.318557
0.37812
0.383001
0.362308
0.290157
-0.204248
-0.0432047
-0.0658371
-0.0581742
-0.203458
0.105942
0.224779
0.0624004
0.00114012
-0.0821716
0.217655
0.101162
0.236654
-0.164702
-0.0346054
-0.055575
0.20962
0.0673259
0.193909
-0.477599
-0.370974
-0.737298
-0.613227
-0.645923
-0.64345
-0.769726
-1.21316
-1.1102
-1.114
-1.11907
-1.18742
-0.993622
-0.886366
-0.847112
-0.953279
-0.913065
-0.88542
-0.922371
-0.828405
-1.0713
-1.02104
-1.04886
-0.901047
-1.0008
-0.903674
0.318916
0.361728
0.434929
0.130019
0.253243
0.119363
0.480473
0.379605
0.369149
-0.646029
-0.458537
-0.580213
-0.196933
-0.32333
-0.396518
-0.193182
-0.254733
-0.0616883
0.290202
0.187148
0.100761
0.329745
0.261023
0.433177
-0.142258
0.0687719
-0.0527485
0.092678
0.0229869
0.226168
0.533372
0.484318
0.580355
0.574034
0.647927
0.628731
0.704637
0.390495
0.45248
0.71197
0.595307
0.668368
0.514759
0.566235
0.80836
0.83551
0.833635
0.777058
0.807061
0.766783
0.811265
0.827401
0.787883
0.679268
0.742185
0.748663
0.473324
0.382196
0.639505
0.566476
0.314129
0.452693
0.406365
0.778281
0.764479
0.624122
0.701664
0.650792
0.74204
0.711279
0.0480015
0.203272
0.135721
0.344152
0.270868
0.192145
0.417929
0.353653
0.484287
0.623607
0.562529
0.498849
0.264307
0.282999
0.176382
0.230955
0.0250886
0.132392
-0.0190918
-0.105642
-0.0546513
-0.252371
-0.158389
-0.316264
0.0168255
0.0983733
-0.660287
-0.566845
-0.706888
-0.213877
-0.395337
-0.310878
-0.514154
-0.468049
-0.366208
0.0161306
-0.177098
-0.0898757
0.209005
-0.0630634
0.0785384
0.115103
-0.00851994
-0.799647
-0.641314
-0.588255
-0.614347
-0.772885
-0.454815
-0.265103
-0.573958
-0.758921
-0.189248
-0.370344
-0.751491
-0.563891
-0.569631
-0.200533
-0.378783
-0.172689
-0.0646237
-0.327421
-0.201487
-0.235065
-0.396174
-0.746514
-0.865808
-0.825575
-0.61329
-0.480929
-0.828362
-0.576838
-0.709812
-0.89103
-0.895212
-0.532143
-0.72622
-0.570323
0.835825
0.790954
0.823387
0.820552
0.773731
0.42686
0.478949
0.459835
0.573149
0.6983
0.498411
0.697097
0.605332
0.5091
0.491773
0.728701
0.615665
0.72479
0.194989
0.474678
0.3363
0.268561
0.335176
0.752338
0.650031
0.707722
0.680952
0.605991
0.500885
0.422513
0.461581
0.545288
0.589271
0.537324
0.567605
0.466906
-0.752153
-0.547341
-0.647908
-0.762039
-0.707123
-0.197355
-0.288275
-0.261688
-0.31095
-0.421495
-0.362735
-0.614413
-0.495119
-0.344514
-0.292218
-0.513046
-0.418834
-0.572001
-0.921072
-0.917827
-0.916266
-1.08088
-1.17916
-0.93233
-1.10417
-1.04151
-0.918105
-0.918168
-1.24881
-1.26562
-1.25824
-1.23386
-1.17849
-1.06154
-1.14026
-1.18609
SCALARS CoVolArea double 1
LOOKUP_TABLE default
0.1495
0.142013
0.143481
0.150394
0.142938
0.14098
0.138545
0.14732
0.140257
0.14908
0.147896
0.154105
0.195204
0.199656
0.194048
0.191989
0.194262
0.193405
0.200878
0.200184
0.202222
0.198658
0.190171
0.191627
0.198283
0.196374
0.196313
0.200967
0.196102
0.197908
0.193743
0.191031
0.200493
0.197192
0.200483
0.201354
0.202885
0.201539
0.197397
0.194596
0.198236
0.194472
0.192243
0.207156
0.189106
0.186106
0.208501
0.188841
0.1871
0.204511
0.185665
0.204044
0.186963
0.182896
0.203396
0.187116
0.204643
0.183023
0.210633
0.186462
0.184715
0.206809
0.191454
0.212322
0.190678
0.213234
0.187042
0.190916
0.213129
0.190809
0.211495
0.189978
0.211283
0.188505
0.208673
0.208728
0.185626
0.200464
0.183281
0.182062
0.198886
0.184575
0.200581
0.18332
0.203697
0.183149
0.189332
0.204447
0.187359
0.206997
0.187498
0.209093
0.186771
0.18748
0.206318
0.192988
0.20842
0.190773
0.204956
0.185751
0.181656
0.206822
0.187224
0.207297
0.185185
0.202244
0.184512
0.179688
0.202728
0.184106
0.203654
0.181876
0.193027
0.209063
0.191384
0.183885
0.208973
0.187944
0.191347
0.210974
0.190508
0.211921
0.187478
0.189156
0.210169
0.193087
0.209811
0.192221
0.209777
0.188246
0.188514
0.208619
0.190265
0.207532
0.186558
0.208705
0.188944
0.183164
0.206074
0.188678
0.207366
0.186372
0.209295
0.183549
0.209521
0.209778
0.186691
0.202279
0.205585
0.202115
0.208773
0.210459
0.209133
0.206199
0.206386
0.20549
0.203164
0.201183
0.205529
0.202745
0.204547
0.200694
0.18271
0.189378
0.182828
0.203919
0.18971
0.188831
0.188399
0.190781
0.205814
0.185639
0.189928
0.185609
0.205553
0.190703
0.18519
0.186549
0.190795
0.204162
0.174669
0.186578
0.174314
0.202262
0.189218
0.185035
0.186063
0.186755
0.202297
0.228903
0.227119
0.22802
0.188121
0.18285
0.20171
0.188545
0.19035
0.188615
0.201066
0.17661
0.182764
0.195301
0.183691
0.179818
0.188926
0.200523
0.178989
0.186559
0.177754
0.20048
0.186269
0.182949
0.180579
0.182517
0.198125
0.225993
0.224835
0.225803
0.189007
0.184558
0.207141
0.194508
0.188093
0.190605
0.205534
0.173806
0.185742
0.200782
0.191504
0.187
0.189531
0.202477
0.180591
0.189713
0.181726
0.204275
0.190742
0.191282
0.188608
0.194173
0.206819
0.229449
0.231872
0.232472
0.189088
0.181851
0.212692
0.19403
0.190532
0.193563
0.20901
0.183823
0.192358
0.208989
0.195588
0.190476
0.19622
0.210271
0.183366
0.192927
0.182509
0.208467
0.19231
0.187601
0.188038
0.192628
0.20835
0.236067
0.233989
0.2346
0.190732
0.210063
0.193143
0.193663
0.20469
0.18476
0.19131
0.206303
0.191448
0.186679
0.190184
0.206575
0.18794
0.181632
0.205845
0.191187
0.187767
0.190254
0.205544
0.232475
0.23023
0.232292
0.184569
0.175143
0.20017
0.18445
0.184616
0.185523
0.198763
0.179977
0.186904
0.196101
0.184449
0.177296
0.185499
0.197312
0.181137
0.186248
0.181182
0.196074
0.18518
0.179732
0.181479
0.185582
0.199313
0.219231
0.219514
0.219081
0.185324
0.176887
0.205185
0.186293
0.183632
0.184121
0.203178
0.182789
0.188059
0.205658
0.189603
0.189724
0.186488
0.203803
0.177209
0.188085
0.180666
0.203422
0.191506
0.184934
0.187382
0.189977
0.206138
0.228179
0.227545
0.227473
0.187183
0.181314
0.205971
0.192103
0.190832
0.192128
0.207752
0.185555
0.188896
0.203788
0.189139
0.185518
0.189011
0.203893
0.183513
0.194257
0.184376
0.206473
0.192002
0.187975
0.186601
0.191582
0.205366
0.229926
0.228921
0.230772
0.189912
0.182586
0.205615
0.190429
0.186425
0.189132
0.203302
0.180556
0.187997
0.200368
0.187941
0.183409
0.192603
0.205946
0.174858
0.185842
0.175477
0.205234
0.190123
0.187562
0.1865
0.19007
0.203715
0.227586
0.227906
0.22637
0.187158
0.181219
0.200261
0.187679
0.183987
0.187376
0.198991
0.176409
0.181735
0.196671
0.182843
0.178642
0.189751
0.200808
0.175825
0.184584
0.177145
0.198265
0.186037
0.180611
0.182426
0.185047
0.201135
0.223408
0.223423
0.223018
0.184383
0.193435
0.182922
0.207738
0.193811
0.191967
0.190935
0.193106
0.206039
0.18164
0.186912
0.181799
0.203372
0.187578
0.185278
0.186447
0.190815
0.208846
0.181273
0.19021
0.179453
0.205361
0.191649
0.191256
0.186473
0.19303
0.206585
0.234173
0.234354
0.232547
0.191362
0.181946
0.210035
0.195108
0.190532
0.193663
0.209665
0.184469
0.19079
0.207833
0.193152
0.18976
0.193428
0.207696
0.185291
0.19609
0.184403
0.207908
0.193017
0.188309
0.18782
0.193442
0.207553
0.233167
0.231438
0.23253
0.189584
0.187144
0.208145
0.192785
0.188022
0.192283
0.207314
0.180896
0.191208
0.206676
0.190873
0.188359
0.190704
0.206163
0.178553
0.189783
0.17709
0.205756
0.192036
0.188279
0.188294
0.189362
0.205597
0.231721
0.231174
0.230412
0.190735
0.185064
0.204079
0.19061
0.190378
0.192733
0.206689
0.175598
0.185307
0.199171
0.184577
0.180394
0.191043
0.20372
0.181706
0.189395
0.180532
0.204565
0.187284
0.185637
0.182091
0.184163
0.202008
0.230327
0.229823
0.231548
0.19169
0.206276
0.192683
0.196029
0.208704
0.177408
0.186723
0.199822
0.186254
0.183343
0.191297
0.208278
0.188557
0.180365
0.204013
0.191184
0.186977
0.193066
0.204424
0.233436
0.232663
0.231551
0.187175
0.200301
0.18559
0.187516
0.200576
0.187632
0.20043
0.184772
0.186446
0.205383
0.18518
0.200158
0.185477
0.182686
0.197493
0.227816
0.226509
0.224021
0.194854
0.207786
0.191475
0.193248
0.205634
0.192225
0.205455
0.192114
0.191786
0.208842
0.187831
0.207628
0.192762
0.193197
0.203736
0.23269
0.231963
0.231057
0.18651
0.207449
0.188758
0.188277
0.202224
0.191618
0.203818
0.191721
0.191953
0.204824
0.189751
0.204976
0.189425
0.190156
0.20167
0.227412
0.225519
0.227595
0.187017
0.201471
0.184741
0.183383
0.19937
0.184612
0.202557
0.185628
0.185241
0.198129
0.184086
0.199711
0.187188
0.188411
0.20452
0.22335
0.224959
0.224128
0.186746
0.201107
0.186248
0.185154
0.198821
0.185984
0.201352
0.184947
0.188483
0.202743
0.184167
0.198366
0.18716
0.185373
0.198901
0.225
0.223135
0.222225
SCALARS SignedDistance double 1
LOOKUP_TABLE default
2.80703
3.21982
2.3823
2.38273
2.70203
3.40374
2.98464
2.86299
3.1682
2.998
2.94145
2.53489
2.58352
2.79488
3.04355
3.4726
2.83019
2.91869
2.42476
2.53711
2.4585
2.66447
3.26195
3.30713
2.92071
3.14851
2.74967
2.6161
3.38171
3.19363
3.38399
3.44325
2.44559
2.86082
2.45997
2.36432
2.64446
2.59923
2.63464
3.12188
2.62554
2.98755
2.72997
2.7629
2.96348
2.61063
2.64059
2.52931
3.20261
2.89702
3.08898
3.02279
2.85169
3.5087
3.3159
3.00032
3.12806
3.34478
2.7693
2.54925
2.99309
2.78502
2.57695
2.77574
2.95603
2.2977
2.57021
2.53487
2.31109
2.63655
2.36929
2.69569
2.65398
2.82152
2.73089
2.56554
2.58149
3.42812
3.43502
3.39107
3.40267
3.15535
3.27008
3.13377
3.05458
3.35747
2.70427
2.77964
2.93726
3.07827
2.84089
2.61333
2.66197
2.86573
2.72525
2.46446
2.6306
2.47167
2.93489
3.08722
3.08721
2.88373
3.09279
3.27701
3.20636
3.15263
3.23429
3.30445
3.1627
3.35333
3.39263
3.29728
2.34285
2.44815
2.4129
2.93623
2.67341
2.71226
2.57875
2.64427
2.78808
2.50252
2.5344
2.49895
2.42486
2.45585
2.50932
2.35071
2.55135
2.52723
2.47844
2.50848
2.83899
2.63917
2.79593
2.66476
2.44087
3.06949
2.86939
2.92375
2.92165
3.15923
2.42852
3.07593
2.72429
2.62664
2.96532
2.98798
3.06223
3.22561
2.38478
2.52494
2.71216
2.87128
2.65393
2.96233
3.32655
3.24934
3.4816
3.16861
3.20169
3.36095
2.82384
2.83377
2.93389
2.65689
2.73378
2.63873
2.98851
2.85314
2.8946
2.55862
2.5503
2.51438
2.70448
2.61451
2.69032
2.55028
2.57147
2.59915
3.30399
3.14329
3.25439
2.96498
3.04524
3.11282
2.9352
2.97962
2.83881
2.68869
2.75188
2.81595
2.95339
2.88815
3.11574
3.03563
2.80851
2.91923
2.89931
3.48056
3.38545
3.39859
3.44504
3.50711
3.28712
3.20574
3.10935
3.1699
3.27498
2.96876
3.05698
2.90595
3.40228
3.23599
3.3032
3.16054
3.21783
3.04764
2.79481
2.68693
2.75631
2.79279
2.45048
2.67361
2.60532
3.09414
2.97646
2.83404
2.87633
2.94176
2.87204
2.79669
2.71157
2.81451
2.9498
2.62524
2.70527
2.47246
2.91932
2.85047
2.81931
2.71931
2.74396
2.75612
2.53585
2.67184
2.32086
2.3827
2.49111
2.40524
2.34901
2.68464
2.52047
2.3766
2.40119
2.49682
2.39225
2.32328
2.80068
2.65299
2.82061
2.37302
2.48086
2.50021
2.60596
2.52374
2.42831
2.26256
2.302
2.28442
2.72986
2.60127
2.64937
2.67453
2.59381
2.92718
2.84061
2.69349
2.77986
2.73449
2.70907
2.62077
2.52787
2.53348
2.54727
2.53832
2.60589
2.58722
2.61006
2.66396
2.6242
2.57817