<VTKFile type="ImageData" version="1.0" byte_order="LittleEndian" header_type="UInt64">
	<ImageData WholeExtent="0 44 0 44 0 44" Origin="-0.13467 -0.00697991 -0.101969" Spacing="0.0053577 0.0053577 0.0053577">
		<Piece Extent="0 44 0 44 0 44">
			<PointData Scalars="Scalars_">
				<DataArray type="Float32" Name="Scalars_" format="ascii" RangeMin="0" RangeMax="100">
0.00241141
0.00200797
0.00220788
0.00272402
0.00314807
0.00346846
0.00367528
0.00376394
0.00373527
0.00359303
0.00340261
0.00325994
0.00303349
0.00278081
0.00258087
0.00230996
0.00196802
0.00155746
0.00108512
0.000567503
0.000580236
0.000688545
0.000639908
0.000427209
0.00028871
0.000111088
0.000377722
6.90371e-05
0.000281021
0.000462852
0.000533588
0.00074058
0.00103763
0.00124483
0.00136299
0.00139713
0.00134922
0.00122082
0.00109761
0.00103929
0.00095617
0.000840649
0.000611432
0.000471018
0.000285141
0.00217719
0.00176784
0.00198596
0.00251089
0.00294403
0.00327227
0.00348626
0.00358006
0.00355456
0.00341354
0.00320405
0.00305515
0.00282578
0.00263096
0.00243071
0.0021545
0.00180465
0.00138371
0.00089927
0.00036867
0.000389777
0.000503823
0.000440843
0.000189111
7.45058e-09
0.000226215
0.000704333
0.000383392
4.17754e-05
0.000132293
0.000188671
0.000380896
0.000668235
0.000862718
0.000964224
0.000979148
0.000910081
0.000931241
0.000960611
0.000889271
0.000797346
0.000655539
0.000671938
0.000576019
0.000354372
0.00192197
0.00150572
0.00174132
0.00227222
0.00271184
0.00304551
0.00326363
0.00336066
0.00333674
0.00319441
0.00296623
0.0028051
0.00258698
0.00243738
0.00223313
0.00195087
0.0015918
0.00115991
0.000663213
0.000120267
0.000152521
0.000271104
0.000192434
0.000105418
0.000361644
0.000650413
0.00109693
0.00078629
0.000454918
0.000289582
0.000247896
7.20248e-05
0.000204474
0.000385456
0.000471294
0.00056351
0.000730492
0.000829637
0.000829145
0.000801861
0.000748172
0.000760861
0.000759631
0.00063014
0.000375487
0.00165045
0.00122607
0.00147753
0.00201219
0.00245494
0.00279164
0.00301149
0.00310939
0.00308347
0.00293788
0.00269235
0.00251244
0.0023303
0.00219975
0.00198991
0.00169954
0.00133025
0.000887074
0.000378452
0.000176445
0.000128888
7.91997e-06
0.000106193
0.000464104
0.000813104
0.00118146
0.00125876
0.000989772
0.000939108
0.00081858
0.000791192
0.000632413
0.000356689
0.000126131
0.000136577
0.000427149
0.000752576
0.000970356
0.00107937
0.00107765
0.000961035
0.000819728
0.00078889
0.000628792
0.000344969
0.00136823
0.000935882
0.00120099
0.00173618
0.00217985
0.00251623
0.00273513
0.00283045
0.00280124
0.00265042
0.00238839
0.00218308
0.00205753
0.00192321
0.0017058
0.00140586
0.00102595
0.000570834
5.05149e-05
0.000515215
0.00044813
0.00032711
0.000455782
0.000903733
0.00138223
0.00160763
0.00109278
0.000842437
0.000799403
0.000703134
0.000730671
0.000596471
0.000323147
9.70811e-05
0.000385866
0.000790201
0.00108168
0.00126316
0.00133458
0.00129442
0.00113923
0.000867769
0.000754133
0.000568487
0.000259891
0.00111522
0.00064297
0.000920609
0.00145386
0.00189516
0.00222895
0.0024445
0.00253531
0.00250009
0.00234149
0.0020648
0.00184431
0.00176108
0.00161903
0.00139254
0.00108221
0.000690758
0.000223659
0.000307493
0.00088235
0.000792563
0.000675343
0.000862837
0.00146405
0.00148112
0.00129832
0.00105791
0.000820398
0.000778422
0.000688225
0.000735238
0.000541829
0.000333667
0.000196114
0.000690684
0.00106523
0.00132424
0.00147168
0.00150852
0.00143379
0.00124547
0.000941284
0.000652559
0.000446543
0.00011874
0.000900723
0.000374988
0.000650473
0.00118016
0.00161687
0.00194629
0.00215578
0.00224006
0.00219721
0.00202961
0.00174101
0.00152623
0.00145882
0.00130777
0.00107133
0.000750221
0.000347622
0.000130311
0.000671498
0.0012534
0.00113849
0.00103565
0.00136883
0.00145482
0.00108914
0.000998683
0.00108865
0.000929207
0.00077828
0.000805527
0.00068
0.000419423
0.000180304
0.000417195
0.000888824
0.00123665
0.00146753
0.00158574
0.00159334
0.00149007
0.00127431
0.000949278
0.000625059
0.000276044
8.04812e-05
0.000713639
0.000202537
0.000417247
0.000941694
0.00137334
0.00169638
0.00189964
0.00197667
0.00192578
0.00174925
0.00145109
0.00126347
0.00118989
0.00103018
0.000784718
0.000454485
4.25056e-05
0.000444002
0.000992164
0.00157895
0.00143794
0.00141276
0.00152782
0.00120471
0.000962704
0.000918522
0.00105488
0.00108989
0.000927128
0.000894219
0.00053262
0.000279285
2.30446e-05
0.000510961
0.000965774
0.00129338
0.00150181
0.00159733
0.0015825
0.0014578
0.00122131
0.000916883
0.000641689
0.000276312
0.000201762
0.00158451
0.0012638
0.000785649
0.00129967
0.00175411
0.00208864
0.00230205
0.00238906
0.00234733
0.00217818
0.001886
0.00174181
0.0016728
0.00151619
0.00127217
0.000941783
0.000528879
4.06876e-05
0.000509031
0.0010957
0.00104132
0.000829495
0.000981562
0.00109686
0.00104838
0.0010538
0.00109233
0.00114019
0.00119947
0.000898488
0.000545591
0.000290699
6.74278e-06
0.000467949
0.000913329
0.0012283
0.00142248
0.00150222
0.00147222
0.00133314
0.00108772
0.000847086
0.000591934
0.000216484
0.000271492
0.00203408
0.00189949
0.00174072
0.00162537
0.00162002
0.00233415
0.00270218
0.00281439
0.00278835
0.00263537
0.00235893
0.00216276
0.00209347
0.00193495
0.00168768
0.00135149
0.000927843
0.000413381
0.000233322
0.000103772
0.000188529
0.000533223
0.000789113
0.000790246
0.000839025
0.00105888
0.000944294
0.000987075
0.0010842
0.00107622
0.000724852
0.000452563
0.000102907
0.000298515
0.000728734
0.00103878
0.00122558
0.00129753
0.0012591
0.0011125
0.000899494
0.000727192
0.000469796
9.1888e-05
0.000397824
0.00206158
0.00195874
0.00185489
0.00184566
0.00181299
0.00170697
0.00208057
0.00283904
0.0031549
0.00306975
0.00280304
0.00250658
0.0024268
0.00224884
0.0019603
0.00152475
0.000835329
0.000685304
0.000501275
0.000293322
3.91304e-05
0.000459857
0.000877067
0.00070028
0.000693232
0.000905566
0.000987045
0.00098104
0.00103028
0.00110921
0.00107123
0.000765495
0.00035762
2.32682e-05
0.00040593
0.000717252
0.000902794
0.000972323
0.000936732
0.000851966
0.000719756
0.0005197
0.00026536
0.000105433
0.00055857
0.00210445
0.00201714
0.00187054
0.00177828
0.00176504
0.00169104
0.00152482
0.00127621
0.00194223
0.00261993
0.00286825
0.00266035
0.00239794
0.00191495
0.00185694
0.00173967
0.00145165
0.00102654
0.000480667
0.000104882
0.000217102
0.000615925
0.00106781
0.000858396
0.000737056
0.00087665
0.00106914
0.00101666
0.000913538
0.00101571
0.00105651
0.000981502
0.000789277
0.000397384
8.36775e-05
0.000233322
0.000422888
0.000541002
0.000622407
0.000614509
0.000495769
0.000267148
2.30521e-05
0.000301972
0.000614129
0.00209059
0.00202027
0.00188334
0.00170118
0.00159949
0.00154041
0.0013849
0.00109851
0.000730656
0.000255607
0.000547193
0.00120874
0.00169018
0.00192726
0.00193519
0.00176764
0.00146788
0.0010503
0.000519834
0.000109024
0.000570662
0.000963587
0.00140895
0.00106867
0.000729285
0.000734992
0.00105486
0.00117423
0.00103495
0.00104539
0.000860795
0.000791192
0.000617199
0.000513084
0.000210188
8.38488e-05
0.000248536
0.000296071
0.000250414
0.000251435
0.000175945
5.36442e-07
0.000195004
0.00037194
0.000546478
0.0020221
0.00196739
0.00184571
0.00164851
0.00143673
0.0013155
0.00117498
0.000918172
0.000658736
0.000206515
3.12105e-05
0.0010038
0.00155324
0.0017029
0.00169386
0.00154557
0.00125956
0.000853918
0.000334561
0.000293605
0.000896338
0.0012946
0.00172342
0.00128444
0.000872444
0.000758506
0.000903316
0.00118949
0.00105954
0.00076291
0.000675432
0.000628889
0.000593536
0.000490226
0.000285313
5.9031e-05
0.000104912
0.000155605
0.000114582
0.000127085
9.6269e-05
4.47035e-06
8.76039e-05
0.000163406
0.000272512
0.00189631
0.00185614
0.00174963
0.00156738
0.00130256
0.00106519
0.000898875
0.00070399
0.000516675
0.000101015
0.000299886
0.000744209
0.00133558
0.00149807
0.00136787
0.00119921
0.000912957
0.000506289
1.32173e-05
0.00062605
0.00110183
0.00161401
0.00200216
0.00144306
0.00104262
0.000890523
0.000811301
0.000800796
0.00103498
0.000750095
0.00064186
0.000528023
0.000511929
0.000650615
0.000420049
0.000235744
0.000177704
0.000153355
0.000142671
1.42604e-05
5.53727e-05
5.0284e-05
3.94955e-05
9.87872e-05
0.000127397
0.00171009
0.00168344
0.00159121
0.00142432
0.00117235
0.000867493
0.000653058
0.000476293
0.000309318
7.36639e-05
0.000522137
0.000609852
0.00123889
0.00139285
0.00121775
0.000971638
0.000689924
0.000287861
0.000226654
0.000741392
0.00119106
0.00169647
0.00216534
0.00171979
0.00131809
0.00110418
0.000715673
0.00073012
0.00101509
0.00104391
0.000886418
0.000684537
0.000613436
0.000717513
0.000736259
0.000529505
0.000464618
0.000397511
0.000261635
8.09208e-05
7.34627e-06
3.29316e-06
5.52014e-05
4.77061e-05
3.23057e-05
0.00145692
0.0014415
0.00136267
0.00121068
0.000975288
0.000739992
0.000556976
0.000287496
4.1537e-05
0.000291459
0.000589363
0.000422418
0.00112282
0.00133608
0.00117898
0.000799753
0.000442281
6.0603e-05
0.000431187
0.000903446
0.00133182
0.00181128
0.00211635
0.00176316
0.00142976
0.00117471
0.000817552
0.000645861
0.000729941
0.000778683
0.000858635
0.000633851
0.000584535
0.00069534
0.000937968
0.000767998
0.00063882
0.000460908
0.000260301
8.92207e-05
2.70084e-05
5.98356e-05
0.000106938
4.68865e-05
0.000202425
0.00110629
0.00109261
0.00101655
0.000870198
0.000647657
0.000492193
0.000336252
6.47753e-05
0.000273921
0.000313319
0.00049983
0.00028073
0.00111409
0.00143069
0.00132783
0.000953898
0.000619814
0.000235714
0.000263497
0.000864867
0.00131213
0.00170761
0.0020213
0.00177326
0.00147533
0.0011293
0.000759333
0.000489071
0.000484519
0.00047382
0.000649728
0.000554666
0.000519462
0.000666693
0.000924513
0.000949293
0.00083261
0.000619493
0.000462778
0.00038895
0.000399821
0.000431672
0.000135377
7.15926e-05
0.000201367
0.000505112
0.00061059
0.000677712
0.000698745
0.000668153
0.000571176
0.0003938
0.000132531
0.000119753
0.000482321
0.000904381
0.000200979
0.00102396
0.00149672
0.00146341
0.00113817
0.0008168
0.000436157
6.30841e-05
0.000633284
0.00100847
0.00140383
0.00186505
0.00172216
0.00142161
0.000918176
0.000650279
0.000423469
0.000379212
0.000330374
0.000479937
0.00062874
0.000576533
0.000712007
0.00077644
0.000670262
0.000645719
0.000592113
0.000506103
0.000488192
0.000541657
0.00028424
2.84612e-06
0.000202022
0.0003317
0.0022741
0.00235299
0.00239296
0.00238109
0.00230954
0.00217482
0.00197269
0.00171049
0.00149696
0.0012261
0.000883706
0.000456177
0.000128098
0.00133574
0.00172127
0.00142407
0.000964165
0.000551701
5.86286e-05
0.000434205
0.00076865
0.00118014
0.00163875
0.00147951
0.00113765
0.000704594
0.000533551
0.000455998
0.000385754
0.000317127
0.000445612
0.000506237
0.000499852
0.00045044
0.000430636
0.000366099
0.000424214
0.000522092
0.000575393
0.000502571
0.000448525
0.000195481
0.000102289
0.000349388
0.000547685
0.00287865
0.00292689
0.00293084
0.00288605
0.00278695
0.00262948
0.00240943
0.00214461
0.00193419
0.00167794
0.00137406
0.00103953
0.000711314
0.000854187
0.000873551
0.00162827
0.00113692
0.000676498
0.000325076
0.000115901
0.000601351
0.00100924
0.00128824
0.0010705
0.000857845
0.000569217
0.000430554
0.000347137
0.000255629
0.000344932
0.000380747
0.000183441
0.000181668
0.000144877
0.000169776
0.000176251
0.000239372
0.000423871
0.000487842
0.0003547
0.00030309
7.68229e-05
0.000280149
0.000555038
0.000752255
0.00290567
0.00294831
0.00294906
0.00290202
0.00280111
0.00264059
0.00244948
0.00224593
0.00201908
0.00173583
0.00140584
0.00104874
0.000764906
0.00107159
0.00153407
0.0018261
0.00119114
0.000955947
0.000635482
0.000199333
0.000340767
0.00072483
0.000923954
0.00075803
0.000623189
0.000508435
0.000382647
0.000213228
0.000115402
0.000221513
0.000154257
3.55616e-05
2.7582e-05
4.711e-05
5.40167e-06
9.58145e-05
0.000168577
0.000352032
0.000245757
0.000109971
7.89165e-05
3.8445e-05
0.000401981
0.000677101
0.000874579
0.00274038
0.00278933
0.00279616
0.00275397
0.00266149
0.00255238
0.00243251
0.00227162
0.00204329
0.00174962
0.00139931
0.00101689
0.00077869
0.00108438
0.00158509
0.00208664
0.00250842
0.00223961
0.000830352
0.000402868
8.16211e-05
0.000447407
0.000660285
0.000550233
0.000461735
0.000491858
0.000367381
0.000135399
6.60866e-06
3.63365e-05
2.44901e-05
0.000237718
0.000266828
0.000165947
0.000100382
3.15756e-05
0.000205316
0.000363737
0.000112079
2.0586e-05
6.30617e-05
0.000138983
0.0004237
0.000699036
0.000901893
0.00248025
0.0025358
0.00254826
0.00252593
0.00249828
0.00246165
0.00237192
0.00221235
0.00197905
0.00167309
0.00130308
0.000955276
0.000741132
0.000978287
0.00149013
0.00200691
0.00252274
0.00301532
0.00323286
0.00111761
0.000250056
0.000180669
0.000501215
0.000443846
0.000334561
0.000315219
0.00018432
9.32515e-05
0.000295796
0.000280961
0.000271976
0.00048431
0.00048995
0.000329226
0.000230417
8.68738e-05
0.000190072
0.000342987
9.82285e-05
3.33861e-05
0.000129908
0.000280954
0.000455931
0.000636458
0.000831537
0.00213519
0.00219535
0.00224118
0.00228977
0.00232695
0.00230834
0.00222231
0.00206128
0.00182026
0.00150394
0.00114366
0.000840161
0.000605304
0.000754908
0.00129012
0.00190909
0.00249133
0.00299106
0.00340375
0.00370362
0.0028655
4.97773e-05
0.000356428
0.000268802
0.000122182
5.49033e-05
0.000119954
0.000342652
0.000523821
0.000492059
0.000423446
0.000607543
0.000587791
0.000396281
0.000251465
9.34154e-05
0.00019037
0.000323698
0.000196107
4.93079e-05
0.000124052
0.000342369
0.000514485
0.000614643
0.000706628
0.001702
0.00180931
0.00192559
0.00202388
0.00207003
0.00205502
0.00197032
0.00182864
0.00163242
0.00138243
0.0010676
0.000698328
0.000352655
0.000443634
0.00110362
0.00175854
0.00236911
0.00293862
0.00345012
0.00386228
0.00415131
0.00390377
0.00114308
0.000126161
8.13603e-06
0.000124507
0.000323266
0.000475265
0.000630289
0.000578552
0.000451058
0.000605568
0.000561327
0.000345007
0.000156857
1.2584e-05
0.000270925
4.36977e-05
7.16522e-05
9.61795e-05
0.000159204
0.000310555
0.000487804
0.000596471
0.000644267
0.00122883
0.0014032
0.00155125
0.00165439
0.00171883
0.00174778
0.00173477
0.00166058
0.00150034
0.00124964
0.000913143
0.000511803
9.98788e-05
0.000111829
0.000843838
0.00162005
0.00235666
0.00298228
0.00348595
0.00387182
0.00415035
0.00432745
0.00425646
0.00257882
2.77162e-06
0.00021778
0.000406101
0.000492878
0.000612326
0.000538394
0.000380069
0.000480637
0.00041534
0.000182413
4.20362e-05
0.000217378
7.55042e-05
0.00012815
0.000236109
0.000253253
0.000214435
0.000297137
0.000378996
0.000499055
0.000559531
0.00071992
0.000914939
0.00110195
0.0012698
0.00140718
0.00148573
0.0014929
0.00141693
0.00124751
0.000978522
0.000613119
0.000171274
0.000263911
0.000179328
0.000696767
0.00154409
0.0022912
0.0029099
0.0033948
0.00375384
0.00400147
0.00415386
0.00421678
0.00411762
0.00331592
0.000700511
0.000350103
0.000393458
0.000470825
0.000377476
0.000236332
0.000239104
0.000158541
8.17031e-05
0.000131808
6.75023e-06
5.87031e-05
0.000202425
0.000307448
0.00032641
0.000467949
0.000600569
0.000665121
0.00071539
0.000835739
0.000224903
0.000430211
0.000672325
0.000874296
0.00102233
0.00110563
0.00111132
0.00102697
0.000840597
0.000544697
0.000152092
0.000239871
0.000480179
0.000467908
0.000443913
0.00131463
0.00206966
0.00268236
0.00315078
0.00348654
0.00370773
0.00383434
0.00389635
0.0038489
0.00352138
0.00265133
0.00232794
0.0028132
0.00252789
0.00192068
0.00111499
0.000150181
0.000193261
0.000168622
1.76653e-05
0.000125915
0.000168219
0.000272766
0.000392139
0.000496134
0.000689894
0.000823915
0.000892252
0.000954576
0.00108281
0.000368915
0.000156306
0.00010889
0.00032647
0.000484601
0.000570703
0.000571318
0.000472218
0.000265412
1.4998e-05
0.000244424
0.000489246
0.000745058
0.000929158
7.72253e-06
0.000899948
0.00166344
0.00227292
0.00273884
0.00310393
0.00338538
0.0035977
0.00374144
0.00372815
0.00335456
0.00235149
0.0021915
0.00333607
0.00411654
0.00470544
0.00491183
0.00433943
0.00331655
0.00207517
0.000721738
0.000210278
0.000252709
0.000414781
0.00053899
0.000643328
0.000836551
0.000975177
0.00104986
0.00112749
0.00126489
4.71622e-05
0.000425875
0.000623725
0.000369154
0.000172563
4.82835e-05
1.11498e-05
7.60481e-05
0.000254072
0.000366312
0.000519104
0.000770297
0.0010864
0.00138997
0.000509996
0.000400949
0.00126175
0.00199745
0.0025617
0.00297171
0.00328463
0.00351078
0.00362979
0.00356391
0.00309137
0.00193721
0.00194767
0.00304062
0.00380386
0.00439357
0.00487364
0.00526931
0.00557492
0.00533173
0.00440469
0.00310424
0.00164586
0.000468753
0.000608817
0.000719331
0.000913799
0.00106008
0.00114378
0.00123964
0.00138731
8.05706e-05
0.000227183
0.000637367
0.000995323
0.000730198
0.000543702
0.000455961
0.00048716
0.00064813
0.000750493
0.000927549
0.00122024
0.00154067
0.00176981
0.000663191
0.000388894
0.00128241
0.00199246
0.00252487
0.00290119
0.00314836
0.00330258
0.0033967
0.00328549
0.00271495
0.00141209
0.00166649
0.00265673
0.00340653
0.00399918
0.00448786
0.00489405
0.00522903
0.00550045
0.00570333
0.00555533
0.00475073
0.00350263
0.00204449
0.000813752
0.00100692
0.00114819
0.00122672
0.00131002
0.00145525
1.39326e-06
0.000250503
0.000567414
0.000824004
0.00112918
0.00114366
0.000982367
0.000945974
0.00094302
0.000975452
0.00112316
0.00141097
0.00169107
0.00187214
0.00076006
0.000269353
0.00113812
0.00182278
0.00233083
0.00268495
0.00291334
0.00304061
0.00306671
0.00290872
0.00224014
0.000789836
0.00140139
0.00231753
0.00301056
0.00357834
0.00405526
0.00445854
0.00479735
0.00507949
0.00530764
0.0054849
0.00560269
0.00541852
0.00467598
0.00349944
0.00208922
0.00128406
0.00139452
0.001442
0.00153537
0.000279449
0.000494666
0.000726506
0.000875726
0.00109438
0.0013947
0.001328
0.00115719
0.00105385
0.000990003
0.00106803
0.00133414
0.00174543
0.0020037
0.000961825
1.68756e-05
0.000852719
0.00151678
0.00201248
0.00236016
0.00258636
0.00271421
0.00273706
0.00250282
0.00170191
9.6634e-05
0.00119437
0.00209679
0.00277539
0.00332756
0.00378843
0.00417221
0.00448791
0.00474245
0.00494409
0.0051028
0.0052244
0.0053127
0.00534697
0.00509056
0.00437705
0.0032734
0.0019391
0.00153281
0.00166255
0.000717312
0.000927009
0.00109493
0.00119263
0.00137009
0.00154252
0.00154451
0.00136098
0.00118107
0.00113693
0.00118136
0.00129073
0.00144823
0.00155386
0.000669844
0.000196852
0.000960562
0.00157201
0.00202677
0.00234246
0.00254324
0.00264891
0.0026372
0.00229898
0.00126671
0.000232168
0.000992358
0.00183396
0.00249494
0.00304665
0.00351277
0.00390425
0.00422774
0.00448988
0.00469728
0.00485646
0.00497423
0.00505536
0.0051046
0.00512426
0.00509012
0.00478361
0.00407858
0.00302626
0.00175329
0.00124733
0.00146102
0.00159088
0.00168977
0.00186586
0.00195207
0.00186844
0.00180689
0.00177706
0.00172884
0.00181767
0.00205848
0.00211476
0.00218685
0.00104235
1.13621e-06
0.000846326
0.00149451
0.00197318
0.00231016
0.00253434
0.00266452
0.0026562
0.00220237
0.000883482
0.00031165
0.000744544
0.00152539
0.00217051
0.00272244
0.00319465
0.00359415
0.00392657
0.00419795
0.00441469
0.00458296
0.00470921
0.00479865
0.0048565
0.00488761
0.00489478
0.00487471
0.00476864
0.00440085
0.00368704
0.00101601
0.00112859
0.00126742
0.00141924
0.00157513
0.00159151
0.00147176
0.00142905
0.00151638
0.00171346
0.0018901
0.00213995
0.00225974
0.00213801
0.000995107
7.2483e-05
0.000966784
0.0016626
0.00217016
0.00251574
0.00272931
0.00282891
0.00278345
0.00227322
0.000851236
1.10269e-05
0.000995249
0.00175644
0.00239274
0.00293992
0.00340857
0.00380554
0.00413581
0.00440516
0.00461973
0.00478613
0.00490987
0.00499708
0.00505244
0.0050808
0.00508633
0.005069
0.00501838
0.00490147
0.00464681
0.000665449
0.000739455
0.000879265
0.00110225
0.00125202
0.00119427
0.0010602
0.00102458
0.00111411
0.00135056
0.00173158
0.00199724
0.00223175
0.00208541
0.000969812
9.12882e-05
0.0010001
0.00172545
0.00227067
0.00265609
0.0029076
0.00303808
0.00297754
0.00242835
0.000939138
0.000294492
0.00125533
0.00199486
0.00261933
0.0031589
0.00362205
0.00401471
0.00434139
0.00460788
0.00482047
0.00498481
0.00510655
0.00519193
0.00524556
0.00527239
0.00527647
0.00525962
0.00522295
0.0051575
0.0050351
0.000296295
0.000372954
0.000516385
0.000729017
0.00084275
0.000798397
0.00067915
0.000650778
0.000741322
0.00096862
0.00133888
0.00157392
0.00176442
0.00175649
0.000902895
7.08289e-05
0.00094723
0.00168643
0.00226178
0.00268431
0.00297483
0.00314088
0.0030932
0.00251277
0.000990413
0.000578709
0.0014988
0.00221743
0.00282933
0.00335964
0.00381663
0.00420478
0.00452843
0.00479293
0.00500379
0.00516689
0.00528815
0.00537278
0.00542626
0.00545258
0.00545575
0.00543913
0.00540466
0.00535257
0.00527523
3.81172e-05
4.44725e-05
0.000194289
0.000364825
0.000410654
0.000434186
0.000354622
0.000337437
0.00043245
0.000653915
0.00100506
0.00122476
0.00138577
0.00129886
0.000584885
0.000224914
0.00104149
0.00171584
0.0022427
0.00264457
0.00294822
0.00314907
0.00312675
0.0025274
0.000997052
0.000825278
0.00170897
0.00240802
0.00300725
0.00352909
0.00398075
0.00436515
0.00468666
0.00495024
0.0051612
0.00532503
0.00544705
0.00553305
0.00558743
0.00561474
0.0056186
0.00560319
0.00557053
0.00552234
0.00545789
0.00032945
0.000237167
7.88644e-05
2.16514e-05
4.1239e-05
0.000115536
9.79677e-05
9.62429e-05
0.000199951
0.00041962
0.000755716
0.000966132
0.00110652
0.000957426
0.000278447
0.000391457
0.00109892
0.00177344
0.00231412
0.00272678
0.00302318
0.00320109
0.00314937
0.00249934
0.000955388
0.00109988
0.00187567
0.0025567
0.00314429
0.00365865
0.00410586
0.00448823
0.00480928
0.00507387
0.00528698
0.00545324
0.00557834
0.0056673
0.00572443
0.00575467
0.0057615
0.0057483
0.00571819
0.00567305
0.00561388
0.000573486
0.000468142
0.000322267
0.000289887
0.00026051
0.000152417
9.11988e-05
7.20993e-05
4.31798e-05
0.000264108
0.000588551
0.000793878
0.000920009
0.000721455
7.62418e-05
0.000568949
0.00114513
0.00174715
0.00230002
0.00273499
0.00305969
0.00326743
0.00323765
0.00258368
0.000972442
0.0013985
0.00209043
0.00266057
0.00323516
0.00374352
0.00418761
0.00456967
0.00489214
0.00515972
0.00537671
0.00554773
0.00567769
0.00577175
0.00583421
0.00586893
0.00588038
0.00587124
0.00584514
0.00580363
0.00574984
0.000769153
0.000648297
0.000541732
0.000542663
0.000495739
0.000369236
0.000231013
0.000174031
4.55417e-05
0.000178378
0.000493426
0.000696026
0.000812095
0.00057463
3.91267e-05
0.000660788
0.00122604
0.00170738
0.00221718
0.0026724
0.00302425
0.00326139
0.00325452
0.00261591
0.00103038
0.0016344
0.00230251
0.00282582
0.00328887
0.00378209
0.00422455
0.00460772
0.00493364
0.00520597
0.00542863
0.00560597
0.00574304
0.00584385
0.00591332
0.00595493
0.0059728
0.00596942
0.00594872
0.00591312
0.00586371
0.000917621
0.000786386
0.000736892
0.000735834
0.000669196
0.000526294
0.000329934
0.000218637
8.04141e-05
0.000118315
0.000394169
0.00065764
0.00076706
0.000499345
8.55252e-05
0.000684857
0.00123913
0.00172041
0.00212002
0.00255404
0.0029304
0.00319529
0.00321074
0.00258879
0.00103465
0.00180829
0.00245532
0.00296786
0.00340796
0.00379689
0.00421716
0.00460274
0.00493345
0.0052122
0.00544258
0.0056283
0.00577391
0.00588401
0.00596208
0.00601186
0.00603772
0.00604196
0.00602858
0.00599857
0.00595546
0.00102163
0.000905149
0.000897579
0.000874817
0.000788048
0.000628076
0.000394098
0.000255063
0.000129327
7.12499e-05
0.000340424
0.000643209
0.000770424
0.000479937
7.90134e-05
0.000657
0.00119993
0.00168079
0.00208698
0.00242075
0.00279118
0.00308096
0.00311656
0.00251041
0.00101379
0.00192977
0.00255219
0.00305554
0.00349118
0.00387279
0.00422427
0.00457732
0.00489601
0.00517997
0.00541931
0.00561489
0.0057708
0.00589091
0.00597905
0.00603914
0.00607461
0.00608812
0.0060825
0.00606139
0.00602539
0.00273969
0.00240975
0.00196648
0.00232749
0.00285161
0.00327182
0.00357298
0.00374671
0.00379096
0.00370809
0.00350914
0.00335664
0.00316132
0.00287531
0.00263882
0.00238284
0.00204757
0.00163531
0.00115167
0.00061319
0.000622794
0.000725731
0.000647902
0.000455409
0.000378437
0.000164844
0.000199735
0.000113815
0.00045152
0.000604413
0.000694185
0.000960141
0.00124753
0.00143545
0.00153008
0.00153475
0.00145286
0.00128817
0.00117309
0.00107273
0.00093779
0.000749558
0.000442535
0.000233158
0.000243038
0.00250909
0.00217444
0.0017244
0.00210936
0.00264479
0.00307576
0.00338738
0.00357008
0.00362089
0.00354208
0.00333979
0.00316667
0.00297045
0.00270387
0.00250995
0.00225005
0.00190744
0.00148428
0.000987746
0.00043451
0.000453211
0.000559613
0.000465021
0.000224724
0.0001093
0.000154316
0.000513904
0.000170574
0.000160925
0.000304818
0.000377581
0.000629209
0.00090614
0.00107908
0.00115356
0.00113562
0.0010282
0.000966422
0.000944689
0.000871688
0.000786498
0.000572361
0.000525661
0.000347912
0.000174433
0.00225513
0.00191488
0.00145756
0.00186408
0.00240776
0.00284721
0.00316601
0.00335457
0.00340983
0.00333261
0.00312798
0.00292704
0.00272825
0.00250755
0.00232919
0.00206423
0.00171286
0.00127849
0.000768274
0.000200771
0.000232279
0.000340596
0.000228196
6.60568e-05
0.000235356
0.000562035
0.000866897
0.000544302
0.000221372
8.78125e-05
3.31476e-05
0.000201888
0.000467308
0.000623748
0.000678264
0.000674821
0.000799142
0.000862412
0.000816457
0.000697285
0.000653617
0.000702769
0.000627682
0.000411585
6.73532e-05
0.00198308
0.00163549
0.00116946
0.00159555
0.00214446
0.00258876
0.00291198
0.00310373
0.00315958
0.00308115
0.00287282
0.00263949
0.00243682
0.00227897
0.00209684
0.00182446
0.00146305
0.00101622
0.000492677
8.83564e-05
3.97861e-05
6.87018e-05
6.40377e-05
0.000424497
0.000671446
0.00107823
0.00132651
0.00102642
0.000713609
0.000590958
0.000554688
0.000337429
8.40202e-05
8.40947e-05
0.000298314
0.000526153
0.000666574
0.000806645
0.000876904
0.00082466
0.000766531
0.000781022
0.000670068
0.000418775
4.12911e-05
0.00171563
0.00134241
0.000866704
0.00130979
0.00186092
0.00230643
0.00263044
0.00282191
0.00287572
0.00279347
0.0025786
0.0023113
0.00212212
0.00200561
0.00181643
0.00153499
0.00116216
0.000702471
0.00016544
0.000428148
0.000357799
0.000250921
0.000412285
0.000865221
0.00122558
0.00161672
0.00110758
0.000886358
0.000847042
0.000764444
0.000831813
0.000612743
0.000302777
9.96515e-05
0.000337936
0.000726312
0.000992768
0.00113934
0.00116538
0.00106826
0.000844218
0.000789784
0.000647753
0.000366129
4.01586e-05
0.00148667
0.00104945
0.000558786
0.0010169
0.00156683
0.00201055
0.00233239
0.00251977
0.00256895
0.00247999
0.00225616
0.00195576
0.00180219
0.00169755
0.00149955
0.00120721
0.000821754
0.000348754
0.000200972
0.000805244
0.000709981
0.000607021
0.000818022
0.00142052
0.0016619
0.00147838
0.000999257
0.000793107
0.000755869
0.000686668
0.000744246
0.000523373
0.000263013
0.000219561
0.000700608
0.00105228
0.00127961
0.00138562
0.0013708
0.00123327
0.00096985
0.000723541
0.000556365
0.000250503
0.000139482
0.00126789
0.0008156
0.000261314
0.000732571
0.0012778
0.0017174
0.0020337
0.00221534
0.00225691
0.00215895
0.00192463
0.00159358
0.00148986
0.00137633
0.00116775
0.00086356
0.000465892
1.99452e-05
0.000581108
0.00119399
0.00107164
0.000976495
0.00130694
0.00156581
0.0011625
0.00108381
0.00106746
0.000847377
0.000758663
0.000760943
0.000676759
0.000458099
9.31546e-05
0.0005005
0.000952266
0.00127041
0.0014627
0.00153331
0.00148325
0.00131178
0.00101583
0.000667684
0.000393674
7.06464e-05
0.000260957
0.00107682
0.000626788
8.73283e-05
0.000484355
0.00102448
0.0014577
0.0017672
0.00194146
0.00197496
0.00186764
0.00162334
0.00126596
0.00120895
0.00108597
0.000867076
0.000552379
0.000143848
0.000351943
0.000921734
0.00154022
0.00138991
0.00133666
0.0015866
0.00118563
0.000934668
0.000915706
0.00105529
0.000972159
0.000846453
0.000864126
0.000496857
0.000273146
7.7486e-05
0.000646926
0.00107526
0.00136679
0.00153076
0.00157306
0.00149546
0.00129768
0.000991754
0.000704378
0.000362553
0.000107534
0.000439286
0.00157887
0.00130705
0.000892721
0.000840552
0.00141413
0.00185985
0.00218173
0.00236738
0.00241138
0.00231312
0.0020762
0.00173695
0.00171457
0.00159522
0.00137816
0.00106332
0.000653535
0.000155546
0.000416324
0.00103356
0.00104292
0.000916496
0.00109985
0.00116261
0.00100262
0.00100825
0.00116679
0.00118209
0.00114878
0.000812426
0.00045263
0.000221521
0.000128627
0.000645287
0.00105882
0.00133245
0.00147733
0.00149961
0.00140303
0.00118734
0.000922069
0.000681497
0.000325732
0.000156611
0.000675179
0.00205214
0.0019551
0.0018167
0.00166571
0.00150359
0.00203939
0.00258106
0.00280492
0.00286625
0.00278508
0.00256505
0.00221076
0.00214841
0.00202716
0.00180668
0.00148588
0.00106668
0.000550233
7.73147e-05
0.000281945
0.000214346
0.000539616
0.000786088
0.000850294
0.000932563
0.00113558
0.000947393
0.00102188
0.0011212
0.000951432
0.000591084
0.000333235
5.59688e-05
0.00049141
0.000899792
0.00116493
0.00129882
0.00130998
0.00120258
0.000989825
0.000804223
0.000577472
0.000216693
0.000269793
0.00086917
0.00203869
0.00197996
0.00186249
0.00181242
0.00183269
0.00180429
0.00169358
0.00263944
0.0031811
0.00322226
0.00301898
0.00266654
0.00249006
0.00235337
0.00210325
0.00171696
0.00112794
0.000674255
0.000521913
0.000350721
2.25902e-05
0.000414636
0.00081088
0.000667624
0.000709705
0.000970803
0.00093342
0.00097882
0.00105964
0.00109208
0.000909694
0.000607416
0.000171714
0.000197373
0.000593543
0.000857323
0.000987574
0.000994153
0.000910215
0.000784591
0.000610873
0.000382468
2.66656e-05
0.000438549
0.000922993
0.00207527
0.00202148
0.00190019
0.00178605
0.00177358
0.0017448
0.00163938
0.00147005
0.00164012
0.00251266
0.00297793
0.00288666
0.00256353
0.00220121
0.0017649
0.00174646
0.00151154
0.0011117
0.000582401
0.000231829
8.79467e-05
0.000499848
0.000979178
0.000759929
0.000701945
0.000927623
0.00104454
0.000966962
0.00090649
0.00103974
0.00104517
0.000936158
0.000584871
0.000236422
0.000112481
0.000380225
0.000525132
0.000619933
0.000655428
0.000573322
0.000371069
8.33273e-05
0.000196844
0.000538118
0.000752524
0.00207197
0.002037
0.00193445
0.00176163
0.00163905
0.00160064
0.0014947
0.00126601
0.000911705
0.000511788
0.000510022
0.000862047
0.00156441
0.00185769
0.00196308
0.00185508
0.00159295
0.0011967
0.000670768
2.38195e-05
0.000451598
0.000850931
0.00131726
0.000970911
0.000676334
0.000766329
0.00117403
0.00108543
0.00098126
0.00101813
0.000863619
0.000764318
0.000581622
0.000439808
7.00876e-05
0.000171334
0.0002762
0.000258736
0.000242978