# vtk DataFile Version 4.2
vtk output
ASCII
DATASET POLYDATA
POINTS 642 double
-1.39406 4.09638 -0.379123
-0.619134 4.12852 -0.402887
-1.7539 0.630398 -0.000848235
-0.217045 -2.07819 -1.8248
-0.480503 1.57462 1.39006
-3.67711 0.414083 -4.89897
-0.449443 1.76456 -1.1363
-1.21007 3.86316 -0.587229
0.79887 2.52047 -0.572472
1.12387 5.6402 1.80356
-1.49416 3.71333 -0.384454
3.54426 9.75462 -4.03769
-2.25717 3.85771 0.594291
7.66034 10.1521 11.4343
-1.33058 3.75291 0.39343
-1.26419 4.10419 -1.75596
-0.616739 4.49075 -0.289989
-0.897583 4.11503 -0.361583
-1.58612 4.05918 -0.983517
-1.67231 3.85737 -1.31457
-2.13002 4.05113 -0.883016
-10.7625 1.45643 -3.15434
0.234559 2.93127 0.922407
-1.26903 5.39778 -0.259544
-1.3906 2.11173 1.16558
-12.1376 23.7473 25.8381
-1.92987 1.70629 -0.442988
-22.4418 -13.9676 4.23366
-0.998723 3.27809 -0.400848
-3.82218 7.79816 -0.337912
0.152038 3.25198 -0.309303
-2.09238 4.32098 0.66888
1.44104 1.55525 0.617796
-2.14604 4.78357 1.72102
0.275231 0.890314 1.06063
-7.30151 -3.02749 10.5993
-0.471416 0.740717 -0.00684173
-4.18658 3.19395 -1.53167
0.200042 1.06109 -0.872184
-3.196 5.63864 -1.75156
1.09454 1.58987 -0.282363
0.562708 5.70976 -0.802944
-1.83759 3.94466 0.110958
-1.33205 6.83795 -0.121458
-1.34947 4.04955 0.134487
-0.970723 -2.69021 20.6657
-1.98996 3.63833 1.08181
-13.057 7.22269 2.93323
-1.28971 3.53938 0.428308
3.72003 3.20057 4.97755
-1.30578 3.23695 0.828932
0.830599 5.01731 0.843061
-1.05437 4.41736 -0.30996
-1.57191 3.09584 -2.91519
-0.935843 3.84921 -0.219703
0.43919 4.38879 0.402197
-0.580732 4.079 -0.15
-0.637778 4.11292 -0.505086
-0.88959 4.36076 -0.57701
-1.48974 3.87668 -0.435746
0.0973665 4.04583 -0.327678
-1.5435 3.53782 -0.117722
-1.53758 3.9692 -0.929901
-1.18475 7.43101 0.752343
-0.706508 4.03245 -0.586897
-2.02778 4.20339 -1.07215
-1.86838 4.26319 -0.627265
-2.28967 4.08066 -0.591665
-1.58822 4.21204 -1.4797
-1.71486 3.39823 -0.629574
-1.92041 4.01262 -1.3565
-1.44323 3.68831 -0.966594
-2.14752 3.87531 -0.0942624
-1.39203 4.03376 0.846196
-2.14357 3.47574 -0.300773
-4.75618 4.76611 -2.5648
-2.46569 2.86824 0.613493
-2.13189 4.10842 -1.16914
-0.83944 3.38935 -0.378995
-2.14989 7.54894 3.74371
0.0148921 3.27949 0.603356
-0.632926 5.95206 -0.191188
0.490693 3.09804 0.630266
-1.26449 6.45736 1.06054
-1.29197 2.83446 0.798069
-6.6942 13.5895 16.564
-1.87375 2.62031 1.01951
8.30962 -8.95872 27.889
-0.457336 2.05256 1.39069
-6.41977 15.5439 15.1493
-0.684978 1.85078 0.630547
-22.9378 6.99435 -3.90798
-2.19261 2.35625 0.840857
-4.37229 5.12178 -7.12832
-2.24586 2.27549 -0.230328
52.4789 -2.7566 -22.6364
-2.14142 1.57959 0.0135952
11.4494 2.67006 18.8909
-1.18104 4.01311 -0.54031
-0.889555 4.52965 0.0586374
-1.17718 3.80548 -0.536469
-1.22585 3.85887 -0.565403
-0.819293 1.98071 -1.07788
-2.15393 4.75383 0.687679
-0.508682 2.29301 -1.06846
-0.197115 4.20355 -1.03644
-0.792311 3.82273 -0.452492
-1.14131 4.42634 -0.213356
0.67175 4.37719 0.358738
-2.74956 4.95504 -0.534388
-0.387133 3.32562 -0.225758
-1.87526 5.64598 -1.21303
1.33671 0.966717 0.340951
-1.25526 1.56237 3.42645
0.684332 0.740182 0.539315
-1.73108 6.59741 2.28675
0.930394 1.73217 0.914524
1.42944 5.73294 1.65141
-0.1831 1.20077 1.38965
2.96888 1.24187 12.9787
-0.0168606 1.76601 1.40196
-7.59759 -1.52704 1.25965
0.28631 0.740719 0.00897038
-18.2823 13.7407 22.1409
-0.468347 0.739004 1.20782
-9.19403 18.8102 -0.730617
-0.892875 0.740663 0.617795
-10.0802 -23.7053 1.96328
-0.0877635 0.740838 -0.538949
-0.962702 -2.34503 -5.34652
-1.4644 0.819561 -0.470616
-7.78615 -10.1181 -5.03532
-0.187928 1.40829 -1.06647
-4.16772 2.10333 -5.72281
-0.712187 1.39183 -1.00073
-0.393294 3.11674 -6.23311
1.18425 1.10868 -0.274135
-1.92702 4.17945 -3.46605
0.2865 1.58335 -0.920295
-1.21098 5.45145 -1.95953
0.732797 1.8186 -0.733094
-2.53225 5.66767 -2.02833
1.49553 1.49718 0.0260969
0.510508 5.61416 -1.2597
1.15984 1.91378 -0.093974
0.877496 4.53589 -0.248876
1.16 2.39342 0.41062
-1.36687 7.03829 6.5536
0.395497 2.49086 1.15728
-2.37688 3.17657 -3.012
-1.65579 1.11221 0.841181
-1.51211 -0.0424946 -21.2109
-1.7473 1.83597 0.990955
-0.859222 5.7018 3.02383
-1.65931 1.7195 -0.531861
-6.81735 3.74877 -9.88286
0.0752548 2.60097 -0.791228
-3.52465 5.85009 -0.319647
-0.949945 3.37099 -0.263132
-1.12523 6.76095 -0.361969
0.868771 2.84795 -0.142231
-1.73979 3.24516 -0.619363
-1.6249 4.00329 -0.204651
-0.8998 1.96008 -0.596873
-1.44578 4.16136 -0.113007
-3.04409 8.51841 -0.188366
-1.81779 3.94279 0.4278
-3.32607 7.17538 -0.608653
-1.32824 3.89774 0.287027
-1.27154 6.03755 -0.461686
-1.48514 3.90021 0.615726
-13.9476 2.94767 14.1171
-2.26926 3.28082 1.19645
-14.4768 2.26407 7.5661
-1.77638 3.41349 1.10589
-3.27132 15.9998 13.8715
-1.79065 3.20149 1.22047
-8.71379 9.5367 -1.88943
-2.24884 3.5597 1.0655
-6.65875 10.2473 6.74284
-1.20636 3.18949 0.25289
0.0793892 6.30708 1.63755
-1.14926 3.13197 0.544121
0.789146 5.4357 0.822164
-1.42649 3.5488 0.62925
-6.59749 2.9958 -3.34129
-1.48366 3.22906 0.903977
-5.128 2.39355 -3.1205
-1.61461 3.41667 0.937603
-1.81875 8.58021 4.18799
-1.71611 3.62364 0.970786
2.51353 9.39768 5.39593
-1.19339 4.34808 -0.0533836
-0.584511 4.28455 -0.441844
-1.1445 4.01421 -0.0994278
-1.14997 4.78119 -2.01245
-0.822146 4.5159 -0.264557
-1.47022 1.96402 -2.26254
-0.739765 4.35329 -0.166923
-1.73492 0.637964 -5.09142
-1.02387 3.19599 -0.0128849
-1.01202 4.52422 -1.35253
-0.88674 3.53574 -0.142914
-1.8958 3.44481 -2.77027
-1.19214 3.62617 -0.0244827
-1.76074 4.46242 -1.92362
-0.382061 4.03138 -0.37579
-1.88607 3.57746 -1.4822
-0.6334 4.10084 -0.43393
0.371594 4.64272 0.836284
-0.527945 4.16329 -0.283614
0.576874 3.96737 0.842724
-0.748139 3.91832 -0.587724
-1.12343 4.24522 -1.40368
-0.723916 3.92714 -0.390077
-0.904729 4.78515 -0.853654
-0.726132 3.88605 -0.0708361
-0.304501 5.34311 0.291911
-0.862231 4.07912 -0.351693
-1.17547 3.90554 -0.214778
-0.742141 4.70926 -0.449298
1.39361 2.94584 1.55081
-1.59045 4.08192 -0.947247
-0.903974 4.04835 -0.318112
-0.936622 4.05824 -0.322797
1.43235 3.84154 0.416924
-0.340438 4.19966 -0.469159
-0.782205 4.09192 -0.530062
-0.308583 4.37722 -0.626982
-0.952207 4.13644 -0.362194
-0.419769 4.41061 -0.485785
-4.49911 0.259451 -2.82406
-1.27189 3.92738 -0.631059
-0.919561 4.07684 -0.400033
-1.05865 3.90604 -0.495928
-0.949491 4.05505 -0.376142
-0.965193 4.05774 -0.404551
-0.515472 4.14407 -1.12214
-0.475198 4.1682 -0.792864
-0.440056 -0.20182 -6.7962
-0.445565 4.37424 -0.908544
2.43754 -0.432345 3.60211
-0.499326 4.56841 -0.834497
0.676857 5.7125 2.84083
-1.69893 4.21991 -0.806321
-1.37848 3.98361 -0.431435
-1.60777 4.35738 -1.19954
-1.73006 4.23798 -0.964975
-2.09921 4.26315 -0.75321
-1.94514 4.28583 -0.682843
-1.95029 4.19608 -0.85245
-1.46933 3.91571 -0.698801
-1.80517 3.97925 -0.845415
-1.72263 4.05182 -1.46778
-1.59069 4.03623 -1.2962
-1.67775 3.87397 -1.15939
-1.59157 4.06689 -1.26645
-1.61891 4.2849 -1.56174
-1.71839 3.51316 -0.620023
-1.5477 3.61365 -0.96098
-1.61557 3.60179 -0.620149
-2.04756 4.01429 -1.17078
-1.93526 3.874 -1.16482
-2.33871 3.76388 -0.796824
-1.65247 3.83181 -1.26071
-1.73917 3.84548 -1.25806
-1.76105 3.91098 -1.48241
-1.95386 4.23951 -1.72694
-1.87504 4.26362 -1.67664
-2.04138 4.02874 -1.42601
-1.87211 4.13682 -0.278949
-2.37864 4.49655 -0.794224
-2.02821 4.1097 -0.391037
-2.55418 5.03009 -0.587127
-2.25254 3.8799 0.283828
-1.42803 4.19803 -0.0698752
-1.85488 3.50316 -0.533696
-5.29764 5.24523 -3.54641
-2.11993 3.24594 -0.337524
-3.67063 4.26678 -3.20674
-1.99209 3.60469 -0.604651
-2.42316 3.88049 -0.772491
-2.4667 3.13026 0.765741
-15.8745 -2.30956 -1.90528
-2.46609 3.70309 0.48997
4.1764 4.05041 -0.0922681
-2.46602 2.87141 0.330246
-12.1464 3.40011 -0.180234
-2.46557 3.1473 0.193641
-2.40153 4.26607 -1.6003
-2.36393 3.42957 0.00898043
-7.07508 6.09605 -2.46225
-0.975289 3.65584 -0.54384
-1.06114 3.9106 -0.486443
-0.992384 3.71779 -0.709569
-1.43179 3.49074 -0.892861
0.326432 3.27997 0.177866
-1.70337 3.20872 -0.713695
0.343427 3.27966 0.337329
-2.48302 5.50889 -0.684051
-0.387417 3.19498 0.642417
-1.25632 5.2084 0.815245
-0.0794411 3.17662 0.774788
-1.35045 5.65946 1.83515
-0.271573 3.27971 0.489136
-1.99246 4.64017 -1.62759
0.942335 2.66614 0.666312
-0.335045 5.78668 1.0647
0.863341 2.60862 0.83917
-0.824455 5.28605 -0.0498676
0.689108 3.00372 0.606999
-0.738413 5.35044 -0.173444
0.484981 2.82149 0.920872
-0.670555 5.87588 1.01772
0.388864 3.03601 0.818713
-2.48928 4.06081 -1.23939
0.258375 3.2075 0.631575
-0.474804 4.47997 0.0543817
-1.09072 2.99864 0.7318
-1.95652 -1.12435 -4.56313
-1.48054 3.04281 0.949645
-7.41617 1.78192 -8.38062
-0.666953 2.69866 0.990898
-0.733949 -3.00173 -13.8756
-0.915472 2.66712 0.949927
-6.52497 -12.066 16.1003
-1.97385 2.83723 1.28022
-22.2857 -10.4962 -36.062
-1.73667 2.74156 1.13403
10.8441 12.6968 39.7394
-1.7588 2.97017 1.28237
-5.05569 8.09657 9.07445
-0.471755 1.76106 1.39018
-30.4812 -1.6141 40.9427
-0.646287 1.64244 1.26169
7.38553 -12.4612 -33.0245
-0.717678 2.19784 1.27836
-7.55077 13.027 24.3158
-1.1075 1.91457 1.05962
21.3273 7.00293 -38.0953
-1.19733 2.24326 1.06045
-22.2168 -3.97919 -14.516
-1.34997 2.60581 0.95176
-2.23333 9.50138 8.65805
-2.24323 2.63766 0.70064
-10.5959 -4.50819 1.84561
-2.35687 2.58024 0.205762
7.8885 -0.00396343 -3.50898
-2.24648 1.96417 0.786504
-23.6993 2.76071 12.0409
-2.27498 1.94788 0.480435
-1.8178 4.50544 -0.906687
-2.00611 2.65435 -0.45138
-13.798 0.954718 -9.34656
-2.12963 2.30745 -0.440235
-4.64149 3.81243 -6.17861
-2.21035 2.60601 -0.31461
6.75354 5.22439 1.3281
-1.91547 0.803641 0.191918
-39.4174 7.37947 -7.61985
-1.93447 0.840228 -0.208178
-19.2924 -18.3976 -3.54667
-1.86668 1.40526 0.1482
12.6613 36.8835 -9.2454
-1.77356 1.47031 -0.253136
-4.78621 6.25276 -6.5341
-2.06893 1.62039 -0.252808
-8.50803 5.70857 -5.72484
-2.24614 1.92628 -0.121164
-24.4953 -7.29685 -6.72389
-1.56591 3.671 -0.618405
-1.30359 4.23325 -0.351889
-1.5923 3.80736 -0.929824
-1.50214 3.89627 -0.524235
-1.3283 2.7501 -0.6455
-1.04581 4.2944 -0.523643
-1.24312 3.27311 -0.47872
-1.19727 3.83638 -0.587563
[...]
POINT_DATA 642
SCALARS Mean_Curvature double 1
LOOKUP_TABLE default
-0.353293
-0.899286
5.82964
0.257437
4.32221
-2.95782
0.259029
-0.519838
4.58677
0.251155
-1.19499
-4.22653
-3.05506
5.9009
3.88096
-1.33493
6.31791
3.52153
-4.24559
-0.267201
8.96026
4.65852
2.35561
0.183017
1.83402
4.56131
1.52414
2.69225
-0.786128
0.506161
3.82046
-0.404266
7.81066
-0.0860773
2.78052
1.13196
0.291625
0.487081
1.39743
0.0821489
-2.23441
0.0641952
-0.0768037
2.90705
-0.562483
4.65641
-0.0951224
3.53625
-0.127456
6.28856
5.56886
-5.64754
1.86453
-0.696249
0.562461
-4.78772
5.42352
0.341805
-3.51183
-0.417813
2.35309
2.21058
-2.64465
8.49341
6.95517
0.900808
5.06699
-5.88625
15.9407
0.269043
10.3536
1.77341
-1.59353
-1.28478
-1.65154
2.68886
-0.246198
0.48643
-1.63474
1.43324
3.45785
0.193028
1.9891
0.233293
0.730207
6.38124
-2.62946
4.01307
0.455809
3.47079
0.411569
4.19404
-0.673906
4.03161
-0.321343
-4.68051
-0.0983407
-5.00824
-0.263291
-0.981373
-0.707119
0.78785
5.17093
-0.241944
4.59333
-23.3815
-0.412488
-1.37472
1.20791
-0.00159413
-1.54729
0.25462
5.14948
-0.0318802
2.64483
-0.00604386
1.45629
0.182756
3.80124
0.582263
0.45581
0.100549
0.352339
3.63364
5.52953
-1.58783
0.125186
2.50633
2.19567
0.258488
6.34639
1.23353
0.673577
0.345807
2.29074
0.212089
3.86466
0.405471
-1.43313
-0.0716393
1.12135
0.0441514
6.3713
0.208052
-0.773636
0.148135
4.13612
0.973805
2.30708
-0.524906
2.01724
-2.45122
-1.07982
-0.73911
-1.97144
2.19025
1.25116
0.204736
-0.53959
0.205414
4.15147
-0.539675
-0.36205
-6.24459
2.05288
3.95752
-4.82805
5.17268
0.628355
4.8204
-0.3523
4.55189
-2.02149
4.49134
0.00743462
3.77202
-1.62207
4.06689
-0.758922
4.49354
-0.885955
3.07607
-0.979008
2.70643
-1.19733
-6.75432
-0.756046
-6.72956
-1.80116
2.89744
-1.92306
5.17762
2.26086
-0.153637
-0.0629516
6.03714
2.38616
6.69075
6.11901
-2.22286
-0.545308
-1.5447
-0.482099
-1.05794
-0.0352908
-4.19342
4.76714
9.85216
0.344195
-5.29609
-0.025439
-5.21661
-0.444965
8.78749
-0.660106
-4.14738
3.17452
-3.75604
-0.113165
0.0262287
4.08256
6.65883
15.1846
0.670976
-0.819903
-15.8635
8.68293
1.84489
8.13465
5.27497
2.68212
6.31109
-0.397619
-1.16874
-0.401882
-0.593226
-2.08785
13.1201
5.08105
-11.4852
6.84409
5.76817
3.87008
7.38733
6.91668
-0.146882
11.8334
0.291259
8.49347
0.226027
3.41348
0.0598613
14.4533
-0.0809685
9.91129
0.448761
10.0227
1.32092
1.38299
1.00447
-0.619935
0.706066
10.5612
1.31585
18.7716
-0.0136727
11.5007
0.868684
7.7036
0.0119622
2.72086
0.620235
3.27692
3.31748
-1.37746
-0.774789
-0.570584
4.454
-1.08132
2.38085
2.9817
1.13757
-2.2615
5.18428
2.84198
-3.19988
-0.0569663
4.54376
-2.2436
0.78645
-2.85118
5.22841
-0.951553
-2.06386
-1.7379
-0.941522
3.00508
-0.0567486
5.98849
0.432374
2.94629
0.452877
3.76443
0.825504
1.99892
0.768657
3.18966
0.317967
5.30657
0.362466
5.98681
0.198089
2.22096
0.243899
3.70804
0.0523243
3.29058
0.385734
2.52246
-2.27615
1.36125
-8.3489
-4.38219
-7.17053
1.98089
5.01289
-0.867315
-3.00565
-2.27188
3.45776
2.3356
1.41527
0.151364
5.4198
-0.854278
-6.64887
4.27159
3.61187
0.413194
-5.28809
-1.22101
-4.494
-1.42576
2.35731
-3.54016
4.05527
0.889989
-4.35582
2.022
4.41346
-2.5642
0.458148
0.464374
4.94377
1.464
1.97997
4.22653
-4.88337
5.63932
4.79054
5.9388
3.79559
-0.845972
-3.91942
-2.04963
0.701935
2.84823
2.39621
-1.79156
4.29324
-0.330091
-0.479038
39.0091
-2.57092
0.642893
-0.447489
-0.502006
-0.49132
-0.172828
-0.59794
-0.902625
-0.65151
13.2856
-45.7258
1.51291
0.454549
1.86209
0.158732
-1.04604
0.33961
-0.609093
-0.209643
-0.948905
-0.35666
-0.796469
-0.368152
-0.810205
-0.518095
15.121
-9.51462
-0.536839
1.1368
-0.338209
0.595663
-3.37045
-0.212577
0.376708
-0.346416
15.6311
3.79634
1.1269
0.106953
3.38392
-0.56347
6.4196
0.190798
1.81895
-0.105676
2.71711
30.8677
0.318696
-2.3896
3.73601
-0.266567
2.8749
0.517934
5.67557
0.243993
4.57105
0.650871
1.55619
0.288361
3.38826
-0.301091
1.8636
-0.00649917
3.36377
-0.142803
0.435713
0.323302
2.05611
0.248425
-0.532976
0.0132714
3.92809
0.364633
3.2078
0.0411901
2.10016
0.127019
-0.222919
0.332012
0.348772
0.133945
2.45985
-0.00265023
0.351215
-0.00621874
0.00865967
-0.905464
-0.609587
1.74515
6.65302
1.66127
-1.49564
1.02177
2.59303
2.6682
-0.353175
0.0114832
-0.655502
0.128304
4.08253
-1.40289
2.98182
0.573617
1.02843
0.210885
2.96674
0.348445
-0.979496
0.20695
4.34936
0.293166
5.43855
2.38813
1.96142
1.39818
5.886
0.76889
0.151514
0.446711
1.64059
0.473961
2.51814
0.230672
3.56135
0.14266
-0.487798
-0.0776622
5.34203
0.618201
6.61545
0.638321
3.45395
-0.0706912
3.69168
0.211149
5.21482
0.326199
-1.50044
0.249018
3.63993
0.0635924
0.431075
0.155295
1.7991
0.0842598
3.6078
0.0604496
1.57487
0.419228
1.93092
-0.365581
1.63722
0.0280718
4.01792
0.16153
4.05539
0.0358856
2.39247
-0.107488
6.17692
-0.0567078
5.30585
-0.00861031
4.64912
0.0520825
3.45657
0.214159
5.28076
0.463177
2.4261
-0.0469024
5.10601
-0.138468
2.71105
0.114549
-1.08947
0.114287
-2.84043
-0.209519
3.90373
0.463858
0.845456
0.485522
3.60757
0.284137
0.809311
0.00223292
2.5309
0.678776
1.78257
-2.15015
-0.284824
0.559283
-2.56356
0.367676
2.43166
0.820405
0.515637
3.43669
6.38876
5.11433
-1.14989
-2.00391
0.173291
-4.74884
-1.10002
6.15338
-2.75188
4.6438
-1.0106
4.70939
-1.54309
-0.864021
3.07316
-4.43788
6.06755
-0.944936
-2.28852
0.235919
-1.30217
2.59021
1.04028
1.99488
-2.43884
-1.24264
-2.99352
1.05509
5.16651
-3.599
1.89598
-1.24242
0.406903
-1.19414
0.515227
0.0694044
1.53388
0.0960025
-1.60515
0.240955
1.84959
0.261927
6.8019
0.348799
-0.29097
-0.214739
-0.766056
-0.62294
-0.62617
0.199085
1.33838
0.0192968
3.96474
0.0885773
3.60129
0.240046
2.15669
0.0840223
3.12049
-0.00434484
3.37549
0.158495
-1.10986
0.365322
1.99843
0.828072
7.23081
0.214242
2.25534
0.00883842
SCALARS Redistribution_Potential double 1
LOOKUP_TABLE default
-5.99762
279.248
-9652.13
-25099.2
-14487.4
-3715.31
-10263.5
324.046
-14474.4
-18412.6
-729.549
-2134.07
-920.774
-2719.36
-698.495
-1537.03
1089.48
1408.91
-917.829
-1430.47
-649.435
-1224.29
-10195.6
-10123.9
-6256.19
-10093
-4609.96
-5513.86
-1370.54
-3739.57
-5521.91
-2827.19
-25623
-18272.7
-21098.4
-12573.4
-16787.4
-11137
-18106.8
-13633.5
-23700.5
-19274.3
-595.009
-786.019
-135.802
-2261.97
-1558.98
-1175.51
-1715.82
-1393.95
-2551.38
451.106
891.329
-3332
-788.354
1062.07
502.653
137.276
1071.34
-883.48
1530.32
1050.88
-666.686
1140.44
1093.99
-1424.81
-449.708
-677.174
-1572.62
-925.994
-1426.36
-972.352
-639.128
-1132.3
-750.616
-867.172
-1675.88
-6210.29
-3889.01
-7693.77
-6615.26
-13811.3
-10133.9
-14411
-4127.82
-6218.41
-3783.33
-3991.02
-12390.3
-7675.53
-10717.3
-3103.55
-3284.11
-2403.57
-2502.23
-8381.05
-4763.93
-7771.35
215.454
-1234.3
523.592
282.414
-7548.82
-1939.17
-7330.57
1048.92
586.895
-734.241
830.731
-9072.07
-3687.01
-11189.7
-26096.7
-24700
-24024.7
-19091.7
-22388.5
-23251.4
-17465.7
-20928
-16191.3
-20545.8
-21962
-14555.6
-16518.1
-12584
-14276.8
-11082.4
-18270
-22068.4
-9853.07
-13390.4
-13735.1
-14047.6
-10552.9
-21617.9
-25318.9
-12136.6
-16534.1
-20341.1
-18709.7
-14817
-26039.6
-17925
-22720.9
-23824.6
-19104
-14162
-14394.9
-10793.7
-9606.38
-10514.4
-6247.46
-7995.16
-7436.26
-4322.95
-8470.97
-8415.78
-1768.21
-14340.4
-12989.4
-8646.58
-228.451
-485.477
50.1622
-875.9
-622.843
-744.385
-381.166
-530.933
-820.341
-2182.18
-1649.34
-1585.75
-2084.95
-1841.01
-2542.9
-1072
-1446.83
-1158.95
-2563.24
-2086.97
-3080.66
-1083.36
-1534.55
-1004.18
-2508.79
-1921.91
-1984.9
-1151.68
-1577.75
-1125.91
539.05
352.736
-253.292
365.254
1074.27
864.958
953.804
-3546.52
-2171.05
-877.514
-1627.98
-2550.41
-1301.08
-761.169
1151.02
979.957
249.977
916.604
850.928
1074.62
-160.205
649.289
-119.361
-122.47
-109.02
582.036
382.878
-462.554
1090.61
991.539
-891.862
419.957
437.698
1195.46
1359.61
1231.71
1321.23
1463.7
1111.67
1022.34
112.328
486.298
591.862
464.024
480.28
-898.403
1403.18
1183.52
1266.19
1007.54
1087.4
1101.02
-642.117
-497.066
-1638.11
-1264.06
-454.264
-991.209
-1012.99
-125.779
-684.577
-1534.79
-1457.24
-1394.12
-1444.22
-1536.07
-359.989
-1024.36
-208.245
-1245.01
-1214.51
-998.034
-1241.45
-1323.41
-1436.78
-1537.49
-1554.93
-1513.01
-393.827
-535.884
-467.06
-595.521
-773.594
-890.429
-570.647
-915.389
-889.425
-1184.54
-668.184
-721.464
-1378.02
-1868.92
-954.181
-1106.41
-1458.69
-1128.94
-1033.33
-692.555
-758.056
-581.016
-1813.61
-1282.52
-3317.92
-2501.38
-7244.67
-5425.15
-7701.88
-5771.13
-5176.87
-8897.43
-7036.75
-9026.73
-4781
-4691.69
-16020
-14217.9
-16155.8
-10327.9
-11799.4
-11722.6
-12384.1
-12696.5
-10292.3
-6846.32
-8244.18
-8257.9
-3757.11
-4900.67
-3063.28
-3192.97
-7161.44
-4912.61
-6065.68
-2826.67
-3122.75
-4969.6
-4104.43
-5478.94
-3175.86
-3161.01
-13663
-12115.3
-12860.9
-8802.66
-10042.5
-11272.9
-8416.18
-9550.84
-6549.09
-3568.18
-4739.47
-5477.9
-2392.49
-2566.89
-1996.35
-2157.43
-4275.32
-3324.45
-4062.61
-1525.61
-1647.69
-3449.9
-2427.73
-3509.24
-1645.84
-1716.25
-9101.21
-7919.74
-8626.76
-5027.66
-6493.96
-7073.14
-6087.76
-6258.62
-4678.36
-2804.45
-3548.87
-3782.62
-145.647
-851.06
-570.222
-595.911
-1870.28
66.1446
-745.343
374.186
34.7128
409.28
417.277
390.268
-515.89
-557.931
-9069.64
-7499.77
-9149.04
-2662.72
-5116.89
-5864.59
-4870.57
-5085.09
-1475.59
275.39
217.357
-87.9761
860.191
618.772
1570.88
1201.97
-57.605
822.905
-230.125
234.694
597.794
-598.36
360.927
-2383.43
1484.31
1599.42
-11896.9
-10118.1
-12788.3
-3256.73
-6696.09
-6265.35
-8746.37
-8039.83
-4554.17
920.178
-496.942
-338.001
-25681.4
-25453.1
-24763.2
-25575.3
-25544.1
-26084.2
-22766.8
-24570.1
-22856.1
-18975.9
-21092.1
-20871.9
-20213.6
-21251.7
-18489.4
-24887.7
-22986.9
-24887.3
-15917.1
-17924.8
-15254.2
-21379.2
-19093.5
-19939.5
-17056.9
-19083.3
-19237.7
-24295.2
-21575.2
-23103.2
-23249
-23745.9
-20699.1
-22657.3
-19547.5
-21573.9
-18477.3
-14723.1
-15815.7
-14732.9
-15422.3
-13834.8
-17056.7
-18453.6
-10605.4
-11767.1
-10201.9
-15854.2
-13324.7
-14705.3
-11515.6
-12758.4
-13257.8
-18498.2
-15425.5
-17464.1
-22170.3
-23861.5
-17797.6
-20421.5
-20081.4
-20393.9
-18427.8
-9616.96
-10980.9
-12277.9
-11410.8
-10442.7
-12763.8
-15215.7
-11657.6
-12391.1
-10383.6
-16400.2
-13989.3
-16517.3
-10797.2
-12289.2
-12224.1
-15910.9
-13757.6
-16005.7
-23961.5
-25410.2
-19758.3
-21982
-24941.7
-23777.1
-22990.8
-11335.3
-12992.3
-15499
-14249.2
-12836.8
-15305
-17783.8
-17050.1
-17755.6
-14476.6
-21591
-19669.2
-22187.2
-14098.9
-17061.4
-16219.6
-19255.2
-17691.1
-20601.7
-26070.3
-25536.6
-26014.9
-26300.7
-26008.8
-16625.1
-18945.9
-21306.1
-20271.7
-19019.1
-21541.6
-23517.1
-21460.6
-19157.4
-25178.6
-23655.8
-19177.6
-22134.6
-21798.8
-24982.5
-23531.8
-25480.5
-14235.9
-16098.5
-14982.5
-13489.1
-11645.1
-16700.9
-12342.5
-14879.8
-16407.8
-16664.5
-6683.8
-10692.3
-8260.31
-9113.62
-10214.1
-14724.2
-12279.2
-12618.9
-9625.76
-10884.3
-10392.5
-9400.35
-7533.71
-13030.4
-8264.25
-10686.8
-12282.1
-11758
-3591.61
-5978.39
-4681.86
-5164.59
-6469.98
-10295.3
-8117.64
-8025.88
-9162.73
-9620.63
-9197.6
-7930.42
-5810.03
-8724.48
-5976.48
-7523.55
-8718.75
-9268.81
-1968.61
-4044.05
-2727.41
-3197.75
-4455.58
-7744.23
-5910.51
-6172.24
-11352.6
-11415.6
-11211.7
-9019.84
-5695.93
-9615.43
-5059.41
-7821.1
-9982.88
-10769.7
594.109
-2309.15
70.5432
270.936
-1435.95
-8775.87
-5326.94
-6164.28
-15993.7
-16569.2
-16179.6
-14032.7
-11381.1
-14330.7
-9659.46
-12427.9
-15293.6
-16496.8
-1963.63
-9576.63
-6392.53
-4261.28
-6879.39
-14141.9
-10510.5
-11628.1
SCALARS CoVolArea double 1
LOOKUP_TABLE default
0.0630373
0.0138781
0.0693519
0.0580547
0.0427219
0.0558716
0.0334056
0.00813437
0.0332104
0.0397833
0.0394649
0.143867
0.125315
0.108635
0.0678159
0.0397269
0.0574857
0.0198258
0.0254113
0.0240455
0.0500594
0.162919
0.0422526
0.0388044
0.140721
0.0810051
0.0759618
0.179596
0.0490075
0.106955
0.0504062
0.0403233
0.0562995
0.0604186
0.0846082
0.0693697
0.10607
0.0529104
0.0690471
0.0490155
0.052623
0.0397084
0.0976695
0.1188
0.103046
0.211337
0.158233
0.248571
0.0700692
0.0909339
0.0558539
0.102014
0.0818662
0.0711983
0.0648347
0.0323644
0.0443234
0.0199595
0.0797265
0.0263655
0.0244224
0.0704543
0.020591
0.0733617
0.0667016
0.0243439
0.0577929
0.0144164
0.0317481
0.0574352
0.0488079
0.0283802
0.120392
0.0992165
0.0819368
0.145175
0.138432
0.037241
0.0309649
0.0513026
0.0625563
0.0386596
0.0476407
0.0397266
0.0886283
0.0725857
0.152438
0.197425
0.0746367
0.101624
0.0916235
0.172525
0.111237
0.0929516
0.088868
0.166228
0.107278
0.0807908
0.028943
0.0732064
0.0183032
0.0122033
0.0611469
0.0587252
0.0618078
0.021524
0.0441603
0.026755
0.0267789
0.0474222
0.042194
0.0393789
0.0918394
0.0812275
0.093593
0.0604513
0.0774855
0.0475886
0.088782
0.0935653
0.0848621
0.118097
0.089505
0.0565809
0.100326
0.0984984
0.120057
0.108285
0.0932651
0.0749144
0.0661539
0.0855583
0.0700972
0.0725217
0.0593044
0.0679593
0.0717818
0.0502949
0.0630719
0.0529456
0.0625441
0.0604302
0.0616329
0.0395065
0.0416802
0.0406249
0.0529653
0.0560129
0.061022
0.0512147
0.0968069
0.0945737
0.161407
0.0704602
0.0727612
0.102457
0.0612944
0.0575211
0.0736999
0.039971
0.0524402
0.0495849
0.0877258
0.0978054
0.0869253
0.139983
0.0970823
0.108782
0.0780001
0.0951398
0.0922926
0.18735
0.226475
0.202597
0.122297
0.247402
0.145627
0.204943
0.214309
0.194059
0.0554021
0.0502525
0.055857
0.0899956
0.0719573
0.0967714
0.0649881
0.0557554
0.0741199
0.16852
0.108255
0.147779
0.109437
0.0726913
0.0897014
0.123614
0.060964
0.0882059
0.0481115
0.0657544
0.0740544
0.0518746
0.078463
0.0616938
0.0776996
0.0746955
0.0383042
0.0363304
0.0182499
0.0341589
0.0335507
0.0439202
0.0352095
0.0378201
0.0428428
0.0697192
0.0516571
0.0518498
0.046902
0.046053
0.110817
0.0687858
0.0135574
0.0252944
0.0283592
0.0267793
0.0294358
0.0230088
0.0322024
0.0174001
0.0524398
0.113027
0.0139072
0.0441637
0.0378993
0.0179872
0.0323339
0.0207573
0.0525972
0.0877647
0.0678901
0.14452
0.0841083
0.0861779
0.0354754
0.0609562
0.0329297
0.0286754
0.0633396
0.0409411
0.0344711
0.00561843
0.00654474
0.0367783
0.0190074
0.0216311
0.0157165
0.0253688
0.0533729
0.0367345
0.0294414
0.0346964
0.0334828
0.0446816
0.0256849
0.0318577
0.0479408
0.0316141
0.0641537
0.0355622
0.0762355
0.0860984
0.074011
0.0792935
0.110334
0.0797737
0.0854638
0.126669
0.0897506
0.110078
0.0698915
0.0585971
0.203778
0.161541
0.129736
0.210168
0.126634
0.183842
0.142903
0.132445
0.125866
0.172719
0.0197427
0.010857
0.0460083
0.0356488
0.047589
0.0313437
0.0353185
0.0637074
0.0534117
0.0442401
0.0554729
0.034003
0.0638826
0.0566535
0.0466282
0.0377644
0.0427748
0.0352427
0.0384445
0.0302187
0.0536795
0.0462786
0.050368
0.0476558
0.0469245
0.0352247
0.0720234
0.0726872
0.111191
0.0581246
0.0780695
0.0675091
0.0797454
0.166601
0.134762
0.287477
0.184977
0.248123
0.0845506
0.127271
0.052855
0.0801373
0.0650507
0.0884137
0.09443
0.0664954
0.098525
0.107735
0.157954
0.16882
0.164944
0.0825895
0.148386
0.12709
0.137987
0.136937
0.165839
0.183264
0.182529
0.0791604
0.101503
0.100414
0.0924489
0.0867871
0.0819458
0.127187
0.105706
0.12737
0.0847516
0.152227
0.125257
0.155574
0.0669018
0.0863147
0.0866913
0.138789
0.114759
0.166279
0.0483924
0.0494586
0.0175883
0.035209
0.0994061
0.0627755
0.0790589
0.0109687
0.0122529
0.0240286
0.0139804
0.0270141
0.0163053
0.0142867
0.0504781
0.0644898
0.0529207
0.0711343
0.0673732
0.0752196
0.0588669
0.06602
0.0473752
0.0180757
0.028041
0.0427978
0.0414082
0.0300074
0.0318781
0.0302668
0.0336856
0.027455
0.0216651
0.0145239
0.0195462
0.0306502
0.0330294
0.0453428
0.0272971
0.0249008
0.0416553
0.0451288
0.0405731
0.0347683
0.0527359
0.0486085
0.052628
0.0521676
0.0422881
0.0206855
0.0167309
0.0170461
0.0759393
0.0893361
0.0823633
0.0664439
0.080969
0.0776166
0.102747
0.0911887
0.0929934
0.0502902
0.0528127
0.0463324
0.0698286
0.0591402
0.0633203
0.040667
0.0547094
0.062253
0.0666638
0.0822222
0.0674538
0.0884435
0.0870109
0.0945691
0.0737661
0.083499
0.0771504
0.0928521
0.0976152
0.0996545
0.0843945
0.0841164
0.102079
0.0967946
0.115024
0.0998818
0.118215
0.0591051
0.0606631
0.0781801
0.0772117
0.0713608
0.0918502
0.082129
0.0857743
0.106972
0.0890431
0.122966
0.109273
0.106
0.0755727
0.095339
0.0807859
0.117733
0.120707
0.141841
0.087274
0.0769076
0.108926
0.0990252
0.0737465
0.0837955
0.087583
0.0666317
0.0765662
0.0578889
0.0729105
0.0656041
0.0930272
0.106226
0.0520575
0.0626828
0.0534365
0.0734852
0.0694805
0.0702877
0.0481162
0.0553105
0.0620824
0.092787
0.0834727
0.0832978
0.0690893
0.0654041
0.075187
0.0730671
0.062739
0.067149
0.0589236
0.0492392
0.0545122
0.0545584
0.054392
0.0513289
0.0638997
0.065443
0.0545824
0.0587066
0.0549695
0.0558413
0.0475009
0.0384066
0.0502762
0.050711
0.0552978
0.0766603
0.0707054
0.0742742
0.0819966
0.0558968
0.0748184
0.0809951
0.0679406
0.041793
0.0470478
0.0355437
0.0397373
0.0373592
0.042786
0.0438165
0.0400778
0.0428045
0.0482407
0.0366102
0.0521063
0.0455336
0.03894
0.0500424
0.0450633
0.0541815
0.0624968
0.0577291
0.0555316
0.0578885
0.0557815
0.0489981
0.0608431
0.0551435
0.0592777
0.0541954
0.0701586
0.0688612
0.0717366
0.0569999
0.0410803
0.0559957
0.0536889
0.0541834
0.104271
0.0666478
0.0930929
0.135706
0.126478
0.0799653
0.0919016
0.0950232
0.0758923
0.0847821
0.113464
0.205815
0.139851
0.178567
0.112995
0.107604
0.117329
0.160539
0.0581054
0.0615231
0.0509348
0.0681271
0.0878636
0.0614616
0.0691881
0.0662909
0.0678595
0.0734786
0.0778536
0.106672
0.0988329
0.0852583
0.0819151
0.0903622
0.0945651
0.0929254
0.0528333
0.0538423
0.0546349
0.0528061
0.0661084
0.0568517
0.065109
0.0580146
0.0498973
0.0508648
0.0362291
0.0587114
0.053823
0.047814
0.061077
0.0607082
0.0784034
0.0747721
0.0459961
0.0413103
0.0466527
0.0359192
0.0378707
0.0396456
0.0623632
0.0447401
0.0449221
0.0417464
0.0281306
0.0461694
0.0518737
0.0524664
0.0591864
0.042112
0.0511339
0.0416258
SCALARS SignedDistance double 1
LOOKUP_TABLE default
1.16425
1.26077
-0.00592922
-1.00246
-0.0029665
0.482676
4.20712e-06
1.26883
0.00283682
-0.994977
1.22214
-0.919751
-0.00956956
1.41273
-0.00178545
1.21832
-0.00507384
-1
0.0247835
-1.00329
-0.00106005
1.25972
0.000299698
-0.471049
0.00859344
-0.130679
-0.018999
1.21431
1.11053
-0.505501
-0.0237625
1.09284
7.47186e-06
-1.00023
-0.00496873
-0.870406
-0.000608049
-1.00375
-0.00893225
0.0834391
0.0387461
-0.796378
0.0207544
1.23163
-0.0116133
1.38713
0.0026161
1.54083
0.626466
1.23126
-0.00490031
-1.02814
0.0260139
-0.0905832
1.1915
-0.799231
0.02213
1.27172
-0.04734
-0.046276
-1
-0.741013
0.246035
0.972663
0.0129629
-1.0324
-0.0185664
0.0175061
0.0683133
-1.00576
0.0158046
-1.00159
0.0245435
0.582262
-0.00117894
1.1228
-0.00756132
0.0918292
1.09123
-0.458242
0.00256188
-0.583613
-0.0092976
-0.472781
0.120012
0.927643
0.0770298
1.45563
0.00515218
1.12972
0.309288
1.26262
-0.005046
0.918353
-0.0155245
-1.00118
-0.000489876
-0.896248
1.26458
0.514897
1.28409
1.24266
7.56302e-05
0.666423
-0.00675761
-0.342938
1.19548
1.28523
0.506009
0.0756778
0.547109
-0.441528
0.00605183
-1
0.00856752
-0.534066
0.00758142
0.448904
-0.0121002
-0.323098
-0.00133515
-0.00666307
-0.000509767
-0.0332144
0.0219125
-0.267685
0.000173374
0.811077
-0.00258853
-0.717697
-0.00158495
-0.693715
-0.0131777
-0.354601
0.000345275
-0.374639
-0.0104374
-1.00181
-0.00190921
-0.478638
0.000777757
-0.948168
-0.000891097
-0.628032
-0.00311732
0.746736
0.00364677
-1.00025
0.000619554
0.315137
0.00788115
-0.714151
0.00650758
0.349799
0.733855
0.0883131
0.00294953
-0.353923
1.01083
-0.469656
-0.0099297
-0.254641
1.11234
-1.06082
-0.0240415
1.26416
-0.00602399
1.2026
0.0122088
1.18317
0.0208511
1.33224
0.00723278
1.3637
0.00365284
1.67212
-0.0106385
1.32444
0.0281175
1.48392
1.09688
0.372397
0.521185
1.12566
0.250381
-1.10955
0.00833416
-1.00669
0.00444256
1.29348
0.00273787
1.39726
-0.0447268
1.13352
0.746578
1.27151
0.00765233
1.18072
0.00250772
0.139539
1.15638
1.32436
1.29312
1.13132
1.20294
0.971867
-0.0332635
0.97281
1.26308
-0.252275
0.00654349
-0.781946
1.29739
1.14396
1.18379
-1
0.0833677
-0.753527
1.1776
0.646349
-0.0662235
-0.534868
0.0143966
1.20625
1.20893
-0.790519
0.0206554
-1
-0.00575197
-1
0.00677365
1.29559
1.22514
1.21558
1.19566
1.21203
1.21316
0.251373
-0.0034744