# vtk DataFile Version 4.2
vtk output
ASCII
DATASET POLYDATA
POINTS 642 double
-1.32704 3.62982 -0.162726
0.386237 3.52559 -0.127364
-1.33228 0.484486 -0.00632596
0.706335 0.496782 0.00433124
-0.357984 1.07339 1.43725
-0.495802 2.91363 1.28221
-0.334514 1.15728 -1.37205
-0.54804 3.12065 -1.53956
1.05806 2.00023 -0.785411
1.1122 1.9525 0.800936
-1.82746 2.24693 -0.956857
-1.89787 2.13524 0.919987
-1.83176 3.01679 0.517819
-1.2993 2.63748 1.33766
-0.955156 3.4472 0.774306
0.0527517 3.40942 0.634898
-0.375911 3.83861 -0.111793
0.0660842 3.5437 -0.877234
-1.00994 3.65451 -1.04122
-1.28357 2.83524 -1.52467
-1.82185 3.12261 -0.688552
-2.13349 2.1481 0.00785784
0.459647 2.49754 1.21186
0.932598 2.79233 0.440838
-1.25054 1.49569 1.35599
-0.382453 2.02444 1.58955
-1.75438 1.15189 -0.518052
-1.7852 1.12917 0.555224
-0.46014 2.25346 -1.64688
-1.20326 1.61801 -1.33363
0.867798 2.90009 -0.499248
0.363443 2.67823 -1.27186
1.19521 1.11931 0.515179
0.540477 1.46277 1.31514
0.265503 0.564582 0.894358
-0.955512 0.541818 0.921705
-0.343528 0.252707 -0.0124318
-0.90637 0.603837 -0.871617
0.240769 0.616711 -0.861154
0.489919 1.5006 -1.26495
1.1536 1.13835 -0.4884
1.35342 1.91096 0.00614443
-1.60782 3.38446 0.197352
-1.45064 3.2928 0.6852
-1.16283 3.59087 0.337757
-1.6417 2.40967 1.18693
-1.61517 2.8633 0.998569
-1.92584 2.59473 0.755774
-0.729977 3.20507 1.08754
-1.1745 3.08168 1.11499
-0.888804 2.81556 1.36028
-0.659 3.73147 0.308478
-0.887251 3.79564 -0.143458
-0.194412 3.18991 1.00218
-0.433992 3.50368 0.716316
0.0131833 3.74624 -0.119206
-0.149216 3.70167 0.276671
0.231319 3.53582 0.258964
-0.722177 3.81081 -0.611675
-1.20312 3.70288 -0.663294
0.280789 3.58667 -0.460149
-0.14658 3.7766 -0.527071
-0.758165 3.41803 -1.37599
-0.507699 3.65318 -1.03292
-0.238671 3.36057 -1.27703
-1.48203 3.48855 -0.918313
-1.60856 3.46068 -0.426382
-0.912265 3.02104 -1.60542
-1.19665 3.31901 -1.38059
-1.87892 2.73324 -0.863487
-1.63006 3.02973 -1.17088
-1.60026 2.57949 -1.29912
-1.89332 3.1041 -0.0669962
-2.04742 2.17907 -0.488758
-2.04498 2.66597 -0.342037
-2.07082 2.61435 0.280221
-2.07517 2.14517 0.52008
0.544348 3.1374 0.572129
0.658378 3.22237 0.142839
0.0403334 2.69986 1.29292
0.313854 2.96124 0.979032
1.06704 2.4065 0.641031
0.756418 2.68526 0.848858
0.820703 2.24633 1.0552
-0.899669 2.36749 1.52467
-0.458407 2.48215 1.49122
-1.65056 1.85798 1.17795
-1.33638 2.12041 1.42516
-0.340894 1.51302 1.56601
-0.853009 1.78894 1.55525
-0.79423 1.21143 1.44156
-2.05106 1.63855 0.290826
-1.90483 1.68327 0.780152
-1.85343 1.66276 -0.730265
-2.02551 1.63829 -0.273853
-1.61246 0.738932 0.29756
-1.85512 1.09913 -0.0068248
-1.60523 0.759848 -0.293375
-1.27981 2.3015 -1.51773
-1.55689 1.95153 -1.2026
-0.531346 2.76637 -1.64827
-0.892406 2.60343 -1.67501
-0.745132 1.31405 -1.39601
-0.848895 1.97186 -1.58638
-0.3546 1.6115 -1.5313
0.232502 3.16829 -1.14918
-0.104199 2.95299 -1.45932
0.643766 3.2762 -0.336158
0.499905 3.2919 -0.717194
0.750232 2.32001 -1.06826
0.6645 2.82234 -0.929608
1.02388 2.4404 -0.660059
1.01801 0.72299 0.264137
0.806179 0.770911 0.723116
0.549526 0.467972 0.434089
0.887736 1.69986 1.09067
0.934608 1.25287 0.951074
1.21441 1.49836 0.671542
-0.0766805 0.79565 1.25102
0.441284 0.957205 1.1651
0.0872192 1.24449 1.43949
-0.000498659 0.324417 0.488289
0.262171 0.325031 -0.0042946
-0.662012 0.758919 1.25395
-0.349989 0.487544 0.969315
-0.885963 0.301761 -0.00441612
-0.671099 0.31962 0.501456
-1.18052 0.45455 0.502186
-0.0179866 0.349004 -0.483883
0.50635 0.497383 -0.452322
-1.17274 0.482092 -0.43357
-0.666889 0.338382 -0.473975
-0.067662 0.860403 -1.17604
-0.351372 0.544258 -0.914303
-0.609107 0.85187 -1.1794
0.759457 0.811291 -0.689078
0.987454 0.751911 -0.255437
0.0992899 1.30538 -1.36838
0.413165 1.02492 -1.11913
1.15989 1.50778 -0.636262
0.870976 1.28527 -0.915455
0.821442 1.72943 -1.06531
1.2707 1.08131 0.00216474
1.27302 1.9404 -0.391731
1.34256 1.51464 -0.230033
1.36834 1.50081 0.260946
1.29092 1.93826 0.437959
0.10238 1.72151 1.52601
0.542986 1.99756 1.32807
0.0681573 2.25794 1.47201
-1.43891 0.752037 0.794036
-1.13404 0.941502 1.21627
-1.5684 1.26766 1.03036
-1.06291 1.00388 -1.1284
-1.39502 0.806726 -0.722508
-1.53308 1.32348 -0.959369
0.478998 2.06769 -1.31945
0.0533509 1.8069 -1.50311
-0.0408982 2.46861 -1.53633
1.20649 2.39463 0.239851
1.18888 2.41212 -0.241022
0.96906 2.86977 -0.0267021
-1.46331 3.52776 -0.00144206
-1.42146 3.48302 0.294945
-1.25849 3.62394 0.0689158
-1.65693 3.1709 0.608932
-1.542 3.34433 0.467714
-1.74972 3.19198 0.376634
-1.06369 3.53537 0.566484
-1.32592 3.44336 0.539849
-1.20371 3.38352 0.75043
-1.78139 2.27858 1.0698
-1.79759 2.51081 0.993532
-1.92973 2.37325 0.845804
-1.45605 2.75767 1.19385
-1.64522 2.63786 1.10579
-1.48475 2.52214 1.2752
-1.89316 2.81393 0.643834
-1.78341 2.73773 0.891557
-1.74793 2.93842 0.771686
-0.59835 3.05329 1.20459
-0.848958 3.02043 1.23572
-0.670897 2.87413 1.32908
-1.08203 3.27437 0.958207
-0.964358 3.1575 1.10981
-0.869504 3.34761 0.928503
-1.08376 2.73937 1.36689
-1.05585 2.95167 1.25224
-1.23766 2.87493 1.24318
-1.55256 3.08695 0.85528
-1.39559 2.99035 1.0766
-1.32122 3.19859 0.921306
-1.00506 3.71848 0.0964654
-1.11067 3.72806 -0.173625
-0.80827 3.5992 0.55321
-0.907138 3.67354 0.340319
-0.630287 3.83823 -0.117952
-0.749438 3.78381 0.0992933
-0.508782 3.80702 0.0986744
-0.349271 3.05709 1.15732
-0.472387 3.21412 1.05079
-0.193278 3.48336 0.672811
-0.321511 3.35962 0.861999
-0.0518771 3.31365 0.816644
-0.595111 3.36722 0.911426
-0.713362 3.48589 0.759951
0.245825 3.62678 -0.125638
0.130892 3.65815 0.0720554
0.33513 3.53857 0.0340217
-0.265974 3.79169 0.0809965
-0.0575492 3.73752 0.0800453
-0.180871 3.80799 -0.118316
0.165066 3.48725 0.431537
0.0469758 3.635 0.262597
-0.0483902 3.57689 0.458719
-0.555518 3.63896 0.520141
-0.284255 3.62525 0.497443
-0.406846 3.74298 0.290684
-1.0526 3.76242 -0.417061
-1.27768 3.68249 -0.441034
-0.525254 3.84892 -0.344823
-0.80827 3.82275 -0.392396
-1.12091 3.70012 -0.83378
-0.993124 3.75645 -0.660874
-0.895508 3.73107 -0.845752
0.332462 3.57098 -0.309076
0.167237 3.67696 -0.30913
-0.0328316 3.67867 -0.712055
0.0748445 3.6966 -0.505488
0.168191 3.58065 -0.695526
-0.0501086 3.77428 -0.311951
-0.260287 3.82855 -0.32687
-0.641178 3.25707 -1.48594
-0.545265 3.41132 -1.33414
-0.419794 3.22724 -1.44077
-0.789896 3.65699 -1.0584
-0.649071 3.55157 -1.20203
-0.910052 3.5678 -1.21028
-0.0658165 3.46529 -1.08159
-0.372715 3.53446 -1.15645
-0.172651 3.61727 -0.941999
-0.424533 3.81903 -0.565958
-0.288722 3.74039 -0.76409
-0.636342 3.75575 -0.835893
-1.42058 3.60243 -0.558103
-1.49747 3.54793 -0.325271
-1.24732 3.60777 -0.999035
-1.34257 3.61846 -0.795584
-1.72989 3.31373 -0.561047
-1.5639 3.47263 -0.69942
-1.67317 3.31543 -0.811821
-0.738486 3.07971 -1.58844
-0.84277 3.23301 -1.51924
-1.24876 3.08086 -1.47602
-1.04594 3.17379 -1.5232
-1.09269 2.94045 -1.5886
-0.979831 3.39218 -1.39235
-1.11367 3.5194 -1.23071
-1.86476 2.4523 -0.928076
-1.76264 2.66209 -1.09232
-1.74469 2.39146 -1.1141
-1.75142 3.08246 -0.944998
-1.76933 2.88656 -1.02473
-1.86498 2.93307 -0.788512
-1.46576 2.69904 -1.41747
-1.62603 2.81553 -1.24476
-1.46583 2.9402 -1.37193
-1.38619 3.46102 -1.1975
-1.43358 3.18985 -1.2977
-1.60328 3.28158 -1.07878
-1.63004 3.42189 -0.131926
-1.86418 3.13194 -0.404225
-1.76314 3.29062 -0.261014
-1.78197 3.24001 0.0692861
-1.88256 3.06484 0.251934
-1.95175 2.21307 -0.730974
-1.97539 2.45905 -0.684163
-2.11208 2.40649 -0.163034
-2.0627 2.4326 -0.423288
-2.10758 2.1574 -0.243566
-1.97314 2.70507 -0.618481
-1.94163 2.90364 -0.543429
-2.02603 2.37397 0.637179
-2.01214 2.1381 0.707086
-1.96727 2.8405 0.411034
-2.01567 2.61215 0.527714
-2.12553 2.14811 0.270144
-2.09477 2.37956 0.389449
-2.12471 2.389 0.14447
-1.99346 2.89441 -0.218591
-2.08326 2.64332 -0.0232747
-2.00726 2.86798 0.115019
0.463807 3.38097 0.199133
0.517407 3.39312 -0.00351851
0.311371 3.28484 0.611005
0.387187 3.35029 0.415169
0.809867 3.01004 0.302133
0.618742 3.17716 0.379742
0.749534 2.97299 0.516438
-0.221925 2.81255 1.29843
-0.0676746 2.95142 1.16285
0.390888 2.72351 1.11977
0.186954 2.83527 1.1482
0.261801 2.59771 1.26278
0.0794628 3.08245 0.9966
0.192503 3.18682 0.828637
1.10279 2.15753 0.742588
0.962429 2.32643 0.860042
0.994871 2.0921 0.922327
0.86276 2.74089 0.652503
0.923115 2.55088 0.753324
1.00884 2.60628 0.546431
0.668518 2.36552 1.13369
0.803391 2.45809 0.965946
0.621043 2.59301 1.04605
0.443755 3.0594 0.784363
0.545919 2.83267 0.924941
0.666128 2.91081 0.725815
-0.692947 2.66105 1.43716
-0.484258 2.70503 1.39921
-1.09891 2.51136 1.45171
-0.923284 2.58483 1.45944
-0.416461 2.28696 1.54688
-0.700658 2.43067 1.51693
-0.65745 2.2073 1.56744
-1.77651 1.98174 1.07166
-1.65154 2.13321 1.20687
-1.31677 1.83274 1.40681
-1.49184 1.99101 1.32583
-1.4518 1.66615 1.28365
-1.49382 2.26943 1.32132
-1.33187 2.38439 1.39859
-0.351927 1.24851 1.50057
-0.586584 1.34904 1.5173
-0.554569 1.12285 1.45071
-0.622764 1.90856 1.59277
-0.58855 1.64789 1.57657
-0.358053 1.78468 1.59404
-1.02158 1.3306 1.4074
-0.835583 1.47133 1.50427
-1.06157 1.64126 1.47549
-1.12123 2.24602 1.50247
-1.10254 1.973 1.51348
-0.89903 2.09305 1.55934
-2.0155 1.90653 0.646417
-1.91952 1.89256 0.849302
-2.11422 1.89925 0.147532
-2.08318 1.89921 0.393114
-1.86499 1.40971 0.674844
-1.99381 1.63486 0.534164
-1.94103 1.38261 0.424858
-1.85581 1.94541 -0.841927
-1.96828 1.91906 -0.619905
-1.90891 1.38787 -0.401477
-1.95399 1.64456 -0.509315
-1.81654 1.39199 -0.620749
-2.05116 1.90198 -0.379695
-2.09942 1.89368 -0.142622
-1.45895 0.568481 0.115725
-1.62332 0.728335 -0.00770668
-1.45896 0.57747 -0.131288
-1.83844 1.09419 0.272231
-1.74027 0.903975 0.139807
-1.69985 0.917064 0.434312
-1.67474 0.925605 -0.399387
-1.72992 0.908134 -0.153272
-1.82191 1.11382 -0.27665
-2.06334 1.62943 0.00111877
-1.96099 1.36221 -0.143427
-1.97284 1.35552 0.142346
-1.59218 2.27723 -1.27246
-1.70391 2.10592 -1.09051
-1.29063 2.57589 -1.54143
-1.45114 2.44354 -1.4252
-1.40443 1.80377 -1.27528
-1.42826 2.14851 -1.38075
-1.24897 1.99569 -1.44012
[...]
POINT_DATA 642
SCALARS Mean_Curvature double 1
LOOKUP_TABLE default
0.840114
1.29193
1.21561
1.40438
1.01685
0.593449
1.06122
1.56473
1.02537
1.15114
0.723579
1.32808
1.30669
1.41724
1.17404
0.643712
1.36408
1.26503
1.86942
1.47607
1.32344
0.96798
1.00017
1.09425
0.813349
0.98888
0.995207
0.973345
0.80176
0.683803
0.915762
0.575717
1.51676
1.11347
1.29072
1.18879
0.820432
1.37401
1.38365
1.00084
1.67747
1.15712
1.17541
1.22856
0.792554
1.36367
1.37032
1.30528
1.13064
1.29241
1.20999
1.15867
1.02312
0.773895
0.973209
1.41737
1.30866
1.20905
1.21127
1.45072
1.44199
1.43044
1.67244
1.33882
1.15345
1.54372
1.25481
1.72152
1.63633
1.0899
1.34952
1.22258
1.09172
0.956665
0.944811
1.11407
1.08455
0.990364
0.907453
0.879537
0.896035
1.17278
1.0542
1.13594
1.23937
0.811221
1.17383
1.39518
1.02346
0.879544
0.821443
1.07423
0.933759
0.951343
0.995428
1.51493
1.01794
1.78417
1.30215
0.70805
1.33236
1.454
0.908493
0.869383
0.781066
1.27286
1.08679
1.25098
1.17246
0.934122
0.717632
1.01617
1.82523
1.41484
1.23938
1.11252
1.10987
1.3722
1.11135
1.1353
1.02177
0.97092
0.989485
1.51663
1.26621
1.21311
0.943716
1.10619
1.13353
1.14943
1.12376
1.28579
1.06801
1.26875
1.01789
1.1548
1.50332
1.00956
1.21741
1.09732
1.07689
1.0241
1.49868
1.15025
1.44261
1.734
1.16953
1.08196
1.08267
1.01892
1.54518
1.70942
0.988045
1.07133
1.38648
0.904577
0.87669
0.934132
0.751005
1.15573
1.0682
1.0008
0.947397
0.995924
0.781483
1.28034
1.29257
1.24742
1.06272
1.16342
1.14701
1.34443
1.3485
1.3736
1.34997
1.40387
1.33051
1.28041
1.29335
1.30276
1.0486
1.20421
1.06531
1.25068
1.21704
1.19333
1.33839
1.30136
1.39274
1.33051
1.33867
1.24034
0.88283
0.841156
0.92618
0.948408
1.24362
1.12853
1.3065
0.718806
0.88041
1.00271
0.634559
0.778891
1.03448
1.01563
1.35314
1.35754
1.22732
1.39536
1.36886
1.42323
0.958224
1.30529
1.18052
1.13518
1.20586
1.31861
0.953452
1.26185
1.17834
1.13157
1.68196
0.821442
0.868985
1.38903
1.42806
1.35124
1.45547
1.33275
1.42539
1.38105
1.72423
0.990159
1.02149
1.27593
0.990262
1.79375
1.16402
1.27566
1.24051
1.27562
1.27159
1.30502
1.40839
1.15964
1.8245
1.64509
1.2915
1.34871
1.39667
1.69572
1.93643
1.56251
2.11729
1.71105
1.82413
1.7602
1.04388
1.20587
1.15229
1.4699
1.31497
1.2618
1.3272
1.25269
1.37068
3.34754
1.21479
2.10275
1.00091
1.06426
1.02508
1.09073
1.24518
0.86016
0.80505
1.00383
0.998393
0.996018
1.03815
1.01788
1.25722
1.29902
1.27268
1.29259
1.17861
1.11782
1.11702
1.03359
1.0862
1.20813
0.703602
1.05035
0.893363
0.917722
0.986696
0.993861
0.99943
0.792257
0.793998
0.994107
0.863506
0.940306
0.834636
0.885424
1.1351
1.16152
1.11783
1.10415
1.09699
1.1347
1.04681
1.11882
1.03045
0.982061
0.996561
1.05867
0.998403
0.703425
1.33273
1.23343
0.912244
0.821216
0.888248
1.33096
1.20767
1.10087
1.21962
0.83503
1.19283
1.38153
0.946655
0.854969
0.92436
0.977881
0.889416
0.927204
0.681951
0.850059
0.848666
1.43006
1.23765
1.09052
1.19564
1.3059
1.02683
0.932675
0.988697
1.00965
1.00009
0.87848
0.900542
1.00574
0.943844
0.974704
0.892454
0.959971
1.31905
1.50443
1.43366
0.981701
0.866825
0.843597
0.966523
0.984814
1.02106
1.11457
1.00095
1.02811
1.15188
0.543978
1.41387
1.22416
0.673645
1.10003
0.548154
1.39889
1.51926
1.2778
1.41492
1.22843
1.59412
1.5852
0.980062
0.852883
0.921476
0.744891
0.772484
0.763557
0.845171
0.858348
0.860994
1.42242
1.29587
1.24626
1.19183
0.995814
1.10762
1.06512
1.03993
1.21854
1.15461
1.26677
1.33266
1.43063
1.27963
0.736338
1.2891
1.21628
0.976221
0.97424
1.01032
0.636539
0.831763
0.808113
0.942333
0.918002
0.826318
1.19555
1.33869
1.29089
1.23498
1.30215
1.3661
1.58603
1.32379
1.62813
1.29357
1.19859
1.29398
1.12895
1.08667
1.14535
1.06989
1.09292
1.07504
1.62468
1.26947
1.48408
1.11413
1.24827
0.981832
1.18513
1.13816
1.1863
1.09481
1.09282
1.05483
1.41479
1.07836
1.13269
1.09737
1.16941
1.22664
1.12943
0.866548
0.929138
0.834264
1.4715
1.52897
1.18657
1.45017
1.33184
1.27497
1.16907
1.33565
1.20226
1.14337
0.828471
1.05196
0.848041
1.08586
1.01901
1.08561
1.13269
1.11613
0.906991
1.11404
1.36952
0.909275
1.00844
1.27669
1.24051
1.25382
1.34934
1.23546
1.18582
1.18101
1.19195
1.00347
0.92159
1.07983
1.05381
1.0671
1.19202
1.0944
1.19301
1.47926
1.26184
1.33593
1.11935
1.22954
1.13262
1.35245
1.36246
1.1942
1.16376
1.54194
1.37519
1.31872
1.0548
0.999532
1.07075
0.98064
0.979492
1.07912
1.21099
1.06159
1.04091
1.00577
1.21954
1.04493
1.35025
0.998741
1.03499
1.02333
1.19024
1.1524
1.19984
1.38334
1.66951
1.49138
1.58149
1.44985
1.10524
1.10726
1.17502
1.12356
1.16326
1.17823
1.68256
1.14213
1.17849
1.65862
1.65977
1.11433
1.25632
1.23171
1.75839
1.716
1.88345
1.07242
1.08834
1.05356
1.05971
0.994779
1.14152
1.0362
1.11892
1.08622
1.13819
0.783844
1.02328
0.869517
0.90406
0.961925
1.17751
1.05283
1.08661
1.18441
2.68828
2.07797
1.44552
0.928039
1.43352
0.84355
1.11971
1.47099
1.48957
1.03484
1.00093
0.998948
0.969958
0.921351
1.66667
1.04794
1.08867
0.942191
1.50118
1.15829
0.891428
0.673484
1.71251
0.909886
1.74878
1.45487
1.49125
0.923334
0.714465
0.852523
0.935868
0.944515
1.3537
0.903505
0.796132
0.954756
0.949952
0.937211
0.923464
0.759683
0.925541
0.878115
0.882444
0.887776
0.911304
0.931033
0.588234
0.918122
0.976014
0.764932
0.922932
0.876367
0.80659
1.15165
1.18075
1.14969
1.17266
1.09542
1.09544
0.990206
1.06834
1.10239
1.17511
0.737729
1.04365
0.917498
0.948363
0.952595
1.16758
1.01998
1.09336
SCALARS Redistribution_Potential double 1
LOOKUP_TABLE default
-7.2754e-12
-0.42015
0.0895785
-0.123168
-0.189031
-0.459523
-0.20233
0.170325
-0.477046
-0.501819
0.0755898
-0.0523028
-0.0435241
-0.174726
-0.264815
-0.516355
-0.189772
-0.160122
0.294805
0.307439
0.167324
0.00198211
-0.598056
-0.62679
-0.123521
-0.396279
0.0398846
0.0247779
-0.0838341
-0.0411722
-0.515976
-0.319368
-0.207733
-0.380037
-0.11834
0.0494025
-0.0476681
0.0297835
-0.151858
-0.350155
-0.220492
-0.454514
-0.0354117
-0.127563
-0.156338
-0.0993801
-0.105809
-0.0514711
-0.36623
-0.223129
-0.31871
-0.24458
-0.0882953
-0.51986
-0.399197
-0.286734
-0.346603
-0.464537
0.0291911
0.17346
-0.29858
-0.146143
0.29289
0.0943205
0.0104044
0.283801
0.115693
0.321602
0.385183
0.146131
0.267246
0.20192
0.0355563
0.0334133
0.0555629
-0.00724093
-0.0264715
-0.609954
-0.569997
-0.570721
-0.612281
-0.59329
-0.629897
-0.573027
-0.287541
-0.44479
-0.0797535
-0.141557
-0.306189
-0.249766
-0.145219
-0.00180985
-0.0344365
0.0162792
0.0132126
0.106837
0.0477342
0.132375
0.149889
0.0396592
0.0813722
0.186443
-0.132003
-0.0339561
-0.208574
-0.203782
-0.0878142
-0.463286
-0.340605
-0.45234
-0.418487
-0.521795
-0.144397
-0.160965
-0.114458
-0.446868
-0.303315
-0.338399
-0.145511
-0.232642
-0.295067
-0.0741885
-0.103462
-0.0137768
-0.0376225
0.0342385
0.00117474
0.0664952
-0.0889639
-0.13719
0.082649
0.00252343
-0.188389
-0.0766279
-0.0972656
-0.199679
-0.145632
-0.281934
-0.255061
-0.361858
-0.323071
-0.412987
-0.176457
-0.46723
-0.314901
-0.284357
-0.474125
-0.412232
-0.509134
-0.515334
0.0907613
0.0332965
-0.0258351
-0.0287727
0.0873718
0.000227983
-0.383112
-0.288486
-0.198195
-0.572497
-0.551607
-0.591846
-0.0260774
-0.0910196
-0.0814108
-0.0776911
-0.08301
-0.0381439
-0.211871
-0.14326
-0.195911
-0.0735411
-0.0745538
-0.0499389
-0.140984
-0.10025
-0.131597
-0.0494882
-0.077078
-0.0762065
-0.421305
-0.334322
-0.400088
-0.244674
-0.290566
-0.306281
-0.245582
-0.261857
-0.199874
-0.114246
-0.15744
-0.175661
-0.134725
-0.0396797
-0.272172
-0.208548
-0.138952
-0.176838
-0.216407
-0.495327
-0.44871
-0.454731
-0.464981
-0.527078
-0.389817
-0.332219
-0.365011
-0.375575
-0.441185
-0.262543
-0.318366
-0.233647
-0.494186
-0.402885
-0.432144
-0.317926
-0.375152
-0.285992
0.0331571
0.0935654
-0.100811
-0.0247258
0.232876
0.110468
0.155687
-0.352715
-0.290926
-0.147988
-0.217709
-0.221508
-0.221721
-0.163466
0.244384
0.1619
0.0990304
0.205305
0.183544
0.317627
-0.0839483
0.0631562
-0.0584019
-0.0633201
-0.0535006
0.0815708
0.158353
0.0757575
0.322229
0.250901
0.151508
0.20705
0.224
0.267455
0.346817
0.361345
0.397072
0.336769
0.37833
0.370154
0.110073
0.180594
0.130009
0.228105
0.208887
0.163428
0.251686
0.24047
0.296795
0.335686
0.325649
0.284384
0.0289012
0.0975324
0.0678654
0.00619975
-0.00785531
0.0524375
0.075178
0.0230195
0.0470615
0.0168671
0.097752
0.106509
-0.0343396
-0.0350833
-0.0206672
-0.0279728
-0.00958811
-0.0184314
0.000429529
0.0546632
0.0228462
0.0145752
-0.531805
-0.500947
-0.572255
-0.55408
-0.614681
-0.597747
-0.627761
-0.52634
-0.558735
-0.614843
-0.598548
-0.592649
-0.577777
-0.581372
-0.548644
-0.585703
-0.540456
-0.632208
-0.618196
-0.618768
-0.590645
-0.607455
-0.61814
-0.6162
-0.62873
-0.632526
-0.385851
-0.455992
-0.228587
-0.295971
-0.430144
-0.367877
-0.355138
-0.0637312
-0.092621
-0.139269
-0.111565
-0.106115
-0.124677
-0.156531
-0.241968
-0.2256
-0.165865
-0.322793
-0.288342
-0.360325
-0.134436
-0.2027
-0.181764
-0.20023
-0.193433
-0.266662
-0.0267688
-0.0387899
-0.00363764
-0.017187
-0.0110944
-0.0154649
0.00578787
0.0333579
0.0235619
0.0226544
0.0144947
0.0188005
0.0138187
0.00672956
0.101732
0.115001
0.115904
0.0406342
0.0728678
0.0612202
0.0805404
0.0810575
0.0483587
0.0113456
0.0247482
0.0202644
0.12645
0.0640893
0.237864
0.187098
0.00605476
0.0973348
0.0385925
0.130522
0.202734
0.0807317
0.142836
0.0231126
0.254036
0.271923
-0.173439
-0.167829
-0.215383
-0.0395486
-0.111655
-0.0854383
-0.167473
-0.129721
-0.0494862
0.188262
0.0917281
0.0845592
-0.0363731
0.0318868
-0.184599
-0.114268
-0.206201
-0.153086
-0.25685
-0.440929
-0.381977
-0.416834
-0.403357
-0.490674
-0.317894
-0.251243
-0.479244
-0.490919
-0.501479
-0.368906
-0.44764
-0.401579
-0.527083
-0.490294
-0.468022
-0.26814
-0.359129
-0.300761
-0.133017
-0.131812
-0.117097
-0.175863
-0.152611
-0.16899
-0.112428
-0.136762
-0.145719
-0.473714
-0.403357
-0.423999
-0.350759
-0.374277
-0.42118
-0.258806
-0.320952
-0.241885
-0.163134
-0.211918
-0.238148
-0.169369
-0.195527
-0.12977
-0.342545
-0.265995
-0.313104
-0.21359
-0.272996
-0.196968
-0.106457
-0.113457
-0.0878258
-0.0959915
-0.0817527
-0.0890856
-0.062933
-0.0856768
-0.072772
0.0070476
-0.0187244
0.0290394
-0.0788968
-0.0844128
0.0726876
0.0535171
0.0793842
-0.021223
0.0157709
-0.00945567
0.0569339
0.0361142
0.0252566
-0.0528268
-0.0126138
-0.0370475
-0.115555
-0.123852
-0.0690505
-0.0964877
-0.143932
-0.114613
-0.116987
0.0950873
0.059689
0.0153511
0.0396449
0.0599986
0.0145847
-0.0247471
-0.200004
-0.140117
-0.160353
-0.123991
-0.133094
-0.167669
-0.023887
-0.0755209
-0.0240329
-0.0481551
-0.0337248
-0.0821367
-0.142614
-0.135822
-0.181906
-0.165347
-0.172281
-0.169112
-0.212074
-0.242149
-0.241962
-0.306715
-0.279077
-0.31853
-0.225885
-0.199685
-0.439822
-0.399989
-0.452754
-0.278591
-0.34561
-0.290951
-0.386873
-0.373689
-0.345813
-0.226732
-0.288203
-0.252496
-0.142411
-0.182098
-0.158499
-0.152306
-0.185652
-0.474923
-0.42055
-0.381307
-0.402043
-0.458842
-0.340906
-0.251691
-0.40585
-0.483259
-0.233082
-0.30083
-0.462956
-0.376788
-0.378608
-0.214691
-0.285392
-0.203202
-0.307042
-0.401089
-0.361666
-0.365964
-0.416621
-0.516194
-0.561035
-0.544138
-0.487033
-0.446425
-0.519952
-0.46159
-0.49706
-0.552035
-0.565287
-0.457956
-0.51871
-0.466562
0.0937949
0.0747525
0.0799888
0.0950846
0.0503157
-0.0599811
-0.0635182
-0.0530412
0.0137843
0.064106
-0.0548318
0.00468145
-0.0339605
-0.0644735
-0.069689
0.0812479
-0.00279273
0.0365808
-0.121495
0.0192231
-0.055781
-0.0822792
-0.0584695
0.136656
0.0641182
0.126674
0.110109
0.0797346
0.0216257
-0.0256857
0.000351871
0.00939055
0.0233226
0.0446089
0.0326514
-0.0109995
-0.447068
-0.376569
-0.412666
-0.420298
-0.366658
-0.255074
-0.209905
-0.246439
-0.298185
-0.333988
-0.00527331
-0.257074
-0.137905
-0.0454723
-0.133115
-0.334691
-0.259153
-0.312018
-0.54391
-0.521321
-0.534582
-0.585126
-0.609555
-0.512908
-0.555324
-0.53964
-0.516459
-0.514856
-0.526558
-0.613266
-0.589543
-0.545928
-0.557535
-0.560589
-0.578878
-0.595829
SCALARS CoVolArea double 1
LOOKUP_TABLE default
0.0499893
0.0305513
0.0355348
0.0442122
0.0346296
0.0428165
0.0332638
0.0328217
0.0346035
0.0422168
0.0500826
0.0492658
0.0577908
0.0555667
0.0577777
0.0630613
0.0522159
0.0524819
0.0494708
0.0560679
0.0616602
0.0695731
0.0553925
0.054464
0.0722423
0.0671261
0.0636785
0.0747357
0.0732583
0.0830113
0.064442
0.0656372
0.0541271
0.0634808
0.0672658
0.0669919
0.0825856
0.0640737
0.0598528
0.0608517
0.0514338
0.0517077
0.0685534
0.0615153
0.0707309
0.0524634
0.0607696
0.0571312
0.0570612
0.0533216
0.0505964
0.0600132
0.0643513
0.0673055
0.0627701
0.0460413
0.0518554
0.0517824
0.0674556
0.0477601
0.0442046
0.0563153
0.0506365
0.0689875
0.065198
0.0625164
0.0561013
0.0413162
0.0624326
0.0626097
0.0597935
0.0601938
0.0748603
0.0702708
0.0740605
0.0690157
0.057836
0.0616374
0.0594314
0.0615178
0.063306
0.0532813
0.0569344
0.0525577
0.0557368
0.0607356
0.0630049
0.0603555
0.0657697
0.0758154
0.0605676
0.0754621
0.0636489
0.069953
0.0717186
0.0660812
0.0729175
0.0569859
0.0606148
0.0713431
0.0396914
0.0484095
0.0688448
0.0793297
0.0670747
0.0571924
0.0567497
0.046819
0.0543104
0.0625103
0.068334
0.0567306
0.0623935
0.0652586
0.0652667
0.0547776
0.0620769
0.0487681
0.0638868
0.0713753
0.0641097
0.0803566
0.0642292
0.0563168
0.0704978
0.0683192
0.0752902
0.0646268
0.0729199
0.0603847
0.0576232
0.0694294
0.0628224
0.0645336
0.0548861
0.0644846
0.0537303
0.0558909
0.0617774
0.0550474
0.0619598
0.0616609
0.0579852
0.051499
0.0495069
0.049066
0.05261
0.060115
0.0620283
0.0614752
0.0624
0.0588452
0.0731728
0.0625342
0.0590263
0.0754249
0.0706897
0.0684712
0.0804012
0.0563873
0.0623418
0.0626427
0.0622598
0.0656053
0.0666164
0.0615646
0.0589364
0.0619397
0.0645407
0.0617303
0.0628037
0.0562049
0.0557036
0.056694
0.0577716
0.0546999
0.0513828
0.0561094
0.0561275
0.0605159
0.0492218
0.0510832
0.0474535
0.0558239
0.0511674
0.054387
0.0489569
0.0468922
0.052664
0.0670167
0.0624849
0.0648213
0.068927
0.0636448
0.0641994
0.0653221
0.0623422
0.061003
0.0541101
0.0607146
0.0584588
0.0583713
0.0613174
0.0636086
0.0607181
0.0614495
0.0411942
0.0462331
0.0457329
0.0488379
0.0433727
0.0429929
0.0533326
0.0438015
0.0540941
0.067294
0.0619593
0.0597931
0.0605816
0.0579429
0.0661696
0.0676649
0.0448062
0.0543463
0.054339
0.0356661
0.0430405
0.0538486
0.0493087
0.0497097
0.0467209
0.0539485
0.0416806
0.0558775
0.0519215
0.0539467
0.053001
0.0500554
0.0611101
0.0642374
0.0658529
0.0709185
0.0740808
0.073488
0.0517086
0.0550542
0.058593
0.0499596
0.0607031
0.0560709
0.0619429
0.0379214
0.0448028
0.0585931
0.0497861
0.0465591
0.052773
0.0581975
0.0619861
0.0616252
0.0600812
0.0588157
0.0527851
0.0534192
0.0538358
0.0547947
0.0598938
0.0734929
0.0702623
0.0714572
0.0647399
0.0735036
0.0661603
0.0683275
0.0652037
0.0687807
0.070447
0.0731776
0.069733
0.0671639
0.0643053
0.0686841
0.0566962
0.0540703
0.0648335
0.0603093
0.0633829
0.0610147
0.0692479
0.0836646
0.0798027
0.079528
0.0587781
0.0470355
0.0668817
0.0594917
0.0602972
0.0607294
0.0587702
0.0669767
0.0698114
0.0588677
0.06107
0.0528108
0.0670774
0.0668793
0.0529514
0.0543459
0.0530111
0.0529133
0.050765
0.047227
0.0520946
0.0523015
0.0591712
0.0668449
0.0644423
0.0616771
0.0547881
0.0588114
0.0552265
0.049514
0.0618016
0.05459
0.0672328
0.0551253
0.055102
0.0715306
0.0602062
0.069925
0.0525016
0.0572476
0.0517307
0.0657862
0.051936
0.0714856
0.073312
0.0632426
0.065449
0.0718904
0.0779119
0.0636605
0.0729264
0.0702564
0.0600503
0.0554816
0.0721693
0.0670233
0.0742292
0.0698675
0.0788588
0.0729478
0.0710496
0.0700153
0.0676644
0.0654797
0.0679265
0.071346
0.0560631
0.0640098
0.0552982
0.0755838
0.0645322
0.0632299
0.0543772
0.0600734
0.0687631
0.0811688
0.0797458
0.0842229
0.0655146
0.068144
0.0578528
0.0572255
0.0761788
0.0655404
0.0760133
0.0391832
0.0375648
0.0572005
0.0399686
0.0536027
0.0412226
0.0514891
0.05069
0.0659661
0.0530517
0.0840143
0.0769701
0.0770302
0.073606
0.0755688
0.077108
0.0606205
0.0687401
0.0730723
0.0591234
0.0485761
0.0561231
0.0582817
0.0621154
0.0580142
0.0598273
0.0429932
0.0410041
0.0565847
0.0449677
0.0517012
0.049627
0.0535283
0.0524675
0.0606442
0.0526144
0.0634953
0.0630468
0.0612178
0.0604411
0.0617626
0.0684072
0.0616666
0.0669917
0.0657705
0.0548158
0.0627216
0.0552848
0.060892
0.0604135
0.0584745
0.0655694
0.0623733
0.0671549
0.0543728
0.0536432
0.051596
0.0637161
0.0551765
0.0582752
0.0467694
0.0518504
0.0588262
0.05184
0.0612012
0.0521059
0.06722
0.0631282
0.0656189
0.0611614
0.0647768
0.068834
0.0731017
0.0775803
0.0769923
0.0642839
0.055322
0.0748451
0.0699098
0.0757691
0.072992
0.0863561
0.0516644
0.0580173
0.069867
0.0622987
0.0613007
0.0643281
0.0706255
0.0582511
0.0701306
0.0580088
0.0816205
0.0687439
0.0686087
0.0590313
0.0658366
0.0703218
0.0837419
0.0801735
0.0890826
0.063077
0.0610464
0.0783838
0.0697308
0.0600342
0.0648125
0.0680819
0.0504369
0.0607035
0.0675621
0.0619185
0.061365
0.0634183
0.0740912
0.05199
0.0591581
0.0494364
0.0648454
0.0602143
0.0589514
0.0552829
0.0546344
0.0628908
0.0804984
0.0758803
0.0766162
0.0582214
0.0540052
0.0629097
0.0593044
0.0547594
0.0578624
0.0594839
0.0496984
0.0556826
0.0577425
0.0535561
0.0538134
0.0596147
0.0611861
0.0553397
0.0614004
0.0566189
0.055747
0.051149
0.0448629
0.0565061
0.0539308
0.0613174
0.0724348
0.07066
0.0715615
0.0570181
0.0552354
0.0558743
0.0606469
0.0580354
0.0496432
0.0530857
0.0456319
0.0470164
0.0494741
0.048289
0.0515886
0.0494572
0.0500207
0.0501487
0.0462325
0.0534531
0.0497313
0.0484052
0.0590322
0.0542192
0.0588208
0.0594714
0.0606448
0.0571903
0.0594656
0.0620811
0.0562593
0.0591058
0.0529231
0.0555048
0.0645795
0.0657607
0.0635564
0.0610399
0.0574161
0.0581879
0.0684707
0.0679197
0.0664641
0.0658077
0.065728
0.0591822
0.061803
0.065272
0.0565933
0.0633461
0.0559929
0.0552278
0.0647707
0.0609842
0.0750872
0.0715296
0.0710024
0.0700207
0.0685098
0.0702878
0.0710894
0.0574391
0.0621316
0.0539181
0.062689
0.073554
0.0570512
0.0605158
0.0537513
0.0576314
0.0616909
0.0753818
0.0823508
0.0749935
0.0712843
0.0675159
0.0677316
0.0705862
0.0779577
0.062911
0.0665445
0.0597201
0.0613612
0.073435
0.0597005
0.0756717
0.0641162
0.0596534
0.063053
0.0485087
0.0766755
0.0646222
0.0610435
0.0774946
0.0764869
0.0833193
0.084154
0.0539937
0.0574414
0.053244
0.0509521
0.0544901
0.0560631
0.0653992
0.0562185
0.0560813
0.058622
0.0556954
0.0590017
0.0615905
0.0589775
0.0641637
0.0645705
0.0680611
0.0630431
SCALARS SignedDistance double 1
LOOKUP_TABLE default
1.57275
1.80207
1.10259
1.11632
1.4602
1.98561
1.58015
1.79019
1.65599
1.51484
1.73983
1.17954
1.23219
1.49956
1.68961
2.0057
1.44407
1.48143
1.43391
1.38019
1.27718
1.34483
1.70664
1.72504
1.58877
1.70833
1.40785
1.30872
2.07411
1.79357
1.87284
2.04006
1.19426
1.4461
1.16653
1.14938
1.36043
1.27481
1.30388
1.64476
1.38497
1.5486
1.48021
1.42276
1.63538
1.28479
1.28629
1.17151
1.82431
1.56062
1.78062
1.64623
1.49933
1.97703
1.9225
1.60254
1.73056
1.90829
1.46815
1.50027
1.60575
1.38161
1.52898
1.52425
1.64692
1.15123
1.34687
1.55036
1.10636
1.45661
1.23469
1.47849
1.36609
1.5167
1.4671
1.27906
1.28173
1.84087
1.9181
1.81845
1.81137
1.61141
1.68466
1.59846
1.77981
1.89683
1.42253
1.49229
1.56749
1.74005
1.60802
1.27242
1.36086
1.50394
1.38915
1.29936
1.31156
1.28975
1.74918
1.81709
1.93968
1.77699
1.6552
1.9591
1.74106
1.72486
1.92311
1.88321
1.70463
1.82296
1.96079
1.74908
0.488134
1.18198
1.14634
1.48939
1.41522
1.433
1.28901
1.33576
1.44593
1.30311
1.28782
1.30054
1.13958
1.28256
1.29271
1.15461
1.26374
1.233
1.20852
1.25498
1.4673
1.30618
1.50579
1.35831
1.1567
1.60065
1.49033
1.55416
1.54112
1.65404
1.17917
1.57726
1.49039
1.42414
1.51639
1.55299
1.58359
1.73102
1.20917
1.4633
1.42429
1.6604
1.51523
1.59893
1.83029
1.75244
2.09477
1.64632
1.67012
1.80122
1.54655
1.57768
1.58018
1.32439
1.44072
1.32881
1.66015
1.54152
1.5411
1.22467
1.18358
1.1469
1.39133
1.26109
1.37661
1.18544
1.20941
1.23259
1.92417
1.77635
1.90933
1.60093
1.68258
1.73249
1.65355
1.65432
1.53765
1.34283
1.42505
1.47225
1.56452
1.55552
1.74456
1.64248
1.42595
1.54614
1.51993
1.98261
1.9792
1.97401
2.02304
1.99409
1.90076
1.82925
1.72305
1.75307
1.84843
1.57358
1.66081
1.51191
1.97087
1.81248
1.88919
1.77606
1.82419
1.65387
1.57009
1.53727
1.37145
1.4561