# vtk DataFile Version 4.2
vtk output
ASCII
DATASET POLYDATA
POINTS 642 double
-1.90297 4.67008 -0.0535117
1.19691 4.62565 -0.0476637
-1.9174 -0.448433 -0.0264527
1.26684 -0.450601 -0.0232039
-0.330379 0.543017 2.51651
-0.357643 3.6435 2.43389
-0.325446 0.574208 -2.51427
-0.359973 3.71509 -2.59511
2.15398 2.11049 -1.54262
2.18687 2.09232 1.51245
-2.8493 2.15174 -1.59338
-2.87684 2.12716 1.54134
-2.75513 3.62558 0.896153
-1.83395 3.04161 2.37381
-1.24763 4.50483 1.44456
0.543597 4.47106 1.39592
-0.32424 5.09896 -0.0355741
0.569153 4.53344 -1.51082
-1.2764 4.60156 -1.56097
-1.85307 3.07937 -2.48055
-2.78045 3.65526 -0.976888
-3.30799 2.12923 -0.0215332
1.11794 3.01012 2.30548
2.02125 3.55455 0.867554
-1.81582 1.19177 2.37087
-0.337636 2.10684 2.89029
-2.7376 0.620201 -0.942949
-2.74182 0.617757 0.899538
-0.352381 2.15757 -2.93659
-1.79161 1.22565 -2.37543
1.98853 3.57167 -0.914383
1.10575 3.03261 -2.37039
2.13261 0.606058 0.906827
1.15457 1.18645 2.3611
0.610582 -0.319009 1.47873
-1.26779 -0.329137 1.47767
-0.327723 -0.872483 -0.0280306
-1.25338 -0.300415 -1.51309
0.601894 -0.299072 -1.51913
1.13358 1.20024 -2.38303
2.11764 0.614076 -0.95147
2.65546 2.08648 -0.0251505
-2.39283 4.23658 0.435017
-2.09625 4.17041 1.23009
-1.62577 4.67717 0.716975
-2.43836 2.60481 2.04186
-2.39098 3.40033 1.72802
-2.92006 2.90431 1.26928
-0.805745 4.14207 2.03417
-1.61047 3.86553 2.0111
-1.0911 3.41266 2.51157
-0.817961 4.93673 0.728604
-1.16462 4.98022 -0.0455104
0.10868 4.11599 1.97569
-0.337986 4.60591 1.484
0.463331 4.98344 -0.0415541
0.142459 4.92609 0.72701
0.913253 4.65437 0.706824
-0.830124 4.97107 -0.830978
-1.65911 4.75025 -0.838463
0.949017 4.67895 -0.776857
0.1393 4.964 -0.818884
-0.81497 4.23287 -2.18402
-0.363754 4.66886 -1.61753
0.115448 4.17906 -2.12852
-2.12716 4.22904 -1.3298
-2.41566 4.27042 -0.520013
-1.13163 3.45637 -2.65668
-1.62933 3.92918 -2.13222
-2.92824 2.9296 -1.34413
-2.42454 3.43331 -1.82492
-2.4416 2.63435 -2.11574
-2.87733 3.70927 -0.034565
-3.18089 2.13658 -0.834282
-3.16903 2.925 -0.521589
-3.17699 2.91172 0.458347
-3.20401 2.13254 0.812938
1.3622 4.10175 1.1901
1.64422 4.16154 0.4123
0.416099 3.35453 2.45498
0.896719 3.80255 1.93237
2.19883 2.86572 1.23523
1.66601 3.34667 1.66117
1.72914 2.57212 1.9954
-1.11638 2.6079 2.77565
-0.355452 2.90714 2.76023
-2.44139 1.66273 2.03109
-1.90843 2.12361 2.48982
-0.32562 1.28568 2.80025
-1.11295 1.63553 2.75699
-1.08869 0.805249 2.54996
-3.15941 1.3432 0.458923
-2.90592 1.37215 1.27859
-2.87471 1.35815 -1.29612
-3.15437 1.34389 -0.50591
-2.41429 0.00153933 0.458521
-2.87012 0.544942 -0.0302906
-2.41537 0.00597667 -0.507453
-1.89331 2.15387 -2.56471
-2.39126 1.67682 -2.06085
-0.352133 2.98428 -2.90424
-1.13005 2.64513 -2.88822
-1.06712 0.835606 -2.54266
-1.10623 1.67856 -2.79241
-0.326801 1.30714 -2.80911
0.896154 3.86364 -2.04689
0.387157 3.41909 -2.55991
1.67555 4.18381 -0.506874
1.37442 4.14595 -1.27204
1.69621 2.57941 -2.02739
1.64413 3.36144 -1.72401
2.17413 2.86041 -1.2793
1.777 -0.022034 0.447536
1.45144 0.0320177 1.2477
1.0031 -0.488508 0.738495
1.75621 1.6218 2.01403
1.74932 0.839262 1.73109
2.2718 1.3171 1.26813
0.141355 0.0448418 2.0954
0.943828 0.345868 2.02547
0.426561 0.81805 2.53502
0.164875 -0.738466 0.763812
0.526714 -0.768519 -0.0255919
-0.816803 0.0236351 2.08114
-0.328772 -0.4464 1.56231
-1.15825 -0.776863 -0.0257853
-0.822068 -0.745804 0.772705
-1.64482 -0.487692 0.763615
0.163281 -0.730176 -0.815802
0.981101 -0.475364 -0.800668
-1.6462 -0.48084 -0.787953
-0.824276 -0.731738 -0.806584
0.14052 0.0718373 -2.11534
-0.333796 -0.42235 -1.59026
-0.795114 0.0668906 -2.12197
1.43808 0.0483296 -1.2852
1.77134 -0.0152356 -0.498469
0.433685 0.8381 -2.54081
0.936595 0.377204 -2.05874
2.25074 1.3224 -1.30381
1.72178 0.856181 -1.75807
1.7245 1.6299 -2.03838
2.25928 0.528563 -0.0261976
2.51526 2.09007 -0.818752
2.54453 1.32585 -0.508607
2.55127 1.30963 0.46421
2.5237 2.10079 0.79633
0.442319 1.62282 2.76529
1.21427 2.11319 2.45694
0.431923 2.57595 2.73856
-2.10708 0.0367226 1.26145
-1.61367 0.342391 2.04403
-2.38865 0.83724 1.73937
-1.58749 0.371434 -2.05691
-2.09225 0.0576688 -1.29609
-2.35624 0.861579 -1.74139
1.18817 2.1184 -2.47403
0.425324 1.64085 -2.77312
0.410932 2.61632 -2.76876
2.46183 2.86912 0.446936
2.44023 2.8718 -0.49181
2.13218 3.63391 -0.0261099
-2.15315 4.47749 0.184466
-2.04217 4.47674 0.594635
-1.77838 4.68986 0.32261
-2.45368 3.91944 1.0744
-2.26342 4.22059 0.851742
-2.60693 3.9356 0.675417
-1.45009 4.61681 1.08851
-1.87862 4.4445 0.992892
-1.67937 4.36895 1.36093
-2.68093 2.36976 1.81234
-2.70727 2.76906 1.68455
-2.92608 2.52136 1.41944
-2.12553 3.23636 2.08403
-2.44078 3.00857 1.90372
-2.1565 2.8279 2.22869
-2.86338 3.27485 1.09132
-2.67971 3.16504 1.51873
-2.60902 3.52128 1.32553
-0.569474 3.89924 2.2637
-0.982072 3.79989 2.29988
-0.70689 3.54801 2.49466
-1.44953 4.21232 1.74915
-1.2161 4.03155 2.04143
-1.05198 4.35353 1.74983
-1.46098 3.24557 2.47269
-1.37578 3.64943 2.28688
-1.72954 3.47459 2.22392
-2.27516 3.80463 1.49754
-2.01566 3.65755 1.89737
-1.87516 4.04319 1.64497
-1.39026 4.86081 0.345504
-1.54359 4.84929 -0.0608626
-1.03289 4.74037 1.10205
-1.22756 4.82562 0.735405
-0.751847 5.06708 -0.0363004
-0.987275 4.98889 0.348653
-0.566309 5.05442 0.354659
-0.125937 3.89412 2.22594
-0.347303 4.15806 2.02734
0.108085 4.57376 1.45886
-0.10783 4.3829 1.7461
0.337964 4.31337 1.69275
-0.581625 4.39786 1.77132
-0.810122 4.58669 1.4855
0.870962 4.81472 -0.0401411
0.707221 4.85587 0.342335
1.07831 4.65797 0.314365
-0.0967901 5.05841 0.347456
0.315651 4.98235 0.349118
0.0676241 5.07388 -0.0422885
0.74956 4.58296 1.04702
0.539782 4.82224 0.723107
0.358319 4.72593 1.08052
-0.587979 4.81312 1.12564
-0.0949304 4.80093 1.12276
-0.344585 4.97905 0.737133
-1.41796 4.90721 -0.450002
-1.80102 4.73551 -0.456178
-0.569746 5.06845 -0.43065
-1.01011 5.00722 -0.447842
-1.48292 4.70888 -1.19284
-1.26778 4.89927 -0.852059
-1.07198 4.82941 -1.2173
1.08392 4.68424 -0.423914
0.725933 4.86284 -0.421854
0.365498 4.78189 -1.18116
0.555865 4.84738 -0.813858
0.76102 4.63333 -1.17292
0.317344 5.00065 -0.426158
-0.0939789 5.07212 -0.43591
-0.576386 3.98252 -2.42216
-0.366779 4.24558 -2.1817
-0.129778 3.9565 -2.39363
-0.834941 4.67071 -1.61958
-0.594685 4.48734 -1.91624
-1.06884 4.44313 -1.88539
0.356278 4.37339 -1.83291
-0.121908 4.45529 -1.88809
0.133554 4.62914 -1.56953
-0.345292 5.00377 -0.834041
-0.0886215 4.85103 -1.21975
-0.609605 4.85716 -1.24232
-2.06406 4.53949 -0.69081
-2.18942 4.48527 -0.301735
-1.71208 4.44984 -1.46577
-1.90878 4.51767 -1.09486
-2.62067 3.98845 -0.753081
-2.30461 4.26715 -0.942225
-2.48536 3.96479 -1.16564
-0.74937 3.60487 -2.65769
-0.981222 3.87438 -2.45014
-1.76181 3.51856 -2.3369
-1.38337 3.70928 -2.4197
-1.50259 3.27777 -2.59364
-1.23297 4.10949 -2.17787
-1.47123 4.2885 -1.87111
-2.91369 2.52001 -1.49357
-2.71906 2.78987 -1.75285
-2.68395 2.3791 -1.85764
-2.63525 3.55489 -1.41603
-2.70734 3.19151 -1.60278
-2.88187 3.29937 -1.17368
-2.17399 2.85604 -2.31913
-2.45904 3.04296 -1.99302
-2.15818 3.27123 -2.18787
-1.90202 4.10245 -1.75493
-2.05173 3.70134 -2.00624
-2.30407 3.8494 -1.59777
-2.43493 4.26418 -0.0466902
-2.85454 3.70011 -0.517606
-2.67283 4.00314 -0.286299
-2.67021 3.98033 0.203342
-2.84652 3.68354 0.445425
-3.03737 2.14572 -1.22177
-3.08338 2.54149 -1.1034
-3.26979 2.52863 -0.273618
-3.20457 2.53732 -0.689085
-3.27055 2.13069 -0.432767
-3.07915 2.93704 -0.945492
-3.00811 3.29657 -0.765882
-3.10142 2.52422 1.04782
-3.07292 2.12738 1.17495
-2.99723 3.2928 0.690147
-3.07679 2.91771 0.872776
-3.28719 2.13284 0.403021
-3.22164 2.52291 0.630555
-3.28226 2.52651 0.21934
-3.06025 3.32695 -0.2863
-3.21111 2.92938 -0.0274043
-3.06264 3.32254 0.215304
1.30656 4.42427 0.56879
1.4399 4.41765 0.183974
0.965288 4.30173 1.30473
1.14483 4.38973 0.951535
1.84977 3.86957 0.645444
1.52671 4.14634 0.82011
1.71 3.84383 1.04224
0.0282117 3.50891 2.45955
0.271817 3.75321 2.23672
1.02078 3.41632 2.1574
0.668576 3.58992 2.2135
0.778576 3.19012 2.40689
0.516594 3.9749 1.96733
0.730294 4.15494 1.6863
2.21016 2.47319 1.3945
1.99326 2.72564 1.63878
1.9866 2.33457 1.75771
1.87617 3.46597 1.28435
1.95303 3.11828 1.4635
2.1328 3.22438 1.06175
1.45172 2.79172 2.16081
1.72153 2.96236 1.85176
1.41081 3.18639 2.01126
1.15094 3.97911 1.58792
1.29893 3.59615 1.82208
1.54251 3.74497 1.45046
-0.7317 3.17332 2.67268
-0.358898 3.28888 2.6218
-1.48364 2.83773 2.60849
-1.13133 3.00878 2.67347
-0.339571 2.53364 2.84733
-0.747439 2.76261 2.80127
-0.730363 2.36515 2.85908
-2.67642 1.88208 1.8102
-2.45903 2.13114 2.07226
-1.8846 1.65631 2.45365
-2.18453 1.89122 2.29256
-2.14072 1.40978 2.22053
-2.18627 2.37178 2.29603
-1.89283 2.58748 2.46299
-0.331169 0.886297 2.67688
-0.722589 1.0296 2.7038
-0.697805 0.655465 2.56022
-0.728897 1.87037 2.86119
-0.715792 1.46277 2.80837
-0.331659 1.70057 2.87592
-1.46404 0.979116 2.49243
-1.11652 1.20405 2.66488
-1.47849 1.40771 2.59563
-1.52999 2.36505 2.6707
-1.51846 1.88848 2.66864
-1.13508 2.12177 2.81055
-3.0934 1.74035 1.04797
-2.91814 1.73262 1.41714
-3.27381 1.73859 0.217578
-3.21074 1.73513 0.629775
-2.84967 0.990017 1.1023
-3.05865 1.33715 0.87171
-2.98343 0.967296 0.68863
-2.88054 1.74917 -1.45215
-3.06272 1.74084 -1.08036
-2.97189 0.970522 -0.729022
-3.04314 1.34428 -0.912597
-2.82437 0.97773 -1.12494
-3.19486 1.73402 -0.6763
-3.26328 1.73194 -0.27026
-2.16998 -0.264706 0.203107
-2.44056 -0.0261695 -0.025198
-2.16966 -0.261497 -0.255525
-2.83082 0.559219 0.438913
-2.66996 0.252147 0.215715
-2.60188 0.290112 0.688125
-2.60014 0.285471 -0.730958
-2.66879 0.254935 -0.270666
-2.83959 0.563042 -0.499459
-3.19478 1.33179 -0.0263903
-3.04703 0.929056 -0.272612
-3.0442 0.92751 0.218026
-2.44474 2.15368 -2.12334
-2.64394 1.91216 -1.84528
-1.89079 2.62358 -2.5594
-2.18787 2.39678 -2.36438
-2.11416 1.45674 -2.23936
-2.16512 1.91718 -2.33812
-1.85777 1.69229 -2.50022
-0.361525 3.34976 -2.78701
-0.737095 3.22443 -2.83325
-0.749195 2.41053 -2.96149
-0.739834 2.814 -2.93561
-0.367962 2.57196 -2.95771
-1.13176 3.05671 -2.81406
[...]
POINT_DATA 642
SCALARS Mean_Curvature double 1
LOOKUP_TABLE default
0.686161
0.799415
0.730789
0.676988
0.800072
0.750948
0.658098
0.80648
0.585929
0.631678
0.67408
0.689966
0.699364
0.705799
0.641795
0.679743
0.662274
0.737299
0.759073
0.693457
0.76825
0.649158
0.611895
0.733709
0.483002
0.613193
0.720885
0.564839
0.47184
0.426423
0.449497
0.772465
0.69614
0.635879
0.696935
0.665182
0.547331
0.644168
0.705098
0.693477
0.695127
0.796111
0.653645
0.694063
0.615808
0.692493
0.685536
0.675791
0.66451
0.730104
0.707353
0.711452
0.574441
0.492391
0.563481
0.787182
0.655251
0.803647
0.490017
0.819601
0.652093
0.747384
0.786254
0.534939
0.527453
0.658554
0.71722
0.736156
0.684836
0.739009
0.731605
0.67369
0.629081
0.570815
0.598508
0.651432
0.737028
0.692305
0.425945
0.652282
0.564444
0.727951
0.586984
0.729436
0.753574
0.507169
0.691503
0.66111
0.609549
0.450397
0.766744
0.612353
0.624305
0.58286
0.693552
0.614907
0.652895
0.669352
0.738639
0.416933
0.874199
0.797859
0.604743
0.403887
0.622924
0.72063
0.496801
0.838891
0.635275
0.671184
0.551799
0.715262
0.706224
0.662831
0.695252
0.634845
0.72863
0.743686
0.664096
0.651361
0.668
0.631947
0.716366
0.639317
0.722396
0.65799
0.682733
0.639117
0.692896
0.633878
0.74938
0.607112
0.668603
0.650582
0.742258
0.652542
0.707688
0.642566
0.674818
0.842748
0.647193
0.650099
0.682239
0.645897
0.750552
0.779248
0.612486
0.653004
0.629475
0.735474
0.755457
0.669719
0.753048
0.681993
0.747344
0.53233
0.578187
0.618398
0.341188
0.710096
0.577989
0.714406
0.547304
0.651861
0.515932
0.680672
0.676614
0.660384
0.646345
0.685335
0.662749
0.690607
0.719573
0.68583
0.68187
0.687004
0.696136
0.669336
0.703021
0.67401
0.681693
0.771896
0.696269
0.73105
0.676078
0.734572
0.683822
0.735087
0.68949
0.68608
0.677128
0.709602
0.530823
0.54957
0.50187
0.560971
0.628656
0.684928
0.665087
0.590449
0.656837
0.795543
0.525418
0.491244
0.627799
0.699584
0.661523
0.804881
0.643494
0.787024
0.653651
0.763115
0.608026
0.809453
0.658223
0.730182
0.65327
0.796131
0.793262
0.750053
0.58711
0.550295
0.749892
0.916361
0.842098
0.850399
0.689284
0.747501
0.649442
0.759511
0.676901
0.758955
0.779114
0.783555
0.691957
0.81849
0.792483
0.774387
0.603545
0.550687
0.60872
0.669999
0.611538
0.507141
0.7859
0.67601
0.692831
0.70792
0.759262
0.752072
0.723362
0.771264
0.769997
0.648871
0.645531
0.671072
0.697841
0.66301
0.742725
0.706073
0.731335
0.655428
0.815471
0.718588
0.72336
0.71469
0.777258
0.644441
0.704807
0.64314
0.60328
0.616826
0.659469
0.60284
0.690628
0.481756
0.62052
0.579296
0.606345
0.598728
0.777365
0.667255
0.73225
0.678993
0.703889
0.659065
0.717183
0.627035
0.707641
0.547772
0.68953
0.618826
0.525413
0.789987
0.431097
0.529994
0.52332
0.645888
0.54628
0.562659
0.500887
0.7639
0.55322
0.718829
0.512633
0.656592
0.580263
0.731268
0.587652
0.755817
0.586424
0.73151
0.605345
0.744664
0.597931
0.747453
0.587426
0.784006
0.698098
0.626628
0.678879
0.775836
0.539088
0.764977
0.584465
0.681514
0.71719
0.614437
0.690592
0.566418
0.694049
0.681325
0.682176
0.699408
0.81066
0.556661
0.544252
0.699846
0.851767
0.435877
0.497969
0.681648
0.669553
0.797459
0.731908
0.675721
0.691456
0.580862
0.626302
0.582642
0.662653
0.556029
0.625181
0.572793
0.663604
0.577328
0.661581
0.632758
0.717665
0.639052
0.741833
0.540543
0.750587
0.675029
0.789578
0.677148
0.738035
0.627772
0.670334
0.587848
0.729815
0.554077
0.717754
0.6811
0.481775
0.686274
0.697192
0.825852
0.849922
0.829598
0.851312
0.832587
0.868758
0.687642
0.634241
0.624505
0.679226
0.376675
0.589025
0.505172
0.523362
0.562019
0.466404
0.692519
0.824318
0.714135
0.52268
0.765502
0.630287
0.671737
0.585051
0.640782
0.575453
0.844
0.661156
0.788213
0.646321
0.718252
0.636126
0.768307
0.60239
0.694347
0.595499
0.736151
0.491384
0.570876
0.552141
0.646764
0.46869
0.778248
0.613452
0.745385
0.714957
0.665872
0.717669
0.683201
0.706162
0.68398
0.686443
0.648892
0.676831
0.643673
0.696293
0.781498
0.648645
0.699687
0.593897
0.742803
0.728892
0.717218
0.727624
0.630954
0.669543
0.652424
0.677346
0.630933
0.631296
0.650054
0.63572
0.686834
0.680939
0.644001
0.730466
0.676589
0.697394
0.627845
0.597367
0.61298
0.594775
0.680063
0.731346
0.607253
0.713045
0.601953
0.713522
0.606154
0.72404
0.589755
0.695777
0.542794
0.700707
0.644032
0.750682
0.687951
0.749608
0.582731
0.713049
0.598824
0.712555
0.67746
0.627185
0.606661
0.679685
0.619905
0.700135
0.661781
0.751164
0.623287
0.676789
0.615198
0.716179
0.669209
0.656584
0.664815
0.677066
0.656195
0.677542
0.687676
0.728353
0.685805
0.725904
0.631951
0.731245
0.595058
0.720119
0.676495
0.667162
0.645726
0.701596
0.69521
0.700979
0.660913
0.657539
0.699728
0.672037
0.68445
0.704499
0.685514
0.575938
0.684865
0.584082
0.718464
0.744999
0.734688
0.58969
0.696635
0.661073
0.648274
0.637885
0.663763
0.706184
0.692469
0.694036
0.681953
0.688753
0.65279
0.687667
0.868346
0.740993
0.685414
0.766278
0.715887
0.733569
0.679024
0.691864
0.729439
0.657376
0.81281
0.770958
0.689309
0.757739
0.663289
0.59797
0.677853
0.640384
0.713349
0.612639
0.686135
0.619151
0.724354
0.60933
0.685663
0.507719
0.674166
0.563679
0.686932
0.620065
0.718892
0.64138
0.739353
0.745071
0.64679
0.748644
0.652518
0.775048
0.649173
0.857624
0.710295
0.741631
0.661343
0.677901
0.630973
0.58666
0.516225
0.644581
0.647959
0.79894
0.675533
0.756753
0.658445
0.738053
0.744488
0.808659
0.666101
0.782864
0.683814
0.747872
0.621458
0.60608
0.510916
0.60397
0.579083
0.62992
0.635321
0.76309
0.691559
0.602949
0.681916
0.605488
0.66763
0.509077
0.665591
0.562377
0.626135
0.621384
0.660272
0.824401
0.534612
0.598242
0.843572
0.318938
0.660157
0.550366
0.608485
0.566284
0.640975
0.552417
0.716573
0.565
0.701296
0.572723
0.731158
0.556321
0.646924
0.541829
0.73027
0.481233
0.542787
0.525114
0.738932
0.574094
0.754983
SCALARS Redistribution_Potential double 1
LOOKUP_TABLE default
-5.65597e-12
-1.09417
0.739934
0.335347
0.183935
-0.770619
0.0103428
-0.186377
-0.736926
-0.719865
0.475772
0.366475
0.202127
-0.13544
-0.462657
-1.05786
-0.575504
-0.652865
0.0883747
0.317151
0.442996
0.547729
-0.93847
-1.16993
0.332269
-0.356756
0.612637
0.688007
-0.140429
0.32181
-1.02446
-0.688457
-0.0505569
-0.258686
0.415077
0.693585
0.65753
0.510432
0.227923
-0.377533
-0.147846
-0.721163
0.102172
-0.0992061
-0.228233
0.146664
0.0394753
0.288413
-0.657378
-0.32364
-0.47802
-0.538046
-0.259123
-0.928075
-0.792411
-0.868031
-0.873922
-1.10753
-0.19887
0.0772752
-0.896384
-0.597099
-0.0161108
-0.244147
-0.388441
0.331144
0.260351
0.116577
0.273558
0.494474
0.445651
0.417317
0.353312
0.544029
0.503635
0.427544
0.479644
-1.18802
-1.16386
-0.905464
-1.07362
-1.0064
-1.0956
-0.88051
-0.288001
-0.589034
0.346085
0.0881893
-0.0816497
0.0212405
0.262737
0.620388
0.536718
0.539003
0.603962
0.756325
0.698305
0.702014
0.285115
0.423469
-0.178905
0.0879157
0.150296
0.108271
-0.106959
-0.698156
-0.45178
-1.11502
-0.931807
-0.782149
-0.882947
-0.934674
0.192492
0.219638
0.416226
-0.496855
-0.139646
-0.377446
0.323184
0.126582
-0.0303891
0.6021
0.508871
0.491231
0.579515
0.731312
0.726444
0.769688
0.486365
0.316855
0.665623
0.622985
0.104733
0.386007
0.262133
0.069231
0.132063
-0.185605
-0.0772934
-0.465307
-0.282785
-0.559367
-0.0469284
-0.736108
-0.411308
-0.368864
-0.712559
-0.351391
-0.640651
-0.691333
0.723334
0.550979
0.553191
0.380703
0.589045
0.492525
-0.5732
-0.327149
-0.380252
-0.996526
-0.958804
-1.1388
0.0525876
-0.0548661
-0.105289
0.0632075
-0.000520995
0.157702
-0.345584
-0.170153
-0.280946
0.26512
0.216614
0.326964
-0.0509753
0.0922975
0.0141522
0.247999
0.169863
0.127566
-0.729748
-0.57641
-0.639117
-0.401174
-0.496467
-0.565487
-0.309568
-0.404454
-0.236616
-0.0243893
-0.131618
-0.20854
-0.250498
-0.122268
-0.499308
-0.379151
-0.412779
-0.407954
-0.562423
-0.858759
-0.810898
-0.946851
-0.877191
-0.999441
-0.730979
-0.635982
-0.997037
-1.01095
-1.09915
-0.738042
-0.879096
-0.727197
-1.08417
-1.01106
-0.984973
-0.677459
-0.842075
-0.713025
-0.0901422
0.0413532
-0.391055
-0.224252
0.0938105
-0.0502665
-0.0417154
-1.00609
-0.884394
-0.622795
-0.75342
-0.775648
-0.738876
-0.584102
-0.100306
-0.19764
-0.280608
-0.065705
-0.125864
0.0547839
-0.518763
-0.314581
-0.459583
-0.394427
-0.420283
-0.200586
0.178868
0.144582
0.224102
0.216608
0.365813
0.30773
0.398175
-0.0254517
0.0618764
0.313436
0.203282
0.231751
0.142826
0.201497
0.485555
0.46807
0.447011
0.463453
0.475818
0.483999
0.37475
0.43988
0.39529
0.329017
0.38273
0.416845
0.190417
0.410005
0.310939
0.242126
0.280051
0.522637
0.512938
0.527367
0.526836
0.553943
0.501119
0.479094
0.392852
0.432801
0.324555
0.361977
0.519469
0.454268
0.494674
0.455851
0.476732
0.399793
-1.15251
-1.15705
-1.11919
-1.15075
-1.17813
-1.19104
-1.18474
-0.839438
-0.929874
-1.03754
-0.996479
-0.943679
-1.01332
-1.08782
-0.862194
-0.952304
-0.803765
-1.15391
-1.06451
-1.10946
-0.916215
-1.00758
-1.02466
-1.154
-1.10327
-1.17662
-0.553977
-0.693865
-0.219022
-0.385836
-0.485794
-0.448036
-0.330076
0.35731
0.240895
0.211119
0.220832
0.344114
0.109258
-0.0264396
0.0563612
0.0950789
0.219752
-0.17066
-0.04006
-0.226901
0.299282
0.154878
0.185746
-0.0864704
0.04565
-0.140234
0.507766
0.457445
0.577279
0.556004
0.61646
0.590662
0.65262
0.508121
0.541538
0.619879
0.573588
0.576781
0.566566
0.585327
0.755603
0.741188
0.728432
0.712546
0.729669
0.731041
0.657697
0.706813
0.662934
0.630727
0.65518
0.676736
0.403812
0.453182
0.300886
0.357595
0.374643
0.350545
0.288645
-0.177363
-0.0320315
-0.041156
-0.0421154
-0.165198
0.104607
0.213132
0.0717908
0.0223586
-0.0591148
0.224276
0.117641
0.243604
-0.128314
-0.00599842
-0.0205731
0.203943
0.0812322
0.19909
-0.431536
-0.328727
-0.678001
-0.558213
-0.57941
-0.580787
-0.697663
-1.11554
-1.02704
-1.0187
-1.03122
-1.0875
-0.918627
-0.815078
-0.774614
-0.867854
-0.839225
-0.800573
-0.838004
-0.746422
-0.980268
-0.928783
-0.957229
-0.823559
-0.91499
-0.820148
0.274558
0.313226
0.382867
0.0961171
0.211183
0.0854907
0.426774
0.330357
0.322088
-0.611784
-0.444794
-0.554479
-0.201604
-0.317688
-0.384625
-0.204554
-0.260053
-0.0820242
0.254716
0.159229
0.0827133
0.287208
0.225052
0.384799
-0.145755
0.0485829
-0.0670516
0.0628962
0.000228268
0.188909
0.477296
0.431493
0.521638
0.514891
0.588387
0.568373
0.641959
0.350267
0.406051
0.646714
0.538772
0.607672
0.462595
0.508442
0.742031
0.764939
0.764263
0.710499
0.739631
0.702268
0.742398
0.756894
0.719976
0.614621
0.675916
0.681682
0.423455
0.336271
0.583128
0.511921
0.278335
0.405994
0.365815
0.714483
0.702569
0.573827
0.645326
0.600184
0.681274
0.651201
0.0480689
0.190492
0.13165
0.311602
0.247838
0.172696
0.388147
0.327346
0.446631
0.569377
0.515861
0.453621
0.226247
0.24099
0.150882
0.198039
0.00275791
0.104123
-0.0363399
-0.0879121
-0.0477928
-0.23289
-0.145481
-0.284735
0.0126663
0.083932
-0.617243
-0.525534
-0.652566
-0.213358
-0.377465
-0.305097
-0.471207
-0.434187
-0.34121
0.00498953
-0.17157
-0.0959044
0.170584
-0.0816338
0.0489048
0.0818466
-0.0350856
-0.743361
-0.60505
-0.56444
-0.586469
-0.728057
-0.439708
-0.267518
-0.552848
-0.716564
-0.20286
-0.367911
-0.7143
-0.543232
-0.551269
-0.210943
-0.377581
-0.186954
-0.0697085
-0.31382
-0.198379
-0.22487
-0.37159
-0.700925
-0.803876
-0.768889
-0.580459
-0.455853
-0.75777
-0.532184
-0.652737
-0.814972
-0.825688
-0.498762
-0.675091
-0.529785
0.766756
0.722285
0.753889
0.751255
0.709006
0.386018
0.439449
0.419913
0.521556
0.636404
0.453404
0.636228
0.550966
0.461994
0.451048
0.664715
0.563066
0.661057
0.192871
0.443834
0.319378
0.266076
0.329759
0.692527
0.606034
0.65408
0.630053
0.562318
0.479255
0.410796
0.446269
0.518186
0.556144
0.504241
0.535409
0.446867
-0.685146
-0.491797
-0.58741
-0.685784
-0.633883
-0.166163
-0.241934
-0.219775
-0.273542
-0.374617
-0.318417
-0.539578
-0.435306
-0.294426
-0.243778
-0.452667
-0.363172
-0.503211
-0.866408
-0.861572
-0.863381
-1.00709
-1.09513
-0.861905
-1.01514
-0.957695
-0.856614
-0.858913
-1.14726
-1.16374
-1.15676
-1.1311
-1.08308
-0.986177
-1.05315
-1.09569
SCALARS CoVolArea double 1
LOOKUP_TABLE default
0.134133
0.123694
0.126145
0.134701
0.125175
0.123703
0.120614
0.129944
0.123049
0.133141
0.13227
0.139231
0.174814
0.179785
0.173629
0.171417
0.173516
0.172243
0.180647
0.180545
0.1828
0.179428
0.169092
0.170325
0.179279
0.176927
0.175871
0.182545
0.177159
0.180218
0.174563
0.170238
0.180876
0.177618
0.181451
0.182518
0.185327
0.182661
0.177435
0.173941
0.178091
0.172786
0.175009
0.186128
0.171699
0.16662
0.187829
0.170102
0.167809
0.182467
0.165526
0.182528
0.168817
0.16495
0.182071
0.167125
0.182372
0.162754
0.19125
0.165876
0.164678
0.185453
0.172198
0.193399
0.173295
0.193711
0.167638
0.171713
0.193791
0.171942
0.191079
0.171173
0.192211
0.170993
0.188931
0.188567
0.166233
0.178589
0.165117
0.162835
0.177246
0.16505
0.178533
0.163303
0.181292
0.164313
0.171118
0.183311
0.168912
0.18803
0.168136
0.189633
0.168372
0.169812
0.185773
0.175413
0.188272
0.172394
0.183148
0.168149
0.158955
0.183789
0.168952
0.188423
0.166621
0.180054
0.165604
0.158502
0.180561
0.165306
0.1831
0.162
0.175241
0.188922
0.173434
0.1645
0.188076
0.168141
0.173324
0.191324
0.172557
0.193057
0.168781
0.170754
0.190169
0.175535
0.189907
0.174331
0.190024
0.169798
0.169514
0.188555
0.171986
0.186925
0.166866
0.188376
0.170045
0.163471
0.184963
0.169014
0.186371
0.167655
0.189003
0.163697
0.187763
0.188339
0.167577
0.180462
0.184531
0.180104
0.188047
0.189806
0.188552
0.184778
0.184876
0.18562
0.182484
0.180111
0.186861
0.180745
0.183764
0.179097
0.164782
0.171125
0.165377
0.183229
0.170634
0.170833
0.170751
0.171949
0.18528
0.16725
0.170756
0.167267
0.18496
0.171444
0.165978
0.167782
0.17161
0.183467
0.154051
0.166102
0.153417
0.180615
0.169042
0.16567
0.166621
0.166113
0.180867
0.205802
0.203558
0.204441
0.170287
0.1647
0.181252
0.170235
0.173063
0.169894
0.179349
0.157534
0.163151
0.173079
0.164437
0.161053
0.16984
0.179386
0.158401
0.165719
0.157319
0.178071
0.165209
0.162486
0.160846
0.160845
0.17579
0.202188
0.200426
0.201163
0.169203
0.165471
0.187931
0.176822
0.168492
0.170462
0.184373
0.152013
0.165237
0.179105
0.172005
0.167632
0.169459
0.180983
0.160187
0.170255
0.162397
0.183076
0.171074
0.172521
0.171019
0.176533
0.187411
0.20734
0.210334
0.211201
0.169088
0.162779
0.193543
0.174939
0.172201
0.17442
0.18902
0.163751
0.173053
0.189376
0.177544
0.172228
0.178006
0.190734
0.164643
0.173914
0.16354
0.188279
0.172728
0.16838
0.169081
0.173255
0.188001
0.214976
0.212095
0.21305
0.172511
0.191068
0.174982
0.175961
0.184454
0.167514
0.17317
0.186907
0.173423
0.168928
0.170961
0.186565
0.168521
0.162492
0.185584
0.172396
0.169308
0.171167
0.185405
0.211389
0.208356
0.210731
0.165366
0.154621
0.179631
0.165177
0.166669
0.166775
0.177064
0.161754
0.169017
0.174116
0.165061
0.156783
0.167266
0.176294
0.162435
0.166505
0.162263
0.173322
0.164695
0.159099
0.161817
0.165336
0.178048
0.194479
0.194898
0.193657
0.165074
0.157547
0.184034
0.165503
0.165235
0.16363
0.182524
0.164009
0.168487
0.186353
0.170601
0.172628
0.166454
0.182907
0.15695
0.168964
0.160682
0.183691
0.174101
0.166457
0.168725
0.172166
0.18749
0.204591
0.205135
0.204203
0.167962
0.162388
0.186125
0.173806
0.173925
0.174296
0.188994
0.16876
0.171033
0.183412
0.170551
0.16744
0.170369
0.183722
0.164757
0.176345
0.165865
0.187282
0.173529
0.169941
0.167104
0.172517
0.184681
0.207884
0.206458
0.209303
0.17129
0.16485
0.184716
0.170922
0.169658
0.170263
0.183671
0.15921
0.166436
0.177668
0.165608
0.163026
0.172146
0.184838
0.154624
0.166935
0.155604
0.18722
0.173021
0.170664
0.169424
0.172612
0.184261
0.203197
0.204056
0.203237
0.168511
0.161235
0.17844
0.16872
0.165734
0.168454
0.177314
0.155016
0.160247
0.174841
0.1617
0.158521
0.170069
0.178678
0.156385
0.165203
0.157588
0.176632
0.166944
0.161327
0.164048
0.165908
0.181381
0.198506
0.199553
0.198542
0.165767
0.17522
0.164035
0.18778
0.175472
0.174329
0.173267
0.174681
0.186068
0.162744
0.167006
0.16235
0.182702
0.167764
0.166704
0.167103
0.171006
0.188589
0.161871
0.171536
0.159882
0.185396
0.173183
0.173836
0.168223
0.174847
0.186814
0.212201
0.212502
0.210732
0.172768
0.162875
0.191076
0.177423
0.173639
0.175948
0.19154
0.165524
0.171847
0.188143
0.174687
0.172128
0.175034
0.188213
0.166921
0.178832
0.165904
0.18922
0.174979
0.170598
0.169147
0.175043
0.187465
0.211883
0.209288
0.21145
0.170858
0.169348
0.189176
0.174754
0.169752
0.173962
0.187518
0.161362
0.172225
0.186918
0.172066
0.17041
0.171836
0.18663
0.159001
0.170718
0.156902
0.185597
0.173257
0.169818
0.169495
0.169719
0.185104
0.209966
0.20897
0.208308
0.171972
0.166512
0.183601
0.17177
0.172169
0.174033
0.186353
0.155516
0.16554
0.177412
0.164281
0.160359
0.171918
0.182947
0.162809
0.170182
0.161915
0.183447
0.166726
0.165645
0.162743
0.163735
0.180893
0.207888
0.207102
0.209192
0.172931
0.185891
0.173962
0.178091
0.18886
0.157752
0.166654
0.17651
0.165226
0.163195
0.171057
0.187651
0.168479
0.161089
0.182951
0.171241
0.167936
0.173286
0.182116
0.210856
0.20898
0.208831
0.167999
0.179056
0.165997
0.168074
0.179263
0.16826
0.17931
0.16457
0.166885
0.185067
0.16652
0.17905
0.166285
0.162413
0.175605
0.204214
0.202819
0.199685
0.176858
0.187974
0.172327
0.174641
0.185238
0.173428
0.18416
0.17256
0.173082
0.189491
0.168956
0.18796
0.174837
0.17536
0.183107
0.210451
0.208787
0.208114
0.166446
0.187526
0.168727
0.168557
0.181539
0.172822
0.182167
0.172218
0.172955
0.184632
0.172417
0.186124
0.17209
0.172372
0.180896
0.204226
0.201784
0.204642
0.168258
0.180488
0.165226
0.163862
0.178928
0.164925
0.18353
0.166391
0.165436
0.176405
0.16255
0.1799
0.168412
0.168686
0.18605
0.200005
0.203556
0.202134
0.167641
0.179667
0.166869
0.165004
0.1766
0.166241
0.181506
0.165136
0.169146
0.181523
0.1645
0.176647
0.168759
0.165992
0.17853
0.200891
0.199582
0.197306
SCALARS SignedDistance double 1
LOOKUP_TABLE default
2.65649
3.05004
2.2299
2.23286
2.55404
3.2299
2.81477
2.72468
2.99083
2.82801
2.78918
2.37537
2.42332
2.63601
2.87896
3.29201
2.66899
2.75123
2.29079
2.39789
2.31763
2.50665
3.07841
3.12109
2.76233
2.97518
2.59713
2.46393
3.21868
3.02199
3.20228
3.27218
2.29687
2.69462
2.30591
2.2156
2.48957
2.44071
2.47592
2.94779
2.47626
2.83209
2.57443
2.60212
2.80429
2.45133
2.48059
2.36985
3.0363
2.73739
2.93181
2.8568
2.69067
3.32138
3.14556
2.83702
2.96218
3.16987
2.61388
2.41619
2.82779
2.62119
2.44402
2.62099
2.79646
2.1528
2.4264
2.40328
2.16552
2.4966
2.22686
2.54985
2.49889
2.6611
2.57649
2.40794
2.42459
3.23803
3.25256
3.20183
3.21157
2.9767
3.08514
2.95478
2.8981
3.18187
2.5457
2.61928
2.77022
2.91398
2.69563
2.45133
2.5033
2.69898
2.56251
2.31362
2.47658
2.31916
2.78413
2.92903
2.94901
2.74862
2.91882
3.11155
3.02959
2.97987
3.06863
3.13069
2.98902
3.16817
3.21401
3.11292
2.19287
2.29755
2.26223
2.76956
2.52487
2.56251
2.42611
2.48947
2.62794
2.35522
2.38516
2.34703
2.27169
2.31019
2.36281
2.20191
2.3961
2.3743
2.32542
2.35272
2.67857
2.48111
2.64017
2.51131
2.29036
2.89647
2.70674
2.77121
2.76238
2.98135
2.28092
2.90652
2.58167
2.48385
2.80549
2.81752
2.8889
3.04696
2.23349
2.37892
2.56786
2.7138
2.50195
2.7947
3.144
3.06587
3.30736
2.99232
3.02248
3.17541
2.67025
2.67509
2.77562
2.49624
2.57515
2.47929
2.82715
2.69168
2.73339
2.39976
2.3904
2.35443
2.54516
2.45464
2.53023
2.39072
2.41169
2.4388
3.1355
2.97865
3.09143
2.80258
2.88334
2.9462
2.77805
2.81875
2.68087
2.52822
2.59255
2.65499
2.78866
2.73414
2.95128
2.86999
2.64586
2.75466
2.73597
3.29798
3.21198
3.22244
3.26981
3.32138
3.11771
3.03802
2.94632
3.00191
3.10351
2.80505
2.89328
2.74377
3.22606
3.06549
3.132
2.99233
3.04925
2.88161
2.65761
2.54465
2.59429
2.63479
2.31576
2.54443
2.47236
2.92795
2.81489
2.66893
2.71187
2.77392
2.71175
2.63604
2.57813
2.67326
2.80469
2.48854
2.56877
2.33687
2.75476
2.69173
2.6562
2.55798
2.58117
2.60256
2.3976
2.52386
2.17755
2.24386
2.34881
2.26711
2.20467
2.55175
2.38703
2.23461
2.25841
2.36085
2.25177
2.17978
2.65574
2.51139
2.67274
2.22903
2.34432
2.36071
2.46379
2.38478
2.29273
2.11552
2.15628
2.13774
2.57771
2.45261
2.49969
2.51835
2.43483
2.76912
2.69007
2.53443
2.62186
2.57383
2.56634
2.47682
2.3692
2.37498
2.38728
2.37995
2.44681
2.43004
2.45198
2.50975
2.46663