# vtk DataFile Version 4.2
vtk output
ASCII
DATASET POLYDATA
POINTS 642 double
-1.49312 3.94228 -0.12374
0.63782 3.85209 -0.0984385
-1.50112 0.216145 -0.015258
0.867313 0.218974 -0.00722718
-0.348685 0.929365 1.76457
-0.4492 3.128 1.6197
-0.330017 0.992754 -1.71336
-0.475961 3.28887 -1.86717
1.3838 2.04153 -1.0136
1.43547 2.00486 1.01629
-2.12632 2.21526 -1.14611
-2.18292 2.13239 1.10311
-2.10022 3.1987 0.632123
-1.44825 2.7626 1.65282
-1.02992 3.76296 0.982098
0.201244 3.71899 0.860267
-0.347245 4.21919 -0.0774586
0.231388 3.83649 -1.06353
-1.07767 3.95666 -1.1925
-1.45361 2.8938 -1.81677
-2.11372 3.27641 -0.769622
-2.4757 2.14048 -0.00249767
0.652844 2.6574 1.53356
1.25522 3.02202 0.569436
-1.41233 1.40575 1.66144
-0.36328 2.05677 1.97348
-2.04151 0.997498 -0.649249
-2.06669 0.983672 0.655121
-0.420951 2.22712 -2.02261
-1.37172 1.50006 -1.63878
1.20193 3.10214 -0.619402
0.58778 2.77692 -1.58719
1.48441 0.976316 0.640332
0.722785 1.39174 1.63116
0.366926 0.310935 1.06875
-1.04104 0.291873 1.07978
-0.338646 -0.0754092 -0.0207496
-1.00514 0.345248 -1.06661
0.347606 0.353106 -1.06625
0.678486 1.41892 -1.59832
1.45057 0.993325 -0.643708
1.74806 1.97264 -0.00666308
-1.83341 3.64288 0.270924
-1.63468 3.55725 0.852349
-1.29207 3.9142 0.455004
-1.87262 2.46834 1.44365
-1.83833 3.02742 1.22002
-2.21679 2.6861 0.908187
-0.739555 3.48106 1.37407
-1.29299 3.32061 1.3891
-0.932298 2.9994 1.70675
-0.696881 4.0907 0.442978
-0.965639 4.14957 -0.105619
-0.101348 3.4605 1.288
-0.395672 3.82923 0.948284
0.159635 4.11817 -0.0863709
-0.0514429 4.06578 0.419292
0.438707 3.86675 0.39633
-0.751376 4.16663 -0.672038
-1.33266 4.02792 -0.704712
0.497095 3.91471 -0.544423
-0.0483242 4.13589 -0.607841
-0.753739 3.6626 -1.627
-0.454882 3.9613 -1.21073
-0.121299 3.59665 -1.53508
-1.67598 3.70704 -1.02627
-1.84571 3.7056 -0.44399
-0.963669 3.1419 -1.94515
-1.31746 3.49299 -1.60565
-2.19435 2.78302 -1.00537
-1.87536 3.13785 -1.36807
-1.85145 2.58418 -1.54069
-2.18492 3.28482 -0.0559351
-2.37786 2.16351 -0.592218
-2.37739 2.73983 -0.397701
-2.39689 2.69933 0.331421
-2.40358 2.14147 0.607473
0.786835 3.42038 0.757212
0.952515 3.5056 0.223542
0.153573 2.89287 1.63202
0.489044 3.20932 1.2569
1.40355 2.55504 0.818717
1.02497 2.88926 1.08816
1.08907 2.35401 1.33574
-0.951856 2.44796 1.90039
-0.423308 2.61331 1.86561
-1.88168 1.80363 1.43099
-1.49925 2.12348 1.74329
-0.332019 1.45284 1.93448
-0.9241 1.74847 1.91493
-0.875949 1.09864 1.77579
-2.37349 1.55445 0.337349
-2.19633 1.59707 0.928235
-2.14892 1.57358 -0.897708
-2.35277 1.55376 -0.345308
-1.8482 0.532232 0.341324
-2.15419 0.940834 -0.0191331
-1.84721 0.547584 -0.361698
-1.45514 2.2475 -1.82745
-1.79813 1.86634 -1.45612
-0.466393 2.83032 -2.02486
-0.950335 2.6085 -2.04353
-0.832925 1.17323 -1.73413
-0.91945 1.88097 -1.93871
-0.3407 1.51923 -1.90248
0.437861 3.36574 -1.4098
0.047103 3.08374 -1.78942
0.95531 3.54547 -0.381954
0.766412 3.54248 -0.878067
1.02809 2.40039 -1.35193
0.953474 2.97582 -1.16455
1.36355 2.56755 -0.845393
1.23304 0.513132 0.314039
0.995306 0.556876 0.883548
0.68139 0.188758 0.519846
1.14793 1.68778 1.36967
1.18254 1.14201 1.19426
1.53979 1.45864 0.85897
-0.0123699 0.585854 1.50922
0.590306 0.784728 1.42686
0.185604 1.12852 1.77181
0.0465743 0.0137616 0.565972
0.341071 0.00645393 -0.0135727
-0.704573 0.551497 1.50416
-0.341691 0.218361 1.14348
-0.962391 -0.0144412 -0.0142721
-0.713494 0.00886674 0.579054
-1.31261 0.182405 0.57412
0.0347103 0.0348491 -0.585899
0.64406 0.212697 -0.561482
-1.30991 0.203506 -0.539023
-0.711801 0.0260218 -0.573222
-0.00661741 0.63758 -1.46559
-0.345417 0.265361 -1.12234
-0.660945 0.630464 -1.47222
0.961552 0.589824 -0.878084
1.21947 0.526869 -0.334488
0.199091 1.17487 -1.71716
0.568407 0.843497 -1.40868
1.4896 1.46264 -0.844996
1.12761 1.17013 -1.17709
1.08777 1.70636 -1.35701
1.57689 0.924179 -0.0116994
1.64734 1.99262 -0.522561
1.72014 1.47718 -0.323954
1.7405 1.46208 0.323628
1.665 1.99938 0.548874
0.203602 1.70307 1.89627
0.741454 2.04489 1.66531
0.176939 2.35914 1.84423
-1.63452 0.555663 0.927838
-1.27964 0.77671 1.47713
-1.80704 1.14598 1.24463
-1.21774 0.826285 -1.41616
-1.60482 0.596071 -0.901625
-1.77002 1.18784 -1.19325
0.689594 2.08569 -1.65691
0.165708 1.75813 -1.8727
0.0990727 2.51042 -1.89722
1.58174 2.54618 0.300748
1.56297 2.55591 -0.315767
1.31517 3.09871 -0.0237601
-1.66066 3.81508 0.0588491
-1.60056 3.78321 0.390023
-1.4071 3.94138 0.148559
-1.88771 3.39578 0.750475
-1.74787 3.60795 0.586492
-1.9997 3.41404 0.467715
-1.16938 3.85892 0.727469
-1.48191 3.74362 0.680325
-1.33376 3.67984 0.940031
-2.04283 2.30568 1.2914
-2.06181 2.58893 1.20082
-2.22041 2.41669 1.01471
-1.64584 2.90602 1.46726
-1.87588 2.74993 1.34608
-1.67822 2.6155 1.56386
-2.17683 2.95081 0.777321
-2.04403 2.86658 1.08071
-1.99888 3.11296 0.938624
-0.578658 3.29985 1.52087
-0.876869 3.25294 1.55505
-0.667675 3.07723 1.67424
-1.18033 3.55588 1.2001
-1.02654 3.41988 1.39268
-0.913055 3.64672 1.178
-1.17951 2.89844 1.70479
-1.13841 3.1642 1.56658
-1.37149 3.06048 1.54355
-1.76079 3.30453 1.05077
-1.57012 3.19654 1.32885
-1.4771 3.45533 1.14338
-1.11115 4.05915 0.179602
-1.23427 4.06167 -0.134217
-0.862892 3.9388 0.725817
-0.994408 4.01683 0.466008
-0.659668 4.20783 -0.0826117
-0.812632 4.14403 0.18371
-0.513524 4.1811 0.186648
-0.28014 3.29987 1.46996
-0.428438 3.49151 1.34079
-0.0972071 3.80249 0.907725
-0.251335 3.6608 1.12423
0.0680948 3.6064 1.0731
-0.580983 3.67152 1.17049
-0.731868 3.81181 0.981705
0.449064 3.98017 -0.0922052
0.312027 4.01455 0.160569
0.566133 3.8714 0.118481
-0.204896 4.17117 0.170817
0.0663152 4.10992 0.170006
-0.0947859 4.18958 -0.0853545
0.344882 3.81118 0.614532
0.202166 3.98592 0.40557
0.0806249 3.91485 0.648224
-0.555985 3.98712 0.707407
-0.218076 3.9727 0.68981
-0.379448 4.11053 0.432719
-1.15414 4.1034 -0.421678
-1.42858 3.99985 -0.43776
-0.528051 4.21896 -0.361
-0.866596 4.17949 -0.403227
-1.22207 4.02378 -0.927812
-1.07086 4.10708 -0.711402
-0.944146 4.08174 -0.952837
0.569365 3.9028 -0.335809
0.35 4.03384 -0.333976
0.101339 4.00922 -0.848655
0.234579 4.04363 -0.591143
0.358925 3.89359 -0.83565
0.0741799 4.14544 -0.336189
-0.198775 4.20506 -0.350489
-0.600686 3.46759 -1.77779
-0.478547 3.65789 -1.59248
-0.321998 3.43453 -1.73353
-0.793565 3.97584 -1.22925
-0.617832 3.83691 -1.42226
-0.941324 3.83812 -1.41465
0.0752898 3.73112 -1.30605
-0.286693 3.80675 -1.37787
-0.0638888 3.91945 -1.12744
-0.39178 4.17962 -0.639477
-0.214423 4.0769 -0.896009
-0.624158 4.09616 -0.955362
-1.60913 3.88665 -0.58598
-1.7003 3.82901 -0.310915
-1.37844 3.86901 -1.12835
-1.5108 3.89777 -0.870313
-1.99569 3.51513 -0.609321
-1.78741 3.71005 -0.758695
-1.92179 3.50552 -0.906859
-0.724695 3.22833 -1.92857
-0.865285 3.42271 -1.81282
-1.40358 3.19987 -1.74229
-1.13673 3.32937 -1.80761
-1.20929 3.02912 -1.90766
-1.03979 3.60896 -1.63518
-1.20816 3.75035 -1.42063
-2.17364 2.46376 -1.09787
-2.05007 2.68958 -1.28666
-2.02335 2.37909 -1.33103
-2.02697 3.21325 -1.0826
-2.05712 2.96639 -1.19699
-2.17635 3.03334 -0.901298
-1.67887 2.73186 -1.68739
-1.87929 2.87074 -1.46803
-1.67532 3.02536 -1.6196
-1.51779 3.62032 -1.33677
-1.62033 3.3301 -1.51174
-1.80468 3.43099 -1.21849
-1.86569 3.67484 -0.101384
-2.16207 3.29915 -0.435306
-2.03326 3.50382 -0.263375
-2.04409 3.46126 0.11141
-2.16451 3.24937 0.311874
-2.26906 2.19015 -0.87783
-2.29991 2.48067 -0.809742
-2.45149 2.43927 -0.197493
-2.3972 2.46142 -0.504271
-2.44649 2.14659 -0.300933
-2.29959 2.76852 -0.716166
-2.26235 3.01421 -0.609849
-2.34193 2.41745 0.757873
-2.32263 2.13413 0.842499
-2.26791 2.97486 0.494635
-2.32685 2.70091 0.628689
-2.46356 2.14331 0.309425
-2.42507 2.41914 0.458378
-2.46432 2.42716 0.164778
-2.31192 3.01955 -0.239819
-2.41663 2.72536 -0.0253783
-2.3189 3.00018 0.144558
0.717999 3.69067 0.311073
0.796802 3.6984 0.0546496
0.50738 3.58301 0.818015
0.613979 3.65624 0.576112
1.11968 3.26785 0.405876
0.88856 3.46424 0.513838
1.03462 3.23178 0.675577
-0.145254 3.0173 1.63754
0.0365259 3.18584 1.47688
0.575654 2.93011 1.42377
0.332326 3.05722 1.45927
0.414067 2.77591 1.59727
0.213209 3.34353 1.27962
0.3539 3.46926 1.07956
1.43347 2.2625 0.94081
1.26761 2.45656 1.09342
1.29214 2.17592 1.17171
1.16164 2.96099 0.840047
1.22822 2.72952 0.964178
1.34147 2.79829 0.700401
0.90198 2.50075 1.43675
1.07425 2.61603 1.22886
0.853364 2.77595 1.33099
0.653478 3.32891 1.02024
0.768567 3.06233 1.18748
0.923687 3.15908 0.939729
-0.694939 2.81812 1.80445
-0.44207 2.87953 1.75584
-1.20038 2.61642 1.80412
-0.972385 2.71618 1.82497
-0.386735 2.37154 1.93032
-0.70669 2.53665 1.89884
-0.670623 2.26421 1.94951
-2.03782 1.95192 1.29125
-1.88519 2.13421 1.4661
-1.48054 1.78048 1.72004
-1.69106 1.96388 1.61395
-1.65118 1.59069 1.56414
-1.69236 2.30239 1.61359
-1.49018 2.4483 1.71893
-0.344512 1.14622 1.8509
-0.624632 1.25863 1.86933
-0.591259 0.994185 1.78814
-0.647632 1.90468 1.96935
-0.619394 1.6007 1.94315
-0.345169 1.76815 1.97264
-1.14598 1.2298 1.73068
-0.915928 1.39295 1.84901
-1.1795 1.57413 1.80857
-1.23259 2.28634 1.8571
-1.21785 1.95356 1.86363
-0.9608 2.10854 1.93582
-2.33 1.85941 0.763668
-2.21028 1.84501 1.01563
-2.45182 1.85405 0.164612
-2.41194 1.85241 0.460085
-2.15258 1.29315 0.801258
-2.30378 1.54968 0.631918
-2.24485 1.26463 0.50052
-2.15342 1.8861 -1.02325
-2.28581 1.86516 -0.756573
-2.21804 1.26802 -0.501205
-2.26951 1.55791 -0.629613
-2.10907 1.27141 -0.771886
-2.38295 1.85134 -0.469099
-2.43805 1.84567 -0.183469
-1.66127 0.32997 0.136148
-1.86465 0.515319 -0.015616
-1.66077 0.337893 -0.16817
-2.13037 0.940417 0.318029
-2.01903 0.717629 0.158482
-1.96836 0.739835 0.507124
-1.95558 0.74017 -0.50674
-2.01564 0.721263 -0.193671
-2.1205 0.956666 -0.34902
-2.3919 1.54427 -0.0113377
-2.27704 1.23883 -0.186478
-2.28543 1.23319 0.16049
-1.84084 2.23363 -1.52362
-1.97747 2.04477 -1.31226
-1.46484 2.57812 -1.84796
-1.66754 2.41801 -1.70354
-1.60921 1.6997 -1.56063
-1.6403 2.0718 -1.66355
-1.42338 1.90043 -1.75249
-0.479566 3.04362 -1.97614
-0.704526 2.97712 -2.01679
-0.714821 2.45329 -2.06243
[...]
POINT_DATA 642
SCALARS Mean_Curvature double 1
LOOKUP_TABLE default
0.842924
1.09333
1.03875
1.02565
0.940549
0.662816
0.92001
1.29537
0.843074
0.92333
0.732826
1.02201
1.00985
1.07478
0.965254
0.611972
1.06145
1.03178
1.41908
1.07835
1.09097
0.833435
0.852289
0.927737
0.692382
0.814733
0.829755
0.754373
0.56673
0.554882
0.719445
0.565063
1.19728
0.912088
0.987352
1.01744
0.705486
0.993526
1.03832
0.861478
1.16227
0.913296
0.915437
1.00069
0.660193
1.05575
1.03818
1.02059
0.954743
1.09148
1.04018
0.97231
0.830077
0.637994
0.81891
1.16237
1.05877
1.03085
0.88478
1.28272
1.13149
1.10112
1.26949
0.935766
0.862211
1.20519
1.00152
1.51718
1.08687
0.997749
1.25514
0.991491
0.894831
0.791813
0.816896
0.942463
0.935954
0.845673
0.722851
0.76272
0.769934
0.981496
0.884398
0.96031
1.05518
0.717779
0.974678
0.980132
0.904214
0.704615
0.823948
0.865811
0.798711
0.765341
0.869505
0.998052
0.828045
1.12417
1.00217
0.55934
1.15597
1.20645
0.791704
0.652762
0.696432
0.908574
0.911133
1.0707
0.964995
0.82415
0.623381
0.865017
1.07812
1.02532
0.973584
0.904851
1.03735
1.20939
0.920865
0.921448
0.92783
0.850081
0.870162
1.06517
1.00827
0.998933
0.851989
1.0475
0.914694
0.919225
1.02781
0.957703
0.910678
0.975375
1.05419
0.936785
1.09082
0.850447
0.969304
0.983831
0.922543
0.861672
1.113
0.920541
1.27563
1.34568
0.892473
0.932271
0.910282
0.900231
1.11567
1.29618
0.752192
1.14856
1.17569
0.761215
0.751546
0.777631
0.60711
0.966404
0.864981
0.849349
0.770739
0.972007
0.632572
1.01011
0.962476
0.975397
0.886093
0.95232
0.957126
1.04248
1.06422
1.03591
1.09428
1.05035
1.07738
1.00205
1.03677
1.01741
0.914422
1.03247
0.946046
1.01934
1.01204
1.00612
1.12113
1.09997
1.09147
1.04157
1.087
1.05027
0.72729
0.669604
0.741561
0.781115
0.957206
0.935093
1.03375
0.551806
0.833615
0.914404
0.627545
0.629591
0.881271
0.894433
1.09551
1.12691
1.00962
1.14198
1.10112
1.14717
0.862332
1.08682
0.972581
0.97916
0.987243
1.0947
0.68735
1.04976
0.904679
0.866432
1.47324
0.921741
1.26985
1.16758
1.14305
1.06199
1.10708
1.088
1.12336
1.08957
1.25311
0.896589
0.851411
1.252
1.03363
1.27951
0.919573
0.87134
0.933693
0.973988
0.937638
0.913312
1.09292
0.945041
1.33783
1.3069
1.00854
1.1175
1.18463
1.44023
1.3397
1.15288
1.38337
1.29962
1.31098
1.23866
0.924247
0.990376
0.966676
1.25735
1.18701
1.12047
1.06444
1.04382
1.10608
1.05335
1.21987
1.09747
0.805197
0.900906
0.869847
0.896426
0.981058
0.721141
0.694667
0.815141
0.829197
0.820604
0.845629
0.896713
1.08816
1.02145
0.992506
0.984981
0.966807
0.89961
0.962714
0.835502
0.948123
0.925612
0.638347
0.963943
0.716606
0.69683
0.801095
0.823731
0.827612
0.687915
0.68161
0.878227
0.739534
0.838661
0.687358
0.760625
0.908125
0.973562
0.903514
0.950006
0.910138
0.964267
0.881931
0.95667
0.867083
0.859462
0.843835
0.92364
0.944075
0.556186
1.12116
1.07382
0.780585
0.886661
0.678841
1.02849
1.02611
0.904144
0.947158
0.734638
0.966561
1.00574
0.828462
0.728833
1.05891
0.781695
0.728051
0.773505
0.59844
0.669212
0.631337
1.14159
1.05268
1.03757
1.01496
1.00836
0.893691
0.794377
0.813869
0.824162
0.83797
0.749247
0.775349
0.817628
0.81709
0.801322
0.799223
0.848553
1.01745
1.02108
1.06021
0.783422
1.01818
0.841284
1.2797
1.12577
0.820446
0.892891
0.852755
0.831085
0.955533
0.527504
1.07103
0.992241
0.632335
0.918903
0.65684
1.3276
1.36769
1.05479
1.19961
1.0263
1.34838
1.20677
0.84321
0.777549
0.864163
0.587093
0.668079
0.669526
0.676721
0.64968
0.627212
1.11659
1.06686
1.02253
0.804837
0.927669
0.950645
0.904016
0.90931
0.902389
1.02072
1.09677
1.10868
0.977273
1.00762
0.839896
1.03168
1.05148
0.817586
0.846682
0.836072
0.681431
0.751855
0.756478
0.775102
0.809665
0.619754
0.985525
0.917909
1.05989
1.04528
1.02668
1.04689
1.10724
1.06226
1.11933
0.971002
0.97568
0.982563
0.915196
0.894198
0.953938
0.850512
0.900307
0.87856
1.14325
1.10335
1.19578
0.978171
0.960111
0.921059
0.988754
0.928184
0.945926
0.907907
0.91102
0.865757
1.10185
0.941087
0.948906
0.988187
1.03117
0.950221
0.980519
0.747969
0.792851
0.725708
1.19156
1.11938
0.946553
1.0124
0.900683
1.01296
0.917945
1.02916
0.925419
0.997055
0.696211
1.02465
0.746299
1.1518
0.891584
0.976616
0.869669
1.02317
0.776575
0.918282
1.03076
0.810907
0.860617
0.987515
0.937691
1.00232
1.06615
1.07645
0.945948
0.933528
0.943558
0.947416
0.875879
0.897195
0.937755
0.884495
0.961591
0.959093
1.01952
1.08971
1.03669
1.03464
0.926767
1.01094
0.891035
1.06117
1.0464
0.981272
0.941351
1.12591
1.08037
1.07713
0.886059
0.872007
0.973135
0.90068
0.865907
0.96896
1.01844
0.853539
0.857383
0.834612
1.14592
0.922893
1.26181
0.83988
0.864761
0.885902
0.953947
0.964174
0.953443
1.07521
1.1415
1.10209
1.10613
1.15658
0.903724
0.870379
1.16355
0.93394
0.921293
1.15107
1.31689
1.02226
0.930119
1.14259
1.27293
0.874896
1.18876
1.22563
1.25323
1.35564
1.23337
0.839558
0.90741
0.896379
0.949504
0.835789
0.94348
0.880608
0.949478
0.897525
0.944039
0.684088
0.88599
0.772119
0.807318
0.843017
0.980651
0.909785
0.954803
1.00676
1.02277
1.05981
1.06114
1.21188
1.18494
1.06621
1.2428
1.10015
1.11158
0.914052
0.732769
0.797363
0.753241
0.739577
1.1616
1.28175
1.22209
0.836841
1.07328
1.17203
0.795902
0.612119
1.07708
1.13166
1.16609
1.05047
0.965375
0.788706
0.669309
0.738254
0.771003
0.812282
1.14541
0.804226
0.718723
0.808607
0.838054
0.804307
0.805202
0.687472
0.854758
0.73765
0.738858
0.794788
0.801935
0.939754
0.423804
0.783695
0.933778
0.646498
0.789853
0.725465
0.711478
0.912823
0.948628
0.914576
0.975734
0.892558
0.912069
0.804257
0.895241
0.881354
0.951194
0.671866
0.897258
0.740664
0.756171
0.77309
0.974355
0.834484
0.934672
SCALARS Redistribution_Potential double 1
LOOKUP_TABLE default
2.28432e-11
-0.63825
0.32506
0.0372888
-0.0154171
-0.492048
-0.0966893
0.0128034
-0.537117
-0.535746
0.219122
0.129437
0.0591842
-0.125757
-0.303945
-0.649527
-0.33459
-0.357846
0.193699
0.262027
0.258839
0.219795
-0.64585
-0.761145
0.0921139
-0.317518
0.26862
0.303691
-0.0989989
0.0996651
-0.678609
-0.435863
-0.147243
-0.294766
0.0800156
0.299678
0.213055
0.194696
-0.0076601
-0.32287
-0.191522
-0.511583
0.0202526
-0.0957814
-0.165512
0.0182799
-0.0304186
0.0944056
-0.415185
-0.219781
-0.319974
-0.334267
-0.152935
-0.595877
-0.495899
-0.486799
-0.513236
-0.653887
-0.0742006
0.129602
-0.518248
-0.323901
0.127912
-0.0640535
-0.171708
0.274101
0.156525
0.21486
0.282372
0.264976
0.315359
0.251845
0.152904
0.227238
0.221043
0.166708
0.184191
-0.752369
-0.744881
-0.606448
-0.702856
-0.686446
-0.730268
-0.620629
-0.230304
-0.422952
0.112313
-0.0255113
-0.169224
-0.103731
0.0517892
0.251651
0.207623
0.219761
0.25046
0.348822
0.307638
0.331579
0.170241
0.175059
-0.0263274
0.122379
-0.00511094
0.0169375
-0.14106
-0.399714
-0.234522
-0.675393
-0.55891
-0.536605
-0.572495
-0.632535
-0.0262753
-0.0228935
0.0759143
-0.422236
-0.218797
-0.323544
0.0429148
-0.0799771
-0.156036
0.175871
0.1196
0.184487
0.195766
0.292467
0.27774
0.33998
0.121528
0.025877
0.285628
0.224361
-0.0625125
0.0948229
0.0530583
-0.0968018
-0.0526428
-0.213978
-0.170296
-0.367086
-0.285555
-0.429276
-0.137964
-0.528856
-0.325179
-0.297853
-0.52383
-0.330535
-0.497425
-0.501038
0.352109
0.26397
0.241918
0.144618
0.273076
0.191482
-0.417847
-0.269687
-0.260218
-0.677836
-0.661228
-0.742833
0.00461479
-0.0610226
-0.0819962
-0.0103826
-0.0409594
0.0436669
-0.236391
-0.132089
-0.200597
0.077888
0.0567452
0.112063
-0.0789369
-0.00501486
-0.0463626
0.0764979
0.0353958
0.0175176
-0.463388
-0.361999
-0.418338
-0.263373
-0.317594
-0.354029
-0.224045
-0.265089
-0.17714
-0.0589917
-0.118865
-0.156595
-0.172255
-0.0705322
-0.331289
-0.255883
-0.24366
-0.25573
-0.33788
-0.546962
-0.511239
-0.575867
-0.553195
-0.631869
-0.459821
-0.399511
-0.57914
-0.578894
-0.649172
-0.422835
-0.505472
-0.408882
-0.659355
-0.587975
-0.59018
-0.415349
-0.508848
-0.418572
-0.0184094
0.0681132
-0.221921
-0.109094
0.172807
0.0422774
0.0799251
-0.576361
-0.504062
-0.337963
-0.42271
-0.431424
-0.413818
-0.324809
0.0714445
-0.0076539
-0.0710384
0.0901136
0.0378518
0.177562
-0.27222
-0.114785
-0.236638
-0.202434
-0.214139
-0.046302
0.152051
0.0948847
0.256254
0.219899
0.217017
0.226464
0.273125
0.132101
0.187111
0.290607
0.264845
0.251821
0.232147
0.255465
0.241042
0.26769
0.234067
0.303956
0.295175
0.27369
0.260063
0.286967
0.296114
0.292993
0.315776
0.307827
0.0860579
0.205788
0.152797
0.0966412
0.104418
0.224847
0.234438
0.2167
0.226502
0.225839
0.241317
0.237793
0.147879
0.163969
0.11753
0.132092
0.206365
0.174969
0.199389
0.200489
0.198752
0.161366
-0.713229
-0.700824
-0.711477
-0.717301
-0.767156
-0.756507
-0.767592
-0.556549
-0.61411
-0.684577
-0.66186
-0.635318
-0.661402
-0.691317
-0.612247
-0.658011
-0.58364
-0.752192
-0.717518
-0.734814
-0.640454
-0.682958
-0.693023
-0.734694
-0.726566
-0.754686
-0.375611
-0.461223
-0.179177
-0.268991
-0.383456
-0.326986
-0.28293
0.122161
0.0615667
0.0292638
0.0429217
0.102092
-0.00843957
-0.0766354
-0.0829947
-0.0551833
0.0193263
-0.211133
-0.14605
-0.251498
0.0781426
-0.0226919
-0.00126658
-0.114686
-0.0614427
-0.162526
0.198894
0.17393
0.232639
0.218224
0.255891
0.236838
0.274039
0.21307
0.224485
0.259529
0.236585
0.238858
0.232765
0.237854
0.340814
0.341507
0.330808
0.31094
0.332187
0.332422
0.313619
0.328175
0.294179
0.25963
0.277749
0.284341
0.210383
0.202572
0.21919
0.217361
0.141725
0.172345
0.122811
0.00419595
0.0954593
0.0229009
0.0559619
-0.0526545
0.168136
0.207722
-0.0577797
-0.0709907
-0.125274
0.0582904
-0.0107048
0.05263
-0.133847
-0.0664997
-0.0357712
0.161156
0.0723891
0.110171
-0.21076
-0.11689
-0.383529
-0.300975
-0.344001
-0.325932
-0.420378
-0.659124
-0.605667
-0.630038
-0.624872
-0.683862
-0.538999
-0.463279
-0.549834
-0.590917
-0.58533
-0.509169
-0.564307
-0.500148
-0.659583
-0.618699
-0.629679
-0.477447
-0.565152
-0.488614
0.0114376
0.0265376
0.0599697
-0.0781558
-0.0224519
-0.0790355
0.082822
0.0322368
0.0278217
-0.478929
-0.38322
-0.432446
-0.265355
-0.319254
-0.3689
-0.229229
-0.272626
-0.170737
0.015718
-0.0486596
-0.0799686
0.0104421
-0.0223006
0.0695302
-0.229743
-0.12036
-0.193689
-0.102641
-0.151572
-0.0448263
0.107182
0.0849768
0.136274
0.128758
0.164524
0.152888
0.198807
0.100595
0.116206
0.249339
0.190219
0.248837
0.129633
0.137736
0.315949
0.319206
0.334711
0.252423
0.292089
0.254296
0.330262
0.311993
0.29389
0.194497
0.250895
0.231643
0.0791277
0.0382392
0.171394
0.125754
0.011591
0.0733561
0.0611041
0.31026
0.291744
0.211714
0.253903
0.243505
0.259171
0.223794
-0.0867262
-0.000244697
-0.032041
0.0412759
0.0188415
-0.0292844
0.128303
0.0803406
0.145538
0.177657
0.166264
0.113872
-0.0134342
-0.00692529
-0.0540268
-0.0325044
-0.113436
-0.071526
-0.143585
-0.155333
-0.144899
-0.248764
-0.201706
-0.270312
-0.117205
-0.0814702
-0.474402
-0.410842
-0.493155
-0.234294
-0.330153
-0.271972
-0.383379
-0.363002
-0.313984
-0.129598
-0.224892
-0.182536
-0.0368581
-0.152187
-0.0922494
-0.0774295
-0.135191
-0.536448
-0.45537
-0.412558
-0.437068
-0.518735
-0.347469
-0.243439
-0.425048
-0.526473
-0.220858
-0.306417
-0.51717
-0.401757
-0.40568
-0.211335
-0.301034
-0.202087
-0.17303
-0.318023
-0.252706
-0.256451
-0.33781
-0.529676
-0.581316
-0.562662
-0.47087
-0.39823
-0.526657
-0.415738
-0.478386
-0.564196
-0.583151
-0.411055
-0.506592
-0.419694
0.350224
0.334468
0.348438
0.355655
0.345521
0.139372
0.179731
0.175182
0.225371
0.293372
0.168347
0.284577
0.22235
0.172406
0.17551
0.328377
0.272941
0.330562
0.0187875
0.174984
0.104337
0.0697435
0.104758
0.314267
0.277009
0.309386
0.281782
0.240167
0.196735
0.145495
0.172611
0.207766
0.233178
0.219397
0.226702
0.170613
-0.497459
-0.378935
-0.439171
-0.480912
-0.438198
-0.187749
-0.201301
-0.205554
-0.253725
-0.310014
-0.127084
-0.343904
-0.247699
-0.137506
-0.172553
-0.341793
-0.276263
-0.354438
-0.618349
-0.604077
-0.614836
-0.68655
-0.732826
-0.600213
-0.687604
-0.650766
-0.603954
-0.60025
-0.717986
-0.757334
-0.753207
-0.724546
-0.715514
-0.66912
-0.710023
-0.724411
SCALARS CoVolArea double 1
LOOKUP_TABLE default
0.070195
0.0502451
0.0554148
0.0660211
0.0533515
0.0599955
0.0513947
0.0545458
0.0541473
0.0641095
0.068961
0.0717385
0.0862829
0.0865808
0.0855059
0.0884745
0.0816627
0.0809938
0.0831684
0.0878182
0.0919092
0.0962057
0.0814556
0.0813339
0.0980463
0.0940698
0.0897833
0.101596
0.100421
0.106723
0.0923311
0.0885654
0.087195
0.0916608
0.0961651
0.0960608
0.108281
0.0947096
0.0888416
0.0870332
0.083581
0.0797977
0.0962678
0.0921416
0.0961988
0.0801053
0.0927372
0.0851637
0.0831493
0.0837038
0.0767542
0.0894693
0.0908485
0.091364
0.0908411
0.0747712
0.0821177
0.0775265
0.099552
0.0747856
0.0727518
0.0888695
0.0812118
0.103141
0.0935595
0.0977903
0.0829398
0.0734991
0.098909
0.0884447
0.0929565
0.0870615
0.105277
0.0953143
0.102425
0.0986578
0.0833056
0.0889827
0.0856683
0.0850541
0.0895183
0.0800888
0.0848588
0.0785675
0.0847574
0.0849306
0.0897423
0.0908919
0.0912017
0.104765
0.0843551
0.103814
0.0888453
0.0946952
0.098678
0.0937746
0.100784
0.0863611
0.0896334
0.0953141
0.0639855
0.0789892
0.0923993
0.108349
0.0905114
0.0863322
0.0832316
0.0717876
0.0841515
0.0870587
0.0952184
0.0816479
0.0919383
0.0969979
0.0923684
0.0811685
0.0929019
0.0772935
0.0913864
0.101784
0.0912089
0.108736
0.0890172
0.0859721
0.100442
0.0951598
0.102894
0.0917336
0.102318
0.0876251
0.0845737
0.0989962
0.0895668
0.0947432
0.0806441
0.0957751
0.083324
0.0805463
0.0913148
0.0817954
0.0918
0.087583
0.092996
0.0783671
0.0825807
0.083612
0.0810651
0.0880259
0.0914887
0.0885349
0.0938192
0.0913627
0.101783
0.0906855
0.0891137
0.101548
0.097215
0.0946923
0.107375
0.0857222
0.0922908
0.0904905
0.0875165
0.0919346
0.0912106
0.0916694
0.0866866
0.0896569
0.0914387
0.0890544
0.0928808
0.0836822
0.0840741
0.0840872
0.0897328
0.0837912
0.0796421
0.0837214
0.0847324
0.0909114
0.0721361
0.0771244
0.0702227
0.0852092
0.0787105
0.0807565
0.0770213
0.0742434
0.0834768
0.101391
0.0969985
0.0985964
0.09439
0.0887986
0.0927763
0.0913848
0.0915905
0.0881538
0.0840773
0.0832353
0.0827971
0.0844069
0.0855494
0.0867422
0.0866788
0.089313
0.0677529
0.0737312
0.0710135
0.078766
0.0712141
0.0708652
0.0783016
0.069671
0.0818379
0.0992205
0.0941669
0.0928095
0.086415
0.0837684
0.0984349
0.095929
0.0745394
0.0807721
0.0855346
0.0607865
0.0716692
0.0845934
0.0798276
0.0785913
0.0764586
0.0851949
0.0694881
0.0839274
0.0785998
0.0862125
0.082236
0.0818974
0.0897211
0.0940811
0.0981819
0.10699
0.111081
0.110605
0.0796904
0.0807214
0.0960342
0.0817906
0.0885999
0.0855045
0.0943668
0.0670784
0.0777335
0.0939373
0.0852019
0.0793465
0.0870241
0.0946601
0.0859159
0.0884264
0.0841914
0.0913103
0.0814381
0.080635
0.0821023
0.0835329
0.0921878
0.112159
0.107581
0.10873
0.0917873
0.10367
0.093718
0.0960388
0.0950278
0.0930693
0.0955739
0.101466
0.0954228
0.0921124
0.0893775
0.0974338
0.0835826
0.0797718
0.0950097
0.0881317
0.0889013
0.0875874
0.097481
0.116286
0.1118
0.113134
0.0845908
0.0711975
0.0939421
0.0850173
0.0870334
0.0869857
0.0864521
0.0894254
0.0942826
0.0850651
0.0854063
0.0759366
0.0915144
0.0924425
0.0799118
0.0811637
0.0795465
0.079858
0.0770798
0.0726055
0.0776894
0.0786002
0.0869967
0.0956586
0.0939923
0.0910455
0.0796345
0.0812811
0.0864099
0.0755859
0.0865896
0.0790223
0.0953017
0.0813491
0.0823792
0.100985
0.0874886
0.0963094
0.0799079
0.0884351
0.0752639
0.0904491
0.0756693
0.0994712
0.0992755
0.0881287
0.0887652
0.0967952
0.106032
0.0981331
0.106253
0.102906
0.085671
0.08086
0.0998361
0.0932318
0.0995603
0.095816
0.106604
0.0967812
0.0954626
0.0971039
0.0923023
0.0904627
0.0923413
0.0980975
0.0823119
0.0927062
0.0826916
0.103024
0.0908668
0.0890503
0.0806747
0.087151
0.0962775
0.111949
0.110192
0.115284
0.0913558
0.0915923
0.0891576
0.0846831
0.0992695
0.0907119
0.101858
0.0643918
0.0650245
0.0850394
0.0667003
0.0789662
0.0712385
0.0840837
0.0733721
0.0896393
0.0756442
0.11057
0.101534
0.0998473
0.0987373
0.100678
0.105542
0.0945286
0.101626
0.104875
0.0867288
0.0744543
0.0848392
0.0858415
0.0875219
0.0856059
0.0868122
0.0676075
0.0676482
0.0848462
0.0716334
0.0765686
0.0786506
0.0825859
0.0766192
0.0855888
0.0771927
0.0877382
0.0867961
0.0833085
0.0863931
0.0866561
0.0969441
0.0935069
0.0988642
0.0964039
0.0823229
0.091415
0.0814048
0.0940371
0.0903008
0.0895049
0.0930142
0.0908258
0.0970751
0.0806957
0.0805493
0.0779284
0.0926724
0.0820405
0.0850058
0.0765832
0.0806206
0.0919061
0.0773275
0.0881201
0.0766169
0.0967254
0.0905829
0.0933929
0.0876403
0.0925184
0.0983957
0.108838
0.11167
0.111079
0.0905836
0.0806281
0.104704
0.0970891
0.100222
0.0983952
0.112815
0.0789028
0.0865069
0.0993103
0.0910065
0.0903713
0.0922572
0.100436
0.0847106
0.0977592
0.0839296
0.108217
0.0946507
0.0931472
0.0853654
0.0921881
0.0984222
0.116171
0.111679
0.119421
0.089177
0.0882972
0.10589
0.0956581
0.0876384
0.0921708
0.0983587
0.0763032
0.0876187
0.0976565
0.0888416
0.0888531
0.0893151
0.101264
0.0765677
0.0857745
0.0732036
0.0949324
0.0879548
0.0861951
0.0834486
0.0821096
0.0931495
0.112968
0.109342
0.109777
0.0869318
0.0821321
0.0927541
0.087428
0.0856257
0.0876371
0.0918976
0.0732795
0.0812252
0.0851598
0.0787509
0.07775
0.0866037
0.0907667
0.0813752
0.0877637
0.0821797
0.0866887
0.0773637
0.0730384
0.0814053
0.0790946
0.0894501
0.10631
0.104123
0.106253
0.0866799
0.0895382
0.0867901
0.0921946
0.0930903
0.0751744
0.0800556
0.0744232
0.0738072
0.0761146
0.0769357
0.0860294
0.0777901
0.0770137
0.0840103
0.076658
0.0816096
0.0795372
0.0792733
0.0989976
0.0923434
0.0984947
0.0855082
0.0886667
0.0829262
0.0851118
0.0893633
0.0835311
0.0873932
0.0790113
0.0822753
0.0942907
0.0896185
0.0904732
0.0855626
0.081091
0.0848661
0.100736
0.0995761
0.0970203
0.093715
0.0966594
0.0865153
0.0898436
0.0947298
0.0849373
0.0902582
0.0827055
0.0856991
0.0979912
0.086853
0.10339
0.0974391
0.0975257
0.0969548
0.10517
0.103567
0.105167
0.0816424
0.0942119
0.0803389
0.0859919
0.0975088
0.0862106
0.0878886
0.0827388
0.0865331
0.0930722
0.0998261
0.107177
0.0994257
0.0967803
0.0937801
0.100675
0.0999489
0.1066
0.0885317
0.0932628
0.0844804
0.0850741
0.0979387
0.083654
0.103145
0.0880723
0.0838202
0.088738
0.072966
0.101826
0.0898784
0.0861592
0.105414
0.105501
0.113113
0.112915
0.0822735
0.0869209
0.0812026
0.0778904
0.0826852
0.0826298
0.0946895
0.0825122
0.0839248
0.0884773
0.0814303
0.0867264
0.088409
0.0848302
0.0922945
0.0970102
0.099768
0.0940712
SCALARS SignedDistance double 1
LOOKUP_TABLE default
1.88024
2.15835
1.42554
1.44087
1.80196
2.33768
1.92832
2.01885
2.0552
1.91421
2.02695
1.53425
1.58015
1.82058
2.02913
2.36969
1.80976
1.85994
1.6352
1.66363
1.57783
1.68672
2.11089
2.13917
1.93399
2.07575
1.76325
1.65205
2.39358
2.14579
2.26591
2.39628
1.5199
1.81916
1.49522
1.4518
1.68987
1.60931
1.64116
2.02976
1.68731
1.95302
1.78864
1.76562
1.98875
1.61746
1.63686
1.52643
2.16868
1.90155
2.10623
1.99517
1.84908
2.36664
2.26932
1.9629
2.08278
2.2619
1.80519
1.74807
1.95457
1.75041
1.76609
1.8314
1.96571
1.40396
1.65937
1.76898
1.40837
1.76423
1.5103
1.78143
1.69737
1.84178
1.78415
1.60829
1.61337
2.24814
2.31216
2.22102
2.22092
2.02231
2.10292
2.00476
2.09285
2.27149
1.73549
1.79392
1.91207
2.07701
1.96416
1.61208
1.68891
1.84623
1.72449
1.54039
1.66025
1.52788
2.01753
2.13316
2.2154
2.03702
2.01539
2.27337
2.1153
2.07372
2.23329
2.23306
2.07563
2.21479
2.32998
2.15119
1.39408
1.50779
1.47258
1.87572
1.75102
1.76435
1.62573
1.67589
1.79169
1.601
1.6078
1.57102
1.46903
1.56161
1.6048
1.43177
1.58594
1.57062
1.53122
1.54732
1.8286
1.64903
1.83998
1.70412
1.49117
1.98103
1.84555
1.93918
1.91576
2.04675
1.50817
1.98232
1.81503
1.72774
1.91798
1.92257
1.9724
2.11458
1.45011
1.68064
1.76211
1.94001
1.73347
1.9387
2.20668
2.12569
2.43399
2.04983
2.07516
2.20824
1.87236
1.88123
1.94207
1.65856
1.75718
1.65394
1.99195
1.86171
1.89506
1.56408
1.54251
1.50533
1.71442
1.6107
1.69811
1.54572
1.56569
1.59159
2.26327
2.11767
2.24041
1.95039
2.02906
2.0792
1.96977
1.98627
1.85944
1.68498
1.76282
1.8154
1.93057
1.90719
2.09845
2.00769
1.78797
1.89948
1.87679
2.36286
2.32554
2.32155
2.37832
2.37342
2.24524
2.17395
2.07576
2.11004
2.20464
1.9332
2.01836
1.87612
2.32076
2.16665
2.23645
2.12263
2.16909
2.00679
1.89817
1.81168
1.74191
1.80234
1.68849
1.88704
1.84792
2.04827