# vtk DataFile Version 4.2
vtk output
ASCII
DATASET POLYDATA
POINTS 642 double
-2.12237 5.03672 -0.0328267
1.4577 5.02074 -0.0328997
-2.12903 -0.789596 -0.0284537
1.47674 -0.789656 -0.02749
-0.325708 0.329971 2.88095
-0.331912 3.90672 2.85107
-0.324786 0.343333 -2.91518
-0.332995 3.93243 -2.94666
2.55404 2.12694 -1.80493
2.56949 2.11984 1.75803
-3.22511 2.13279 -1.82205
-3.23317 2.12788 1.76604
-3.09341 3.83978 1.02815
-2.03788 3.18122 2.73105
-1.37751 4.87984 1.67204
0.713707 4.86665 1.65898
-0.324653 5.5391 -0.0295366
0.721932 4.88967 -1.73503
-1.38961 4.9152 -1.75056
-2.04683 3.19314 -2.80683
-3.10572 3.84959 -1.09196
-3.73868 2.12871 -0.0275123
1.36316 3.17207 2.70306
2.41433 3.8167 1.01755
-2.03091 1.07257 2.73009
-0.32937 2.12278 3.36226
-3.09085 0.417391 -1.08428
-3.08871 0.417461 1.02752
-0.329097 2.13392 -3.42388
-2.01952 1.08332 -2.76252
2.39755 3.81463 -1.06902
1.36197 3.17604 -2.76761
2.4544 0.411153 1.03258
1.37725 1.06838 2.72604
0.735327 -0.645786 1.68557
-1.38691 -0.647886 1.68377
-0.32513 -1.28934 -0.0285771
-1.38226 -0.637029 -1.73334
0.732159 -0.638086 -1.73767
1.37073 1.07366 -2.77299
2.44884 0.414351 -1.08683
3.09615 2.11877 -0.0279029
-2.691 4.53286 0.514516
-2.33811 4.47642 1.42002
-1.80667 5.06586 0.847457
-2.72891 2.6762 2.34129
-2.67854 3.58383 1.98057
-3.27846 3.01665 1.45371
-0.868014 4.47856 2.3587
-1.78271 4.13181 2.31778
-1.20371 3.60923 2.90712
-0.884444 5.36743 0.861238
-1.26611 5.40577 -0.0309797
0.209145 4.46554 2.33461
-0.326677 5.00863 1.74775
0.600799 5.41175 -0.0321415
0.225389 5.3611 0.862287
1.14147 5.05961 0.849097
-0.882359 5.37572 -0.928607
-1.82282 5.09637 -0.927256
1.15242 5.06511 -0.904915
0.223392 5.37855 -0.929198
-0.874103 4.51327 -2.45107
-0.335493 5.03325 -1.82866
0.213642 4.48819 -2.42613
-2.34997 4.4954 -1.49223
-2.70387 4.54718 -0.577688
-1.22379 3.62164 -2.99322
-1.79019 4.15363 -2.39766
-3.28531 3.02334 -1.5179
-2.69314 3.59445 -2.05204
-2.73219 2.68351 -2.40488
-3.23417 3.92778 -0.0294739
-3.60138 2.13049 -0.957786
-3.57391 3.0291 -0.584685
-3.57685 3.02565 0.526074
-3.6142 2.13008 0.914993
1.65859 4.4523 1.40635
2.00355 4.49882 0.505936
0.549758 3.58834 2.88434
1.1073 4.10643 2.2857
2.60405 3.00513 1.44349
1.99888 3.56436 1.95451
2.05831 2.66719 2.32622
-1.22212 2.68236 3.20971
-0.33271 3.04895 3.2238
-2.73 1.58613 2.33711
-2.12439 2.12615 2.86947
-0.325078 1.18901 3.24061
-1.22139 1.57197 3.19529
-1.20686 0.639588 2.92352
-3.56884 1.23171 0.52621
-3.27273 1.24993 1.45731
-3.25875 1.24473 -1.50044
-3.57008 1.23224 -0.582018
-2.70078 -0.277291 0.522035
-3.23436 0.330351 -0.0291267
-2.70127 -0.276837 -0.576996
-2.1212 2.13267 -2.93551
-2.70851 1.58794 -2.38064
-0.32803 3.07612 -3.32392
-1.2307 2.6912 -3.28774
-1.19935 0.651123 -2.95604
-1.22046 1.58224 -3.2514
-0.325108 1.19498 -3.28066
1.11257 4.12883 -2.36895
0.544547 3.6065 -2.95676
2.02543 4.51334 -0.576586
1.66536 4.46326 -1.47114
2.04552 2.66829 -2.37312
1.99417 3.56549 -2.0117
2.59464 3.00366 -1.49657
2.05602 -0.290062 0.518501
1.68909 -0.236346 1.42716
1.16901 -0.833464 0.855328
2.06699 1.57298 2.33311
2.03306 0.670932 1.98408
2.63081 1.22997 1.45647
0.219478 -0.243189 2.38149
1.12662 0.112819 2.32242
0.553376 0.644161 2.91497
0.230216 -1.1271 0.870629
0.621712 -1.16762 -0.0281406
-0.877767 -0.251255 2.37329
-0.325494 -0.790029 1.77539
-1.26312 -1.16729 -0.0276615
-0.882864 -1.13348 0.874557
-1.81487 -0.831007 0.863778
0.230823 -1.12635 -0.928301
1.15932 -0.827043 -0.9157
-1.81708 -0.830913 -0.911487
-0.883975 -1.12423 -0.923778
0.217951 -0.232563 -2.42676
-0.327826 -0.778979 -1.82148
-0.868862 -0.235147 -2.42989
1.68442 -0.230307 -1.4783
2.05383 -0.287431 -0.574705
0.555563 0.651397 -2.9538
1.12488 0.125174 -2.37266
2.62564 1.23247 -1.50902
2.02177 0.678052 -2.03065
2.05531 1.57696 -2.37846
2.59772 0.323117 -0.028291
2.9519 2.11977 -0.956295
2.93657 1.22688 -0.584207
2.93896 1.21933 0.529829
2.95383 2.12555 0.911033
0.565902 1.56808 3.20412
1.45847 2.12743 2.85679
0.562716 2.67323 3.19578
-2.34425 -0.235093 1.43266
-1.78377 0.111405 2.32754
-2.68368 0.668891 1.98738
-1.77537 0.123125 -2.37029
-2.33794 -0.226975 -1.48391
-2.66483 0.681968 -2.02065
1.44826 2.12796 -2.89799
0.559382 1.57525 -3.24249
0.557101 2.67988 -3.23222
2.90606 3.01386 0.523405
2.89297 3.01609 -0.576911
2.55198 3.90447 -0.0287252
-2.42023 4.80987 0.239738
-2.27881 4.83048 0.694376
-1.97937 5.07437 0.40593
-2.74621 4.18248 1.2383
-2.53682 4.52765 0.98161
-2.92155 4.20047 0.779425
-1.60528 5.00067 1.27035
-2.09133 4.79836 1.14934
-1.87203 4.71175 1.56822
-3.00791 2.40505 2.07519
-3.03838 2.85897 1.92634
-3.28595 2.57707 1.62641
-2.3795 3.39904 2.38827
-2.73031 3.13905 2.18291
-2.40436 2.93602 2.56072
-3.21403 3.43965 1.25193
-3.00651 3.31366 1.73733
-2.92121 3.72717 1.52129
-0.59618 4.20826 2.63311
-1.05749 4.07067 2.66806
-0.76263 3.77668 2.90604
-1.59902 4.53676 2.02027
-1.33466 4.3317 2.36125
-1.13951 4.70843 2.03365
-1.62845 3.4108 2.84907
-1.51239 3.88623 2.64081
-1.92514 3.67678 2.55745
-2.54049 4.05386 1.72241
-2.25276 3.8824 2.1788
-2.08466 4.33333 1.89495
-1.54449 5.27385 0.41684
-1.7081 5.25292 -0.0358342
-1.13608 5.15163 1.28241
-1.35453 5.24277 0.865124
-0.801829 5.50433 -0.0294319
-1.07975 5.42145 0.419596
-0.603919 5.49414 0.422401
-0.0591547 4.20743 2.61933
-0.327579 4.50522 2.37629
0.199083 4.97768 1.72793
-0.05314 4.76274 2.06217
0.469248 4.68824 2.01321
-0.60263 4.77161 2.07144
-0.864226 4.98208 1.7336
1.05418 5.23667 -0.0302144
0.888824 5.27761 0.415733
1.31819 5.06185 0.404011
-0.0498952 5.49917 0.420432
0.422833 5.41789 0.421075
0.139788 5.51093 -0.0324864
0.942872 4.98449 1.2591
0.694168 5.24658 0.864892
0.482546 5.14737 1.2789
-0.612493 5.23409 1.32545
-0.0472979 5.22646 1.3245
-0.332192 5.41483 0.873914
-1.55641 5.3003 -0.484055
-1.99234 5.09661 -0.485716
-0.604209 5.49814 -0.482245
-1.08414 5.426 -0.487165
-1.61941 5.03604 -1.34419
-1.36894 5.27838 -0.942095
-1.1493 5.19255 -1.36028
1.32036 5.07722 -0.478249
0.893964 5.2768 -0.477323
0.483593 5.17211 -1.34894
0.699703 5.2517 -0.928901
0.946812 5.00812 -1.33963
0.423792 5.42518 -0.481795
-0.0494234 5.50376 -0.486684
-0.599847 4.2396 -2.72922
-0.335213 4.54074 -2.47193
-0.0584267 4.22956 -2.71767
-0.872233 5.01605 -1.81811
-0.607168 4.80957 -2.16141
-1.14734 4.74044 -2.11893
0.477212 4.71032 -2.09875
-0.0581396 4.79183 -2.14796
0.208999 4.99434 -1.79813
-0.332364 5.42144 -0.942127
-0.0452454 5.24522 -1.39206
-0.617027 5.24675 -1.39846
-2.29064 4.85664 -0.763402
-2.43866 4.81414 -0.312861
-1.88672 4.74002 -1.64277
-2.10408 4.82312 -1.22215
-2.93057 4.2218 -0.841876
-2.55474 4.54357 -1.04942
-2.75992 4.19858 -1.30788
-0.783429 3.7955 -3.0023
-1.05884 4.09639 -2.7576
-1.93867 3.69111 -2.63362
-1.51599 3.90602 -2.72371
-1.64738 3.41893 -2.92653
-1.344 4.35835 -2.44672
-1.60826 4.56145 -2.09981
-3.28618 2.57175 -1.69177
-3.04524 2.86266 -1.98762
-3.01314 2.4036 -2.12921
-2.93121 3.73797 -1.58974
-3.01934 3.32105 -1.80432
-3.22214 3.44697 -1.31716
-2.41393 2.9427 -2.63155
-2.73961 3.14922 -2.25279
-2.39369 3.40967 -2.46317
-2.09478 4.35241 -1.9703
-2.26803 3.89758 -2.25497
-2.55103 4.06845 -1.79436
-2.72975 4.56325 -0.031448
-3.20324 3.90895 -0.568277
-2.99808 4.25628 -0.308554
-2.9939 4.24646 0.245524
-3.19929 3.90498 0.508622
-3.43881 2.13239 -1.39989
-3.48522 2.5828 -1.25427
-3.69429 2.58293 -0.30994
-3.62231 2.58458 -0.78082
-3.70101 2.12915 -0.497555
-3.46636 3.03668 -1.06331
-3.37883 3.45235 -0.850628
-3.48931 2.58025 1.19754
-3.45582 2.1279 1.3485
-3.37307 3.45315 0.788735
-3.45996 3.03105 1.00003
-3.71075 2.13015 0.449986
-3.62928 2.58157 0.722792
-3.70243 2.58345 0.251781
-3.44365 3.49327 -0.312768
-3.62049 3.04069 -0.028423
-3.44606 3.49306 0.251253
1.60102 4.8067 0.688093
1.75724 4.78912 0.241459
1.19943 4.67952 1.54636
1.41344 4.77537 1.13675
2.22874 4.17626 0.766968
1.85753 4.49925 0.969908
2.05951 4.15402 1.22465
0.111244 3.75988 2.88926
0.389261 4.04922 2.63675
1.25591 3.65857 2.53446
0.840728 3.86376 2.60826
0.970058 3.39185 2.82489
0.669436 4.30565 2.33027
0.924395 4.51341 1.99853
2.60942 2.56249 1.61783
2.36593 2.84508 1.91041
2.34058 2.39598 2.05386
2.24279 3.71005 1.50848
2.32559 3.29798 1.71604
2.53658 3.4245 1.24271
1.73301 2.92549 2.53359
2.05589 3.12552 2.16596
1.70452 3.38205 2.35919
1.40789 4.31135 1.87668
1.577 3.8591 2.14949
1.86216 4.03491 1.70787
-0.7746 3.34517 3.10919
-0.333085 3.49247 3.07073
-1.6443 2.94367 3.0073
-1.23168 3.15212 3.09184
-0.327247 2.60077 3.3211
-0.78451 2.87318 3.25581
-0.778316 2.40738 3.32528
-3.00581 1.84989 2.07402
-2.75779 2.12988 2.37479
-2.09976 1.59271 2.83067
-2.44476 1.85323 2.63491
-2.3968 1.31652 2.55566
-2.44567 2.40674 2.6364
-2.1041 2.65981 2.83579
-0.325966 0.738694 3.09331
-0.77731 0.89699 3.12559
-0.764183 0.466485 2.93138
-0.780867 1.84398 3.32094
-0.77594 1.37859 3.25262
-0.327994 1.65387 3.33667
-1.63298 0.839934 2.86108
-1.22768 1.09517 3.08737
-1.64146 1.31454 3.00052
-1.69327 2.40595 3.08048
-1.68732 1.84983 3.07976
-1.23901 2.1252 3.25256
-3.48634 1.6801 1.197
-3.28241 1.6788 1.62517
-3.69899 1.67711 0.251323
-3.62381 1.67577 0.722208
-3.20914 0.823979 1.25592
-3.45109 1.22657 0.998865
-3.36744 0.808089 0.787689
-3.26545 1.68441 -1.67333
-3.47203 1.68122 -1.24654
-3.36098 0.811486 -0.840066
-3.44736 1.22981 -1.05384
-3.19767 0.820298 -1.30179
-3.61983 1.67656 -0.778428
-3.69295 1.67505 -0.309066
-2.43115 -0.568084 0.243594
-2.73171 -0.30937 -0.0275039
-2.43096 -0.567286 -0.300087
-3.19166 0.352371 0.505178
-2.99816 0.00281696 0.249308
-2.92111 0.0494128 0.783517
-2.9223 0.0447575 -0.83758
-2.99536 0.00474175 -0.30551
-3.2003 0.351392 -0.565863
-3.6119 1.21956 -0.0281702
-3.44257 0.763816 -0.309625
-3.4381 0.763701 0.252532
-2.75497 2.13289 -2.42992
-2.99398 1.85725 -2.12308
-2.10515 2.67029 -2.90907
-2.44882 2.41139 -2.69673
-2.38576 1.33208 -2.5958
-2.44016 1.85775 -2.68644
-2.09154 1.59996 -2.88639
-0.333715 3.51382 -3.16825
-0.778849 3.3615 -3.20556
-0.786683 2.41658 -3.40482
-0.782152 2.88781 -3.34559
-0.334395 2.60549 -3.41129
-1.23325 3.16667 -3.17884
-1.65388 2.95227 -3.0848
[...]
POINT_DATA 642
SCALARS Mean_Curvature double 1
LOOKUP_TABLE default
0.639064
0.676995
0.641668
0.600835
0.653458
0.68609
0.605003
0.658662
0.56205
0.607564
0.653924
0.616513
0.59675
0.592244
0.572335
0.63906
0.559284
0.618716
0.586744
0.593551
0.621437
0.573358
0.54188
0.639529
0.510172
0.566704
0.628123
0.541702
0.602443
0.465928
0.460867
0.65451
0.588463
0.568056
0.603469
0.564321
0.533154
0.562602
0.598092
0.608301
0.580847
0.657232
0.579694
0.59042
0.567879
0.580634
0.586657
0.574621
0.567344
0.602671
0.575624
0.6117
0.523448
0.523908
0.515853
0.644058
0.549126
0.670614
0.465253
0.622855
0.548134
0.62412
0.611182
0.510188
0.494454
0.567626
0.610047
0.56229
0.595443
0.597222
0.603447
0.565188
0.568943
0.531646
0.54433
0.564285
0.61905
0.614631
0.435954
0.605587
0.522739
0.624796
0.521159
0.619519
0.598083
0.499936
0.604189
0.576811
0.521731
0.468846
0.611097
0.55677
0.572721
0.549011
0.607937
0.533484
0.59498
0.559758
0.611978
0.470813
0.642332
0.596108
0.591142
0.541518
0.580092
0.612845
0.494398
0.671675
0.545175
0.616502
0.523802
0.625604
0.596986
0.572424
0.599108
0.573818
0.595168
0.592966
0.57773
0.572162
0.58474
0.558798
0.633286
0.551281
0.619565
0.549438
0.605985
0.542403
0.613014
0.559561
0.628529
0.535781
0.583415
0.566081
0.605719
0.572663
0.595958
0.574822
0.582807
0.664338
0.564188
0.584021
0.585312
0.590413
0.590674
0.609312
0.568724
0.576805
0.554676
0.631344
0.631936
0.560552
0.667791
0.575614
0.618681
0.518788
0.534775
0.577638
0.365024
0.606474
0.529198
0.640125
0.518882
0.585317
0.517707
0.581873
0.584182
0.5735
0.57396
0.598771
0.571348
0.585276
0.606536
0.58215
0.582253
0.58017
0.589384
0.571751
0.597376
0.575468
0.570629
0.639916
0.573147
0.606819
0.562173
0.620255
0.579776
0.606458
0.573965
0.583868
0.575959
0.594388
0.511948
0.580976
0.483551
0.54467
0.5689
0.610928
0.557141
0.622045
0.581312
0.68104
0.505911
0.519553
0.560266
0.613092
0.53683
0.649322
0.533918
0.640516
0.530206
0.61934
0.538065
0.657555
0.550993
0.622595
0.555865
0.642962
0.661482
0.613936
0.546884
0.5142
0.580623
0.703449
0.660967
0.680563
0.569035
0.623702
0.550334
0.62635
0.554949
0.628334
0.608612
0.656668
0.618803
0.662099
0.640416
0.607242
0.548526
0.52692
0.551789
0.60124
0.551587
0.507309
0.634623
0.584653
0.594507
0.566136
0.628474
0.585443
0.603965
0.610313
0.612386
0.559331
0.574662
0.557981
0.574114
0.565581
0.635966
0.582819
0.618629
0.553405
0.629295
0.563848
0.609336
0.594497
0.607339
0.564202
0.600671
0.558498
0.564589
0.557893
0.588191
0.537773
0.599823
0.462266
0.611783
0.534543
0.549513
0.552975
0.655335
0.592445
0.619747
0.571875
0.607062
0.567731
0.608296
0.55031
0.608636
0.51047
0.611013
0.554899
0.504989
0.697404
0.414899
0.556107
0.504949
0.615177
0.488262
0.53582
0.488315
0.671227
0.518619
0.627064
0.506146
0.608815
0.517802
0.63064
0.515687
0.640184
0.505062
0.616062
0.539337
0.646075
0.538562
0.649315
0.523271
0.654107
0.579573
0.638523
0.572669
0.62466
0.497395
0.647182
0.581297
0.579937
0.60477
0.557938
0.598331
0.509531
0.592109
0.58246
0.645936
0.655594
0.610968
0.523355
0.513292
0.62505
0.692773
0.533674
0.50072
0.574573
0.588949
0.652538
0.631036
0.577609
0.611655
0.52892
0.570078
0.528416
0.607142
0.516888
0.587207
0.509614
0.599487
0.522165
0.600095
0.561563
0.613517
0.544581
0.634285
0.509896
0.646088
0.579658
0.629384
0.560525
0.624753
0.555432
0.590357
0.537007
0.625671
0.56014
0.598523
0.568178
0.494465
0.601609
0.638955
0.617145
0.607141
0.632891
0.64277
0.663789
0.6303
0.582856
0.566086
0.566494
0.587494
0.413799
0.53939
0.562251
0.452578
0.514815
0.595791
0.570962
0.625456
0.61182
0.488103
0.661843
0.534088
0.604211
0.505562
0.597635
0.516378
0.671087
0.536265
0.684607
0.538752
0.641572
0.551483
0.634537
0.548662
0.628161
0.52717
0.623352
0.464492
0.538617
0.525423
0.60636
0.491046
0.63991
0.546619
0.638639
0.609949
0.561991
0.611244
0.578908
0.605499
0.576445
0.590913
0.559068
0.592225
0.582811
0.577863
0.649275
0.580499
0.622082
0.529355
0.59698
0.597262
0.590603
0.611486
0.553183
0.571647
0.566259
0.596245
0.552249
0.563595
0.575173
0.569826
0.582997
0.58978
0.565051
0.616188
0.564525
0.614483
0.54402
0.558228
0.558563
0.570692
0.571911
0.610741
0.526069
0.611218
0.552805
0.606736
0.53536
0.621161
0.522794
0.601546
0.525509
0.615954
0.575195
0.632985
0.560195
0.639128
0.529501
0.608714
0.551229
0.62092
0.579344
0.583546
0.52659
0.589255
0.5418
0.605506
0.54889
0.622361
0.547453
0.595641
0.543123
0.626817
0.571477
0.57951
0.570542
0.595276
0.571691
0.588598
0.581598
0.609535
0.574384
0.614197
0.559709
0.626995
0.533565
0.613819
0.57313
0.580393
0.565437
0.590316
0.583218
0.592672
0.581672
0.578333
0.593851
0.577477
0.591619
0.597012
0.581974
0.55612
0.634383
0.531263
0.601297
0.569893
0.589619
0.533458
0.623901
0.561437
0.569419
0.563861
0.582138
0.597181
0.581313
0.588317
0.574449
0.588505
0.58666
0.602235
0.653444
0.59347
0.612535
0.59881
0.588355
0.587362
0.627905
0.579748
0.589177
0.579225
0.641351
0.59444
0.582584
0.588107
0.570655
0.557041
0.587333
0.561386
0.593719
0.548188
0.59605
0.558024
0.627092
0.539024
0.600755
0.479962
0.60111
0.527215
0.616001
0.542898
0.607333
0.558965
0.615512
0.622722
0.550922
0.625154
0.546435
0.645219
0.546396
0.626458
0.567461
0.635435
0.573667
0.602646
0.570978
0.527413
0.456877
0.66781
0.555519
0.616413
0.547486
0.617126
0.567424
0.607622
0.598821
0.659122
0.557909
0.619123
0.559503
0.629298
0.548523
0.573268
0.518363
0.58639
0.540495
0.604492
0.554301
0.630032
0.583873
0.547859
0.601645
0.547363
0.619498
0.479361
0.588704
0.512827
0.589154
0.542026
0.586104
0.625193
0.605123
0.57914
0.736674
0.445847
0.596412
0.533722
0.588344
0.512756
0.571238
0.501383
0.62204
0.484624
0.606456
0.550693
0.644932
0.494439
0.570526
0.514382
0.643691
0.472779
0.546495
0.495722
0.623271
0.528311
0.631291
SCALARS Redistribution_Potential double 1
LOOKUP_TABLE default
4.69781e-22
-1.35582
0.929011
0.476613
0.264948
-0.99169
-0.0142426
-0.239151
-0.91288
-0.844617
0.550909
0.467042
0.265386
-0.141552
-0.569535
-1.35964
-0.692041
-0.808034
0.1156
0.392995
0.556616
0.666175
-1.17412
-1.4611
0.413159
-0.446524
0.740601
0.85531
-0.254984
0.311766
-1.3105
-0.916224
0.0307957
-0.274019
0.563934
0.884828
0.829035
0.630944
0.316023
-0.481165
-0.10241
-0.820221
0.132401
-0.111061
-0.292756
0.207335
0.0764252
0.375768
-0.817108
-0.378746
-0.567478
-0.666654
-0.327911
-1.22185
-1.0006
-1.05512
-1.07076
-1.39046
-0.252207
0.10486
-1.08887
-0.7276
-0.0117873
-0.318888
-0.501789
0.42063
0.339652
0.147341
0.34341
0.610279
0.557358
0.507984
0.439859
0.643909
0.615196
0.533572
0.601375
-1.51441
-1.48104
-1.17129
-1.38165
-1.22005
-1.36311
-1.06996
-0.33897
-0.753872
0.444427
0.124421
-0.0846507
0.0169193
0.344227
0.759388
0.673915
0.617669
0.723244
0.94712
0.85883
0.87395
0.323233
0.455121
-0.237549
0.101429
0.126527
0.0456376
-0.196992
-0.892852
-0.610736
-1.39656
-1.16398
-1.02326
-1.14622
-1.18521
0.314608
0.342249
0.573722
-0.562199
-0.0924657
-0.379696
0.447542
0.210252
0.000614712
0.778768
0.672575
0.639966
0.752591
0.921442
0.920766
0.974427
0.629048
0.441448
0.830121
0.784541
0.141033
0.4914
0.321707
0.138695
0.234887
-0.250078
-0.0716845
-0.52164
-0.306962
-0.703795
0.0351376
-0.869088
-0.413517
-0.357539
-0.812245
-0.411218
-0.766221
-0.866007
0.916425
0.706681
0.708148
0.438127
0.720123
0.550786
-0.770733
-0.472435
-0.555654
-1.20241
-1.1799
-1.43589
0.0675228
-0.0716182
-0.143453
0.0926355
0.00886771
0.203019
-0.432745
-0.210075
-0.336245
0.349581
0.292609
0.422408
-0.0316787
0.140786
0.0429225
0.324545
0.23453
0.177985
-0.917153
-0.710054
-0.785446
-0.484794
-0.600452
-0.703233
-0.350584
-0.481167
-0.262726
-0.00960282
-0.133303
-0.239672
-0.317611
-0.161197
-0.621072
-0.479536
-0.508613
-0.506991
-0.680816
-1.12559
-1.04047
-1.20834
-1.13017
-1.30335
-0.924613
-0.799116
-1.21087
-1.24241
-1.36491
-0.897269
-1.06601
-0.879866
-1.37038
-1.2524
-1.23046
-0.845599
-1.04657
-0.876547
-0.110014
0.0576584
-0.476401
-0.28539
0.125182
-0.0682951
-0.058002
-1.23361
-1.07064
-0.763187
-0.914017
-0.954317
-0.890486
-0.707771
-0.1171
-0.255617
-0.366115
-0.0908643
-0.160377
0.0699403
-0.65321
-0.407486
-0.568887
-0.488236
-0.516822
-0.26569
0.236346
0.185784
0.287167
0.28029
0.466497
0.394986
0.504092
-0.0306527
0.0833654
0.391269
0.256608
0.288269
0.183577
0.255286
0.584952
0.575329
0.530271
0.582054
0.592336
0.604395
0.460393
0.546568
0.492816
0.413949
0.479299
0.524459
0.240309
0.512264
0.39215
0.302729
0.35449
0.612884
0.615127
0.63954
0.634298
0.663761
0.614537
0.594313
0.499309
0.547224
0.413588
0.46064
0.641182
0.568288
0.608681
0.561976
0.58496
0.496794
-1.45964
-1.45848
-1.43323
-1.47254
-1.49167
-1.51959
-1.49431
-1.09285
-1.21645
-1.32434
-1.28778
-1.20172
-1.32274
-1.41035
-1.03171
-1.15643
-0.958753
-1.43612
-1.30528
-1.3631
-1.13043
-1.2448
-1.28194
-1.4755
-1.39511
-1.48327
-0.684996
-0.892502
-0.244607
-0.462624
-0.607998
-0.558757
-0.409626
0.458837
0.320273
0.266854
0.290642
0.436592
0.160014
-0.0104875
0.0925081
0.13139
0.305922
-0.214427
-0.0457241
-0.275139
0.376449
0.178223
0.224151
-0.0907902
0.0642674
-0.169819
0.634
0.576839
0.704377
0.686212
0.768211
0.729511
0.801537
0.579117
0.627645
0.745275
0.67366
0.678252
0.670379
0.705288
0.947923
0.92523
0.90956
0.879101
0.90413
0.911826
0.809038
0.876942
0.813233
0.766451
0.796794
0.828
0.465134
0.508787
0.364693
0.424921
0.384556
0.385232
0.292433
-0.229104
-0.03774
-0.0826016
-0.0587607
-0.250674
0.130547
0.26216
0.0508336
-0.0351258
-0.120455
0.192227
0.0700478
0.21717
-0.229126
-0.0823161
-0.103495
0.235565
0.0647252
0.194077
-0.561596
-0.434659
-0.845317
-0.714151
-0.776215
-0.760733
-0.907568
-1.38736
-1.26265
-1.29242
-1.28315
-1.37769
-1.13299
-1.01209
-0.987388
-1.11593
-1.05362
-1.04968
-1.09257
-0.990133
-1.25527
-1.20131
-1.23601
-1.03844
-1.16617
-1.05635
0.408485
0.456857
0.53682
0.199591
0.337821
0.190662
0.582002
0.473858
0.458646
-0.705882
-0.473817
-0.615877
-0.184174
-0.326314
-0.417922
-0.160904
-0.233496
-0.0151711
0.360932
0.239528
0.137243
0.408748
0.328716
0.522144
-0.136674
0.106025
-0.0253926
0.152891
0.0689361
0.296561
0.640644
0.58624
0.688743
0.683185
0.755476
0.73906
0.816141
0.468437
0.54268
0.832259
0.702369
0.780409
0.613569
0.67111
0.933271
0.96485
0.963189
0.895881
0.93134
0.884072
0.941447
0.95917
0.917042
0.794824
0.865644
0.868799
0.569487
0.472333
0.742067
0.66701
0.385572
0.540992
0.485595
0.899037
0.883476
0.718198
0.80871
0.745884
0.856641
0.821499
0.0552614
0.234087
0.152739
0.408208
0.319641
0.234781
0.48112
0.409025
0.559797
0.723007
0.652384
0.582533
0.34305
0.368296
0.230412
0.298081
0.0784916
0.194486
0.0247249
-0.132838
-0.0601027
-0.28022
-0.174425
-0.367539
0.0329475
0.132468
-0.731286
-0.630695
-0.808419
-0.201626
-0.412584
-0.304804
-0.59045
-0.519787
-0.405071
0.0432948
-0.180365
-0.0698185
0.290041
-0.0159484
0.145022
0.186521
0.0512366
-0.89875
-0.692959
-0.610438
-0.647064
-0.840958
-0.46353
-0.245002
-0.598366
-0.830376
-0.152062
-0.360959
-0.807725
-0.585143
-0.584111
-0.167938
-0.363594
-0.134655
-0.0544743
-0.352866
-0.208037
-0.256001
-0.445454
-0.829966
-0.987178
-0.930945
-0.675427
-0.527771
-0.972557
-0.665145
-0.826986
-1.03818
-1.03067
-0.593578
-0.825062
-0.645181
0.965296
0.918627
0.954287
0.947494
0.892196
0.506278
0.561368
0.540712
0.67244
0.81359
0.575058
0.803237
0.696246
0.588868
0.573646
0.847449
0.720932
0.842056
0.209621
0.535935
0.37706
0.280928
0.347416
0.865451
0.737983
0.810681
0.780353
0.688866
0.530635
0.432622
0.479017
0.585799
0.649446
0.601329
0.632492
0.504216
-0.880942
-0.648518
-0.763133
-0.909173
-0.854814
-0.250898
-0.378107
-0.338825
-0.378328
-0.504335
-0.426489
-0.753981
-0.605642
-0.425721
-0.39931
-0.627126
-0.534121
-0.708986
-1.02387
-1.01654
-1.01404
-1.21687
-1.33993
-1.06014
-1.28408
-1.19867
-1.03241
-1.02353
-1.44834
-1.45968
-1.46658
-1.4366
-1.37237
-1.19787
-1.31269
-1.35199
SCALARS CoVolArea double 1
LOOKUP_TABLE default
0.178173
0.175407
0.175595
0.17883
0.175499
0.174135
0.172623
0.178145
0.173018
0.178211
0.177311
0.180719
0.232161
0.234582
0.23137
0.230335
0.231676
0.231555
0.235684
0.234798
0.236032
0.233634
0.229179
0.230506
0.233264
0.232261
0.233054
0.234541
0.232272
0.231775
0.230011
0.229792
0.234958
0.232816
0.234691
0.234995
0.235187
0.23509
0.233298
0.232016
0.233828
0.232729
0.223318
0.244634
0.221392
0.220882
0.245193
0.222141
0.221376
0.243522
0.22099
0.243008
0.220472
0.217606
0.242274
0.221796
0.243617
0.219605
0.245497
0.221986
0.220074
0.244712
0.22429
0.246392
0.222251
0.247368
0.221569
0.223442
0.247316
0.223718
0.246938
0.222974
0.245876
0.221011
0.244661
0.245036
0.220613
0.240946
0.2176
0.218108
0.239547
0.21991
0.240794
0.219621
0.243439
0.218284
0.222048
0.24291
0.221069
0.24282
0.221906
0.244706
0.220547
0.220467
0.243823
0.223992
0.244917
0.222976
0.243899
0.219342
0.220424
0.24551
0.221003
0.243453
0.219522
0.242364
0.219296
0.218065
0.242447
0.219232
0.241825
0.218727
0.224281
0.245175
0.223323
0.219357
0.245751
0.222241
0.223347
0.246147
0.222666
0.246154
0.221409
0.222046
0.245917
0.224142
0.245749
0.223719
0.245474
0.221524
0.222208
0.244835
0.222802
0.244527
0.221392
0.245089
0.22236
0.219088
0.243922
0.222882
0.244618
0.220611
0.245425
0.219544
0.246416
0.246394
0.220937
0.241968
0.24352
0.242184
0.245457
0.246314
0.245806
0.244246
0.244487
0.242731
0.241733
0.240752
0.241604
0.242363
0.242541
0.240954
0.215946
0.222969
0.215712
0.241145
0.224189
0.22108
0.220462
0.224775
0.242323
0.21825
0.223952
0.218199
0.242069
0.224895
0.219485
0.220084
0.224912
0.241276
0.212771
0.222649
0.212687
0.240774
0.224565
0.21962
0.220153
0.223236
0.240476
0.270136
0.269236
0.269924
0.221773
0.216443
0.239434
0.222744
0.221382
0.223152
0.240021
0.213104
0.219527
0.236764
0.220163
0.215842
0.223519
0.239255
0.215306
0.222954
0.214538
0.24004
0.223175
0.218913
0.216798
0.221284
0.238499
0.26884
0.268376
0.269295
0.224008
0.218311
0.242039
0.226151
0.221644
0.22556
0.242579
0.2129
0.221877
0.239897
0.225443
0.220859
0.22458
0.240863
0.216432
0.224148
0.216483
0.241821
0.225331
0.223198
0.220431
0.225935
0.242045
0.269817
0.270996
0.271101
0.223992
0.216339
0.245652
0.22678
0.222554
0.226656
0.243942
0.217996
0.225485
0.243645
0.227108
0.222034
0.227691
0.244383
0.217254
0.225878
0.216881
0.243599
0.22604
0.221021
0.221192
0.226201
0.243801
0.273407
0.272655
0.272703
0.223828
0.244001
0.225836
0.225739
0.241381
0.216762
0.224359
0.241733
0.224546
0.219394
0.224782
0.242413
0.222844
0.216206
0.242171
0.224851
0.220821
0.224527
0.24193
0.270973
0.270174
0.271295
0.22046
0.213051
0.238445
0.220789
0.217934
0.221014
0.238535
0.214608
0.220886
0.237025
0.220785
0.215547
0.220492
0.237141
0.21538
0.221982
0.215618
0.237509
0.222129
0.217016
0.217354
0.222269
0.238344
0.265164
0.265035
0.265536
0.221727
0.213367
0.2422
0.223089
0.217769
0.221543
0.240826
0.216698
0.223086
0.241212
0.224017
0.220927
0.222721
0.241146
0.21435
0.223103
0.216198
0.240063
0.22407
0.218791
0.220774
0.223594
0.241079
0.270035
0.268743
0.269457
0.222251
0.215847
0.241973
0.225167
0.221645
0.224826
0.242316
0.216996
0.222347
0.240807
0.223512
0.218857
0.223535
0.240858
0.217213
0.225833
0.21749
0.241747
0.225234
0.220484
0.220699
0.225361
0.242243
0.270089
0.269761
0.270201
0.223688
0.215956
0.242377
0.224948
0.218519
0.223767
0.240091
0.216929
0.223974
0.240703
0.22516
0.219743
0.22658
0.242532
0.212538
0.221078
0.212651
0.23997
0.222999
0.219525
0.218841
0.223241
0.240817
0.270095
0.270303
0.268696
0.221626
0.216595
0.23956
0.222591
0.217948
0.222328
0.238641
0.2147
0.219983
0.237286
0.220975
0.216077
0.224264
0.240178
0.212393
0.220778
0.21348
0.23811
0.22166
0.216567
0.21705
0.22114
0.238448
0.268021
0.267174
0.267483
0.217622
0.225596
0.216875
0.243086
0.226288
0.222852
0.222325
0.225884
0.242072
0.216024
0.222525
0.216638
0.240831
0.223328
0.219065
0.220296
0.225341
0.244004
0.216095
0.223738
0.215064
0.24157
0.224965
0.222207
0.219661
0.225683
0.242264
0.272801
0.272925
0.27163
0.224611
0.216382
0.243981
0.226719
0.221515
0.225856
0.243161
0.217727
0.22443
0.243016
0.226034
0.221338
0.226198
0.242742
0.218046
0.226506
0.217578
0.2424
0.225577
0.220534
0.220932
0.226111
0.243295
0.271622
0.271289
0.271156
0.223447
0.218815
0.242766
0.225454
0.220749
0.225267
0.2428
0.215953
0.224811
0.242231
0.22478
0.220643
0.22475
0.241803
0.214409
0.223757
0.213939
0.241943
0.22541
0.221037
0.221296
0.224279
0.242168
0.271068
0.271048
0.270438
0.2242
0.217983
0.241098
0.224528
0.222208
0.225848
0.242701
0.212847
0.221336
0.238766
0.221612
0.216998
0.225069
0.24106
0.21615
0.223947
0.214963
0.24177
0.223585
0.220224
0.217585
0.221558
0.240145
0.270604
0.27042
0.271349
0.224842
0.242393
0.225822
0.227472
0.243634
0.21373
0.222616
0.240291
0.223231
0.219078
0.225891
0.243763
0.22374
0.215498
0.241326
0.225562
0.220548
0.226799
0.242549
0.272579
0.272763
0.271459
0.222139
0.239192
0.221693
0.222861
0.239451
0.222633
0.238922
0.221744
0.222252
0.241831
0.220343
0.239047
0.221249
0.220502
0.237733
0.269904
0.268979
0.268005
0.226386
0.243003
0.225418
0.226128
0.242116
0.224984
0.242739
0.225965
0.225163
0.243315
0.222251
0.242912
0.225217
0.225449
0.241372
0.271808
0.272359
0.271459
0.222508
0.242779
0.224218
0.223875
0.240119
0.224685
0.242016
0.225659
0.225547
0.241253
0.222577
0.240445
0.222692
0.223525
0.239941
0.269167
0.268562
0.269231
0.221747
0.239889
0.221124
0.220298
0.238042
0.220892
0.238925
0.221473
0.221723
0.238243
0.22201
0.237921
0.222363
0.224135
0.239946
0.266904
0.266069
0.266212
0.221644
0.239889
0.221831
0.221786
0.238906
0.221907
0.238534
0.221652
0.223443
0.24077
0.220418
0.238397
0.221632
0.221536
0.237392
0.268397
0.266625
0.267323
SCALARS SignedDistance double 1
LOOKUP_TABLE default
3.06081
3.50304
2.63839
2.63561
2.9536
3.69528
3.27133
3.09515
3.46808
3.28266
3.20022
2.8049
2.85279
3.06363
3.31936
3.77617
3.10206
3.19834
2.65599
2.77057
2.69823
2.93193
3.57218
3.61848
3.18332
3.44135
3.00674
2.87413
3.65199
3.4885
3.69599
3.73292
2.6957
3.14048
2.72025
2.61833
2.90826
2.86775
2.90192
3.41269
2.87663
3.24224
2.9938
3.0342
3.23553
2.87894
2.90955
2.79781
3.48232
3.16669
3.35401
3.30157
3.12438
3.82802
3.60552
3.27334
3.40724
3.63637
3.03484
2.77475
3.27172
3.05954
2.80039
3.04037
3.22744
2.54363
2.80999
2.76162
2.55584
2.8713
2.61136
2.93993
2.91797
3.09577
2.99325
2.83226
2.84636
3.7475
3.74748
3.70979
3.72721
3.45444
3.58236
3.43265
3.31848
3.65688
2.97298
3.05091
3.21949
3.36078
3.08559
2.88865
2.93162
3.15013
2.99979
2.71979
2.89053
2.72948
3.18741
3.36401
3.31333
3.11029
3.38187
3.55657
3.50487
3.44222
3.51431
3.59513
3.4546
3.66529
3.69819
3.60661
2.59494
2.70284
2.667
3.2155
2.92478
2.96421
2.83605
2.90634
3.059
2.75582
2.78516
2.75586
2.68249
2.70546
2.75767
2.60275
2.81291
2.78561
2.73616
2.7719
3.10883
2.90651
3.06066
2.92435
2.69384
3.36065
3.1437
3.17728
3.18916
3.45784
2.6777
3.35541
2.96435
2.86839
3.23034
3.27478
3.35471
3.52501
2.63955
2.77397
2.94883
3.13981
2.91101
3.24717
3.63667
3.55909
3.77988
3.46334
3.50418
3.67238
3.08651
3.10332
3.20355
2.92693
3.00262
2.90779
3.2649
3.12596
3.16643
2.82607
2.81871
2.78329
2.97257
2.88369
2.95961
2.81959
2.83972
2.86919
3.58632
3.41832
3.52761
3.23849
3.31677
3.39232
3.1975
3.2502
3.10685
2.95955
3.02108
3.08748
3.23252
3.14715
3.39537
3.31752
3.0835
3.19609
3.17432
3.78561
3.67844
3.69364
3.74307
3.82188
3.57438
3.48879
3.38273
3.44874
3.56296
3.24251
3.33098
3.17746
3.70015
3.51977
3.59148
3.44327
3.50244
3.32457
3.02552
2.92448
3.03063
3.06158
2.68049
2.89434
2.83032
3.37072
3.24796
3.11076
3.15279
3.22224
3.14125
3.06675
2.93515
3.05106
3.19391
2.85628
2.93509
2.70115
3.19823
3.11961
3.09574
2.99191
3.01913
3.01658
2.76718
2.92009
2.56277
2.62061
2.72907
2.63693
2.59338
2.91018
2.74632
2.61913
2.64261
2.73482
2.62995
2.56594
3.04255
2.89025
3.0677
2.61673
2.71203
2.74063
2.84436
2.75729
2.66437
2.51112
2.54749
2.53173
2.98697
2.85186
2.90128
2.94004
2.86159
3.19729
3.09268
2.96383
3.04928
3.00811
2.94905
2.86208
2.79452
2.80163
2.81665
2.8059
2.87483
2.8509
2.87648
2.92757
2.89126
2.84719
3.72256
3.66754
3.78844
3.77475
3.68512
3.74961
3.67774