<VTKFile type="ImageData" version="1.0" byte_order="LittleEndian" header_type="UInt64">
	<ImageData WholeExtent="0 44 0 44 0 48" Origin="-0.13467 -0.00697991 -0.101969" Spacing="0.0053577 0.00532422 0.00418695">
		<Piece Extent="0 44 0 44 0 48">
			<PointData Scalars="Scalars_">
				<DataArray type="Float32" Name="Scalars_" format="ascii" RangeMin="0" RangeMax="100">
0.092108
0.0901853
0.08848
0.0870163
0.0858065
0.0848331
0.0840202
0.0832329
0.0824727
0.0819229
0.0822233
0.0816567
0.0811456
0.0814746
0.0813732
0.0805056
0.0798636
0.0799899
0.0805037
0.0802363
0.0795541
0.0791268
0.0796009
0.0796529
0.0791274
0.0788426
0.0792565
0.079922
0.0808647
0.0820904
0.0835913
0.0853405
0.0866799
0.0865103
0.0858035
0.0853444
0.084823
0.0838926
0.0831474
0.0827711
0.0833727
0.082623
0.0815708
0.080903
0.081571
0.0826263
0.084019
0.0857133
0.0876741
0.090581
0.0886165
0.0868805
0.0854007
0.0841932
0.083252
0.0825138
0.0818102
0.0810741
0.0805158
0.0809431
0.0805124
0.0800234
0.0803559
0.0806201
0.0798344
0.0791867
0.079146
0.0796618
0.0798163
0.0791216
0.0786302
0.0791023
0.0797863
0.079791
0.0795185
0.07993
0.080592
0.0815276
0.0827438
0.0841596
0.0849261
0.0846119
0.0836709
0.0829133
0.0824937
0.0821322
0.0812136
0.0804462
0.0800624
0.0807298
0.0802023
0.0791199
0.0784307
0.0791202
0.0802077
0.0816412
0.0833842
0.0854032
0.0893263
0.0873261
0.0855642
0.0840694
0.0828627
0.0819496
0.0812907
0.0807054
0.0800137
0.0794489
0.0799158
0.0797068
0.0792561
0.0795917
0.080186
0.0798199
0.0791125
0.0786396
0.0791606
0.0799328
0.0797919
0.0793061
0.0797756
0.0804701
0.0807958
0.0805849
0.0809929
0.0816486
0.0825742
0.0832988
0.0830268
0.0825563
0.0819493
0.0809968
0.0802226
0.079823
0.0796555
0.0787696
0.0779809
0.0775902
0.0782792
0.0780424
0.0769322
0.0762225
0.0769325
0.0780509
0.0795231
0.0813114
0.0833823
0.0883749
0.0863458
0.0845637
0.0830569
0.0818494
0.080957
0.0803718
0.0799524
0.0793419
0.0787729
0.0792447
0.0792671
0.0788853
0.0792235
0.0798278
0.0804128
0.0797881
0.0793155
0.0798331
0.0806098
0.0808467
0.0803732
0.0808377
0.081535
0.0820553
0.0819899
0.0823935
0.0827872
0.082247
0.0812526
0.080438
0.0799401
0.0794865
0.078555
0.0777611
0.0773626
0.0774081
0.076588
0.0757787
0.0753818
0.0760917
0.076171
0.0750386
0.0743095
0.0750386
0.0761857
0.0776937
0.079523
0.0816398
0.0877717
0.0857235
0.0839281
0.0824134
0.0812041
0.0803231
0.0797916
0.0796272
0.0797439
0.0793438
0.0798296
0.0799411
0.0795612
0.0798983
0.0804992
0.0812204
0.0808529
0.0803824
0.0808947
0.081669
0.0821861
0.08178
0.0822389
0.0829335
0.0835554
0.0828047
0.0817676
0.080833
0.0798865
0.0788218
0.0779886
0.0775197
0.0772612
0.0763742
0.0755604
0.0751557
0.0754013
0.0746996
0.0738714
0.0734688
0.0741979
0.0746185
0.0734739
0.0727279
0.0734739
0.0746462
0.0761857
0.0780505
0.0802065
0.0883848
0.0863527
0.0845719
0.0830691
0.0818696
0.0809957
0.0804672
0.0803032
0.080512
0.0802724
0.080771
0.0810044
0.0806282
0.0809625
0.0815588
0.0823318
0.0822558
0.0817893
0.0822943
0.0830629
0.083744
0.0834922
0.0839446
0.0836753
0.0820366
0.0805817
0.0794296
0.0785445
0.0777056
0.0766447
0.0757933
0.0753314
0.0752904
0.0744862
0.0736532
0.0732429
0.0736374
0.0731388
0.0722947
0.071887
0.0726329
0.0734118
0.072281
0.071521
0.072281
0.0734739
0.0750386
0.0769323
0.0791193
0.0893562
0.0873488
0.0855896
0.0841052
0.0829202
0.0820567
0.0815336
0.08137
0.0816083
0.081522
0.082032
0.0823955
0.082035
0.0823666
0.0829561
0.0837508
0.0839604
0.0835015
0.0839981
0.0847581
0.0855219
0.0851469
0.0837084
0.0817233
0.0799418
0.0784587
0.0773079
0.0764854
0.0758003
0.074759
0.0738883
0.0734197
0.0735858
0.0729264
0.0720769
0.0716612
0.0721116
0.0719478
0.0710914
0.07068
0.0714398
0.0725457
0.071521
0.0707514
0.071521
0.0727279
0.0743095
0.0762225
0.0784305
0.0898453
0.0886666
0.0869347
0.0854734
0.0843069
0.083456
0.08294
0.0827768
0.0830254
0.0830646
0.0835854
0.0840511
0.0837471
0.0840756
0.0846576
0.0854575
0.085885
0.0854726
0.0859062
0.0862838
0.0854015
0.0839358
0.0819929
0.0799459
0.0781232
0.0766118
0.0754532
0.0746777
0.0741968
0.0732009
0.0723134
0.071838
0.0721501
0.0717368
0.0708735
0.070454
0.0709104
0.0711852
0.0703247
0.0699106
0.07068
0.071887
0.072281
0.071521
0.072281
0.0734739
0.0750386
0.0769323
0.0791198
0.0877742
0.0883025
0.0878755
0.0871407
0.0859955
0.0851598
0.0846515
0.0844888
0.084741
0.0848753
0.0854077
0.0859366
0.0856656
0.0860114
0.0865181
0.0866485
0.0860616
0.0865073
0.0858684
0.0854606
0.0842594
0.0826404
0.0805819
0.0784793
0.076619
0.0750794
0.0739055
0.0731508
0.0729203
0.0720133
0.0711117
0.0706308
0.0709823
0.0709793
0.0701067
0.0696846
0.0701438
0.0710386
0.0710914
0.07068
0.0714398
0.0726329
0.0734597
0.0727279
0.0734739
0.0746462
0.0761857
0.0780508
0.0802075
0.0855336
0.0860853
0.0858648
0.0855276
0.0849176
0.084617
0.0851578
0.0859272
0.0865559
0.0868216
0.0868453
0.0861964
0.0855729
0.0861964
0.0864327
0.0856859
0.0850538
0.0855354
0.084907
0.0847776
0.0834762
0.0816895
0.0795139
0.0773637
0.0754728
0.0739081
0.072715
0.0719549
0.0719931
0.0712567
0.0703456
0.0698614
0.0702146
0.0710515
0.0708735
0.070454
0.0709104
0.0717955
0.0722605
0.071887
0.0726329
0.0738055
0.0748705
0.0743095
0.0750386
0.0761857
0.0776935
0.0795232
0.0816412
0.0835447
0.0841104
0.0839766
0.0838194
0.0832085
0.0829053
0.0834639
0.0842906
0.0853197
0.0864015
0.0858905
0.0851969
0.0845652
0.0851969
0.0856793
0.0850538
0.0844168
0.0849045
0.0842724
0.0846944
0.0833308
0.0811652
0.0788425
0.0766551
0.0747439
0.073162
0.0719549
0.0711857
0.0714393
0.0719193
0.0711117
0.0706308
0.0709823
0.071811
0.0720723
0.0716612
0.0721127
0.072984
0.0736899
0.0734688
0.0741979
0.0753448
0.0765381
0.0762226
0.0769324
0.0780508
0.0795231
0.0813041
0.0833248
0.0818325
0.0824097
0.0823189
0.0824025
0.0818042
0.0814984
0.0820711
0.0829462
0.0840525
0.0852668
0.0851292
0.0845652
0.0839278
0.0845652
0.0851844
0.0856402
0.0850538
0.0855364
0.0849094
0.0853536
0.0840431
0.0818459
0.079531
0.0773639
0.0754725
0.0739081
0.072715
0.0719549
0.0722075
0.0728799
0.0723134
0.071838
0.0721865
0.0730017
0.0735598
0.0732429
0.0736883
0.0745428
0.0753872
0.0753818
0.0760916
0.07721
0.0784675
0.0784296
0.0791151
0.080171
0.0815425
0.0826744
0.0834717
0.0804258
0.0810126
0.0809336
0.0812904
0.0807391
0.0804317
0.0810151
0.0819291
0.0831065
0.0844389
0.0846997
0.0851081
0.0845652
0.0851969
0.0858165
0.0864484
0.0860614
0.0863553
0.0859125
0.0862786
0.0851176
0.0829119
0.0806167
0.078481
0.0766193
0.0750804
0.0739081
0.073162
0.0734135
0.0741355
0.073888
0.0734197
0.0737647
0.0745634
0.0752966
0.0751558
0.0755944
0.0764299
0.0773516
0.0775761
0.0782724
0.0793468
0.0806062
0.0807462
0.0811141
0.0810335
0.0816935
0.0814538
0.0821062
0.0793589
0.0799533
0.0798754
0.0804605
0.0800645
0.0797559
0.0803457
0.0812865
0.082525
0.0840004
0.0850652
0.0858186
0.0855607
0.0861194
0.0862752
0.0858661
0.0852148
0.0846872
0.0849558
0.0848223
0.0840342
0.0831669
0.082027
0.079952
0.0781271
0.0766199
0.0754726
0.0747437
0.0749934
0.0757245
0.0757891
0.0753328
0.0756739
0.0764535
0.077287
0.0773594
0.0777886
0.0786016
0.0795521
0.0799155
0.0804438
0.080865
0.0816538
0.0812185
0.0806365
0.0799667
0.0806365
0.080387
0.0810532
0.0786829
0.0792819
0.0792025
0.0798754
0.0805179
0.0804317
0.0810164
0.0819492
0.0831723
0.084626
0.0857868
0.0860029
0.0853094
0.0848107
0.0841509
0.0832688
0.0825036
0.081866
0.0822252
0.0821779
0.0814407
0.0807515
0.0805276
0.0810146
0.0799563
0.0784848
0.0773663
0.0766569
0.0769042
0.0776287
0.0779667
0.0775394
0.077873
0.0786239
0.0794917
0.0796802
0.0799289
0.080662
0.0812542
0.0808865
0.0804758
0.0799448
0.0806144
0.0803262
0.0799667
0.0792907
0.0799667
0.0797109
0.080387
0.0793589
0.0799532
0.0798787
0.0805449
0.0813129
0.0814904
0.082072
0.0829801
0.0839028
0.0840902
0.084647
0.0838545
0.0830069
0.0822162
0.0814595
0.0805592
0.0798203
0.0791598
0.0795279
0.0796492
0.0789896
0.0782819
0.0780554
0.0787447
0.0798322
0.0806421
0.0795543
0.0788652
0.0791098
0.0798201
0.0803223
0.0798887
0.0800475
0.0803729
0.0808774
0.0805638
0.079923
0.0805312
0.0805915
0.0800159
0.0798036
0.0792689
0.0799448
0.0797229
0.0803262
0.0799667
0.0806365
0.080387
0.0810566
0.0804258
0.0810123
0.0809414
0.0815849
0.0823736
0.0828218
0.0832556
0.0829552
0.0822687
0.0816767
0.0821259
0.0812406
0.0804162
0.0796051
0.0788998
0.0780389
0.0773661
0.0766873
0.0770613
0.0773291
0.0767984
0.0760755
0.0758471
0.0765568
0.0776751
0.0791476
0.0809366
0.0813153
0.0815624
0.0821067
0.0818629
0.0808984
0.0801017
0.0796145
0.0799577
0.079923
0.079247
0.0798601
0.079977
0.0794275
0.0800159
0.079943
0.0806128
0.0803989
0.0810368
0.0810272
0.0816889
0.0814538
0.0818489
0.0809492
0.0804658
0.079998
0.0804921
0.0810766
0.0816847
0.0813652
0.0804598
0.0796834
0.079023
0.079572
0.0787461
0.0779897
0.0771903
0.0765509
0.0757384
0.0751739
0.074479
0.074859
0.0752262
0.0748976
0.0741643
0.0739342
0.0746631
0.0758101
0.0773181
0.0791476
0.0812663
0.0832347
0.0829005
0.0814681
0.0802805
0.0794285
0.0789387
0.0792829
0.0800245
0.079923
0.0805312
0.0806486
0.0801035
0.0807087
0.0809578
0.0816429
0.0814658
0.0818108
0.0815673
0.0810303
0.0803919
0.0799583
0.0784473
0.077658
0.0771487
0.0776516
0.0782781
0.0789546
0.0788304
0.0779637
0.0772369
0.076554
0.0772045
0.0764672
0.0758136
0.0750211
0.0744378
0.0736699
0.0732724
0.0725661
0.0729511
0.0733515
0.0733182
0.0725839
0.0723523
0.0730982
0.0742707
0.0758101
0.0776751
0.0798322
0.0822363
0.0836024
0.0821245
0.080947
0.0801017
0.0796145
0.0799577
0.0806748
0.0809506
0.0815741
0.0816254
0.0811703
0.0815751
0.0815422
0.0811304
0.0805408
0.0798704
0.0791102
0.0782183
0.0775188
0.0769856
0.0756562
0.0748366
0.0743137
0.0748449
0.0755563
0.0763371
0.0764911
0.0756835
0.0750466
0.0743456
0.0750533
0.0744222
0.0739234
0.0731323
0.0725881
0.0718456
0.0716937
0.0709842
0.0713736
0.0717798
0.0720919
0.0713784
0.0711453
0.0719052
0.0730982
0.0746631
0.0765568
0.0787447
0.081149
0.0830796
0.0824999
0.0815591
0.0808641
0.0803212
0.0800547
0.0798269
0.0802892
0.0805756
0.0801911
0.0804387
0.0797881
0.0791555
0.0783625
0.0777399
0.0770268
0.0763198
0.0754048
0.0746928
0.0741427
0.0730926
0.0722481
0.0717124
0.0722689
0.0730588
0.0739478
0.0743832
0.073641
0.0731482
0.0724326
0.0731617
0.0726234
0.0723541
0.0715638
0.0710397
0.0702935
0.0704701
0.0697772
0.0701703
0.0705768
0.0712329
0.0706097
0.0703758
0.0711453
0.0723523
0.0739342
0.0758471
0.0780554
0.0802087
0.080925
0.0800978
0.0794066
0.0789352
0.0783023
0.0774813
0.076867
0.0773308
0.0776418
0.0772573
0.0776498
0.0769315
0.0763649
0.0755634
0.0749796
0.0743264
0.0737511
0.0728246
0.072103
0.0715379
0.0707964
0.0699279
0.0693801
0.0699589
0.0708205
0.0718198
0.0725205
0.0718472
0.071575
0.0708508
0.0715968
0.0710905
0.0711436
0.0703641
0.0698485
0.0690888
0.0696263
0.0690078
0.0694034
0.0698099
0.0706471
0.0712363
0.0711453
0.0719052
0.0730982
0.0746631
0.0765568
0.0781683
0.078547
0.0777885
0.0768607
0.0761974
0.0758225
0.0752494
0.0743555
0.0736905
0.0741897
0.0746823
0.0744096
0.0748807
0.0742011
0.0737874
0.0729875
0.0724342
0.0718309
0.0714448
0.0705128
0.0697824
0.0692031
0.0688022
0.0679112
0.0673517
0.0679497
0.0688756
0.069985
0.0709042
0.0703196
0.0703632
0.0696439
0.0704037
0.069888
0.0703279
0.0695991
0.0690888
0.0683193
0.0690888
0.0696263
0.0701291
0.0705677
0.0714022
0.0721977
0.0723471
0.0730968
0.0742702
0.0758099
0.0764408
0.0759616
0.0754284
0.0746712
0.0737239
0.0730595
0.0727675
0.0723177
0.0713954
0.0707019
0.0712369
0.0718891
0.0717926
0.0723274
0.0716728
0.0714675
0.070673
0.0701376
0.069559
0.0694299
0.0685032
0.0677651
0.067173
0.0671487
0.0662371
0.0656679
0.0662817
0.067264
0.0684811
0.0695978
0.0691182
0.0695503
0.0688745
0.0696439
0.0691186
0.069888
0.0703252
0.0698485
0.0690888
0.0698485
0.0705919
0.0712404
0.0717465
0.0725838
0.0734923
0.0738871
0.0746486
0.075363
0.0747593
0.0736497
0.07285
0.0723943
0.0717565
0.0707878
0.070113
0.0698915
0.069618
0.0686751
0.0679537
0.068519
0.0693005
0.0694312
0.0700243
0.0693726
0.0694338
0.0686564
0.0681287
0.0675475
0.0677351
0.0668353
0.0660913
0.0654876
0.0658833
0.0649551
0.0643778
0.0650038
0.0660321
0.0673534
0.0686767
0.0683489
0.0691182
0.0695503
0.0703632
0.069888
0.070648
0.0713359
0.0710415
0.0702958
0.0710415
0.0718945
0.0726791
0.0732788
0.0740165
0.0744995
0.0739873
0.0735036
0.0729469
0.0718933
0.0707162
0.0699092
0.0695378
0.0690729
0.0680849
0.0673923
0.0672185
0.0671791
0.0662287
0.0654797
0.0660712
0.0669565
0.0673429
0.068008
0.0673501
0.0677093
0.0669806
0.0664563
0.0658649
0.0663796
0.0655576
0.0648093
0.0641965
0.0650745
0.0641348
0.0635522
0.0641857
0.0652468
0.0666627
0.0683076
0.0690399
0.0698643
0.070551
0.0714517
0.0710949
0.0718408
0.0724962
0.0720889
0.0713783
0.071834
0.0724679
0.0726871
0.0727189
0.0721069
0.0719745
0.0711413
0.0705927
0.0701568
0.0692194
0.0680133
0.0671903
0.0668763
0.0666494
0.0656496
0.0649348
0.0647864
0.0650262
0.0640944
0.0633189
0.063933
0.0649012
0.06555
0.066313
0.0656657
0.0662976
0.0656964
0.0651746
0.0645741
0.0653376
0.0647402
0.0639894
0.0633702
0.0658833
0.0649551
0.0643778
0.0650049
0.0660538
0.0674552
0.0690996
0.070121
0.0710281
0.0717838
0.0718087
0.071212
0.0711574
0.0705997
0.0696367
0.0689241
0.069165
0.0696931
0.0698109
0.0698184
0.0691478
0.0692326
0.0684115
0.0678717
0.0675694
0.0668098
0.065578
0.0647321
0.0644405
0.0645152
0.0635214
0.0627834
0.0626509
0.0631773
0.0623166
0.0615166
0.0621501
0.0631842
0.0640889
0.0649862
0.0643746
0.0651471
0.0648745
0.0643543
0.063748
0.0645741
0.0653936
0.0648093
0.0641965
0.0671488
0.0662372
0.065668
0.0662855
0.0673166
0.0686961
0.0702698
0.0707322
0.0710776
0.0701311
0.069023
0.068281
0.0681096
0.0675667
0.0665498
0.0658062
0.0660542
0.066677
0.0669897
0.0670944
0.0664026
0.0667356
0.0659522
0.0654097
0.0652052
0.0646997
0.0634502
0.0625793
0.0622904
0.0626956
0.0617471
0.060986
0.0608635
0.0616231
0.0609499
0.0601295
0.060778
0.0618625
0.0630185
0.0640967
0.0635483
0.0643746
0.0652879
0.0651746
0.0645741
0.0653887
0.0663643
0.0660913
0.0654876
0.0688023
0.0679111
0.0673519
0.0679577
0.0689668
0.0695878
0.0687594
0.0680247
0.0681988
0.067116
0.0659293
0.06516
0.0650768
0.0647241
0.0636824
0.0629064
0.063166
0.0638789
0.0643997
0.0646422
0.0639288
0.0644962
0.0638036
0.0632528
0.0630945
0.0629266
0.0616765
0.0607817
0.0604922
0.0611956
0.0603818
0.0596008
0.0594832
0.0603294
0.0600722
0.0592376
0.0598964
0.0610146
0.0624508
0.0640297
0.0643633
0.0651876
0.0661978
0.0664569
0.0658655
0.0666629
0.0677036
0.0677651
0.067173
0.0703838
0.069455
0.0685883
0.0681306
0.0680775
0.0668997
0.0656794
0.064889
0.0652476
0.0642894
0.0630614
0.0622627
0.0622419
0.0621457
0.0610923
0.0602838
0.0605511
0.0613418
0.0620702
0.0624997
0.0617679
0.0625034
0.0620119
0.0614514
0.0612961
0.0615281
0.0603123
0.0593973
0.0591062
0.0599616
0.0595048
0.0587097
0.0585933
0.0594832
0.0605893
0.0601295
0.0607793
0.0618814
0.0633069
0.0649062
0.0655966
0.0664508
0.067514
0.0681212
0.0675042
0.067781
0.068479
0.0684349
0.0686752
0.0678011
0.066874
0.0657926
0.065105
0.0651802
0.0640725
0.0628066
0.0619818
0.0624874
0.0617349
0.0604682
0.0596378
0.0596462
0.0598611
0.0588218
0.0579815
0.0582535
0.059112
0.0600395
0.0607062
0.0599656
0.0607857
0.060633
0.0600648
0.059909
0.0605331
0.0594362
0.0585068
0.0582144
0.0591062
0.0601222
0.0596012
0.059485
0.0603604
0.0615564
0.0615166
0.0621535
0.0632321
0.0646379
0.0662424
0.0668778
0.0668735
0.0673703
0.0665808
0.0656874
0.0651359
0.0656526
0.0654624
0.0659825
0.0648259
0.0640261
0.0629117
0.062198
0.0624726
0.0615193
0.0602118
0.0593527
0.0599323
0.0594918
0.0581934
0.0573314
0.0573547
0.0578938
0.0569209
0.0560511
0.0563254
0.0572424
0.058358
0.0592875
0.0585784
0.0594449
0.0597466
0.0591732
0.0590171
0.059909
0.0603123
0.0593973
0.0591062
0.0599834
0.0611256
0.0609882
0.0608723
0.0617266
0.0629476
0.063297
0.0639362
0.0649895
0.066114
0.0655245
0.0644945
0.0638446
0.0642568
0.0633866
0.0624388
0.061844
0.0624892
0.0625188
0.0630731
0.0620553
0.0614494
0.0603081
0.0595688
0.0599885
0.0592798
0.0579373
0.0570449
0.0576392
0.0576047
0.0562882
0.0553968
0.0554276
0.0562432
0.0554518
0.0545571
0.0548324
0.0557968
0.0570897
0.0582985
0.0576866
0.0585784
0.0597813
0.0600588
0.059909
0.0607861
0.0616326
0.0607822
0.0604934
0.0613495
0.0625342
0.0627824
0.0626746
0.063504
0.0647207
0.0652217
0.0648594
0.0644155
0.0637207
0.062354
0.0612232
0.0605332
0.0611149
0.0603748
0.059388
0.0587708
0.0595283
0.0598197
0.0604304
0.0595122
0.0591825
0.0580244
0.057261
0.0577463
0.0573985
0.0560333
0.0551099
0.0557173
0.0561201
0.0548157
0.0538991
0.0539328
0.0548548
0.0545037
0.0535911
0.0538665
0.0548644
0.0563223
0.0580341
0.0585486
0.0594506
0.0606766
0.0613496
0.0612961
0.0621523
0.0631889
0.0625817
0.0622956
0.0631267
0.0643175
0.0646957
0.0641356
0.0638597
0.0640157
0.0627869
0.061787
0.0612177
0.0607222
0.0593479
0.0581703
0.0574529
0.0581512
0.0576396
0.056614
0.0559732
0.0568211
0.0573881
0.0580913
0.0572341
0.0572657
0.0561115
0.0553261
0.0558199
0.0559261
0.0545619
0.0536121
0.0542304
0.055078
0.0538651
0.0529308
0.0529645
0.0539332
0.0551098
0.0545571
0.0548326
0.0558124
0.057249
0.0589626
0.0598435
0.0607972
0.0620394
0.0629731
0.0630962
0.0639291
0.0650425
0.0647396
0.0644568
0.0647404
0.0636029
0.0622184
0.0612184
0.0606788
0.0609936
0.0597664
0.058729
0.0581749
0.0579727
0.0566208
0.0553967
0.0546521
0.0554066
0.0552267
0.0541651
0.0535011
0.0544223
0.0552591
0.0560999
0.0552992
0.055739
0.0546321
0.0538284
0.054329
0.0549214
0.0536121
0.0526438
0.0532692
0.0544227
0.0548157
0.0538991
0.0539328
0.054883
0.056166
0.0560511
0.0563267
0.0572812
0.0586863
0.0603862
0.0615109
0.0625375
0.0637934
0.0648982
0.0652392
0.0659197
0.0647965
0.0634947
0.062615
0.0620487
0.0606503
0.0591972
0.0581552
0.0575984
0.0581863
0.0570229
0.0559447
0.0553801
0.0555017
0.0542191
0.0529496
0.052179
0.0529712
0.0531886
0.0521
0.0514145
0.0523954
0.0534861
0.0545126
0.0538015
0.05462
0.0536766
0.05286
0.0533653
0.054447
0.0545619
0.0536121
0.0542304
0.0553653
0.0562667
0.0553969
0.0554305
0.0563543
0.0576646
0.0579674
0.0582559
0.0591816
0.0605486
0.0622218
0.0635093
0.0646164
0.0658861
0.0670783
0.0657371
0.0636318
0.0618446
0.06047
0.0595783
0.0592557
0.0579589
0.0564541
0.0553706
0.0547976
0.0556198
0.054605
0.0534864
0.052907
0.0533307
0.0521984
0.0508869
0.0500922
0.0509141
0.0515817
0.0504923
0.0497884
0.0508157
0.0521443
0.0534185
0.0528332
0.0538015
0.05462
0.0538284
0.054329
0.0553925
0.0560319
0.0551099
0.0557173
0.0568259
0.0579659
0.0573319
0.0573654
0.0582584
0.0595616
0.0601971
0.0605501
0.0614498
0.0627756
0.0644127
0.0658057
0.0669903
0.0679407
0.0657775
0.0632327
0.0610054
0.0591459
0.0577129
0.0567905
0.056708
0.0555885
0.0540367
0.0529127
0.0523244
0.0532824
0.0525693
0.0514129
0.0508202
0.0514686
0.0506285
0.049281
0.0484661
0.0493113
0.0504378
0.0494466
0.0487298
0.0497884
0.0513435
0.0531407
0.0538015
0.0547511
0.0558315
0.0553261
0.0558199
0.0568577
0.0578359
0.0570449
0.0576392
0.0587166
0.0599627
0.0596397
0.0596732
0.0605328
0.0618109
0.0626857
0.0631502
0.0640331
0.0653181
0.0669136
0.0683709
0.0689956
0.0665388
0.0636326
0.0610055
0.0587015
0.0567721
0.0552808
0.054318
0.0544272
0.0535907
0.0520015
0.0508394
0.0502376
0.0512388
0.0509868
0.0497977
0.0491941
0.0499067
0.0496099
0.0482366
0.0474075
0.0482684
0.0496611
0.0504744
0.0497884
0.0508229
0.0523513
0.0541478
0.0552992
0.0562225
0.0574064
0.057261
0.0577463
0.0587539
0.0598906
0.0593527
0.0599324
0.0609759
0.0622608
0.0622684
0.062302
0.0631275
0.0643706
0.0654043
0.0660058
0.0668859
0.0681332
0.0696847
0.0705681
0.068046
0.0648251
0.0618453
0.059146
0.0567721
0.0547783
0.0532324
0.0522312
0.0524459
0.0520296
0.0504195
0.0492246
0.0486116
0.0496461
0.0499592
0.0487465
0.0481355
0.0488586
0.0500889
0.049281
0.0484661
0.0493115
0.0506788
0.0518471
0.0514145
0.0524156
0.053905
0.0556838
0.0572342
0.0581267
0.0593452
0.0595597
0.0600428
0.0610189
0.0622219
0.0619816
0.0625455
0.0635539
0.0648416
0.0651568
0.0652079
0.0659991
0.0672021
0.0683341
0.0690748
0.0699682
0.0711837
0.0724199
0.0702777
0.0667926
0.0635122
0.0604726
0.0577132
0.0552808
0.0532324
0.0516396
0.050605
0.0508337
0.0509958
0.0493923
0.0481738
0.047553
0.0486116
0.050149
0.0497977
0.0491941
0.0499067
0.0511499
0.0508869
0.0500922
0.050916
0.0522472
0.0535887
0.0535012
0.0544639
0.0559062
0.0576532
0.0595421
0.0604013
0.0616199
0.0621362
0.062652
0.0636006
0.0648228
0.0648864
0.065435
0.0664077
0.0676785
0.0682483
0.068352
0.0691107
0.0702709
0.0714572
0.0723239
0.073245
0.0744164
0.073111
0.0695178
0.0659922
0.0626723
0.0595919
0.0567911
0.054318
0.0522312
0.050605
0.0495465
0.0497761
0.050853
0.0504195
0.0492246
0.0486116
0.0496461
0.0511804
0.0514129
0.0508202
0.0515174
0.0527373
0.0529496
0.052179
0.052977
0.0542659
0.0556866
0.0559644
0.0568945
0.0582864
0.0599913
0.062171
0.0629959
0.0641956
0.06494
0.0655237
0.0664538
0.0676714
0.0680103
0.0685601
0.0694995
0.0707423
0.0715061
0.0716987
0.0724283
0.0735453
0.0747553
0.0757264
0.0766862
0.0767827
0.0739131
0.0702773
0.0667914
0.0635118
0.0604726
0.0577132
0.0552808
0.0532324
0.0516396
0.050605
0.0508337
0.0518868
0.0520012
0.0508394
0.0502376
0.0512388
0.0527442
0.0534624
0.052907
0.0535858
0.0547704
0.0553875
0.0546521
0.0554222
0.0566654
0.0581127
0.0587126
0.0596416
0.0609877
0.0626458
0.0650773
0.0658677
0.0670378
0.0679411
0.0686145
0.0695378
0.0707406
0.0713062
0.0718831
0.0727949
0.0740043
0.0749067
0.0752133
0.0759217
0.0769967
0.0782097
0.0792605
0.0800812
0.078481
0.0750448
0.0714601
0.068039
0.0648221
0.0618444
0.0591458
0.0567721
0.0547783
0.0532324
0.0522312
0.0524582
0.0534783
0.0540306
0.0529127
0.0523244
0.0532871
0.0547494
0.0557852
0.0553801
0.0560387
0.057183
0.0580679
0.057453
0.0581941
0.0593902
0.0608333
0.0616877
0.0626496
0.063961
0.0655719
0.0682231
0.0689796
0.0701139
0.0711204
0.0718894
0.0728173
0.0740015
0.0747428
0.0753695
0.0762623
0.077437
0.0784319
0.078864
0.0795615
0.080597
0.0817976
0.0829016
0.0827259
0.0799664
0.0764529
0.0729747
0.0696508
0.0665214
0.0636251
0.0610029
0.058701
0.056772
0.0552808
0.054318
0.0545431
0.0555252
0.0564122
0.0553706
0.0547976
0.0557195
0.0571309
0.0583588
0.0581809
0.0588182
0.05992
0.0609579
0.0605333
0.0612453
0.0623942
0.0638149
0.0648545
0.065874
0.0671639
0.0687309
0.0874797
0.0854874
0.0837108
0.0821824
0.0809186
0.0799053
0.0790645
0.0782488
0.0774544
0.0768765
0.0771751
0.0765704
0.0760286
0.0763675
0.0762621
0.0753498
0.074669
0.0748209
0.0753588
0.0750593
0.0743509
0.0739117
0.0744076
0.0744406
0.0738966
0.0736039
0.0740343
0.0747259
0.0757115
0.076997
0.0785722
0.0804201
0.0820565
0.0821646
0.0814582
0.08098
0.0804254
0.079453
0.0786748
0.078287
0.0789123
0.0780976
0.0769892
0.0762842
0.0769892
0.0781006
0.0795636
0.0813375
0.0833795
0.0858894
0.0838456
0.0820308
0.0804802
0.0792145
0.0782317
0.0774685
0.0767424
0.0759744
0.0753869
0.0758242
0.0753592
0.0748413
0.0751838
0.075459
0.0746361
0.0739488
0.0739321
0.0744727
0.074624
0.0739062
0.0733916
0.0738849
0.0745942
0.0746017
0.0743236
0.0747512
0.0754384
0.0764159
0.0776904
0.0792448
0.0803173
0.0801993
0.0792303
0.078438
0.0780013
0.0776084
0.0766439
0.0758399
0.0754438
0.0761479
0.0755539
0.07441
0.0736803
0.0744102
0.0755589
0.0770693
0.0788998
0.0810119
0.0845791
0.0824911
0.080644
0.0790732
0.0778049
0.0768481
0.0761665
0.0755673
0.0748491
0.0742541
0.0747412
0.0745061
0.0740308
0.0743766
0.0749934
0.0746291
0.0738953
0.073401
0.0739479
0.0747526
0.0746189
0.0741113
0.0746015
0.0753228
0.075664
0.075456
0.0758792
0.0765594
0.0775253
0.0785311
0.0784967
0.0780584
0.0774247
0.0764272
0.0756156
0.0752012
0.075007
0.0740725
0.0732436
0.0728396
0.0735696
0.0732768
0.0720998
0.0713457
0.0720998
0.0732849
0.0748401
0.0767235
0.0788971
0.0835829
0.0814591
0.0795867
0.0780002
0.0767278
0.0757896
0.0751823
0.0747594
0.0741342
0.0735342
0.0740275
0.0740423
0.0736467
0.0739958
0.0746241
0.0752456
0.0746149
0.0741207
0.0746635
0.0754734
0.0757371
0.0752442
0.0757289
0.0764531
0.0769956
0.076943
0.0773615
0.0779566
0.0776772
0.0766839
0.0758344
0.0753161
0.0748363
0.0738584
0.0730239
0.0726117
0.0726392
0.071769
0.0709159
0.070505
0.071259
0.0712973
0.0700924
0.0693155
0.0700924
0.0713114
0.0729086
0.07484
0.0770671
0.0829501
0.0808022
0.0789134
0.0773163
0.07604
0.0751116
0.0745554
0.0743885
0.0745361
0.0741365
0.0746463
0.0747598
0.0743665
0.074714
0.0753383
0.0760946
0.0757451
0.0752535
0.07579
0.0765973
0.0771478
0.0767336
0.0772119
0.0779331
0.0785977
0.0781758
0.0771737
0.0762165
0.0752439
0.0741305
0.0732551
0.072767
0.0724891
0.0715559
0.0706979
0.0702786
0.0705186
0.0697678
0.0688922
0.0684747
0.0692518
0.0696507
0.0684277
0.0676302
0.0684277
0.0696768
0.0713114
0.0732845
0.0755575
0.0835952
0.0814664
0.0795947
0.078012
0.0767475
0.0758272
0.075275
0.0751084
0.0753356
0.0751166
0.0756416
0.0758885
0.0754994
0.075844
0.076463
0.0772709
0.0772299
0.076743
0.0772712
0.0780718
0.0787878
0.078541
0.0790118
0.0790985
0.0774607
0.0759332
0.0747223
0.073801
0.0729424
0.0718318
0.070935
0.070454
0.0704024
0.0695551
0.0686745
0.0682488
0.0686507
0.0681076
0.0672125
0.0667894
0.0675868
0.0683704
0.0671538
0.0663392
0.0671538
0.0684277
0.0700924
0.0720997
0.0744091
0.0846155
0.0825156
0.0806697
0.0791085
0.077861
0.0769531
0.0764072
0.0762411
0.0764912
0.0764344
0.0769728
0.0773582
0.0769887
0.0773303
0.0779419
0.0787709
0.0790281
0.0785505
0.0790692
0.0798595
0.0806532
0.0803891
0.0791741
0.0771286
0.075258
0.0736935
0.0724779
0.0716164
0.0709228
0.0698337
0.068914
0.0684255
0.0685912
0.0678957
0.0669951
0.0665634
0.0670325
0.0668362
0.0659258
0.0654983
0.0663127
0.0674678
0.0663392
0.0655128
0.0663392
0.0676302
0.0693155
0.0713457
0.0736798
0.0851799
0.0839013
0.0820867
0.0805529
0.079327
0.0784341
0.0778962
0.0777306
0.0779882
0.0780584
0.0786093
0.0791028
0.0787961
0.0791342
0.0797372
0.0805696
0.0810307
0.0806189
0.0810468
0.0813503
0.0805033
0.0792464
0.0773818
0.0752586
0.0733378
0.071738
0.0705088
0.0696897
0.0692147
0.0681767
0.0672366
0.0667403
0.0670603
0.0666256
0.0657083
0.0652723
0.0657481
0.0660198
0.0651025
0.064672
0.0654983
0.0667894
0.0671538
0.0663392
0.0671538
0.0684277
0.0700924
0.0720998
0.0744097
0.0830389
0.0835855
0.0830941
0.0823084
0.0811076
0.0802322
0.0797028
0.0795379
0.0797976
0.0799609
0.0805252
0.0810773
0.0807909
0.0811558
0.0816471
0.0815807
0.0809209
0.0814117
0.0807347
0.0804074
0.0793391
0.0779182
0.075904
0.0737106
0.0717446
0.0701102
0.0688598
0.0680557
0.0678448
0.0669085
0.0659518
0.0654491
0.0658121
0.0658138
0.0648852
0.064446
0.0649255
0.065877
0.0659258
0.0654983
0.0663127
0.0675868
0.0684228
0.0676302
0.0684277
0.0696768
0.0713114
0.0732849
0.0755589
0.0806873
0.0812649
0.0809901
0.080613
0.0799745
0.079666
0.0802302
0.0810105
0.0816819
0.0819652
0.0818499
0.0810918
0.0804319
0.0810918
0.0813023
0.0805238
0.079854
0.0803728
0.0797087
0.0797038
0.0785537
0.0769531
0.0747843
0.0725296
0.0705266
0.0688619
0.0675877
0.0667732
0.0668361
0.0660979
0.0651293
0.0646228
0.064988
0.0658807
0.0657083
0.0652723
0.0657481
0.066688
0.0671751
0.0667894
0.0675868
0.0688362
0.0699391
0.0693155
0.0700924
0.0713114
0.0729087
0.0748405
0.0770694
0.0785938
0.0791878
0.0790096
0.0788131
0.0781706
0.077859
0.0784445
0.0792952
0.0803415
0.0814027
0.0807538
0.0800347
0.0793654
0.0800347
0.0805015
0.079854
0.0791782
0.0797041
0.0790338
0.0796363
0.0785607
0.0764696
0.0740824
0.0717776
0.0697497
0.0680643
0.0667732
0.065947
0.0662066
0.0667858
0.0659518
0.0654491
0.0658121
0.0666943
0.0669892
0.0665634
0.0670338
0.0679569
0.0686996
0.0684747
0.0692518
0.0704705
0.0717176
0.0713458
0.0720999
0.0732846
0.07484
0.0767106
0.078794
0.0767863
0.0773937
0.0772666
0.0773181
0.0766839
0.0763696
0.076972
0.0778824
0.07902
0.0802386
0.0799389
0.0793654
0.0786891
0.0793654
0.0799823
0.0804678
0.079854
0.0803735
0.0797096
0.0803244
0.0793411
0.0771958
0.0748115
0.0725304
0.0705264
0.0688619
0.0675877
0.0667732
0.0670319
0.0677739
0.0672366
0.0667403
0.0671002
0.0679658
0.068568
0.0682488
0.0687122
0.0696151
0.0705035
0.0705047
0.0712587
0.0724439
0.0737619
0.0736785
0.0744024
0.0754981
0.0769066
0.0777462
0.0784771
0.0752969
0.0759156
0.0758029
0.0761476
0.0755531
0.0752369
0.075852
0.0768109
0.0780352
0.0793918
0.0794677
0.0799257
0.0793654
0.0800347
0.0806528
0.0813114
0.0809207
0.0814092
0.0807707
0.0813821
0.0804911
0.0783248
0.075958
0.0737134
0.0717447
0.0701111
0.0688619
0.0680643
0.0683218
0.0691013
0.0689136
0.0684255
0.0687816
0.0696272
0.0704088
0.070279
0.0707346
0.0716147
0.0725834
0.0728238
0.0735602
0.0746859
0.0759925
0.0760497
0.0762857
0.0759046
0.0766047
0.0763249
0.0770162
0.074164
0.0747919
0.0746803
0.0752878
0.0748348
0.0745173
0.0751404
0.0761331
0.077435
0.0789738
0.0799488
0.0806828
0.0804173
0.0810777
0.0815042
0.0813629
0.0807633
0.0802731
0.0804927
0.0803692
0.0795658
0.0786599
0.0774563
0.075267
0.0733417
0.0717456
0.0705266
0.0697497
0.0700048
0.0707865
0.0709291
0.0704558
0.0708071
0.0716303
0.0725132
0.0726072
0.073051
0.0739041
0.0748939
0.0752415
0.0757057
0.0758689
0.0765818
0.0760893
0.0754839
0.0747719
0.0754839
0.075192
0.0759001
0.0734442
0.0740777
0.0739638
0.0746803
0.0753386
0.0752369
0.075854
0.076837
0.0781195
0.0796322
0.0808059
0.0812751
0.0806303
0.0803076
0.0797437
0.0788512
0.0780497
0.0773807
0.0777488
0.0776494
0.0768625
0.0761368
0.0759091
0.0764133
0.0752729
0.073719
0.0725338
0.07178
0.0720325
0.0728027
0.0732209
0.0727882
0.0731297
0.0739156
0.0748194
0.0749867
0.0751538
0.0759014
0.0763352
0.0757547
0.0753077
0.07475
0.0754619
0.0751348
0.0747719
0.0740521
0.0747719
0.0744723
0.075192
0.074164
0.0747917
0.0746838
0.0753921
0.0761922
0.0763626
0.0769735
0.0779248
0.079012
0.0794443
0.0801232
0.0793941
0.0785229
0.0777378
0.0769783
0.0760263
0.0752394
0.0745414
0.0749209
0.0749985
0.0742839
0.0735357
0.073305
0.0740346
0.0751838
0.0759936
0.0748445
0.0741148
0.0743645
0.0751149
0.0756691
0.0752065
0.075284
0.0754457
0.0758506
0.0754401
0.0747283
0.0753712
0.0754207
0.0748146
0.0745922
0.0740302
0.07475
0.0744843
0.0751348
0.0747719
0.0754839
0.075192
0.0759041
0.0752969
0.0759155
0.0758117
0.0765019
0.0773597
0.0777741