# vtk DataFile Version 4.2
vtk output
ASCII
DATASET POLYDATA
POINTS 642 double
-1.51719 4.15298 -0.401848
-0.405542 3.82547 -0.340768
-1.74347 0.629241 0.000487776
0.897205 0.731907 0.0284871
-0.494133 1.56721 1.38932
-0.902135 3.17465 0.630144
-0.451083 1.77087 -1.1363
-1.26002 3.80015 -0.822499
0.797307 2.51828 -0.573457
0.997461 2.42937 0.726323
-1.66171 3.19019 -0.630862
-2.34056 2.90525 1.06351
-2.25883 3.86116 0.584408
-1.63494 3.25508 1.1504
-1.3135 3.77363 0.414599
-0.490776 3.5577 0.0798608
-0.626551 4.48832 -0.27827
-0.213003 4.35629 -0.907508
-1.56962 4.05944 -1.01774
-1.64562 3.93272 -1.28133
-2.13056 4.04294 -0.879822
-2.46738 2.87295 0.0524524
0.230277 2.9239 0.929778
0.582286 3.15668 0.349207
-1.40085 2.1172 1.16839
-0.553095 2.46416 1.16747
-1.93588 1.71504 -0.446701
-2.07975 1.62175 0.625494
-0.835736 3.07336 -0.735263
-1.19709 2.44969 -0.809819
0.164188 3.24385 -0.311669
-0.343541 3.25414 -0.55953
1.43706 1.56579 0.619781
0.446963 1.9671 1.28641
0.259628 0.89179 1.06122
-1.24495 0.892784 1.00842
-0.488506 0.740638 -0.00165482
-1.01249 1.02134 -0.728879
0.190288 1.05922 -0.878545
0.258059 2.06494 -0.942591
1.10517 1.58752 -0.306745
1.16178 2.34337 0.0481579
-1.8374 3.94381 0.0959092
-1.77212 3.94605 0.655596
-1.36267 4.0567 0.120802
-2.02696 3.14288 1.28392
-1.98576 3.63491 1.08483
-2.45895 3.40102 0.930833
-1.18024 3.47275 0.548523
-1.55077 3.60145 0.852164
-1.30511 3.23439 0.831245
-0.890926 4.18215 -0.079366
-1.07747 4.39658 -0.335764
-0.609394 3.35158 0.406422
-0.839712 3.73864 0.146191
-0.463102 4.26995 -0.395945
-0.586001 4.0803 -0.148629
-0.460479 3.78324 -0.190045
-0.921189 4.35026 -0.617984
-1.56002 4.11346 -0.881379
-0.279232 4.11041 -0.525035
-0.373566 4.64214 -0.652013
-1.48456 3.93182 -0.973039
-0.82623 4.14003 -0.674672
-0.741672 3.98138 -0.681792
-1.74408 4.17083 -1.15519
-1.86157 4.2554 -0.615739
-1.52639 3.89702 -1.05148
-1.59168 4.19624 -1.47403
-1.93793 3.70826 -0.92963
-1.90566 4.01028 -1.37564
-1.65641 3.75621 -1.12777
-2.14866 3.87009 -0.0993975
-2.09928 2.95597 -0.356274
-2.1478 3.47527 -0.294785
-2.46627 3.40886 0.332254
-2.466 2.86126 0.609083
0.0741329 3.28418 0.283102
-0.0652062 3.37249 -0.0539942
-0.210022 3.06368 0.902242
0.00137168 3.28007 0.610475
0.846562 2.8809 0.546537
0.481911 3.09416 0.634635
0.656613 2.73094 0.909949
-1.25143 2.85899 0.897941
-0.770097 2.84452 0.887731
-1.88335 2.60291 1.03263
-1.62202 2.84229 1.16108
-0.476451 2.02749 1.38992
-1.00307 2.3602 1.06099
-0.864577 1.75072 1.1616
-2.3752 2.24479 0.344013
-2.19306 2.36879 0.840801
-1.96281 2.35311 -0.588329
-2.24685 2.27732 -0.226822
-1.78697 1.09137 0.312803
-2.1437 1.58042 0.0199382
-1.72431 1.13113 -0.155792
-1.35793 3.47599 -0.796335
-1.4295 2.91004 -0.684649
-1.16539 3.64285 -0.777309
-1.34714 3.66463 -0.849072
-0.820107 1.98733 -1.08051
-0.993955 2.90875 -0.755476
-0.516155 2.29019 -1.07649
-0.521389 3.88412 -0.608926
-0.742981 3.68841 -0.675104
-0.315949 3.55632 -0.327106
-0.456376 3.8154 -0.518219
0.276709 2.80649 -0.635851
-0.118003 3.2434 -0.450096
0.618659 2.88584 -0.431569
1.29164 0.959213 0.332191
0.963567 1.10833 0.84282
0.673044 0.739921 0.528465
0.818675 2.20368 1.03553
0.925966 1.72006 0.919
1.15591 1.90297 0.58744
-0.196128 1.19907 1.3888
0.388686 1.37972 1.23154
-0.0379488 1.74603 1.40775
-0.0662012 0.774142 0.602819
0.284289 0.740675 0.0111541
-0.80798 1.13665 1.23541
-0.473056 0.739345 1.20065
-1.19883 0.742943 0.0100875
-0.890418 0.740676 0.613879
-1.55265 0.73797 0.655641
-0.101323 0.740679 -0.542457
0.561492 0.846156 -0.494059
-1.46981 0.805443 -0.471773
-0.899973 0.73612 -0.5479
-0.197901 1.41338 -1.08359
-0.533963 0.963089 -0.918946
-0.710443 1.39811 -1.0052
0.7389 1.2803 -0.611658
1.16929 1.0859 -0.276908
-0.0585093 1.89251 -1.14302
0.280516 1.58168 -0.92101
1.03333 1.96622 -0.454815
0.732541 1.8088 -0.733107
0.581032 2.25037 -0.812197
1.49704 1.4962 0.0283543
1.09661 2.4137 -0.271294
1.16019 1.91046 -0.0974878
1.22243 1.83222 0.27355
1.15998 2.39106 0.41089
-0.0241874 2.24412 1.39707
0.381507 2.48613 1.16238
-0.139582 2.61437 1.06144
-1.66763 1.10259 0.839621
-1.25122 1.35795 0.976459
-1.75271 1.83563 0.990305
-1.03685 1.59296 -0.746272
-1.4127 1.35721 -0.454796
-1.60986 1.98077 -0.698956
0.061033 2.6037 -0.795534
-0.231432 2.40072 -0.965547
-0.601144 3.16681 -0.682412
0.913198 2.8233 0.215688
0.862413 2.85332 -0.146292
0.496278 3.2154 -0.0145999
-1.65524 4.09862 -0.214365
-1.6505 3.94274 0.169126
-1.44482 4.15819 -0.156092
-2.03532 3.94644 0.657128
-1.81299 3.94315 0.419128
-2.10559 3.94461 0.393306
-1.32917 3.9055 0.283169
-1.5998 3.94507 0.443304
-1.48807 3.90515 0.601273
-2.24031 3.01296 1.2473
-2.26738 3.29414 1.19792
-2.47058 3.13414 1.04493
-1.77746 3.41393 1.10671
-2.05619 3.39607 1.22641
-1.79089 3.2024 1.22377
-2.38038 3.65677 0.76709
-2.24806 3.55724 1.06684
-2.22474 3.79804 0.920208
-1.01652 3.29046 0.582469
-1.31919 3.38433 0.714962
-1.0677 3.17456 0.684899
-1.47857 3.72465 0.690658
-1.40175 3.53195 0.689214
-1.30839 3.65806 0.507323
-1.48182 3.22734 0.919142
-1.4802 3.40746 0.834725
-1.61426 3.414 0.945871
-1.93311 3.83502 0.901114
-1.72182 3.61995 0.975396
-1.64256 3.84894 0.881205
-1.22467 4.36487 -0.0817288
-1.287 4.22708 -0.399667
-1.10994 3.92845 0.158391
-1.10538 4.16293 0.072872
-0.848724 4.5029 -0.26472
-0.914755 4.38066 -0.131447
-0.751743 4.35808 -0.15725
-0.760962 3.2598 0.529537
-0.900094 3.40259 0.443511
-0.669702 3.70109 0.0758499
-0.756807 3.54132 0.260563
-0.507728 3.45997 0.223607
-1.02828 3.58756 0.357626
-1.11493 3.74854 0.288104
-0.379256 4.03313 -0.386126
-0.422247 4.0708 -0.262446
-0.421508 3.80705 -0.287563
-0.632607 4.3042 -0.259611
-0.525911 4.17275 -0.280373
-0.540701 4.41312 -0.372949
-0.473402 3.6741 -0.0739943
-0.494878 3.97288 -0.189263
-0.585394 3.81799 -0.0681832
-0.900784 3.97051 0.0209391
-0.712395 3.90175 -0.0331914
-0.74815 4.183 -0.144059
-1.27033 4.16516 -0.578328
-1.52633 4.15225 -0.703859
-0.774896 4.70733 -0.458119
-0.994669 4.45068 -0.580506
-1.57837 4.08865 -0.984695
-1.26121 4.07078 -0.67897
-1.25724 4.02402 -0.714091
-0.364829 4.00129 -0.444501
-0.337365 4.18803 -0.469396
-0.264985 4.54536 -0.815933
-0.304645 4.37249 -0.619283
-0.161828 4.34481 -0.763042
-0.42008 4.40553 -0.483999
-0.485466 4.62214 -0.46591
-1.34945 3.85351 -0.868618
-1.2043 3.88497 -0.763146
-1.0906 3.81658 -0.748866
-1.26142 3.96807 -0.750138
-1.23913 3.92706 -0.759621
-1.56461 4.03316 -1.0399
-0.495608 4.14327 -0.782019
-0.780524 4.0933 -0.68194
-0.486748 4.34123 -0.873317
-0.644966 4.66537 -0.707862
-0.537093 4.49763 -0.814161
-0.872208 4.21335 -0.65666
-1.69157 4.2129 -0.807495
-1.75869 4.19183 -0.584438
-1.60288 4.35243 -1.2069
-1.67477 4.22476 -1.09831
-2.09646 4.25222 -0.739054
-1.86967 4.18695 -0.968754
-1.90171 4.14899 -1.0127
-1.41693 3.84473 -0.928221
-1.51586 3.91352 -1.03025
-1.64376 4.09926 -1.32022
-1.58766 4.02419 -1.2719
-1.6172 3.95266 -1.26665
-1.58835 4.04462 -1.24825
-1.62722 4.13864 -1.31657
-1.7307 3.4253 -0.696842
-1.78298 3.74163 -1.10173
-1.61769 3.44086 -0.756455
-1.90202 4.0573 -1.13151
-1.93403 3.87018 -1.16806
-2.02635 3.89818 -0.951637
-1.6482 3.83222 -1.25549
-1.79399 3.93746 -1.28593
-1.73613 3.99761 -1.29747
-1.6726 4.10776 -1.2724
-1.67834 4.08343 -1.27395
-1.79118 4.08697 -1.25444
-1.86769 4.15155 -0.294476
-2.12834 4.0084 -0.575557
-2.0261 4.11418 -0.396492
-2.04562 3.94321 0.00758709
-2.25555 3.87538 0.276511
-1.85093 3.08029 -0.499043
-1.88721 3.36763 -0.538803
-2.37258 3.18105 -0.143468
-2.12464 3.23575 -0.332844
-2.35054 2.89766 -0.211848
-1.99867 3.59868 -0.604467
-2.08682 3.79016 -0.661482
-2.46639 3.12948 0.760696
-2.46919 2.85565 0.848167
-2.46668 3.70455 0.481823
-2.4669 3.41053 0.633671
-2.46635 2.86311 0.330857
-2.54635 3.1343 0.47098
-2.46629 3.14477 0.185184
-2.1929 3.68641 -0.248914
-2.35985 3.42595 -0.000284015
-2.36708 3.67334 0.155946
-0.290547 3.51985 -0.123943
-0.329947 3.59808 -0.24286
-0.233961 3.37636 0.166633
-0.268254 3.44952 0.0182389
0.299227 3.28079 0.166993
0.0372371 3.30748 0.144768
0.328496 3.28005 0.331296
-0.529776 3.0767 0.725109
-0.397412 3.19694 0.642024
0.144215 3.12518 0.842583
-0.0955112 3.17792 0.772234
0.0333789 3.01361 0.952358
-0.282157 3.28326 0.496732
-0.230582 3.31433 0.347145
0.944527 2.62551 0.663362
0.754249 2.79277 0.736762
0.87948 2.5875 0.840782
0.578722 3.16417 0.507779
0.684762 3.00246 0.61139
0.710021 3.027 0.447479
0.474906 2.81703 0.926452
0.637463 2.92911 0.83446
0.378311 3.03296 0.822296
0.0719914 3.28084 0.433009
0.246787 3.20064 0.638608
0.33344 3.28722 0.500629
-1.07015 3.0166 0.774239
-0.84966 3.01351 0.749012
-1.47908 3.04413 0.970087
-1.34194 3.04292 0.884872
-0.669693 2.68258 0.966288
-1.05912 2.85347 0.858866
-0.918518 2.66233 0.953794
-2.12334 2.72718 1.11534
-1.96376 2.82069 1.27757
-1.5293 2.52452 1.02556
-1.73641 2.73345 1.12561
-1.6407 2.3435 1.06064
-1.75142 2.96326 1.27929
-1.66159 3.03356 1.18206
-0.485897 1.73442 1.3896
-0.737978 1.84476 1.36693
-0.644063 1.63293 1.26625
-0.7771 2.39213 1.09183
-0.733547 2.18018 1.26775
-0.51205 2.31171 1.34472
-1.11449 1.9112 1.06459
-0.921407 2.0144 1.12975
-1.20705 2.24205 1.06471
-1.45993 2.85011 0.998275
-1.35934 2.6104 0.975082
-1.17863 2.65264 0.953423
-2.28158 2.62381 0.708216
-2.22461 2.64151 0.915415
-2.35692 2.58205 0.207811
-2.35643 2.58634 0.444628
-2.24452 1.97086 0.790468
-2.33675 2.24702 0.597356
-2.27169 1.94468 0.482147
-1.78689 2.73572 -0.549463
-2.00588 2.66022 -0.453077
-2.18513 1.95787 -0.368557
-2.12974 2.31135 -0.440535
-2.02095 1.98756 -0.544579
-2.20718 2.60995 -0.31236
-2.26193 2.58497 -0.0679545
-1.91387 0.793049 0.198127
-1.86496 1.06847 0.0172236
-1.91294 0.835756 -0.200886
-2.14416 1.57604 0.309234
-1.87415 1.39884 0.161127
-1.83 1.40477 0.465425
-1.77691 1.46986 -0.250587
-1.86905 1.40727 -0.0787921
-2.0772 1.62179 -0.252007
-2.37807 2.24123 0.0459826
-2.24664 1.92831 -0.117425
-2.3043 1.90705 0.181607
-1.5137 3.41806 -0.756683
-1.54208 3.097 -0.666617
-1.52686 3.75081 -0.990771
-1.53361 3.67327 -0.946973
-1.34672 2.73633 -0.722375
-1.37589 3.3096 -0.738841
[...]
POINT_DATA 642
SCALARS Mean_Curvature double 1
LOOKUP_TABLE default
-0.992369
-0.180739
6.08085
3.51494
4.60345
-0.611097
-0.000760223
0.306941
4.82389
-1.50208
-0.545644
1.52698
2.15547
4.94732
-0.596672
-0.302924
5.42077
8.86073
0.430292
2.78545
5.95969
2.95586
0.594782
1.3357
4.61159
1.5059
1.89805
2.21418
0.329148
0.829764
0.509694
0.271301
4.84109
1.22848
2.13334
1.12363
0.156871
0.744402
1.47692
-0.840345
-1.32714
0.648595
-1.0497
2.1883
1.33039
2.41607
2.80796
3.33854
-0.441219
1.52738
2.60263
-1.41246
1.14019
-0.407668
-0.171391
-1.28994
3.93259
0.222859
-0.872611
0.247765
11.8764
6.87905
0.112622
-0.0859639
0.0320262
2.51533
4.50283
-0.179929
15.1479
3.14605
13.5591
2.40127
1.70927
-0.0902109
-0.7204
0.696794
1.26962
-0.83928
-0.815763
3.66682
3.61928
3.76272
-0.950452
1.83855
-1.13048
0.871748
-1.72572
4.55111
0.753448
-0.0839127
-0.963994
1.4079
1.62487
3.59426
0.669938
-1.16499
2.54213
-1.38047
0.550529
-0.444855
0.214285
0.536028
2.12898
-0.0332474
1.91023
0.386533
0.581498
0.325703
0.39899
1.66547
-0.416531
3.63166
2.20381
3.54004
2.62461
1.78614
0.952872
-0.904154
3.94482
0.272175
0.110724
-0.996008
-0.0164413
0.531852
5.22024
-1.43318
-0.00491602
1.76757
0.688907
1.40733
5.75898
2.19051
1.11621
0.912028
1.08025
-0.393937
3.04083
3.33338
-2.10125
1.07865
-0.0703233
2.60189
1.83577
4.16686
-1.77719
-3.54904
1.39888
3.4032
1.71142
-2.0954
3.35876
-1.75406
1.33157
-1.33799
-1.40393
2.22723
0.54717
-0.760708
0.397527
0.890243
2.74748
2.62188
-1.20862
-2.19859
0.0113546
2.9018
-0.0896925
2.11784
0.0944861
1.49425
5.78336
4.36258
3.00607
4.68813
0.676113
3.34176
1.90009
1.60065
2.42418
4.70765
-0.53717
-0.822721
-0.855209
-0.212655
-1.13945
-0.701051
-1.20932
-0.730263
-1.71079
2.23165
1.12528
6.1635
5.49532
0.0199976
-1.02445
3.85683
3.11209
4.00948
5.4471
-0.614577
-0.574161
-0.0832259
-0.479171
-0.378039
-0.603487
-0.576747
0.621423
8.81216
0.152947
-1.53994
-2.09847
-1.2754
0.024754
1.14349
-0.161523
-0.802042
-0.424698
-1.47377
0.117191
0.0270596
6.36517
7.08219
1.79285
0.234745
0.299661
-1.36482
3.13268
7.78974
-0.331607
8.7948
0.551437
5.78424
0.540665
0.478681
0.599986
0.23203
0.397611
-0.0289495
0.58743
-0.160344
5.26321
5.54609
2.72739
-0.476672
3.17248
-1.57617
11.2696
4.49151
7.34826
2.1263
2.49617
0.386077
0.0703327
1.78053
21.662
10.4332
5.59464
5.06327
-0.108984
2.66333
0.183727
2.63712
6.86538
0.645188
15.7108
1.97714
2.42402
2.93093
4.01311
3.10904
3.32154
2.575
2.98931
1.6337
2.86867
-0.869921
-0.598317
2.58741
0.271724
3.1267
-0.611827
2.19423
-0.659542
4.41056
4.38989
0.342995
0.825179
3.17892
0.535819
1.4159
0.523367
1.91191
-0.280681
-0.477631
-0.631472
-0.442305
1.96325
-1.07416
1.83509
-0.951082
0.927275
3.44569
1.40089
4.13599
0.835312
-0.893035
0.357819
-1.01711
3.85051
5.40394
2.04138
1.36012
-0.00659438
5.53288
2.27899
0.290498
0.161422
5.65739
-0.837423
-0.737198
-1.0605
-1.00326
-1.53451
-0.994371
0.20526
2.21246
4.71867
-1.07421
0.101185
0.0117572
5.33493
0.698187
0.906486
4.88644
-1.96817
-1.63589
2.05079
3.75806
-1.2602
-1.48444
-1.17365
-1.27278
-1.15244
-0.151004
-1.78827
0.830506
-0.298545
-0.276928
4.00154
1.94769
0.448568
-0.497801
0.180244
3.15407
1.72916
3.53144
2.26907
-1.97872
6.02428
1.8217
6.70174
2.3415
-1.95338
-1.2634
-1.32258
0.00138166
3.20939
2.58952
0.797678
1.61548
0.409265
-0.155171
0.295839
-0.0135164
-0.534528
0.15979
-0.0069005
0.295938
0.584097
0.0386099
0.463875
-0.0386531
0.19766
0.293359
1.049
5.4329
0.0917624
-0.414543
-0.641293
-0.251942
-0.446886
-0.630407
0.208335
0.520336
0.222033
0.432138
0.409342
0.544727
8.82009
-0.334833
0.670536
0.539195
0.761377
0.446796
-0.355824
0.284511
0.330479
-0.378224
-0.885358
8.17003
1.13641
-2.45761
0.98297
-0.0289985
2.09377
0.0242266
-1.06263
6.56016
-0.472956
0.272255
0.318861
0.529655
1.62274
1.92365
1.06533
1.74416
3.08785
4.52108
4.65194
-2.56034
1.97907
3.01641
0.930073
3.19695
1.88822
-0.823842
2.41191
3.96811
-0.0702229
0.0875175
2.21808
0.117733
-0.794062
2.2088
3.33337
-0.814849
1.59905
2.70279
1.18181
0.101701
-0.272989
-1.4835
-0.0233115
0.140836
2.58425
0.140626
0.132352
0.244038
0.16733
-0.787637
-1.52621
1.42701
6.65224
3.50626
-1.61298
1.90205
3.24256
2.42635
-0.422654
-0.00273599
-0.506222
0.0130529
5.82421
-0.538026
2.82355
1.70006
1.03694
0.0530325
0.959539
3.06142
-0.809911
0.0676609
2.60044
2.62312
4.37392
1.86106
1.7351
1.553
3.72831
5.59306
-0.238703
0.0117925
0.856139
4.26597
1.56423
0.677489
1.70283
-1.9185
-0.753887
-2.40494
4.85111
0.30461
5.82809
3.60524
0.564886
3.48181
1.20792
2.41254
3.82076
-2.62159
-1.35593
-0.232698
2.7294
-0.610137
0.106563
-0.651527
1.4658
0.671535
3.1685
0.484911
0.228545
-1.29912
0.929098
1.9865
-0.15741
2.37903
2.98274
4.44393
2.77608
0.884192
0.826526
6.06646
3.4004
3.26744
1.5711
-2.23365
2.82121
-0.526453
1.73013
3.02627
4.10176
-3.09161
0.817134
5.51692
3.275
-1.77029
1.02542
-1.77558
-0.507573
3.95016
-1.76673
5.09368
3.70203
4.17468
-0.942356
0.0861302
3.74039
-0.620358
0.412291
1.76661
1.92773
-1.50148
1.9557
-2.391
-0.289882
-0.574986
-1.62944
0.477265
1.40129
2.48311
0.695545
1.40612
7.81739
1.66723
-1.23353
-1.43921
-0.348132
-1.38384
-1.40183
5.08404
-1.13745
2.80342
0.718321
3.24156
-0.0305531
0.515295
0.716205
-0.964845
5.33458
-0.881025
-1.59327
0.44184
-1.2392
1.82175
1.06511
-0.895512
-1.33901
-1.35859
-1.17886
1.68228
3.88474
-2.65405
1.59851
-1.15721
0.546676
-1.24768
0.605456
0.176085
0.317631
-0.88644
-0.770393
1.46224
0.161305
0.71739
3.33418
5.22746
0.474833
0.489047
0.1746
0.0176985
0.37218
0.11419
0.232465
-0.506162
3.26447
2.93412
0.678027
-0.622203
-0.118803
4.45084
2.87629
0.0932298
-1.48281
3.43296
-0.43219
1.43112
0.00592217
-0.987387
6.90752
0.96064
1.47924
-0.875648
SCALARS Redistribution_Potential double 1
LOOKUP_TABLE default
-6.05129e-08
-0.586309
-0.450129
-1.17696
-0.795496
-0.67677
-0.87112
-0.0443785
-1.17409
-1.25215
-0.0937413
-0.499423
-0.43429
-0.660723
-0.50977
-0.67388
-0.450433
-0.504302
0.595159
0.919045
0.521287
-0.346314
-1.07757
-1.13324
-0.589977
-0.83967
-0.415287
-0.44061
-0.556219
-0.493139
-0.914421
-0.724574
-1.23946
-1.13528
-0.989182
-0.495648
-0.816056
-0.546154
-1.04406
-1.06689
-1.2031
-1.2593
-0.240656
-0.508701
-0.351648
-0.625048
-0.60467
-0.532223
-0.592894
-0.617485
-0.647325
-0.408197
-0.309316
-0.70604
-0.556388
-0.510234
-0.519321
-0.61115
-0.329846
0.43629
-0.512807
-0.480821
0.395157
-0.360327
-0.420995
0.977086
0.312041
0.510817
1.2028
0.487393
0.979684
0.540225
-0.0894345
-0.229667
-0.0610275
-0.335118
-0.441257
-0.935779
-0.815766
-0.950081
-0.969451
-1.21821
-1.13023
-1.19441
-0.634746
-0.767766
-0.548584
-0.627233
-0.858629
-0.673901
-0.577528
-0.321145
-0.481877
-0.375255
-0.371546
-0.390193
-0.393152
-0.361311
-0.113357
-0.291083
-0.219446
-0.012052
-0.707728
-0.501048
-0.803605
-0.504348
-0.476037
-0.674328
-0.536902
-1.00806
-0.803366
-1.11215
-1.21397
-1.18242
-1.11801
-1.2202
-1.20985
-1.2438
-0.859561
-1.07075
-0.987239
-0.906246
-1.04342
-0.598927
-0.719293
-0.594173
-0.66511
-0.511572
-0.948177
-1.124
-0.44031
-0.650506
-0.944027
-0.802882
-0.736097
-1.16906
-1.21291
-0.989049
-1.07833
-1.22121
-1.17207
-1.13406
-1.23417
-1.23973
-1.23494
-1.24056
-1.26102
-1.03425
-1.13521
-0.979108
-0.46014
-0.427253
-0.518665
-0.475842
-0.337229
-0.429641
-0.955154
-0.886622
-0.644488
-1.22098
-1.18566
-1.06482
-0.0423256
-0.316645
-0.182416
-0.481952
-0.41291
-0.364628
-0.446448
-0.45275
-0.524667
-0.579637
-0.592324
-0.539168
-0.645005
-0.623839
-0.652325
-0.49116
-0.576678
-0.543626
-0.635389
-0.623408
-0.645499
-0.574687
-0.591766
-0.544987
-0.648532
-0.637288
-0.643419
-0.565832
-0.620469
-0.583084
-0.31044
-0.162716
-0.442652
-0.388615
-0.396103
-0.389146
-0.429504
-0.686486
-0.621219
-0.603639
-0.616502
-0.697878
-0.55666
-0.505655
-0.54746
-0.546474
-0.599094
-0.452796
-0.509671
-0.479992
-0.642814
-0.56327
-0.588926
-0.46848
-0.536861
-0.439707
-0.0996928
0.224856
-0.406535
-0.33088
0.584377
-0.0607273
-0.0489063
-0.54298
-0.521513
-0.49487
-0.507812
-0.508042
-0.500047
-0.470567
0.102844
-0.111381
-0.22622
-0.0353947
-0.0644837
0.610462
-0.478367
-0.386983
-0.479475
-0.443587
-0.465226
-0.33574
0.456442
0.254669
1.00643
0.919307
0.439282
0.750786
0.795492
0.225634
0.484625
1.11187
0.966471
0.919313
0.946561
1.13635
0.0631598
0.568006
0.0381461
0.876255
0.738962
0.574371
0.752385
0.911703
0.997365
1.10013
1.09133
1.03395
0.063261
0.301066
0.158057
-0.159121
-0.282045
-0.116799
0.0251616
-0.241484
-0.138447
-0.294359
0.206471
0.369066
-0.482415
-0.48472
-0.378933
-0.447155
-0.392682
-0.399651
-0.334072
-0.0281935
-0.202466
-0.153899
-0.71005
-0.669412
-0.784196
-0.744609
-1.00814
-0.891314
-1.04265
-0.813516
-0.840385
-1.04709
-0.965218
-1.02305
-0.845166
-0.823465
-1.2418
-1.21109
-1.23172
-1.14168
-1.18127
-1.18143
-1.14977
-1.17698
-1.1124
-0.963787
-1.05639
-1.06467
-0.663127
-0.72099
-0.637487
-0.642776
-0.797768
-0.678811
-0.722633
-0.551368
-0.596566
-0.599875
-0.603316
-0.582656
-0.638581
-0.650725
-0.819521
-0.723144
-0.695057
-0.726988
-0.748263
-0.869349
-0.562653
-0.581866
-0.622362
-0.607268
-0.618528
-0.660323
-0.41139
-0.495882
-0.375403
-0.398913
-0.459089
-0.412438
-0.388217
-0.267823
-0.308427
-0.389285
-0.376627
-0.405308
-0.335898
-0.3564
-0.433606
-0.39604
-0.384041
-0.401402
-0.394932
-0.412977
-0.403575
-0.401402
-0.407599
-0.352656
-0.366172
-0.285502
-0.0419153
-0.179209
0.321242
0.238141
-0.376846
-0.188548
-0.347135
-0.0998631
0.0749738
-0.268003
-0.117085
-0.326197
0.276126
0.374073
-0.81035
-0.752637
-0.857301
-0.497745
-0.621664
-0.586456
-0.691786
-0.640675
-0.52731
-0.0254884
-0.288192
-0.302252
-0.446186
-0.31077
-0.496761
-0.477539
-0.575984
-0.506212
-0.598067
-0.616871
-0.569736
-0.686821
-0.61214
-0.770213
-0.516569
-0.506253
-1.12687
-1.06373
-1.1571
-0.753539
-0.930965
-0.861445
-1.04529
-0.996394
-0.853561
-0.509825
-0.655132
-0.610132
-1.19471
-1.18301
-1.15253
-1.22021
-1.20077
-1.22085
-1.06636
-1.14985
-1.10518
-1.24242
-1.24275
-1.25699
-1.17864
-1.21839
-1.18827
-1.24431
-1.23609
-1.23059
-0.819159
-0.932625
-0.875888
-1.0347
-0.979782
-0.891618
-1.07405
-1.03784
-1.11663
-1.19662
-1.15961
-1.1345
-1.07953
-1.10814
-0.938348
-1.0157
-0.939505
-0.975607
-0.868007
-0.643568
-0.714786
-0.56378
-0.654586
-0.537413
-0.754166
-0.741186
-0.492789
-0.527814
-0.485759
-0.724851
-0.640834
-0.695576
-0.510013
-0.573717
-0.578552
-0.777791
-0.676995
-0.761458
-1.08659
-1.15459
-0.887949
-0.993246
-1.0889
-1.05024
-1.00378
-0.368083
-0.513356
-0.567533
-0.557252
-0.484919
-0.631177
-0.735974
-0.902863
-0.8391
-0.827089
-0.946769
-0.885304
-1.00277
-0.649708
-0.75161
-0.688379
-0.8062
-0.723835
-0.880086
-1.18371
-1.2057
-1.11236
-1.15507
-1.21599
-1.20312
-1.20282
-0.930417
-0.975877
-1.08189
-1.03692
-1.03298
-1.02397
-1.06598
-1.20218
-1.18754
-1.15951
-1.20757
-1.20189
-1.22183
-1.10638
-1.16383
-1.1278
-1.1244
-1.12947
-1.17488
-1.2164
-1.21475
-1.22458
-1.23144
-1.23883
-1.21548
-1.23183
-1.25113
-1.2466
-1.2558
-1.23395
-1.21809
-1.25756
-1.25951
-1.24431
-1.22558
-1.26071
-1.25473
-1.25335
-1.23342
-1.22546
-1.2391
-0.932544
-1.08957
-1.02123
-0.954402
-0.949596
-1.21105
-1.10918
-1.17473
-1.18544
-1.14312
-0.867484
-0.920302
-0.895937
-0.967741
-1.01062
-1.08529
-1.06196
-1.01584
-0.466861
-0.457211
-0.474728
-0.455685
-0.406044
-0.489561
-0.513817
-0.437962
-0.437726
-0.461005
-0.527279
-0.476816
-0.51648
-0.552961
-0.553515
-0.458187
-0.475229
-0.429088
-0.733356
-0.503005
-0.615156
-0.600891
-0.513391
-0.328632
-0.401317
-0.368262
-0.354374
-0.392453
-0.311748
-0.46061
-0.39807
-0.40562
-0.420693
-0.370485
-0.40004
-0.391204
-1.08719
-1.02546
-1.05763
-0.984297
-0.826718
-0.899963
-0.732948
-0.83876
-0.95225
-0.991784
-0.354596
-0.678114
-0.527666
-0.398028
-0.592728
-0.921692
-0.771021
-0.795173
-1.24662
-1.24969
-1.24848
-1.22131
-1.17629
-1.19391
-1.09023
-1.1544
-1.21918
-1.24293
-0.736304
-1.10716
-0.948568
-0.846869
-0.982945
-1.21274
-1.13296
-1.16486
SCALARS CoVolArea double 1
LOOKUP_TABLE default
0.0547745
0.0108647
0.0640273
0.0625818
0.0365964
0.0382115
0.0251372
0.0104106
0.0274429
0.041885
0.0493077
0.0562528
0.0704783
0.0484297
0.0462163
0.0469656
0.0444839
0.0458975
0.0271439
0.0144185
0.0611813
0.08933
0.0475126
0.0415703
0.0885743
0.0671948
0.0757549
0.106831
0.0521882
0.0984032
0.0472957
0.0458724
0.0727808
0.0682242
0.09145
0.0633951
0.12458
0.056242
0.071323
0.057904
0.0555786
0.0437716
0.083138
0.0640829
0.0813743
0.067585
0.0730214
0.0813385
0.0539472
0.0435168
0.0461686
0.0446904
0.0688568
0.0664243
0.0580396
0.0273492
0.0349497
0.0314194
0.0601571
0.0369564
0.029411
0.0535231
0.0193019
0.0403085
0.0408122
0.0231902
0.0591259
0.0117228
0.00964905
0.0738608
0.0263445
0.0401709
0.0861768
0.089061
0.0862641
0.089922
0.0769646
0.0418656
0.0417758
0.059236
0.0561297
0.0451071
0.0490258
0.0460576
0.0441145
0.0600594
0.074435
0.0474156
0.0729746
0.0798128
0.0773594
0.0919187
0.0812144
0.0817862
0.0886881
0.0943606
0.0960962
0.0669291
0.0278255
0.0681252
0.016015
0.0142272
0.0792494
0.059527
0.0664013
0.0184822
0.0357868
0.0226309
0.0260321
0.0559709
0.0428096
0.0445894
0.102104
0.08892
0.0991911
0.057766
0.0753976
0.0479465
0.0814891
0.0952234
0.0795076
0.123198
0.0908314
0.0633892
0.0973376
0.0953531
0.101651
0.086061
0.0999421
0.081943
0.0694318
0.080717
0.0779609
0.0734481
0.0593957
0.0763103
0.0718914
0.0541618
0.0708959
0.0573875
0.0662921
0.06204
0.0730761
0.0443699
0.0474129
0.0464359
0.0546229
0.0560856
0.0622971
0.0607914
0.0688027
0.0743347
0.0893887
0.0810839
0.0681775
0.0881765
0.0702703
0.0579009
0.0691316
0.0427169
0.0548482
0.0522341
0.0762898
0.0782979
0.0799704
0.0716611
0.0660859
0.0725888
0.0589623
0.0632333
0.0595323
0.0713515
0.0723797
0.0741219
0.0579559
0.0674586
0.0504517
0.0779254
0.0748496
0.076907
0.044062
0.0454429
0.0431043
0.0486071
0.0416742
0.0480382
0.0413464
0.0357404
0.0435362
0.0744553
0.0586278
0.0634406
0.0825725
0.0669256
0.0537483
0.0670814
0.0571369
0.0535133
0.0315513
0.0561836
0.0559236
0.0449445
0.0609286
0.0583049
0.0613312
0.0557096
0.0221969
0.0266843
0.0241709
0.0302116
0.025844
0.0292932
0.0377774
0.0265666
0.0363214
0.055772
0.0452939
0.0395058
0.0565572
0.0528891
0.0773354
0.0686253
0.0233613
0.0389007
0.0305199
0.0148075
0.025772
0.0487008
0.0452791
0.040379
0.0374963
0.0542135
0.0121317
0.0298227
0.0282238
0.0253041
0.0244386
0.0207142
0.0443782
0.0399754
0.0555081
0.0774533
0.0638093
0.0560345
0.0457723
0.0555239
0.032203
0.0330795
0.0657173
0.0438787
0.0336941
0.00802801
0.00837333
0.00974551
0.0111964
0.0126409
0.0154691
0.024482
0.068923
0.0577396
0.0480608
0.0401074
0.0435843
0.0565391
0.0197931
0.0269439
0.0132232
0.014439
0.00942071
0.0203322
0.0719835
0.0857382
0.0741131
0.0750806
0.0732442
0.0816023
0.0848634
0.0904094
0.0868888
0.0882982
0.0777177
0.0779108
0.077919
0.0708817
0.0844027
0.0836145
0.0795437
0.0824335
0.0874406
0.0997344
0.0950838
0.0955872
0.0369354
0.0208827
0.0503231
0.0419983
0.0500381
0.0435511
0.0427638
0.0674578
0.068803
0.0508455
0.0581474
0.046752
0.0637958
0.0546147
0.0508212
0.0475811
0.0507946
0.0389746
0.0409237
0.0337206
0.0486583
0.0478982
0.053664
0.0500387
0.0523641
0.044676
0.0511519
0.0569424
0.0458883
0.0413051
0.0650752
0.0486712
0.0649988
0.0664981
0.0709293
0.0742137
0.0589544
0.0805675
0.0496657
0.0429173
0.051653
0.073595
0.0611886
0.0717921
0.0825003
0.0651548
0.0818869
0.0795604
0.0872771
0.0501856
0.0691699
0.0627125
0.0782862
0.0638117
0.0892601
0.0837606
0.107991
0.0925582
0.10495
0.0832582
0.085156
0.0837812
0.0797157
0.0778116
0.0824627
0.0926679
0.0900972
0.086844
0.0800283
0.108713
0.0919526
0.0980135
0.0707048
0.0752163
0.0859832
0.102002
0.0992286
0.106147
0.0480375
0.0623298
0.0190348
0.0313131
0.0803717
0.048853
0.0622978
0.0145077
0.0108887
0.0280905
0.0121023
0.0295442
0.0125323
0.0123579
0.0484703
0.0695325
0.0498515
0.0800944
0.0753496
0.0905476
0.0611069
0.0692657
0.0561754
0.0190962
0.0331389
0.040296
0.0340862
0.0259339
0.0308052
0.0259696
0.0388281
0.02843
0.0266416
0.0159048
0.0180279
0.0283186
0.0237827
0.0332808
0.0296679
0.0347405
0.0448971
0.0519255
0.044405
0.0373052
0.0517781
0.050208
0.0490261
0.0504717
0.0435196
0.02352
0.0272294
0.0247567
0.077118
0.0950162
0.0776319
0.0888196
0.0945766
0.105577
0.0985761
0.0916009
0.0906021
0.0574762
0.0575151
0.0539575
0.0719119
0.0596329
0.0659863
0.04618
0.0575549
0.0731308
0.0608344
0.0753835
0.0571132
0.0872833
0.0808792
0.0862482
0.0717347
0.0838186
0.0851022
0.0993472
0.102128
0.103693
0.0948564
0.0772512
0.105583
0.108896
0.108843
0.110469
0.132153
0.0603556
0.0671273
0.0895088
0.0854687
0.0685598
0.082796
0.0834286
0.0774757
0.102644
0.0805493
0.119493
0.101808
0.100604
0.0640658
0.0965089
0.0880338
0.11006
0.103071
0.128318
0.089323
0.0898774
0.11125
0.0977965
0.0793386
0.0916262
0.0935082
0.0650327
0.0776569
0.0628764
0.0684323
0.0633582
0.082348
0.105749
0.0525305
0.0705444
0.0510745
0.081435
0.0746515
0.0730616
0.0534819
0.0539003
0.0597139
0.10823
0.0877368
0.0961913
0.0779096
0.0747506
0.071913
0.0755488
0.0711275
0.0709779
0.0647614
0.0422796
0.0534933
0.0552636
0.051719
0.0520688
0.0694076
0.0710318
0.0576449
0.0650227
0.0561784
0.0585838
0.0493394
0.0413088
0.0540782
0.050822
0.0602764
0.0892548
0.0799073
0.0842297
0.086072
0.069516
0.0853826
0.103871
0.0824547
0.0426787
0.0506053
0.0380775
0.0432754
0.0438583
0.0473864
0.0533038
0.0470691
0.0514731
0.0492976
0.0401606
0.0526756
0.0480219
0.0430612
0.0625686
0.0523932
0.0615609
0.0631436
0.0586443
0.0605828
0.0612549
0.0580084
0.0537193
0.0553563
0.0491103
0.056782
0.0671492
0.0673096
0.0635569
0.0649768
0.0566848
0.0545057
0.0634834
0.0653828
0.0593196
0.0820095
0.0569474
0.0711437
0.0805543
0.0775021
0.0728206
0.0815591
0.0757432
0.0693175
0.065334
0.068315
0.101968
0.0918623
0.0817382
0.0844503
0.0758498
0.0895359
0.0869432
0.0660461
0.0695376
0.0626917
0.0776839
0.0956085
0.0641715
0.0723907
0.0691112
0.0701549
0.0638003
0.0881717
0.106408
0.0893538
0.0857279
0.0746313
0.078183
0.0763476
0.0977057
0.0599801
0.0640717
0.0584501
0.0570029
0.0700668
0.0572287
0.0603852
0.0557624
0.0584016
0.0579859
0.0294144
0.0637381
0.0490404
0.046117
0.0625071
0.0671462
0.067626
0.0764241
0.0508268
0.0466938
0.0478256
0.0412534
0.040323
0.0461801
0.0570976
0.0452547
0.0496254
0.049409
0.0309752
0.0468051
0.0489535
0.0435688
0.0550815
0.049367
0.0568832
0.0450831
SCALARS SignedDistance double 1
LOOKUP_TABLE default
1.18303
1.15288
0.0153379
0.16657
-0.0147438
1.03763
0.00015058
1.37538
-0.00136836
-0.0824423
1.28976
-1.00198
-0.00504444
0.0781566
0.365255
1.33244
0.0156839
0.10014
0.488946
-1.00046
0.00198467
0.0064456
-0.000184916
0.0648999
0.00528263
0.0511374
-0.00205544
0.0348669
1.28664
0.0831536
0.0796505
1.24712
0.00171121
0.104736
0.00577344
-0.987866
0.00071568
-0.973709
-0.0106071
-0.055432
0.568505
0.0384954
0.0125917
0.0519457
-0.0176056
0.059128
0.000841138
0.062862
1.14157
0.0284359
0.0173351
0.800939
0.0184871
1.15842
1.23758
0.0111655
0.048522
1.14653
0.666284
0.669423
-0.0637204
0.117244
1.16666
0.975249
1.15939
-1.02733
0.0206337
1.12262
0.00650621
-0.433503
-0.159158
0.0389256
0.000837643
0.00260666
0.00162672
-0.00317148
-0.00650857
0.117715
1.14776
0.131025
0.0140168
0.137761
0.0110932
0.0927277
1.09775
0.0892339
0.510868
0.0708207
-0.00508571
0.0274822
1.027
-1.00062
-0.00304909
0.0364722
0.000799894
1.00135
-0.00334247
0.565837
1.39746
1.15708
1.4466
1.33183
0.0376904
1.21472
0.0312161
1.14696
1.34737
1.36046
1.15642
0.0762894
1.14233
0.125713
0.0457495
0.215522
0.0145843
0.115375
-0.00450517
-0.0792872
-0.0261587
0.00426944
-0.0107814
-0.0817808
2.82974e-06
0.0515449
0.0254808
-0.0540612
-1.39765e-05
0.0468717
-8.22936e-05
0.118655
-0.0263768
0.0840169
-0.0195658
0.051541
0.000541222
-0.0455175
-0.0034753
0.129407
0.00862358
0.0831985
-0.00208581
0.154532
0.00132894
0.15243
0.00682877
-0.120861
0.00332768
0.12942
0.00401285
0.0453864
0.0170153
0.535585
0.00794267
0.814354
0.958896
0.0449792
0.0331356
0.0313147
1.30402
0.0522227
-0.00142938
0.126107
1.13112
-0.010922
0.0045791
0.0558547
0.000178587
0.0223809
0.0412577
0.0351585
0.031204
0.082698
0.00817537
0.0637172