# vtk DataFile Version 4.2
vtk output
ASCII
DATASET POLYDATA
POINTS 642 double
-1.11712 3.11941 -0.264615
-0.360865 2.74841 -0.183773
-1.28905 0.535479 -0.00537806
0.674949 0.551255 0.00630442
-0.370832 1.21243 1.0431
-0.616561 2.3602 0.453154
-0.342487 1.38059 -0.852887
-0.882168 2.81153 -0.482641
0.560136 1.91611 -0.441494
0.725905 1.86788 0.546941
-1.24282 2.36356 -0.421103
-1.80883 2.13581 0.858456
-1.67847 2.91621 0.43787
-1.19118 2.42314 0.797554
-0.95047 2.80564 0.281956
-0.379296 2.59679 0.067306
-0.486882 3.29768 -0.219507
-0.178209 3.21543 -0.648596
-1.18121 2.99258 -0.656763
-1.2288 2.90332 -0.893318
-1.5986 3.01235 -0.641332
-1.85662 2.15839 0.0149077
0.145677 2.21434 0.688859
0.397044 2.39204 0.239361
-1.02553 1.61439 0.860754
-0.408767 1.88017 0.839328
-1.4506 1.31306 -0.368986
-1.58724 1.2251 0.480012
-0.594951 2.2299 -0.4704
-0.868089 1.84795 -0.602704
0.129963 2.41403 -0.234233
-0.260634 2.35595 -0.365254
1.03539 1.22829 0.465291
0.339566 1.51481 0.962782
0.199675 0.686824 0.801497
-0.937136 0.655814 0.841511
-0.355202 0.554715 0.000225604
-0.81807 0.790931 -0.673592
0.143416 0.825033 -0.680081
0.172531 1.59132 -0.687205
0.798676 1.23462 -0.267018
0.871041 1.82245 0.0247062
-1.34726 2.9584 0.0657062
-1.28034 2.96193 0.481972
-1.00701 3.04108 0.0955512
-1.49051 2.36138 0.966329
-1.45411 2.73002 0.81055
-1.8407 2.56909 0.705254
-0.834421 2.56449 0.373579
-1.11656 2.68146 0.603601
-0.928922 2.38706 0.555529
-0.679463 3.08101 -0.0456534
-0.807089 3.29843 -0.211278
-0.438448 2.48184 0.293184
-0.627922 2.73593 0.111542
-0.327238 3.1441 -0.262897
-0.460443 2.9697 -0.109836
-0.375595 2.71672 -0.109751
-0.65409 3.29017 -0.441351
-1.1722 3.04071 -0.585725
-0.282393 3.01325 -0.357302
-0.290802 3.40269 -0.474447
-1.08845 2.90723 -0.602136
-0.532565 3.16144 -0.520039
-0.537486 2.97285 -0.45054
-1.26574 3.06536 -0.805411
-1.37754 3.1441 -0.433808
-1.11891 2.87334 -0.651779
-1.1936 3.08555 -1.05154
-1.44498 2.74735 -0.681747
-1.43964 2.98418 -1.01499
-1.23888 2.79711 -0.796763
-1.60754 2.90908 -0.0800654
-1.55511 2.21772 -0.275251
-1.61001 2.59848 -0.223302
-1.85091 2.56765 0.248313
-1.85037 2.14389 0.453152
0.023977 2.4607 0.196986
-0.0670741 2.49387 -0.0212081
-0.172454 2.31786 0.646466
-0.0366377 2.46053 0.449701
0.617002 2.18444 0.409961
0.32673 2.33418 0.471983
0.464778 2.07605 0.677901
-0.883275 2.13705 0.655309
-0.533085 2.15027 0.645625
-1.39085 1.94591 0.777867
-1.19014 2.12556 0.815931
-0.366913 1.55613 1.04338
-0.720402 1.7825 0.795694
-0.637633 1.36034 0.882754
-1.85816 1.69133 0.259947
-1.64406 1.78018 0.631683
-1.43064 1.7865 -0.443772
-1.68551 1.72796 -0.188225
-1.3394 0.826391 0.214599
-1.62118 1.20276 0.0093863
-1.29242 0.871854 -0.117575
-1.00069 2.54656 -0.480612
-1.0612 2.14771 -0.469091
-0.820308 2.66776 -0.453008
-0.978619 2.68007 -0.50158
-0.617182 1.54052 -0.806494
-0.708756 2.12039 -0.507108
-0.389049 1.74499 -0.777169
-0.483936 2.80674 -0.351755
-0.585653 2.70413 -0.393935
-0.277213 2.59379 -0.185101
-0.43717 2.76432 -0.306708
0.187655 2.12132 -0.477558
-0.0912902 2.37709 -0.313566
0.429457 2.19264 -0.333949
0.976851 0.719438 0.249363
0.723583 0.860196 0.634641
0.502075 0.554478 0.394798
0.595117 1.69094 0.7772
0.683639 1.32109 0.701504
0.87267 1.49282 0.470108
-0.139729 0.932132 1.04319
0.296848 1.0879 0.912154
-0.0314264 1.34125 1.07264
-0.0311009 0.570632 0.444193
0.212891 0.554724 0.00395874
-0.581446 0.880862 0.909678
-0.338312 0.555138 0.918599
-0.861253 0.558639 0.00692807
-0.647749 0.554724 0.452456
-1.15022 0.549995 0.49047
-0.0664921 0.55476 -0.418227
0.433787 0.644125 -0.388374
-1.07634 0.634132 -0.355774
-0.648086 0.554877 -0.419028
-0.14089 1.09795 -0.841458
-0.366984 0.766037 -0.689673
-0.533478 1.10322 -0.776672
0.546168 0.994742 -0.4712
0.864629 0.831751 -0.23182
-0.0525365 1.47248 -0.854337
0.205504 1.22889 -0.710591
0.739795 1.54129 -0.362937
0.536165 1.40017 -0.573301
0.409357 1.73978 -0.605832
1.11791 1.1656 0.0080744
0.786973 1.85763 -0.218939
0.870577 1.49844 -0.103519
0.911269 1.44383 0.183219
0.864319 1.84986 0.30937
-0.0260703 1.72094 1.04779
0.268229 1.90792 0.870082
-0.116301 2.02157 0.791232
-1.24628 0.853356 0.614876
-0.920619 1.0718 0.736175
-1.31298 1.39346 0.770586
-0.777275 1.26076 -0.587275
-1.06011 1.05691 -0.369634
-1.17218 1.53723 -0.542059
0.0284069 1.98325 -0.593962
-0.186686 1.8259 -0.696108
-0.441302 2.30355 -0.427614
0.650512 2.13773 0.157965
0.614698 2.18469 -0.133515
0.330578 2.42159 -0.0303317
-1.21308 3.06904 -0.140988
-1.18861 2.97873 0.121777
-1.06592 3.12558 -0.0918571
-1.48871 2.96218 0.485929
-1.32062 2.95803 0.302691
-1.54037 2.96005 0.288701
-0.971338 2.92649 0.202828
-1.14619 2.95882 0.315225
-1.08693 2.88943 0.406221
-1.66575 2.26622 0.955969
-1.68806 2.48233 0.916097
-1.85743 2.36253 0.798879
-1.29604 2.55222 0.80305
-1.50663 2.55232 0.915814
-1.30335 2.39685 0.890386
-1.77627 2.75663 0.582534
-1.67374 2.68688 0.814363
-1.64627 2.86689 0.695366
-0.709522 2.43789 0.407936
-0.923269 2.49994 0.484676
-0.740918 2.35641 0.482728
-1.07487 2.75226 0.470854
-1.002 2.61462 0.475247
-0.929559 2.70322 0.339879
-1.06033 2.40145 0.645611
-1.05312 2.53638 0.589525
-1.16411 2.54761 0.680561
-1.40933 2.88194 0.670144
-1.24867 2.70867 0.717581
-1.18235 2.87348 0.633732
-0.904085 3.26262 -0.0389698
-0.940543 3.23106 -0.251549
-0.816317 2.91442 0.11173
-0.815645 3.08227 0.0500609
-0.630663 3.33032 -0.19197
-0.687003 3.25071 -0.0883368
-0.586495 3.20304 -0.142457
-0.522998 2.42248 0.380193
-0.637059 2.51583 0.31035
-0.507622 2.69014 0.0670997
-0.557491 2.59871 0.193235
-0.385853 2.5361 0.180722
-0.734652 2.64478 0.246482
-0.798015 2.76776 0.194893
-0.346817 2.92934 -0.24632
-0.356487 2.95671 -0.191793
-0.363513 2.73618 -0.159752
-0.468976 3.16491 -0.186005
-0.36857 3.07689 -0.150544
-0.410538 3.2352 -0.271031
-0.381559 2.66374 -0.0364196
-0.402088 2.89634 -0.129991
-0.457744 2.77554 -0.0367979
-0.668734 2.90802 0.0242101
-0.54469 2.84862 -0.0135054
-0.55928 3.05454 -0.0943014
-0.912063 3.13876 -0.349974
-1.10627 3.09379 -0.441366
-0.56507 3.36296 -0.360835
-0.718379 3.36965 -0.388899
-1.18521 3.00506 -0.646878
-0.893099 3.06537 -0.404772
-0.882574 3.02612 -0.424223
-0.349259 2.89318 -0.262121
-0.284896 3.071 -0.318823
-0.206859 3.34871 -0.586548
-0.20655 3.2133 -0.409306
-0.203721 3.16104 -0.533171
-0.32505 3.23118 -0.347401
-0.369131 3.42195 -0.337183
-0.963686 2.85548 -0.52025
-0.822099 2.90377 -0.440912
-0.760118 2.84079 -0.436653
-0.870494 2.98348 -0.437036
-0.854585 2.94878 -0.441089
-1.17676 2.97973 -0.663571
-0.395702 3.06972 -0.523807
-0.506145 3.10137 -0.50013
-0.354985 3.21649 -0.63557
-0.45573 3.51669 -0.512198
-0.374408 3.38603 -0.640315
-0.580574 3.22023 -0.515268
-1.24886 3.13358 -0.551269
-1.27719 3.12264 -0.394704
-1.20098 3.22233 -0.86854
-1.2328 3.09495 -0.759667
-1.54603 3.15648 -0.527971
-1.374 3.09193 -0.676586
-1.41006 3.0555 -0.718705
-1.02043 2.83739 -0.557126
-1.11213 2.88768 -0.638027
-1.24291 2.97124 -0.902423
-1.19179 2.95394 -0.837208
-1.19493 2.92573 -0.860297
-1.19136 2.97141 -0.808733
-1.21628 3.04368 -0.896115
-1.29435 2.54992 -0.458587
-1.3237 2.7918 -0.770133
-1.2174 2.55619 -0.477608
-1.40795 2.97692 -0.811726
-1.46489 2.85587 -0.860686
-1.51998 2.89443 -0.694067
-1.23554 2.84865 -0.860893
-1.35494 2.88539 -0.962986
-1.28203 2.86966 -1.1235
-1.24297 3.01164 -0.881652
-1.25195 2.9794 -0.897612
-1.32487 2.99179 -0.876013
-1.37223 3.07429 -0.208707
-1.60336 3.0028 -0.404424
-1.51791 3.08861 -0.271241
-1.50403 2.95952 0.00902963
-1.68059 2.92631 0.197382
-1.3704 2.29963 -0.359953
-1.40308 2.52976 -0.388661
-1.78038 2.38325 -0.125707
-1.59103 2.42083 -0.253508
-1.75725 2.1775 -0.177299
-1.49617 2.67881 -0.437234
-1.59067 2.81856 -0.48994
-1.85053 2.35417 0.571538
-1.85676 2.14415 0.642005
-1.85044 2.7914 0.359162
-1.85168 2.57045 0.474475
-1.85055 2.14507 0.238432
-1.9203 2.36174 0.35007
-1.85036 2.36078 0.12366
-1.64074 2.77159 -0.187909
-1.76308 2.56988 -0.0102054
-1.82056 2.79249 0.0917352
-0.246137 2.56993 -0.0597982
-0.273667 2.6042 -0.118154
-0.201991 2.50101 0.126853
-0.226922 2.53748 0.0239461
0.186766 2.46067 0.108999
0.00953297 2.46502 0.0973215
0.210155 2.46043 0.228584
-0.37811 2.31513 0.524339
-0.303584 2.40803 0.471797
0.0816557 2.36389 0.613436
-0.103086 2.39896 0.561699
0.00381028 2.28057 0.697175
-0.233946 2.46058 0.373493
-0.193683 2.4685 0.263764
0.70579 2.00468 0.505591
0.555637 2.12551 0.550357
0.644545 1.96954 0.630725
0.401173 2.38518 0.372495
0.48675 2.27808 0.457143
0.507104 2.29134 0.325823
0.315961 2.13486 0.681054
0.444074 2.23389 0.620512
0.246027 2.29025 0.602923
0.0174831 2.46036 0.320765
0.153351 2.41356 0.480537
0.22029 2.46167 0.364458
-0.741081 2.25149 0.557635
-0.581284 2.26032 0.546586
-1.05054 2.27226 0.702644
-0.936812 2.26693 0.619051
-0.481856 2.03887 0.716259
-0.726609 2.14002 0.631236
-0.653234 2.00812 0.711768
-1.57574 2.04586 0.847692
-1.44219 2.10625 0.958527
-1.11159 1.89342 0.758285
-1.27612 2.0408 0.81533
-1.20065 1.77728 0.796776
-1.27662 2.21579 0.926851
-1.20011 2.27156 0.855357
-0.363955 1.34202 1.04323
-0.54524 1.44655 1.04955
-0.480897 1.26061 0.967741
-0.559802 1.81756 0.801811
-0.539985 1.65962 0.927344
-0.381402 1.76739 0.980113
-0.822328 1.46915 0.801796
-0.662359 1.54926 0.860987
-0.879363 1.69851 0.796186
-1.04765 2.13677 0.717864
-0.977353 1.94749 0.722368
-0.823098 1.99186 0.7138
-1.72274 1.96153 0.531464
-1.66752 1.97954 0.698366
-1.76846 1.94295 0.147486
-1.76491 1.94264 0.331042
-1.67557 1.49516 0.594145
-1.75289 1.70193 0.45161
-1.71249 1.4681 0.362945
-1.31071 2.05793 -0.407012
-1.48782 2.00683 -0.353114
-1.62123 1.49998 -0.300096
-1.57932 1.75489 -0.348312
-1.49698 1.52736 -0.438995
-1.63154 1.96997 -0.238854
-1.68546 1.95712 -0.0606068
-1.4381 0.605822 0.141138
-1.3397 0.844487 0.01398
-1.43828 0.650522 -0.14967
-1.62785 1.19822 0.238256
-1.42295 1.07046 0.1214
-1.41528 1.07282 0.354252
-1.34641 1.12491 -0.209646
-1.42468 1.0738 -0.0750379
-1.57813 1.22774 -0.214108
-1.77838 1.70171 0.021475
-1.68557 1.46794 -0.0986131
-1.77576 1.43324 0.129811
[...]
POINT_DATA 642
SCALARS Mean_Curvature double 1
LOOKUP_TABLE default
-0.670265
-0.217399
2.76065
5.17121
6.0454
-1.02359
-0.0154554
-0.0691681
3.21295
-2.27757
-0.74943
8.15395
3.36393
2.72445
-1.09858
-0.642085
7.05727
14.313
0.778953
1.70079
8.67309
4.62444
2.36142
1.91517
5.47701
0.544215
3.3506
4.10531
-0.364793
2.38438
3.55901
-0.328063
7.36779
1.69912
2.15955
6.23702
0.243675
6.59111
3.0504
-2.94848
-1.35937
1.86644
-2.1459
3.94627
2.37837
3.41247
3.33199
4.2266
-0.954518
1.91239
-0.637419
-1.65207
2.72837
-0.84859
-0.587549
4.6433
-0.403958
-0.284484
2.15044
-0.0978425
11.1046
4.9999
-0.138767
1.59024
-0.627902
1.12102
2.53571
-0.4901
14.2291
5.99145
15.1666
8.46599
1.92855
-0.257639
-0.81471
0.312306
1.41852
-0.441102
-1.27242
4.20644
4.49569
4.73796
-1.43778
3.11424
-1.48214
0.464693
-1.63929
1.39207
1.84909
0.171423
-1.21755
5.62782
2.02656
3.08361
1.75458
-0.95511
2.84088
-1.70912
-0.162958
-0.886239
-0.184525
-0.246702
3.51416
-0.634358
1.39836
0.231035
0.342315
-0.488643
0.640969
2.36771
-1.03891
4.49916
3.43481
3.42941
3.08351
1.24623
1.2881
3.95188
4.42583
-0.859855
2.00551
-0.870656
-0.0163067
-1.36566
5.65836
-1.69808
0.0217558
2.27118
1.73757
2.50164
4.28616
-0.103423
3.38875
0.183732
2.18073
-1.40197
4.53683
3.95667
-1.5135
1.18605
1.08651
3.78545
4.47412
2.24425
-0.950194
-1.54104
2.62175
5.14887
4.58325
0.250103
3.49014
-1.85629
3.65926
-1.91244
-1.42039
3.07869
3.02857
-1.02501
-0.240304
-0.320577
5.53512
1.33668
-1.11975
-1.72563
0.519423
3.11634
-0.404963
1.59392
0.747844
3.82009
4.31044
4.42757
4.08963
5.08843
0.359627
3.80413
2.54731
1.91776
3.75237
6.19523
-0.881837
-0.602745
-1.05715
-1.94804
-1.36416
-1.07991
-1.79774
0.657471
-1.68182
3.19026
1.94783
7.84169
8.085
5.68474
-1.24343
3.55553
8.15821
5.91385
-1.12438
-0.895664
-0.933704
-0.821623
-0.67509
-0.849045
-0.929284
-0.81889
-0.940185
5.95243
0.638295
-1.66519
12.8224
-2.0107
-0.279592
3.47899
-0.151808
-1.01091
-0.240333
-0.0533174
-0.325655
-0.11677
0.676663
9.67765
1.51568
-0.0156203
0.189157
-0.816413
5.13331
10.2894
9.94513
4.95482
-3.21574
9.67865
-0.504981
0.127389
0.176052
0.268289
0.166078
-0.241327
3.80738
-1.10348
6.99044
9.86159
9.11368
4.313
6.98686
0.206131
14.9796
2.43727
9.50293
2.06279
2.36292
-0.162696
-0.349733
7.46964
12.9499
16.6674
5.34146
9.8224
-0.313264
-0.901187
-0.0590947
2.16572
11.3117
0.903738
13.234
1.35658
13.9216
1.50857
2.48971
-0.15911
0.451054
3.45501
6.15603
1.24354
3.18867
-1.11516
-0.851781
3.90677
0.528454
4.55943
-1.42245
4.6663
-1.16175
4.18253
5.25778
0.511269
1.05089
4.63354
0.59133
1.14656
-0.417045
5.40776
-0.711296
-0.549923
-1.08039
-0.873919
1.91482
-1.89084
2.12671
-2.15424
2.95558
4.67553
2.67787
5.69327
2.35929
-1.44634
2.75259
-0.11402
4.9243
6.00805
3.07117
1.42136
-0.167086
7.56469
2.26942
0.539935
1.73907
5.81103
-1.15796
-0.597529
0.906291
-1.4861
-0.582684
-0.85724
0.551193
1.45293
6.51526
-1.73972
-0.461974
0.511471
5.86311
3.18877
1.18565
7.89409
-1.12107
-2.6818
1.47596
4.67609
-2.13027
-1.52423
-1.22123
-1.55665
-1.76813
0.563289
-1.59455
0.398802
-0.806904
-1.5959
4.80809
1.28562
-0.324789
-1.24488
1.40205
3.34271
2.62031
5.23073
1.84916
-3.15457
8.43566
-1.40292
8.65723
2.96297
-2.51897
-0.100767
-1.24653
1.05421
5.0392
1.78616
0.312521
3.79303
-0.223802
-0.595625
-0.283604
-0.219258
-0.270367
-0.123004
-0.698168
-0.12263
-0.342658
-0.0282408
-0.372587
-0.0736177
-0.559711
-0.445529
1.45282
8.25287
0.616614
-0.701077
-1.17965
-1.52914
-0.65766
-1.06993
-0.605648
-0.184459
0.111404
0.000452734
-0.0915275
0.133203
-1.02929
-0.725125
0.151266
0.586324
0.315119
-0.271566
0.13574
-0.272929
-0.525011
-0.292512
-0.763637
20.1207
-0.209138
-1.34114
4.17055
-0.825774
5.85968
1.67718
-1.31728
4.58611
-0.348926
0.815746
0.123856
0.266925
2.2582
2.51343
1.46858
2.36903
4.39476
5.91319
6
-1.79862
1.33944
5.68579
2.30596
-1.91574
2.4893
-0.714456
3.73488
-0.241004
1.04482
-3.63594
2.79888
-0.0576209
-0.840812
2.14913
3.89515
-1.39474
1.74439
3.68659
1.58178
0.734599
0.215746
0.203061
-0.0203405
0.505654
2.73509
0.140574
0.224653
0.215244
0.139636
-1.5026
-2.06092
6.76527
7.07788
-0.0123371
-1.70108
5.91084
3.62172
3.99542
0.85525
-0.003018
-0.793195
0.0495095
1.78859
-1.16217
1.22616
0.799119
-0.0925096
0.0650845
1.56975
3.10507
-1.2808
0.154911
3.20674
4.0535
4.39879
6.55158
1.41609
7.45154
3.68944
3.60296
-0.0981954
0.114085
0.196634
5.96508
1.55592
1.41844
1.38167
-2.64788
-2.13323
-2.85127
1.46066
0.931861
6.40637
4.09266
-0.185826
3.70266
2.21505
3.19082
0.242863
-1.73819
0.826342
-0.0415223
3.13101
0.718126
0.0255185
1.50098
0.929854
-0.559165
2.48559
2.49137
2.30034
2.08515
-0.796654
-2.04887
-1.31569
2.75926
3.70774
5.39663
2.82036
1.12011
1.961
6.08205
5.70258
3.31838
4.42048
3.25041
-0.359935
-0.162452
5.11009
5.76652
6.32227
-1.31425
3.49054
7.37908
-2.18465
-2.20705
2.57143
-0.998895
-0.932788
1.41121
-1.65829
4.30814
1.59139
5.34598
-1.07897
2.02991
3.41613
-1.469
-0.495566
-2.16572
5.42429
-3.3793
3.05683
-2.23303
-1.44306
0.836783
-3.29837
1.03889
-0.525483
1.66455
0.549271
7.69014
8.21715
-1.4525
-1.2177
-1.35459
0.919037
-1.47896
-1.36097
-1.54368
-1.9776
2.82456
0.93388
3.87872
-0.635994
-0.332385
0.411555
-2.28036
6.67366
-1.07681
-0.660431
1.02016
-1.21917
4.41483
1.81766
-2.775
-1.44356
-1.45974
-1.34989
1.64944
6.69688
-2.27251
0.349461
-1.34845
-0.218661
-2.08457
-0.452214
0.216425
0.500101
-0.925716
-1.40373
2.8917
3.89219
-0.0344673
6.07012
5.19106
0.0545976
0.0511014
-0.0713073
-0.206868
-0.32139
-1.5126
-0.496977
-0.461914
2.75637
1.84867
2.59291
-0.64545
0.563225
1.50612
3.95896
0.63838
0.00986799
4.87866
-0.989597
4.03835
1.90291
0.0371192
10.116
-0.734464
1.94777
0.708452
SCALARS Redistribution_Potential double 1
LOOKUP_TABLE default
-4.35318e-06
-0.159163
-1.04154
-1.09033
-0.982758
-0.703242
-0.977963
-0.0172405
-0.91638
-0.995882
-0.35072
-0.905145
-0.710599
-0.883627
-0.479847
-0.413097
0.189452
0.190042
0.331535
0.487635
0.224608
-0.814844
-0.92845
-0.855161
-0.968187
-0.948849
-0.960207
-1.02168
-0.516812
-0.730158
-0.684384
-0.516826
-1.03771
-1.04943
-1.06648
-0.899647
-1.09395
-0.991364
-1.07548
-0.955391
-1.01679
-0.959985
-0.38164
-0.653928
-0.271401
-0.931708
-0.841609
-0.872376
-0.593944
-0.74627
-0.772581
-0.0571913
0.114488
-0.583806
-0.35138
0.0716241
-0.0907373
-0.238739
0.155716
0.262944
0.0478194
0.190989
0.221009
0.109849
0.0168987
0.520838
0.124521
0.260725
0.717138
0.200065
0.465038
0.317948
-0.371741
-0.618997
-0.416435
-0.750198
-0.90404
-0.702357
-0.556861
-0.854245
-0.786782
-0.941287
-0.8945
-0.976714
-0.856576
-0.860371
-0.949567
-0.926938
-0.986755
-0.939809
-0.903189
-0.957557
-0.983036
-0.8058
-0.910648
-0.985956
-1.01464
-0.969943
-0.189285
-0.517161
-0.158275
-0.0680857
-0.901933
-0.565328
-0.857521
-0.0771197
-0.174905
-0.332965
-0.11636
-0.794814
-0.570919
-0.838885
-1.07486
-1.07921
-1.0926
-1.02898
-1.04966
-1.0096
-1.00937
-1.06406
-1.03535
-1.07963
-1.10237
-0.922271
-0.984837
-1.07087
-1.03477
-0.990217
-1.10006
-1.08706
-1.01696
-1.06907
-1.03549
-1.06004
-0.998304
-1.04429
-1.04891
-0.975306
-1.02753
-0.984882
-1.00227
-0.937043
-1.02778
-0.946601
-0.980981
-0.959879
-0.975778
-1.02264
-1.00625
-0.94628
-0.946633
-0.885693
-1.00134
-0.916129
-0.910195
-0.863466
-0.809776
-0.840981
-0.50399
-0.920945
-0.885864
-0.790523
-0.125656
-0.373275
-0.117475
-0.695824
-0.551523
-0.602114
-0.388574
-0.519066
-0.584596
-0.930596
-0.90921
-0.90468
-0.867826
-0.900013
-0.91327
-0.805381
-0.862483
-0.795344
-0.650297
-0.702902
-0.725534
-0.652285
-0.675868
-0.540718
-0.825113
-0.769182
-0.820498
-0.767979
-0.800629
-0.716264
-0.0393432
0.0278271
-0.277661
-0.154977
0.398586
0.100218
0.108451
-0.643702
-0.559263
-0.349352
-0.462568
-0.504068
-0.472301
-0.399381
-0.0434179
-0.0538272
-0.189135
0.0771
0.00396914
0.132446
-0.317524
-0.123787
-0.25043
-0.207845
-0.22111
-0.0443246
0.0540083
0.133226
0.213679
0.177899
0.327844
0.0529062
0.0465668
-0.053443
0.0598213
0.193404
0.149546
0.159698
0.131429
0.191267
0.0693838
-0.0143144
-0.0629737
0.0341388
0.0164959
0.332153
0.0904662
0.0868994
0.151794
0.254115
0.193514
0.130694
0.232996
0.0838525
0.616234
0.492614
0.254532
0.383476
0.402111
0.111415
0.252667
0.588478
0.489876
0.475494
0.479377
0.634053
-0.174005
0.283804
-0.151056
0.436008
0.365818
0.24272
0.417349
0.441667
0.479197
0.595667
0.587058
0.516425
-0.112561
-0.00567959
-0.0790367
-0.388399
-0.591644
-0.443454
-0.255448
-0.665415
-0.504193
-0.741655
-0.138629
-0.0257117
-0.88605
-0.919159
-0.729472
-0.822879
-0.871707
-0.839483
-0.774837
-0.361168
-0.616393
-0.604488
-0.407707
-0.347279
-0.545124
-0.469935
-0.753021
-0.653188
-0.79123
-0.778544
-0.740669
-0.877156
-0.822057
-0.898901
-0.693263
-0.637114
-0.977216
-0.961103
-0.991051
-0.881437
-0.921863
-0.903923
-0.958999
-0.946444
-0.913112
-0.751519
-0.848855
-0.830017
-0.797507
-0.79068
-0.861404
-0.823109
-0.905577
-0.854363
-0.905347
-0.951876
-0.945337
-0.940875
-0.945619
-0.970548
-0.938451
-0.919669
-0.986772
-0.94045
-0.949027
-0.944867
-0.951691
-0.977851
-0.926969
-0.905991
-0.948366
-0.872666
-0.91612
-0.905441
-0.917687
-0.951172
-0.90826
-0.930231
-1.0153
-0.984373
-1.01245
-0.613328
-0.717176
-0.95164
-0.86313
-0.913208
-0.799505
-0.863089
-1.02428
-0.968321
-1.02215
-1.02604
-1.00955
-1.00206
-0.986457
-1.00217
-0.994411
-0.950899
-0.981022
-1.00369
-0.160229
-0.402329
0.133844
0.0619677
-0.609566
-0.283761
-0.460259
-0.0705515
0.0277064
-0.268149
-0.115669
-0.291213
0.137864
0.177263
-0.953686
-0.884063
-0.941053
-0.63287
-0.773936
-0.817516
-0.726645
-0.744895
-0.533777
-0.101993
-0.316692
-0.363129
-0.0752003
-0.123981
0.0813318
0.0114138
-0.329837
-0.111182
-0.340219
-0.22607
-0.137076
-0.417582
-0.22795
-0.535871
-0.0122044
0.10838
-0.884158
-0.818877
-0.891794
-0.540443
-0.710774
-0.673901
-0.785473
-0.752953
-0.626674
-0.0918598
-0.38629
-0.355352
-1.08244
-1.08745
-1.09356
-1.06573
-1.07718
-1.06479
-1.08519
-1.08719
-1.07946
-1.01512
-1.02416
-1.0061
-1.05167
-1.04025
-1.03968
-1.02484
-1.0325
-1.04575
-0.990894
-1.03195
-1.00858
-1.06745
-1.04976
-1.04144
-1.04901
-1.05583
-1.05798
-1.06356
-1.06154
-1.07224
-1.09826
-1.09856
-1.0698
-1.08911
-1.10135
-1.09609
-1.08784
-0.923355
-0.94539
-0.896579
-0.941608
-0.908419
-0.965279
-1.02331
-1.05248
-1.04082
-1.03482
-1.07251
-1.05978
-1.08337
-0.948717
-1.01123
-0.972654
-1.0392
-1.00317
-1.05524
-1.09911
-1.08717
-1.10131
-1.1041
-1.08378
-1.10037
-1.09229
-1.02642
-1.0525
-1.02682
-1.04533
-0.997755
-1.0745
-1.08929
-1.00312
-1.03132
-0.989627
-1.0774
-1.05432
-1.06454
-0.989506
-1.03103
-1.03147
-1.09086
-1.06588
-1.08845
-1.06143
-1.07139
-1.06514
-1.06628
-1.03141
-1.01897
-1.02474
-0.97952
-1.00713
-0.99845
-1.00414
-0.965496
-1.035
-1.05658
-0.946695
-0.966489
-0.921628
-1.01202
-0.992953
-1.00356
-0.943631
-0.976226
-0.985071
-1.047
-1.01562
-1.02681
-1.06399
-1.02965
-1.04277
-1.05638
-1.03042
-0.934653
-0.961482
-0.970419
-0.96808
-0.954298
-0.985746
-1.00537
-0.992594
-0.985995
-1.00959
-0.978331
-0.965949
-0.977461
-0.970569
-1.00755
-0.960888
-1.01082
-1.01555
-1.04128
-1.03334
-1.01032
-0.984773
-1.00695
-0.971241
-0.994457
-1.02073
-1.0343
-0.851358
-0.935361
-0.904099
-0.906442
-0.937758
-1.01894
-0.981829
-0.99075
-0.998936
-0.783927
-0.951207
-0.966907
-0.97062
-0.878918
-0.941221
-0.873098
-0.86819
-0.910757
-0.976823
-1.01525
-1.00925
-0.998207
-0.985502
-0.920703
-0.953869
-0.962353
-0.963024
-0.941396
-0.961176
-0.919557
-0.861512
-1.00386
-0.954474
-0.966878
-0.941032
-0.922367
-0.664706
-0.805809
-0.740464
-0.813153
-0.916765
-0.896189
-0.920354
-0.891999
-0.878677
-0.896287
-0.885553
-0.800005
-0.671155
-0.925511
-0.715189
-0.841297
-0.919556
-0.913808
-0.191545
-0.499015
-0.321407
-0.297778
-0.508409
-0.827978
-0.702471
-0.689862
-0.962757
-0.943189
-0.95193
-0.93074
-0.887223
-0.905132
-0.817079
-0.867422
-0.919181
-0.932264
-0.45349
-0.824367
-0.700536
-0.626611
-0.742743
-0.906466
-0.843188
-0.870191
SCALARS CoVolArea double 1
LOOKUP_TABLE default
0.0271258
0.00430945
0.0350906
0.0353631
0.0193828
0.0182107
0.0138482
0.00753789
0.0136531
0.0224186
0.0236233
0.0418095
0.0444819
0.0269091
0.026915
0.0221442
0.0219197
0.0211644
0.0141384
0.0117642
0.034768
0.0512068
0.0246884
0.023282
0.0449337
0.0336054
0.0457195
0.0606591
0.0257017
0.0477518
0.0241559
0.0207039
0.043741
0.0392057
0.054222
0.0577789
0.0645027
0.0443918
0.0415458
0.0313686
0.0325086
0.0265212
0.0450776
0.0371358
0.0393515
0.0422893
0.0445072
0.0495853
0.0274121
0.0259739
0.0245508
0.0259447
0.03254
0.0274704
0.0272483
0.0147348
0.0191246
0.0133186
0.0305858
0.0212793
0.0159681
0.0298209
0.0140968
0.0242639
0.0214611
0.0129111
0.0322352
0.00740112
0.00827701
0.0398226
0.0248804
0.0222417
0.0494717
0.0489201
0.0483419
0.0548997
0.0456812
0.0238506
0.017752
0.0286212
0.0283671
0.0262304
0.0264403
0.0275226
0.0246773
0.0276364
0.0402555
0.0271557
0.0391214
0.0411596
0.0423824
0.0592354
0.045123
0.042952
0.0507409
0.0545744
0.0575773
0.0395439
0.0167235
0.0365536
0.0118777
0.0102704
0.0396646
0.0296232
0.0326652
0.0101108
0.0161162
0.0135307
0.0152716
0.0284222
0.0203726
0.0249352
0.0624922
0.0519352
0.0587422
0.0316304
0.042591
0.0293114
0.0475792
0.0505112
0.0423661
0.0662741
0.0511791
0.0372917
0.0660484
0.0574502
0.0603088
0.0500494
0.0564221
0.0463475
0.0417026
0.0569746
0.0431537
0.0441905
0.0358255
0.042827
0.0420233
0.0287985
0.0381122
0.0308271
0.0352395
0.0318206
0.0435707
0.0243774
0.0277645
0.0268531
0.0280242
0.0338319
0.0335161
0.0309546
0.0542367
0.0457164
0.0522323
0.0437325
0.0413722
0.047539
0.032767
0.0301991
0.0305974
0.0259453
0.02866
0.027082
0.0385454
0.0398305
0.039224
0.0432836
0.0387476
0.0424623
0.0301706
0.031828
0.0317059
0.0480057
0.0453987
0.0500414
0.0339842
0.0413832
0.0305535
0.0471851
0.0460868
0.0476958
0.0221781
0.0241124
0.0218058
0.0282413
0.02368
0.0266688
0.0236635
0.0214468
0.0253177
0.0449965
0.0354646
0.0375203
0.0403442
0.0326385
0.029705
0.0352968
0.0256159
0.0284866
0.0193546
0.0254844
0.0261044
0.0222762
0.0267775
0.0257776
0.0287638
0.0289274
0.0095664
0.0133644
0.00852207
0.0182578
0.0160924
0.0171844
0.0173956
0.0145359
0.0183258
0.0295913
0.0230832
0.0232555
0.0300382
0.0278816
0.0297429
0.0326657
0.0119931
0.0241054
0.0193219
0.00807627
0.0132702
0.0262128
0.0246057
0.0203711
0.0210581
0.0299004
0.00894481
0.0206286
0.0160832
0.0165781
0.0193972
0.0130307
0.0199244
0.0229968
0.0270772
0.0395023
0.0344186
0.0347651
0.024954
0.0281437
0.0165161
0.0166604
0.0360987
0.0237413
0.0203364
0.00606679
0.00535599
0.00754627
0.00720118
0.00843961
0.0101631
0.0141391
0.033862
0.0318947
0.0246155
0.0225665
0.0262109
0.0325758
0.0149421
0.0217562
0.0218073
0.00815335
0.012266
0.0123577
0.0385644
0.0476319
0.0413915
0.0429883
0.0470347
0.0413744
0.0442254
0.05022
0.0471002
0.0487216
0.043413
0.0459892
0.0478554
0.0462766
0.0521956
0.0491478
0.0475611
0.0500691
0.0523515
0.0572336
0.0576924
0.0602747
0.0141456
0.00830421
0.0246891
0.0192159
0.0237498
0.0205486
0.0234212
0.0304219
0.0293938
0.0263188
0.0278646
0.0246198
0.0278997
0.0270155
0.0270681
0.027651
0.0276363
0.0225929
0.023628
0.0204838
0.0264885
0.0276053
0.0279086
0.0281095
0.0277788
0.0259023
0.0254274
0.0261839
0.0256926
0.0230527
0.0311413
0.0258533
0.0322224
0.0422415
0.0426527
0.0384796
0.0323221
0.0416631
0.0303563
0.0245153
0.0276366
0.0390306
0.0335888
0.0364074
0.0402596
0.0353284
0.0428563
0.0406294
0.0453347
0.0290755
0.0390134
0.0341579
0.0441245
0.040583
0.0526901
0.0481897
0.0597684
0.0532112
0.062594
0.0413659
0.0461396
0.0499903
0.0449342
0.0435606
0.0455834
0.0519694
0.0514347
0.0482935
0.0497505
0.0618102
0.0527193
0.0575436
0.0432608
0.0434168
0.0526995
0.0611605
0.0599556
0.0659678
0.0282518
0.0305672
0.0112538
0.0191076
0.0424445
0.0291787
0.0344409
0.0102826
0.00851524
0.0173421
0.00995609
0.0175246
0.00972629
0.00931901
0.0259118
0.0360332
0.0264546
0.0389321
0.0368064
0.0420927
0.0290467
0.032975
0.0273019
0.0120355
0.0189903
0.0234644
0.0161331
0.0133969
0.0143802
0.0129835
0.0179423
0.0138064
0.0133539
0.00803182
0.0101293
0.0179653
0.0155135
0.0204224
0.0157416
0.0150522
0.0228645
0.0270656
0.0239237
0.0175615
0.0247754
0.0241274
0.0232603
0.0243644
0.0208893
0.0115512
0.0138293
0.012078
0.0456473
0.0566154
0.0466141
0.0535277
0.0552675
0.0661257
0.0593392
0.0543254
0.0551051
0.031044
0.0321153
0.0302583
0.0405048
0.0338941
0.0354639
0.0249332
0.0332804
0.040403
0.0355412
0.0431832
0.0309421
0.0504573
0.0467031
0.0519811
0.0400721
0.0446746
0.0449399
0.0549851
0.0530257
0.0572101
0.0525879
0.0443646
0.0612025
0.0598304
0.0611784
0.0600863
0.0693509
0.033422
0.0380333
0.0705718
0.0527466
0.0490496
0.0513333
0.0571816
0.0493004
0.0616635
0.0471346
0.0638454
0.057731
0.0547141
0.0563735
0.0544283
0.0616395
0.0674059
0.0699468
0.0711376
0.0505859
0.0499225
0.0618179
0.0566078
0.0467843
0.0529058
0.0513463
0.0441996
0.0470628
0.0576843
0.0455799
0.0433746
0.0491026
0.0581877
0.0291304
0.0405325
0.0285653
0.0444563
0.0420171
0.040787
0.0346828
0.0342025
0.0465455
0.061211
0.0605165
0.0539327
0.0429411
0.0418222
0.0431891
0.0426465
0.0398382
0.0389834
0.0362049
0.0235487
0.0300621
0.0305635
0.0287998
0.0282406
0.0380359
0.0400308
0.0279437
0.0335803
0.0266537
0.0322448
0.0285315
0.0251267
0.0286563
0.0290349
0.032444
0.0486289
0.0419351
0.0447793
0.0532003
0.0387466
0.0523033
0.0658385
0.0504799
0.0227383
0.0270768
0.0243298
0.025007
0.0250718
0.0273725
0.0310072
0.0279102
0.0272872
0.0274829
0.025668
0.0279749
0.0284268
0.0259761
0.0341295
0.0291985
0.0327723
0.0343745
0.0364378
0.0349865
0.034778
0.0322706
0.0305567
0.0284505
0.0279407
0.0318886
0.0378303
0.0312135
0.0324441
0.0305053
0.0285752
0.027441
0.0367369
0.0336467
0.0340309
0.0464676
0.0703545
0.0578781
0.0473894
0.0471821
0.0407504
0.0444616
0.0419438
0.0435787
0.0474502
0.0397427
0.0591284
0.0522517
0.0464647
0.0467007
0.0541791
0.0526858
0.0517958
0.0350167
0.0410864
0.0353786
0.0396268
0.0460952
0.0435436
0.0424745
0.0419082
0.0424282
0.0403189
0.0433097
0.0520917
0.04633
0.044627
0.0430463
0.0455171
0.0450188
0.0503688
0.0301706
0.0324284
0.0289226
0.0286767
0.0305899
0.0304427
0.0290882
0.0283374
0.0300622
0.0313402
0.0154351
0.0269592
0.0212939
0.0220129
0.0287874
0.0351645
0.0338698
0.0353193
0.0273738
0.0278605
0.0257621
0.0240758
0.0235291
0.0259686
0.0272609
0.0244273
0.0264058
0.028942
0.0155976
0.0253139
0.0240975
0.0231776
0.0266062
0.0301754
0.0292569
0.0271824
SCALARS SignedDistance double 1
LOOKUP_TABLE default
1.11455
1.18789
-0.00429047
0.0699944
-0.00617236
1.08654
-7.4701e-06
1.23265
0.00986088
-0.0154461
1.16907
0.26928
-0.0218093
0.0891072
0.534421
1.17818
0.130917
-0.0993084
0.366407
-0.582052
-0.0903297
0.191639
-0.00383245
0.00283831
-0.0027825
0.0243022
-0.0180549
0.249177
1.05946
0.0477281
-0.0406952
1.0886
-0.000689513
0.0365724
0.00589965
0.247162
0.00024954
0.176596
-0.00287759
-0.0120471
0.0229161
0.000227372
0.00890917
0.112626
-0.00531507
0.158116
-0.00259026
0.192185
1.12562
0.04423
0.430552
0.596819
0.0094341
0.785439
1.21013
-0.0147697
0.0757915
1.22059
0.0162948
0.564225
-0.00647242
-0.0464738
1.1499
0.014708
0.624071
-1.02268
0.0356832
1.11703
-0.00310595
-0.343555
0.041531
-0.038607
-0.0033752
0.0143205
0.000977156
0.0119072
-0.00358388
0.0222481
0.873579
0.0555242
0.0111505
0.0113018
-0.0115481
0.0360193
0.638889
0.0203834
0.678265
0.0791931
0.000622522
0.00199876
0.838636
0.296478
-0.000406756
0.099386
-0.00309914
0.937539
0.00613134
0.693706
1.27007
0.816684
1.28407
1.26654
0.0242832
1.08205
0.00134313
1.12912
1.23508
1.18539
1.15185
-0.00710456
1.01632
-0.0344754
0.0282066
0.0855788
0.00627065
0.0256439
0.00031118
0.0350872
-0.00398851
-0.020397
-0.046586
-0.0685248
-3.44378e-06
0.0498106
-0.00995585
-0.103991
-8.85465e-07
0.132045
-0.000782789
0.0501012
0.00394976
-0.00416342
0.00143222
0.00720021
-0.00411174
-0.0159033
-0.0265848
0.0128937
-0.0189596
0.00135827
-0.00236386
-0.0117061
-0.0190836
-0.000875272
-0.000123679
1.0128
-0.000392262
0.111941
-0.010989
-0.00263722
-0.0155447
0.603394
0.00373099
0.311439
1.01793
0.0781524
-0.00640071
0.0134744
1.11557
0.000230166
-0.0072346
0.0151165