# vtk DataFile Version 4.2
vtk output
ASCII
DATASET POLYDATA
POINTS 642 double
-1.50496 3.96413 -0.121224
0.655273 3.87515 -0.0965599
-1.51344 0.196608 -0.0157798
0.878994 0.198973 -0.00790613
-0.348016 0.918481 1.78782
-0.445992 3.14325 1.64374
-0.329789 0.980859 -1.73748
-0.471321 3.30114 -1.88976
1.40676 2.0442 -1.02966
1.45816 2.00817 1.03145
-2.14764 2.2131 -1.15951
-2.20343 2.13218 1.11616
-2.11953 3.21156 0.64017
-1.45931 2.77125 1.67497
-1.03566 3.78527 0.996488
0.211619 3.74098 0.876269
-0.345746 4.24598 -0.0754241
0.242545 3.85725 -1.07688
-1.083 3.9769 -1.20333
-1.46582 2.89841 -1.8372
-2.13428 3.28758 -0.775521
-2.50021 2.13997 -0.00317093
0.666526 2.66851 1.55644
1.278 3.03815 0.578474
-1.42395 1.39944 1.68294
-0.362141 2.05873 2.00066
-2.06204 0.986609 -0.658342
-2.08667 0.973286 0.662181
-0.418473 2.2251 -2.04905
-1.38383 1.49172 -1.6605
1.2254 3.1163 -0.628095
0.603628 2.78414 -1.61006
1.50446 0.965696 0.648894
0.735674 1.38628 1.65336
0.37417 0.292498 1.0811
-1.04756 0.273534 1.09142
-0.338301 -0.0988957 -0.0211867
-1.0124 0.326357 -1.08034
0.355193 0.334024 -1.08041
0.691875 1.41293 -1.62194
1.47112 0.982519 -0.654002
1.77563 1.9768 -0.00748598
-1.84966 3.66095 0.276025
-1.64808 3.57586 0.863954
-1.30152 3.93704 0.463096
-1.8893 2.47244 1.46176
-1.85454 3.03889 1.23556
-2.23766 2.69259 0.919001
-0.740605 3.50066 1.3942
-1.30184 3.33739 1.40826
-0.93586 3.01225 1.73118
-0.699965 4.11607 0.452141
-0.971399 4.17445 -0.103242
-0.0948576 3.4797 1.3083
-0.393276 3.85227 0.964554
0.169554 4.14446 -0.0843667
-0.0449134 4.0916 0.429175
0.453184 3.89012 0.405959
-0.753542 4.19141 -0.676303
-1.34222 4.05045 -0.707876
0.511837 3.93783 -0.550809
-0.0418941 4.16109 -0.61382
-0.754208 3.67989 -1.64444
-0.451389 3.98271 -1.22312
-0.113335 3.61363 -1.55324
-1.6899 3.72277 -1.03478
-1.86264 3.72283 -0.445594
-0.967965 3.15084 -1.96829
-1.32668 3.50601 -1.62178
-2.21668 2.78677 -1.01544
-1.89253 3.14608 -1.38209
-1.86928 2.58485 -1.5579
-2.20559 3.29757 -0.0551575
-2.40147 2.16248 -0.599495
-2.40099 2.74511 -0.401569
-2.42015 2.70546 0.335148
-2.42713 2.14118 0.613662
0.803913 3.44046 0.770283
0.973198 3.52542 0.229253
0.161489 2.90657 1.65616
0.501314 3.22692 1.27671
1.42731 2.56517 0.831273
1.04399 2.90349 1.10517
1.10808 2.36125 1.35557
-0.955923 2.4533 1.92681
-0.420929 2.62244 1.89215
-1.89822 1.79968 1.44889
-1.51112 2.12359 1.76567
-0.331554 1.44835 1.96042
-0.929314 1.74537 1.94019
-0.882037 1.09028 1.79977
-2.3966 1.54835 0.340757
-2.21722 1.59074 0.93871
-2.17011 1.56723 -0.90955
-2.37622 1.54767 -0.350273
-1.86501 0.516919 0.344606
-2.17543 0.929538 -0.0197933
-1.86397 0.532051 -0.366259
-1.46783 2.24398 -1.84941
-1.81545 1.86044 -1.47408
-0.462089 2.83475 -2.0515
-0.954908 2.60892 -2.06939
-0.839432 1.16323 -1.75812
-0.924533 1.87469 -1.9636
-0.339931 1.51282 -1.92897
0.452267 3.38012 -1.42863
0.0577119 3.09325 -1.81265
0.977197 3.56447 -0.385415
0.785219 3.5603 -0.889787
1.0478 2.40597 -1.37209
0.974243 2.98712 -1.18148
1.38753 2.57646 -0.858465
1.24924 0.497104 0.317877
1.00881 0.541348 0.894751
0.69091 0.168649 0.526114
1.16624 1.6865 1.38929
1.19987 1.13366 1.21117
1.56238 1.45525 0.871957
-0.00780157 0.57037 1.52735
0.600835 0.772109 1.44519
0.192618 1.11991 1.79502
0.0499583 -0.00843332 0.571641
0.346667 -0.016401 -0.0141252
-0.707684 0.536254 1.5216
-0.341176 0.198881 1.15597
-0.968002 -0.0369866 -0.0148379
-0.71662 -0.0134305 0.584699
-1.32235 0.162683 0.579526
0.0384955 0.0123511 -0.592992
0.653927 0.192249 -0.568984
-1.31992 0.183295 -0.546562
-0.715073 0.00372937 -0.580237
-0.00228373 0.621368 -1.4858
-0.345062 0.24518 -1.13682
-0.664769 0.614266 -1.49267
0.975799 0.573841 -0.891017
1.23596 0.510649 -0.339798
0.206096 1.16539 -1.74188
0.579402 0.83022 -1.42887
1.51277 1.45914 -0.859612
1.14565 1.16155 -1.19534
1.10661 1.70454 -1.37759
1.59808 0.91259 -0.0124589
1.67359 1.9961 -0.531742
1.74616 1.47387 -0.330253
1.76611 1.45851 0.328053
1.69115 2.00332 0.556616
0.210723 1.70138 1.92237
0.755513 2.0478 1.68916
0.184583 2.36609 1.87071
-1.64838 0.540844 0.93746
-1.28973 0.764352 1.49489
-1.82396 1.13742 1.25936
-1.22872 0.813532 -1.43599
-1.61933 0.580856 -0.913812
-1.78709 1.17813 -1.20983
0.704414 2.08688 -1.68095
0.173531 1.75469 -1.89904
0.1088 2.5134 -1.92279
1.60817 2.55658 0.305046
1.58926 2.56585 -0.32107
1.33952 3.11475 -0.0236593
-1.67483 3.83516 0.0629
-1.61331 3.80406 0.396461
-1.41777 3.96374 0.154021
-1.90434 3.41161 0.760343
-1.76282 3.62648 0.594747
-2.01761 3.4297 0.474085
-1.17721 3.8817 0.738557
-1.49323 3.76469 0.689984
-1.34343 3.70082 0.95319
-2.06167 2.30758 1.30708
-2.08087 2.5944 1.21547
-2.24131 2.41977 1.02678
-1.65964 2.91622 1.48624
-1.89257 2.75778 1.36301
-1.69218 2.62195 1.58405
-2.1972 2.96052 0.786761
-2.06281 2.87564 1.09403
-2.01696 3.12529 0.950355
-0.577527 3.31741 1.54321
-0.879183 3.2694 1.57759
-0.667775 3.09154 1.69869
-1.18771 3.57576 1.21697
-1.03135 3.43843 1.41253
-0.916506 3.6679 1.19546
-1.1869 2.90944 1.72849
-1.14472 3.17913 1.58866
-1.38147 3.07334 1.56453
-1.77589 3.31978 1.0644
-1.58291 3.21085 1.34638
-1.48852 3.47333 1.1588
-1.11898 4.08314 0.185163
-1.24315 4.08509 -0.131655
-0.867203 3.9628 0.73768
-1.00094 4.04106 0.474567
-0.662075 4.2338 -0.0804813
-0.817449 4.16939 0.189297
-0.514353 4.20749 0.192485
-0.275311 3.31714 1.49217
-0.4255 3.51113 1.36127
-0.0906198 3.82509 0.924282
-0.246555 3.68208 1.14275
0.0764293 3.62712 1.0913
-0.580302 3.69306 1.18868
-0.733542 3.83491 0.997171
0.462883 4.0052 -0.0900571
0.32452 4.03979 0.166632
0.582106 3.89489 0.124485
-0.201025 4.19803 0.17685
0.0746468 4.13629 0.1761
-0.089185 4.21652 -0.0833844
0.357363 3.83407 0.627529
0.212851 4.0108 0.415566
0.0894861 3.9388 0.661567
-0.556377 4.01177 0.720402
-0.213733 3.99733 0.703251
-0.377889 4.13657 0.442486
-1.16152 4.12719 -0.422068
-1.43944 4.02208 -0.437719
-0.528657 4.24485 -0.362414
-0.870875 4.20449 -0.404086
-1.22969 4.04582 -0.934918
-1.0767 4.13187 -0.714996
-0.947802 4.10578 -0.960514
0.5857 3.92624 -0.337962
0.362363 4.05902 -0.336044
0.110251 4.03251 -0.858499
0.245277 4.06805 -0.597516
0.371921 3.91574 -0.845756
0.0824196 4.17156 -0.338272
-0.194922 4.23149 -0.352497
-0.598489 3.48284 -1.79797
-0.474244 3.67539 -1.61056
-0.315395 3.4496 -1.75387
-0.794155 3.99726 -1.24107
-0.616128 3.85675 -1.43761
-0.944277 3.85671 -1.42906
0.0847751 3.75005 -1.32195
-0.280926 3.82603 -1.39345
-0.0567656 3.94074 -1.14062
-0.389786 4.20474 -0.644851
-0.209642 4.10038 -0.905442
-0.623297 4.11959 -0.963755
-1.62262 3.90651 -0.588323
-1.71477 3.84879 -0.310161
-1.38813 3.8868 -1.13797
-1.52284 3.91693 -0.876155
-2.01455 3.52946 -0.61305
-1.80328 3.72694 -0.76342
-1.93929 3.51927 -0.914066
-0.7243 3.23924 -1.95184
-0.867603 3.43638 -1.83297
-1.41462 3.2088 -1.76074
-1.1436 3.34055 -1.82682
-1.21794 3.03578 -1.92943
-1.04477 3.62431 -1.65207
-1.21567 3.76667 -1.43428
-2.19566 2.4648 -1.10984
-2.0704 2.69181 -1.30056
-2.04313 2.37843 -1.34653
-2.04606 3.22297 -1.09247
-2.07726 2.97239 -1.20924
-2.19804 3.04066 -0.90926
-1.69399 2.73464 -1.70652
-1.89713 2.87506 -1.48393
-1.69009 3.03187 -1.63701
-1.52945 3.63458 -1.34922
-1.63352 3.34071 -1.52678
-1.82016 3.44318 -1.22969
-1.8825 3.69262 -0.099393
-2.18308 3.31108 -0.437595
-2.0524 3.51888 -0.263726
-2.06271 3.47684 0.114334
-2.18468 3.2624 0.316082
-2.29172 2.1886 -0.888159
-2.32305 2.48228 -0.818558
-2.47569 2.44165 -0.199883
-2.42106 2.4635 -0.509938
-2.47072 2.14589 -0.304952
-2.3228 2.77312 -0.72304
-2.28498 3.02221 -0.614532
-2.3644 2.42055 0.766447
-2.3448 2.13384 0.852205
-2.28948 2.9844 0.500571
-2.34909 2.70727 0.635899
-2.4878 2.14295 0.312242
-2.44866 2.42202 0.463354
-2.48853 2.4299 0.166291
-2.3344 3.02849 -0.241255
-2.44032 2.73123 -0.0254696
-2.34106 3.00963 0.146701
0.735791 3.71253 0.319008
0.816355 3.7199 0.0587001
0.521115 3.60415 0.832679
0.629898 3.67787 0.58748
1.14149 3.28594 0.413171
0.907546 3.48451 0.523258
1.05472 3.25006 0.686779
-0.139921 3.03185 1.66166
0.0437493 3.2025 1.4992
0.588717 2.9447 1.44539
0.342488 3.07298 1.48143
0.424805 2.78847 1.62108
0.222509 3.36209 1.29977
0.365198 3.48933 1.09741
1.45676 2.26957 0.954726
1.28919 2.46539 1.1099
1.31304 2.18146 1.18935
1.1828 2.97643 0.85333
1.24981 2.74186 0.979127
1.365 2.81162 0.711274
0.918455 2.51004 1.45828
1.09344 2.62694 1.2475
0.869821 2.78871 1.35124
0.668243 3.34806 1.03701
0.784285 3.07852 1.20619
0.941914 3.17663 0.954914
-0.695317 2.82907 1.83039
-0.439176 2.89185 1.78119
-1.2081 2.62356 1.82883
-0.976269 2.72527 1.85071
-0.384841 2.37711 1.95751
-0.707339 2.54384 1.92581
-0.67178 2.26783 1.9764
-2.05661 1.9498 1.30679
-1.90201 2.13421 1.4844
-1.49231 1.77679 1.74201
-1.70546 1.96187 1.63433
-1.66551 1.58537 1.58385
-1.70676 2.3046 1.63424
-1.50185 2.45264 1.74153
-0.344011 1.13873 1.87578
-0.627444 1.25209 1.89432
-0.594077 0.984498 1.81229
-0.649573 1.90411 1.9959
-0.621792 1.59711 1.96903
-0.344457 1.76669 1.99943
-1.15496 1.22261 1.75361
-0.921774 1.38733 1.87345
-1.18806 1.56926 1.8321
-1.24093 2.28895 1.8819
-1.22631 1.95195 1.88805
-0.965407 2.10933 1.96219
-2.35246 1.85597 0.772013
-2.23114 1.84162 1.02749
-2.47602 1.85075 0.165951
-2.43547 1.84901 0.464937
-2.17311 1.28468 0.8102
-2.32598 1.54352 0.638914
-2.26657 1.25612 0.505972
-2.17469 1.88192 -1.03604
-2.30855 1.86135 -0.76622
-2.24016 1.25947 -0.508147
-2.29213 1.5517 -0.638091
-2.13003 1.26286 -0.782515
-2.40672 1.84775 -0.475377
-2.46228 1.84225 -0.186259
-1.67618 0.312414 0.137831
-1.88178 0.499598 -0.0160484
-1.67566 0.320211 -0.170811
-2.15117 0.929408 0.321418
-2.03883 0.703974 0.160014
-1.98752 0.726739 0.512342
-1.97529 0.726727 -0.514005
-2.03557 0.707706 -0.196257
-2.14171 0.945533 -0.353858
-2.41546 1.53811 -0.0120729
-2.29967 1.22996 -0.189355
-2.30779 1.2244 0.161924
-1.85862 2.23075 -1.54145
-1.99702 2.04054 -1.32802
-1.47744 2.57862 -1.86957
-1.68302 2.41654 -1.72332
-1.62392 1.69236 -1.58087
-1.65555 2.06664 -1.6836
-1.43594 1.89386 -1.77467
-0.474959 3.05211 -2.00154
-0.704314 2.98388 -2.04267
-0.715259 2.4518 -2.08907
[...]
POINT_DATA 642
SCALARS Mean_Curvature double 1
LOOKUP_TABLE default
0.837226
1.08051
1.02608
1.00943
0.945134
0.671174
0.905964
1.2699
0.832288
0.910058
0.73262
1.00763
0.995428
1.06208
0.952194
0.612739
1.04494
1.01861
1.38264
1.06087
1.08283
0.826342
0.843329
0.918726
0.683583
0.805634
0.815271
0.743176
0.550919
0.547955
0.706177
0.571798
1.17409
0.900703
0.973229
1.00256
0.698172
0.97874
1.02256
0.854823
1.13671
0.901615
0.904397
0.988431
0.65842
1.04031
1.02272
1.0057
0.944206
1.07911
1.029
0.961308
0.81969
0.631481
0.809704
1.14784
1.04464
1.02045
0.865745
1.27049
1.11242
1.08425
1.24843
0.914687
0.846847
1.17574
0.988597
1.49456
1.06709
0.993089
1.23871
0.978657
0.883186
0.78237
0.808141
0.933207
0.929374
0.838091
0.711184
0.756558
0.762397
0.97065
0.874199
0.950289
1.04365
0.712021
0.963252
0.960728
0.892815
0.692987
0.84067
0.854675
0.792907
0.75613
0.862529
0.973537
0.815339
1.0863
0.989498
0.551452
1.14681
1.19385
0.781776
0.640556
0.692423
0.901166
0.896528
1.0604
0.953608
0.81651
0.629399
0.85625
1.05983
1.00819
0.961039
0.892912
1.032
1.19388
0.910598
0.909333
0.915621
0.840842
0.862541
1.03787
0.994014
0.982398
0.845925
1.02874
0.903205
0.906444
1.0188
0.937345
0.901259
0.961014
1.05115
0.924973
1.07186
0.84191
0.956594
0.982822
0.915521
0.852243
1.09284
0.907886
1.25763
1.32278
0.877272
0.921699
0.89987
0.893574
1.09145
1.26799
0.741714
1.13549
1.14113
0.752455
0.744253
0.769112
0.597268
0.956073
0.853139
0.841101
0.760379
0.956969
0.626587
0.995105
0.949901
0.96022
0.873764
0.937458
0.950269
1.0273
1.0492
1.02072
1.073
1.03493
1.05771
0.987635
1.02244
1.00252
0.905624
1.02277
0.937617
1.00632
0.999842
0.995093
1.10642
1.08796
1.0733
1.02545
1.06999
1.03665
0.719121
0.660883
0.731251
0.771949
0.941935
0.923491
1.01866
0.545161
0.827402
0.907135
0.623699
0.62042
0.871863
0.886548
1.08019
1.11415
0.995214
1.1281
1.08525
1.1319
0.853044
1.07547
0.960792
0.969374
0.974932
1.0826
0.669159
1.03954
0.889745
0.853363
1.45199
0.94051
1.27659
1.15416
1.12593
1.04703
1.08731
1.0744
1.10608
1.07444
1.23279
0.893016
0.842452
1.22692
1.035
1.25446
0.905279
0.853872
0.917701
0.956867
0.920284
0.891278
1.07703
0.93422
1.29182
1.27916
0.995113
1.10525
1.16599
1.41131
1.31361
1.13054
1.33457
1.27094
1.28269
1.20483
0.917263
0.979105
0.956273
1.22998
1.17567
1.10299
1.05108
1.03242
1.09085
1.03084
1.18824
1.07256
0.795666
0.890297
0.860975
0.88411
0.967847
0.712099
0.688481
0.804715
0.820065
0.810877
0.838393
0.888977
1.07085
1.0054
0.978675
0.969766
0.956141
0.887674
0.952063
0.822916
0.938195
0.910444
0.635574
0.95712
0.706839
0.684376
0.789461
0.814252
0.817321
0.682357
0.674372
0.87172
0.732514
0.832967
0.679536
0.754403
0.894721
0.963012
0.890817
0.941743
0.898851
0.954902
0.87173
0.947431
0.857391
0.85332
0.834949
0.916921
0.936659
0.550202
1.10623
1.06295
0.772231
0.887363
0.665616
1.0135
1.01336
0.889688
0.93568
0.72918
0.955883
0.99082
0.818
0.717678
1.07273
0.770846
0.718936
0.767222
0.597009
0.657817
0.622702
1.12317
1.03817
1.03138
1.00216
0.994186
0.886147
0.785958
0.806165
0.814372
0.82992
0.741131
0.768684
0.807623
0.810637
0.790682
0.79353
0.840132
1.00511
0.999284
1.04667
0.770289
1.02166
0.850112
1.2813
1.12083
0.806794
0.881637
0.845916
0.820808
0.944474
0.527851
1.05629
0.979983
0.628595
0.908029
0.664391
1.32203
1.35916
1.04401
1.18837
1.01567
1.3358
1.18251
0.837116
0.7734
0.861249
0.576569
0.663605
0.663964
0.668839
0.640432
0.609963
1.09676
1.0563
1.00644
0.795653
0.918379
0.938971
0.894164
0.900029
0.877581
1.00867
1.0852
1.09268
0.965871
0.991563
0.838136
1.01675
1.04033
0.808119
0.838348
0.825895
0.695578
0.744402
0.750997
0.764644
0.802024
0.61031
0.978457
0.89844
1.03517
1.03038
1.0104
1.02902
1.08579
1.04499
1.09595
0.957363
0.961223
0.967188
0.903042
0.886617
0.945906
0.838668
0.890246
0.867013
1.12212
1.0866
1.17872
0.971238
0.944108
0.919149
0.973595
0.917946
0.931874
0.896389
0.90064
0.855656
1.07978
0.931943
0.937181
0.981077
1.02068
0.938137
0.968185
0.740781
0.784514
0.719369
1.17188
1.09504
0.931435
0.99866
0.886427
0.99984
0.904073
1.01481
0.9103
0.985516
0.688359
1.01537
0.742585
1.13083
0.884066
0.969685
0.85494
1.01463
0.768383
0.909972
1.01456
0.802921
0.851581
0.972965
0.92294
0.988854
1.04835
1.06354
0.932259
0.921691
0.929679
0.942694
0.874968
0.887811
0.929038
0.875088
0.948021
0.948463
1.00712
1.07126
1.02173
1.02109
0.911621
0.998576
0.878242
1.04544
1.02942
0.967672
0.928203
1.10516
1.06305
1.06099
0.87715
0.86392
0.966229
0.894932
0.857524
0.959893
1.00554
0.84082
0.846638
0.824223
1.12677
0.921859
1.24691
0.830167
0.85525
0.877809
0.941004
0.949659
0.940707
1.05741
1.12022
1.08143
1.0834
1.13868
0.892328
0.857454
1.16246
0.928152
0.908287
1.14359
1.29303
1.0163
0.916009
1.11985
1.25078
0.862925
1.17859
1.21536
1.22335
1.33281
1.1987
0.826175
0.897713
0.885687
0.94089
0.826931
0.932142
0.870922
0.939603
0.886163
0.932932
0.677851
0.87773
0.765524
0.80205
0.835475
0.969873
0.900566
0.947897
0.996769
1.00684
1.0486
1.03947
1.19443
1.15885
1.08737
1.22591
1.0811
1.08748
0.904372
0.722333
0.788952
0.742789
0.727928
1.12376
1.27529
1.20215
0.833972
1.04792
1.15942
0.802248
0.611909
1.06029
1.15615
1.12801
1.03903
0.950202
0.778938
0.665383
0.729778
0.761173
0.80201
1.1224
0.812053
0.718753
0.799869
0.831512
0.796435
0.797844
0.681035
0.849565
0.73009
0.731913
0.78959
0.796345
0.942608
0.418602
0.773504
0.929171
0.63696
0.782888
0.717279
0.705395
0.898692
0.936014
0.900361
0.964695
0.880772
0.902039
0.79315
0.885849
0.868718
0.938963
0.669261
0.888962
0.729911
0.743403
0.762092
0.964079
0.823731
0.926206
SCALARS Redistribution_Potential double 1
LOOKUP_TABLE default
-9.4444e-15
-0.651683
0.340922
0.0492391
-0.00511257
-0.49529
-0.0899609
0.00329478
-0.540893
-0.538372
0.228932
0.140536
0.0657202
-0.123277
-0.306768
-0.658088
-0.342813
-0.368845
0.186125
0.260448
0.264119
0.233681
-0.649917
-0.77021
0.104704
-0.313435
0.284036
0.319811
-0.0984532
0.109148
-0.688221
-0.442579
-0.142687
-0.289749
0.0937571
0.314464
0.230572
0.206615
0.00239177
-0.321046
-0.18912
-0.515652
0.0238348
-0.093986
-0.166198
0.0253398
-0.0259588
0.103384
-0.419156
-0.220412
-0.321215
-0.339594
-0.15637
-0.601223
-0.502239
-0.498868
-0.523449
-0.665754
-0.0796058
0.126347
-0.531219
-0.333924
0.118715
-0.0727995
-0.181316
0.272296
0.158944
0.20822
0.277026
0.272521
0.317458
0.256059
0.160332
0.239985
0.23171
0.177694
0.197189
-0.761759
-0.755806
-0.609789
-0.709311
-0.693011
-0.737454
-0.624505
-0.227733
-0.42277
0.123859
-0.0183243
-0.1615
-0.0951767
0.063002
0.267433
0.222179
0.233371
0.265792
0.364233
0.324359
0.345282
0.173288
0.184787
-0.0321031
0.119635
0.00289989
0.0213401
-0.136347
-0.410146
-0.242511
-0.688046
-0.571222
-0.541739
-0.581737
-0.639432
-0.0173076
-0.0128332
0.0896306
-0.421092
-0.213419
-0.322938
0.0549074
-0.0701217
-0.147954
0.192746
0.135171
0.19626
0.210965
0.309287
0.295296
0.356168
0.136053
0.0376088
0.300243
0.239523
-0.0541604
0.106696
0.0628382
-0.0894528
-0.0450993
-0.209506
-0.164561
-0.36767
-0.283133
-0.430283
-0.134105
-0.532989
-0.326395
-0.298678
-0.527317
-0.326314
-0.497513
-0.501297
0.365889
0.276306
0.256732
0.15421
0.284531
0.204001
-0.419672
-0.267982
-0.26305
-0.684949
-0.668246
-0.752404
0.00649989
-0.0597063
-0.0820182
-0.00624551
-0.0382146
0.0488473
-0.238142
-0.131681
-0.201106
0.0871197
0.0647247
0.122094
-0.0758927
0.000657486
-0.0417776
0.0843683
0.0422066
0.0232486
-0.46712
-0.364849
-0.4207
-0.265189
-0.32019
-0.357711
-0.223683
-0.266326
-0.176609
-0.0558577
-0.117185
-0.156066
-0.174242
-0.0721011
-0.334974
-0.258643
-0.249392
-0.260122
-0.344852
-0.551062
-0.516025
-0.583694
-0.559151
-0.63874
-0.464847
-0.404106
-0.592193
-0.59143
-0.662042
-0.432366
-0.516825
-0.419194
-0.669664
-0.599456
-0.600076
-0.421505
-0.517225
-0.426596
-0.0211538
0.0663764
-0.228416
-0.113484
0.168037
0.0387733
0.0755387
-0.589919
-0.516794
-0.34861
-0.434572
-0.443494
-0.425057
-0.333932
0.0618287
-0.0171693
-0.0805793
0.0820534
0.0293452
0.169057
-0.282333
-0.124187
-0.246199
-0.210001
-0.222856
-0.0534088
0.151112
0.0959415
0.249934
0.216409
0.220845
0.227081
0.275182
0.123557
0.178228
0.286864
0.256985
0.247025
0.22389
0.248244
0.249839
0.273642
0.241447
0.307353
0.300081
0.279833
0.261671
0.290165
0.296297
0.28964
0.314006
0.308198
0.0896307
0.212506
0.15806
0.102321
0.111645
0.236413
0.244952
0.229196
0.2382
0.239376
0.250539
0.245964
0.158909
0.176049
0.12637
0.142098
0.219913
0.187028
0.211901
0.209776
0.209986
0.170797
-0.72458
-0.713259
-0.720439
-0.727494
-0.776974
-0.766695
-0.776898
-0.559517
-0.618423
-0.690016
-0.666761
-0.639135
-0.667248
-0.69872
-0.616886
-0.663372
-0.587022
-0.760559
-0.724584
-0.742845
-0.644559
-0.688676
-0.69871
-0.742823
-0.733574
-0.763163
-0.376302
-0.462726
-0.176969
-0.268475
-0.381509
-0.325611
-0.279267
0.133427
0.0708667
0.039331
0.0524519
0.114456
-0.00137338
-0.0718322
-0.0737356
-0.0452564
0.0303557
-0.204846
-0.137786
-0.245453
0.0902084
-0.0122036
0.00946731
-0.109986
-0.0538748
-0.15697
0.21254
0.186823
0.247551
0.232816
0.271601
0.252177
0.290326
0.225149
0.237777
0.275117
0.25119
0.253539
0.247011
0.252685
0.356708
0.356857
0.345991
0.327707
0.348986
0.348577
0.32915
0.344263
0.31035
0.275464
0.294075
0.300978
0.216943
0.212301
0.219661
0.220816
0.151171
0.178516
0.129232
-0.00301388
0.0894834
0.0207035
0.0516274
-0.0561281
0.163628
0.20475
-0.0503829
-0.0646168
-0.119479
0.0654519
-0.00377055
0.0614971
-0.130763
-0.0616278
-0.0335536
0.160892
0.0726125
0.113173
-0.219793
-0.125331
-0.394455
-0.31092
-0.351562
-0.335329
-0.429683
-0.672433
-0.619051
-0.641813
-0.637632
-0.695416
-0.551808
-0.475363
-0.554221
-0.597107
-0.590666
-0.517611
-0.571398
-0.506028
-0.667639
-0.62651
-0.639021
-0.489074
-0.576729
-0.499774
0.0221425
0.038087
0.0728182
-0.0707221
-0.0128944
-0.0721186
0.096795
0.0443177
0.0399863
-0.479734
-0.382233
-0.433338
-0.260046
-0.315975
-0.365917
-0.226789
-0.269832
-0.165757
0.0265132
-0.0385384
-0.0705725
0.0223434
-0.0111217
0.0826602
-0.223078
-0.111309
-0.186216
-0.095205
-0.143751
-0.0345469
0.122184
0.099036
0.151672
0.144281
0.181361
0.169484
0.216388
0.111391
0.127791
0.264623
0.20383
0.262388
0.143143
0.152527
0.332201
0.336119
0.351066
0.270322
0.309545
0.271771
0.345809
0.328967
0.31041
0.210913
0.26776
0.249304
0.0929726
0.0501814
0.18775
0.14115
0.0226006
0.0866567
0.0734856
0.325525
0.307656
0.225539
0.268936
0.256879
0.275665
0.240631
-0.0792653
0.00894583
-0.023706
0.052573
0.0290117
-0.0199895
0.138699
0.090892
0.157518
0.192889
0.180014
0.127357
-0.00376364
0.00294604
-0.0451353
-0.0229461
-0.108476
-0.0641929
-0.138624
-0.149671
-0.138513
-0.244966
-0.196596
-0.267138
-0.110046
-0.0734888
-0.476547
-0.411607
-0.495575
-0.231868
-0.329284
-0.271226
-0.383059
-0.362339
-0.311917
-0.122938
-0.220773
-0.177738
-0.0285211
-0.148991
-0.0865358
-0.0708963
-0.130539
-0.54045
-0.457744
-0.414984
-0.439626
-0.522892
-0.348307
-0.242986
-0.426532
-0.5296
-0.219152
-0.306668
-0.521026
-0.403859
-0.408073
-0.21063
-0.302217
-0.20105
-0.165272
-0.313439
-0.246555
-0.250437
-0.333747
-0.531188
-0.583567
-0.564696
-0.470451
-0.395813
-0.52819
-0.413892
-0.478328
-0.566136
-0.58538
-0.40897
-0.506852
-0.417779
0.366071
0.348906
0.36374
0.370363
0.36017
0.150062
0.193786
0.186911
0.237259
0.305911
0.18163
0.299873
0.237229
0.18625
0.189627
0.340836
0.288043
0.344317
0.0274599
0.18494
0.113662
0.0788188
0.114769
0.328322
0.292489
0.32197
0.294807
0.251995
0.208541
0.15658
0.184116
0.22102
0.247298
0.230226
0.239358
0.181772
-0.500492
-0.378927
-0.440684
-0.484464
-0.442168
-0.183289
-0.199837
-0.202404
-0.250667
-0.308288
-0.133762
-0.348339
-0.253445
-0.142322
-0.173788
-0.341816
-0.276494
-0.356442
-0.623504
-0.609688
-0.620285
-0.693509
-0.741105
-0.60582
-0.69575
-0.657795
-0.609641
-0.605954
-0.729697
-0.766771
-0.763426
-0.73542
-0.725142
-0.676304
-0.718349
-0.7329
SCALARS CoVolArea double 1
LOOKUP_TABLE default
0.0717546
0.05188
0.0570386
0.0677296
0.0549407
0.0613733
0.0529015
0.0563293
0.0557286
0.0658241
0.0704532
0.0734683
0.0884909
0.0890049
0.0876865
0.0904439
0.0839697
0.0832358
0.0858005
0.0902611
0.0942677
0.0982745
0.0835329
0.0834565
0.100051
0.0961316
0.091894
0.103659
0.102419
0.108542
0.0944504
0.0903925
0.0897277
0.0938364
0.0983679
0.0983061
0.110254
0.0970378
0.0910911
0.0891059
0.0860774
0.0820254
0.0983569
0.0945252
0.0981166
0.0822711
0.0952122
0.0873359
0.0852157
0.0861422
0.0788775
0.0917766
0.0928369
0.0931971
0.0930577
0.0770747
0.0845548
0.0795635
0.10202
0.076964
0.0750486
0.0913749
0.083579
0.105667
0.0956817
0.100477
0.0850282
0.0761155
0.101635
0.0904824
0.0955705
0.0891576
0.107582
0.0972326
0.104611
0.10095
0.0853119
0.0911185
0.0876964
0.086893
0.0915811
0.082191
0.0870873
0.0806206
0.0870875
0.086844
0.0918007
0.0932387
0.0931585
0.106953
0.0863043
0.105989
0.0907973
0.0965804
0.100779
0.0958942
0.102967
0.0886111
0.0919011
0.0971471
0.0660429
0.0814644
0.0942386
0.110483
0.092321
0.0886168
0.0853103
0.0738032
0.0865056
0.0889841
0.0973177
0.0835834
0.0941699
0.0994077
0.094455
0.0832278
0.0953262
0.0795606
0.0935015
0.104116
0.0933089
0.110906
0.0909678
0.0882257
0.102748
0.0972403
0.105066
0.0938582
0.104567
0.0897216
0.0867024
0.101282
0.0916598
0.0970882
0.0827369
0.098185
0.0855884
0.082515
0.0936507
0.0839221
0.0941582
0.0895807
0.0956326
0.0804658
0.0852649
0.0863586
0.0832864
0.09024
0.0938053
0.0906925
0.0962384
0.0939567
0.103966
0.0929495
0.0914878
0.103586
0.099276
0.0967242
0.109411
0.0880339
0.0946019
0.0926431
0.0894622
0.0939499
0.0930807
0.0939887
0.0888217
0.0917629
0.0934911
0.0911565
0.095228
0.0858139
0.0862801
0.0862104
0.0922128
0.0860473
0.0818375
0.085857
0.0869526
0.0932652
0.0739851
0.0792302
0.0720779
0.0875497
0.0809188
0.0828433
0.0792755
0.0764653
0.085929
0.104065
0.0997145
0.101261
0.0963125
0.0906943
0.0949966
0.0933767
0.0937911
0.0902377
0.0864385
0.0849809
0.0847144
0.086468
0.0874471
0.0885223
0.0887241
0.0915106
0.0699168
0.0759457
0.0730503
0.0811759
0.0734783
0.0731102
0.0802703
0.0717793
0.0840531
0.101739
0.0967344
0.0954438
0.0883919
0.0857577
0.100857
0.0980449
0.0769591
0.0829209
0.088083
0.0628728
0.0739839
0.0869745
0.0822251
0.0808634
0.0788203
0.0876287
0.0717113
0.0860917
0.0806721
0.0887484
0.0845085
0.0843404
0.0918866
0.0963124
0.10059
0.109693
0.113806
0.113404
0.0818874
0.0827229
0.0988487
0.084268
0.0907491
0.0877899
0.096884
0.0694983
0.0803128
0.0966059
0.0878845
0.0819066
0.0895905
0.0973864
0.0878051
0.090541
0.0860864
0.0938844
0.083737
0.0828044
0.0843019
0.0858019
0.0946909
0.115104
0.110456
0.111629
0.0938535
0.105974
0.0958199
0.098134
0.0973141
0.0949435
0.0975045
0.103642
0.0973861
0.0940378
0.091331
0.0996716
0.0856887
0.0817926
0.0973264
0.0902786
0.0908897
0.0896623
0.0996792
0.118779
0.114274
0.115694
0.0865919
0.0731427
0.0960297
0.0869873
0.089084
0.0890001
0.0886261
0.0911475
0.0961453
0.0871447
0.0873085
0.0777817
0.093387
0.0944244
0.0820081
0.0832681
0.0816184
0.0820196
0.079178
0.0746385
0.0797247
0.0806928
0.0892015
0.0979364
0.0963463
0.0933937
0.0816379
0.0830481
0.0888924
0.0777146
0.0885243
0.0809899
0.0974637
0.0834003
0.084516
0.103212
0.0895823
0.0983029
0.0820431
0.0908546
0.0771832
0.0923904
0.077664
0.101595
0.101223
0.0900414
0.0906143
0.0986853
0.108141
0.100845
0.108817
0.105455
0.0876775
0.08285
0.101986
0.0952569
0.101454
0.0978021
0.108703
0.0986001
0.0973407
0.0991921
0.0942066
0.0923821
0.0942406
0.100188
0.084354
0.0949039
0.08479
0.105156
0.0929705
0.0910966
0.082857
0.0893326
0.0984506
0.11433
0.112534
0.117654
0.0933449
0.0933932
0.0915837
0.0868195
0.101052
0.0926641
0.103866
0.0665408
0.0673768
0.0872103
0.0689294
0.0809624
0.0737235
0.086661
0.0752155
0.0914891
0.0774703
0.112568
0.103379
0.101591
0.100571
0.102524
0.107603
0.0971906
0.104151
0.107323
0.0888361
0.0765404
0.0871107
0.0879507
0.0894862
0.0877281
0.0889607
0.0696096
0.0698297
0.0870298
0.0737826
0.0785348
0.0809624
0.0849097
0.0785276
0.0875379
0.0791188
0.0897164
0.0886965
0.0850885
0.0883687
0.0885934
0.0990917
0.0960179
0.101306
0.0988169
0.0844512
0.0936068
0.0834528
0.0965519
0.0925623
0.0918394
0.0951053
0.0930009
0.0993621
0.0827404
0.0826634
0.0799994
0.0949242
0.0841514
0.0870732
0.078918
0.0828973
0.0944719
0.0793689
0.0902249
0.0785987
0.0989956
0.0927009
0.0955103
0.0896889
0.094653
0.100668
0.111579
0.114298
0.113685
0.0926464
0.0826348
0.106965
0.0991789
0.102095
0.10036
0.114829
0.0810837
0.088697
0.101592
0.0931831
0.0925508
0.0943906
0.102707
0.0867859
0.0998886
0.0859707
0.110269
0.0966791
0.0950751
0.0874684
0.0942647
0.100645
0.118648
0.114149
0.12176
0.0912083
0.0903924
0.108011
0.097656
0.0897551
0.0942644
0.100669
0.0783733
0.089745
0.0999685
0.0909473
0.0909672
0.0913607
0.103393
0.0785379
0.0878938
0.0751446
0.0972596
0.0901309
0.0883274
0.0856568
0.0842942
0.0954924
0.115459
0.111907
0.112314
0.0891334
0.0843041
0.0950661
0.0895941
0.0879585
0.0899124
0.0943928
0.0751851
0.0832599
0.0873623
0.0807801
0.0796722
0.0887345
0.0930865
0.0834001
0.0898028
0.0841644
0.0891422
0.0794808
0.0753366
0.0833629
0.0810928
0.0916762
0.108929
0.106743
0.108937
0.0889413
0.0921439
0.089121
0.0945576
0.0957445
0.0771778
0.0821746
0.0768043
0.0759713
0.0782187
0.0792679
0.0887533
0.08005
0.0791269
0.0866274
0.0790781
0.083806
0.0819282
0.0817985
0.102082
0.0953955
0.101526
0.0875547
0.0908683
0.0849505
0.0871232
0.0915127
0.0856555
0.0896399
0.0810798
0.0843731
0.0965952
0.0914728
0.0925961
0.0875009
0.0829729
0.0869993
0.10328
0.102089
0.0994564
0.0958586
0.0990439
0.0886732
0.0920057
0.0970384
0.0872072
0.0925035
0.0848955
0.0880428
0.10048
0.0888642
0.105534
0.0993744
0.0995156
0.0990795
0.107976
0.106255
0.10782
0.0836049
0.0966965
0.0824846
0.0878664
0.0994022
0.0884323
0.0901865
0.0850181
0.0887463
0.0954659
0.101674
0.109099
0.101294
0.0987197
0.0958905
0.103266
0.102326
0.108869
0.0905136
0.095351
0.0864189
0.0869435
0.0998448
0.0855588
0.105206
0.0899269
0.0857326
0.0907696
0.0749891
0.10373
0.0918312
0.0881379
0.107524
0.107753
0.115383
0.115108
0.0844673
0.0892122
0.0833747
0.0800188
0.0849221
0.0846869
0.0969264
0.0845441
0.0860762
0.0907931
0.0834537
0.0888923
0.090465
0.0868379
0.0944625
0.0995476
0.102224
0.096515
SCALARS SignedDistance double 1
LOOKUP_TABLE default
1.90276
2.18419
1.44938
1.46436
1.82574
2.36354
1.95433
2.0376
2.08334
1.94217
2.04825
1.55915
1.60482
1.84477
2.05381
2.39579
1.83578
1.88688
1.65119
1.68459
1.60001
1.71097
2.13996
2.16825
1.95869
2.10214
1.78891
1.6762
2.41678
2.17146
2.29368
2.42117
1.54217
1.84513
1.51904
1.47461
1.71343
1.63431
1.66643
2.05715
1.71086
1.98084
1.81128
1.79057
2.01374
1.64192
1.6618
1.55205
2.19402
1.92615
2.13033
2.02044
1.87396
2.39435
2.29473
1.98902
2.10905
2.2876
1.82942
1.76632
1.98009
1.77644
1.78559
1.85413
1.98989
1.42355
1.6817
1.78532
1.43119
1.7859
1.53086
1.80389
1.72077
1.86559
1.80724
1.63172
1.63709
2.2772
2.33998
2.24964
2.25015
2.05113
2.13232
2.03348
2.11593
2.2982
1.75892
1.81773
1.93664
2.1014
1.98569
1.63676
1.7121
1.87138
1.74888
1.56194
1.68479
1.54924
2.03824
2.15605
2.23665
2.05702
2.04207
2.29674
2.14201
2.10037
2.25653
2.25855
2.10234
2.24255
2.35874
2.17939
1.41845
1.53121
1.49625
1.90286
1.77433
1.78807
1.6496
1.70013
1.81597
1.62284
1.63073
1.59232
1.49208
1.58239
1.62721
1.45445
1.61004
1.59471
1.55424
1.57109
1.85406
1.67399
1.86227
1.72866
1.5155
2.00851
1.87149
1.96531
1.94202
2.07457
1.53075
2.01055
1.83835
1.75006
1.94574
1.94852
2.00005
2.14204
1.47178
1.69826
1.7863
1.96092
1.75452
1.96346
2.23384
2.15315
2.45894
2.07814
2.10372
2.237
1.89584
1.90212
1.96713
1.68377
1.78097
1.67799
2.01599
1.88619
1.92004
1.58913
1.5681
1.53123
1.73906
1.63644
1.72219
1.57093
1.59149
1.61694
2.28801
2.14288
2.26498
1.9757
2.05438
2.10479
1.99302
2.01072
1.88276
1.70947
1.78707
1.84033
1.95632
1.93198
2.12408
2.0335
1.81377
1.92492
1.90244
2.39037
2.35101
2.34711
2.40419
2.40098
2.27049
2.19909
2.10176
2.13592
2.23066
1.95926
2.04406
1.90192
2.34663
2.19287
2.26238
2.14797
2.19501
2.03232
1.92084
1.83248
1.76781
1.82708
1.70498
1.906
1.86491
2.07445
1.98149
1.81074
1.86572
1.90322
1.88213