# vtk DataFile Version 4.2
vtk output
ASCII
DATASET POLYDATA
POINTS 642 double
-1.75285 4.41032 -0.0751949
1.00286 4.34751 -0.0628906
-1.7681 -0.208981 -0.02377
1.12186 -0.211129 -0.0188134
-0.335574 0.686218 2.25333
-0.385666 3.45749 2.13972
-0.326431 0.72918 -2.22912
-0.391722 3.56046 -2.34066
1.87663 2.09102 -1.35504
1.91861 2.06616 1.33713
-2.58785 2.17175 -1.43322
-2.62735 2.12832 1.3841
-2.51873 3.47348 0.802578
-1.6932 2.94339 2.11968
-1.16369 4.23999 1.28252
0.421736 4.19701 1.20478
-0.327233 4.7872 -0.0449574
0.455486 4.28293 -1.35085
-1.20103 4.37584 -1.42803
-1.71305 3.0061 -2.24741
-2.54609 3.51859 -0.900021
-3.00733 2.13176 -0.0155847
0.948979 2.88877 2.02746
1.74545 3.36545 0.761511
-1.66809 1.27006 2.11861
-0.344558 2.09215 2.56
-2.48522 0.759992 -0.838417
-2.49808 0.753522 0.810598
-0.374258 2.18169 -2.59878
-1.63738 1.32328 -2.10868
1.7051 3.40351 -0.807489
0.922847 2.93734 -2.08813
1.90431 0.741406 0.815315
0.999383 1.26475 2.1021
0.523035 -0.0909346 1.33251
-1.18548 -0.106413 1.33404
-0.331167 -0.584101 -0.0267586
-1.16357 -0.0666481 -1.3561
0.510596 -0.0627767 -1.36116
0.968515 1.2833 -2.1037
1.88255 0.752639 -0.849012
2.33422 2.05267 -0.0207428
-2.18858 4.02606 0.377673
-1.92828 3.95271 1.09623
-1.50305 4.40493 0.625027
-2.23461 2.55565 1.82933
-2.19108 3.26903 1.54837
-2.66778 2.82585 1.14001
-0.773986 3.90443 1.80111
-1.4924 3.67408 1.79198
-1.02421 3.26882 2.22692
-0.771388 4.63369 0.63067
-1.09294 4.68241 -0.0627889
0.0351053 3.87708 1.72683
-0.353141 4.32598 1.2944
0.360656 4.67715 -0.052705
0.0784941 4.6191 0.622945
0.745765 4.37023 0.599016
-0.799619 4.68678 -0.769312
-1.54175 4.49791 -0.783111
0.796377 4.40699 -0.689863
0.0771331 4.66973 -0.741391
-0.783262 4.0309 -1.99005
-0.390608 4.41556 -1.47226
0.0375517 3.96688 -1.91867
-1.96827 4.04255 -1.21765
-2.211 4.07097 -0.48741
-1.06766 3.34111 -2.4138
-1.51697 3.77248 -1.94536
-2.66946 2.87166 -1.22229
-2.23281 3.32344 -1.66398
-2.23241 2.6094 -1.91035
-2.62852 3.55716 -0.0407705
-2.89 2.14423 -0.747717
-2.88518 2.8561 -0.478229
-2.89722 2.83388 0.412286
-2.91551 2.13534 0.739985
1.15459 3.85519 1.03616
1.39553 3.92732 0.345331
0.32225 3.18857 2.15632
0.750768 3.58916 1.68729
1.91351 2.76084 1.08686
1.435 3.18765 1.45518
1.49849 2.49927 1.75995
-1.05025 2.55388 2.46424
-0.376727 2.80465 2.43779
-2.2397 1.7149 1.8158
-1.75948 2.12365 2.22245
-0.326176 1.34989 2.48956
-1.04171 1.67808 2.45499
-1.01061 0.914069 2.28011
-2.87538 1.42032 0.413662
-2.64983 1.4553 1.15327
-2.61053 1.43623 -1.15273
-2.86396 1.42034 -0.449844
-2.21163 0.194364 0.415209
-2.61259 0.691217 -0.0291221
-2.21203 0.202983 -0.456964
-1.73352 2.1809 -2.30058
-2.17452 1.74313 -1.84166
-0.384716 2.92593 -2.59383
-1.06068 2.62462 -2.59285
-0.979212 0.958424 -2.25195
-1.03413 1.74981 -2.47929
-0.329461 1.38378 -2.47965
0.737337 3.68116 -1.81766
0.268827 3.2939 -2.28304
1.42029 3.95343 -0.459963
1.1619 3.92743 -1.13109
1.45398 2.51632 -1.78467
1.39884 3.22248 -1.52565
1.88069 2.7564 -1.12426
1.58158 0.168734 0.398642
1.28683 0.220583 1.11945
0.887208 -0.245235 0.658252
1.53865 1.65046 1.78583
1.5485 0.952757 1.54522
2.01461 1.37338 1.12793
0.0861366 0.243072 1.88968
0.81667 0.506368 1.81405
0.338916 0.934426 2.26445
0.121185 -0.467394 0.691173
0.460234 -0.488552 -0.0226215
-0.775064 0.215139 1.8757
-0.33238 -0.205793 1.41222
-1.08651 -0.502445 -0.0231996
-0.782116 -0.473973 0.702392
-1.52527 -0.246815 0.694441
0.116709 -0.453634 -0.735005
0.858584 -0.228389 -0.71742
-1.52575 -0.234459 -0.69955
-0.783379 -0.458305 -0.723666
0.0871648 0.279797 -1.88868
-0.338042 -0.173687 -1.42575
-0.745449 0.2741 -1.89632
1.26685 0.243416 -1.14455
1.57339 0.178155 -0.442384
0.349279 0.963642 -2.24701
0.804474 0.54911 -1.8316
1.98135 1.37851 -1.14747
1.51086 0.974699 -1.55734
1.49424 1.6612 -1.79588
2.01908 0.671713 -0.0230579
2.20592 2.06033 -0.715801
2.25944 1.38855 -0.448485
2.27055 1.36997 0.415751
2.21877 2.07197 0.710473
0.356341 1.65665 2.45479
1.04406 2.09522 2.17471
0.340451 2.50202 2.41633
-1.93766 0.226072 1.14058
-1.49395 0.502235 1.84377
-2.17618 0.953647 1.55984
-1.45549 0.540202 -1.833
-1.91787 0.254805 -1.15835
-2.1431 0.980462 -1.54638
1.00813 2.10837 -2.17831
0.332178 1.68382 -2.44605
0.303192 2.5767 -2.45312
2.14723 2.75955 0.393712
2.12541 2.76286 -0.429453
1.8379 3.44193 -0.0242171
-1.97211 4.24211 0.141812
-1.88017 4.22827 0.52324
-1.64205 4.42135 0.261972
-2.2492 3.73308 0.959239
-2.07518 4.00259 0.758803
-2.38762 3.74909 0.602016
-1.34563 4.34615 0.960702
-1.73274 4.19437 0.882537
-1.55036 4.12448 1.21336
-2.45139 2.34634 1.62667
-2.47495 2.70515 1.51278
-2.67282 2.48333 1.27429
-1.95046 3.12029 1.86687
-2.23765 2.91655 1.70582
-1.98359 2.7521 1.99288
-2.61685 3.15893 0.978988
-2.45084 3.05917 1.36343
-2.38976 3.37586 1.18777
-0.564704 3.68193 1.99903
-0.937396 3.60542 2.03564
-0.683048 3.38168 2.2009
-1.34854 3.9799 1.55589
-1.14138 3.81527 1.81255
-0.996747 4.101 1.54756
-1.35214 3.12577 2.20304
-1.28506 3.47941 2.03343
-1.59682 3.33024 1.98541
-2.08941 3.62759 1.33894
-1.85252 3.49616 1.69713
-1.72964 3.83579 1.46785
-1.28653 4.57321 0.29027
-1.42996 4.56584 -0.0846297
-0.966358 4.45314 0.971586
-1.14111 4.53552 0.642168
-0.717119 4.7607 -0.0473013
-0.922462 4.68613 0.294092
-0.542616 4.74354 0.300622
-0.178986 3.67672 1.95142
-0.371396 3.91631 1.78097
0.0383246 4.29294 1.2626
-0.154659 4.12109 1.52279
0.24322 4.05593 1.46803
-0.575525 4.1363 1.55796
-0.777084 4.30834 1.30775
0.729638 4.5167 -0.0537641
0.571273 4.55546 0.282804
0.90023 4.37555 0.246176
-0.131677 4.74353 0.289952
0.233078 4.67269 0.291045
0.0141072 4.76112 -0.0530042
0.607661 4.3044 0.893319
0.423807 4.5218 0.614256
0.263598 4.43269 0.93045
-0.572797 4.51668 0.979566
-0.133997 4.50317 0.972468
-0.3541 4.66883 0.633488
-1.32055 4.61884 -0.434818
-1.66559 4.47454 -0.444157
-0.55032 4.76689 -0.400489
-0.959444 4.71252 -0.427174
-1.38868 4.47261 -1.09212
-1.19758 4.62361 -0.795391
-1.02375 4.56911 -1.12003
0.907321 4.40485 -0.388705
0.599652 4.56915 -0.386396
0.277518 4.50588 -1.06177
0.448238 4.56201 -0.732825
0.62373 4.3685 -1.05308
0.236829 4.69858 -0.389942
-0.127183 4.76483 -0.401903
-0.57361 3.79831 -2.1982
-0.399189 4.03509 -1.97409
-0.19143 3.76611 -2.16151
-0.815202 4.42414 -1.48013
-0.595577 4.25631 -1.74233
-1.01766 4.22961 -1.71879
0.263632 4.14087 -1.64526
-0.174491 4.22159 -1.70695
0.0717649 4.37463 -1.41046
-0.357642 4.71036 -0.760934
-0.126213 4.57493 -1.10151
-0.610732 4.58696 -1.13744
-1.9015 4.30948 -0.647063
-2.01339 4.25164 -0.301027
-1.59094 4.24427 -1.34238
-1.76887 4.30048 -1.00921
-2.3984 3.82081 -0.696887
-2.12279 4.06956 -0.871071
-2.28825 3.80079 -1.06923
-0.732378 3.4689 -2.40684
-0.932123 3.71481 -2.22906
-1.63603 3.40046 -2.12759
-1.2918 3.57177 -2.20468
-1.39848 3.1835 -2.35681
-1.15875 3.93314 -1.98761
-1.37521 4.09691 -1.71047
-2.64811 2.49407 -1.35271
-2.48278 2.74747 -1.58598
-2.44795 2.37304 -1.66721
-2.4229 3.42883 -1.29539
-2.48028 3.10534 -1.45857
-2.636 3.19994 -1.07532
-2.00003 2.80425 -2.09544
-2.25582 2.97493 -1.80723
-1.98864 3.17783 -1.98864
-1.76565 3.9287 -1.60464
-1.89882 3.56516 -1.83054
-2.1286 3.69765 -1.46101
-2.22936 4.05398 -0.0632125
-2.60818 3.55572 -0.486255
-2.4436 3.82505 -0.275345
-2.44481 3.79444 0.171831
-2.60045 3.52812 0.399307
-2.75938 2.15954 -1.09839
-2.80067 2.51765 -0.998043
-2.97463 2.49412 -0.247196
-2.91331 2.50832 -0.623977
-2.97228 2.13447 -0.386183
-2.80113 2.87287 -0.863564
-2.74421 3.19169 -0.709749
-2.82817 2.48521 0.943224
-2.80339 2.12889 1.05432
-2.73429 3.17923 0.620753
-2.8075 2.83913 0.784715
-2.9898 2.136 0.369745
-2.93512 2.48376 0.567599
-2.98756 2.48885 0.198734
-2.79264 3.21439 -0.269495
-2.92505 2.85401 -0.0267789
-2.79526 3.20538 0.190194
1.09677 4.15992 0.479022
1.21148 4.15868 0.139208
0.801305 4.04124 1.13195
0.954716 4.1237 0.818409
1.58735 3.65421 0.560515
1.29647 3.90039 0.71257
1.46677 3.62446 0.912933
-0.0327703 3.33189 2.16127
0.188525 3.54738 1.96098
0.858637 3.24279 1.89222
0.548528 3.39778 1.94015
0.64613 3.04351 2.11374
0.40926 3.74604 1.71738
0.595171 3.90577 1.46666
1.93168 2.40363 1.23468
1.73203 2.63514 1.44489
1.73826 2.28387 1.54873
1.61839 3.2882 1.12519
1.69265 2.98484 1.28495
1.84816 3.07662 0.932851
1.25485 2.69204 1.90039
1.48805 2.84243 1.62882
1.20886 3.04349 1.76709
0.9714 3.74416 1.38313
1.10727 3.40735 1.59291
1.31829 3.53597 1.267
-0.711994 3.04876 2.36189
-0.384731 3.1431 2.30711
-1.37642 2.76153 2.32472
-1.06734 2.90609 2.37278
-0.352907 2.48077 2.517
-0.728144 2.68399 2.47811
-0.703767 2.33283 2.53004
-2.44613 1.90642 1.6246
-2.2512 2.13253 1.85667
-1.73732 1.70103 2.19007
-2.00512 1.91813 2.05008
-1.96315 1.47534 1.9852
-2.00682 2.34743 2.0535
-1.7464 2.53794 2.19861
-0.335117 0.983787 2.38029
-0.685539 1.11664 2.40222
-0.655924 0.781886 2.28924
-0.695912 1.88603 2.54027
-0.677163 1.51663 2.49772
-0.334582 1.72898 2.55111
-1.34798 1.0711 2.22528
-1.04316 1.27353 2.37227
-1.36844 1.46859 2.31283
-1.41924 2.33781 2.3815
-1.40632 1.91409 2.38112
-1.06732 2.11943 2.49742
-2.81802 1.78357 0.944967
-2.66319 1.77222 1.27233
-2.97654 1.78107 0.196604
-2.92249 1.77766 0.567253
-2.59787 1.10259 0.994435
-2.78594 1.41435 0.784552
-2.71632 1.07646 0.620206
-2.61596 1.7972 -1.29797
-2.78038 1.78437 -0.963894
-2.69944 1.07917 -0.648559
-2.76242 1.42216 -0.811477
-2.56489 1.08507 -0.998654
-2.89998 1.77526 -0.602724
-2.96438 1.77239 -0.240752
-1.98646 -0.0510479 0.17692
-2.23434 0.170388 -0.022938
-1.98612 -0.0461149 -0.224444
-2.57871 0.699375 0.393894
-2.43708 0.422697 0.193499
-2.37591 0.454403 0.622156
-2.36877 0.45279 -0.652351
-2.43556 0.426875 -0.24497
-2.58032 0.709148 -0.448268
-2.90452 1.40919 -0.0231944
-2.76914 1.04236 -0.244314
-2.7704 1.03945 0.1953
-2.2264 2.1778 -1.9075
-2.40175 1.95714 -1.65249
-1.73813 2.60008 -2.30818
-2.00157 2.39719 -2.12831
-1.92934 1.54391 -1.99429
-1.97365 1.9681 -2.09493
-1.69829 1.76408 -2.2306
-0.394236 3.23595 -2.50691
-0.71668 3.13133 -2.55503
-0.731625 2.42137 -2.63801
-0.720413 2.77311 -2.62872
-0.401829 2.56158 -2.63049
[...]
POINT_DATA 642
SCALARS Mean_Curvature double 1
LOOKUP_TABLE default
0.735332
0.885368
0.81674
0.770284
0.942628
0.748453
0.724493
0.93369
0.658788
0.701184
0.701936
0.781347
0.782681
0.815008
0.726743
0.653721
0.77392
0.819241
0.920765
0.791172
0.866673
0.709678
0.687503
0.783838
0.535845
0.667529
0.72111
0.603142
0.377903
0.444441
0.506075
0.750798
0.8148
0.710939
0.771623
0.778827
0.582693
0.736813
0.79387
0.748965
0.811818
0.81956
0.727456
0.781364
0.660639
0.794489
0.78031
0.772896
0.757839
0.832408
0.821239
0.781709
0.648282
0.521243
0.641717
0.89962
0.783939
0.861891
0.580323
0.964882
0.785456
0.835547
0.924105
0.619372
0.610711
0.772345
0.794373
0.951556
0.775493
0.838172
0.885486
0.769693
0.697039
0.629394
0.662879
0.747019
0.811525
0.730858
0.502942
0.677436
0.629285
0.798757
0.684562
0.794088
0.859349
0.571914
0.774166
0.73455
0.701057
0.518505
0.891701
0.681333
0.679607
0.629683
0.748429
0.713513
0.696841
0.791828
0.82027
0.429781
0.987516
0.95831
0.625834
0.416626
0.648748
0.780502
0.560716
0.907084
0.737856
0.698885
0.632919
0.746103
0.801273
0.756672
0.771572
0.702878
0.843227
0.890112
0.739509
0.726527
0.739803
0.706066
0.753139
0.740966
0.797834
0.74649
0.737911
0.750789
0.748473
0.710732
0.836145
0.69013
0.741598
0.738293
0.845713
0.731208
0.806324
0.703909
0.758942
0.926608
0.745772
0.707022
0.787174
0.710349
0.915605
0.941158
0.665634
0.731602
0.713853
0.785453
0.852538
0.798205
0.687622
0.800255
0.839983
0.57607
0.629782
0.653853
0.45099
0.787379
0.657963
0.737409
0.602413
0.716042
0.539132
0.770649
0.754921
0.742493
0.707471
0.752262
0.747778
0.788867
0.814475
0.784334
0.782395
0.787424
0.793855
0.762262
0.795148
0.769051
0.761902
0.85624
0.787399
0.830181
0.780468
0.81204
0.802827
0.86004
0.815692
0.78238
0.783991
0.810279
0.578851
0.547092
0.563883
0.610659
0.709789
0.744473
0.772437
0.526362
0.711315
0.818634
0.561779
0.502972
0.705449
0.753714
0.801131
0.906288
0.7576
0.894536
0.797247
0.876469
0.692522
0.894124
0.759848
0.803178
0.758109
0.889143
0.718115
0.847016
0.662835
0.64186
0.960401
1.03833
0.995634
0.945495
0.826731
0.83045
0.773685
0.855423
0.810912
0.848257
0.918864
0.836917
0.734849
0.91711
0.889555
0.909274
0.684928
0.621014
0.686091
0.728534
0.684283
0.595452
0.885659
0.755021
0.803826
0.891119
0.833506
0.866313
0.85721
0.942533
0.925003
0.766944
0.748891
0.848796
0.862374
0.783799
0.795968
0.798024
0.798551
0.784037
0.943076
0.88476
0.823773
0.819686
0.894168
0.738236
0.807134
0.746854
0.65297
0.692958
0.717843
0.682021
0.767132
0.547476
0.614313
0.642687
0.669309
0.657832
0.81324
0.73466
0.82098
0.775687
0.778669
0.747997
0.790717
0.70033
0.780209
0.621531
0.750081
0.694053
0.563385
0.825202
0.523993
0.544804
0.597366
0.677168
0.636512
0.59972
0.549781
0.786063
0.611842
0.751321
0.558107
0.675463
0.671967
0.797064
0.679752
0.814863
0.693039
0.803735
0.689206
0.800765
0.680416
0.775954
0.672737
0.827567
0.788181
0.563186
0.804946
0.876931
0.617537
0.832015
0.554977
0.778263
0.805479
0.679704
0.764324
0.623002
0.775654
0.768476
0.676086
0.612079
0.928272
0.615126
0.598325
0.726799
0.8739
0.469882
0.502485
0.804068
0.768107
0.875021
0.80658
0.769178
0.744008
0.643213
0.688909
0.651823
0.708584
0.611135
0.663127
0.659962
0.710128
0.647537
0.697666
0.696363
0.803229
0.743288
0.832209
0.602732
0.829231
0.770402
0.914727
0.800248
0.768478
0.704657
0.736225
0.657413
0.790964
0.545716
0.824725
0.776841
0.515509
0.745184
0.712919
1.03602
1.07997
0.907659
0.989593
0.882365
1.06475
0.816269
0.692162
0.675347
0.764832
0.423728
0.603865
0.529041
0.579295
0.569211
0.417457
0.812674
0.912976
0.776344
0.604117
0.810138
0.732836
0.731626
0.729271
0.683459
0.659771
0.920841
0.806612
0.817516
0.753865
0.753472
0.75469
0.854997
0.661096
0.721616
0.668198
0.834255
0.562553
0.622903
0.607365
0.670594
0.49116
0.847017
0.690419
0.792343
0.804199
0.765839
0.801215
0.789502
0.796245
0.790795
0.761499
0.739473
0.752857
0.709982
0.778179
0.839099
0.691848
0.75075
0.674866
0.870798
0.823522
0.847651
0.817648
0.714481
0.769856
0.741445
0.747714
0.7165
0.705621
0.723062
0.699805
0.790532
0.760485
0.728585
0.825278
0.780033
0.763864
0.718616
0.633715
0.659635
0.624675
0.799156
0.828082
0.698779
0.792782
0.674586
0.794868
0.692242
0.807616
0.681093
0.77967
0.573701
0.79027
0.692479
0.839945
0.784661
0.82304
0.65759
0.790656
0.645336
0.781692
0.771708
0.666386
0.692858
0.760407
0.705185
0.777193
0.775735
0.840317
0.710579
0.742796
0.703382
0.794163
0.758907
0.72639
0.752647
0.73307
0.738908
0.759549
0.784806
0.824338
0.78909
0.811834
0.706563
0.807104
0.674885
0.80902
0.77707
0.751771
0.725634
0.808348
0.798162
0.802296
0.726985
0.723621
0.787275
0.753816
0.736502
0.791094
0.780692
0.637693
0.700523
0.656399
0.825707
0.85827
0.901335
0.665663
0.727893
0.739442
0.731125
0.725916
0.740493
0.80174
0.806373
0.794924
0.787054
0.799107
0.7195
0.717702
1.00785
0.838462
0.730108
0.908128
0.867517
0.845339
0.71917
0.808311
0.881937
0.714032
0.941408
0.933747
0.810917
0.936638
0.779473
0.653119
0.746282
0.714993
0.798532
0.680251
0.75658
0.696919
0.784079
0.693401
0.756446
0.565386
0.735553
0.632351
0.720265
0.695111
0.798791
0.727974
0.814207
0.828914
0.751454
0.84118
0.762935
0.87566
0.78174
0.992614
0.897166
0.819992
0.763139
0.752925
0.629597
0.669497
0.5973
0.605314
0.762236
0.984973
0.819083
0.842327
0.756983
0.843498
0.857529
0.783398
0.783445
0.896981
0.810629
0.837355
0.711563
0.637587
0.546169
0.620356
0.62108
0.653626
0.730009
0.880974
0.792482
0.66118
0.728857
0.666733
0.694014
0.566129
0.720389
0.614557
0.654053
0.698401
0.703346
0.918413
0.419411
0.627944
0.852864
0.412331
0.689787
0.588396
0.62144
0.661339
0.727302
0.655472
0.788596
0.674243
0.759109
0.627104
0.763469
0.653917
0.736983
0.595593
0.768985
0.552705
0.577006
0.592136
0.80725
0.648612
0.809111
SCALARS Redistribution_Potential double 1
LOOKUP_TABLE default
-3.1563e-09
-0.923409
0.614954
0.248753
0.148269
-0.634698
0.00945202
-0.127964
-0.640182
-0.637673
0.406427
0.302536
0.163035
-0.115694
-0.394532
-0.882019
-0.495997
-0.550665
0.0980467
0.283771
0.377642
0.455388
-0.801149
-0.997355
0.27932
-0.305772
0.518363
0.574201
-0.0831029
0.280807
-0.87703
-0.568093
-0.083255
-0.246709
0.321149
0.575127
0.531014
0.42189
0.168572
-0.323113
-0.158695
-0.635769
0.0794412
-0.0882245
-0.197135
0.118112
0.0258516
0.235254
-0.550753
-0.274768
-0.402351
-0.459007
-0.222267
-0.773047
-0.668741
-0.735321
-0.741798
-0.929201
-0.165361
0.0812988
-0.766564
-0.507059
0.0104839
-0.194538
-0.317634
0.29016
0.219234
0.127073
0.249587
0.421204
0.389188
0.361705
0.290995
0.455225
0.4184
0.352506
0.396739
-1.00096
-0.993635
-0.756905
-0.905358
-0.87181
-0.938629
-0.761674
-0.240616
-0.494794
0.287024
0.0716602
-0.0758777
0.0110086
0.225511
0.514487
0.443101
0.456991
0.506791
0.630813
0.583348
0.587794
0.256744
0.365056
-0.11789
0.101243
0.136633
0.114588
-0.0742278
-0.581678
-0.363798
-0.941122
-0.790579
-0.658664
-0.747629
-0.795701
0.126471
0.148904
0.31805
-0.450555
-0.154145
-0.352712
0.250448
0.0769622
-0.0446965
0.479324
0.398775
0.404577
0.46992
0.601105
0.595552
0.637928
0.384941
0.235424
0.554605
0.507783
0.0747834
0.309157
0.217526
0.027616
0.0778169
-0.159133
-0.0845306
-0.413331
-0.264063
-0.481643
-0.0796149
-0.64546
-0.380367
-0.346207
-0.635504
-0.31168
-0.562628
-0.585666
0.60791
0.466413
0.468892
0.324547
0.498759
0.420677
-0.479251
-0.264045
-0.311634
-0.865055
-0.832276
-0.970363
0.0384742
-0.0501968
-0.0913497
0.0469472
-0.00665092
0.126874
-0.296769
-0.147306
-0.242579
0.217174
0.175768
0.268551
-0.0495341
0.0718266
0.0086959
0.200863
0.135689
0.100313
-0.606663
-0.478587
-0.53387
-0.339408
-0.417826
-0.473593
-0.263891
-0.33933
-0.203427
-0.0266644
-0.117906
-0.179743
-0.218803
-0.102854
-0.430183
-0.32749
-0.355896
-0.351077
-0.483994
-0.706956
-0.674087
-0.788984
-0.733832
-0.834306
-0.613317
-0.535042
-0.849082
-0.852183
-0.929492
-0.626333
-0.747701
-0.618252
-0.91324
-0.850202
-0.829637
-0.571807
-0.712067
-0.602237
-0.070773
0.0430399
-0.3388
-0.189527
0.100586
-0.023361
-0.0116843
-0.851173
-0.754758
-0.527365
-0.643474
-0.655206
-0.631006
-0.498124
-0.0598831
-0.143229
-0.213952
-0.0304207
-0.084214
0.0718106
-0.435822
-0.254385
-0.38949
-0.334335
-0.357374
-0.159814
0.158613
0.12413
0.205771
0.197203
0.31022
0.267725
0.344273
0.00968826
0.0786266
0.281859
0.192695
0.21672
0.144221
0.190037
0.41421
0.402132
0.386175
0.397962
0.410935
0.412128
0.329547
0.381472
0.347507
0.291866
0.337831
0.361737
0.156456
0.342168
0.258577
0.198175
0.228661
0.439065
0.432908
0.437306
0.439587
0.461404
0.421717
0.402032
0.324243
0.357942
0.265256
0.296712
0.431575
0.374984
0.411018
0.376112
0.395373
0.328541
-0.97564
-0.976561
-0.946798
-0.970032
-1.0069
-1.00841
-1.00903
-0.69802
-0.777645
-0.872798
-0.838313
-0.793801
-0.85053
-0.909609
-0.755732
-0.824318
-0.705531
-0.982563
-0.918015
-0.952104
-0.789595
-0.863691
-0.876287
-0.968486
-0.937096
-0.993154
-0.46109
-0.572281
-0.185672
-0.320135
-0.415241
-0.371849
-0.277335
0.295354
0.198089
0.175245
0.181939
0.286997
0.0875892
-0.0243665
0.0464657
0.0845871
0.185284
-0.149194
-0.0406615
-0.197967
0.256627
0.131008
0.155387
-0.0729497
0.0358059
-0.116016
0.420875
0.378885
0.480452
0.459949
0.512343
0.489334
0.543624
0.431552
0.457514
0.518788
0.483921
0.486968
0.476131
0.488205
0.629761
0.618508
0.608403
0.593073
0.611111
0.611282
0.556385
0.591666
0.55573
0.524799
0.547363
0.562231
0.351907
0.389871
0.269181
0.314044
0.325388
0.308499
0.25904
-0.114983
0.00615379
0.000138339
-0.00358126
-0.104475
0.1171
0.199137
0.0651927
0.0331694
-0.0405811
0.201644
0.11491
0.216708
-0.0869819
0.0174508
0.015976
0.191694
0.0979877
0.189368
-0.352396
-0.25149
-0.572408
-0.46452
-0.477327
-0.480158
-0.583167
-0.940456
-0.873445
-0.860535
-0.876171
-0.921388
-0.782316
-0.686671
-0.663116
-0.73559
-0.720376
-0.669413
-0.710157
-0.625011
-0.837383
-0.78628
-0.814537
-0.689663
-0.774066
-0.684529
0.197383
0.22862
0.288926
0.0432518
0.141033
0.0334597
0.328724
0.243607
0.238736
-0.546226
-0.409685
-0.498146
-0.204564
-0.30096
-0.358757
-0.210564
-0.256579
-0.106951
0.199167
0.114071
0.0586149
0.212454
0.163244
0.298649
-0.148372
0.015597
-0.088877
0.0165408
-0.0350913
0.125248
0.372593
0.333041
0.411657
0.403822
0.46847
0.450319
0.515913
0.287479
0.328461
0.5297
0.439726
0.501484
0.370664
0.402924
0.614501
0.63018
0.634005
0.577865
0.608054
0.572751
0.617377
0.6235
0.594791
0.492606
0.552487
0.551324
0.32687
0.250959
0.467432
0.403173
0.206809
0.313209
0.283177
0.59259
0.581686
0.470252
0.532011
0.496632
0.55953
0.529561
0.0330392
0.153414
0.1074
0.24193
0.194403
0.127731
0.320957
0.267041
0.36577
0.458229
0.418694
0.35961
0.157523
0.167597
0.0993847
0.135258
-0.0311406
0.0549425
-0.0639365
-0.0745407
-0.0496066
-0.208709
-0.134248
-0.243714
-0.00510686
0.049972
-0.54529
-0.45872
-0.568414
-0.209248
-0.342894
-0.2853
-0.408613
-0.381883
-0.304641
-0.0213383
-0.168359
-0.109439
0.107264
-0.104573
0.00398766
0.030814
-0.0706995
-0.647923
-0.535885
-0.503891
-0.523849
-0.640291
-0.399373
-0.258194
-0.499913
-0.635022
-0.211426
-0.34588
-0.635775
-0.488652
-0.497546
-0.215018
-0.354284
-0.197558
-0.0726921
-0.286093
-0.187353
-0.201257
-0.325029
-0.617253
-0.695077
-0.667923
-0.518732
-0.408842
-0.637345
-0.453857
-0.554311
-0.685558
-0.704451
-0.436574
-0.583437
-0.455468
0.639932
0.602627
0.629819
0.628161
0.596962
0.32394
0.379364
0.359427
0.436832
0.531294
0.375593
0.533578
0.457967
0.384925
0.38486
0.559207
0.484526
0.559158
0.167842
0.371576
0.270968
0.2334
0.286138
0.577795
0.516536
0.550245
0.52816
0.469773
0.41141
0.352823
0.38496
0.442085
0.474848
0.426002
0.460422
0.380206
-0.584735
-0.412909
-0.499144
-0.574773
-0.528755
-0.132196
-0.186585
-0.170756
-0.226882
-0.311301
-0.239317
-0.433533
-0.346755
-0.218218
-0.189612
-0.370997
-0.294143
-0.410458
-0.764887
-0.756678
-0.76377
-0.874496
-0.945972
-0.743923
-0.873006
-0.82089
-0.748998
-0.751395
-0.975404
-0.992001
-0.989722
-0.962515
-0.928139
-0.853344
-0.908185
-0.938991
SCALARS CoVolArea double 1
LOOKUP_TABLE default
0.10818
0.0928154
0.0968807
0.107368
0.095114
0.0960477
0.0911196
0.0994876
0.0943506
0.105602
0.106157
0.112888
0.139498
0.144045
0.138411
0.137126
0.137221
0.135607
0.143734
0.145099
0.147776
0.146183
0.133261
0.133987
0.146672
0.143654
0.140767
0.150525
0.146303
0.150529
0.141965
0.135693
0.145373
0.143602
0.148064
0.149049
0.154971
0.148886
0.142512
0.138504
0.141916
0.13503
0.144605
0.149139
0.141777
0.132372
0.151008
0.136887
0.133923
0.143372
0.129861
0.145339
0.137709
0.13518
0.145294
0.131002
0.142544
0.128011
0.156518
0.12927
0.128701
0.147778
0.137155
0.159551
0.142597
0.157985
0.133741
0.135251
0.158763
0.138556
0.15387
0.13785
0.158642
0.140957
0.154667
0.153245
0.132729
0.141767
0.133837
0.130703
0.141013
0.131139
0.140482
0.128993
0.142286
0.132156
0.139034
0.146711
0.137575
0.155499
0.134318
0.155788
0.136521
0.139726
0.150505
0.143873
0.153302
0.139153
0.145338
0.138788
0.119128
0.141673
0.137921
0.156956
0.135211
0.142052
0.132962
0.12258
0.141892
0.133662
0.147776
0.128892
0.143344
0.153293
0.141733
0.131119
0.150878
0.132478
0.141372
0.156561
0.14083
0.159976
0.136654
0.138055
0.154997
0.144302
0.155338
0.142277
0.155521
0.137474
0.135995
0.153391
0.13966
0.150697
0.132309
0.152418
0.136424
0.129666
0.147889
0.134194
0.149095
0.135558
0.152674
0.129434
0.147447
0.148652
0.13383
0.142918
0.147648
0.142569
0.151171
0.152171
0.153472
0.147089
0.147017
0.15186
0.147646
0.144885
0.155379
0.142523
0.147589
0.142891
0.134024
0.139715
0.135797
0.147056
0.13745
0.13915
0.139774
0.139162
0.149019
0.134583
0.136796
0.134729
0.148192
0.137274
0.132092
0.134729
0.137635
0.14708
0.119604
0.130082
0.118332
0.142591
0.133143
0.131797
0.131763
0.129522
0.142806
0.164976
0.161882
0.162781
0.140074
0.133985
0.146041
0.138901
0.14209
0.137629
0.141432
0.126461
0.130196
0.13614
0.13218
0.1303
0.136607
0.143108
0.121993
0.12883
0.122092
0.138448
0.127719
0.126151
0.127161
0.123396
0.137377
0.16087
0.157712
0.1578
0.135038
0.132316
0.153857
0.145387
0.132569
0.134636
0.146326
0.114423
0.128469
0.141538
0.136607
0.132942
0.133299
0.143289
0.124102
0.136068
0.128865
0.145516
0.136261
0.138144
0.139803
0.145128
0.153198
0.168714
0.172454
0.173372
0.133536
0.129769
0.157918
0.139705
0.139556
0.139874
0.152908
0.126537
0.137359
0.153812
0.144112
0.138049
0.144407
0.155072
0.132615
0.140033
0.131124
0.151462
0.137175
0.1338
0.135087
0.138286
0.151166
0.176824
0.172672
0.174041
0.140754
0.157386
0.143161
0.144902
0.149221
0.137915
0.142052
0.153194
0.142364
0.138343
0.137782
0.151424
0.134655
0.129287
0.15002
0.139311
0.137171
0.137876
0.15043
0.174493
0.17036
0.172844
0.132852
0.120125
0.144833
0.132729
0.135474
0.134977
0.140113
0.131748
0.138902
0.13726
0.132416
0.122824
0.136666
0.141521
0.129913
0.132334
0.129412
0.13464
0.129223
0.123678
0.127899
0.130335
0.141362
0.153189
0.153253
0.150813
0.130094
0.125636
0.146114
0.129087
0.133663
0.128711
0.147277
0.131183
0.134236
0.152917
0.137574
0.142832
0.131754
0.14601
0.123155
0.137088
0.126181
0.149962
0.144458
0.134705
0.136097
0.142021
0.155436
0.162901
0.166413
0.163892
0.134855
0.129677
0.151721
0.141888
0.144487
0.143321
0.15651
0.140076
0.140695
0.148282
0.138875
0.136482
0.138743
0.149168
0.13197
0.144141
0.133149
0.154016
0.141067
0.138181
0.132623
0.138786
0.148722
0.16966
0.167604
0.172094
0.139226
0.135077
0.147366
0.13661
0.14156
0.138112
0.150563
0.120731
0.126221
0.139168
0.12511
0.128412
0.133271
0.146085
0.120744
0.135201
0.122323
0.156953
0.144545
0.14213
0.141017
0.143621
0.152627
0.159756
0.162712
0.163658
0.136328
0.126294
0.140664
0.135942
0.134495
0.135768
0.140295
0.118644
0.122651
0.138131
0.125136
0.124871
0.134485
0.140015
0.123708
0.132789
0.124614
0.139684
0.134436
0.128895
0.133004
0.133827
0.147856
0.155691
0.158798
0.15674
0.132974
0.142747
0.131106
0.151997
0.142723
0.142386
0.142028
0.142025
0.151127
0.130035
0.132316
0.128534
0.146852
0.133419
0.134392
0.132124
0.135544
0.151739
0.127937
0.13868
0.126151
0.150539
0.14079
0.142787
0.136427
0.142769
0.152157
0.172645
0.173486
0.172112
0.140255
0.129851
0.157544
0.146167
0.144553
0.145225
0.160363
0.13158
0.138377
0.153429
0.14206
0.140732
0.142612
0.153924
0.13456
0.147709
0.133462
0.157099
0.143341
0.139826
0.136141
0.142396
0.152222
0.174484
0.170708
0.175017
0.138314
0.137777
0.156292
0.143407
0.137612
0.141824
0.152694
0.127286
0.138807
0.152115
0.139235
0.138708
0.139002
0.152744
0.125506
0.137122
0.122457
0.150111
0.139923
0.137098
0.135969
0.135067
0.148996
0.171905
0.16995
0.169656
0.138809
0.133583
0.147821
0.138705
0.139267
0.140705
0.150028
0.121566
0.131478
0.139951
0.129446
0.126261
0.138194
0.146539
0.130249
0.137087
0.129998
0.145665
0.130592
0.129454
0.129673
0.129
0.14416
0.168285
0.166832
0.169391
0.139533
0.149298
0.140535
0.145678
0.152934
0.124253
0.131823
0.135153
0.128233
0.128062
0.134238
0.149542
0.13277
0.127755
0.145076
0.134806
0.134086
0.137111
0.141649
0.169243
0.164833
0.167466
0.134947
0.142578
0.132426
0.134482
0.142677
0.134605
0.142548
0.129957
0.133105
0.149356
0.135127
0.14304
0.133543
0.128571
0.138366
0.162886
0.161432
0.157839
0.144603
0.152646
0.138505
0.141481
0.149451
0.139338
0.146534
0.137185
0.139643
0.154723
0.136076
0.154001
0.14377
0.144456
0.148294
0.170175
0.167606
0.167573
0.131775
0.15188
0.133506
0.134598
0.146344
0.139092
0.144433
0.137188
0.139167
0.14907
0.143309
0.154129
0.143167
0.142294
0.14571
0.163493
0.160807
0.16467
0.136239
0.144828
0.132236
0.131375
0.145198
0.131482
0.15149
0.133999
0.131794
0.139947
0.125395
0.147642
0.136776
0.13507
0.154559
0.161038
0.167401
0.165725
0.13425
0.142516
0.133115
0.130061
0.13834
0.132465
0.147321
0.131646
0.135424
0.144454
0.130898
0.139928
0.137071
0.133222
0.144008
0.159094
0.159335
0.154884
SCALARS SignedDistance double 1
LOOKUP_TABLE default
2.37399
2.72805
1.94167
1.94951
2.28344
2.90358
2.49463
2.4637
2.6558
2.5048
2.50697
2.07414
2.12086
2.33839
2.57056
2.95309
2.3636
2.43404
2.04223
2.1343
2.04882
2.21059
2.73147
2.76885
2.4643
2.6493
2.30421
2.17451
2.91302
2.70318
2.86333
2.95341
2.01759
2.38119
2.01475
1.93916
2.20013
2.14196
2.17606
2.61804
2.19476
2.52843
2.28702
2.29991
2.50975
2.15104
2.17895
2.06834
2.72268
2.43627
2.63389
2.54536
2.38745
2.9733
2.82621
2.52609
2.6469
2.83907
2.32338
2.16555
2.51407
2.31015
2.19562
2.33244
2.49586
1.87891
2.15136
2.15962
1.89293
2.23226
1.9592
2.27359
2.20873
2.36203
2.28883
2.11425
2.13166
2.87972
2.91234
2.8467
2.85338
2.63745
2.73483
2.61565
2.6036
2.85278
2.24955
2.31861
2.45548
2.60906
2.42917
2.14791
2.20599
2.38854
2.25783
2.03073
2.18609
2.03047
2.50076
2.63396
2.68332
2.48951
2.59152
2.79914
2.69743
2.65323
2.75639
2.80259
2.6608
2.82251
2.88485
2.76524
1.90808
2.01429
1.97801
2.45225
2.24557
2.2775
2.13908
2.19792
2.32644
2.08249
2.10432
2.0639
1.98295
2.03768
2.08858
1.92155
2.10406
2.08605
2.03724
2.06105
2.37476
2.18284
2.34762
2.22226
2.00509
2.56873
2.39873
2.47942
2.46155
2.64549
2.0029
2.5808
2.31005
2.21237
2.49678
2.49411
2.56126
2.71011
1.94793
2.10894
2.28325
2.4215
2.21701
2.48386
2.80253
2.72189
2.98655
2.6567
2.68405
2.82636
2.38097
2.38058
2.47838
2.1949
2.2774
2.18058
2.52665
2.39062
2.42952
2.09999
2.08796
2.05198
2.24595
2.15284
2.22944
2.08839
2.10947
2.13618
2.81784
2.66801
2.78222
2.49795
2.57629
2.63255
2.48318
2.51895
2.38592
2.22551
2.29266
2.35255
2.48058
2.43862
2.64408
2.55991
2.33955
2.44663
2.42899
2.95838
2.88712
2.89149
2.94298
2.97544
2.79973
2.72375
2.63539
2.68201
2.77824
2.49425
2.58205
2.43521
2.89495
2.74132
2.80744
2.67573
2.7309
2.56715
2.39384
2.27547
2.29045
2.3367
2.07409
2.30284
2.23551
2.61178
2.50858
2.35454
2.40055
2.45438
2.40752
2.33114
2.32639
2.40858
2.53248
2.23588
2.31438
2.08479
2.44385
2.39276
2.34783
2.25428
2.27462
2.31734
2.13467
2.24392
1.91083
1.98818
2.07811
2.00336
1.93127
2.30196
2.13954
1.96794
1.98977
2.1093
1.9968
1.91301
2.38258
2.2417
2.39455
1.95768
2.08595
2.10365
2.19332
2.12039
2.03496
1.83706
1.88105
1.86001
2.29148
2.17239
2.21733
2.22597
2.13736
2.47499
2.40702
2.23606
2.32565
2.27296
2.29675