<VTKFile type="ImageData" version="1.0" byte_order="LittleEndian" header_type="UInt64">
	<ImageData WholeExtent="0 44 0 44 0 44" Origin="-0.264102 -0.00872117 -0.198699" Spacing="0.0104773 0.0104773 0.0104773">
		<Piece Extent="0 44 0 44 0 44">
			<PointData Scalars="Scalars_">
				<DataArray type="Float32" Name="Scalars_" format="ascii" RangeMin="0" RangeMax="100">
0.24819
0.241803
0.235528
0.229354
0.223274
0.21729
0.211412
0.205663
0.200079
0.194702
0.189581
0.184764
0.180299
0.176228
0.172592
0.169427
0.166766
0.164637
0.163072
0.16211
0.162847
0.164027
0.165518
0.16727
0.169185
0.171088
0.172834
0.174519
0.1763
0.178312
0.180646
0.183346
0.186427
0.189884
0.193702
0.19786
0.202331
0.207086
0.21209
0.217306
0.222693
0.228215
0.233838
0.239542
0.245311
0.24451
0.238035
0.231669
0.225401
0.219224
0.21314
0.207158
0.201301
0.195607
0.190118
0.184884
0.179955
0.17538
0.171203
0.167469
0.164214
0.161476
0.159285
0.157676
0.156691
0.157441
0.158644
0.160156
0.161919
0.163821
0.165688
0.167407
0.169096
0.170898
0.172941
0.175311
0.178053
0.18118
0.184686
0.188557
0.192769
0.197297
0.202108
0.207169
0.212441
0.217884
0.223459
0.229136
0.234891
0.240714
0.241219
0.234663
0.228212
0.221856
0.215589
0.20941
0.20333
0.197372
0.191574
0.18598
0.180638
0.175601
0.170921
0.166643
0.162812
0.159471
0.156657
0.154406
0.152754
0.151746
0.152509
0.153732
0.15526
0.157013
0.15887
0.160668
0.162345
0.164033
0.165852
0.16792
0.170322
0.173099
0.176266
0.179815
0.183731
0.187991
0.192567
0.197431
0.202543
0.207867
0.213362
0.218989
0.224717
0.230523
0.236399
0.238339
0.231708
0.22518
0.218746
0.212396
0.206131
0.199962
0.193911
0.188017
0.182323
0.176882
0.171746
0.166966
0.162592
0.158672
0.155248
0.152361
0.150052
0.148359
0.147329
0.148105
0.149346
0.150877
0.152583
0.154344
0.156033
0.157653
0.159336
0.161171
0.163259
0.165687
0.168495
0.171695
0.175279
0.179233
0.183533
0.188153
0.193061
0.198222
0.203594
0.209138
0.214815
0.220594
0.226453
0.232382
0.235893
0.229198
0.222603
0.216099
0.209677
0.203336
0.197087
0.190954
0.184974
0.179192
0.173662
0.168434
0.163565
0.159104
0.1551
0.151601
0.148648
0.146284
0.144553
0.143503
0.144289
0.145547
0.147054
0.14864
0.150228
0.151765
0.153323
0.155002
0.15685
0.158958
0.161408
0.164242
0.16747
0.171083
0.175069
0.179403
0.184061
0.189011
0.194215
0.199634
0.205227
0.210954
0.216785
0.222696
0.228679
0.233913
0.227164
0.220513
0.21395
0.207466
0.201062
0.194745
0.188543
0.18249
0.176634
0.171025
0.165721
0.160774
0.156238
0.152162
0.148595
0.145583
0.143172
0.141406
0.14034
0.141135
0.1424
0.14382
0.145146
0.146464
0.147822
0.149326
0.151011
0.152877
0.155006
0.15748
0.160338
0.16359
0.167229
0.171242
0.175607
0.1803
0.185288
0.190535
0.195999
0.201641
0.20742
0.213303
0.219268
0.225306
0.23243
0.22564
0.218947
0.212339
0.205808
0.199353
0.192987
0.186729
0.180619
0.174704
0.169035
0.163669
0.15866
0.154063
0.149929
0.146309
0.143249
0.140799
0.139005
0.137925
0.138729
0.139977
0.141126
0.141954
0.142939
0.144142
0.145626
0.147335
0.149228
0.151388
0.153891
0.156777
0.160054
0.163718
0.167757
0.172153
0.17688
0.181906
0.187196
0.192708
0.198399
0.204229
0.210166
0.216186
0.222279
0.231485
0.224687
0.217966
0.211329
0.204768
0.198281
0.191879
0.185587
0.17944
0.173486
0.167778
0.162371
0.157322
0.152685
0.148513
0.144856
0.141765
0.139287
0.137475
0.136387
0.137194
0.138295
0.138664
0.1388
0.139545
0.140681
0.142189
0.143945
0.145886
0.148091
0.150636
0.153557
0.156865
0.160559
0.164627
0.169055
0.173818
0.178885
0.184217
0.189776
0.195517
0.2014
0.207391
0.213465
0.219613
0.230921
0.224713
0.218445
0.212046
0.20553
0.199066
0.192685
0.186412
0.180282
0.174343
0.168647
0.16325
0.158208
0.153574
0.149403
0.145745
0.142649
0.140168
0.138353
0.137264
0.13755
0.136758
0.135768
0.135579
0.136289
0.137452
0.13902
0.140844
0.142854
0.145124
0.147725
0.150692
0.154039
0.157768
0.161872
0.166335
0.171135
0.176242
0.181619
0.187224
0.193014
0.198948
0.204992
0.211121
0.217322
0.228053
0.222306
0.21673
0.211262
0.205772
0.200067
0.193994
0.187771
0.181671
0.175759
0.170089
0.164714
0.15969
0.155072
0.150911
0.147254
0.144148
0.141622
0.139616
0.137643
0.13557
0.1337
0.13247
0.132517
0.1333
0.134531
0.136168
0.138072
0.140168
0.142518
0.145187
0.14821
0.151604
0.155374
0.159516
0.164017
0.168854
0.173999
0.179415
0.185062
0.190899
0.196882
0.202979
0.209161
0.215415
0.224596
0.21888
0.213412
0.208195
0.203215
0.198424
0.1937
0.188804
0.183421
0.177678
0.172058
0.166715
0.161712
0.157092
0.152883
0.149056
0.145442
0.141777
0.138251
0.135099
0.132487
0.130524
0.129306
0.129767
0.130681
0.131988
0.133684
0.135669
0.137865
0.140309
0.143057
0.146141
0.149584
0.153396
0.157576
0.16211
0.166979
0.172154
0.177603
0.183286
0.189164
0.195195
0.201343
0.20758
0.21389
0.221365
0.215606
0.210105
0.204875
0.199926
0.195259
0.190864
0.186692
0.182631
0.178468
0.17393
0.168895
0.163701
0.158529
0.153355
0.148315
0.143568
0.139236
0.135407
0.132149
0.12952
0.127578
0.126394
0.127277
0.12842
0.129824
0.13156
0.133614
0.135917
0.138471
0.141305
0.144454
0.147946
0.151796
0.156008
0.160568
0.16546
0.170659
0.176132
0.181847
0.187763
0.193844
0.20005
0.206351
0.212724
0.218491
0.212689
0.207147
0.201878
0.196896
0.192205
0.187804
0.183666
0.179719
0.175805
0.171668
0.167054
0.161919
0.156477
0.151027
0.145803
0.140954
0.136569
0.132714
0.129448
0.126828
0.12491
0.123762
0.124972
0.126441
0.128017
0.129792
0.131876
0.134252
0.136891
0.139798
0.143003
0.14654
0.150429
0.154673
0.159262
0.164178
0.169399
0.174899
0.180647
0.18661
0.192751
0.199032
0.205419
0.211882
0.215998
0.210162
0.204587
0.199288
0.194277
0.189561
0.185141
0.180995
0.17706
0.173195
0.169155
0.164665
0.159632
0.154237
0.148788
0.143542
0.138663
0.134252
0.130379
0.127104
0.124489
0.122595
0.121487
0.122869
0.12467
0.126539
0.128408
0.130477
0.132832
0.135472
0.138407
0.141659
0.14525
0.149192
0.153484
0.158114
0.163065
0.168318
0.173849
0.179634
0.185647
0.191857
0.198232
0.204739
0.211346
0.213898
0.208038
0.202443
0.197125
0.192096
0.187367
0.182936
0.178788
0.174866
0.171043
0.167084
0.162708
0.157775
0.152436
0.146997
0.141738
0.136838
0.132408
0.128521
0.125244
0.122643
0.120786
0.119744
0.12118
0.123195
0.125321
0.127312
0.129343
0.131639
0.134282
0.137278
0.140616
0.14429
0.148298
0.152636
0.157295
0.162265
0.167531
0.173072
0.178873
0.184909
0.191158
0.197592
0.204183
0.210901
0.212195
0.206326
0.200722
0.195399
0.190367
0.185637
0.181211
0.177071
0.173169
0.169389
0.165509
0.161243
0.156422
0.151156
0.14575
0.140497
0.135597
0.131167
0.127287
0.124029
0.121467
0.119683
0.118781
0.120102
0.122124
0.124308
0.126341
0.128341
0.130614
0.133293
0.136381
0.139841
0.143637
0.147745
0.152152
0.156853
0.161841
0.16711
0.17265
0.178446
0.184484
0.190745
0.197207
0.203847
0.21064
0.210888
0.20502
0.199421
0.194105
0.189085
0.184373
0.179968
0.175858
0.171994
0.168271
0.164479
0.160331
0.15563
0.150462
0.145119
0.139909
0.135044
0.130652
0.126815
0.123603
0.121085
0.11933
0.118415
0.119414
0.121278
0.123489
0.125732
0.128004
0.130494
0.133324
0.136516
0.140053
0.143909
0.148065
0.152507
0.157226
0.162215
0.167465
0.172969
0.178715
0.184692
0.190886
0.197285
0.203876
0.210643
0.209925
0.204053
0.198451
0.193139
0.188131
0.183438
0.179069
0.175016
0.171245
0.167667
0.16409
0.16021
0.155782
0.150827
0.145599
0.140433
0.135581
0.131187
0.127337
0.124102
0.121545
0.119729
0.118714
0.119503
0.12126
0.123424
0.125734
0.128166
0.130813
0.133753
0.137012
0.140588
0.144467
0.148632
0.153067
0.157759
0.162698
0.167878
0.173292
0.178936
0.184807
0.1909
0.197211
0.203733
0.210455
0.208816
0.202824
0.197098
0.19166
0.186531
0.181738
0.177299
0.173233
0.169544
0.166212
0.163144
0.160071
0.156442
0.151809
0.146723
0.141632
0.136823
0.132459
0.128628
0.125399
0.122831
0.120979
0.119893
0.120613
0.122251
0.124304
0.126553
0.128998
0.131698
0.134689
0.137984
0.141578
0.145462
0.149618
0.154031
0.15869
0.163588
0.168721
0.174088
0.179687
0.185517
0.191575
0.197855
0.20435
0.21105
0.206059
0.199745
0.193699
0.18795
0.182528
0.177465
0.172795
0.168553
0.164775
0.161495
0.158739
0.156505
0.15467
0.152633
0.148411
0.143444
0.138708
0.134398
0.130604
0.127397
0.124832
0.122961
0.121833
0.122474
0.123975
0.125892
0.128058
0.130479
0.133181
0.136181
0.139481
0.143072
0.146941
0.151073
0.155455
0.160076
0.164932
0.170021
0.175345
0.180901
0.186691
0.192711
0.198956
0.205417
0.212086
0.2012
0.194585
0.188251
0.182224
0.176539
0.171231
0.166336
0.161897
0.157958
0.154568
0.15178
0.149658
0.148299
0.148598
0.148623
0.145818
0.141193
0.136959
0.133222
0.130051
0.127505
0.125633
0.124488
0.125035
0.1264
0.128181
0.130256
0.132627
0.135301
0.138278
0.141551
0.145109
0.148937
0.153022
0.157353
0.161922
0.166725
0.171763
0.177036
0.182546
0.18829
0.194266
0.200468
0.206889
0.213517
0.195546
0.188712
0.182158
0.175913
0.170012
0.164492
0.159391
0.154756
0.150636
0.147084
0.144164
0.141948
0.140542
0.140999
0.142499
0.144447
0.144029
0.14009
0.136429
0.133313
0.130801
0.128944
0.127799
0.12824
0.129477
0.131132
0.133112
0.135419
0.138043
0.140971
0.14419
0.147685
0.151444
0.155456
0.15971
0.164205
0.168938
0.17391
0.179124
0.184577
0.190269
0.196194
0.202347
0.208721
0.215306
0.189938
0.182911
0.176158
0.16971
0.163603
0.157874
0.152567
0.14773
0.143417
0.139687
0.136609
0.134266
0.132774
0.133136
0.134742
0.137191
0.140294
0.14277
0.140168
0.137124
0.134662
0.132835
0.131702
0.132029
0.133149
0.134687
0.136574
0.138805
0.141361
0.144219
0.14736
0.150767
0.15443
0.158341
0.162496
0.166896
0.171541
0.176433
0.181573
0.18696
0.19259
0.198457
0.204556
0.210878
0.217413
0.18461
0.177397
0.170451
0.163802
0.157488
0.151549
0.14603
0.140983
0.136467
0.132548
0.129299
0.126814
0.125224
0.125434
0.127099
0.129663
0.132994
0.13698
0.141181
0.141422
0.139025
0.137241
0.136131
0.13634
0.137356
0.138787
0.14058
0.142726
0.145199
0.147968
0.151009
0.154307
0.157852
0.161642
0.16568
0.169968
0.17451
0.179309
0.184364
0.189674
0.195233
0.201036
0.207073
0.213337
0.219816
0.179619
0.172227
0.165092
0.158245
0.151725
0.145573
0.139839
0.134576
0.129849
0.125728
0.122298
0.119659
0.117958
0.117977
0.119704
0.122378
0.125853
0.130024
0.134803
0.139999
0.143489
0.142098
0.141019
0.141113
0.142037
0.143368
0.145066
0.147117
0.149493
0.152158
0.155082
0.158253
0.161666
0.165323
0.169231
0.173399
0.177829
0.182525
0.187487
0.192712
0.198194
0.203924
0.209894
0.216094
0.222512
0.174989
0.167428
0.160111
0.153073
0.146349
0.139987
0.134034
0.128551
0.123605
0.119275
0.115651
0.112846
0.111018
0.110815
0.112615
0.115405
0.119025
0.123364
0.128329
0.133843
0.139796
0.14528
0.146269
0.146293
0.147135
0.148369
0.149966
0.151914
0.154181
0.156727
0.159524
0.16256
0.165833
0.169352
0.173128
0.17717
0.181485
0.186075
0.190939
0.196074
0.201473
0.207125
0.213021
0.21915
0.225502
0.170731
0.163016
0.155532
0.148311
0.141394
0.134824
0.128657
0.122952
0.117784
0.113236
0.109408
0.106422
0.104448
0.104002
0.105882
0.108794
0.112565
0.117073
0.12222
0.127922
0.134108
0.140699
0.147322
0.151186
0.152545
0.153726
0.15522
0.157057
0.159203
0.161621
0.164285
0.167183
0.170317
0.173701
0.177347
0.181267
0.185468
0.189951
0.194717
0.199758
0.205069
0.210639
0.216456
0.22251
0.228789
0.166848
0.159001
0.151369
0.143985
0.136888
0.130124
0.123749
0.117827
0.112436
0.107666
0.103625
0.100446
0.098303
0.0976037
0.0995679
0.102605
0.106528
0.111205
0.11653
0.122415
0.128785
0.135574
0.142705
0.149957
0.156181
0.159068
0.160736
0.162483
0.164506
0.166793
0.169323
0.172087
0.17509
0.178347
0.181871
0.185676
0.189767
0.194147
0.198814
0.203762
0.208983
0.214466
0.220201
0.226174
0.232375
0.163329
0.155379
0.147628
0.140107
0.132855
0.125918
0.119352
0.113225
0.107618
0.102627
0.0983695
0.0949845
0.0926534
0.0916996
0.0937476
0.0969072
0.100977
0.105817
0.111314
0.117374
0.123918
0.130878
0.138177
0.145634
0.152849
0.159248
0.164535
0.167686
0.169946
0.172181
0.1746
0.177244
0.180128
0.183269
0.186683
0.190382
0.19437
0.198651
0.203222
0.208077
0.213207
0.218602
0.224251
0.230141
0.23626
0.160142
0.152125
0.144295
0.136677
0.129308
0.122232
0.115505
0.109196
0.10339
0.0981897
0.0937171
0.0901214
0.0875878
0.0863865
0.0885108
0.0917824
0.095988
0.100978
0.106633
0.112854
0.11956
0.126679
0.134127
0.141693
0.148921
0.155211
0.160379
0.164902
0.169361
0.174067
0.178599
0.182121
0.185249
0.188399
0.191751
0.195364
0.199261
0.20345
0.207929
0.212692
0.217731
0.223038
0.228598
0.234402
0.240437
0.157246
0.149201
0.141335
0.13367
0.126236
0.119073
0.112233
0.105785
0.099815
0.094429
0.0897568
0.0859556
0.0832161
0.0817823
0.0839653
0.0873275
0.0916467
0.0967654
0.102558
0.108922
0.115771
0.12303
0.130609
0.138261
0.145469
0.151621
0.156643
0.161109
0.165592
0.170369
0.175524
0.181064
0.186934
0.192172
0.196463
0.20039
0.204345
0.208499
0.212909
0.217591
0.222544
0.227762
0.233234
0.238951
0.244899
0.154607
0.146561
0.138698
0.131038
0.123602
0.116422
0.109542
0.103024
0.0969493
0.0914265
0.0865906
0.0826068
0.0796742
0.0780321
0.08024
0.083656
0.0880535
0.093269
0.0991712
0.105651
0.11262
0.12
0.127688
0.135398
0.142546
0.148527
0.153394
0.157805
0.162312
0.167152
0.172386
0.178014
0.184013
0.19035
0.196973
0.203275
0.208608
0.213363
0.217976
0.222687
0.227601
0.23275
0.238141
0.243772
0.249633
0.152231
0.144188
0.136346
0.128724
0.12134
0.114218
0.107392
0.100907
0.0948308
0.0892623
0.084335
0.0802211
0.0771308
0.0753152
0.0774879
0.0809001
0.0853272
0.0905988
0.0965747
0.10314
0.110201
0.117672
0.125444
0.133177
0.140219
0.145987
0.150683
0.155036
0.159561
0.164454
0.169757
0.175462
0.181538
0.187954
0.194679
0.201684
0.208912
0.215845
0.221936
0.227408
0.232634
0.237873
0.243255
0.248831
0.254619
0.150173
0.142119
0.134286
0.126698
0.11938
0.112359
0.105667
0.0993381
0.09342
0.0879788
0.0831154
0.0789826
0.0758035
0.0738604
0.0758918
0.0792231
0.0836229
0.0889046
0.0949151
0.10153
0.108647
0.116179
0.123999
0.131712
0.138582
0.144074
0.148566
0.152847
0.157378
0.162312
0.167671
0.173436
0.179575
0.186054
0.192843
0.19991
0.20723
0.214777
0.222478
0.229826
0.236457
0.242502
0.248259
0.25397
0.259771
0.148528
0.140441
0.132587
0.124995
0.117698
0.110734
0.104147
0.0979844
0.0923058
0.0871838
0.0827147
0.0790321
0.076327
0.0748562
0.0766587
0.0798076
0.0840631
0.0892292
0.0951461
0.101684
0.108738
0.116214
0.123954
0.131449
0.13789
0.142908
0.147111
0.151287
0.155805
0.160762
0.16616
0.17197
0.178154
0.18468
0.191514
0.198626
0.20599
0.213581
0.221378
0.229354
0.237382
0.245029
0.252057
0.258552
0.264753
0.147444
0.139319
0.131428
0.123805
0.116483
0.109505
0.102918
0.0967762
0.0911434
0.0860958
0.0817266
0.0781562
0.0755498
0.0741514
0.0766012
0.080251
0.0848404
0.0902148
0.0962541
0.102858
0.109939
0.117411
0.125085
0.132279
0.138083
0.142461
0.14633
0.15039
0.154882
0.159847
0.165264
0.171098
0.177309
0.183862
0.190722
0.19786
0.20525
0.212865
0.220687
0.228694
0.236869
0.245173
0.253415
0.261281
0.2686
0.148599
0.1405
0.132633
0.125028
0.117719
0.110745
0.104154
0.0980025
0.092359
0.0873103
0.0829684
0.0794817
0.0770563
0.0760734
0.0785164
0.0821842
0.0868064
0.0922083
0.0982596
0.104858
0.111918
0.119349
0.126926
0.133899
0.139398
0.143555
0.147319
0.151331
0.155795
0.160739
0.166137
0.171952
0.178144
0.184678
0.19152
0.198639
0.20601
0.213608
0.221412
0.229402
0.237562
0.24587
0.254285
0.2627
0.270927
0.150504
0.142468
0.134665
0.127125
0.119881
0.112975
0.106454
0.100378
0.0948186
0.089866
0.0856356
0.0822783
0.080007
0.0793142
0.0816967
0.0852952
0.0898471
0.0951781
0.101156
0.107679
0.11466
0.122004
0.129456
0.136224
0.141468
0.145432
0.14909
0.153038
0.157453
0.162351
0.167705
0.173477
0.179627
0.186119
0.19292
0.2
0.207332
0.214893
0.222661
0.230617
0.238744
0.247025
0.25544
0.263952
0.272496
0.153091
0.14515
0.137447
0.13001
0.122875
0.116084
0.109685
0.10374
0.0983192
0.0935142
0.0894376
0.0862345
0.0841099
0.0836406
0.0859318
0.0894125
0.0938363
0.0990358
0.104883
0.111276
0.118131
0.125348
0.132649
0.139215
0.144229
0.14802
0.151572
0.155446
0.159795
0.164629
0.16992
0.175628
0.181715
0.188147
0.194887
0.201908
0.209184
0.21669
0.224406
0.232311
0.24039
0.248625
0.257003
0.265503
0.274097
0.156305
0.148485
0.140909
0.133607
0.126614
0.119973
0.113732
0.107952
0.102704
0.098076
0.0941747
0.0911361
0.0891504
0.0888619
0.091047
0.0943848
0.0986476
0.103679
0.109357
0.115585
0.122278
0.129335
0.136462
0.142821
0.147622
0.151255
0.154704
0.158495
0.162766
0.167522
0.172733
0.178362
0.18437
0.190723
0.197388
0.204335
0.211538
0.218975
0.226623
0.234465
0.242482
0.250658
0.25898
0.267434
0.276002
0.160095
0.152419
0.144992
0.137847
0.13102
0.124552
0.118492
0.112899
0.107843
0.103406
0.0996891
0.0968158
0.0949598
0.0948209
0.0968948
0.100079
0.104165
0.109008
0.114495
0.120532
0.12704
0.133915
0.140848
0.146995
0.151591
0.155077
0.158425
0.162128
0.166312
0.17098
0.1761
0.181636
0.187553
0.193814
0.200389
0.20725
0.214368
0.221722
0.22929
0.237054
0.244997
0.253103
0.261358
0.269748
0.278262
0.164415
0.156896
0.149636
0.142665
0.136019
0.129739
0.123874
0.118481
0.113625
0.109385
0.105853
0.10314
0.101404
0.10139
0.103354
0.106383
0.110286
0.114933
0.120216
0.12605
0.132356
0.139033
0.145759
0.151686
0.156085
0.159434
0.162682
0.166294
0.170385
0.174955
0.179976
0.185411
0.191226
0.197386
0.20386
0.210622
0.217645
0.224906
0.232384
0.24006
0.247919
0.255943
0.26412
0.272437
0.280883
0.169218
0.161869
0.154786
0.148
0.141545
0.135463
0.1298
0.124611
0.119958
0.115913
0.11256
0.110002
0.108375
0.108465
0.110324
0.113201
0.116924
0.121372
0.126448
0.132072
0.13817
0.144639
0.151147
0.156849
0.161056
0.164273
0.167423
0.170943
0.174938
0.179407
0.184322
0.189649
0.195354
0.201404
0.20777
0.214425
0.221343
0.228502
0.235881
0.243461
0.251227
0.259161
0.267251
0.275486
0.283851
0.174463
0.167292
0.160393
0.153798
0.14754
0.141659
0.1362
0.131215
0.126761
0.122906
0.119726
0.117312
0.115788
0.115961
0.117724
0.120456
0.124003
0.128256
0.133126
0.138539
0.144425
0.150683
0.156968
0.162442
0.166458
0.169549
0.172604
0.176032
0.179928
0.184292
0.189098
0.194312
0.199902
0.205837
0.212088
0.21863
0.225436
0.232485
0.239757
0.247234
0.254899
0.262738
0.270734
0.278877
0.287157
0.180111
0.173122
0.166412
0.16001
0.153951
0.148272
0.143015
0.138229
0.13397
0.130297
0.12728
0.125001
0.12357
0.123811
0.125485
0.128081
0.13146
0.135524
0.140194
0.145399
0.151075
0.157119
0.163179
0.168422
0.172251
0.17522
0.178183
0.181518
0.185316
0.189575
0.194268
0.199367
0.204839
0.210655
0.216787
0.22321
0.229898
0.236833
0.243992
0.25136
0.258918
0.266654
0.274551
0.282598
0.290783
0.240742
0.234306
0.227993
0.221792
0.215688
0.209674
0.203754
0.197944
0.192276
0.186793
0.181549
0.176597
0.171992
0.167784
0.164018
0.160736
0.157975
0.155767
0.154142
0.153143
0.153903
0.155116
0.15664
0.158434
0.16039
0.162312
0.164045
0.165714
0.1675
0.169544
0.171936
0.174717
0.177897
0.181469
0.185411
0.1897
0.194304
0.199188
0.20431
0.20963
0.215102
0.220687
0.226354
0.232083
0.237872
0.236958
0.230427
0.224018
0.217717
0.211509
0.205389
0.199357
0.193432
0.187645
0.18204
0.176671
0.171595
0.166868
0.162541
0.158665
0.155283
0.152434
0.150154
0.14848
0.147454
0.148228
0.149467
0.151017
0.15283
0.154785
0.156682
0.158397
0.16008
0.161895
0.163974
0.166408
0.169237
0.17247
0.176098
0.1801
0.18445
0.189116
0.194063
0.199248
0.204628
0.210157
0.215797
0.221518
0.227302
0.233146
0.233571
0.226952
0.220453
0.214057
0.207754
0.201532
0.195395
0.189362
0.183461
0.17774
0.172253
0.167057
0.162212
0.157771
0.153786
0.150305
0.14737
0.145021
0.143296
0.142245
0.143034
0.144296
0.145867
0.147681
0.149605
0.151446
0.153129
0.15482
0.156658
0.158767
0.161237
0.164108
0.167386
0.171063
0.175116
0.17952
0.184241
0.189243
0.194484
0.19992
0.205504
0.211197
0.216972
0.22281
0.22871
0.230603
0.223905
0.217323
0.210843
0.204451
0.198137
0.191904
0.18577
0.179765
0.173935
0.168337
0.16303
0.158073
0.153524
0.149436
0.145859
0.14284
0.140424
0.138652
0.137575
0.138378
0.139661
0.141244
0.143026
0.14487
0.146615
0.148252
0.149947
0.151803
0.153937
0.156436
0.159341
0.162657
0.166374
0.17047
0.174918
0.179687
0.184738
0.190031
0.195518
0.201155
0.206901
0.212729
0.218622
0.224578
0.228082
0.221315
0.21466
0.208105
0.201634
0.195239
0.188921
0.182696
0.176596
0.17067
0.164972
0.159563
0.154505
0.149856
0.145673
0.142008
0.138911
0.136431
0.134614
0.133515
0.13433
0.135632
0.137203
0.138889
0.140579
0.14218
0.143763
0.145461
0.147333
0.149486
0.15201
0.154941
0.158287
0.162036
0.166167
0.170653
0.175463
0.18056
0.185899
0.191436
0.197125
0.202924
0.208806
0.214754
0.220767
0.226037
0.219213
0.212498
0.205879
0.199342
0.192878
0.186486
0.180186
0.174007
0.167997
0.162212
0.156716
0.151569
0.146833
0.142566
0.138823
0.135658
0.133121
0.131263
0.130144
0.130969
0.132286
0.133794
0.135254
0.136685
0.138106
0.13964
0.141347
0.143234
0.145406
0.147952
0.150908
0.154279
0.158053
0.162212
0.166731
0.171579
0.176717
0.182103
0.187689
0.193429
0.199283
0.205221
0.211225
0.217296
0.224504
0.217636
0.210876
0.204209
0.197621
0.191102
0.184655
0.178294
0.172052
0.165977
0.160124
0.154558
0.14934
0.144534
0.1402
0.136394
0.133171
0.130587
0.128697
0.127562
0.128395
0.129711
0.131008
0.131996
0.133075
0.134326
0.13584
0.137569
0.139481
0.14168
0.144252
0.147233
0.150627
0.154425
0.158611
0.163161
0.168045
0.173225
0.178656
0.184293
0.190087
0.195997
0.201991
0.208054
0.214183
0.22353
0.216649
0.209859
0.20316
0.196539
0.189987
0.183502
0.177102
0.170819
0.164701
0.158803
0.153191
0.147927
0.143075
0.138694
0.134845
0.131584
0.128968
0.127054
0.125909
0.126748
0.12799
0.128602
0.128832
0.129614
0.130778
0.132317
0.134092
0.136046
0.138288
0.140899
0.143912
0.147334
0.151159
0.155374
0.159957
0.164879
0.170102
0.175582
0.18127
0.187119
0.193085
0.199136
0.205257
0.211444
0.222963
0.216653
0.210313
0.203872
0.19732
0.190792
0.184332
0.177955
0.171692
0.165591
0.159709
0.154108
0.148852
0.144005
0.139626
0.135775
0.132509
0.129887
0.127969
0.126823
0.127292
0.126785
0.125825
0.125559
0.126273
0.127458
0.129061
0.130906
0.132928
0.135232
0.137897
0.140955
0.144413
0.148273
0.152523
0.157144
0.162106
0.167373
0.1729
0.17864
0.184542
0.190564
0.196675
0.202853
0.209095
0.220001
0.214119
0.208426
0.202872
0.197351
0.191681
0.185662
0.179361
0.173133
0.167064
0.161211
0.155636
0.150403
0.145574
0.141208
0.137362
0.134091
0.131442
0.129417
0.127693
0.125734
0.123792
0.122482
0.122407
0.123186
0.124443
0.126122
0.128054
0.130164
0.13255
0.135283
0.138395
0.141899
0.1458
0.15009
0.15475
0.159752
0.16506
0.170632
0.176418
0.182372
0.188449
0.194616
0.200851
0.207148
0.216431
0.210563
0.204948
0.199594
0.194495
0.189622
0.184879
0.18006
0.174831
0.169045
0.163264
0.157729
0.152527
0.147713
0.14333
0.139389
0.135807
0.132243
0.128672
0.125391
0.122632
0.120544
0.119242
0.1196
0.120492
0.12182
0.123565
0.125589
0.127807
0.130289
0.133099
0.136271
0.139825
0.143769
0.148097
0.152791
0.157826
0.163168
0.168775
0.174603
0.180604
0.186734
0.192958
0.199252
0.205606
0.213097
0.207179
0.201521
0.196139
0.191047
0.186253
0.181753
0.17752
0.173469
0.169408
0.165024
0.16006
0.15481
0.149652
0.144469
0.13932
0.134393
0.129855
0.125821
0.122373
0.119582
0.117516
0.116253
0.117094
0.118195
0.119599
0.12138
0.123489
0.125833
0.128433
0.131331
0.134566
0.138168
0.142148
0.146507
0.151227
0.156284
0.161649
0.167284
0.173147
0.179194
0.185382
0.19167
0.198032
0.204452
0.21013
0.204163
0.198459
0.193033
0.1879
0.183072
0.178554
0.174335
0.170371
0.166539
0.162603
0.158239
0.153263
0.147814
0.142225
0.136796
0.131718
0.127106
0.123037
0.119579
0.116796
0.114757
0.113535
0.114779
0.116219
0.117765
0.11956
0.121703
0.124147
0.126852
0.129828
0.133118
0.136763
0.140779
0.145167
0.149913
0.154992
0.16038
0.166043
0.171946
0.178049
0.184309
0.190685
0.197142
0.203654
0.207553
0.201549
0.195806
0.190345
0.185178
0.180319
0.175775
0.171538
0.167572
0.163771
0.159918
0.155687
0.150844
0.145471
0.139897
0.134446
0.129337
0.124694
0.120601
0.11713
0.114351
0.112335
0.111155
0.112622
0.114455
0.116302
0.118158
0.120269
0.122692
0.125404
0.128413
0.131753
0.135455
0.139526
0.143964
0.14875
0.153866
0.159286
0.164985
0.170933
0.177099
0.183447
0.189943
0.196546
0.203228
0.205378
0.199347
0.193581
0.188096
0.182908
0.178031
0.173471
0.169225
0.16526
0.161484
0.157696
0.153581
0.148862
0.143572
0.138023
0.13256
0.127425
0.122757
0.118646
0.115168
0.112399
0.110419
0.109311
0.110858
0.112968
0.115112
0.117071
0.119113
0.121468
0.124193
0.127278
0.130715
0.1345
0.138633
0.14311
0.147921
0.153051
0.158482
0.164191
0.170158
0.176355
0.182757
0.189331
0.196045
0.202866
0.203614
0.19757
0.191793
0.1863
0.181105
0.176225
0.171666
0.167424
0.163469
0.15972
0.155995
0.151986
0.147398
0.142208
0.136706
0.131256
0.126119
0.121447
0.11734
0.113879
0.111149
0.109251
0.10831
0.109731
0.111878
0.114094
0.116081
0.118062
0.120387
0.123164
0.126369
0.129952
0.133872
0.138106
0.142647
0.147489
0.152627
0.158054
0.163756
0.169719
0.175922
0.182343
0.188959
0.195742
0.202663
0.202263
0.196218
0.190444
0.184958
0.179776
0.174912
0.170373
0.166155
0.162229
0.158522
0.154866
0.150967
0.146517
0.141449
0.136029
0.130629
0.125532
0.120902
0.116842
0.113433
0.110755
0.108893
0.107937
0.108985
0.110968
0.113248
0.115498
0.117776
0.120317
0.123236
0.126538
0.130193
0.134172
0.138453
0.143025
0.147879
0.153008
0.158406
0.164059
0.169958
0.176088
0.182436
0.188989
0.195731
0.202647
0.201319
0.195283
0.189522
0.184055
0.178899
0.174068
0.16957
0.165404
0.161545
0.157927
0.154404
0.150715
0.146551
0.141754
0.136497
0.131161
0.126084
0.121457
0.117386
0.113954
0.111237
0.109309
0.108241
0.109056
0.110932
0.113172
0.115515
0.117976
0.120681
0.123706
0.127068
0.130755
0.134751
0.139035
0.143591
0.148406
0.15347
0.158779
0.164327
0.170112
0.17613
0.182377
0.188847
0.195532
0.202419
0.200668
0.1946
0.188804
0.183301
0.178112
0.173256
0.168751
0.164608
0.160824
0.157369
0.154144
0.150911
0.147213
0.142701
0.137636
0.1324
0.127379
0.122791
0.118745
0.115324
0.112599
0.110634
0.109482
0.11022
0.11195
0.114067
0.116353
0.118845
0.121613
0.124691
0.128086
0.131787
0.135782
0.14005
0.144577
0.149352
0.154369
0.159626
0.165124
0.170862
0.17684
0.183053
0.189494
0.196153
0.203018
0.199229
0.192894
0.186819
0.181033
0.175564
0.170444
0.165708
0.161388
0.157518
0.154127
0.151225
0.148783
0.1466
0.143934
0.139341
0.134276
0.129347
0.124825
0.120828
0.117436
0.114719
0.112735
0.111538
0.112183
0.11375
0.115715
0.117918
0.120393
0.123168
0.126255
0.12965
0.133343
0.137317
0.141555
0.146045
0.150776
0.155746
0.160956
0.166408
0.172103
0.178038
0.184212
0.190615
0.197238
0.204071
0.195352
0.188647
0.182214
0.176083
0.170289
0.16487
0.159865
0.155317
0.151273
0.147784
0.144903
0.142695
0.141254
0.141387
0.140597
0.136721
0.131938
0.127512
0.123585
0.120241
0.117549
0.115567
0.114352
0.11489
0.116299
0.118114
0.120224
0.12265
0.125395
0.128454
0.131816
0.135467
0.139391
0.143573
0.148003
0.152675
0.157587
0.162742
0.168142
0.173787
0.179675
0.185802
0.192161
0.198741
0.205533
0.18992
0.182951
0.176258
0.169873
0.163829
0.158168
0.15293
0.148164
0.143922
0.140263
0.137251
0.134963
0.133511
0.134087
0.135615
0.137145
0.135068
0.130785
0.126954
0.123679
0.12103
0.119069
0.117858
0.118274
0.119539
0.121216
0.123229
0.125587
0.128277
0.131278
0.134575
0.13815
0.141992
0.146087
0.15043
0.15502
0.159856
0.164942
0.170278
0.175864
0.181697
0.187771
0.194079
0.20061
0.207354
0.184282
0.1771
0.17019
0.163581
0.157313
0.151424
0.14596
0.140973
0.136519
0.132663
0.129478
0.127052
0.12551
0.126042
0.127758
0.130326
0.133449
0.134434
0.130865
0.12768
0.125095
0.123173
0.121979
0.122265
0.1234
0.124953
0.126868
0.129144
0.131757
0.134677
0.13788
0.141351
0.145079
0.149059
0.15329
0.157776
0.162518
0.167518
0.172778
0.178295
0.184063
0.190078
0.196329
0.202806
0.209498
0.178879
0.171498
0.164379
0.157555
0.151062
0.144945
0.13925
0.134032
0.129355
0.125287
0.121912
0.119328
0.117675
0.118077
0.119864
0.122583
0.126088
0.130236
0.134009
0.132172
0.129668
0.1278
0.126636
0.126792
0.127814
0.129252
0.131066
0.13325
0.135769
0.138585
0.141671
0.145013
0.148605
0.152449
0.156551
0.160916
0.165548
0.17045
0.175621
0.181059
0.186755
0.192702
0.198889
0.205307
0.211941
0.173814
0.166241
0.158919
0.151881
0.145165
0.138815
0.132883
0.127427
0.122514
0.118221
0.114641
0.111884
0.110109
0.11033
0.112186
0.115031
0.118704
0.123094
0.128093
0.133298
0.134676
0.132877
0.131752
0.131787
0.132709
0.13404
0.13575
0.137829
0.140236
0.142931
0.145884
0.149081
0.152524
0.156221
0.160183
0.164419
0.168933
0.173729
0.178804
0.184154
0.18977
0.195642
0.201759
0.20811
0.214681
0.169116
0.161362
0.153845
0.146599
0.139662
0.13308
0.126907
0.121206
0.116047
0.111518
0.107718
0.104773
0.102859
0.102855
0.104791
0.107771
0.111613
0.116196
0.121416
0.127186
0.133315
0.137617
0.137256
0.137186
0.13802
0.139245
0.140844
0.142806
0.145089
0.147649
0.150457
0.153504
0.156795
0.160343
0.164165
0.16827
0.172665
0.177351
0.182326
0.187583
0.193112
0.198903
0.204944
0.211222
0.217724
0.164799
0.15688
0.149182
0.141738
0.134588
0.127779
0.121367
0.115416
0.110006
0.105229
0.101197
0.0980463
0.0959738
0.0957052
0.097735
0.100858
0.104877
0.109656
0.115084
0.121071
0.127537
0.13437
0.14064
0.142763
0.143676
0.1448
0.14628
0.148114
0.150261
0.152679
0.15534
0.158238
0.161382
0.16479
0.168477
0.172456
0.176735
0.181312
0.186185
0.191345
0.196784
0.202489
0.208447
0.214646
0.221073
0.160865
0.152804
0.144946
0.137324
0.129977
0.122952
0.116307
0.110111
0.104448
0.099416
0.0951378
0.0917647
0.0895073
0.0889484
0.0910804
0.094354
0.0985544
0.103532
0.109167
0.115363
0.122038
0.129121
0.136507
0.143748
0.148574
0.150529
0.151986
0.153693
0.155699
0.157973
0.160492
0.163251
0.16626
0.169538
0.173102
0.176966
0.181132
0.185603
0.190375
0.195439
0.200785
0.2064
0.212271
0.218386
0.22473
0.157295
0.149124
0.141139
0.133368
0.125851
0.118633
0.111774
0.105345
0.0994326
0.0941451
0.0896135
0.086002
0.083532
0.0826695
0.0849071
0.0883323
0.0927121
0.0978841
0.103721
0.110119
0.116993
0.124269
0.131844
0.139413
0.146336
0.151991
0.156499
0.159154
0.161282
0.163478
0.165879
0.168515
0.171407