# vtk DataFile Version 4.2
vtk output
ASCII
DATASET POLYDATA
POINTS 642 double
-1.51997 4.10735 -0.406489
-0.528675 3.64678 -0.250908
-1.75441 0.630703 -0.000785198
0.899318 0.830065 0.0240668
-0.480535 1.57491 1.39002
-0.840237 3.1153 0.560348
-0.449379 1.76433 -1.1363
-1.34774 3.79563 -0.652215
0.799093 2.52058 -0.572294
1.00353 2.41866 0.68287
-1.62892 3.2002 -0.551362
-2.38585 2.89163 1.07397
-2.2571 3.85758 0.595171
-1.55346 3.29608 1.22753
-1.33147 3.75088 0.394494
-0.492297 3.46321 0.0192434
-0.615644 4.49163 -0.290975
-0.374323 4.33886 -0.759631
-1.59031 4.05865 -0.984982
-1.65635 3.9171 -1.35905
-2.13086 4.05227 -0.880853
-2.52714 2.85536 -0.046402
0.233883 2.93091 0.922661
0.58797 3.10254 0.326965
-1.39285 2.1132 1.16616
-0.48808 2.49428 1.22932
-1.93024 1.70623 -0.441891
-2.13139 1.53775 0.616321
-0.852043 3.04324 -0.54471
-1.10151 2.42413 -0.780075
0.152891 3.25207 -0.308543
-0.348986 3.14151 -0.443094
1.44106 1.55497 0.617814
0.503356 1.97441 1.2468
0.274939 0.890415 1.06065
-1.19165 0.862634 1.01416
-0.472065 0.740698 -0.00633614
-0.94623 1.05353 -0.723876
0.199642 1.06035 -0.871844
0.291362 2.06869 -0.934863
1.09547 1.58793 -0.280501
1.12824 2.33566 0.0378646
-1.83665 3.94415 0.114114
-1.77536 4.01949 0.656283
-1.3489 4.04912 0.135289
-2.06811 3.13008 1.4242
-1.98961 3.63759 1.0823
-2.6281 3.42477 0.969076
-1.22266 3.4427 0.496121
-1.49574 3.63709 0.892
-1.30692 3.23766 0.829228
-0.92887 4.17076 -0.154928
-1.05362 4.41884 -0.310521
-0.521897 3.28591 0.33983
-0.86415 3.69419 0.0791978
-0.469396 4.25575 -0.406905
-0.579394 4.07914 -0.149893
-0.532784 3.6327 -0.209867
-0.89153 4.36337 -0.584411
-1.58927 4.09045 -0.914031
-0.323931 4.13299 -0.548986
-0.444769 4.57816 -0.665442
-1.57876 3.9448 -0.951288
-0.801314 4.15224 -0.638881
-0.704104 4.03375 -0.587631
-1.74788 4.17366 -1.1767
-1.86964 4.26286 -0.625687
-1.58638 3.91865 -0.970235
-1.58809 4.2143 -1.48361
-1.86737 3.78196 -0.929382
-1.92058 4.0136 -1.35752
-1.70329 3.81432 -1.06981
-2.1491 3.87488 -0.0906275
-2.01662 2.97494 -0.38908
-2.14484 3.47549 -0.29907
-2.49622 3.41822 0.241762
-2.466 2.86866 0.615207
0.132234 3.28261 0.264417
-0.0707592 3.33805 -0.0281673
-0.127804 3.05963 0.868966
0.0136349 3.27951 0.603757
0.835054 2.83848 0.508878
0.48995 3.09808 0.630627
0.686259 2.71436 0.854188
-1.25087 2.84054 0.848479
-0.691782 2.87033 0.9232
-1.87262 2.62102 1.01644
-1.52885 2.79374 1.26596
-0.457735 2.05359 1.39042
-0.951551 2.38463 1.11092
-0.834896 1.76948 1.12127
-2.55378 2.21838 0.286364
-2.19207 2.35675 0.84121
-1.90386 2.35864 -0.608568
-2.24612 2.27524 -0.228731
-1.57415 1.04644 0.206001
-2.14224 1.5796 0.0147699
-1.65976 1.1072 -0.148366
-1.3881 3.53254 -0.601612
-1.39058 2.92088 -0.603256
-1.25361 3.66222 -0.570618
-1.39483 3.67794 -0.657664
-0.819592 1.98029 -1.07781
-0.952676 2.87205 -0.622933
-0.50926 2.29318 -1.06808
-0.596788 3.90937 -0.48548
-0.78775 3.69896 -0.473389
-0.446224 3.49913 -0.272959
-0.571244 3.8276 -0.445951
0.302553 2.77793 -0.618283
-0.146204 3.2026 -0.394743
0.629796 2.84299 -0.413083
1.33673 0.966691 0.341501
0.976269 1.1513 0.750927
0.684075 0.74022 0.540423
0.835678 2.20297 0.962622
0.929349 1.73197 0.915585
1.17511 1.90109 0.553856
-0.183468 1.20127 1.38955
0.460938 1.39123 1.16294
-0.0172805 1.76608 1.40198
0.0248975 0.742086 0.548219
0.285494 0.740696 0.00937992
-0.808609 1.1395 1.29985
-0.468707 0.739509 1.20831
-1.14167 0.76212 -0.0306652
-0.893287 0.740669 0.618434
-1.52247 0.689972 0.621495
-0.0880284 0.740783 -0.537964
0.573252 0.927427 -0.479183
-1.46458 0.819647 -0.470483
-0.827985 0.770216 -0.583445
-0.187938 1.40768 -1.06597
-0.48155 0.991199 -0.902035
-0.712682 1.39167 -1.00035
0.737813 1.32272 -0.593667
1.18453 1.1089 -0.273817
-0.0432463 1.90276 -1.08767
0.285885 1.58306 -0.920445
1.02215 1.97664 -0.437926
0.7324 1.81851 -0.733514
0.585707 2.23971 -0.763873
1.49574 1.49661 0.02632
1.04852 2.38355 -0.254555
1.15985 1.91365 -0.0933852
1.23331 1.86668 0.251584
1.15999 2.3937 0.41068
0.0354981 2.23924 1.34936
0.394555 2.4915 1.15731
-0.0636123 2.63771 1.06677
-1.65588 1.11236 0.841082
-1.19316 1.35989 0.905834
-1.74809 1.83614 0.990998
-0.984821 1.62149 -0.787723
-1.4024 1.36453 -0.438516
-1.52636 1.99965 -0.709533
0.0744039 2.6016 -0.791057
-0.179374 2.38634 -0.967081
-0.621983 3.10199 -0.498683
0.916567 2.78998 0.193777
0.868379 2.84832 -0.141766
0.507524 3.18136 -0.0266595
-1.65418 4.07289 -0.177021
-1.64571 3.89164 0.0979513
-1.44346 4.16206 -0.111816
-2.05867 4.02149 0.645513
-1.81725 3.9429 0.428768
-2.12264 4.00452 0.340926
-1.32701 3.89614 0.287649
-1.60816 3.99808 0.415213
-1.48517 3.8997 0.617974
-2.30928 3.00108 1.30324
-2.26867 3.28211 1.19637
-2.55241 3.12055 1.07379
-1.77625 3.41299 1.10638
-2.0793 3.50342 1.45693
-1.79072 3.2027 1.2198
-2.4861 3.72825 0.777946
-2.24806 3.55907 1.06638
-2.28171 3.8973 0.96365
-1.06 3.25752 0.522288
-1.29633 3.37368 0.6739
-1.10109 3.14071 0.642498
-1.43285 3.75192 0.693513
-1.4176 3.52498 0.664166
-1.41111 3.59806 0.383931
-1.48408 3.22932 0.905009
-1.50733 3.39285 0.781999
-1.61421 3.41651 0.937249
-1.93816 3.92238 0.93602
-1.7159 3.62327 0.970803
-1.60118 3.92705 0.915919
-1.19157 4.34852 -0.0524582
-1.30923 4.10713 -0.422361
-1.11168 3.90575 0.127925
-1.06941 4.21278 0.128281
-0.821428 4.51652 -0.265013
-0.910769 4.42603 -0.0947501
-0.739957 4.35405 -0.166718
-0.684342 3.19866 0.454991
-0.936998 3.3553 0.376688
-0.675232 3.61544 0.00584879
-0.776594 3.48386 0.188318
-0.456466 3.37299 0.165057
-1.07191 3.54582 0.295033
-1.13341 3.71024 0.214887
-0.382625 4.03308 -0.375997
-0.422356 4.04254 -0.26844
-0.530184 3.64336 -0.237582
-0.650127 4.27583 -0.275958
-0.527959 4.16356 -0.283638
-0.549408 4.41701 -0.38292
-0.54711 3.60818 -0.147135
-0.46975 3.94243 -0.183653
-0.623919 3.75727 -0.10902
-0.908212 3.93115 -0.056396
-0.725396 3.88558 -0.0683547
-0.760048 4.16469 -0.19975
-1.30563 4.04096 -0.493606
-1.54885 4.10453 -0.721796
-0.739373 4.71459 -0.452526
-0.957641 4.38657 -0.522721
-1.59077 4.08301 -0.951995
-1.29362 3.97501 -0.533725
-1.2881 3.95141 -0.54142
-0.419515 3.98643 -0.46573
-0.339899 4.20034 -0.469726
-0.405239 4.45561 -0.753396
-0.308758 4.37769 -0.627328
-0.34426 4.3092 -0.722364
-0.42003 4.41145 -0.485518
-0.43047 4.6956 -0.446316
-1.41214 3.84883 -0.712674
-1.27607 3.88224 -0.552883
-1.18005 3.8041 -0.543117
-1.28299 3.92254 -0.548149
-1.27989 3.90328 -0.550933
-1.59095 4.03123 -0.9929
-0.472809 4.16974 -0.794007
-0.757234 4.12688 -0.588041
-0.445719 4.37637 -0.908721
-0.679633 4.71879 -0.751771
-0.503228 4.58308 -0.845883
-0.851402 4.20405 -0.646297
-1.69906 4.22018 -0.805154
-1.76275 4.20511 -0.658069
-1.6079 4.35731 -1.20063
-1.68058 4.19819 -1.08614
-2.09873 4.26321 -0.751483
-1.86345 4.17103 -0.968991
-1.89313 4.14804 -0.995261
-1.47565 3.85089 -0.795387
-1.58553 3.92547 -0.967354
-1.68272 4.10382 -1.50693
-1.59063 4.03631 -1.29813
-1.6278 3.95066 -1.30495
-1.5915 4.0673 -1.26899
-1.63582 4.15927 -1.32883
-1.72083 3.50825 -0.626847
-1.76465 3.82012 -1.07064
-1.63955 3.52745 -0.632668
-1.8884 4.04971 -1.14781
-1.93493 3.87409 -1.16536
-1.97183 3.91997 -0.989901
-1.65145 3.83234 -1.2618
-1.80143 3.89944 -1.34507
-1.76349 3.88767 -1.5447
-1.71363 4.14853 -1.3424
-1.87531 4.26259 -1.6768
-1.80858 4.09721 -1.31893
-1.87125 4.13646 -0.278384
-2.09804 4.01251 -0.672456
-2.02845 4.10931 -0.390507
-2.05923 3.97731 -0.0688352
-2.25271 3.87975 0.285902
-1.77178 3.11697 -0.489857
-1.86351 3.4518 -0.539128
-2.38206 3.19129 -0.250452
-2.12035 3.24494 -0.337316
-2.31801 2.89966 -0.289793
-1.99258 3.60411 -0.603687
-2.0353 3.8024 -0.71988
-2.46648 3.13176 0.765275
-2.57549 2.81549 0.842939
-2.46634 3.70262 0.492371
-2.44652 3.42062 0.583808
-2.46618 2.87224 0.331868
-2.71429 3.1259 0.415264
-2.46559 3.14646 0.195653
-2.14683 3.69107 -0.348979
-2.36495 3.42918 0.0106969
-2.48635 3.72356 0.0220131
-0.327669 3.42366 -0.104612
-0.374407 3.46569 -0.176972
-0.239935 3.32867 0.138251
-0.280614 3.38124 -0.00630493
0.327288 3.27996 0.179048
0.0793116 3.2987 0.128431
0.343045 3.27962 0.338391
-0.429426 3.09874 0.723773
-0.389099 3.19424 0.642612
0.192228 3.09248 0.792444
-0.0802368 3.17649 0.774897
0.0824985 2.99387 0.889111
-0.272156 3.27961 0.489619
-0.153193 3.28786 0.318
0.942278 2.66522 0.667455
0.780765 2.78301 0.701408
0.862487 2.60565 0.838823
0.568716 3.09248 0.471772
0.687857 3.00425 0.607841
0.709123 2.99238 0.425679
0.48439 2.8214 0.921126
0.633698 2.88204 0.759615
0.389131 3.03559 0.819159
0.146449 3.26569 0.412931
0.256959 3.20782 0.631661
0.34567 3.22864 0.462384
-1.09175 2.99956 0.735138
-0.759831 2.99273 0.716737
-1.48089 3.04259 0.950105
-1.35454 3.02042 0.797459
-0.654774 2.6716 0.956448
-1.00141 2.81537 0.799762
-0.916223 2.66778 0.950662
-2.19992 2.62404 1.21666
-1.97408 2.83851 1.27935
-1.6221 2.44637 0.707815
-1.73602 2.74081 1.1336
-1.57654 2.3157 1.27706
-1.75911 2.9709 1.28254
-1.6406 3.02355 1.20909
-0.471493 1.76168 1.38988
-0.736402 1.83092 1.43278
-0.647262 1.64325 1.26048
-0.692658 2.34857 1.02333
-0.718683 2.19731 1.28061
-0.468227 2.33429 1.39769
-1.10842 1.9152 1.05975
-0.796069 2.01821 1.00477
-1.19782 2.24396 1.06031
-1.58535 2.77813 0.841863
-1.35099 2.60902 0.951335
-1.11637 2.64299 0.989226
-2.24336 2.63817 0.699181
-2.31826 2.58972 0.942525
-2.35669 2.5811 0.207699
-2.32159 2.55253 0.354076
-2.24642 1.96452 0.786787
-2.49482 2.2126 0.600697
-2.27462 1.94828 0.481843
-1.72055 2.74495 -0.557595
-2.00734 2.65352 -0.450443
-2.17794 1.95348 -0.431577
-2.1301 2.30697 -0.439438
-1.95932 2.00091 -0.551626
-2.21097 2.60602 -0.313347
-2.18678 2.58743 -0.118738
-1.9156 0.803639 0.191442
-1.96057 1.05826 -0.0356725
-1.91274 0.837168 -0.200926
-2.19669 1.49457 0.264404
-1.86621 1.40418 0.151303
-1.74852 1.46489 0.385544
-1.77392 1.47035 -0.252872
-1.85181 1.41175 -0.14465
-2.06971 1.62057 -0.252185
-2.40761 2.22495 -0.0261681
-2.2462 1.9265 -0.120555
-2.43087 1.83724 0.118378
-1.60303 3.53291 -0.631385
-1.50792 3.1128 -0.585892
-1.58982 3.80726 -0.931976
-1.60391 3.76728 -0.887393
-1.32711 2.72736 -0.655074
[...]
POINT_DATA 642
SCALARS Mean_Curvature double 1
LOOKUP_TABLE default
-0.749748
0.180342
5.92149
0.741512
4.263
-1.87814
0.186086
-0.757749
4.52856
0.703026
-1.03086
0.0260355
0.227952
6.95017
1.38696
-0.832396
5.29263
2.86902
3.1692
1.0204
6.98057
4.03897
1.90457
0.721718
3.10205
4.05153
1.93502
2.51331
-0.648442
0.869944
3.79006
-0.576624
7.27286
0.751641
2.5583
1.2999
0.271494
0.518867
1.35982
-0.0944256
-2.37999
0.539295
-0.563071
3.32306
0.905571
4.33094
1.33381
4.86094
-0.355864
4.44022
5.38667
-3.87066
3.47234
-0.90721
-0.335194
-2.04624
5.81712
0.96769
2.54433
0.0736102
13.7916
2.91351
-1.432
4.17209
1.60156
0.986402
5.21713
0.282938
15.4297
1.29058
8.99383
1.37564
0.544537
-0.130991
-0.841494
1.09465
0.447357
0.0223659
-1.3665
2.47787
3.53338
0.606593
1.65359
0.634347
-0.918112
4.19476
-3.30485
6.95602
0.336619
2.52924
-0.279471
3.8722
0.603358
3.52916
0.36297
-4.71266
1.40633
-4.26957
-0.24682
-0.842915
-0.578877
-0.410064
4.55726
-0.611475
4.26545
-1.03935
-0.351312
-0.662039
0.0836117
0.00292722
-1.20055
0.432184
4.92858
0.674955
2.78394
0.448056
1.17703
-0.264824
3.7395
0.0478084
0.29055
0.00563733
0.251413
4.46679
5.42702
-1.60475
0.100519
2.36637
2.03226
0.605698
6.44812
1.44045
0.65094
0.648655
2.2361
0.281376
3.67725
0.77416
-1.50316
0.320193
0.786011
0.481309
5.94114
0.488468
-0.840059
-0.484385
3.54768
1.81751
2.01414
-0.923898
2.65003
-2.02029
-0.0742345
-0.983211
-1.8209
2.11594
1.0426
0.22396
-0.408991
0.428257
3.71254
-0.0293147
-0.939934
-4.1327
1.83767
3.36893
-1.78327
3.45044
1.50423
2.80482
4.4769
3.74112
0.468978
3.97254
-0.402121
5.96425
-0.667478
3.40218
0.648135
4.7707
-1.03263
0.196663
-1.17164
2.48031
-1.35013
-5.71479
-1.42759
-3.42453
-1.93922
3.07958
0.461186
5.15499
4.48585
0.182806
-1.09779
6.1882
4.23395
5.85517
5.6778
-1.55928
-0.858986
-0.818084
-0.754469
-0.964822
-0.807205
-1.85858
7.39644
4.68495
0.509705
-2.60973
-0.697516
-1.56242
-0.157527
6.49684
-0.224872
-2.37379
1.22954
-2.73156
0.15032
-0.216896
6.58055
2.60787
10.3869
0.284824
0.053588
-9.13027
5.09248
1.95451
8.98135
3.01024
2.00529
7.68253
-0.768403
-0.289876
-0.184022
0.0664914
-0.0190006
1.16318
4.8976
-5.6144
8.44455
6.1079
6.26277
3.59664
5.79958
-1.27251
11.8726
0.948188
7.91882
1.51036
2.22386
-0.777805
-0.54681
0.771528
8.20115
1.20074
7.91106
1.55019
1.0557
1.44079
-0.44378
1.37757
8.3205
1.57418
17.4478
0.884876
10.5047
1.05334
7.87722
1.23078
2.9383
2.00827
3.31579
2.40247
0.716352
-1.11642
-0.567722
3.67767
-0.166879
2.60236
2.05407
1.76223
-1.86305
5.607
3.21154
-1.112
0.0267173
5.49633
-1.13682
0.977344
-1.24168
4.84452
-0.89817
-1.05629
-1.30309
-0.976126
2.92913
-0.822744
5.1779
-0.397808
2.46296
1.1587
2.98207
1.39019
1.88908
-0.175404
2.74216
0.583347
4.45563
0.936266
5.18834
0.600415
1.83377
0.886303
3.43954
0.574597
2.75753
0.95923
0.051881
-1.23699
1.12117
-4.20426
-3.87993
-3.67603
2.23656
4.95163
2.68087
-5.78944
-0.921685
4.62674
4.18327
0.728861
0.223725
5.6702
-1.14322
-5.7823
3.78458
4.24749
0.313584
-4.7126
-0.760356
-6.53952
0.373284
1.61585
-3.81413
3.2302
-0.472011
-1.53984
3.06917
3.78005
-1.54629
0.570371
0.342654
4.18079
1.93148
1.77082
3.18868
-3.63514
5.99683
4.60762
6.31956
3.18454
-1.35706
-2.97661
-1.68347
0.488792
2.98158
2.12451
-0.499215
3.72023
-0.316241
-0.673191
11.0709
-0.297341
0.478892
-0.424085
-0.37586
-0.705378
-0.538478
-0.760675
-0.71658
-0.610317
-0.979014
-0.766611
1.50794
0.895367
1.65263
0.143392
-0.999262
0.493883
-0.301222
-0.590364
-0.724164
-0.19404
-0.573212
-0.297419
-0.869528
-0.233767
15.9911
-3.68877
-0.376178
-0.256638
-0.178901
-0.354927
-0.304044
0.00335728
-0.133999
-0.663827
8.18828
2.53933
0.915903
0.387622
3.03149
-0.838196
6.01541
0.544834
1.45947
0.517425
2.08734
0.196484
-0.0659582
-0.0279381
3.27985
0.473992
2.63738
0.64813
5.30109
0.570121
4.60736
-0.259996
1.56107
0.449586
2.79739
0.633863
1.71316
0.159424
3.15138
0.683183
0.319411
0.537553
2.02871
0.570513
-0.606064
0.824459
3.59219
0.300938
2.81077
1.04135
1.6679
0.469063
-0.205659
0.0622219
0.238219
0.486221
2.30362
-0.00571429
0.322499
-0.00241028
0.0160309
-1.34333
-0.637408
1.94325
6.44197
1.2843
-1.63146
1.32204
2.74488
2.7382
-0.381437
0.00494479
-0.628865
0.103529
4.73516
-1.26373
3.17619
0.96862
1.04919
0.0908741
2.70644
0.277131
-1.04758
0.26695
4.05266
0.704424
5.28267
2.10626
2.07104
1.43469
5.93102
0.740461
0.0807126
0.425781
1.57251
0.789846
2.47918
0.640962
3.29228
-0.364739
-0.451996
-0.377821
5.36933
0.778319
6.56999
0.670159
3.25999
0.592742
3.54673
0.448375
5.12518
-0.425207
-1.35781
0.322891
3.53642
-0.338123
0.358122
0.363328
1.78313
0.407569
3.28207
0.18403
1.33941
-0.126308
1.70543
0.442713
1.23799
0.560924
3.85115
0.55846
3.82814
0.412719
2.08344
0.577039
6.06127
0.557265
4.80046
0.0694576
4.28164
0.0891776
3.11404
0.709838
4.83115
-0.0531437
2.00449
0.778952
4.88454
-0.721226
2.31666
-0.354484
-0.865456
0.51101
-2.66212
0.586189
3.84765
1.19275
0.31978
0.315998
3.60149
0.244801
0.756856
0.584208
2.47253
-0.575014
2.06468
-3.56096
0.108252
0.883643
-2.33244
0.979147
1.89467
1.85407
1.02496
2.59437
6.74877
4.8981
-0.484049
-2.09703
0.105897
-4.35221
-1.31712
5.18666
-2.03124
4.64595
-0.435843
4.4752
-0.775784
-0.552327
2.75247
-4.7336
5.85767
-1.04488
-2.12458
0.384732
-1.46183
2.15066
1.10554
1.27197
-2.20787
-1.23931
-2.35126
1.26267
4.98535
-2.90604
2.14395
-1.2195
0.51953
-1.18073
0.427384
0.358346
1.31389
0.0345812
-1.66767
0.497926
1.74767
0.377683
6.24506
0.674326
-0.238865
-0.265279
-0.672373
-0.590769
-0.541436
0.319542
1.27577
0.0218986
3.54327
0.606843
3.16541
0.439069
1.38367
0.595913
3.03953
0.476436
2.56115
0.578149
-0.969954
0.6295
2.48442
-0.4881
7.16974
0.528216
1.93075
-0.140649
SCALARS Redistribution_Potential double 1
LOOKUP_TABLE default
-1.53951e-05
-3.25183
-10.3952
3.92245
-10.7527
-13.3278
14.133
11.0581
27.8359
19.944
7.33139
-28.512
-23.3313
-29.8014
-21.3389
-1.90554
-19.3462
-20.5921
23.2249
30.7352
15.7869
-13.8851
11.9393
24.9363
-21.7597
-7.84459
-6.69094
-18.0921
12.3765
9.37661
21.1674
15.762
10.4609
4.87181
-4.11529
-14.5862
-4.42031
1.17442
8.70311
21.6082
15.3919
24.9001
-13.8743
-24.3821
-15.783
-30.3586
-29.4664
-27.0446
-21.5025
-28.0451
-25.4943
-16.3791
-13.4294
-4.01432
-13.5253
-19.1909
-15.6572
-3.437
-14.0005
20.0811
-18.2867
-20.8137
22.3695
-12.0561
-10.6133
27.0511
10.28
22.7402
32.2609
18.2943
29.8055
23.5398
-8.13904
-2.68719
-3.19974
-18.1347
-23.6449
16.2771
13.0106
4.59734
10.8957
24.7914
20.3217
18.396
-22.7085
-10.6679
-27.2163
-27.347
-8.89885
-16.8942
-15.3777
-17.7836
-24.454
-2.8251
-10.5989
-13.3321
-13.0056
-8.16428
11.4975
7.6184
9.18823
12.7657
12.1973
12.1125
17.176
-9.0351
-0.00715069
3.78246
-6.95765
26.3139
17.7057
28.8502
5.9733
3.74597
0.0203151
13.247
8.6994
14.8206
-8.20452
-0.29659
-4.15755
-4.91116
-0.159681
-13.5745
-10.859
-7.78089
-10.9072
-13.5803
2.24397
6.27225
-5.73862
-1.1324
11.6892
4.82462
7.82812
12.0988
8.97835
18.1098
15.6924
21.5059
19.6096
24.5211
11.8562
26.6088
19.5603
16.7746
22.7451
-0.174329
9.1148
2.14946
-16.1764
-17.1478
-21.3048
5.59487
-2.65999
1.06677
23.9205
20.8307
13.3383
27.7955
29.2216
25.8303
-6.24188
-14.625
-9.4052
-24.0253
-20.7115
-19.1683
-19.0911
-20.8414
-24.2656
-29.815
-29.8232
-28.2604
-30.3152
-29.983
-30.5376
-25.4791
-28.933
-26.9283
-18.4275
-24.492
-19.8516
-25.7545
-25.732
-22.4152
-27.9709
-27.7216
-29.3135
-27.3251
-29.2525
-27.1145
-13.4399
-2.44036
-17.003
-15.5623
-17.2654
-16.1025
-17.8051
-8.86289
-14.9052
-8.90679
-10.6857
-1.27827
-17.4061
-17.8614
-15.0455
-15.1783
-3.32429
-18.3552
-17.5061
-19.9817
-3.92053
-12.8828
-9.59401
-15.3656
-13.3223
-16.9525
0.781908
11.7537
-18.8957
-13.6446
22.101
2.97913
3.58379
-13.3833
-18.8235
-20.9933
-20.8592
-20.5918
-20.5692
-20.3929
13.122
5.11121
4.87799
4.28222
4.68694
23.5582
-17.7441
-11.7041
-20.0284
-19.3698
-20.3713
-12.2198
16.0817
10.3032
28.6775
25.2693
13.1728
20.5122
21.1282
16.5387
22.7386
32.4543
30.295
30.0298
29.821
30.7858
10.382
23.1607
11.4208
25.0789
24.8772
19.7083
28.247
29.4531
32.0343
30.6176
32.8126
29.8055
-1.23224
9.62228
2.5932
-8.95175
-17.8696
3.73694
6.46978
-9.03635
-2.92483
-8.88868
7.34229
10.7857
-25.5908
-26.0131
-21.8445
-23.4539
-19.5569
-20.7708
-17.0273
-2.16651
-12.4239
-13.8756
5.63525
4.53563
6.77922
6.37446
21.4524
15.8518
20.6147
-2.75396
-0.378478
12.895
7.19806
9.24199
3.83174
7.87437
22.3105
21.763
19.4049
23.3235
22.9501
25.3521
15.665
20.0111
16.3434
15.4844
16.1551
19.5918
-19.8347
-12.0887
-27.314
-24.967
-10.4218
-18.1625
-16.0697
-28.2569
-29.5472
-23.639
-27.4193
-23.7559
-29.8202
-29.3387
-10.18
-12.3553
-12.9264
-12.862
-12.4303
-7.91564
-18.5347
-15.7698
-20.2611
-25.6306
-23.273
-20.072
-24.1739
-26.502
-17.2818
-19.8177
-21.2792
-20.5214
-18.9067
1.86245
-3.72981
-8.29121
-6.96435
-5.09475
-8.26594
-11.6371
-11.735
-10.7026
-9.78343
-15.4183
-13.3303
-15.5625
-7.85121
-9.93302
-9.8397
-14.2275
-12.0869
-15.2199
11.6715
8.10312
20.7042
19.0699
7.47926
10.4884
9.68798
10.9052
15.0511
9.24293
11.1202
8.66641
20.6897
20.8959
13.365
14.9182
15.7733
11.5583
13.4398
11.3801
16.6978
15.5352
12.2556
12.4057
9.7166
9.9698
-5.89601
5.0387
-18.0078
-12.1197
6.70742
-5.79148
7.1744
-2.21807
-4.77811
7.84733
-1.3453
12.0925
-16.452
-18.4961
28.0135
27.8455
28.8565
16.7576
23.987
22.633
27.0885
26.0203
19.3996
-8.53694
7.70623
7.43841
4.48865
3.19577
1.92412
7.18198
4.7611
7.95385
-1.98758
1.62374
-0.583587
16.7057
14.3233
17.7195
6.90818
11.1022
9.06116
12.1271
11.9671
9.85011
-9.75006
-5.8375
-8.29885
-2.34103
-4.61323
-5.72
0.20226
-1.81771
2.27495
6.30513
4.40692
1.96388
-0.498351
1.9393
-5.10085
-2.47034
-2.22537
-2.52899
-5.28163
-12.7695
-11.5697
-12.7635
-12.6156
-14.0688
-10.0534
-8.27455
-9.58962
-10.6841
-11.7848
-7.47975
-9.70143
-5.94415
-14.5655
-12.2498
-13.2842
-8.06296
-11.2846
-8.00909
2.6947
4.97828
-0.969933
1.39506
7.1697
4.49503
5.51866
-7.94618
-6.86585
-0.166981
-3.73728
-2.25502
-5.08478
-2.55286
13.302
9.29286
11.5747
7.0434
7.92628
10.061
4.44263
5.7488
3.15095
1.05388
1.84234
3.74183
7.50198
6.62671
10.1493
9.09322
11.8518
10.8809
13.8993
16.1919
15.218
18.6834
17.1118
20.06
13.79
11.9253
25.9834
23.4354
26.7892
17.576
20.7655
18.5271
23.3477
22.2101
20.8053
13.4834
17.6731
15.592
7.40393
12.4375
10.3597
8.74293
11.1003
27.3972
24.9334
22.0717
23.7292
25.5789
20.9344
17.0593
18.6207
21.3954
13.0965
15.9444
24.1123
19.4376
20.9724
14.6428
18.1363
13.432
-6.36787
2.30854
-2.23499
-4.55637
-4.40699
15.9838
10.8725
14.352
11.5315
7.21077
-3.74243
-2.47173
-3.69553
3.97315
6.99858
4.2209
5.31004
0.890819
-13.721
-15.3893
-15.182
-15.1051
-17.1059
-14.5701
-19.2497
-16.8101
-15.5181
-15.6987
-26.2072
-19.5218
-23.1318
-23.489
-21.8018
-16.5536
-19.0438
-17.5483
10.1572
3.11094
6.54451
8.96853
7.06811
-7.46562
-4.74766
-5.43322
-4.16044
-0.772267
1.98201
5.38077
3.12645
-0.814423
-3.41988
1.28068
-1.32747
3.47329
26.6729
23.4268
25.1536
25.4558
21.5833
18.1786
17.9115
19.194
19.989
21.4882
5.56675
14.4331
6.73219
7.82588
12.62
22.3695
19.2194
20.8711
24.6705
27.1
26.1868
26.4505
26.7256
28.9905
27.9401
29.3431
28.6709
27.7629
8.14106
25.9899
20.9699
16.1533
23.5396
28.6099
28.263
28.0784
SCALARS CoVolArea double 1
LOOKUP_TABLE default
0.059808
0.0107438
0.0684142
0.0587997
0.0434562
0.0492028
0.0323051
0.00844699
0.0328662
0.041415
0.0443483
0.063114
0.0737921
0.0581974
0.0475745
0.0418095
0.0436254
0.0192108
0.0270153
0.0236917
0.057843
0.112988
0.0442237
0.0387198
0.0989364
0.0765281
0.0740619
0.131063
0.0499769
0.105155
0.0520183
0.0401543
0.0596391
0.0613781
0.0856128
0.0661959
0.111315
0.0544795
0.0688829
0.0520832
0.0513509
0.040356
0.0833273
0.0683846
0.0810264
0.0819391
0.0878017
0.101157
0.0546996
0.048822
0.048104
0.0533797
0.0713138
0.0703961
0.0614566
0.0272076
0.0372615
0.0199146
0.0595816
0.0313046
0.0243371
0.0386381
0.0203028
0.0430399
0.0463293
0.026296
0.0591738
0.0141024
0.0313036
0.0594391
0.0501435
0.0306846
0.0972445
0.0961939
0.0832582
0.0966573
0.0914222
0.0394266
0.033531
0.0534226
0.0602562
0.0395697
0.0468204
0.0410701
0.056684
0.0654756
0.0953089
0.0772774
0.075105
0.0895484
0.0880755
0.110291
0.0932452
0.0865694
0.0852069
0.125012
0.0969757
0.0753879
0.0308444
0.0742881
0.0184185
0.0124839
0.0647196
0.0595692
0.0621609
0.0176318
0.0429749
0.0251355
0.0259241
0.0495947
0.0418205
0.040224
0.0910151
0.0798908
0.0929516
0.0593413
0.0776259
0.0473732
0.0861999
0.0959973
0.0840966
0.118747
0.0895256
0.0591854
0.09877
0.0971644
0.115603
0.104447
0.0930104
0.0754478
0.0662795
0.0832049
0.0716032
0.0712186
0.0582998
0.0685345
0.0727164
0.0514492
0.0641086
0.0545602
0.0640944
0.0607025
0.0610034
0.040353
0.0433401
0.0414769
0.054203
0.0554949
0.0615097
0.0550459
0.0819469
0.085558
0.114213
0.0733876
0.0704432
0.0977196
0.0648742
0.0566718
0.0703981
0.0408304
0.0528686
0.0503615
0.0798903
0.0767888
0.0826206
0.0780672
0.0692393
0.0785178
0.0641916
0.0715918
0.0624294
0.0772143
0.0876972
0.0780822
0.0704266
0.0947908
0.0665646
0.091568
0.0966034
0.0872228
0.0515098
0.0465383
0.0514174
0.050664
0.0469599
0.0525174
0.045564
0.0400198
0.0486896
0.0850035
0.0651037
0.0661334
0.0864196
0.0701512
0.0618898
0.0704351
0.0538804
0.052928
0.0337534
0.0623156
0.067035
0.0484052
0.0712494
0.0600579
0.0646048
0.0573528
0.0276218
0.0261965
0.0145677
0.0299489
0.0267612
0.0315196
0.0350354
0.0300652
0.038628
0.0577002
0.0473502
0.0397786
0.0484787
0.0478418
0.0726361
0.0627103
0.01763
0.0279295
0.0276322
0.0208062
0.0270931
0.0212965
0.0302605
0.0181539
0.0366086
0.0532588
0.0144672
0.0328792
0.0369567
0.0179787
0.0202491
0.0217676
0.0403408
0.0405439
0.0493927
0.0750981
0.0591715
0.0583619
0.0417504
0.0604507
0.0358786
0.0311509
0.0637226
0.0408197
0.0352212
0.00593117
0.00695024
0.0395896
0.0193687
0.0210077
0.0165229
0.0286333
0.0562723
0.0426143
0.0315828
0.0388278
0.0382818
0.0510204
0.0279295
0.0348088
0.0540525
0.0342727
0.0653115
0.035034
0.0754987
0.0876011
0.0747798
0.0725828
0.0839864
0.0836003
0.0834332
0.102508
0.0867816
0.0902391
0.0698135
0.0690437
0.0929331
0.0776812
0.0966884
0.103036
0.0896647
0.0996886
0.0996881
0.107471
0.101262
0.116785
0.0210339
0.011489
0.0476646
0.0360098
0.0480171
0.0346814
0.0371834
0.0653739
0.0600422
0.0457291
0.0559479
0.0378349
0.0656873
0.0560251
0.0481285
0.0395678
0.0457538
0.03489
0.0388528
0.0312163
0.0514913
0.0454185
0.0509692
0.0489116
0.048464
0.0372595
0.0585414
0.0662218
0.0602978
0.0450799
0.0722579
0.0549226
0.0713183
0.083238
0.0793712
0.127048
0.0891599
0.119057
0.0563589
0.0583323
0.0555492
0.0822678
0.0667147
0.080128
0.0924904
0.0666898
0.0919993
0.0974714
0.110359
0.0750138
0.095045
0.0666749
0.100409
0.0754123
0.102687
0.0966146
0.123802
0.117682
0.129097
0.0801703
0.094679
0.0899342
0.084906
0.0797976
0.0776601
0.0987469
0.0950338
0.105545
0.0818429
0.12224
0.105506
0.121797
0.0680698
0.0814393
0.0846291
0.110925
0.10258
0.123037
0.048104
0.0538356
0.0178574
0.036738
0.0936475
0.0611497
0.0742261
0.0118242
0.012198
0.0251115
0.0144029
0.0280917
0.0147731
0.0104184
0.050228
0.0640868
0.051549
0.0754679
0.0690852
0.0800073
0.0603263
0.0680038
0.0506893
0.0177152
0.029313
0.0424974
0.0390064
0.0295669
0.0276117
0.026349
0.0336134
0.0260648
0.020693
0.0145458
0.0187724
0.0313329
0.0318039
0.0450846
0.0285278
0.0241593
0.0430779
0.0458838
0.0414489
0.0346084
0.0523356
0.0487581
0.0522259
0.051255
0.0432038
0.0181833
0.0174253
0.0174967
0.0770117
0.0904515
0.0806377
0.0689997
0.0819679
0.0786824
0.101135
0.0892062
0.0888957
0.0523191
0.053662
0.047289
0.0689463
0.0582936
0.0638627
0.0418445
0.0555288
0.066544
0.0657152
0.0795806
0.0657973
0.0862353
0.0851957
0.0934194
0.0722251
0.0849232
0.0805495
0.0960502
0.102381
0.0999563
0.0874519
0.0811993
0.105562
0.101369
0.111699
0.100901
0.119692
0.062136
0.0634409
0.0797179
0.0799118
0.0700555
0.0889541
0.0829711
0.0836646
0.105957
0.0871137
0.122231
0.107587
0.104623
0.074327
0.0969727
0.0811524
0.116844
0.115644
0.137873
0.0861364
0.0777925
0.108877
0.0973221
0.0742297
0.0842553
0.0885709
0.0661104
0.0767725
0.0583983
0.0706046
0.0634501
0.0896495
0.106375
0.0526423
0.0639601
0.0534552
0.0748173
0.0703478
0.0705037
0.0494039
0.0542448
0.0612381
0.0955165
0.0827489
0.0840287
0.0704312
0.068675
0.0713137
0.0720121
0.0636164
0.0684924
0.061276
0.0472403
0.0541168
0.0543222
0.0524872
0.0503674
0.0655586
0.0656063
0.0566578
0.0605168
0.0574004
0.0572363
0.0472938
0.0394547
0.0513667
0.048594
0.0566641
0.0770599
0.0735738
0.0771655
0.0822171
0.0540463
0.073722
0.0818343
0.0697114
0.0416994
0.0480025
0.0356351
0.0398577
0.0384319
0.0450089
0.0453988
0.041795
0.0451186
0.0477445
0.0375554
0.0526889
0.0466928
0.0399376
0.051646
0.0465485
0.0537419
0.0623482
0.0566364
0.055546
0.0581716
0.0589909
0.0506771
0.059315
0.0526755
0.0581916
0.0587922
0.0699272
0.0682657
0.0693264
0.0562018
0.0467433
0.0593165
0.0587463
0.0571903
0.0942009
0.0648616
0.0870164
0.109008
0.0955779
0.0783283
0.0869735
0.0884788
0.0730527
0.0790846
0.0806217
0.134858
0.105275
0.10157
0.0854379
0.090745
0.101377
0.113398
0.0598917
0.0643531
0.053689
0.0700916
0.0900907
0.0612318
0.0693272
0.065877
0.0674732
0.0706931
0.0821073
0.107192
0.0964521
0.0846727
0.0790367
0.0866022
0.0886151
0.0943129
0.0550961
0.0578612
0.0556388
0.0522049
0.0674173
0.056727
0.0643866
0.0568089
0.0519647
0.0511892
0.0352588
0.0596771
0.0516699
0.0470336
0.0618659
0.0626005
0.074285
0.0760925
0.0473093
0.0422972
0.0471293
0.0369193
0.0390851
0.0412334
0.0618258
0.0452433
0.0462681
0.0429478
0.02789
0.0457352
0.0508615
0.0511605
0.0606046
0.043519
0.0521667
0.0425847
SCALARS SignedDistance double 1
LOOKUP_TABLE default
1.16246
1.23992
-0.00602664
-1.00206
-0.00357208
1.07103
1.16451e-05
1.2771
0.00271076
-0.711829
1.22157
-1.00059
-0.00575062
0.965855
0.0241727
1.24162
-0.00367743
-1
0.0246082
-1.00143
-0.000440913
0.88432
-0.00120654
-0.496379
0.00601751
0.274961
-0.0131475
1.11254
1.12072
-0.422105
-0.0219464
1.10312
0.000910637
-0.587836
-0.00322609
-1.00152
-0.000284406
-1.00402
-0.00788243
0.0575932
0.0581705
-0.559047
0.0173952
0.963298
-0.0102587
1.12806
0.00195202
1.15736
0.801778
0.670211
-0.00501875
-0.050199
0.0262482
0.165599
1.19676
-0.194203
0.0217069
1.25225
-0.0312346
0.0618491
-0.622717
-1
0.264011
0.294456
0.040895
-1.02919
-0.00906417
0.101979
0.0655856
-0.987215
0.0152532
-1.00084
0.0195029
0.380745
0.000129364
0.425825
-0.00633917
0.0572945
1.11125
-0.237843
0.00272524
-0.453719
-0.00446782
-0.360424
0.189722
0.512844
0.0844402
1.0829
0.00373706
0.633925
0.464054
0.908882
-0.00444496
0.34348
-0.0112241
-0.305181
-0.00149161
-0.596865
1.27895
0.415336
1.29198
1.24501
0.00409055
0.728055
-0.00634206
0.067448
1.20024
1.30408
0.384364
-0.00548469
0.568994
-0.321584
0.00627526
-1
0.00885023
-0.329509
0.00445846
0.292911
-0.0121374
-0.0826032
-0.00441263
-0.0357595
-0.000297342
0.370004
0.0225403
-0.226898
8.56304e-05
0.627688
-0.00164466
-0.823174
-0.00287096
-0.593103
-0.0123484
-0.338163
0.00062733
-0.317428
-0.0117309
-0.882869
0.000230229
-0.306846
-0.000169743
-0.723793
-0.000123562
-0.528962
-0.0029576
0.507262
0.00338809
-0.723118
0.00098009
0.157078
0.0107688
-0.519393
0.00707091
0.411843
0.741369
0.239211
0.00192542
-0.204526
1.07953
-0.329221
-0.00755444
-0.116932
1.11577
-0.523121
-0.0208133
0.873469
-0.00387774
0.709776
0.0104601
0.649987
0.0182968
0.664323
0.00543254
0.343271
0.00303043
1.20692
-0.00729495
1.00645
0.0240918
0.836146
1.1018
-0.228264
0.596589
0.626645
0.346614
-0.0420888
0.00916951
-0.523664
0.00501719
1.05872
0.00204316
0.302359
-0.0407203
0.931727
0.799202
0.47294
0.00882164
0.380986
0.00273211
0.84185
1.16329
1.30693
1.2987
1.14976
1.21185
1.1042
-0.0361241
-0.326032
1.24286
0.533612
0.0135208
-0.14337
1.29033
0.252138
1.17031
-0.328018
0.0889541
0.305282
1.16394
0.871517
-0.0514226
-1.00157
0.0161129
1.19694
1.20266
-0.241964
0.0223352
-0.994919
-0.00364203
-1
0.00745348
0.437697
1.23134
1.21279
1.19593
1.2081
1.2106
0.0362066
-0.00996331
0.25501
0.00392364
0.635237
0.104779
0.421578
0.0053057
0.476812
-0.00180518
-1.00321
-0.0242389
-1.02457
-1.03266
1.16884
0.126762
-1.00324
0.0183472
-0.644191
0.00193775
-0.826638
0.279994