# vtk DataFile Version 4.2
vtk output
ASCII
DATASET POLYDATA
POINTS 642 double
-1.11159 3.13754 -0.256561
-0.267512 2.83456 -0.231458
-1.29034 0.537137 -0.00624851
0.675472 0.548405 0.00675231
-0.367605 1.21086 1.04317
-0.615921 2.40797 0.507645
-0.343542 1.37545 -0.852938
-0.806669 2.81344 -0.650249
0.564303 1.9156 -0.441583
0.724749 1.86666 0.546478
-1.26592 2.35452 -0.514015
-1.80806 2.13644 0.858566
-1.67849 2.91195 0.441553
-1.19151 2.42277 0.799062
-0.925609 2.82058 0.316316
-0.329051 2.67067 0.115389
-0.473602 3.32356 -0.207116
-0.170444 3.21272 -0.656936
-1.11155 3.04602 -0.728401
-1.20398 2.90177 -0.916402
-1.60278 3.02008 -0.624583
-1.85346 2.15712 0.0187797
0.148184 2.21365 0.687965
0.397953 2.39298 0.240064
-1.02949 1.61507 0.860429
-0.410689 1.88328 0.84379
-1.45323 1.31479 -0.365471
-1.58502 1.2278 0.479068
-0.580684 2.26899 -0.63208
-0.873018 1.84726 -0.627733
0.14336 2.42214 -0.237589
-0.213983 2.42045 -0.480097
1.04905 1.21185 0.465842
0.339349 1.51493 0.963772
0.202632 0.686138 0.801192
-0.937001 0.658032 0.830201
-0.353096 0.55471 -0.000159517
-0.817874 0.789001 -0.673807
0.146231 0.82237 -0.67803
0.174985 1.59143 -0.692113
0.806022 1.23424 -0.265966
0.872768 1.82261 0.024958
-1.34514 2.96167 0.0734037
-1.28096 2.96066 0.484761
-0.995582 3.04047 0.0975428
-1.49084 2.36066 0.963934
-1.45814 2.72873 0.811628
-1.83727 2.5661 0.705747
-0.807524 2.60781 0.427879
-1.11434 2.68184 0.608261
-0.909978 2.41604 0.602492
-0.670442 3.08756 -0.0278408
-0.799048 3.30563 -0.217242
-0.423055 2.54196 0.342417
-0.594559 2.7876 0.166097
-0.324805 3.14453 -0.26088
-0.44072 2.98826 -0.0909412
-0.301845 2.78772 -0.083287
-0.6477 3.30031 -0.45877
-1.11561 3.10471 -0.61059
-0.263811 3.02774 -0.383722
-0.288731 3.4041 -0.473791
-0.984105 2.92859 -0.704254
-0.535664 3.16118 -0.551356
-0.514089 2.95873 -0.568193
-1.34956 3.18852 -0.861451
-1.38652 3.15285 -0.436967
-1.05675 2.86965 -0.769766
-1.19099 3.09998 -1.0504
-1.45296 2.73121 -0.682733
-1.43875 2.97706 -1.02621
-1.23716 2.78585 -0.803146
-1.60876 2.90774 -0.0763248
-1.56199 2.21365 -0.278378
-1.60906 2.59313 -0.226927
-1.85065 2.5654 0.252625
-1.85034 2.14646 0.456662
0.0310472 2.48675 0.202112
-0.0144976 2.53809 -0.0235884
-0.172627 2.3174 0.648254
-0.0283898 2.46125 0.455632
0.61969 2.18657 0.411489
0.329544 2.33019 0.472832
0.465315 2.07642 0.679781
-0.874601 2.15559 0.690745
-0.5345 2.1591 0.663567
-1.39209 1.94979 0.788415
-1.18537 2.12321 0.826366
-0.363322 1.55971 1.04339
-0.722607 1.78554 0.807682
-0.64643 1.35639 0.895132
-1.8556 1.69052 0.261487
-1.64258 1.77595 0.632501
-1.4325 1.78366 -0.441664
-1.68561 1.72441 -0.187486
-1.33928 0.840837 0.225198
-1.62504 1.20548 0.010614
-1.2998 0.870052 -0.12762
-0.985051 2.51574 -0.652268
-1.07758 2.15351 -0.568864
-0.75882 2.66183 -0.641803
-0.91225 2.6602 -0.674686
-0.611922 1.53734 -0.816288
-0.712469 2.14179 -0.643471
-0.394163 1.74527 -0.785806
-0.359465 2.82273 -0.483744
-0.506958 2.7105 -0.572373
-0.156031 2.63152 -0.228988
-0.277106 2.77859 -0.371503
0.189303 2.1219 -0.480444
-0.0464581 2.42217 -0.369987
0.431894 2.19469 -0.336423
0.984762 0.719207 0.251052
0.723561 0.858264 0.63696
0.504579 0.554407 0.396873
0.595045 1.69085 0.777924
0.684835 1.32247 0.700483
0.875177 1.49256 0.472018
-0.13561 0.933699 1.04323
0.296071 1.08748 0.912009
-0.02663 1.34177 1.06613
-0.0313458 0.568892 0.444162
0.21392 0.554723 0.00394633
-0.585363 0.883487 0.921024
-0.341686 0.554908 0.917375
-0.860711 0.557105 0.00785215
-0.647827 0.554723 0.454093
-1.1492 0.552152 0.488157
-0.0626023 0.554746 -0.417324
0.433841 0.642187 -0.387999
-1.08003 0.635167 -0.354462
-0.647541 0.554789 -0.417581
-0.140757 1.09367 -0.84028
-0.366244 0.764979 -0.689385
-0.532022 1.10315 -0.776694
0.544634 0.994072 -0.470659
0.871062 0.834013 -0.224278
-0.0515854 1.47139 -0.856981
0.208036 1.22469 -0.706868
0.740927 1.54052 -0.363778
0.536955 1.39865 -0.572026
0.41102 1.73995 -0.609888
1.1179 1.15735 0.0110368
0.788898 1.85797 -0.220026
0.870572 1.4984 -0.10313
0.910758 1.4471 0.189196
0.864059 1.85023 0.311191
-0.0260663 1.72021 1.04877
0.270614 1.90482 0.868956
-0.116453 2.02162 0.793271
-1.23869 0.846118 0.624911
-0.926026 1.07075 0.749856
-1.31566 1.39363 0.769965
-0.789052 1.25582 -0.603856
-1.06629 1.05494 -0.381656
-1.1723 1.53566 -0.539334
0.0320317 1.9834 -0.598351
-0.184321 1.83822 -0.716412
-0.401205 2.34941 -0.583554
0.650732 2.13727 0.158498
0.617013 2.1812 -0.130953
0.332516 2.42357 -0.0298211
-1.21173 3.07433 -0.133533
-1.1897 2.97949 0.127415
-1.05812 3.13098 -0.0862483
-1.48921 2.96037 0.488878
-1.32174 2.95816 0.307738
-1.54156 2.95895 0.293432
-0.958111 2.92432 0.215001
-1.14663 2.95784 0.318255
-1.08334 2.88674 0.420078
-1.66471 2.26583 0.953331
-1.68887 2.48137 0.91435
-1.85493 2.36173 0.798876
-1.30214 2.55504 0.808744
-1.50703 2.55038 0.914449
-1.31557 2.39829 0.893788
-1.77388 2.75319 0.583583
-1.67453 2.68552 0.813426
-1.64629 2.86375 0.696907
-0.69672 2.49092 0.467518
-0.899705 2.53054 0.530776
-0.734924 2.40254 0.539836
-1.05417 2.76186 0.489401
-0.97786 2.63806 0.507972
-0.899873 2.73184 0.380667
-1.04803 2.41568 0.673405
-1.04048 2.54462 0.608895
-1.15622 2.55174 0.692189
-1.40952 2.87925 0.671905
-1.25276 2.71038 0.718922
-1.18375 2.87144 0.635208
-0.895276 3.26105 -0.0373374
-0.942161 3.23653 -0.249651
-0.795179 2.93043 0.139239
-0.816509 3.07959 0.0521966
-0.631082 3.37147 -0.172475
-0.687104 3.25003 -0.0853451
-0.57476 3.21286 -0.13086
-0.518548 2.47676 0.433014
-0.616466 2.57508 0.371435
-0.467549 2.75225 0.120738
-0.526422 2.66348 0.250795
-0.356005 2.6081 0.227726
-0.706069 2.69484 0.303819
-0.770132 2.80299 0.241956
-0.296111 2.95562 -0.261209
-0.336574 2.96224 -0.181762
-0.274539 2.8159 -0.176842
-0.46139 3.17035 -0.173666
-0.365492 3.08581 -0.158718
-0.401398 3.24448 -0.260776
-0.30741 2.72898 0.00463186
-0.373639 2.90864 -0.10412
-0.408585 2.82772 0.00311435
-0.64547 2.93452 0.0633441
-0.511832 2.88877 0.0267516
-0.54994 3.06223 -0.0760518
-0.910787 3.18956 -0.401999
-1.0995 3.13771 -0.46753
-0.549244 3.45031 -0.340116
-0.720192 3.37336 -0.39019
-1.12336 3.07989 -0.6897
-0.891783 3.12282 -0.505658
-0.872662 3.07576 -0.553871
-0.280263 2.94258 -0.315196
-0.267612 3.08495 -0.338928
-0.200676 3.35329 -0.588915
-0.203548 3.2242 -0.425082
-0.201121 3.15982 -0.532485
-0.315777 3.24636 -0.351536
-0.367714 3.4233 -0.334923
-0.879194 2.86378 -0.668845
-0.765227 2.91921 -0.612828
-0.698561 2.84596 -0.614253
-0.858888 3.01707 -0.594169
-0.809834 2.97256 -0.603809
-1.1006 3.00858 -0.748774
-0.367184 3.08258 -0.583144
-0.506501 3.08901 -0.561795
-0.338648 3.2339 -0.673006
-0.458118 3.52633 -0.514718
-0.362996 3.42393 -0.661067
-0.583864 3.22266 -0.525937
-1.25 3.15354 -0.565829
-1.27624 3.12621 -0.388986
-1.19237 3.24493 -0.88774
-1.24634 3.21364 -0.77604
-1.55623 3.16382 -0.518012
-1.42907 3.27587 -0.709021
-1.57983 3.24696 -0.809027
-0.942267 2.83349 -0.703235
-1.03727 2.90133 -0.751825
-1.24363 3.02502 -1.09342
-1.17238 2.96902 -0.882906
-1.17654 2.92247 -0.8787
-1.15912 2.997 -0.857822
-1.19551 3.12823 -0.972981
-1.31617 2.51513 -0.551132
-1.32507 2.77502 -0.776551
-1.22197 2.51862 -0.603509
-1.5051 3.05972 -0.86395
-1.46098 2.85926 -0.865033
-1.52099 2.88939 -0.687928
-1.23202 2.86636 -0.884798
-1.35186 2.88977 -0.981898
-1.30997 2.87118 -1.13399
-1.30259 3.108 -0.987955
-1.31764 3.06034 -1.08582
-1.37901 3.08194 -0.960063
-1.372 3.0741 -0.206449
-1.60171 2.99782 -0.396018
-1.51904 3.08716 -0.271184
-1.50557 2.95855 0.0150339
-1.68177 2.92431 0.202208
-1.39744 2.28494 -0.405095
-1.4318 2.48074 -0.421741
-1.78002 2.3793 -0.12038
-1.5884 2.41084 -0.258324
-1.75741 2.17439 -0.172876
-1.50678 2.66329 -0.451106
-1.58695 2.81571 -0.480373
-1.85054 2.35399 0.573616
-1.85382 2.1447 0.643144
-1.85052 2.79033 0.363831
-1.8511 2.56896 0.477076
-1.85049 2.14789 0.240454
-1.91216 2.36033 0.352625
-1.8504 2.36067 0.127801
-1.65054 2.76814 -0.181506
-1.76523 2.56958 -0.00739769
-1.82295 2.79044 0.0977939
-0.168559 2.64102 -0.0554096
-0.18263 2.67535 -0.141939
-0.159829 2.56303 0.153653
-0.165929 2.60553 0.0492558
0.199498 2.46382 0.111607
0.0291167 2.50294 0.103591
0.217031 2.46151 0.234324
-0.383019 2.33765 0.549701
-0.294316 2.41336 0.480394
0.0821662 2.36486 0.615994
-0.0937566 2.39789 0.563298
0.00388852 2.28079 0.699299
-0.220023 2.47559 0.384757
-0.177271 2.51448 0.283613
0.705524 2.00558 0.505334
0.555236 2.12494 0.551092
0.644189 1.97016 0.630797
0.403316 2.38807 0.374315
0.487029 2.27631 0.458416
0.508169 2.29182 0.326533
0.320022 2.13437 0.67779
0.445813 2.23556 0.623725
0.252892 2.28815 0.602937
0.0193724 2.47061 0.32418
0.156059 2.4121 0.479598
0.221738 2.46519 0.366754
-0.736726 2.28569 0.606224
-0.582846 2.28825 0.58598
-1.04605 2.28349 0.721693
-0.925776 2.28838 0.661381
-0.478193 2.04453 0.730599
-0.723568 2.15697 0.666045
-0.648506 2.01741 0.727378
-1.57525 2.04731 0.846384
-1.45084 2.11962 0.959156
-1.10977 1.90007 0.783638
-1.27601 2.04302 0.837586
-1.20145 1.77736 0.796986
-1.29035 2.22146 0.944538
-1.20156 2.27114 0.855162
-0.36195 1.34471 1.04323
-0.544022 1.44623 1.04969
-0.484449 1.26174 0.96843
-0.567458 1.83017 0.826029
-0.538488 1.66663 0.942911
-0.380991 1.76688 0.980196
-0.826491 1.47145 0.823961
-0.677188 1.55709 0.874066
-0.878713 1.70471 0.811356
-1.03867 2.14395 0.745542
-0.967751 1.95945 0.752536
-0.822998 1.99728 0.73185
-1.72229 1.96308 0.533907
-1.66657 1.97911 0.698473
-1.76848 1.94147 0.146314
-1.76705 1.9407 0.332427
-1.67434 1.4928 0.593265
-1.75047 1.70098 0.451267
-1.71184 1.46791 0.363712
-1.32953 2.05686 -0.443358
-1.4862 2.00047 -0.355532
-1.6203 1.4988 -0.297436
-1.5807 1.74972 -0.349302
-1.49778 1.52555 -0.436261
-1.63485 1.96679 -0.240273
-1.69669 1.95349 -0.0615231
-1.43783 0.597644 0.133979
-1.35172 0.836407 0.0163618
-1.4383 0.63311 -0.147979
-1.62566 1.2005 0.239312
-1.43162 1.06732 0.124222
-1.41442 1.07204 0.354402
-1.34847 1.12559 -0.213935
-1.42434 1.07434 -0.0730978
-1.58165 1.23088 -0.21448
-1.77736 1.70009 0.0243481
-1.68558 1.46738 -0.0971971
-1.77237 1.43426 0.131964
[...]
POINT_DATA 642
SCALARS Mean_Curvature double 1
LOOKUP_TABLE default
-0.575791
0.910915
2.3016
5.32829
5.59023
-0.0878567
-0.0189365
0.751992
3.59235
-2.71835
-0.273415
8.20829
3.32127
1.6886
-0.298541
0.181562
5.30778
14.4176
0.669248
7.69703
4.66825
4.30441
1.74991
1.724
4.77566
-0.492079
3.26468
3.91688
0.724887
-0.418186
-0.565562
0.67347
7.35404
1.7367
2.21136
5.54705
0.270576
6.26282
2.97515
-2.34043
-0.98911
1.78258
-1.85443
3.92394
1.82199
3.27999
3.44804
4.06019
-0.180329
0.0541796
0.181888
-1.10188
1.87852
0.131893
0.234198
2.97162
-0.224516
0.747436
-0.198303
0.486386
3.23207
4.1152
0.893922
-0.374499
0.63285
1.1868
1.74841
0.699584
13.961
4.7256
10.501
1.27333
1.7879
-0.822037
-1.26816
0.372797
1.57123
-0.624251
-0.143317
3.88489
3.88728
5.26131
-1.93748
3.32217
-0.577543
-0.481361
-1.38188
0.76661
1.73932
-0.621755
-0.946496
5.45662
1.97844
2.21392
1.66321
-1.23771
2.98519
-1.32717
0.586614
0.0645009
0.552941
1.21026
3.12594
0.518205
-0.341992
1.35107
1.08899
0.77052
1.17192
1.71081
0.108449
4.91813
3.63535
3.55688
3.12579
1.16791
1.30415
4.25479
4.28136
-0.861295
1.44424
-0.740088
-0.0177579
-0.525273
5.70732
-1.49744
0.00494283
2.01211
1.68871
2.47587
4.19826
-0.086764
3.36243
0.158797
1.65435
-1.52835
4.19745
4.17748
-1.80197
1.29058
0.874212
4.13168
4.07316
2.26448
-1.02143
-1.61273
2.37396
5.1709
4.36555
-0.326765
2.91663
-1.34529
3.75499
-1.08566
-1.28448
2.40646
0.679732
-0.741494
0.756506
-0.314299
5.457
1.60462
-0.987566
-1.53884
0.462572
3.16035
-0.323788
1.60983
-0.75539
3.14681
3.02423
4.33451
4.33121
5.0596
0.482126
3.67284
2.16907
1.84171
3.92942
6.13088
-0.198112
-0.185235
-0.278793
-0.861781
-0.667416
-0.277942
-0.861141
-0.535685
-1.03688
3.2128
1.60525
7.46463
7.93074
2.78929
-0.626538
1.55294
7.29573
4.26357
-0.412842
0.0303035
-0.148299
-0.210386
0.0562794
0.180585
-0.262034
-0.0936536
1.1125
0.0769379
0.954539
-1.10257
9.0506
-1.44895
-0.143282
0.542227
0.732178
-0.34031
0.227539
-0.822926
-0.0634637
-0.140277
7.53266
7.38117
0.602126
0.433953
0.602924
0.234275
3.92262
9.77204
9.10332
4.80901
-1.97058
7.38758
0.69512
0.909455
0.869106
0.792165
0.851002
0.662633
2.2146
0.23624
7.32429
8.4727
8.86148
0.506575
-0.673255
-1.07148
13.044
3.17096
6.68022
6.39318
9.92691
1.21412
0.944985
10.4843
0.336811
0.130688
-0.0819318
5.86146
-0.0155879
-0.225537
0.454114
2.29526
6.43657
-0.594498
1.18385
1.40697
13.4235
1.40328
13.5512
1.55973
0.183785
3.14448
6.00054
1.08744
3.24314
-0.619006
-0.523686
3.62144
-0.338696
4.28282
-1.22584
3.31097
-0.811538
4.01529
5.38004
0.680303
1.13308
4.12773
0.80688
1.56793
-0.289267
5.28643
0.331777
0.360315
-0.00664026
0.185418
0.443198
-0.505058
1.1385
-0.354491
-0.00718
4.94668
2.07848
5.553
0.0694861
-0.256651
2.74269
-0.373477
4.90262
6.57617
2.73831
1.42984
-0.70405
8.11297
2.39841
-0.59067
1.10413
6.17198
-0.315339
-0.178836
-0.461114
-0.543773
-0.356369
-0.454856
-0.421961
1.42789
6.11173
-0.786818
0.72025
-0.507694
6.68816
1.84013
1.05264
7.16644
-1.42831
-0.76189
1.66835
4.04303
-1.20886
-1.15481
-0.99011
-0.902234
-0.805202
-0.509828
-1.59245
0.541903
-0.929505
-1.27828
4.89731
1.21293
-0.100677
-0.666991
0.080873
3.1753
2.8185
5.09346
1.77785
-2.32621
8.38494
-0.893642
8.7653
2.75298
-1.93815
-0.297438
-1.24296
0.37774
5.10328
1.71759
0.439736
3.5943
0.381062
0.117173
0.995317
0.856115
-0.262812
0.583695
0.237727
0.764017
1.05943
0.666046
0.682992
0.587166
1.32451
0.985298
1.27637
7.72082
0.438526
0.116125
-0.333173
-0.627689
0.00153254
-0.117675
0.675299
1.21475
0.768104
0.654681
0.956994
0.865775
2.36692
0.779806
0.906417
1.3574
0.783518
0.549162
0.672417
0.748241
0.612188
0.233276
0.579931
8.80473
-0.23915
-1.54253
3.66507
0.515309
1.77796
-0.256288
-0.899224
4.68915
0.0591483
1.24864
1.08233
0.738534
2.03016
2.57657
1.44157
2.30859
4.12794
6.07272
6.03381
-1.89374
1.37469
6.06841
2.36174
-2.27381
2.46905
-0.777915
3.74455
-0.0506616
0.859146
-3.33703
2.51223
0.0849894
-0.787596
2.09229
3.79153
-1.26061
1.87693
3.76911
1.58696
0.658058
0.227218
0.170001
-0.0221743
0.479676
2.72643
0.114929
0.251274
0.178004
0.121432
-1.19151
-1.63498
6.85474
6.96722
-0.187542
-1.52531
5.82351
3.83286
3.5816
0.762135
-0.00111513
-0.75814
0.016849
2.16046
-0.898003
1.41978
0.762493
-0.0563523
0.0587979
1.53277
3.03954
-1.41622
0.154385
3.08909
4.121
4.60867
6.35429
1.47272
7.49003
3.73786
3.33073
-0.136721
0.119739
0.203549
6.16193
1.62725
1.46204
1.24842
-2.79594
-1.23839
-2.69634
1.32447
0.941825
6.39542
4.0787
0.0165053
3.99575
2.08496
3.35351
0.878229
-1.8666
0.166965
-0.174484
3.14741
0.636834
-0.128097
1.099
1.11355
-0.565995
2.44501
2.62483
2.00459
2.34824
-0.989446
-2.35674
-1.75721
2.85762
3.63928
5.72113
2.8816
1.21961
1.58652
6.52558
5.68207
3.53312
3.83426
3.35338
-0.387858
-0.295036
4.88187
6.16666
6.30514
-1.37799
3.50304
7.96884
-1.48319
-2.09236
2.49812
-1.20536
-0.880943
1.32719
-1.65422
4.83415
2.01842
5.41523
-1.03611
1.89649
3.1228
-1.59722
-0.416979
-2.13162
5.36292
-3.32101
0.845886
-1.29174
-0.880524
0.274228
-1.86438
1.04285
-0.45563
1.49025
1.08802
8.12316
8.26602
-0.778593
-1.11647
-1.19783
0.191266
-1.27159
-1.29619
0.0117361
-1.9549
2.42988
1.16139
3.38291
-0.60069
-0.801581
-0.321479
-1.12119
6.67096
-1.05141
-1.22249
-0.0556986
-1.03541
3.89788
1.38697
-1.67536
-1.34812
-1.32081
-0.991267
0.760363
4.97531
-1.72336
0.386142
-1.15978
-0.796923
-1.05697
-0.484531
-0.0956458
0.361651
-0.621932
-0.0790131
2.54413
0.0660146
-0.296308
5.55472
4.99104
0.804249
0.787398
0.66482
0.444712
0.727023
-0.55133
0.181565
0.144617
2.57718
1.88456
2.54386
-0.944671
0.4643
1.85139
4.52864
0.387507
-0.643478
5.43379
0.259637
4.32333
-0.213072
-0.432998
8.5118
-0.943554
1.51813
0.788482
SCALARS Redistribution_Potential double 1
LOOKUP_TABLE default
6.60282e-08
-0.845233
-1.33161
-1.78934
-1.47909
-1.18381
-1.43927
-0.168964
-1.70181
-1.78197
-0.361898
-0.991772
-0.71723
-1.04075
-0.798119
-1.08739
-0.172977
-0.313678
0.66203
1.09736
0.678105
-0.773021
-1.595
-1.62331
-1.2146
-1.41023
-1.05945
-1.15564
-0.914682
-0.97401
-1.41342
-1.11854
-1.81142
-1.71167
-1.68188
-1.37681
-1.58236
-1.34975
-1.66898
-1.60034
-1.79462
-1.79282
-0.39698
-0.755548
-0.480194
-1.01922
-0.919384
-0.891663
-1.00052
-0.936417
-1.08584
-0.485617
-0.125536
-1.18064
-0.88479
-0.460594
-0.66293
-0.937476
-0.0267979
0.487774
-0.557194
-0.190567
0.298884
-0.204515
-0.388048
1.37341
0.393231
0.465508
1.92903
0.432423
1.65521
0.627309
-0.274064
-0.58739
-0.304542
-0.709165
-0.904405
-1.40922
-1.30426
-1.44669
-1.45186
-1.73098
-1.63145
-1.71228
-1.16758
-1.3027
-1.07563
-1.10466
-1.478
-1.28237
-1.31533
-1.0107
-1.05473
-0.856386
-0.923818
-1.2043
-1.10902
-1.18318
-0.307545
-0.654282
-0.405996
-0.194404
-1.26616
-0.900103
-1.30253
-0.664898
-0.624808
-1.09152
-0.813876
-1.50306
-1.26089
-1.61485
-1.80976
-1.7904
-1.76042
-1.76459
-1.78634
-1.80072
-1.56229
-1.70711
-1.60751
-1.64921
-1.71517
-1.39809
-1.51779
-1.4489
-1.49678
-1.36985
-1.6417
-1.74486
-1.31775
-1.47642
-1.55446
-1.5148
-1.39357
-1.75101
-1.79432
-1.53569
-1.65791
-1.77749
-1.73375
-1.6667
-1.81145
-1.77126
-1.79453
-1.76776
-1.7927
-1.59982
-1.67442
-1.51647
-1.28237
-1.24354
-1.18697
-1.19856
-1.13066
-1.00682
-1.44829
-1.36944
-1.00533
-1.73457
-1.696
-1.55394
-0.132819
-0.471554
-0.228134
-0.740482
-0.624322
-0.610539
-0.660449
-0.66686
-0.778372
-1.00719
-0.963969
-0.949742
-0.989076
-0.975262
-1.03406
-0.813204
-0.905794
-0.841944
-1.10798
-1.03249
-1.14155
-0.870496
-0.95241
-0.885691
-1.0512
-1.00398
-0.993156
-0.847228
-0.930655
-0.85918
-0.278713
-0.0897247
-0.670132
-0.493244
-0.0906878
-0.289578
-0.335096
-1.18578
-1.07757
-0.954996
-1.03346
-1.14748
-0.948928
-0.829344
-0.690883
-0.702651
-0.885826
-0.403139
-0.551893
-0.304474
-1.01723
-0.775809
-0.878795
-0.690785
-0.781156
-0.538142
0.0276778
0.267003
0.354222
0.00753848
0.626076
0.0726325
0.0651788
-0.683384
-0.511373
-0.261231
-0.354237
-0.377057
-0.319679
-0.0860407
0.00943661
-0.153753
-0.298145
0.0437327
-0.0563847
0.654485
-0.377415
-0.282558
-0.272725
-0.0186287
-0.16634
-0.127586
0.565686
0.255067
1.29708
1.05278
0.590179
1.07265
1.32858
0.118639
0.44081
2.42553
1.0683
0.965263
1.01085
1.56684
-0.112042
0.615321
-0.116299
1.29826
1.01208
0.66316
0.982757
1.39043
1.87343
1.82078
2.79747
1.653
-0.00724799
0.242836
0.10913
-0.339413
-0.562553
-0.449965
-0.226818
-0.598128
-0.436023
-0.695556
0.0324335
0.221766
-0.891811
-0.950307
-0.706643
-0.809389
-0.845818
-0.817497
-0.72535
-0.240659
-0.540291
-0.554209
-1.14219
-1.07603
-1.25761
-1.19994
-1.49663
-1.37771
-1.52975
-1.31762
-1.329
-1.54461
-1.45447
-1.53248
-1.32602
-1.30578
-1.76657
-1.72695
-1.75857
-1.63989
-1.68675
-1.68556
-1.66475
-1.68384
-1.61917
-1.43903
-1.54975
-1.55557
-1.1839
-1.24531
-1.09425
-1.12115
-1.35269
-1.22276
-1.28274
-1.03765
-1.05048
-1.15125
-1.09758
-1.15684
-1.06868
-1.07643
-1.48139
-1.40559
-1.41143
-1.34276
-1.38441
-1.45692
-1.24739
-1.29496
-1.23406
-1.12032
-1.17012
-1.21627
-0.949757
-1.01154
-0.896899
-0.937775
-1.11065
-1.03732
-1.08839
-0.659191
-0.726456
-1.00338
-0.890962
-0.984489
-0.784383
-0.832587
-1.29092
-1.19769
-1.28203
-1.13404
-1.15518
-1.18173
-1.12784
-1.14441
-1.08495
-0.968154
-1.0302
-1.06484
-0.265776
-0.489015
0.245575
0.111214
-0.797339
-0.462897
-0.69355
-0.276483
-0.106834
-0.511209
-0.304383
-0.588819
0.0946982
0.292298
-1.37643
-1.27831
-1.399
-0.940151
-1.12713
-1.11768
-1.15602
-1.12539
-0.898892
-0.189676
-0.547152
-0.583622
-0.501426
-0.434063
-0.460239
-0.497729
-0.855101
-0.662337
-0.904641
-0.948827
-0.809659
-1.12148
-0.968247
-1.2542
-0.632912
-0.476662
-1.64416
-1.56449
-1.67639
-1.18133
-1.40948
-1.3352
-1.54353
-1.48292
-1.33925
-0.706588
-1.03854
-0.947521
-1.80062
-1.79668
-1.77901
-1.80697
-1.80162
-1.7984
-1.72943
-1.77597
-1.74462
-1.77809
-1.79285
-1.79809
-1.75453
-1.77981
-1.74543
-1.80666
-1.80008
-1.80718
-1.51006
-1.5989
-1.53354
-1.69785
-1.64986
-1.6288
-1.66651
-1.66831
-1.71436
-1.79086
-1.75625
-1.75358
-1.73934
-1.75338
-1.66656
-1.70829
-1.65499
-1.68401
-1.61972
-1.40407
-1.45454
-1.43718
-1.45212
-1.38176
-1.50265
-1.59447
-1.37517
-1.41199
-1.34757
-1.53752
-1.4788
-1.51317
-1.38458
-1.43167
-1.43956
-1.58536
-1.51116
-1.56701
-1.73324
-1.76993
-1.61603
-1.68068
-1.71355
-1.70365
-1.66143
-1.32681
-1.38756
-1.41383
-1.39966
-1.32619
-1.46387
-1.532
-1.48979
-1.48539
-1.4264
-1.6078
-1.54209
-1.62686
-1.35072
-1.44707
-1.43113
-1.56229
-1.50037
-1.58877
-1.77195
-1.79956
-1.71538
-1.75128
-1.79431
-1.75397
-1.77443
-1.48888
-1.55011
-1.63984
-1.60039
-1.571
-1.61533
-1.66871
-1.74089
-1.73531
-1.6905
-1.77614
-1.76056
-1.79154
-1.63749
-1.71084
-1.67854
-1.71165
-1.69857
-1.74859
-1.80817
-1.80662
-1.80973
-1.81531
-1.80866
-1.74501
-1.77457
-1.79606
-1.79115
-1.78772
-1.79286
-1.80118
-1.79924
-1.7891
-1.80208
-1.77959
-1.79321
-1.79489
-1.79467
-1.80453
-1.77406
-1.80591
-1.54762
-1.65954
-1.60936
-1.54328
-1.5114
-1.74372
-1.63813
-1.69942
-1.72639
-1.70059
-1.37882
-1.45788
-1.42131
-1.48731
-1.55535
-1.64056
-1.60311
-1.56388
-1.30391
-1.33251
-1.33251
-1.26872
-1.19127
-1.31645
-1.23629
-1.24846
-1.28775
-1.33028
-1.07069
-1.17209
-1.13157
-1.15054
-1.20116
-1.29755
-1.22471
-1.21524
-1.34545
-1.25674
-1.29894
-1.23419
-1.10992
-1.25438
-1.1082
-1.15794
-1.20302
-1.21473
-0.752392
-0.991776
-0.874228
-0.909864
-1.03402
-1.14763
-1.09644
-1.09617
-1.60406
-1.54259
-1.57455
-1.4777
-1.30965
-1.42951
-1.19021
-1.32921
-1.47363
-1.50762
-0.528355
-1.04835
-0.784821
-0.660462
-0.94977
-1.40859
-1.22992
-1.26995
-1.77055
-1.77147
-1.77205
-1.73477
-1.67893
-1.71222
-1.59466
-1.66373
-1.74084
-1.7633
-1.20978
-1.59553
-1.44234
-1.35595
-1.49048
-1.72284
-1.63371
-1.6659
SCALARS CoVolArea double 1
LOOKUP_TABLE default
0.0290503
0.00730239
0.033497
0.0360184
0.0198884
0.0184141
0.014752
0.00805025
0.0140038
0.0227794
0.0260163
0.0404849
0.0438059
0.0267459
0.0256883
0.0237783
0.0246052
0.0216834
0.0189148
0.0169701
0.0443238
0.0500306
0.0251073
0.0230891
0.0446819
0.0331845
0.044733
0.0594893
0.0264712
0.0456894
0.0229103
0.0231485
0.0440863
0.0390524
0.0542953
0.0538113
0.0648211
0.0442852
0.0417798
0.0316356
0.0323277
0.0267511
0.0452439
0.0369109
0.0399146
0.0395582
0.0434693
0.0483283
0.0257741
0.0253747
0.0233997
0.0254994
0.0337574
0.0283678
0.0266308
0.0159214
0.0186719
0.0167887
0.0348042
0.0241905
0.0129014
0.0300441
0.0141516
0.0283224
0.0215925
0.0262924
0.0367426
0.00847905
0.0138092
0.0412182
0.0255603
0.0245649
0.049549
0.0468835
0.0497731
0.0542306
0.0452339
0.0229015
0.0196191
0.0283549
0.0271949
0.0262889
0.026342
0.0274166
0.0246471
0.0281481
0.0402548
0.027666
0.0384632
0.0402451
0.0415671
0.0578544
0.0456088
0.0428204
0.050512
0.0547897
0.0572024
0.0404269
0.0182217
0.0351287
0.0109251
0.0112633
0.0393027
0.0301165
0.0327441
0.0141826
0.0174195
0.0128237
0.0138283
0.0282989
0.0220576
0.0250196
0.0624091
0.0519653
0.0583651
0.031575
0.0425387
0.029303
0.0476593
0.0506113
0.0419462
0.0661132
0.0512199
0.0379755
0.0642006
0.0573335
0.0607959
0.0514554
0.0563771
0.0464274
0.0416677
0.056396
0.0424278
0.0447468
0.0354898
0.0432805
0.0423927
0.0291475
0.038313
0.0307795
0.0352676
0.0318117
0.0437071
0.0246341
0.0277254
0.0271409
0.0281089
0.0334653
0.0332215
0.0305587
0.0519399
0.0449322
0.0519691
0.0416369
0.0407959
0.0464617
0.0324183
0.0300213
0.0323632
0.025945
0.0283061
0.0259819
0.0394273
0.0404845
0.0395345
0.0427611
0.0382184
0.0423154
0.0310326
0.0333546
0.0316058
0.0460243
0.0444842
0.0483675
0.0340042
0.0400438
0.0303935
0.0461465
0.045043
0.0466005
0.0211939
0.0227
0.0209715
0.0263072
0.0223502
0.0245339
0.0224458
0.02059
0.0251854
0.0441498
0.0352484
0.0363291
0.0397791
0.0347878
0.0286438
0.034136
0.0297316
0.0291502
0.0209858
0.0259312
0.0255456
0.0228748
0.0267598
0.0264004
0.027519
0.0272611
0.0118465
0.0147437
0.0133524
0.0184645
0.0153933
0.0176943
0.0184996
0.0144179
0.0189998
0.0283597
0.0229895
0.0229217
0.0325492
0.0317252
0.0363615
0.0361433
0.0182108
0.0263829
0.0232929
0.00828995
0.0138691
0.027017
0.0229596
0.0191148
0.021284
0.0294836
0.00980951
0.0196428
0.0154285
0.020898
0.0203874
0.016051
0.0211516
0.0239059
0.0298869
0.042752
0.0389944
0.036306
0.0328336
0.0313532
0.0228316
0.0267374
0.0441064
0.0418295
0.0441196
0.00782846
0.00820848
0.0195038
0.0109396
0.0104074
0.0124014
0.0177368
0.0361396
0.0322784
0.0280227
0.0372396
0.0310085
0.0378744
0.0160137
0.0220561
0.0250334
0.0154419
0.0191049
0.023159
0.0398818
0.047017
0.0413938
0.04377
0.0467965
0.041661
0.0447576
0.0506901
0.0468484
0.047805
0.0442091
0.0466587
0.0465967
0.0450598
0.0515755
0.0483257
0.0472814
0.0486531
0.0515009
0.0573915
0.0577691
0.0597125
0.0192996
0.0130591
0.0246313
0.0206669
0.0234974
0.0214561
0.0233239
0.0304739
0.0300336
0.0262175
0.0273694
0.0245549
0.0278047
0.0265707
0.0272207
0.0276949
0.0278327
0.0226857
0.0236968
0.0206514
0.0263067
0.0271106
0.0278878
0.0270137
0.0278065
0.0258635
0.0252889
0.0264154
0.0247627
0.022508
0.030436
0.0255353
0.0320886
0.0411632
0.0403383
0.038827
0.0326792
0.0417325
0.0300724
0.0254051
0.0283927
0.0392168
0.0334216
0.0360337
0.0400872
0.0343881
0.0422536
0.0406763
0.0446026
0.028413
0.0379376
0.0338449
0.0442778
0.040302
0.0519767
0.0485312
0.058755
0.0528313
0.0612081
0.0428861
0.0455339
0.0487609
0.0444997
0.0424431
0.0459417
0.0509478
0.0519516
0.0502271
0.0486816
0.0605844
0.0520964
0.0556076
0.0429186
0.0448792
0.0524385
0.060036
0.0590052
0.0644556
0.0284767
0.0333935
0.0142113
0.0200406
0.039983
0.0263681
0.0328938
0.0101979
0.00828753
0.0174038
0.00908545
0.0176552
0.00925701
0.0115331
0.0259686
0.0344989
0.0267957
0.038404
0.0363985
0.0423064
0.0291562
0.0320763
0.0277804
0.0150291
0.0207609
0.0247175
0.017506
0.0136948
0.0149738
0.0155379
0.0201818
0.0165482
0.0171089
0.0107004
0.00941386
0.0156907
0.0114676
0.016303
0.0128578
0.014339
0.0231502
0.0269614
0.0239455
0.0208128
0.0248127
0.0245979
0.0232492
0.0237207
0.0220134
0.0143311
0.0173242
0.0171566
0.0465116
0.0567953
0.0467782
0.0534347
0.0556509
0.0644446
0.0589016
0.0540458
0.0547814
0.0312511
0.0322158
0.0304223
0.0404089
0.0337882
0.0352693
0.0259668
0.0331245
0.0410726
0.0354398
0.0425369
0.0311964
0.0504021
0.046216
0.0519134
0.0395929
0.0444225
0.0451123
0.0551393
0.053438
0.0574071
0.0529366
0.0445916
0.0612938
0.0599013
0.0608673
0.0599706
0.0693758
0.0337362
0.0391035
0.0672563
0.0518448
0.0481754
0.0514332
0.0570615
0.0489291
0.0609666
0.0473368
0.064244
0.0573717
0.0547017
0.0539436
0.054901
0.0602902
0.067538
0.0691763
0.071484
0.0504744
0.0500888
0.0617414
0.0562252
0.0463681
0.052491
0.0515376
0.0428684
0.0474453
0.0560289
0.0456688
0.0430942
0.0494029
0.0581967
0.0294002
0.0397445
0.0282203
0.0450218
0.0417576
0.0405855
0.0352252
0.0349923
0.0462743
0.0614376
0.0601661
0.0545349
0.04385
0.0428678
0.0432451
0.0430255
0.0399315
0.0400102
0.0367746
0.0244569
0.0306529
0.0310326
0.0292949
0.028217
0.0379187
0.0400213
0.0280112
0.0336327
0.0271225
0.0324734
0.0285898
0.0252094
0.0287414
0.0289659
0.0328108
0.0486696
0.0422128
0.0449876
0.0524517
0.0389649
0.050795
0.0634372
0.0496734
0.0228067
0.0270825
0.024407
0.0249836
0.0253802
0.0273488
0.0309873
0.0280263
0.027564
0.0287139
0.02571
0.0280514
0.0281218
0.0260271
0.0349441
0.0298126
0.0341785
0.0345555
0.0360656
0.0344835
0.0341816
0.032047
0.0306103
0.0286996
0.0277192
0.0315152
0.0376255
0.0310783
0.0318448
0.0301362
0.0280544
0.0275209
0.0366611
0.0337779
0.0338401
0.0486095
0.0634148
0.056306
0.0476047
0.0475484
0.0401067
0.0441564
0.0410956
0.0432083
0.0457798
0.0399974
0.0576801
0.0517114
0.0463534
0.0467661
0.0515584
0.0526262
0.0511154
0.0346862
0.0402406
0.034588
0.0392216
0.0454026
0.0424316
0.0422234
0.040878
0.0416725
0.0400031
0.0438726
0.0501962
0.0446361
0.0439249
0.0425536
0.0439517
0.0447127
0.0495626
0.030237
0.0326864
0.0288622
0.028125
0.0307915
0.0307117
0.0293698
0.0288698
0.030076
0.0313604
0.0153626
0.0292987
0.0231769
0.02296
0.03012
0.0345639
0.0338119
0.0353281
0.0273817
0.0280223
0.0257917
0.024066
0.0235901
0.0259807
0.0266974
0.0244458
0.0266207
0.0290478
0.0167426
0.0248132
0.0226828
0.0207303
0.0252623
0.029956
0.0288536
0.0272417
SCALARS SignedDistance double 1
LOOKUP_TABLE default
1.11396
1.17089
-0.0100854
0.142714
-0.0042106
1.14907
0.00173284
1.35506
0.0155007
-0.0464242
1.24689
0.1118
-0.0221608
0.0756672
0.978401
1.25604
0.0939468
0.0578211
1.12776
0.040929
-0.000230362
0.049524
-0.000854803
0.0378224
0.00571397
0.198432
-0.0198611
0.0778782
1.24759
0.74587
0.504969
1.20935
0.0131758
0.0542125
0.00849291
0.0422339
0.000368533
0.10365
-0.00757984
0.137747
0.039954
0.0465242
0.109516
0.0537541
0.00973083
0.0550983
-0.00447259
0.0630895
1.17908
0.195998
0.97947
0.906733
0.0265006
1.13577
1.25039
0.0317781
0.615487
1.23052
0.406921
1.13232
0.164702
0.0104459
1.25622
0.873161
1.17913
-1.01449
0.0563514
1.18147
0.0613196
-0.0285352
0.0232949
0.308185
0.000963799
0.113192
0.0403747
0.00292174
-0.00438302
0.774874
1.12345
0.0749422
0.0329686
0.108377
-0.00432924
0.0720696
1.09701
0.687809
0.695235
0.215505
0.00116824
0.379477
1.01035
0.0950116
0.00111048
0.0314519
-0.000804262
1.09706
0.00695542
0.822292
1.3837
1.16129
1.43092
1.3846
0.0241194
1.19638
0.245872
1.20628
1.35181
1.21605
1.22578
0.0868677
1.12586
0.0921978
0.0345462
0.131708
0.00797065
0.0314464
0.00026518
0.0958496
-0.00288807
-0.0355548
-0.0442
-0.0235919
1.92804e-05
0.187117
-0.00397143
-0.0418612
2.9941e-05
0.0412866
-0.000491857
0.0844201
7.48091e-05
-0.000878128
-0.00501275
0.00511677
-0.00163632
-0.0518247
-0.0243777
0.0854525
-0.0045351
0.0358458
-0.00247134
0.0993136
-0.0196874
0.0518732
0.000144061
0.999486
-0.000308753
0.115181
-0.0139737
0.0641146
-0.0314657
0.967403
-0.00720789
0.708894
1.09289
0.0402886
0.164416
0.800974
1.25604
-0.00579057
-0.0105533
0.0544639
0.914654
0.0551239
0.0275225
0.0463016
0.00462538
0.0177221
0.427595
0.0365753
0.0391497
0.0804946
-0.0124269
0.0866631
0.0226856
0.0570765
0.00801977
0.0260496
-0.0113452
0.0926421
1.18105
1.10783
1.13855
0.728059
1.09024
1.14838
1.00582
0.595976
0.382989
0.0594514
0.00301159
0.0906396
-0.0173317
0.0435406
1.10457
0.0535239
-0.10553
0.0252892