# vtk DataFile Version 4.2
vtk output
ASCII
DATASET POLYDATA
POINTS 642 double
-510.186 702.966 172.733
72.0027 98.8073 31.2157
-1.50288e+07 -1.75002e+07 -1.3187e+07
270.612 -2587.34 -5999.59
45947.2 26287.1 -114072
-65.1843 6.43333 157.126
4360.34 7779.05 -9732.87
-57.775 -24.3078 -177.941
121.975 -45.1581 -118.619
417.954 747.793 1172.03
6.4183 -983.159 470.159
-276587 -36112.4 252152
-749.716 -1016.6 159.479
729.168 -2754.4 -5063.17
-254.107 -148.933 -42.1341
-19.0739 233.531 369.383
-139.919 786.148 345.075
616.521 725.879 -881.856
-437.064 321.187 -359.729
-277.67 -257.444 -42.2668
-44.2489 -293.445 199.784
34878.5 -2483.2 -12814.7
-22.3983 -145.502 490.374
583.12 313.024 405.289
61387.4 -33370.7 44583.1
-103.353 722.666 -1315.58
971842 868856 -516056
-751024 -118469 1.24219e+06
-241.915 -387.055 -81.6068
-8733.57 -16422.8 371.922
571.97 236.423 -293.956
65.9085 -164.802 -478.811
-415.388 -1188.41 -290.265
-652.241 -170.103 -80.2272
-551.821 8834.98 7559.99
427124 884044 -881088
154215 -325212 159586
-72816.8 737717 196408
3718.62 3612.92 3611.47
-271.973 -249.633 418.513
733.926 -636.743 -546.95
378.075 -256.687 10.024
138.246 -240.184 -117.975
-1425.87 -407.666 1526.06
-120.876 -168.406 -140.354
78739.2 59836 28908.4
-5516.04 -8313.33 6545.67
62921.2 -28080.1 -21862.8
-194.052 -23.6775 178.47
1639.61 -289.352 -29.7384
333.128 176.433 479.811
-296.162 287.341 320.067
-497.59 706.934 196.385
-72.1415 78.7816 257.029
-201.071 107.729 268.616
297.639 620.464 263.502
-38.8107 403.969 400.501
23.7144 113.433 144.827
-396.004 825.864 -167.995
-167.586 -12.419 109.69
450.304 472.29 -62.3778
318.229 1408.06 -222.323
-160.348 77.6745 -344.7
-154.207 671.601 -770.47
13.8294 100.277 -444.665
-554.897 56.3569 -118.3
-690.773 186.619 -131.299
-191.671 -112.83 -225.916
-424.414 -6.61015 -393.004
141.563 -337.242 298.726
-206.539 -209.863 81.7391
-79.432 -199.531 144.657
175.05 -180.552 -121.599
5767.33 399.904 7944.88
-3428.14 -4092.69 1628.34
452.085 23288.9 6253.26
-99064.9 9118.74 -201963
241.057 354.817 470.243
419.61 478.903 215.758
-78.5437 -80.5014 320.774
34.489 100.925 477.629
166.808 13.8906 120.033
167.025 56.3721 431.94
-1126.55 -344.382 -651.528
-1422.12 1717.69 -594.652
-177.66 -294.943 -120.427
-11748.3 -163035 -370659
-33387.4 -12682.8 36113.5
-10057.1 -20165.1 5906.73
-822.604 1374.91 -6174.07
42650.1 106346 52391.8
-27041.5 -200474 81817.1
616338 217391 73957.3
-6984.49 -10953.3 -49947.4
-189932 -122.614 24679.5
1.19097e+07 1.23775e+07 -1.24838e+07
-1.91335e+06 -1.92258e+06 -1.64781e+06
-4.73123e+06 4.15343e+06 1.66929e+07
-213.321 -367.033 260.644
7329.07 -5573.98 8020.01
-150.608 -195.244 -263.908
-280.365 -340.784 -77.7182
830.946 854.847 2606.3
-223.53 -471.848 133.965
632.194 -933.297 290.553
148.946 20.6075 -417.558
-27.7148 -103.085 -284.958
358.186 319.339 -56.06
307.991 174.168 -257.01
158.597 -131.833 -368.421
389.945 95.5303 -559.436
378.619 16.4782 -284.59
-1012.99 25.9639 -826.469
3014.64 -503.907 -298.957
14186.5 4700.12 -1600.09
664.163 -1373.64 2003.96
471.43 -934.647 107.708
-1219.91 -978.904 -1036.34
-17956.6 47350.3 16805.1
-949.449 4179.08 2735.3
7019.59 -4826.43 10044.4
-20645.8 12202 -18696.3
4789.99 14744.7 -8952.67
7946.6 -252830 247524
-76064.4 -86572.1 -129905
-301888 8.29159e+06 -2.887e+06
-850698 -440326 -477073
2.89455e+06 -1.09564e+06 1.70569e+07
2691.46 22321.3 7402.65
-6397.52 -5271.84 11119
1.08255e+07 164669 -1.73498e+06
-628876 -966319 -904816
-1983.49 1688.43 3284.65
112404 -58483.3 37407.9
-27589.6 -11564.5 -9700.57
-482.32 -1470.17 413.138
5549.24 2512.31 621.092
732.296 -655.712 -567.22
389.58 -27.7605 1200.26
69.6704 -50.3196 -159.258
-165.235 -53.3553 236.339
132.921 -371.62 -317.55
-492.747 263.63 17.248
505.454 -212.855 -203.843
-24.8462 289.886 -409.236
754.077 -774.89 -93.5763
1988.77 -560.598 954.163
-1919.12 892.342 1275.46
-362.314 -173.714 -246.594
-219.532 178.792 660.389
-1.2709e+06 -2.61373e+06 -1.74771e+06
-156806 -79367.3 281239
-134408 194785 185289
199001 65568.4 -25264
-1.61732e+06 -1.68835e+06 -1.6145e+06
-17598.8 105823 128913
-40.6833 -328.604 -302.285
-387.028 -213.538 494.34
-128.65 -301.998 -344.229
655.767 48.0881 165.437
656.917 36.1174 -126.283
699.537 327.809 38.5192
332.336 -294.492 127.118
-933.576 464.921 374.91
-479.697 216.149 469.848
-99.6076 -1285.03 527.055
9.06492 22.7683 -477.629
-850.4 -423.163 418.452
-515.712 207.127 336.191
4.30179 -119.799 -292.044
-120.869 249.815 -153.558
41534.8 -156723 -236000
-73139.9 -36094.7 92688.7
-8050.71 175896 -108385
8050.86 11220.2 2595.54
13165.3 -18026.8 -40741.5
-32870.8 -5113.86 32334.9
-13480 -13865.1 10965.4
4984.16 34863.8 -17231.1
994.046 102.997 -1300.81
-109.289 9.49191 160.973
-121.185 -147.762 -1.96937
-115.176 -57.8727 120.507
-1040.14 134.267 1048.28
-35.7793 26.0551 316.733
-220.677 -157.294 62.8178
-568.305 -823.391 -376.06
-1747.36 -145.537 840.286
-365.525 -1506.26 684.385
159.024 214.133 -254.896
-256.275 -69.659 419.963
-319.071 753.762 -2024.71
-641.018 717.951 319.377
469.533 -1283.22 -255.58
-353.483 187.201 322.448
-353.136 180.849 227.725
-299.051 591.673 259.547
-301.421 292.535 229.525
-236.896 451.737 339.038
-58.8326 45.9041 196.954
-127.298 55.6059 214.99
-115.119 168.972 315.919
-137.436 109.3 277.445
-65.2944 152.5 342.389
-213.092 59.4603 255.062
-292 123.43 317.402
124.388 197.165 72.055
139.174 297.954 192.024
46.7592 90.0838 61.1922
-79.0734 545.613 394.045
120.686 550.295 376.01
124.676 864.255 378.549
26.8751 219.781 289.116
58.3962 316.055 299.305
-82.6365 142.633 246.004
-251.076 218.484 340.483
-148.265 241.594 345.353
-187.25 333.352 357.062
-519.708 547.316 50.4019
-304.892 536.149 -416.124
-260.793 1023.58 124.329
-421.234 712.891 65.3659
-471.661 314.372 -137.491
-461.506 460.785 -82.5845
-482.983 608.087 -352.445
123.772 154.762 15.5803
430.613 596.298 100.568
584.56 1243.19 -677.38
619.415 998.638 -133.142
757.077 800.833 -428.247
407.014 1084.52 182.217
35.4793 1127.46 169.346
-78.1485 5.59616 -207.658
-72.467 87.9689 -343.294
-37.3926 8.59707 -221.933
-339.62 466.454 -534.788
-178.153 251.909 -515.569
-301.97 212.096 -451.019
219.339 347.271 -814.854
-25.4857 321.876 -683.818
260.911 956.256 -1101.41
-133.151 1189.53 -219.708
35.3896 1085.78 -605.543
-323.263 1037.97 -609.997
-709.236 569.346 22.8207
893.38 -739.508 -220.283
-513.048 211.923 -243.865
-426.021 164.829 -48.5363
-521.979 -184 109.305
-161.097 -123.867 100.349
-366.419 -169.768 64.4909
-95.9281 -46.7534 -179.486
-162.963 -15.4831 -272.969
-341.661 -166.229 -206.143
-285.125 -73.1781 -333.58
-275.897 -197.832 -187.299
-281.483 57.3421 -389.898
-424.893 156.796 -390.598
193.831 -140.397 214.875
-30.1512 -166.252 125.97
117.148 -83.4327 193.138
-317.952 -221.936 95.9763
-141.777 -232.612 128.258
-180.279 -334.668 134.668
-208.185 -261.643 79.5133
-153.217 -215.124 98.3648
-259.118 -220.369 3.38151
-527.988 42.073 -288.765
-393.376 -141.39 -149.313
-397.503 -140.222 -40.9473
-1124 671.962 465.285
-200.119 -717.442 91.2473
306.747 -297.777 9.04703
-31.2977 -354.421 -22.9939
-1259.79 -2913.01 1546.81
-938.581 -5058.57 2365.84
-976.698 -569.306 -892.625
-4315.36 22210.7 7466.65
6243.09 -8202.09 -5142.68
-7985.27 -31130.7 -8105.02
1019.48 -2179.37 692.822
282.931 -1228.58 333.732
-85110.3 -71791.6 98937.7
373081 -13227.9 75500.1
2136.92 949.981 -1376.47
517.935 31853.6 -2346.06
-22773.6 -11414 116833
49007.4 -3531.1 332.289
-18663.6 3406.88 -59529.7
-1650.58 -4544.41 1701.78
4821.3 -1594.93 440.296
-2768.74 -2952.69 -2813.01
177.81 277.31 179.095
122.631 149.888 58.7942
90.0424 284.133 411.47
162.381 333.525 324.718
628.124 524.964 377.954
350.341 445.567 369.073
438.372 390.676 497.946
-57.8836 -13.8342 211.613
-43.7183 26.2449 276.743
18.478 -22.0052 503.217
-30.9813 -4.19738 409.321
-73.0312 -131.192 418.301
-29.1335 91.0732 363.348
19.0346 195.705 430.336
1551.51 791.231 -22.0119
-630.583 -532.721 -1304.47
1139.05 1502.49 2112.45
409.078 230.509 508.427
555.438 190.668 645.478
521.546 155.873 395.557
73.7171 -94.4237 597.451
714.575 33.8318 1132.03
42.4481 -58.9563 423.498
129.568 232.947 508.263
127.558 102.778 539.814
276.358 257.656 558.521
-181.965 -264.462 -177.85
-109.383 -78.6518 171.632
-958.478 -620.364 545.816
-1356.63 -448.353 572.05
-327.869 739.764 -1.08236
-109.68 100.763 599.207
-230.824 -820.163 632.337
445562 251553 57943.2
-231782 -9233.77 227619
-6605.47 4300.67 -69365
119928 117598 -1296.53
-167614 -62897.8 211557
10161.2 -33478.9 -102037
18479.1 11766.4 2335.92
27195.2 40913.2 62468.6
5123.69 26638.2 -72031.1
-53106.3 -165766 87438.4
1694.64 -839.678 1016.76
1240.11 15025.4 11371.9
-119.064 1149.76 -1899.21
43257.5 -2190.12 -42466.6
-21932.8 -50996.8 391.723
-27060.2 16491.6 8041.15
-213.966 -761.659 -3769.74
30005.2 -4831.17 12924.2
-5421.33 -3910.68 131.271
-299423 32885.4 304888
-114032 -163505 -519606
-70091.6 43494.7 -150744
164385 33658.4 66781.9
31427.2 -226817 488322
-164473 73461.6 -335106
107741 -297420 -246173
5481.95 -4630.73 5431.28
-20646.8 15823.1 15490.4
-55073.9 -265381 -250814
59776.8 4262.83 19910.7
-133586 -21849.1 253922
10716.5 32281 -88546
30828.7 55128.5 136708
1.26071e+06 -137644 3.65068e+07
-1.38875e+07 -1.33899e+07 -1.15363e+07
2.22628e+07 1.20496e+07 -1.60125e+07
1.80832e+06 2.22333e+06 -1.22814e+06
-721854 -42883.4 1.13297e+07
-3.3332e+06 -4.72467e+06 -3.71848e+06
-3.36998e+06 -3.33562e+06 -2.9086e+06
7.4385e+06 4.31717e+06 -5.29269e+06
-10775.6 -356562 2.46106e+06
120508 -73418.9 -87772.4
312302 618541 -83850.4
-422527 11039.7 475374
-63.2918 -507.292 238.482
-1521.12 -3656.1 -1693.76
-240.659 -320.756 105.534
-139.866 -276.772 237.631
19722.3 -3399.31 512.097
-557.355 -1160.53 -623.653
2188.19 -2100.86 1725.49
-76.7732 -74.9059 -176.22
-150.906 -143.405 -188.491
-268.748 -374.841 -73.2469
-233.248 -277.077 -214.815
-227.726 -330.491 -232.332
-243.755 -229.115 -195.204
-284.433 -299.165 -72.609
-10452.8 16126.1 -6537.85
946.626 -2030.34 -798.6
-3909.19 2616.43 1442.2
-157.844 209.927 2029.91
1289.53 3372.71 -2159.6
[...]
POINT_DATA 642
SCALARS Mean_Curvature double 1
LOOKUP_TABLE default
15.3961
-1.98694
0.0240239
2.86552
-0.549669
6.16298
2.46825
1.41048
6.37249
8.61632
2.57426
0.291072
5.68381
1.69932
-0.897788
1.86651
3.53918
5.19816
3.82842
2.56644
-2.27461
1.08181
2.67142
3.08543
-1.65676
-3.02444
0.277993
0.274719
2.64646
-2.47943
2.68891
2.0004
8.4596
-2.39313
-0.565927
-0.374982
-0.633339
0.355266
2.55549
-7.22466
3.63114
2.62338
-3.64061
10.451
-1.86528
0.0420184
-4.41435
0.845926
1.9581
-9.5646
1.13654
2.51549
8.11158
2.31744
1.31586
3.85241
2.33772
0.13555
4.47887
0.386613
3.75285
5.47945
3.0414
4.79622
3.13232
5.06167
8.44707
2.07394
4.71668
6.15469
1.61371
4.33802
14.0706
1.95966
-3.77757
3.3674
0.89173
2.50409
3.29261
2.53369
2.31887
1.62336
2.13465
-7.09396
9.38327
-2.57345
-0.0947923
1.1612
-0.707518
-1.06059
0.725657
-2.76596
-0.309995
1.87499
-0.70175
-0.0323465
0.137932
-0.041173
1.06163
4.70962
2.05686
2.26349
-2.09779
-3.77859
-3.8238
1.56729
1.40849
2.58942
1.47052
2.70438
2.92442
3.455
2.18984
3.3581
13.263
11.6761
7.00276
-9.54967
-4.04816
-3.37991
1.27393
-0.625918
1.16207
-0.425178
1.0613
-0.0559587
0.306547
0.0433247
-2.51239
3.71493
0.0551999
0.251665
-2.0478
2.88437
0.987418
2.75812
-11.3648
-1.89096
3.3576
1.28091
-3.15001
4.10638
-5.41536
5.04287
-0.309013
10.1498
15.9381
3.21128
-3.5433
4.18677
-0.0992148
0.600495
-0.0271609
1.13441
-0.144948
0.595139
2.09239
-7.49361
2.09645
3.43721
3.18693
2.96676
-6.41558
16.6124
9.80686
-8.258
-3.7503
12.3266
5.23376
-2.26735
-0.136396
0.353709
-0.722141
0.452301
3.02671
1.16316
-1.08404
-4.78442
-2.4699
-1.72817
3.27903
-2.436
2.10413
10.1927
1.2566
-0.973333
-8.23076
10.9804
-3.61352
14.028
-2.14266
-10.0343
11.5614
-16.5833
2.80564
3.00149
3.78134
2.86496
2.70484
4.23009
2.47992
1.60078
1.90612
1.99378
2.10631
2.60678
1.66591
2.31867
-0.578195
2.66078
2.94105
3.81421
1.38444
1.95841
0.697743
2.08628
1.80633
2.09146
9.02884
8.90161
4.65568
5.3741
3.95243
4.59258
4.54457
0.879824
4.73852
5.77798
5.1198
5.03146
4.96663
4.36539
2.009
2.887
1.80049
4.05311
3.65685
3.70807
4.38471
4.26435
6.17471
4.79033
4.79288
5.46371
12.8524
-14.9838
4.32779
4.07131
8.18705
0.542355
3.94244
1.75083
2.81422
3.4525
3.56415
2.40515
3.61961
4.10232
7.73361
4.76042
19.76
6.58475
6.72788
-10.739
3.54769
2.76354
2.69176
4.85414
3.96347
3.90721
18.0234
-1.72331
-7.07744
-3.0858
-10.9007
-0.820257
-8.08674
-0.692424
6.6861
1.85769
3.92387
6.55566
-0.8118
0.370066
-0.818728
0.317237
1.83546
1.15328
2.72598
-6.82651
-1.55184
-2.75389
2.21305
1.10933
2.06513
2.17126
3.45515
2.75878
2.95134
3.54952
2.74744
2.4323
2.41729
2.43621
2.26126
2.15554
13.4253
-10.4187
10.8162
3.03521
5.32175
3.46242
3.60287
8.42546
1.94036
2.38723
2.47834
2.76292
-4.1423
2.83799
-1.42049
7.83193
-3.234
3.70199
3.86406
0.15309
0.393162
-0.938436
0.39863
-0.461567
-0.742876
2.35309
-0.449431
0.333678
0.478113
-4.92757
-1.11874
1.43284
1.2207
1.85747
-1.5266
-1.4162
4.29683
1.84353
-0.363278
0.209198
-1.68825
1.00699
0.296811
0.336447
-0.675681
3.29537
3.28043
-0.534811
0.86871
-0.412261
3.42736
0.624917
0.0248681
-0.0281258
0.0262058
-0.191918
0.0536329
0.0659281
-0.0858118
0.0584817
0.0626695
-0.524255
-0.262734
-0.179854
1.36416
-10.8531
2.58904
2.91804
-1.03803
-9.45947
3.93026
1.40162
1.40509
2.20518
2.11544
2.14241
2.23707
2.50322
5.56248
-2.92953
-7.62882
5.12729
4
-5.69685
-0.39675
11.7836
2.04309
2.44433
2.39556
-4.1458
2.52291
1.86107
3.85813
3.38502
1.86595
1.6077
2.02884
0.348702
0.313625
2.74184
2.16899
2.87863
2.3945
4.39984
4.42123
3.76801
4.94476
2.34486
2.68178
2.14182
2.86658
3.12831
2.74553
1.02331
2.60654
2.47888
-7.21726
-3.16097
2.74521
3.04636
20.8379
-4.99468
5.2319
1.52498
6.00495
-11.0162
5.74605
7.41567
6.98213
-10.8916
-0.759887
10.659
10.9214
-6.58148
-0.926114
1.06065
0.0278953
-4.09903
1.83378
-0.884729
-1.57665
5.51718
-3.19217
4.18798
9.39341
-0.762335
1.78114
0.365424
-4.44792
1.46447
-1.02137
4.56774
-1.63719
0.32174
0.567056
-0.63757
-0.635093
-0.358993
1.26855
0.90367
0.035167
-0.040455
0.0246156
-0.159535
0.140471
-0.198682
-0.0814607
0.0942122
-0.304834
2.52794
0.604389
0.782304
-1.44455
1.53443
-4.74783
-3.45935
2.36159
-2.09606
8.15803
0.0328771
-0.0497263
-0.222738
0.117831
-0.145375
0.102861
-0.376782
2.60256
4.66771
1.40837
3.39001
-2.36824
6.98198
-2.00352
1.16047
-0.646182
-0.666324
-0.595623
2.9398
-1.83372
4.52708
2.35446
20.8838
-3.4472
1.9617
11.6348
-2.8315
5.59202
6.61601
6.12934
-0.720936
8.79211
-3.48872
6.985
0.574587
3.26452
-4.04945
14.2362
-7.27599
-2.12166
1.15119
8.4575
3.73505
-5.24468
4.41543
3.52179
20.4197
-2.43546
7.38432
3.89482
4.31244
2.02231
8.67454
1.52863
3.17486
13.3185
-6.30441
-2.01063
-12.0391
-8.56146
11.4961
1.4991
-0.0300147
6.18983
6.9028
-7.82009
3.48626
0.893717
-2.81842
-5.33594
-0.579966
-5.21484
7.37056
1.4433
9.83487
-9.94291
6.61257
2.85994
4.19787
0.391841
1.53952
0.0759575
2.40844
6.35711
-6.35499
-0.0274675
-0.157395
0.0544383
0.0577175
-0.165095
0.41972
-0.513366
0.960393
0.486677
-0.309393
-0.249659
0.449161
0.303181
0.358672
0.722804
0.399826
0.559961
-0.369323
3.77152
-0.743281
-1.09766
-1.52398
-1.49652
-0.0350898
0.139943
0.071933
0.0813974
0.201137
4.9372
-3.80794
-1.53166
1.04487
-0.453392
-0.294383
0.275526
0.90796
3.27386
5.25716
3.12229
2.32951
1.9624
-3.08315
1.26165
8.4583
7.32657
-2.90597
1.7075
1.96519
2.05354
2.11678
2.2675
4.52546
3.30722
2.05739
7.64674
4.17963
-2.16311
3.42041
3.01208
3.9211
2.84949
2.89208
3.53316
3.45586
4.01185
2.95347
3.53605
3.2968
3.02108
2.92514
2.8523
2.68334
SCALARS Redistribution_Potential double 1
LOOKUP_TABLE default
-5.40562e-06
-1.04411e+06
4.80557e+06
190116
345477
-579997
355890
-813731
-692838
-547890
289258
626075
167907
75595.9
-472640
-843651
-841137
-966522
-703715
-344913
-97768.6
522648
-576931
-861818
564063
-105957
1.4778e+06
1.67045e+06
-276565
449124
-926913
-746734
-100963
-71677.5
264920
1.47763e+06
1.09609e+06
1.26229e+06
133947
-214813
-165840
-611571
-280272
-287413
-447036
320722
171661
410418
-527282
-74933
-323832
-675428
-607741
-681250
-700220
-993414
-874928
-986995
-776951
-517345
-1.02644e+06
-943809
-793794
-873730
-882032
-470219
-374438
-666061
-586860
141815
-267075
46497.9
-54829.2
331474
275382
396816
740012
-895998
-994224
-577195
-747221
-686387
-753591
-601835
62467.2
-369181
650986
234221
76499.5
39645.5
517180
1.29197e+06
1.1012e+06
683799
933859
3.71017e+06
1.95703e+06
3.46443e+06
57063.4
409346
-651834
-350664
14121.6
69035.5
102655
-907905
-798486
-1.02133e+06
-989022
-710858
-871151
-788319
-11978
198254
300431
-493138
-171884
-469954
336172
120032
79392.9
455082
216000
705147
708696
2.65139e+06
1.40215e+06
3.2616e+06
625398
188884
2.97297e+06
1.57337e+06
48018.3
797865
513859
56295
91095.8
119043
63326.6
-450247
-82338.4
-512215
2309.87
-655147
-322133
-371658
-614709
-109584
-343609
-318747
1.93989e+06
860487
1.29837e+06
816368
1.70439e+06
768851
-513929
-232545
-555543
-765814
-801481
-923719
-392467
-384112
-378203
64979.9
-224064
-175048
-459515
-340022
-326815
486079
359517
517193
120954
251165
208886
324366
263034
-106692
-570398
-448341
-511479
-394381
-375563
-495148
25406.8
-340657
25355.5
73007.4
-170828
-63397.7
-514211
-483689
-580088
-556871
-729594
-641699
-762689
-618548
-623648
-782890
-697414
-760218
-610466
-595841
-1.03363e+06
-1.00166e+06
-1.03084e+06
-864332
-944617
-928604
-921578
-943775
-867894
-693586
-791135
-784201
-555431
-392820
-810730
-692321
-628556
-657822
-742158
-1.04246e+06
-1.0187e+06
-964680
-994901
-1.00044e+06
-971945
-902901
-814015
-848644
-840936
-799310
-834435
-756977
-925895
-888349
-928639
-871821
-910644
-837344
-442883
-429316
-592132
-515018
-259731
-410126
-320312
-774163
-745770
-486161
-631674
-518289
-705086
-655042
219517
69227.5
195451
-201798
-72425.3
16804.5
-150624
-122504
-313948
-532404
-441265
-384939
-349154
-11322.1
-185245
-139419
125040
368482
322354
448019
339332
543967
230813
125637
522346
700002
-16209.4
358296
701327
524265
518419
249407
150722
243153
-1.00263e+06
-1.03394e+06
-881633
-949435
-934757
-952714
-888335
-587938
-646787
-670856
-661202
-571287
-721942
-803813
-627415
-651008
-606306
-812925
-731433
-778073
-591023
-677943
-676876
-827009
-757850
-829652
-383754
-524198
50896.1
-258553
-169451
-201933
-124402
677534
470290
385402
452312
665082
291537
124228
217861
251161
430370
41439.8
112528
-12460
547265
266030
294561
49695.3
197092
155704
962476
806548
980724
992964
1.56108e+06
1.26491e+06
1.39278e+06
376186
635757
1.01434e+06
731942
930126
664658
763299
4.7034e+06
3.99104e+06
4.48716e+06
1.92092e+06
2.89095e+06
2.43639e+06
2.31181e+06
2.77848e+06
1.73366e+06
1.04589e+06
1.34427e+06
1.42383e+06
239897
337455
-161965
49200.2
480836
267633
262221
-773514
-677869
-318850
-517964
-475221
-532610
-359027
365869
212137
134237
198777
263285
459990
-70623.8
39779
-111517
-158657
-140804
57436.6
-856616
-816011
-948591
-903170
-771639
-854745
-839831
-1.04221e+06
-1.03694e+06
-967806
-1.0123e+06
-982000
-1.01777e+06
-987668
-701524
-761609
-727065
-818217
-792179
-726185
-859801
-834465
-906521
-953537
-939191
-896457
167139
261581
184453
-161961
163876
110741
354643
74597
257693
-500510
-475943
-562442
-180621
-303669
-260945
-299501
-301409
-83436
349176
124687
197811
157948
260122
249737
103560
113398
-114444
-46653
-100861
34378.2
393528
257519
556698
207110
687530
507350
1.01018e+06
496518
486707
1.25157e+06
853295
1.05842e+06
548154
154609
3.96686e+06
3.1741e+06
4.4147e+06
1.48945e+06
2.0437e+06
1.7624e+06
2.09008e+06
2.21094e+06
1.43425e+06
733891
965521
952481
349516
180069
1.17865e+06
441252
387376
146703
371397
4.07263e+06
2.98298e+06
1.44316e+06
2.19476e+06
1.95957e+06
2.10394e+06
1.52445e+06
409317
478252
319769
345262
513395
249945
836285
734641
942864
1.11135e+06
1.09023e+06
778576
95611.9
129508
137204
145117
19947.9
168190
48411.1
108288
201542
-78540.8
752.684
-56387.4
206161
259672
-628408
-499973
-641694
-73819.6
-328446
-170071
-352267
-320567
-183118
61939.6
-54939.6
42546.7
123075
-25292.9
-44043
47508.5
-253616
-684779
-574377
-499667
-525724
-627660
-417472
-160281
-516927
-539970
-180171
-401403
-604958
-511591
-494522
-284234
-330488
-196390
79916.3
-131772
-8252.32
-28134.5
-86464.3
-532770
-468206
-504112
-368400
-211453
-492360
-198503
-337208
-463233
-456725
-185409
-326409
-194737
3.96754e+06
1.80476e+06
2.72127e+06
2.90372e+06
1.9624e+06
580116
669066
680665
760827
1.11906e+06
909364
1.52148e+06
1.26853e+06
939454
876764
1.36034e+06
897500
1.41146e+06
457373
1.07142e+06
806639
450096
745596
3.46946e+06
1.7302e+06
2.57848e+06
2.44179e+06
1.57884e+06
604085
754325
532970
757417
1.13895e+06
1.10051e+06
1.22211e+06
940559
-629583
-373342
-509985
-625968
-636760
129223
-233485
-69546.3
-107112
-209767
-738361
-659298
-694384
-600708
-428325
-381947
-395616
-527078
-642181
-699694
-678005
-729108
-819620
-735122
-871140
-801506
-728333
-715306
-1.01601e+06
-899694
-966364
-981584
-932720
-789315
-868067
-850560
SCALARS CoVolArea double 1
LOOKUP_TABLE default
0.0115884
0.00158921
12131.8
0.535082
31.2376
0.00185649
0.673281
0.00151953
0.00177393
0.0128574
0.00501278
100.041
0.185014
1.46412
0.0127776
0.0132108
0.0142678
0.0131312
0.011524
0.0108872
0.0131432
2.40869
0.0138208
0.0143864
4.37203
0.302517
145.303
135.249
0.0136042
0.585579
0.0135954
0.0148139
0.0632717
0.0878877
0.38123
107.667
22.99
72.0552
0.320942
0.0138507
0.170783
0.0119684
0.0128433
0.0527321
0.00882635
34.9226
0.719766
9.14109
0.00877145
0.0652098
0.0249171
0.0133696
0.00894514
0.00767302
0.0129233
0.00978201
0.013757
0.00924454
0.0130586
0.00713294
0.00859746
0.0141283
0.00719773
0.0123701
0.0075251
0.0110658
0.0109881
0.00832763
0.0103798
0.00879141
0.00925322
0.00582029
0.0343375
0.42336
0.194906
0.667195
16.6115
0.0139237
0.0106443
0.00933556
0.0129858
0.00816896
0.0133387
0.0135874
0.203524
0.0116457
116.223
7.11187
15.1914
1.54146
17.5358
3.07044
98.4139
1.51165
10.9277
8814.88
520.124
6025.11
0.0121537
0.187292
0.0104565
0.0131768
0.318617
0.0154526
0.0510684
0.0128359
0.00966836
0.00896752
0.0124489
0.00989677
0.013574
0.00847811
0.268835
0.255906
0.246652
0.0205845
0.040451
0.0201998
1.88367
0.278106
4.88327
1.41688
1.41532
42.9775
8.99722
2155.96
106.483
5383.59
0.760462
0.397256
2873.04
160.534
0.331442
2.75041
1.68848
0.218267
0.349086
0.128934
0.0530996
0.0123215
0.0386294
0.0102058
0.114634
0.00850894
0.0182209
0.0156782
0.0118035
0.278952
0.0163035
0.0197877
775.093
28.4221
24.7492
9.17303
405.154
10.4811
0.0136841
0.0168388
0.014177
0.0125226
0.0127546
0.0140272
0.0100934
0.00898482
0.00870991
0.156878
0.0258006
0.0470704
0.0122088
0.0128168
0.0207653
77.4023
21.6069
42.7672
1.72666
7.39408
8.5474
0.528838
2.51033
0.435713
0.00448701
0.00863407
0.00573855
0.0215595
0.0167485
0.0116705
0.106674
0.0346974
0.269287
0.215624
0.357769
0.0933419
0.00813934
0.00967495
0.0133145
0.0113477
0.0121846
0.011125
0.0136906
0.0036949
0.00697229
0.0129636
0.0104448
0.0114005
0.0108516
0.0130396
0.00451003
0.00810796
0.00442552
0.0141113
0.0122033
0.0134323
0.0125403
0.0117859
0.0135031
0.0139348
0.0139985
0.0142187
0.00716471
0.00865104
0.0138504
0.0106987
0.0109293
0.0101938
0.0123586
0.00410983
0.00803381
0.0137743
0.011735
0.0120772
0.012296
0.0143942
0.00359673
0.00617321
0.00356891
0.0118778
0.0095009
0.0100667
0.0112993
0.00993496
0.0130787
0.0144713
0.0142149
0.0135763
0.00810993
0.0108886
0.0112175
0.0098614
0.0113977
0.0103396
0.0110506
0.00418709
0.00659735
0.0105283
0.00943533
0.0106765
0.00906411
0.0107172
0.00510352
0.00454833
0.00248977
0.0100758
0.00775643
0.0125606
0.00920523
0.00750958
0.00976556
0.0110184
0.0104382
0.0106646
0.011807
0.0226515
0.0129141
0.0229336
0.116201
0.0706746
0.0265761
0.611505
0.224269
1.11738
0.045098
0.0337581
16.4099
71.6661
0.249066
2.04818
4.10308
3.64695
1.55743
0.0690843
0.490744
0.261277
0.00856401
0.00485152
0.0134258
0.0119763
0.0141265
0.0128745
0.0145052
0.0045847
0.00701693
0.0135787
0.0112002
0.0126796
0.0104209
0.0128435
0.0104759
0.011298
0.0205115
0.0136719
0.0111546
0.0121613
0.0129223
0.0116977
0.0137207
0.0139205
0.0140342
0.0142907
0.010685
0.00583893
0.396892
0.0491534
0.0314284
0.0399474
0.19884
164.691
83.2045
8.4329
40.7784
30.4369
21.9144
3.0678
30.4923
21.3204
44.9002
0.551247
5.95335
3.11395
3.80551
4.69391
2.97966
0.881759
1.52811
0.613565
62.352
162.646
4.44819
7.65109
28.9401
17.2379
18.7219
0.208692
0.598653
25.9015
4.50523
8.07015
1.97913
3.65422
16490.1
10179.8
13145.3
370.847
3420.25
1880.24
1302.51
2852.55
357.159
13.8268
51.3659
45.0487
0.00745421
0.0336851
0.0113587
0.0090562
0.356021
0.0182782
0.0537852
0.00481103
0.00821716
0.0139509
0.0123897
0.0138008
0.0110458
0.0120211
0.482672
0.155095
0.226455
0.0622053
0.062121
0.149505
0.0160679
0.0185386
0.0126418
0.0130523
0.0136614
0.0141321
0.00718691
0.00442696
0.012457
0.010381
0.013508
0.0115435
0.0141553
0.00425263
0.00713199
0.013191
0.0108538
0.0124742
0.0105557
0.0125589
0.00463948
0.00778902
0.0039529
0.0143806
0.0120915
0.0136718
0.012197
0.0113465
0.013369
0.0131446
0.0136568
0.0140606
0.332863
0.212488
0.452503
0.118905
0.188405
0.144543
0.490449
0.362548
0.443982
0.0241254
0.0220649
0.0237309
0.0573378
0.0204735
0.0288331
0.0271586
0.0231313
0.0510282
17.7435
4.61415
20.101
0.269924
0.608984
0.731346
0.417935
0.416459
0.216076
0.096118
0.103575
0.214395
0.897926
1.15248
0.826053
0.702865
1.85787
1.08516
4.17634
51.4417
23.3136
18.9378
22.1173
29.6345
6.13333
2.07505
8042.43
4672.84
12923.2
45.6501
635.954
266.856
1134.22
1180.72
146.024
2.7913
17.0196
13.5281
1.52312
0.733241
1.64969
1.38867
0.413494
0.878925
0.466291
8549.05
3262.37
149.713
800.369
512.835
740.092
83.8216
0.812718
0.664394
0.935027
0.379316
0.818486
0.124467
5.99144
2.8236
21.1559
14.3406
28.459
1.62115
0.355087
0.376659
0.241149
0.13558
0.240387
0.226091
0.263668
0.436475
0.245407
0.0255242
0.0656641
0.0277734
0.121814
0.114841
0.0053053
0.00925628
0.00521041
0.0903586
0.017032
0.0308189
0.0136075
0.015847
0.0281927
0.138816
0.067134
0.174432
0.325124
0.121729
0.263899
0.219726
0.100361
0.00428415
0.00826056
0.0123432
0.0110473
0.0112942
0.0139893
0.0538691
0.017198
0.0147266
0.0336511
0.0166299
0.0110714
0.0107615
0.0118975
0.0563809
0.0183937
0.0410024
12.0674
0.264803
1.06981
3.2534
0.279651
0.0203163
0.0135282
0.0131494
0.0176621
0.0587551
0.00913334
0.0672298
0.0126616
0.0119927
0.0133556
0.0724873
0.0208429
0.0722505
10345.9
504.255
3068.64
3529.77
474.869
44.8166
6.64833
12.397
33.5615
58.174
159.821
44.4741
74.2981
70.306
12.4557
102.52
20.0334
90.621
1.04267
27.3877
2.41319
0.878764
1.75713
6068.49
425.788
2032.35
1454.86
219.813
0.459298
1.36866
0.664987
3.10165
51.8319
81.3303
104.15
17.9035
0.00870249
0.0132245
0.0122004
0.0124717
0.0144649
0.11799
0.0138494
0.0364478
0.0534056
0.0162816
0.00881282
0.0145125
0.0126506
0.01291
0.0141017
0.0135264
0.0138414
0.0143687
0.0094083
0.0121344
0.0101689
0.0103317
0.0135366
0.00703174
0.013338
0.0108482
0.0105801
0.0123995
0.00858172
0.0144972
0.0128663
0.0120417
0.0137225
0.0133458
0.0139919
0.0141158
SCALARS SignedDistance double 1
LOOKUP_TABLE default
0.0927554
0.306121
5.05816
-0.0116824
2.65265
0.180179
-0.204923
0.371887
0.0597103
-0.0749837
0.0118798
3.73847
-0.26623
0.930017
0.127404
0.231708
0.0895019
0.139455
0.176428
0.253003
0.0225966
1.63632
0.0424538
0.0666719
0.350931
-0.259678
4.07442
3.3077
0.154037
-0.14129
0.169723
0.230192
-0.327702
-0.310645
-0.168203
3.41996
1.65352
2.55116
0.293231
-0.0471505
0.238578
-0.053785
-0.0739256
-0.0586938
-0.00783036
3.38086
-0.248669
1.67305
0.231126
-0.0239476
0.173213
0.137334
-0.0110688
0.195978
0.299859
0.200327
0.240427
0.307451
-0.0192227
0.04931
0.237621
0.000119359
0.297905
0.13827
0.280649
0.0776425
-0.00805021
0.396525
0.239643
0.0654619
0.171979
0.105716
-0.142308
0.334532
-0.112698
-0.319973
0.929057
0.160032
0.2373
0.106679
0.101125
-0.0209048
0.0165912
-0.0586932
-0.335245
0.0987409
4.31497
0.538542
2.21996
1.29683
1.78134
0.791027
3.95679
0.213686
1.4796
5.05816
5.05816
5.05816
0.0913104
0.0767428
0.341104
0.243713
0.765088
0.0744859
-0.119474
0.356946
0.371781
0.261838
0.311826
0.121415
0.201258
0.0883781
0.324027
-0.174702
-0.318144
-0.0174421
-0.18999
-0.226537
-0.212758
0.0885899
0.394593
-0.361359
0.847161
1.86596
0.833072
4.05828
3.22265
3.65041
-0.407143
-0.241146
4.32704
4.1796
0.543563
-0.0220513
0.390989
-0.0799694
-0.298506
-0.240012
-0.167569
-0.020585
-0.200154
0.00803118
-0.424019
-0.011339
-0.149897
-0.138763
-0.0222858
0.361778
-0.0597816
0.0481638
5.05816
2.51326
2.15863
0.32273
5.05816
0.419608
0.111063
-0.00386438
0.211362
0.0129837
0.0267002
0.124133
-0.0402249
-0.0165217
-0.0132828
-0.1276
-0.0791768
-0.166815
0.0389149
-0.0170994
0.0237475
3.79354
1.0284
3.58725
-0.192016
1.1229
0.726403
-0.342702
-0.304798
0.630718
0.202152
0.194757
0.180338
0.113305
0.15321
0.193714
-0.210009
0.151825
-0.24482
-0.257656
0.553073
-0.0519845
0.000618161
-0.0323015
0.150856
0.0768647
0.00298581
0.021009
0.114657
0.188254
0.226876
0.268282
0.248395
0.202891
0.270477
0.230781
0.279726
0.274279
0.306893
0.161988
0.209294
0.132334
0.281354
0.294293
0.304998
0.227025
0.284623
0.195506
-0.0174683
0.0160583
-0.01061
-0.0137602
0.126122
0.048662
0.0938216
0.289233
0.211054
0.0239908
0.132468
0.171012
0.120922
0.0629462
0.346284
0.2929
0.343341
0.158125
0.230675
0.233608
0.194523
0.20922
0.08588
-0.0154938
-0.0138242
0.0458083
0.0670131
-0.0162306
0.15975
0.106538
-0.0198825
0.0451358
0.00230131
0.383565
0.35057
0.279425
0.334049
0.331463
0.294886
0.229728
0.0373991
0.096278
0.0574718
0.104242
0.132825
0.0507328
0.174941
0.164104
0.231209
0.140912
0.186043
0.096496
-0.00745328
-0.0674694
-0.0400196
-0.11769
-0.0971585
-0.0238232
-0.0542315
-0.3634
0.162094
0.252668
-0.00847814
-0.017246
1.12033
3.04094
0.446227
-0.306937
0.157244
1.33213
-0.0864777
-0.120936
0.72212
-0.263207
0.281778
0.299976
0.206842
0.248309
0.140285
0.206613
0.100913
0.160094
0.155067
0.0456282
0.0997774
0.0631064
0.148494
0.161889
-0.0149862
-0.0481737
0.0963154
0.0266012
-0.0135211
0.00232504
-0.000219099
-0.00285345
0.0169791
0.117346
0.0473197
0.0677545
0.137443
0.153483