# vtk DataFile Version 4.2
vtk output
ASCII
DATASET POLYDATA
POINTS 642 double
-1.1141 3.16058 -0.248734
-0.131559 2.93027 -0.214983
-1.29267 0.539522 -0.00615698
0.67454 0.554014 0.0076719
-0.365168 1.20812 1.04345
-0.592169 2.49697 0.63393
-0.344456 1.37096 -0.855108
-0.733785 2.84832 -0.865147
0.569764 1.91568 -0.442638
0.727677 1.86744 0.54801
-1.33201 2.32935 -0.612832
-1.80398 2.13942 0.85566
-1.67911 2.9079 0.444566
-1.17812 2.43326 0.82473
-0.896114 2.88054 0.378743
-0.252838 2.80041 0.205665
-0.462539 3.34369 -0.210677
-0.167353 3.21271 -0.658718
-1.03633 3.13226 -0.810501
-1.15442 2.8478 -1.01743
-1.60292 3.0254 -0.628501
-1.84977 2.15768 0.0205598
0.151647 2.21527 0.690598
0.399033 2.39401 0.2401
-1.03207 1.61568 0.865574
-0.415728 1.91374 0.898153
-1.45668 1.31473 -0.361403
-1.58145 1.23135 0.477413
-0.556 2.28438 -0.854089
-0.908661 1.83433 -0.74184
0.211738 2.48522 -0.275243
-0.0969835 2.48672 -0.653091
1.06326 1.19511 0.466159
0.339265 1.51555 0.961716
0.206093 0.685277 0.800764
-0.934506 0.659766 0.823423
-0.351445 0.554647 -0.000680343
-0.813521 0.787738 -0.668666
0.148573 0.818897 -0.675292
0.186206 1.59759 -0.715916
0.81685 1.23306 -0.266509
0.871325 1.82285 0.0248667
-1.3451 2.98062 0.0835267
-1.28028 2.95884 0.485182
-0.987621 3.05284 0.109922
-1.49027 2.36055 0.961549
-1.46357 2.72764 0.812693
-1.83372 2.56499 0.705381
-0.769772 2.69419 0.533461
-1.08741 2.70235 0.650514
-0.879808 2.47212 0.708372
-0.649433 3.12642 0.018421
-0.792086 3.31499 -0.218507
-0.383198 2.65658 0.451311
-0.549058 2.89087 0.261429
-0.303107 3.1587 -0.246265
-0.388123 3.05404 -0.0319185
-0.191775 2.90465 -0.0173523
-0.659719 3.32504 -0.502857
-1.08497 3.18763 -0.631342
-0.178946 3.05414 -0.386456
-0.288008 3.40285 -0.473739
-0.885612 2.9903 -0.865353
-0.546533 3.19496 -0.656364
-0.470691 2.98433 -0.74481
-1.36506 3.2147 -0.872478
-1.38932 3.16692 -0.44236
-0.967096 2.86452 -0.946189
-1.18624 3.11314 -1.10014
-1.46184 2.72246 -0.685811
-1.43828 2.99088 -1.03621
-1.24776 2.69531 -0.903299
-1.60878 2.90831 -0.0741752
-1.58487 2.21021 -0.303089
-1.62188 2.58842 -0.239909
-1.85044 2.56536 0.254128
-1.85035 2.14908 0.460281
0.078674 2.58513 0.233178
0.0833412 2.65844 -0.00639616
-0.169846 2.32985 0.665265
-0.0150091 2.48782 0.475842
0.617147 2.18422 0.410404
0.335561 2.3337 0.478762
0.464612 2.07579 0.676909
-0.856721 2.19481 0.805868
-0.526234 2.21452 0.776177
-1.3963 1.95003 0.812142
-1.17029 2.12055 0.867288
-0.359454 1.56339 1.04418
-0.736526 1.8081 0.882572
-0.662889 1.34891 0.924834
-1.84896 1.69068 0.261162
-1.64142 1.77048 0.633336
-1.43494 1.78316 -0.446117
-1.68571 1.722 -0.187211
-1.35547 0.852744 0.23752
-1.62853 1.2083 0.0104887
-1.31397 0.876865 -0.142956
-1.0076 2.46146 -0.866796
-1.13619 2.1299 -0.705986
-0.699598 2.66784 -0.879547
-0.869947 2.63105 -0.914283
-0.611943 1.53029 -0.825615
-0.729394 2.13623 -0.844099
-0.39199 1.75985 -0.848464
-0.215371 2.8476 -0.635289
-0.414982 2.73796 -0.783672
0.00508054 2.74937 -0.261961
-0.0904792 2.83745 -0.439943
0.22497 2.14896 -0.535602
0.0698478 2.5087 -0.480275
0.433981 2.19596 -0.33748
0.992277 0.719245 0.253104
0.721586 0.860986 0.63176
0.506669 0.554336 0.399259
0.594494 1.69134 0.776365
0.686189 1.3239 0.699363
0.871631 1.49227 0.470314
-0.131806 0.934708 1.04339
0.297686 1.08803 0.912419
-0.0216895 1.34221 1.06164
-0.0295773 0.566295 0.443799
0.214835 0.554696 0.00397201
-0.591751 0.886768 0.935774
-0.345083 0.554645 0.917759
-0.858881 0.554312 0.00760901
-0.648176 0.554682 0.455665
-1.14737 0.554951 0.487422
-0.0582979 0.55472 -0.417165
0.432611 0.645624 -0.38584
-1.0842 0.637085 -0.353405
-0.64596 0.554668 -0.417608
-0.140597 1.09004 -0.837767
-0.364602 0.765148 -0.689403
-0.532359 1.10134 -0.77722
0.546999 0.994076 -0.472743
0.877359 0.835972 -0.21782
-0.0516391 1.47156 -0.853971
0.213255 1.2204 -0.710853
0.740352 1.54098 -0.362834
0.537829 1.3977 -0.571276
0.411133 1.73958 -0.60787
1.11847 1.14937 0.0132594
0.787539 1.85756 -0.219014
0.872987 1.49773 -0.102324
0.9152 1.45175 0.193986
0.86392 1.85067 0.313804
-0.0253141 1.71898 1.04465
0.274103 1.90213 0.868243
-0.114425 2.04165 0.824147
-1.23169 0.837289 0.636406
-0.936348 1.07086 0.781385
-1.31826 1.3939 0.768628
-0.811103 1.24819 -0.640321
-1.08307 1.04898 -0.408473
-1.17372 1.53428 -0.544936
0.0735201 2.01154 -0.681361
-0.163889 1.86972 -0.810388
-0.326856 2.38472 -0.795403
0.652481 2.13897 0.15849
0.620202 2.17703 -0.128998
0.343693 2.43707 -0.0312734
-1.21508 3.09064 -0.122023
-1.19239 3.0008 0.135924
-1.05425 3.13976 -0.0768068
-1.48823 2.95848 0.489536
-1.32422 2.96162 0.313692
-1.54088 2.9582 0.295159
-0.941114 2.96543 0.257041
-1.14511 2.96105 0.320528
-1.07821 2.89574 0.43667
-1.66294 2.26644 0.950225
-1.68998 2.48076 0.911835
-1.85094 2.36161 0.79781
-1.30703 2.55968 0.818943
-1.50658 2.5493 0.911982
-1.3246 2.40093 0.900577
-1.77241 2.75257 0.584027
-1.67539 2.68417 0.811848
-1.64394 2.86009 0.695284
-0.667398 2.58414 0.589293
-0.862671 2.59706 0.632631
-0.711505 2.48226 0.665715
-1.0156 2.7978 0.533764
-0.93856 2.69647 0.587754
-0.861033 2.8052 0.459581
-1.01843 2.45236 0.753653
-1.0066 2.58506 0.683937
-1.13475 2.57272 0.736729
-1.4087 2.87721 0.671228
-1.2555 2.71369 0.724828
-1.18486 2.8686 0.633127
-0.886751 3.26124 -0.0372596
-0.944473 3.2445 -0.247908
-0.769619 2.9926 0.200503
-0.809316 3.10172 0.0784421
-0.616642 3.38214 -0.185917
-0.685444 3.25288 -0.0802473
-0.554771 3.23582 -0.108257
-0.488832 2.57934 0.552529
-0.580657 2.68097 0.487756
-0.40549 2.86866 0.218943
-0.479219 2.77853 0.356984
-0.298907 2.73461 0.326739
-0.667182 2.79479 0.40725
-0.73511 2.88803 0.325217
-0.194748 3.01626 -0.234364
-0.255046 3.02611 -0.137321
-0.146404 2.9212 -0.139387
-0.437284 3.19057 -0.143959
-0.343591 3.11044 -0.143444
-0.382111 3.26157 -0.244872
-0.209404 2.85729 0.0827269
-0.289878 2.99066 -0.0349198
-0.3311 2.93522 0.0852373
-0.60986 3.01018 0.13807
-0.45777 2.98133 0.107695
-0.515622 3.11227 -0.0198198
-0.916533 3.24465 -0.42388
-1.1002 3.19128 -0.475176
-0.549622 3.53528 -0.321907
-0.720578 3.37381 -0.389465
-1.0683 3.17185 -0.726606
-0.89923 3.20931 -0.572905
-0.860706 3.1721 -0.656128
-0.16196 3.0009 -0.313214
-0.219555 3.11377 -0.333006
-0.201099 3.3519 -0.588752
-0.201056 3.23904 -0.43663
-0.188542 3.15998 -0.53227
-0.297716 3.26706 -0.342915
-0.365988 3.42182 -0.335032
-0.798762 2.91084 -0.867876
-0.707844 2.98626 -0.801297
-0.633869 2.89106 -0.821508
-0.831808 3.10981 -0.737097
-0.756868 3.05547 -0.769051
-1.0037 3.07811 -0.857977
-0.323587 3.09673 -0.674662
-0.511646 3.10624 -0.704088
-0.330819 3.26087 -0.688214
-0.456705 3.52687 -0.516486
-0.355271 3.4578 -0.671375
-0.604068 3.25841 -0.598174
-1.24743 3.19542 -0.572038
-1.27689 3.14933 -0.383055
-1.19669 3.26196 -0.90094
-1.24131 3.226 -0.771736
-1.55969 3.17407 -0.525334
-1.42712 3.28733 -0.703062
-1.59515 3.25949 -0.796275
-0.860441 2.8536 -0.909287
-0.944215 2.93284 -0.922781
-1.19288 3.02476 -1.15764
-1.08986 2.97488 -1.00211
-1.07879 2.87723 -0.988051
-1.07672 3.03577 -0.960586
-1.17469 3.14625 -0.987246
-1.37595 2.48271 -0.635709
-1.35434 2.71621 -0.833187
-1.28316 2.47026 -0.730434
-1.54744 3.05738 -0.87779
-1.46124 2.86156 -0.866958
-1.52381 2.88633 -0.685357
-1.21624 2.76992 -0.977849
-1.38989 2.82794 -1.04644
-1.31352 2.89346 -1.16779
-1.31742 3.14646 -1.03035
-1.39606 3.16477 -1.26294
-1.39056 3.11641 -0.98585
-1.37298 3.08281 -0.201726
-1.60197 2.997 -0.392491
-1.51888 3.08761 -0.272664
-1.5054 2.95916 0.017556
-1.68298 2.92175 0.206166
-1.45015 2.26904 -0.462646
-1.48195 2.45563 -0.466732
-1.77853 2.37815 -0.117985
-1.60647 2.40553 -0.276816
-1.75536 2.17407 -0.170349
-1.52898 2.65583 -0.472195
-1.58839 2.81413 -0.477434
-1.85058 2.35414 0.57581
-1.85046 2.14636 0.643788
-1.8505 2.78968 0.367937
-1.85056 2.56909 0.478106
-1.85048 2.15124 0.242494
-1.90798 2.36043 0.353559
-1.85037 2.36138 0.131657
-1.65254 2.76759 -0.178809
-1.76653 2.5711 -0.0052136
-1.8202 2.78907 0.100941
-0.0482976 2.77456 -0.0144533
-0.0439695 2.80088 -0.123762
-0.0840432 2.69398 0.220731
-0.0679493 2.74149 0.108139
0.23489 2.51202 0.120437
0.0963645 2.61206 0.13066
0.234894 2.48792 0.242621
-0.372027 2.41327 0.649611
-0.274136 2.49459 0.565789
0.0825672 2.36379 0.615058
-0.0833617 2.41363 0.580451
0.00465073 2.28072 0.698035
-0.186942 2.57171 0.461639
-0.12858 2.63194 0.355891
0.705074 2.007 0.505203
0.556265 2.126 0.551737
0.644034 1.97109 0.631113
0.40205 2.38519 0.373152
0.487642 2.2747 0.460318
0.508439 2.29181 0.326492
0.325382 2.13734 0.679084
0.444103 2.23236 0.620231
0.262368 2.28803 0.605657
0.0471877 2.54182 0.356089
0.161392 2.41655 0.482496
0.223406 2.46606 0.367668
-0.718301 2.35132 0.734485
-0.56777 2.36162 0.710717
-1.01976 2.31271 0.804538
-0.899538 2.33305 0.771507
-0.474546 2.08785 0.825022
-0.71076 2.20806 0.790321
-0.645787 2.05942 0.835574
-1.5752 2.04706 0.847878
-1.45975 2.13106 0.96024
-1.10867 1.90737 0.839483
-1.27759 2.04403 0.865425
-1.20353 1.77686 0.821615
-1.30728 2.22711 0.957934
-1.19149 2.27572 0.874755
-0.36022 1.34737 1.04379
-0.539368 1.44716 1.04402
-0.494741 1.2588 0.982291
-0.578441 1.85978 0.898982
-0.542712 1.67773 0.976699
-0.37987 1.76841 0.982919
-0.833628 1.46617 0.865614
-0.699251 1.56493 0.920497
-0.884673 1.71862 0.867264
-1.01401 2.16036 0.833332
-0.956493 1.97601 0.842988
-0.818314 2.02601 0.839247
-1.72341 1.96494 0.536984
-1.6668 1.97878 0.699868
-1.76956 1.94026 0.145589
-1.76914 1.94038 0.333023
-1.67353 1.49084 0.591799
-1.74877 1.70081 0.451006
-1.71162 1.46819 0.36464
-1.37071 2.05098 -0.501257
-1.5002 1.9971 -0.375074
-1.61728 1.49916 -0.29562
-1.58301 1.74445 -0.350083
-1.49557 1.52587 -0.432453
-1.63956 1.96496 -0.244262
-1.71145 1.95053 -0.0682811
-1.43601 0.592739 0.126091
-1.38119 0.830884 0.0126627
-1.43829 0.618601 -0.143462
-1.62281 1.20333 0.23917
-1.45007 1.05809 0.12529
-1.41972 1.06806 0.356652
-1.35689 1.12003 -0.224212
-1.42702 1.07238 -0.074436
-1.58445 1.23374 -0.213406
-1.77537 1.69965 0.0253861
-1.68566 1.46674 -0.0959113
-1.76729 1.43616 0.132605
-1.17168 2.41463 -0.780979
[...]
POINT_DATA 642
SCALARS Mean_Curvature double 1
LOOKUP_TABLE default
-0.337252
1.51581
1.87626
5.0693
4.33548
0.687451
0.0593629
1.09441
3.76937
-2.0343
0.0281664
8.14626
3.20969
0.847407
0.543279
0.595428
3.34891
12.6113
0.908776
1.17769
3.91852
4.07268
1.00836
1.08534
2.37681
0.0702724
2.95046
3.69482
1.01299
0.593853
0.972439
1.16324
7.45678
1.3919
2.30269
4.78804
0.255226
5.54044
2.64963
-0.82156
-0.624223
1.80334
-1.0046
3.58095
0.0920292
3.11263
3.36976
4.01308
0.664976
0.0558228
0.484908
0.0492952
1.78755
0.908473
0.901377
-0.00263431
0.708878
1.47768
-0.31074
0.377242
0.82507
3.23045
1.4528
0.429903
1.36276
1.72644
0.965036
1.81327
9.20764
0.957604
3.6778
1.1838
1.77812
-0.511992
-1.00755
0.415993
1.5981
0.956454
1.16792
0.421359
0.789365
4.71276
-0.835725
2.6296
0.248313
0.616832
-0.864362
0.61193
1.28141
-0.0583416
-0.439653
5.32694
1.57064
0.708572
1.47636
-1.15536
2.94573
-0.993745
1.30052
0.778817
1.10326
1.87574
1.55872
0.971926
0.31174
1.75409
1.49734
1.2374
1.95675
0.621227
1.3246
1.12517
4.07145
3.31236
3.16436
1.07903
1.24669
3.59939
4.10171
-0.744269
1.05031
-0.61868
-0.0035096
-0.0836934
5.77978
-1.35191
-0.00295465
1.80105
1.72833
2.39604
3.86341
-0.00268608
3.18355
-0.0494136
0.508892
-1.22053
3.94683
3.56477
-1.33366
0.941395
0.873317
2.13397
4.17202
2.13909
-1.12432
-1.38123
2.54916
4.75308
3.35927
-0.119956
1.43186
-0.736721
3.28702
-0.375351
-0.786091
0.617609
0.549132
0.558752
0.974435
-0.265465
4.90553
0.968934
-0.527414
-0.594647
-0.0651753
3.19281
-0.50129
1.5023
-0.00762878
0.986488
0.314212
4.2882
4.36089
5.07699
-0.147897
3.5482
1.05855
1.90313
3.9778
6.06486
0.476609
0.531993
0.461152
0.395887
0.479895
0.801757
0.120995
0.129499
-0.369508
3.17669
0.254032
5.7119
6.84036
0.996219
0.394383
0.231752
5.46414
1.613
0.54446
0.88399
0.467884
0.80451
0.496369
0.971268
0.731329
0.695547
1.05806
0.952855
1.49934
-0.239274
0.402386
-0.423201
0.943017
1.09801
1.17853
0.522933
0.812272
0.163682
0.0492758
-0.289019
8.54753
3.71233
0.726026
0.603464
0.710963
1.29609
0.552281
9.25769
5.80112
0.105106
-0.32481
5.50324
1.31963
1.08417
1.24125
0.866521
0.991347
1.19238
0.314074
1.01756
3.46995
7.16141
9.10823
0.0993781
-0.484803
-0.923856
10.7888
-0.0873492
6.5607
5.78654
9.26884
1.76156
1.69037
7.89976
1.05683
1.73646
0.846329
0.970746
0.451367
0.344446
0.949011
4.92052
0.952665
-0.837627
1.24647
8.46922
8.75034
2.43896
10.1256
2.25802
0.0865208
3.0532
5.42585
0.397002
3.17758
-0.000810394
-0.126744
3.07434
-0.633113
3.44834
-0.853091
2.23109
-0.661764
3.95385
5.48336
0.715545
1.11291
4.01191
0.837295
1.16712
-0.349049
5.23217
0.861388
0.661776
1.04677
1.05266
0.609478
1.05425
0.221605
0.903258
0.962964
3.34061
0.298423
2.93034
1.08202
1.09556
2.72331
0.0386327
4.80629
5.64088
2.67719
1.38444
-0.59585
7.72017
2.35595
0.813761
0.241344
2.42698
0.445199
0.726219
0.19827
0.428745
0.419324
0.443302
0.395577
1.31369
5.52562
-0.30106
0.135261
-0.482999
5.85074
0.262186
0.632
5.30963
-0.88729
0.0944669
1.62111
1.5384
-0.593524
-0.234797
-0.368478
0.18202
0.0936049
0.272394
-1.50793
0.406695
-1.05859
-1.14662
4.89591
1.19981
0.023642
0.112095
-0.562079
3.07668
2.6077
4.56317
1.10688
-1.42126
8.12156
0.108706
8.72414
2.47217
-1.18184
-0.724553
-0.7117
-0.555916
4.99588
1.61698
0.500456
3.47757
0.970847
0.522559
1.82383
1.58311
0.832333
0.7275
0.835813
1.29047
1.81569
0.724913
1.67855
0.777486
1.98996
1.95963
1.0179
1.95155
0.204245
0.759123
0.928699
0.432062
0.953211
1.02946
1.02929
1.8231
0.854267
0.878735
1.50821
1.29459
1.69582
1.44935
1.05505
1.65136
1.18653
1.36048
1.75936
1.37579
1.08971
1.30073
1.72192
1.32758
-0.238604
0.087602
2.283
1.29767
1.1497
1.13733
0.398585
1.06965
1.2126
1.90207
1.02849
1.24006
2.08984
2.35331
1.62766
2.07609
4.17923
5.98426
6.05095
-1.62506
1.39771
5.60613
2.43996
-1.97568
2.43179
-0.678759
3.62577
-0.187114
0.636865
-2.08925
2.0733
0.202065
-0.717378
1.88123
3.76701
-1.02852
2.13254
3.5896
1.63383
0.47381
0.265721
0.233762
-0.0093252
0.506588
2.75564
0.0906387
0.242667
0.141012
0.106718
-0.835205
-1.18989
6.74316
6.79126
-0.488021
-1.3123
5.54961
3.96321
3.39028
0.644124
0.000225618
-0.763443
-0.00344708
2.27863
-0.766061
1.53789
0.769409
0.00738509
0.0554283
1.69134
2.90455
-1.31283
0.18162
3.19989
3.84356
4.9729
6.10505
1.54453
7.4545
3.81346
2.81522
-0.164761
0.115938
0.308667
5.69596
1.65633
1.20118
1.19278
-2.01379
-0.801567
-1.41748
0.997049
0.921364
6.44129
3.87509
0.345757
3.81954
2.21453
3.01196
1.71222
-1.53713
-0.331633
0.0307683
3.17471
0.36521
-0.228218
0.260777
0.964573
-0.583702
2.78387
2.33801
1.24742
1.84219
-0.741757
-1.46803
-0.643127
2.51247
3.06981
5.42932
2.89813
1.16366
1.4829
6.07454
5.93228
3.38611
3.5929
2.84515
-0.017793
-0.345917
4.77089
5.95713
6.02217
-0.889171
3.41535
7.51192
-0.407994
-1.46466
2.53249
-1.15059
-0.911139
1.23202
-1.3574
4.38258
2.46519
4.98876
-0.79725
1.66194
1.48758
-1.21909
-0.194705
-1.1759
4.78489
-1.90321
0.720551
-0.151865
0.303114
0.128667
-0.567064
0.664228
-0.0236315
0.725815
1.23899
8.28667
8.22206
0.251846
-0.615661
-0.763133
-0.219834
-0.697831
-0.86844
1.02716
-1.13845
2.06461
1.3235
2.18678
-0.579092
-0.543519
-0.537846
-0.517549
5.74244
-0.652459
-0.686731
-0.417428
-0.0929316
2.98632
0.234733
-0.989467
-1.00928
-0.784883
0.0524472
0.24741
0.680831
-0.678121
0.0986085
-0.567019
-0.41909
-0.113809
-0.000914888
0.0315243
0.0323329
0.652928
1.0274
0.49077
0.964599
0.590561
3.64361
1.6905
1.12041
1.03698
0.779538
0.600949
0.990124
0.638786
0.94715
1.01588
2.53312
1.78472
2.56101
-0.558919
0.68891
1.73102
2.68553
0.912297
-0.238249
5.03526
1.3068
1.51934
0.940946
1.27628
0.813527
-0.505429
1.10457
0.841922
SCALARS Redistribution_Potential double 1
LOOKUP_TABLE default
-4.59836e-06
-0.246794
0.159703
-0.0998811
-0.015881
-0.265019
-0.074731
0.0745485
-0.28542
-0.277394
0.188154
0.0438633
0.0195187
-0.114687
-0.175691
-0.300967
-0.147494
-0.113502
0.217221
0.379014
0.324968
0.158612
-0.300466
-0.348912
0.0250069
-0.177162
0.168573
0.165237
-0.0658715
0.0278818
-0.306441
-0.196216
-0.163769
-0.175845
-0.0387532
0.121425
0.0441961
0.0980102
-0.0748948
-0.180607
-0.18095
-0.277742
0.0327999
-0.0689631
-0.0921569
-0.0319107
-0.0508976
0.0277447
-0.230986
-0.147716
-0.202187
-0.174624
-0.0749182
-0.296208
-0.248276
-0.20016
-0.234226
-0.271928
-0.035001
0.160079
-0.19253
-0.126746
0.164846
-0.035124
-0.0332503
0.428671
0.189935
0.240946
0.445342
0.322724
0.537254
0.358262
0.123493
0.191637
0.206532
0.0977137
0.109359
-0.340605
-0.321513
-0.297644
-0.330276
-0.326227
-0.333297
-0.295886
-0.164607
-0.234689
0.040273
-0.0651447
-0.0988563
-0.0834442
0.0322333
0.161426
0.114956
0.151494
0.173039
0.224614
0.188401
0.213625
0.15221
0.107679
0.0396521
0.142299
-0.0270472
-0.0182487
-0.106921
-0.120132
-0.0611592
-0.269134
-0.194643
-0.272624
-0.252189
-0.311614
-0.128835
-0.118187
-0.0723592
-0.232862
-0.175091
-0.20596
-0.00634473
-0.102091
-0.104006
0.00728516
-0.0389463
0.085053
0.0618197
0.109634
0.0895943
0.143354
-0.0152375
-0.0860062
0.148149
0.0739037
-0.0670824
0.0146791
0.0170664
-0.130979
-0.130941
-0.137867
-0.132125
-0.23244
-0.195191
-0.237025
-0.165568
-0.286317
-0.214278
-0.172988
-0.278325
-0.178866
-0.242056
-0.242546
0.157157
0.135245
0.108002
0.0870794
0.183524
0.118213
-0.230239
-0.168873
-0.132382
-0.326553
-0.32397
-0.340985
0.0300865
-0.0265392
-0.0351404
-0.022467
-0.0308199
0.0188675
-0.138519
-0.0845529
-0.125866
0.00733425
-0.00299986
0.0343713
-0.0870379
-0.040539
-0.072572
0.0229156
-0.0101468
-0.0141033
-0.255749
-0.212422
-0.242338
-0.160155
-0.190482
-0.197846
-0.162309
-0.172943
-0.132626
-0.0566781
-0.10059
-0.107987
-0.0876216
-0.0300521
-0.181085
-0.141514
-0.113936
-0.133969
-0.164755
-0.282682
-0.268726
-0.274616
-0.276961
-0.302405
-0.242268
-0.212887
-0.231378
-0.241029
-0.257813
-0.189621
-0.219361
-0.170861
-0.289685
-0.253592
-0.265808
-0.213057
-0.244544
-0.203557
0.0197779
0.1044
-0.0842786
-0.0518438
0.195173
0.0624812
0.0746082
-0.217238
-0.197984
-0.120133
-0.15862
-0.14536
-0.165305
-0.132903
0.113744
0.0541365
0.0261196
0.089372
0.0668456
0.221633
-0.0875634
-0.0325001
-0.086811
-0.089027
-0.0837434
-0.0302582
0.204002
0.133926
0.349077
0.300333
0.266872
0.329629
0.389161
0.161984
0.21931
0.450332
0.331658
0.325437
0.306077
0.380522
0.234215
0.370811
0.23028
0.482836
0.457703
0.351721
0.406497
0.682484
0.521496
0.504667
0.513384
0.524912
0.101718
0.224274
0.162917
0.0787004
0.0601042
0.190079
0.222412
0.168314
0.203016
0.176416
0.264042
0.263441
0.0683902
0.0807526
0.0578223
0.061336
0.134085
0.100269
0.132375
0.171529
0.144537
0.101233
-0.304538
-0.287742
-0.323356
-0.316129
-0.346294
-0.336502
-0.348488
-0.285447
-0.303933
-0.320473
-0.316966
-0.301089
-0.316645
-0.322821
-0.299035
-0.312599
-0.287015
-0.344918
-0.333276
-0.341432
-0.298431
-0.318965
-0.320434
-0.338949
-0.335231
-0.345184
-0.225034
-0.253289
-0.145058
-0.180606
-0.214496
-0.200402
-0.177335
0.0389632
-0.00545724
-0.0247026
-0.0190079
0.0266603
-0.0521163
-0.091133
-0.0482426
-0.0355599
0.0131624
-0.133607
-0.0905068
-0.145474
0.0400385
-0.0202106
-0.0229435
-0.116311
-0.0825985
-0.13069
0.146409
0.0885373
0.162638
0.14743
0.138992
0.14435
0.16057
0.154438
0.173298
0.169033
0.163534
0.158547
0.177724
0.191848
0.180702
0.205307
0.175629
0.184879
0.217735
0.193812
0.192429
0.201794
0.181857
0.172641
0.17611
0.17469
0.185334
0.151501
0.271238
0.256183
0.06964
0.126076
0.0611155
0.0655635
0.128345
0.0393052
0.0924363
0.000477296
0.193172
0.247587
-0.0553534
-0.0671544
-0.0913053
-0.00173469
-0.0400679
0.00271285
-0.103361
-0.0691445
-0.0405462
0.1687
0.051635
0.0652256
-0.0417901
-0.000753387
-0.113825
-0.0833357
-0.1342
-0.0959463
-0.163162
-0.25426
-0.223024
-0.254579
-0.239577
-0.286208
-0.184386
-0.144778
-0.282814
-0.293394
-0.297721
-0.222508
-0.268858
-0.242722
-0.314292
-0.292699
-0.281182
-0.150203
-0.226229
-0.188576
-0.111385
-0.104863
-0.0869571
-0.142404
-0.122365
-0.147558
-0.0564637
-0.0932918
-0.0822535
-0.256686
-0.22648
-0.243885
-0.178244
-0.203322
-0.208958
-0.175993
-0.194129
-0.162024
-0.00691397
-0.0565503
-0.0541606
-0.0685017
-0.0624425
-0.0195896
-0.144686
-0.103721
-0.14349
-0.142542
-0.14426
-0.108939
-0.0533294
-0.0680015
-0.0138306
-0.0329111
0.00176697
-0.013203
0.0273889
0.0601769
0.0636163
0.0908142
0.0757812
0.105869
0.0629023
0.0166214
0.141338
0.129427
0.155712
0.0717327
0.0999365
0.0789359
0.132105
0.118074
0.106832
0.0363219
0.0753392
0.0547644
-0.0618055
-0.0920665
0.0165843
-0.0247271
-0.0814352
-0.0551674
-0.0478141
0.156708
0.127085
0.0847693
0.107857
0.123532
0.0922521
0.0602771
-0.0724321
-0.0222041
-0.0404449
-0.0366574
-0.0261376
-0.0660293
0.0757636
0.0344581
0.0582472
0.0312807
0.0465161
-0.0026807
-0.109012
-0.118848
-0.106932
-0.108625
-0.153861
-0.113721
-0.156874
-0.107075
-0.106913
-0.161308
-0.137431
-0.163535
-0.104406
-0.101828
-0.269561
-0.240912
-0.27036
-0.190936
-0.217176
-0.205701
-0.212442
-0.218256
-0.193057
-0.133359
-0.164937
-0.162926
-0.130881
-0.169253
-0.151735
-0.147976
-0.160672
-0.288164
-0.264306
-0.243677
-0.256989
-0.282851
-0.229593
-0.19569
-0.240787
-0.278477
-0.174455
-0.181772
-0.277285
-0.229618
-0.235577
-0.182926
-0.184699
-0.175553
-0.10321
-0.176283
-0.145466
-0.146318
-0.181456
-0.264388
-0.272577
-0.268036
-0.238395
-0.201062
-0.271141
-0.212712
-0.246075
-0.273987
-0.269689
-0.208767
-0.243648
-0.212232
0.170765
0.148337
0.151953
0.1719
0.176175
0.087502
0.0857792
0.100924
0.125309
0.131012
0.083484
0.139689
0.10626
0.0712648
0.0713385
0.147009
0.12667
0.154013
-0.00518034
0.113128
0.059855
0.0366748
0.0510405
0.181249
0.172934
0.205901
0.186808
0.156
0.126767
0.0731383
0.0986019
0.144965
0.149589
0.144437
0.148794
0.105329
-0.261744
-0.211803
-0.237549
-0.253881
-0.223546
-0.125983
-0.132948
-0.140053
-0.158557
-0.182882
-0.015585
-0.162936
-0.0967911
-0.0403059
-0.0950971
-0.199351
-0.164058
-0.193259
-0.305419
-0.306306
-0.307343
-0.327808
-0.342769
-0.306496
-0.328063
-0.320067
-0.308058
-0.306971
-0.299123
-0.347858
-0.334961
-0.312919
-0.326309
-0.325172
-0.336481
-0.340773
SCALARS CoVolArea double 1
LOOKUP_TABLE default
0.0302384
0.00970847
0.0320612
0.0361323
0.0203426
0.0200317
0.015815
0.0101767
0.0143887
0.0225881
0.0280042
0.0398451
0.0433205
0.0267919
0.0257406
0.0270774
0.0253214
0.0229404
0.0222155
0.0233547
0.0451016
0.049923
0.0255673
0.0226977
0.0446621
0.0326939
0.0439872
0.0587274
0.0315931
0.0469369
0.0246562
0.0288178
0.0433801
0.0386837
0.0540652
0.0526664
0.0649365
0.0432126
0.0418568
0.0315776
0.0319112
0.0266161
0.0448474
0.0364757
0.0405673
0.0373656
0.0426534
0.0476077
0.026185
0.024954
0.0234537
0.025702
0.0346364
0.0315814
0.0282753
0.0170718
0.0194405
0.0201176
0.0383241
0.0258768
0.0144386
0.0294121
0.0175787
0.0315886
0.0255815
0.0281179
0.0372649
0.011843
0.0224587
0.0420631
0.037357
0.0295838
0.0496553
0.0458674
0.0504558
0.0538348
0.0450617
0.0238772
0.0225674
0.0287282
0.027432
0.0260263
0.0257848
0.0268903
0.0249234
0.0294577
0.0401232
0.0285305
0.0381741
0.0399464
0.039993
0.0572739
0.046075
0.0425752
0.0501565
0.0548625
0.0565519
0.0414132
0.0225003
0.0377116
0.0133243
0.0143679
0.0383738
0.0349161
0.0328451
0.0189656
0.0219827
0.0156643
0.0165682
0.0288672
0.0268987
0.024923
0.0612758
0.0517475
0.0579516
0.0313636
0.0423002
0.0290586
0.0477154
0.0505735
0.0415055
0.066053
0.0513261
0.0384636
0.0623547
0.0573731
0.0615567
0.0532534
0.0560284
0.0460884
0.0415837
0.0556865
0.041142
0.0451288
0.0346481
0.0432495
0.0424265
0.0293347
0.0378274
0.0305366
0.035219
0.0312741
0.0431887
0.0246531
0.0275419
0.0271844
0.027775
0.0329301
0.0326459
0.0300362
0.0512426
0.0433317
0.051878
0.039407
0.0395377
0.0462964
0.0336115
0.0310353
0.0390518
0.0259273
0.0278212
0.0257704
0.0397147
0.040637
0.0400252
0.0422966
0.037489
0.042177
0.0319529
0.0341369
0.0315182
0.0447348
0.0439928
0.0474376
0.0339146
0.0388742
0.0303372
0.0452836
0.0442601
0.045907
0.0223187
0.0228649
0.02191
0.0254162
0.021828
0.0240766
0.0218064
0.020201
0.0250573
0.0437968
0.0352098
0.0355421
0.0393769
0.036338
0.0290914
0.0337714
0.0319956
0.029838
0.0219252
0.028501
0.0274243
0.0254314
0.0291693
0.0295128
0.0285934
0.0277778
0.0137905
0.0165787
0.0166641
0.018663
0.0155636
0.0175373
0.0212082
0.0160002
0.0213139
0.0291248
0.0247655
0.0233838
0.0342918
0.0342114
0.0413733
0.0386234
0.0216872
0.0287218
0.0266415
0.0103909
0.0153469
0.0267465
0.0218196
0.0198006
0.0209061
0.0295218
0.0125058
0.0215342
0.0182704
0.0247198
0.0229352
0.0196893
0.0251681
0.0273483
0.0312106
0.0446179
0.0400908
0.0380088
0.0331064
0.0331143
0.0256433
0.0280977
0.0441721
0.0410481
0.045124
0.0105368
0.0125292
0.0282329
0.0150348
0.0153564
0.0170244
0.0208975
0.0378769
0.0368605
0.0314655
0.0414576
0.035953
0.0386613
0.0231654
0.0307443
0.037545
0.0237598
0.0384748
0.0307989
0.0407355
0.0481031
0.0423327
0.044369
0.0467605
0.0421227
0.045165
0.0507244
0.0464703
0.0468419
0.0440261
0.0472333
0.0460858
0.0441984
0.0509886
0.0480623
0.0473593
0.0481058
0.0512332
0.0578521
0.0580027
0.0593155
0.0233937
0.0169853
0.0274739
0.0237057
0.023841
0.0234798
0.0231382
0.0326596
0.0324302
0.0262794
0.0274547
0.0242655
0.0302503
0.0290275
0.0270325
0.0272732
0.0277085
0.0224064
0.0233057
0.0205628
0.0257713
0.0257504
0.0276085
0.0275693
0.0278291
0.0253829
0.0263598
0.0283856
0.0241754
0.0226677
0.0303744
0.0262884
0.0324391
0.0403301
0.0380502
0.039097
0.0332567
0.0421822
0.0297827
0.0263737
0.0292434
0.038845
0.0329192
0.0358587
0.0401287
0.0334598
0.0418152
0.0410556
0.0441065
0.0280986
0.0369001
0.0335877
0.0445968
0.0404533
0.0520031
0.048977
0.0578406
0.0528117
0.0606035
0.0439297
0.0452582
0.0479059
0.044258
0.0418897
0.0459024
0.0505218
0.0516539
0.0516271
0.0478572
0.0597843
0.0514232
0.0536359
0.0418705
0.0454821
0.0518093
0.0594169
0.0582241
0.0636822
0.0316161
0.0365863
0.0198621
0.0231443
0.0416779
0.0297935
0.0368064
0.0127313
0.0106645
0.0211013
0.0114238
0.0213483
0.0117936
0.0160302
0.0264262
0.033533
0.0271902
0.0421916
0.0383905
0.0433016
0.03249
0.0346218
0.0326292
0.0196505
0.0255573
0.0297527
0.0217038
0.0170861
0.0195067
0.0206182
0.0254935
0.0213102
0.0223234
0.014134
0.0117362
0.019015
0.0132035
0.0182929
0.0152259
0.0177442
0.023436
0.0272281
0.0238435
0.0260477
0.0273187
0.0276717
0.0240067
0.0253452
0.0259745
0.0193726
0.0228394
0.0231016
0.0469257
0.0566307
0.0468757
0.0521451
0.0549699
0.0604613
0.0583572
0.053652
0.0545553
0.0308569
0.032041
0.0300073
0.0403869
0.0337668
0.0348456
0.0270217
0.0328191
0.0412129
0.0352865
0.0420788
0.0316441
0.0504295
0.0459041
0.0515502
0.0390409
0.0439342
0.0450321
0.0547818
0.0536373
0.0575021
0.0531258
0.0447775
0.0610475
0.0597163
0.0607579
0.059849
0.0693893
0.0335817
0.0402434
0.0636934
0.051094
0.047273
0.0516187
0.0565405
0.0489202
0.0609758
0.0478858
0.0647271
0.0573187
0.0547946
0.0536072
0.055628
0.059653
0.067778
0.0685444
0.0720438
0.0502236
0.0497015
0.0617067
0.0558073
0.0455049
0.0514396
0.0512185
0.0418899
0.0477761
0.0536624
0.0458886
0.0425862
0.0498535
0.058253
0.0294432
0.0381837
0.0278532
0.0451783
0.0410819
0.0399923
0.0351148
0.0352303
0.0455599
0.0614314
0.0593816
0.054793
0.0441302
0.0430913
0.0431076
0.0430196
0.0395515
0.0407406
0.0374036
0.0254238
0.0312079
0.0314318
0.0297956
0.0280573
0.037517
0.0396505
0.0279422
0.0333132
0.0272948
0.0326148
0.0285052
0.0251985
0.028486
0.0287531
0.033087
0.047412
0.0417744
0.0446268
0.0514375
0.0380419
0.0487665
0.0598851
0.0476909
0.0228594
0.027053
0.02432
0.0248217
0.024988
0.0271983
0.0305291
0.0276481
0.0268872
0.0296537
0.0257133
0.0281385
0.0277533
0.0260313
0.0349547
0.0299739
0.0348762
0.0348787
0.0354067
0.0340496
0.0336885
0.0314092
0.0303958
0.028975
0.0274225
0.0308964
0.0366902
0.0321351
0.0311121
0.0298965
0.0276579
0.0275964
0.0362249
0.0337375
0.0333576
0.0508366
0.0606698
0.0562391
0.0480038
0.0483552
0.0389419
0.0434559
0.0393759
0.0419778
0.0454477
0.0403832
0.0567885
0.0511844
0.0464309
0.0467331
0.0499386
0.0520513
0.0512254
0.0340299
0.0388444
0.0333527
0.0380689
0.0448757
0.042053
0.0415278
0.0395729
0.0408195
0.0393215
0.0444032
0.0496876
0.0441724
0.0433334
0.0427347
0.042455
0.0444902
0.0487978
0.0302117
0.0325688
0.028638
0.0289547
0.0350145
0.030609
0.0332661
0.0296182
0.02968
0.0308576
0.0189062
0.0358363
0.0287975
0.0278364
0.036116
0.035576
0.0382771
0.0398896
0.0270297
0.0279924
0.0259099
0.0238437
0.0235968
0.0259215
0.026542
0.0242647
0.0263476
0.0284016
0.0204809
0.0244486
0.0239368
0.0225269
0.0254058
0.0295396
0.028867
0.0273002
SCALARS SignedDistance double 1
LOOKUP_TABLE default
1.12052
1.23645
-0.0122061
0.0272139
0.00409237
1.28841
0.0747796
1.48921
0.0563886
0.022402
1.33731
0.0127725
-0.0232815
0.544536
1.17205
1.38343
0.111558
0.0945204
1.20087
1.12072
0.00310668
-0.0121376
0.13629
0.111599
0.132892
1.07671
-0.00409225
-0.0049911
1.43565
1.18877
1.14389
1.38562
0.0208859
0.0190561
0.0105476
0.0437837
0.00248528
0.0425701
-0.0115403
0.76557
0.127602
0.020694
0.626218
0.0239438
0.533336
0.0144141
-0.00330331
0.011612
1.29422
1.01561
1.20736
1.12044
0.0683273
1.27392
1.32826
0.898395
1.13794
1.29077
1.07924
1.19089
0.974424
0.0288112
1.3525
1.16041
1.28459
-1.01139
0.127561
1.28906
0.188575
0.259811
0.0109605
1.1694
0.00522107
0.885589
0.559646
-0.00043919
-0.00400903
1.17567
1.24939
1.04229
0.90046
0.0391097
0.314953
0.0296351
1.22094
1.17019
0.897407
0.826091
0.0277829
1.13506
1.11825
-0.0181527
0.00708074
0.201091
0.00239977
1.12412
0.00921444
1.08241
1.48149
1.27612
1.58597
1.4831
0.198693
1.36763
1.09831
1.28266
1.4605
1.34552
1.3111
1.09283
1.27098
0.252551
0.033518
0.0342484
0.00993446
0.0147479
0.00256597
0.0283744
0.00168513
-0.00300247
-0.020715
0.0114374
0.000922846
0.488423
0.00251318
0.00859686
0.00140695
-0.00300012
0.000230994
0.0186626
0.0133069
0.000695659
-0.0115242
0.00622756
0.0460543
0.0186155
-0.0187951
0.032313
0.191023
0.0183818
0.0103209
0.0851758
-0.0131584
0.0238954
0.0787254
1.0675
0.00404434
0.0355277
0.00942153
0.932555
0.0453914
1.11214
0.00270006
1.10931
1.12582
0.256806
1.15158
1.146
1.43701
0.0720912
0.00647523
0.463738
0.946178
0.592909
0.189574
0.0144951
0.116626