<VTKFile type="ImageData" version="1.0" byte_order="LittleEndian" header_type="UInt64">
	<ImageData WholeExtent="0 44 0 44 0 44" Origin="-0.13467 -0.00697991 -0.101969" Spacing="0.0053577 0.0053577 0.0053577">
		<Piece Extent="0 44 0 44 0 44">
			<PointData Scalars="Scalars_">
				<DataArray type="Float32" Name="Scalars_" format="ascii" RangeMin="0" RangeMax="100">
0.00017824
0.000194989
2.17259e-05
0.000605866
0.00109592
0.00162691
0.00199106
0.00237355
0.00255838
0.00274894
0.0027642
0.00295088
0.00287727
0.00295793
0.00287399
0.00302046
0.00284399
0.00318451
0.0031815
0.00240961
0.00131936
0.00102619
0.000420168
0.000133879
0.000695527
0.000967376
0.00147266
0.000971392
0.000476606
7.76425e-05
0.000359938
0.000937045
0.00141349
0.00192674
0.00217105
0.00245126
0.00249369
0.0025816
0.0025496
0.00272547
0.00279018
0.00298163
0.00300791
1.5974e-05
0.00305475
0.000541128
0.000928588
0.000743605
0.000114873
0.000377186
0.000909664
0.00127601
0.00165934
0.00184403
0.00203187
0.00202353
0.00220086
0.00212074
0.00225706
0.00216724
0.00230811
0.00211704
0.00243223
0.00239324
0.0015854
0.000461534
0.000120118
0.000553802
0.00114882
0.00175095
0.00202398
0.00247566
0.00191806
0.00139667
0.000818513
0.000521913
6.39632e-05
0.000552431
0.00107323
0.00132015
0.00160092
0.00164066
0.0018996
0.00204099
0.00222696
0.00230724
0.00249774
0.00279559
0.000177763
0.0033107
0.00147717
0.00188307
0.00168993
0.00106599
0.000575371
4.72814e-05
0.000315465
0.0006916
0.000869848
0.00105006
0.00101835
0.0011778
0.00110289
0.00128019
0.00118011
0.00131279
0.00110539
0.001394
0.0013181
0.000474438
0.000679269
0.00106982
0.00180975
0.0024422
0.00308548
0.00335755
0.00372696
0.00313329
0.00258514
0.00198159
0.00166879
0.00107239
0.000568844
3.77521e-05
0.000214748
0.000596419
0.00089483
0.00125589
0.00139165
0.00164656
0.00179087
0.00216192
0.00246876
0.00056421
0.00375666
0.00226147
0.00268384
0.00248247
0.00186411
0.00137736
0.000855759
0.000498727
0.000129864
3.82587e-05
0.000206895
0.000151031
0.000283591
0.000235669
0.000423901
0.000306927
0.000422485
0.000190713
0.000430197
0.000295952
0.000591926
0.00177949
0.00223231
0.00304867
0.00370988
0.00439008
0.00465347
0.00459129
0.00398657
0.00367565
0.00308129
0.00275005
0.00214391
0.00161628
0.0010126
0.000560991
4.19691e-05
0.000521533
0.00102513
0.00129372
0.00159831
0.0017022
0.00194315
0.00224355
0.000845715
0.00409423
0.00326583
0.00371002
0.0035137
0.00290838
0.0024358
0.00192843
0.00158487
0.00123485
0.00107437
0.000924855
0.0010111
0.0009166
0.000924006
0.000751927
0.000891179
0.000797547
0.00105767
0.000869811
0.00106407
0.00199604
0.0032125
0.00372811
0.00461836
0.00530242
0.00601804
0.00602788
0.00530872
0.00467069
0.00432272
0.0037156
0.00340401
0.00279419
0.00224216
0.00161646
0.000919029
0.000175864
0.000294052
0.000787117
0.00104175
0.00133315
0.00142197
0.00155614
0.00179755
0.00134388
0.00464419
0.00406152
0.004551
0.0043465
0.00375045
0.00328638
0.00279204
0.00246084
0.00212899
0.00198518
0.00185681
0.00197
0.00190536
0.00188587
0.00173841
0.00190486
0.00184637
0.00214673
0.00204857
0.00233892
0.00332653
0.00457945
0.00516767
0.00613763
0.00683267
0.00693937
0.00641439
0.00590597
0.00523052
0.00483907
0.00420638
0.00388363
0.00319284
0.0026837
0.00173219
0.00100303
0.000267133
0.000190876
0.000672035
0.000911966
0.0011898
0.00126474
0.00138539
0.00146934
0.00171927
0.00506627
0.00506805
0.00562323
0.0054313
0.00485335
0.0044069
0.00393493
0.00362564
0.00332156
0.00320404
0.00310624
0.00325182
0.00320403
0.0031923
0.00307836
0.00327997
0.00326337
0.0036092
0.00360429
0.00399245
0.00503549
0.0063218
0.00698104
0.00802645
0.00794465
0.00748966
0.00694218
0.00671705
0.00607784
0.00553872
0.00499642
0.00447337
0.00369468
0.00313336
0.00209254
0.00136534
0.000632972
0.000182576
0.000291444
0.000521801
0.000791512
0.00085827
0.000976585
0.00104313
0.00231579
0.00571866
0.00589387
0.00643134
0.00627691
0.00569601
0.00524133
0.00477777
0.00447664
0.00419381
0.00410066
0.00403047
0.00421273
0.00415948
0.00416515
0.00408803
0.00433206
0.00438057
0.00479077
0.00495307
0.00551174
0.00662339
0.00795473
0.00868071
0.00918062
0.00832666
0.00785707
0.00728878
0.00708774
0.00661556
0.00603881
0.00542724
0.0046564
0.00388015
0.00329447
0.0023071
0.00158514
0.000858329
0.000425391
4.09111e-05
0.000271082
0.000533104
0.000591733
0.000742801
0.000875391
0.00252704
0.00607866
0.00584022
0.00648435
0.00724762
0.00680211
0.00634913
0.00590412
0.00562155
0.00537661
0.00531995
0.00528779
0.00550088
0.00545053
0.00550029
0.0054701
0.00576096
0.00588268
0.00636784
0.00670137
0.00742978
0.00860945
0.00983541
0.00949175
0.00941297
0.00881628
0.00850591
0.00796677
0.00766387
0.0071888
0.00681666
0.00593705
0.00517288
0.00439601
0.00376534
0.00284369
0.00212538
0.00139895
0.000955656
0.000489026
0.000280097
1.81794e-05
5.58943e-05
0.000283487
0.000442192
0.00299735
0.00658526
0.0048245
0.00543883
0.00615532
0.0066893
0.00709333
0.00648667
0.006042
0.00561657
0.00537952
0.00522929
0.00532319
0.00536676
0.00545697
0.0056268
0.00611658
0.00656026
0.00736587
0.00807994
0.00918703
0.00927558
0.00952858
0.00923316
0.00916905
0.00855241
0.00835178
0.00805201
0.00762106
0.00714965
0.00682714
0.00626735
0.00552552
0.00474846
0.00407877
0.00321962
0.00251807
0.00179015
0.00134683
0.000878103
0.000669584
0.000405475
0.000289552
1.23307e-05
0.000173055
0.00329563
0.00691194
0.00392483
0.00445016
0.00509849
0.00553636
0.0061252
0.0066331
0.00669524
0.00609427
0.00569701
0.0054474
0.00543707
0.00562697
0.00577093
0.00615072
0.00684342
0.00761683
0.00875523
0.00891195
0.00916847
0.00907227
0.00937241
0.00913816
0.00927358
0.00866185
0.00844622
0.00816749
0.00795211
0.00744084
0.00709136
0.00665265
0.006245
0.00545465
0.00474428
0.00390922
0.00325471
0.00251732
0.0020748
0.00159534
0.00135217
0.00101261
0.000830323
0.00054995
0.000370145
0.00385933
0.00746699
0.00354433
0.004046
0.00473351
0.00524672
0.00583027
0.00634011
0.00707752
0.00777457
0.00761476
0.00727606
0.00717573
0.00734197
0.0074839
0.00792
0.00792819
0.00787277
0.00813917
0.00830005
0.00882915
0.00882149
0.00907617
0.00873832
0.00883298
0.00836949
0.00812366
0.00791373
0.00792251
0.00742616
0.00700525
0.00663973
0.00634958
0.00580128
0.00531008
0.00445588
0.00385828
0.0030994
0.00263573
0.00209088
0.00171497
0.00128835
0.00108811
0.000838175
0.000699736
0.00412886
0.00762819
0.00339863
0.00387568
0.00454615
0.00512911
0.00578316
0.00623719
0.00693215
0.00761156
0.00846921
0.00929283
0.00923418
0.00865176
0.0079891
0.00759845
0.00743108
0.00742982
0.00775364
0.00794238
0.00850537
0.00872066
0.00909311
0.00866923
0.00868347
0.00822219
0.0078908
0.00772588
0.00797418
0.00769155
0.00729874
0.00687981
0.00639573
0.00585984
0.00538869
0.00481369
0.00421562
0.00346435
0.00300901
0.00251848
0.00225383
0.00180989
0.00156522
0.00127082
0.00105084
0.00442122
0.00782738
0.00309555
0.00355942
0.00419351
0.00479196
0.00557137
0.00608107
0.0067577
0.00738037
0.00811914
0.0089041
0.00938835
0.00843404
0.00770796
0.00739087
0.00719824
0.00714567
0.00741358
0.00754971
0.00807033
0.00821477
0.00866304
0.008277
0.00831516
0.00788876
0.00769822
0.00756702
0.00769463
0.00754129
0.0071139
0.00634914
0.00594039
0.00541679
0.00506865
0.00449108
0.00399824
0.00330822
0.0028396
0.00233345
0.002059
0.00159276
0.00127541
0.000899188
0.000624113
0.00395353
0.00736649
0.00301468
0.00347212
0.00415571
0.00474414
0.00553139
0.00615811
0.00686312
0.00743788
0.0081092
0.00883628
0.00947174
0.00850337
0.00770651
0.00736718
0.00727328
0.00721397
0.0074553
0.00755405
0.00803462
0.00809641
0.0083597
0.0081267
0.00817658
0.00770423
0.00768015
0.00764636
0.00761836
0.00711873
0.00699471
0.0062042
0.00576448
0.0051819
0.00487197
0.00454047
0.00400218
0.00334173
0.00295468
0.00245295
0.00210843
0.00150413
0.00108887
0.000614129
0.000302345
0.0036573
0.0070454
0.00192504
0.00234601
0.00299602
0.00355968
0.00432474
0.00503065
0.00579669
0.00639855
0.00710066
0.00789106
0.00868776
0.00776417
0.00706195
0.00679287
0.0067847
0.00681052
0.00705126
0.00714244
0.00761821
0.00762823
0.00792177
0.00770299
0.00788784
0.00746965
0.00744658
0.00729708
0.00689804
0.00638924
0.00628639
0.00581041
0.00535072
0.0047412
0.0044367
0.00413693
0.00389884
0.00326072
0.00289989
0.0023821
0.00193636
0.00129912
0.000888027
0.000432767
0.00011722
0.00342972
0.00681069
0.00111005
0.00150165
0.00207386
0.00262092
0.00342844
0.00408359
0.00484049
0.00556532
0.00640696
0.00725062
0.00801669
0.00734951
0.0067274
0.00647205
0.00649721
0.00668117
0.00701145
0.00709838
0.00757431
0.00760191
0.00793366
0.00768743
0.007685
0.00719713
0.00716191
0.00690131
0.00655412
0.00597673
0.0057654
0.00536817
0.0051835
0.00458916
0.0043346
0.00408191
0.00410026
0.00353184
0.0031505
0.00253893
0.00201281
0.00138054
0.000981688
0.000536114
0.000202999
0.00334407
0.00657259
0.00124088
0.00160608
0.00215114
0.00265801
0.00342216
0.00394813
0.00463597
0.00529328
0.00617556
0.00665267
0.00726932
0.00682542
0.00606473
0.00567557
0.00556683
0.00569915
0.00594341
0.00599306
0.0064313
0.00659969
0.00695467
0.00661935
0.00660076
0.00615968
0.00615352
0.00576748
0.00542993
0.00483605
0.00461657
0.00424211
0.00421415
0.00380383
0.00360914
0.00343018
0.00349311
0.0031354
0.00277217
0.00211599
0.00161424
0.00105189
0.000696175
0.00022056
0.000478849
0.00257487
0.00580635
0.00155684
0.00172078
0.00206725
0.00230613
0.00272606
0.0030832
0.00369778
0.00426
0.00498508
0.00576313
0.00673995
0.00663497
0.00573256
0.00521206
0.00496995
0.00502155
0.00520472
0.00522752
0.00564045
0.00580387
0.00610289
0.00577522
0.00589614
0.00557243
0.00554977
0.00494035
0.00466445
0.00412348
0.00389399
0.00353397
0.00351664
0.00339308
0.00322155
0.00305967
0.00295464
0.00247951
0.00221772
0.00172392
0.00130441
0.00079906
0.000461496
0.000300899
0.000962995
0.00208521
0.005306
5.3741e-05
0.00010284
0.00033582
0.000449859
0.000759818
0.000976585
0.00145713
0.00180548
0.00231969
0.00271337
0.00344753
0.00412954
0.00516976
0.00463094
0.00407676
0.00404327
0.00428179
0.00429908
0.00466051
0.00473083
0.00496421
0.00465339
0.00476145
0.00441601
0.00431826
0.00372855
0.00352546
0.00315928
0.00294337
0.00262566
0.00264695
0.00249765
0.00242947
0.00213056
0.00198463
0.00158394
0.00143624
0.00111637
0.000858843
0.000316538
0.000110582
0.000853129
0.00150968
0.00147388
0.00460981
0.00134997
0.00139956
0.00125459
0.0012489
0.00101208
0.000939988
0.000598192
0.000500813
0.000185259
0.000179805
0.00018511
6.58259e-05
0.000314057
0.00193854
0.00354584
0.00342207
0.00364092
0.0036798
0.00385293
0.00386396
0.00423437
0.00393002
0.00386094
0.00344447
0.00344182
0.00294607
0.00274575
0.00238687
0.00217135
0.00205649
0.00203989
0.00168119
0.00164968
0.00139917
0.00133438
0.00102982
0.000901431
0.000686839
0.000459194
0.000128858
0.000504926
0.00120728
0.00192451
0.00101047
0.00412829
0.00179505
0.00188459
0.00178094
0.00182115
0.00162853
0.0016077
0.00134561
0.00137515
0.00109968
0.00115497
0.000837468
0.00144228
0.00172243
0.0015628
0.0010413
0.00106655
0.00292417
0.00279009
0.00287555
0.00285356
0.00324048
0.00292215
0.00277535
0.00239422
0.00244176
0.00210361
0.0019163
0.00150346
0.00132062
0.00126766
0.00119026
0.000874415
0.000884026
0.000673637
0.000648029
0.000455104
0.000355206
0.000155762
0.000223801
0.000798017
0.00113524
0.00171299
0.00242045
0.000491388
0.00358601
0.00202587
0.00215481
0.00211933
0.00220398
0.00205179
0.00213344
0.0019934
0.00210353
0.00190664
0.00204764
0.00180022
0.00290386
0.00371424
0.00498133
0.00583529
0.00429452
0.00234408
0.000668183
0.00228297
0.0022333
0.00253085
0.00221122
0.00208487
0.00173953
0.00181242
0.00160814
0.00142278
0.000973701
0.000779957
0.000699408
0.000651553
0.000333935
0.000329413
0.000249065
0.000253424
9.77293e-05
0.000107989
0.000107989
0.00060463
0.00116447
0.00151589
0.00204112
0.00265217
0.000233285
0.00329759
0.00192155
0.00206475
0.00204674
0.00216383
0.00209166
0.002264
0.0021731
0.00230925
0.0021293
0.00229231
0.00204954
0.00325637
0.0041376
0.00561792
0.00665995
0.00658383
0.00612118
0.00434791
0.00219119
0.00101958
0.00166426
0.00143183
0.0014255
0.00111712
0.00116026
0.000929467
0.000767104
0.000305027
8.43108e-05
5.14835e-06
3.09944e-05
0.000287488
0.00027369
0.000305228
0.000277683
0.000429794
0.000319637
0.000541165
0.00102674
0.00157876
0.00197446
0.00256408
0.0030524
0.000101194
0.00294344
0.00156366
0.00171585
0.00174066
0.0019399
0.0019473
0.00215706
0.00209101
0.00225382
0.00209237
0.00228447
0.00208157
0.00340727
0.00432042
0.00601454
0.00725475
0.00873339
0.00977283
0.00914742
0.00812988
0.00492513
0.00143621
0.000914007
0.00100977
0.000657372
0.000660457
0.00040774
0.000229634
0.000149488
0.000322223
0.000383377
0.000282116
0.000581793
0.000555068
0.000573389
0.000515454
0.000666186
0.000557005
0.000802554
0.00117088
0.00173547
0.00220224
0.00285195
0.00332761
0.000328258
0.00278909
0.00127451
0.00147628
0.00155735
0.00181595
0.00186422
0.00209355
0.00204799
0.002265
0.00217239
0.00246644
0.00232502
0.00357587
0.00437161
0.0061819
0.00754756
0.00912876
0.0102533
0.0105944
0.0105675
0.00892663
0.00693832
0.00400813
0.000819147
0.000196926
0.000236221
3.957e-05
0.000197135
0.000487201
0.000627503
0.00067769
0.000519402
0.000816263
0.000805274
0.000829726
0.00074821
0.000908025
0.000820823
0.00143625
0.00181983
0.00226281
0.00260105
0.00317926
0.0036736
0.000717446
0.00241046
0.00074783
0.00101167
0.00114221
0.00140984
0.00149407
0.00178121
0.00182554
0.0021232
0.00208082
0.00241385
0.00229973
0.0035146
0.004205
0.00612477
0.00761285
0.00937755
0.0106725
0.0119632
0.0128064
0.012657
0.0121647
0.00939323
0.00635442
0.00296571
7.49603e-05
0.000223085
0.000335261
0.000547223
0.000635535
0.00067617
0.000507914
0.000779882
0.000771321
0.000806749
0.000713691
0.00088802
0.00124653
0.00184849
0.00221256
0.00265021
0.00290459
0.00341065
0.00378131
0.000873893
0.00220519
0.0004858
0.00076472
0.000936709
0.00127219
0.00144034
0.00178999
0.00187406
0.00219337
0.00216787
0.00251963
0.00240976
0.00353801
0.00414569
0.00632653
0.00797902
0.00983231
0.0111412
0.0124278
0.0132503
0.0133195
0.0130411
0.0108591
0.00841254
0.00560198
0.0026029
0.000230215
0.000185102
0.000180945
0.000442393
0.000546396
0.00047978
0.000704855
0.000730596
0.000794038
0.000907838
0.00141791
0.00170558
0.00225891
0.0026286
0.00307148
0.0035077
0.00406168
0.00441113
0.00147425
0.00150583
5.88074e-05
0.000327878
0.000544265
0.000902221
0.00103792
0.00139505
0.00148929
0.00183878
0.00184473
0.00220545
0.00209116
0.0032298
0.00399422
0.0062912
0.00798234
0.00987806
0.0112089
0.0124961
0.0133118
0.0136055
0.0135402
0.0119596
0.0101461
0.00797797
0.00565
0.00336581
0.00218136
0.00244097
0.00237624
0.00200987
0.00135795
0.000660323
0.000444882
0.000801139
0.00121105
0.00170778
0.00198441
0.00250826
0.00289956
0.00342939
0.00390827
0.0044635
0.00483977
0.00195713
0.000974648
5.00381e-05
0.000202872
0.000426218
0.000784345
0.000923984
0.00128197
0.00137976
0.00172849
0.00173612
0.00216792
0.0022143
0.00341821
0.00408131
0.00636295
0.00809836
0.0100281
0.0113679
0.0126394
0.0134362
0.0136741
0.0135837
0.011834
0.00985231
0.00763516
0.00522651
0.00302972
0.00223474
0.00310369
0.00364135
0.00405094
0.0041704
0.00394794
0.00345454
0.00275221
0.00186767
0.00184687
0.00222924
0.00285447
0.00329446
0.00384251
0.00433763
0.00490361
0.00529227
0.00246821
0.000412107
0.000592686
0.000212431
9.04873e-05
0.00026571
0.000490151
0.000857521
0.000975933
0.0013303
0.00135078
0.00193474
0.0021201
0.0032324
0.00374175
0.00607781
0.00778586
0.00975763
0.0112125
0.0126075
0.0134894
0.0136969
0.0135614
0.01158
0.00933692
0.00699618
0.00446963
0.00235574
0.00197325
0.00345553
0.00460056
0.0057915
0.00667654
0.00693431
0.00695852
0.00642731
0.00566258
0.0047559
0.00368081
0.00298169
0.0034781
0.00404684
0.00454388
0.005123
0.00551435
0.00275239
7.39768e-05
0.00172193
0.00136989
0.000808835
0.000502229
0.00074932
0.00113363
0.00126901
0.00162902
0.0016552
0.00223334
0.00239255
0.00332662
0.00370026
0.0062473
0.00820142
0.0103278
0.0118169
0.0131722
0.014002
0.0140907
0.0138028
0.0114654
0.00891832
0.00648718
0.00387581
0.00173036
0.00170082
0.00315094
0.00431433
0.00554677
0.00647008
0.00710819
0.00751152
0.00759719
0.00744908
0.00700621
0.00639565
0.00559556
0.00466295
0.00398952
0.00461907
0.00525818
0.00571527
0.00298314
0.000198342
0.00254651
0.00220778
0.00172437
0.00145085
0.000951979
0.00105345
0.00118331
0.00155938
0.00168094
0.00226781
0.00241539
0.00319205
0.00346665
0.00618028
0.00819864
0.0103439
0.0118122
0.01315
0.0139654
0.013963
0.0135858
0.0109504
0.00806314
0.00555722
0.00288665
0.000730813
0.00117332
0.00262166
0.00376911
0.00502049
0.00596818
0.00697967
0.00772974
0.00843666
0.00894062
0.0089716
0.00883048
0.00827565
0.00759303
0.00670658
0.00572062
0.00540047
0.00589977
0.00315978
0.000360206
0.00339711
0.00310984
0.00271925
0.00255328
0.00212468
0.00191654
0.00191134
0.0023869
0.00257261
0.00327415
0.00354146
0.0048058
0.00545035
0.00812004
0.0101086
0.0122059
0.0136171
0.0148787
0.0156141
0.0152559
0.0145234
0.0111306
0.00748722
0.00490341
0.00217482
2.24262e-05
0.00107303
0.00257117
0.00372832
0.00497186
0.00590403
0.00689509
0.00761947
0.00834371
0.00886635
0.00916279
0.00929464
0.0091536
0.00889196
0.00837288
0.00776665
0.00699238
0.00610575
0.00284444
7.34478e-05
0.00384254
0.00358993
0.00328667
0.00319244
0.00286278
0.00277962
0.00267915
0.00310349
0.00329935
0.00390322
0.00409374
0.00574615
0.00685455
0.00941093
0.0113237
0.0133627
0.0147523
0.0159671
0.0166482
0.0159713
0.0149246
0.0108089
0.00644217
0.00385143
0.00109249
0.000694528
0.000650376
0.00216728
0.00332793
0.0045855
0.00554133
0.00654767
0.00728606
0.00807285
0.0086611
0.00925107
0.00967208
0.00994911
0.0101254
0.00995446
0.00966977
0.00913607
0.00853872
0.00423878
0.000133842
0.0051549
0.00497834
0.00479279
0.00478181
0.00453435
0.00462005
0.00468028
0.00505075
0.00515246
0.00579486
0.00596279
0.00758214
0.00889667
0.0113935
0.0131861
0.0150784
0.0163139
0.0173813
0.0179453
0.0171069
0.0159196
0.0117754
0.00739059
0.00480402
0.00204632
0.000844046
0.00214831
0.0036215
0.0047377
0.00595102
0.00686231
0.00782585
0.00852159
0.00926828
0.0098163
0.0103741
0.0107632
0.0110704
0.0112772
0.0112421
0.011065
0.0106863
0.0102787
0.00597842
0.00160544
0.0061454
0.00611591
0.00593394
0.00592939
0.0057765
0.00600523
0.0061787
0.00660352
0.00670924
0.00717723
0.00727585
0.0089989
0.0103138
0.0127401
0.0144872
0.0163264
0.017523
0.0185446
0.0190424
0.0180652
0.01672
0.0125122
0.0080886
0.00552564
0.00278949
0.00199074
0.00325599
0.0046908
0.00577422
0.00695397
0.00783245
0.00876331
0.00943677
0.0101543
0.0106739
0.0112105
0.0115455
0.0118929
0.0121386
0.0122501
0.0122412
0.0120634
0.0118145
0.0074898
0.00312206
0.00751032
0.00756928
0.00743505
0.0074156
0.00732408
0.00768686
0.00793294
0.00840525
0.00855995
0.00901797
0.00893353
0.0106524
0.0118517
0.0140955
0.0157835
0.0175685
0.0187324
0.0197265
0.0202055
0.0191879
0.017802
0.0136413
0.00923788
0.00669978
0.00398493
0.00344949
0.00467149
0.00606138
0.00710239
0.00824114
0.00908007
0.00997411
0.0106115
0.0112961
0.0117829
0.0122921
0.0125988
0.0129373
0.0131734
0.0133172
0.0133397
0.0132491
0.0130873
0.00876434
0.00437061
0.00855281
0.00864294
0.00853667
0.00856376
0.00854216
0.00892729
0.0091908
0.00968324
0.00986073
0.0103314
0.0102579
0.0120068
0.013253
0.0151844
0.0165938
0.0182679
0.0193815
0.0203626
0.0208445
0.0198103
0.0184084
0.0143197
0.0099778
0.00747079
0.00479853
0.00453172
0.00571468
0.00706553
0.00807136
0.00917751
0.0099862
0.0108533
0.0114649
0.012127
0.0125914
0.0130835
0.0133721
0.0137115
0.0139475
0.0141328
0.0141955
0.0142005
0.0141336
0.00983103
0.00545658
0.00972829
0.00984293
0.00976336
0.00986174
0.00995656
0.0102958
0.0105377
0.0110441
0.0111609
0.011625
0.0116152
0.0133365
0.0145959
0.0164543
0.0177131
0.0192107
0.0202344
0.0211396
0.0215844
0.0205059
0.0190878
0.0151053
0.0108692
0.00840461
0.00578855
0.0057864
0.00693207
0.00824293
0.0092136
0.0102853
0.0110714
0.0119145
0.0124954
0.0131359
0.0135583
0.0140318
0.0143367
0.0146659
0.014869
0.0150605
0.0151273
0.0151618
0.0150786
0.0108036
0.00645539
0.0106454
0.0107689
0.0106801
0.0108665
0.0109784
0.0112792
0.0114676
0.0119522
0.0121039
0.0125472
0.0125057
0.0141934
0.0154523
0.0172362
0.0184048
0.0197573
0.0207224
0.0216283
0.0220805
0.0209996
0.0195637
0.0156421
0.0114619
0.00901129
0.00644237
0.00677383
0.00780788
0.00908257
0.0100317
0.0110789
0.0118193
0.0126408
0.0132067
0.0138322
0.01428
0.014746
0.0149929
0.0153197
0.0155423
0.015748
0.0158073
0.0158835
0.0159222
0.0116817
0.00736625
0.0116381
0.0117626
0.0116955
0.0119596
0.0120677
0.0123363
0.0124445
0.0128967
0.0130251
0.0134367
0.0133822
0.0150143
0.0162472
0.017962
0.019095
0.0204211
0.021267
0.0221064
0.0225801
0.0215264
0.020122
0.0163317
0.0122799
0.00989402
0.0073158
0.00794183
0.00888571
0.0100318
0.0109508
0.0119736
0.0126942
0.0134992
0.0140504
0.0146645
0.0151018
0.0155597
0.015797
0.0161195
0.0163366
0.0165448
0.0166043
0.0166955
0.0167484
0.0125486
0.00827211
0.0123146
0.0124331
0.0124506
0.0127506
0.0128392
0.0130868
0.0131132
0.0135211
0.0135769
0.0139561
0.0139078
0.0154853
0.0166733
0.0183207
0.0194728
0.0207709
0.0215934
0.0223179
0.022756
0.0217316
0.0203612
0.0167064
0.0127844
0.0104866
0.00799325
0.00880703
0.00971617
0.0107974
0.0115791
0.0125684
0.01329
0.0140842
0.0146402
0.0152513
0.0156254
0.0160786
0.016386
0.016712
0.0168887
0.0171045
0.0171706
0.0172833
0.0173693
0.0132161
0.00898406
0.00984035
0.00985964
0.00984202
0.0100445
0.0100154
0.0101458
0.0100119
0.0102638
0.01021
0.0105193
0.010424
0.0118683
0.0130123
0.0146477
0.0158195
0.0171677
0.018067
0.0188889
0.0193199
0.0183796
0.0171396
0.0136185
0.00983023
0.00766341
0.00529666
0.00634304
0.00727884
0.00839554
0.00920325
0.0101404
0.0108945
0.0117477
0.0123658
0.013041
0.0134801
0.0139985
0.0143705
0.0147599
0.0149987
0.0152747
0.0153991
0.0155678
0.0157078
0.0116063
0.00742373
0.00712025
0.00706315
0.00699313
0.00707703
0.0069285
0.00694136
0.00666885
0.00679279
0.00665468
0.00687104
0.00670075
0.00803831
0.00911789
0.010742
0.0119323
0.0133275
0.0142993
0.0152149
0.0157531
0.0148164
0.0136757
0.0102859
0.00663032
0.00459495
0.00237924
0.00362888
0.00458649
0.00574004
0.00659265
0.00757512
0.0083163
0.00919456
0.00985975
0.0105998
0.0111075
0.0116949
0.0121357
0.0125929
0.0128981
0.0132388
0.013426
0.0136555
0.0138539
0.00980863
0.00567999
0.000584036
0.000264727
0.000230491
0.00021819
0.000781909
0.00139486
0.00184248
0.00231102
0.00258081
0.00284907
0.00288299
0.00308251
0.00306509
0.0031289
0.00302061
0.00319957
0.00303929
0.00347985
0.00355696
0.00277829
0.00166929
0.00139129
0.000776857
0.000234589
0.000273898
0.000588678
0.000959106
0.000462823
2.98023e-08
0.000523098
0.000809163
0.00143546
0.00188322
0.0023597
0.0025571
0.00278819
0.00277532
0.00281288
0.00277904
0.00291323
0.00293654
0.00307783
0.0030594
1.47447e-05
0.00289911
0.000141345
0.000474535
0.000984445
0.000520714
4.67375e-05
0.000663266
0.00111566
0.00158786
0.00186078
0.00212943
0.00215627
0.00233241
0.00231122
0.00239284
0.00232221
0.0024993
0.00232672
0.00274997
0.00279706
0.00198076
0.000836842
0.000507995
0.00017821
0.000775084
0.00131844
0.00163896
0.00196439
0.00139534
0.000903651
0.000357121
5.87031e-05
0.000577264
0.00103664
0.00151855
0.00171585
0.00194484
0.00192652
0.00208955
0.00217223
0.00235917
0.00245961
0.00260331
0.00287426
0.000195235
0.00329114
0.0010896
0.00144126
0.00196895
0.00149561
0.00092838
0.000314616
0.000136338
0.000603803
0.000873066
0.00113684
0.00115736
0.00130063
0.00127117
0.00139564
0.00133515
0.00150778
0.00132117
0.00172588
0.00174206
0.000888214
0.000286452
0.000667222
0.00142336
0.00207189
0.00265064
0.00297482
0.00319818
0.00260457
0.00208389
0.00151239
0.00119986
0.000552677
7.83578e-05
0.000411846
0.000611603
0.000879586
0.00111709
0.00143133
0.0015162
0.00168489
0.00185531
0.00229193
0.0025638
0.0005714
0.00386553
0.00188683
0.00225566
0.00280082
0.00231855
0.00175468
0.0011466
0.000700019
0.000238381
2.26945e-05
0.000276618
0.000286743
0.000389203
0.000347264
0.000526652
0.000451379
0.000610448
0.000401728
0.000765324
0.000729196
0.000171617
0.00138165
0.00182951
0.00266781
0.00335971
0.00396942
0.00428797
0.00439433
0.00376981
0.00321306
0.00261422
0.00228497
0.00162741
0.00113872
0.000611909
0.000228398
0.000296265
0.000574537
0.00099194
0.00121885
0.00148142
0.00166333
0.00209183
0.00235477
0.000842758
0.00419857
0.0028941
0.00330379
0.00387898
0.00339509
0.00284563
0.00225174
0.00181816
0.00137489
0.00112031
0.000884719
0.000895515
0.000840493
0.000885166
0.000676833
0.00077334
0.000633284
0.000868693
0.000549026
0.000639237
0.00158688
0.00282674
0.00334221
0.00425975
0.00498903
0.00562788
0.00582169
0.00510662
0.00450716
0.00417506
0.00357574
0.00331186
0.0026214
0.00204676
0.00145541
0.000820585
0.00010623
0.000325359
0.000777975
0.000987343
0.00123317
0.00127537
0.00166162
0.00191979
0.00133569
0.00474869
0.00367911
0.00416048
0.00475664
0.00426741
0.00372753
0.00314745
0.00272661
0.00230187
0.00206397
0.00184995
0.00188275
0.00187627
0.0019014
0.00169828
0.00182205
0.00171387
0.00198718
0.00175089
0.0019324
0.00294045
0.00421976
0.00481582
0.00582171
0.00657535
0.00695302
0.00643965
0.00568788
0.00504784
0.00466599
0.00404364
0.00373494
0.00301754
0.00246753
0.00157154
0.000869885
0.000165991
0.000250116
0.000687376
0.000878692
0.00110763
0.00113313
0.00134902
0.0016026
0.00170547
0.00513121
0.00471029
0.00522154
0.00589494
0.00540944
0.00488929
0.00433342
0.00393609
0.0035408
0.00333062
0.00314906
0.00321451
0.00326335
0.00326362
0.00309499
0.00325555
0.00318738
0.00350501
0.00335645
0.00363134
0.00469957
0.00601556
0.00668929
0.00777837
0.00794046
0.00748524
0.00694887
0.00660713
0.00590464
0.00542402
0.0048404
0.00435694
0.0036168
0.00293671
0.00190359
0.00120693
0.000509515
0.000104308
0.000322707
0.000501461
0.00071948
0.000734419
0.000869103
0.00103577
0.00231851
0.00571421
0.0055519
0.00606108
0.00670031
0.00628369
0.00575832
0.00521293
0.00482569
0.00445347
0.00426941
0.00411803
0.00422253
0.00432089
0.00428768
0.00415737
0.00436206
0.00435284
0.00472902
0.00474836
0.00519493
0.00634134
0.0077103
0.00846211
0.00920198
0.00830644
0.0078364
0.00727442
0.00705875
0.00645652
0.00590223
0.00532087
0.00453869
0.00378585
0.00311062
0.00208801
0.00140021
0.000711359
0.000326782
8.9556e-05
0.000265367
0.000473112
0.000491977
0.000700958
0.000818394
0.00271154
0.00613634
0.00589342
0.00651553
0.00725846
0.00743076
0.00691126
0.00638776
0.00602238
0.00569151
0.00554737
0.0054384
0.00557815
0.00571093
0.00569741
0.00561772
0.00587289
0.00593255
0.00637925
0.00657159
0.00718989
0.00841247
0.00983413
0.00971274
0.00967376
0.00897474
0.00854325
0.0079743
0.00776813
0.00724048
0.0067517
0.0058134
0.0050336
0.00427187
0.00359116
0.00261116
0.00192984
0.00124346
0.000850976
0.000436276
0.000283338
7.73296e-05
7.689e-06
0.000277005
0.000389062
0.0031824
0.00682158
0.0048131
0.00540631
0.00612727
0.0067312
0.00735307
0.00700708
0.00648069
0.00595736
0.00562083
0.00536565
0.00535798
0.00551951
0.00555776
0.00566304
0.00610201
0.00649521
0.00727365
0.00792571
0.00900142
0.00960795
0.00982456
0.00948161
0.00937587
0.00874734
0.00856428
0.0082114
0.00767928
0.0072127
0.00685908
0.00611573
0.00535696
0.00458694
0.0038813
0.00298411
0.00230865
0.0016227
0.00123227
0.000817113
0.00066606
0.000447169
0.000272214
1.69352e-05
0.000127956
0.00347615
0.00722388
0.00390404
0.00439814
0.00507537
0.00556732
0.00612512
0.0065797
0.00718169
0.00647254
0.00596574
0.00558504
0.00544699
0.00562699
0.00579744
0.00609968
0.00672869
0.00746495
0.00858887
0.00917539
0.00945352
0.00933434
0.00963479
0.00937554
0.009469
0.0088232
0.00862901
0.00835294
0.00798624
0.00749475
0.00713697
0.00663203
0.00607292
0.0052795
0.00454599
0.00371756
0.00305276
0.00235773
0.00196852
0.0015427
0.0013352
0.00101504
0.000842877
0.000549525
0.000417605
0.0040292
0.00769033
0.00352161
0.00400414
0.00468149
0.00522824
0.00582705
0.00629827
0.00699426
0.00762222
0.00800406
0.00752409
0.00728613
0.00736714
0.00753716
0.00790981
0.00834208
0.00822367
0.00843781
0.0085684
0.00907576
0.00902539
0.00927396
0.00889709
0.00898967
0.00847294
0.0082466
0.00808461
0.00800214
0.0074557
0.00704621
0.00669365
0.00635884
0.00576506
0.00511469
0.00429446
0.00366069
0.00294248
0.0025183
0.00198583
0.00164182
0.00126901
0.00112277
0.000893652
0.000693932
0.00421598
0.00764028
0.00336276
0.00382054
0.00447336
0.0050614
0.00575452
0.00619587
0.00686015
0.00748373
0.00836143
0.00913908
0.00946178
0.00927617
0.00843395
0.00802223
0.00772696
0.00767501
0.00795889
0.00813285
0.00870419
0.00891727
0.00929813
0.00881908
0.00881649
0.00833704
0.00800692
0.00789146
0.00821792
0.00770471
0.00732784
0.00692379
0.0064602
0.00587894
0.00539389
0.00476665
0.00409567
0.00338423
0.00297938
0.00254074
0.00223139
0.0018086
0.00161573
0.00132158
0.00105148
0.00444619
0.0078581
0.00304072
0.0034842
0.00409955
0.00467839
0.0054851
0.00602396
0.0066777
0.00725719
0.00804089
0.00872917
0.00959693
0.00910404
0.00816197
0.00773259
0.00746505
0.00735803
0.00757799
0.00769291
0.00821609
0.00833822
0.0088118
0.00838726
0.00841554
0.00799478
0.00778712
0.0076847
0.00786623
0.00767998
0.00712002
0.00636542
0.00599977
0.00545843
0.00503456
0.00443567
0.00389085
0.00319547
0.00277157
0.00231754
0.00199515
0.00153894
0.00125204
0.00084725
0.000527374
0.00391735
0.0074651
0.00295073
0.00338743
0.00405129
0.00462036
0.00539698
0.00605895
0.00679036
0.00736144
0.00804096
0.00866665
0.00948598
0.00917094
0.00816312
0.00767822
0.00745792
0.0074311
0.007618
0.00769076
0.00816958
0.00820689
0.00851219
0.00822875
0.00826987
0.00779359
0.00780473
0.00775158
0.00773425
0.00725465
0.00695445
0.00617063
0.00575854
0.00517029
0.00493255
0.00445051
0.00388362
0.00327013
0.00290501
0.00238248
0.00194987
0.00136381
0.000977919
0.00055071
0.000189863
0.00356654
0.00707625
0.00183609
0.00222844
0.00285068
0.0033863
0.00412896
0.00484665
0.00566006
0.00627263
0.00695095
0.00763894
0.00850809
0.00838286
0.00746333
0.00705046
0.00692584
0.00697884
0.00719793