# vtk DataFile Version 4.2
vtk output
ASCII
DATASET POLYDATA
POINTS 642 double
-1.51598 4.15693 -0.401399
-0.394731 3.83602 -0.346925
-1.74446 0.629244 0.000698657
0.89745 0.732074 0.0285209
-0.493339 1.56718 1.38933
-0.901449 3.1817 0.638164
-0.450978 1.77041 -1.13631
-1.24744 3.80172 -0.844829
0.79767 2.51822 -0.57316
0.997333 2.42928 0.726104
-1.66607 3.18875 -0.644087
-2.34005 2.90548 1.06341
-2.25857 3.86109 0.585098
-1.63518 3.255 1.15016
-1.31005 3.77449 0.418634
-0.484626 3.56731 0.0866638
-0.62537 4.48958 -0.27932
-0.213467 4.35664 -0.906079
-1.56219 4.06377 -1.02403
-1.64567 3.93157 -1.29746
-2.13155 4.0445 -0.877381
-2.46642 2.87299 0.0528821
0.230619 2.9241 0.929603
0.582494 3.15662 0.349226
-1.40134 2.11736 1.16849
-0.55246 2.46417 1.16715
-1.93598 1.71527 -0.446755
-2.07931 1.62218 0.625523
-0.833439 3.07778 -0.75996
-1.19647 2.44961 -0.811133
0.165612 3.24524 -0.31237
-0.33517 3.2633 -0.577384
1.43751 1.56489 0.619599
0.44751 1.96736 1.28665
0.260916 0.892018 1.06123
-1.24526 0.892043 1.00936
-0.48781 0.740637 -0.00185959
-1.01194 1.02116 -0.730967
0.190783 1.05937 -0.878265
0.258239 2.06498 -0.942459
1.10702 1.58793 -0.307646
1.16179 2.34344 0.0481452
-1.83647 3.9439 0.0969568
-1.77194 3.94598 0.655899
-1.36069 4.05656 0.121233
-2.02676 3.14299 1.28378
-1.9858 3.63483 1.08491
-2.45837 3.40089 0.930969
-1.17636 3.47776 0.555045
-1.55081 3.60135 0.852131
-1.30526 3.23515 0.831506
-0.890049 4.18228 -0.0769709
-1.07567 4.398 -0.336431
-0.606872 3.36077 0.414234
-0.835143 3.74489 0.15383
-0.462557 4.26995 -0.395479
-0.585024 4.08133 -0.148309
-0.453957 3.79152 -0.18527
-0.921027 4.34947 -0.624896
-1.5547 4.11987 -0.88388
-0.277695 4.11298 -0.528499
-0.373913 4.6412 -0.652176
-1.46943 3.93361 -0.983902
-0.828179 4.14041 -0.690447
-0.739883 3.97892 -0.702882
-1.76063 4.19025 -1.16201
-1.86295 4.2559 -0.615709
-1.51584 3.89601 -1.06833
-1.59076 4.1965 -1.47377
-1.94036 3.70486 -0.930871
-1.91177 4.00873 -1.37625
-1.65565 3.75474 -1.12809
-2.14879 3.86997 -0.0991207
-2.09953 2.95544 -0.356275
-2.14755 3.47466 -0.295216
-2.46611 3.40858 0.332939
-2.466 2.86178 0.609722
0.0748355 3.28716 0.283452
-0.0580947 3.37872 -0.0539632
-0.209475 3.06352 0.902148
0.00260851 3.28014 0.610903
0.846457 2.88065 0.546401
0.482428 3.09422 0.634612
0.656854 2.73103 0.909843
-1.25079 2.86217 0.902279
-0.769758 2.84519 0.888945
-1.88317 2.60361 1.03391
-1.62209 2.8424 1.16082
-0.475395 2.02834 1.38993
-1.00256 2.3605 1.06175
-0.865417 1.75042 1.1636
-2.37507 2.24493 0.344158
-2.19279 2.36832 0.840941
-1.96243 2.35281 -0.587664
-2.24686 2.27719 -0.226857
-1.78736 1.09239 0.313152
-2.14401 1.5809 0.0199502
-1.72498 1.13222 -0.157096
-1.35546 3.47051 -0.820582
-1.43232 2.90986 -0.699081
-1.15498 3.64106 -0.803385
-1.33692 3.66134 -0.871572
-0.819223 1.98687 -1.08219
-0.994264 2.9108 -0.776257
-0.516296 2.28987 -1.07738
-0.507522 3.88127 -0.62506
-0.733625 3.68862 -0.700746
-0.301365 3.56169 -0.332495
-0.436679 3.81415 -0.525521
0.276969 2.80622 -0.635503
-0.111345 3.2503 -0.458909
0.618639 2.88564 -0.431285
1.29318 0.95918 0.332388
0.963629 1.10847 0.842579
0.673793 0.7399 0.528715
0.818937 2.20379 1.0355
0.926209 1.72052 0.918689
1.15562 1.90267 0.587323
-0.19517 1.19996 1.38884
0.3889 1.3801 1.23091
-0.0371245 1.74659 1.4075
-0.0652852 0.773554 0.602517
0.284955 0.740675 0.0110585
-0.807542 1.13668 1.23622
-0.473491 0.739334 1.20166
-1.19813 0.74297 0.0101015
-0.89012 0.740676 0.614052
-1.55229 0.737944 0.655481
-0.100467 0.74068 -0.542616
0.561941 0.846229 -0.493948
-1.46894 0.805669 -0.472119
-0.899182 0.736063 -0.547871
-0.197662 1.41329 -1.08313
-0.53323 0.963237 -0.919055
-0.710308 1.39857 -1.00552
0.738837 1.28048 -0.611505
1.17039 1.08645 -0.276457
-0.0582066 1.8925 -1.14292
0.28116 1.58157 -0.921016
1.03357 1.96624 -0.454868
0.732655 1.80899 -0.732951
0.581364 2.25032 -0.812261
1.4971 1.49598 0.0284482
1.09655 2.41357 -0.271131
1.16059 1.90985 -0.0971295
1.22314 1.83316 0.27353
1.15998 2.39138 0.411191
-0.0237465 2.24413 1.39697
0.38204 2.4863 1.16223
-0.139521 2.61637 1.0641
-1.66732 1.10195 0.840359
-1.25174 1.3586 0.978714
-1.75259 1.8358 0.990581
-1.03792 1.59216 -0.749165
-1.41354 1.35712 -0.456647
-1.60958 1.98093 -0.698761
0.0616714 2.60384 -0.796176
-0.23086 2.40153 -0.966816
-0.594337 3.17212 -0.706298
0.913365 2.82329 0.215703
0.86277 2.85304 -0.145878
0.496648 3.21527 -0.0144611
-1.65477 4.09957 -0.213293
-1.65014 3.94338 0.169998
-1.44299 4.15906 -0.155053
-2.03505 3.94618 0.657459
-1.81262 3.94316 0.419827
-2.10526 3.94433 0.393944
-1.32721 3.90439 0.28475
-1.5994 3.94505 0.443495
-1.48788 3.90502 0.603132
-2.2399 3.01321 1.24713
-2.2672 3.29442 1.19814
-2.46952 3.13436 1.04461
-1.77764 3.41396 1.10691
-2.05602 3.39596 1.22617
-1.7916 3.20277 1.22445
-2.37995 3.6566 0.767388
-2.24795 3.55749 1.06712
-2.22425 3.79742 0.920114
-1.01417 3.29749 0.59048
-1.31656 3.38668 0.718354
-1.06656 3.18068 0.691825
-1.47769 3.72485 0.691341
-1.39896 3.53425 0.692224
-1.30419 3.66104 0.511734
-1.48065 3.22858 0.922213
-1.4787 3.40822 0.836463
-1.61253 3.41437 0.94733
-1.93282 3.83479 0.901285
-1.72162 3.62002 0.975275
-1.64279 3.8483 0.880786
-1.22265 4.36573 -0.0807113
-1.28638 4.23344 -0.400476
-1.10638 3.93037 0.161848
-1.10511 4.16252 0.0726123
-0.846627 4.50415 -0.266098
-0.914596 4.38043 -0.131681
-0.750569 4.35928 -0.158002
-0.759548 3.2682 0.53803
-0.896587 3.41076 0.452583
-0.664471 3.7084 0.0832848
-0.752213 3.54999 0.26907
-0.503259 3.47 0.230803
-1.02385 3.59403 0.365746
-1.11066 3.75291 0.294391
-0.377723 4.03488 -0.387845
-0.422655 4.07057 -0.262781
-0.411809 3.81643 -0.289093
-0.631662 4.30578 -0.259429
-0.524659 4.17373 -0.279583
-0.540521 4.41303 -0.372952
-0.464224 3.6814 -0.0678361
-0.493922 3.97317 -0.188165
-0.579777 3.82357 -0.0631871
-0.897778 3.97313 0.0258355
-0.708752 3.90579 -0.0283198
-0.747119 4.18315 -0.141988
-1.26757 4.1766 -0.586436
-1.52477 4.15931 -0.706181
-0.771686 4.70802 -0.459436
-0.993472 4.45043 -0.579584
-1.57233 4.09496 -0.987752
-1.25959 4.08145 -0.69545
-1.25443 4.03324 -0.734136
-0.360056 4.00356 -0.447127
-0.334604 4.18938 -0.470992
-0.265411 4.54459 -0.815398
-0.30456 4.3726 -0.620599
-0.162836 4.3447 -0.763341
-0.419357 4.40639 -0.484367
-0.485677 4.62155 -0.466501
-1.33718 3.85564 -0.888379
-1.19315 3.88968 -0.786426
-1.07916 3.81961 -0.773412
-1.25863 3.97579 -0.773347
-1.23064 3.93272 -0.782494
-1.5573 4.0363 -1.04937
-0.492466 4.14687 -0.788087
-0.780666 4.09324 -0.699439
-0.484264 4.34379 -0.87712
-0.644165 4.6644 -0.707103
-0.535442 4.49976 -0.815536
-0.873886 4.21489 -0.669441
-1.69191 4.2148 -0.808474
-1.75774 4.19402 -0.583689
-1.60295 4.35245 -1.20789
-1.67921 4.25011 -1.09993
-2.09661 4.25175 -0.736872
-1.87443 4.19811 -0.972673
-1.9087 4.16007 -1.01689
-1.40541 3.84494 -0.947405
-1.50422 3.91497 -1.04515
-1.65272 4.11152 -1.34731
-1.58738 4.02344 -1.27915
-1.60756 3.94839 -1.28011
-1.58722 4.04705 -1.25291
-1.62837 4.15982 -1.34082
-1.73495 3.41969 -0.709169
-1.78272 3.74011 -1.10159
-1.6197 3.43469 -0.7739
-1.91179 4.06652 -1.13768
-1.93419 3.86975 -1.1679
-2.02669 3.89755 -0.950891
-1.64787 3.83251 -1.25771
-1.7962 3.93424 -1.29754
-1.74429 3.99738 -1.31939
-1.68969 4.13024 -1.29711
-1.69329 4.09777 -1.30717
-1.80425 4.10403 -1.2683
-1.8674 4.15126 -0.294082
-2.12777 4.00828 -0.574467
-2.02613 4.11415 -0.396244
-2.04529 3.94291 0.00842528
-2.2554 3.87565 0.277335
-1.85478 3.07805 -0.505207
-1.89115 3.36182 -0.543816
-2.37216 3.18053 -0.142819
-2.12415 3.23474 -0.333511
-2.34932 2.89746 -0.210671
-2.00051 3.59644 -0.60593
-2.0931 3.78734 -0.663473
-2.46639 3.12973 0.76108
-2.46812 2.85628 0.848093
-2.46672 3.70477 0.483193
-2.4669 3.41057 0.634167
-2.46634 2.86367 0.331229
-2.54428 3.13427 0.471334
-2.4663 3.1449 0.185836
-2.19396 3.68616 -0.248177
-2.35993 3.426 6.94803e-06
-2.37095 3.67497 0.154942
-0.2817 3.53003 -0.122915
-0.320242 3.60874 -0.246397
-0.227644 3.38453 0.170795
-0.260185 3.45862 0.0225316
0.300782 3.28099 0.167732
0.0402102 3.31249 0.145841
0.32941 3.28012 0.332314
-0.529902 3.0801 0.728552
-0.396056 3.19744 0.642968
0.144548 3.125 0.842548
-0.0940805 3.17786 0.772416
0.0336748 3.01358 0.952051
-0.280042 3.28495 0.497804
-0.227607 3.32035 0.349951
0.944509 2.62617 0.663413
0.754185 2.79258 0.736594
0.879411 2.58791 0.840785
0.578697 3.16374 0.50762
0.684886 3.00239 0.611328
0.710178 3.02694 0.447489
0.475606 2.81722 0.926252
0.637516 2.92873 0.834162
0.379243 3.03301 0.822282
0.0725064 3.28121 0.433226
0.247412 3.20111 0.638313
0.333666 3.28672 0.500557
-1.06903 3.02099 0.780401
-0.849271 3.01779 0.754557
-1.47723 3.04588 0.973633
-1.34011 3.04454 0.889106
-0.668932 2.6842 0.969082
-1.05789 2.85587 0.863847
-0.917453 2.66376 0.955261
-2.123 2.72738 1.11536
-1.9643 2.82254 1.2776
-1.52879 2.52523 1.02852
-1.73661 2.73408 1.1269
-1.64051 2.34374 1.06061
-1.75317 2.964 1.27998
-1.66158 3.03369 1.18203
-0.485274 1.73498 1.38959
-0.737201 1.84491 1.36709
-0.645174 1.63286 1.26804
-0.7771 2.39354 1.09431
-0.732412 2.18131 1.2698
-0.511457 2.31194 1.34497
-1.1149 1.91196 1.06664
-0.922314 2.01492 1.13168
-1.20694 2.24283 1.06651
-1.4594 2.85195 1.00217
-1.35744 2.61219 0.978763
-1.17821 2.65329 0.955133
-2.28138 2.6241 0.708593
-2.22449 2.64139 0.915675
-2.35692 2.58228 0.207802
-2.35652 2.58648 0.444844
-2.24442 1.97093 0.790624
-2.33615 2.24704 0.597614
-2.27167 1.94485 0.482555
-1.78878 2.73572 -0.553672
-2.0056 2.6596 -0.453517
-2.18294 1.95838 -0.367467
-2.12969 2.311 -0.440718
-2.01982 1.98788 -0.542948
-2.2074 2.60972 -0.312528
-2.26252 2.58482 -0.0681111
-1.9134 0.792435 0.19679
-1.86455 1.06844 0.0173163
-1.91332 0.834088 -0.198717
-2.1437 1.57615 0.309384
-1.87621 1.39774 0.161616
-1.83117 1.40392 0.465888
-1.77683 1.47009 -0.25106
-1.86904 1.40725 -0.0787821
-2.07784 1.622 -0.252563
-2.37729 2.24142 0.0459023
-2.24663 1.92839 -0.117627
-2.30463 1.90678 0.181586
-1.50977 3.40786 -0.776707
-1.54582 3.09453 -0.681258
-1.51957 3.74639 -1.00679
-1.52852 3.66581 -0.960772
-1.34826 2.73504 -0.733315
-1.3744 3.3004 -0.761325
[...]
POINT_DATA 642
SCALARS Mean_Curvature double 1
LOOKUP_TABLE default
-0.985161
-0.0951248
6.08821
3.52386
4.52682
-0.522657
0.000511196
0.461619
4.84432
-1.56203
-0.508271
1.57193
2.17028
4.84924
-0.573161
-0.298743
5.45031
8.89454
0.258726
2.25436
5.79929
2.92851
0.569166
1.34437
4.58882
1.31719
1.91597
2.20321
0.404792
0.514168
0.113929
0.351303
4.82521
1.26919
2.12747
1.18244
0.160835
0.780344
1.46697
-0.836324
-1.3191
0.639481
-1.05462
2.20569
1.30108
2.40902
2.81823
3.32193
-0.384251
1.39803
2.20237
-1.3583
1.12469
-0.296243
-0.109941
-1.28737
3.75871
0.227585
-0.821573
0.259635
11.3979
6.88609
0.240391
-0.0439224
0.151579
2.35312
4.37243
-0.180142
16.8642
3.17938
13.2545
1.74032
1.68184
-0.147628
-0.751374
0.666056
1.30025
-0.844624
-0.714742
3.65728
3.60321
3.77766
-0.943538
1.85607
-1.06027
0.646282
-1.68039
4.39502
0.732163
-0.166539
-0.939731
1.41799
1.63144
3.50544
0.686146
-1.15909
2.53397
-1.33068
0.637779
-0.336305
0.295539
0.653399
2.1671
0.0661685
1.86161
0.469396
0.639617
0.373295
0.43942
1.57671
-0.34001
3.62918
2.23512
3.56207
2.63473
1.80949
0.952351
-0.986404
3.92054
0.249479
0.088284
-0.981949
-0.0170354
0.533506
5.20672
-1.41165
-0.0050231
1.7704
0.693629
1.4059
5.72765
2.17254
1.09993
0.920306
1.0233
-0.4199
3.02927
3.35125
-2.09227
1.10729
-0.089601
2.6455
1.82554
4.20386
-1.86042
-3.53531
1.39849
3.40648
1.71356
-1.99607
3.37515
-1.68991
1.36312
-1.29633
-1.37842
2.183
0.463098
-0.71352
0.464614
0.902947
2.7389
2.6815
-1.19834
-2.15355
-0.0404275
2.89626
-0.0834117
2.09423
-0.0727387
1.47726
5.74905
4.34603
3.04959
4.65068
0.661762
3.31387
1.94991
1.59545
2.46091
4.6764
-0.486677
-0.766943
-0.771112
-0.284144
-1.07273
-0.603229
-1.11236
-0.763851
-1.61116
2.24753
1.11901
6.11907
5.50462
-0.00521803
-0.973727
3.70418
3.13492
3.93733
5.38787
-0.514228
-0.506466
-0.0267238
-0.427421
-0.280672
-0.539083
-0.492542
0.270771
8.48812
0.196755
-1.52588
-1.93449
-1.32265
0.0784001
0.796947
-0.1026
-0.751408
-0.407059
-1.43616
0.134985
0.0261039
6.33804
6.72271
1.06756
0.254549
0.343008
-1.11643
3.32153
7.8311
-0.385909
8.97777
0.598881
5.78414
0.645634
0.500937
0.636776
0.281596
0.412785
-0.118177
0.338432
-0.069584
5.32226
5.51357
2.7147
-0.387943
2.58105
-1.49382
11.2347
5.00222
7.31494
2.23529
2.63582
0.490446
0.103998
3.74616
15.5094
13.1259
3.95293
4.91891
-0.0957238
2.45871
0.220653
2.60804
6.26404
0.3888
14.7288
2.28252
3.6293
4.05791
6.94601
3.48477
3.25948
2.41184
3.00288
1.59885
2.80779
-0.822234
-0.581722
2.56953
0.206372
3.07809
-0.805477
2.52641
-0.607766
4.36001
4.37359
0.368102
0.846745
3.10938
0.56904
1.39807
0.480569
2.09291
-0.185724
-0.585409
-0.524126
-0.339614
1.84642
-0.962872
1.80641
-0.822467
0.725563
3.44837
1.38378
4.11841
0.65795
-0.807373
0.387763
-1.06103
3.86167
5.39947
2.03625
1.37986
-0.0126732
5.54053
2.28804
0.130188
0.172537
5.65269
-0.780482
-0.674051
-0.985987
-0.890815
-1.33809
-0.881095
0.0831224
2.2106
4.70764
-1.00863
0.154864
-0.0513956
5.34758
0.676237
0.867033
4.82842
-1.88517
-1.51182
2.06135
3.76064
-1.23797
-1.45215
-1.1365
-1.21109
-1.07067
-0.250662
-1.7861
0.864008
-0.298083
-0.26297
4.01542
1.92425
0.456833
-0.49275
0.111436
3.08074
1.76997
3.47128
2.27803
-1.93872
6.02199
1.77213
6.68247
2.31423
-1.88616
-1.23198
-1.33266
-0.0384952
3.23781
2.55453
0.826192
1.63509
0.462313
-0.0942924
0.313718
0.0728293
-0.53271
0.215612
0.0669019
0.449183
0.702813
0.12715
0.605633
0.0136877
0.310186
0.327897
1.02772
5.35212
0.0906564
-0.30824
-0.544876
-0.264418
-0.416602
-0.552529
0.293646
0.627136
0.274643
0.467977
0.48484
0.589817
8.5043
-0.173548
0.737911
0.639009
0.816053
0.484076
-0.249544
0.335746
0.402637
-0.302033
-0.76059
7.90441
1.14988
-2.44079
0.964553
0.110763
1.85172
-0.187215
-0.992524
6.53935
-0.399834
0.338566
0.361657
0.595838
1.59608
1.94337
1.06347
1.76635
3.05904
4.5206
4.65715
-2.6003
1.99217
3.03727
0.919638
3.2422
1.88122
-0.84109
2.40992
4.01155
-0.0529756
0.0765859
2.19197
0.125217
-0.800938
2.2427
3.31272
-0.86494
1.5994
2.72453
1.1765
0.0974405
-0.262432
-1.51153
-0.0240541
0.135874
2.57063
0.139609
0.135564
0.242491
0.164416
-0.766584
-1.51491
1.46522
6.64772
3.44985
-1.57543
1.9957
3.24216
2.33647
-0.403541
-0.00273903
-0.489772
0.013063
5.82547
-0.522167
2.80998
1.66676
1.02511
0.0509971
0.953485
3.07455
-0.832241
0.0691473
2.58527
2.63758
4.37408
1.96202
1.69615
1.62217
3.75157
5.47354
-0.235052
0.0106651
0.866033
4.26652
1.56767
0.709722
1.69457
-1.94941
-0.704992
-2.44389
4.81089
0.320719
5.81192
3.59179
0.578014
3.48949
1.20948
2.43339
3.84201
-2.6431
-1.37247
-0.245412
2.73569
-0.637504
0.101008
-0.669912
1.47471
0.688208
3.17319
0.480254
0.208123
-1.33074
0.921641
1.9107
-0.206278
2.40017
2.99643
4.44204
2.78209
0.911044
0.792504
6.0627
3.41405
3.27407
1.5537
-2.30935
2.81183
-0.586573
1.72484
3.04771
4.06579
-2.8561
0.820151
5.52055
3.29037
-1.69244
1.02283
-1.85923
-0.50355
3.88841
-1.64272
5.0819
3.76516
4.1757
-0.952339
0.0610181
3.69016
-0.656459
0.398832
1.80365
1.92296
-1.54606
1.82389
-2.19405
-0.350909
-0.632392
-1.58581
0.494868
1.36193
2.43928
0.699731
1.42023
7.82886
1.63488
-1.21814
-1.42579
-0.350082
-1.37032
-1.3903
5.03797
-1.17444
2.74843
0.738946
3.2056
-0.0491675
0.496739
0.663421
-0.954623
5.33368
-0.827775
-1.5023
0.345481
-1.17793
1.89413
1.04588
-0.91362
-1.31337
-1.32273
-1.14528
1.65731
3.77253
-2.55841
1.61688
-1.13478
0.496964
-1.22463
0.590378
0.171344
0.32662
-0.8659
-0.618683
1.46714
-0.0237293
0.581388
3.32021
5.21262
0.509813
0.552656
0.241001
0.0587955
0.438956
0.052817
0.178852
-0.415138
3.26211
2.94669
0.683726
-0.655348
-0.120835
4.48541
2.89373
0.0888093
-1.50325
3.44688
-0.325606
1.45901
-0.143652
-0.928886
6.81908
0.974162
1.47969
-0.921025
SCALARS Redistribution_Potential double 1
LOOKUP_TABLE default
2.49792e-09
-0.476015
-0.48157
-1.01313
-0.786471
-0.687116
-0.754491
-0.025592
-0.943147
-1.05577
-0.110791
-0.605925
-0.512492
-0.756368
-0.538147
-0.59222
-0.350418
-0.390214
0.54662
0.852145
0.483218
-0.417646
-0.950753
-0.943334
-0.66043
-0.822247
-0.447699
-0.518072
-0.476795
-0.451864
-0.739434
-0.591973
-1.03807
-1.02422
-0.9021
-0.529039
-0.766327
-0.513155
-0.902664
-0.879907
-0.973877
-1.02192
-0.280737
-0.575533
-0.353666
-0.733307
-0.700273
-0.6317
-0.62552
-0.691711
-0.708726
-0.345683
-0.248089
-0.664326
-0.51749
-0.400301
-0.428765
-0.51073
-0.244204
0.402183
-0.397645
-0.367884
0.358586
-0.27311
-0.330753
0.939019
0.285654
0.47254
1.1496
0.43434
0.910301
0.485789
-0.1363
-0.27455
-0.10971
-0.412203
-0.538462
-0.791292
-0.675498
-0.868791
-0.848832
-1.01816
-0.961602
-1.02876
-0.696826
-0.768552
-0.653437
-0.724814
-0.843726
-0.711254
-0.607847
-0.404893
-0.583358
-0.399409
-0.426433
-0.443404
-0.452318
-0.395215
-0.102761
-0.280483
-0.184301
-0.0063742
-0.622611
-0.441123
-0.683668
-0.400834
-0.387877
-0.550851
-0.430604
-0.813205
-0.651635
-0.8943
-1.0303
-1.02813
-0.985123
-1.05843
-1.04507
-1.03874
-0.81912
-0.972933
-0.932124
-0.836873
-0.928078
-0.61298
-0.697692
-0.59688
-0.663703
-0.553067
-0.850283
-0.969158
-0.447123
-0.616099
-0.818401
-0.725947
-0.658757
-0.978213
-1.01346
-0.835206
-0.90586
-0.986329
-0.958943
-0.920611
-1.01448
-0.998794
-0.995675
-1.01486
-1.03987
-0.967225
-1.01267
-0.905233
-0.518556
-0.477532
-0.600518
-0.436904
-0.344393
-0.42999
-0.778535
-0.737342
-0.538966
-1.00069
-0.958547
-0.871332
-0.057041
-0.348088
-0.177158
-0.556881
-0.468359
-0.429007
-0.461983
-0.498345
-0.577726
-0.688873
-0.69911
-0.643252
-0.741317
-0.728097
-0.755513
-0.581464
-0.676578
-0.633414
-0.656449
-0.677474
-0.678775
-0.634665
-0.649346
-0.583577
-0.726609
-0.709135
-0.727049
-0.649897
-0.706406
-0.657257
-0.273514
-0.131
-0.427171
-0.356956
-0.311022
-0.319943
-0.344849
-0.6738
-0.619303
-0.54139
-0.581202
-0.629721
-0.559741
-0.50808
-0.436632
-0.44192
-0.491502
-0.355712
-0.407459
-0.373247
-0.550987
-0.46668
-0.506521
-0.419356
-0.466922
-0.360424
-0.0646098
0.215691
-0.300693
-0.249733
0.530933
-0.0225978
-0.0125465
-0.430082
-0.407347
-0.380403
-0.392462
-0.393064
-0.387199
-0.360248
0.105266
-0.0761144
-0.178798
0.00235304
-0.0334949
0.560473
-0.370563
-0.297774
-0.36853
-0.335882
-0.35538
-0.250912
0.43051
0.23405
0.940235
0.86138
0.402595
0.725788
0.769701
0.214959
0.4465
1.10252
0.891575
0.83495
0.871262
1.10257
0.0377829
0.512984
0.0206296
0.844146
0.690331
0.529302
0.689323
0.875512
0.979428
1.09997
1.10908
1.02345
0.0362103
0.263698
0.124501
-0.205103
-0.344023
-0.148492
-0.0112636
-0.30092
-0.185612
-0.349991
0.166928
0.331027
-0.581481
-0.586718
-0.45729
-0.538005
-0.478865
-0.486312
-0.410321
-0.0765775
-0.262847
-0.205133
-0.592838
-0.549032
-0.676888
-0.63364
-0.837322
-0.746941
-0.87498
-0.772629
-0.775712
-0.921871
-0.86402
-0.915965
-0.758126
-0.722217
-1.0429
-1.02713
-1.04789
-0.959565
-0.995277
-0.984903
-1.0001
-1.00716
-0.963592
-0.826905
-0.910113
-0.903374
-0.698844
-0.726723
-0.719216
-0.710608
-0.789788
-0.716916
-0.746669
-0.660505
-0.705759
-0.683548
-0.704671
-0.670662
-0.743313
-0.750493
-0.809977
-0.734396
-0.702802
-0.740036
-0.758311
-0.850607
-0.612395
-0.617528
-0.678139
-0.690579
-0.689427
-0.714219
-0.513576
-0.602584
-0.45612
-0.491036
-0.55
-0.505458
-0.471933
-0.285622
-0.343075
-0.429131
-0.416478
-0.431251
-0.386502
-0.420963
-0.475244
-0.439806
-0.420014
-0.470034
-0.449558
-0.478424
-0.439
-0.447535
-0.454223
-0.422761
-0.423703
-0.356776
-0.0546914
-0.184405
0.293301
0.2107
-0.353135
-0.181541
-0.317345
-0.0784171
0.0727332
-0.230562
-0.0987461
-0.278074
0.25139
0.34486
-0.705796
-0.652139
-0.737098
-0.445136
-0.540173
-0.522264
-0.582156
-0.546742
-0.457677
-0.0185098
-0.252038
-0.269349
-0.35715
-0.252351
-0.386583
-0.376413
-0.471526
-0.406957
-0.486067
-0.501532
-0.457876
-0.559076
-0.496753
-0.626948
-0.403569
-0.393429
-0.905681
-0.855952
-0.929314
-0.612991
-0.75051
-0.697412
-0.842924
-0.801462
-0.690917
-0.404802
-0.531706
-0.494262
-1.02135
-1.02319
-1.00171
-1.04074
-1.03056
-1.0276
-0.954955
-1.00956
-0.984807
-1.06189
-1.05717
-1.05482
-1.03889
-1.05368
-1.04655
-1.04002
-1.0483
-1.04368
-0.798839
-0.88312
-0.85061
-0.942165
-0.908919
-0.826398
-0.989647
-0.959657
-1.00844
-1.03534
-1.02431
-1.00741
-0.955784
-0.970927
-0.858669
-0.915604
-0.855926
-0.885183
-0.808426
-0.650858
-0.704718
-0.57
-0.65461
-0.559847
-0.722626
-0.686899
-0.513557
-0.546004
-0.519953
-0.705172
-0.641416
-0.676525
-0.550355
-0.5969
-0.596991
-0.736375
-0.666983
-0.732015
-0.951562
-0.993232
-0.812881
-0.888533
-0.939477
-0.922616
-0.883044
-0.385269
-0.518029
-0.530382
-0.543353
-0.472481
-0.61543
-0.697336
-0.781869
-0.743619
-0.724619
-0.835693
-0.783401
-0.870269
-0.594033
-0.680303
-0.632128
-0.742785
-0.667509
-0.793319
-1.00161
-1.02098
-0.946006
-0.980641
-1.00106
-1.00331
-0.989425
-0.796012
-0.833085
-0.90036
-0.872607
-0.860612
-0.872835
-0.909836
-0.967206
-0.960774
-0.933337
-0.984049
-0.975154
-0.987771
-0.902928
-0.947999
-0.926105
-0.944908
-0.935596
-0.971344
-1.02274
-0.991746
-1.01321
-1.02891
-1.02704
-0.977549
-0.991569
-1.01195
-1.00517
-1.01554
-0.994648
-0.979237
-1.04292
-1.04835
-1.02964
-1.00888
-1.03006
-1.02897
-1.01939
-1.00361
-0.991112
-1.01639
-0.898294
-1.00197
-0.959427
-0.913748
-0.90484
-1.04784
-0.983441
-1.02815
-1.04152
-1.0274
-0.822672
-0.870556
-0.850078
-0.889092
-0.908062
-0.993578
-0.963675
-0.946214
-0.515414
-0.505503
-0.527125
-0.513822
-0.475272
-0.517927
-0.574855
-0.485065
-0.474567
-0.50379
-0.631742
-0.557066
-0.610358
-0.644762
-0.631985
-0.511347
-0.541515
-0.497774
-0.649835
-0.471151
-0.555188
-0.540489
-0.468606
-0.349516
-0.422607
-0.390848
-0.362148
-0.384177
-0.314863
-0.439659
-0.389286
-0.415895
-0.437975
-0.360203
-0.404556
-0.375414
-0.877255
-0.840346
-0.858903
-0.796784
-0.672877
-0.763476
-0.611495
-0.704857
-0.79702
-0.822177
-0.294022
-0.560755
-0.436969
-0.335051
-0.502148
-0.759217
-0.637998
-0.652395
-1.03412
-1.01914
-1.02583
-1.01048
-0.971002
-0.959879
-0.880739
-0.930024
-0.983157
-1.00741
-0.605677
-0.912074
-0.779732
-0.690533
-0.797779
-0.987245
-0.921104
-0.953453
SCALARS CoVolArea double 1
LOOKUP_TABLE default
0.0552206
0.0111119
0.063606
0.0626846
0.0366328
0.0382038
0.0252541
0.0106975
0.0274781
0.0419564
0.04967
0.0561065
0.070319
0.0481834
0.0459988
0.0472617
0.0441496
0.0451755
0.0280972
0.0155704
0.0618311
0.0890912
0.0475732
0.0415154
0.088398
0.0670166
0.0755354
0.106682
0.0524814
0.0980451
0.0471456
0.0464985
0.0728142
0.068158
0.0912432
0.063411
0.124593
0.0561885
0.0713121
0.0579463
0.0554508
0.0437624
0.0831459
0.0639285
0.081481
0.0671392
0.0728932
0.0810963
0.0535243
0.0433326
0.0458475
0.0445871
0.0686936
0.0665024
0.0577889
0.0275067
0.0348559
0.0318529
0.0601033
0.0378379
0.0288413
0.053134
0.0194724
0.040847
0.040984
0.024426
0.0593312
0.0119829
0.0106346
0.0741656
0.0269997
0.0405076
0.0863154
0.0886729
0.0866289
0.0900153
0.0768182
0.0416011
0.0423042
0.0591078
0.0558766
0.0450386
0.0489454
0.0459978
0.044117
0.0601175
0.0743679
0.0473414
0.072877
0.0797875
0.0771559
0.0919965
0.0812365
0.0815795
0.0885369
0.094247
0.0961176
0.0670363
0.0280009
0.0680341
0.015927
0.014538
0.0790462
0.0596903
0.0662884
0.0193268
0.0358047
0.0225848
0.0257699
0.0559351
0.0432877
0.0445565
0.102071
0.0889579
0.0991638
0.0577447
0.0753692
0.0479869
0.0814054
0.0952881
0.0795391
0.123222
0.0908121
0.0635174
0.0974749
0.095447
0.101946
0.086139
0.0998988
0.0819832
0.0692486
0.0809877
0.0778479
0.073321
0.059364
0.076369
0.0720442
0.0542112
0.0708432
0.0573552
0.0662953
0.0620651
0.0730338
0.0443777
0.0473775
0.0463367
0.0546487
0.0560086
0.0622893
0.0604914
0.0687683
0.0741722
0.0894932
0.0808314
0.0681979
0.0880205
0.0701484
0.0578166
0.0696703
0.042695
0.0547929
0.0518795
0.0765203
0.0783646
0.0803359
0.0715028
0.0659585
0.0725531
0.0592148
0.0634794
0.0594878
0.0710763
0.0721982
0.0737832
0.0579345
0.0672794
0.05037
0.0776914
0.0746611
0.0766212
0.0437353
0.0450445
0.0428055
0.0482505
0.0414599
0.0475684
0.0411011
0.0356347
0.0433969
0.0742203
0.0585341
0.063061
0.0824319
0.0676829
0.0534734
0.0667961
0.0570903
0.0535956
0.0316994
0.0561579
0.0556646
0.0449431
0.0607614
0.0583617
0.0609458
0.0552644
0.0222176
0.0265638
0.0249496
0.0302114
0.0257621
0.0292278
0.0376987
0.0262044
0.0363081
0.0554297
0.0451564
0.0394747
0.057159
0.0536153
0.0769228
0.068459
0.0244654
0.0394682
0.0309549
0.0146142
0.0258714
0.0481293
0.0449002
0.0395269
0.0375355
0.0537006
0.0123712
0.0298469
0.0280749
0.0259789
0.0248189
0.0216655
0.0445121
0.0402484
0.0551486
0.0768562
0.0635953
0.0558989
0.0467156
0.055893
0.0337741
0.0348642
0.0654069
0.0448275
0.0344114
0.00839998
0.0089804
0.0110849
0.0121363
0.0136412
0.0165312
0.0260444
0.0691944
0.0580206
0.048744
0.0413452
0.0443361
0.0575488
0.0199756
0.027492
0.0141419
0.0160707
0.0105669
0.0214374
0.0721748
0.0857746
0.0739383
0.0752594
0.0734782
0.0815134
0.0848923
0.0904438
0.0867865
0.0880202
0.0781357
0.0786247
0.0775736
0.0705874
0.0845548
0.0834347
0.0794545
0.0821225
0.0872827
0.100089
0.095288
0.0960327
0.0381114
0.0218463
0.0502334
0.0421396
0.0499956
0.0437464
0.0426569
0.0673651
0.0688721
0.0508036
0.0580556
0.0466561
0.0637722
0.0544829
0.0508169
0.0475179
0.0508008
0.0388712
0.0408944
0.0337083
0.0486335
0.0477992
0.0536761
0.0497212
0.052318
0.044509
0.0510586
0.0569609
0.0455605
0.0411093
0.0647667
0.04853
0.0650143
0.0663927
0.0705235
0.0742804
0.0588555
0.0804865
0.0495114
0.0428306
0.0517823
0.073612
0.0610704
0.0717688
0.0825232
0.0649707
0.0817345
0.0796728
0.0872585
0.0499514
0.0690464
0.0628122
0.0782723
0.0638022
0.0892236
0.0838834
0.107773
0.0925185
0.104935
0.0835
0.0849963
0.0833665
0.0795193
0.0773503
0.0824562
0.0924481
0.0897809
0.0868143
0.0799524
0.108557
0.0917479
0.0977566
0.0706601
0.0753593
0.0859705
0.101941
0.099071
0.106214
0.0482713
0.0629704
0.0193558
0.0313448
0.0799985
0.0483574
0.0620385
0.0146869
0.0109527
0.0281429
0.012081
0.029601
0.0126793
0.0132867
0.0483882
0.0689555
0.0498314
0.0799443
0.0751194
0.0905875
0.0612134
0.068995
0.0564049
0.0196946
0.0335925
0.040621
0.0341363
0.0259944
0.0307083
0.0266874
0.0393439
0.0288705
0.0274577
0.0161346
0.0178406
0.0280724
0.0230501
0.0323774
0.0288517
0.0338609
0.0448904
0.0518044
0.0443876
0.0381792
0.0519206
0.050392
0.0489861
0.0502496
0.0438467
0.0238141
0.0279831
0.0257826
0.0772864
0.0951181
0.0776528
0.0887747
0.094618
0.105336
0.098508
0.0916595
0.0905555
0.0574809
0.0575128
0.0539612
0.0718379
0.0596191
0.0659446
0.046279
0.0575257
0.0731927
0.0608027
0.0752753
0.0572051
0.0872876
0.0807649
0.0863028
0.0716644
0.0838281
0.0851212
0.0993888
0.102198
0.10377
0.0948629
0.0772779
0.105653
0.108894
0.10883
0.110417
0.132127
0.0604058
0.0671303
0.0893332
0.0851714
0.0687074
0.0828576
0.0838785
0.0776165
0.102568
0.080514
0.119584
0.101732
0.100622
0.0640969
0.096611
0.0882297
0.110582
0.103335
0.128483
0.0892973
0.0899647
0.111234
0.0977722
0.0793187
0.0915951
0.0934709
0.065274
0.0777047
0.0629862
0.0683399
0.0631027
0.0825179
0.105777
0.0525516
0.0704363
0.0509965
0.0814655
0.0745915
0.0730447
0.0534758
0.0540414
0.0596585
0.108158
0.0875956
0.0960695
0.0780365
0.0749801
0.0718747
0.075573
0.0711597
0.0711841
0.0649431
0.0423922
0.0535597
0.0553138
0.0517496
0.0520191
0.0693993
0.070972
0.057619
0.0650125
0.0562498
0.0586134
0.0493357
0.0412187
0.0540978
0.0507771
0.0603257
0.0891397
0.0799071
0.0842687
0.0860526
0.0692763
0.0851555
0.103609
0.0823784
0.04268
0.0505604
0.0381011
0.0433018
0.0438571
0.047335
0.0530397
0.0471253
0.051461
0.0493521
0.0402359
0.0527128
0.0480515
0.0430047
0.0624386
0.0522978
0.0615376
0.0632222
0.0585627
0.0604819
0.061137
0.0579129
0.0537026
0.0554382
0.0490711
0.056742
0.0671726
0.0672708
0.0631991
0.0647902
0.05647
0.0544591
0.063501
0.0653641
0.0591709
0.0820453
0.0569068
0.0709651
0.0804099
0.0776303
0.0726939
0.0813493
0.0755465
0.069368
0.0654948
0.0683778
0.101928
0.0917749
0.0817215
0.0844204
0.0757278
0.0894576
0.0870083
0.0658337
0.0692449
0.0624291
0.0775236
0.0954703
0.0644966
0.0723436
0.0689883
0.0700158
0.0637406
0.088184
0.106012
0.0890094
0.0854427
0.0744933
0.0780635
0.0763508
0.0976532
0.0599638
0.0640828
0.0584406
0.0568267
0.0700269
0.0573005
0.0605439
0.0558156
0.0583549
0.0578783
0.0294257
0.0643286
0.0494331
0.046325
0.0629555
0.0670174
0.0677868
0.07643
0.0507897
0.046684
0.0478283
0.0412053
0.0403251
0.0461899
0.0570374
0.0452715
0.0496409
0.0493848
0.0317005
0.0467219
0.0490982
0.0432303
0.0544669
0.0493122
0.0567828
0.0450668
SCALARS SignedDistance double 1
LOOKUP_TABLE default
1.18447
1.15311
0.0152119
0.172163
-0.0143503
1.07834
0.000243673
1.39221
-0.00158334
-0.0905797
1.29948
-1.00204
-0.00507454
0.0625481
0.457894
1.33925
0.0161527
0.080278
0.643052
-1.00063
0.000923727
-0.019498
9.07146e-06
0.0693608
0.00546182
0.0466511
-0.00259882
0.0193616
1.30784
0.117359
0.131537
1.26541
-0.00213423
0.114529
0.00598858
-0.975381
0.000738344
-0.974189
-0.0107223
-0.0572799
0.598429
0.0404681
0.0146569
0.0476406
-0.0157968
0.0515528
0.000755781
0.0453025
1.14854
0.0270987
0.03128
0.824053
0.0213576
1.16685
1.24368
0.0216761
0.0555862
1.13682
0.802943
0.795858
-0.0765808
0.112837
1.18205
1.02374
1.17927
-1.01986
0.0131874
1.13304
0.0249809
-0.384827
-0.0704783
0.06903
0.00100783
0.00670352
0.00276938
-0.00742945
-0.0066041
0.181838
1.15447
0.129762
0.0155537
0.140202
0.0115076
0.0988951
1.10273
0.118376
0.510955
0.0598668
-0.00492707
0.0460025
1.04132
-1.00059
-0.00286515
0.0190134
0.000877241
1.00876
-0.00303207
0.585444
1.41116
1.17087
1.46453
1.34749
0.037166
1.23274
0.0352924
1.16213
1.36579
1.35897
1.1752
0.0773272
1.15409
0.128451
0.0465881
0.221015
0.0149814
0.123376
-0.00470714
-0.0873797
-0.0253104
0.00104881
-0.0108799
-0.0791695
4.04079e-06
0.0543493
0.0256623
-0.0545528
-1.02578e-05
0.0457148
-0.000102901
0.126574
-0.0201471
0.0871409
-0.0194444
0.0548959
0.000868374
-0.049834
-0.00360385
0.134006
0.010432
0.0915355
-0.00207701
0.165133
0.00140257
0.15823
0.0162867
-0.0943786
0.00341023
0.130318
0.00411841
0.0986825
0.017416
0.578826
0.00832897
0.85035
0.976009
0.0400409
0.0496264
0.0619643
1.32327
0.0564433
-0.00126286
0.133659
1.13236
0.00425596
0.00602641