# vtk DataFile Version 4.2
vtk output
ASCII
DATASET POLYDATA
POINTS 642 double
-0.883899 2.07303 -0.186132
-0.214362 1.99569 -0.200885
-0.77668 0.479465 0.0425066
0.346054 0.425442 0.0531273
-0.258946 0.706467 0.62271
-0.46612 1.55539 0.379842
-0.269661 0.803987 -0.510549
-0.719757 1.98911 -0.519437
0.385642 1.15002 -0.272899
0.46597 1.1084 0.382714
-0.940962 1.4992 -0.272398
-1.15535 1.41995 0.446641
-1.17237 1.83388 0.262005
-0.954083 1.60021 0.56187
-0.781327 1.91201 0.25274
-0.271546 1.75376 0.12364
-0.379347 2.26096 -0.226002
-0.266882 2.21345 -0.369857
-0.909745 2.18735 -0.691921
-0.917297 2.02647 -0.71861
-1.03791 2.00491 -0.406706
-1.19436 1.40014 0.0435602
0.0972846 1.36692 0.49498
0.291262 1.52041 0.203596
-0.755205 1.00171 0.507579
-0.311629 1.14942 0.601328
-0.967644 0.889656 -0.144698
-1.00752 0.855337 0.259986
-0.422991 1.37161 -0.395831
-0.680605 1.12461 -0.374683
0.162262 1.54304 -0.141722
-0.139721 1.50448 -0.321615
0.618598 0.643075 0.259015
0.18242 0.867339 0.607717
0.0710693 0.465255 0.438369
-0.583264 0.489803 0.427892
-0.255683 0.387676 0.0478724
-0.51835 0.522265 -0.305491
0.0540416 0.491266 -0.329386
0.111743 0.937179 -0.46646
0.566048 0.668282 -0.118271
0.566218 1.07119 0.0426699
-1.05105 1.93773 0.0710486
-1.00753 1.91418 0.315799
-0.815164 2.00365 0.0742548
-1.08869 1.53603 0.551947
-1.10055 1.75753 0.483226
-1.21269 1.64165 0.392528
-0.695718 1.78146 0.327236
-0.913295 1.80981 0.450241
-0.761156 1.5997 0.470492
-0.564049 2.10296 -0.0398139
-0.619594 2.16003 -0.167884
-0.332677 1.64976 0.270815
-0.520999 1.89019 0.125382
-0.307694 2.2473 -0.243062
-0.393004 2.11918 -0.0913543
-0.231487 1.87547 -0.0427744
-0.536986 2.17053 -0.308791
-0.903147 2.14996 -0.470836
-0.260653 2.19359 -0.362531
-0.292169 2.25254 -0.33734
-0.877184 2.14686 -0.707813
-0.451593 2.1402 -0.35884
-0.376168 2.08737 -0.371628
-0.988932 2.17838 -0.658935
-1.00858 2.05969 -0.350642
-0.896256 2.08278 -0.741324
-0.926662 2.17297 -0.739586
-1.00219 1.81547 -0.358218
-1.00861 2.08258 -0.653086
-0.910184 1.85858 -0.51161
-1.11959 1.85651 -0.0340925
-1.09587 1.42089 -0.125453
-1.12615 1.67596 -0.104743
-1.2264 1.65622 0.147618
-1.21558 1.39456 0.247327
0.0597663 1.62657 0.211474
0.0768821 1.65085 0.0517881
-0.148613 1.46042 0.453031
-0.0179501 1.57113 0.348113
0.422449 1.33528 0.30629
0.236133 1.47725 0.361396
0.307628 1.25473 0.476325
-0.685877 1.3715 0.501296
-0.39155 1.35238 0.495708
-0.975468 1.21508 0.47526
-0.879735 1.35341 0.528672
-0.278661 0.947527 0.645369
-0.550861 1.09116 0.551522
-0.501478 0.831163 0.552685
-1.15094 1.10759 0.151474
-1.08959 1.09968 0.336438
-0.993133 1.14303 -0.211951
-1.11183 1.11787 -0.0513141
-0.877934 0.61441 0.169038
-1.03651 0.853232 0.0506262
-0.855122 0.617101 -0.0451764
-0.775493 1.72844 -0.415027
-0.818991 1.32788 -0.319398
-0.659626 1.82966 -0.428452
-0.741423 1.81919 -0.453333
-0.473143 0.949599 -0.457402
-0.548426 1.28325 -0.398686
-0.313756 1.06795 -0.503723
-0.252542 2.0072 -0.327682
-0.38058 1.80897 -0.342661
-0.133726 1.80658 -0.157824
-0.220189 1.98014 -0.28795
0.159019 1.31309 -0.337727
-0.00277264 1.55785 -0.245785
0.320434 1.36274 -0.212235
0.531073 0.50542 0.179467
0.379424 0.534402 0.359468
0.222178 0.423688 0.258704
0.350445 0.971931 0.512801
0.412359 0.717411 0.438895
0.587016 0.816551 0.305755
-0.100415 0.54989 0.566702
0.160745 0.620099 0.543906
-0.0198853 0.773904 0.650109
-0.0884836 0.399951 0.268552
0.0377922 0.391642 0.0483701
-0.402089 0.553331 0.538886
-0.26523 0.453684 0.466473
-0.542184 0.398683 0.048482
-0.422808 0.401266 0.273485
-0.705418 0.453897 0.273323
-0.0904459 0.40856 -0.177142
0.19275 0.436823 -0.156638
-0.672844 0.480857 -0.141398
-0.414604 0.414581 -0.181781
-0.116973 0.604768 -0.451797
-0.263398 0.478134 -0.349059
-0.398429 0.625465 -0.421478
0.311863 0.565858 -0.254756
0.509174 0.523363 -0.0511009
-0.0754626 0.862305 -0.517026
0.130982 0.67498 -0.421837
0.488168 0.88177 -0.204588
0.325355 0.773269 -0.340479
0.268002 1.03216 -0.386071
0.663287 0.638595 0.0620148
0.514023 1.11199 -0.120989
0.646606 0.799266 -0.0184749
0.67431 0.790361 0.151143
0.551362 1.07395 0.224707
-0.0382889 1.0217 0.659943
0.159108 1.12419 0.596412
-0.0899037 1.23615 0.591629
-0.777675 0.582863 0.357459
-0.664793 0.662886 0.466368
-0.900805 0.899245 0.417091
-0.599567 0.782115 -0.348784
-0.750011 0.670813 -0.205822
-0.835586 0.981414 -0.289081
0.0226114 1.2046 -0.434381
-0.136355 1.11684 -0.50005
-0.274134 1.42181 -0.376178
0.477315 1.32824 0.127991
0.444454 1.34023 -0.0584569
0.27547 1.53246 0.000449303
-0.971605 1.99375 -0.0572726
-0.949728 1.97568 0.080438
-0.842704 2.03874 -0.0343532
-1.1036 1.88469 0.298452
-1.04061 1.93143 0.207492
-1.12646 1.88762 0.182311
-0.79141 1.95787 0.174465
-0.923593 1.95206 0.21083
-0.89761 1.92034 0.302818
-1.12996 1.48568 0.51221
-1.16373 1.5953 0.497014
-1.19754 1.53486 0.434181
-1.04223 1.69038 0.539333
-1.10887 1.65224 0.532129
-1.02291 1.57798 0.568436
-1.20147 1.75837 0.328836
-1.16741 1.70946 0.451512
-1.14879 1.80524 0.387105
-0.604177 1.67248 0.343344
-0.736163 1.70438 0.407376
-0.63088 1.57541 0.415053
-0.863495 1.87269 0.368401
-0.815533 1.81396 0.39696
-0.754985 1.86291 0.301199
-0.872774 1.61108 0.531172
-0.852871 1.72032 0.476608
-0.947221 1.71594 0.519874
-1.06741 1.84977 0.410385
-1.01838 1.7947 0.480887
-0.969632 1.87153 0.40177
-0.714866 2.09054 -0.0705686
-0.762651 2.10566 -0.176402
-0.669269 1.98783 0.091569
-0.684821 2.04786 0.014635
-0.457693 2.23296 -0.196333
-0.57384 2.15129 -0.10325
-0.460985 2.20306 -0.144559
-0.396451 1.60703 0.324297
-0.5279 1.71023 0.277086
-0.402746 1.83732 0.108197
-0.451754 1.76806 0.192725
-0.288854 1.69979 0.201407
-0.609095 1.82054 0.233195
-0.646425 1.90384 0.177272
-0.259936 2.16005 -0.240636
-0.289216 2.1024 -0.158287
-0.223819 1.94411 -0.120123
-0.392977 2.23123 -0.177094
-0.34909 2.20991 -0.174098
-0.351477 2.26323 -0.2378
-0.249391 1.81122 0.0409937
-0.323896 2.02418 -0.0772425
-0.360394 1.93636 0.00699846
-0.552796 2.01046 0.0404711
-0.456932 1.99793 0.0145893
-0.474263 2.13152 -0.073052
-0.769464 2.11681 -0.299199
-0.89279 2.11636 -0.343084
-0.415239 2.25882 -0.251202
-0.565434 2.18181 -0.249409
-0.904562 2.17971 -0.606913
-0.765054 2.10659 -0.402093
-0.755735 2.08615 -0.453819
-0.239022 2.12765 -0.28801
-0.266306 2.22989 -0.307417
-0.278541 2.23971 -0.35337
-0.278595 2.24192 -0.349014
-0.266635 2.21338 -0.369461
-0.303392 2.25861 -0.307375
-0.340995 2.267 -0.275066
-0.818846 2.09343 -0.635287
-0.715859 2.04665 -0.470782
-0.6559 1.98214 -0.457266
-0.743667 2.07434 -0.463377
-0.732938 2.06406 -0.467528
-0.901515 2.17459 -0.719
-0.266567 2.20175 -0.374476
-0.41642 2.12488 -0.366027
-0.280127 2.23543 -0.365129
-0.358605 2.26176 -0.311734
-0.303915 2.2515 -0.349622
-0.48966 2.15527 -0.343269
-0.970965 2.12927 -0.440404
-0.976113 2.06205 -0.279911
-0.956419 2.19407 -0.702305
-0.971343 2.18068 -0.602546
-1.02703 2.04703 -0.396909
-1.0076 2.13431 -0.522098
-1.02195 2.12319 -0.560163
-0.839959 2.0582 -0.676291
-0.902068 2.14321 -0.752606
-0.916729 2.12088 -0.752456
-0.908109 2.14575 -0.753588
-0.906657 2.06213 -0.735951
-0.916716 2.16561 -0.744096
-0.932998 2.18048 -0.730036
-0.965631 1.68623 -0.306518
-0.958494 1.84674 -0.458107
-0.902095 1.67521 -0.348799
-1.03207 2.06982 -0.558685
-1.01231 1.96864 -0.527016
-1.03211 1.93225 -0.399938
-0.923361 1.97339 -0.663216
-0.964999 1.96638 -0.621351
-0.953818 2.04514 -0.713787
-0.956949 2.1872 -0.713759
-0.972987 2.16267 -0.720003
-0.999681 2.16366 -0.666096
-1.01606 1.97851 -0.137261
-1.05804 1.91018 -0.217077
-1.04271 1.95092 -0.188533
-1.09623 1.90244 0.0176287
-1.16307 1.84375 0.122195
-1.02399 1.45074 -0.197214
-1.02855 1.61861 -0.218812
-1.17649 1.5442 -0.0219117
-1.11904 1.56039 -0.109589
-1.15687 1.4123 -0.0418262
-1.0489 1.7376 -0.230233
-1.06126 1.83138 -0.233769
-1.22693 1.52233 0.324731
-1.19611 1.39947 0.347156
-1.21209 1.76005 0.206653
-1.23266 1.65314 0.26754
-1.21525 1.39796 0.139559
-1.23556 1.52962 0.202237
-1.22029 1.53439 0.0957965
-1.13433 1.77089 -0.0720006
-1.1923 1.65931 0.0205151
-1.18851 1.76279 0.0702542
-0.117472 1.75022 0.000593985
-0.1184 1.77196 -0.0554282
-0.105692 1.67397 0.175295
-0.111058 1.71281 0.0878317
0.203908 1.58903 0.13728
0.0746436 1.6401 0.138277
0.184268 1.58504 0.215172
-0.284887 1.49588 0.418195
-0.225317 1.55457 0.370929
0.0473811 1.48685 0.423268
-0.0759824 1.52335 0.404313
-0.016405 1.41706 0.479736
-0.162732 1.60225 0.317003
-0.12488 1.63564 0.260167
0.453847 1.23225 0.347719
0.377447 1.30125 0.396861
0.389262 1.19032 0.44387
0.27047 1.50294 0.291916
0.331319 1.41388 0.342846
0.36573 1.43516 0.256152
0.204449 1.31568 0.49385
0.280411 1.37619 0.419546
0.179977 1.43428 0.427473
0.0297826 1.60337 0.286307
0.116391 1.5313 0.362336
0.159939 1.56309 0.293954
-0.587493 1.47135 0.450884
-0.436317 1.45113 0.442581
-0.846057 1.49212 0.536667
-0.733024 1.48544 0.491393
-0.345121 1.24414 0.554035
-0.542764 1.35747 0.488902
-0.492839 1.24347 0.53007
-1.06892 1.31238 0.468088
-1.04632 1.39771 0.524715
-0.81255 1.1734 0.514661
-0.927912 1.29429 0.512401
-0.865577 1.09526 0.492164
-0.994274 1.4579 0.559808
-0.941594 1.48605 0.562969
-0.264628 0.83575 0.643569
-0.387054 0.892274 0.607141
-0.385117 0.758103 0.590247
-0.437395 1.11668 0.576345
-0.402884 1.01451 0.60318
-0.290146 1.05969 0.632014
-0.634555 0.917864 0.52236
-0.522969 0.974085 0.560254
-0.663362 1.05329 0.532176
-0.801117 1.36707 0.521942
-0.727182 1.2095 0.523008
-0.618571 1.22872 0.524073
-1.16083 1.25506 0.297547
-1.11785 1.25012 0.378683
-1.18109 1.24507 0.101518
-1.18288 1.24676 0.190874
-1.05297 0.96754 0.299002
-1.13225 1.09876 0.244333
-1.09685 0.982466 0.204652
-0.977666 1.28456 -0.232437
-1.04541 1.27794 -0.173247
-1.05237 1.00196 -0.101048
-1.05999 1.12422 -0.138184
-0.992078 1.00516 -0.180405
-1.11247 1.26469 -0.0901834
-1.15499 1.25175 -0.00544322
-0.829705 0.530201 0.116115
-0.877326 0.60964 0.0457942
-0.818503 0.537719 -0.0152524
-1.03565 0.849986 0.150722
-0.964481 0.738124 0.104286
-0.942677 0.73734 0.218887
[...]
POINT_DATA 642
SCALARS Mean_Curvature double 1
LOOKUP_TABLE default
1.19091
4.31649
5.85468
3.21571
2.59391
-0.45084
3.22446
2.49531
3.02353
2.97561
0.0385346
4.4458
6.38676
5.58715
2.88289
-0.58126
13.5307
30.5576
12.4154
17.1141
6.71005
2.59547
1.54229
3.56621
1.55014
2.09829
3.08371
2.98505
0.311327
1.58956
2.92971
0.298274
7.18893
2.59288
3.66395
5.6116
0.566635
4.62399
4.15601
1.93109
4.55572
1.17209
3.33019
5.22281
1.30652
7.81484
7.51256
4.66145
0.582619
4.63597
0.818534
4.1126
3.49184
-0.206094
-0.243319
11.0115
2.98262
0.657476
3.43496
4.54632
19.1188
21.5002
13.2007
4.02411
3.36217
18.3433
6.99873
16.5645
31.0463
2.26315
7.22782
4.1137
3.82646
1.55085
1.77304
3.00779
2.8194
2.62353
1.94899
1.62106
3.22879
3.7866
4.57045
2.83977
-0.175966
0.103122
1.59949
1.74832
2.54175
0.36986
-0.437566
3.22752
3.24644
2.68755
2.99965
1.9597
3.18764
2.5471
0.258795
0.915349
-0.216692
0.616397
1.96613
0.613425
3.07956
6.92679
-0.276958
1.98248
7.5119
1.6069
1.28588
3.18157
4.8482
3.12142
2.50818
2.07643
1.94047
3.40014
3.42922
2.88615
2.78505
1.25559
0.891038
4.46237
3.89291
1.69217
1.66697
5.485
1.71473
3.04575
4.92414
2.87265
3.26155
4.11335
2.95594
2.77476
4.77916
2.66427
2.76847
1.24155
2.29346
2.4498
7.28166
3.25195
5.41142
6.61765
1.7524
2.73031
2.66505
2.07679
4.7167
1.85247
2.86101
-0.189075
0.818075
2.42054
1.45259
2.99205
0.198596
3.22045
3.7165
3.63374
1.62426
1.28753
0.959044
5.82769
3.80163
5.28263
1.99732
2.57587
4.6299
6.43262
7.43889
5.13353
6.69276
8.25239
6.96842
5.48616
6.45358
6.42753
-0.557343
0.672441
-0.342432
5.52325
3.55941
2.57655
3.65531
2.53683
4.78469
7.08227
6.56138
6.04883
2.32921
1.0182
1.34625
2.33162
8.0033
5.07872
7.10458
-0.405473
-0.94873
-0.704482
-1.0177
-0.305431
-0.294573
0.634649
6.40131
3.03837
2.03563
9.61398
6.99127
14.6025
-0.294008
1.33469
0.21068
1.43709
0.727303
4.09886
0.946245
2.32372
10.477
3.38921
6.95046
2.18645
2.67486
10.8801
13.5868
25.0056
22.308
27.8322
18.6667
16.3913
7.43913
2.3929
0.900893
2.90289
2.81368
14.4533
17.6013
3.92107
17.3301
11.7628
15.7275
3.76489
7.63026
4.19129
21.7588
11.3026
8.10184
11.7941
12.7295
8.91826
20.7076
18.8612
24.9779
18.9896
29.0554
31.4215
0.37199
3.46219
0.215799
8.67505
5.05496
4.19755
12.2646
7.24696
11.5461
25.2995
14.5846
17.0442
3.37419
3.93234
4.34922
4.41516
5.16886
0.565351
0.387128
2.66918
1.6862
2.37251
1.14197
2.30117
3.19288
3.20682
4.55373
3.27977
2.69622
2.98423
2.73408
2.41194
2.86587
3.34519
0.111844
0.49513
0.696096
0.0798616
3.87388
2.10138
4.32914
0.87491
1.4877
2.83235
2.60172
1.45349
1.91384
1.5997
3.51538
3.99139
3.5407
4.37021
3.80202
3.69672
1.96702
3.21134
2.83753
3.22772
3.70065
4.19056
-0.427806
-0.170398
2.87964
0.363716
0.781867
-0.326122
0.186547
2.79605
4.61822
1.43145
1.46926
2.16393
5.93063
5.44773
2.41433
1.31303
0.640573
1.05309
1.88516
2.88413
0.230763
0.143465
1.03441
0.851402
0.848426
0.263072
2.03992
2.30015
2.54565
2.35409
3.33997
3.19191
3.32583
1.59875
1.95106
3.44066
2.91848
3.30527
2.37568
2.53025
4.36874
2.28595
5.1256
3.04272
2.3085
2.22703
2.31951
2.52792
3.15441
3.14957
3.33821
3.27678
-0.084939
0.292367
7.21348
2.30926
1.61791
-0.213032
0.325246
1.36916
5.47523
-0.426163
0.452942
-0.562622
10.7265
11.253
2.92801
2.89834
3.06168
0.986287
1.19987
0.857599
1.16818
1.26826
0.436514
0.530944
-0.298033
-0.0995965
0.985111
-0.403191
19.3026
9.82276
-0.51196
1.55972
-0.274418
2.84759
9.40542
0.709008
3.86753
1.7981
16.1132
16.9406
2.73807
2.48286
3.36116
0.697056
1.70752
1.15589
3.27162
2.49344
2.04956
9.10903
0.468603
0.200664
4.27724
3.79405
2.59258
5.08881
4.36829
6.60075
3.18851
3.17663
3.45795
2.20809
1.52241
1.89238
1.56317
1.28906
2.38322
5.86325
2.21115
4.12431
3.25573
3.35785
2.80163
3.7395
3.71963
3.77024
2.9429
2.81613
2.08379
2.59582
2.14862
2.87126
1.41389
1.5955
2.38386
1.79058
0.628193
0.845023
0.674752
3.31374
4.4558
4.75312
5.25409
4.81382
3.95324
3.22428
3.64405
2.84921
4.87465
0.732427
1.26949
0.817016
6.21225
3.05164
3.70159
1.86163
2.69404
1.18496
1.77054
2.80964
0.932349
1.17397
3.96667
2.57632
3.24577
6.08632
3.83227
5.04742
4.32299
4.55398
1.89672
1.1479
3.34606
3.54993
2.89603
3.59028
3.82964
3.71005
4.23379
4.33937
4.99098
1.9471
3.79168
2.83737
3.25696
4.05918
3.94576
3.19412
5.27841
2.99961
2.28848
2.91511
2.48106
1.99849
2.08042
2.16457
2.4922
3.66437
2.13349
1.97332
2.66672
1.5813
1.50064
2.19365
2.19858
2.31504
2.61035
3.56653
3.4005
2.35227
4.70742
7.4748
6.31922
6.46924
7.43548
3.13514
2.18341
2.0662
1.51056
2.10594
2.47469
6.767
1.75946
2.65307
7.23994
6.67467
1.01223
2.27282
2.48158
7.33044
6.94558
8.20197
2.43643
2.90212
2.44528
2.43121
2.91463
2.86038
2.28838
2.9772
2.52719
2.77266
0.637788
2.36464
0.894588
0.920375
1.43278
3.21061
2.68618
3.15383
4.59348
6.11126
6.11792
2.85483
1.62568
0.794454
0.580406
-0.0995986
2.22662
4.56841
2.73302
3.04808
3.42926
3.1082
2.32754
4.02146
1.40616
1.57106
1.95146
1.71173
1.09605
0.684588
0.438632
5.28484
1.82567
2.16764
3.25778
2.24455
1.82832
1.96366
2.20479
2.70462
2.88593
0.0238094
1.36239
0.635487
2.43021
1.93717
1.95203
1.2183
1.02833
2.94237
1.34152
3.1007
3.01165
2.77371
-0.751691
0.17159
-0.492394
-0.563444
0.249939
2.43964
1.15459
0.99405
4.02788
3.24928
3.43314
3.74493
2.8495
3.52914
3.72192
3.55278
4.03177
3.77208
1.13348
2.96647
3.66699
2.96206
3.96722
3.45496
3.33088
2.63663
SCALARS CoVolArea double 1
LOOKUP_TABLE default
0.0166071
0.00945631
0.0101694
0.0141139
0.014216
0.0164419
0.0126627
0.00836449
0.0124658
0.0130796
0.0157401
0.0121181
0.0104563
0.010266
0.0124098
0.0178481
0.0029509
0.000252765
0.00630516
0.00356067
0.0109874
0.0151331
0.0151626
0.0116629
0.0164367
0.0146466
0.0144828
0.0155576
0.0172107
0.0171124
0.0154344
0.0185974
0.00890616
0.0144615
0.0129872
0.0104595
0.0175733
0.00916499
0.0115941
0.014798
0.0112383
0.0153567
0.0138403
0.0114918
0.0162675
0.00952043
0.00957235
0.0130565
0.0152957
0.0105426
0.0161725
0.0114745
0.015772
0.0176848
0.0181249
0.00663347
0.0132418
0.0152644
0.0136165
0.0138181
0.00358741
0.00117621
0.00470474
0.00754027
0.0172804
0.00303899
0.00918742
0.00434564
0.00121013
0.0150833
0.00986357
0.011876
0.0138321
0.0169456
0.0157008
0.014475
0.0153921
0.0130759
0.0143191
0.015203
0.0121244
0.0114869
0.0106449
0.0130646
0.0164047
0.0174429
0.0154772
0.0129102
0.0143122
0.0163942
0.0184738
0.0135953
0.0148841
0.0136031
0.0142248
0.0150462
0.0143353
0.0115917
0.0154708
0.0176318
0.0163783
0.00831342
0.0149651
0.0174225
0.0132366
0.00902739
0.0200949
0.0123627
0.00366281
0.0145519
0.0141725
0.0126678
0.0125776
0.0136664
0.0150101
0.0149381
0.0154939
0.0123728
0.0135091
0.0141335
0.0143578
0.0165373
0.0170032
0.0104304
0.0130828
0.0166195
0.0162163
0.012248
0.0157711
0.0144651
0.0108038
0.0150287
0.0141991
0.0119092
0.0138353
0.0143607
0.0120159
0.0142976
0.0134307
0.0159099
0.0144312
0.0134586
0.00866726
0.0126717
0.00945818
0.00781429
0.01422
0.0133484
0.0131856
0.0139151
0.00965772
0.0144605
0.0145257
0.0176378
0.0162949
0.0143647
0.0151936
0.0119981
0.0169984
0.0124222
0.0108877
0.0119322
0.0175257
0.0165108
0.0181301
0.0110387
0.0131498
0.0109233
0.0137737
0.0146895
0.0114754
0.0106161
0.00998897
0.0120469
0.00965618
0.00925139
0.00868772
0.0119565
0.0107895
0.0106601
0.0178171
0.0162754
0.0180395
0.00983616
0.0121858
0.0123778
0.0130041
0.0135976
0.0112785
0.0106412
0.0102721
0.01032
0.0153849
0.0178653
0.0146636
0.0139598
0.00858809
0.0114504
0.00672538
0.0175862
0.0183904
0.0186842
0.0193956
0.0168416
0.0174422
0.0162484
0.0103188
0.0132201
0.0135461
0.00574606
0.00875455
0.0026344
0.0169697
0.0154894
0.0180235
0.0156101
0.017148
0.0114066
0.0180274
0.0152729
0.00733909
0.0155509
0.0113468
0.0168383
0.0114121
0.0085775
0.0049882
0.000315885
0.00114141
0.000265011
0.00203621
0.00224811
0.00851466
0.0126822
0.0184773
0.00692938
0.00675222
0.00436291
0.00491605
0.00925216
0.00357456
0.00717535
0.00460993
0.0102903
0.0102203
0.0141949
0.00314142
0.0075064
0.00853753
0.00649722
0.00603537
0.00879449
0.00329118
0.00334138
0.000749247
0.00192952
0.000825029
0.000941674
0.0164611
0.0145611
0.0149922
0.00949651
0.0136926
0.01359
0.0067068
0.0112002
0.00720761
0.00124667
0.00529998
0.004456
0.0126901
0.0137695
0.0115431
0.0123087
0.0117951
0.0181355
0.0173345
0.0148189
0.0162965
0.0145551
0.0161512
0.0154804
0.0147921
0.0149125
0.0128144
0.0146547
0.014767
0.0150002
0.0150406
0.0162727
0.0155033
0.0145272
0.0146502
0.0130367
0.0161703
0.0157777
0.0114686
0.0142166
0.0106965
0.0170081
0.0152916
0.0135441
0.0135949
0.0149071
0.0143487
0.0146819
0.0125254
0.0121627
0.0131652
0.0104753
0.0110835
0.0111122
0.0138117
0.0124074
0.0133197
0.0127533
0.0119129
0.01093
0.0169935
0.0180188
0.0130844
0.0158539
0.0160862
0.017515
0.0176796
0.0141677
0.0124658
0.0159863
0.0144135
0.015411
0.010519
0.0101232
0.015484
0.0164027
0.0168824
0.0157277
0.0146928
0.0134116
0.0172117
0.0169224
0.0169253
0.0147976
0.0170832
0.0178793
0.0157551
0.0156784
0.014945
0.0151719
0.0135414
0.0146547
0.0143621
0.016647
0.0152635
0.0138177
0.0140404
0.0128044
0.0152721
0.0153102
0.0115588
0.0136604
0.00876687
0.015358
0.0160535
0.015876
0.0148954
0.0150075
0.0149501
0.0145706
0.0144607
0.0143238
0.0143881
0.0169908
0.00832449
0.0119605
0.0171328
0.0184028
0.020078
0.0120734
0.0101558
0.0148339
0.0115372
0.0181636
0.00622523
0.00590181
0.0140143
0.0134382
0.0135636
0.0185566
0.0153705
0.0161252
0.0142358
0.0146902
0.0167558
0.0116399
0.0151978
0.0176646
0.0214166
0.0173856
0.00183237
0.00914014
0.0179416
0.0152387
0.0159458
0.0102676
0.00752737
0.0133479
0.00987657
0.0166514
0.00161512
0.000521358
0.0136449
0.0135213
0.0130252
0.0162514
0.0149399
0.0159487
0.0125817
0.0136932
0.0139112
0.00448851
0.00805695
0.0108885
0.013502
0.0138275
0.0154755
0.0114317
0.0129544
0.00982195
0.0134462
0.0140663
0.013344
0.0152601
0.0158389
0.0157203
0.0163294
0.0160929
0.0144858
0.00945432
0.0147383
0.0126298
0.0141846
0.0142764
0.014821
0.0131991
0.0135513
0.0127055
0.0138174
0.0141726
0.0153481
0.0146732
0.0161356
0.0149159
0.0165266
0.0166868
0.0154161
0.016114
0.0169755
0.0172463
0.0176741
0.0132391
0.0104979
0.0128383
0.00968301
0.0101929
0.0118992
0.0143252
0.0143433
0.0152832
0.0126328
0.0175711
0.0168211
0.0168746
0.0105741
0.0153322
0.0147498
0.0165415
0.0160102
0.0174134
0.0161248
0.0150631
0.0175702
0.0170206
0.0118957
0.0149216
0.0134265
0.0099722
0.0144668
0.0110669
0.0133488
0.0100705
0.0166679
0.0172896
0.0138055
0.0137472
0.0144226
0.0132907
0.0132184
0.0129725
0.0103345
0.0114758
0.00980759
0.0167428
0.0138153
0.0148981
0.0138866
0.0131649
0.0123031
0.0140923
0.0106543
0.0141356
0.014659
0.0137559
0.0147038
0.0146049
0.0152427
0.0140397
0.0145911
0.0126313
0.0146695
0.0149827
0.0138219
0.015558
0.0161872
0.0136041
0.0139504
0.0144144
0.0141821
0.0132869
0.0134011
0.0149752
0.0124703
0.00822238
0.0103096
0.0108902
0.00873701
0.013045
0.0145321
0.0131897
0.0137927
0.0134088
0.0131152
0.00877847
0.0132099
0.0141895
0.00758421
0.00848426
0.0156448
0.0127723
0.0129782
0.00724522
0.00821156
0.00755354
0.0146752
0.0133346
0.0146597
0.0147152
0.0134216
0.0135963
0.0145276
0.0133955
0.0137321
0.0136821
0.0171806
0.0137799
0.0159139
0.0161652
0.0156235
0.0129955
0.0137638
0.0128496
0.0113403
0.00705115
0.00855611
0.0125227
0.0153562
0.0159674
0.0172262
0.0180335
0.0141277
0.0100103
0.0153615
0.0151459
0.0138748
0.0149084
0.015963
0.0111085
0.0160038
0.0151425
0.0153708
0.01407
0.0153808
0.0172752
0.0173534
0.0089093
0.016142
0.0137347
0.0123475
0.0136674
0.016234
0.0153353
0.0152339
0.0137712
0.0144866
0.0180449
0.0167346
0.0174252
0.0136688
0.0147495
0.0145265
0.0153782
0.0166493
0.0135534
0.0144887
0.0127365
0.0127355
0.0129785
0.0194448
0.0182538
0.0196581
0.0202811
0.0179166
0.0140967
0.0150946
0.0160668
0.0120088
0.013318
0.0128283
0.0115126
0.0132804
0.0123237
0.011519
0.0119786
0.0115536
0.0120227
0.0145381
0.0131782
0.0135802
0.0146685
0.012304
0.011949
0.0116367
0.0137684
SCALARS SignedDistance double 1
LOOKUP_TABLE default
0.0594681
0.0368712
-0.0566337
-0.0348464
-0.009756
0.0921999
-0.0337147
0.14736
-0.0100618
-0.0153317
0.113649
-0.0319598
-0.0356288
-0.0191565
-0.00278011
0.148431
-0.0107444
-0.00638952
-0.0184465
-0.0349714
-0.017253
-0.0164199
0.0163356
0.00127136
-0.00432481
-0.0119395
-0.0236262
-0.0243673
0.0531677
-0.0122349
-0.00190808
0.0702295
-0.0258042
-0.0149554
-0.0479306
-0.033035
0.00115393
-0.0222378
-0.0499228
0.00377372
-0.0136522
0.034815
-0.0118275
-0.0204657
0.0130977
-0.026288
-0.0210626
-0.0315337
0.0715211
-0.00857933
0.0375383
-0.00834635
-0.00684245
0.0927041
0.121716
-0.0214811
0.049039
0.160493
0.064075
0.00337486
-0.0133899
-0.011729
-0.0227001
0.0760087
0.0729222
-0.0120357
-0.010602
-0.0285891
-0.0297886
0.00970417
-0.0170395
0.028614
-0.0118537
-0.00281832
-0.00557068
-0.0284033
-0.012781
0.00850473
0.0412338
-0.000662522
-0.00841654
-0.016153
-0.0173843
0.00422261
0.0781546
0.0456718
0.0229369
0.0352133
-0.0228517
0.0544219
0.0900847
-0.0547257
-0.0456051
-0.0351431
-0.0330813
0.0692196
-0.0424616
0.0535718
0.179446
0.00593278
0.222966
0.161414
-0.00419961
0.0404693
-0.0339241
0.0510927
0.21747
0.202143
0.0585619
0.016493
0.0606233
-0.01021
-0.0205509
-0.0128221
-0.0267018
-0.010934
-0.0117208
0.00356595
-0.0102495
-0.0249255
-0.0278941
-0.0157128
0.000425687
-0.0116243
-0.0224371
-0.011812
-0.0121657
-0.0650905
0.0160003
-0.0235677
-0.0317836
-0.0307703
-0.0138448
-0.045274
-0.0131078
-0.00859527
-0.0192069
-0.0177417
-0.0181561
0.044056
-0.0057356
0.000740654
-0.0325377
-0.00902212
-0.0165915
-0.0267571
0.0142222
-0.00946461
0.00777551
-0.00109224
0.00489581
0.0144941
-0.0297067
0.0783598
0.0515289
-0.0172962
0.0184061
-0.00713899
0.0703239
-0.00694315
-0.0084065
0.00031652
0.036468
0.0320798
0.046776
-0.0106643
-0.0186949
-0.0168654
0.0159373
-0.00226706
-0.0269133
-0.0549847
-0.038688
-0.0470505
-0.0296783
-0.0294203
-0.0418103
-0.0266927
-0.0165508
-0.0186412
0.0971735
0.0418829
0.0769314
-0.0248582
-0.00490897
0.00442477
-0.0121682
0.0234408
-0.00803023
-0.0306032
-0.0181751
-0.0272555
0.00720657
0.0991997
0.0263653
-0.00324335
-0.00199638
-0.0183203
-0.0172
0.107221
0.141824
0.198756
0.190507
0.101725
0.120408
0.0608624
0.00887574
0.0363629
0.0802106
-0.0176844
-0.000298793
-0.011812
0.197348
0.0211847
0.0942792
0.0367009
0.0595831
0.0166041
0.136158
0.0402012
-0.00794923
0.0322422
0.00692699
0.119872
0.118182
-0.0155301
-0.0101028
-0.00912453
-0.00962047
-0.00646518
-0.0162898
-0.0147865
0.0435211
0.150819
0.209092
0.126374
0.134826
-0.024771
-0.00964393
0.0616408
-0.00733155
-0.00773609
-0.00843697
0.0810833
-0.014213
-0.00408547
-0.0153038
-0.0139048
-0.0186199
-0.0243147
-0.0242073
0.0150699
-0.0387522
-0.040125
-0.0433725
-0.029715
-0.0404362
-0.0218524
0.103906
-0.0130986
0.133745
-0.0189315
-0.0185387
-0.00258749
-0.0217728
-0.00503527
-0.0231837
-0.0134278
-0.00784308
-0.0102068
-0.000491571
-0.0136245
-0.0194307
-0.016086
-0.0320947
0.0437772
0.0767255
-0.0221137
-0.00542275
-0.0137835
0.0554085
0.00490274
-0.0206372
-0.013426
-0.0379247
-0.0247267
-0.0146939
-0.0200211
-0.0245289
-0.0101476
-0.0133315
-0.00478105
0.147741
0.168901
0.0653744
0.104252
-0.0105107
0.027303
-0.015619
0.0146302
0.00755034
-0.00805846
-0.0077473
0.0277069
0.00217543
0.0209441
-0.00725069
-0.00593504
-0.0135153
-0.00962946
-0.0008061
-0.0166324
0.0188467
-0.00429644
0.00469247
-0.0164596
-0.00786495
-0.00918065
0.0811102
0.0547209
0.00334006
0.0647105
0.0375124
0.056613
0.0397636
0.0162294
-0.0153908
0.00748551
0.0575964
-0.0150423
-0.0329669
-0.0258904
-0.0155644
0.0162469
0.0529267
0.0303619
-0.00876509
-0.035562
0.0401517
0.0680119
0.00451747
0.066858
0.0168252
0.0170972
0.00856421
-0.00110224
-0.0181137
-0.0150617
-0.0411454
-0.0322159
-0.0410788
-0.00671356
-0.00984818
-0.0559263
-0.0289435
-0.0491715
-0.0202989
-0.0100948
0.000545183
0.0530867
-0.0172087
-0.032467
-0.0166771
-0.018115
-0.00816341
-0.0161064
-0.0321077
-0.0464611
-0.0447721
-0.0449829
0.178524
0.0680927
0.0158914
0.0928534
-0.0179517
0.156201
0.0714233
0.175175
0.0734173
0.170124
0.170195
0.1834
-0.0124583
-0.0169516
-0.0225302
-0.0197642
-0.022798
0.0111855
0.0190239
0.0294453
0.0463334
0.0172197
0.0369979
0.161341
0.145702
0.110896
0.122513
0.208361
-0.0218699
-0.012085
0.212857
0.136151
0.222178
0.155357
0.00889552
0.191435
0.161521
0.0623001
-0.0184515
-0.0204716
-0.0115943
0.00689364
-0.0141791
0.0594123
0.0101378
0.0230089
-0.00597573
0.00677838
0.0405286
0.0185084
0.20696
0.214089
-0.0304652
-0.0255855
-0.0259878
-0.0230415
-0.013833
-0.0300143
-0.0448614
-0.0134134
-0.0340149
0.00238972
0.00572536
-0.00352833
0.00900028
0.0223512
-0.00952222
-0.0103369
0.0166057
-0.0161987
-0.00834708
-0.036772
-0.0278155
-0.017647
-0.0250248
-0.0354784
-0.0223527
-0.0105541
-0.00103867
-0.00144173
-0.0131752
-0.0170566
-0.00930761
-0.0131994
-0.00121621
-0.0122831
-0.00234678
-0.00203573
-0.00221801
0.0279537
-0.0190426
-0.0371413
-0.0532114
-0.017362
-0.047482
-0.0325982
-0.0340035
-0.016697
-0.054949
0.000445227
-0.00721732
-0.00496525
-0.0640344
-0.0256316
-0.0397292
0.00196682
-0.0212397
-0.0132057
-0.0129171
-0.0255529
-0.00915088
-0.0199893
-0.0449593
-0.0281069
-0.0406166
-0.068286
-0.0428721
-0.0671343
-0.051462
-0.0177058
-0.0135727
-0.00712331
-0.011676
-0.0125808
-0.0136556
-0.0326524
-0.0197703
-0.0213395
-0.0146027
-0.0312948
-0.0494354
-0.017843
-0.0405003
-0.0156942
-0.0147799
-0.022228
-0.0215123
-0.00746907
-0.0205098
-0.0116334
0.0216269
-0.0272761
-0.00370997
0.0131879
-0.0153742
-0.0017985
0.00268325
-0.0151625
0.00590969
-7.43997e-05
-0.00932684
0.0101807
-0.00843705
0.0441586
-0.00568597
-0.0193957
-0.0160121
-0.0214163
-0.0133691
0.0013008
-0.0091639
-0.0233742
-0.0195884
-0.0200515
-0.0413564
-0.00662703
-0.00691395
0.0281658
0.0445509
0.00524062
0.0298482
-0.0190618
0.0496614
-0.00317996
-0.0376057
-0.0361149
0.0376352
0.0345111
0.0388718
-0.0339846
-0.0225559
-0.0223715
-0.0191093
-0.0238455
-0.00771007
-0.00946429
-0.0227424
-0.0126529
-0.0133613
-0.00853783
-0.00968533
-0.0122396
0.0290784
-0.0152105
0.0412513
0.0287913
0.0233164
-0.0236956
-0.00573229
-0.0259981
0.00233048
-0.0387726
-0.040246
0.0565841
0.0298058
0.0884788
0.0318521
0.0741824
0.039694
-0.0121901
-0.0256322
-0.0298725
-0.0373757
-0.0269406
-0.00992027
0.0261041
-0.00211261
0.0392749
-0.00775428
0.0700073
0.0454952
0.0255223
0.0492531
-0.0321209
-0.0110977
0.000706481
0.00526335
0.0393766
-0.000267808
-0.0143234
-0.015365
-0.0201427
-0.0365512
0.0672242
-0.00668415
0.039488
-0.00811813
0.0135375
-0.00616458
0.0291968
0.00200335
-0.022165
0.0260744
-0.0154899
-0.0254954
-0.0136521
0.241605
0.078172
0.186559
0.188397
0.0651601
-0.0185076
0.0307445
0.0393476
-0.0152566
-0.00323112
-0.00739858
-0.0207921
0.0113867
-0.00129123
-0.00990789
-0.00700293
-0.00713044
-0.00683223
0.111339
0.00954934
-0.0165435
-0.0100809
-0.0177898
-0.0120644
-0.00806608
0.0143764
