# vtk DataFile Version 4.2
vtk output
ASCII
DATASET UNSTRUCTURED_GRID
POINTS 2503 float
-55.789 91.836 5.435
-57.811 90.045 8.878
-57.677 92.76 8.049
-55.664 70.293 7.722
-55.37 70.694 4.936
-56.107 68.077 6.294
-16.953 80.684 11.21
-17.648 79.43 13.959
-16.661 78.519 16.808
-46.905 115.072 -31.071
-46.458 112.786 -27.024
-43.657 114.262 -32.467
-20.211 78.249 16.738
-18.43 76.703 19.263
-39.252 27.99 27.506
-36.673 29.284 27.866
-38.916 29.596 25.837
-1.159 84.541 10.544
-5.21 83.982 10.874
-2.198 83.991 14.021
-36.099 99.135 16.35
-36.496 98.419 19.096
-35.096 98.594 14.505
-53.968 49.479 5.774
-54.695 50.524 10.61
-55.559 52.16 6.79
-44.214 96.625 -25.813
-44.737 97.46 -28.705
-42.989 98.201 -29.174
-57.24 56.565 9.169
-57.755 59.036 11.48
-57.617 57.708 7.506
37.665 45.244 11.459
36.959 44.782 13.633
37.634 43.015 14.166
-21.703 114.556 -5.272
-25.471 112.052 -4.882
-22.897 113.403 -3.137
-5.793 83.477 14.196
-52.37 47.065 4.577
-53.971 49.781 3.008
-45.347 108.965 -16.85
-46.893 109.345 -17.41
-44.753 106.213 -11.097
-41.168 104.023 -12.931
-41.866 102.166 -8.118
-40.802 100.933 -8.919
-41.487 111.474 -31.726
-42.889 110.668 -27.151
-41.2 108.227 -26.251
-32.668 23.161 -7.979
-30.853 22.001 -9.937
-33.192 21.738 -7.787
-43.815 109.402 -20.384
-45.708 110.446 -21.116
-42.413 108.046 -19.695
-44.558 111.162 -25.144
-44.711 103.518 -5.923
-45.672 104 -6.273
-43.267 101.247 -3.998
-46.825 106.78 -11.738
-18.967 60.046 -16.069
-21.3 61.845 -15.098
-18.125 64.013 -15.197
-9.814 82.398 13.886
-12.961 80.592 15.203
-10.461 79.808 19.062
-59.932 84.38 12.838
-58.359 87.084 13.973
-59.444 85.044 9.945
-5.038 82.633 -1.252
-8.697 83.027 3.847
-2.003 84.255 3.637
-45.735 22.136 -0.505
-45.363 24.137 -0.601
-44.339 22.633 -3.356
-59.11 75.471 19.857
-59.769 77.811 21.07
-59.616 78.187 18.856
-54.354 52.03 14.295
-55.449 53.265 12.595
-6.92 83.722 7.085
-3.61 84.279 6.778
-24.115 30.731 -11.051
-24.242 31.925 -7.493
-22.92 31.838 -8.292
-49.404 99.96 5.136
-50.941 100.139 9.759
-47.497 100.626 9.255
-43.791 74.076 -6.13
-45.677 74.837 -5.128
-43.433 76.629 -5.627
-57.566 64.158 8.648
-56.332 68.278 8.795
-1.964 83.266 -0.689
-56.949 96.654 16.785
-53.686 96.422 21.746
-55.774 97.673 16.677
-0.786 62.002 34.684
2.609 61.754 34.118
1.985 63.359 32.57
-52.525 99.724 12.695
-49.629 100.035 15.813
-60.774 81.321 12.39
-60.12 81.794 8.704
1.542 84.834 7.705
-47.763 111.858 -24.482
-15.12 81.306 10.708
-52.375 99.132 16.691
-52.668 98.287 19.113
0.624 84.199 1.667
2.305 84.681 4.646
-52.972 48.731 10.662
-52.609 47.352 7.194
-43.321 104.224 -8.851
-40.805 106.363 -21.201
-58.011 85.577 3.817
-57.197 87.817 4.607
-56.354 86.201 1.545
4.196 83.801 0.599
7.314 63.318 -14.839
9.819 61.213 -15.75
6.744 61.988 -16.692
-44.432 100.882 -1.271
-46.548 102.454 -3.496
-7.003 81.798 17.772
-48.008 100.861 -1.673
-47.531 100.15 1.514
1.606 83.679 16.014
-2.735 83.236 16.647
-1.002 82.204 18.841
-57.123 61.151 5.113
-57.68 61.635 9.174
-57.291 63.94 6.168
-48.599 108.528 -17.268
-57.018 71.696 8.172
-58.365 72.674 10.403
-58.388 73.3 6.623
-4.245 81.476 19.481
-2.966 80.102 21.573
-32.688 98.456 7.616
-32.381 101.662 6.055
-33.785 98.673 8.332
-60.052 76.186 15.057
-60.74 78.677 15.19
-60.354 75.982 12.028
-52.14 80.941 33.614
-50.918 82.822 34.255
-52.498 83.864 33.59
-49.663 85.032 33.812
-51.417 86.678 32.863
-46.048 116.689 -35.756
-47.795 115.928 -32.737
-45.361 116.469 -34.27
-50.874 95.497 25.434
-50.871 97.275 22.655
-30.492 105.028 3.915
-33.411 103.52 4.603
-36.907 99.938 12.453
-59.467 73.957 10.968
-50.323 79.608 33.602
-50.552 89.766 31.148
-49.791 93.877 27.793
-52.169 89.608 30.523
-38.396 99.72 16.998
-38.704 98.482 21.196
-47.882 105.42 -10.012
-20.12 28.26 32.084
-20.091 25.97 33.071
-17.061 29.025 33.011
-59.008 85.05 6.856
-34.05 45.308 -9.58
-35.49 50.328 -12.732
-32.886 48.792 -11.721
-41.197 82.33 -5.51
-45.499 83.752 -5.648
-44.127 86.995 -5.373
-36.397 101.692 5.271
-37.178 100.295 8.368
-35.217 100.045 8.129
-48.8 80.709 34.215
-48.971 89.075 31.72
28.045 58.984 -1.706
26.707 59.529 -4.807
26.501 62.833 -2.562
-55.543 53.218 4.102
-55.927 54.36 8.004
-16.539 80.966 2.935
-15.15 81.671 7.087
-57.416 59.537 6.812
-60.828 78.525 11.539
-41.542 98.885 -3.299
4.988 84.736 7.53
3.809 84.693 10.843
-47.715 92.852 28.999
-33.845 30.664 9.576
-32.412 31.644 11.063
-32.797 33.983 9.317
5.427 84.371 4.045
-49.347 75.239 33.185
-47.616 77.931 34.414
-46.833 83.821 33.3
-47.997 87.056 32.669
-9.554 56.258 -24.695
-8.442 58.505 -23.627
-6.031 55.056 -24.564
-25.74 96.178 1.032
-23.842 97.087 -1.313
-22.622 97.986 -0.086
-59.508 80.716 5.903
-56.973 89.579 6.858
-55.939 89.268 2.937
-24.708 35.127 -7.028
-24.893 37.576 -7.415
-22.727 35.631 -6.796
-20.79 56.84 -16.197
-23.689 57.143 -15.383
-47.049 76.223 34.181
-48.505 96.279 25.249
-46.769 95.084 26.885
-56.098 84.165 0.588
-57.721 82.829 2.93
-56.775 56.549 3.125
-39.369 86.274 -4.656
-41.993 90.452 -4.953
-39.656 90.472 -4.043
-45.651 78.98 34.336
-46.821 90.868 30.276
-48.272 73.852 32.725
-46.568 74.372 33.301
-39.681 110.112 -39.752
-39.648 112.9 -39.077
-39.292 109.578 -39.211
-56.242 59.365 2.711
-19.967 107.21 -10.467
-15.117 108.435 -12.131
-18.391 104.464 -9.53
27.723 62.962 0.661
26.591 66.777 1.725
27.854 64.119 3.232
32.43 34.021 -2.202
34.064 33.449 -0.4
33.149 31.249 0.67
-21.958 104.08 -8.886
-42.342 93.85 -12.229
-41.001 95.395 -13
-40.537 94.708 -8.442
2.428 72.445 26.743
4.288 75.236 24.953
0.521 74.977 25.888
29.609 31.025 -2.495
26.264 68.025 4.839
27.636 65.054 6.107
35.157 36.121 -0.426
-34.287 88.122 -1.069
-32.46 88.398 1.258
-32.573 85.955 -0.701
-10.488 82.783 10.753
2.335 84.28 13.643
-44.708 61.384 27.152
-45.409 65.087 25.647
-47.332 61.493 25.916
-45.188 75.989 33.974
0.888 33.709 34.254
1.331 32.292 33.701
2.339 34.286 34.431
-44.278 93.217 27.74
31.951 28.239 9.399
27.532 25.765 5.757
30.094 27.369 4.231
36.934 38.634 1.217
37.008 36.1 2.594
28.977 52.167 0.394
29.332 56.041 2.505
29.81 49.867 4.456
-38.714 26.695 14.793
-35.675 27.672 12.333
-39.395 24.356 12.704
-55.682 67.539 3.855
-54.34 70.619 2.391
-53.809 69.121 0.488
-48.412 42.896 6.602
-49.735 45.003 3.262
-48.035 42.976 3.026
-43.331 63.918 26.807
-43.627 69.181 24.503
-46.495 67.909 24.184
-44.717 70.03 24.174
-4.267 58.273 36.659
-0.802 57.42 36.448
-3.623 60.09 36.023
6.063 58.216 34.941
8.646 59.986 33.171
6.129 61.539 32.812
4.163 38.862 35.306
1.717 40.41 36.43
2.096 38.56 35.747
-43.919 82.165 32.321
-44.064 79.204 33.796
30.185 47.921 6.535
29.828 50.723 9.53
-59.179 82.157 23.498
-58.222 84.557 24.58
-58.248 85.412 20.033
-57.094 94.135 6.366
-55.175 94.822 4.252
-0.504 82.644 -2.094
2.781 82.384 18.463
-41.883 66.845 26.197
-41.719 99.318 -26.08
-42.075 100.493 -32.139
-40.648 102.459 -27.682
0.243 28.961 29.982
-0.408 30.416 31.669
-4.512 29.915 30.604
4.733 77.973 23.185
3.894 80.526 21.045
2.245 77.357 23.79
-32.062 90.955 3.412
-30.951 92.98 2.739
-31.238 93.837 5.392
-60.736 81.306 14.309
-32.158 94.554 -1.2
-28.578 97.408 -3.665
-28.201 95.214 -1.381
28.821 61.1 7.75
29.089 60.345 4.018
29.594 56.095 5.429
-9.132 82.289 0.843
-56.899 55.987 5.222
7.94 83.165 0.86
-9.622 24.906 18.934
-11.704 25.343 25.395
-13.415 24.749 17.961
5.203 33.239 33.368
5.944 28.439 29.039
3.858 30.091 31.628
3.178 27.058 29.469
39.172 39.731 6.744
38.565 42.81 5.487
38.721 43.909 7.382
35.614 33.138 2.066
-41.506 102.053 -34.968
-41.409 103.41 -36.763
-39.924 106.209 -36.509
-44.008 59.537 27.32
-43.763 56.598 28.053
-42.274 58.677 28.417
10.849 66.625 29.188
13.314 67.136 27.716
9.671 69.135 26.948
2.261 55.646 36.768
3.093 59.071 35.264
5.037 35.48 33.997
3.35 36.748 34.431
-43.617 91.199 28.273
-42.338 96.429 24.595
28.489 54.914 -1.364
28.765 54.253 0.533
27.138 52.548 -4.298
-19.832 80.975 10.695
8.815 83.574 4.468
12.452 82.099 7.28
12.415 81.783 3.58
-41.209 50.672 27.123
-41.887 54.493 28.435
-45.432 52.732 26.173
-45.075 55.476 27.182
-41.266 63.057 27.433
27.884 48.86 -2.503
29.402 48.134 1.68
-0.284 37.602 35.115
-0.551 39.052 35.979
-2.777 39.584 35.891
6.22 65.151 30.532
3.316 65.506 29.275
4.636 63.715 31.206
2.703 46.994 36.284
4.96 46.646 36.132
3.589 49.238 36.303
-16.073 109.766 -7.302
-20.355 107.257 -3.694
-19.561 106.008 -3.435
-2.981 37.226 34.797
-2.777 35.104 34.744
-15.704 114.033 -7.553
-19.381 111.23 -4.099
-19.422 109.638 -4.743
-33.165 36.013 10.248
-35.102 35.678 6.656
-29.148 83.369 13.133
-30 85.852 10.885
-30.785 85.731 14.742
-53.946 78.799 -2.404
-51.069 77.697 -3.657
-53.153 74.917 -1.498
-40.238 54.161 28.489
-40.355 58.731 29.061
-38.063 64.716 27.536
27.917 33.608 20.941
28.22 31.454 20.201
30.766 33.998 19.849
-12.509 109.83 -13.531
-9.446 112.507 -16.739
-8.956 108.193 -14.113
-0.966 36.044 35.21
-40.021 105.623 -37.63
21.928 73.176 15.852
21.509 72.364 17.909
24.203 68.867 16.953
-38.745 61.584 28.476
-39.09 67.461 26.364
-41.108 71.135 24.22
24.811 30.976 20.455
24.486 32.092 20.561
22.89 32.515 20.263
-36.231 91.127 -1.806
-34.186 90.826 -0.306
-57.67 89.199 16.152
-58.518 89.297 13.253
-58.161 87.497 9.119
-13.24 77.208 21.271
16.407 25.447 -2.594
18.695 24.077 -0.177
14.303 23.702 -1.348
-40.04 40.504 -2.913
-38.361 39.34 -1.531
-41.663 39.781 0.145
-37.975 49.978 27.689
-38.584 51.908 27.892
-38.347 57.261 29.073
-38.024 59.314 29.219
6.262 67.824 28.103
-37.369 70.529 24.489
4.924 55.702 36.168
-44.176 112.871 -36.858
-42.582 106.715 -37.796
-43.623 106.559 -35.748
-37.292 54.102 28.478
-36.494 62.08 28.144
-38.152 72.962 23.353
-0.156 35.148 35.216
-2.478 54.646 36.864
-48.243 96.63 -17.887
-48.065 97.732 -18.464
-47.119 95.69 -18.528
27.271 38.089 19.882
26.19 39.685 19.233
24.933 36.382 20.101
2.74 67.825 27.432
-42.387 23.505 -4.645
-44.129 24.154 -3.194
-42.946 26.057 -3.234
-36.692 56.781 28.805
6.851 30.106 29.951
-30.001 43.602 25.545
-30.752 39.923 23.657
-28.673 39.365 25.487
-44.537 100.281 1.055
-20.593 80.681 12.504
-34.86 25.639 -6.796
-40.2 25.874 -4.772
-32.709 27.784 -6.457
-38.025 47.533 26.551
-35.519 48.136 27.03
[...]
POINT_DATA 2503
VECTORS normals float
-0.836147 0.0905092 -0.475863
-0.89383 -0.0250011 -0.430165
-0.86122 -0.125689 -0.48917
-0.870989 -0.190316 -0.061393
-0.853556 -0.246631 -0.250855
-0.956301 0.247361 -0.148674
-0.136843 0.948772 0.249683
-0.0874238 0.913239 0.378179
-0.222235 0.873634 0.422629
0.142692 0.848768 0.456575
0.334617 0.850642 0.396622
0.522405 0.700442 0.472815
0.115945 0.845631 0.50137
-0.202532 0.772111 0.597139
-0.566458 0.47304 0.559657
-0.193856 0.669449 0.62331
-0.501567 0.705901 0.341532
-0.0878933 0.989395 0.0742259
-0.172343 0.978918 0.0699689
-0.0913632 0.972736 0.191048
0.520551 0.756714 0.202719
0.585339 0.540206 0.364866
0.730668 0.586281 0.158355
-0.847826 -0.526415 -0.0156018
-0.794284 -0.549972 0.133997
-0.923024 -0.320139 -0.0624155
0.327477 -0.84347 -0.234466
0.032762 -0.880955 -0.379108
0.573143 -0.719014 -0.201057
-0.901965 -0.392061 0.0533314
-0.962273 -0.0901626 0.0928876
-0.958677 -0.124838 -0.0702506
0.731056 0.571162 0.277003
0.639928 0.577084 0.423303
0.808593 0.283498 0.459562
-0.489433 0.836628 0.0516042
-0.578326 0.711296 -0.227532
-0.422245 0.833916 0.302876
-0.202437 0.940143 0.227139
-0.752108 -0.624279 -0.116443
-0.845158 -0.429499 -0.221894
0.249307 0.879835 0.345461
-0.124635 0.885921 0.360413
0.295201 0.842936 0.40395
0.789044 0.530436 0.262348
0.755282 0.539393 0.354594
0.850404 0.427218 0.290375
0.750146 0.540683 0.360725
0.653332 0.696065 0.285913
0.849713 0.482782 0.175216
-0.35002 0.24093 -0.890177
-0.492116 -0.359949 -0.321808
-0.189477 -0.583744 -0.466874
0.513033 0.808528 0.240013
0.254967 0.909915 0.297658
0.685944 0.680151 0.215852
0.491464 0.824607 0.275291
0.289614 0.71857 0.553775
0.107022 0.853619 0.471386
0.632502 0.685947 0.344601
-0.145126 0.858607 0.407753
-0.408326 0.382918 -0.777649
-0.166439 0.195892 -0.965266
-0.154636 0.203123 -0.96553
-0.306161 0.901951 0.277409
-0.33339 0.872465 0.355936
-0.318163 0.814092 0.476084
-0.909382 0.370812 0.00368484
-0.933623 0.261386 0.114027
-0.918435 0.360514 -0.0824247
-0.176244 0.921833 -0.319039
-0.212904 0.963295 -0.143152
-0.131896 0.976317 -0.138065
-0.5753 -0.438914 -0.246464
-0.804967 0.278621 -0.510394
-0.668454 -0.143753 -0.538021
-0.880875 -0.42109 -0.0725905
-0.98197 -0.0667124 -0.0770341
-0.981164 -0.0939647 0.103046
-0.864291 -0.437413 0.243805
-0.915778 -0.337816 0.172465
-0.202987 0.974849 -0.0368248
-0.14198 0.986415 -0.0400582
-0.33152 0.904864 -0.264577
-0.159178 0.556758 -0.67478
-0.310171 0.846414 -0.355189
-0.234898 0.957765 -0.122064
-0.223524 0.964467 -0.0426153
-0.085045 0.990151 -0.0382713
-0.390868 0.340503 -0.847771
-0.340059 0.0203781 -0.927352
-0.159143 0.0676107 -0.97922
-0.969348 0.162826 -0.0605478
-0.946494 0.309154 -0.0152388
-0.08207 0.931302 -0.326438
-0.674147 0.632464 0.338215
-0.477943 0.740204 0.45143
-0.49586 0.794078 0.297829
0.0914065 0.628762 0.740995
0.250993 0.568507 0.750818
0.152473 0.777339 0.590705
-0.261494 0.954978 0.0545427
-0.178049 0.961936 0.162566
-0.969598 0.148312 -0.0589686
-0.961485 0.148548 -0.189786
-0.0372935 0.994413 -0.00642058
-0.18628 0.866524 0.395366
-0.287546 0.938272 0.177663
-0.307102 0.919412 0.220664
-0.366328 0.85387 0.344539
-0.0375937 0.956689 -0.242799
0.00484412 0.987755 -0.110937
-0.796169 -0.579156 0.138879
-0.830539 -0.547416 0.0326385
0.58181 0.701831 0.379909
0.861611 0.465193 0.112852
-0.843479 0.258356 -0.387436
-0.865936 0.398876 -0.283326
-0.769499 0.259707 -0.560672
0.0919889 0.932891 -0.306371
0.092962 0.517927 -0.804463
0.282218 0.500428 -0.798252
0.289528 0.739612 -0.598794
0.491367 0.811746 0.295202
-0.152099 0.851641 0.433998
-0.257461 0.858094 0.424471
-0.620035 0.723161 0.287705
-0.253282 0.943561 0.0850023
0.00656027 0.928808 0.340574
-0.110112 0.910536 0.366885
-0.0302222 0.840728 0.527871
-0.968861 -0.0416036 -0.223868
-0.994222 0.0103567 -0.0372668
-0.955362 0.145068 -0.183122
-0.507688 0.771509 0.346077
-0.688821 -0.718372 -0.0587724
-0.658108 -0.707584 0.0642908
-0.770076 -0.549318 -0.226093
-0.147011 0.827355 0.529323
-0.0633848 0.76266 0.633402
0.601725 0.3299 0.696591
0.189271 0.514854 0.826735
0.533574 0.597077 0.524099
-0.867091 -0.403913 0.203581
-0.955531 -0.109034 0.153617
-0.930602 -0.308362 0.0149086
-0.36349 -0.290971 0.81721
-0.142604 0.0438963 0.925859
-0.393796 0.179444 0.85021
0.0489513 0.282678 0.913391
-0.266347 0.42831 0.825001
-0.29872 0.588212 -0.267431
-0.208137 0.874373 0.272767
0.190228 0.855219 0.316364
-0.327603 0.739831 0.562432
-0.299417 0.819085 0.472377
0.00740107 0.528965 0.82299
-0.203302 0.690235 0.674684
0.33989 0.920933 0.0885528
-0.791169 -0.539767 0.0419265
-0.349817 -0.236585 0.899806
-0.19875 0.56858 0.773997
-0.227732 0.677471 0.673009
-0.429222 0.552141 0.698267
0.232915 0.940232 0.214701
0.330085 0.73247 0.49422
-0.451137 0.777889 0.417724
-0.497456 0.458753 0.67879
-0.579092 0.195188 0.755908
-0.37336 0.524458 0.763656
-0.916352 0.303858 -0.199147
0.0469233 -0.571796 -0.816107
-0.0367346 -0.427067 -0.89037
0.076195 -0.489696 -0.863971
0.134889 0.0849061 -0.979379
-0.0973855 0.0605396 -0.976898
-0.0247679 0.111625 -0.985317
-0.37766 0.818255 0.41362
0.0838673 0.967056 0.184898
0.258355 0.786318 0.507174
-0.0574179 0.0224962 0.97252
0.0351088 0.510393 0.846071
0.921655 0.210935 -0.313794
0.82303 0.277226 -0.457812
0.861062 0.308328 -0.398131
-0.907921 -0.370362 -0.166121
-0.925697 -0.324003 0.010357
-0.208446 0.962361 -0.169226
-0.245173 0.965856 0.0102487
-0.984407 0.0252696 -0.160582
-0.976027 -0.0650837 -0.0804608
0.839482 0.496599 0.194856
0.135785 0.980285 -0.0199281
0.0611914 0.985079 0.0989699
0.0461419 0.624903 0.756771
-0.639016 0.509029 0.507574
-0.830563 0.243997 0.13083
-0.801985 -0.0267907 0.480954
0.157172 0.969229 -0.140511
-0.387652 -0.369294 0.792841
-0.13814 -0.0911777 0.946971
0.339739 0.25877 0.890389
0.244013 0.380626 0.868663
0.0325516 0.280917 -0.936834
0.0464394 0.475779 -0.861578
0.142036 0.189364 -0.95646
0.518816 -0.76446 0.300286
0.457626 -0.873652 -0.0434555
0.541414 -0.721973 0.3313
-0.92027 0.0633292 -0.349026
-0.905389 0.267593 -0.308302
-0.841322 0.362867 -0.384105
0.1145 -0.0276303 -0.987574
0.0474225 -0.279066 -0.949816
-0.0367494 -0.134188 -0.963345
-0.540203 0.259424 -0.722944
-0.285541 -0.0790187 -0.93163
-0.0775978 -0.265399 0.918658
-0.135838 0.796977 0.572232
0.0515812 0.70194 0.686121
-0.7898 0.225004 -0.564418
-0.871144 0.0897165 -0.481442
-0.906892 -0.122054 -0.259105
0.297958 0.113361 -0.944808
0.259263 -0.173179 -0.918665
0.484488 0.165979 -0.844295
0.20265 0.0946833 0.929581
0.231215 0.511358 0.810175
-0.20507 -0.610567 0.70383
0.0445838 -0.555161 0.783072
0.300821 -0.0725463 -0.701196
0.801782 0.244761 -0.227231
0.721047 -0.134857 -0.342109
-0.944991 0.0190015 -0.317135
-0.287787 -0.235626 -0.910002
-0.2087 -0.422036 -0.878579
-0.0763112 -0.525494 -0.83549
0.913023 0.293972 -0.261722
0.86394 0.42794 -0.19798
0.932115 0.329091 -0.107369
0.554284 -0.322281 -0.736524
0.652584 -0.415531 -0.596576
0.610394 -0.594139 -0.49407
-0.177942 -0.391957 -0.888277
0.433382 -0.82164 -0.224142
0.807157 -0.536431 -0.160188
0.913875 -0.32062 -0.158784
0.19585 0.303703 0.916668
0.190131 0.472696 0.855335
0.0652689 0.491171 0.847918
0.434363 -0.52419 -0.683426
0.870114 0.475762 -0.0393925
0.924278 0.365985 0.016621
0.738632 -0.232683 -0.609797
0.669655 0.290841 -0.678905
0.84161 0.230705 -0.453698
0.678632 0.362958 -0.621453
-0.262802 0.954894 0.0994517
0.0134707 0.973885 0.201177
-0.197962 0.152467 0.928699
-0.370204 0.315305 0.869584
-0.526886 0.194151 0.80379
0.233775 -0.275523 0.873743
0.316372 -0.226274 0.882107
0.0688612 -0.545495 0.802088
0.049691 -0.163404 0.933946
0.384535 0.489158 0.752761
0.560735 -0.812493 0.0443925
0.45446 -0.881629 -0.0665773
0.527318 -0.821179 -0.159575
0.797983 -0.0805206 -0.55821
0.860426 -0.287849 -0.398904
0.958039 0.0185333 -0.271402
0.981322 0.0537845 -0.161089
0.990033 0.0501346 -0.111892
-0.632828 0.583171 -0.479214
-0.530331 0.717975 0.0512232
-0.691502 0.579208 0.194995
-0.92326 0.229007 -0.301894
-0.819083 -0.0939297 -0.47388
-0.842538 0.303389 -0.440032
-0.701255 -0.707091 -0.0387326
-0.69667 -0.685185 -0.202806
-0.684157 -0.674257 -0.213992
-0.243666 0.262309 0.926089
-0.205352 0.321901 0.917708
-0.234444 0.0204313 0.924043
0.08096 -0.260672 0.819647
0.0185355 0.202526 0.962964
0.0864567 0.2139 0.970001
0.0361726 0.417418 0.891008
0.255868 0.402431 0.869244
0.366284 0.45352 0.78404
0.242073 0.593596 0.763015
0.312388 -0.338347 0.871705
0.106109 -0.128955 0.94278
0.112962 -0.423917 0.872304
0.569424 0.350225 0.723945
0.40083 0.16868 0.825897
0.891844 0.375283 -0.0795694
0.99186 0.104872 0.050535
-0.956552 0.271202 0.0553382
-0.954986 0.254056 0.13081
-0.94199 0.319016 0.0815153
-0.786477 -0.0311459 -0.549327
-0.792253 0.0589742 -0.599345
-0.00371453 0.909288 -0.415083
0.0382431 0.849975 0.518486
-0.219391 0.365293 0.894807
0.827695 -0.513987 -0.179284
0.777195 -0.547451 -0.228104
0.95096 -0.266436 -0.105255
0.0524492 -0.407069 0.816244
-0.070118 -0.73789 0.669094
-0.00564788 -0.329583 0.857884
0.0829391 0.58131 0.802885
0.0678747 0.73829 0.653598
0.0875398 0.604423 0.791048
0.951368 -0.104975 -0.153608
0.685345 -0.694613 0.0222581
0.813661 -0.376481 0.403375
-0.966069 0.150829 0.09699
-0.00800329 -0.584379 -0.789326
-0.0956883 -0.589741 -0.781597
0.237769 -0.805174 -0.460164
0.968288 0.2243 0.0489677
0.964564 0.198142 -0.0638832
0.992401 0.0832952 -0.0202621
-0.218403 0.934011 -0.269833
-0.918723 -0.359766 -0.0715599
0.273007 0.902833 -0.280704
0.0242691 -0.997726 0.0603762
0.0506277 -0.810488 -0.351823
0.016398 -0.997713 0.0600435
0.313229 -0.39168 0.833967
0.198112 -0.263162 0.866884
0.13555 -0.680969 0.667164
0.170122 0.0164757 0.984346
0.95979 -0.067884 -0.114485
0.931904 0.209198 -0.252466
0.880777 0.356005 -0.137196
0.762459 -0.452729 -0.401349
0.673077 -0.554611 -0.269102
0.370473 -0.505702 -0.546956
0.9543 -0.258075 0.0572023
-0.311631 0.127773 0.930913
-0.425532 0.00771793 0.859554
-0.343452 0.158173 0.906968
0.213447 0.569643 0.764481
0.385214 0.589485 0.688039
0.0903023 0.607473 0.778168
0.136715 0.177591 0.946951
0.226653 0.390676 0.888396
0.242774 -0.156231 0.951432
0.204487 -0.252426 0.928161
0.64311 0.269161 0.694427
0.270801 0.587384 0.720849
0.953447 -0.0228585 -0.281003
0.954911 0.0386107 -0.228493
0.890006 -0.0939829 -0.439399
0.1661 0.954304 0.220911
0.330603 0.926435 -0.11002
0.458879 0.883773 -0.0313302
0.453973 0.875204 -0.137048
-0.279755 -0.372959 0.873123
-0.234566 -0.215396 0.913328
-0.455899 -0.322357 0.818955
-0.465306 -0.146505 0.85983
-0.218885 0.257527 0.939837
0.908236 -0.0438813 -0.402613
0.924397 0.0634511 -0.340887
-0.017184 -0.268576 0.930531
-0.081187 -0.370822 0.900954
-0.0538935 -0.272509 0.952087
-0.0860814 0.512709 0.820693
-0.137635 0.688232 0.694986
0.104374 0.648108 0.735641
0.155655 -0.0828537 0.980157
0.214503 -0.074183 0.951526
0.160448 0.0214309 0.982551
0.510457 0.271897 0.795896
0.521961 0.278502 0.780844
0.337767 0.575428 0.718108
-0.0791518 -0.269571 0.937739
-0.232689 -0.183251 0.934737
0.735824 -0.178449 0.642533
0.761102 -0.274091 0.587333
0.684224 -0.0751779 0.687328
-0.596737 -0.591958 0.17187
-0.743484 -0.415665 0.369303
0.859749 0.386925 0.315158
0.852121 0.502259 0.117789
0.82072 0.482796 0.2777
-0.511035 -0.17177 -0.824031
-0.435642 -0.171761 -0.875934
-0.543908 -0.360708 -0.746188
-0.0590162 -0.241444 0.962355
-0.200629 0.112742 0.930097
-0.0675657 0.310588 0.940836
0.107312 -0.103226 0.933211
0.3268 -0.437305 0.766645
0.497291 -0.325528 0.786319
-0.341262 -0.430263 -0.831793
-0.519846 -0.34132 -0.773394
-0.291379 -0.618251 -0.719476
-0.168804 0.0493202 0.950693
0.786461 -0.40565 -0.182945
0.766902 0.560112 0.280633
0.727031 0.49685 0.453918
0.803662 0.4192 0.37282
-0.0895689 0.298757 0.939026
-0.0687777 0.430817 0.891317
0.0976097 0.124368 0.92715
-0.0250185 -0.291335 0.922066
-0.151281 -0.0552249 0.976511
0.131222 -0.19162 0.921249
0.477898 0.281686 -0.819425
0.628499 0.0592243 -0.770908
-0.95074 -0.158767 0.152497
-0.983494 -0.0715514 0.134803
-0.933599 0.266527 -0.162929
-0.31505 0.704455 0.617517
0.333903 -0.662661 -0.663773
0.224995 -0.813747 -0.498933
0.471859 -0.760777 -0.387683
-0.288322 -0.791198 -0.50952
-0.303058 -0.858711 -0.407679
-0.317902 -0.90135 -0.273333
-0.172268 -0.32702 0.915447
-0.183729 -0.21528 0.952956
0.015941 -0.119816 0.985475
0.00133149 0.122603 0.959519
-0.138276 0.715231 0.678845
0.0023064 0.501455 0.862818
0.284237 0.13387 0.915808
-0.714561 -0.220248 -0.653758
-0.676191 -0.154069 -0.667099
-0.902506 -0.0953715 -0.415316
-0.149046 -0.112696 0.970085
0.0445122 0.257411 0.962324
0.242405 -0.0333435 0.847044
0.0894072 -0.193094 0.90997
0.00399354 0.107674 0.993814
-0.723879 -0.288103 -0.258403
-0.94153 0.0686907 -0.168712
-0.616722 -0.729391 -0.144341
-0.114175 0.368715 0.917846
0.498693 0.127812 0.733235
0.252415 0.0245655 0.86166
0.0545326 0.370473 0.87632
-0.452313 0.129799 -0.840287
-0.701819 0.288897 -0.557974
-0.545513 0.50444 -0.546766
0.0161459 -0.0647249 0.989085
0.419625 -0.567926 0.704245
-0.434222 -0.31515 0.835253
-0.708634 -0.164246 0.678446
-0.488086 -0.116445 0.850274
0.243031 0.942094 0.0946174
0.36333 0.829847 0.338503
-0.270121 0.322342 -0.896379
-0.359103 0.413504 -0.817653
-0.314282 0.346654 -0.880943
-0.160763 -0.516278 0.814864
-0.0582492 -0.485684 0.866451
0.174923 0.152358 0.924124
0.0417364 0.41194 0.901834
0.177247 -0.0396684 0.979314
0.257775 0.187669 0.94624
0.148271 0.204629 0.962433
0.98864 -0.0664622 -0.0739069
0.837348 0.286819 -0.359584
0.763898 -0.216899 -0.513829
-0.0391244 0.648019 0.727978
-0.121681 -0.498534 0.80097
-0.0639566 0.869168 0.465366
-0.52202 -0.51329 -0.386223
-0.60491 -0.392869 -0.425855
-0.0580968 0.024207 -0.993949
0.106853 0.202661 -0.970029
-0.118892 -0.141073 0.944099
-0.0262047 0.502294 0.847689
0.281144 0.04597 0.905157
0.0673873 0.100967 0.98987
-0.0417837 0.0915655 0.990838
0.97407 -0.0936667 0.127427
0.971445 0.127232 0.0208126
0.924013 0.137455 0.264106
0.125672 0.316796 0.886617
-0.220645 0.317189 0.830492
0.0715218 0.747613 0.603546
-0.0809878 0.670856 0.731011
0.144857 0.0874431 -0.982921
0.314318 -0.889913 -0.303878
0.0216593 -0.92719 -0.33725
-0.0597819 -0.575215 0.815098
0.0436124 -0.30256 0.93404
-0.069176 -0.0295294 0.975727
0.0245459 0.282957 0.955207
0.26276 0.264004 0.862026
0.0791 0.203025 0.927744
-0.14501 0.163544 0.967186
0.273514 0.208523 0.931211
0.240756 0.260164 0.92961
0.233265 0.240075 0.929002
0.0712177 0.63799 0.69915
0.371433 -0.911253 0.124623
0.344253 -0.92322 -0.0333103
-0.16723 0.901775 0.297071
-0.346152 0.216307 -0.90972
-0.0120586 -0.339243 0.935659
0.026311 0.139921 0.985205
-0.183602 -0.557745 0.79046
0.229315 0.458133 0.84823
0.117193 0.393803 0.885968
-0.13627 0.485449 0.839381
-0.0655651 0.624737 0.770396
0.350811 0.241333 0.899873
0.403553 0.24531 0.829887
0.51419 0.191545 0.718543
0.116279 0.416799 0.86222
0.274156 0.653971 0.579198
0.665857 -0.681362 -0.250052
0.823223 -0.472022 -0.211045
0.797636 -0.563437 -0.0796197
0.348128 0.415666 0.817855
-0.548797 0.746277 -0.277247
-0.449022 0.729268 -0.452165
-0.666718 0.551807 -0.403121
0.765596 0.480186 0.41107
0.846974 0.35235 0.37166
-0.142049 -0.274123 0.905971
-0.364628 -0.201053 0.873228
-0.369663 -0.342212 0.863174
-0.418749 0.0961841 0.814339
-0.408084 -0.404603 0.632197
0.14212 -0.226002 0.960163
-0.0499584 0.173501 0.981602
0.0175859 0.347456 0.935692
-0.010399 0.520391 0.849429
0.0558926 0.627994 0.774549
-0.130199 -0.098708 0.982489
0.122025 -0.155518 0.971862
-0.0877403 -0.320753 0.93508
0.299495 0.532495 0.787053
0.280172 0.475767 0.833356
0.204257 0.446485 0.870445
0.875372 0.437349 0.167217
0.832277 0.53428 0.112249
-0.017843 -0.336249 0.918403
0.0944065 0.428275 0.898181
0.241095 -0.000256161 0.964729
0.03842 0.505006 0.79583
-0.0584864 0.877754 0.414962
0.0894485 0.725113 0.676933
-0.403878 0.647109 0.57954
0.172472 -0.0359048 0.938979
0.0403919 0.171597 0.965937
0.179007 0.132464 0.96602
0.129759 0.394061 0.901318
0.15426 0.360856 0.900211
0.0182106 0.337619 0.928908
0.989962 -0.0349224 0.0436309
0.929171 0.242973 0.16842
0.993956 -0.036083 0.0459626
0.249156 0.469775 0.826992
0.901977 0.00945299 0.389449
0.168933 -0.916572 -0.233264
0.0621407 -0.952442 -0.213979
0.513245 -0.792079 -0.234687
-0.0854989 0.407393 0.875297
0.325386 -0.0815592 0.894728
-0.213939 0.905472 0.33756
-0.148868 0.870855 0.451065
0.237504 -0.139068 -0.924679
0.583022 -0.471824 -0.553977
-0.640373 -0.240377 0.109746
-0.946427 0.202492 -0.0395816
-0.567754 -0.646346 0.00524992
0.106595 0.196764 0.916471
0.0279981 0.323927 0.93804
0.0841117 -0.57117 0.811103
0.304153 -0.45808 0.790577
0.0735922 -0.272643 0.9278
-0.175842 -0.273065 0.911306
0.261876 0.200536 0.938989
0.208963 0.228579 0.9329
0.313463 0.167951 0.922583
-0.172499 0.5922 0.771054
-0.620055 0.0601923 0.765373
-0.784457 0.399894 0.435544
0.0935124 -0.253802 0.943282
0.122268 -0.586808 0.745857
-0.136255 0.401443 0.894246
0.0139136 0.556829 0.819402
0.275448 -0.767855 -0.533206
0.664525 -0.635274 -0.27402
-0.212032 0.139783 0.951845
0.273309 -0.188593 0.940386
0.357956 -0.127945 0.897972
0.285118 0.0785004 0.952477
0.302636 0.0625256 0.9452
-0.963053 0.0589666 0.135696
-0.941156 -0.0203832 -0.305011
-0.955307 -0.000330904 -0.0581985
0.388701 -0.5607 0.697716
-0.235202 0.710094 0.628454
0.18818 0.468016 0.845331
0.381598 0.12759 0.911618
0.286078 0.524435 0.676922
0.505228 0.319061 0.760663
0.588844 0.402167 -0.184859
0.317883 0.146525 -0.466289
-0.0986069 0.248454 -0.780102
0.151981 0.127052 0.970272
0.0774194 -0.721123 -0.515245
0.372826 -0.684792 -0.359651
0.366969 0.295029 0.856313
-0.759653 0.320815 -0.355506
-0.657004 0.505151 -0.438192
0.00281027 0.437489 0.892297
0.468601 0.814116 0.321173
0.699295 -0.130375 -0.691338
0.558317 0.00852068 -0.822732
0.53828 -0.0227298 -0.820612
-0.189857 -0.266821 0.920195
0.130572 -0.106938 0.943163
0.171608 0.159926 0.959364
0.151278 0.325811 0.886178
-0.065584 0.719904 0.690183
-0.144748 -0.586564 -0.792321
-0.00181558 -0.796727 -0.581701
0.250936 -0.854059 -0.436648
0.140671 -0.746457 -0.626632
0.274564 -0.906491 -0.273984
0.525336 0.245487 0.788921
0.36854 0.220876 0.87748
-0.101472 -0.0304658 0.979242
0.0642822 0.600775 0.795834
0.0174 0.638005 0.762617
0.970865 -0.0335843 0.117622
0.930328 0.0754963 0.303264
0.652855 -0.74399 -0.0765086
0.122633 0.338498 0.893807
-0.12224 -0.159763 0.967618
-0.07691 -0.0412192 0.969607
0.202963 0.435874 0.85515
0.703299 -0.629419 -0.17663
0.284214 -0.0365027 0.935877
0.0290237 -0.00363785 0.992396
0.105793 0.440697 0.833239
-0.850671 -0.195331 0.118117
-0.13572 -0.117192 0.979808
0.0287339 0.0260675 0.948094
0.0728299 0.203482 0.957227
-0.959673 0.209395 0.15092
0.977877 -0.187611 -0.0213431
-0.0099062 0.571449 0.671419
0.261126 0.315242 0.899626
0.1421 -0.186649 0.965743
0.0416351 -0.164467 0.955728
0.00716759 -0.10046 0.985628
0.986327 0.0471699 0.114885
-0.644965 0.685663 -0.0239202
-0.434136 0.863042 -0.0745526
0.0253945 0.0760347 0.9667
-0.0823102 0.202212 0.963429
-0.171371 -0.00980457 0.968008
-0.0280203 0.302121 0.943941
0.100212 0.13662 0.970796
0.0583114 -0.0655597 0.991478
-0.154993 -0.0387509 0.963069
-0.228501 0.0355644 0.966618
0.0147721 0.36424 0.921556
0.929918 0.298796 -0.183301
0.930778 0.347519 0.0574604
0.849489 -0.189464 -0.00735082
0.312707 -0.618386 -0.394692
0.285211 -0.542203 -0.507245
0.39811 -0.885762 -0.0633985
0.463944 -0.688316 0.492776
0.170332 -0.120111 0.976291
-0.235018 0.187238 0.946955
0.185163 0.385734 0.874969
-0.0118641 0.564898 0.820097
0.0731863 0.578192 0.811106
-0.000439752 0.651963 0.752233
-0.103171 0.794595 0.583104
-0.373934 0.910408 0.10115
-0.43401 0.877358 -0.0942962
-0.586714 0.754057 0.116495
0.561675 0.0266467 0.786982
0.255848 0.439159 0.751907
-0.108187 0.666724 0.655429
-0.0238102 0.5721 0.806315
0.0313692 0.697888 0.706001
-0.101737 0.67281 0.718799
-0.117043 0.310697 0.796962
0.914191 0.0816413 -0.357039
0.900924 -0.130481 -0.340676
0.567963 0.0323601 0.711462
0.276356 -0.112319 0.940127
0.19814 -0.126473 0.95401
0.109482 0.0214587 0.968145
-0.0313503 -0.0929835 0.982348