<VTKFile type="ImageData" version="1.0" byte_order="LittleEndian" header_type="UInt64">
	<ImageData WholeExtent="0 39 0 39 0 39" Origin="-83.9545 -1.65846 -62.8785" Spacing="3.75007 3.75007 3.75007">
		<Piece Extent="0 39 0 39 0 39">
			<PointData Scalars="Scalars_">
				<DataArray type="Float32" Name="Scalars_" format="ascii" RangeMin="0" RangeMax="100">
78.8824
76.6734
74.53
72.453
70.4474
68.5245
66.6802
64.9098
63.219
61.6309
60.1842
58.8677
57.6969
56.6801
55.9118
55.322
54.8975
54.6461
54.7692
54.7311
54.6683
54.6722
54.8832
55.278
55.639
56.0593
56.7007
57.6459
58.7769
60.0779
61.5328
63.1588
64.9077
66.7431
68.6584
70.6451
72.6949
74.793
76.2797
76.2797
77.3893
75.1424
72.9617
70.8467
68.797
66.8316
64.9433
63.1306
61.3958
59.7647
58.2775
56.9219
55.7143
54.6662
53.8734
53.2641
52.8227
52.5494
52.6139
52.562
52.5029
52.518
52.7425
53.1535
53.5329
53.9747
54.6424
55.6189
56.7834
58.1196
59.611
61.2723
63.0543
64.9215
66.8666
68.8808
70.9576
73.0802
74.584
74.584
76.038
73.7569
71.5413
69.389
67.2981
65.2929
63.366
61.5104
59.7358
58.063
56.5351
55.1416
53.8977
52.8177
51.9991
51.3679
50.9016
50.5973
50.5841
50.5168
50.466
50.4985
50.7405
51.1713
51.5752
52.0446
52.7405
53.7481
54.9447
56.313
57.8372
59.5297
61.3419
63.238
65.2076
67.2449
69.3439
71.4876
73.005
73.005
74.836
72.5264
70.2804
68.0872
65.969
63.9266
61.9649
60.0666
58.2498
56.5374
54.9704
53.5416
52.2635
51.1499
50.3032
49.6448
49.1467
48.7948
48.6828
48.5967
48.5597
48.6173
48.8825
49.3384
49.7754
50.2797
51.0079
52.0457
53.2724
54.6695
56.223
57.9418
59.7736
61.6917
63.682
65.7375
67.8565
70.0194
71.5449
71.5449
73.7856
71.4554
69.1875
66.9696
64.8122
62.7371
60.7311
58.8068
56.9564
55.2073
53.6058
52.1385
50.8235
49.6847
48.8061
48.1056
47.5586
47.1413
46.9089
46.8
46.7831
46.876
47.172
47.6616
48.1419
48.6945
49.4553
50.5222
51.7742
53.1999
54.7737
56.5114
58.3608
60.2915
62.2926
64.3608
66.4939
68.673
70.2127
70.2127
72.916
70.5859
68.3084
66.0821
63.9063
61.8068
59.772
57.8186
55.9365
54.1563
52.5245
51.0254
49.68
48.5088
47.5891
46.8284
46.197
45.6679
45.2881
45.1484
45.16
45.3091
45.6502
46.1885
46.7353
47.3556
48.1602
49.2538
50.5258
51.9663
53.55
55.2945
57.1486
59.083
61.0887
63.1625
65.3042
67.4941
69.0431
69.0431
72.0925
69.8091
67.5922
65.3943
63.249
61.1474
59.092
57.1227
55.2099
53.4064
51.7455
50.2224
48.8541
47.6457
46.6566
45.7831
45.0054
44.3074
43.7713
43.5898
43.6356
43.8644
44.2704
44.8789
45.5231
46.242
47.1065
48.2234
49.5057
50.9451
52.5242
54.2604
56.1121
58.0392
60.0441
62.119
64.2547
66.4637
68.0127
68.0126
71.2254
69.0171
66.8705
64.7835
62.7349
60.7578
58.8296
56.9248
55.0883
53.2824
51.5855
50
48.5343
47.1768
45.9818
44.8818
43.8831
42.9913
42.3175
42.0888
42.1716
42.4945
42.9822
43.6792
44.4489
45.2928
46.2405
47.378
48.659
50.0862
51.6452
53.3643
55.2031
57.1253
59.119
61.195
63.3574
65.5523
67.1281
67.1283
70.1795
68.0462
65.9929
64.0459
62.1798
60.4134
58.6993
57.0117
55.2977
53.5546
51.8328
50.1495
48.5074
46.9108
45.408
44.0199
42.7679
41.6947
40.9188
40.6438
40.7614
41.1862
41.7693
42.5674
43.4758
44.4675
45.5026
46.6588
47.9346
49.3477
50.8852
52.5851
54.4038
56.3222
58.3309
60.4115
62.549
64.7876
66.3654
66.3656
68.9437
66.8068
64.7566
62.8271
60.9968
59.3037
57.7198
56.2202
54.7363
53.235
51.5861
49.8239
47.9991
46.1752
44.4784
42.9327
41.5598
40.4019
39.5866
39.2737
39.4217
39.9462
40.6324
41.5252
42.5515
43.6636
44.7858
45.9695
47.2536
48.6646
50.1964
51.893
53.7127
55.6357
57.6538
59.747
61.8997
64.1572
65.7487
65.7489
67.8571
65.7087
63.6659
61.7116
59.8583
58.1728
56.6279
55.1672
53.7791
52.3655
50.7543
49.0181
47.1556
45.2599
43.4948
41.8889
40.4618
39.2652
38.4256
38.0935
38.2711
38.8792
39.6722
40.6344
41.7153
42.8723
44.057
45.2995
46.6316
48.0749
49.64
51.3561
53.1966
55.1204
57.1403
59.2449
61.4475
63.6829
65.2989
65.2989
66.9123
64.7554
62.7189
60.7273
58.9219
57.2346
55.6738
54.2363
52.8615
51.4987
49.9638
48.1976
46.329
44.4072
42.6036
40.9565
39.5116
38.2872
37.4326
37.1039
37.3025
37.9492
38.8186
39.8373
40.9662
42.1705
43.4196
44.7406
46.1435
47.6468
49.2441
50.9818
52.8468
54.7618
56.7958
58.899
61.08
63.3316
64.9318
64.9316
66.1403
63.9821
61.9195
59.9737
58.128
56.4459
54.9145
53.4803
52.1439
50.8218
49.3099
47.5654
45.6883
43.7223
41.9007
40.2417
38.7845
37.5528
36.6941
36.3655
36.5566
37.1973
38.1019
39.1666
40.3417
41.6037
42.9159
44.3117
45.7746
47.3431
48.9742
50.7333
52.6116
54.5413
56.5613
58.6711
60.8717
63.1431
64.7589
64.7592
65.5534
63.4005
61.3493
59.4103
57.5594
55.8898
54.3824
52.9718
51.6832
50.4083
48.9081
47.1982
45.2896
43.3143
41.4879
39.8293
38.3842
37.1637
36.3164
35.963
36.0941
36.671
37.5685
38.6674
39.8913
41.2029
42.5658
43.9997
45.5065
47.074
48.7508
50.5276
52.3842
54.3671
56.4457
58.6034
60.8343
63.1595
64.8164
64.8164
65.1594
63.0192
60.9875
59.0726
57.253
55.6274
54.176
52.831
51.6118
50.4003
48.9165
47.2094
45.3076
43.3687
41.5581
39.9082
38.4668
37.2447
36.386
35.9543
36.0053
36.5275
37.4121
38.5415
39.8154
41.1889
42.6187
44.1027
45.6345
47.1994
48.8504
50.5807
52.3876
54.3284
56.3748
58.5162
60.7508
63.0981
64.778
64.778
64.6365
62.4545
60.3816
58.4159
56.5891
54.9313
53.4604
52.13
50.9373
49.856
48.6424
47.1908
45.4798
43.5946
41.8234
40.2023
38.7618
37.5465
36.674
36.1976
36.2592
36.8409
37.7339
38.8529
40.1122
41.4732
42.8906
44.3702
45.8891
47.4499
49.0619
50.7684
52.5988
54.4978
56.5058
58.6394
60.9233
63.254
64.9467
64.9467
63.8474
61.5794
59.3904
57.3505
55.4555
53.7165
52.1584
50.7782
49.5715
48.5868
47.7249
46.7877
45.6381
44.0765
42.3572
40.7855
39.3749
38.1578
37.2884
36.8066
36.9041
37.5564
38.4528
39.5388
40.7476
42.0551
43.4248
44.867
46.3603
47.8972
49.4918
51.1837
52.9778
54.8945
56.8954
59.0229
61.2554
63.6383
65.3043
65.3047
62.668
60.2867
58.0134
55.8531
53.7949
51.9524
50.3062
48.8272
47.6004
46.6066
45.925
45.7421
45.5104
44.7172
43.1832
41.6975
40.3293
39.1618
38.3153
37.8301
37.9435
38.6129
39.4919
40.5329
41.6891
42.9277
44.2327
45.6221
47.0819
48.5671
50.1491
51.8206
53.5979
55.4785
57.4666
59.5796
61.8327
64.1495
65.8313
65.8317
60.9382
58.4508
56.073
53.8085
51.647
49.7048
47.9631
46.3903
45.0761
44.0014
43.253
43.2395
43.6231
44.1285
43.9274
42.9095
41.6214
40.5067
39.7004
39.2379
39.3562
40.0115
40.8531
41.8395
42.9296
44.0957
45.3286
46.6505
48.0497
49.4823
51.0212
52.6605
54.4124
56.2702
58.2398
60.3353
62.5724
64.8727
66.5452
66.5457
59.0206
56.4408
53.9463
51.6017
49.3881
47.3525
45.5349
43.8568
42.4307
41.2805
40.509
40.4776
41.0557
41.927
42.7747
43.2027
42.981
42.0782
41.3218
40.8946
41.0105
41.6371
42.4262
43.3501
44.3651
45.4603
46.618
47.8638
49.177
50.5707
52.0442
53.6475
55.3641
57.2284
59.1662
61.2419
63.4487
65.7578
67.4342
67.4352
57.1624
54.4973
51.8936
49.477
47.146
45.0199
43.0562
41.3859
39.8518
38.6252
37.8057
37.7442
38.3425
39.3109
40.694
42.1503
43.1081
43.3307
43.0333
42.7272
42.8365
43.4176
44.1432
44.997
45.936
46.9517
48.0332
49.2036
50.4497
51.7828
53.208
54.7753
56.4611
58.2753
60.22
62.2746
64.4549
66.7619
68.4241
68.4241
55.3103
52.5667
49.9563
47.3947
45.0263
42.8092
40.8223
38.9597
37.3609
36.0551
35.1465
35.1146
35.7205
36.7621
38.2323
39.9388
41.8372
43.6699
44.371
44.4977
44.7618
45.322
45.9757
46.7523
47.6107
48.5441
49.5513
50.6488
51.8258
53.1112
54.5006
56.0318
57.704
59.4765
61.3928
63.4231
65.5876
67.8498
69.4983
69.4983
53.693
50.8744
48.1857
45.5415
43.0886
40.7823
38.7052
36.7502
35.0627
33.6742
32.6996
32.648
33.2751
34.3706
35.9152
37.7067
39.7458
41.9235
44.1464
45.661
46.6681
47.3195
47.904
48.5958
49.3733
50.2316
51.1683
52.2047
53.3293
54.5706
55.9234
57.4241
59.0687
60.815
62.7063
64.7113
66.8495
69.0868
70.7182
70.7182
52.3171
49.4319
46.6364
44.0202
41.3924
39.0028
36.7879
34.8339
33.0377
31.5646
30.5247
30.4334
31.1022
32.2428
33.8625
35.741
37.8552
40.1664
42.6569
44.9882
47.0453
48.7116
49.7177
50.4534
51.2017
52.0075
52.8838
53.8742
54.9662
56.1639
57.4834
58.959
60.5679
62.2961
64.155
66.1331
68.2528
70.4619
72.0318
72.0318
51.1533
48.2103
45.3457
42.5784
39.9513
37.4885
35.2388
33.1236
31.2786
29.724
28.6376
28.4852
29.1787
30.3705
32.0624
34.0318
36.2247
38.6112
41.1942
43.8534
46.4541
48.809
50.6037
51.8723
52.8991
53.7851
54.6585
55.6251
56.6906
57.8683
59.1771
60.6306
62.2042
63.8904
65.7286
67.6818
69.7757
71.9689
73.5533
73.5533
50.1157
47.1304
44.2519
41.446
38.765
36.2418
33.8706
31.7673
29.8178
28.1902
27.027
26.8744
27.5916
28.8457
30.6018
32.6153
34.8789
37.3369
39.9792
42.6917
45.3999
48.0335
50.5059
52.4529
53.9926
55.2408
56.3239
57.3661
58.4645
59.658
60.935
62.3706
63.9741
65.6345
67.4511
69.3768
71.449
73.6081
75.0936
75.0936
49.3257
46.3127
43.3908
40.5985
37.8396
35.2841
32.9215
30.7407
28.7242
27.0361
25.8402
25.6535
26.3918
27.6516
29.4631
31.5625
33.8706
36.3664
39.0553
41.8103
44.5162
47.1184
49.5284
51.7419
53.8882
55.8853
57.6567
58.9982
60.2573
61.517
62.8054
64.2345
65.8076
67.4625
69.2477
71.146
73.1462
75.2575
76.8335
76.8335
48.7449
45.7369
42.829
40.0629
37.3431
34.8543
32.5935
30.5503
28.711
27.246
26.265
25.844
26.1955
27.4067
29.196
31.2811
33.5796
36.0673
38.7422
41.4543
44.0819
46.5735
48.8548
50.9702
53.0547
55.1118
57.1771
59.2276
61.1302
62.8922
64.4949
66.0617
67.6981
69.3748
71.1611
73.0441
75.0197
77.1038
78.662
78.662
48.188
45.163
42.2113
39.3793
36.7408
34.2551
31.9697
29.9659
28.2768
26.9393
26.181
25.7944
26.017
27.2426
29.0264
31.093
33.3851
35.8987
38.5583
41.2056
43.7604
46.1451
48.3184
50.3611
52.3922
54.476
56.6147
58.8946
61.15
63.3501
65.4534
67.4167
69.2657
71.1937
73.0303
74.9479
76.9467
79.0854
80.4659
80.4659
47.8073
44.774
41.8547
39.0111
36.3371
33.8415
31.5922
29.5614
27.8335
26.5263
25.933
25.6062
25.8778
27.085
28.8712
30.9484
33.2588
35.7553
38.41
41.0352
43.5185
45.847
47.9483
49.9439
51.9524
54.013
56.1614
58.4625
60.8652
63.3616
65.8582
68.2534
70.5157
72.6088
74.7773
76.8275
78.9097
80.9248
82.4868
82.4868
47.8945
44.8729
41.9014
39.0787
36.417
33.9247
31.6322
29.6067
27.8536
26.4879
25.7239
25.4297
25.7872
27.0186
28.8053
30.8629
33.1705
35.6745
38.3216
40.9201
43.3974
45.6771
47.7506
49.7329
51.736
53.7949
55.9385
58.2417
60.672
63.1544
65.7843
68.4678
71.0497
73.6793
76.0807
78.3934
80.5729
82.8467
84.3995
84.3995
48.1284
45.0967
42.1126
39.2779
36.6021
34.0941
31.7849
29.7448
27.9797
26.6087
25.8588
25.7207
26.2561
27.4979
29.2822
31.3332
33.6315
36.1219
38.7434
41.2852
43.6767
45.8487
47.8144
49.721
51.6729
53.701
55.8284
58.1268
60.5567
63.0409
65.6791
68.3944
71.1076
73.9746
76.7013
79.3882
81.8904
84.4196
86.12
86.12
48.7018
45.702
42.809
40.0741
37.3642
34.8968
32.6691
30.6446
28.9694
27.6333
26.8633
26.7761
27.3695
28.5752
30.3169
32.3344
34.5722
37.0222
39.5955
42.0941
44.4074
46.5309
48.4407
50.3017
52.2161
54.21
56.3293
58.6078
61.0086
63.4706
66.0761
68.7821
71.6099
74.3994
77.2792
80.1362
82.9177
85.6006
87.5949
87.5949
49.6885
46.7364
43.8748
41.1984
38.5148
36.1119
33.9598
32.0531
30.3712
29.0874
28.3566
28.3198
28.8968
30.0395
31.7199
33.6959
35.8708
38.2587
40.7684
43.188
45.4643
47.5327
49.3995
51.2216
53.1057
55.0671
57.1699
59.4215
61.7551
64.2358
66.8057
69.483
72.2498
75.1345
77.9817
80.9076
83.7881
86.7118
88.634
88.634
50.9228
48.0292
45.2526
42.5666
40.0572
37.7269
35.6026
33.7178
32.1306
30.904
30.205
30.1901
30.7497
31.8748
33.4858
35.3668
37.4645
39.7842
42.2211
44.5851
46.7818
48.7974
50.617
52.4025
54.2461
56.1807
58.2188
60.4328
62.7828
65.2031
67.767
70.4175
73.0884
75.9644
78.7584
81.6853
84.6432
87.6419
89.7244
89.7244
52.4042
49.5802
46.8762
44.2675
41.8383
39.5905
37.548
35.7415
34.2272
33.0594
32.386
32.3821
32.9276
33.9981
35.5346
37.3359
39.3508
41.5878
43.9451
46.2372
48.3699
50.3296
52.1008
53.8417
55.6418
57.5339
59.5292
61.7014
64.0112
66.3909
68.9164
71.5292
74.1634
77.006
79.7706
82.6764
85.6328
88.6527
90.7603
90.7603
54.2042
51.4568
48.7274
46.1997
43.8544
41.6933
39.7672
38.0571
36.6025
35.493
34.8686
34.8491
35.3755
36.3982
37.8576
39.5798
41.5
43.6349
45.9112
48.1405
50.2102
52.1089
53.8327
55.5306
57.275
59.1235
61.0931
63.2217
65.4154
67.7883
70.2112
72.7806
75.4781
78.2197
81.0222
83.8957
86.8438
89.8141
91.9044
91.9044
55.976
53.3065
50.8395
48.3729
46.1055
44.0294
42.1975
40.4889
39.148
38.0912
37.4641
37.467
37.9993
38.9441
40.3339
41.9348
43.8517
45.8728
48.066
50.2233
52.2245
54.0665
55.74
57.3853
59.0884
60.8879
62.806
64.8844
67.0558
69.3732
71.798
74.3208
76.9557
79.5974
82.4134
85.2582
88.0564
91.1379
93.1985
93.1985
57.4199
54.8067
52.3016
49.9953
47.7001
45.6831
43.931
42.31
40.9694
39.9509
39.4084
39.3592
39.886
40.7797
42.1213
43.7403
45.5339
47.5196
49.6541
51.7423
53.7038
55.5055
57.141
58.7532
60.4151
62.1918
64.0472
66.0892
68.2652
70.5301
72.9234
75.4155
77.956
80.6442
83.4072
86.2197
88.9973
92.0335
94.0966
94.0966
57.4199
54.8067
52.3016
49.9953
47.7001
45.6831
43.931
42.31
40.9694
39.9509
39.4084
39.3592
39.886
40.7797
42.1213
43.7403
45.5339
47.5196
49.6541
51.7423
53.7038
55.5055
57.141
58.7532
60.4151
62.1918
64.0472
66.0892
68.2652
70.5301
72.9234
75.4155
77.956
80.6442
83.4072
86.2197
88.9973
92.0335
94.0966
94.0966
76.1096
73.8644
71.6882
69.5817
67.5495
65.6021
63.733
61.936
60.2154
58.5932
57.1083
55.7531
54.5451
53.4947
52.7026
52.0985
51.6683
51.4221
51.5858
51.5563
51.4899
51.4869
51.6942
52.0926
52.4427
52.8542
53.5156
54.4991
55.6757
57.0269
58.5348
60.213
62.0101
63.8887
65.8415
67.859
69.9341
72.0552
73.5573
73.5573
74.5693
72.2829
70.066
67.9179
65.838
63.8447
61.9276
60.0841
58.315
56.6448
55.1146
53.7153
52.466
51.3804
50.5617
49.9382
49.493
49.2286
49.3417
49.2987
49.2337
49.239
49.4587
49.8725
50.2388
50.6701
51.3596
52.3782
53.5926
54.9838
56.5328
58.2508
60.0849
61.9987
63.9841
66.0317
68.1362
70.2843
71.8054
71.8054
73.1742
70.8501
68.5949
66.4059
64.2815
62.2444
60.2848
58.3939
56.5806
54.8639
53.2878
51.8458
50.5554
49.4341
48.5879
47.9437
47.4772
47.187
47.2294
47.1718
47.1126
47.1315
47.367
47.7993
48.1873
48.644
49.3631
50.4164
51.6672
53.0952
54.6816
56.4352
58.3034
60.249
62.2618
64.3349
66.464
68.6358
70.1721
70.1721
71.9329
69.5764
67.2875
65.054
62.8982
60.8203
58.822
56.8847
55.0246
53.2635
51.643
50.1605
48.8317
47.6729
46.7979
46.1294
45.637
45.3067
45.2548
45.1796
45.1315
45.1705
45.4272
45.8826
46.3005
46.7893
47.5413
48.6281
49.9129
51.3741
52.9941
54.7779
56.6689
58.6398
60.6758
62.7694
64.9208
67.1142
68.6606
68.6606
70.8505
68.469
66.1536
63.8917
61.6931
59.5787
57.5324
55.5645
53.6664
51.8638
50.204
48.6783
47.3083
46.1212
45.215
44.5101
43.9777
43.592
43.4191
43.3227
43.2923
43.3609
43.6456
44.132
44.5895
45.1234
45.9075
47.026
48.3394
49.8328
51.4769
53.283
55.1944
57.1805
59.2297
61.3382
63.506
65.7179
67.2804
67.2804
69.9608
67.574
65.2436
62.9686
60.7475
58.6052
56.5265
54.5258
52.5921
50.7541
49.0595
47.498
46.0945
44.8736
43.9317
43.1784
42.5754
42.0883
41.7565
41.6305
41.6275
41.7464
42.073
42.605
43.1252
43.7231
44.548
45.6936
47.0285
48.5389
50.1952
52.0101
53.9281
55.9197
57.9752
60.0911
62.2697
64.4949
66.0686
66.0686
69.1363
66.7897
64.5127
62.2594
60.0632
57.9146
55.8114
53.792
51.8249
49.9603
48.233
46.6449
45.2183
43.9629
42.9702
42.1251
41.389
40.7301
40.2149
40.0457
40.0784
40.2749
40.6639
41.2654
41.8832
42.5782
43.4563
44.6215
45.9643
47.4723
49.1233
50.93
52.8459
54.8308
56.8866
59.0053
61.1804
63.4272
65.0026
65.0025
68.2715
65.9977
63.7872
61.6405
59.5358
57.5091
55.5356
53.5863
51.7029
49.8413
48.0841
46.4468
44.9409
43.5593
42.3698
41.2902
40.3122
39.4293
38.7407
38.519
38.5925
38.8873
39.3583
40.0529
40.8059
41.6322
42.5852
43.7606
45.0935
46.5829
48.2095
49.9967
51.8983
53.8789
55.9245
58.0462
60.2504
62.4854
64.09
64.0902
67.2179
65.0198
62.9025
60.8927
58.9681
57.1506
55.3952
53.6763
51.9356
50.162
48.4094
46.7049
45.0524
43.4566
41.9461
40.5382
39.2553
38.1413
37.3165
37.0399
37.1536
37.5613
38.1314
38.9369
39.8481
40.8375
41.8696
43.0471
44.3609
45.8252
47.4232
49.1874
51.068
53.0444
55.1061
57.2347
59.4166
61.6986
63.3067
63.3069
65.9356
63.7312
61.6142
59.618
57.7247
55.9759
54.3499
52.8308
51.3525
49.8908
48.2887
46.5471
44.7124
42.8496
41.0942
39.4821
38.0391
36.8116
35.9372
35.6135
35.763
36.2876
36.9687
37.8814
38.9345
40.0654
41.1811
42.3681
43.6751
45.1262
46.7116
48.47
50.3511
52.3331
54.4065
56.5508
58.7514
61.0554
62.6793
62.6795
64.8026
62.5843
60.4706
58.4481
56.5277
54.7818
53.1912
51.7072
50.3279
48.9699
47.4377
45.7482
43.8886
41.9487
40.1086
38.4199
36.9078
35.6298
34.7246
34.3748
34.5618
35.1929
36.0017
36.986
38.0936
39.27
40.451
41.6967
43.0498
44.53
46.1454
47.9209
49.8218
51.8048
53.8806
56.0383
58.292
60.577
62.227
62.227
63.8152
61.5864
59.4777
57.4134
55.5386
53.7874
52.1764
50.7123
49.3445
48.043
46.6055
44.9011
43.0427
41.0726
39.1851
37.4464
35.9089
34.5959
33.6708
33.3245
33.5404
34.2261
35.1313
36.1764
37.3325
38.5586
39.8134
41.1464
42.5743
44.1138
45.7573
47.5486
49.4683
51.4382
53.526
55.6805
57.9119
60.2137
61.8485
61.8482
63.0054
60.7739
58.6395
56.6189
54.7022
52.9536
51.368
49.9037
48.571
47.3133
45.9138
44.2409
42.3764
40.3545
38.4433
36.6887
35.1346
33.8123
32.8817
32.5378
32.7492
33.4333
34.3886
35.4875
36.6953
37.985
39.3136
40.7307
42.2229
43.8272
45.5014
47.3087
49.2377
51.2188
53.2904
55.4514
57.7032
60.0252
61.6753
61.6756
62.3908
60.1642
58.038
56.0262
54.1023
52.3645
50.8005
49.3561
48.068
46.8612
45.4923
43.8662
41.9711
39.9289
38.0089
36.2533
34.7136
33.4053
32.4906
32.1197
32.2616
32.8712
33.8259
34.9716
36.2388
37.5858
38.9693
40.4244
41.9592
43.5616
45.2805
47.1065
49.0168
51.0574
53.1953
55.4137
57.7037
60.0851
61.7797
61.7797
62.0078
59.8011
57.7026
55.7248
53.8429
52.1609
50.6634
49.2912
48.072
46.9136
45.5253
43.8726
41.9711
39.9753
38.0758
36.3317
34.7977
33.4899
32.5672
32.1138
32.1688
32.7186
33.6636
34.8508
36.1783
37.5948
39.0488
40.5506
42.1016
43.6892
45.3688
47.1381
48.9942
50.9928
53.103
55.3138
57.6197
60.0372
61.7653
61.7653
61.6093
59.3774
57.2541
55.2403
53.3661
51.6653
50.1594
48.805
47.6036
46.5427
45.357
43.8815
42.1166
40.1883
38.3398
36.6327
35.1042
33.8056
32.8695
32.3675
32.438
33.0582
34.0072
35.1778
36.4856
37.886
39.327
40.8242
42.3603
43.941
45.5775
47.3205
49.1997
51.1574
53.2309
55.437
57.7983
60.2036
61.9494
61.9494
61.0563
58.753
56.5294
54.4519
52.521
50.7467
49.157
47.7518
46.5265
45.5363
44.6633
43.6387
42.3577
40.6721
38.8891
37.2429
35.753
34.4578
33.5275
33.0192
33.132
33.8321
34.7758
35.9002
37.145
38.4827
39.8707
41.3297
42.8401
44.3971
46.0173
47.7463
49.5898
51.5637
53.6317
55.8321
58.1402
60.6013
62.3217
62.3221
60.2031
57.7896
55.481
53.2854
51.1877
49.3071
47.6262
46.1166
44.8675
43.8628
43.1871
42.9163
42.4868
41.3896
39.7701
38.2103
36.7725
35.5373
34.6381
34.1314
34.2605
34.9739
35.8896
36.9563
38.1353
39.3921
40.708
42.1098
43.5839
45.0886
46.6967
48.4059
50.2318
52.1711
54.2238
56.4087
58.7389
61.1315
62.8682
62.8686
58.7138
56.1792
53.7511
51.4365
49.2208
47.2266
45.4365
43.8196
42.4693
41.3687
40.6113
40.5845
40.92
41.3067
40.6928
39.4961
38.1384
36.9697
36.1221
35.6448
35.7777
36.4681
37.3337
38.3338
39.4342
40.6071
41.8428
43.1698
44.5781
46.0267
47.5906
49.2678
51.0685
52.985
55.0187
57.1855
59.4989
61.8744
63.6015
63.602
56.8699
54.2296
51.6719
49.2616
46.9838
44.8836
43.0043
41.2701
39.7958
38.6073
37.8135
37.7839
38.3701
39.2386
39.9285
40.1297
39.6862
38.6261
37.8408
37.4061
37.5343
38.1848
38.9837
39.9104
40.9254
42.017
43.1682
44.4119
45.7303
47.1378
48.6355
50.2774
52.0442
53.9659
55.9703
58.1168
60.397
62.7808
64.5093
64.5103
55.0126
52.2759
49.5968
47.1044
44.6954
42.4928
40.4566
38.7177
37.1206
35.843
34.9925
34.93
35.5569
36.578
38.0206
39.3618
40.1296
40.1646
39.6804
39.3379
39.4557
40.0474
40.7673
41.613
42.5427
43.5472
44.6151
45.7786
47.0276
48.3737
49.8248
51.4322
53.1674
55.0415
57.0496
59.174
61.427
63.8112
65.5238
65.5238
53.1277
50.3031
47.6095
44.9628
42.5055
40.1999
38.127
36.1814
34.5071
33.1362
32.1819
32.1458
32.7868
33.896
35.4563
37.2548
39.1832
40.9219
41.2468
41.2551
41.4834
42.0253
42.6542
43.411
44.2525
45.1699
46.1595
47.2489
48.4291
49.7303
51.1469
52.7199
54.4447
56.2756
58.2548
60.3535
62.5884
64.9237
66.6244
66.6244
51.4742
48.566
45.7846
43.0451
40.4919
38.0844
35.9071
33.8539
32.0748
30.6044
29.569
29.5076
30.174
31.3495
33
34.9044
37.0515
39.3162
41.5305
42.7721
43.5491
44.0935
44.6241
45.283
46.038
46.8792
47.7997
48.8314
49.9632
51.224
52.6073
54.1515
55.8491
57.6534
59.6064
61.6782
63.8848
66.1931
67.875
67.875
50.0673
47.0843
44.1839
41.4615
38.7227
36.2182
33.8886
31.8185
29.9117
28.3372
27.2198
27.1104
27.8252
29.0606
30.8036
32.8118
35.058
37.4952
40.0782
42.3721
44.289
45.7455
46.5447
47.1882
47.8913
48.6782
49.5427
50.5342
51.6381
52.8606
54.2131
55.7333
57.3954
59.1787
61.0993
63.1423
65.3279
67.6054
69.2236
69.2236
48.8721
45.8235
42.8475
39.9651
37.2152
34.6239
32.2407
29.9942
28.0191
26.342
25.1581
24.9809
25.725
27.0297
28.8639
30.9807
33.3225
35.8531
38.5634
41.3019
43.8632
46.0598
47.6516
48.7503
49.6689
50.5005
51.355
52.3262
53.4084
54.6119
55.9583
57.4574
59.0813
60.8252
62.7204
64.7361
66.8963
69.154
70.7832
70.7832
47.8156
44.7174
41.7154
38.7835
35.9694
33.3048
30.7873
28.5336
26.4356
24.6641
23.3817
23.1972
23.9707
25.3568
27.2746
29.4533
31.8815
34.4977
37.2766
40.0731
42.7978
45.3747
47.7221
49.4669
50.861
52.0279
53.079
54.1221
55.2363
56.4571
57.7705
59.2514
60.9055
62.6205
64.4954
66.4812
68.6148
70.8352
72.3658
72.3658
47.0063
43.8738
40.8247
37.8963
34.9948
32.2863
29.7639
27.4194
25.2378
23.3863
22.049
21.823
22.6246
24.0345
26.0265
28.3081
30.795
33.4614
36.2935
39.1272
41.8322
44.3551
46.625
48.729
50.8122
52.7737
54.5054
55.8313
57.0973
58.3785
59.7018
61.1749
62.7955
64.5033
66.3444
68.3002
70.3586
72.533
74.1474
74.1474
46.4173
43.2852
40.2447
37.3361
34.4669
31.8179
29.3916
27.1822
25.1819
23.57
22.4875
22.0189
22.4051
23.7691
25.7409
28.01
30.4886
33.1467
35.9572
38.7218
41.3129
43.6909
45.8225
47.8441
49.8874
51.9458
54.0378
56.1305
58.0596
59.8413
61.4694
63.0724
64.7508
66.4761
68.3146
70.252
72.2828
74.427
76.0214
76.0214
45.8436
42.6901
39.6008
36.6207
33.8246
31.1697
28.7092
26.5305
24.6732
23.1907
22.3807
21.9651
22.2199
23.5986
25.5663
27.8182
30.2922
32.9745
35.76
38.4316
40.9158
43.1599
45.182
47.1471
49.1558
51.2615
53.4548
55.8055
58.1212
60.3714
62.5152
64.5126
66.3976
68.3666
70.2482
72.2148
74.2634
76.4559
77.8742
77.8742
45.4456
42.2823
39.2203
36.228
33.3929
30.7249
28.2965
26.0861
24.1875
22.7344
22.1086
21.7679
22.0795
23.4408
25.4113
27.6749
30.1671
32.8321
35.6045
38.2317
40.6229
42.7948
44.7479
46.6778
48.6757
50.7686
52.9791
55.3616
57.8497
60.4267
62.9902
65.4326
67.7352
69.8628
72.0693
74.1605
76.2866
78.3501
79.9447
79.9447
45.5121
42.3634
39.2589
36.2877
33.4695
30.8107
28.3458
26.1483
24.2289
22.7209
21.8982
21.5846
21.9897
23.3761
25.347
27.5897
30.0795
32.7512
35.5108
38.1017
40.4775
42.5963
44.5253
46.4484
48.4469
50.5434
52.7524
55.1394
57.6585
60.2325
62.951
65.7112
68.3517
71.024
73.4594
75.8043
78.0178
80.3356
81.9144
81.9144
45.7677
42.6086
39.4908
36.5062
33.6721
30.9949
28.5099
26.2937
24.358
22.8407
22.034
21.8906
22.4882
23.8832
25.8491
28.0826
30.5601
33.2134
35.9348
38.4404
40.7018
42.6947
44.5225
46.3872
48.3503
50.4285
52.6301
55.0175
57.5402
60.1192
62.8497
65.6543
68.4495
71.3838
74.1645
76.8909
79.4225
81.9872
83.7065
83.7065
46.3782
43.2553
40.229
37.3524
34.4934
31.8657
29.4729
27.2837
25.4517
23.9826
23.1603
23.0708
23.7236
25.0666
26.9745
29.1616
31.5662
34.168
36.8297
39.2788
41.4537
43.3943
45.1692
46.9914
48.9187
50.9626
53.1554
55.5216
58.0137
60.5685
63.266
66.0623
68.9748
71.8438
74.7909
77.7027
80.523
83.2419
85.2576
85.2576
47.4068
44.3382
41.3575
38.5468
35.7228
33.173
30.8712
28.8183
26.998
25.5988
24.821
24.7817
25.4114
26.6728
28.5003
30.6281
32.9539
35.479
38.0657
40.4296
42.5635
44.4487
46.1813
47.9632
49.8574
51.8657
54.0376
56.3731
58.7953
61.3652
64.0224
66.7872
69.6416
72.6058
75.527
78.5188
81.4538
84.421
86.3681
86.3681
48.6943
45.6917
42.8033
39.9927
37.3606
34.8978
32.6376
30.6255
28.9164
27.5917
26.8514
26.8351
27.4409
28.6656
30.4043
32.4188
34.6499
37.0934
39.5958
41.8972
43.9492
45.7813
47.4661
49.2087
51.0588
53.0355
55.1387
57.4321
59.8653
62.3713
65.0238
67.759
70.5077
73.4617
76.3334
79.3302
82.3513
85.4006
87.5162
87.5162
50.2348
47.31
44.5037
41.7813
39.2417
36.8759
34.7135
32.7967
31.1775
29.9266
29.2173
29.2123
29.7975
30.9517
32.5978
34.5155
36.6477
38.994
41.4058
43.63
45.6162
47.3924
49.0278
50.7226
52.525
54.4544
56.5095
58.7562
61.1443
63.6054
66.215
68.9088
71.6178
74.5358
77.3763
80.3518
83.3739
86.4491
88.594
88.594
52.1019
49.262
46.4334
43.8072
41.3589
39.093
37.0652
35.255
33.7133
32.5334
31.8775
31.8569
32.4161
33.5091
35.0629
36.8881
38.9102
41.1414
43.462
45.6197
47.5406
49.2572
50.8443
52.493
54.2351
56.1167
58.1406
60.3384
62.6064
65.0538
67.555
70.2011
72.9738
75.7893
78.6581
81.5993
84.6123
87.6439
89.7724
89.7724
53.9357
51.1816
48.627
46.0694
43.7124
41.5436
39.6218
37.8255
36.41
35.2937
34.6424
34.6422
35.2024
36.2078
37.6784
39.3673
41.3739
43.4791
45.7076
47.7891
49.6419
51.3026
52.8389
54.4319
56.1286
57.9566
59.9226
62.065
64.3069
66.6931
69.1919
71.7872
74.4909
77.2034
80.0882
82.9984
85.8616
88.9956
91.0966
91.0966
55.4244
52.732
50.1497
47.7558
45.3754
43.2739
41.4415
39.7441
38.3386
37.2672
36.6975
36.6474
37.2003
38.1471
39.5607
41.2585
43.1331
45.1956
47.3593
49.3693
51.1833
52.8038
54.3019
55.8598
57.5129
59.314
61.2148
63.3171
65.5577
67.8907
70.3543
72.916
75.5251
78.2808
81.1102
83.9861
86.8233
89.9158
92.0217
92.0217
55.4244
52.732
50.1497
47.7558
45.3754
43.2739
41.4415
39.7441
38.3386
37.2672
36.6975
36.6474
37.2003
38.1471
39.5607
41.2585
43.1331
45.1956
47.3593
49.3693
51.1833
52.8038
54.3019
55.8598
57.5129
59.314
61.2148
63.3171
65.5577
67.8907
70.3543
72.916
75.5251
78.2808
81.1102
83.9861
86.8233
89.9158
92.0217
92.0217
73.387
71.1037
68.8952
66.7585
64.6985
62.7289
60.8412
59.018
57.2735
55.6206
54.0993
52.7066
51.4596
50.3751
49.5577
48.9383
48.5006
48.258
48.461
48.4395
48.3699
48.3617
48.5655
48.9682
49.3072
49.7097
50.3944
51.4192
52.6441
54.0471
55.6113
57.3417
59.1831
61.1012
63.0874
65.1308
67.2288
69.3681
70.8833
70.8833
71.8
69.4717
67.215
65.0324
62.9232
60.9036
58.9633
57.0894
55.2912
53.5851
52.0127
50.5698
49.2772
48.1526
47.3058
46.6662
46.2145
45.9568
46.1176
46.0835
46.0134
46.0111
46.2259
46.6433
46.9963
47.4174
48.1325
49.1971
50.465
51.9141
53.5237
55.2988
57.1825
59.14
61.1614
63.2375
65.3663
67.5366
69.0726
69.0726
70.3598
67.99
65.6924
63.4651
61.3073
59.24
57.2508
55.3281
53.4781
51.72
50.0942
48.6039
47.2653
46.1004
45.2231
44.5611
44.0927
43.8138
43.913
43.8651
43.798
43.805
44.0344
44.4691
44.8408
45.2852
46.0323
47.1365
48.4466
49.9381
51.5905
53.4061
55.3275
57.3179
59.3699
61.4742
63.6321
65.8277
67.3826
67.3826
69.07
66.6639
64.3309
62.0659
59.8701
57.7577
55.715
53.7466
51.848
50.0398
48.3653
46.826
45.4424
44.2376
43.3291
42.6432
42.1512
41.8417
41.8543
41.7904
41.7314
41.7536
42.0018
42.4579
42.8553
43.3307
44.1111
45.2535
46.6025
48.1327
49.8228
51.6729
53.6258
55.6411
57.7269
59.8544
62.0265
64.2512
65.819
65.8191
67.9571
65.5216
63.158
60.8412
58.6118
56.4589
54.3799
52.3662
50.4145
48.5596
46.839
45.2567
43.8325
42.5823
41.6419
40.9312
40.4081
40.0521
39.9478
39.8628
39.8179
39.8648
40.1385
40.622
41.0555
41.5704
42.3855
43.5634
44.9462
46.5124
48.2336
50.1105
52.0821
54.1227
56.2181
58.3629
60.5567
62.8064
64.3877
64.3877
67.0441
64.5973
62.2188
59.8767
57.6233
55.4383
53.3236
51.2723
49.2803
47.385
45.6244
44.0018
42.539
41.2507
40.2767
39.5274
38.9488
38.5059
38.2359
38.1231
38.1035
38.1931
38.5052
39.0304
39.5218
40.096
40.9501
42.1573
43.5644
45.151
46.8879
48.7764
50.7574
52.8059
54.908
57.0625
59.2707
61.5368
63.13
63.13
66.2369
63.8223
61.4582
59.1658
56.9025
54.7065
52.5737
50.4808
48.4757
46.5493
44.7508
43.0956
41.5949
40.2838
39.2704
38.446
37.7543
37.1417
36.6625
36.5124
36.5293
36.6897
37.0609
37.6541
38.2408
38.9087
39.8109
41.0356
42.4496
44.0287
45.7662
47.6479
49.6192
51.6675
53.7712
55.9302
58.1562
60.4288
62.0403
62.0404
65.3562
63.0137
60.751
58.5316
56.3745
54.295
52.2792
50.2931
48.3473
46.4295
44.6065
42.9055
41.3461
39.9321
38.7391
37.6832
36.7289
35.8751
35.1787
34.9626
35.0252
35.2844
35.7368
36.4278
37.159
37.9628
38.9261
40.1499
41.5472
43.1023
44.8079
46.6678
48.6285
50.6661
52.769
54.9335
57.1682
59.4659
61.0781
61.0781
64.3307
62.0652
59.8684
57.7905
55.7924
53.9179
52.1272
50.3672
48.6102
46.8048
45.0002
43.2651
41.5945
39.986
38.4772
37.0657
35.7592
34.6078
33.7296
33.4539
33.5621
33.9453
34.4986
35.3106
36.2218
37.2003
38.232
39.4389
40.8011
42.3249
43.9884
45.8223
47.7696
49.8025
51.9025
54.0763
56.3294
58.6345
60.2747
60.2747
63.0003
60.726
58.5266
56.4591
54.487
52.6752
51.0104
49.4549
47.9872
46.5569
44.9893
43.2823
41.4527
39.5477
37.7382
36.0673
34.5497
33.2444
32.3029
31.9693
32.1189
32.6371
33.3064
34.2421
35.3275
36.4725
37.5752
38.7674
40.1053
41.6041
43.2488
45.0751
47.0238
49.0648
51.1786
53.3721
55.6488
57.9782
59.6372
59.6372
61.794
59.5028
57.3086
55.2193
53.2533
51.4385
49.7806
48.2563
46.868
45.5528
44.1159
42.4826
40.6442
38.6844
36.7704
34.9839
33.395
32.023
31.0423
30.6728
30.8676
31.5189
32.3391
33.3451
34.4819
35.6778
36.8448
38.0944
39.4726
41.0027
42.66
44.5002
46.4852
48.5192
50.6547
52.8656
55.1588
57.5052
59.1867
59.1867
60.7881
58.4841
56.2657
54.1608
52.1945
50.3718
48.7089
47.1931
45.8083
44.5521
43.1988
41.6301
39.7983
37.7906
35.8196
33.9862
32.3388
30.9269
29.9197
29.553
29.7863
30.5166
31.4561
32.5254
33.7085
34.9569
36.2092
37.5554
39.0145
40.5913
42.3008
44.1516
46.1078
48.1521
50.287
52.4933
54.7801
57.1446
58.8027
58.8027
59.9343
57.6254
55.4159
53.3033
51.3088
49.4855
47.8369
46.336
44.9987
43.7858
42.4826
40.931
39.0896
37.0365
35.0332
33.1771
31.5134
30.0921
29.0765
28.7135
28.9466
29.6803
30.6896
31.8194
33.0592
34.3747
35.7119
37.1517
38.6887
40.3172
42.051
43.9108
45.8802
47.9227
50.0484
52.2622
54.572
56.9323
58.6222
58.6222
59.2584
56.9549
54.7554
52.6706
50.6677
48.8543
47.2341
45.7369
44.4173
43.2574
42.0611
40.5291
38.6856
36.5876
34.57
32.7133
31.0669
29.6624
28.6681
28.276
28.4308
29.0773
30.0964
31.2903
32.5986
33.9818
35.3809
36.8577
38.4158
40.0731
41.8176
43.6964
45.684
47.7797
49.9676
52.2492
54.6068
57.0507
58.7833