# vtk DataFile Version 4.2
vtk output
ASCII
DATASET POLYDATA
POINTS 642 double
-1.19595 3.36959 -0.201405
0.170471 3.254 -0.157112
-1.29826 0.54323 -0.00496251
0.676065 0.552055 0.00762952
-0.36558 1.17578 1.16953
-0.535424 2.73428 1.00046
-0.340623 1.28701 -1.08867
-0.615537 2.99211 -1.25963
0.784875 1.96072 -0.59608
0.842554 1.89988 0.624204
-1.58627 2.27538 -0.80224
-1.8046 2.13853 0.858139
-1.68468 2.90484 0.452424
-1.19432 2.52998 1.07258
-0.904353 3.18401 0.595563
-0.0753081 3.14807 0.447219
-0.410609 3.52881 -0.148379
-0.0773937 3.30854 -0.73297
-0.989506 3.40386 -0.939918
-1.16808 2.80995 -1.28977
-1.61732 3.03585 -0.645417
-1.8687 2.15551 0.0196004
0.298746 2.36053 0.947207
0.662196 2.5982 0.333937
-1.12263 1.56726 1.10164
-0.401196 1.98914 1.2687
-1.53034 1.27156 -0.408217
-1.59186 1.22479 0.484216
-0.498867 2.27174 -1.32347
-1.06784 1.71755 -1.08092
0.583216 2.72795 -0.40338
0.175092 2.6005 -1.01512
1.08501 1.15919 0.463351
0.390704 1.50959 1.05384
0.214354 0.681841 0.801627
-0.937684 0.638697 0.853545
-0.348221 0.507647 -0.00296474
-0.833149 0.769665 -0.713417
0.160738 0.795436 -0.696723
0.33303 1.56384 -0.989165
0.917754 1.2255 -0.344952
1.02305 1.85564 0.0181395
-1.43036 3.16097 0.13388
-1.31531 3.07292 0.546914
-1.06159 3.31947 0.234715
-1.49841 2.36638 0.995055
-1.48152 2.74223 0.835131
-1.83435 2.56495 0.70765
-0.730995 2.97637 0.845419
-1.092 2.88482 0.886347
-0.863867 2.65982 1.06788
-0.636988 3.43249 0.18829
-0.827215 3.49934 -0.181526
-0.274216 2.9621 0.763691
-0.474075 3.2311 0.519012
-0.119279 3.44175 -0.154378
-0.241794 3.39914 0.151143
0.0513757 3.25564 0.141394
-0.70355 3.52081 -0.564082
-1.11516 3.43805 -0.641148
0.0915902 3.31578 -0.404022
-0.235287 3.4922 -0.472142
-0.788326 3.22334 -1.16727
-0.550972 3.40174 -0.88795
-0.341412 3.17224 -1.05967
-1.404 3.37817 -0.905421
-1.43661 3.26806 -0.429192
-0.895032 2.93735 -1.32081
-1.17088 3.2435 -1.2609
-1.63118 2.70293 -0.755823
-1.48444 3.00877 -1.06336
-1.40525 2.58829 -1.11193
-1.66823 2.9585 -0.0732122
-1.78118 2.19321 -0.401837
-1.77994 2.60805 -0.294228
-1.86267 2.56639 0.255687
-1.86167 2.1517 0.468578
0.339297 2.90143 0.41878
0.411037 2.9829 0.0757639
-0.0563524 2.539 1.01192
0.16462 2.75433 0.750402
0.786765 2.27586 0.495146
0.532872 2.51168 0.652931
0.59856 2.14928 0.82426
-0.864781 2.29372 1.20371
-0.488196 2.36926 1.17699
-1.47842 1.90379 0.97492
-1.21446 2.11633 1.15042
-0.351955 1.55499 1.25984
-0.79673 1.81348 1.24822
-0.729874 1.29687 1.16877
-1.85312 1.68953 0.262958
-1.68601 1.74966 0.664977
-1.61589 1.73535 -0.59013
-1.76499 1.70459 -0.212274
-1.44729 0.841165 0.265961
-1.6439 1.20562 0.00789225
-1.42149 0.871571 -0.219816
-1.14416 2.35351 -1.25729
-1.36249 2.02579 -0.99359
-0.592009 2.71403 -1.33326
-0.857684 2.60113 -1.36327
-0.67811 1.42991 -1.11574
-0.79298 2.04889 -1.28536
-0.370262 1.68891 -1.22509
0.0548711 3.01107 -0.93283
-0.232382 2.85019 -1.18008
0.377624 3.0491 -0.30502
0.272358 3.0868 -0.593212
0.517953 2.25261 -0.835127
0.419311 2.69646 -0.73764
0.737837 2.33228 -0.506971
1.00378 0.724614 0.258246
0.724267 0.85994 0.635828
0.510713 0.553474 0.405914
0.671974 1.69915 0.860507
0.740372 1.31978 0.753312
0.95499 1.50653 0.520397
-0.123572 0.927512 1.05693
0.325393 1.07474 0.957202
0.00911533 1.32559 1.16692
-0.0273183 0.537066 0.444818
0.217053 0.538604 0.00404799
-0.630895 0.875893 1.06013
-0.351929 0.554645 0.922181
-0.85383 0.513127 0.00512678
-0.649697 0.531316 0.458987
-1.14717 0.552243 0.487502
-0.0489797 0.547975 -0.419346
0.435279 0.643069 -0.38739
-1.10472 0.623593 -0.367038
-0.644856 0.540894 -0.418296
-0.118237 1.03012 -0.933895
-0.360209 0.733249 -0.747106
-0.568433 1.01845 -0.935949
0.603538 0.965359 -0.531493
0.890461 0.838068 -0.209846
0.0148832 1.40801 -1.08013
0.284025 1.16337 -0.873367
0.886354 1.53791 -0.464161
0.657393 1.36952 -0.696393
0.599389 1.74433 -0.823465
1.12251 1.13314 0.0157066
0.958597 1.89272 -0.283352
1.03228 1.52444 -0.148125
1.06689 1.49936 0.216053
0.978332 1.87877 0.347066
0.018738 1.72793 1.21997
0.379025 1.94857 1.05025
-0.0232635 2.16857 1.16478
-1.30789 0.820306 0.711311
-1.02228 1.04059 0.990442
-1.38371 1.36029 0.852071
-0.938548 1.1432 -0.887135
-1.22044 0.963308 -0.563129
-1.34271 1.43488 -0.762075
0.301227 2.05106 -1.04105
-0.0430905 1.84633 -1.19782
-0.160808 2.4342 -1.23084
0.892199 2.26259 0.189606
0.873522 2.28758 -0.179832
0.677213 2.67584 -0.0315178
-1.3062 3.28341 -0.0580761
-1.27934 3.22938 0.211911
-1.13856 3.35777 -0.00181567
-1.50099 2.99205 0.504425
-1.38466 3.11891 0.368439
-1.57014 3.01336 0.308964
-0.984671 3.26269 0.425858
-1.20507 3.18949 0.419334
-1.10867 3.13707 0.588994
-1.66267 2.26599 0.953964
-1.69513 2.47792 0.906654
-1.8528 2.36177 0.80059
-1.32884 2.63717 0.973288
-1.51113 2.55865 0.93546
-1.35165 2.44561 1.04195
-1.77306 2.75302 0.586357
-1.67993 2.682 0.810298
-1.64344 2.86015 0.697617
-0.620279 2.84732 0.936856
-0.834427 2.82761 0.967407
-0.679635 2.70235 1.03762
-1.01314 3.0417 0.753834
-0.923889 2.94084 0.872127
-0.842981 3.0994 0.717572
-1.02028 2.60321 1.08132
-1.00044 2.77521 0.988685
-1.14508 2.71925 0.991988
-1.41807 2.91491 0.703337
-1.27609 2.82141 0.870067
-1.21022 2.98802 0.736868
-0.923993 3.43297 0.0205043
-1.012 3.4487 -0.211061
-0.773105 3.31623 0.401877
-0.843048 3.38663 0.227862
-0.613408 3.53423 -0.154907
-0.704855 3.48336 0.0206276
-0.515437 3.49896 0.0172066
-0.408265 2.85285 0.895597
-0.513292 2.98089 0.806449
-0.279257 3.21413 0.474321
-0.384482 3.10645 0.64245
-0.155405 3.06657 0.603314
-0.614787 3.11331 0.692218
-0.707148 3.21504 0.570233
0.0638008 3.33514 -0.159539
-0.0304002 3.3615 -0.0077656
0.133572 3.25984 -0.0370403
-0.327586 3.48132 -0.000869625
-0.172061 3.43092 -0.00183763
-0.263096 3.49796 -0.153754
0.00773886 3.21278 0.279486
-0.0929868 3.3406 0.138378
-0.164827 3.2909 0.296677
-0.564263 3.34936 0.357808
-0.348985 3.33409 0.330833
-0.439189 3.43912 0.165039
-0.974435 3.47793 -0.418155
-1.16211 3.41735 -0.451409
-0.531247 3.55214 -0.337899
-0.764533 3.52648 -0.387058
-1.06379 3.43658 -0.777415
-0.939996 3.4741 -0.622419
-0.869772 3.45326 -0.766471
0.12824 3.29689 -0.295501
0.00310692 3.38382 -0.297432
-0.151421 3.41832 -0.611072
-0.0686515 3.41391 -0.44617
0.00343792 3.32724 -0.590054
-0.164195 3.47277 -0.30169
-0.320225 3.52599 -0.316087
-0.691497 3.09436 -1.23045
-0.6094 3.21237 -1.1173
-0.506291 3.06698 -1.18834
-0.798986 3.3939 -0.926949
-0.687014 3.31791 -1.02628
-0.920347 3.3433 -1.0596
-0.187956 3.25398 -0.901699
-0.447769 3.31141 -0.972395
-0.268074 3.38171 -0.798441
-0.45377 3.5425 -0.515746
-0.345743 3.50885 -0.677924
-0.645036 3.48002 -0.740623
-1.2881 3.37345 -0.553566
-1.34255 3.31763 -0.346755
-1.19972 3.39724 -0.94884
-1.24499 3.39971 -0.769415
-1.57115 3.19414 -0.544847
-1.43546 3.31417 -0.688843
-1.59822 3.25836 -0.788218
-0.765707 2.97008 -1.30058
-0.852209 3.09173 -1.26426
-1.1733 3.03254 -1.28085
-1.01382 3.07565 -1.28311
-1.02643 2.88693 -1.32217
-0.980625 3.23227 -1.20545
-1.11517 3.34437 -1.11352
-1.61727 2.44931 -0.790112
-1.53698 2.6527 -0.945109
-1.5196 2.40779 -0.941034
-1.58896 3.04704 -0.887488
-1.55655 2.85328 -0.908879
-1.62649 2.87496 -0.711884
-1.30712 2.69203 -1.20812
-1.44349 2.79959 -1.08786
-1.33475 2.91915 -1.20516
-1.37609 3.44175 -1.18601
-1.40212 3.16518 -1.26378
-1.58628 3.27524 -1.07316
-1.44514 3.21201 -0.163692
-1.63195 3.0075 -0.38648
-1.55139 3.12035 -0.268405
-1.57932 3.0589 0.0360257
-1.69606 2.92782 0.214417
-1.69505 2.23377 -0.608189
-1.71414 2.44414 -0.580346
-1.8445 2.38233 -0.131946
-1.79427 2.4103 -0.355087
-1.83554 2.16778 -0.194273
-1.71197 2.6581 -0.5398
-1.68831 2.82365 -0.492772
-1.85846 2.35447 0.582327
-1.8535 2.14507 0.64614
-1.85133 2.78809 0.376796
-1.85462 2.56972 0.480915
-1.87438 2.15477 0.245967
-1.91436 2.36016 0.35553
-1.87424 2.36352 0.13665
-1.74182 2.79682 -0.196855
-1.83486 2.58578 -0.0152991
-1.82705 2.7916 0.102998
0.247116 3.1201 0.106529
0.281052 3.13656 -0.0543895
0.14394 3.03498 0.439889
0.193703 3.09127 0.281084
0.548949 2.79212 0.215794
0.390822 2.93648 0.267865
0.509557 2.75618 0.384371
-0.287691 2.64183 1.01607
-0.157692 2.75569 0.902082
0.235893 2.55066 0.869244
0.0629431 2.65043 0.891563
0.13368 2.44798 0.987199
-0.0359449 2.86394 0.761993
0.0545874 2.95096 0.620897
0.827584 2.06306 0.578827
0.709233 2.21116 0.668035
0.746883 2.01426 0.718226
0.613223 2.55487 0.498191
0.669368 2.39675 0.580475
0.73164 2.44159 0.419599
0.474106 2.2477 0.885364
0.578778 2.32183 0.750064
0.427875 2.43745 0.812196
0.26601 2.83518 0.589844
0.358749 2.63976 0.70953
0.450098 2.70314 0.549642
-0.696033 2.52622 1.1266
-0.519736 2.55774 1.09912
-1.02984 2.4187 1.15194
-0.892625 2.47158 1.15025
-0.443398 2.20777 1.22539
-0.699339 2.33626 1.19521
-0.649139 2.1507 1.24159
-1.60922 2.01505 0.90917
-1.49515 2.13599 1.008
-1.18878 1.87497 1.13745
-1.34285 2.01353 1.08553
-1.29766 1.72848 1.04967
-1.35305 2.24141 1.08339
-1.21755 2.32726 1.1268
-0.359388 1.32359 1.21356
-0.558049 1.41739 1.22778
-0.527615 1.21593 1.17726
-0.603829 1.90253 1.27468
-0.567056 1.67892 1.27042
-0.372367 1.79113 1.27898
-0.923517 1.41032 1.14101
-0.771909 1.53213 1.21799
-0.967534 1.6914 1.19308
-1.04187 2.20804 1.19567
-1.01425 1.98251 1.20689
-0.851996 2.07211 1.23418
-1.78669 1.94714 0.56457
-1.71829 1.94302 0.735094
-1.85355 1.93227 0.138836
-1.83575 1.93441 0.345403
-1.67625 1.48492 0.589222
-1.76993 1.69604 0.461839
-1.72875 1.46337 0.371459
-1.61446 1.99534 -0.689858
-1.71206 1.96335 -0.505179
-1.66546 1.48224 -0.31757
-1.70108 1.71393 -0.408543
-1.58412 1.4893 -0.494968
-1.78504 1.94309 -0.30438
-1.8298 1.93192 -0.10578
-1.43469 0.589667 0.113199
-1.47152 0.81481 0.000558659
-1.43777 0.598436 -0.129997
-1.63312 1.19704 0.241918
-1.54182 1.01505 0.129989
-1.50574 1.02414 0.382591
-1.46442 1.05121 -0.307924
-1.52195 1.02204 -0.11323
-1.60153 1.22649 -0.215938
-1.81331 1.69241 0.0171566
-1.71839 1.45508 -0.103453
-1.77291 1.43333 0.133216
-1.39425 2.3188 -1.06898
-1.48398 2.15949 -0.910056
-1.16074 2.58519 -1.28666
-1.28289 2.47401 -1.20031
-1.24002 1.89121 -1.04172
[...]
POINT_DATA 642
SCALARS Mean_Curvature double 1
LOOKUP_TABLE default
0.804275
1.48299
0.985961
4.90446
0.923828
0.744233
1.1243
1.53348
1.23404
1.38916
0.653077
6.50194
1.38363
1.5337
1.40312
0.725863
1.87997
1.32122
1.53908
1.6679
0.541142
0.916049
1.15051
1.30193
0.869115
1.21827
0.933668
1.39523
0.933636
0.808962
1.14487
0.804394
4.73079
1.3135
1.84544
2.23341
0.641141
0.989154
0.505088
1.13633
0.804137
1.38701
1.08697
1.23193
1.00635
0.384344
0.315377
3.91565
1.34379
1.4999
1.29882
1.35649
1.15351
0.951097
1.10915
1.76718
1.61788
1.24166
1.46107
1.28914
1.61047
1.84283
2.06548
1.69869
1.58683
1.83808
0.876805
1.74371
4.60609
0.991823
-0.00964388
1.40781
0.890734
1.1392
0.921235
0.101734
0.348574
1.20557
1.12106
1.0161
1.06757
1.40861
1.2799
1.33972
1.34139
0.912153
1.12397
1.63648
1.01771
1.02392
0.915095
3.09731
0.56805
1.19616
0.959716
7.19242e-05
1.19263
0.873309
1.65291
0.83937
1.55056
1.69751
1.0134
1.03131
0.965324
1.57285
1.23831
1.11603
1.92146
1.07396
0.97617
1.21643
4.29529
2.13389
2.81625
1.31772
0.881898
1.06634
1.04923
0.730473
1.09914
0.0521061
0.106651
0.940748
5.0778
-0.142949
0.0110084
0.888967
0.838661
2.00773
1.62174
0.0219988
1.08987
0.435259
1.0311
0.977972
2.11838
1.14942
1.16359
1.24958
1.18211
1.21088
2.06427
1.42876
1.11763
1.12586
1.43548
1.21694
1.28909
1.13613
0.394258
0.83771
0.901146
0.897287
0.709666
0.940936
0.998276
1.17099
0.818742
1.38959
1.3082
1.17973
0.850888
0.907383
0.936333
0.825538
1.17331
0.915557
1.11216
1.21884
1.43405
2.30518
3.21465
5.05266
1.30439
0.72925
1.17904
1.81422
3.1697
4.70633
1.02328
1.4174
0.999883
1.49579
1.45429
1.40992
1.4611
1.50169
1.53528
0.709139
1.2549
1.29183
1.08668
1.00138
1.19134
1.18951
1.71166
1.31202
1.74686
0.917267
0.795081
0.988395
0.634506
0.9521
1.17653
1.15729
1.5261
1.5163
1.35367
1.87121
1.75644
1.89847
1.03816
1.39751
1.20751
1.32492
1.36593
1.6477
1.11481
0.946297
1.2887
1.3606
1.35443
0.922006
0.755906
1.55722
1.63367
1.65666
1.74134
1.52272
1.78004
1.82883
1.80345
1.15929
1.30317
0.848962
1.04488
1.81948
1.46784
1.6222
1.38396
1.50783
3.73071
1.53523
1.1842
1.11775
0.941582
0.874614
3.20763
0.168057
5.71385
1.69391
1.84596
1.26867
1.65862
1.74168
2.07183
1.49868
1.10183
1.12882
1.20941
1.59565
0.437838
0.600228
1.5309
1.0406
0.940369
7.43142
5.01848
6.45199
1.25029
0.8793
0.939893
1.20611
0.593394
0.954083
0.878705
1.02047
1.15105
1.07756
1.11947
0.980497
-0.268991
2.30458
5.10054
0.59582
0.563712
3.21621
0.438534
0.827459
0.66778
3.09303
0.806158
1.04429
1.18445
1.1344
1.177
1.22389
1.2151
0.95588
0.940589
1.12754
1.04922
1.08
1.00127
1.07567
1.41212
1.40342
1.37707
1.3023
1.33114
1.37048
1.25534
1.32753
1.25325
1.15175
1.17974
1.24145
0.865322
0.86537
1.50983
1.36639
1.01953
0.773014
0.994312
0.81883
0.758834
1.07754
1.44161
0.986442
1.43384
1.62301
1.01353
0.992971
0.923116
1.21365
1.12607
1.15344
0.690498
1.09334
1.12386
1.66666
1.15501
0.872441
0.374528
0.592195
0.794274
0.371836
2.24241
0.581049
0.701904
0.965892
1.02941
1.14132
1.07059
1.13994
1.00454
0.921986
6.46276
0.431667
7.3224
0.827778
0.447804
0.345013
0.789469
0.549983
1.15938
0.887735
0.659572
2.23367
1.44539
0.667928
1.7463
1.61383
0.823722
1.22443
0.816931
1.58127
1.70268
1.54276
1.65127
1.39267
1.76448
1.77624
1.08957
0.953336
1.00962
0.896003
1.00725
0.873626
1.06243
1.12833
1.01669
1.69059
1.56118
1.18856
1.40045
1.17962
1.71701
1.61724
1.19966
1.39992
1.32873
1.58321
1.73477
1.05389
1.8289
1.11631
1.86535
1.71376
1.17383
1.14409
1.22662
0.896053
0.979191
0.903749
1.15763
1.0973
1.08552
1.76042
1.50216
1.47709
1.9015
2.28299
1.54283
0.763852
3.74851
6.05706
5.7862
-0.664376
0.848136
1.35163
1.1923
1.30346
1.16311
1.16183
1.26151
1.00269
0.886155
0.43765
0.80738
0.913245
1.00096
0.925607
1.70281
0.00483044
1.24458
1.17131
1.11682
0.326794
0.848099
0.467515
0.0267863
0.340832
2.18279
0.00597347
0.505072
0.212526
0.544181
0.837379
0.39349
5.4587
3.73227
0.133778
-0.456429
4.65633
3.45672
2.57274
0.102089
0.50861
0.025519
0.465713
1.58837
-0.425011
0.712597
0.447435
-0.0498982
0.219503
1.29781
2.66016
0.381892
0.153824
2.02187
3.37373
4.36526
4.67809
0.820309
6.01207
1.99558
1.28039
0.00284861
0.421264
1.23915
1.13315
1.18005
0.549426
0.924485
0.908706
1.03734
0.820638
0.538871
0.398382
4.62421
2.40058
0.173826
3.51256
0.692017
0.873714
1.01582
0.157374
0.825489
1.15253
1.14939
1.18176
1.13979
1.10874
1.08192
1.25302
1.27493
1.23501
1.1942
1.08741
1.16406
1.08666
1.18995
1.21271
1.19208
1.35062
1.24931
1.15622
1.14593
2.47684
5.72324
3.44139
1.37206
1.33364
1.34229
1.25438
1.32064
1.42387
1.19779
1.00223
1.26428
1.45474
1.68614
1.07942
1.32678
1.19759
1.15345
1.11168
1.17965
1.57045
1.33161
1.34246
1.14694
1.14104
1.18948
1.38552
1.20144
1.31723
1.28193
1.34302
0.920392
1.18828
0.953543
1.01547
1.08982
1.4038
1.21238
1.3096
1.50048
7.547
7.09934
0.670431
0.530044
0.845991
0.820362
0.539152
0.928505
1.05123
0.761115
0.666783
1.01946
0.942873
1.00429
1.21379
0.748203
0.697107
1.10935
1.47593
1.02261
1.01337
0.737827
0.709948
0.995682
0.668599
0.984461
1.4681
0.955389
0.824913
0.810809
1.21776
1.13765
0.827663
1.05715
0.841818
1.1374
1.08378
1.10846
1.0754
0.837684
1.02381
1.0364
1.09866
1.04481
1.0809
1.02503
0.74425
1.08621
0.686538
0.865432
1.09252
1.0444
0.919186
1.41524
1.4725
1.39998
1.44374
1.30282
1.324
1.21743
1.29173
1.35789
1.45023
0.987082
1.21234
1.12032
1.15273
1.17453
1.40759
1.23532
1.27771
SCALARS Redistribution_Potential double 1
LOOKUP_TABLE default
-9.60953e-11
-0.168522
-0.420403
-0.566959
-0.583657
-0.471569
-0.447299
0.273874
-0.545384
-0.64497
-0.0650261
-0.356789
-0.229645
-0.348831
-0.241409
-0.358573
0.0345057
0.098657
0.340333
0.330962
0.0920774
-0.264982
-0.611906
-0.543343
-0.488832
-0.568824
-0.360483
-0.413881
-0.0790736
-0.236418
-0.371402
-0.195683
-0.614662
-0.633806
-0.553773
-0.454018
-0.49685
-0.42719
-0.539126
-0.501719
-0.612442
-0.61998
-0.133164
-0.227383
-0.142522
-0.354544
-0.30118
-0.29688
-0.350577
-0.302371
-0.401373
-0.108487
0.0197052
-0.440227
-0.284202
-0.0308108
-0.137071
-0.251265
0.171799
0.194756
-0.0307697
0.105382
0.39133
0.268144
0.212218
0.312039
0.0638802
0.358071
0.50092
0.0479554
0.273973
0.177216
-0.111645
-0.17977
-0.119788
-0.23356
-0.31968
-0.463867
-0.382455
-0.570971
-0.531692
-0.607196
-0.583562
-0.631981
-0.453702
-0.537883
-0.403476
-0.393764
-0.59104
-0.519603
-0.547788
-0.351988
-0.393114
-0.251318
-0.307555
-0.409781
-0.38394
-0.404385
0.129651
-0.107872
0.170316
0.225648
-0.366066
-0.105051
-0.337676
0.0271107
0.0676271
-0.238819
-0.0726258
-0.419192
-0.270368
-0.481959
-0.58222
-0.589417
-0.551595
-0.649651
-0.639914
-0.645863
-0.565023
-0.605533
-0.610685
-0.513334
-0.532704
-0.519096
-0.504341
-0.440495
-0.461013
-0.428931
-0.516441
-0.5566
-0.420216
-0.458771
-0.504461
-0.490965
-0.452509
-0.575808
-0.588581
-0.475467
-0.537119
-0.603236
-0.574121
-0.526184
-0.605834
-0.59208
-0.625695
-0.631634
-0.634398
-0.61726
-0.633459
-0.605665
-0.436429
-0.491267
-0.453582
-0.395671
-0.398412
-0.318026
-0.398291
-0.357242
-0.134456
-0.585395
-0.543311
-0.475143
-0.0657917
-0.147559
-0.0723721
-0.2302
-0.190362
-0.190595
-0.194962
-0.193795
-0.228534
-0.355557
-0.327734
-0.32678
-0.323258
-0.328981
-0.350203
-0.26353
-0.299397
-0.271108
-0.422089
-0.368739
-0.445455
-0.272931
-0.317998
-0.284327
-0.37047
-0.34224
-0.326496
-0.269933
-0.297812
-0.266548
-0.0630741
0.015019
-0.193285
-0.130203
0.0350238
-0.0434076
-0.027026
-0.46074
-0.401447
-0.311596
-0.366471
-0.403387
-0.325793
-0.262289
-0.112919
-0.13768
-0.203559
-0.0345947
-0.0794368
0.0145283
-0.303452
-0.188123
-0.249255
-0.188604
-0.210959
-0.101197
0.100874
0.103691
0.0839576
0.102273
0.260849
0.184263
0.241342
-0.0879582
-0.0297358
0.109594
0.0462403
0.0496994
0.0366991
0.0777593
0.334855
0.298573
0.242934
0.298511
0.308753
0.391237
0.156787
0.254476
0.172204
0.131902
0.16405
0.234883
0.142259
0.0440844
0.348173
0.248589
0.0907639
0.187099
0.212299
0.330234
0.392347
0.400022
0.417021
0.361396
0.449566
0.436505
-0.00939098
0.114632
0.0374033
0.201235
0.152458
0.0744726
0.255604
0.221042
0.31342
0.511186
0.401953
0.365319
-0.038513
-0.010993
-0.0257539
-0.119402
-0.182255
-0.126929
-0.0793632
-0.199167
-0.142459
-0.228411
-0.0376842
-0.0163861
-0.303101
-0.338422
-0.229086
-0.266402
-0.295423
-0.276922
-0.247944
-0.110129
-0.186215
-0.180267
-0.32615
-0.276132
-0.411367
-0.368633
-0.477938
-0.432587
-0.508313
-0.528199
-0.516307
-0.582526
-0.556723
-0.596867
-0.491867
-0.459125
-0.631845
-0.622491
-0.639462
-0.566846
-0.598084
-0.580693
-0.624459
-0.614716
-0.600575
-0.500644
-0.560424
-0.5365
-0.47454
-0.508257
-0.392254
-0.423252
-0.556733
-0.498227
-0.524297
-0.383529
-0.379574
-0.444512
-0.3973
-0.448025
-0.369529
-0.367829
-0.590301
-0.57031
-0.569344
-0.542652
-0.559721
-0.581247
-0.524441
-0.537906
-0.499364
-0.411309
-0.461152
-0.489007
-0.359534
-0.377441
-0.313562
-0.33688
-0.404264
-0.374037
-0.385432
-0.174916
-0.214588
-0.330163
-0.281634
-0.314499
-0.253256
-0.284591
-0.412554
-0.405905
-0.412664
-0.397114
-0.403401
-0.415457
-0.392354
-0.397413
-0.373096
-0.330028
-0.351765
-0.367468
0.0586086
-0.0742035
0.251103
0.17639
-0.160496
0.0248807
-0.0575619
0.227861
0.271012
0.124488
0.204904
0.0857197
0.296567
0.299055
-0.416057
-0.343796
-0.412975
-0.165978
-0.263448
-0.307038
-0.227786
-0.225891
-0.0785538
0.200329
0.0963356
0.0399804
0.14516
0.169047
0.0836218
0.120187
-0.0513265
0.0423664
-0.0730265
-0.18925
-0.114027
-0.217894
-0.15456
-0.297254
-0.0351823
0.0312119
-0.502924
-0.452952
-0.523096
-0.22734
-0.359249
-0.32312
-0.440598
-0.399029
-0.31979
-0.00619308
-0.151014
-0.0947882
-0.571927
-0.568988
-0.558284
-0.603176
-0.584046
-0.599671
-0.550517
-0.56428
-0.572352
-0.649798
-0.652413
-0.650087
-0.64003
-0.64897
-0.644899
-0.629148
-0.646164
-0.628675
-0.577695
-0.59313
-0.596646
-0.579434
-0.587022
-0.553802
-0.622601
-0.6086
-0.625874
-0.615361
-0.625087
-0.597906
-0.53934
-0.547528
-0.531447
-0.532068
-0.518667
-0.522756
-0.507534
-0.551993
-0.544483
-0.486902
-0.512965
-0.488412
-0.523979
-0.527971
-0.427022
-0.432245
-0.420589
-0.478566
-0.450982
-0.470095
-0.43952
-0.438006
-0.456851
-0.505092
-0.47924
-0.488921
-0.544277
-0.561931
-0.506817
-0.524464
-0.548899
-0.537832
-0.52944
-0.422655
-0.432908
-0.44685
-0.438473
-0.417069
-0.45151
-0.478473
-0.474069
-0.480006
-0.45111
-0.518595
-0.502786
-0.528157
-0.443487
-0.474644
-0.46235
-0.488684
-0.473822
-0.503334
-0.57421
-0.578784
-0.556292
-0.568053
-0.600379
-0.586375
-0.597412
-0.460713
-0.495424
-0.525958
-0.513061
-0.490055
-0.524236
-0.538819
-0.573531
-0.571629
-0.538643
-0.601005
-0.592121
-0.613849
-0.514787
-0.558085
-0.541445
-0.554298
-0.552401
-0.579626
-0.584535
-0.60699
-0.597836
-0.596319
-0.606466
-0.572222
-0.59881
-0.627506
-0.61635
-0.608911
-0.61784
-0.61998
-0.645571
-0.640156
-0.611358
-0.637222
-0.62796
-0.640228
-0.635073
-0.613654
-0.627718
-0.607757
-0.60277
-0.625589
-0.618337
-0.606215
-0.598831
-0.643376
-0.627483
-0.636729
-0.643446
-0.635476
-0.56201
-0.590715
-0.582769
-0.596183
-0.614211
-0.622771
-0.621186
-0.609649
-0.416003
-0.439769
-0.430652
-0.42124
-0.430814
-0.537308
-0.503041
-0.520821
-0.504643
-0.462215
-0.404353
-0.434347
-0.421274
-0.438566
-0.472326
-0.447073
-0.476931
-0.44946
-0.421092
-0.406828
-0.421788
-0.385208
-0.34379
-0.412574
-0.382417
-0.404265
-0.406809
-0.396572
-0.198468
-0.287334
-0.237618
-0.278407
-0.339174
-0.394792
-0.370228
-0.362832
-0.482773
-0.459838
-0.471631
-0.409748
-0.31349
-0.415114
-0.242095
-0.338381
-0.428534
-0.443329
0.110512
-0.159395
-0.0186198
0.0387402
-0.100198
-0.376807
-0.261987
-0.28769
-0.62221
-0.602151
-0.612703
-0.596768
-0.565253
-0.547113
-0.47754
-0.516006
-0.569453
-0.587247
-0.318421
-0.512761
-0.434379
-0.369832
-0.423572
-0.566404
-0.512559
-0.543091
SCALARS CoVolArea double 1
LOOKUP_TABLE default
0.0364542
0.0188679
0.0306304
0.0376113
0.0239488
0.0311051
0.0222432
0.0202242
0.0221792
0.0276084
0.0374859
0.0400715
0.0434295
0.0357238
0.0391329
0.0450531
0.0325152
0.0336826
0.03327
0.0371284
0.0467401
0.0520964
0.0381087
0.0363838
0.0545407
0.0479014
0.0473541
0.0589338
0.0528085
0.0653972
0.0444292
0.0489777
0.0430114
0.044316
0.0544396
0.0568317
0.0663784
0.0455938
0.0431479
0.0432071
0.0343138
0.0335595
0.0494889
0.0418611
0.0521598
0.0377351
0.0435686
0.0466867
0.0396973
0.0344191
0.0341901
0.0399488
0.0451633
0.0498202
0.0440089
0.0277814
0.032376
0.0348015
0.0459518
0.0327568
0.0265469
0.0348704
0.0319408
0.0456823
0.0439411
0.0520965
0.0400161
0.0242799
0.0456128
0.0472168
0.0498365
0.0431167
0.0548179
0.052633
0.0552532
0.0538455
0.0448531
0.0425645
0.0411875
0.0449418
0.0451235
0.0351911
0.038385
0.0351943
0.0373056
0.0443553
0.0457367
0.0395591
0.0481778
0.0550218
0.0459162
0.0577252
0.0480102
0.0521777
0.0535809
0.0558452
0.0566173
0.0443571
0.0406925
0.0542353
0.0253332
0.0294941
0.0520908
0.0574254
0.0499216
0.0369978
0.0389885
0.030532
0.0336499
0.0455302
0.04858
0.0393142
0.0595793
0.0527069
0.0571975
0.0371081
0.0447275
0.0325827
0.0484188
0.0527878
0.0460735
0.0663247
0.051991
0.0410875
0.0603876
0.0570456
0.0629602
0.0568949
0.0565449
0.0468238
0.0439206
0.0554229
0.0453683
0.0471685
0.0391956
0.0457109
0.0426646
0.0396044
0.0427144
0.0376223
0.042721
0.0434407
0.0441848
0.0334116
0.0315305
0.030716
0.0339118
0.0417135
0.0422351
0.0433677
0.0540784
0.0438889
0.0558088
0.045762
0.0420349
0.0571278
0.0520652
0.0496795
0.0607788
0.0367361
0.0414981
0.0432257
0.045304
0.0477832
0.0491644
0.043999
0.040895
0.0442404
0.0454341
0.0431058
0.0425361
0.0440486
0.043968
0.0468943
0.0385714
0.0394308
0.0341332
0.0442777
0.0437362
0.0458653
0.0343036
0.0344378
0.0329778
0.0367794
0.0334618
0.0368892
0.0313595
0.0299459
0.0336407
0.0471554
0.0416724
0.0436035
0.0501797
0.0458339
0.0444275
0.0465986
0.0413947
0.0418638
0.0340651
0.0446373
0.0420093
0.0409973
0.0447732
0.0469912
0.0432566
0.0427129
0.0249666
0.0288196
0.0297816
0.0295817
0.0258998
0.0253461
0.0365065
0.0276083
0.0359489
0.0457827
0.0408376
0.0380648
0.0428346
0.0414024
0.0434942
0.0470461
0.0308113
0.0379317
0.0373196
0.0209768
0.0254994
0.033707
0.0297313
0.0309502
0.027789
0.0333045
0.0250105
0.0366439
0.0337571
0.0361736
0.0348326
0.0331948
0.0405444
0.0426126
0.0431169
0.0464878
0.04866
0.0494804
0.0364143
0.0388002
0.042732
0.0356659
0.0455696
0.04322
0.0518832
0.0221549
0.0261436
0.0405939
0.0304097
0.0284384
0.0333687
0.0408812
0.0464332
0.0457813
0.0441793
0.0483929
0.0398682
0.0401068
0.0367369
0.0400677
0.0445936
0.0625945
0.0603692
0.0653592
0.0462991
0.0541681
0.0479016
0.0495419
0.0479837
0.0519277
0.0531584
0.0544595
0.0518875
0.0499924
0.0482289
0.0511462
0.0459083
0.0432287
0.0505913
0.0481227
0.0481428
0.0478352
0.0525912
0.0626202
0.060328
0.060251
0.0409318
0.0315359
0.0474594
0.0414995
0.0414787
0.0420939
0.0398462
0.0503707
0.0517445
0.0411463
0.0439852
0.0372815
0.0492934
0.0485085
0.0347011
0.0362631
0.0351066
0.0351699
0.0333918
0.0306298
0.0351629
0.0348811
0.0404965
0.0469798
0.044572
0.0420442
0.0388632
0.0432267
0.035237
0.0333147
0.0447057
0.0388079
0.0478349
0.0413976
0.0391993
0.0507858
0.0416527
0.0514604
0.0348679
0.0365306
0.0366713
0.0486087
0.0378426
0.0514874
0.0541106
0.0456557
0.0501245
0.0535253
0.0573637
0.0412387
0.0503306
0.0486623
0.0456013
0.0422194
0.0542753
0.0508957
0.0575542
0.0535786
0.0612389
0.0559224
0.0537492
0.051891
0.0503985
0.048101
0.0510632
0.0534492
0.050419
0.0544874
0.0480133
0.0593838
0.0521967
0.0518213
0.0413993
0.0473146
0.0523917
0.0611172
0.0600738
0.0646666
0.0475068
0.0516008
0.0372853
0.0387139
0.059326
0.0475535
0.0571711
0.0248624
0.0224783
0.038188
0.02406
0.0366403
0.0243139
0.0315961
0.0360295
0.0491581
0.0381865
0.0639976
0.0584059
0.0600367
0.0540258
0.0560612
0.0552527
0.0384074
0.045943
0.0508093
0.0394964
0.0320465
0.0363115
0.0383839
0.0442254
0.0389577
0.0413644
0.027582
0.0246209
0.036722
0.0274513
0.0346629
0.0305799
0.0340266
0.0362706
0.0432797
0.0358637
0.0463237
0.046203
0.0457624
0.0417096
0.0437987
0.0472987
0.0393317
0.0440466
0.0443475
0.0483515
0.0564705
0.0477027
0.0510681
0.0547383
0.0553239
0.0568825
0.0533563
0.0547861
0.0365494
0.0366546
0.0346391
0.0449374
0.0382039
0.0401299
0.0317967
0.0358586
0.0435008
0.037221
0.0443067
0.0367733
0.0516076
0.046884
0.0516723
0.0433423
0.0465465
0.0492066
0.0559551
0.0571973
0.0593878
0.0538557
0.0458224
0.0615907
0.0593982
0.061143
0.0600681
0.0704358
0.036613
0.0433491
0.0611803
0.0507787
0.0481843
0.052102
0.0575786
0.0495776
0.0611127
0.0499411
0.0663951
0.0572551
0.0553362
0.0541673
0.0570922
0.0611436
0.069487
0.0688083
0.0735181
0.0505621
0.0502992
0.0621463
0.0556513
0.0449825
0.0506467
0.0516831
0.0420312
0.0496223
0.0534614
0.048773
0.0454272
0.0507688
0.0588549
0.0361461
0.0422782
0.0344284
0.0472286
0.0434362
0.0420977
0.0384125
0.0385258
0.0463814
0.0627039
0.0592619
0.0576741
0.0455772
0.0447351
0.044905
0.0441244
0.0401707
0.0426517
0.0412354
0.0345674
0.0390751
0.0400572
0.0373846
0.0380612
0.042227
0.0426119
0.0375028
0.042989
0.0389975
0.0376213
0.0347948
0.029267
0.0395905
0.0372304
0.0426701
0.050452
0.0487635
0.0495841
0.0502347
0.0388026
0.0463139
0.0552923
0.0464383
0.0325426
0.0351899
0.0290416
0.0304206
0.0318976
0.0316844
0.0335041
0.0321722
0.0321953
0.0335702
0.0295265
0.0350266
0.0321508
0.0308924
0.0384734
0.0339923
0.0390673
0.0423328
0.0419479
0.0403067
0.0423973
0.0435658
0.0377703
0.0403743
0.035656
0.0375252
0.0442457
0.0488161
0.045172
0.0442924
0.0413789
0.0405423
0.0468223
0.0468178
0.0461281
0.0562836
0.0610085
0.0561713
0.0517496
0.0523168
0.0414804
0.0484549
0.04228
0.0410492
0.0501788
0.0447351
0.0583253
0.0540293
0.0528488
0.0530216
0.05419
0.0543962
0.0555205
0.041848
0.0427527
0.0383958
0.0474232
0.0572308
0.043672
0.0449026
0.0391221
0.0415053
0.0423431
0.0577912
0.0646102
0.0577087
0.0531099
0.049894
0.0480549
0.0520753
0.0591999
0.0449849
0.0479989
0.0426681
0.0450969
0.0557544
0.0434098
0.0551826
0.0468148
0.0430953
0.0454649
0.0332057
0.0578659
0.0470088
0.0442045
0.0573049
0.0559035
0.0616455
0.0632233
0.0348953
0.0374162
0.0343935
0.0330527
0.0357446
0.0376533
0.0446114
0.0378616
0.0368567
0.0381908
0.0382224
0.0400211
0.042695
0.0409261
0.044414
0.0424754
0.0460713
0.0420663
SCALARS SignedDistance double 1
LOOKUP_TABLE default
1.31182
1.52618
0.013051
0.0721676
1.18339
1.68107
1.29431
1.63356
1.32349
1.18194
1.52929
0.0684635
0.161632
1.27667
1.43437
1.71536
1.16186
1.18797
1.31067
1.22967
0.518537
0.756209
1.37685
1.38433
1.30376
1.41419
1.12445
0.37916
1.81545
1.52842
1.54943
1.75574
0.0529981
1.13674
0.104452
0.377732
1.10118
0.927129
0.824496
1.34164
1.17455
1.21389
1.25356
1.16815
1.34497
1.07111
0.958836
0.0497755
1.56716
1.30685
1.53405
1.37431
1.21654
1.66487
1.65163
1.34891
1.48576
1.6225
1.23087
1.32761
1.34862
1.09998
1.4479
1.35437
1.44658
0.173405
1.13645
1.39844
0.565384
1.22069
1.08458
1.27819
1.10944
1.27414
1.21753
0.413853
0.394474
1.51248
1.59763
1.48612
1.4727
1.26957
1.33564
1.26415
1.54424
1.58354
1.21039
1.28819
1.27467
1.46953
1.3245
0.124403
1.0796
1.24842
1.12297
1.19634
0.468705
1.16376
1.5968
1.56807
1.75763
1.6124
1.36043
1.71837
1.43518
1.50842
1.69541
1.64881
1.49511
1.5093
1.6539
1.416
0.0114511
0.160543
0.0379263
1.16689
1.12834
1.14924
0.495168
1.04263
1.15032
0.733675
0.546488
1.16234
0.014825
1.08648
0.777629
0.0761967
0.239138
0.13327
0.416189
0.461242
1.17612
1.09509
1.21104
1.0937
0.0785002
1.29134
1.22629
1.22408
1.22537
1.33303
0.077789
1.23725
1.21579
1.21165
1.1872
1.2397
1.26684
1.42756
1.09821
1.31971
1.1644
1.38776
1.32672
1.3309
1.53517
1.46422
1.82309
1.30942
1.32944
1.45972
1.29285
1.30641
1.2713
1.08431
1.21437
1.1051
1.40688
1.28662
1.27531
0.109393
0.0264051
0.0569724
1.16195
0.618591
1.14721
0.0637618
0.0597013
0.0630883
1.66824
1.52519
1.64964
1.33863
1.42626
1.47226
1.41986
1.41664
1.31293
1.0911
1.18528
1.18752
1.25099
1.26158
1.46459
1.34696
1.14124
1.26257
1.25997
1.67268
1.71248
1.69113
1.73356
1.68418
1.63938
1.566
1.45821
1.49416
1.56879
1.31615
1.41381
1.24689
1.67844
1.55122
1.61861
1.50746
1.56863
1.40495
1.31289
1.34315
0.611389
1.19149