# vtk DataFile Version 4.2
vtk output
ASCII
DATASET POLYDATA
POINTS 642 double
-1.11571 3.12357 -0.26274
-0.341 2.7721 -0.20104
-1.28925 0.535771 -0.00568828
0.674265 0.551707 0.00694149
-0.370047 1.2122 1.04311
-0.618269 2.36723 0.460666
-0.342741 1.37939 -0.852888
-0.866158 2.8102 -0.514165
0.561036 1.91596 -0.441516
0.725607 1.86751 0.547379
-1.24487 2.3626 -0.440065
-1.80739 2.13669 0.85732
-1.67845 2.91517 0.4388
-1.19212 2.42251 0.797649
-0.9459 2.80657 0.287889
-0.369711 2.60804 0.074813
-0.482768 3.30425 -0.21552
-0.172625 3.21291 -0.655178
-1.1696 3.00221 -0.666416
-1.22924 2.90744 -0.895996
-1.60057 3.01548 -0.635042
-1.85407 2.1582 0.0168489
0.146223 2.21409 0.688679
0.397205 2.39227 0.240001
-1.02651 1.6145 0.860631
-0.409599 1.87953 0.83939
-1.45117 1.31354 -0.36823
-1.58458 1.22764 0.478751
-0.593509 2.23994 -0.498374
-0.869486 1.84662 -0.603052
0.132166 2.41342 -0.232693
-0.255513 2.36955 -0.384837
1.03827 1.22466 0.465436
0.338299 1.51437 0.962466
0.200294 0.686641 0.801431
-0.937184 0.657706 0.834778
-0.354723 0.554713 0.000168054
-0.817791 0.789974 -0.671604
0.144061 0.824452 -0.679668
0.17186 1.59041 -0.686507
0.80014 1.23451 -0.266831
0.871497 1.8223 0.0251384
-1.3468 2.95851 0.0674304
-1.28115 2.9608 0.482958
-1.00449 3.04097 0.0958125
-1.49095 2.36073 0.964401
-1.45497 2.7297 0.810816
-1.83841 2.56734 0.704925
-0.829882 2.57154 0.382434
-1.11761 2.68097 0.604075
-0.925685 2.3923 0.563165
-0.679007 3.08133 -0.0425005
-0.805431 3.29975 -0.212721
-0.436967 2.4906 0.300687
-0.622498 2.74399 0.120103
-0.32604 3.14472 -0.261838
-0.457957 2.9724 -0.108303
-0.360307 2.73228 -0.107788
-0.651047 3.29073 -0.443886
-1.16556 3.05201 -0.589635
-0.279551 3.01716 -0.365009
-0.288557 3.40525 -0.473684
-1.06604 2.91039 -0.618279
-0.533342 3.16087 -0.521619
-0.532618 2.97055 -0.468745
-1.295 3.09655 -0.818491
-1.38089 3.14591 -0.434041
-1.10668 2.87316 -0.6766
-1.19307 3.08694 -1.05079
-1.44964 2.74065 -0.683831
-1.43937 2.98137 -1.02025
-1.23931 2.79681 -0.796296
-1.60793 2.90856 -0.0790144
-1.5573 2.21645 -0.275196
-1.60973 2.59721 -0.223775
-1.85073 2.56661 0.249793
-1.85036 2.14447 0.453971
0.0240787 2.46203 0.197969
-0.0577215 2.49848 -0.0226622
-0.172829 2.31662 0.646606
-0.0348607 2.4606 0.450967
0.61709 2.18443 0.410701
0.327292 2.33327 0.472124
0.464275 2.07557 0.678305
-0.881911 2.13963 0.659218
-0.533818 2.1496 0.646415
-1.3909 1.94654 0.779523
-1.19022 2.12475 0.816628
-0.366158 1.55696 1.04337
-0.720817 1.78158 0.796028
-0.639412 1.35983 0.884891
-1.85527 1.69107 0.260501
-1.64375 1.77938 0.631845
-1.43155 1.78534 -0.442022
-1.68555 1.72705 -0.18796
-1.33946 0.829337 0.217211
-1.62209 1.20337 0.00981066
-1.29437 0.870843 -0.119142
-0.995443 2.5417 -0.514465
-1.06234 2.14953 -0.485139
-0.806699 2.6657 -0.488714
-0.964267 2.67774 -0.533988
-0.615985 1.54006 -0.80887
-0.709311 2.12552 -0.529984
-0.390371 1.74419 -0.77793
-0.455511 2.81517 -0.379878
-0.568959 2.70425 -0.428828
-0.252569 2.59764 -0.194809
-0.402329 2.7669 -0.323227
0.18804 2.12159 -0.478732
-0.0842957 2.38395 -0.322401
0.430263 2.19344 -0.334833
0.978614 0.719375 0.249718
0.721861 0.860286 0.633921
0.502613 0.554456 0.395244
0.594477 1.69056 0.777708
0.683828 1.32133 0.701352
0.872429 1.49237 0.470824
-0.13881 0.932504 1.04319
0.296237 1.0873 0.913322
-0.0303971 1.34136 1.07105
-0.0322353 0.569717 0.444802
0.213081 0.554724 0.00396974
-0.582861 0.88189 0.913039
-0.339217 0.555079 0.918202
-0.861625 0.556828 0.00762907
-0.647774 0.554724 0.45282
-1.14995 0.552336 0.489598
-0.0656508 0.554751 -0.417941
0.43301 0.643442 -0.387687
-1.07717 0.634279 -0.355474
-0.648797 0.554804 -0.417976
-0.140847 1.09688 -0.841208
-0.367586 0.765179 -0.689369
-0.533176 1.10329 -0.77668
0.545615 0.99386 -0.471011
0.866096 0.832327 -0.230027
-0.0527007 1.47187 -0.855139
0.205927 1.2279 -0.7096
0.740225 1.54077 -0.36319
0.536317 1.39975 -0.573036
0.409793 1.73972 -0.60735
1.11792 1.16359 0.00879264
0.787732 1.85769 -0.219149
0.870572 1.49853 -0.10343
0.911274 1.44438 0.184949
0.864271 1.84992 0.30967
-0.0267867 1.71948 1.04587
0.268664 1.90727 0.869842
-0.116866 2.02069 0.791502
-1.2447 0.851905 0.617127
-0.922584 1.07149 0.740631
-1.31367 1.39347 0.77055
-0.78136 1.2591 -0.590941
-1.06134 1.05646 -0.371698
-1.17276 1.53671 -0.539704
0.0289744 1.98276 -0.593941
-0.187027 1.82587 -0.697085
-0.436018 2.31409 -0.455107
0.650568 2.1376 0.158527
0.615179 2.18398 -0.132909
0.331105 2.42229 -0.0298785
-1.21266 3.06989 -0.139459
-1.18985 2.97797 0.123371
-1.064 3.12675 -0.0908111
-1.48928 2.96081 0.486872
-1.32084 2.95804 0.303842
-1.54129 2.9593 0.290208
-0.969432 2.92387 0.203524
-1.14709 2.95842 0.316468
-1.08596 2.88864 0.409457
-1.66498 2.266 0.953452
-1.68824 2.48204 0.915755
-1.85506 2.36188 0.798043
-1.2974 2.55283 0.804381
-1.50715 2.55103 0.91447
-1.30633 2.39711 0.890946
-1.77508 2.75481 0.582622
-1.67396 2.68653 0.81424
-1.64603 2.86455 0.695192
-0.708489 2.44687 0.416983
-0.919074 2.50513 0.492962
-0.741253 2.36438 0.491094
-1.07174 2.7536 0.474555
-0.997842 2.61862 0.480558
-0.924625 2.70712 0.346943
-1.05928 2.40361 0.649452
-1.0531 2.53628 0.590841
-1.16375 2.54774 0.6816
-1.4099 2.88023 0.670391
-1.24966 2.70901 0.717872
-1.18386 2.87198 0.633691
-0.902201 3.26205 -0.0383511
-0.942201 3.23218 -0.251352
-0.812911 2.91555 0.115853
-0.81689 3.08143 0.051413
-0.628898 3.36472 -0.173538
-0.687339 3.25113 -0.0856201
-0.584766 3.20506 -0.140035
-0.524404 2.43054 0.387844
-0.634283 2.52538 0.319756
-0.501396 2.7001 0.0748954
-0.552632 2.609 0.201837
-0.381362 2.54727 0.187624
-0.729958 2.65263 0.255783
-0.79364 2.77249 0.20288
-0.338037 2.93604 -0.254173
-0.354997 2.95669 -0.190644
-0.344556 2.75673 -0.169638
-0.467888 3.16634 -0.183529
-0.367783 3.07896 -0.152207
-0.408864 3.23685 -0.268646
-0.364995 2.67332 -0.0298213
-0.400186 2.8968 -0.127361
-0.4491 2.785 -0.0321555
-0.665784 2.91109 0.030482
-0.539675 2.85489 -0.0082604
-0.559462 3.05437 -0.0928062
-0.911991 3.14848 -0.363684
-1.10671 3.10185 -0.448887
-0.559172 3.37207 -0.359006
-0.721597 3.37352 -0.391015
-1.17453 3.01955 -0.649618
-0.893217 3.07409 -0.428771
-0.882052 3.03212 -0.453637
-0.335477 2.90623 -0.278505
-0.281343 3.07345 -0.324674
-0.201357 3.35335 -0.588347
-0.205477 3.21532 -0.412962
-0.201912 3.16008 -0.532954
-0.323508 3.23424 -0.349141
-0.36638 3.42662 -0.332504
-0.946099 2.85527 -0.547618
-0.810998 2.90233 -0.476761
-0.746915 2.83888 -0.471944
-0.869982 2.98566 -0.471074
-0.848062 2.9482 -0.476329
-1.16546 2.98545 -0.677999
-0.388816 3.07384 -0.533781
-0.505301 3.09962 -0.506989
-0.350522 3.21972 -0.644501
-0.459105 3.52662 -0.514173
-0.371534 3.39525 -0.64566
-0.582184 3.22008 -0.517367
-1.25084 3.13546 -0.553723
-1.2779 3.12264 -0.393738
-1.19981 3.22668 -0.873296
-1.24221 3.13805 -0.779401
-1.55335 3.16391 -0.524742
-1.38182 3.11328 -0.687412
-1.42169 3.07625 -0.726861
-1.00457 2.83597 -0.584561
-1.09733 2.89044 -0.660246
-1.256 2.97954 -0.936726
-1.19108 2.95704 -0.843596
-1.1941 2.9254 -0.860785
-1.189 2.97553 -0.8141
-1.2165 3.0812 -0.931745
-1.29647 2.54109 -0.480371
-1.32419 2.79016 -0.769979
-1.21395 2.54775 -0.506325
-1.41993 2.99949 -0.819042
-1.46346 2.85689 -0.862402
-1.52016 2.89395 -0.692605
-1.23498 2.85425 -0.865938
-1.355 2.88619 -0.966838
-1.29136 2.87025 -1.1268
-1.26401 3.04078 -0.911399
-1.27347 2.99387 -0.931204
-1.33922 3.01588 -0.892293
-1.37233 3.07386 -0.208249
-1.60197 3.00104 -0.402534
-1.51841 3.08799 -0.271146
-1.50506 2.95888 0.010502
-1.6809 2.92585 0.198638
-1.37546 2.29661 -0.369213
-1.408 2.51679 -0.395287
-1.77925 2.38167 -0.123025
-1.59015 2.41791 -0.254478
-1.75647 2.17656 -0.174588
-1.49658 2.67486 -0.43859
-1.5879 2.81879 -0.486725
-1.85053 2.35409 0.572024
-1.85432 2.14465 0.642143
-1.85047 2.79107 0.360345
-1.85131 2.56962 0.475285
-1.85054 2.14567 0.238921
-1.91613 2.36105 0.350963
-1.85038 2.36064 0.124688
-1.64308 2.77035 -0.185767
-1.76377 2.56965 -0.0094473
-1.82026 2.79103 0.0940747
-0.231493 2.5805 -0.0621328
-0.256674 2.61624 -0.127077
-0.193791 2.50907 0.13119
-0.215212 2.54668 0.0274107
0.18986 2.46078 0.109397
0.0110429 2.4696 0.0985551
0.211852 2.46047 0.229794
-0.379934 2.3179 0.528702
-0.301004 2.40743 0.472647
0.0812035 2.36304 0.613878
-0.101123 2.3986 0.562008
0.00338228 2.27963 0.696908
-0.230599 2.46099 0.374785
-0.19196 2.4749 0.266934
0.70574 2.00489 0.50563
0.555281 2.12513 0.551052
0.644445 1.96966 0.630786
0.401227 2.3853 0.373198
0.486797 2.27772 0.457436
0.507242 2.29142 0.326402
0.316785 2.13466 0.680411
0.443463 2.23301 0.620619
0.247393 2.28968 0.602851
0.0173306 2.46052 0.321919
0.153838 2.41315 0.480423
0.220229 2.46184 0.365361
-0.741089 2.25691 0.563615
-0.582115 2.26221 0.550441
-1.05149 2.27406 0.704247
-0.935561 2.27044 0.625767
-0.480919 2.03871 0.717229
-0.727158 2.14104 0.634347
-0.652028 2.00847 0.712033
-1.57543 2.04664 0.846535
-1.44422 2.10943 0.958651
-1.11113 1.89419 0.764627
-1.27593 2.04107 0.82064
-1.20117 1.77694 0.796147
-1.27932 2.21703 0.931156
-1.20136 2.27112 0.854864
-0.363444 1.34262 1.04322
-0.543962 1.4462 1.04707
-0.481493 1.26094 0.967613
-0.562006 1.81944 0.806753
-0.539573 1.661 0.929879
-0.381052 1.76567 0.978221
-0.823829 1.47036 0.806371
-0.666073 1.5508 0.862646
-0.879301 1.69914 0.797038
-1.04806 2.13823 0.721753
-0.97635 1.95001 0.727465
-0.824144 1.99132 0.714026
-1.72256 1.96181 0.531995
-1.66701 1.97933 0.69804
-1.76847 1.94259 0.14731
-1.76642 1.94168 0.331777
-1.67525 1.49459 0.593994
-1.75123 1.70156 0.451199
-1.7123 1.46804 0.363136
-1.31509 2.05782 -0.414248
-1.48749 2.00521 -0.353612
-1.61992 1.49974 -0.297942
-1.57963 1.75371 -0.34852
-1.49686 1.52687 -0.436207
-1.63248 1.96911 -0.239116
-1.68851 1.95597 -0.0601824
-1.43807 0.603736 0.13961
-1.34212 0.84262 0.0153329
-1.43828 0.646336 -0.149417
-1.6256 1.20028 0.238724
-1.42374 1.07064 0.12228
-1.41492 1.07241 0.354458
-1.34674 1.12523 -0.210456
-1.42435 1.07423 -0.0737486
-1.57902 1.22847 -0.214276
-1.77715 1.70105 0.0231911
-1.68558 1.46783 -0.0982547
-1.77238 1.43442 0.131094
-1.13822 2.53084 -0.499728
[...]
POINT_DATA 642
SCALARS Mean_Curvature double 1
LOOKUP_TABLE default
-0.665271
0.0492649
2.7107
5.14198
5.95459
-0.850566
-0.0141279
0.0986827
3.26291
-2.32439
-0.631487
8.13329
3.40566
2.56403
-0.896375
-0.509978
6.90635
14.2642
0.275907
1.90541
8.15852
4.46924
2.26615
1.89306
5.41468
0.280415
3.36803
3.96383
-0.0719486
1.68164
2.40107
-0.00568723
7.36139
1.65607
2.20365
6.02426
0.251934
6.51321
3.05213
-3.15554
-1.23413
1.84654
-2.10259
3.9401
2.357
3.34677
3.41892
4.12911
-0.824484
1.55417
-0.393994
-1.57975
2.1104
-0.724567
-0.400742
4.72334
-0.314992
-0.0512737
1.35204
0.19319
9.4336
4.72519
0.0999855
0.39746
-0.624134
2.28926
2.39047
-0.299162
15.9178
6.09841
15.5182
6.64762
1.9271
-0.373772
-0.885328
0.350609
1.507
-0.790625
-1.10796
4.15512
4.57217
4.83665
-1.54584
3.13374
-1.30213
0.182918
-1.58244
1.10262
1.95778
-0.0830797
-1.17048
5.49669
2.06278
2.8344
1.76819
-0.994652
2.95182
-1.5443
-0.0165818
-0.724908
-0.0283658
-0.00279275
3.42396
-0.30355
1.12489
0.510375
0.492624
-0.29544
0.639065
2.67629
-0.835379
4.9137
3.4953
3.3834
3.09445
1.24529
1.29753
4.00311
4.39212
-0.759388
1.89459
-0.812483
-0.0146101
-1.08644
5.74739
-1.55588
0.00958514
2.09175
1.72864
2.49933
4.36579
-0.0736688
3.38642
0.205253
2.07223
-1.47673
4.47412
4.08332
-1.61513
1.27619
1.00067
4.02661
4.35042
2.28503
-0.95185
-1.5609
2.60684
5.00956
4.52858
0.117494
3.35209
-1.65045
3.77072
-1.67416
-1.41012
2.86214
2.8369
-1.09527
-0.00151219
-0.314368
5.52625
1.41406
-1.10844
-1.72206
0.503622
3.11995
-0.338121
1.58681
0.182516
3.74156
4.20531
4.38596
4.27075
5.05583
0.474524
3.69827
2.50931
1.9021
3.87892
6.10217
-0.751263
-0.365194
-0.916363
-1.68193
-1.1571
-0.952164
-1.53625
0.0233885
-1.58996
3.19583
1.96961
7.73953
8.02281
5.01035
-1.1575
3.33662
9.1605
5.53137
-1.36135
-0.757828
-0.796131
-0.83061
-0.560546
-0.67956
-0.800518
-0.704219
-0.462964
4.35123
0.605069
-1.52909
12.4097
-2.09018
-0.271169
2.50846
-0.0752402
-0.912774
-0.216963
-0.476153
-0.272092
-0.0720798
0.538538
9.44753
0.852071
0.0862231
0.292524
-0.765279
5.08548
10.1717
9.66747
4.63937
-3.1892
9.72355
-0.250782
0.377658
0.338898
0.452785
0.421313
-0.259907
3.30154
-0.909174
7.13672
9.68252
8.90914
4.21647
5.10984
-0.117889
15.1694
6.23622
9.52159
2.59157
2.81623
0.0974168
-0.121378
4.64276
8.87325
14.8
1.37435
9.11686
-0.24107
-0.956083
-0.0188894
3.0178
10.1618
0.504478
12.9404
1.32895
14.2908
1.05112
1.73248
0.474273
0.389752
3.26325
6.16226
1.22434
3.25925
-1.0155
-0.781135
3.78335
0.395526
4.47096
-1.54558
4.25846
-0.975813
4.09062
5.31147
0.592333
1.10954
4.40442
0.713019
1.27799
-0.326095
5.30428
-0.517112
-0.314327
-0.912972
-0.704234
1.70416
-1.41654
2.06279
-1.66495
2.34566
4.70179
2.65671
5.59499
1.82562
-1.16983
2.75923
-0.149617
4.9314
6.11629
3.03911
1.4524
-0.263972
7.60438
2.30336
0.320238
1.64958
5.90258
-0.970658
-0.772874
0.481134
-1.20337
-0.470965
-0.933871
0.265807
1.46466
6.46375
-1.34824
-0.0168145
0.273305
6.16867
2.90709
1.22753
7.57288
-1.18684
-2.04859
1.57132
4.38363
-1.87326
-1.40746
-1.29197
-1.43574
-1.52388
0.194202
-1.58953
0.49691
-0.804552
-1.41821
4.88175
1.2487
-0.158611
-1.05584
1.14653
3.22527
2.7212
5.12317
1.86412
-2.94082
8.42946
-1.29859
8.72198
2.85977
-2.45334
-0.0649627
-1.2341
0.894136
5.07454
1.77607
0.42345
3.65354
-0.109993
-0.430405
-0.238259
-0.157967
-0.520617
0.0838317
-0.479117
0.0543264
-0.154653
0.141579
-0.15879
0.0903779
-0.237859
-0.272591
1.40571
8.32733
0.548738
-0.641641
-0.958221
-1.23934
-0.667704
-0.880703
-0.281669
0.0695879
0.2882
0.152069
0.118171
0.297414
-1.34441
-0.545088
0.365993
0.687549
0.561251
-0.0569661
0.14985
-0.074197
-0.44147
-0.409427
-0.639773
20.1678
-0.162556
-1.79442
4.00627
-0.606331
5.33864
0.884846
-1.48223
5.21049
-0.396103
0.805366
0.407005
0.537099
2.22725
2.48394
1.4798
2.35721
4.36634
5.92501
6.01319
-1.79212
1.37225
5.65882
2.33226
-1.95329
2.49289
-0.717499
3.73845
-0.154204
1.01353
-3.59519
2.73341
0.00559162
-0.827733
2.03823
3.90506
-1.23949
1.87465
3.52281
1.62682
0.747233
0.213976
0.193668
-0.0188351
0.488174
2.77479
0.127425
0.232732
0.196231
0.13304
-1.4001
-1.99785
6.73422
7.10985
0.0530723
-1.61783
5.72893
3.72401
3.75495
0.886789
-0.00175851
-0.775689
0.0252155
1.97516
-0.984023
1.3421
0.807438
-0.034251
0.066848
1.55131
3.1364
-1.31634
0.155905
3.1813
4.03464
4.45156
6.40512
1.44624
7.44104
3.74045
3.50676
-0.123313
0.113976
0.198103
6.03622
1.57233
1.46071
1.34953
-2.71971
-1.86257
-2.93415
1.48632
0.916721
6.42225
4.08405
-0.1192
3.77409
2.15619
3.28619
0.386709
-1.8813
0.69127
-0.135659
3.1166
0.815197
-0.0518615
1.544
0.985244
-0.592484
2.40849
2.57812
2.19374
2.24082
-0.902212
-2.30681
-1.47174
2.83812
3.69513
5.53053
2.81568
1.16689
1.87324
6.22478
5.68446
3.37558
4.2964
3.36074
-0.409598
-0.216449
5.03944
5.88845
6.33486
-1.42602
3.50267
7.42745
-2.05947
-2.22061
2.53624
-1.05794
-0.922128
1.46893
-1.6546
4.50933
1.70929
5.19655
-0.965522
1.97093
3.51557
-1.4733
-0.485583
-2.13467
5.3918
-3.21763
2.7886
-1.96831
-1.47221
0.760853
-2.94357
1.10726
-0.4961
1.63835
0.696653
7.86472
8.25872
-1.25404
-1.23716
-1.3091
0.72158
-1.4182
-1.41051
-0.99057
-2.01152
2.6177
1.06301
3.61015
-0.593837
-0.513233
0.154374
-1.81527
6.67274
-1.07287
-0.844733
0.822607
-1.35319
4.23448
1.75843
-2.56665
-1.40563
-1.39679
-1.25362
1.58436
6.4635
-2.01302
0.40645
-1.31099
-0.392037
-1.76669
-0.501073
0.194888
0.503849
-1.16373
-1.18003
2.97956
2.57148
-0.0390759
5.90088
5.41416
0.225643
0.158037
0.0917483
-0.0595323
-0.0492777
-1.45183
-0.39015
-0.548553
2.73201
1.86542
2.57125
-0.710362
0.520381
1.65422
4.09354
0.480052
-0.222841
5.05827
-0.790724
4.1614
1.59487
-0.494271
10.1777
-0.837225
1.80636
0.747706
SCALARS Redistribution_Potential double 1
LOOKUP_TABLE default
6.65057e-05
-0.219885
-0.572895
-0.739479
-0.607247
-0.445042
-0.59239
-0.0325804
-0.662493
-0.716407
-0.114302
-0.516355
-0.389773
-0.507132
-0.310046
-0.337241
-0.121409
-0.145657
0.334575
0.45031
0.272083
-0.402286
-0.644509
-0.628622
-0.528563
-0.589331
-0.459808
-0.532325
-0.326613
-0.367601
-0.51113
-0.38153
-0.726486
-0.714619
-0.704605
-0.571665
-0.673639
-0.538994
-0.692977
-0.644958
-0.708232
-0.698818
-0.204335
-0.382485
-0.201197
-0.527126
-0.481855
-0.484999
-0.372397
-0.440965
-0.45793
-0.164212
-0.0886407
-0.405343
-0.284173
-0.160435
-0.205926
-0.265411
-0.100939
0.268676
-0.155316
-0.138592
0.197283
-0.119356
-0.129091
0.588398
0.166071
0.245999
0.666797
0.234476
0.477309
0.305113
-0.158184
-0.26673
-0.156891
-0.386411
-0.472067
-0.51407
-0.430933
-0.57682
-0.555645
-0.685878
-0.644387
-0.694171
-0.490851
-0.536053
-0.506016
-0.514753
-0.617478
-0.543287
-0.509258
-0.49714
-0.513496
-0.363334
-0.438065
-0.509669
-0.505876
-0.47695
-0.0797577
-0.22686
-0.125494
-0.0235267
-0.506296
-0.321551
-0.518691
-0.161103
-0.192768
-0.306456
-0.180277
-0.56882
-0.428223
-0.617209
-0.740444
-0.740505
-0.73377
-0.723264
-0.730616
-0.714287
-0.643255
-0.71332
-0.674186
-0.696002
-0.719601
-0.554895
-0.628531
-0.624023
-0.640501
-0.591156
-0.69113
-0.720556
-0.543475
-0.622099
-0.644165
-0.631183
-0.568261
-0.7041
-0.716572
-0.62816
-0.677806
-0.698887
-0.691856
-0.657968
-0.717331
-0.690157
-0.695619
-0.669095
-0.707358
-0.673778
-0.691867
-0.623524
-0.53918
-0.476251
-0.53201
-0.459569
-0.419715
-0.404866
-0.553876
-0.540378
-0.351117
-0.677324
-0.653666
-0.586469
-0.0591774
-0.225394
-0.101841
-0.393855
-0.316789
-0.328246
-0.264675
-0.314702
-0.355099
-0.525815
-0.51284
-0.50797
-0.499323
-0.512502
-0.519921
-0.444776
-0.486847
-0.454031
-0.409524
-0.424846
-0.443457
-0.390523
-0.404787
-0.339347
-0.478004
-0.454108
-0.477837
-0.443094
-0.465983
-0.42468
-0.121327
-0.0664004
-0.22633
-0.181381
-0.060063
-0.121877
-0.135838
-0.424455
-0.371712
-0.294189
-0.337578
-0.374871
-0.322068
-0.284077
-0.182594
-0.194947
-0.238368
-0.149887
-0.177469
-0.140068
-0.299917
-0.221731
-0.264743
-0.219013
-0.243662
-0.180971
-0.0324197
0.121216
-0.105958
-0.0952214
0.332967
-0.0158087
-0.0133358
-0.177348
-0.159122
-0.142647
-0.141761
-0.145378
-0.145893
-0.132853
0.0484306
-0.0607923
-0.102754
-0.0161038
-0.0334869
0.334039
-0.140443
-0.123838
-0.138217
-0.127699
-0.128723
-0.111699
0.275758
0.118279
0.679672
0.631715
0.242359
0.470435
0.484433
0.100882
0.23642
0.54866
0.448374
0.429642
0.442724
0.648814
-0.010615
0.291024
-0.00763243
0.498801
0.388249
0.290163
0.395069
0.44255
0.478833
0.589862
0.554051
0.537312
-0.0161671
0.0942053
0.028915
-0.186449
-0.30869
-0.157166
-0.0537648
-0.31042
-0.20422
-0.349538
0.0247117
0.100783
-0.47885
-0.497764
-0.388038
-0.441946
-0.442629
-0.439669
-0.386874
-0.134565
-0.291568
-0.305993
-0.345985
-0.314572
-0.412767
-0.376751
-0.557086
-0.485995
-0.580324
-0.510303
-0.502153
-0.61374
-0.567778
-0.616953
-0.485025
-0.457775
-0.70658
-0.692387
-0.710094
-0.642788
-0.668754
-0.661771
-0.674992
-0.677566
-0.646552
-0.540632
-0.605617
-0.601862
-0.479141
-0.494583
-0.490909
-0.476552
-0.563392
-0.509058
-0.541935
-0.519988
-0.521094
-0.514053
-0.517829
-0.52562
-0.526866
-0.520062
-0.613787
-0.576049
-0.56808
-0.565049
-0.571428
-0.611482
-0.504666
-0.511056
-0.52886
-0.484376
-0.507512
-0.520948
-0.463012
-0.505778
-0.454326
-0.472883
-0.527875
-0.508067
-0.520484
-0.252544
-0.316811
-0.458303
-0.403087
-0.43167
-0.372359
-0.418052
-0.551638
-0.481515
-0.54027
-0.523378
-0.508723
-0.517251
-0.47921
-0.494903
-0.48544
-0.473198
-0.482413
-0.50911
-0.0348027
-0.156109
0.156396
0.108223
-0.287695
-0.128212
-0.234116
-0.0667355
0.0280077
-0.172035
-0.0758358
-0.201152
0.132787
0.184758
-0.562501
-0.514586
-0.570973
-0.337044
-0.423894
-0.427541
-0.435384
-0.425047
-0.32118
-0.0328295
-0.186709
-0.198756
-0.154002
-0.143748
-0.145034
-0.143687
-0.273883
-0.176751
-0.283432
-0.252921
-0.205836
-0.342419
-0.244651
-0.417082
-0.159015
-0.14683
-0.636886
-0.595738
-0.648619
-0.40158
-0.516024
-0.480302
-0.580564
-0.553391
-0.468926
-0.165259
-0.317239
-0.293485
-0.739099
-0.742496
-0.738174
-0.739548
-0.741078
-0.74001
-0.723744
-0.738367
-0.727347
-0.722244
-0.725243
-0.719
-0.725474
-0.728311
-0.721415
-0.719767
-0.726377
-0.731737
-0.619004
-0.667071
-0.637996
-0.710685
-0.689639
-0.67961
-0.700047
-0.69994
-0.715785
-0.735032
-0.72676
-0.728108
-0.727615
-0.730743
-0.700073
-0.717063
-0.699446
-0.709597
-0.686737
-0.546765
-0.577452
-0.600686
-0.589254
-0.559011
-0.603053
-0.666375
-0.593116
-0.611552
-0.582419
-0.657975
-0.637224
-0.648608
-0.592274
-0.616589
-0.611687
-0.666825
-0.638401
-0.665007
-0.722473
-0.729019
-0.684182
-0.707027
-0.709334
-0.713252
-0.695333
-0.563303
-0.589292
-0.584603
-0.584789
-0.532247
-0.623458
-0.651753
-0.614836
-0.616402
-0.586461
-0.672651
-0.642098
-0.676765
-0.53946
-0.596463
-0.58788
-0.660077
-0.627651
-0.668938
-0.714762
-0.731389
-0.70407
-0.713126
-0.710082
-0.683592
-0.702316
-0.611882
-0.638232
-0.66596
-0.654845
-0.637503
-0.665823
-0.688433
-0.680896
-0.684284
-0.660168
-0.704158
-0.696665
-0.706305
-0.65122
-0.680334
-0.67331
-0.700444
-0.686172
-0.70072
-0.731076
-0.718068
-0.721775
-0.733452
-0.718871
-0.679827
-0.693167
-0.696812
-0.697889
-0.696969
-0.701294
-0.707004
-0.710223
-0.713314
-0.707992
-0.685425
-0.701596
-0.697924
-0.694718
-0.706756
-0.672962
-0.708415
-0.649423
-0.698249
-0.678061
-0.649848
-0.631855
-0.71187
-0.670504
-0.69618
-0.711343
-0.708234
-0.553711
-0.595627
-0.582671
-0.604752
-0.633911
-0.68564
-0.662553
-0.652229
-0.559817
-0.564447
-0.570298
-0.536117
-0.503931
-0.49058
-0.50588
-0.464635
-0.479811
-0.54473
-0.51838
-0.533126
-0.532556
-0.534618
-0.530098
-0.536367
-0.508235
-0.509984
-0.545813
-0.479221
-0.5174
-0.490162
-0.43454
-0.519231
-0.45521
-0.467772
-0.457538
-0.449776
-0.279054
-0.387538
-0.3367
-0.361659
-0.432351
-0.419936
-0.435862
-0.42798
-0.622459
-0.608732
-0.614958
-0.561033
-0.464365
-0.579887
-0.446024
-0.525618
-0.594004
-0.604578
-0.174611
-0.361157
-0.258284
-0.223502
-0.336588
-0.548047
-0.454621
-0.46164
-0.701092
-0.691924
-0.69625
-0.682032
-0.653234
-0.66306
-0.605216
-0.639387
-0.675254
-0.686138
-0.372767
-0.609973
-0.523197
-0.473371
-0.552429
-0.668372
-0.624447
-0.643054
SCALARS CoVolArea double 1
LOOKUP_TABLE default
0.0275803
0.00497347
0.0345904
0.0354612
0.0194953
0.0182432
0.0140169
0.00753525
0.0137302
0.0224716
0.0242263
0.0408068
0.0441802
0.0268706
0.0266105
0.0226756
0.0228793
0.0219397
0.0155513
0.0120317
0.0352433
0.0505576
0.0247431
0.0232393
0.0447866
0.0334811
0.0454051
0.0599327
0.0256162
0.0469737
0.0239091
0.0211925
0.0438512
0.039079
0.054195
0.0557151
0.0646958
0.0441872
0.0415915
0.0316203
0.0324638
0.0265905
0.0451661
0.037002
0.0395184
0.0414924
0.0441302
0.0490306
0.0270053
0.0257687
0.024279
0.0259427
0.0335975
0.0277063
0.0270953
0.0151406
0.0189869
0.0143884
0.0312989
0.0219913
0.0148233
0.0307294
0.0139583
0.0252492
0.0213224
0.0135244
0.0329274
0.00744821
0.0100592
0.0405999
0.0236688
0.0227422
0.0493745
0.0482811
0.0486952
0.0546017
0.045451
0.0236175
0.0182534
0.0285356
0.028032
0.0262322
0.0263677
0.0274742
0.0247448
0.0277969
0.0402259
0.0271917
0.0386959
0.0408977
0.0420892
0.0582787
0.0451936
0.0428165
0.0506799
0.0545985
0.0574354
0.0396567
0.016942
0.0360658
0.0114507
0.0104564
0.0398353
0.0295444
0.0327704
0.0108431
0.0162617
0.0131265
0.0149923
0.0285165
0.0206365
0.0250472
0.0623941
0.0518295
0.0586553
0.0315493
0.0425576
0.0292741
0.0475205
0.0504525
0.0421917
0.0662194
0.0511983
0.0374233
0.0650409
0.0572893
0.0602858
0.0500917
0.056419
0.0463931
0.0415283
0.0566101
0.0430666
0.0442799
0.0357585
0.0430118
0.0421598
0.0289471
0.0382377
0.030862
0.0352867
0.0319284
0.0436326
0.0244764
0.0278125
0.0269572
0.0280452
0.0334742
0.0334652
0.0309042
0.0533081
0.0454812
0.0519857
0.0433034
0.041262
0.0470504
0.03283
0.0302495
0.0306439
0.0259292
0.028615
0.0269714
0.0387965
0.040007
0.0392971
0.0430312
0.0385991
0.0424378
0.0304078
0.0322622
0.0317219
0.0470283
0.0449309
0.0490376
0.0339696
0.040988
0.0304302
0.0467756
0.0456551
0.0471036
0.0218826
0.0237587
0.021559
0.0277635
0.0234051
0.0261437
0.0234001
0.021255
0.0252908
0.04453
0.0352725
0.0370334
0.0402067
0.033191
0.0294144
0.035001
0.0279409
0.0291468
0.0202924
0.0255999
0.0259133
0.0225021
0.0267673
0.025901
0.0284494
0.0284753
0.0102286
0.0138886
0.00993191
0.0183863
0.0159735
0.0174492
0.0177565
0.0144278
0.0185411
0.0292907
0.0230691
0.0232486
0.0308106
0.0284563
0.0312161
0.0342882
0.0137575
0.0248125
0.0201878
0.00790971
0.013355
0.0272004
0.0244481
0.020343
0.02146
0.0304291
0.00894051
0.0201786
0.0157404
0.0175603
0.019543
0.0143595
0.0202494
0.0230742
0.0282649
0.0408217
0.0363134
0.0352841
0.0262143
0.0288324
0.0181081
0.0188142
0.0362032
0.0250179
0.0202959
0.00639239
0.00590525
0.00940023
0.00811043
0.00831118
0.011635
0.0162936
0.0347533
0.0320178
0.0256529
0.0238742
0.0272905
0.0340558
0.0149495
0.0216607
0.0208468
0.00977681
0.0120071
0.0126382
0.0389032
0.0472344
0.0413414
0.0431652
0.0468275
0.041436
0.044421
0.0501429
0.046913
0.0482654
0.0437976
0.0460403
0.0472505
0.0455578
0.0519881
0.0487888
0.0473391
0.0495059
0.0519295
0.0571259
0.0575531
0.059932
0.015546
0.00932433
0.0246897
0.0195788
0.0238157
0.0208532
0.0235271
0.030429
0.0296141
0.0262765
0.0277432
0.0245628
0.0277632
0.0268218
0.0270974
0.0276451
0.027695
0.0225827
0.0236104
0.0205252
0.0263856
0.0274288
0.0278695
0.0278341
0.0277532
0.0259322
0.0254456
0.0262018
0.0255183
0.0229741
0.031024
0.02578
0.032249
0.0417572
0.0420641
0.038485
0.0323507
0.0415375
0.0302446
0.0246689
0.027657
0.0386476
0.0334199
0.0362389
0.0399656
0.0349188
0.0426531
0.0404173
0.0450767
0.028972
0.0387689
0.0342216
0.0440617
0.0402415
0.0522342
0.0480998
0.0593551
0.052872
0.0617438
0.0417873
0.0459097
0.0494885
0.0446754
0.043038
0.0456663
0.051591
0.0515739
0.0487258
0.0492728
0.0611756
0.0525378
0.0569738
0.0432501
0.0437939
0.0526266
0.0605979
0.0595812
0.0650982
0.0281648
0.0313513
0.0116231
0.0191144
0.0416109
0.0280967
0.0335669
0.0101252
0.00831806
0.0171056
0.00956672
0.0172914
0.00940529
0.00961012
0.0259257
0.0358448
0.0265466
0.0385804
0.0367535
0.0421621
0.0289879
0.0326885
0.0272252
0.0126771
0.0192694
0.0234579
0.0164117
0.0133152
0.0143998
0.0134017
0.0183432
0.0144213
0.0142599
0.00842375
0.00982688
0.0172002
0.0144159
0.0192094
0.0148736
0.0151523
0.0229515
0.0271279
0.0239784
0.018244
0.0247976
0.0242418
0.0233558
0.0242683
0.0211466
0.0120637
0.0145078
0.0130615
0.0458468
0.0566638
0.0465699
0.0534926
0.0553038
0.0655875
0.0591885
0.0541374
0.0549075
0.0310359
0.0321037
0.03026
0.0404552
0.033841
0.0354107
0.0251651
0.0332495
0.0406243
0.0354922
0.0429237
0.0309518
0.0503549
0.0464352
0.0516861
0.0397977
0.0444803
0.0449689
0.054988
0.0531542
0.0571966
0.052756
0.0443336
0.0610632
0.0599248
0.061025
0.0601359
0.0694442
0.0335218
0.038287
0.0687197
0.0521693
0.0483011
0.05103
0.0565645
0.0489582
0.0611427
0.0469842
0.0639288
0.0574718
0.0546718
0.0551377
0.0544364
0.0607729
0.0670634
0.0692213
0.0711164
0.0505308
0.0499915
0.0617735
0.0564334
0.0467305
0.0528135
0.0514472
0.0434879
0.0470646
0.0568444
0.0452932
0.042993
0.0490807
0.0581523
0.0292261
0.0404626
0.0284906
0.0446542
0.042054
0.0407758
0.0348439
0.0344155
0.0462956
0.0613203
0.0602848
0.0540708
0.0432641
0.0421152
0.0431756
0.0427797
0.0398822
0.0392857
0.0363389
0.0237282
0.0301983
0.0307019
0.028891
0.0283292
0.038061
0.0400769
0.0280032
0.0336813
0.0268158
0.0323311
0.0285845
0.0251962
0.0287754
0.0290508
0.0325892
0.048815
0.0421056
0.0449466
0.0530091
0.0388262
0.0519742
0.0652328
0.0503059
0.0227927
0.0271044
0.0243669
0.0250339
0.0252342
0.0274075
0.0310838
0.0279665
0.0273722
0.0277654
0.0256826
0.027971
0.028374
0.0260042
0.0343841
0.0293936
0.0331282
0.0343717
0.0360008
0.0346761
0.0344968
0.0321146
0.0305447
0.0284656
0.0278201
0.031758
0.0377535
0.0311076
0.0323177
0.0304537
0.028397
0.0274572
0.0366369
0.0337554
0.0339141
0.0468649
0.0675976
0.0570567
0.0473915
0.0470353
0.0406015
0.0443587
0.0417935
0.0434468
0.0465608
0.0397249
0.0584064
0.0519956
0.0462278
0.0466435
0.0532269
0.0526104
0.0513961
0.0350083
0.040941
0.0352959
0.0396379
0.0459687
0.0429936
0.0424733
0.0417077
0.0422065
0.0401046
0.0436212
0.0516173
0.0460078
0.0444017
0.042759
0.04502
0.0447781
0.0501237
0.0302367
0.0326178
0.0289381
0.0285842
0.030603
0.0305482
0.0290396
0.0285372
0.0301806
0.0315044
0.0151631
0.0273385
0.0214628
0.0219252
0.028753
0.0351787
0.0336479
0.0352768
0.0273776
0.0278937
0.0257342
0.0240884
0.023556
0.0260159
0.0271696
0.0244545
0.0265023
0.0290717
0.0154791
0.025195
0.0235521
0.0223916
0.0265879
0.0301898
0.0292313
0.0272175
SCALARS SignedDistance double 1
LOOKUP_TABLE default
1.11436
1.17586
-0.00557466
0.0746844
-0.0059648
1.09472
2.62774e-05
1.25418
0.0109029
-0.0232691
1.18473
0.13029
-0.0215964
0.0561643
0.635044
1.19021
0.121949
0.0280704
0.687275
-0.669793
-0.0476752
0.104394
-0.00429123
0.015201
-0.00275264
0.00896991
-0.0187151
0.124203
1.12761
0.0530237
-0.0157107
1.10676
0.00232197
0.0305194
0.00657347
0.146811
0.000283308
0.128474
-0.00363632
-0.0429978
0.0266037
0.0198756
0.0125601
0.0806476
-0.00447442
0.0967871
-0.00292177
0.119037
1.13422
0.0299973
0.518247
0.639428
0.0123198
0.931113
1.21615
0.0167022
0.120759
1.21978
0.0403875
0.767912
0.013149
0.0162272
1.17272
0.0719483
0.955212
-1.02961
0.0376919
1.12952
0.00824525
-0.20417
0.0332719
-0.0334901
-0.00236031
0.0123181
0.0019434
0.00686805
-0.00377302
0.0663678
1.00207
0.0408478
0.0131652
0.0246191
-0.0123428
0.0292316
0.747515
0.0281089
0.680144
0.0798424
0.000403524
0.0149492
0.873272
0.145478
-0.000289455
0.0547464
-0.00242362
0.97812
0.00618948
0.721068
1.29131
1.0808
1.31289
1.28734
0.0275154
1.09984
0.00794516
1.13713
1.25921
1.19112
1.16081
0.0306248
1.07476
0.0277607
0.029989
0.0777221
0.00692955
0.0207461
0.000397083
0.0371903
-0.00398165
-0.0233998
-0.0484948
-0.0393284
-4.66123e-06
0.0938634
-0.00854496
-0.0555023
-8.37732e-07
0.0616171
-0.00067796
0.0661963
0.00307712
-0.00286424
0.00115334
0.00605716
-0.00473167
-0.0404417
-0.0267603
0.0547487
-0.0186933
0.0197593
-0.00273498
0.0475364
-0.019156
0.0247854
-0.000374
1.00987
-0.000546117
0.0532582
-0.0124344