# vtk DataFile Version 4.2
vtk output
ASCII
DATASET POLYDATA
POINTS 642 double
-2.10446 5.00727 -0.0339257
1.4373 4.98901 -0.0337563
-2.11197 -0.76204 -0.0283615
1.45958 -0.762264 -0.0272365
-0.325932 0.347475 2.8519
-0.333326 3.88566 2.81766
-0.324809 0.362447 -2.88301
-0.33449 3.91506 -2.91868
2.52135 2.12612 -1.78392
2.53851 2.11807 1.73837
-3.19472 2.13376 -1.80354
-3.20426 2.12771 1.74781
-3.06606 3.82261 1.01754
-2.0213 3.16994 2.70237
-1.36663 4.84975 1.65375
0.700267 4.8347 1.63833
-0.324558 5.50361 -0.0297873
0.709873 4.861 -1.71719
-1.38027 4.89013 -1.73521
-2.03137 3.18365 -2.78069
-3.07982 3.83392 -1.08245
-3.70381 2.12863 -0.0271849
1.34318 3.15938 2.67082
2.38271 3.796 1.00549
-2.01335 1.08265 2.70114
-0.330002 2.12168 3.3241
-3.06272 0.433954 -1.07327
-3.06073 0.43394 1.01705
-0.330346 2.13514 -3.38522
-2.00071 1.09504 -2.73085
2.36419 3.79465 -1.05638
1.34156 3.16421 -2.73594
2.42848 0.42697 1.02256
1.35917 1.07816 2.6967
0.725253 -0.619367 1.66896
-1.37719 -0.622001 1.66707
-0.325231 -1.25538 -0.028564
-1.37182 -0.609639 -1.7156
0.721637 -0.610649 -1.72028
1.3516 1.08416 -2.74194
2.42218 0.430572 -1.07627
3.06147 2.11683 -0.0277804
-2.66661 4.50908 0.508163
-2.31851 4.45188 1.40469
-1.79178 5.03443 0.836893
-2.70543 2.67037 2.31721
-2.65519 3.56915 1.9603
-3.24953 3.00754 1.43878
-0.862236 4.45151 2.33275
-1.76869 4.11051 2.2932
-1.19394 3.59367 2.87554
-0.879232 5.33276 0.850808
-1.25786 5.37126 -0.0316619
0.201284 4.43693 2.30547
-0.32719 4.9758 1.7267
0.59002 5.37753 -0.0327066
0.218961 5.32592 0.851878
1.12367 5.02706 0.838215
-0.877611 5.34278 -0.920239
-1.80981 5.06894 -0.919833
1.13646 5.03383 -0.894427
0.216732 5.34533 -0.920361
-0.868856 4.49094 -2.42987
-0.337329 5.00362 -1.81131
0.20626 4.46288 -2.40198
-2.33202 4.47375 -1.47902
-2.68084 4.52519 -0.572518
-1.21633 3.60814 -2.96601
-1.77717 4.13546 -2.37625
-3.25701 3.01535 -1.50386
-2.67161 3.58134 -2.03378
-2.70902 2.67899 -2.38168
-3.20523 3.91 -0.0297117
-3.56708 2.13076 -0.947773
-3.54114 3.02041 -0.579429
-3.54446 3.01634 0.520494
-3.58117 2.13019 0.906843
1.63473 4.42423 1.38902
1.97417 4.47114 0.498433
0.538951 3.56971 2.84963
1.09003 4.08186 2.25698
2.57147 2.99422 1.42686
1.97168 3.54704 1.93079
2.03179 2.65986 2.29981
-1.21317 2.6764 3.1751
-0.334157 3.03756 3.18608
-2.70664 1.59241 2.31242
-2.10679 2.12578 2.83888
-0.32512 1.19711 3.20511
-1.21232 1.57717 3.15937
-1.19715 0.653346 2.89397
-3.53549 1.24077 0.520655
-3.24301 1.25996 1.44283
-3.22737 1.25402 -1.48395
-3.53652 1.24137 -0.576046
-2.67768 -0.254514 0.516822
-3.20514 0.347929 -0.0292453
-2.67823 -0.25386 -0.571409
-2.1029 2.13359 -2.9059
-2.6825 1.59478 -2.35443
-0.329018 3.06846 -3.29119
-1.22261 2.68684 -3.25608
-1.18852 0.666419 -2.92296
-1.21099 1.58949 -3.21444
-0.32517 1.20416 -3.24256
1.09547 4.10728 -2.3433
0.532462 3.59099 -2.92453
1.99801 4.48682 -0.570898
1.64232 4.43731 -1.45507
2.01725 2.6612 -2.34533
1.9659 3.54867 -1.98818
2.56077 2.99242 -1.4793
2.03347 -0.268592 0.512732
1.66972 -0.214657 1.41278
1.15558 -0.805716 0.845813
2.04183 1.57723 2.30765
2.01019 0.684744 1.96411
2.60203 1.23723 1.44164
0.213227 -0.219713 2.35865
1.11176 0.131815 2.29857
0.54307 0.658521 2.88449
0.224758 -1.09547 0.861828
0.614033 -1.13555 -0.0280056
-0.872807 -0.228923 2.34962
-0.325668 -0.762328 1.75823
-1.25449 -1.13571 -0.0275459
-0.877779 -1.10228 0.866247
-1.80108 -0.80322 0.855581
0.225311 -1.09431 -0.919325
1.14474 -0.798609 -0.90653
-1.80334 -0.802755 -0.901654
-0.879056 -1.09233 -0.914316
0.211629 -0.207666 -2.40209
-0.328285 -0.75005 -1.80286
-0.862771 -0.210527 -2.40559
1.66438 -0.207771 -1.46297
2.03099 -0.265606 -0.568686
0.545619 0.666771 -2.9207
1.10968 0.145808 -2.34766
2.59584 1.24005 -1.49322
1.99747 0.692762 -2.00916
2.02851 1.58163 -2.3513
2.57048 0.339786 -0.0281994
2.91693 2.11796 -0.945651
2.90527 1.23516 -0.578461
2.90797 1.22671 0.524644
2.91929 2.12432 0.902144
0.555857 1.5727 3.16883
1.43864 2.12676 2.82453
0.552144 2.66574 3.15912
-2.32529 -0.213118 1.41892
-1.76997 0.130188 2.3046
-2.66048 0.682463 1.96789
-1.76025 0.143464 -2.34515
-2.31821 -0.203914 -1.46917
-2.63968 0.696978 -1.99807
1.42707 2.12745 -2.86363
0.548463 1.58077 -3.20457
0.54556 2.67421 -3.19393
2.87042 3.00259 0.517271
2.85608 3.00497 -0.570226
2.51823 3.88293 -0.0285996
-2.39822 4.78308 0.235539
-2.25948 4.80195 0.686364
-1.96282 5.04318 0.399365
-2.72254 4.16131 1.22504
-2.51455 4.50302 0.971197
-2.89605 4.17912 0.771007
-1.59243 4.96968 1.25557
-2.07398 4.76995 1.13671
-1.85609 4.68432 1.55154
-2.9815 2.40209 2.05399
-3.01166 2.85176 1.90694
-3.25689 2.57248 1.60968
-2.3588 3.386 2.36387
-2.7069 3.12852 2.16045
-2.38428 2.92729 2.53405
-3.18572 3.42633 1.23891
-2.98009 3.30177 1.71978
-2.89598 3.71056 1.50547
-0.593158 4.18344 2.60362
-1.051 4.04913 2.63873
-0.757224 3.75858 2.87316
-1.58678 4.51085 1.99851
-1.32459 4.3078 2.33563
-1.13213 4.68007 2.01094
-1.61451 3.39769 2.81902
-1.50115 3.86728 2.61248
-1.90909 3.66053 2.53071
-2.51905 4.03381 1.70427
-2.23341 3.86439 2.15618
-2.0677 4.31009 1.87483
-1.53175 5.24026 0.411422
-1.69479 5.22047 -0.0373143
-1.12744 5.11817 1.26796
-1.34418 5.20885 0.854744
-0.797807 5.46889 -0.0296837
-1.07238 5.38652 0.414117
-0.600818 5.45868 0.417216
-0.0640136 4.18226 2.58773
-0.328463 4.47719 2.34821
0.192063 4.94518 1.7069
-0.057025 4.73168 2.03678
0.458782 4.65761 1.98753
-0.600367 4.74138 2.04732
-0.859621 4.95029 1.7138
1.04003 5.20258 -0.0306527
0.874666 5.24391 0.410228
1.29942 5.02907 0.39712
-0.0536188 5.46396 0.414864
0.414507 5.38279 0.415674
0.134057 5.47601 -0.033108
0.927693 4.95175 1.24235
0.682123 5.21264 0.854074
0.472947 5.11314 1.26354
-0.610489 5.20025 1.30973
-0.0508513 5.19196 1.30872
-0.333201 5.38002 0.863332
-1.54516 5.26935 -0.480715
-1.97709 5.06796 -0.482775
-0.601203 5.46329 -0.477728
-1.07789 5.39204 -0.483554
-1.60831 5.00995 -1.33174
-1.36066 5.24847 -0.934577
-1.14261 5.16371 -1.34862
1.30187 5.04586 -0.473813
0.880747 5.24342 -0.472687
0.47427 5.14081 -1.33555
0.688414 5.219 -0.919594
0.932204 4.97804 -1.32633
0.415497 5.391 -0.477184
-0.0530046 5.46923 -0.482552
-0.597209 4.21908 -2.70492
-0.337114 4.51729 -2.4488
-0.0633817 4.20757 -2.69179
-0.868842 4.98863 -1.80214
-0.605534 4.78404 -2.14173
-1.14088 4.71669 -2.10023
0.467778 4.68279 -2.07732
-0.062798 4.76447 -2.12676
0.203316 4.96466 -1.77958
-0.333336 5.38777 -0.93333
-0.0484429 5.21328 -1.37802
-0.616008 5.21495 -1.38549
-2.27261 4.83149 -0.757171
-2.41867 4.78776 -0.311455
-1.87253 4.71664 -1.62846
-2.08841 4.79847 -1.21174
-2.9059 4.2032 -0.834341
-2.53482 4.52136 -1.04059
-2.73798 4.17968 -1.29629
-0.780403 3.78019 -2.9748
-1.05238 4.07863 -2.73296
-1.92439 3.67698 -2.60962
-1.50521 3.89005 -2.69914
-1.63576 3.40724 -2.89954
-1.33489 4.33827 -2.42501
-1.59723 4.53932 -2.08131
-3.25658 2.56686 -1.67593
-3.01934 2.85629 -1.96881
-2.98703 2.40087 -2.10737
-2.90741 3.72302 -1.57557
-2.99453 3.31037 -1.78815
-3.19489 3.43479 -1.30536
-2.39487 2.9352 -2.60659
-2.71726 3.1403 -2.23199
-2.37477 3.39828 -2.44116
-2.07924 4.33207 -1.95281
-2.2506 3.8817 -2.23493
-2.53111 4.0506 -1.77836
-2.70589 4.53909 -0.0322341
-3.17518 3.89189 -0.563857
-2.97196 4.23585 -0.306414
-2.9676 4.22485 0.242228
-3.17075 3.88711 0.503588
-3.40602 2.13311 -1.38529
-3.4531 2.57906 -1.24209
-3.65975 2.5783 -0.30707
-3.58845 2.58044 -0.773377
-3.66595 2.12912 -0.492395
-3.43562 3.02831 -1.0537
-3.34919 3.43956 -0.84352
-3.45809 2.57574 1.18544
-3.42491 2.12773 1.33444
-3.34273 3.44028 0.78076
-3.429 3.02183 0.989641
-3.67664 2.13027 0.446208
-3.59636 2.57674 0.715218
-3.66857 2.57874 0.248994
-3.41242 3.47951 -0.310468
-3.58741 3.03158 -0.0283501
-3.41493 3.47912 0.248302
1.57752 4.77545 0.678894
1.73225 4.75917 0.237244
1.18036 4.64851 1.52689
1.39193 4.744 1.12207
2.19771 4.1515 0.757009
1.83083 4.47072 0.9579
2.03105 4.12904 1.2098
0.104777 3.73967 2.85437
0.379862 4.02519 2.60399
1.23688 3.63938 2.50425
0.826661 3.84171 2.57606
0.954557 3.37594 2.79133
0.656996 4.27865 2.30064
0.908659 4.48443 1.97355
2.57696 2.55563 1.59991
2.33593 2.83578 1.88872
2.31191 2.39143 2.02991
2.21334 3.69077 1.49059
2.29528 3.28383 1.69568
2.50417 3.40876 1.22825
1.71015 2.91503 2.50337
2.02889 3.11274 2.14086
1.68047 3.36654 2.33101
1.38715 4.28483 1.85369
1.55423 3.83801 2.12299
1.83652 4.01194 1.6874
-0.770484 3.3315 3.07427
-0.334635 3.47624 3.0348
-1.6311 2.93519 2.97532
-1.2233 3.14066 3.0585
-0.327898 2.59569 3.28256
-0.781072 2.8643 3.21951
-0.77396 2.40406 3.28793
-2.97915 1.85237 2.05269
-2.73359 2.12993 2.35058
-2.08212 1.59781 2.80015
-2.42355 1.85623 2.60745
-2.37592 1.3241 2.52858
-2.42456 2.4039 2.60915
-2.08693 2.65387 2.80582
-0.326277 0.750767 3.06047
-0.773013 0.907924 3.09252
-0.758573 0.482027 2.90194
-0.77652 1.84619 3.2836
-0.770996 1.38583 3.21659
-0.328344 1.65788 3.2996
-1.61925 0.851548 2.83201
-1.21852 1.1045 3.05314
-1.62799 1.32242 2.96777
-1.67994 2.4025 3.04749
-1.67333 1.85295 3.04659
-1.23041 2.12477 3.21719
-3.45467 1.68484 1.18488
-3.25293 1.68303 1.60829
-3.66467 1.68206 0.248437
-3.59028 1.68045 0.714582
-3.18009 0.837685 1.24345
-3.41915 1.23553 0.988416
-3.33633 0.821086 0.779608
-3.23396 1.68947 -1.65534
-3.43869 1.68595 -1.23317
-3.3294 0.824639 -0.83122
-3.4146 1.23922 -1.04263
-3.16732 0.833333 -1.28766
-3.58542 1.68117 -0.770349
-3.65809 1.67962 -0.306066
-2.41012 -0.543644 0.240201
-2.70824 -0.286302 -0.027331
-2.40991 -0.542662 -0.296476
-3.16237 0.369458 0.499745
-2.97191 0.023165 0.246569
-2.89542 0.069174 0.775716
-2.8966 0.0642049 -0.829154
-2.96914 0.0251643 -0.302692
-3.17156 0.368655 -0.560711
-3.578 1.22871 -0.0280956
-3.41069 0.777365 -0.306714
-3.40603 0.777167 0.249695
-2.73012 2.13386 -2.40532
-2.96558 1.86116 -2.10054
-2.08797 2.66601 -2.88115
-2.42797 2.40958 -2.67006
-2.36343 1.34209 -2.56659
-2.41801 1.86185 -2.6583
-2.0725 1.60674 -2.85526
-0.335282 3.50063 -3.13812
-0.775059 3.35028 -3.17607
-0.783222 2.41511 -3.37016
-0.778246 2.88129 -3.31362
-0.336279 2.60187 -3.37581
-1.22499 3.15749 -3.14983
-1.64175 2.94523 -3.05559
[...]
POINT_DATA 642
SCALARS Mean_Curvature double 1
LOOKUP_TABLE default
0.642103
0.686465
0.647149
0.602519
0.661527
0.694481
0.605848
0.66827
0.557751
0.606158
0.656106
0.618831
0.605048
0.60006
0.577683
0.648813
0.564583
0.629577
0.5969
0.601864
0.63385
0.578748
0.544519
0.650938
0.504079
0.569921
0.639429
0.542946
0.602488
0.458365
0.453386
0.670955
0.595922
0.572201
0.611736
0.569701
0.53259
0.567015
0.606679
0.617073
0.588083
0.673214
0.584999
0.598067
0.571615
0.588052
0.593648
0.581038
0.572817
0.612061
0.583281
0.620979
0.524208
0.519629
0.515088
0.657113
0.552932
0.686663
0.459447
0.637651
0.552099
0.635316
0.623851
0.507803
0.491758
0.572268
0.619756
0.569824
0.602684
0.608076
0.612589
0.571558
0.572781
0.532033
0.546371
0.569125
0.62955
0.62346
0.426665
0.612059
0.522242
0.635174
0.521247
0.630343
0.609195
0.495571
0.611216
0.582632
0.523466
0.460854
0.624
0.559375
0.576684
0.550244
0.616277
0.536296
0.60119
0.565151
0.622867
0.462616
0.661495
0.607758
0.595284
0.53549
0.583671
0.622942
0.490232
0.689855
0.548474
0.624364
0.52277
0.636477
0.605532
0.577944
0.607077
0.578109
0.604379
0.602511
0.583998
0.577382
0.590972
0.56209
0.643379
0.555487
0.629207
0.555263
0.613779
0.546641
0.620931
0.563721
0.639787
0.538123
0.589923
0.570973
0.616154
0.577839
0.604495
0.579769
0.589301
0.681768
0.568677
0.589422
0.591934
0.595704
0.599998
0.620815
0.572107
0.581918
0.558209
0.642767
0.643173
0.565834
0.685085
0.582228
0.629499
0.517027
0.535619
0.581387
0.347937
0.615301
0.529398
0.651071
0.517923
0.590753
0.515629
0.588649
0.59119
0.579253
0.578236
0.606598
0.57729
0.592471
0.615721
0.589089
0.588948
0.587177
0.597022
0.577826
0.605628
0.581714
0.577789
0.652363
0.580838
0.616341
0.568922
0.630841
0.587245
0.615567
0.580555
0.590888
0.58218
0.602852
0.510243
0.581596
0.479601
0.544474
0.572374
0.618734
0.562697
0.6274
0.587318
0.697419
0.503922
0.515859
0.563656
0.621757
0.541124
0.6637
0.537736
0.653698
0.534125
0.630966
0.539883
0.672933
0.555969
0.633055
0.560311
0.657278
0.677428
0.625457
0.54794
0.512608
0.59002
0.724535
0.677226
0.698509
0.575065
0.6352
0.554201
0.638219
0.560655
0.640366
0.620771
0.67101
0.627086
0.67811
0.6544
0.619292
0.550377
0.525487
0.554251
0.608555
0.554584
0.502038
0.647669
0.591471
0.601542
0.572821
0.640567
0.596306
0.612744
0.621155
0.623572
0.563924
0.579241
0.562091
0.580412
0.570794
0.647551
0.591267
0.629445
0.557775
0.643469
0.570803
0.618546
0.603152
0.618651
0.568721
0.609047
0.562713
0.567131
0.560746
0.59439
0.540074
0.607581
0.457174
0.617243
0.53539
0.552185
0.554964
0.668927
0.599524
0.629724
0.578673
0.615657
0.57317
0.6179
0.554319
0.617627
0.509074
0.618942
0.558098
0.502908
0.71296
0.405235
0.5547
0.501437
0.621128
0.486292
0.535786
0.484417
0.685476
0.517592
0.638024
0.502958
0.615881
0.518175
0.641188
0.516618
0.652566
0.505332
0.626598
0.541288
0.657962
0.539936
0.662149
0.523807
0.668915
0.587556
0.645956
0.579054
0.636844
0.4955
0.659663
0.584749
0.586871
0.614081
0.560887
0.606102
0.510046
0.600015
0.58912
0.657034
0.670713
0.623298
0.52283
0.511743
0.634047
0.711482
0.523701
0.498829
0.58095
0.595215
0.667113
0.64128
0.584327
0.620062
0.530116
0.573864
0.529799
0.613482
0.516767
0.591167
0.509642
0.606122
0.522791
0.607092
0.56608
0.6226
0.548754
0.644535
0.508642
0.657338
0.585575
0.642331
0.566643
0.63574
0.559079
0.596958
0.538317
0.636335
0.560781
0.607226
0.575063
0.489749
0.609614
0.648108
0.630834
0.620547
0.64966
0.658887
0.682637
0.646144
0.589285
0.570543
0.570166
0.594489
0.40102
0.541609
0.558393
0.450076
0.515695
0.592631
0.577589
0.641436
0.621189
0.485108
0.674814
0.537297
0.610976
0.504067
0.602636
0.516601
0.689119
0.540082
0.700396
0.542805
0.652397
0.554286
0.647172
0.551066
0.637395
0.528853
0.631866
0.459755
0.538951
0.52454
0.612514
0.485332
0.653575
0.549157
0.651119
0.61875
0.567843
0.620365
0.585607
0.613853
0.583316
0.598619
0.563926
0.599093
0.587776
0.585874
0.663472
0.586189
0.631271
0.531013
0.606339
0.607157
0.598947
0.621047
0.556996
0.577288
0.571324
0.603137
0.556033
0.56771
0.580385
0.574329
0.589943
0.596873
0.569593
0.626141
0.571146
0.622718
0.547802
0.56099
0.562381
0.573025
0.57778
0.620815
0.528315
0.620249
0.554986
0.615788
0.537596
0.630477
0.524196
0.609128
0.525206
0.623609
0.580055
0.644142
0.566391
0.651435
0.530462
0.617861
0.553802
0.629843
0.585806
0.588051
0.529198
0.596205
0.545061
0.613826
0.5543
0.633936
0.550687
0.602647
0.545861
0.63605
0.578001
0.585068
0.576361
0.602453
0.576994
0.595264
0.58883
0.61933
0.581282
0.623996
0.563642
0.637249
0.535244
0.623038
0.579461
0.586484
0.570301
0.598193
0.59082
0.600591
0.587635
0.58417
0.601883
0.583931
0.599282
0.605369
0.588993
0.556791
0.643992
0.531996
0.610032
0.579123
0.598675
0.534853
0.633561
0.566636
0.574286
0.567921
0.588214
0.605512
0.588456
0.595849
0.581176
0.59557
0.591914
0.611221
0.67105
0.6038
0.6211
0.609749
0.596253
0.597343
0.636027
0.586557
0.597836
0.585283
0.655713
0.605361
0.58931
0.597718
0.575934
0.559268
0.59448
0.565921
0.602063
0.55139
0.603563
0.56082
0.637602
0.54141
0.608221
0.476367
0.608083
0.526616
0.624547
0.546048
0.616856
0.563128
0.626557
0.633676
0.555531
0.636222
0.551445
0.657648
0.55029
0.642548
0.574669
0.64584
0.578972
0.608974
0.575541
0.527433
0.453045
0.677098
0.55938
0.628745
0.552512
0.628887
0.572495
0.617746
0.609369
0.676274
0.563205
0.632024
0.565746
0.640298
0.551493
0.576717
0.51545
0.589785
0.54202
0.609764
0.558188
0.642499
0.590151
0.550365
0.609419
0.549866
0.626893
0.475312
0.59536
0.513281
0.593346
0.5452
0.59293
0.640595
0.60935
0.582206
0.756937
0.425519
0.603434
0.533944
0.592047
0.511952
0.575469
0.499491
0.631515
0.483355
0.615274
0.55096
0.656838
0.493033
0.574802
0.512432
0.655227
0.466717
0.545421
0.492895
0.634521
0.528344
0.643885
SCALARS Redistribution_Potential double 1
LOOKUP_TABLE default
7.33116e-10
-1.333
0.912356
0.464138
0.258186
-0.971805
-0.0127228
-0.236779
-0.896363
-0.833164
0.544625
0.459071
0.25994
-0.141046
-0.559914
-1.33228
-0.681454
-0.794803
0.111685
0.384525
0.546165
0.656779
-1.15167
-1.43475
0.407006
-0.437017
0.72881
0.84176
-0.248169
0.31406
-1.28227
-0.895806
0.0230161
-0.271892
0.551171
0.868533
0.814841
0.620106
0.307578
-0.472771
-0.107523
-0.813337
0.130169
-0.110023
-0.286259
0.202169
0.0731092
0.368438
-0.802854
-0.374283
-0.559923
-0.655072
-0.320962
-1.19334
-0.98089
-1.03925
-1.05304
-1.36576
-0.246351
0.10106
-1.0717
-0.71649
-0.0143555
-0.311973
-0.491444
0.41214
0.331942
0.14257
0.335786
0.599423
0.546372
0.498837
0.433022
0.636624
0.606496
0.525069
0.591105
-1.48436
-1.44946
-1.14628
-1.35171
-1.20089
-1.33758
-1.05295
-0.334519
-0.737189
0.436627
0.121863
-0.08271
0.0200546
0.336861
0.748709
0.663086
0.611984
0.713461
0.930997
0.845194
0.858839
0.318046
0.453406
-0.236022
0.0971916
0.127503
0.0488598
-0.189654
-0.875976
-0.59623
-1.37211
-1.14292
-1.00115
-1.12122
-1.16282
0.303303
0.331605
0.559838
-0.556161
-0.0970169
-0.38042
0.437039
0.203504
-0.00130103
0.764138
0.658077
0.627586
0.737711
0.904936
0.90387
0.956798
0.616476
0.430349
0.815092
0.770617
0.136912
0.481815
0.315054
0.132042
0.225008
-0.245022
-0.0729357
-0.518583
-0.305559
-0.691087
0.0271058
-0.858278
-0.414759
-0.359747
-0.804012
-0.405005
-0.754121
-0.849964
0.899562
0.693375
0.694274
0.432371
0.707689
0.546426
-0.751902
-0.459436
-0.536445
-1.18417
-1.15913
-1.40886
0.0668742
-0.0696382
-0.139127
0.0901828
0.00820268
0.199414
-0.42434
-0.206377
-0.331315
0.342547
0.28597
0.414437
-0.0334486
0.136571
0.0404243
0.31815
0.228836
0.173699
-0.900512
-0.69882
-0.772758
-0.47778
-0.591524
-0.691322
-0.347235
-0.47488
-0.260579
-0.0109221
-0.133268
-0.237158
-0.310527
-0.157707
-0.608921
-0.469468
-0.499343
-0.497731
-0.670031
-1.10117
-1.01935
-1.18521
-1.106
-1.27443
-0.906677
-0.784495
-1.19202
-1.22266
-1.34089
-0.883748
-1.04948
-0.866918
-1.34372
-1.23165
-1.20817
-0.830708
-1.02791
-0.862654
-0.10914
0.055233
-0.468023
-0.279034
0.12104
-0.0679823
-0.0580044
-1.21432
-1.05421
-0.751286
-0.899756
-0.939169
-0.87723
-0.697206
-0.118033
-0.252311
-0.360019
-0.090223
-0.159065
0.0668129
-0.640941
-0.399121
-0.558915
-0.479766
-0.507955
-0.259312
0.230137
0.181747
0.280522
0.27377
0.456966
0.38653
0.494096
-0.0327326
0.0792483
0.383002
0.25025
0.281644
0.178271
0.249317
0.575568
0.564921
0.521976
0.571159
0.581041
0.593485
0.451156
0.535869
0.482637
0.405608
0.469463
0.514366
0.236182
0.503687
0.385072
0.298135
0.348354
0.606566
0.606281
0.631087
0.626012
0.655525
0.604312
0.584437
0.490225
0.537777
0.406098
0.452537
0.631034
0.55898
0.599272
0.554047
0.576234
0.489264
-1.43063
-1.43159
-1.40198
-1.44237
-1.46111
-1.48873
-1.46458
-1.06841
-1.18804
-1.29815
-1.25936
-1.17806
-1.29213
-1.38012
-1.01572
-1.13805
-0.944139
-1.41078
-1.28261
-1.3404
-1.11002
-1.22335
-1.25733
-1.44621
-1.36709
-1.45582
-0.673337
-0.874582
-0.242261
-0.456159
-0.595184
-0.5488
-0.401888
0.45066
0.313549
0.263149
0.285053
0.429697
0.1557
-0.0116495
0.0896567
0.128621
0.298431
-0.208466
-0.0430442
-0.269557
0.369251
0.177401
0.222242
-0.0898976
0.0636228
-0.166745
0.62361
0.567248
0.694024
0.67602
0.756198
0.718865
0.78969
0.574192
0.621213
0.735324
0.66566
0.670242
0.662108
0.695857
0.931028
0.90943
0.893441
0.86587
0.889104
0.896734
0.795102
0.86223
0.799884
0.755828
0.785069
0.816229
0.458755
0.504148
0.357128
0.417611
0.385044
0.381456
0.29138
-0.227495
-0.0404131
-0.0830915
-0.061134
-0.246763
0.125378
0.25571
0.0516925
-0.0307486
-0.115804
0.196394
0.0739156
0.219518
-0.220565
-0.0766198
-0.0999069
0.230577
0.0626471
0.192631
-0.549945
-0.42714
-0.830386
-0.700362
-0.757396
-0.744539
-0.888041
-1.36407
-1.24146
-1.26819
-1.26029
-1.35158
-1.1136
-0.995381
-0.967474
-1.09345
-1.03379
-1.02701
-1.06785
-0.967024
-1.22883
-1.17615
-1.20892
-1.02018
-1.14298
-1.03582
0.396197
0.444082
0.522968
0.190239
0.32633
0.180934
0.568519
0.461405
0.446836
-0.697556
-0.471901
-0.611498
-0.185615
-0.326023
-0.414295
-0.165512
-0.236586
-0.0215048
0.351834
0.233271
0.133136
0.398665
0.320126
0.510817
-0.136614
0.101728
-0.0284947
0.144963
0.0630213
0.287552
0.626157
0.572515
0.67447
0.668915
0.741355
0.724547
0.801651
0.458642
0.530861
0.816719
0.688303
0.766002
0.600595
0.65773
0.916305
0.947812
0.945756
0.880447
0.91471
0.868571
0.92396
0.941688
0.899602
0.780077
0.849268
0.853277
0.556401
0.460125
0.72845
0.653781
0.375728
0.529232
0.474685
0.882691
0.867057
0.70554
0.794028
0.733019
0.840957
0.806846
0.0536913
0.229401
0.149563
0.399426
0.31262
0.228643
0.471875
0.40107
0.549103
0.709838
0.639966
0.571468
0.332093
0.356642
0.222835
0.288887
0.0708611
0.185764
0.0183513
-0.129636
-0.0598785
-0.276832
-0.172698
-0.360993
0.0302421
0.127504
-0.722032
-0.622766
-0.794087
-0.203759
-0.410758
-0.306185
-0.57993
-0.51337
-0.399973
0.0394437
-0.180092
-0.0728212
0.27879
-0.0226452
0.135683
0.17669
0.0429628
-0.885386
-0.686716
-0.608472
-0.643446
-0.832501
-0.463089
-0.248164
-0.595536
-0.820851
-0.15733
-0.362571
-0.800516
-0.582942
-0.582874
-0.172646
-0.366102
-0.139973
-0.0548396
-0.348689
-0.206221
-0.252069
-0.437698
-0.818214
-0.969612
-0.916233
-0.666195
-0.5208
-0.951154
-0.65222
-0.809509
-1.0174
-1.01115
-0.584702
-0.810691
-0.6345
0.947838
0.901857
0.936661
0.930718
0.876358
0.496319
0.550128
0.530228
0.659448
0.798623
0.565434
0.789599
0.684959
0.579302
0.562143
0.832019
0.706688
0.826741
0.206559
0.527336
0.370712
0.27834
0.345102
0.850094
0.725358
0.796524
0.766418
0.677552
0.526959
0.431844
0.476982
0.580766
0.640922
0.592469
0.622983
0.498922
-0.862676
-0.634729
-0.746838
-0.888551
-0.832967
-0.244109
-0.365694
-0.328629
-0.369247
-0.493264
-0.419251
-0.734053
-0.590395
-0.416138
-0.384454
-0.611416
-0.517491
-0.689297
-1.00911
-1.00313
-1.00008
-1.19809
-1.31696
-1.04275
-1.25824
-1.17717
-1.01626
-1.00916
-1.41988
-1.43285
-1.43613
-1.40799
-1.34428
-1.17936
-1.28802
-1.3294
SCALARS CoVolArea double 1
LOOKUP_TABLE default
0.174284
0.170966
0.171265
0.175023
0.171136
0.169608
0.167955
0.174094
0.168498
0.174299
0.173305
0.177178
0.227232
0.229988
0.226365
0.225163
0.226689
0.226492
0.231174
0.230237
0.231617
0.228957
0.223905
0.225314
0.228555
0.22742
0.228197
0.230036
0.227364
0.227079
0.225017
0.224566
0.230423
0.228041
0.230146
0.230527
0.230825
0.230638
0.228529
0.22704
0.22913
0.227735
0.219168
0.239681
0.217013
0.216282
0.240343
0.217741
0.216853
0.238382
0.216364
0.237822
0.215941
0.212784
0.237061
0.217276
0.238505
0.214763
0.240822
0.217402
0.215398
0.239725
0.220072
0.241829
0.218001
0.242873
0.217024
0.219219
0.242799
0.219443
0.242306
0.218656
0.241234
0.216597
0.239829
0.2402
0.215968
0.2355
0.212851
0.213213
0.234007
0.215198
0.23539
0.2148
0.238225
0.213493
0.21769
0.237762
0.216563
0.237881
0.217391
0.239907
0.215996
0.215976
0.238804
0.219902
0.24005
0.218735
0.238771
0.21472
0.215485
0.240562
0.216462
0.238497
0.214874
0.237043
0.214594
0.212982
0.237181
0.214474
0.236637
0.213788
0.220179
0.240369
0.219104
0.214596
0.240928
0.21778
0.219123
0.241475
0.21839
0.24156
0.216894
0.217675
0.241182
0.220049
0.240974
0.219572
0.240712
0.217084
0.217773
0.24
0.218501
0.239607
0.216818
0.240255
0.217963
0.214277
0.238896
0.218451
0.239692
0.216024
0.240634
0.21475
0.241655
0.241648
0.216385
0.236663
0.238463
0.23685
0.240621
0.24162
0.240994
0.23923
0.239476
0.23766
0.236497
0.235369
0.236569
0.237096
0.23742
0.235518
0.211436
0.218442
0.21121
0.236193
0.219597
0.216798
0.216157
0.220254
0.237505
0.213944
0.219463
0.21389
0.237241
0.22038
0.214941
0.21564
0.220403
0.236345
0.207656
0.21792
0.207551
0.235697
0.219942
0.215054
0.215679
0.218434
0.235414
0.264672
0.263645
0.264392
0.217164
0.211917
0.234335
0.218082
0.217229
0.218487
0.234858
0.208116
0.214525
0.23117
0.215157
0.210892
0.218887
0.234054
0.210528
0.218216
0.20966
0.234841
0.218344
0.214203
0.211928
0.216169
0.233128
0.263154
0.262619
0.263594
0.219433
0.213899
0.237339
0.221929
0.217311
0.221027
0.237734
0.20773
0.217108
0.234705
0.220999
0.216437
0.219991
0.235794
0.211748
0.219631
0.211879
0.236883
0.220808
0.219095
0.216153
0.221683
0.237314
0.26439
0.265748
0.265902
0.219442
0.211749
0.24135
0.222524
0.218381
0.222353
0.239363
0.213574
0.221183
0.239066
0.222957
0.217892
0.223583
0.239902
0.212761
0.221605
0.212321
0.238991
0.221654
0.216657
0.216853
0.221828
0.239167
0.268464
0.267555
0.267659
0.219398
0.239495
0.221489
0.221444
0.23648
0.212411
0.219954
0.236964
0.220087
0.214969
0.220206
0.237656
0.218209
0.211603
0.237352
0.220378
0.216452
0.219978
0.237087
0.265783
0.264806
0.266077
0.215586
0.207965
0.233243
0.215824
0.213383
0.216138
0.233205
0.209877
0.216203
0.231498
0.215833
0.210401
0.215632
0.231704
0.210762
0.217223
0.210998
0.231984
0.217215
0.212067
0.212544
0.217379
0.233077
0.258983
0.258893
0.259344
0.216902
0.20841
0.23735
0.218254
0.213129
0.216541
0.235803
0.212178
0.218452
0.236401
0.219421
0.216727
0.217896
0.236191
0.209411
0.218458
0.211527
0.235085
0.219626
0.214233
0.216365
0.219005
0.236299
0.264515
0.263186
0.263877
0.217558
0.21122
0.237166
0.220757
0.217507
0.220419
0.237645
0.212699
0.217788
0.235855
0.218875
0.214351
0.218881
0.235898
0.21274
0.221669
0.213093
0.236986
0.220812
0.216146
0.216252
0.220909
0.237383
0.264701
0.264296
0.264878
0.21919
0.211414
0.237549
0.220411
0.214081
0.219125
0.235089
0.212257
0.219375
0.235455
0.220456
0.215015
0.222231
0.237742
0.207444
0.216302
0.207603
0.235139
0.218452
0.215146
0.214413
0.218695
0.235794
0.264545
0.264743
0.263034
0.216953
0.211955
0.234342
0.217869
0.213335
0.217588
0.23333
0.209685
0.214924
0.231801
0.215901
0.211036
0.219709
0.234993
0.207394
0.215887
0.208563
0.232746
0.216817
0.211693
0.212314
0.216215
0.23332
0.26214
0.261307
0.26157
0.21322
0.221363
0.212367
0.238415
0.222
0.218799
0.218187
0.221547
0.237271
0.211423
0.217815
0.212036
0.235834
0.218579
0.214535
0.21585
0.220835
0.239414
0.21147
0.219276
0.210305
0.236724
0.220521
0.218108
0.215212
0.221338
0.237505
0.26772
0.267849
0.266432
0.220217
0.211801
0.239471
0.222525
0.217351
0.221551
0.238627
0.213347
0.219997
0.238352
0.221689
0.217133
0.221871
0.238071
0.213713
0.222485
0.213175
0.237738
0.221231
0.216216
0.216572
0.221796
0.238591
0.266476
0.265998
0.265956
0.218933
0.21462
0.23812
0.221091
0.216407
0.220872
0.23809
0.211302
0.220402
0.237488
0.22027
0.216336
0.220224
0.237019
0.209589
0.219261
0.209009
0.237128
0.220995
0.216714
0.216972
0.219668
0.237331
0.26581
0.265746
0.265084
0.21977
0.213635
0.236158
0.220009
0.218039
0.22148
0.237949
0.207812
0.216513
0.23347
0.216652
0.212102
0.220575
0.236094
0.211546
0.219391
0.210299
0.236871
0.21882
0.215721
0.212817
0.216557
0.235059
0.265244
0.265028
0.266076
0.220479
0.237616
0.221451
0.223345
0.239032
0.208826
0.217882
0.235039
0.218393
0.214388
0.221426
0.23914
0.219146
0.210798
0.236388
0.221091
0.216134
0.222454
0.237636
0.267453
0.267588
0.266196
0.217455
0.233973
0.216816
0.218122
0.23425
0.217974
0.233741
0.216791
0.217437
0.236987
0.21553
0.233815
0.216376
0.215394
0.232321
0.264348
0.263343
0.262168
0.222255
0.238338
0.22095
0.221798
0.237282
0.220684
0.23788
0.22156
0.22073
0.238731
0.217621
0.238231
0.220869
0.221139
0.236375
0.266639
0.267105
0.266154
0.217756
0.238098
0.219558
0.219162
0.23504
0.220331
0.237031
0.221226
0.221121
0.23638
0.218079
0.235587
0.218092
0.218975
0.234807
0.263602
0.262834
0.263671
0.21705
0.234749
0.216183
0.215252
0.232768
0.21601
0.233895
0.216605
0.216812
0.232858
0.217076
0.232672
0.217589
0.219412
0.23503
0.261018
0.260347
0.260415
0.216942
0.234725
0.217016
0.216879
0.233584
0.217121
0.233431
0.216708
0.218776
0.23573
0.215526
0.233027
0.2169
0.216631
0.232103
0.262639
0.26075
0.26135
SCALARS SignedDistance double 1
LOOKUP_TABLE default
3.02843
3.46691
2.6056
2.60312
2.92098
3.65793
3.23427
3.06524
3.42923
3.24606
3.16678
2.76995
2.81813
3.02907
3.28397
3.73738
3.06705
3.16257
2.62619
2.74057
2.66705
2.89744
3.53225
3.57863
3.15089
3.40367
2.97378
2.84086
3.61807
3.45003
3.65535
3.69565
2.66349
3.10454
2.68684
2.58556
2.87413
2.83311
2.86763
3.37567
2.84428
3.21004
2.95978
2.99921
3.20015
2.84415
2.87498
2.76324
3.44645
3.13213
3.31997
3.26585
3.08913
3.78664
3.56817
3.2383
3.37138
3.59928
3.00031
2.74564
3.23565
3.02449
2.7717
3.0061
3.19227
2.51174
2.77952
2.73217
2.52442
2.84117
2.57997
2.90845
2.88374
3.06034
2.95926
2.7977
2.81234
3.70653
3.70702
3.66887
3.68534
3.41614
3.54215
3.39426
3.28462
3.61807
2.93806
3.01611
3.18319
3.32374
3.05438
2.85295
2.89702
3.1133
2.96442
2.687
2.85726
2.69626
3.15532
3.32885
3.28478
3.08055
3.34524
3.52172
3.46646
3.4053
3.47834
3.5579
3.41697
3.6252
3.65867
3.56696
2.56265
2.66979
2.63422
3.17969
2.89236
2.93186
2.80286
2.87263
3.02416
2.72289
2.75305
2.72265
2.64952
2.67298
2.72573
2.56997
2.77929
2.75218
2.70288
2.73783
3.07404
2.87207
3.02654
2.89077
2.66144
3.32326
3.1086
3.14501
3.15462
3.41949
2.64561
3.32001
2.93342
2.83729
3.19669
3.23807
3.31717
3.48675
2.60663
2.74184
2.91816
3.10537
2.87791
3.21068
3.59664
3.51935
3.74135
3.42551
3.46504
3.63253
3.05245
3.0686
3.16852
2.89223
2.96822
2.87315
3.22914
3.09103
3.13169
2.79163
2.78411
2.7488
2.93819
2.849
2.92477
2.78467
2.80542
2.83458
3.55022
3.38311
3.49253
3.20339
3.28178
3.35667
3.16389
3.2156
3.07223
2.92497
2.98643
3.05256
3.1965
3.11392
3.35909
3.28109
3.04804
3.16044
3.13888
3.74673
3.64077
3.65604
3.70449
3.78133
3.5373
3.45244
3.34756
3.4133
3.52598
3.20752
3.2956
3.14274
3.66166
3.48344
3.5545
3.40699
3.46583
3.28914
2.99607
2.89403
2.99515
3.02662
2.65088
2.86618
2.80133
3.33527
3.21313
3.07544
3.11711
3.18632
3.10638
3.03204
2.90636
3.02081
3.16269
2.82656
2.90568
2.67165
3.16252
3.08503
3.05993
2.95695
2.98345
2.98306
2.73773
2.88844
2.53131
2.58983
2.69881
2.60709
2.56188
2.88117
2.71715
2.58773
2.61138
2.70354
2.59933
2.53486
3.0118
2.85969
3.03612
2.58533
2.6823
2.70929
2.81368
2.72738
2.63367
2.47886
2.51627
2.49978
2.95382
2.81943
2.86885
2.9056
2.82698
3.16239
3.06052
2.92884
3.01443
2.97266
2.9182
2.83103
2.76029
2.76701
2.78202
2.77132
2.84032
2.81687
2.84222
2.89329
2.85688
2.81241
3.68382
3.63002
3.7473
3.7349
3.64389
3.70876
3.63676
3.72212
3.73114
3.62241