# vtk DataFile Version 4.2
vtk output
ASCII
DATASET POLYDATA
POINTS 642 double
-1.56599 4.07592 -0.108728
0.743801 3.993 -0.0872974
-1.57672 0.0961314 -0.0182365
0.939033 0.0965722 -0.0111267
-0.344537 0.861766 1.90654
-0.429878 3.22138 1.76697
-0.328741 0.91946 -1.86069
-0.448612 3.36461 -2.00441
1.52399 2.05734 -1.1115
1.5738 2.02434 1.10862
-2.25705 2.20218 -1.22803
-2.30871 2.1311 1.18297
-2.21857 3.27723 0.681138
-1.51681 2.81528 1.78806
-1.06575 3.89922 1.0694
0.26445 3.85369 0.958189
-0.339058 4.38242 -0.0658518
0.298409 3.9634 -1.14524
-1.11096 4.07873 -1.25889
-1.52819 2.92297 -1.94112
-2.23904 3.34504 -0.806019
-2.62594 2.13753 -0.0065163
0.736583 2.72486 1.6736
1.3945 3.12037 0.624525
-1.48377 1.36726 1.79258
-0.356772 2.06824 2.13979
-2.16691 0.931211 -0.704073
-2.1889 0.919827 0.698557
-0.406347 2.21456 -2.18443
-1.4461 1.44919 -1.77172
1.34515 3.18838 -0.672632
0.684402 2.82146 -1.72807
1.60596 0.910885 0.691932
0.80153 1.35758 1.76643
0.411256 0.197694 1.14418
-1.0814 0.179106 1.15142
-0.336511 -0.219316 -0.02314
-1.04981 0.229141 -1.15027
0.393998 0.2359 -1.15214
0.760452 1.38189 -1.74258
1.57546 0.926457 -0.705443
1.91604 1.9975 -0.0114534
-1.93321 3.75294 0.301893
-1.7171 3.67072 0.922803
-1.35055 4.05402 0.504214
-1.975 2.49329 1.55419
-1.93785 3.0972 1.31459
-2.34471 2.72582 0.97429
-0.746758 3.60108 1.49676
-1.34779 3.42265 1.50555
-0.955093 3.07754 1.85585
-0.716424 4.24562 0.498305
-1.00122 4.30143 -0.0917183
-0.0618962 3.57801 1.41219
-0.381635 3.97018 1.04753
0.219388 4.27854 -0.0747963
-0.0122758 4.22359 0.479189
0.526893 4.00963 0.454946
-0.764709 4.3171 -0.698352
-1.39158 4.16469 -0.724699
0.585937 4.0557 -0.584118
-0.0100396 4.2893 -0.644823
-0.758083 3.76815 -1.7328
-0.434284 4.09158 -1.28604
-0.0734908 3.70088 -1.64564
-1.76038 3.80281 -1.07892
-1.94935 3.81063 -0.45444
-0.990961 3.19709 -2.08431
-1.37402 3.57262 -1.70372
-2.33067 2.80651 -1.06696
-1.97955 3.18891 -1.45354
-1.96039 2.58903 -1.64596
-2.31123 3.3626 -0.0512533
-2.52258 2.1574 -0.636633
-2.52166 2.77221 -0.42117
-2.5393 2.73705 0.354312
-2.54815 2.13966 0.645327
0.891215 3.5433 0.837006
1.0788 3.62644 0.258419
0.201827 2.97672 1.77997
0.563867 3.31703 1.37832
1.54875 2.61612 0.895368
1.14131 2.97579 1.1923
1.20531 2.39751 1.45687
-0.977438 2.47987 2.0616
-0.409054 2.66879 2.02797
-1.98306 1.77917 1.54043
-1.57229 2.12392 1.87998
-0.329464 1.42508 2.09277
-0.956356 1.7292 2.06907
-0.913855 1.04692 1.9226
-2.51522 1.51693 0.358419
-2.32447 1.55794 0.992298
-2.27887 1.53476 -0.970091
-2.49675 1.51632 -0.37551
-1.95132 0.437564 0.36173
-2.28398 0.871582 -0.0228584
-1.95023 0.451209 -0.389386
-1.53316 2.2266 -1.96181
-1.90404 1.83063 -1.56557
-0.440766 2.8573 -2.18764
-0.97924 2.61137 -2.20129
-0.873247 1.11206 -1.88108
-0.950879 1.84281 -2.09148
-0.336401 1.4803 -2.06494
0.525214 3.4541 -1.52524
0.11161 3.14231 -1.93102
1.08863 3.66148 -0.403374
0.880863 3.65154 -0.94995
1.14868 2.43419 -1.47514
1.08092 3.04557 -1.26834
1.51015 2.62177 -0.92512
1.33213 0.415021 0.337678
1.07796 0.46164 0.951675
0.739735 0.0655923 0.55846
1.25962 1.6792 1.48921
1.28803 1.09016 1.29678
1.6771 1.43692 0.937709
0.0155977 0.490292 1.61939
0.654673 0.706956 1.53842
0.228695 1.07521 1.91326
0.0673629 -0.122236 0.600885
0.375187 -0.133613 -0.0167358
-0.723915 0.457269 1.61069
-0.338654 0.0987954 1.21993
-0.997 -0.152601 -0.0174692
-0.732751 -0.127813 0.613735
-1.37248 0.0613111 0.607543
0.0579021 -0.103156 -0.629018
0.704559 0.0874618 -0.60694
-1.37125 0.079551 -0.585025
-0.731922 -0.110822 -0.616162
0.0199144 0.537741 -1.58838
-0.343295 0.141471 -1.21023
-0.684448 0.531111 -1.5958
1.04856 0.491795 -0.956273
1.32029 0.427549 -0.366454
0.241857 1.11641 -1.86828
0.635609 0.761623 -1.53135
1.63092 1.44064 -0.93371
1.23769 1.11679 -1.288
1.20296 1.6948 -1.48256
1.70524 0.853005 -0.0159396
1.80731 2.01347 -0.578449
1.87778 1.45562 -0.361699
1.89554 1.43891 0.350505
1.82419 2.02264 0.595865
0.247067 1.69197 2.05564
0.82742 2.06175 1.8109
0.223584 2.40116 2.00635
-1.7199 0.463831 0.987324
-1.341 0.700407 1.58416
-1.91076 1.0932 1.33426
-1.2854 0.747193 -1.53719
-1.69373 0.501597 -0.976009
-1.87496 1.12851 -1.29455
0.780112 2.09273 -1.80422
0.213351 1.73708 -2.03421
0.158273 2.52879 -2.0541
1.74309 2.60908 0.327027
1.72339 2.61622 -0.348191
1.46387 3.19659 -0.0233505
-1.74778 3.9375 0.0833127
-1.6787 3.91012 0.428893
-1.47274 4.07806 0.181659
-1.98978 3.49233 0.810531
-1.83969 3.72096 0.63655
-2.10943 3.50965 0.506468
-1.21789 3.99794 0.794749
-1.55165 3.87227 0.738855
-1.39359 3.80771 1.01974
-2.15846 2.31722 1.3872
-2.17873 2.6223 1.29023
-2.34859 2.43552 1.08855
-1.73096 2.96805 1.58273
-1.97832 2.79776 1.44937
-1.76424 2.6548 1.68714
-2.30163 3.01013 0.834939
-2.1592 2.92184 1.16191
-2.10967 3.18818 1.0101
-0.57238 3.40753 1.6573
-0.89174 3.35355 1.6926
-0.669105 3.16451 1.82386
-1.22618 3.67724 1.30274
-1.05676 3.53317 1.51355
-0.934848 3.77616 1.28435
-1.22577 2.96515 1.84902
-1.17783 3.25514 1.70112
-1.43345 3.13872 1.67128
-1.8535 3.39743 1.1337
-1.64893 3.28345 1.4354
-1.54756 3.56494 1.23712
-1.15961 4.20572 0.212944
-1.28893 4.2049 -0.118996
-0.890072 4.08542 0.797645
-1.03491 4.16479 0.517725
-0.674916 4.36617 -0.0703573
-0.842643 4.2988 0.217112
-0.5195 4.34213 0.221505
-0.250791 3.40573 1.60592
-0.410854 3.61158 1.46591
-0.0573683 3.94081 1.00886
-0.222499 3.79098 1.23742
0.118711 3.73319 1.18455
-0.577443 3.80338 1.28148
-0.742779 3.953 1.07576
0.532405 4.13316 -0.0795773
0.387752 4.16876 0.19713
0.663101 4.01495 0.155163
-0.182045 4.33508 0.206965
0.116371 4.27096 0.206603
-0.0614655 4.35378 -0.0740625
0.420737 3.95108 0.693976
0.26693 4.13812 0.466336
0.134284 4.06146 0.729597
-0.559037 4.13778 0.786329
-0.19219 4.12337 0.771629
-0.370589 4.2697 0.491813
-1.19981 4.24893 -0.424257
-1.49526 4.13559 -0.437949
-0.532491 4.37656 -0.370274
-0.89296 4.33201 -0.408764
-1.26911 4.1566 -0.972186
-1.10689 4.25773 -0.733631
-0.966467 4.22566 -0.999713
0.668312 4.04597 -0.34945
0.424417 4.18744 -0.347218
0.154624 4.15123 -0.909012
0.298748 4.19246 -0.630551
0.43728 4.02894 -0.897556
0.123448 4.3046 -0.349623
-0.176139 4.36605 -0.363421
-0.588663 3.56124 -1.90024
-0.453123 3.7651 -1.70265
-0.282409 3.52732 -1.85721
-0.797828 4.10534 -1.30114
-0.608497 3.95757 -1.51534
-0.960454 3.95104 -1.50227
0.132158 3.84708 -1.40314
-0.252247 3.92467 -1.47271
-0.021614 4.04937 -1.208
-0.380249 4.33231 -0.672733
-0.186256 4.21987 -0.953855
-0.61912 4.2381 -1.00671
-1.692 4.008 -0.601098
-1.78899 3.94983 -0.306761
-1.43795 3.97696 -1.18766
-1.58462 4.01426 -0.907138
-2.11081 3.60263 -0.632641
-1.88411 3.81314 -0.788419
-2.02819 3.58972 -0.951548
-0.723452 3.29551 -2.06897
-0.880795 3.50628 -1.93465
-1.47079 3.25514 -1.85415
-1.17922 3.3977 -1.9233
-1.26256 3.07058 -2.03914
-1.07121 3.70242 -1.73759
-1.25457 3.8497 -1.5037
-2.30837 2.47064 -1.17086
-2.17416 2.7039 -1.37171
-2.1443 2.3756 -1.42603
-2.14233 3.27308 -1.14284
-2.17965 3.00377 -1.27178
-2.30873 3.0788 -0.950212
-1.77117 2.74974 -1.80425
-1.98797 2.89798 -1.5652
-1.76542 3.06616 -1.72575
-1.58885 3.70766 -1.41286
-1.70042 3.39541 -1.60317
-1.89863 3.50596 -1.28713
-1.96866 3.78335 -0.0895261
-2.29011 3.3721 -0.449397
-2.1502 3.59573 -0.265838
-2.15795 3.5564 0.129127
-2.28805 3.32895 0.337414
-2.40779 2.18083 -0.940826
-2.44167 2.49067 -0.86351
-2.59969 2.45407 -0.211996
-2.54333 2.4743 -0.538778
-2.59503 2.14252 -0.325422
-2.44178 2.79703 -0.758165
-2.40053 3.06347 -0.638455
-2.47957 2.43645 0.810357
-2.45866 2.1324 0.902122
-2.40002 3.03315 0.530843
-2.46318 2.73993 0.672891
-2.61222 2.14112 0.326665
-2.56963 2.43689 0.488999
-2.6126 2.44407 0.174139
-2.44924 3.07436 -0.248494
-2.5612 2.76135 -0.0258833
-2.45437 3.0581 0.157653
0.82644 3.82418 0.359487
0.91585 3.82957 0.0792319
0.591226 3.71252 0.907656
0.711125 3.78855 0.64549
1.25287 3.3782 0.450327
1.00453 3.58813 0.5712
1.15744 3.34349 0.743854
-0.112813 3.10638 1.78536
0.0804142 3.2879 1.61362
0.655594 3.01928 1.55625
0.394257 3.15367 1.59505
0.479738 2.85254 1.74318
0.269751 3.4572 1.4031
0.422791 3.59232 1.1889
1.57563 2.30494 1.02553
1.39958 2.50974 1.19401
1.41965 2.20898 1.27944
1.29109 3.05508 0.921229
1.36023 2.8043 1.05555
1.48535 2.87923 0.766782
1.0026 2.55696 1.56845
1.19164 2.68215 1.34278
0.954046 2.85354 1.45488
0.743719 3.44625 1.12294
0.864666 3.16116 1.30212
1.03524 3.26639 1.03263
-0.697806 2.88473 1.96298
-0.424665 2.95472 1.91111
-1.2484 2.65944 1.95451
-0.996897 2.77132 1.98195
-0.375649 2.40483 2.09666
-0.711158 2.57998 2.06369
-0.678228 2.2856 2.11391
-2.15319 1.93891 1.38623
-1.98844 2.13403 1.57781
-1.55276 1.75792 1.85402
-1.77949 1.95138 1.7384
-1.7391 1.55816 1.68433
-1.78087 2.31568 1.73965
-1.56207 2.47449 1.85671
-0.341447 1.10046 2.00254
-0.641849 1.21879 2.02172
-0.608843 0.934375 1.93513
-0.659913 1.90071 2.13156
-0.63446 1.57836 2.10112
-0.341179 1.75869 2.13657
-1.20149 1.18565 1.87109
-0.95192 1.35874 1.99838
-1.23221 1.5442 1.95229
-1.28419 2.3019 2.00806
-1.27008 1.94333 2.01226
-0.989426 2.11287 2.09649
-2.46784 1.83824 0.814855
-2.33829 1.82426 1.08829
-2.60005 1.83372 0.173025
-2.55625 1.83147 0.489984
-2.27837 1.24075 0.856012
-2.43997 1.51177 0.674881
-2.37805 1.21222 0.534063
-2.28381 1.86058 -1.10138
-2.42524 1.8419 -0.815523
-2.3537 1.21542 -0.543455
-2.40833 1.51978 -0.681395
-2.23753 1.21913 -0.836659
-2.52864 1.82945 -0.507361
-2.58651 1.82475 -0.200328
-1.75288 0.222192 0.146808
-1.96939 0.418483 -0.0181049
-1.75233 0.229321 -0.184283
-2.25756 0.872987 0.33897
-2.13879 0.634526 0.167973
-2.08531 0.659325 0.539336
-2.07473 0.658418 -0.549972
-2.13603 0.638678 -0.208965
-2.24997 0.888542 -0.378029
-2.53651 1.50638 -0.0155528
-2.41581 1.18419 -0.20378
-2.42252 1.1791 0.169553
-1.94977 2.21644 -1.63264
-2.09736 2.01914 -1.40875
-1.54215 2.58194 -1.97988
-1.76232 2.40976 -1.82451
-1.69924 1.65506 -1.68404
-1.73393 2.04079 -1.78613
-1.50065 1.86053 -1.88844
-0.452252 3.09632 -2.13059
-0.704457 3.01907 -2.17407
-0.718011 2.44399 -2.22542
-0.708424 2.73185 -2.22227
-0.451668 2.55534 -2.21467
[...]
POINT_DATA 642
SCALARS Mean_Curvature double 1
LOOKUP_TABLE default
0.813832
1.02167
0.96544
0.933493
0.976426
0.714372
0.845852
1.15816
0.781123
0.846899
0.734434
0.940823
0.928919
1.01214
0.888742
0.620458
0.965636
0.957572
1.22157
0.983237
1.04215
0.794044
0.800232
0.8769
0.641628
0.764002
0.755019
0.692809
0.476632
0.515935
0.638257
0.620586
1.05818
0.846433
0.909662
0.943118
0.663319
0.906238
0.9507
0.825044
1.02772
0.856214
0.854369
0.928554
0.665073
0.965651
0.949698
0.936625
0.893126
1.01101
0.973781
0.908401
0.76922
0.598469
0.763711
1.07889
0.975093
0.969059
0.776556
1.19698
1.018
1.00486
1.1507
0.820121
0.774539
1.03263
0.927797
1.36333
0.978648
0.963901
1.15632
0.918217
0.826898
0.737519
0.765559
0.889573
0.897797
0.802939
0.652533
0.730049
0.726205
0.919609
0.824361
0.902863
0.988753
0.67986
0.908855
0.8791
0.835199
0.639066
0.931989
0.803044
0.764134
0.714925
0.831111
0.885265
0.77317
0.971653
0.935874
0.504116
1.10312
1.13472
0.733351
0.583089
0.674666
0.866253
0.817016
1.00933
0.894507
0.7786
0.666745
0.816458
0.977107
0.929484
0.902321
0.835874
0.995787
1.11398
0.861117
0.853766
0.857233
0.797569
0.825871
0.933377
0.931158
0.90483
0.816764
0.943919
0.852832
0.846876
0.971323
0.851345
0.856394
0.89353
1.00258
0.868441
0.987678
0.801317
0.897655
0.979396
0.882426
0.807903
0.998391
0.847634
1.16715
1.21273
0.80705
0.867625
0.848769
0.862128
1.00543
1.12815
0.703321
1.06975
1.01168
0.705174
0.710058
0.731344
0.559678
0.907001
0.796742
0.803812
0.712426
0.870618
0.598618
0.926337
0.892485
0.89144
0.813546
0.874284
0.908121
0.955802
0.978449
0.949408
0.97659
0.960854
0.972481
0.919662
0.954614
0.93212
0.864152
0.975842
0.896529
0.948924
0.940829
0.942269
1.02817
1.02796
0.992839
0.95127
0.985249
0.971962
0.679349
0.621435
0.681672
0.725834
0.870642
0.868287
0.947286
0.516897
0.794276
0.87455
0.609104
0.575812
0.82608
0.8489
1.00442
1.05433
0.928147
1.062
1.00821
1.05856
0.810753
1.02127
0.904214
0.921179
0.915097
1.02614
0.609316
0.985747
0.819898
0.791519
1.33852
1.04295
1.23335
1.09217
1.04355
0.977943
0.995295
1.00975
1.02244
1.00494
1.14169
0.882811
0.803658
1.12248
1.01473
1.14421
0.838654
0.777612
0.844059
0.878593
0.842549
0.793542
1.01551
0.881801
1.09541
1.16228
0.935037
1.04444
1.08245
1.26445
1.19779
1.02385
1.10802
1.13919
1.15463
1.05881
0.880763
0.926525
0.90648
1.08284
1.11774
1.03376
0.987665
0.975966
1.02459
0.93386
1.05001
0.965052
0.751937
0.834911
0.818911
0.824725
0.906395
0.666157
0.661148
0.757005
0.777497
0.765327
0.813996
0.850879
0.991027
0.934082
0.915481
0.9005
0.90691
0.831265
0.901521
0.764327
0.879952
0.841769
0.617268
0.918074
0.657886
0.634287
0.733908
0.770197
0.767856
0.656696
0.638698
0.842073
0.698962
0.806476
0.643567
0.726772
0.830426
0.912689
0.830205
0.903146
0.844144
0.910331
0.821739
0.903445
0.809506
0.825977
0.791708
0.886674
0.899253
0.527089
1.02611
1.00894
0.731579
0.884702
0.610182
0.943692
0.952056
0.819835
0.884309
0.699608
0.903814
0.91939
0.759416
0.657245
1.10572
0.721038
0.677862
0.744728
0.622488
0.601093
0.582328
1.0349
0.965671
0.99126
0.94162
0.92713
0.843379
0.746877
0.771445
0.768275
0.794195
0.701922
0.73761
0.766707
0.782103
0.744834
0.764268
0.798322
0.947126
0.912616
0.98356
0.717552
0.984084
0.868425
1.1918
1.04053
0.761772
0.830624
0.817904
0.774661
0.894324
0.537241
0.990972
0.921803
0.598446
0.856827
0.702119
1.27727
1.3117
0.99588
1.13527
0.967795
1.27698
1.06428
0.802595
0.752074
0.846222
0.523924
0.640205
0.632206
0.633352
0.600262
0.544508
1.00334
1.00779
0.924343
0.74488
0.881082
0.881521
0.846846
0.853163
0.778661
0.936022
1.03384
1.01376
0.911483
0.917772
0.825053
0.944621
0.986792
0.763101
0.798478
0.778284
0.76057
0.701046
0.720207
0.716171
0.762525
0.562912
0.941753
0.834935
0.922213
0.960731
0.935427
0.954048
0.990613
0.966736
0.99497
0.89384
0.894256
0.898467
0.845051
0.855632
0.91147
0.78541
0.845404
0.811489
1.0394
1.00429
1.08831
0.929901
0.869629
0.906838
0.902678
0.868144
0.866168
0.841063
0.850032
0.808434
0.984021
0.886829
0.87766
0.945547
0.964776
0.884092
0.901238
0.707414
0.74556
0.689996
1.05985
1.00155
0.860253
0.933196
0.821524
0.935511
0.839643
0.9517
0.841221
0.928387
0.651016
0.964363
0.727753
1.02929
0.85282
0.933156
0.791313
0.957986
0.730348
0.873122
0.938351
0.759942
0.808589
0.906562
0.856094
0.92413
0.964688
0.999896
0.865741
0.866482
0.862057
0.911361
0.861305
0.84179
0.885028
0.833775
0.88444
0.895751
0.946449
0.991966
0.953867
0.958104
0.844009
0.940791
0.817535
0.971087
0.95168
0.902988
0.866883
1.01129
0.981363
0.984307
0.83365
0.824383
0.924021
0.862951
0.816746
0.915175
0.940972
0.77993
0.795275
0.774804
1.02829
0.918791
1.16502
0.783868
0.810178
0.837708
0.879163
0.882141
0.880965
0.976158
1.02232
0.988581
0.985457
1.0382
0.83935
0.800457
1.14328
0.907363
0.848739
1.09379
1.17441
0.981822
0.849923
1.02224
1.14439
0.811464
1.12269
1.15229
1.08545
1.22329
1.04926
0.766065
0.852305
0.835467
0.900944
0.785534
0.878922
0.823564
0.89256
0.831488
0.880255
0.647596
0.838203
0.73231
0.777146
0.797958
0.919711
0.854822
0.913007
0.949449
0.932483
0.992976
0.944196
1.10051
1.04202
1.15373
1.13472
0.97591
0.980454
0.861889
0.676666
0.753451
0.696314
0.679
0.977535
1.19882
1.10051
0.831934
0.949734
1.07551
0.84719
0.624537
0.97536
1.19675
1.00054
0.982378
0.878452
0.730217
0.640533
0.693101
0.714593
0.747469
0.987197
0.885711
0.729119
0.758427
0.800664
0.759183
0.763552
0.649245
0.821442
0.69471
0.699851
0.766108
0.770453
0.952804
0.388372
0.72435
0.90665
0.581157
0.751344
0.679267
0.677384
0.830361
0.876755
0.831046
0.912726
0.824545
0.856171
0.741971
0.84295
0.808168
0.881634
0.65423
0.850849
0.67866
0.686958
0.710792
0.916257
0.772845
0.887909
SCALARS Redistribution_Potential double 1
LOOKUP_TABLE default
-2.74104e-09
-0.719652
0.428085
0.110204
0.0532578
-0.515442
-0.056354
-0.0399562
-0.56098
-0.554403
0.280942
0.196483
0.0978052
-0.110645
-0.323371
-0.7056
-0.384527
-0.421285
0.151286
0.257413
0.293332
0.303984
-0.674133
-0.818999
0.169614
-0.293612
0.365886
0.40645
-0.0929719
0.159682
-0.73437
-0.474087
-0.121223
-0.264972
0.165621
0.396634
0.321662
0.270412
0.0537044
-0.313191
-0.177884
-0.53944
0.0412513
-0.0865901
-0.171365
0.0610156
-0.00435471
0.147908
-0.442452
-0.225789
-0.329758
-0.368062
-0.174151
-0.63234
-0.537607
-0.560367
-0.577016
-0.728128
-0.10659
0.110886
-0.595112
-0.383081
0.0780824
-0.113598
-0.225024
0.267234
0.172765
0.177385
0.256225
0.312908
0.330909
0.281302
0.197997
0.305572
0.28603
0.232728
0.262645
-0.812651
-0.811552
-0.630729
-0.746106
-0.72939
-0.777482
-0.647305
-0.215741
-0.424396
0.182584
0.0187104
-0.120667
-0.0504487
0.124832
0.34867
0.296826
0.304408
0.344765
0.452125
0.413015
0.426087
0.193314
0.237446
-0.0576668
0.109938
0.0441119
0.0473946
-0.112378
-0.458773
-0.278711
-0.750615
-0.630166
-0.567352
-0.625548
-0.674453
0.0277143
0.0386789
0.160156
-0.417219
-0.187101
-0.322457
0.120056
-0.0189903
-0.105352
0.280515
0.215243
0.264212
0.292638
0.398642
0.388244
0.444215
0.210972
0.0975451
0.379293
0.319815
-0.0123656
0.16787
0.110985
-0.0526817
-0.00710352
-0.18781
-0.136297
-0.372768
-0.272108
-0.436557
-0.116033
-0.555977
-0.335402
-0.305699
-0.547877
-0.305745
-0.500289
-0.505566
0.44517
0.343049
0.332853
0.204598
0.34918
0.270421
-0.428957
-0.259638
-0.274875
-0.723585
-0.704948
-0.80166
0.0158293
-0.0544487
-0.0829998
0.0135589
-0.0255838
0.0742039
-0.248875
-0.131413
-0.205701
0.133631
0.104523
0.172145
-0.0609213
0.0289457
-0.0182314
0.123189
0.0757696
0.0510933
-0.489613
-0.382187
-0.435751
-0.276633
-0.335943
-0.37916
-0.223216
-0.274755
-0.174886
-0.0413259
-0.1099
-0.155041
-0.185107
-0.0803032
-0.355549
-0.274035
-0.27859
-0.283226
-0.380982
-0.57577
-0.5442
-0.627449
-0.593605
-0.677642
-0.493668
-0.430526
-0.65826
-0.656278
-0.727947
-0.481829
-0.575575
-0.471799
-0.725465
-0.65981
-0.65321
-0.455169
-0.562259
-0.469059
-0.0350155
0.0584182
-0.260759
-0.13564
0.144862
0.0205503
0.0502485
-0.657668
-0.580397
-0.400035
-0.49279
-0.502081
-0.481229
-0.379519
0.018768
-0.0598007
-0.123791
0.0429664
-0.00942657
0.13096
-0.329302
-0.167109
-0.290956
-0.247217
-0.264488
-0.0881989
0.148954
0.10222
0.224126
0.202867
0.242314
0.232967
0.28859
0.0836636
0.138902
0.273349
0.223444
0.227441
0.188525
0.218071
0.296535
0.30679
0.281684
0.326527
0.327284
0.313545
0.274031
0.309884
0.30148
0.277829
0.308641
0.313771
0.108028
0.247597
0.185411
0.130718
0.147624
0.296577
0.299544
0.292618
0.298121
0.308374
0.298699
0.288724
0.213481
0.236908
0.1703
0.192019
0.288301
0.247383
0.274805
0.257313
0.266479
0.218258
-0.783289
-0.776489
-0.76922
-0.782134
-0.828534
-0.820536
-0.826941
-0.578457
-0.644224
-0.721717
-0.695686
-0.662459
-0.700946
-0.74037
-0.643299
-0.693762
-0.606967
-0.806436
-0.763747
-0.78672
-0.668653
-0.721182
-0.731211
-0.788013
-0.772988
-0.809914
-0.382557
-0.473645
-0.166677
-0.267656
-0.373382
-0.320585
-0.261518
0.19056
0.117882
0.0910639
0.101154
0.177613
0.0345348
-0.0474148
-0.0230145
0.00881121
0.0920267
-0.172662
-0.094246
-0.214703
0.153114
0.0437179
0.0653979
-0.0863575
-0.0150415
-0.129063
0.282021
0.252354
0.323336
0.307079
0.35345
0.331154
0.37541
0.288316
0.306537
0.356558
0.326766
0.330579
0.31997
0.328196
0.445118
0.443837
0.430988
0.417387
0.439387
0.438535
0.413466
0.431351
0.396157
0.357011
0.379165
0.387911
0.253803
0.264337
0.226876
0.24271
0.202306
0.214064
0.166021
-0.036272
0.0625593
0.0132826
0.0333256
-0.0702105
0.144722
0.194425
-0.0130168
-0.0318963
-0.0906321
0.104852
0.0330647
0.107925
-0.113911
-0.0352489
-0.0193808
0.163939
0.0776814
0.132505
-0.260824
-0.163774
-0.445869
-0.356834
-0.385988
-0.377929
-0.472846
-0.73913
-0.685245
-0.698017
-0.699542
-0.750894
-0.61405
-0.533464
-0.57689
-0.628193
-0.618445
-0.557425
-0.605633
-0.534279
-0.707496
-0.664726
-0.683258
-0.544108
-0.630479
-0.551427
0.0763204
0.0970022
0.13885
-0.0333864
0.0355613
-0.0381084
0.169122
0.106503
0.10297
-0.486252
-0.379392
-0.440638
-0.233695
-0.300851
-0.352051
-0.216068
-0.257525
-0.142057
0.0872512
0.0161099
-0.0192682
0.0843237
0.0479523
0.152265
-0.189126
-0.0640365
-0.147954
-0.057242
-0.103985
0.0182295
0.199199
0.170954
0.232345
0.224436
0.268292
0.255164
0.307662
0.172947
0.193987
0.347968
0.279343
0.338553
0.216386
0.231061
0.420126
0.42692
0.440451
0.364196
0.401721
0.363503
0.430884
0.420063
0.399438
0.297698
0.357276
0.341954
0.164086
0.111196
0.272191
0.220346
0.0788278
0.155019
0.13702
0.40911
0.39243
0.298829
0.348996
0.329068
0.362548
0.328522
-0.0420779
0.0549432
0.0179405
0.110309
0.0805013
0.0268422
0.19296
0.144816
0.220057
0.272232
0.251645
0.196955
0.0452792
0.0530639
-0.000189734
0.0254365
-0.0838947
-0.0274504
-0.114545
-0.121745
-0.107036
-0.22732
-0.171965
-0.252377
-0.0745208
-0.0335222
-0.488763
-0.416999
-0.508699
-0.221339
-0.326543
-0.269537
-0.382526
-0.360323
-0.302736
-0.0897101
-0.200805
-0.154303
0.0133444
-0.133608
-0.0582389
-0.0387804
-0.109912
-0.562275
-0.471875
-0.430708
-0.455227
-0.546589
-0.355475
-0.242734
-0.437247
-0.548305
-0.212457
-0.310543
-0.543604
-0.418208
-0.424137
-0.209038
-0.311089
-0.19758
-0.124033
-0.290995
-0.215221
-0.219926
-0.314061
-0.541443
-0.598024
-0.577861
-0.470391
-0.385131
-0.53939
-0.406624
-0.480856
-0.579558
-0.600042
-0.400226
-0.510859
-0.410093
0.454313
0.429885
0.449151
0.455012
0.442171
0.211056
0.26707
0.250282
0.304072
0.378563
0.249078
0.381124
0.313888
0.256942
0.261364
0.411918
0.360723
0.419892
0.0711055
0.238823
0.161201
0.125498
0.166765
0.407401
0.374336
0.396108
0.366795
0.316635
0.270806
0.215178
0.245111
0.290881
0.322213
0.286847
0.307588
0.24084
-0.51634
-0.379862
-0.449051
-0.502331
-0.460974
-0.161458
-0.191411
-0.186539
-0.236095
-0.300625
-0.163786
-0.367709
-0.27897
-0.16307
-0.177626
-0.342215
-0.276728
-0.365601
-0.652271
-0.640735
-0.650507
-0.731657
-0.785595
-0.635443
-0.73678
-0.694054
-0.639996
-0.637082
-0.78866
-0.816483
-0.815741
-0.789471
-0.773047
-0.714817
-0.761347
-0.777923
SCALARS CoVolArea double 1
LOOKUP_TABLE default
0.0800318
0.0607513
0.0658032
0.0767999
0.0636503
0.0688229
0.0611073
0.0659335
0.0642363
0.0749239
0.0784333
0.0826067
0.100182
0.101869
0.0992741
0.100919
0.0962062
0.0951484
0.0995725
0.103121
0.106747
0.109237
0.0946526
0.0947897
0.110681
0.107015
0.10308
0.11452
0.112799
0.118156
0.105556
0.100246
0.102965
0.105328
0.109951
0.110139
0.120645
0.109266
0.102978
0.100177
0.0992177
0.0939195
0.10928
0.107141
0.108198
0.0937666
0.108255
0.0988159
0.096237
0.0991576
0.0902853
0.104026
0.103257
0.10285
0.104873
0.0893794
0.0976224
0.0904383
0.11497
0.0886824
0.0873047
0.104555
0.096074
0.118745
0.106776
0.114387
0.0961196
0.0900048
0.11567
0.101349
0.109331
0.100288
0.119644
0.107348
0.116148
0.113065
0.096011
0.102492
0.0983976
0.0966948
0.102604
0.0933594
0.0990255
0.0915584
0.0995351
0.0970523
0.102683
0.105616
0.103433
0.118401
0.0969154
0.117484
0.101175
0.106508
0.111969
0.107067
0.114466
0.100421
0.103967
0.106776
0.0773377
0.0947919
0.104063
0.12158
0.101938
0.100747
0.096325
0.084612
0.0990633
0.0991978
0.10859
0.0938426
0.105823
0.112051
0.105452
0.0941552
0.108174
0.0916419
0.104646
0.116385
0.104377
0.122317
0.101346
0.100013
0.114901
0.108216
0.116594
0.105086
0.116404
0.100781
0.0980137
0.113352
0.102746
0.109485
0.0939254
0.110869
0.0974905
0.0930576
0.106065
0.0952924
0.106714
0.100135
0.109341
0.09161
0.0995967
0.100916
0.0950287
0.102067
0.106117
0.102255
0.108981
0.107637
0.115403
0.105113
0.104178
0.11448
0.110216
0.10753
0.120097
0.100356
0.106815
0.104045
0.0997348
0.104539
0.102935
0.106239
0.100075
0.102831
0.104287
0.102242
0.107662
0.0970936
0.0979559
0.0974368
0.105305
0.0979622
0.0934682
0.0971472
0.0986925
0.105706
0.0839551
0.0905531
0.082115
0.100038
0.0927275
0.093962
0.0913214
0.0883991
0.0989943
0.118193
0.114097
0.115409
0.106435
0.100661
0.106745
0.103888
0.105286
0.101229
0.0989954
0.0942639
0.0949317
0.0974938
0.0975387
0.0979508
0.0996105
0.103214
0.081556
0.0878192
0.0839789
0.0940896
0.0856501
0.0851257
0.0907868
0.0831554
0.095932
0.115156
0.110466
0.109528
0.0988736
0.0963126
0.113496
0.109135
0.0898556
0.0945098
0.101627
0.0741702
0.0863698
0.099552
0.0949061
0.0929021
0.0913752
0.100498
0.0835861
0.097557
0.091665
0.102077
0.0965109
0.0971157
0.103222
0.107953
0.113134
0.123768
0.127918
0.127922
0.0936066
0.0933827
0.11334
0.0973134
0.102095
0.0998631
0.110114
0.0824998
0.0938683
0.110454
0.101738
0.0953321
0.102898
0.111444
0.0978901
0.101808
0.0961984
0.107449
0.0959868
0.0943766
0.0959762
0.0978678
0.107886
0.13023
0.125405
0.126695
0.10474
0.11808
0.10687
0.10912
0.109361
0.104849
0.107714
0.115115
0.107745
0.104219
0.101739
0.111543
0.0968713
0.0925567
0.109548
0.101624
0.101447
0.100681
0.111326
0.131869
0.127309
0.129126
0.0971817
0.0835758
0.107104
0.0974201
0.0998837
0.0996229
0.100211
0.100282
0.105967
0.0982816
0.0974429
0.0876907
0.103284
0.104971
0.0930889
0.0944499
0.0925961
0.0936377
0.0904061
0.0855462
0.0905952
0.0918752
0.100972
0.110141
0.10897
0.106016
0.092394
0.0924892
0.102111
0.0891648
0.0987987
0.0915549
0.108873
0.094306
0.0958708
0.114871
0.100637
0.108753
0.093381
0.103664
0.0874947
0.102701
0.0885388
0.112755
0.111378
0.100159
0.100569
0.108651
0.119174
0.115212
0.122303
0.118932
0.0983631
0.0934556
0.113376
0.105976
0.111403
0.108298
0.119757
0.108184
0.107274
0.110236
0.104313
0.102491
0.104329
0.111298
0.0951938
0.106418
0.0958746
0.116415
0.104075
0.101959
0.0944192
0.100786
0.109872
0.126961
0.124948
0.13017
0.103857
0.102915
0.104429
0.0981669
0.110443
0.103012
0.11452
0.0782973
0.0802469
0.0987863
0.0810826
0.0916056
0.0871299
0.100348
0.0851793
0.101342
0.0873231
0.123021
0.113041
0.110827
0.110089
0.112151
0.118292
0.111343
0.117505
0.120252
0.0999171
0.0877289
0.0992148
0.099062
0.0998601
0.0988984
0.100461
0.080387
0.0815651
0.0986275
0.0852938
0.088999
0.0932591
0.097331
0.088697
0.0978693
0.0893643
0.100496
0.0989162
0.0946959
0.0987388
0.0988913
0.110398
0.109421
0.114305
0.111731
0.0956838
0.105119
0.0943358
0.109701
0.104399
0.103977
0.106088
0.104442
0.111399
0.0935736
0.0939151
0.0910235
0.106849
0.0953707
0.097996
0.091267
0.09499
0.107965
0.0903129
0.101382
0.0892486
0.110961
0.103869
0.10662
0.1005
0.105887
0.112643
0.125973
0.12814
0.12738
0.10359
0.0933429
0.118823
0.110171
0.111947
0.110728
0.125409
0.0927262
0.100244
0.113634
0.104612
0.103943
0.105612
0.114644
0.0977911
0.111101
0.0968284
0.121101
0.10743
0.10532
0.0986234
0.105284
0.112451
0.131673
0.127218
0.134092
0.101986
0.101433
0.119197
0.108206
0.100899
0.105298
0.112819
0.0894295
0.101028
0.11214
0.102096
0.102117
0.102244
0.114701
0.0890837
0.0991636
0.0855972
0.109538
0.101654
0.0996131
0.0973448
0.095914
0.107876
0.128579
0.125412
0.125661
0.100716
0.0957568
0.107276
0.101007
0.100154
0.101854
0.107495
0.0854425
0.0941302
0.0991541
0.091659
0.08999
0.100059
0.105381
0.0941291
0.100609
0.0946687
0.102166
0.0908716
0.0876567
0.0937936
0.0917899
0.103548
0.122745
0.120621
0.123076
0.100807
0.105766
0.101304
0.106835
0.109534
0.0878302
0.0934443
0.0896861
0.0876064
0.0894468
0.0917694
0.103138
0.0921003
0.0903235
0.100381
0.0919494
0.0954217
0.0946608
0.095345
0.118215
0.111595
0.117344
0.0983977
0.102583
0.0957068
0.0978127
0.102986
0.0969049
0.101628
0.0921156
0.0955102
0.10878
0.101327
0.103931
0.0978539
0.0930632
0.0984363
0.116822
0.115505
0.112505
0.10717
0.111564
0.100106
0.10344
0.109217
0.0992997
0.104627
0.0966727
0.100283
0.113425
0.0995631
0.116777
0.109559
0.109951
0.110347
0.122635
0.120454
0.121739
0.0941965
0.109776
0.0940068
0.0980388
0.109601
0.100141
0.102604
0.0971205
0.100429
0.108044
0.111355
0.119295
0.111095
0.108886
0.107203
0.117051
0.115249
0.121098
0.100993
0.106471
0.0967367
0.096911
0.109985
0.0957687
0.115997
0.0997874
0.0959666
0.101651
0.0859838
0.113744
0.102153
0.0986969
0.118576
0.119726
0.127356
0.126676
0.0960453
0.101365
0.0948617
0.0913606
0.0968828
0.095579
0.108675
0.0952933
0.0974481
0.103065
0.0942077
0.100411
0.10129
0.0974547
0.105892
0.113044
0.115237
0.109562
SCALARS SignedDistance double 1
LOOKUP_TABLE default
2.01829
2.31832
1.57203
1.58592
1.94752
2.49676
2.08765
2.13896
2.22668
2.08454
2.1597
1.68794
1.73369
1.96864
2.18079
2.53142
1.9684
2.0241
1.74229
1.79635
1.71254
1.83517
2.28731
2.3184
2.08452
2.23736
1.91702
1.80055
2.53699
2.30281
2.4354
2.55652
1.65909
1.97885
1.64153
1.59057
1.83422
1.76019
1.79313
2.19717
1.83196
2.12161
1.92821
1.91615
2.14061
1.76707
1.79108
1.68131
2.32448
2.05218
2.25418
2.1501
2.00144
2.5377
2.42508
2.12333
2.24206
2.42307
1.95295
1.86012
2.11226
1.9082
1.8847
1.97182
2.11449
1.53304
1.79836
1.87275
1.54471
1.89657
1.6368
1.91977
1.84222
1.98716
1.92577
1.75236
1.75964
2.42613
2.48302
2.39795
2.39943
2.19858
2.28309
2.17928
2.23471
2.43526
1.87856
1.94034
2.06339
2.22694
2.09739
1.76332
1.83175
1.999
1.87397
1.67488
1.80991
1.66542
2.14984
2.27413
2.34561
2.16095
2.17771
2.4177
2.27912
2.23762
2.37668
2.39169
2.24128
2.38655
2.48706
2.32558
1.54053
1.65156
1.61617
2.04094
1.89255
1.90974
1.77237
1.82488
1.9421
1.73631
1.74831
1.70686
1.61495
1.69307
1.74193
1.5686
1.73233
1.71724
1.67278
1.69219
1.98461
1.8007
1.97987
1.85219
1.63806
2.14788
2.00304
2.09721
2.07524
2.21686
1.64696
2.15466
1.95651
1.86428
2.08661
2.08126
2.1404
2.28277
1.58665
1.79158
1.90874
2.0714
1.8647
2.09229
2.37392
2.29353
2.58729
2.22317
2.24942
2.38357
2.01644
2.01593
2.09629
1.81054
1.90311
1.80168
2.14081
2.00964
2.04672
1.71641
1.69846
1.6619
1.86428
1.76565
1.84734
1.70032
1.72093
1.74669
2.41758
2.2721
2.39146
2.10527
2.18363
2.23526
2.1135
2.13683
2.00951
1.83795
1.91109
1.96745
2.08763
2.05924
2.25305
2.1651
1.94551
2.05481
2.03411
2.53286
2.48164
2.47978
2.53559
2.54236
2.40031
2.32829
2.23407
2.27164
2.36573
2.09298
2.17902
2.03575
2.4803
2.32787
2.39595
2.27764
2.32668
2.16493
2.04081
1.93946
1.8996
1.95389
1.79151
2.00444
1.95354
2.20751
2.11332
1.94744
1.99836
2.04137
2.01438
1.93681
2.01055
2.07912
2.19365
1.93108
2.00158
1.7751
2.04613
2.01291
1.95039
1.86584
1.87738
1.95958
1.79846
1.88729
1.58078
1.67549
1.72449
1.66692
1.59405
1.99229
1.83061
1.63856
1.66157
1.79659
1.6809
1.58567