<VTKFile type="ImageData" version="1.0" byte_order="LittleEndian" header_type="UInt64">
	<ImageData WholeExtent="0 44 0 44 0 44" Origin="-84.1628 -1.8668 -63.0868" Spacing="3.3334 3.3334 3.3334">
		<Piece Extent="0 44 0 44 0 44">
			<PointData Scalars="Scalars_">
				<DataArray type="Float32" Name="Scalars_" format="ascii" RangeMin="0" RangeMax="100">
78.5955
76.5558
74.549
72.5725
70.6248
68.7074
66.8254
64.9885
63.2093
61.5027
59.8851
58.3727
56.9813
55.7254
54.6186
53.6726
52.8975
52.3007
51.883
51.6366
51.633
51.921
52.3386
52.8478
53.4138
53.9798
54.5018
55
55.5306
56.1424
56.8628
57.7044
58.67
59.7577
60.9623
62.2773
63.6941
65.2034
66.7938
68.4544
70.1716
71.9328
73.7271
75.5459
77.3845
77.4216
75.3532
73.3168
71.3097
69.3299
67.3796
65.4633
63.5913
61.776
60.033
58.3789
56.8305
55.4041
54.1151
52.9775
52.0046
51.2068
50.5926
50.1635
49.9125
49.9089
50.2029
50.6233
51.1308
51.6919
52.2505
52.7658
53.265
53.8031
54.4255
55.1582
56.0135
56.9939
58.0973
59.3186
60.6513
62.0864
63.6146
65.2247
66.9045
68.6405
70.4203
72.2329
74.0694
75.9258
76.3717
74.2765
72.2126
70.1768
68.1672
66.1857
64.2375
62.3321
60.4829
58.7053
57.0164
55.4336
53.9738
52.6525
51.4853
50.4859
49.666
49.0347
48.5948
48.3393
48.3355
48.6352
49.0535
49.5503
50.0975
50.6406
51.1458
51.6455
52.1911
52.8233
53.5666
54.4331
55.4256
56.542
57.7773
59.125
60.5763
62.1216
63.7493
65.4469
67.2013
68.999
70.8291
72.6831
74.5565
75.4528
73.3334
71.2445
69.1822
67.1457
65.1357
63.1581
61.2225
59.3417
57.5321
55.8109
54.1959
52.7043
51.3531
50.1576
49.1328
48.2918
47.6441
47.194
46.9341
46.9304
47.2342
47.6419
48.1131
48.6328
49.1513
49.6434
50.1444
50.6977
51.3387
52.0908
52.9659
53.9674
55.0939
56.3405
57.7006
59.1659
60.7265
62.3705
64.0852
65.857
67.6725
69.5199
71.3914
73.2821
74.6725
72.5324
70.4215
68.3361
66.2755
64.2404
62.2367
60.2738
58.365
56.5266
54.7764
53.1322
51.612
50.2331
49.012
47.9641
47.1031
46.4403
45.9806
45.717
45.7131
46.0177
46.3969
46.8176
47.2927
47.7779
48.2564
48.7607
49.3229
49.9723
50.7311
51.612
52.6197
53.7532
55.0086
56.3794
57.8571
59.4317
61.0913
62.8226
64.6118
66.4447
68.3098
70.1988
72.1067
74.0405
71.8829
69.7532
67.6488
65.568
63.5121
61.4862
59.5002
57.5674
55.7044
53.9291
52.2598
50.7149
49.3121
48.0684
47
46.1217
45.4456
44.9774
44.7104
44.7063
45.003
45.3146
45.6456
46.0601
46.5086
46.9769
47.4884
48.0623
48.7204
49.4846
50.3692
51.3806
52.5194
53.7821
55.1626
56.6521
58.2403
59.9152
61.6633
63.4698
65.3205
67.2034
69.11
71.0358
73.5654
71.396
69.2526
67.1334
65.0371
62.9647
60.9215
58.9176
56.9661
55.0839
53.2889
51.5995
50.035
48.6132
47.3513
46.2665
45.3741
44.6868
44.2119
43.9423
43.9374
44.1959
44.3531
44.5541
44.9067
45.3258
45.793
46.3184
46.9077
47.5764
48.3459
49.2337
50.2485
51.3923
52.6624
54.0526
55.5544
57.1569
58.8476
60.6125
62.4367
64.3055
66.2067
68.1308
70.0739
73.2474
71.0891
68.9391
66.8105
64.7039
62.6209
60.5667
58.551
56.5875
54.6926
52.8844
51.1821
49.6045
48.1697
46.896
45.8001
44.8982
44.2038
43.724
43.4526
43.441
43.537
43.4036
43.49
43.8071
44.2161
44.6946
45.2406
45.8508
46.5337
47.3113
48.2041
49.2241
50.375
51.6543
53.0559
54.5711
56.1885
57.8956
59.6776
61.5192
63.4058
65.3248
67.2666
69.2265
72.9102
70.9768
69.0289
67.0321
64.9723
62.8986
60.8532
58.846
56.8898
55.0011
53.1977
51.4981
49.9205
48.4822
47.1996
46.0884
45.1623
44.4317
43.9002
43.539
43.2252
42.7556
42.3788
42.4462
42.764
43.1824
43.6817
44.254
44.8904
45.5934
46.3838
47.2862
48.3155
49.4766
50.768
52.1832
53.7128
55.3456
57.0685
58.8665
60.7247
62.6281
64.5637
66.522
68.4983
71.9038
70.0866
68.3317
66.6224
64.9226
63.1692
61.2918
59.3178
57.3739
55.4956
53.7008
52.0075
50.4333
48.9942
47.7053
46.5791
45.6196
44.8031
43.9994
43.1602
42.3763
41.7383
41.3278
41.4674
41.807
42.2451
42.7686
43.3699
44.0379
44.7672
45.5774
46.4954
47.5388
48.714
50.0196
51.4489
52.9926
54.639
56.3754
58.1872
60.0593
61.977
63.9276
65.9014
67.8927
70.7848
68.9688
67.2344
65.5836
64.0143
62.5157
61.0567
59.5676
57.9385
56.1448
54.3707
52.6845
51.1086
49.6529
48.3135
47.0538
45.768
44.4892
43.2987
42.2551
41.3961
40.7491
40.3443
40.5802
40.9573
41.4225
41.9706
42.6023
43.3061
44.0698
44.9089
45.8502
46.9131
48.1053
49.4254
50.8672
52.4217
54.0779
55.823
57.6435
59.5251
61.4539
63.417
65.4044
67.4108
69.7495
67.9185
66.1715
64.5125
62.9463
61.4745
60.0953
58.7975
57.5491
56.2829
54.9018
53.3449
51.6591
49.946
48.2391
46.5897
45.0455
43.6402
42.3977
41.338
40.4799
39.8428
39.4515
39.769
40.2022
40.7101
41.2867
41.9477
42.6891
43.4964
44.3772
45.3535
46.4434
47.6554
48.9891
50.4395
51.9988
53.657
55.4035
57.226
59.1122
61.049
63.0236
65.0257
67.0478
68.8288
66.9834
65.2223
63.5503
61.9727
60.4922
59.1095
57.8184
56.5974
55.3944
54.1151
52.6611
51.0145
49.2578
47.4976
45.8122
44.2472
42.8305
41.5829
40.5233
39.6712
39.0468
38.6737
39.037
39.5293
40.096
40.7115
41.3977
42.1657
43.0117
43.9388
44.9589
46.0832
47.3182
48.6648
50.1198
51.6781
53.3328
55.0759
56.8978
58.7878
60.7344
62.7248
64.7475
66.7929
68.0297
66.1722
64.3997
62.7174
61.1301
59.642
58.2541
56.9624
55.7495
54.5697
53.3336
51.9327
50.3286
48.5922
46.836
45.1467
43.5761
42.1553
40.9067
39.8509
39.009
38.4033
38.058
38.4226
38.9382
39.5549
40.221
40.9287
41.7027
42.5586
43.5056
44.5512
45.7011
46.9585
48.3227
49.7913
51.36
53.0231
54.7745
56.6067
58.511
60.4777
62.4962
64.5551
66.6442
67.3561
65.4897
63.7092
62.0197
60.4265
58.9338
57.5436
56.2537
55.0491
53.8898
52.6916
51.3407
49.78
48.0682
46.3208
44.6324
43.0605
41.6389
40.3922
39.3422
38.5124
37.9279
37.6184
37.9586
38.4509
39.0825
39.7857
40.513
41.2968
42.1705
43.1455
44.2229
45.4017
46.6818
48.0634
49.5449
51.1237
52.7956
54.5557
56.3975
58.3142
60.2978
62.3397
64.4299
66.5585
66.8117
64.9398
63.1547
61.4619
59.8667
58.3735
56.9851
55.7001
54.5062
53.3675
52.2046
50.9007
49.3839
47.7009
45.968
44.2862
42.7181
41.3004
40.0586
39.0149
38.193
37.6185
37.3227
37.6625
38.1098
38.7219
39.4343
40.1894
41.003
41.9083
42.921
44.0407
45.2611
46.5765
47.9834
49.4801
51.0653
52.7373
54.4938
56.3308
58.2438
60.2271
62.2744
64.3784
66.5303
66.4013
64.527
62.7407
61.0477
59.454
57.9646
56.5827
55.3077
54.1295
53.0153
51.8887
50.628
49.1508
47.4969
45.7831
44.1147
42.5581
41.1525
39.9241
38.895
38.087
37.522
37.2233
37.5382
37.9345
38.5275
39.2593
40.0684
40.945
41.9033
42.954
44.0991
45.336
46.6615
48.0733
49.5702
51.1506
52.8128
54.5545
56.373
58.2647
60.2261
62.2535
64.343
66.4904
66.1243
64.2477
62.4599
60.7672
59.1754
57.691
56.3183
55.0599
53.9109
52.8477
51.8033
50.6476
49.2617
47.6613
45.9695
44.3083
42.7541
41.3484
40.1171
39.0818
38.2634
37.6817
37.3561
37.5998
37.9627
38.5467
39.2916
40.1366
41.0553
42.0471
43.119
44.2756
45.5175
46.8429
48.2493
49.7348
51.2973
52.9354
54.6479
56.4337
58.2917
60.2206
62.2191
64.285
66.4157
65.866
63.9594
62.1401
60.4157
58.7947
57.2848
55.8944
54.6308
53.4983
52.4925
51.5815
50.6576
49.5007
47.9798
46.3237
44.6834
43.1422
41.7445
40.5173
39.483
38.663
38.0779
37.7477
37.9698
38.356
38.9357
39.6568
40.4711
41.3635
42.3386
43.4028
44.5578
45.801
47.1279
48.5338
50.0156
51.5712
53.1998
54.9014
56.6761
58.5234
60.4425
62.4319
64.4896
66.6126
65.0391
63.0358
61.1212
59.3048
57.5965
56.0068
54.5466
53.2276
52.0612
51.0582
50.2254
49.5576
48.9936
48.3051
46.8521
45.251
43.7348
42.3549
41.1398
40.1133
39.2978
38.7141
38.3822
38.58
38.9695
39.5318
40.2197
40.9989
41.8635
42.8193
43.8715
45.0184
46.2555
47.5766
48.9755
50.4487
51.9941
53.6114
55.3012
57.0637
58.899
60.8063
62.7845
64.8312
66.944
63.4778
61.382
59.3784
57.477
55.6877
54.0221
52.4926
51.1123
49.8952
48.856
48.0105
47.3765
46.9784
47.1825
47.1034
46.004
44.5241
43.1705
41.9748
40.9624
40.1563
39.577
39.2446
39.4131
39.7905
40.327
40.98
41.7264
42.5649
43.501
44.5364
45.6684
46.8907
48.1967
49.58
51.037
52.5661
54.1674
55.8414
57.5885
59.4091
61.3026
63.2671
65.3009
67.401
61.6552
59.4897
57.4166
55.446
53.5886
51.8562
50.2622
48.8207
47.5469
46.458
45.5716
44.9089
44.4976
44.7894
45.3323
45.9297
45.4917
44.1741
43.005
42.0124
41.2197
40.6479
40.3162
40.4508
40.8076
41.3149
41.9339
42.6499
43.4631
44.3769
45.3907
46.5
47.6987
48.98
50.3388
51.7717
53.2781
54.8577
56.5116
58.2401
60.0432
61.9198
63.8688
65.8874
67.9733
59.8496
57.6219
55.485
53.4493
51.526
49.7279
48.0684
46.5633
45.2289
44.0842
43.149
42.4469
42.0091
42.2973
42.8767
43.705
44.7165
45.2285
44.2094
43.2419
42.4669
41.9053
41.5762
41.6738
42.0065
42.4836
43.0703
43.7571
44.5442
45.4326
46.4189
47.4984
48.6651
49.9135
51.2396
52.6415
54.1186
55.6718
57.3013
59.0076
60.7903
62.648
64.579
66.5808
68.6506
58.1368
55.8487
53.6493
51.549
49.5595
47.6941
45.9673
44.3956
42.9973
41.7925
40.804
40.0578
39.5895
39.8575
40.4516
41.3159
42.4172
43.7191
44.9839
44.6293
43.876
43.3279
43.0033
43.0624
43.3707
43.8177
44.3731
45.0306
45.7899
46.6488
47.6025
48.6459
49.774
50.9828
52.2701
53.6352
55.0787
56.6011
58.203
59.8842
61.6439
63.4805
65.3914
67.3744
69.4263
56.5366
54.19
51.9291
49.7646
47.7085
45.7747
43.9787
42.3381
40.8727
39.6044
38.5585
37.7646
37.2629
37.4986
38.1055
39.0023
40.1495
41.5165
43.0745
44.7322
45.4067
44.8945
44.5764
44.5979
44.8828
45.3001
45.8245
46.4515
47.1799
48.0055
48.9222
49.9246
51.0094
52.1743
53.4191
54.7444
56.1512
57.6403
59.2122
60.8658
62.6005
64.4138
66.3032
68.2656
70.2977
55.0583
52.6559
50.3354
48.1079
45.9858
43.9835
42.1173
40.4058
38.8705
37.5352
36.4283
35.583
35.045
35.2343
35.8556
36.7874
37.9823
39.4057
41.0284
42.8246
44.7472
46.2675
46.2758
46.2631
46.5258
46.9132
47.4055
47.9999
48.6943
49.4829
50.3589
51.3176
52.3568
53.4763
54.6777
55.9621
57.3312
58.7859
60.3264
61.9512
63.6591
65.4473
67.3131
69.2531
71.2642
53.7082
51.2539
48.8774
46.5897
44.4036
42.3338
40.3973
38.6141
37.0067
35.6019
34.4305
33.5299
32.9524
33.0783
33.7177
34.6883
35.9345
37.4169
39.1034
40.9668
42.9836
45.1235
47.1502
47.9596
48.2777
48.639
49.0978
49.6567
50.3136
51.0622
51.8956
52.8098
53.8038
54.8789
56.0377
57.2822
58.6145
60.0349
61.5435
63.1388
64.819
66.581
68.4218
70.3379
72.3259
52.4887
49.989
47.5622
45.2192
42.9731
40.8387
38.8337
36.9792
35.2994
33.8229
32.5841
31.6249
31.0042
31.0489
31.7117
32.7253
34.0263
35.5705
37.3224
39.2527
41.3367
43.5525
45.8716
48.1722
49.7527
50.4159
50.8792
51.4037
52.0207
52.7277
53.5183
54.3892
55.3403
56.3739
57.493
58.6999
59.9967
61.3841
62.8615
64.4271
66.0788
67.8136
69.628
71.5189
73.4821
51.3962
48.8604
46.3923
44.0024
41.7032
39.5101
37.4414
35.5186
33.7675
32.2194
30.9115
29.8905
29.2222
29.1705
29.8632
30.9239
32.2825
33.89
35.708
37.7049
39.8545
42.1338
44.5145
46.9204
49.1803
51.0798
52.4052
53.1572
53.7872
54.4633
55.2151
56.0462
56.9583
57.9545
59.0375
60.2102
61.4742
62.83
64.2768
65.8129
67.4362
69.1432
70.9306
72.795
74.7323
50.417
47.8583
45.3621
42.9378
40.5977
38.3566
36.2327
34.2485
32.4312
30.8141
29.4377
28.3532
27.6318
27.4789
28.2061
29.3166
30.7337
32.4044
34.287
36.3482
38.5604
40.8993
43.3332
45.7674
47.9968
49.8071
51.2389
52.5396
53.8893
55.3527
56.6408
57.6652
58.6183
59.6045
60.6629
61.8072
63.0418
64.3682
65.7859
67.2933
68.8883
70.5674
72.3273
74.1645
76.075
49.525
46.9586
44.4512
42.011
39.6482
37.3767
35.2138
33.1821
31.3096
29.6316
28.1917
27.0453
26.2674
26.0213
26.7842
27.9443
29.4183
31.1489
33.092
35.2121
37.481
39.8733
42.3527
44.7994
46.9704
48.6689
50.0189
51.2951
52.6539
54.1431
55.7685
57.5233
59.3727
60.9278
62.2199
63.434
64.6759
65.9872
67.382
68.8634
70.4311
72.0822
73.8146
75.624
77.5071
48.692
46.1282
43.625
41.1887
38.8273
36.5517
34.3767
32.3227
30.4172
28.6964
27.2067
26.0077
25.1781
24.8585
25.6551
26.8604
28.3849
30.1678
32.1625
34.3326
36.6487
39.0848
41.5986
44.036
46.1122
47.6757
48.9453
50.2025
51.5719
53.0833
54.7357
56.5197
58.4243
60.4382
62.5384
64.4736
66.1021
67.572
69.0154
70.4999
72.0522
73.6808
75.3871
77.1692
79.025
47.9121
45.3504
42.8551
40.433
38.0914
35.839
33.687
31.6511
29.7539
28.0283
26.5209
25.2947
24.4342
24.0773
24.8998
26.139
27.7009
29.5216
31.5533
33.7586
36.1077
38.5737
41.106
43.5014
45.4333
46.8386
48.032
49.2752
50.6558
52.1876
53.8638
55.673
57.6033
59.6432
61.7822
64.0102
66.3051
68.4638
70.3453
72.0433
73.6785
75.328
77.0273
78.7906
80.622
47.2164
44.6477
42.1518
39.7373
37.4137
35.1918
33.0838
31.1045
29.2725
27.6138
26.1668
24.9898
24.1731
23.9103
24.7364
25.9809
27.549
29.3767
31.4157
33.6286
35.9852
38.456
40.9718
43.2463
44.9437
46.1659
47.292
48.5262
49.9177
51.4674
53.1638
54.9942
56.9456
59.0063
61.1659
63.4147
65.744
68.1451
70.5898
72.8921
74.9564
76.8413
78.6456
80.4437
82.2758
46.6541
44.0705
41.5626
39.1403
36.8153
34.6007
32.5118
30.566
28.7843
27.192
25.8226
24.7251
23.9835
24.0933
24.9188
26.157
27.7157
29.5325
31.5599
33.7608
36.1049
38.5575
41.0157
43.1017
44.5559
45.6443
46.7346
47.9686
49.3709
50.9349
52.647
54.4933
56.4607
58.5374
60.7124
62.9759
65.3198
67.7361
70.2184
72.7572
75.3036
77.709
79.9084
81.9407
83.8875
46.2844
43.6873
41.1664
38.7324
36.3978
34.1773
32.0879
30.1495
28.3854
26.8233
25.4969
24.4506
23.7538
23.7084
24.5345
25.7789
27.3471
29.1748
31.2139
33.4269
35.7831
38.246
40.7069
42.7766
44.2079
45.2878
46.3812
47.6226
49.0339
50.6074
52.3294
54.1858
56.1632
58.2496
60.4341
62.707
65.0598
67.4848
69.9753
72.5249
75.1277
77.7701
80.3825
82.8616
85.1593
46.4661
43.8557
41.3192
38.8671
36.5128
34.272
32.1638
30.2113
28.4415
26.8863
25.583
24.5751
23.9221
24.1462
24.9884
26.2331
27.7941
29.6106
31.6363
33.8349
36.1759
38.6213
41.0495
43.0724
44.4622
45.5222
46.6082
47.8462
49.2547
50.8254
52.5447
54.3983
56.3727
58.4558
60.6371
62.9069
65.2565
67.6783
70.1655
72.7118
75.3121
77.9593
80.6393
83.317
85.9255
46.9581
44.3658
41.8493
39.42
37.0911
34.8787
32.8021
30.8836
29.1498
27.6313
26.3637
25.3882
24.7603
25.054
25.887
27.1059
28.6338
30.4144
32.4037
34.5663
36.8729
39.2839
41.6723
43.6524
45.0079
46.047
47.1186
48.3437
49.7395
51.2976
53.0041
54.8448
56.8064
58.8773
61.0465
63.3047
65.6431
68.054
70.531
73.0675
75.6585
78.298
80.9802
83.6935
86.4143
47.7006
45.1409
42.6598
40.2688
37.9815
35.8138
33.7846
31.9158
30.2328
28.7646
27.5442
26.6095
26.011
26.3359
27.1466
28.3258
29.8059
31.5352
33.4727
35.5847
37.8424
40.2064
42.5465
44.4828
45.8043
46.8197
47.8724
49.079
50.4557
51.9941
53.6806
55.5014
57.4435
59.4951
61.6456
63.8856
66.2063
68.6003
71.0609
73.5818
76.1578
78.7836
81.4546
84.1642
86.9037
48.6653
46.1481
43.7127
41.3706
39.1355
37.0229
35.0513
33.2416
31.618
30.2073
29.0398
28.1498
27.5829
27.9217
28.7034
29.8359
31.2599
32.9288
34.8047
36.8561
39.055
41.3624
43.6469
45.5358
46.8222
47.8126
48.8433
50.0273
51.3802
52.8941
54.5554
56.3509
58.2677
60.2945
62.4206
64.637
66.935
69.307
71.7464
74.2469
76.8035
79.4108
82.0643
84.7592
87.4911
49.8296
47.3624
44.9801
42.6944
40.5184
38.4676
36.5596
34.8144
33.2545
31.9047
30.7924
29.9483
29.4132
29.7563
30.506
31.5885
32.9526
34.5566
36.3656
38.3502
40.4837
42.7278
44.9504
46.788
48.038
49.0024
50.0092
51.168
52.494
53.9794
55.6117
57.3775
59.2649
61.2626
63.3601
65.5484
67.8191
70.1649
72.5788
75.0552
77.588
80.173
82.8054
85.4804
88.1947
51.1745
48.7626
46.4386
44.2138
42.1015
40.1164
38.2752
36.5969
35.1023
33.8141
32.757
31.9582
31.4542
31.7959
32.5127
33.5449
34.8482
36.3855
38.125
40.0396
42.104
44.2806
46.4364
48.2186
49.4307
50.3688
51.3507
52.4825
53.7794
55.2339
56.8341
58.5675
60.4219
62.3868
64.4523
66.6089
68.8489
71.165
73.5502
75.9983
78.5042
81.0632
83.671
86.3229
89.0151
52.6832
50.3301
48.0675
45.9068
43.8604
41.9427
40.1696
38.5586
37.129
35.9014
34.8979
34.1428
33.6686
34.0055
34.6898
35.6728
36.9162
38.387
40.0567
41.9002
43.8938
46.0004
48.0863
49.8095
50.9824
51.8939
52.8503
53.9543
55.2206
56.6426
58.2087
59.9071
61.7264
63.656
65.6866
67.809
70.0153
72.2988
74.6521
77.0697
79.5458
82.0758
84.656
87.2812
89.9484
54.34
52.0478
49.8487
47.7533
45.7738
43.9239
42.2184
40.6739
39.3078
38.1388
37.1866
36.4729
36.0267
36.3567
37.0096
37.9454
39.131
40.5371
42.1379
43.9108
45.8333
47.869
49.8834
51.5448
52.677
53.5614
54.4923
55.568
56.8033
58.1917
59.7227
61.3846
63.167
65.0594
67.0532
69.1391
71.3094
73.5579
75.8771
78.2616
80.706
83.2048
85.7548
88.3511
90.9907
56.1307
53.9007
51.7656
49.7361
47.8233
46.0405
44.4015
42.9214
41.6163
40.5033
39.5997
38.925
38.5049
38.8267
39.4498
40.3409
41.4711
42.815
44.3491
46.0528
47.9052
49.8703
51.8121
53.4095
54.4994
55.3569
56.2628
57.3104
58.5143
59.8688
61.3637
62.9886
64.733
66.5871
68.5423
70.5901
72.723
74.9347
77.2178
79.5672
81.9775
84.4434
86.9614
89.5268
92.1365
76.2346
74.1811
72.1644
70.1802
68.2251
66.2974
64.3999
62.5402
60.7302
58.9858
57.3247
55.7655
54.3267
53.0248
51.8755
50.8926
50.0876
49.469
49.0379
48.7839
48.7801
49.0789
49.5111
50.0365
50.6162
51.1871
51.7045
52.1978
52.7297
53.3515
54.0905
54.9579
55.9555
57.0798
58.3245
59.6816
61.1409
62.6916
64.3206
66.0147
67.7594
69.5409
71.3483
73.1747
75.018
75.0281
72.9438
70.8956
68.8788
66.8897
64.9268
62.9927
61.0949
59.2458
57.4614
55.7601
54.1613
52.6834
51.3442
50.1601
49.1464
48.3154
47.677
47.2331
46.9739
46.9702
47.276
47.7128
48.2399
48.8189
49.3856
49.8987
50.3945
50.9356
51.5694
52.3227
53.2059
54.2205
55.3632
56.6272
58.0043
59.4843
61.056
62.7064
64.4211
66.1859
67.9867
69.8128
71.6576
73.519
73.9476
71.8347
69.7573
67.7098
65.6889
63.6928
61.7241
59.7905
57.9043
56.0819
54.3422
52.7047
51.1891
49.8137
48.5959
47.5518
46.6954
46.0371
45.581
45.3165
45.3128
45.6254
46.0629
46.5839
47.1535
47.7082
48.2134
48.7116
49.2613
49.9062
50.6716
51.5682
52.597
53.7548
55.0351
56.4294
57.9276
59.5182
61.1878
62.922
64.7059
66.5255
68.3698
70.2327
72.1117
73.001
70.8627
68.7584
66.6829
64.6327
62.606
60.6057
58.6388
56.7182
54.8604
53.0846
51.4111
49.8597
48.45
47.1999
46.1267
45.2455
44.5683
44.1002
43.8309
43.8272
44.1456
44.5764
45.078
45.6253
46.1586
46.6526
47.1536
47.7119
48.3665
49.1417
50.0483
51.0878
52.2574
53.5505
54.9593
56.4732
58.0807
59.7682
61.5208
63.323
65.1609
67.0235
68.904
70.8013
72.1967
70.036
67.908
65.808
63.732
61.6782
59.6494
57.6529
55.7012
53.8115
52.0032
50.2967
48.7129
47.2714
45.9917
44.8914
43.9872
43.2922
42.8128
42.539
42.5353
42.8572
43.2669
43.7252
44.2322
44.7342
45.2157
45.7211
46.2887
46.9519
47.7341
48.6472
49.6937
50.8715
52.1747
53.5953
55.1231
56.7461
58.4503
60.2207
62.0414
63.8976
65.7784
67.6772
69.5924
71.5443
69.3648
67.2173
65.0964
62.9987
60.9221
58.8692
56.8474
54.8694
52.9523
51.1157
49.3809
47.7686
46.2995
44.9934
43.8692
42.9444
42.2336
41.7441
41.4667
41.4629
41.7825
42.138
42.5133
42.9603
43.4245
43.8961
44.4094
44.9884
45.6595
46.4463
47.3626
48.4131
49.5964
50.9076
52.3388
53.8794
55.5174
57.2384
59.0265
60.8657
62.7406
64.6401
66.5572
68.4909
71.0542
68.8616
66.6989
64.562
62.4475
60.3534
58.2817
56.24
54.2412
52.3024
50.4438
48.6861
47.0511
45.5598
44.2325
43.0887
42.1472
41.4232
40.9255
40.6451
40.6411
40.9387
41.1614
41.4016
41.7796
42.2106
42.6807
43.2081
43.8018
44.4817
45.2721
46.1901
47.2431
48.4311
49.75
51.1918
52.7457
54.3991
56.1372
57.9438
59.8019
61.696
63.6143
65.55
67.5013
70.727
68.5439
66.3741
64.227
62.1015
59.9957
57.9118
55.8573
53.845
51.8921
50.0186
48.2458
46.5957
45.0894
43.7478
42.5909
41.6379
40.9051
40.4017
40.1193
40.1146
40.2992
40.2316
40.3254
40.6571
41.0736
41.5551
42.1038
42.7176
43.4096
44.2055
45.1265
46.1835
47.3782
48.7064
50.1602
51.7288
53.3986
55.1546
56.9799
58.8569
60.7703
62.7075
64.6616
66.6307
70.3835
68.4173
66.4476
64.4414
62.3765
60.281
58.2074
56.1629
54.1597
52.2148
50.3473
48.5788
46.9301
45.4212
44.0717
42.8994
41.9208
41.1489
40.591
40.2422
40.0361
39.6037
39.2155
39.2605
39.5868
40.0109
40.5149
41.0914
41.7316
42.4414
43.2476
44.1763
45.2416
46.4466
47.7875
49.2557
50.84
52.5267
54.3002
56.1432
58.0386
59.9702
61.9255
63.8971
65.8832
69.3428
67.4815
65.6868
63.9473
62.2332
60.4896
58.6398
56.651
54.6631
52.7305
50.8741
49.1138
47.4706
45.9631
44.6091
43.4247
42.4202
41.5894
40.8504
40.0495
39.2548
38.5816
38.1428
38.2573
38.6016
39.0447
39.5748
40.1824
40.8552
41.5902
42.4139
43.3565
44.4355
45.6548
47.0106
48.4943
50.0938
51.7955
53.5842
55.4425
57.3535
59.3013
61.2732
63.2615
65.2634
68.1879
66.3231
64.541
62.8445
61.2344
59.7047
58.2328
56.762
55.1857
53.3986
51.5742
49.8262
48.1869
46.6724
45.2878
44.0154
42.7755
41.4936
40.2638
39.1677
38.257
37.5669
37.1326
37.3557
37.7326
38.1997
38.7546
39.3955
40.1068
40.8763
41.727
42.6914
43.789
45.0251
46.3959
47.8925
49.5036
51.2158
53.014
54.8825
56.8048
58.7656
60.7519
62.7556
64.7735
67.1205
65.2382
63.4403
61.7321
60.1183
58.6032
57.1875
55.8657
54.6161
53.382
52.0612
50.5517
48.8732
47.1668
45.4388
43.7397
42.1303
40.655
39.3441
38.2217
37.3094
36.6296
36.2101
36.5326
36.9663
37.4734
38.0543
38.7273
39.4816
40.2988
41.1924
42.1909
43.314
44.5684
45.9514
47.4554
49.07
50.7837
52.5832
54.4545
56.383
58.3542
60.3547
62.3751
64.41
66.1707
64.272
62.4584
60.7348
59.1074
57.5806
56.1575
54.8371
53.6067
52.4287
51.2194
49.8559
48.2661
46.5063
44.6989
42.9453
41.3055
39.8141
38.4955
37.3717
36.4646
35.7977
35.3976
35.781
36.286
36.856
37.4724
38.1695
38.9553
39.8195
40.7664
41.8117
42.9686
44.2432
45.6348
47.1389
48.7488
50.4558
52.2505
54.1215
56.0562
58.0405
60.0607
62.1049
64.1646
65.3451
63.4328
61.6061
59.8705
58.2318
56.6951
55.2644
53.9395
52.7118
51.5496
50.3777
49.0714
47.5365
45.8078
44.0088
42.2517
40.6051
39.1081
37.7871
36.666
35.769
35.122
34.7538
35.1418
35.6813
36.3133
36.9841
37.698
38.486
39.3606
40.33
41.4032
42.5869
43.8837
45.2924
46.8091
48.4282
50.1432
51.9466
53.8296
55.782
57.7923
59.848
61.9367
64.0481
64.6479
62.7256
60.8894
59.1454
57.4992
55.9562
54.5213
53.1953
51.9713
50.8233
49.6833
48.4283
46.9472
45.2534
43.4685
41.7135
40.0648
38.566
37.2462
36.1305
35.2462
34.6233
34.2982
34.6558
35.1718
35.8294
36.5464
37.2761
38.0704
38.9644
39.9659
41.0738
42.2868
43.6059
45.0307
46.5596
48.1886
49.9127
51.7256
53.6199
55.5879
57.6198
59.7055
61.8339
63.9932
64.0842
62.1552
60.3134
58.5646
56.9152
55.3707
53.9357
52.6127
51.3959
50.2634
49.1531
47.9452
46.5159
44.8605
43.0959
41.3498
39.7055
38.2106
36.8957
35.7867
34.9111
34.2996
33.9908
34.3488
34.8113
35.451
36.1827
36.9449
37.771
38.7003
39.7451
40.901
42.1592
43.5136
44.9615
46.5016
48.133
49.8538
51.6608
53.5493
55.514
57.5481
59.644
61.7929
63.9851
63.6589
61.7267
59.8828
58.1335
56.485
54.9435
53.514
52.1992
50.9953
49.8827
48.8037
47.6397
46.2566
44.6378
42.8973
41.1672
39.5356
38.0537
36.7535
35.6611
34.8018
34.2019
33.8899
34.2197
34.6247
35.2473
36.0072
36.8346
37.7289
38.7107
39.7908
40.9691
42.2415
43.6042
45.0551
46.5931
48.2167
49.9241
51.7129
53.5795
55.5202
57.531
59.6078
61.7465
63.9418
63.3813
61.4488
59.6061
57.8592
56.2151
54.6801
53.2607
51.9603
50.7786
49.7021
48.6847
47.6159
46.3399
44.7939
43.0854
41.3659
39.738
38.257
36.9544
35.8559
34.9859
34.368
34.0254
34.2759
34.6492
35.2649
36.0427
36.9129
37.853
38.8679
39.9671
41.1544
42.4295
43.7898
45.2324
46.7551
48.3564
50.0349
51.7897
53.6198
55.5244
57.502
59.5512
61.6691
63.8523
63.2575
61.3207
59.4727
57.7207
56.0721
54.5353
53.1174
51.825
50.6621
49.6233
48.6789
47.7309
46.5781
45.1046
43.4434
41.7516
40.1408
38.6708
37.3738
36.277
35.4058
34.7846
34.4374
34.6645
35.0686
35.6763
36.4229
37.256
38.1668
39.1645
40.2567
41.4436
42.7212
44.0833
45.525
47.0429
48.6357
50.3035
52.0464
53.8649
55.7584
57.726
59.7659
61.8752
64.0504
62.8723
60.8573
58.9286
57.0953
55.3673
53.7559
52.2717
50.9263
49.731
48.6954
47.8233
47.0986
46.4278
45.5229
43.9766
42.3373
40.7588
39.3116
38.0302
36.9433
36.0779
35.4588
35.1097
35.3089
35.7165
36.3008
37.007
37.8012
38.6832
39.6625
40.7433
41.9226
43.1938
44.5492
45.9823
47.4901
49.0712
50.726
52.4558
54.2611
56.1418
58.0969
60.1248
62.2227
64.3875
61.6307
59.5036
57.4664
55.5292
53.703
52.0004
50.4344
49.0189
47.7687
46.6998
45.828
45.1708
44.7516
44.8704
44.5022
43.1137
41.5819
40.1677
38.9107
37.8415
36.9878
36.3744
36.0247
36.1899
36.5819
37.1346
37.8009
38.5602
39.416
40.3752
41.4386
42.6013
43.8555
45.1931
46.608
48.0972
49.66
51.2971
53.0099
54.7989
56.6639
58.6042
60.6178
62.7018
64.8535
59.8762
57.6657
55.5464
53.5287
51.6244
49.8461
48.2077
46.7244
45.413
44.2919
43.38
42.6998
42.2796
42.5948
43.1444
43.5204
42.5866
41.2182
39.9943
38.9495
38.1127
37.5086
37.1598
37.286
37.6533
38.1719
38.8005
39.5281
40.3578
41.2933
42.3322
43.4687
44.6951
46.0042
47.3911
48.8533
50.3908
52.0047
53.6961
55.4654
57.3121
59.2351
61.2321
63.3005
65.4369
58.0568
55.7776
53.5884
51.4998
49.5236
47.6733
45.9635
44.4109
43.0334
41.8513
40.8865
40.1639
39.7162
40.0443
40.6643
41.533
42.525
42.4367
41.2557
40.2421
39.4271
38.8357
38.4902
38.5744
38.914
39.3985
39.992
40.6889
41.4909
42.398
43.4055
44.5069
45.6959
46.9671
48.3171
49.7449
51.2512
52.8368
54.5028
56.2489
58.0745
59.9779
61.9564
64.0073
66.127
56.3159
53.9719
51.7153
49.5568
47.509
45.5856
43.8023
42.1768
40.7289
39.4805
38.4563
37.6844
37.2025
37.5177
38.1593
39.0773
40.2363
41.5823
42.5616
41.6934
40.9053
40.3308
39.9907
40.0326
40.3449
40.7959
41.3557
42.0212
42.7927
43.6665
44.6359
45.6953
46.8398
48.0661
49.3731
50.7612
52.2316
53.7852
55.4223
57.1425
58.9445
60.826
62.784
64.8154
66.9166
54.6873
52.2806
49.9578
47.7299
45.6098
43.612
41.7529
40.0513
38.5287
37.2093
36.1206
35.2947
34.7745
35.0636
35.7218
36.6781
37.8915
39.3285
40.9539
42.5586
42.5232
41.9695
41.6375
41.6395
41.9259
42.3439
42.8698
43.5021
44.2392
45.0749
46.0016
47.0141
48.1096
49.2874
50.5484
51.8941
53.326
54.8451
56.4513
58.1434
59.9196
61.777
63.7126
65.7228
67.8035
53.1833
50.7165
48.3294
46.0334
43.8414
41.7684
39.8318
38.0515
36.4506
35.0557
33.8975
33.0125
32.4503
32.6987
33.3744
34.3712
35.6393
37.1406
38.8436
40.719
42.672
43.6376
43.4082
43.3755
43.6373
44.0219
44.5125
45.1085
45.807
46.6007
47.4814
48.4449
49.4905
50.6194
51.8343
53.1375
54.5305
56.0142
57.5883
59.2508
60.9995
62.8312
64.7423
66.7291
68.7878
51.8109
49.2884
46.8407
44.4793
42.2171
40.0697
38.055
36.1942
34.5121
33.0377
31.8053
30.8562
30.2476
30.4369
31.1332
32.175
33.502
35.0709
36.8461
38.7986
40.9023
43.1075
44.832
45.2065
45.4597
45.8097
46.2628
46.8188
47.475
48.2239
49.0575
49.9727
50.9702
52.0526
53.2236
54.4859
55.8412
57.2901
58.8318
60.464
62.184
63.9884
65.8733
67.8352
69.8694
50.5734
48.002
45.4998
43.0779
40.7497
38.5307
36.4393
34.4981
32.7331
31.1762
29.865
28.8468
28.1871
28.2954
29.018
30.1101
31.5009
33.1409
34.9909
37.0191
39.1987
41.5057
43.8986
46.1092
47.2147
47.6747
48.1002
48.6138
49.2251
49.9282
50.716
51.5859
52.5393
53.5796
54.7106
55.935
57.2549
58.67
60.1797
61.7811
63.4718
65.248
67.1053
69.0406
71.0491
49.4669
46.8567
44.3097
41.8362
39.4494
37.1648
35.0015
32.9823
31.1352
29.4943
28.1013
27.0093
26.2932
26.2981
27.0551
28.2032
29.6619
31.376
33.3023
35.4065
37.6601
40.0382
42.5018
44.9198
47.0306
48.6513
49.7536
50.4241
51.0316
51.6989
52.4461
53.2759
54.1906
55.1939
56.2894
57.4797
58.7667
60.15
61.6285
63.1997
64.8606
66.6077
68.4368
70.3442
72.3255
48.4753
45.8407
43.2634
40.7525
38.3202
35.9816
33.7556
31.6655
29.7408
28.0179
26.5424
25.3732
24.5942
24.4812
25.2801
26.4889
28.0184
29.8074
31.8094
33.9877
36.3125
38.7573
41.2769
43.7033
45.7365
47.2467
48.4859
49.7338
51.1029
52.6129
53.917
54.9372
55.889
56.8812
57.9521
59.1142
60.3718
61.7254
63.174
64.7156
66.3468
68.0646
69.8648
71.7433
73.6964
47.5677
44.925
42.336
39.808
37.3509
34.9782
32.7073
30.5617
28.5712
26.7744
25.2207
23.9745
23.1266
22.8972
23.7421
25.0133
26.6128
28.4742
30.5479
32.795
35.185
37.6899
40.2558
42.6655
44.5858
45.9746
47.1651
48.4158
49.8088
51.3554
53.0478
54.8728
56.7669
58.2929
59.5706
60.7898
62.0491
63.3853
64.8092
66.3234
67.9262
69.6146
71.3857
73.2349
75.159
46.7094
44.069
41.4842
38.9605
36.5053
34.1283
31.8435
29.6713
27.6404
25.7901
24.173
22.8588
21.9445
21.618
22.5077
23.8374
25.5006
27.4263
29.5622
31.8683
34.3132
36.8676
39.4651
41.8227
43.5893
44.8502
46.0005
47.2576
48.674
50.2504
51.975
53.8342
55.8147
57.9036
60.0628
61.9663
63.5669
65.0335
66.4928
68.0034
69.5874
71.2507
72.9938
74.8142
76.709
45.8962
43.2547
40.6756
38.1649
35.7294
33.3769
31.1175
28.9654
26.9428
25.0842
23.4415
22.0887
21.1303
20.748
21.6736
23.0486
24.7599
26.7332
28.9142
31.2624
33.7459
36.3339
38.9419
41.1944
42.7573
43.8892
45.0081
46.2742
47.7128
49.3159
51.069
52.957
54.9664
57.0847
59.3008
61.6032
63.953
66.0839
67.9335
69.6224
71.2695
72.9435
74.6741
76.4722
78.3402
45.168
42.515
39.9305
37.4229
35.0019
32.6781
30.4634
28.3722
26.4226
24.6406
23.0672
21.7688
20.8555
20.5769
21.507
22.8885
24.6075
26.589
28.7787
31.1356
33.6277
36.2185
38.7843
40.8112
42.0983
43.1071
44.2042
45.4802
46.9384
48.5645
50.3413
52.2536
54.2869
56.4288
58.6677
60.9936
63.3976
65.8696
68.3537
70.6334
72.6669
74.5394
76.3514
78.1717
80.0336
44.5803
41.9083
39.3071
36.7868
34.3591
32.0378
29.8386
27.7798
25.8832
24.1753
22.6919
21.4869
20.658
20.784
21.7122
23.0852
24.7924
26.7607
28.9366
31.2796
33.757
36.3214
38.7844
40.5199
41.575
42.5131
43.6042
44.8914
46.3657
48.0094
49.8046
51.7352
53.7864
55.946
58.2019
60.5441
62.9642
65.454
68.0064
70.6093
73.1776
75.5645
77.7355
79.7541
81.7058
44.1949
41.5064
38.8888
36.353
33.9116
31.58
29.376
27.3211
25.4406
23.7651
22.332
21.1908
20.4207
20.375
21.3051
22.6866
24.4055
26.3872
28.577
30.9341
33.425
35.9998
38.4574
40.1616
41.1961
42.1337
43.2321
44.529
46.014
47.6687
49.4753
51.4171
53.4797
55.6498
57.9162
60.2687
62.6985
65.1979
67.7595
70.3776
73.0452
75.738
78.3644
80.824
83.0948
44.4008
41.6997
39.0663
36.5112
34.0476
31.6916
29.4633
27.3872
25.4936
23.8189
22.4068
21.3086
20.593
20.8492
21.7952
23.1744
24.8829
26.8498
29.023
31.3626
33.8356
36.3869
38.7903
40.4377
41.4419
42.3701
43.4648
44.7591
46.2414
47.8936
49.697
51.6358
53.6951
55.8618
58.1249
60.4739
62.9003
65.3961
67.9546
70.5692
73.2346
75.9424
78.6737
81.3804
83.9898
44.921
42.2401
39.6294
37.1
34.6657
32.343
30.1519
28.1171
26.268
24.6397
23.2733
22.2171
21.534
21.86
22.787
24.1286
25.7927
27.7135
29.8413
32.1376
34.5694
37.0794
39.4299
41.0312
42.0091
42.9223
44.0034
45.2837
46.7516
48.3888
50.1776
52.1017
54.1467
56.2995
58.549
60.8854
63.2994
65.7833
68.3306
70.9343
73.5896
76.291
79.0302
81.7934
84.5497
45.6988
43.0541
40.4832
37.9974
35.6108
33.34
31.2051
29.23
27.443
25.8771
24.5703
23.5661
22.921
23.2761
24.1688
25.4566
27.0587
28.9152
30.9797
33.2152
35.5897
38.0442
40.3353
41.8931