# vtk DataFile Version 4.2
vtk output
ASCII
DATASET POLYDATA
POINTS 642 double
-1.43528 3.83485 -0.136492
0.551829 3.73923 -0.107933
-1.44138 0.31089 -0.0124927
0.810611 0.31639 -0.00364643
-0.35188 0.981265 1.65111
-0.465084 3.05368 1.50259
-0.331273 1.05047 -1.59532
-0.499573 3.22953 -1.75569
1.27142 2.02797 -0.934874
1.32415 1.98797 0.941955
-2.02221 2.22603 -1.08051
-2.08318 2.13341 1.03942
-2.00627 3.13575 0.592657
-1.39514 2.72001 1.54429
-1.00267 3.65377 0.911139
0.15029 3.61172 0.782116
-0.355547 4.08782 -0.0881728
0.175748 3.735 -0.998445
-1.05235 3.85565 -1.13964
-1.39403 2.87214 -1.71633
-2.01315 3.2223 -0.741139
-2.35634 2.14304 0.000891287
0.585983 2.60266 1.42189
1.14376 2.94294 0.525099
-1.35584 1.43674 1.55602
-0.36927 2.04658 1.84065
-1.94121 1.05103 -0.604169
-1.96897 1.03428 0.620708
-0.433637 2.23669 -1.8933
-1.31286 1.54088 -1.53288
1.08696 3.03263 -0.577129
0.510082 2.74199 -1.47627
1.38532 1.02763 0.597827
0.659726 1.4177 1.52227
0.33159 0.400379 1.00829
-1.00968 0.380808 1.02345
-0.340322 0.0390312 -0.0183322
-0.969998 0.436858 -0.999207
0.310523 0.445785 -0.996284
0.613153 1.44779 -1.4829
1.3494 1.04521 -0.59225
1.6126 1.95187 -0.00244393
-1.75432 3.5541 0.245768
-1.56968 3.46592 0.795122
-1.24651 3.80256 0.415114
-1.79154 2.44826 1.35496
-1.75966 2.97101 1.14376
-2.11515 2.65438 0.855306
-0.735126 3.38533 1.27535
-1.25052 3.23822 1.29485
-0.915804 2.93623 1.5871
-0.682515 3.96656 0.397518
-0.937847 4.02767 -0.117822
-0.133252 3.36686 1.18895
-0.407972 3.7166 0.868468
0.110296 3.98944 -0.096792
-0.0840866 3.93957 0.370538
0.367625 3.75246 0.34908
-0.740858 4.04453 -0.651237
-1.28654 3.91664 -0.689727
0.423885 3.80139 -0.513896
-0.0807454 4.01219 -0.579067
-0.752849 3.57794 -1.541
-0.472571 3.85593 -1.14974
-0.160987 3.51408 -1.44598
-1.60749 3.63005 -0.985386
-1.76314 3.62116 -0.436781
-0.943782 3.09886 -1.83015
-1.27285 3.42977 -1.52652
-2.08512 2.7652 -0.956139
-1.79074 3.09836 -1.29938
-1.76427 2.58154 -1.45668
-2.08385 3.2224 -0.059776
-2.2628 2.1687 -0.556559
-2.26205 2.71416 -0.378652
-2.28345 2.66956 0.313356
-2.28892 2.14287 0.57721
0.703235 3.32237 0.69322
0.85114 3.40823 0.195591
0.114715 2.826 1.5143
0.428838 3.12337 1.16033
1.28726 2.50478 0.757249
0.932028 2.81925 1.00508
0.996165 2.31789 1.23866
-0.932641 2.42121 1.7709
-0.435174 2.56839 1.736
-1.80108 1.82272 1.34345
-1.44181 2.12274 1.63378
-0.334566 1.47441 1.80733
-0.898949 1.76326 1.79117
-0.846925 1.13873 1.65931
-2.26104 1.58399 0.320913
-2.09466 1.62753 0.877043
-2.04577 1.60455 -0.839794
-2.23862 1.58332 -0.320877
-1.76656 0.605698 0.325675
-2.0503 0.995926 -0.0155729
-1.76533 0.622169 -0.339106
-1.39352 2.26528 -1.72015
-1.7139 1.89543 -1.36836
-0.488 2.80848 -1.89461
-0.928852 2.60664 -1.91675
-0.80164 1.22208 -1.61694
-0.894808 1.91194 -1.81728
-0.344864 1.55083 -1.77341
0.367114 3.29613 -1.3184
-0.00500261 3.03765 -1.67556
0.847898 3.45238 -0.365334
0.674168 3.45548 -0.821203
0.931812 2.3728 -1.25344
0.852727 2.92151 -1.08241
1.24624 2.52382 -0.781333
1.15382 0.591267 0.295445
0.929399 0.632339 0.828455
0.635055 0.286719 0.489494
1.0582 1.69327 1.27346
1.09737 1.18198 1.11096
1.42857 1.47418 0.794935
-0.0346826 0.660502 1.42026
0.538825 0.845744 1.33688
0.151427 1.16999 1.65767
0.030118 0.121926 0.538546
0.313664 0.117754 -0.010674
-0.689573 0.625107 1.41854
-0.344318 0.313 1.08255
-0.935293 0.095417 -0.0112427
-0.698407 0.117424 0.551656
-1.2653 0.278427 0.548031
0.016273 0.14435 -0.551004
0.596006 0.312294 -0.524409
-1.26129 0.301742 -0.502162
-0.695888 0.134745 -0.538893
-0.0277682 0.716097 -1.36615
-0.347225 0.363399 -1.05105
-0.64251 0.708941 -1.37139
0.89179 0.667557 -0.814013
1.13881 0.605916 -0.308019
0.164767 1.22077 -1.59633
0.514619 0.907704 -1.30923
1.37601 1.47912 -0.773134
1.03923 1.21124 -1.0873
0.99568 1.71494 -1.25625
1.47209 0.980387 -0.007618
1.51859 1.97516 -0.477488
1.59164 1.49214 -0.292476
1.61388 1.47816 0.301887
1.5365 1.97936 0.510745
0.16872 1.71061 1.7685
0.67273 2.02986 1.54861
0.139477 2.32478 1.71502
-1.56699 0.626956 0.881171
-1.22989 0.836025 1.38894
-1.72432 1.18775 1.17183
-1.16414 0.888144 -1.31838
-1.53378 0.669401 -0.841616
-1.68711 1.23514 -1.11232
0.617001 2.07973 -1.53966
0.127229 1.77502 -1.74426
0.0511596 2.49588 -1.77237
1.45231 2.49469 0.279716
1.43413 2.50686 -0.289847
1.1959 3.02001 -0.0244523
-1.59176 3.71652 0.0386949
-1.53831 3.68056 0.357992
-1.35528 3.83192 0.121567
-1.80685 3.31824 0.701942
-1.67532 3.51704 0.545756
-1.91251 3.33742 0.436404
-1.13171 3.74741 0.672726
-1.42709 3.64034 0.632545
-1.28729 3.57727 0.875199
-1.95119 2.29639 1.21468
-1.96915 2.56204 1.12907
-2.11856 2.40162 0.955749
-1.57899 2.85562 1.37384
-1.7947 2.7114 1.26308
-1.61047 2.58379 1.46482
-2.07767 2.90337 0.731131
-1.95268 2.82213 1.0154
-1.91095 3.05263 0.88109
-0.584722 3.21424 1.41158
-0.866196 3.17243 1.44473
-0.667861 3.00716 1.55477
-1.14499 3.45855 1.11715
-1.00377 3.32907 1.29528
-0.896843 3.54317 1.09223
-1.14449 2.84414 1.58848
-1.10842 3.09094 1.45823
-1.32366 2.99712 1.4405
-1.68754 3.2297 0.983776
-1.50818 3.12583 1.24233
-1.42192 3.367 1.06749
-1.07346 3.94165 0.151803
-1.19106 3.94679 -0.147181
-0.842628 3.82137 0.667163
-0.963101 3.89829 0.423569
-0.648465 4.08046 -0.093742
-0.789672 4.01978 0.15567
-0.510371 4.05183 0.157357
-0.303872 3.21569 1.36155
-0.443142 3.39559 1.24057
-0.1298 3.69211 0.826686
-0.275091 3.55664 1.03354
0.0270647 3.5052 0.984238
-0.584901 3.56617 1.08126
-0.724336 3.69894 0.905676
0.380437 3.85774 -0.10314
0.250362 3.89112 0.130513
0.487383 3.75641 0.0891553
-0.224639 4.03975 0.140675
0.0247615 3.98087 0.139656
-0.123074 4.05761 -0.0956868
0.283462 3.69927 0.551073
0.149406 3.86434 0.356442
0.036821 3.79785 0.582846
-0.55471 3.86663 0.643405
-0.239936 3.85236 0.623769
-0.387752 3.98318 0.384408
-1.11828 3.98602 -0.419864
-1.37586 3.89092 -0.438342
-0.52582 4.09175 -0.354628
-0.845879 4.05673 -0.399204
-1.18547 3.91412 -0.893926
-1.04266 3.9849 -0.693851
-0.926473 3.96226 -0.915515
0.488652 3.78805 -0.325736
0.288462 3.91044 -0.324429
0.0566412 3.89513 -0.800774
0.181108 3.92388 -0.560487
0.294372 3.7852 -0.786464
0.0328366 4.01727 -0.326685
-0.218531 4.07529 -0.341303
-0.6127 3.39355 -1.67827
-0.500436 3.57236 -1.5036
-0.355012 3.36144 -1.6333
-0.791269 3.86896 -1.17079
-0.627144 3.73931 -1.3466
-0.928031 3.74634 -1.34389
0.027876 3.63869 -1.22816
-0.315607 3.71246 -1.30142
-0.0998755 3.81516 -1.06301
-0.402139 4.05597 -0.613544
-0.23876 3.96144 -0.850052
-0.628427 3.98026 -0.914257
-1.54352 3.78937 -0.575247
-1.62974 3.73216 -0.315078
-1.33151 3.78112 -1.08188
-1.45201 3.8032 -0.842719
-1.90352 3.44515 -0.591626
-1.70957 3.62742 -0.736402
-1.83585 3.43861 -0.872268
-0.727706 3.1757 -1.81333
-0.855268 3.35626 -1.71332
-1.34952 3.15696 -1.65131
-1.1038 3.27486 -1.71214
-1.16753 2.9973 -1.79971
-1.01653 3.53367 -1.55186
-1.17215 3.67016 -1.35368
-2.06623 2.45913 -1.03922
-1.95056 2.67923 -1.21892
-1.92666 2.38273 -1.25547
-1.93237 3.1661 -1.0342
-1.9581 2.9377 -1.13708
-2.06976 2.99798 -0.862412
-1.60488 2.71917 -1.5938
-1.79175 2.85038 -1.39033
-1.60283 2.99434 -1.53415
-1.46077 3.55094 -1.27608
-1.55507 3.27847 -1.43734
-1.72843 3.372 -1.16403
-1.7837 3.58768 -0.11142
-2.05912 3.24093 -0.424258
-1.93965 3.43008 -0.261976
-1.9531 3.3849 0.0969774
-2.06616 3.18555 0.291174
-2.15861 2.1979 -0.827199
-2.18705 2.47297 -0.7665
-2.3334 2.42776 -0.185717
-2.28089 2.45134 -0.476446
-2.32839 2.15014 -0.281213
-2.18634 2.74628 -0.68251
-2.15147 2.97542 -0.586941
-2.23188 2.40229 0.715867
-2.21449 2.13555 0.795219
-2.16287 2.92823 0.465589
-2.21857 2.66996 0.593583
-2.34557 2.14506 0.295703
-2.31004 2.40524 0.434215
-2.34618 2.41385 0.157501
-2.20177 2.97601 -0.232695
-2.30083 2.69676 -0.0248529
-2.21065 2.95413 0.134117
0.630703 3.58375 0.272261
0.70084 3.59315 0.0347225
0.439999 3.47974 0.746296
0.535929 3.55048 0.520448
1.01286 3.17914 0.370093
0.795569 3.36506 0.467606
0.936256 3.14237 0.620652
-0.17149 2.94629 1.51985
0.000947302 3.10457 1.36795
0.511801 2.8587 1.31823
0.282424 2.98029 1.35121
0.361526 2.71441 1.48109
0.167438 3.25299 1.18132
0.298466 3.37131 0.992486
1.31936 2.22725 0.872493
1.16204 2.41266 1.01271
1.18966 2.1481 1.08537
1.05824 2.88524 0.775098
1.12266 2.66858 0.891101
1.22643 2.73262 0.647172
0.82133 2.45477 1.3316
0.980463 2.56217 1.13775
0.772954 2.71317 1.23211
0.581195 3.23546 0.938395
0.691679 2.98304 1.09624
0.834629 3.07323 0.86556
-0.693562 2.76427 1.6776
-0.456438 2.81924 1.63218
-1.16353 2.58096 1.68284
-0.954132 2.67134 1.69886
-0.396431 2.3435 1.79758
-0.703953 2.50096 1.76695
-0.665417 2.24578 1.81794
-1.94639 1.96226 1.21528
-1.80339 2.1341 1.37651
-1.42321 1.79856 1.61223
-1.6211 1.97351 1.51425
-1.58146 1.61669 1.46753
-1.6225 2.29138 1.51248
-1.43405 2.42683 1.60854
-0.346952 1.18257 1.72924
-0.611043 1.29052 1.74713
-0.577896 1.0406 1.67023
-0.6385 1.90697 1.83941
-0.608067 1.61782 1.8165
-0.349011 1.77474 1.84167
-1.1025 1.26483 1.61872
-0.887632 1.42038 1.72959
-1.13802 1.59781 1.69336
-1.19257 2.27311 1.73529
-1.17699 1.96101 1.74363
-0.938715 2.10415 1.80652
-2.22039 1.87603 0.72291
-2.10872 1.86153 0.957785
-2.33396 1.87002 0.158302
-2.29735 1.86889 0.436586
-2.05254 1.33407 0.757597
-2.19575 1.57955 0.59789
-2.13899 1.30591 0.474062
-2.04978 1.90659 -0.960644
-2.1751 1.88382 -0.709365
-2.11024 1.30971 -0.467026
-2.15936 1.58813 -0.588083
-2.00696 1.3132 -0.719725
-2.26721 1.8689 -0.438303
-2.31999 1.8624 -0.169648
-1.58912 0.415066 0.128318
-1.7814 0.590877 -0.0133763
-1.58872 0.42364 -0.155262
-2.02877 0.994112 0.301707
-1.9221 0.783794 0.151282
-1.87469 0.803138 0.481809
-1.85792 0.805983 -0.470081
-1.91773 0.786954 -0.180599
-2.01675 1.01112 -0.324777
-2.27725 1.57414 -0.00748511
-2.16684 1.28191 -0.172114
-2.17649 1.27591 0.153742
-1.75419 2.2481 -1.43651
-1.8822 2.06562 -1.23532
-1.40359 2.57634 -1.74207
-1.59208 2.42583 -1.60691
-1.5376 1.73568 -1.46163
-1.56616 2.09752 -1.5656
-1.36222 1.93296 -1.64403
-0.50276 3.00285 -1.85138
-0.706657 2.94455 -1.88957
-0.713174 2.46033 -1.93222
[...]
POINT_DATA 642
SCALARS Mean_Curvature double 1
LOOKUP_TABLE default
0.857993
1.15905
1.10442
1.11479
0.946644
0.631838
0.987353
1.43252
0.899815
0.992805
0.724688
1.10308
1.0894
1.15394
1.03137
0.611662
1.14953
1.10154
1.61109
1.17568
1.15031
0.872004
0.898269
0.975861
0.737915
0.864725
0.897737
0.821185
0.643795
0.592384
0.785781
0.544353
1.31789
0.971777
1.06599
1.10249
0.742617
1.0762
1.12683
0.900868
1.30989
0.981027
0.976422
1.06131
0.683597
1.13852
1.12391
1.10256
1.00962
1.15067
1.09593
1.03013
0.888676
0.677915
0.869585
1.23792
1.13344
1.08957
0.989556
1.34323
1.2287
1.19455
1.3833
1.05291
0.943569
1.36496
1.07136
1.61191
1.222
1.01949
1.34237
1.0592
0.956416
0.84295
0.857733
0.993635
0.976324
0.887656
0.783097
0.797085
0.808833
1.03852
0.936609
1.01366
1.11382
0.747564
1.0359
1.09583
0.957803
0.767099
0.77029
0.926104
0.834008
0.816605
0.909323
1.15254
0.889171
1.37343
1.07395
0.599312
1.20525
1.27623
0.834915
0.724648
0.718631
0.962833
0.976632
1.12396
1.01826
0.861157
0.614131
0.910836
1.18159
1.12268
1.04137
0.967573
1.06134
1.28458
0.969043
0.986125
0.983769
0.895533
0.909062
1.22083
1.08338
1.08446
0.882589
1.13295
0.980488
0.987012
1.0699
1.0676
0.959942
1.05386
1.03816
0.999316
1.19753
0.899797
1.03699
0.995917
0.964241
0.911268
1.22039
0.988065
1.36224
1.46994
0.974259
0.988247
0.963999
0.936295
1.29716
1.4344
0.821654
1.19227
1.36095
0.80387
0.790365
0.822663
0.662746
1.02215
0.926987
0.894727
0.82814
1.03278
0.670435
1.09242
1.03399
1.05947
0.948872
1.02865
0.997174
1.12622
1.14624
1.1223
1.19997
1.13476
1.1843
1.08047
1.11293
1.09833
0.95821
1.08386
0.987654
1.08965
1.07549
1.06427
1.1929
1.16059
1.19192
1.12956
1.16485
1.12318
0.771349
0.720513
0.79614
0.829757
1.03988
0.994796
1.11388
0.591656
0.860494
0.949107
0.634618
0.677849
0.931105
0.933227
1.17655
1.19386
1.08222
1.21514
1.18132
1.22733
0.902123
1.14999
1.03655
1.02984
1.0536
1.15872
0.773838
1.1152
0.986004
0.945314
1.5721
0.804461
1.19169
1.23884
1.2316
1.14438
1.21201
1.16147
1.21378
1.1721
1.36525
0.925117
0.896387
1.34052
1.02814
1.42853
0.994489
0.971471
1.02117
1.06481
1.03458
1.03472
1.19676
1.00375
1.61095
1.46061
1.08384
1.17656
1.29253
1.57048
1.49672
1.28471
1.64195
1.44235
1.46619
1.43566
0.962485
1.05144
1.02313
1.37437
1.24332
1.21558
1.13757
1.10459
1.1965
1.19059
1.36188
1.24811
0.857853
0.951571
0.915528
0.959801
1.05279
0.766085
0.726522
0.871266
0.879992
0.872828
0.895144
0.932608
1.15322
1.10994
1.06619
1.07807
1.02604
0.964703
1.01684
0.901161
0.994126
1.00735
0.65759
0.997973
0.77008
0.75926
0.86041
0.874139
0.880873
0.717048
0.719241
0.913186
0.776561
0.868927
0.728616
0.796236
0.978161
1.02983
0.969547
0.994972
0.967894
1.01488
0.933985
1.00559
0.917488
0.894092
0.890258
0.961598
0.976084
0.591594
1.1922
1.12726
0.822979
0.878643
0.751487
1.11318
1.09005
0.973225
1.01083
0.765594
1.02048
1.10038
0.867901
0.7762
0.973881
0.839341
0.776113
0.813253
0.617783
0.726644
0.680446
1.23133
1.12206
1.06497
1.07603
1.08896
0.931133
0.839343
0.858975
0.878958
0.882642
0.792038
0.812535
0.874419
0.852232
0.857686
0.827276
0.887161
1.07714
1.16408
1.12977
0.847778
0.972765
0.805893
1.19715
1.13614
0.890263
0.956044
0.893612
0.888141
1.01319
0.531778
1.15529
1.05851
0.642753
0.978765
0.622672
1.34769
1.40777
1.11583
1.26009
1.08408
1.41631
1.33508
0.878655
0.798857
0.880005
0.635374
0.693421
0.696778
0.722118
0.703952
0.721116
1.21501
1.12827
1.10117
0.87894
0.955677
1.00877
0.948598
0.954552
1.03807
1.07062
1.15546
1.18754
1.06044
1.08769
0.836401
1.11115
1.10803
0.867432
0.887788
0.890115
0.626266
0.781231
0.7786
0.826878
0.842815
0.681849
1.02123
1.04422
1.17567
1.12379
1.11554
1.1523
1.23315
1.15737
1.25188
1.04602
1.05066
1.06983
0.979275
0.939741
1.00171
0.914555
0.954729
0.938561
1.26612
1.18672
1.2805
1.0344
1.04675
0.924635
1.06499
0.983106
1.0214
0.966626
0.963092
0.92072
1.2161
0.990968
1.00726
1.02417
1.07932
1.02463
1.03763
0.785639
0.83628
0.759391
1.29035
1.26085
1.02634
1.08841
0.983096
1.08041
0.990179
1.11242
1.00382
1.06036
0.737075
1.06544
0.769194
1.25372
0.938399
1.01127
0.953646
1.05933
0.818178
0.968749
1.12117
0.845998
0.907054
1.0664
1.01897
1.07664
1.15967
1.13127
1.01976
1.00018
1.01705
0.968856
0.879298
0.94695
0.977773
0.935261
1.03262
1.01131
1.08083
1.20266
1.11574
1.10701
1.00744
1.07628
0.958911
1.1461
1.13858
1.05198
1.01042
1.241
1.17317
1.15892
0.936452
0.912406
1.00334
0.923323
0.907468
1.01699
1.08247
0.918613
0.912651
0.888508
1.2244
0.937036
1.33045
0.889826
0.915742
0.927689
1.02377
1.0354
1.02298
1.17518
1.26963
1.21702
1.23549
1.23376
0.964652
0.940587
1.16008
0.97502
0.992241
1.17352
1.43964
1.05055
1.00513
1.27398
1.39184
0.944534
1.22899
1.26194
1.4078
1.47559
1.42342
0.912297
0.959795
0.948233
0.988997
0.883582
1.00323
0.929912
1.00179
0.956131
1.00286
0.715708
0.927788
0.803973
0.835844
0.881418
1.03757
0.956301
0.991252
1.06207
1.11469
1.12554
1.21764
1.20277
1.30547
0.952364
1.31245
1.19073
1.2782
0.954499
0.807625
0.847788
0.815715
0.8017
1.38358
1.24575
1.2949
0.858202
1.2164
1.22909
0.788245
0.622106
1.1716
0.972016
1.405
1.10866
1.0595
0.837314
0.684952
0.78138
0.821977
0.859322
1.22838
0.800574
0.737819
0.854506
0.872897
0.845558
0.842847
0.717528
0.877157
0.779394
0.777036
0.82307
0.832114
0.930168
0.452739
0.832833
0.965347
0.684648
0.828873
0.769357
0.743324
0.987142
1.01681
0.986665
1.03366
0.954612
0.966178
0.861686
0.946614
0.948531
1.01698
0.687578
0.942039
0.796145
0.819914
0.830319
1.0301
0.891368
0.980997
SCALARS Redistribution_Potential double 1
LOOKUP_TABLE default
-1.30997e-12
-0.573359
0.235257
-0.0307414
-0.0769701
-0.484861
-0.138106
0.0638775
-0.524677
-0.531768
0.166629
0.0614139
0.0197307
-0.147431
-0.295187
-0.611437
-0.292969
-0.300638
0.239301
0.274506
0.23257
0.141207
-0.635105
-0.723172
0.0158087
-0.348313
0.183326
0.203706
-0.10197
0.0469009
-0.634004
-0.404542
-0.178851
-0.330118
0.00168345
0.213845
0.115547
0.127633
-0.0667061
-0.339184
-0.210767
-0.499927
-0.00164019
-0.111064
-0.165727
-0.0277178
-0.0615901
0.0395233
-0.402899
-0.225085
-0.323118
-0.309797
-0.134798
-0.575915
-0.469021
-0.427338
-0.464531
-0.597672
-0.0423003
0.150831
-0.45352
-0.27178
0.181052
-0.0150936
-0.119268
0.290326
0.145649
0.251981
0.318895
0.225265
0.307513
0.231645
0.111803
0.157333
0.162858
0.103626
0.107321
-0.711739
-0.694955
-0.599112
-0.678419
-0.662099
-0.702795
-0.610786
-0.253284
-0.433915
0.0413936
-0.0710362
-0.218547
-0.1571
-0.0153245
0.159819
0.119671
0.145225
0.164347
0.258969
0.211665
0.256122
0.155356
0.123558
0.00419632
0.138245
-0.0524755
-0.00776023
-0.170244
-0.345176
-0.192791
-0.614816
-0.497247
-0.515646
-0.528838
-0.603332
-0.0792505
-0.0822699
-0.00184309
-0.437749
-0.25586
-0.336141
-0.0269375
-0.13941
-0.207447
0.0815346
0.0324612
0.114755
0.109319
0.197977
0.178729
0.246248
0.0396911
-0.0413739
0.204297
0.139177
-0.11265
0.0270477
-0.00420222
-0.142026
-0.0981389
-0.243662
-0.207392
-0.372428
-0.305939
-0.43118
-0.164795
-0.515768
-0.327978
-0.302314
-0.515104
-0.362323
-0.507113
-0.510154
0.265807
0.187883
0.148484
0.085649
0.210674
0.12223
-0.413639
-0.283314
-0.247283
-0.650013
-0.632608
-0.700722
-0.00681609
-0.0727532
-0.0837951
-0.0375177
-0.0599391
0.0123377
-0.232065
-0.139181
-0.203487
0.0202001
0.00621301
0.0504321
-0.103805
-0.0434371
-0.0794929
0.0288427
-0.00809732
-0.0191825
-0.453085
-0.356421
-0.415665
-0.261228
-0.312503
-0.342204
-0.235245
-0.267818
-0.188652
-0.0821742
-0.136602
-0.166678
-0.163444
-0.0619463
-0.316555
-0.244675
-0.214125
-0.234482
-0.303633
-0.534368
-0.494649
-0.541101
-0.529084
-0.602944
-0.441027
-0.381615
-0.515449
-0.518273
-0.587387
-0.376185
-0.450198
-0.357448
-0.611171
-0.533236
-0.544062
-0.388185
-0.470423
-0.380622
-0.00163548
0.0798819
-0.187004
-0.0840012
0.203249
0.0661826
0.108254
-0.50985
-0.44084
-0.282482
-0.362408
-0.370056
-0.357194
-0.2778
0.125401
0.0445366
-0.0196414
0.135053
0.0855157
0.228793
-0.218274
-0.0627823
-0.185049
-0.161293
-0.166843
-0.00539286
0.160623
0.0905151
0.299032
0.243973
0.198954
0.227163
0.266108
0.178607
0.239679
0.316385
0.31264
0.2808
0.282683
0.302618
0.194363
0.237533
0.195456
0.286491
0.270452
0.241187
0.254552
0.272736
0.299294
0.319238
0.330048
0.311491
0.0665808
0.170322
0.124822
0.0642296
0.0627657
0.162501
0.177985
0.147197
0.162554
0.150473
0.191884
0.194015
0.0808712
0.0908146
0.0660338
0.0731579
0.128068
0.104644
0.127886
0.149551
0.135893
0.108213
-0.660519
-0.64208
-0.672107
-0.670519
-0.724022
-0.711101
-0.727882
-0.550799
-0.600718
-0.66645
-0.645964
-0.625858
-0.63936
-0.660822
-0.597959
-0.640247
-0.576012
-0.718424
-0.690687
-0.702695
-0.629488
-0.663583
-0.673645
-0.701326
-0.699766
-0.720076
-0.382074
-0.463242
-0.200007
-0.281538
-0.403237
-0.344088
-0.311233
0.052865
0.00335353
-0.0327932
-0.0160229
0.0268298
-0.0540795
-0.109487
-0.139726
-0.115412
-0.0460204
-0.252941
-0.197866
-0.29229
0.00512256
-0.0863236
-0.0664369
-0.148169
-0.109953
-0.200776
0.116657
0.0955107
0.147113
0.132844
0.16011
0.145596
0.177126
0.147559
0.151526
0.172451
0.155568
0.157935
0.15355
0.154358
0.249921
0.254658
0.245455
0.212006
0.234948
0.23362
0.223968
0.235977
0.202727
0.169437
0.185124
0.188109
0.176498
0.150703
0.219254
0.200993
0.0903037
0.140117
0.0872365
0.0424199
0.128104
0.0350441
0.0796584
-0.0343064
0.193915
0.226084
-0.102183
-0.109201
-0.161352
0.0186053
-0.050691
0.00167235
-0.152646
-0.0949193
-0.0482522
0.163842
0.0714222
0.0940813
-0.16139
-0.0728403
-0.326819
-0.248186
-0.305902
-0.276095
-0.373999
-0.595051
-0.540099
-0.570837
-0.562042
-0.629983
-0.474956
-0.402058
-0.533681
-0.564937
-0.564749
-0.469458
-0.532546
-0.47431
-0.623729
-0.583597
-0.585137
-0.418718
-0.506799
-0.433979
-0.050453
-0.0398954
-0.0127356
-0.123717
-0.0788472
-0.121546
0.00350842
-0.037537
-0.0424383
-0.484453
-0.397717
-0.437339
-0.301921
-0.345556
-0.39371
-0.250156
-0.296338
-0.205037
-0.0477341
-0.108973
-0.137224
-0.0590202
-0.0881454
-0.00612419
-0.273577
-0.175994
-0.241262
-0.149979
-0.200861
-0.106223
0.0228478
0.00552404
0.0497218
0.0413534
0.0707156
0.0602286
0.100856
0.0367212
0.0483621
0.161929
0.111612
0.170055
0.0518891
0.0536135
0.224354
0.223284
0.241265
0.1524
0.193495
0.156774
0.239671
0.215373
0.199545
0.10231
0.15553
0.13288
0.0010078
-0.0296854
0.0799844
0.0394511
-0.0522826
-0.00210094
-0.00963632
0.224704
0.2025
0.134274
0.170003
0.169107
0.166896
0.129964
-0.131978
-0.0547131
-0.0816559
-0.0240222
-0.0406892
-0.0846447
0.069568
0.0196216
0.0777095
0.0918256
0.0886706
0.03751
-0.0698647
-0.0642726
-0.107303
-0.0887394
-0.145725
-0.116128
-0.176515
-0.191009
-0.184751
-0.275803
-0.235285
-0.293466
-0.161379
-0.130307
-0.470677
-0.414605
-0.487462
-0.255848
-0.342698
-0.284592
-0.391994
-0.37406
-0.332194
-0.171639
-0.254162
-0.215072
-0.0863329
-0.17534
-0.128194
-0.117578
-0.166299
-0.523451
-0.451211
-0.409584
-0.432615
-0.506167
-0.352077
-0.254005
-0.426769
-0.519734
-0.237392
-0.313926
-0.506695
-0.400914
-0.40358
-0.222697
-0.303733
-0.214565
-0.222303
-0.351459
-0.294099
-0.297266
-0.368675
-0.531793
-0.579946
-0.562367
-0.482844
-0.420577
-0.528638
-0.435382
-0.488792
-0.564503
-0.582013
-0.431993
-0.515577
-0.439913
0.257645
0.247982
0.257281
0.265354
0.242788
0.0738077
0.0954567
0.103126
0.15339
0.218164
0.0870012
0.186364
0.130605
0.0875369
0.0892849
0.249203
0.178927
0.233477
-0.0329086
0.116933
0.0485118
0.0157633
0.0465506
0.23684
0.196101
0.242076
0.210459
0.174794
0.132699
0.0834992
0.109663
0.135199
0.156075
0.157026
0.156894
0.106307
-0.488064
-0.385285
-0.437637
-0.467943
-0.421754
-0.216744
-0.211784
-0.226399
-0.275467
-0.325044
-0.0923884
-0.322928
-0.218418
-0.113079
-0.166849
-0.346752
-0.278255
-0.347797
-0.600959
-0.584068
-0.595716
-0.659809
-0.698868
-0.578677
-0.652021
-0.621549
-0.58249
-0.579362
-0.66314
-0.716776
-0.707212
-0.67446
-0.671966
-0.64046
-0.674445
-0.688982
SCALARS CoVolArea double 1
LOOKUP_TABLE default
0.0628222
0.0427151
0.0479003
0.0579804
0.0461344
0.0535969
0.0444661
0.0462775
0.0467965
0.0560367
0.0619692
0.0635483
0.0758549
0.0751591
0.075259
0.0791838
0.0707989
0.0704487
0.0706469
0.0762223
0.0807824
0.0864424
0.0717488
0.0713848
0.0885888
0.0842867
0.0799434
0.091797
0.0907885
0.098109
0.0822455
0.080065
0.075123
0.0813642
0.0856923
0.0854015
0.098928
0.083634
0.0782107
0.0773275
0.0717591
0.0693606
0.0862851
0.0808937
0.087047
0.0699129
0.0810171
0.0748908
0.0734634
0.0723127
0.0668901
0.0786112
0.0813371
0.0826531
0.080438
0.0640097
0.0707658
0.06798
0.0878288
0.0646363
0.0620252
0.0769795
0.0700118
0.090942
0.0834103
0.0848406
0.0730986
0.0612841
0.0856998
0.078884
0.0805724
0.0771887
0.0942844
0.0862141
0.09207
0.0878179
0.0738827
0.078935
0.076073
0.0764081
0.0798452
0.0701985
0.0744542
0.0689333
0.0738799
0.0759653
0.0799982
0.0797718
0.0819091
0.0943155
0.0753836
0.0935118
0.0796422
0.0857316
0.0887865
0.0837597
0.0904896
0.0756821
0.0789641
0.0866142
0.0546099
0.067492
0.0837635
0.0980684
0.081975
0.0755886
0.0734459
0.0623967
0.0731196
0.0779967
0.0853948
0.0725121
0.0812456
0.0855134
0.0824768
0.0714641
0.0814934
0.0666688
0.0813691
0.0907101
0.0812618
0.098425
0.0798533
0.0752199
0.0895096
0.0853126
0.0926781
0.0816852
0.091638
0.0776942
0.0745829
0.0881727
0.0796981
0.0836625
0.0709192
0.084346
0.0725597
0.0713557
0.0803469
0.0718558
0.0807322
0.0781246
0.0803472
0.0684825
0.0700685
0.070701
0.0705793
0.0776577
0.0805983
0.0784612
0.0822599
0.0791721
0.0913534
0.0801169
0.0779832
0.0919764
0.0874936
0.0851108
0.0976587
0.0748733
0.0813523
0.0803128
0.078298
0.0823472
0.0823145
0.0806896
0.0765621
0.0796348
0.0816862
0.0790864
0.0818228
0.0736182
0.0736647
0.0740467
0.0779885
0.073121
0.0692734
0.0736255
0.0742467
0.0797862
0.0635466
0.0673358
0.0616344
0.0742609
0.0684023
0.07097
0.0665035
0.0639224
0.0719834
0.0887614
0.0842026
0.0860765
0.0852359
0.0797471
0.0822952
0.0819359
0.0810638
0.0782748
0.0729853
0.0750091
0.0737945
0.0747517
0.076614
0.0783192
0.0770679
0.0789976
0.0577078
0.0634135
0.0615281
0.0675367
0.0607011
0.0603981
0.0690641
0.0599002
0.0714946
0.0874016
0.0821653
0.0804977
0.0770296
0.0743569
0.0868334
0.085799
0.0632433
0.070803
0.073654
0.051168
0.0608829
0.0733287
0.068529
0.0678949
0.0653799
0.0737023
0.0590921
0.0736968
0.0688222
0.0741896
0.0714846
0.07023
0.0793877
0.0833912
0.0866211
0.0940229
0.0979245
0.097162
0.0693661
0.0713026
0.0823972
0.0700346
0.0784314
0.0746871
0.0824231
0.0558892
0.06554
0.081118
0.07232
0.0672146
0.0746874
0.0814487
0.0770642
0.0785075
0.0752964
0.0791506
0.0706801
0.0704681
0.0717315
0.0728738
0.0803069
0.0978323
0.0937553
0.0948171
0.0819781
0.0927239
0.0837292
0.0860479
0.0841793
0.0842015
0.0864328
0.0911514
0.0861036
0.0830033
0.0801762
0.0868782
0.0736539
0.0702699
0.0840286
0.0779701
0.0795323
0.077809
0.087111
0.104429
0.100089
0.100949
0.0751398
0.0621391
0.0840744
0.0756991
0.077302
0.077433
0.0762407
0.0812823
0.0854363
0.0753408
0.0764612
0.0673282
0.0826414
0.0831013
0.0700088
0.0712653
0.0697777
0.06979
0.0672756
0.0631255
0.0681652
0.0688127
0.0766704
0.0850006
0.0830014
0.080101
0.0703085
0.0729955
0.0747916
0.0657156
0.0774765
0.0698607
0.0850579
0.071697
0.0723281
0.0903516
0.0775675
0.0867974
0.0698514
0.0770196
0.0663766
0.0813431
0.0665733
0.0893555
0.0899483
0.0790661
0.0801339
0.0878113
0.0959409
0.0853786
0.0940874
0.0908778
0.0762333
0.0715079
0.0896976
0.0836598
0.0905212
0.0864047
0.0966167
0.0881391
0.086572
0.0872049
0.0833047
0.0813505
0.0833881
0.0882572
0.0727006
0.0822987
0.0727503
0.0929679
0.0810461
0.0794581
0.0705802
0.0769512
0.0860337
0.100708
0.0990978
0.104027
0.0819431
0.0830607
0.077697
0.0746161
0.09084
0.0815044
0.0923902
0.0545914
0.0543159
0.0748251
0.0564735
0.0696006
0.0597624
0.071974
0.0648321
0.0809473
0.0671688
0.101035
0.0927284
0.0915975
0.0898816
0.091797
0.0955556
0.0820127
0.0896648
0.0932817
0.0767236
0.0647352
0.0741922
0.0758392
0.0782313
0.0755433
0.0767765
0.0583126
0.0575323
0.0745671
0.0616245
0.0673432
0.0678191
0.0717298
0.0676648
0.0764039
0.0681311
0.0786337
0.0779598
0.0750507
0.0769949
0.0775417
0.0867362
0.0817323
0.0873329
0.0850963
0.0722399
0.0809801
0.0717676
0.0820298
0.0794952
0.0782993
0.0830687
0.0804884
0.0862114
0.0710446
0.0706141
0.0682003
0.0820462
0.0721178
0.075227
0.0655642
0.0699277
0.0797495
0.0678335
0.0782153
0.0674162
0.085962
0.080556
0.0833184
0.0779394
0.0823928
0.0876216
0.0958075
0.0992118
0.0986831
0.080874
0.0712317
0.0939311
0.0871765
0.0913296
0.0890967
0.103229
0.0687391
0.076126
0.0885259
0.0806386
0.079953
0.0821187
0.0896379
0.0749349
0.0876495
0.0743406
0.0984965
0.0850867
0.0840849
0.075454
0.0824036
0.0879783
0.104396
0.100042
0.108338
0.0796034
0.0783701
0.0958421
0.0861985
0.0775924
0.0822363
0.0873773
0.0666331
0.0776204
0.086689
0.078911
0.0788437
0.0797135
0.0912459
0.0673699
0.0758425
0.0642079
0.0839193
0.0776979
0.0761397
0.0730509
0.071874
0.0820762
0.101137
0.0971615
0.0977292
0.0764819
0.071845
0.0818197
0.0771612
0.0744822
0.076815
0.0800428
0.0644243
0.0717095
0.0748904
0.0693001
0.068797
0.0765948
0.0798407
0.0718222
0.0781362
0.0728053
0.0751582
0.0675256
0.0623613
0.0722124
0.069754
0.0790171
0.0939071
0.091776
0.0935368
0.0759018
0.0771036
0.0756429
0.0808365
0.0803682
0.0657514
0.0700966
0.0634379
0.0637449
0.0662502
0.0660993
0.0732034
0.0672157
0.0670569
0.0715826
0.0653059
0.0712371
0.0683502
0.0675453
0.0843164
0.0780257
0.0840111
0.075869
0.0783174
0.0733986
0.0756409
0.0792792
0.0735072
0.0768735
0.0693205
0.0724008
0.0834006
0.0808809
0.080521
0.0764832
0.0722991
0.074913
0.0887964
0.0878122
0.0856444
0.0835498
0.0852521
0.0763126
0.0795997
0.0837457
0.0743305
0.0799283
0.0725602
0.0745461
0.0860358
0.0773743
0.0931166
0.0881934
0.0880147
0.0869653
0.0917298
0.0909459
0.0924928
0.072547
0.0824295
0.0703674
0.0772985
0.0886627
0.0756493
0.077382
0.0720296
0.0760291
0.0816818
0.0910085
0.0981122
0.0905475
0.0875402
0.0839704
0.0884693
0.0889595
0.0959916
0.0791581
0.0834406
0.075362
0.0763012
0.0889612
0.0747575
0.0932947
0.0793264
0.0748691
0.0792307
0.0636526
0.0927659
0.0806433
0.0768785
0.0953481
0.0948858
0.102327
0.102498
0.0718977
0.076109
0.0709407
0.067907
0.0722167
0.0729083
0.0840486
0.0729013
0.0737469
0.0775414
0.0719195
0.07653
0.0786498
0.0753371
0.0820144
0.085071
0.0881643
0.0826073
SCALARS SignedDistance double 1
LOOKUP_TABLE default
1.77158
2.03219
1.30936
1.32436
1.68157
2.21266
1.80504
1.93145
1.91775
1.77708
1.92354
1.41178
1.45735
1.70243
1.90881
2.24121
1.68297
1.72834
1.55801
1.55979
1.46982
1.56824
1.97072
1.99589
1.81392
1.9476
1.63997
1.53341
2.28142
2.02184
2.1299
2.27893
1.409
1.69057
1.37703
1.34244
1.57503
1.48944
1.52079
1.89616
1.57623
1.81552
1.67874
1.64628
1.8682
1.50007
1.51349
1.40345
2.04674
1.78189
1.99035
1.87214
1.72772
2.23058
2.14687
1.83602
1.95737
2.13609
1.68654
1.66006
1.83086
1.62236
1.67634
1.72163
1.84885
1.30826
1.54904
1.69132
1.29736
1.65823
1.41043
1.67313
1.582
1.72676
1.67203
1.4943
1.49776
2.10658
2.17585
2.08061
2.07888
1.88063
1.95823
1.86433
1.98141
2.14132
1.62395
1.68188
1.79219
1.95939
1.8398
1.49149
1.57228
1.72494
1.60565
1.43819
1.54029
1.42657
1.91641
2.02312
2.11553
1.94193
1.88954
2.16111
1.98516
1.94363
2.12175
2.10874
1.94488
2.0782
2.20097
2.01195
1.27665
1.39319
1.35795
1.74272
1.63665
1.64911
1.50974
1.55702
1.67406
1.49599
1.49609
1.46886
1.35267
1.46169
1.49584
1.33312
1.4693
1.45368
1.41793
1.43929
1.70333
1.52787
1.72996
1.58539
1.3737
1.84763
1.7213
1.80928
1.78708
1.91071
1.39502
1.84314
1.70254
1.61945
1.78064
1.79555
1.83789
1.98077
1.34986
1.59791
1.64487
1.84124
1.65059
1.81854
2.07464
1.99507
2.31394
1.91051
1.93596
2.06786
1.7586
1.77851
1.81817
1.53971
1.64292
1.5366
1.87437
1.74822
1.77223
1.44378
1.41834
1.38214
1.60199
1.48828
1.5825
1.42075
1.44181
1.4671
2.1426
1.99658
2.12259
1.82666
1.90672
1.95645
1.85655
1.86881
1.74469
1.5634
1.64577
1.6957
1.8049
1.78564
1.97556
1.88139
1.66214
1.77671
1.75157
2.23166
2.20284
2.19855
2.25332
2.24124
2.1232
2.05257
1.95102
1.98277
2.07806
1.80674
1.892
1.74883
2.19626
2.04039
2.11218
2.00056
2.04606
1.88183
1.78431
1.71143
1.61462
1.68104
1.61019