# vtk DataFile Version 4.2
vtk output
ASCII
DATASET POLYDATA
POINTS 642 float
-8.74537 21.4639 -2.7671
-1.52721 21.5931 -2.77244
-9.09716 3.26574 -0.118484
4.76312 3.79522 0.304512
-2.43097 6.45253 6.90864
-5.8234 16.4323 3.88133
-2.27812 7.71696 -5.82306
-6.95975 20.9519 -7.20128
4.44945 11.95 -2.66764
5.08578 11.7272 3.65717
-9.53523 16.7442 -4.21302
-12.521 14.6926 5.62438
-12.0141 19.1048 3.2092
-9.4907 16.6388 6.32324
-7.80307 19.674 3.17275
-1.97261 19.0189 0.259708
-3.19893 23.4659 -2.00643
-1.58293 22.3857 -4.22474
-8.00781 22.3996 -6.90636
-8.60618 20.1751 -8.42836
-11.0257 21.1118 -5.23866
-12.7977 14.4871 0.825258
1.91753 14.1829 4.87524
3.37324 15.4027 2.11813
-7.81678 9.90783 5.64349
-2.32061 11.9096 6.86248
-10.0877 7.63084 -1.64578
-10.4165 7.60503 3.09531
-4.81231 15.5161 -4.50662
-6.45722 11.7178 -4.52576
1.51897 16.5335 -1.41288
-1.05995 17.3438 -2.87576
7.21128 7.08495 2.74916
2.37536 9.52841 6.50197
1.52505 4.05326 5.26983
-6.62381 3.94324 5.64852
-2.50886 3.56865 -0.271059
-5.50698 4.23182 -4.5674
1.06273 4.66292 -4.17161
1.73836 9.61558 -4.92072
6.52166 7.29381 -1.39156
5.99004 10.8336 0.465173
-10.4061 20.0024 0.885779
-9.83465 19.7217 3.77773
-7.71365 20.4647 1.058
-11.1938 15.8174 6.37613
-10.8451 18.0852 5.55293
-12.6002 16.7338 4.94987
-7.45628 18.5569 4.146
-8.96678 18.486 5.06721
-8.27666 17.0621 5.36705
-4.34238 22.3801 -0.800017
-4.96424 22.8332 -2.03698
-3.02007 17.1038 2.69383
-4.86735 20.4724 0.514447
-2.22024 22.6715 -2.58111
-3.14143 22.4581 -1.35866
-1.91065 21.0194 -1.72647
-4.52913 22.8716 -3.99435
-8.51969 22.3034 -5.60179
-1.50472 22.1107 -3.37029
-2.24509 23.3484 -3.40072
-7.4047 21.6213 -7.44515
-4.19411 22.3633 -4.92979
-3.90347 21.5881 -5.23636
-9.92701 22.7824 -6.73519
-10.2299 21.8786 -4.17548
-7.85192 20.9028 -8.07866
-8.55447 22.2245 -8.81938
-10.5683 19.5344 -5.47708
-10.2331 21.1164 -7.3385
-9.63315 18.8254 -7.26624
-11.4829 19.4662 -0.190404
-11.4878 14.8924 -1.74851
-11.6355 17.8774 -1.31084
-12.7877 17.425 2.18768
-12.7924 14.697 3.75608
1.48397 16.6648 2.10085
0.448062 17.8015 -0.377619
-0.526976 15.1786 4.80844
1.01461 16.0773 3.66294
4.53831 13.728 3.09568
3.02416 15.1597 3.64705
3.74524 13.1755 4.51326
-8.06184 14.8035 6.00217
-4.01188 13.9981 5.27109
-10.9494 13.6166 5.96815
-9.25245 14.6372 6.58548
-1.85785 9.37621 7.3384
-5.45421 11.7666 6.01714
-4.11234 6.846 6.29186
-12.681 11.1968 1.76677
-11.6536 12.4311 4.2737
-10.7303 11.6047 -2.7414
-12.0798 11.0262 -0.642026
-9.73625 4.6183 1.63814
-10.809 7.35662 0.256929
-9.84663 4.5362 -1.12601
-8.23635 18.2451 -6.86608
-8.17024 15.3114 -4.39474
-6.9116 20.0613 -7.12882
-7.83012 19.4614 -7.65628
-3.73446 8.34233 -5.72915
-5.98139 14.3819 -4.60781
-2.25243 9.93851 -5.94435
-1.53377 21.019 -4.20482
-3.92944 20.6328 -5.21127
-1.01454 20.0157 -2.66032
-1.2755 20.8116 -3.41624
3.03871 13.1182 -3.27636
0.173313 17.4963 -2.10709
4.03765 13.5937 -2.09598
6.50539 4.9296 1.61958
5.20915 5.37433 3.94513
3.7912 3.76077 2.51109
4.34462 10.8148 4.85505
5.2096 7.79995 4.15308
6.30078 8.98674 2.94302
-1.14621 5.46127 6.81274
2.22502 6.52983 6.00954
-0.0352877 8.06387 7.1195
0.176174 3.62384 3.5297
2.34612 3.57944 0.144969
-3.90147 5.09056 6.93651
-2.57862 3.75564 6.10931
-6.96497 3.14058 -0.0654755
-4.94951 3.57523 3.60183
-8.20517 3.61036 3.08976
-0.272731 3.63868 -2.99129
3.19347 4.23242 -1.71722
-8.01299 3.60339 -1.97806
-4.47907 3.33883 -3.26805
-1.08571 6.25871 -5.27024
-2.8047 4.15438 -4.61537
-3.76314 5.78627 -4.96177
4.00785 6.01434 -2.74242
6.19242 5.16464 -0.771166
-0.531028 8.58136 -5.77768
1.75016 6.96623 -4.74701
5.50291 9.4941 -1.88483
4.0277 8.2295 -3.36026
3.57435 10.9917 -3.75585
7.46398 6.99537 0.414874
5.54368 11.5113 -1.30893
6.96775 8.57734 -0.259008
7.23539 8.57481 1.41871
5.84402 11.0673 2.22241
0.255681 10.7369 7.10629
2.20897 11.9513 6.06859
0.0626714 12.7168 6.25241
-9.00993 4.70678 4.8442
-7.28181 5.44466 5.80014
-9.21305 8.00147 4.77429
-5.53404 5.98935 -4.37795
-8.03583 5.09485 -2.43923
-8.80538 8.98531 -3.27031
1.45347 11.9977 -4.51669
-0.647469 11.0113 -5.7733
-3.39665 15.9344 -4.1374
4.91273 13.7701 1.33785
4.79989 13.7691 -0.550665
3.12716 15.6718 0.133476
-9.39913 20.9212 -1.40743
-9.37194 20.1052 1.16095
-8.16275 21.108 -1.0521
-10.9825 19.485 3.56194
-10.283 19.8825 2.61417
-11.3281 19.6955 2.28214
-7.74236 20.0177 2.27199
-9.09199 19.9413 2.73657
-8.75406 19.7483 3.69931
-12.0862 15.1181 5.87932
-12.0192 16.2461 5.8381
-12.6117 15.3696 5.4817
-10.0996 17.3236 6.04026
-11.094 16.946 6.16053
-10.2317 16.2958 6.47353
-12.3638 18.0535 4.08689
-11.8092 17.4974 5.27754
-11.5653 18.7337 4.52573
-7.06745 17.7019 4.13259
-7.9271 17.9416 4.77825
-7.35984 17.0667 4.64764
-8.44128 19.2654 4.34999
-8.19797 18.6324 4.68287
-7.67658 19.1856 3.84277
-8.92594 16.8739 5.90811
-8.67244 17.8114 5.32542
-9.32694 17.6146 5.78209
-10.4113 19.0475 4.68026
-9.79353 18.3555 5.43432
-9.32938 19.1854 4.59735
-6.04084 22.065 -0.832711
-7.39252 21.6751 -2.53917
-6.16771 20.7054 0.889537
-5.81365 21.5185 0.102541
-3.82465 23.5256 -1.85232
-4.39028 22.805 -1.22564
-3.62924 23.2367 -1.35626
-4.83518 16.6083 3.30353
-6.20958 18.0764 3.15878
-3.53467 20.2245 0.0437572
-4.61242 18.6851 1.65421
-2.17943 17.7604 1.71301
-6.6011 19.008 2.79897
-6.56919 19.8309 1.85767
-1.73344 22.0425 -2.77009
-2.1546 22.1612 -2.25566
-1.64424 21.4836 -2.45813
-3.14189 23.0835 -1.62724
-2.6653 22.7296 -1.94102
-2.66709 23.1896 -2.27418
-2.04665 20.2227 -0.874743
-2.62343 21.9616 -1.63835
-3.04948 21.3997 -0.99366
-4.56427 21.6182 -0.268592
-3.7013 21.7913 -0.711208
-3.64788 22.6105 -1.10812
-6.86078 21.7983 -4.17071
-8.72137 21.8605 -3.97383
-3.38693 23.5894 -2.65479
-4.61526 23.0353 -3.11388
-8.29331 22.4451 -6.41026
-6.77697 22.1092 -5.38325
-6.7248 22.0719 -5.79957
-1.51901 21.852 -3.02426
-1.80151 22.4332 -3.07319
-1.84748 23.0023 -3.88739
-1.8085 22.7639 -3.41757
-1.4995 22.3026 -3.72538
-2.22433 23.0465 -2.94623
-2.73438 23.4343 -2.76227
-7.1372 21.1652 -7.33605
-6.26614 21.4235 -6.38945
-6.17453 21.0904 -6.42836
-6.591 21.9508 -6.10576
-6.42222 21.7449 -6.28451
-7.67018 22.1175 -7.30347
-2.17832 22.138 -4.7415
-4.02319 22.0217 -5.13523
-2.30855 22.8846 -4.59052
-2.94856 23.5836 -3.44752
-2.56056 23.4755 -4.13758
-4.37526 22.6435 -4.57855
-9.46572 22.1877 -5.04807
-9.43032 21.6618 -3.45415
-8.89062 22.7153 -7.01762
-9.21103 22.5783 -6.24872
-10.8715 21.7189 -4.75588
-10.139 22.3391 -5.64765
-10.933 22.1538 -6.10474
-7.35805 20.9609 -7.6013
-7.71599 21.305 -7.9331
-8.61953 21.1312 -8.57538
-8.14225 21.3179 -8.34505
-8.19885 20.6752 -8.31417
-8.00732 21.8916 -8.10159
-8.41309 22.5485 -7.74202
-10.0498 18.1638 -5.19333
-10.0977 19.3094 -6.47268
-9.62609 18.1472 -5.94229
-10.9648 21.2666 -6.42517
-10.5715 20.4334 -6.49625
-10.9638 20.4573 -5.47698
-9.19718 19.4991 -8.00999
-9.98836 20.0099 -7.45201
-9.52132 20.6152 -8.36515
-9.48455 22.9496 -7.91063
-9.66186 21.7774 -8.33194
-10.6194 22.2083 -7.33329
-10.2022 20.8665 -1.90242
-11.0651 20.4464 -3.23005
-10.7853 20.7436 -2.58208
-11.1051 19.8101 0.388303
-12.1246 19.2613 1.85067
-10.063 15.9339 -3.16271
-10.6181 17.7214 -3.53796
-12.6811 16.0672 0.0696527
-11.6702 16.5414 -1.57441
-12.4382 14.5225 -0.518179
-11.0212 19.0804 -3.8242
-11.0785 19.8905 -3.67993
-12.7397 15.7194 4.4456
-12.6773 14.6949 5.07624
-12.6838 18.4549 2.75028
-12.7482 17.1705 3.60552
-13.0152 14.604 2.16234
-12.8766 15.9535 2.96758
-12.9508 16.0178 1.53291
-11.6134 18.8866 -0.7782
-12.6991 17.5141 0.752021
-12.6652 18.6359 1.34682
-0.840142 19.4719 -1.37412
-1.26926 20.5398 -2.34362
-0.186348 17.3576 1.37452
-0.575598 18.2122 0.0254995
2.41115 16.286 1.33165
1.19652 16.9504 0.973081
2.52621 16.1033 2.22726
-2.75828 15.6112 4.29225
-1.25743 16.078 4.02707
1.57006 15.2139 4.30006
0.392682 15.6878 4.29395
0.846735 14.6494 4.87184
-0.417328 16.5334 3.45388
-0.0430482 16.8678 2.561
4.89182 12.6223 3.47767
4.29823 13.5738 3.87511
4.58248 12.4515 4.05597
3.27502 15.3249 2.88954
3.77797 14.4563 3.37
4.04599 14.6065 2.63643
2.85275 13.7269 4.79292
3.41374 14.201 4.10172
2.56463 14.7846 4.30232
1.40289 16.4487 2.9607
2.07391 15.6106 3.68403
2.39781 15.9084 2.99365
-7.26876 15.8464 5.1228
-5.29262 15.526 4.29878
-8.90953 15.7892 6.32926
-8.28379 15.9568 5.90742
-2.96475 12.8548 6.01099
-6.56312 14.4549 5.29147
-5.3806 13.0069 5.6777
-12.0423 14.3579 5.81101
-11.1799 14.7876 6.30183
-8.71298 13.3202 6.04493
-10.0364 14.2446 6.53822
-9.45392 12.4479 5.56438
-10.1991 15.2661 6.7521
-9.45129 15.5578 6.56518
-2.13684 7.54388 7.10047
-3.02334 8.16399 7.02715
-3.03703 6.48925 6.73996
-3.99134 11.7047 6.4312
-3.18947 10.1915 7.10006
-1.9935 10.7398 7.17345
-5.89272 7.82486 5.53125
-4.46847 9.26777 6.70479
-6.74577 11.2447 6.0055
-8.73426 14.7923 6.39319
-8.14369 13.5588 5.96913
-7.24919 13.4521 5.73754
-12.5264 13.6747 4.24867
-12.4493 14.0682 5.33399
-12.5936 12.847 1.30476
-12.4501 13.218 2.67427
-11.5683 9.81468 3.75695
-12.1538 11.6458 3.08155
-11.8726 9.6728 2.3793
-9.92251 14.1269 -3.14806
-11.023 13.0437 -2.20044
-11.5088 9.44696 -1.48574
-11.4302 11.1454 -1.84483
-10.8583 9.79563 -2.40451
-11.8319 12.7644 -1.04756
-12.3677 12.721 0.170486
-9.48352 3.70007 0.525548
-9.97856 4.4677 -0.0633469
-9.52075 3.63762 -0.591681
-10.889 7.50571 1.63435
-10.0766 5.74257 0.746429
-9.52389 5.90467 2.45223
-9.7126 5.66089 -1.20961
-10.1155 5.54977 -0.516032
-10.4494 7.34936 -0.820214
-12.6293 11.0542 0.567758
-11.7802 9.47508 -0.197915
-12.1259 9.5286 1.04803
-9.03412 17.9147 -6.36141
-9.24625 16.4882 -4.29148
-8.53747 19.1947 -7.8358
-8.83163 18.5837 -7.28545
-7.39409 13.7595 -4.52626
-8.20911 17.3874 -6.02377
-7.51848 16.3871 -5.37176
-6.96858 20.7385 -7.2297
-7.47756 20.5542 -7.70901
-7.16 18.6273 -6.68161
-7.4522 19.8024 -7.52741
-6.70158 18.8677 -6.44939
-7.89649 20.2988 -8.03359
-8.20706 19.8642 -8.12661
-2.77935 7.88236 -5.7984
-2.95008 9.22854 -5.91358
-2.20565 8.47863 -5.87611
-6.0896 13.6078 -4.60049
-3.99653 10.4314 -5.78651
-4.74927 9.29294 -5.36499
-2.63502 11.6138 -5.79483
-3.38003 11.0799 -5.8758
-5.50134 15.0866 -4.58132
[...]
POINT_DATA 642
SCALARS Mean_Curvature float 1
LOOKUP_TABLE default
0.152291
1.02155
1.33222
1.05629
0.370234
0.242058
0.22865
0.237877
0.46212
0.0580035
0.216573
2.10018
0.595815
0.797719
0.876401
0.0351696
1.54795
1.24293
0.559707
1.24977
0.398849
0.166998
0.0720468
0.207692
0.150247
0.648157
0.026064
0.112592
0.0619199
0.15804
0.295616
0.16848
0.860733
0.309782
0.844316
0.893624
0.0129908
1.06239
0.253531
0.0971321
0.570438
0.00367191
0.132433
0.572981
0.0673747
0.512671
0.617256
0.793418
0.394523
0.255838
0.00644045
0.915679
0.157327
0.0351576
0.0790182
0.0801346
0.317528
0.149782
0.291176
0.0540162
0.327899
1.38492
0.526556
0.55252
0.454432
1.02164
0.673785
0.43185
1.94437
0.0230708
0.116307
1.1624
0.453871
0.151366
0.0328917
0.0545983
0.149975
0.534902
0.176752
0.287584
0.268211
0.249925
0.723764
0.154243
0.435759
0.0583178
0.493826
0.733501
0.225368
0.245944
0.238065
0.563771
0.204888
0.473656
0.214635
0.434765
0.197683
0.9793
0.563924
0.309117
0.264173
0.501708
0.424858
0.217491
0.169646
0.755873
0.131443
0.586891
0.834652
0.189135
0.332063
0.290697
0.514756
0.646826
0.463725
0.192951
0.0665335
0.147202
0.478676
0.191584
0.0154218
0.0118564
0.0820384
1.02934
0.849129
0.211676
0.00859067
0.145416
0.182137
0.0829329
0.685643
0.37821
0.164375
0.633905
0.0785859
0.0689578
0.566722
0.355841
0.20892
0.151497
0.0858172
0.292038
0.437485
0.485761
0.622447
0.452023
0.21397
0.263092
0.303915
0.149172
0.661818
0.412047
0.193823
0.0539728
0.101014
0.0466711
0.0650327
0.558823
0.0555346
0.2142
0.395322
0.297212
0.0352628
0.127705
0.0416495
0.362526
0.229989
0.452846
0.266193
0.134513
0.676419
0.297309
0.549437
1.08961
0.291808
0.72416
0.39899
0.471771
0.279698
0.657111
0.0456559
0.152882
0.0286923
0.821332
0.612114
0.604428
0.163864
0.28601
0.574353
0.417225
0.565882
0.477175
0.324666
0.038238
0.0971576
0.790159
1.20397
0.571263
2.26738
0.371216
0.0458533
0.0520052
0.210963
0.0943979
0.124795
0.232535
0.437603
0.188041
0.789524
0.878789
0.379969
1.13813
0.201802
0.0772588
0.028689
0.323911
0.213073
0.412922
0.416694
0.0669735
0.705987
0.342293
0.229787
0.284442
0.477281
0.480743
0.127091
1.49582
0.716083
0.679301
0.548322
0.939399
0.334202
0.482973
0.236555
0.722192
0.768413
0.862566
0.645033
0.570367
1.13895
0.754301
1.46237
0.42719
0.0929221
0.102162
0.434344
0.230889
1.16331
0.404324
1.42569
0.351629
0.487475
0.871004
0.769499
0.515985
0.77891
0.802033
0.296879
0.0630162
0.27478
0.894033
0.146346
0.558432
0.925816
0.443139
1.01735
1.56793
0.770281
1.3211
0.302503
0.627145
0.63207
0.414227
0.497654
0.239963
0.0592664
0.295402
0.165952
0.35349
0.42337
0.142795
0.0955264
0.449938
0.756419
0.253496
0.441293
0.0663238
0.234382
0.114309
0.247427
0.782619
0.308375
0.536294
0.139623
0.439131
0.534947
0.208188
0.395002
0.0706357
0.24284
0.242748
0.363246
0.110048
0.336353
0.24526
0.197415
0.841391
0.25095
0.447346
0.153624
0.404919
0.239029
0.293286
0.503874
0.561448
0.27602
0.385809
0.143554
0.298233
0.419227
0.351646
0.0518114
0.327668
0.219736
0.568564
0.316781
0.305442
0.52674
0.227313
0.974651
0.404939
0.107234
0.192795
0.06039
0.310465
0.315808
0.156831
0.31484
0.229844
0.100742
0.643575
0.191756
0.297535
0.462414
1.0705
0.101527
0.199469
0.524471
0.139839
0.0946403
0.123933
0.0808685
0.604843
0.21176
0.361107
0.0544785
0.051063
0.881898
0.550881
0.840045
0.215053
0.0526381
0.499947
0.306044
0.468753
0.0712986
0.549616
0.0598657
0.410625
0.603483
0.0965306
0.968412
0.700705
0.146228
0.577632
0.56663
0.239851
0.287162
0.443523
0.353883
0.192607
0.434345
0.853853
0.111722
0.219649
0.0859718
0.162433
0.370959
0.180041
0.265822
0.337174
0.180715
0.571609
0.4984
0.40775
0.29573
0.184171
2.15885
0.448674
0.206664
0.258982
0.635418
0.80604
0.766328
0.628566
0.814936
0.724726
1.84372
2.13491
0.231409
0.337017
0.351882
0.0781934
0.243885
0.0808963
0.276511
0.332581
0.289136
0.973371
0.553428
0.850894
0.107385
0.350666
0.461048
0.402323
0.541011
0.89017
0.661332
0.0882367
0.211721
0.270117
0.080027
0.503964
0.0888064
0.114225
0.213155
1.22855
0.0980333
0.204693
0.0539606
0.349312
0.0772122
0.13882
0.296345
0.0165759
0.387861
0.349767
0.118402
0.407242
0.0641731
0.0142887
0.108154
0.18467
0.370495
0.150097
0.0178025
0.0331712
0.0182368
0.163265
0.506917
0.979037
1.12462
0.440631
0.0669444
0.850814
0.272157
0.431607
0.131836
0.00377678
0.0569924
0.0460825
0.219243
0.013043
0.143965
0.252759
0.152476
0.0421243
0.401475
0.600173
0.0195623
0.0810968
0.868282
0.408708
1.02992
0.916973
0.467585
0.96344
0.0782867
1.15216
0.0725984
0.0764537
0.459896
0.225658
0.725877
0.117519
0.0335423
0.214797
0.205748
0.0826186
0.704918
0.284116
1.06617
0.573045
0.447995
0.310461
0.230303
0.0225372
0.592453
0.364663
0.296161
0.283961
0.190503
0.11403
0.0534706
0.123885
0.0491127
0.421136
0.31682
0.236671
0.263859
0.197204
0.033028
0.137042
0.373763
0.12389
0.270842
0.421683
0.368224
0.169552
0.5918
0.901533
0.678309
0.47184
0.116199
0.0921191
0.396248
0.0707515
0.105274
0.15817
0.047786
0.731172
0.169336
0.422846
0.334349
0.885839
0.0384707
0.14043
0.132018
0.456597
0.535797
1.33249
0.521339
0.411654
0.0247242
0.216353
0.255042
0.388112
0.203874
0.252664
0.294128
0.0672939
0.140713
0.324594
0.0152405
0.0505794
0.145725
0.670713
0.0158557
0.374882
0.635657
1.5242
1.1464
0.606527
0.221054
0.191569
0.223423
0.248953
0.0213793
0.684572
0.154521
0.231815
0.506463
0.104502
0.0441628
0.959713
0.167889
0.335772
0.214357
0.863529
0.0476378
0.0396966
0.154974
1.31309
0.24713
0.496161
0.409575
0.533558
0.129962
0.243821
0.0433586
0.380968
0.515762
0.0472073
0.26651
0.307346
0.222919
0.099436
0.214883
0.321004
0.0218023
0.0584244
0.203836
0.190936
0.39906
0.22079
0.179618
0.0607434
0.17408
0.247275
0.0486695
0.240215
0.0943029
0.00329311
0.384091
0.379247
0.247018
0.403424
0.163884
0.245086
0.462995
0.321087
0.289197
0.562486
0.347205
0.114932
0.489561
0.151315
0.825341
0.248064
0.209631
0.133944
SCALARS CoVolArea float 1
LOOKUP_TABLE default
1.41149
0.190261
0.558456
0.562709
0.494868
1.69906
0.359893
0.171599
0.339996
0.530306
1.20397
0.321989
1.37209
0.740917
1.15163
3.0642
0.386813
0.499513
0.71779
0.64335
1.21443
2.21145
1.20137
0.963245
4.35986
2.08464
2.11408
3.11414
3.09836
4.62782
1.21966
4.15434
1.15058
1.95655
2.00471
1.64492
5.42115
1.09868
1.53205
1.57158
1.0259
1.5613
2.12349
1.22627
3.07662
1.09144
1.33139
1.41628
1.0439
0.749203
1.09368
0.827924
2.68881
3.9621
2.66918
0.389057
0.579351
1.53611
1.48623
1.68078
0.236577
0.442908
0.571772
1.12192
1.02594
1.08528
1.50435
0.268837
1.02225
1.79562
1.26046
1.09632
1.92535
3.47268
3.08294
1.8176
1.80423
1.54195
1.62308
1.93427
1.22268
0.914035
0.854195
1.06976
1.56572
3.58188
1.8905
0.877561
1.81734
3.06095
2.86862
2.32943
2.32549
2.02285
2.23305
1.95754
2.67954
0.968904
0.719038
4.03094
0.982475
0.58612
1.79687
2.7479
1.33578
0.475
1.77362
0.900007
0.329405
1.21188
1.43611
1.03364
1.63615
2.04891
1.91277
1.78729
1.95459
1.0152
1.74275
2.48347
1.75358
3.15543
2.58791
1.04602
1.86801
2.49392
3.70629
1.91702
2.17748
1.87585
1.50209
1.89323
1.74675
1.52679
1.13241
2.15175
1.43233
1.43404
1.57809
1.37406
2.02689
1.30713
1.20285
1.38286
0.801649
0.716831
1.46026
1.23369
1.29273
1.52873
1.35337
1.2887
2.56129
1.77911
1.69486
3.59118
1.94563
1.31152
5.57637
1.14623
1.02724
1.66777
2.34214
2.73406
3.41315
1.37558
1.56544
1.50501
1.5918
1.70724
1.05708
0.746509
1.1651
0.820603
0.969135
1.20118
0.939934
1.49088
1.44389
1.49168
1.48965
0.819851
1.59272
0.779721
0.675688
1.02958
0.762312
0.702178
0.738478
1.31991
1.02032
0.985448
3.16743
3.22057
1.39834
1.76139
0.87537
1.13459
0.433839
3.04383
2.8794
3.31385
4.31359
4.02308
2.32377
1.73762
0.280007
0.597326
0.698075
0.377929
0.466382
0.373856
2.06241
0.916052
1.57532
1.25556
1.19132
0.533366
3.2545
1.8989
0.921898
2.13371
0.84982
1.8427
0.995304
0.198264
0.280998
0.472727
0.313067
0.302859
0.35642
0.423002
0.34841
0.799707
0.609956
0.866429
0.828818
0.683891
0.89749
1.08815
0.951583
0.98383
0.974765
1.28078
1.19477
1.44478
0.781219
0.861408
1.35718
1.08156
1.14482
0.208229
0.312341
0.783325
0.40067
0.329286
0.567957
0.830929
1.97516
1.31672
1.28417
1.05397
1.12655
1.25115
0.923661
1.19278
1.14477
1.31163
1.41442
1.36195
2.10056
1.80994
1.85217
1.8953
1.50353
3.04882
3.23627
2.71837
3.2613
2.6786
2.4928
2.03079
1.44841
0.861687
1.42746
1.67526
2.17395
1.95015
2.11098
2.54249
2.51251
1.84845
1.794
0.819703
2.27921
2.43297
1.3657
1.80991
1.02278
2.75718
2.62375
1.07554
1.3909
1.4381
2.26208
2.35071
0.833235
0.905017
0.84422
0.83253
0.843666
0.852834
1.09903
0.933584
0.962603
1.28554
0.919435
0.899392
2.54953
3.26998
0.756508
1.33179
2.66154
2.67868
2.67258
0.853004
1.11728
2.43728
1.53925
3.24839
0.968626
0.705
1.34626
2.38074
1.12715
2.39802
2.73179
1.78554
4.77651
4.39792
4.37774
0.818748
1.62613
1.79449
1.79415
0.989738
2.16932
2.35936
3.0994
2.64878
3.05247
2.14202
2.85052
2.37369
2.12727
2.11869
2.56413
2.23668
1.2304
1.39317
0.834692
3.25038
2.36465
2.68411
1.28765
1.56677
2.23272
2.0953
2.55861
2.69534
1.82096
2.50025
0.566011
0.826526
3.887
1.70245
2.15542
0.430664
0.387427
1.74047
0.667956
1.98647
0.356435
0.408953
0.913346
1.34813
0.771607
3.38746
2.82805
3.83456
2.69547
2.71381
3.45712
0.579078
1.51829
1.34105
0.990649
0.734217
0.499086
0.802392
3.17956
0.954468
1.40774
0.431994
0.294762
0.487746
0.413962
1.22547
0.247408
0.339549
0.679306
1.02533
0.652594
2.30655
1.9444
2.74443
1.55572
1.71412
1.17703
0.385839
0.458167
0.639255
1.20199
1.74648
1.2403
1.47612
1.76221
1.45835
1.95486
2.03866
2.20763
1.10128
1.50699
0.986878
2.42992
2.08416
2.03659
0.917958
1.35451
1.28792
0.974486
1.75488
1.26617
2.3208
2.14695
2.07533
1.79103
2.06759
2.37252
1.92813
2.50151
2.46824
2.01616
1.28343
2.08666
2.25233
4.38912
3.30689
5.09563
0.61267
1.06574
1.84894
1.40896
1.42163
1.67481
1.94788
1.28613
2.21899
1.43368
5.15783
3.45599
4.08992
1.81176
2.59308
2.3935
2.49006
2.73714
4.09797
1.84025
1.21172
3.66383
2.74737
1.7938
1.90917
1.68615
0.928778
1.71615
1.40356
1.87421
1.54922
2.55746
3.40906
0.980339
1.42088
0.873011
1.75075
1.80987
1.72189
0.907322
1.28648
1.05751
2.12035
1.39379
1.73472
1.69206
1.11489
1.91472
2.11743
1.23514
1.77355
1.61251
0.849253
1.51731
1.60021
1.67211
1.57191
1.69656
1.56306
0.954382
1.50659
0.787886
1.58183
1.79839
1.08683
1.50895
1.87067
1.76499
1.90679
1.79925
2.00895
1.47263
1.00948
1.34172
1.48162
1.24583
0.872148
1.29664
1.09838
1.26351
1.47223
1.00626
0.787941
1.10871
1.04549
0.868136
0.80259
1.60634
1.10485
1.05125
0.800852
0.687508
0.878421
1.56193
1.41861
1.47091
1.37849
1.33132
1.27374
1.2692
1.24506
1.50468
1.4913
3.11447
1.58715
2.34877
1.89755
1.47484
1.23036
1.29905
1.2075
1.66099
1.4463
1.53664
1.72675
1.99094
1.2492
2.8352
2.24612
1.25299
1.27328
1.835
2.61751
2.88048
3.03011
3.21026
1.16189
1.5937
1.57231
1.26524
0.991416
1.02027
1.90636
4.07559
1.06002
1.92993
1.12164
1.3185
1.27939
3.12342
4.85681
4.02621
2.38036
2.66866
1.98039
3.14621
3.69541
1.04707
1.49458
1.32595
1.57706
4.08174
1.1171
2.31417
1.26941
1.28492
1.42894
1.69099
6.14939
4.62642
3.43886
3.3898
1.75743
3.09833
4.4427
1.19261
1.50696
1.44068
1.01846
1.03379
1.01199
1.37734
1.04098
1.2099
1.34433
1.30785
1.34328
1.78247
1.8586
1.66206
1.12213
1.28433
1.2459
SCALARS SignedDistance float 1
LOOKUP_TABLE default
1.00432
0.384811
0.0709327
0.10192
0.475391
1.1935
0.445679
1.71122
0.350555
0.473816
1.60256
0.0328979
0.228027
0.286621
0.386963
2.14802
0.167969
0.273743
0.857666
0.24939
0.256226
0.393219
0.558167
0.515274
0.627907
0.330353
0.638397
0.590759
2.29862
0.855978
0.848335
2.16014
0.209869
0.354088
0.189585
0.256042
0.455349
0.231525
0.395422
0.596783
0.392487
0.718585
0.625702
0.263193
0.76683
0.210938
0.234375
0.119141
0.668968
0.548157
0.773376
0.348473
0.6754
1.31701
0.965057
0.580597
0.577259
0.741425
1.32287
0.903687
0.495605
0.186996
1.28175
1.73635
1.91074
0.277405
0.309937
0.791111
-0.0102539
0.43219
0.564697
0.177399
0.33963
0.71888
0.58078
0.379913
0.375366
0.607719
1.80137
0.463016
0.500076
0.411743
0.249634
0.486549
0.786133
0.949752
0.394043
0.425781
0.556726
1.10432
1.15643
0.247253
0.688232
0.406982
0.325075
0.641754
0.649258
0.216215
1.30934
2.2625
1.66222
0.87558
0.33622
1.81144
0.563789
0.640128
2.15485
1.23281
0.688582
0.564453
1.82511
0.443726
0.125565
0.176678
0.220703
0.433016
0.587193
0.692661
0.255318
0.421219
0.493765
0.461537
0.409469
0.251751
0.176651
0.276987
0.44006
0.377371
0.348667
0.362114
0.214417
0.495262
0.431299
0.302467
0.714027
0.472641
0.159567
0.394117
0.487938
0.468527
0.46821
0.427185
0.280663
0.355713
0.404079
0.392136
0.624725
0.455288
0.508545
0.586945
0.310242
0.618134
0.646301
0.967188
0.939491
0.611023
0.709906
0.389443
2.23292
0.468197
0.382507
0.553273
0.721375
0.784489
1.03128
0.253174
0.470642
0.218964
0.711864
0.578236
0.305458
0.263062
0.235352
0.122658
0.424927
0.208374
0.352661
0.230225
0.258545
0.169678
0.961964
0.701988
0.880119
0.276123
0.445313
0.471436
0.543335
0.573242
0.4375
0.290527
0.317108
0.342403
0.416504
1.60407
0.900787
0.377441
0.154877
0.45192
0.148193
1.48228
1.33226
1.00192
1.94684
1.72204
0.970024
1.04483
0.463898
0.613464
0.4487
0.313141
0.486122
0.312366
0.936589
0.760048
0.850368
0.697243
0.741299
0.461365
2.20825
0.931442
0.262146
0.854706
0.873711
2.23813
2.16812
0.479904
0.56152
0.161087
0.339325
0.378906
0.408806
0.262756
1.53876
2.35266
2.44613
2.18191
2.24437
0.970901
0.515594
1.82493
0.298218
0.251526
0.168335
1.60563
0.579163
0.673096
0.498535
0.522461
0.112671
0.358093
0.0904541
1.29139
0.935287
0.356934
0.52002
0.515991
0.640381
0.416016
0.659668
0.491089
0.809753
0.147949
0.38623
0.253784
0.293213
0.352783
0.127075
0.120117
0.106873
0.111328
0.323954
0.305634
0.2453
0.404469
0.338379
1.66361
0.921021
0.237976
0.701141
0.410522
0.290405
0.337158
0.322723
0.235352
0.249023
0.329422
0.368437
0.443878
0.409912
0.511597
0.258919
0.225922
1.95579
0.877932
1.28191
2.13019
0.468243
0.926432
0.456573
0.808327
0.578537
0.487732
0.422592
0.546906
0.528968
0.847177
0.411011
0.204956
0.396484
0.394165
0.486816
0.406815
0.436279
0.384155
0.369019
0.410989
0.532124
0.41774
0.990509
1.17199
0.437012
0.569214
0.839508
1.32292
1.14346
0.236328
0.261719
1.02688
0.389374
0.991497
0.219589
0.414795
0.470093
0.40152
0.774199
0.833496
0.465393
0.516697
1.08773
0.648438
0.92437
0.52948
1.08423
1.29115
0.327332
0.144287
0.611352
0.709564
0.225592
0.464725
0.351135
1.20885
0.706245
0.156738
0.33313
0.300018
0.593613
0.522745
0.21381
0.337577
0.172922
0.473015
1.07406
1.26895
0.898779
0.8792
0.716789
0.219006
0.436352
0.221572
1.09954
1.88055
0.431885
0.692383
1.54939
1.94126
2.99548
1.67852
1.16452
1.90842
1.15419
2.19468
0.759882
0.456055
0.449551
0.515549
0.531847
1.47724
0.424599
0.535858
0.72746
0.530475
2.082
0.954485
1.88602
2.28785
1.99859
2.51483
0.0688782
0.671936
1.28904
0.930096
0.805695
0.598648
0.557922
2.18382
0.765648
2.65805
0.286163
0.168056
0.463409
0.451538
0.415039
2.08556
0.628771
0.727333
0.478577
0.510269
1.4518
0.590556
1.60587
1.02938
0.292889
0.202919
0.188025
0.33847
0.134521
0.148865
0.193783
0.384476
0.289917
0.398376
0.45418
0.289204
0.498901
0.49167
0.409508
0.137573
0.606525
0.448639
0.67882
0.387234
0.46711
0.288635
0.290405
0.450558
0.341576
0.259003
0.400208
0.29644
0.552723
0.41922
0.36634
0.288059
0.313345
0.356434
0.451584
0.432341
0.445948
0.746296
0.450409
0.173058
0.172791
0.470505
0.61591
0.162527
0.208
0.224142
0.398471
0.472412
0.575285
0.531146
0.324579
0.444967
0.321056
0.366722
0.383707
0.434723
0.23194
0.201015
0.447273
0.407097
0.167892
0.274738
0.12345
0.128016
0.191891
0.257
0.383755
0.16272
0.509415
0.511505
0.370071
0.454346
0.294418
0.436988
0.465098
0.421379
0.480469
0.553444
0.338009
0.458817
0.202698
0.249775
0.170151
0.187694
0.268997
0.522736
0.235825
0.209396
0.437302
0.472275
0.479927
0.559143
0.540491
0.551501
0.603285
0.248932
0.406586
0.47734
0.393127
0.81776
0.69548
0.607391
0.400177
0.502243
0.381681
0.289902
0.314766
0.458282
0.108411
0.20355
0.162125
0.182793
0.319923
0.556267
0.356796
0.829185
0.854529
0.647141
0.692454
0.324356
0.858822
0.383911
0.310516
0.365265
0.72864
0.874393
0.799931
0.312422
0.359947
0.169071
0.340112
0.31514
0.524651
0.54867
0.453461
0.345551
0.530807
0.429565
0.37677
0.492065
0.697898
0.494457
0.783083
0.760037
0.597383
0.267273
0.661631
0.431042
0.287354
0.0362244
0.182602
0.385048
0.97353
0.632721
1.12937
1.09294
0.773865
0.356853
0.508545
0.505737
0.261719
0.647659
0.728464
0.263672
1.03268
0.935184
0.537659
0.270569
0.843005
0.800842
0.977239
0.170837
1.13056
0.482285
0.582764
0.500183
0.753181
0.485065
0.689821
0.479048
0.284042
0.896667
1.02248
1.07503
0.488129
0.608856
0.530807
0.507233
0.790038
0.558553
0.804729
0.547204
0.449615
0.555988
2.61035
2.16334
2.47975
2.79945
2.29231
0.553864
0.857254
0.828818
0.365326
0.377792
0.465958
0.367859
0.537506
0.46785
0.365967
0.40509
0.402924
0.307001
2.38019
0.58194
0.666073
1.46302
0.444654
0.463136
0.518792
0.573026
