# vtk DataFile Version 4.2
vtk output
ASCII
DATASET POLYDATA
POINTS 602 float
0.598545 0.379205 -0.230147
0.55678 0.386777 -0.243536
0.463005 0.39568 -0.26871
0.329065 0.397938 -0.296872
0.165849 0.390154 -0.322067
-0.0147843 0.371493 -0.340321
-0.200567 0.342441 -0.349237
-0.379284 0.304345 -0.347703
-0.538993 0.259632 -0.335876
-0.667817 0.212762 -0.315792
-0.750052 0.173731 -0.294286
0.618554 0.366161 -0.23821
0.570822 0.36377 -0.268668
0.473818 0.36199 -0.30581
0.336728 0.354323 -0.341854
0.170718 0.338413 -0.371192
-0.0120407 0.314101 -0.390292
-0.199084 0.282242 -0.397223
-0.378145 0.244449 -0.391266
-0.537597 0.20347 -0.372849
-0.667525 0.16387 -0.343785
-0.767903 0.12946 -0.305139
0.654755 0.336438 -0.254043
0.594247 0.326703 -0.296968
0.4893 0.315242 -0.34243
0.346616 0.298458 -0.383088
0.176666 0.275558 -0.413852
-0.00867611 0.247001 -0.431785
-0.197229 0.213774 -0.435486
-0.377188 0.177336 -0.424681
-0.538057 0.139708 -0.400119
-0.672959 0.102602 -0.363368
-0.781598 0.0650619 -0.315514
0.69405 0.292417 -0.273292
0.620427 0.275033 -0.325246
0.505975 0.254782 -0.37569
0.356751 0.230403 -0.41799
0.182542 0.202208 -0.447921
-0.00538719 0.170899 -0.463273
-0.195428 0.13721 -0.463185
-0.37645 0.101914 -0.447759
-0.538917 0.06565 -0.417875
-0.676369 0.0284308 -0.374878
-0.785661 -0.00994137 -0.320511
0.73033 0.234827 -0.292455
0.644392 0.209833 -0.349953
0.520751 0.182178 -0.402231
0.365402 0.15212 -0.443708
0.187468 0.120399 -0.471171
-0.00251891 0.0875276 -0.483104
-0.193552 0.0537379 -0.479039
-0.374968 0.0191004 -0.459233
-0.537385 -0.0164075 -0.424537
-0.673494 -0.0526545 -0.376509
-0.778279 -0.0889534 -0.31813
0.759358 0.165716 -0.308281
0.662728 0.134102 -0.367837
0.53151 0.101003 -0.419146
0.371524 0.0673063 -0.457894
0.191078 0.033598 -0.481822
-5.12258e-09 1.5089e-09 -0.489898
-0.191078 -0.033598 -0.481822
-0.371524 -0.0673064 -0.457894
-0.53151 -0.101003 -0.419146
-0.662728 -0.134102 -0.367837
-0.759358 -0.165716 -0.308281
0.778279 0.0889534 -0.31813
0.673494 0.0526545 -0.376509
0.537385 0.0164075 -0.424537
0.374968 -0.0191004 -0.459233
0.193552 -0.0537379 -0.47904
0.00251889 -0.0875276 -0.483104
-0.187468 -0.120399 -0.471171
-0.365402 -0.15212 -0.443708
-0.520751 -0.182178 -0.402231
-0.644392 -0.209833 -0.349953
-0.73033 -0.234827 -0.292455
0.785661 0.00994137 -0.320511
0.676369 -0.0284308 -0.374878
0.538917 -0.06565 -0.417875
0.37645 -0.101914 -0.447759
0.195428 -0.13721 -0.463185
0.00538717 -0.170899 -0.463273
-0.182542 -0.202208 -0.447921
-0.356751 -0.230403 -0.41799
-0.505975 -0.254782 -0.37569
-0.620427 -0.275033 -0.325246
-0.69405 -0.292417 -0.273292
0.781598 -0.0650619 -0.315514
0.672959 -0.102602 -0.363368
0.538057 -0.139708 -0.400119
0.377188 -0.177336 -0.424681
0.197229 -0.213774 -0.435486
0.00867609 -0.247001 -0.431785
-0.176666 -0.275558 -0.413852
-0.346616 -0.298458 -0.383088
-0.4893 -0.315242 -0.34243
-0.594247 -0.326703 -0.296968
-0.654755 -0.336438 -0.254043
0.767903 -0.12946 -0.305139
0.667525 -0.16387 -0.343785
0.537597 -0.20347 -0.372849
0.378145 -0.244449 -0.391266
0.199084 -0.282242 -0.397223
0.0120407 -0.314101 -0.390292
-0.170718 -0.338413 -0.371192
-0.336728 -0.354323 -0.341854
-0.473818 -0.36199 -0.30581
-0.570822 -0.36377 -0.268668
-0.618554 -0.366161 -0.23821
0.750052 -0.173731 -0.294286
0.667817 -0.212762 -0.315792
0.538993 -0.259632 -0.335876
0.379284 -0.304345 -0.347703
0.200567 -0.342441 -0.349237
0.0147843 -0.371493 -0.340321
-0.165849 -0.390154 -0.322067
-0.329065 -0.397938 -0.296872
-0.463005 -0.39568 -0.26871
-0.55678 -0.386777 -0.243536
-0.598545 -0.379204 -0.230147
0.619205 0.379053 -0.215873
0.67342 0.351093 -0.218713
0.728045 0.311129 -0.226362
0.778376 0.258916 -0.236561
0.819977 0.195753 -0.246744
0.849608 0.12434 -0.254519
0.865222 0.0488101 -0.258237
0.865961 -0.0257508 -0.257587
0.851897 -0.0941587 -0.254132
0.822775 -0.152408 -0.252045
0.768192 -0.204426 -0.26003
0.673674 -0.258351 -0.274695
0.540809 -0.311186 -0.287412
0.37957 -0.357551 -0.29373
0.200872 -0.394121 -0.292215
0.0160829 -0.41901 -0.283107
-0.163157 -0.431289 -0.26788
-0.325262 -0.430953 -0.249238
-0.459405 -0.419421 -0.231226
-0.556983 -0.400416 -0.219026
-0.619205 -0.379053 -0.215873
-0.67342 -0.351093 -0.218713
-0.728045 -0.311129 -0.226362
-0.778376 -0.258916 -0.236561
-0.819977 -0.195753 -0.246744
-0.849608 -0.12434 -0.254519
-0.865222 -0.0488101 -0.258237
-0.865961 0.0257508 -0.257587
-0.851897 0.0941587 -0.254132
-0.822775 0.152408 -0.252045
-0.768192 0.204426 -0.26003
0.656553 0.37757 -0.181966
0.729554 0.336719 -0.18236
0.794299 0.286151 -0.18459
0.848602 0.226231 -0.187898
0.889581 0.158907 -0.191156
0.915266 0.0871528 -0.193271
0.924759 0.0145608 -0.193792
0.917964 -0.0553128 -0.19343
0.894742 -0.120167 -0.194332
0.852151 -0.181194 -0.199607
0.782206 -0.242167 -0.209346
0.677733 -0.302531 -0.219793
0.540353 -0.357601 -0.227344
0.377656 -0.403156 -0.229966
0.199183 -0.436619 -0.227149
0.0152607 -0.456655 -0.219547
-0.163398 -0.462825 -0.2088
-0.326227 -0.455648 -0.197438
-0.464021 -0.437026 -0.188436
-0.572021 -0.410332 -0.183673
-0.656553 -0.37757 -0.181966
-0.729554 -0.336719 -0.18236
-0.794299 -0.286151 -0.18459
-0.848602 -0.226231 -0.187898
-0.889581 -0.158907 -0.191156
-0.915266 -0.0871529 -0.193271
-0.924759 -0.0145608 -0.193792
-0.917964 0.0553128 -0.19343
-0.894742 0.120167 -0.194332
-0.852151 0.181194 -0.199607
-0.782206 0.242167 -0.209346
0.697176 0.372274 -0.131493
0.781288 0.320421 -0.130622
0.850181 0.260572 -0.130025
0.903044 0.19463 -0.129611
0.939078 0.125145 -0.129245
0.958293 0.0546937 -0.12888
0.961255 -0.0146353 -0.128847
0.94834 -0.0817793 -0.130039
0.918348 -0.14741 -0.133627
0.866801 -0.213421 -0.139873
0.787118 -0.279639 -0.147301
0.675866 -0.342296 -0.153778
0.535554 -0.396729 -0.157695
0.372572 -0.439588 -0.158269
0.195039 -0.46903 -0.155553
0.0120283 -0.484268 -0.150341
-0.166811 -0.48529 -0.144055
-0.332059 -0.472922 -0.13843
-0.476257 -0.448909 -0.134718
-0.596847 -0.415154 -0.132726
-0.697176 -0.372274 -0.131493
-0.781288 -0.320421 -0.130622
-0.850181 -0.260572 -0.130025
-0.903044 -0.19463 -0.129611
-0.939078 -0.125145 -0.129245
-0.958293 -0.0546937 -0.12888
-0.961255 0.0146353 -0.128847
-0.94834 0.0817793 -0.130039
-0.918348 0.14741 -0.133627
-0.866801 0.213421 -0.139873
-0.787118 0.279639 -0.147301
0.734226 0.360452 -0.0679123
0.823517 0.300132 -0.0672263
0.891925 0.233687 -0.066361
0.94 0.164332 -0.0654121
0.969342 0.0947176 -0.0645935
0.982034 0.0262341 -0.0641866
0.979547 -0.0410332 -0.0645772
0.96173 -0.108049 -0.0662008
0.925927 -0.176201 -0.0692248
0.867193 -0.245551 -0.0732089
0.780962 -0.31332 -0.0772395
0.666151 -0.37496 -0.0803687
0.525513 -0.426449 -0.0819129
0.364156 -0.465323 -0.0816006
0.188604 -0.490418 -0.0796045
0.00665243 -0.501316 -0.0765233
-0.172979 -0.498121 -0.073285
-0.341769 -0.481483 -0.0707797
-0.49318 -0.45242 -0.0693106
-0.624131 -0.411803 -0.0685142
-0.734226 -0.360452 -0.0679123
-0.823517 -0.300132 -0.0672263
-0.891925 -0.233687 -0.066361
-0.94 -0.164332 -0.0654121
-0.969342 -0.0947176 -0.0645934
-0.982034 -0.0262341 -0.0641866
-0.979547 0.0410332 -0.0645772
-0.96173 0.108049 -0.0662008
-0.925927 0.176201 -0.0692248
-0.867193 0.245551 -0.0732089
-0.780962 0.31332 -0.0772395
0.76305 0.340744 0.00363919
0.85272 0.275007 0.00258974
0.917324 0.205355 0.00157132
0.95924 0.135459 0.000783239
0.982262 0.0670936 0.000287659
0.989549 -4.79907e-09 -8.71971e-11
0.982262 -0.0670936 -0.000287661
0.95924 -0.135459 -0.000783237
0.917324 -0.205355 -0.00157132
0.85272 -0.275007 -0.00258974
0.76305 -0.340744 -0.00363919
0.648387 -0.398487 -0.00439712
0.510724 -0.445206 -0.00453106
0.35327 -0.479326 -0.00381865
0.180765 -0.500114 -0.00221494
-5.73109e-10 -0.507107 6.14751e-09
-0.180765 -0.500114 0.00221494
-0.35327 -0.479326 0.00381865
-0.510724 -0.445206 0.00453106
-0.648387 -0.398487 0.00439713
-0.76305 -0.340744 0.00363919
-0.85272 -0.275007 0.00258975
-0.917324 -0.205355 0.00157132
-0.95924 -0.135459 0.000783242
-0.982262 -0.0670936 0.000287662
-0.989549 5.24635e-09 2.31877e-09
-0.982262 0.0670936 -0.000287655
-0.95924 0.135459 -0.000783233
-0.917324 0.205355 -0.00157131
-0.85272 0.275007 -0.00258974
-0.76305 0.340744 -0.00363918
0.780962 0.31332 0.0772395
0.867193 0.245551 0.0732089
0.925927 0.1762 0.0692248
0.96173 0.108049 0.0662008
0.979547 0.0410332 0.0645772
0.982034 -0.0262341 0.0641866
0.969342 -0.0947176 0.0645934
0.94 -0.164332 0.0654121
0.891925 -0.233687 0.066361
0.823517 -0.300132 0.0672263
0.734226 -0.360452 0.0679123
0.624131 -0.411803 0.0685143
0.49318 -0.45242 0.0693106
0.341769 -0.481483 0.0707797
0.172979 -0.498121 0.073285
-0.00665244 -0.501316 0.0765233
-0.188604 -0.490418 0.0796045
-0.364156 -0.465323 0.0816006
-0.525513 -0.426449 0.0819129
-0.666151 -0.37496 0.0803687
-0.780962 -0.31332 0.0772395
-0.867193 -0.245551 0.0732089
-0.925927 -0.1762 0.0692248
-0.96173 -0.108049 0.0662008
-0.979547 -0.0410332 0.0645772
-0.982034 0.0262341 0.0641866
-0.969342 0.0947177 0.0645935
-0.94 0.164332 0.0654121
-0.891925 0.233687 0.066361
-0.823517 0.300132 0.0672263
-0.734226 0.360452 0.0679123
0.787118 0.279639 0.147301
0.866801 0.213421 0.139873
0.918348 0.14741 0.133627
0.94834 0.0817793 0.130039
0.961255 0.0146353 0.128847
0.958293 -0.0546937 0.12888
0.939078 -0.125145 0.129245
0.903044 -0.19463 0.129611
0.850181 -0.260572 0.130025
0.781288 -0.320421 0.130622
0.697176 -0.372274 0.131493
0.596847 -0.415154 0.132726
0.476257 -0.448909 0.134718
0.332059 -0.472922 0.13843
0.166811 -0.48529 0.144055
-0.0120283 -0.484268 0.150341
-0.195039 -0.46903 0.155553
-0.372572 -0.439588 0.158269
-0.535554 -0.396729 0.157695
-0.675866 -0.342296 0.153778
-0.787118 -0.279639 0.147301
-0.866801 -0.213421 0.139873
-0.918348 -0.14741 0.133627
-0.94834 -0.0817793 0.130039
-0.961255 -0.0146353 0.128847
-0.958293 0.0546937 0.12888
-0.939078 0.125145 0.129245
-0.903044 0.19463 0.129611
-0.850181 0.260572 0.130025
-0.781288 0.320421 0.130622
-0.697176 0.372274 0.131493
0.782206 0.242167 0.209346
0.852151 0.181194 0.199607
[...]
POINT_DATA 602
SCALARS CoVolArea float 1
LOOKUP_TABLE default
0.00059967
0.00249667
0.00578673
0.0093143
0.0122597
0.0140297
0.0143225
0.0131126
0.0105934
0.00706878
0.00372233
0.00162616
0.00384478
0.00717181
0.0105666
0.0132284
0.0146222
0.0145241
0.0129951
0.0103532
0.00731466
0.00589752
0.00335092
0.00577602
0.00899701
0.0121056
0.0143777
0.0153868
0.0150232
0.0134761
0.0112547
0.00921094
0.00789772
0.00519204
0.00777535
0.0108368
0.0135978
0.0154818
0.0162006
0.0157501
0.0143816
0.0125405
0.0106587
0.00889759
0.0069127
0.00953465
0.0123519
0.0147457
0.0163051
0.0168504
0.016403
0.0151395
0.0133155
0.0111809
0.00898538
0.00826012
0.0107557
0.0132466
0.0153009
0.0166385
0.0171019
0.0166385
0.0153009
0.0132466
0.0107557
0.00826012
0.00898538
0.0111809
0.0133155
0.0151395
0.016403
0.0168504
0.0163051
0.0147457
0.0123519
0.00953465
0.0069127
0.00889759
0.0106587
0.0125405
0.0143816
0.0157501
0.0162006
0.0154818
0.0135978
0.0108368
0.00777535
0.00519204
0.00789772
0.00921094
0.0112547
0.0134761
0.0150232
0.0153868
0.0143777
0.0121056
0.00899701
0.00577602
0.00335092
0.00589752
0.00731466
0.0103532
0.0129951
0.0145241
0.0146222
0.0132284
0.0105666
0.00717181
0.00384478
0.00162616
0.00372233
0.00706878
0.0105934
0.0131126
0.0143225
0.0140297
0.0122597
0.0093143
0.00578672
0.00249667
0.000599668
0.00189394
0.00262552
0.003855
0.00516311
0.00630266
0.00706428
0.00728401
0.0068809
0.00589749
0.00474026
0.00560571
0.00859981
0.0115073
0.0135419
0.0143176
0.013673
0.0116889
0.00872501
0.00543525
0.00276469
0.00189394
0.00262551
0.00385501
0.00516311
0.00630266
0.00706429
0.00728402
0.0068809
0.00589749
0.00474026
0.00560571
0.00402745
0.00422974
0.00476806
0.00535679
0.00581162
0.00601286
0.00591156
0.00556561
0.00524829
0.00569668
0.00748322
0.0100199
0.0123794
0.013944
0.01438
0.0135808
0.0116767
0.00907236
0.00645228
0.00463038
0.00402745
0.00422974
0.00476806
0.00535678
0.00581162
0.00601286
0.00591156
0.00556561
0.00524829
0.00569668
0.00748322
0.0061845
0.00581278
0.00562748
0.0054979
0.00535746
0.00519
0.00503579
0.00503401
0.00548499
0.00671395
0.00868168
0.0109129
0.0128489
0.0140815
0.0143857
0.0137089
0.0121982
0.0102272
0.00832891
0.00695339
0.0061845
0.00581278
0.00562748
0.00549789
0.00535747
0.00519
0.00503579
0.00503401
0.00548499
0.00671395
0.00868168
0.00793988
0.00697995
0.00614189
0.0054528
0.00495142
0.00467119
0.00466186
0.00503145
0.00592494
0.00738314
0.00922358
0.0111079
0.0127072
0.0137866
0.0142038
0.0139112
0.0129955
0.0116915
0.0102996
0.00903402
0.00793988
0.00697995
0.00614189
0.00545281
0.00495142
0.00467119
0.00466186
0.00503145
0.00592494
0.00738314
0.00922358
0.00899249
0.00751233
0.00621409
0.00524815
0.00467914
0.00449533
0.00467914
0.00524815
0.00621409
0.00751233
0.00899248
0.0104817
0.0118441
0.0129705
0.0137336
0.0140064
0.0137336
0.0129705
0.0118441
0.0104817
0.00899249
0.00751233
0.00621409
0.00524815
0.00467914
0.00449533
0.00467914
0.00524815
0.00621409
0.00751233
0.00899249
0.00922358
0.00738314
0.00592494
0.00503144
0.00466186
0.00467119
0.00495142
0.00545281
0.00614189
0.00697995
0.00793988
0.00903401
0.0102996
0.0116915
0.0129955
0.0139112
0.0142038
0.0137866
0.0127072
0.0111079
0.00922358
0.00738314
0.00592494
0.00503145
0.00466186
0.0046712
0.00495142
0.00545281
0.00614189
0.00697995
0.00793988
0.00868168
0.00671395
0.00548498
0.00503401
0.00503579
0.00519
0.00535747
0.00549789
0.00562747
0.00581278
0.0061845
0.00695339
0.00832891
0.0102272
0.0121982
0.0137089
0.0143857
0.0140816
0.0128489
0.0109129
0.00868168
0.00671395
0.00548499
0.00503401
0.00503579
0.00519
0.00535747
0.0054979
0.00562747
0.00581278
0.0061845
0.00748322
0.00569668
0.00524829
0.00556561
0.00591156
0.00601286
0.00581162
0.00535679
0.00476806
0.00422974
0.00402745
0.00463038
0.00645228
0.00907236
0.0116767
0.0135808
0.01438
0.013944
0.0123794
0.0100199
0.00748322
0.00569668
0.00524829
0.00556561
0.00591156
0.00601286
0.00581162
0.00535678
0.00476806
0.00422974
0.00402745
0.0056057
0.00474026
0.00589749
0.0068809
0.00728402
0.00706428
0.00630267
0.00516311
0.003855
0.00262551
0.00189394
0.00276469
0.00543526
0.00872501
0.0116889
0.013673
0.0143176
0.0135419
0.0115073
0.00859981
0.00560571
0.00474026
0.00589749
0.0068809
0.00728401
0.00706428
0.00630266
0.00516311
0.00385501
0.00262551
0.00189394
0.00372234
0.00589752
0.00789772
0.00889758
0.00898538
0.00826012
0.0069127
0.00519205
0.00335092
0.00162616
0.00059967
0.00249668
0.00578673
0.0093143
0.0122596
0.0140297
0.0143225
0.0131126
0.0105934
0.00706878
0.00372233
0.00589752
0.00789772
0.00889759
0.00898538
0.00826012
0.0069127
0.00519204
0.00335092
0.00162616
0.00059967
0.00384478
0.00717181
0.0105666
0.0132284
0.0146222
0.0145241
0.0129951
0.0103532
0.00731466
0.00577602
0.00899701
0.0121056
0.0143777
0.0153868
0.0150232
0.0134761
0.0112547
0.00921094
0.00777535
0.0108368
0.0135978
0.0154818
0.0162006
0.0157501
0.0143816
0.0125405
0.0106587
0.00953466
0.0123519
0.0147457
0.0163051
0.0168504
0.016403
0.0151395
0.0133155
0.0111809
0.0107557
0.0132466
0.0153009
0.0166385
0.0171019
0.0166386
0.0153009
0.0132466
0.0107557
0.0111809
0.0133155
0.0151395
0.016403
0.0168504
0.0163051
0.0147457
0.0123519
0.00953465
0.0106587
0.0125405
0.0143816
0.0157501
0.0162006
0.0154818
0.0135978
0.0108368
0.00777535
0.00921094
0.0112547
0.0134761
0.0150232
0.0153868
0.0143777
0.0121056
0.00899701
0.00577602
0.00731466
0.0103532
0.0129951
0.0145241
0.0146222
0.0132284
0.0105666
0.00717182
0.00384478
0.00706878
0.0105934
0.0131126
0.0143225
0.0140297
0.0122597
0.0093143
0.00578672
0.00249668
0.0085998
0.0115073
0.0135419
0.0143176
0.013673
0.0116889
0.00872501
0.00543526
0.00276469
0.0100199
0.0123794
0.013944
0.01438
0.0135808
0.0116767
0.00907236
0.00645228
0.00463038
0.0109129
0.0128489
0.0140816
0.0143856
0.0137089
0.0121982
0.0102272
0.00832891
0.00695339
0.0111079
0.0127072
0.0137866
0.0142038
0.0139112
0.0129955
0.0116915
0.0102996
0.00903401
0.0104817
0.0118441
0.0129705
0.0137336
0.0140064
0.0137336
0.0129705
0.0118441
0.0104817
0.00903402
0.0102996
0.0116915
0.0129955
0.0139112
0.0142038
0.0137866
0.0127072
0.0111079
0.00695339
0.00832891
0.0102272
0.0121982
0.0137089
0.0143857
0.0140816
0.0128489
0.0109129
0.00463038
0.00645228
0.00907236
0.0116767
0.0135808
0.01438
0.013944
0.0123794
0.0100199
0.00276469
0.00543525
0.00872501
0.0116889
0.013673
0.0143176
0.0135419
0.0115073
0.00859981
