# vtk DataFile Version 4.2
vtk output
ASCII
DATASET POLYDATA
POINTS 602 float
0.823175 0.517011 -0.515681
0.706575 0.557284 -0.556445
0.563495 0.59458 -0.59427
0.394092 0.625703 -0.625692
0.203194 0.646633 -0.646698
-1.29783e-06 0.654083 -0.654083
-0.203202 0.646716 -0.646651
-0.39414 0.625771 -0.62578
-0.563729 0.594536 -0.594817
-0.707421 0.557092 -0.557838
-0.824765 0.517056 -0.518512
0.876345 0.440293 -0.548476
0.758377 0.478136 -0.597187
0.610344 0.515773 -0.643932
0.430622 0.54801 -0.684126
0.223413 0.570163 -0.711755
-3.11758e-05 0.578198 -0.721718
-0.2235 0.570456 -0.711988
-0.430823 0.548531 -0.684638
-0.610836 0.516444 -0.644784
-0.759346 0.47883 -0.598458
-0.877882 0.440523 -0.551036
0.925293 0.348802 -0.578506
0.808861 0.381845 -0.635785
0.657507 0.416276 -0.692878
0.468263 0.446777 -0.7435
0.244621 0.468281 -0.779221
-5.56694e-05 0.476236 -0.792365
-0.244807 0.4687 -0.779711
-0.468659 0.447495 -0.744379
-0.658222 0.417133 -0.694
-0.809985 0.382755 -0.637051
-0.926572 0.348673 -0.580459
0.965754 0.242545 -0.603241
0.851817 0.267827 -0.668609
0.699001 0.294799 -0.735875
0.502303 0.319387 -0.797124
0.264179 0.337141 -0.841343
-5.9555e-05 0.343808 -0.857841
-0.264396 0.33751 -0.841947
-0.502758 0.319996 -0.79811
-0.699735 0.295492 -0.736967
-0.852771 0.268489 -0.669623
-0.96663 0.24238 -0.604384
0.992771 0.124489 -0.619657
0.881211 0.138418 -0.691071
0.728152 0.15345 -0.766136
0.526786 0.167422 -0.835752
0.278488 0.177684 -0.886789
-3.85707e-05 0.181573 -0.905923
-0.278637 0.177892 -0.887221
-0.527095 0.167767 -0.836419
-0.728617 0.153844 -0.766811
-0.881759 0.138786 -0.691611
-0.993195 0.124534 -0.62012
1.00241 -8.57585e-05 -0.625522
0.891896 -0.00012849 -0.699257
0.738889 -0.000125886 -0.777354
0.535906 -0.000103395 -0.850219
0.283862 -5.93565e-05 -0.90385
-2.42269e-09 1.05336e-08 -0.92385
-0.283862 5.9354e-05 -0.90385
-0.535906 0.000103402 -0.850219
-0.73889 0.000125866 -0.777354
-0.891896 0.000128525 -0.699257
-1.00241 8.57463e-05 -0.625522
0.993195 -0.124534 -0.62012
0.881759 -0.138787 -0.691611
0.728617 -0.153844 -0.766811
0.527095 -0.167767 -0.836419
0.278637 -0.177892 -0.887221
3.85686e-05 -0.181573 -0.905923
-0.278488 -0.177684 -0.886789
-0.526786 -0.167422 -0.835752
-0.728152 -0.15345 -0.766136
-0.881211 -0.138418 -0.691071
-0.992771 -0.124489 -0.619658
0.966629 -0.24238 -0.604384
0.852771 -0.268489 -0.669623
0.699735 -0.295492 -0.736967
0.502758 -0.319996 -0.79811
0.264396 -0.33751 -0.841947
5.95561e-05 -0.343808 -0.857841
-0.264179 -0.337142 -0.841343
-0.502303 -0.319387 -0.797124
-0.699002 -0.294799 -0.735875
-0.851818 -0.267827 -0.668609
-0.965754 -0.242545 -0.603241
0.926572 -0.348673 -0.580459
0.809985 -0.382755 -0.637051
0.658222 -0.417133 -0.694
0.468659 -0.447495 -0.744379
0.244807 -0.4687 -0.779711
5.56542e-05 -0.476236 -0.792365
-0.244621 -0.468281 -0.779221
-0.468263 -0.446777 -0.7435
-0.657507 -0.416276 -0.692878
-0.80886 -0.381845 -0.635785
-0.925293 -0.348802 -0.578506
0.877882 -0.440523 -0.551036
0.759346 -0.47883 -0.598458
0.610836 -0.516443 -0.644784
0.430823 -0.548531 -0.684638
0.2235 -0.570456 -0.711988
3.11935e-05 -0.578198 -0.721718
-0.223413 -0.570163 -0.711755
-0.430622 -0.54801 -0.684125
-0.610344 -0.515773 -0.643932
-0.758377 -0.478136 -0.597187
-0.876344 -0.440293 -0.548477
0.824765 -0.517056 -0.518512
0.707421 -0.557092 -0.557838
0.563729 -0.594536 -0.594817
0.39414 -0.625771 -0.62578
0.203202 -0.646716 -0.646651
1.30524e-06 -0.654083 -0.654083
-0.203194 -0.646633 -0.646698
-0.394092 -0.625703 -0.625692
-0.563495 -0.59458 -0.59427
-0.706574 -0.557284 -0.556445
-0.823175 -0.517011 -0.51568
0.876726 0.549866 -0.439458
0.940405 0.4704 -0.470012
1.00056 0.374212 -0.498926
1.05116 0.261316 -0.522759
1.08532 0.134554 -0.538595
1.09751 -0.000114335 -0.544286
1.08558 -0.134863 -0.539058
1.05165 -0.261842 -0.523665
1.00122 -0.374989 -0.500195
0.941167 -0.471177 -0.471486
0.877448 -0.549669 -0.441493
0.759186 -0.597792 -0.47886
0.610661 -0.644232 -0.516067
0.430701 -0.684228 -0.5481
0.223426 -0.711779 -0.570182
-2.81667e-05 -0.721718 -0.578199
-0.223488 -0.711966 -0.570438
-0.430751 -0.68454 -0.548442
-0.610523 -0.644489 -0.516131
-0.758505 -0.597868 -0.477969
-0.876726 -0.549866 -0.439458
-0.940405 -0.470401 -0.470011
-1.00056 -0.374212 -0.498926
-1.05116 -0.261316 -0.522759
-1.08532 -0.134554 -0.538595
-1.09751 0.00011436 -0.544286
-1.08558 0.134863 -0.539058
-1.05165 0.261842 -0.523665
-1.00122 0.374989 -0.500195
-0.941167 0.471177 -0.471486
-0.877448 0.549669 -0.441493
0.925693 0.579421 -0.348123
1.0006 0.499202 -0.374173
1.07319 0.399388 -0.399333
1.13525 0.280087 -0.420168
1.17758 0.14458 -0.433921
1.1927 -9.57304e-05 -0.438806
1.17778 -0.144851 -0.434255
1.13566 -0.280566 -0.420793
1.07374 -0.40009 -0.400134
1.00119 -0.499952 -0.375001
0.926158 -0.579582 -0.349462
0.809486 -0.636362 -0.38243
0.657776 -0.693179 -0.416537
0.468335 -0.743607 -0.446857
0.244633 -0.779246 -0.468298
-5.29584e-05 -0.792365 -0.476236
-0.244795 -0.779688 -0.468684
-0.468585 -0.744272 -0.447412
-0.65794 -0.693691 -0.416841
-0.809361 -0.636471 -0.382114
-0.925693 -0.579421 -0.348123
-1.0006 -0.499202 -0.374173
-1.07319 -0.399388 -0.399333
-1.13525 -0.280087 -0.420168
-1.17758 -0.14458 -0.433921
-1.1927 9.57443e-05 -0.438806
-1.17778 0.144851 -0.434255
-1.13566 0.280566 -0.420793
-1.07374 0.40009 -0.400134
-1.00119 0.499952 -0.375001
-0.926158 0.579582 -0.349462
0.966045 0.603618 -0.242068
1.05121 0.522899 -0.261346
1.13526 0.420211 -0.280094
1.20791 0.295479 -0.295473
1.25762 0.152651 -0.305361
1.2753 -5.7609e-05 -0.308762
1.25773 -0.152828 -0.305543
1.20818 -0.295827 -0.295831
1.13565 -0.420757 -0.280557
1.05161 -0.523543 -0.261809
0.966354 -0.604044 -0.242922
0.852261 -0.669062 -0.268181
0.699189 -0.736115 -0.294959
0.502353 -0.797208 -0.319435
0.264187 -0.841362 -0.337151
-5.77903e-05 -0.857841 -0.343808
-0.264387 -0.841928 -0.3375
-0.502704 -0.79802 -0.319942
-0.699542 -0.736718 -0.295314
-0.852338 -0.669176 -0.268131
-0.966045 -0.603618 -0.242068
-1.05121 -0.522899 -0.261346
-1.13526 -0.420211 -0.280094
-1.20791 -0.295479 -0.295473
-1.25762 -0.152651 -0.305361
-1.2753 5.76407e-05 -0.308762
-1.25773 0.152828 -0.305543
-1.20818 0.295827 -0.295831
-1.13565 0.420757 -0.280557
-1.05161 0.523543 -0.261809
-0.966354 0.604044 -0.242922
0.992908 0.61972 -0.124307
1.08536 0.538643 -0.134572
1.17759 0.43394 -0.144588
1.25762 0.305365 -0.152652
1.31216 0.157626 -0.157625
1.33141 -1.90011e-05 -0.159252
1.31219 -0.157698 -0.157698
1.25773 -0.305541 -0.152828
1.17777 -0.434244 -0.144843
1.08556 -0.53903 -0.134847
0.993078 -0.620094 -0.124748
0.881448 -0.691323 -0.138595
0.728246 -0.766265 -0.153521
0.52681 -0.835795 -0.167441
0.278492 -0.886798 -0.177687
-3.78147e-05 -0.905923 -0.181573
-0.278632 -0.88721 -0.177888
-0.527068 -0.836369 -0.167745
-0.728519 -0.766676 -0.153768
-0.881532 -0.691375 -0.138612
-0.992908 -0.61972 -0.124307
-1.08536 -0.538643 -0.134572
-1.17759 -0.43394 -0.144588
-1.25762 -0.305365 -0.152652
-1.31216 -0.157626 -0.157625
-1.33141 1.89899e-05 -0.159252
-1.31219 0.157698 -0.157698
-1.25773 0.305541 -0.152828
-1.17777 0.434244 -0.144843
-1.08556 0.53903 -0.134847
-0.993078 0.620094 -0.124748
1.00242 0.625541 0.000130448
1.09752 0.544299 0.000107694
1.1927 0.43881 9.21993e-05
1.2753 0.308763 5.70107e-05
1.33141 0.159252 1.90003e-05
1.35112 -1.73123e-08 -2.80454e-09
1.33141 -0.159253 -1.89834e-05
1.2753 -0.308763 -5.70381e-05
1.1927 -0.43881 -9.21924e-05
1.09752 -0.544299 -0.000107672
1.00242 -0.625541 -0.000130449
0.8919 -0.699265 1.58752e-05
0.738887 -0.777352 8.79973e-05
0.535904 -0.850215 9.47599e-05
0.283861 -0.903849 5.80167e-05
-3.11222e-09 -0.923849 -1.52982e-09
-0.283861 -0.903849 -5.80178e-05
-0.535904 -0.850215 -9.47458e-05
-0.738887 -0.777352 -8.80007e-05
-0.8919 -0.699265 -1.58784e-05
-1.00242 -0.625541 0.000130443
-1.09752 -0.544299 0.000107678
-1.1927 -0.43881 9.22108e-05
-1.2753 -0.308763 5.69966e-05
-1.33141 -0.159252 1.89769e-05
-1.35112 -2.45438e-09 -1.24037e-08
-1.33141 0.159252 -1.89807e-05
-1.2753 0.308763 -5.70361e-05
-1.1927 0.43881 -9.21733e-05
-1.09752 0.544299 -0.000107669
-1.00242 0.625541 -0.000130498
0.993078 0.620094 0.124748
1.08556 0.53903 0.134847
1.17777 0.434244 0.144843
1.25773 0.305541 0.152828
1.31219 0.157698 0.157698
1.33141 1.8989e-05 0.159252
1.31216 -0.157626 0.157625
1.25762 -0.305365 0.152652
1.17759 -0.43394 0.144588
1.08536 -0.538643 0.134572
0.992908 -0.61972 0.124307
0.881532 -0.691375 0.138612
0.728519 -0.766676 0.153768
0.527068 -0.836369 0.167745
0.278632 -0.88721 0.177888
3.78138e-05 -0.905923 0.181573
-0.278492 -0.886798 0.177687
-0.52681 -0.835795 0.167441
-0.728246 -0.766265 0.153521
-0.881448 -0.691323 0.138595
-0.993078 -0.620094 0.124748
-1.08556 -0.53903 0.134847
-1.17777 -0.434244 0.144843
-1.25773 -0.305541 0.152828
-1.31219 -0.157698 0.157698
-1.33141 -1.89978e-05 0.159252
-1.31216 0.157626 0.157625
-1.25762 0.305365 0.152652
-1.17759 0.43394 0.144588
-1.08536 0.538643 0.134572
-0.992908 0.61972 0.124307
0.966354 0.604044 0.242922
1.05161 0.523543 0.261809
1.13565 0.420757 0.280557
1.20818 0.295827 0.295832
1.25773 0.152828 0.305543
1.2753 5.76456e-05 0.308762
1.25762 -0.152651 0.305361
1.20791 -0.295479 0.295473
1.13526 -0.420211 0.280094
1.05121 -0.522899 0.261346
0.966045 -0.603618 0.242068
0.852338 -0.669176 0.268131
0.699542 -0.736718 0.295314
0.502704 -0.79802 0.319942
0.264387 -0.841928 0.3375
5.78103e-05 -0.857841 0.343808
-0.264187 -0.841362 0.337151
-0.502353 -0.797208 0.319435
-0.699189 -0.736115 0.294959
-0.852262 -0.669062 0.268181
-0.966354 -0.604044 0.242922
-1.05161 -0.523543 0.261809
-1.13565 -0.420757 0.280557
-1.20818 -0.295827 0.295831
-1.25773 -0.152828 0.305543
-1.2753 -5.76029e-05 0.308762
-1.25762 0.152651 0.305361
-1.20791 0.295479 0.295473
-1.13526 0.420211 0.280094
-1.05121 0.522899 0.261346
-0.966045 0.603618 0.242068
0.926158 0.579582 0.349462
1.00119 0.499952 0.375001
1.07374 0.40009 0.400134
1.13566 0.280566 0.420793
1.17778 0.144851 0.434255
1.1927 9.5756e-05 0.438806
[...]
POINT_DATA 602
SCALARS CoVolArea float 1
LOOKUP_TABLE default
0
0
0
0
0
0
0
0
0
0
0
0
0
0
0
0
0
0
0
0
0
0
0
0
0
0
0
0
0
0
0
0
0
0
0
0
0
0
0
0
0
0
0
0
0
0
0
0
0
0
0
0
0
0
0
0
0
0
0
0
0
0
0
0
0
0
0
0
0
0
0
0
0
0
0
0
0
0
0
0
0
0
0
0
0
0
0
0
0
0
0
0
0
0
0
0
0
0
0
0
0
0
0
0
0
0
0
0
0
0
0
0
0
0
0
0
0
0
0
0
0
0
0
0
0
0
0
0
0
0
0
0
0
0
0
0
0
0
0
0
0
0
0
0
0
0
0
0
0
0
0
0
0
0
0
0
0
0
0
0
0
0
0
0
0
0
0
0
0
0
0
0
0
0
0
0
0
0
0
0
0
0
0
0
0
0
0
0
0
0
0
0
0
0
0
0
0
0
0
0
0
0
0
0
0
0
0
0
0
0
0
0
0
0
0
0
0
0
0
0
0
0
0
0
0
0
0
0
0
0
0
0
0
0
0
0
0
0
0
0
0
0
0
0
0
0
0
0
0
0
0
0
0
0
0
0
0
0
0
0
0
0
0
0
0
0
0
0
0
0
0
0
0
0
0
0
0
0
0
0
0
0
0
0
0
0
0
0
0
0
0
0
0
0
0
0
0
0
0
0
0
0
0
0
0
0
0
0
0
0
0
0
0
0
0
0
0
0
0
0
0
0
0
0
0
0
0
0
0
0
0
0
0
0
0
0
0
0
0
0
0
0
0
0
0
0
0
0
0
0
0
0
0
0
0
0
0
0
0
0
0
0
0
0
0
0
0
0
0
0
0
0
0
0
0
0
0
0
0
0
0
0
0
0
0
0
0
0
0
0
0
0
0
0
0
0
0
0
0
0
0
0
0
0
0
0
0
0
0
0
0
0
0
0
0
0
0
0
0
0
0
0
0
0
0
0
0
0
0
0
0
0
0
0
0
0
0
0
0
0
0
0
0
0
0
0
0
0
0
0
0
0
0
0
0
0
0
0
0
0
0
0
0
0
0
0
0
0
0
0
0
0
0
0
0
0
0
0
0
0
0
0
0
0
0
0
0
0
0
0
0
0
0
0
0
0
0
0
0
0
0
0
0
0
0
0
0
0
0
0
0
0
0
0
0
0
0
0
0
0
0
0
0
0
0
0
0
0
0
0
0
0
0
0
0
0
0
0
0
0
0
0
0
0
0
0
0
0
0
0
0
0
0
0
0
0
0
0
0
0
0
0
0
0
0
0
0
0
0
0
0
0
0
0
0
0
0
0
0
0
0
0
0
0
0
0
0
0
0
0
0
0
0
0
0
0
0
0
0
0
0
0.0135877
