<VTKFile type="ImageData" version="1.0" byte_order="LittleEndian" header_type="UInt64">
	<ImageData WholeExtent="0 44 0 44 0 44" Origin="-34.1358 -34.1358 -34.1358" Spacing="2.86379 2.86379 2.86379">
		<Piece Extent="0 44 0 44 0 44">
			<PointData Scalars="Scalars_">
				<DataArray type="Float32" Name="Scalars_" format="ascii" RangeMin="0" RangeMax="100">
63.5318
61.8785
60.3022
58.8084
57.4033
56.094
54.887
53.7896
52.8094
51.9546
51.2331
50.6543
50.2282
49.9685
50.1201
50.3463
50.4877
50.6892
50.9596
51.31
51.6997
52.0824
52.46
52.8524
53.2897
53.7848
54.3347
54.9179
55.496
56.0536
56.6051
57.1754
57.7879
58.4611
59.2087
60.0387
60.9547
61.9578
63.0469
64.219
65.4711
66.7997
68.201
69.6712
71.2065
61.8786
60.1879
58.5742
57.0431
55.601
54.2551
53.0123
51.8804
50.8674
49.982
49.233
48.6302
48.1844
47.9113
48.0552
48.2625
48.3512
48.5281
48.7793
49.1171
49.4857
49.8331
50.1771
50.54
50.9562
51.436
51.9736
52.5416
53.0937
53.6218
54.1509
54.7095
55.3204
56.0015
56.7653
57.6181
58.5627
59.5987
60.724
61.9353
63.2286
64.6001
66.0452
67.5599
69.14
60.302
58.5746
56.9235
55.3549
53.8758
52.4929
51.214
50.047
49.0005
48.0835
47.3059
46.6779
46.2116
45.9241
46.0571
46.2374
46.2653
46.4179
46.6483
46.972
47.314
47.6189
47.9263
48.2569
48.6506
49.1141
49.6382
50.1881
50.7083
51.2042
51.7116
52.2601
52.872
53.5638
54.346
55.2244
56.2
57.2712
58.435
59.6875
61.0243
62.4405
63.9314
65.4922
67.119
58.8086
57.0444
55.3566
53.7511
52.2347
50.8149
49.4995
48.2972
47.2166
46.2675
45.4603
44.8062
44.3183
44.0157
44.1331
44.2754
44.238
44.3665
44.5731
44.8808
45.1889
45.4431
45.7119
46.0071
46.377
46.823
47.3322
47.8599
48.3418
48.803
49.2898
49.8308
50.4461
51.1511
51.9548
52.8612
53.8702
54.9792
56.1842
57.4802
58.8626
60.3255
61.864
63.4729
65.1477
57.4037
55.6043
53.8803
52.2384
50.6853
49.2291
47.8775
46.6397
45.5248
44.5433
43.7058
43.0248
42.5145
42.1955
42.2913
42.3814
42.2793
42.382
42.5615
42.8505
43.1148
43.3097
43.5392
43.795
44.1396
44.5667
45.0593
45.5603
45.9954
46.4209
46.8896
47.4256
48.0469
48.7676
49.5956
50.5327
51.5777
52.7271
53.9756
55.3178
56.7478
58.2594
59.8472
61.5057
63.2298
56.0942
54.2608
52.502
50.8247
49.2362
47.7443
46.3572
45.0843
43.9355
42.9212
42.0532
41.3445
40.8108
40.4746
40.54
40.5606
40.4009
40.4742
40.6216
40.8881
41.0967
41.2249
41.4147
41.6258
41.9438
42.3507
42.8244
43.2924
43.6719
44.062
44.5152
45.049
45.6792
46.4184
47.2732
48.2438
49.3277
50.52
51.8146
53.2051
54.6849
56.2473
57.8863
59.5959
61.3708
54.8871
53.0211
51.2293
49.5185
47.8961
46.3699
44.9489
43.6421
42.4599
41.4133
40.5148
39.778
39.22
38.8651
38.8875
38.826
38.6152
38.6543
38.7629
39.0014
39.1395
39.1969
39.3465
39.5058
39.7962
40.1809
40.633
41.0599
41.3737
41.7311
42.1722
42.7066
43.3483
44.1088
44.9931
46.0002
47.1257
48.3637
49.7069
51.148
52.6796
54.2946
55.9863
57.7486
59.5755
53.7897
51.8934
50.071
48.3289
46.6749
45.1167
43.6634
42.3245
41.1107
40.033
39.1045
38.3397
37.7561
37.3802
37.3423
37.1925
36.9362
36.9344
36.9962
37.1989
37.2503
37.2363
37.3432
37.4424
37.7046
38.0649
38.4918
38.8666
39.1052
39.4347
39.8674
40.4048
41.0604
41.845
42.7618
43.8081
44.9782
46.2646
47.6589
49.1529
50.7383
52.4076
54.1536
55.9695
57.8494
52.8095
50.8862
49.036
47.2656
45.5828
43.9957
42.5131
41.145
39.9017
38.7951
37.838
37.0453
36.435
36.0328
35.9171
35.6777
35.3789
35.3288
35.3347
35.4883
35.4389
35.3574
35.4152
35.4453
35.6788
36.0114
36.4083
36.717
36.8726
37.1809
37.6083
38.1512
38.8232
39.6346
40.5869
41.6755
42.8929
44.2302
45.6779
47.2268
48.868
50.5931
52.3946
54.2655
56.1992
51.9545
50.0077
48.1334
46.3386
44.6312
43.0192
41.5116
40.1181
38.8492
37.7166
36.733
35.9131
35.2742
34.8376
34.6277
34.3009
33.9598
33.8529
33.7932
33.8761
33.7207
33.5759
33.573
33.5271
33.7305
34.0308
34.3906
34.616
34.6848
34.9789
35.4042
35.9545
36.6456
37.4866
38.477
39.6107
40.8781
42.2688
43.7722
45.3779
47.0764
48.8589
50.7168
52.6432
54.631
51.2331
49.2669
47.3732
45.559
43.832
42.2003
40.673
39.2596
37.9703
36.8164
35.8098
34.9642
34.294
33.8115
33.4943
33.0836
32.6977
32.523
32.3891
32.3709
32.1152
31.9076
31.8298
31.7046
31.8743
32.1356
32.4479
32.5706
32.5548
32.841
33.2661
33.8256
34.5378
35.4109
36.4425
37.6239
38.9438
40.3902
41.9512
43.6154
45.3726
47.213
49.1282
51.1102
53.1524
50.6545
48.6739
46.7659
44.9378
43.1976
41.5531
40.0134
38.5875
37.2852
36.1166
35.0923
34.2229
33.5177
32.9748
32.5413
32.0506
31.614
31.3579
31.1387
30.9936
30.6439
30.3696
30.2023
29.9979
30.1275
30.3399
30.5897
30.5904
30.4995
30.7811
31.2074
31.7772
32.5123
33.42
34.4952
35.7268
37.1015
38.6055
40.2257
41.9496
43.7661
45.6651
47.6373
49.6751
51.7712
50.2282
48.239
46.323
44.488
42.7419
41.0931
39.5503
38.1223
36.8179
35.6451
34.6112
33.7216
32.9754
32.3538
31.798
31.2304
30.733
30.3789
30.059
29.7703
29.3312
28.9819
28.712
28.4306
28.5104
28.66
28.8245
28.6935
28.5385
28.816
29.2435
29.8242
30.584
31.5283
32.6493
33.9332
35.3644
36.9274
38.6077
40.3918
42.2678
44.225
46.2541
48.3468
50.4957
49.9686
47.9763
46.0588
44.2241
42.4808
40.838
39.3053
37.8915
36.6047
35.4497
34.4253
33.5213
32.7165
31.9849
31.3044
30.6587
30.0827
29.6119
29.173
28.7317
28.2055
27.769
27.3859
27.0305
27.0468
27.1141
27.1597
26.9056
26.694
26.9656
27.3936
27.9854
28.7706
29.753
30.9214
32.2589
33.7476
35.3702
37.1107
38.9547
40.8895
42.9041
44.9888
47.1348
49.335
50.1202
48.1414
46.2373
44.416
42.6862
41.0568
39.5371
38.1354
36.8582
35.7073
34.675
33.7387
32.8603
32.0044
31.1715
30.3932
29.6993
29.0934
28.514
27.9152
27.3016
26.7613
26.2571
25.8305
25.7641
25.722
25.6197
25.2552
24.9921
25.2539
25.681
26.2828
27.0936
28.1146
29.3307
30.7222
32.2684
33.95
35.7499
37.6524
39.6446
41.7146
43.8525
46.0497
48.2987
50.3457
48.3944
46.5157
44.7183
43.0105
41.4018
39.9006
38.5148
37.2492
36.1031
35.0647
34.1078
33.1951
32.3006
31.4265
30.5799
29.7556
28.9383
28.1339
27.373
26.6676
25.9972
25.3671
24.8689
24.6913
24.5077
24.2411
23.7755
23.4652
23.7103
24.1344
24.7437
25.5785
26.6371
27.9001
29.3444
30.9464
32.6852
34.542
36.5006
38.5471
40.6694
42.8574
45.1025
47.3971
50.4865
48.5843
46.7544
45.004
43.3411
41.7738
40.3103
38.9566
37.7163
36.5859
35.5516
34.5859
33.6555
32.7404
31.8409
30.957
30.0792
29.1925
28.2835
27.349
26.41
25.5289
24.7734
24.1954
23.8607
23.5072
23.0661
22.5073
22.1541
22.3709
22.7889
23.4009
24.256
25.349
26.6559
28.1495
29.804
31.596
33.5058
35.5161
37.6125
39.7827
42.0165
44.305
46.6408
50.6884
48.8201
47.0278
45.3184
43.6984
42.1752
40.7548
39.4417
38.2364
37.1322
36.112
35.1476
34.2101
33.2839
32.3667
31.4535
30.531
29.5824
28.5955
27.5751
26.546
25.5525
24.6517
23.8991
23.3176
22.7722
22.1463
21.5027
21.1128
21.28
21.6876
22.2939
23.1622
24.2834
25.6282
27.1655
28.8661
30.7052
32.6616
34.7173
36.8576
39.0698
41.3436
43.6701
46.0418
50.9589
49.1221
47.3638
45.6909
44.1099
42.6273
41.2482
39.9754
38.8067
37.7318
36.7301
35.7722
34.8324
33.8985
32.9653
32.0245
31.0637
30.0711
29.0416
27.9837
26.9212
25.8897
24.93
24.0583
23.2352
22.3875
21.5499
20.8377
20.4211
20.4919
20.8824
21.4693
22.3396
23.4789
24.8522
26.4234
28.161
30.0381
32.0323
34.125
36.301
38.5476
40.8541
43.2118
45.6134
51.3096
49.5017
47.7742
46.1338
44.5872
43.1402
41.7975
40.5602
39.4242
38.376
37.3911
36.4389
35.4953
34.5502
33.5974
32.629
31.6353
30.6089
29.5487
28.466
27.3871
26.3444
25.3654
24.4478
23.5538
22.6599
21.8089
21.0616
20.4919
20.0716
20.4275
20.9797
21.8383
22.9823
24.3706
25.9628
27.7242
29.6265
31.6463
33.7644
35.9653
38.2362
40.5665
42.9475
45.3718
51.6989
49.925
48.2315
46.6255
45.1135
43.7013
42.3924
41.1871
40.0789
39.0516
38.0773
37.1248
36.1729
35.2144
34.2443
33.2564
32.2427
31.1965
30.1186
29.0219
27.9334
26.8828
25.8882
24.9404
24.0129
23.1037
22.248
21.4803
20.8543
20.3928
20.2142
20.8794
21.8756
23.1256
24.585
26.2217
28.0093
29.9253
31.9505
34.0686
36.2662
38.5315
40.855
43.2285
45.6452
52.0808
50.3499
48.6986
47.134
45.6617
44.2872
43.0134
41.8386
40.754
39.7408
38.7703
37.8131
36.8529
35.8859
34.9082
33.9133
32.8927
31.8387
30.752
29.646
28.5471
27.4839
26.474
25.5123
24.5793
23.6724
22.8181
22.0387
21.3712
20.8554
20.5989
21.2708
22.2793
23.5475
25.0258
26.6777
28.4751
30.3955
32.4205
34.5347
36.7257
38.9825
41.2962
43.6592
46.065
52.4588
50.7717
49.1646
47.6435
46.2137
44.8792
43.6412
42.496
41.4327
40.4303
39.4612
38.5009
37.5384
36.5711
35.5945
34.6006
33.5793
32.5216
31.4282
30.3133
29.2046
28.1311
27.1127
26.1489
25.2205
24.3161
23.4544
22.6602
21.9757
21.4522
21.2183
21.8882
22.8961
24.1652
25.6447
27.2969
29.0928
31.0094
33.0282
35.1344
37.3153
39.561
41.8627
44.213
46.6057
52.8511
51.2082
49.6454
48.1685
46.7815
45.4873
44.2855
43.1701
42.1274
41.1363
40.1713
39.2135
38.2551
37.293
36.3212
35.3308
34.3108
33.2521
32.1556
31.0377
29.9272
28.8538
27.8376
26.8799
25.9599
25.0608
24.2001
23.4095
22.7375
22.2419
22.1104
22.7656
23.755
25.0049
26.4657
28.0999
29.8784
31.778
33.7801
35.8695
38.0339
40.2628
42.5479
44.8816
47.2582
53.2887
51.6876
50.1678
48.7336
47.3887
46.1344
44.9682
43.8824
42.8612
41.883
40.9254
39.9732
39.0207
38.0642
37.097
36.1097
35.0916
34.0339
32.9385
31.8231
30.7171
29.6499
28.6416
27.6938
26.7853
25.9
25.0587
24.2974
23.6638
23.2136
23.2255
23.8647
24.8291
26.0497
27.4797
29.0833
30.8323
32.7035
34.6787
36.7424
38.8824
41.0881
43.3508
45.6632
48.0193
53.7841
52.2225
50.7433
49.3504
48.0464
46.8309
45.6996
44.6423
43.6416
42.6755
41.7246
40.7771
39.8285
38.8752
37.9106
36.9251
35.9081
34.8516
33.758
32.6464
31.546
30.486
29.4864
28.5488
27.6544
26.791
25.9837
25.2719
24.703
24.3312
24.4879
25.1247
26.0688
27.26
28.6561
30.2242
31.9373
33.7735
35.715
37.7465
39.8559
42.0326
44.2679
46.5543
48.8856
54.3343
52.8098
51.3689
50.015
48.7494
47.5701
46.4707
45.4387
44.4545
43.4969
42.5493
41.6032
40.6552
39.7016
38.7356
37.747
36.7251
35.6631
34.567
33.4575
32.3646
31.3159
30.329
29.4038
28.5243
27.6858
26.9156
26.2543
25.7586
25.5421
25.8253
26.4809
27.4175
28.5872
29.9538
31.4879
33.165
34.9648
36.87
38.8665
40.9419
43.0861
45.2904
47.5475
49.8509
54.9176
53.4297
52.0259
50.7086
49.4783
48.3316
47.2594
46.247
45.2741
44.3204
43.3723
42.4244
41.474
40.5162
39.543
38.5442
37.5105
36.4388
35.339
34.2341
33.1529
32.1204
31.1498
30.2388
29.3749
28.5605
27.8255
27.2105
26.772
26.7786
27.1735
27.8697
28.8169
29.9792
31.3269
32.8346
34.481
36.2476
38.1186
40.0806
42.122
44.2329
46.4052
48.6314
50.9051
55.4954
54.048
52.6833
51.4033
50.2069
49.0892
48.0401
47.0425
46.0762
45.123
44.1726
43.2214
42.2656
41.2999
40.3164
39.3058
38.2617
37.1846
36.0866
34.9903
33.9214
32.9019
31.9428
31.0424
30.1943
29.4073
28.7125
28.1494
27.7637
27.9749
28.4783
29.2344
30.2119
31.3842
32.7277
34.2214
35.8468
37.5878
39.4305
41.3623
43.373
45.453
47.5944
49.7905
52.035
56.053
54.6473
53.3226
52.0799
50.9167
49.8269
48.7978
47.8116
46.8491
45.8948
44.9412
43.9847
43.0219
42.0475
41.0542
40.0346
38.984
37.9049
36.8101
35.7207
34.6609
33.6505
32.6997
31.8091
30.9788
30.2232
29.5745
29.074
28.7656
29.112
29.7124
30.5358
31.5577
32.756
34.111
35.6049
37.2222
38.9489
40.7724
42.682
44.6681
46.7222
48.837
51.0061
53.2235
56.6049
55.2362
53.9481
52.7399
51.6075
50.5425
49.5307
48.5533
47.5926
46.636
45.6785
44.7168
43.7478
42.7663
41.7655
40.7386
39.6816
38.5984
37.5032
36.4178
35.3661
34.3664
33.4281
32.5524
31.7439
31.0222
30.4203
29.9854
29.8025
30.2225
30.8909
31.7715
32.8381
34.0691
35.4458
36.9517
38.5729
40.2965
42.1116
44.0085
45.9785
48.0142
50.1086
52.2559
54.4511
57.1752
55.836
54.5771
53.3967
52.2893
51.244
50.2449
49.2735
48.313
47.3541
46.3937
45.4286
44.4562
43.4708
42.4648
41.4311
40.3671
39.2785
38.1821
37.1009
36.0585
35.072
34.1495
33.2925
32.5083
31.8184
31.257
30.8731
30.8677
31.3314
32.0439
32.9647
34.0663
35.3262
36.7255
38.2479
39.8794
41.6081
43.4236
45.3166
47.279
49.3042
51.3856
53.5181
55.6966
57.7879
56.4697
55.2317
54.0705
52.979
51.9452
50.9524
49.9821
49.0203
48.0602
47.0988
46.1336
45.1605
44.1729
43.1632
42.1246
41.056
39.9655
38.8715
37.7971
36.7649
35.7916
34.8855
34.0498
33.2924
32.6335
32.105
31.7528
31.922
32.4328
33.1823
34.1341
35.2618
36.5436
37.9611
39.4981
41.1408
42.8773
44.6973
46.5917
48.5528
50.5739
52.649
54.7729
56.9411
58.4613
57.1578
55.9327
54.7821
53.6976
52.6664
51.6717
50.6969
49.7306
48.7672
47.8046
46.8393
45.865
44.875
43.8616
42.8192
41.7487
40.6604
39.5727
38.5078
37.4882
36.5299
35.6427
34.8312
34.104
33.4799
32.9896
32.6723
32.9625
33.5252
34.3107
35.2896
36.4384
37.7369
39.1678
40.7156
42.3668
44.1099
45.9346
47.832
49.7943
51.8148
53.8877
56.0077
58.1704
59.2087
57.9153
56.6979
55.551
54.4658
53.4292
52.4252
51.4395
50.4628
49.4914
48.5223
47.5509
46.5706
45.5748
44.5562
43.5112
42.4414
41.3576
40.2776
39.2235
38.2168
37.274
36.4059
35.6189
34.9233
34.3405
33.9042
33.6602
34.0199
34.6254
35.4414
36.4429
37.6085
38.9194
40.3595
41.9141
43.5704
45.3171
47.1444
49.0436
51.0068
53.0273
55.0993
57.2175
59.3777
60.0385
58.7524
57.5388
56.3912
55.2999
54.2523
53.2335
52.2315
51.239
50.2529
49.2698
48.2847
47.2919
46.285
45.2586
44.2094
43.1396
42.0593
40.986
39.941
38.9455
38.0172
37.1681
36.4072
35.7459
35.2073
34.8305
34.715
35.1138
35.7495
36.5884
37.6066
38.7842
40.1033
41.5485
43.1061
44.764
46.5112
48.3384
50.2367
52.1989
54.218
56.2885
58.405
60.5629
60.9546
59.6741
58.4615
57.3102
56.2101
55.1483
54.1115
53.0901
52.0781
51.0728
50.0705
49.0666
48.0559
47.0334
45.9945
44.936
43.8602
42.7776
41.7055
40.6648
39.6775
38.7624
37.934
37.2033
36.5821
36.0916
35.7705
35.8117
36.2415
36.9013
37.7579
38.7884
39.9738
41.2974
42.7443
44.3018
45.9579
47.7024
49.5265
51.4214
53.3799
55.3956
57.4627
59.5759
61.7307
61.9578
60.6817
59.469
58.3122
57.2013
56.1239
55.0684
54.0265
52.9937
51.9674
50.9436
49.9182
48.8866
47.8441
46.7857
45.709
44.6169
43.5213
42.4408
41.3977
40.415
39.5129
38.7073
38.0093
37.4311
36.9955
36.7485
36.9234
37.3905
38.0749
38.948
39.989
41.1801
42.5058
43.9522
45.5071
47.1592
48.8989
50.7174
52.6063
54.559
56.5688
58.6304
60.7383
62.8884
63.0468
61.7743
60.5604
59.3978
58.2755
57.1822
56.1083
55.0468
53.9937
52.946
51.9006
50.8527
49.7977
48.7301
47.6454
46.5415
45.424
44.3079
43.2141
42.1666
41.1887
40.3005
39.517
38.8489
38.3089
37.9238
37.7811
38.048
38.5554
39.2654
40.1552
41.2063
42.4025
43.7294
45.1741
46.7248
48.3715
50.1045
51.9156
53.7969
55.7418
57.744
59.7979
61.8987
64.0421
64.2193
62.9499
61.7348
60.5655
59.4322
58.3242
57.233
56.1528
55.0805
54.0128
52.9459
51.8747
50.7939
49.6974
48.5813
47.4458
46.3003
45.1637
44.0591
43.0106
42.041
41.1684
40.406
39.7629
39.2517
38.9017
38.8776
39.2029
39.7452
40.4785
41.3831
42.4431
43.643
44.97
46.4119
47.9577
49.5977
51.3229
53.1252
54.9975
56.9331
58.926
60.9707
63.0628
65.1979
65.4717
64.2051
62.9887
61.8132
60.6696
59.5481
58.4413
57.3445
56.2544
55.1675
54.0794
52.984
51.8755
50.748
49.5988
48.4325
47.2628
46.1115
45.0023
43.9589
43.0016
42.1462
41.4039
40.7824
40.2934
39.9656
40.0448
40.4092
40.9779
41.7285
42.644
43.7092
44.9103
46.2351
47.672
49.2112
50.8429
52.5587
54.3508
56.2127
58.1375
60.1197
62.1539
64.2358
66.3609
66.8002
65.5368
64.3186
63.1377
61.9847
60.8512
59.7307
58.6189
57.5123
56.4072
55.2977
54.1774
53.0405
51.8818
50.7019
49.5098
48.323
47.1645
46.0578
45.0245
44.0827
43.2462
42.524
41.9224
41.4523
41.1407
41.2942
41.6865
42.2728
43.0337
43.9539
45.0192
46.2171
47.536
48.965
50.4945
52.1155
53.8196
55.5995
57.449
59.3612
61.331
63.3529
65.4227
67.5362
68.2017
66.9409
65.7214
64.5356
63.3742
62.2303
61.0976
59.9723
58.8503
57.7273
56.5965
55.4512
54.2861
53.0985
51.8927
50.6819
49.4856
48.3274
47.2291
46.2102
45.2866
44.4702
43.7681
43.1858
42.7331
42.4351
42.6366
43.048
43.644
44.4084
45.3272
46.3875
47.5774
48.8858
50.3027
51.819
53.4258
55.1154
56.8805
58.7146
60.612
62.567
64.5748
66.6309
68.7307
69.6718
68.414
67.1938
66.0036
64.835
63.6817
62.5383
61.4004
60.264
59.1231
57.9711
56.8016
55.6102
54.3975
53.172
51.9496
50.7513
49.5993
48.514
47.5128
46.6095
45.8139
45.1321
44.5688
44.1326
43.8475
44.0779
44.5009
45.1002
45.8624
46.7745
47.8246
49.0017
50.2954
51.6961
53.1953
54.7843
56.456
58.203
60.0191
61.8988
63.8364
65.8273
67.8672
69.9519
71.2066
69.952
68.7317
67.538
66.363
65.2016
64.0484
62.899
61.7484
60.5901
59.4173
58.2245
57.0098
55.7774
54.5387
53.3116
52.1176
50.9768
49.9081
48.9266
48.0446
47.2704
46.609
46.0646
45.6449
45.3719
45.6185
46.047
46.6446
47.3997
48.3006
49.3363
50.4969
51.7722
53.1533
54.6317
56.1996
57.8498
59.5757
61.3711
63.2301
65.1475
67.1189
69.1401
71.2068
61.8784
60.1879
58.5746
57.0446
55.6041
54.2605
53.021
51.8936
50.8862
50.0076
49.267
48.6738
48.239
47.9762
48.1414
48.3947
48.5854
48.821
49.1227
49.5022
49.9256
50.3509
50.7726
51.209
51.6883
52.2227
52.8097
53.4296
54.0481
54.6474
55.2363
55.8361
56.4697
57.1577
57.9154
58.7525
59.674
60.6815
61.7741
62.9495
64.2046
65.536
66.9401
68.4136
69.9518
60.1879
58.4576
56.8042
55.234
53.7536
52.3707
51.0924
49.9275
48.8846
47.9729
47.2022
46.5829
46.1265
45.8492
46.0088
46.2481
46.3906
46.5996
46.8826
47.2499
47.6553
48.05
48.4401
48.8491
49.3089
49.8295
50.4055
51.0119
51.6077
52.1802
52.7474
53.3347
53.9665
54.6623
55.4365
56.2975
57.2488
58.2908
59.4216
60.638
61.9364
63.3127
64.7627
66.2824
67.8673
58.5741
56.8043
55.1109
53.5003
51.9796
50.5566
49.239
48.0358
46.9564
46.0103
45.2082
44.5613
44.0823
43.789
43.9401
44.1587
44.2428
44.4255
44.6877
45.0421
45.4247
45.7815
46.1364
46.5156
46.9544
47.4596
48.0232
48.6134
49.1818
49.7242
50.2696
50.8463
51.4784
52.1848
52.9783
53.8661
54.85
55.9294
57.101
58.3609
59.7049
61.1282
62.6261
64.1941
65.8274
57.0432
55.2341
53.501
51.8503
50.2893
48.826
47.4686
46.2267
45.1097
44.1283
43.2936
42.6178
42.1149
41.8048
41.9434
42.132
42.1486
42.3054
42.5452
42.8847
43.238
43.5486
43.8655
44.2119
44.6277
45.1166
45.666
46.2368
46.7716
47.2813
47.8055
48.3736
49.0086
49.7284
50.5445
51.462
52.4815
53.6009
54.816
56.1221
57.5143
58.9868
60.5346
62.1529
63.8364
55.6012
53.7538
51.9816
50.2913
48.6905
47.1871
45.7901
44.5091
43.3543
42.3367
41.4684
40.7626
40.2347
39.9065
40.0275
40.1731
40.1176
40.2484
40.4624
40.7848
41.1
41.3553
41.6321
41.9421
42.3333
42.8039
43.3375
43.8848
44.3789
44.8536
45.3583
45.9203
46.5609
47.2971
48.1388
49.0892
50.1472
51.3097
52.5712
53.9262
55.3689
56.893
58.493
60.1632
61.8986
54.2553
52.3708
50.5606
48.8318
47.1918
45.6493
44.2132
42.8933
41.7006
40.6465
39.744
39.0073
38.4533
38.1059
38.202
38.2874
38.162
38.2643
38.4477
38.7499
39.0158
39.2066
39.4427
39.7113
40.0759
40.5265
41.0424
41.5607
42.0054
42.4444
42.9318
43.4902
44.1396
44.8953
45.7658
46.7521
47.8521
49.0607
50.3717
51.7784
53.2739
54.8518
56.5059
58.2301
60.0189
53.0123
51.0927
49.2462
47.4805
45.8031
44.2226
42.7485
41.3909
40.1609
39.0706
38.1338
37.3655
36.7842
36.4165
36.4771
36.483
36.2953
36.3647
36.5112
36.7888
36.9911
37.1099
37.3049
37.5256
37.8615
38.29
38.7858
39.2682
39.6538
40.0578
40.5307
41.0887
41.7497
42.5283
43.4308
44.4567
45.6018
46.8597
48.2229
49.684
51.2351
52.869
54.5791
56.3589
58.2026
51.8804
49.9276
48.0473
46.2471
44.5345
42.9183
41.4082
40.0145
38.7486
37.6233
36.6526
35.8526
35.2432
34.8534
34.863
34.7758
34.533
34.5631
34.6645
34.9109
35.0325
35.075
35.2281
35.3918
35.6973
36.1016
36.5742
37.0115
37.3273
37.6991
38.1612
38.7215
39.3972
40.2019
41.14
42.2089
43.4026
44.713
46.1316
47.6497
49.2587
50.9508
52.7186
54.5556
56.4555
50.8675
48.8847
46.9737
45.1419
43.3972
41.7484
40.2053
38.7785
37.4793
36.321
35.3178
34.4866
33.848
33.4329
33.3712
33.1845
32.892
32.8746
32.9211
33.1263
33.1491
33.1153
33.223
33.3188
33.5927
33.9696
34.415
34.7949
35.0309
35.3757
35.8303
36.3956
37.0893
37.9235
38.9008
40.0164
41.2621
42.6282
44.1052
45.6827
47.352
49.1042
50.9316
52.827
54.7839
49.9821
47.973
46.0351
44.1758
42.4032
40.7262
39.1544
37.6985
36.3701
35.1822
34.1491
33.2878
32.6192
32.1723
32.0179
31.7312
31.3913
31.3173
31.2972
31.4446
31.3536
31.2483
31.3014
31.3179
31.5591
31.9049
32.3174
32.6241
32.7717
33.0963
33.5469
34.1199
34.8343
35.7018
36.7219
37.8877
39.1889
40.614
42.1519
43.7917
45.5231
47.3371
49.2253
51.1799
53.1947
49.2329
47.2022
45.2422
43.3606
41.5655
39.8659
38.2712
36.7924
35.4405
34.2283
33.1695
32.2804
31.58
31.091
30.8252
30.4407
30.0526
29.9104
29.8128
29.8733
29.6671
29.4931
29.4768
29.4049
29.6113
29.92
30.2914
30.5051
30.5604
30.8721
31.3216
31.9043
32.6427
33.5468
34.6135
35.8331
37.1931
38.6802
40.2818
41.9857
43.7811
45.6581
47.6079
49.6227
51.6954
48.6301
46.5828
44.6064
42.7086
40.8978
39.1828
37.5734
36.0798
34.7129
33.4843
32.4064
31.493
30.7587
30.2129
29.8195
29.3418
28.9012
28.6755
28.4903
28.4279
28.1136
27.8701
27.7653
27.6011
27.7675
28.0303
28.3483
28.4466
28.4123
28.7171
29.1671
29.7616
30.5268
31.471
32.5879
33.8647
35.2867
36.8384
38.5058
40.2756
42.1362
44.0771
46.089
48.1638
50.2945
48.1845
46.1266
44.1404
42.2337
40.4151
38.6939
37.0801
35.5834
34.2141
32.9817
31.8955
30.964
30.192
29.5688
29.0348
28.4687
27.9666
27.6384
27.3511
27.1379
26.7213
26.4018
26.1894
25.9324
26.0501
26.2539
26.5003
26.4618
26.3478
26.6481
27.0996
27.7071
28.5017
29.4892
30.6596
31.9969
33.4833
35.1018
36.8365
38.6734
40.5998
42.6046
44.6784
46.8127
49.0004
47.9114
45.8492
43.8599
41.9521
40.135
38.419
36.8147
35.3331
33.9842
32.7753
31.7079
30.7729
29.9478
29.2032
28.5175
27.866
27.2841
26.8299
26.4212
26.0377
25.5234
25.116
24.7781
24.4303
24.4864
24.6123
24.7587
24.5748
24.3908
24.6858
25.1386
25.76
26.5861
27.6196
28.8463
30.2462
31.7991
33.4857
35.2887
37.1926
39.1845
41.2527
43.3872
45.5797
47.8229
48.0553
46.0087
44.0346
42.142
40.3402
38.6395
37.0507
35.5839
34.2483
33.0486
31.9801
31.0217
30.1312
29.2645
28.4155
27.6147
26.9004
26.2932
25.7394
25.171
24.5616
24.0478
23.5688
23.1339
23.1091
23.1304
23.1363
22.8174
22.5694
22.856
23.309
23.9439
24.8027
25.8839
27.1685
28.6326
30.2527
32.0076
33.8782
35.8485
37.9044
40.0342
42.2276
44.4761
46.7723
48.262
46.2477
44.3037
42.4392
40.6636
38.9875
37.4209
35.9739
34.6541
33.4636
32.3938
31.4186
30.4953
29.5896
28.7026
27.8438
27.0115
26.1898
25.3731
24.5975
23.8954
23.2431
22.6101
22.0911
21.9567
21.8377
21.6713
21.2267
20.9192
21.191
21.6422
22.2887
23.1795
24.3086
25.6513
27.1792
28.8657
30.6874
32.6238
34.6579
36.7751
38.9634
41.2124
43.5134
45.8594
48.3502
46.3894
44.5003
42.69
40.967
39.3405
37.8199
36.4134
35.1268
33.9595
32.8999
31.9201
30.9813
30.0573
29.1486
28.2574
27.3755
26.4888
25.5805
24.6436
23.6851
22.7666
21.9712
21.3668
21.0712
20.7747
20.4122
19.8488
19.4863
19.7319
20.1785
20.8316
21.7512
22.9259
24.3242
25.9131
27.6629
29.5476
31.5458
33.6394
35.8135
38.0557
40.3556
42.7048
45.0961
48.5273
46.599
44.7468
42.9777
41.2999
39.7211
38.249
36.8897
35.6458
34.5126
33.4743
32.5007
31.5575
30.6259
29.7039
28.7882
27.8669
26.9225
25.938
24.9122
23.8634
22.8342
21.8885
21.095
20.5075
20.0043
19.4202
18.7447
18.3339
18.5319
18.9697
19.6193
20.5602
21.774
23.222
24.8659
26.6725
28.6138
30.6672
32.8137
35.0381
37.3279
39.6729
42.0643
44.4953
48.7784
46.8819
45.064
43.3324
41.6946
40.1585
38.7307
37.4161
36.2143
35.1168
34.103
33.1402
32.1977
31.2617
30.3275
29.388
28.4308
27.4439
26.418
25.3559
24.276
23.2128
22.2163
21.32
20.4998
19.6489
18.7761
18.0044
17.5573
17.66
18.0821
18.7095
19.6577
20.8989
22.3856
24.0739
25.9269
27.9148
30.0135
32.2037
34.4697
36.799
39.1812
41.6078
44.0722
49.1166
47.2496
45.463
43.7647
42.1622
40.6632
39.2738
37.9974
36.8318
35.7653
34.7724
33.8185
32.8745
31.9295
30.9775
30.012
29.0237
28.0035
26.9464
25.8575
24.7608
23.6918
22.6877
21.7551
20.8519
19.939
19.0565
18.2639
17.66
17.2078
17.5939
18.1715
19.1062
20.357
21.8658
23.5823
25.4663
27.4859
29.6161
31.8371
34.1331
36.4915
38.9019
41.3562
43.8475
49.4846
47.6545
45.905
44.2436
42.6784
41.2165
39.8636
38.622
37.4874
36.4447
35.4652
34.5125
33.5609
32.603
31.6353
30.6526
29.647
28.6092
27.5353
26.4321
25.3259
24.2518
23.2369
22.2762
21.3364
20.407
19.5242
18.7173
18.0512
17.5527
17.3504
18.094
19.1909
20.5529
22.1301
23.8859
25.7899
27.8176
29.9483
32.1653
34.4544
36.8045
39.2058
41.6508
44.1329
49.8316
48.049
46.3462
44.7307
43.2098
41.7902
40.4765
39.2694
38.162
37.1363
36.1618
35.2044
34.2446
33.2795
32.3062
31.3194
30.3105
29.2681
28.1874
27.0762
25.9599
24.8723
23.8408
22.8659
21.9226
20.9988
20.122
19.3103
18.6021
18.0409
17.7611
18.5146
19.6295
21.0147
22.6127
24.3829
26.2945
28.3234
30.4504
32.66
34.9394
37.278
39.6673
42.0997
44.5691
50.1761
48.4393
46.7834
45.215
43.7407
42.3654
41.0925
39.9196
38.8375
37.8253
36.8532
35.8929
34.9316
33.9677
32.9979
32.0149
31.008
29.9644
28.8784
27.7587
26.6323
25.5339
24.4927
23.5157
22.5801
21.6619
20.7776
19.9497
19.2259
18.6611
18.4223
19.1732
20.2874
21.6733
23.2719
25.0411
26.9492
28.9718
31.0901
33.2888
35.5557
37.8807
40.2556
42.6732
45.1281
50.5386
48.8483
47.2396
45.7186
44.2909
42.9601
41.7277
40.5892
39.532
38.5341
37.5676
36.6107
35.6547
34.6976
33.7344
32.7565
31.7525
30.7094
29.6214
28.4993
27.3725
26.2757
25.2379
24.2683
23.3434
22.4328
21.5505
20.7283
20.0217
19.4923
19.3891
20.1195
21.2086
22.569
24.1432
25.8894
27.7757
29.7775
31.8754
34.0543
36.3017
38.6074
40.9635
43.3627
45.7997
50.9551
49.3083
47.7446
46.2693
44.8869
43.6002
42.4079
41.3034
40.2716
39.2895
38.3318
37.3816
36.4323
35.4813
34.5231
33.549
32.5474
31.5061
30.4197
29.3009
28.1797
27.0905
26.0617
25.1027
24.1898
23.2944
22.4349
21.6495
20.9916
20.5196
20.5876
21.2986
22.3557
23.6791
25.2152
26.9242
28.7749
30.7433
32.8098
34.9592
37.1789
39.4585
41.7899
44.1657
46.5803
51.4353
49.8293
48.3081
46.8766
45.5382
44.294
43.1407
42.0688
41.061
40.0932
39.1431
38.1973
37.2519
36.3036
35.3477
34.3751
33.3747
32.3343
31.2493
30.1338
29.0181
27.936
26.9157
25.9662
25.0659
24.1918
23.3686
22.6397
22.0605
21.6944
21.9218
22.6329
23.666
24.954
26.4497
28.1167
29.9259
31.8541
33.8824
35.9957
38.1813
40.4291
42.7303
45.078
47.4661
51.9733
50.4053
48.924
47.5337
46.2363
45.0312
43.9132
42.87
41.881
40.9225
39.9753
39.0303
38.0846
37.1355
36.1776
35.2012
34.1939
33.1451
32.0537
30.9378
29.8285
28.7589
27.7531
26.816
25.9279
25.0767
24.2896
23.6104
23.1053
22.9468
23.3084
24.045
25.0711
26.3352
27.7976
29.4262
31.195
33.0825
35.0709
37.1456
39.2944
41.507
43.7751
46.0912
48.4497
52.5414
51.0119
49.5694
48.2175
46.9576
45.7875
44.6993
43.6777
42.7011
41.7465
40.7982
39.8509
38.9025
37.9489
36.9833
35.9953
34.9735
33.9109
32.8122
31.6986
30.6009
29.549
28.5619
27.6392
26.7644
25.9346
25.1808
24.5469
24.0936
24.1947
24.677
25.4635
26.5048
27.7628
29.2056
30.8064
32.5423
34.3943
36.3461
38.3841
40.4968
42.6743
44.9086
47.1925
49.5199
53.093
51.6074
50.2074
48.8957
47.6729
46.5347
45.4719
44.4668
43.4974
42.5434
41.5928
40.6419
39.6884
38.727
37.7508
36.7502
35.7167
34.647
33.5489
32.4434
31.358
30.3192
29.3425
28.4279
27.5656
26.7613
26.0484
25.4715
25.0771
25.38
25.9784
26.8325
27.9097
29.1813
30.622
32.2096
33.9249
35.7512
37.6741
39.6814
41.7625
43.9084
46.1111
48.3641
50.6615
53.621
52.1799
50.8229
49.5518
48.3655
47.2583
46.2181
45.2264
44.262
43.3071
42.3534
41.3978
40.4374
39.4675
38.4819
37.4721
36.4315
35.3586
34.2622
33.1626
32.0854
31.055
30.0852
29.1778
28.3302
27.5559
26.8897
26.3812
26.0828
26.5054
27.1978
28.121
29.2455
30.5461
32.0011
33.5914
35.3004
37.1138
39.0188
41.0047
43.062
45.1825
47.3589
49.5851
51.8558
54.1505
52.7472
51.4281
50.1936
49.0404
47.9608
46.9405
45.9595
44.9978
44.041
43.0836
42.1232
41.1572
40.1811
39.1886
38.1717
37.1239
36.0448
34.9453
33.8469
32.7766
31.7572
30.8005
29.9076
29.0803
28.3388
27.7191
27.2767
27.1331
27.6154
28.3672
29.3424
30.5091
31.8417
33.3187
34.9221
36.6366
38.4488
40.3473
42.3223
44.3652
46.4688
48.6263
50.8322
53.0815
54.7092
53.3347
52.0449
50.8388
49.7119
48.6535
47.6475
46.6734
45.7125
44.7536
43.7939
42.8309
41.8624
40.8837
39.8871
38.864
37.8084
36.7219
35.6186
34.5226
33.4607
32.4544
31.5139
30.6396
29.8359
29.1254
28.5452
28.1505
28.2088
28.7312
29.5206
30.5296
31.7256
33.0827
34.5794
36.1975
37.9218
39.7394
41.6391
43.6116
45.6486
47.7434
49.8898
52.0824
54.3168
55.3204
53.9665
52.697
51.5098
50.3988
49.3522
48.3526
47.3797
46.4169
45.4567
44.4965
43.5342
42.5662
41.5868
40.5875
39.5598
38.4991
37.4097
36.308
35.2181
34.166
33.172
32.247
31.3937
30.6181
29.9395
29.3924
29.0274
29.2637
29.8382
30.6633
31.6992
32.9165
34.2906
35.8012
37.4303
39.1631
40.9866
42.89
44.8637
46.8999
48.9914
51.1326
53.3183
55.544
56.0018
54.6624
53.4056
52.2289
51.1245
50.0795
49.0768
48.0976
47.1289
46.1644
45.2026
44.2402
43.2717
42.2903
41.2873
40.2553
39.1921
38.1041
37.0082
35.9279
34.8882
33.909
33.0027
32.1739
31.4294
30.7885
30.2845
29.9601
30.3092
30.9378
31.7984
32.859
34.0938
35.4807
37.0004
38.6362
40.374
42.201
44.1068
46.0818
48.1181
50.2089
52.3481
54.5304
56.7515
56.7655
55.4366
54.1878
53.0148
51.9093
50.8581
49.8442
48.8518
47.8703
46.8958
45.9256
44.9559
43.98
42.9913
41.9821
40.9463
39.8827
38.7985
37.7099
36.6398
35.6126
34.6484
33.7604
32.955
32.242
31.6442
31.2014
30.9723
31.3821
32.051
32.9399
34.0205
35.2689
36.6646
38.1898
39.8288
41.568
43.3956
45.3011
47.2754
49.3106
51.4001
53.5373
55.7175
57.9362
57.6181
56.2975
55.0533
53.8801
52.7686
51.7056
50.6754
49.6645
48.6648
47.6733
46.6868
45.7009
44.7099
43.7076
42.6882
41.6465
40.581
39.4987
38.4156
37.3534
36.3363
35.385
34.5146
33.7346
33.0562
32.5039
32.1231
32.0523
32.4969
33.1931
34.102
35.1962
36.4534
37.8538
39.3807
41.0195
42.757
44.5818
46.4842
48.4553
50.487
52.5731
54.7072
56.8846
59.1001
58.5628
57.2489
56.0071
54.8312
53.711
52.6335
51.5843
50.5523
49.5313
48.5184
47.5108
46.5037
45.4923
44.4719
43.4373
42.3834
41.3088
40.2212
39.1361
38.0759
37.0644
36.1242
35.2732
34.5237
33.8873
33.3868
33.0655
33.1656
33.6438
34.3635
35.2882
36.3921
37.6541
39.0559
40.5816
42.217
43.9499
45.7692
47.6657
49.6309
51.6567
53.737
55.8661
58.0385
60.2498
59.5988
58.291
57.0504
55.8703
54.74
53.6469
52.5785
51.525
50.4819
49.4468
48.4163
47.3862
46.3522
45.3095
44.2528
43.1769
42.0814
40.9755
39.8771
38.8097
37.799
36.8693
36.0396
35.3227
34.7311
34.2893
34.0569
34.2883
34.8083
35.5535
36.4939
37.6065
38.872
40.2734
41.7958
43.426
45.1522
46.964
48.8526
50.8094
52.8272
54.8999
57.0217
59.187
61.392
60.7241
59.4216
58.182
56.997
55.8562
54.7477
53.6605
52.587
51.5231
50.4662
49.4132
48.3599
47.3013
46.2324
45.1467
44.0396
42.9133
41.7808
40.6633
39.5871
38.5784
37.661
36.8526
36.1648
35.6102