<VTKFile type="ImageData" version="1.0" byte_order="LittleEndian" header_type="UInt64">
	<ImageData WholeExtent="0 44 0 44 0 44" Origin="-34.1358 -34.1358 -34.1358" Spacing="2.86379 2.86379 2.86379">
		<Piece Extent="0 44 0 44 0 44">
			<PointData Scalars="Scalars_">
				<DataArray type="Float32" Name="Scalars_" format="ascii" RangeMin="0" RangeMax="100">
63.5319
61.8785
60.3021
58.8084
57.4035
56.0941
54.887
53.7896
52.8094
51.9542
51.233
50.654
50.228
49.9687
50.1202
50.3464
50.4877
50.6893
50.9597
51.3101
51.6998
52.0821
52.46
52.8524
53.2897
53.7847
54.3346
54.9178
55.496
56.0538
56.6053
57.1756
57.7877
58.461
59.2086
60.0385
60.9545
61.9575
63.0465
64.2188
65.4713
66.8
68.201
69.6713
71.2063
61.8787
60.1881
58.5743
57.0431
55.6013
54.255
53.0123
51.8805
50.8674
49.9819
49.2328
48.6299
48.1844
47.9115
48.0552
48.2625
48.3514
48.5281
48.7792
49.117
49.4855
49.833
50.1772
50.54
50.956
51.436
51.9736
52.5416
53.0935
53.6219
54.151
54.7094
55.3202
56.0016
56.7652
57.6181
58.5625
59.5984
60.7237
61.9351
63.2287
64.6003
66.0453
67.5599
69.1401
60.3021
58.5747
56.9236
55.3551
53.8759
52.4929
51.214
50.0469
49.0005
48.0835
47.3058
46.6778
46.2116
45.9243
46.0572
46.2374
46.2654
46.4181
46.6482
46.9719
47.3139
47.6187
47.9265
48.2569
48.6505
49.1142
49.6383
50.188
50.7083
51.2043
51.7115
52.2601
52.872
53.5636
54.3461
55.2244
56.1996
57.2709
58.4348
59.6875
61.0244
62.4406
63.9316
65.4925
67.1193
58.8083
57.0446
55.3566
53.7512
52.2349
50.815
49.4997
48.2971
47.2165
46.2676
45.4603
44.8062
44.3184
44.0158
44.1333
44.2755
44.238
44.3665
44.5732
44.8808
45.1888
45.4428
45.712
46.0071
46.377
46.8231
47.3323
47.8601
48.3416
48.803
49.2897
49.8309
50.4462
51.1512
51.9549
52.8612
53.8701
54.979
56.1842
57.4803
58.8625
60.3255
61.8641
63.4729
65.1476
57.4036
55.6043
53.8804
52.2384
50.6854
49.2291
47.8777
46.6398
45.5248
44.5432
43.7057
43.0246
42.5143
42.1956
42.2915
42.3814
42.2793
42.382
42.5615
42.8505
43.1149
43.3097
43.5392
43.7949
44.1395
44.5669
45.0593
45.5605
45.9955
46.421
46.8894
47.4256
48.0471
48.7678
49.5956
50.5327
51.5777
52.727
53.9757
55.3178
56.7477
58.2592
59.8472
61.5057
63.2299
56.0942
54.2605
52.5019
50.8246
49.2361
47.7442
46.3573
45.0844
43.9355
42.9212
42.0532
41.3445
40.8106
40.4746
40.54
40.5606
40.4009
40.4743
40.6215
40.888
41.0966
41.2251
41.4147
41.6257
41.9438
42.3508
42.8244
43.2925
43.6718
44.0621
44.5151
45.0489
45.6792
46.4185
47.2731
48.2437
49.3276
50.5199
51.8146
53.2052
54.6848
56.2471
57.8861
59.5958
61.3708
54.8871
53.021
51.2293
49.5185
47.8961
46.37
44.9489
43.642
42.4599
41.4134
40.5148
39.7781
39.2198
38.8651
38.8875
38.826
38.6153
38.6543
38.7628
39.0014
39.1395
39.1969
39.3465
39.5057
39.7962
40.181
40.6331
41.0599
41.3736
41.7312
42.1722
42.7065
43.3482
44.1088
44.993
46.0001
47.1257
48.3637
49.7069
51.148
52.6795
54.2945
55.9863
57.7484
59.5754
53.7896
51.8936
50.071
48.329
46.6748
45.1166
43.6634
42.3245
41.1107
40.0331
39.1045
38.3396
37.756
37.3801
37.3424
37.1926
36.9362
36.9345
36.9962
37.1989
37.2503
37.2364
37.3432
37.4423
37.7045
38.0648
38.492
38.8666
39.1052
39.4349
39.8674
40.4047
41.0605
41.8451
42.7619
43.8082
44.9783
46.2645
47.6589
49.1527
50.7382
52.4075
54.1535
55.9694
57.8495
52.8096
50.8863
49.0359
47.2657
45.5829
43.9957
42.5133
41.1451
39.9019
38.7952
37.8381
37.0452
36.4349
36.0328
35.917
35.6777
35.3788
35.3288
35.3346
35.4883
35.4387
35.3575
35.4152
35.4453
35.6787
36.0113
36.4083
36.717
36.8725
37.1808
37.6082
38.1511
38.8233
39.6347
40.5869
41.6754
42.8928
44.2301
45.6778
47.2267
48.8679
50.5931
52.3945
54.2654
56.1989
51.9545
50.0076
48.1333
46.3388
44.6313
43.0193
41.5116
40.1181
38.8493
37.7167
36.733
35.9131
35.2742
34.8376
34.6276
34.3009
33.9597
33.8529
33.7932
33.876
33.7207
33.5759
33.5731
33.5271
33.7304
34.0308
34.3906
34.6161
34.6847
34.9789
35.4042
35.9545
36.6456
37.4865
38.4771
39.6105
40.8779
42.2688
43.7721
45.3779
47.0764
48.8587
50.7168
52.6431
54.6309
51.2331
49.2669
47.3732
45.559
43.832
42.2003
40.6731
39.2597
37.9705
36.8165
35.8099
34.9641
34.294
33.8114
33.4943
33.0836
32.6976
32.523
32.3891
32.3709
32.1152
31.9076
31.8298
31.7046
31.8743
32.1356
32.4479
32.5706
32.5547
32.8409
33.2663
33.8257
34.5378
35.4109
36.4424
37.6238
38.9438
40.3903
41.9513
43.6155
45.3726
47.213
49.1281
51.1102
53.1525
50.6544
48.6739
46.7661
44.938
43.1977
41.5531
40.0134
38.5877
37.2854
36.1169
35.0924
34.2229
33.5178
32.9748
32.5413
32.0506
31.6139
31.3579
31.1387
30.9936
30.644
30.3696
30.2022
29.998
30.1275
30.3399
30.5897
30.5904
30.4994
30.7811
31.2074
31.7772
32.5123
33.42
34.4951
35.7268
37.1015
38.6056
40.2257
41.9496
43.766
45.6649
47.6373
49.6751
51.7713
50.2281
48.239
46.3231
44.488
42.742
41.093
39.5502
38.1224
36.8181
35.6452
34.6114
33.7215
32.9755
32.3538
31.798
31.2304
30.7329
30.3789
30.059
29.7703
29.3312
28.9819
28.712
28.4306
28.5104
28.66
28.8246
28.6935
28.5385
28.816
29.2435
29.8243
30.584
31.5283
32.6493
33.9331
35.3644
36.9275
38.6077
40.3918
42.2678
44.2249
46.2541
48.3466
50.4957
49.9685
47.9762
46.0587
44.224
42.4807
40.838
39.3051
37.8915
36.6047
35.4497
34.4253
33.5213
32.7165
31.9849
31.3044
30.6587
30.0827
29.6119
29.1729
28.7317
28.2055
27.769
27.3859
27.0305
27.0468
27.1141
27.1597
26.9056
26.694
26.9656
27.3936
27.9854
28.7706
29.753
30.9214
32.2589
33.7476
35.3702
37.1107
38.9547
40.8896
42.9042
44.9887
47.1348
49.335
50.1199
48.1413
46.2374
44.4161
42.6862
41.0569
39.537
38.1354
36.8584
35.7073
34.675
33.7388
32.8603
32.0044
31.1715
30.3932
29.6993
29.0934
28.5139
27.9151
27.3015
26.7613
26.2571
25.8305
25.764
25.722
25.6197
25.2552
24.9921
25.2539
25.681
26.2828
27.0936
28.1145
29.3307
30.7222
32.2684
33.95
35.7499
37.6525
39.6446
41.7146
43.8525
46.0498
48.2988
50.3457
48.3941
46.5155
44.718
43.0104
41.4017
39.9008
38.5149
37.2491
36.1028
35.0646
34.1077
33.1951
32.3005
31.4265
30.58
29.7556
28.9383
28.1339
27.3729
26.6676
25.9972
25.3671
24.8689
24.6913
24.5077
24.2411
23.7755
23.4652
23.7103
24.1344
24.7437
25.5785
26.637
27.9001
29.3443
30.9464
32.6852
34.542
36.5006
38.547
40.6694
42.8574
45.1024
47.3971
50.4862
48.584
46.7542
45.0039
43.3411
41.7738
40.3102
38.9566
37.7162
36.5859
35.5516
34.5859
33.6555
32.7403
31.8409
30.957
30.0792
29.1925
28.2834
27.349
26.41
25.5289
24.7734
24.1955
23.8607
23.5072
23.0661
22.5073
22.1541
22.3709
22.7889
23.4009
24.256
25.3489
26.6559
28.1496
29.804
31.596
33.5058
35.5161
37.6126
39.7828
42.0166
44.3051
46.6409
50.6883
48.82
47.0278
45.3185
43.6986
42.1753
40.7549
39.4417
38.2363
37.1321
36.1119
35.1477
34.21
33.2839
32.3668
31.4535
30.531
29.5825
28.5955
27.5751
26.5459
25.5524
24.6517
23.8991
23.3176
22.7722
22.1463
21.5028
21.1128
21.28
21.6876
22.2939
23.1622
24.2834
25.6283
27.1654
28.866
30.7052
32.6616
34.7174
36.8577
39.07
41.3437
43.6701
46.0419
50.9589
49.122
47.3638
45.6909
44.11
42.6273
41.2482
39.9753
38.8065
37.7318
36.73
35.7721
34.8323
33.8985
32.9652
32.0245
31.0637
30.0712
29.0416
27.9837
26.9212
25.8898
24.93
24.0584
23.2353
22.3875
21.5499
20.8377
20.4211
20.4919
20.8824
21.4694
22.3396
23.4789
24.8522
26.4234
28.161
30.0381
32.0323
34.125
36.301
38.5475
40.854
43.2118
45.6132
51.3095
49.5016
47.7742
46.1339
44.5873
43.1402
41.7974
40.5603
39.4243
38.376
37.3911
36.4389
35.4953
34.5503
33.5975
32.6289
31.6353
30.6089
29.5487
28.466
27.387
26.3443
25.3654
24.4477
23.5538
22.6599
21.8089
21.0616
20.4919
20.0716
20.4275
20.9798
21.8383
22.9823
24.3706
25.9628
27.7242
29.6265
31.6463
33.7644
35.9653
38.2362
40.5665
42.9474
45.3719
51.6988
49.925
48.2316
46.6255
45.1135
43.7011
42.3924
41.1871
40.079
39.0515
38.0772
37.1249
36.173
35.2144
34.2443
33.2564
32.2427
31.1965
30.1186
29.0219
27.9334
26.8828
25.8882
24.9404
24.0129
23.1037
22.248
21.4803
20.8543
20.3928
20.2142
20.8794
21.8756
23.1256
24.585
26.2218
28.0094
29.9253
31.9505
34.0686
36.2662
38.5316
40.8551
43.2286
45.6452
52.0809
50.3499
48.6987
47.1341
45.6618
44.2873
43.0134
41.8385
40.754
39.7409
38.7703
37.8132
36.853
35.886
34.9082
33.9132
32.8927
31.8387
30.752
29.646
28.5471
27.4838
26.474
25.5124
24.5793
23.6723
22.818
22.0387
21.3712
20.8554
20.5989
21.2708
22.2793
23.5475
25.0257
26.6777
28.4751
30.3955
32.4204
34.5347
36.7256
38.9825
41.2962
43.6592
46.065
52.459
50.7716
49.1644
47.6434
46.2136
44.8791
43.6412
42.4962
41.4328
40.4303
39.461
38.5008
37.5383
36.571
35.5943
34.6005
33.5793
32.5216
31.4282
30.3134
29.2046
28.1311
27.1127
26.1489
25.2205
24.316
23.4544
22.6601
21.9758
21.4522
21.2183
21.8882
22.896
24.1652
25.6447
27.2969
29.0928
31.0094
33.0282
35.1344
37.3154
39.5611
41.8628
44.2131
46.6059
52.851
51.208
49.6454
48.1684
46.7815
45.4873
44.2853
43.1697
42.1273
41.1364
40.1713
39.2134
38.2551
37.2927
36.3212
35.3309
34.3108
33.2521
32.1556
31.0376
29.9272
28.8537
27.8377
26.88
25.9599
25.0607
24.2001
23.4095
22.7375
22.242
22.1104
22.7656
23.755
25.0049
26.4657
28.0999
29.8784
31.778
33.78
35.8694
38.0338
40.2628
42.5479
44.8818
47.2584
53.2887
51.6874
50.1676
48.7334
47.3887
46.1344
44.9682
43.8822
42.8613
41.883
40.9253
39.9731
39.0207
38.064
37.0969
36.1097
35.0916
34.034
32.9385
31.8231
30.7171
29.6499
28.6416
27.6937
26.7853
25.9001
25.0587
24.2974
23.6638
23.2136
23.2255
23.8648
24.8291
26.0497
27.4797
29.0834
30.8323
32.7035
34.6787
36.7425
38.8824
41.088
43.3508
45.6633
48.0192
53.7841
52.2224
50.7433
49.3505
48.0464
46.8309
45.6995
44.6422
43.6415
42.6756
41.7246
40.777
39.8284
38.8751
37.9105
36.925
35.9082
34.8516
33.7579
32.6464
31.546
30.486
29.4864
28.5488
27.6544
26.7911
25.9838
25.2718
24.7031
24.3312
24.4879
25.1247
26.0688
27.26
28.6561
30.2241
31.9372
33.7735
35.7149
37.7465
39.8558
42.0325
44.2678
46.5543
48.8856
54.3342
52.8095
51.3687
50.0149
48.7493
47.5701
46.4706
45.4385
44.4546
43.4971
42.5493
41.6031
40.6552
39.7016
38.7357
37.747
36.725
35.6631
34.5669
33.4575
32.3646
31.3159
30.329
29.4038
28.5243
27.6858
26.9156
26.2543
25.7586
25.5421
25.8253
26.4809
27.4175
28.5872
29.9538
31.4879
33.165
34.9648
36.87
38.8664
40.9418
43.086
45.2903
47.5474
49.851
54.9177
53.4296
52.0258
50.7087
49.4783
48.3314
47.2592
46.2469
45.2741
44.3203
43.3722
42.4245
41.4741
40.5163
39.5431
38.5443
37.5104
36.4388
35.3389
34.2341
33.1531
32.1204
31.1498
30.2388
29.3748
28.5606
27.8255
27.2105
26.772
26.7787
27.1734
27.8697
28.8169
29.9793
31.3269
32.8347
34.4811
36.2476
38.1186
40.0805
42.122
44.2329
46.4052
48.6313
50.9053
55.4954
54.048
52.6835
51.4034
50.207
49.0894
48.04
47.0425
46.0761
45.123
44.1726
43.2215
42.2656
41.2999
40.3163
39.3059
38.2617
37.1847
36.0867
34.9904
33.9215
32.9019
31.9428
31.0424
30.1943
29.4073
28.7124
28.1493
27.7637
27.9749
28.4783
29.2344
30.2119
31.3842
32.7277
34.2213
35.8468
37.5879
39.4305
41.3624
43.373
45.453
47.5946
49.7906
52.0351
56.0529
54.6472
53.3227
52.08
50.9169
49.8269
48.7977
47.8115
46.8489
45.8948
44.9411
43.9847
43.0219
42.0475
41.0542
40.0347
38.9839
37.9049
36.8101
35.7208
34.661
33.6505
32.6997
31.8092
30.9788
30.2232
29.5744
29.074
28.7657
29.112
29.7123
30.5358
31.5577
32.756
34.111
35.605
37.2224
38.9489
40.7723
42.6819
44.668
46.7222
48.8371
51.006
53.2235
56.6048
55.2361
53.948
52.7399
51.6076
50.5424
49.5305
48.5532
47.5925
46.6363
45.6785
44.7168
43.7478
42.7662
41.7654
40.7385
39.6814
38.5984
37.5031
36.4178
35.366
34.3664
33.428
32.5524
31.744
31.0222
30.4204
29.9854
29.8026
30.2225
30.8909
31.7714
32.8381
34.0691
35.4458
36.9518
38.5729
40.2966
42.1116
44.0085
45.9786
48.0141
50.1085
52.2559
54.4511
57.1753
55.8359
54.5771
53.397
52.2893
51.244
50.245
49.2732
48.3128
47.3541
46.3935
45.4287
44.4562
43.4705
42.4645
41.4309
40.367
39.2785
38.1821
37.1009
36.0586
35.0721
34.1495
33.2924
32.5082
31.8185
31.257
30.8732
30.8678
31.3314
32.0439
32.9647
34.0663
35.3263
36.7255
38.2478
39.8794
41.6082
43.4236
45.3166
47.2791
49.3042
51.3857
53.5181
55.6964
57.7876
56.4695
55.2315
54.0703
52.9789
51.9451
50.9522
49.9821
49.0204
48.06
47.0985
46.1336
45.1604
44.1729
43.163
42.1245
41.0561
39.9656
38.8714
37.7972
36.7649
35.7915
34.8854
34.0498
33.2924
32.6335
32.105
31.7528
31.9219
32.4328
33.1822
34.1341
35.2617
36.5436
37.9611
39.4981
41.1409
42.8774
44.6973
46.5918
48.5529
50.574
52.649
54.7729
56.941
58.461
57.1576
55.9327
54.7818
53.6976
52.6663
51.6715
50.6968
49.7304
48.7671
47.8046
46.8392
45.8649
44.8749
43.8614
42.8191
41.7488
40.6605
39.5727
38.5078
37.4882
36.5299
35.6427
34.8312
34.104
33.4799
32.9897
32.6723
32.9625
33.5252
34.3107
35.2896
36.4383
37.7368
39.1677
40.7155
42.3668
44.1099
45.9345
47.8319
49.7942
51.8147
53.8875
56.0075
58.1702
59.2086
57.9154
56.6978
55.5509
54.4659
53.4291
52.4251
51.4393
50.4627
49.4913
48.5221
47.5507
46.5707
45.5747
44.5562
43.511
42.4414
41.3575
40.2776
39.2235
38.2168
37.2741
36.406
35.619
34.9234
34.3405
33.9042
33.6603
34.0199
34.6253
35.4414
36.4428
37.6084
38.9193
40.3594
41.9139
43.5703
45.3171
47.1445
49.0436
51.0068
53.0274
55.0993
57.2175
59.3775
60.0386
58.7523
57.5385
56.3909
55.2999
54.2523
53.2336
52.2312
51.2389
50.2528
49.2697
48.2849
47.292
46.285
45.2586
44.2094
43.1397
42.0593
40.986
39.941
38.9454
38.0171
37.1681
36.4071
35.7457
35.2073
34.8305
34.715
35.1138
35.7494
36.5883
37.6066
38.784
40.1031
41.5484
43.106
44.764
46.5113
48.3384
50.2367
52.1989
54.218
56.2885
58.4049
60.5628
60.9546
59.674
58.4613
57.3103
56.2101
55.1481
54.1115
53.0899
52.0779
51.0726
50.0703
49.0665
48.0561
47.0336
45.9945
44.9362
43.8604
42.7776
41.7054
40.6648
39.6774
38.7624
37.9342
37.2035
36.5821
36.0916
35.7706
35.8118
36.2415
36.9013
37.7579
38.7885
39.9738
41.2972
42.7442
44.3017
45.9579
47.7026
49.5265
51.4216
53.3802
55.3957
57.4627
59.576
61.7308
61.9578
60.6813
59.4687
58.3122
57.2013
56.1239
55.0685
54.0264
52.9937
51.9672
50.9433
49.9183
48.8867
47.8441
46.7858
45.709
44.617
43.5213
42.4409
41.3978
40.415
39.5129
38.7072
38.0093
37.4312
36.9955
36.7485
36.9235
37.3905
38.0748
38.948
39.989
41.18
42.5057
43.9522
45.507
47.1592
48.8989
50.7173
52.6062
54.5591
56.5687
58.6303
60.7384
62.8885
63.0468
61.7741
60.5602
59.3975
58.2754
57.1826
56.1085
55.0467
53.9935
52.9461
51.9005
50.8527
49.7977
48.7302
47.6454
46.5415
45.424
44.308
43.2142
42.1666
41.1887
40.3006
39.517
38.8488
38.3087
37.9239
37.781
38.0481
38.5555
39.2654
40.1552
41.2063
42.4024
43.7292
45.1739
46.725
48.3716
50.1047
51.9156
53.7969
55.7417
57.7438
59.7979
61.8989
64.042
64.2188
62.9496
61.7345
60.5654
59.4321
58.3244
57.2332
56.1532
55.0806
54.0128
52.946
51.8747
50.794
49.6976
48.5812
47.4456
46.3004
45.1638
44.0591
43.0107
42.041
41.1685
40.4058
39.7627
39.2516
38.9018
38.8775
39.2028
39.7453
40.4784
41.3832
42.4431
43.6431
44.97
46.4119
47.9577
49.5978
51.3231
53.1253
54.9974
56.933
58.9258
60.9707
63.0631
65.198
65.471
64.2048
62.9882
61.813
60.6694
59.548
58.4413
57.3446
56.2545
55.1673
54.0792
52.9838
51.8754
50.7479
49.5988
48.4323
47.2629
46.1116
45.0024
43.9588
43.0015
42.1463
41.4038
40.7823
40.2934
39.9656
40.045
40.4092
40.978
41.7285
42.644
43.7092
44.9105
46.2352
47.6721
49.2113
50.8431
52.5589
54.3511
56.2128
58.1375
60.1196
62.1538
64.2356
66.3608
66.8002
65.5364
64.3184
63.1375
61.9845
60.8512
59.7306
58.6187
57.5122
56.4069
55.2975
54.1773
53.0403
51.8817
50.7018
49.5096
48.323
47.1644
46.0577
45.0245
44.0827
43.2462
42.5238
41.9225
41.4525
41.1406
41.2943
41.6864
42.2727
43.0336
43.9538
45.0194
46.2173
47.5362
48.9652
50.4946
52.1155
53.8197
55.5998
57.449
59.3613
61.3308
63.3528
65.4227
67.5362
68.2016
66.9406
65.7214
64.5355
63.3743
62.2302
61.0976
59.9721
58.8503
57.727
56.5965
55.4512
54.2861
53.0984
51.8926
50.6817
49.4855
48.3273
47.229
46.2102
45.2867
44.4701
43.768
43.1857
42.7331
42.4351
42.6368
43.048
43.644
44.4083
45.3272
46.3876
47.5775
48.8861
50.303
51.8191
53.4259
55.1154
56.8805
58.7146
60.6121
62.567
64.5747
66.6306
68.7307
69.6716
68.4137
67.1936
66.0034
64.835
63.6816
62.5383
61.4004
60.2638
59.1228
57.9711
56.8016
55.6101
54.3975
53.172
51.9496
50.7513
49.5994
48.514
47.513
46.6095
45.8138
45.132
44.5687
44.1328
43.8475
44.078
44.5011
45.1003
45.8624
46.7743
47.8248
49.0017
50.2955
51.6964
53.1954
54.7844
56.4559
58.2029
60.0192
61.8987
63.8366
65.8275
67.8672
69.9514
71.2069
69.9522
68.7314
67.5375
66.3631
65.2014
64.0485
62.899
61.7483
60.5897
59.4171
58.2245
57.0099
55.7773
54.5387
53.3116
52.1176
50.9767
49.908
48.9267
48.0447
47.2703
46.6088
46.0646
45.645
45.3719
45.6185
46.047
46.6446
47.3997
48.3006
49.3365
50.4969
51.772
53.153
54.6315
56.1995
57.8498
59.5756
61.371
63.2301
65.1477
67.119
69.1399
71.2064
61.8785
60.1879
58.5745
57.0445
55.6041
54.2604
53.0211
51.8936
50.8862
50.0075
49.2668
48.6738
48.2389
47.9763
48.1415
48.3947
48.5853
48.821
49.1227
49.502
49.9255
50.3507
50.7725
51.2091
51.6883
52.2227
52.8097
53.4298
54.0484
54.6476
55.2365
55.8361
56.4695
57.1573
57.9151
58.7523
59.6736
60.681
61.7739
62.9495
64.2048
65.5363
66.9405
68.4137
69.9517
60.188
58.4578
56.8043
55.2341
53.7538
52.3705
51.0924
49.9277
48.8847
47.9729
47.2021
46.5827
46.1266
45.8493
46.0087
46.2482
46.3905
46.5997
46.8825
47.2499
47.6553
48.0499
48.4401
48.8493
49.309
49.8295
50.4055
51.0118
51.608
52.1804
52.7474
53.3347
53.9662
54.662
55.4363
56.2973
57.2486
58.2905
59.4213
60.638
61.9365
63.313
64.7629
66.2824
67.8673
58.5743
56.8043
55.1109
53.5004
51.9798
50.5567
49.2391
48.036
46.9563
46.0102
45.2081
44.5612
44.0823
43.7891
43.9401
44.1588
44.2426
44.4256
44.6878
45.0421
45.4246
45.7814
46.1365
46.5157
46.9543
47.4597
48.0233
48.6134
49.1819
49.7244
50.2696
50.8462
51.4783
52.1846
52.9782
53.8661
54.8499
55.9291
57.1009
58.3609
59.7051
61.1284
62.6263
64.1941
65.8277
57.0432
55.2341
53.5009
51.8502
50.2894
48.8261
47.4688
46.2268
45.1098
44.1283
43.2935
42.6177
42.1149
41.8049
41.9435
42.1321
42.1486
42.3056
42.5454
42.8848
43.2381
43.5486
43.8655
44.2119
44.6278
45.1166
45.6661
46.2368
46.7717
47.2813
47.8055
48.3736
49.0085
49.7285
50.5445
51.4619
52.4815
53.6008
54.8161
56.1222
57.5144
58.9869
60.5347
62.1529
63.8365
55.6011
53.7538
51.9815
50.2913
48.6904
47.1873
45.7903
44.5091
43.3543
42.3368
41.4683
40.7624
40.2346
39.9066
40.0275
40.1731
40.1176
40.2486
40.4625
40.7848
41.1001
41.3554
41.6322
41.942
42.3333
42.804
43.3377
43.8848
44.3788
44.8537
45.3583
45.9202
46.5608
47.2972
48.1388
49.0891
50.1472
51.3096
52.5713
53.9263
55.3689
56.893
58.493
60.1633
61.8987
54.2552
52.3707
50.5606
48.8317
47.1918
45.6494
44.2132
42.8934
41.7005
40.6466
39.744
39.0073
38.4532
38.106
38.202
38.2874
38.1619
38.2644
38.4477
38.7498
39.0158
39.2067
39.4428
39.7113
40.0759
40.5266
41.0425
41.5607
42.0053
42.4444
42.9317
43.4902
44.1396
44.8955
45.7657
46.7522
47.8521
49.0608
50.3717
51.7783
53.2738
54.8518
56.506
58.2302
60.0191
53.0123
51.0925
49.2462
47.4805
45.803
44.2227
42.7486
41.3909
40.1609
39.0707
38.1338
37.3656
36.7841
36.4165
36.4771
36.483
36.2953
36.3648
36.5113
36.7887
36.991
37.11
37.3051
37.5255
37.8615
38.2902
38.7858
39.2683
39.6537
40.0577
40.5308
41.0886
41.7497
42.5284
43.4307
44.4566
45.6017
46.8597
48.2229
49.6839
51.2349
52.869
54.579
56.3589
58.2028
51.8804
49.9277
48.0475
46.2471
44.5344
42.9184
41.4082
40.0145
38.7487
37.6234
36.6527
35.8526
35.2431
34.8534
34.863
34.7758
34.533
34.563
34.6645
34.911
35.0325
35.075
35.2282
35.3918
35.6974
36.1016
36.5742
37.0114
37.3272
37.6992
38.1612
38.7214
39.3973
40.2021
41.14
42.2088
43.4025
44.713
46.1317
47.6496
49.2586
50.9507
52.7186
54.5556
56.4556
50.8676
48.8848
46.9738
45.142
43.3973
41.7485
40.2055
38.7785
37.4795
36.3211
35.3179
34.4865
33.8481
33.4329
33.3712
33.1845
32.892
32.8747
32.921
33.1262
33.149
33.1153
33.2229
33.3188
33.5927
33.9697
34.4151
34.7949
35.0307
35.3757
35.8304
36.3956
37.0893
37.9236
38.9007
40.0163
41.2619
42.6282
44.1051
45.6828
47.3519
49.1041
50.9315
52.8269
54.7838
49.982
47.9729
46.0351
44.176
42.4034
40.7263
39.1545
37.6986
36.3703
35.1823
34.1492
33.2878
32.6192
32.1723
32.018
31.7312
31.3913
31.3173
31.2972
31.4445
31.3536
31.2483
31.3014
31.3179
31.5591
31.905
32.3174
32.624
32.7715
33.0962
33.547
34.1198
34.8344
35.7018
36.7219
37.8877
39.1888
40.614
42.1519
43.7916
45.523
47.337
49.2252
51.18
53.1947
49.2331
47.2022
45.2422
43.3607
41.5656
39.8659
38.2714
36.7925
35.4407
34.2284
33.1696
32.2804
31.5801
31.0911
30.8252
30.4407
30.0526
29.9104
29.8128
29.8732
29.6671
29.4931
29.4767
29.4049
29.6113
29.9201
30.2913
30.5051
30.5603
30.8721
31.3216
31.9043
32.6427
33.5468
34.6135
35.8331
37.1931
38.6803
40.2817
41.9857
43.7811
45.6581
47.6079
49.6227
51.6955
48.6302
46.5828
44.6066
42.7088
40.8979
39.1828
37.5734
36.0799
34.713
33.4844
32.4065
31.493
30.7587
30.213
29.8195
29.3418
28.9012
28.6756
28.4903
28.4279
28.1136
27.8701
27.7653
27.6011
27.7676
28.0304
28.3483
28.4467
28.4123
28.7171
29.1671
29.7616
30.5268
31.471
32.5879
33.8648
35.2866
36.8384
38.5058
40.2757
42.1362
44.077
46.089
48.1639
50.2945
48.1845
46.1267
44.1403
42.2336
40.415
38.6939
37.08
35.5834
34.2141
32.9817
31.8956
30.964
30.192
29.5688
29.0348
28.4688
27.9665
27.6384
27.351
27.1378
26.7213
26.4018
26.1894
25.9324
26.0502
26.254
26.5002
26.4618
26.3478
26.6481
27.0995
27.7071
28.5017
29.4892
30.6596
31.9968
33.4833
35.1019
36.8367
38.6735
40.5998
42.6046
44.6784
46.8127
49.0004
47.9113
45.8492
43.8598
41.952
40.135
38.4189
36.8147
35.3331
33.9843
32.7754
31.7079
30.773
29.9478
29.2031
28.5175
27.866
27.2841
26.8299
26.4212
26.0377
25.5234
25.116
24.7781
24.4303
24.4864
24.6123
24.7586
24.5748
24.3908
24.6859
25.1386
25.76
26.5861
27.6196
28.8462
30.2462
31.7991
33.4857
35.2886
37.1927
39.1845
41.2526
43.3872
45.5798
47.823
48.0552
46.0085
44.0345
42.1419
40.3401
38.6394
37.0506
35.5838
34.2484
33.0486
31.9801
31.0217
30.1312
29.2645
28.4155
27.6148
26.9004
26.2932
25.7394
25.1709
24.5616
24.0478
23.5687
23.1338
23.1091
23.1304
23.1363
22.8174
22.5694
22.856
23.3089
23.9439
24.8026
25.8839
27.1685
28.6326
30.2527
32.0076
33.8783
35.8485
37.9044
40.0342
42.2275
44.4761
46.7724
48.2621
46.2476
44.3037
42.4392
40.6636
38.9875
37.4211
35.9741
34.6541
33.4635
32.3938
31.4185
30.4952
29.5896
28.7026
27.8438
27.0115
26.1898
25.373
24.5975
23.8954
23.2431
22.6101
22.0911
21.9567
21.8377
21.6713
21.2267
20.9192
21.191
21.6422
22.2887
23.1795
24.3086
25.6513
27.1792
28.8657
30.6873
32.6238
34.6579
36.7751
38.9634
41.2123
43.5134
45.8593
48.3502
46.3894
44.5002
42.6899
40.967
39.3405
37.8199
36.4134
35.1267
33.9594
32.8999
31.9201
30.9812
30.0573
29.1486
28.2573
27.3755
26.4888
25.5805
24.6435
23.6852
22.7666
21.9712
21.3668
21.0712
20.7747
20.4122
19.8488
19.4863
19.7319
20.1786
20.8316
21.7512
22.9259
24.3242
25.9132
27.6629
29.5476
31.5458
33.6394
35.8135
38.0557
40.3556
42.7049
45.0961
48.5271
46.5988
44.7466
42.9778
41.2999
39.7212
38.249
36.8897
35.6457
34.5127
33.4743
32.5006
31.5575
30.6259
29.7039
28.7881
27.8669
26.9225
25.9379
24.9122
23.8634
22.8341
21.8886
21.0949
20.5074
20.0042
19.4203
18.7447
18.3339
18.5318
18.9697
19.6193
20.5602
21.774
23.222
24.8659
26.6725
28.6138
30.6672
32.8137
35.0382
37.328
39.6729
42.0644
44.4953
48.7786
46.8819
45.0639
43.3323
41.6946
40.1585
38.7308
37.4161
36.2141
35.1168
34.1029
33.1401
32.1977
31.2617
30.3275
29.3879
28.4309
27.444
26.4181
25.3559
24.2761
23.2128
22.2164
21.32
20.4998
19.6489
18.7761
18.0044
17.5573
17.66
18.0821
18.7095
19.6577
20.8989
22.3857
24.0739
25.927
27.9148
30.0135
32.2037
34.4697
36.799
39.1811
41.6078
44.0722
49.1164
47.2494
45.4629
43.7646
42.1623
40.6633
39.2738
37.9974
36.8319
35.7652
34.7724
33.8185
32.8745
31.9294
30.9776
30.012
29.0237
28.0035
26.9464
25.8575
24.7608
23.6918
22.6877
21.755
20.8518
19.939
19.0565
18.264
17.66
17.2078
17.5939
18.1715
19.1062
20.357
21.8658
23.5823
25.4663
27.4859
29.6161
31.837
34.1331
36.4915
38.9019
41.3563
43.8475
49.4847
47.6545
45.9049
44.2436
42.6785
41.2165
39.8636
38.6219
37.4874
36.4447
35.4652
34.5126
33.5608
32.6031
31.6354
30.6527
29.647
28.6092
27.5353
26.4321
25.326
24.2518
23.2369
22.2762
21.3364
20.407
19.5242
18.7173
18.0513
17.5527
17.3504
18.094
19.191
20.5529
22.1301
23.8859
25.79
27.8177
29.9484
32.1653
34.4543
36.8043
39.2057
41.6507
44.1329
49.8318
48.0491
46.3462
44.7308
43.21
41.7903
40.4766
39.2694
38.1619
37.1363
36.1617
35.2044
34.2446
33.2794
32.3062
31.3195
30.3105
29.2681
28.1874
27.0762
25.9599
24.8723
23.8409
22.8659
21.9226
20.9988
20.122
19.3103
18.6021
18.0409
17.761
18.5146
19.6295
21.0147
22.6128
24.383
26.2946
28.3234
30.4504
32.66
34.9394
37.2779
39.6671
42.0995
44.569
50.1761
48.4391
46.7832
45.2149
43.7407
42.3655
41.0925
39.9198
38.8376
37.8253
36.8531
35.8928
34.9315
33.9675
32.9977
32.0148
31.008
29.9645
28.8785
27.7587
26.6324
25.5339
24.4927
23.5157
22.58
21.6618
20.7775
19.9497
19.2259
18.6611
18.4222
19.1732
20.2874
21.6733
23.272
25.0412
26.9492
28.9718
31.09
33.2887
35.5556
37.8807
40.2555
42.6733
45.1281
50.5385
48.8484
47.2395
45.7186
44.2908
42.9602
41.7277
40.589
39.5319
38.5341
37.5676
36.6107
35.6548
34.6974
33.7343
32.7565
31.7525
30.7094
29.6214
28.4993
27.3725
26.2757
25.2379
24.2683
23.3434
22.4328
21.5505
20.7283
20.0217
19.4924
19.3891
20.1195
21.2086
22.5689
24.1432
25.8894
27.7757
29.7774
31.8754
34.0543
36.3016
38.6075
40.9635
43.3628
45.7997
50.955
49.3082
47.7444
46.2691
44.8869
43.6002
42.4079
41.3034
40.2716
39.2895
38.3318
37.3815
36.4322
35.481
34.523
33.5489
32.5474
31.5061
30.4197
29.3009
28.1798
27.0904
26.0616
25.1027
24.1899
23.2944
22.4349
21.6495
20.9916
20.5196
20.5877
21.2986
22.3557
23.6791
25.2153
26.9242
28.7749
30.7433
32.8099
34.9593
37.1789
39.4585
41.7898
44.1656
46.5803
51.4354
49.8293
48.3082
46.8767
45.5382
44.294
43.1406
42.0688
41.061
40.0933
39.1431
38.1973
37.2517
36.3035
35.3477
34.3752
33.3747
32.3344
31.2493
30.1338
29.0181
27.936
26.9157
25.9662
25.0659
24.1919
23.3686
22.6396
22.0605
21.6945
21.9218
22.6329
23.666
24.954
26.4498
28.1167
29.9259
31.854
33.8824
35.9957
38.1813
40.429
42.7304
45.078
47.4661
51.9732
50.4053
48.9241
47.5336
46.2361
45.0313
43.9131
42.8698
41.8811
40.9225
39.9753
39.0301
38.0846
37.1356
36.1777
35.2013
34.1939
33.1451
32.0538
30.9378
29.8285
28.7588
27.7531
26.8159
25.9279
25.0767
24.2896
23.6104
23.1053
22.9468
23.3084
24.0449
25.0711
26.3352
27.7976
29.4262
31.195
33.0825
35.0709
37.1455
39.2943
41.5069
43.775
46.0912
48.4496
52.5411
51.0116
49.5693
48.2175
46.9575
45.7875
44.6991
43.6777
42.7012
41.7465
40.7983
39.851
38.9025
37.949
36.9835
35.9955
34.9736
33.9109
32.8122
31.6986
30.6009
29.5491
28.5618
27.6392
26.7644
25.9346
25.1807
24.5469
24.0936
24.1947
24.677
25.4635
26.5048
27.7628
29.2056
30.8064
32.5424
34.3943
36.346
38.3841
40.4968
42.6744
44.9086
47.1925
49.5199
53.0929
51.6075
50.2075
48.8959
47.6729
46.5349
45.4718
44.4668
43.4974
42.5433
41.5928
40.6421
39.6884
38.7271
37.7508
36.7503
35.7168
34.6471
33.549
32.4434
31.358
30.3192
29.3425
28.4278
27.5655
26.7612
26.0484
25.4714
25.0771
25.38
25.9784
26.8325
27.9097
29.1814
30.622
32.2097
33.9249
35.7512
37.674
39.6814
41.7625
43.9082
46.111
48.3641
50.6615
53.621
52.1799
50.8229
49.5519
48.3656
47.2583
46.218
45.2264
44.2618
43.3071
42.3533
41.3978
40.4375
39.4676
38.4819
37.4722
36.4315
35.3586
34.2622
33.1626
32.0854
31.055
30.0853
29.1778
28.3303
27.5559
26.8897
26.3812
26.0829
26.5054
27.1978
28.121
29.2454
30.5461
32.0011
33.5914
35.3005
37.1137
39.0188
41.0047
43.062
45.1824
47.3588
49.585
51.8557
54.1506
52.7472
51.428
50.1936
49.0407
47.961
46.9405
45.9595
44.9977
44.0412
43.0837
42.1233
41.1572
40.1811
39.1886
38.1716
37.1238
36.0448
34.9452
33.847
32.7767
31.7572
30.8005
29.9075
29.0803
28.3388
27.7191
27.2768
27.1331
27.6154
28.3672
29.3424
30.5091
31.8417
33.3187
34.9222
36.6366
38.4488
40.3473
42.3223
44.3653
46.4688
48.6262
50.8321
53.0812
54.7092
53.3347
52.0448
50.8389
49.7118
48.6534
47.6474
46.6732
45.7123
44.7536
43.7937
42.8309
41.8625
40.8835
39.8868
38.864
37.8083
36.722
35.6187
34.5226
33.4607
32.4544
31.5138
30.6395
29.8359
29.1255
28.5453
28.1505
28.2087
28.7313
29.5206
30.5296
31.7256
33.0827
34.5794
36.1976
37.9219
39.7394
41.6391
43.6116
45.6488
47.7434
49.8897
52.0823
54.3167
55.3202
53.9662
52.6968
51.5096
50.3987
49.3522
48.3523
47.3796
46.4169
45.4565
44.4963
43.5341
42.5661
41.5867
40.5874
39.5597
38.4992
37.4098
36.308
35.2182
34.166
33.172
32.2469
31.3938
30.6181
29.9394
29.3924
29.0275
29.2636
29.8383
30.6633
31.6992
32.9164
34.2907
35.8012
37.4303
39.1631
40.9866
42.8899
44.8637
46.8998
48.9914
51.1327
53.3182
55.5439
56.0014
54.6621
53.4056
52.2286
51.1243
50.0794
49.0766
48.0974
47.1286
46.1642
45.2025
44.2401
43.2717
42.2902
41.2871
40.2552
39.1921
38.1041
37.0082
35.9279
34.8882
33.9091
33.0026
32.1739
31.4294
30.7884
30.2844
29.9601
30.3092
30.9378
31.7983
32.859
34.0938
35.4806
37.0003
38.6362
40.3739
42.2011
44.1068
46.0819
48.1182
50.2089
52.3481
54.5303
56.7515
56.7653
55.4364
54.1877
53.0148
51.9092
50.8582
49.8443
48.8516
47.8702
46.8956
45.9255
44.9558
43.98
42.9912
41.9819
40.9462
39.8828
38.7983
37.7098
36.6397
35.6126
34.6485
33.7603
32.9551
32.242
31.6442
31.2013
30.9723
31.3821
32.051
32.9399
34.0205
35.2688
36.6646
38.1898
39.8287
41.568
43.3956
45.3011
47.2754
49.3107
51.4
53.5373
55.7175
57.936
57.618
56.2974
55.0531
53.8799
52.7686
51.7056
50.6755
49.6645
48.6647
47.6731
46.6867
45.7009
44.7099
43.7077
42.6883
41.6466
40.5811
39.4988
38.4156
37.3535
36.3362
35.385
34.5146
33.7345
33.0561
32.5039
32.1231
32.0523
32.4969
33.1931
34.102
35.1962
36.4533
37.8537
39.3807
41.0195
42.7569
44.5818
46.4842
48.4551
50.487
52.5731
54.7071
56.8844
59.1
58.5627
57.2488
56.0071
54.8311
53.7109
52.6334
51.5842
50.5523
49.5311
48.5184
47.5106
46.5036
45.4922
44.4721
43.4373
42.3835
41.309
40.2212
39.1363
38.0759
37.0643
36.1242
35.2732
34.5237
33.8874
33.3868
33.0655
33.1656
33.6437
34.3636
35.2882
36.3921
37.6541
39.0559
40.5815
42.2171
43.9498
45.7694
47.6657
49.6307
51.6567
53.737
55.866
58.0383
60.2497
59.5986
58.2908
57.0503
55.8702
54.74
53.647
52.5785
51.525
50.4819
49.4468
48.4161
47.386
46.352
45.3094
44.2529
43.1769
42.0814
40.9755
39.8772
38.8099
37.7991
36.8693
36.0396
35.3227
34.7311
34.2893
34.0569
34.2882
34.8083
35.5534
36.4939
37.6065
38.872
40.2734
41.7958
43.426
45.1523
46.9642
48.8526
50.8094
52.8273
54.8999
57.0215
59.1872
61.3921
60.7239
59.4216
58.1818
56.9968
55.8563
54.7479
53.6605
52.587
51.5231
50.4662
49.4131
48.3597
47.3013
46.2324
45.1467
44.0396
42.9134
41.7809
40.6635
39.5871
38.5784
37.6611
36.8526
36.1648
35.6102
35.2185