# vtk DataFile Version 4.2
vtk output
ASCII
DATASET POLYDATA
POINTS 602 float
0.714865 0.141491 -0.130946
0.666948 0.181748 -0.172147
0.577071 0.233609 -0.22784
0.429232 0.28817 -0.286564
0.228592 0.328433 -0.328597
-7.20323e-05 0.342953 -0.342954
-0.22878 0.328633 -0.32847
-0.429568 0.286595 -0.288199
-0.577772 0.227729 -0.233459
-0.668406 0.17161 -0.181083
-0.716586 0.130113 -0.140961
0.733139 0.109894 -0.1285
0.689812 0.144327 -0.175167
0.605478 0.193206 -0.237643
0.458356 0.247589 -0.306282
0.247405 0.289581 -0.358169
-0.000373507 0.305054 -0.376844
-0.248071 0.290031 -0.358574
-0.458947 0.247203 -0.307921
-0.606384 0.189797 -0.241397
-0.690697 0.13753 -0.18076
-0.733705 0.100721 -0.134642
0.745158 0.0805819 -0.127152
0.710915 0.105252 -0.174216
0.634949 0.146027 -0.243614
0.490079 0.196119 -0.324673
0.26844 0.236979 -0.389298
-0.000692184 0.252505 -0.413457
-0.26998 0.237999 -0.389968
-0.49198 0.197132 -0.325684
-0.636885 0.144759 -0.244728
-0.712183 0.100761 -0.175321
-0.744924 0.0728959 -0.129815
0.752517 0.0529809 -0.125875
0.726362 0.068111 -0.171232
0.660179 0.0961674 -0.245532
0.519426 0.135424 -0.339303
0.288632 0.169593 -0.417854
-0.000805938 0.183097 -0.447961
-0.290579 0.171321 -0.418553
-0.521987 0.137965 -0.339586
-0.662471 0.0969385 -0.244444
-0.727315 0.0653858 -0.169734
-0.752214 0.0464152 -0.125915
0.756518 0.0269254 -0.124179
0.735426 0.0335646 -0.167854
0.677135 0.046619 -0.244753
0.540865 0.0681645 -0.34849
0.303985 0.088466 -0.438651
-0.000553358 0.0970365 -0.473597
-0.305362 0.0907749 -0.439111
-0.542681 0.0720025 -0.348403
-0.678623 0.049069 -0.243325
-0.735932 0.0317527 -0.166136
-0.756341 0.0216071 -0.123447
0.757737 0.00235782 -0.122962
0.738547 0.000760655 -0.165642
0.683563 -0.00155565 -0.243432
0.549425 -0.00218193 -0.351502
0.310296 -0.00126458 -0.446528
5.62869e-10 3.96802e-08 -0.483226
-0.310297 0.00126462 -0.446528
-0.549425 0.00218196 -0.351502
-0.683563 0.00155566 -0.243432
-0.738547 -0.000760669 -0.165642
-0.757737 -0.00235783 -0.122962
0.756341 -0.0216072 -0.123447
0.735933 -0.0317528 -0.166136
0.678623 -0.049069 -0.243325
0.54268 -0.0720026 -0.348403
0.305362 -0.0907749 -0.439111
0.000553383 -0.0970366 -0.473597
-0.303985 -0.0884661 -0.438651
-0.540865 -0.0681646 -0.34849
-0.677135 -0.046619 -0.244753
-0.735426 -0.0335646 -0.167853
-0.756518 -0.0269255 -0.124179
0.752214 -0.0464152 -0.125916
0.727315 -0.0653857 -0.169734
0.662471 -0.0969384 -0.244443
0.521987 -0.137965 -0.339586
0.290579 -0.171321 -0.418553
0.000805942 -0.183097 -0.447961
-0.288633 -0.169593 -0.417854
-0.519426 -0.135424 -0.339303
-0.660179 -0.0961674 -0.245533
-0.726363 -0.0681109 -0.171232
-0.752517 -0.0529809 -0.125875
0.744924 -0.072896 -0.129815
0.712183 -0.100761 -0.175321
0.636885 -0.144759 -0.244728
0.49198 -0.197132 -0.325684
0.26998 -0.237999 -0.389968
0.000692208 -0.252505 -0.413457
-0.26844 -0.236979 -0.389298
-0.490079 -0.196119 -0.324673
-0.634949 -0.146027 -0.243614
-0.710915 -0.105252 -0.174216
-0.745159 -0.0805818 -0.127152
0.733705 -0.100721 -0.134642
0.690698 -0.13753 -0.18076
0.606384 -0.189797 -0.241397
0.458947 -0.247203 -0.307921
0.248071 -0.290031 -0.358574
0.000373493 -0.305054 -0.376844
-0.247405 -0.289581 -0.358169
-0.458356 -0.247589 -0.306282
-0.605478 -0.193206 -0.237644
-0.689812 -0.144327 -0.175167
-0.73314 -0.109894 -0.1285
0.716586 -0.130113 -0.140961
0.668406 -0.17161 -0.181083
0.577772 -0.227729 -0.233459
0.429569 -0.286595 -0.288199
0.22878 -0.328633 -0.32847
7.1989e-05 -0.342953 -0.342954
-0.228592 -0.328433 -0.328597
-0.429233 -0.28817 -0.286564
-0.577071 -0.233609 -0.22784
-0.666948 -0.181749 -0.172147
-0.714865 -0.141491 -0.130946
0.733889 0.134058 -0.100393
0.748209 0.101293 -0.0989095
0.757966 0.0714414 -0.0966026
0.764059 0.0453246 -0.0931746
0.767292 0.0224772 -0.090278
0.768223 0.00143895 -0.0893129
0.767082 -0.0199249 -0.090582
0.763641 -0.043596 -0.0937095
0.757289 -0.0705484 -0.0980638
0.747334 -0.100034 -0.103187
0.733146 -0.128994 -0.110269
0.690784 -0.174556 -0.144402
0.606249 -0.237329 -0.193217
0.458744 -0.306241 -0.247656
0.247604 -0.358187 -0.289631
-0.000232023 -0.376841 -0.305056
-0.247871 -0.358546 -0.289982
-0.458556 -0.307944 -0.247143
-0.605569 -0.241734 -0.189818
-0.689398 -0.181887 -0.137312
-0.733889 -0.134058 -0.100393
-0.748209 -0.101293 -0.0989095
-0.757966 -0.0714414 -0.0966026
-0.764059 -0.0453246 -0.0931748
-0.767292 -0.0224772 -0.090278
-0.768223 -0.00143901 -0.0893128
-0.767082 0.0199248 -0.0905819
-0.763641 0.0435959 -0.0937095
-0.757289 0.0705484 -0.0980638
-0.747334 0.100034 -0.103187
-0.733146 0.128994 -0.110269
0.745549 0.128693 -0.0725717
0.758087 0.0962961 -0.0696907
0.766871 0.0658483 -0.0658097
0.77205 0.0402978 -0.0612028
0.774613 0.0192776 -0.0577553
0.775322 0.000862241 -0.0567957
0.774473 -0.017908 -0.0584223
0.771744 -0.0399328 -0.0620757
0.766266 -0.0668721 -0.0670886
0.757081 -0.0981386 -0.073047
0.744443 -0.128444 -0.0810525
0.711156 -0.174004 -0.105978
0.635534 -0.243249 -0.146398
0.490458 -0.324571 -0.196296
0.268632 -0.389299 -0.237056
-0.000562548 -0.413453 -0.252506
-0.269786 -0.389954 -0.237926
-0.49159 -0.325771 -0.196983
-0.636172 -0.245227 -0.144388
-0.71188 -0.175766 -0.0997986
-0.745549 -0.128693 -0.0725717
-0.758087 -0.0962961 -0.0696908
-0.766871 -0.0658483 -0.0658098
-0.77205 -0.0402979 -0.0612028
-0.774613 -0.0192776 -0.0577553
-0.775322 -0.000862247 -0.0567958
-0.774473 0.017908 -0.0584222
-0.771744 0.0399326 -0.0620755
-0.766266 0.0668721 -0.0670886
-0.757081 0.0981385 -0.0730471
-0.744443 0.128444 -0.0810526
0.752867 0.124698 -0.0462755
0.764262 0.0920906 -0.0433885
0.772107 0.0609008 -0.0397759
0.776302 0.0358308 -0.0357056
0.77817 0.0165034 -0.032705
0.778678 0.000475189 -0.0318105
0.778148 -0.0158548 -0.0330846
0.776174 -0.0360706 -0.0361334
0.771682 -0.0624665 -0.0405262
0.763371 -0.0949128 -0.045971
0.751711 -0.127278 -0.0532735
0.726177 -0.171397 -0.0690561
0.660496 -0.24527 -0.0968577
0.519724 -0.339192 -0.135743
0.28879 -0.417845 -0.169704
-0.000703303 -0.447955 -0.183099
-0.290419 -0.418553 -0.171217
-0.521679 -0.339703 -0.137666
-0.662108 -0.244779 -0.0961823
-0.727454 -0.169656 -0.0643539
-0.752867 -0.124698 -0.0462755
-0.764262 -0.0920906 -0.0433885
-0.772107 -0.0609007 -0.0397759
-0.776302 -0.0358308 -0.0357056
-0.77817 -0.0165035 -0.0327051
-0.778678 -0.000475191 -0.0318105
-0.778148 0.0158548 -0.0330846
-0.776174 0.0360706 -0.0361334
-0.771682 0.0624663 -0.0405262
-0.763371 0.0949126 -0.045971
-0.751711 0.127278 -0.0532736
0.75675 0.122632 -0.0216511
0.767445 0.0895006 -0.0203349
0.77466 0.0575682 -0.0185239
0.778179 0.0327472 -0.0162388
0.77957 0.0145767 -0.0144794
0.779927 0.000192304 -0.013864
0.779589 -0.014388 -0.0144523
0.778147 -0.0331131 -0.0160894
0.774443 -0.0587174 -0.0186742
0.766925 -0.0914862 -0.0221954
0.756004 -0.125101 -0.0269829
0.735209 -0.168077 -0.0343916
0.677255 -0.244627 -0.0474644
0.541028 -0.348421 -0.0685948
0.304074 -0.438643 -0.0886083
-0.000495652 -0.473593 -0.0970377
-0.305269 -0.439116 -0.0906384
-0.542521 -0.348479 -0.0715752
-0.678514 -0.243437 -0.0481732
-0.736104 -0.165924 -0.0309225
-0.75675 -0.122632 -0.0216512
-0.767445 -0.0895005 -0.0203349
-0.77466 -0.0575682 -0.0185239
-0.778179 -0.0327473 -0.0162389
-0.77957 -0.0145767 -0.0144794
-0.779927 -0.000192297 -0.013864
-0.779589 0.0143879 -0.0144523
-0.778147 0.0331132 -0.0160895
-0.774443 0.0587173 -0.0186742
-0.766925 0.0914862 -0.0221955
-0.756004 0.125101 -0.0269829
0.7577 0.122998 0.00226788
0.768237 0.0893358 0.000775668
0.775336 0.0568366 -5.18671e-05
0.778684 0.0318419 -0.000192799
0.779928 0.0138797 -9.77665e-05
0.780219 -2.28457e-08 -3.69632e-09
0.779928 -0.0138798 9.77897e-05
0.778684 -0.0318419 0.000192852
0.775336 -0.0568367 5.187e-05
0.768237 -0.0893359 -0.000775669
0.7577 -0.122998 -0.0022679
0.738528 -0.165632 -0.0014728
0.683575 -0.243409 0.000661921
0.54943 -0.351503 0.00171033
0.310294 -0.446528 0.00111253
-5.5828e-09 -0.483222 -9.99598e-09
-0.310294 -0.446528 -0.00111255
-0.54943 -0.351503 -0.00171033
-0.683574 -0.243409 -0.000661905
-0.738528 -0.165633 0.00147277
-0.7577 -0.122998 0.00226791
-0.768237 -0.0893359 0.000775679
-0.775336 -0.0568365 -5.18679e-05
-0.778684 -0.0318419 -0.000192842
-0.779928 -0.0138797 -9.77814e-05
-0.780219 -1.15012e-08 -1.70622e-09
-0.779928 0.0138797 9.77694e-05
-0.778684 0.0318418 0.000192835
-0.775336 0.0568365 5.18423e-05
-0.768237 0.0893359 -0.00077567
-0.7577 0.122998 -0.00226785
0.756004 0.125101 0.0269829
0.766925 0.0914862 0.0221955
0.774443 0.0587174 0.0186743
0.778147 0.0331131 0.0160895
0.779589 0.0143879 0.0144523
0.779927 -0.000192332 0.0138641
0.77957 -0.0145767 0.0144794
0.778179 -0.0327473 0.0162389
0.77466 -0.0575683 0.018524
0.767445 -0.0895006 0.0203349
0.75675 -0.122632 0.0216511
0.736104 -0.165924 0.0309225
0.678514 -0.243437 0.0481732
0.542521 -0.348479 0.0715752
0.305269 -0.439116 0.0906385
0.000495645 -0.473593 0.0970378
-0.304074 -0.438643 0.0886083
-0.541028 -0.348421 0.0685949
-0.677255 -0.244627 0.0474644
-0.735209 -0.168077 0.0343916
-0.756004 -0.125101 0.0269829
-0.766925 -0.0914863 0.0221954
-0.774443 -0.0587173 0.0186742
-0.778147 -0.0331132 0.0160895
-0.779589 -0.0143879 0.0144523
-0.779927 0.000192277 0.0138641
-0.77957 0.0145766 0.0144793
-0.778179 0.0327472 0.0162388
-0.77466 0.0575682 0.0185239
-0.767445 0.0895006 0.0203349
-0.75675 0.122632 0.0216511
0.751711 0.127278 0.0532735
0.763371 0.0949126 0.045971
0.771682 0.0624664 0.0405262
0.776174 0.0360706 0.0361334
0.778148 0.0158547 0.0330846
0.778678 -0.000475221 0.0318106
0.77817 -0.0165035 0.0327051
0.776302 -0.0358309 0.0357057
0.772107 -0.0609009 0.039776
0.764262 -0.0920906 0.0433885
0.752868 -0.124698 0.0462755
0.727455 -0.169655 0.0643539
0.662108 -0.244778 0.0961823
0.521679 -0.339703 0.137666
0.290419 -0.418553 0.171217
0.000703261 -0.447955 0.183099
-0.28879 -0.417845 0.169704
-0.519724 -0.339192 0.135743
-0.660496 -0.24527 0.0968579
-0.726177 -0.171397 0.0690561
-0.751711 -0.127278 0.0532735
-0.763371 -0.0949127 0.045971
[...]
POINT_DATA 602
SCALARS Redistribution_Potential float 1
LOOKUP_TABLE default
-1.27149e-07
8.78253
20.5133
33.0119
42.5757
46.105
42.4534
32.7462
20.0413
7.97964
-1.12012
-3.71391
5.26908
17.5407
31.1415
42.0237
46.165
41.9219
30.906
17.0619
4.49065
-4.73801
-6.50104
1.79954
14.3389
29.1032
41.4887
46.3487
41.399
28.808
13.6809
0.763654
-7.51723
-8.53333
-1.03695
11.4378
27.1949
41.0317
46.6005
40.9398
26.8332
10.6311
-2.15749
-9.55144
-9.91134
-2.98539
9.33687
25.7826
40.7214
46.8239
40.6081
25.4185
8.61588
-3.91898
-10.7441
-10.5409
-3.86915
8.43951
25.2193
40.6187
46.9119
40.4706
24.928
8.029
-4.34644
-11.0296
-10.2874
-3.48064
8.99241
25.6864
40.7424
46.8156
40.5653
25.4768
8.89862
-3.50424
-10.4402
-9.12303
-1.75548
10.9712
27.0732
41.0573
46.5851
40.8745
26.8865
10.9826
-1.59762
-9.1159
-7.11563
1.13144
13.985
29.0195
41.4994
46.3277
41.3363
28.8044
13.8823
1.20274
-7.15698
-4.36249
4.8259
17.3339
31.0919
42.0068
46.1401
41.8794
30.8612
17.101
4.6527
-4.46989
-0.771044
8.28772
20.2876
32.9116
42.5259
46.0774
42.4398
32.7528
20.1055
8.18028
-0.890643
-4.02017
-7.99286
-11.0387
-13.2757
-14.6659
-15.1561
-14.7438
-13.412
-11.1448
-7.99866
-4.11039
4.82179
17.2749
31.0193
41.9666
46.1353
41.9087
30.9185
17.1456
4.68665
-4.74158
-8.64201
-11.6254
-13.8141
-15.1688
-15.6315
-15.1951
-13.8394
-11.5474
-8.37613
-4.46426
-6.99297
-11.2317
-14.6544
-17.0996
-18.5302
-18.974
-18.4912
-17.0421
-14.5261
-10.9426
-6.66702
1.47616
14.0778
28.9666
41.4247
46.3169
41.3863
28.8245
13.7635
0.831046
-7.61555
-11.8114
-15.1905
-17.601
-19.0063
-19.4311
-18.9311
-17.4635
-14.9259
-11.3187
-7.02117
-9.12205
-13.5324
-17.166
-19.6529
-21.0248
-21.4321
-20.981
-19.5679
-16.987
-13.1675
-8.59641
-1.25528
11.2107
27.0579
40.9641
46.5674
40.927
26.8476
10.6776
-2.16127
-9.68093
-14.064
-17.6659
-20.1268
-21.48
-21.8734
-21.4098
-19.982
-17.3824
-13.5406
-8.94824
-10.3206
-14.8376
-18.5786
-21.033
-22.3049
-22.6735
-22.2907
-20.9918
-18.4817
-14.6327
-9.97548
-3.15273
9.15206
25.6593
40.6558
46.7907
40.5939
25.4227
8.6297
-3.93956
-10.8358
-15.3354
-19.0534
-21.488
-22.7453
-23.1032
-22.7103
-21.3989
-18.8718
-15.0016
-10.3236
-10.5396
-15.1546
-18.9716
-21.4313
-22.6734
-23.0317
-22.6914
-21.4724
-19.0436
-15.2624
-10.6764
-4.02592
8.2957
25.1196
40.5599
46.8797
40.4537
24.919
8.02274
-4.34538
-11.0213
-15.627
-19.4279
-21.8725
-23.1031
-23.4524
-23.103
-21.8722
-19.4272
-15.6258
-11.0194
-9.87313
-14.5531
-18.4328
-20.9704
-22.2908
-22.6917
-22.3426
-21.0969
-18.6778
-14.9789
-10.4982
-3.62863
8.89328
25.6144
40.6929
46.7855
40.5456
25.4548
8.87478
-3.47729
-10.3259
-15.0031
-18.8727
-21.3994
-22.7106
-23.1033
-22.7453
-21.4878
-19.0529
-15.3345
-10.8342
-8.52497
-13.1147
-16.9612
-19.5679
-21.0028
-21.4738
-21.0891
-19.7479
-17.3021
-13.718
-9.35302
-1.86249
10.9273
27.0263
41.0166
46.5576
40.8532
26.8545
10.9338
-1.58172
-8.95105
-13.5426
-17.3836
-19.9828
-21.4103
-21.8738
-21.4801
-20.1268
-17.6656
-14.0632
-9.67964
-6.62352
-10.9164
-14.5254
-17.0676
-18.5409
-19.0476
-18.6315
-17.2378
-14.8415
-11.4784
-7.29935
1.11468
13.9963
28.9881
41.4654
46.3031
41.3156
28.768
13.8052
1.151
-7.02458
-11.3212
-14.9277
-17.4648
-18.932
-19.4317
-19.0067
-17.6013
-15.1905
-11.8109
-7.61455
-4.09121
-7.99835
-11.17
-13.4652
-14.8257
-15.2686
-14.8142
-13.47
-11.2935
-8.32395
-4.43876
4.95297
17.3612
31.0671
41.9779
46.1182
41.8606
30.8277
17.0092
4.50081
-4.46836
-8.37932
-11.5499
-13.8413
-15.1965
-15.6327
-15.1697
-13.8148
-11.6257
-8.64186
-4.74088
-0.771527
-4.38433
-7.16259
-9.19873
-10.3956
-10.6874
-10.1063
-8.79166
-6.8434
-4.16848
-0.603808
8.43165
20.3065
32.8887
42.5006
46.0578
42.4234
32.7273
20.0294
7.97209
-1.12511
-4.74201
-7.52045
-9.55407
-10.7462
-11.0313
-10.4416
-9.11695
-7.15763
-4.47001
-0.890256
4.91884
17.3161
31.0084
41.9459
46.1183
41.8935
30.8887
17.0515
4.48428
1.4844
14.1134
28.9649
41.4095
46.3034
41.3727
28.7927
13.6721
0.758532
-1.30175
11.2296
27.0606
40.9548
46.5581
40.9163
26.8202
10.6239
-2.1616
-3.19638
9.15932
25.663
40.6521
46.7862
40.5878
25.4076
8.61003
-3.92229
-4.02911
8.29967
25.1226
40.5617
46.8808
40.4539
24.9191
8.02425
-4.34919
-3.59535
8.89159
25.6161
40.7004
46.7922
40.5525
25.4698
8.89477
-3.5064
-1.83157
10.9063
27.0284
41.0299
46.5693
40.8656
26.8815
10.9797
-1.59928
1.08757
13.9504
28.996
41.4845
46.3188
41.3311
28.8013
13.8805
1.20163
4.80851
17.3225
31.0844
42.0016
46.1369
41.8776
30.8602
17.1004
4.65239
8.29124
20.293
32.9155
42.5279
46.0786
42.4409
32.7537
20.1062
8.18083
4.84685
17.299
31.0361
41.9764
46.1413
41.9126
30.9211
17.1473
4.68783
1.52728
14.1266
29.0013
41.4453
46.3289
41.3934
28.8288
13.7661
0.83268
-1.17345
11.2904
27.1156
40.9983
46.5865
40.9377
26.8536
10.681
-2.1593
-3.03482
9.26852
25.744
40.7054
46.8175
40.6082
25.4304
8.63385
-3.93718
-3.8646
8.45402
25.2321
40.6244
46.914
40.4716
24.9284
8.02777
-4.34254
-3.41398
9.09553
25.7498
40.7684
46.8258
40.567
25.4662
8.88086
-3.47379
-1.58284
11.1664
27.1727
41.0971
46.6018
40.8777
26.868
10.9413
-1.5774
1.46444
14.2488
29.1314
41.5462
46.3494
41.3425
28.7836
13.8142
1.15627
5.35008
17.5924
31.2006
42.0562
46.1653
41.8894
30.8451
17.0197
4.50724
SCALARS CoVolArea float 1
LOOKUP_TABLE default
0.00108521
0.00284415
0.00534705
0.00850617
0.0111249
0.0121205
0.0111248
0.00850374
0.00533515
0.0028039
0.0012398
0.00158618
0.00313403
0.00588826
0.00956495
0.012963
0.0145008
0.0132547
0.00969745
0.0056383
0.00273348
0.00138503
0.00148505
0.00311022
0.00654285
0.0117072
0.0169028
0.0192939
0.0172731
0.0119543
0.00638956
0.0028044
0.00127912
0.00134155
0.00295252
0.00693456
0.0136711
0.0209617
0.0243727
0.0213894
0.014006
0.00689371
0.00275729
0.00118494
0.00122071
0.00279487
0.00714109
0.0151788
0.0242999
0.0285483
0.0246129
0.0154358
0.00715081
0.00270606
0.00113391
0.00114653
0.0027085
0.00721484
0.0158533
0.0257411
0.030205
0.0257411
0.0158533
0.00721483
0.0027085
0.00114653
0.00113391
0.00270606
0.00715081
0.0154358
0.0246129
0.0285483
0.0242999
0.0151788
0.00714109
0.00279487
0.00122071
0.00118493
0.00275728
0.00689371
0.014006
0.0213894
0.0243727
0.0209617
0.0136711
0.00693455
0.00295252
0.00134154
0.00127912
0.0028044
0.00638956
0.0119543
0.0172731
0.0192939
0.0169028
0.0117071
0.00654285
0.00311022
0.00148505
0.00138503
0.00273348
0.0056383
0.00969744
0.0132548
0.0145008
0.0129631
0.00956496
0.00588826
0.00313404
0.00158618
0.0012398
0.00280391
0.00533516
0.00850374
0.0111248
0.0121205
0.0111249
0.00850615
0.00534703
0.00284415
0.00108522
0.001459
0.00109594
0.000998328
0.000902699
0.000826739
0.000792407
0.000820507
0.000907055
0.00101972
0.00110521
0.00152612
0.00308367
0.00586758
0.00955901
0.0129621
0.0145003
0.0132531
0.00969606
0.00565204
0.00279251
0.001459
0.00109594
0.000998324
0.000902699
0.000826738
0.000792404
0.000820506
0.000907055
0.00101972
0.00110521
0.00152612
0.00133196
0.00101326
0.000897842
0.000743395
0.000634108
0.000599013
0.000647218
0.000767257
0.000918713
0.00100796
0.00144734
0.00306141
0.00651527
0.0116993
0.0169022
0.0192934
0.0172722
0.0119601
0.00640846
0.00285043
0.00133196
0.00101326
0.000897844
0.000743396
0.000634106
0.000599012
0.000647217
0.000767257
0.000918715
0.00100795
0.00144735
0.00121677
0.000899335
0.000742522
0.000552065
0.000427514
0.000390775
0.000444818
0.000581661
0.000770953
0.000910885
0.00131566
0.00291744
0.00691136
0.0136641
0.0209618
0.0243724
0.02139
0.0140135
0.00691178
0.00278438
0.00121677
0.000899337
0.000742522
0.000552065
0.000427515
0.000390775
0.000444817
0.000581661
0.000770951
0.000910888
0.00131566
0.00114715
0.000819726
0.000632955
0.000427368
0.000299293
0.000260956
0.000310179
0.000445382
0.000651226
0.000834093
0.00120229
0.00277763
0.00712845
0.0151752
0.0243007
0.0285483
0.0246143
0.0154415
0.00715984
0.00271823
0.00114715
0.000819726
0.000632956
0.000427368
0.000299294
0.000260955
0.000310179
0.000445381
0.000651224
0.000834094
0.00120229
0.0011416
0.00079783
0.000599965
0.000390881
0.000260952
0.000218563
0.000260952
0.000390881
0.000599964
0.000797827
0.00114159
0.00270705
0.00721317
0.0158546
0.0257423
0.0302052
0.0257423
0.0158546
0.00721316
0.00270705
0.0011416
0.000797829
0.000599965
0.000390881
0.000260953
0.000218562
0.000260952
0.00039088
0.000599965
0.000797831
0.0011416
0.00120229
0.000834094
0.000651226
0.000445382
0.000310179
0.000260955
0.000299293
0.000427369
0.000632956
0.000819723
0.00114715
0.00271823
0.00715984
0.0154415
0.0246143
0.0285483
0.0243007
0.0151752
0.00712844
0.00277765
0.00120229
0.000834095
0.000651225
0.000445381
0.000310179
0.000260955
0.000299293
0.000427368
0.000632957
0.000819726
0.00114715
0.00131566
0.000910886
0.000770952
0.000581661
0.000444817
0.000390775
0.000427516
0.000552066
0.000742518
0.000899334
0.00121677
0.00278438
0.00691178
0.0140135
0.02139
0.0243724
0.0209618
0.0136641
0.00691135
0.00291745
0.00131566
0.000910885
0.000770951
0.000581661
0.000444817
0.000390775
0.000427515
0.000552066
0.000742521
0.000899335
0.00121677
0.00144735
0.00100796
0.000918714
0.000767258
0.000647218
0.000599013
0.000634106
0.000743393
0.000897841
0.00101326
0.00133196
0.00285044
0.00640846
0.0119601
0.0172722
0.0192934
0.0169022
0.0116993
0.00651527
0.00306142
0.00144734
0.00100795
0.000918716
0.00076726
0.000647217
0.000599012
0.000634106
0.000743395
0.000897842
0.00101326
0.00133196
0.00152613
0.00110521
0.00101972
0.000907055
0.000820506
0.000792404
0.000826737
0.000902697
0.000998326
0.00109594
0.00145901
0.00279251
0.00565202
0.00969604
0.0132531
0.0145003
0.0129621
0.00955901
0.00586759
0.00308367
0.00152612
0.00110521
0.00101972
0.000907054
0.000820506
0.000792407
0.000826739
0.0009027
0.000998325
0.00109594
0.001459
0.0012398
0.00138503
0.00127912
0.00118494
0.00113391
0.00114653
0.0012207
0.00134154
0.00148504
0.00158618
0.00108522
0.00284414
0.00534704
0.00850615
0.0111249
0.0121205
0.0111248
0.00850375
0.00533515
0.00280391
0.0012398
0.00138503
0.00127912
0.00118494
0.00113391
0.00114653
0.00122071
0.00134154
0.00148505
0.00158618
0.00108522
0.00313404
0.00588827
0.00956496
0.0129631
0.0145008
0.0132547
0.00969743
0.00563829
0.00273348
0.00311022
0.00654285
0.0117072
0.0169028
0.0192939
0.0172731
0.0119543
0.00638958
0.0028044
0.00295251
0.00693455
0.0136711
0.0209617
0.0243727
0.0213894
0.014006
0.00689372
0.00275728
0.00279487
0.00714111
0.0151788
0.0242999
0.0285483
0.0246129
0.0154358
0.0071508
0.00270607
0.0027085
0.00721484
0.0158533
0.0257411
0.030205
0.0257411
0.0158533
0.00721485
0.00270851
0.00270606
0.00715081
0.0154358
0.0246129
0.0285483
0.0242999
0.0151788
0.00714111
0.00279487
0.00275728
0.00689371
0.014006
0.0213894
0.0243727
0.0209617
0.0136711
0.00693456
0.00295252
0.0028044
0.00638956
0.0119543
0.0172731
0.0192939
0.0169028
0.0117071
0.00654284
0.00311022
0.00273348
0.0056383
0.00969743
0.0132547
0.0145008
0.012963
0.00956494
0.00588827
0.00313404
0.0028039
0.00533514
0.00850373
0.0111248
0.0121205
0.0111249
0.00850616
0.00534704
0.00284415
0.00308366
0.00586758
0.00955904
0.0129621
0.0145003
0.0132531
0.00969604
0.00565203
0.00279252
0.00306141
0.00651527
0.0116993
0.0169021
0.0192934
0.0172722
0.0119601
0.00640847
0.00285044
0.00291744
0.00691136
0.0136641
0.0209618
0.0243724
0.02139
0.0140135
0.00691179
0.00278438
0.00277764
0.00712845
0.0151752
0.0243007
0.0285483
0.0246143
0.0154415
0.00715984
0.00271822
0.00270704
0.00721317
0.0158546
0.0257423
0.0302053
0.0257423
0.0158546
0.00721317
0.00270704
0.00271823
0.00715984
0.0154415
0.0246143
0.0285483
0.0243007
0.0151752
0.00712844
0.00277764
0.00278438
0.00691178
0.0140135
0.02139
0.0243724
0.0209618
0.0136641
0.00691136
0.00291745
0.00285043
0.00640846
0.0119601
0.0172722
0.0192934
0.0169021
0.0116993
0.00651526
0.00306141
0.00279251
0.00565204
0.00969606
0.0132531
0.0145003
0.0129621
0.00955902
0.00586758
0.00308367
