# vtk DataFile Version 4.2
vtk output
ASCII
DATASET POLYDATA
POINTS 2562 float
-0.479644 5.0492 -0.503215
-0.497381 5.06938 -0.484306
-0.473509 5.08211 -0.502881
-0.512124 5.08843 -0.466266
-0.490167 5.10264 -0.483678
-0.466064 5.11776 -0.500516
-0.537511 5.12547 -0.428953
-0.517485 5.14172 -0.445229
-0.525192 5.10703 -0.448122
-0.49589 5.15909 -0.460412
-0.50456 5.12252 -0.464624
-0.446121 5.19674 -0.488195
-0.456977 5.15616 -0.495763
-0.47229 5.17757 -0.474643
-0.481895 5.1391 -0.480489
-0.586431 5.1938 -0.331562
-0.566584 5.21576 -0.348378
-0.574216 5.17809 -0.359397
-0.545246 5.23652 -0.364631
-0.554702 5.19868 -0.375472
-0.561877 5.16135 -0.384899
-0.498498 5.2775 -0.392794
-0.511268 5.23848 -0.405024
-0.522526 5.25685 -0.379657
-0.521716 5.19978 -0.415356
-0.533592 5.21864 -0.390957
-0.549635 5.14369 -0.408036
-0.530314 5.16185 -0.423449
-0.542476 5.18048 -0.400688
-0.383396 5.36561 -0.426137
-0.402795 5.32335 -0.446436
-0.416347 5.34402 -0.419227
-0.419264 5.28094 -0.463564
-0.433433 5.30257 -0.43749
-0.44591 5.32143 -0.412126
-0.460791 5.21972 -0.465128
-0.433587 5.23854 -0.477522
-0.474129 5.24052 -0.441818
-0.448116 5.26076 -0.452958
-0.473052 5.29905 -0.403578
-0.486618 5.25967 -0.417812
-0.461227 5.28086 -0.42827
-0.509018 5.17981 -0.438695
-0.49879 5.21961 -0.42943
-0.485871 5.19922 -0.452619
-0.609128 5.3482 0.0197261
-0.587572 5.3827 -0.00407989
-0.625003 5.31847 -0.0412017
-0.561807 5.41615 -0.0298125
-0.602063 5.35462 -0.0615705
-0.631331 5.29335 -0.0977602
-0.501102 5.475 -0.080634
-0.546256 5.42046 -0.107047
-0.53256 5.44723 -0.0560141
-0.582409 5.36377 -0.13434
-0.57536 5.38926 -0.0841665
-0.625721 5.25441 -0.1941
-0.630779 5.27234 -0.148846
-0.608748 5.30779 -0.163433
-0.608415 5.32966 -0.115355
-0.375169 5.55591 -0.134504
-0.421348 5.51339 -0.173717
-0.405601 5.53888 -0.128596
-0.463455 5.46695 -0.205878
-0.452021 5.49406 -0.163616
-0.436808 5.52021 -0.117756
-0.529415 5.3711 -0.254035
-0.527948 5.39627 -0.216667
-0.499727 5.419 -0.231965
-0.523111 5.42238 -0.175464
-0.493508 5.44554 -0.192511
-0.468802 5.49917 -0.101614
-0.514295 5.44894 -0.130088
-0.483242 5.47275 -0.148771
-0.597986 5.20871 -0.301623
-0.580038 5.23579 -0.312742
-0.608554 5.22336 -0.269414
-0.589764 5.25239 -0.281087
-0.569044 5.27926 -0.293488
-0.604594 5.28762 -0.208289
-0.617934 5.23841 -0.233958
-0.581267 5.318 -0.223584
-0.598134 5.26962 -0.246326
-0.552429 5.32436 -0.274126
-0.556115 5.34562 -0.239218
-0.576073 5.29829 -0.260107
-0.553471 5.39486 -0.155524
-0.556458 5.36967 -0.199737
-0.583716 5.34014 -0.181446
-0.100712 5.61981 -0.19141
-0.143793 5.60166 -0.226974
-0.142633 5.62384 -0.168354
-0.18594 5.57913 -0.260351
-0.182808 5.6038 -0.205762
-0.18129 5.62294 -0.151098
-0.266231 5.52052 -0.322656
-0.262548 5.54911 -0.276681
-0.227025 5.55208 -0.29218
-0.258584 5.57327 -0.23031
-0.223258 5.5788 -0.242052
-0.251286 5.60956 -0.13563
-0.217355 5.61791 -0.140401
-0.254954 5.59328 -0.183338
-0.220008 5.60074 -0.191146
-0.39138 5.39398 -0.393332
-0.360644 5.40707 -0.403496
-0.39613 5.41967 -0.361534
-0.366339 5.43496 -0.368772
-0.33379 5.44705 -0.378558
-0.397276 5.46778 -0.296695
-0.367246 5.48524 -0.300231
-0.397799 5.44408 -0.329779
-0.335563 5.50092 -0.304111
-0.368159 5.46094 -0.334592
-0.302193 5.48521 -0.351541
-0.301996 5.51319 -0.310842
-0.336198 5.47535 -0.341095
-0.345015 5.57141 -0.136368
-0.384636 5.5351 -0.180121
-0.314656 5.58574 -0.135837
-0.354156 5.55186 -0.181509
-0.39113 5.51323 -0.222404
-0.290238 5.58148 -0.180893
-0.283555 5.59862 -0.134843
-0.328435 5.54758 -0.223751
-0.322528 5.56767 -0.181042
-0.395104 5.49078 -0.261134
-0.364533 5.5091 -0.262695
-0.360405 5.53094 -0.223816
-0.298266 5.53941 -0.268565
-0.332433 5.52546 -0.264803
-0.294285 5.56218 -0.225174
-0.557984 5.25803 -0.330409
-0.5253 5.34654 -0.29324
-0.518556 5.32307 -0.328808
-0.544432 5.30177 -0.311998
-0.509453 5.30036 -0.361746
-0.534229 5.27941 -0.347166
-0.427705 5.49039 -0.217147
-0.432487 5.44348 -0.29289
-0.466036 5.41936 -0.284711
-0.431228 5.46683 -0.257058
-0.498303 5.3955 -0.271555
-0.466213 5.44284 -0.247377
-0.424157 5.3703 -0.388662
-0.481869 5.3233 -0.374127
-0.460054 5.37019 -0.352743
-0.454212 5.34625 -0.382658
-0.431909 5.41866 -0.327464
-0.429362 5.39492 -0.358232
-0.495531 5.37041 -0.308619
-0.464242 5.39446 -0.320201
-0.490001 5.34626 -0.342674
-0.455494 5.04709 -0.523289
-0.449998 5.08118 -0.521898
-0.4288 5.04325 -0.543428
-0.43284 5.1587 -0.513403
-0.415875 5.11761 -0.537857
-0.442441 5.1187 -0.518789
-0.366456 5.02848 -0.583389
-0.399165 5.03707 -0.563595
-0.394022 5.07379 -0.561403
-0.423478 5.07863 -0.541551
-0.372241 5.33317 -0.460518
-0.357672 5.29577 -0.495471
-0.390398 5.28994 -0.478555
-0.319498 5.20437 -0.562245
-0.357491 5.20701 -0.542258
-0.340051 5.25281 -0.529867
-0.390969 5.20636 -0.522973
-0.37529 5.251 -0.511028
-0.42029 5.20273 -0.504945
-0.40645 5.24594 -0.493483
-0.20931 4.98306 -0.646297
-0.2521 4.99473 -0.633955
-0.24089 5.03777 -0.63375
-0.292654 5.00659 -0.619113
-0.283314 5.04814 -0.618514
-0.269868 5.09502 -0.615284
-0.359531 5.06672 -0.582046
-0.330846 5.01806 -0.602097
-0.349279 5.10974 -0.578645
-0.323215 5.05799 -0.600953
-0.296065 5.15137 -0.591156
-0.335732 5.15616 -0.5723
-0.311405 5.10327 -0.597642
-0.404671 5.16085 -0.532055
-0.37223 5.16007 -0.551982
-0.384632 5.11496 -0.558127
-0.0846598 5.60116 -0.239942
-0.0697255 5.57764 -0.288366
-0.13 5.58196 -0.272713
-0.0406061 5.51719 -0.38132
-0.103461 5.52793 -0.365291
-0.0554098 5.54948 -0.33587
-0.161999 5.53295 -0.347543
-0.116847 5.55712 -0.319549
-0.216206 5.53084 -0.332119
-0.17433 5.55837 -0.303489
0.0502728 5.35387 -0.526906
-0.0195428 5.37196 -0.523487
0.0216867 5.40016 -0.496469
-0.0853465 5.38624 -0.513909
-0.04642 5.41548 -0.489999
-0.00328489 5.44244 -0.462064
-0.204086 5.40336 -0.481542
-0.169591 5.43591 -0.460527
-0.14685 5.39701 -0.499273
-0.131135 5.4657 -0.437422
-0.110486 5.42764 -0.477328
-0.0237934 5.48141 -0.423577
-0.0880065 5.49286 -0.411382
-0.0695127 5.45598 -0.452268
-0.346252 5.38411 -0.435165
-0.320906 5.42421 -0.412014
-0.304088 5.39727 -0.447535
-0.256609 5.4976 -0.360924
-0.243656 5.47046 -0.40084
-0.290978 5.4625 -0.386946
-0.256661 5.40378 -0.463423
-0.226222 5.43904 -0.441495
-0.275883 5.43527 -0.424829
-0.148483 5.50142 -0.393318
-0.189768 5.47154 -0.418594
-0.204961 5.5035 -0.375112
0.19141 4.89929 -0.619811
0.138704 4.91419 -0.637973
0.184836 4.95401 -0.623834
0.0857113 4.92645 -0.651262
0.130089 4.96812 -0.640716
0.177361 5.01092 -0.623157
-0.0192643 4.94526 -0.664572
0.0198923 4.98939 -0.660461
0.0328085 4.93657 -0.660053
0.0631665 5.03622 -0.649955
0.0745373 4.97987 -0.652952
0.152296 5.1301 -0.608435
0.166983 5.06992 -0.618021
0.108096 5.08367 -0.632506
0.120364 5.02515 -0.638942
-0.185919 5.02548 -0.648546
-0.164566 4.97225 -0.655695
-0.157065 5.07373 -0.646966
-0.138203 5.01603 -0.657171
-0.118075 4.96242 -0.662042
-0.0890238 5.17573 -0.627565
-0.0700096 5.11589 -0.645537
-0.124146 5.12472 -0.640149
-0.052617 5.05603 -0.657476
-0.105861 5.06515 -0.654199
-0.0696657 4.95358 -0.665104
-0.0361526 4.99864 -0.663574
-0.0878723 5.00703 -0.662324
0.0801117 5.30319 -0.553396
0.0155536 5.31412 -0.55877
0.108243 5.2483 -0.575935
0.0437976 5.26164 -0.583632
-0.0187004 5.27122 -0.586254
0.0904877 5.14591 -0.620771
0.132649 5.19004 -0.594392
0.0291309 5.15831 -0.62798
0.0694436 5.20469 -0.604573
-0.0535209 5.22494 -0.609383
-0.0309239 5.1681 -0.630143
0.00671934 5.21625 -0.609503
0.00457742 5.04681 -0.656182
-0.0121698 5.10739 -0.646122
0.0478069 5.0968 -0.641824
-0.332691 5.34777 -0.473408
-0.236817 5.35909 -0.50692
-0.266751 5.31041 -0.529542
-0.287239 5.35676 -0.489222
-0.294399 5.25823 -0.548306
-0.315069 5.30561 -0.511923
-0.0527961 5.33156 -0.552996
-0.118447 5.24043 -0.600041
-0.148802 5.30028 -0.565796
-0.085633 5.28745 -0.578759
-0.178079 5.35466 -0.525861
-0.117864 5.34517 -0.541542
-0.215573 5.08502 -0.633251
-0.269537 5.20252 -0.583099
-0.213905 5.19693 -0.601941
-0.243664 5.14551 -0.611043
-0.153455 5.18779 -0.617221
-0.185678 5.13644 -0.62792
-0.210394 5.30805 -0.548798
-0.181834 5.25026 -0.586344
-0.241215 5.2565 -0.568347
-0.469605 5.01707 -0.515218
-0.442641 5.01322 -0.536481
-0.455672 4.9851 -0.527848
-0.380243 4.99833 -0.577942
-0.391916 4.97172 -0.571718
-0.412663 5.00701 -0.557667
-0.413043 4.91691 -0.555553
-0.436925 4.95194 -0.54149
-0.402598 4.94563 -0.564496
-0.425035 4.97948 -0.55035
-0.226513 4.94797 -0.642086
-0.237911 4.91956 -0.637585
-0.266797 4.9608 -0.629887
-0.251209 4.87483 -0.628809
-0.284705 4.91017 -0.621043
-0.245378 4.89615 -0.633292
-0.315892 4.94712 -0.610549
-0.277149 4.93324 -0.625466
-0.343383 4.98652 -0.597909
-0.306139 4.97403 -0.61498
-0.288272 4.76222 -0.58751
-0.320746 4.80294 -0.585845
-0.27549 4.79674 -0.603707
-0.353395 4.84212 -0.579183
-0.309197 4.83545 -0.599432
-0.265254 4.8269 -0.615212
-0.373728 4.90908 -0.578972
-0.384725 4.88021 -0.568643
-0.333012 4.89913 -0.599171
-0.342702 4.87305 -0.590753
-0.257425 4.85254 -0.623154
-0.291851 4.88742 -0.615795
-0.299655 4.86356 -0.609058
-0.354776 4.96028 -0.592365
-0.324679 4.92328 -0.605358
-0.364535 4.93549 -0.586272
0.168354 4.85737 -0.623843
0.151098 4.81871 -0.622941
0.117401 4.87167 -0.640268
0.135624 4.74872 -0.60956
0.091705 4.79663 -0.633214
0.140401 4.78265 -0.617907
0.0510563 4.84475 -0.649648
0.101315 4.83235 -0.638424
0.0144197 4.89381 -0.659861
0.0655281 4.88364 -0.652287
0.134504 4.62483 -0.55591
0.0885402 4.67312 -0.591607
0.136368 4.65499 -0.57141
0.0387588 4.72074 -0.619151
0.0878841 4.70203 -0.604165
0.135837 4.68535 -0.585741
-0.0574878 4.80715 -0.649184
-0.0107558 4.79162 -0.644958
-0.0108496 4.7655 -0.637964
0.0378547 4.77669 -0.637028
0.0374002 4.74822 -0.628739
0.134843 4.71645 -0.598617
0.0871172 4.76237 -0.625177
0.0867404 4.73167 -0.615467
-0.175513 4.93323 -0.653371
-0.131695 4.9221 -0.659688
-0.13939 4.88837 -0.656049
-0.037852 4.90305 -0.663436
-0.0503059 4.86635 -0.659794
-0.0856245 4.91213 -0.663162
-0.100296 4.84724 -0.654823
-0.056447 4.83482 -0.654836
[...]
POINT_DATA 2562
SCALARS CoVolArea float 1
LOOKUP_TABLE default
0.00100706
0.00111229
0.00125791
0.00104865
0.00117964
0.00134433
0.0010772
0.00115789
0.00102965
0.00125695
0.00113299
0.00157143
0.00143963
0.00139241
0.00126807
0.00150206
0.00155782
0.00129012
0.00155402
0.00131332
0.00120358
0.00157366
0.00136404
0.00154251
0.00129618
0.00132521
0.0011213
0.00119809
0.00123905
0.00208269
0.0018444
0.0018667
0.00175189
0.00161399
0.00168553
0.00148484
0.00164923
0.00142768
0.00153993
0.00158471
0.00140306
0.00146311
0.00129539
0.00137836
0.00138751
0.0033093
0.00405822
0.00374058
0.00398487
0.00371029
0.00333969
0.00351133
0.0034135
0.00375765
0.00315934
0.00357181
0.00245743
0.00286171
0.00279719
0.00323539
0.00228858
0.00247641
0.00239197
0.00249606
0.00250709
0.00272756
0.00226654
0.00236976
0.0023949
0.002742
0.00247618
0.00308947
0.00313634
0.00278072
0.00154763
0.00169438
0.00175731
0.00171873
0.00186018
0.00235932
0.00204054
0.00226517
0.00196776
0.00203851
0.00216399
0.00191285
0.00304683
0.00259264
0.00275098
0.00286165
0.0032287
0.00305376
0.00299578
0.00282995
0.0026775
0.00259503
0.00246442
0.00276356
0.00237393
0.00262052
0.00217897
0.00236144
0.00228371
0.00249606
0.00196121
0.0020552
0.00186781
0.00189912
0.0021951
0.00195233
0.00183762
0.00185177
0.00200902
0.00181433
0.00235641
0.00226538
0.00204432
0.00199651
0.00228722
0.00196547
0.00198358
0.00217538
0.00211624
0.00201166
0.00201826
0.00199145
0.00203982
0.00188938
0.00193078
0.00225142
0.00204635
0.00221012
0.00185177
0.00221793
0.0019835
0.00199568
0.00182742
0.00181444
0.00253884
0.00218291
0.00226826
0.0023287
0.00238856
0.00247099
0.00195226
0.00182104
0.00191544
0.00182328
0.00203445
0.00192358
0.00219692
0.00212078
0.00199481
0.00132195
0.00142423
0.00146297
0.0017046
0.00182077
0.00153918
0.0018059
0.00160969
0.00187398
0.00161259
0.00240459
0.00267154
0.00204772
0.00319302
0.00250466
0.00292119
0.0021572
0.00226055
0.00183739
0.00192908
0.00260722
0.00226829
0.00308761
0.00211485
0.00255767
0.0032921
0.00212073
0.00194487
0.00241767
0.00232646
0.00328032
0.0026587
0.00266836
0.00204982
0.0023842
0.00216822
0.00362243
0.00380453
0.00342452
0.00408548
0.0038052
0.00392744
0.00345243
0.00360062
0.00302934
0.00319037
0.00458737
0.00440451
0.00416841
0.00413269
0.00388826
0.00411461
0.00369645
0.00345457
0.00388304
0.00365146
0.00363839
0.00406792
0.00387699
0.00383896
0.00253524
0.0024228
0.00295915
0.00281763
0.00302219
0.00257555
0.00332994
0.00318118
0.00279639
0.00368229
0.00345057
0.00331826
0.00286163
0.00336123
0.00371817
0.0032664
0.00369246
0.004016
0.00307458
0.00357852
0.00314607
0.00400268
0.0036011
0.0045103
0.00425114
0.00431691
0.00398604
0.0033072
0.0025932
0.00383818
0.00315943
0.00274994
0.00446892
0.00400672
0.00418674
0.00381504
0.00361776
0.00288773
0.00347708
0.00329416
0.00442329
0.00458661
0.00453423
0.00433592
0.00454802
0.00447369
0.00453276
0.00436933
0.00442449
0.00449669
0.00421154
0.00425977
0.00402452
0.0042503
0.0043656
0.00310933
0.00403815
0.00395736
0.00355851
0.0037815
0.00340852
0.0047705
0.00484024
0.00461188
0.00475569
0.00433874
0.00449747
0.00396084
0.00400261
0.00441977
0.00402347
0.00472792
0.00437359
0.00446618
0.00472331
0.00436718
0.00125881
0.00137284
0.00137353
0.00158086
0.00148595
0.00146143
0.00178998
0.00154324
0.00157166
0.00143413
0.00210578
0.00165481
0.00180423
0.00142039
0.00133306
0.0014039
0.00148155
0.00146015
0.00166563
0.00171841
0.00262976
0.00229926
0.00238099
0.00215926
0.00196927
0.00197657
0.00170718
0.00197457
0.00155938
0.00182245
0.00161111
0.00140105
0.00162592
0.00152694
0.00145095
0.0015451
0.00305376
0.00267748
0.00296502
0.00217891
0.00233468
0.0023615
0.00253767
0.00259804
0.00278057
0.00286289
0.0022886
0.00216464
0.00199654
0.00191395
0.00188738
0.00196544
0.00162488
0.0017201
0.00169628
0.00194636
0.00176202
0.00201158
0.00210751
0.0019275
0.00224732
0.00220796
0.00188705
0.00261092
0.00214971
0.00237712
0.00165684
0.00175776
0.00190048
0.00226273
0.00204626
0.00243062
0.00330928
0.0041016
0.00405825
0.0041173
0.00420805
0.00398491
0.00374142
0.0040618
0.00396208
0.00414075
0.0041807
0.00351134
0.00375766
0.00392494
0.00410424
0.00265513
0.00266066
0.00266902
0.00276802
0.00295705
0.00269722
0.0029963
0.00267807
0.00343847
0.0028857
0.00331064
0.00369921
0.00318366
0.00239195
0.00241263
0.0027276
0.00257276
0.00249846
0.00353924
0.00308948
0.00334328
0.00301339
0.00258347
0.00295178
0.00275917
0.00398463
0.00356707
0.00392267
0.00193094
0.00158824
0.00148466
0.00165039
0.0014944
0.00156363
0.00231546
0.00236071
0.00187319
0.00228686
0.00168888
0.00192824
0.00250771
0.00166658
0.00193509
0.0020169
0.00241215
0.00242421
0.00162698
0.00192836
0.00162527
0.00113603
0.00125926
0.00111367
0.00179349
0.00167712
0.001471
0.00129125
0.00115539
0.00149801
0.00132279
0.00284091
0.00298841
0.00246479
0.0032231
0.00266763
0.00310594
0.00240216
0.00258291
0.00209632
0.00230431
0.00224513
0.00187625
0.00270176
0.00165423
0.00217112
0.00297627
0.0017071
0.00144112
0.00218464
0.00191982
0.0031266
0.00260729
0.00240436
0.00211483
0.00240427
0.00196737
0.0038168
0.00351985
0.00389102
0.00279057
0.00308338
0.00312795
0.00345908
0.00349513
0.00370215
0.00382839
0.0027138
0.0025236
0.00235188
0.00243771
0.00218298
0.00232021
0.00275136
0.0024301
0.00251841
0.00250742
0.0022136
0.00245373
0.00264123
0.00228761
0.00293264
0.00279878
0.0029974
0.00340596
0.00300474
0.00303252
0.00289306
0.00265314
0.00277311
0.00302705
0.00284316
0.00333715
0.00187705
0.00230609
0.0024603
0.00235657
0.0026381
0.00278638
0.00250784
0.00292395
0.00241003
0.00318921
0.00275871
0.0033236
0.00308607
0.0033033
0.00298741
0.00293492
0.00227658
0.00343219
0.00281485
0.00241287
0.00366545
0.00340275
0.00365927
0.00330867
0.00319915
0.00247315
0.00298432
0.0029098
0.00280241
0.00279235
0.00308535
0.00286953
0.00301904
0.00335409
0.00325769
0.00333959
0.00314152
0.00333533
0.00331975
0.00305425
0.00337325
0.00350641
0.00347569
0.00331304
0.00329475
0.00358174
0.00332846
0.00370667
0.00345208
0.00293765
0.00379326
0.00342566
0.00329232
0.00312919
0.00292971
0.00357409
0.00382321
0.00398912
0.00372748
0.00406051
0.00393222
0.00363869
0.00394583
0.00393732
0.00102976
0.00103822
0.000948075
0.000995732
0.000983178
0.000970562
0.00172693
0.00127242
0.00138412
0.000984864
0.000906861
0.00102085
0.000982814
0.00104336
0.00111585
0.00122264
0.00140009
0.00115884
0.00122739
0.00102165
0.00096609
0.0010722
0.0010602
0.000917455
0.00101407
0.000971376
0.000930634
0.000959961
0.00216075
0.00215423
0.00208373
0.00241198
0.00182576
0.00223288
0.00174479
0.00189873
0.00205763
0.00202462
0.0027972
0.00212977
0.00255825
0.00152174
0.00184617
0.00255074
0.00110599
0.00111192
0.0011586
0.00135869
0.00131544
0.00249024
0.00179841
0.00179651
0.00191135
0.0018861
0.00155324
0.00205677
0.00158981
0.00198006
0.00125131
0.00121433
0.00149974
0.0015315
0.00134027
0.00168944
0.00366906
0.00342448
0.00336824
0.00266039
0.00285107
0.00304639
0.00304646
0.00313341
0.00296484
0.00314348
0.00154593
0.00155853
0.00159073
0.00163041
0.00175401
0.00156817
0.00201298
0.00165002
0.00224209
0.00184842
0.00270539
0.00230027
0.00282131
0.00230708
0.001931
0.00275952
0.00290785
0.00232184
0.00250767
0.00170476
0.00186374
0.00201749
0.00249082
0.00220579
0.00266419
0.00157626
0.00117097
0.00111895
0.00131304
0.00109094
0.00120643
0.00188262
0.00151049
0.00126957
0.00159997
0.00117164
0.00138409
0.00151402
0.00114472
0.00127441
0.00129448
0.00149294
0.00148211
0.0011495
0.00128308
0.00115074
0.00362242
0.0039697
0.00380456
0.00455734
0.00449594
0.00424003
0.00408553
0.00392745
0.00433652
0.00412794
0.00509882
0.00542767
0.00470503
0.00572492
0.00501253
0.00559988
0.0048779
0.00488043
0.00471856
0.00470854
0.00458741
0.00416838
0.00499516
0.00411456
0.00443926
0.00529433
0.00441919
0.00406791
0.00470826
0.00438824
0.00551839
0.00494711
0.00469108
0.00484938
0.00496684
0.00474497
0.00371821
0.004016
0.00396973
0.0045103
0.00455734
0.00425112
0.00449592
0.00423998
0.00433651
0.00412792
0.00458745
0.00509886
0.0044233
0.00542768
0.00470504
0.0045342
0.00572493
0.00501254
0.0055999
0.00487793
0.00488041
0.00453278
0.00471856
0.00470856
0.00499515
0.0044392
0.00529436
0.00441921
0.00470822
0.00438825
0.00551839
0.00494708
0.00469101
0.00484937
0.00496685
0.00474491
0.00286162
0.0037182
0.00362244
0.00401598
0.00396976
0.00380452
0.00451031
0.00455736
0.00425113
0.00449589
0.00424002
0.00408547
0.00392743
0.0043365
0.00412788
0.00509884
0.00442328
0.00542773
0.00470503
0.00453418
0.00572492
0.00501251
0.00559985
0.00487793
0.00488048
0.00453275
0.00471853
0.00470856
0.00416837
0.00499513
0.00411455
0.00443915
0.00529432
0.00441917
0.00406788
0.00470823
0.00438824
0.00551846
0.0049471
0.00469102
0.00484936
0.00496679
0.0047449
0.00592357
0.00656831
0.00669808
0.00621689
0.00658778
0.00625966
0.00592356
0.00656827
0.00669802
0.00621686
0.00658783
0.00625966
0.00592356
0.00656824
0.00669804
0.00621682
0.00658775
0.00625963
0.00704336
0.00704334
0.0070434
0.00336126
0.00296502
0.00326639
0.00233474
0.00253767
0.00259805
0.00307456
0.00314605
0.00278051
0.0028629
0.00216462
0.00191393
0.00188738
0.00162489
0.00172012
0.00169627
0.00194635
0.00176204
0.00210762
0.00192753
0.00260722
0.00259318
0.00224733
0.00274994
0.00220797
0.00188706
0.00261088
0.00288775
0.00214969
0.00237713
0.00165687
0.00175779
0.00190047
0.00226273
0.00204625
0.00243062
0.00410159
0.00411729
0.00420802
0.00374143
0.00406186
0.00396208
0.00414076
0.0041807
0.00392494
0.00410422
0.00262977
0.00265514
0.00266068
0.00266901
0.00276801
0.00295705
0.00269719
0.00299629
0.00267805
0.00343842
0.0028857
0.00331067
0.0036992
0.00318365
0.00241261
0.00257277
0.00249849
0.00353928
0.00334328
0.00301338
0.00258349
0.00295178
0.00275916
0.00398463
0.00356703
0.0039227
0.00100704
0.00132195
0.00125882
0.00146297
0.00137288
0.00137356
0.00180592
0.00158086
0.00160972
0.00148593
0.00146145
0.00178986
0.00154325
0.00157169
0.0014341
0.00210579
0.00226829
0.0016548
0.00180422
0.00211486
0.00142037
0.00133306
0.0014039
0.00148153
0.00146016
0.0019449
0.00166562
0.00171843
0.0022993
0.00238095
0.00215938
0.00196926
0.00197656
0.0017072
0.00197455
0.00155941
0.00182255
0.00161114
0.00140107
0.00162593
0.0015269
0.00145095
0.00154512
0.00231545
0.00236071
0.00187316
0.00228686
0.00168885
0.0019282
0.00250769
0.0016666
0.0019351
0.0020169
0.00241212
0.00242419
0.00193093
0.00158823
0.00148467
0.0016504
0.00149439
0.00156364
0.00192836
0.00162527
0.00162697
0.00381682
0.0035192
0.00351984
0.00320984
0.00318261
0.00327562
0.00279058
0.003128
0.00301489
0.00326327
0.00359017
0.00398497
0.00320681
0.00386559
0.00343228
0.00401193
0.00333429
0.0034277
0.00320318
0.00317923
0.0027138
0.00235188
0.00297619
0.00232019
0.00253919
0.00321062
0.00275389
0.00245373
0.00290127
0.00254727
0.00349088
0.00318114
0.00281114
0.00328289
0.00326711
0.00309595
0.00219712
0.00231579
0.00234384
0.00305583
0.00344102
0.00259733
0.0034612
0.00276484
0.0030695
0.00263344
0.00365993
0.00465538
0.00367895
0.00568404
0.00452313
0.00368242
0.00635514
0.00568802
0.00630838
0.00506914
0.00529189
0.00341174
0.00406873
0.0044253
0.00367787
0.00341942
0.00463391
0.00338575
0.00446121
0.00345711
0.00558095
0.00532393
0.00439131
0.00446202
0.00519721
0.00419443
0.00187706
0.00246031
0.00220847
0.00278633
0.00247307
0.00215496
0.00332363
0.00321218
0.00308608
0.00289646
0.00281156
0.0021841
0.00211476
0.00251153
0.00244596
0.00323337
0.00280241
0.00373437
0.00320117
0.00308535
0.00441158
0.00371205
0.00411596
0.00354875
0.00352403
0.00325771
0.00342027
0.00336352
0.00298955
0.00408337
0.00257688
0.00312662
0.00429802
0.00260169
0.00228777
0.00312437
0.00275586
0.00439153
0.00362833
0.0033521
0.00337959
0.00350102
0.00304683
0.00468975
0.00648581
0.00560577
0.00554182
0.00480029
0.00486846
0.00555328
0.00543886
0.0062174
0.00558425
0.00688768
0.00645756
0.00378921
0.00445741
0.00478204
0.00402793
0.0049934
0.00434921
0.00631724
0.00569938
0.00538751
0.0022084
0.00247308
0.00215495
0.00321214
0.00289644
0.00281159
0.0021841
0.00211473
0.00251152
0.00244597
0.00323334
0.00373442
0.00320119
0.00441153
0.00371206
0.00411597
0.00354877
0.00352403
0.0034202
0.00336349
0.00365996
0.00298953
0.00408333
0.00257692
0.0031266
0.004298
0.00260166
0.00228777
0.00312436
0.00275586
0.00439157
0.00362832
0.0033521
0.00337958
0.00350109
0.00304683
0.00366906
0.0033682
0.00351921
0.00304646
0.00320984
0.00313341
0.00318256
0.00327557
0.00301485
0.00326321
0.0027972
0.0035902
0.00270544
0.00398494
0.00320687
0.00282132
0.00386563
0.00343234
0.00401193
0.00333434
0.00342773
0.00290782
0.00320314
0.00317924
0.00297614
0.00253919
0.0032106
0.00275392
0.00290125
0.00254726
0.00349091
0.00318114
0.00281111
0.00328282
0.00326716
0.00309591
0.00187705
0.00219716
0.00216076
0.00231578
0.00234385
0.0021542
0.00305584
0.00344099
0.00259732
0.00346116
0.00276481
0.00241203
0.00223288
0.0030695
0.00263338
0.00465539
0.00367894
0.00568408
0.00452308
0.00368238
0.00635517
0.00568802
0.00630844
0.00506911
0.00529185
0.00341175
0.00406872
0.0044253
0.00255827
0.00367784
0.0025507
0.00341942
0.0046339
0.00338579
0.00249029
0.00446119
0.00345711
0.00558095
0.00532396
0.00439131
0.00446196
0.0051972
0.00419443
0.00378924
0.00445744
0.00478204
0.00402793
0.00499334
0.00434925
0.00468976
0.0064854
0.005606
0.00554181
0.00480035
0.00486845
0.00555327
0.00543887
0.00621724
0.00558426
0.00688713
0.00645758
0.00538804
0.00631723
0.00569969
0.00374056
0.00371035
0.00333969
0.00341349
0.00315937
0.0035718
0.00245744
0.00286172
0.00279721
0.00323542
0.00247642
0.00249609
0.00250709
0.00226653
0.00236978
0.00239491
0.00274199
0.00247619
0.00313631
0.00278073
0.00150202
0.00154762
0.00169439
0.00175729
0.00171873
0.00186019
0.00235932
0.00204054
0.00226516
0.00196776
0.00203851
0.00216398
0.00191284
0.00304682
0.00259266
0.00275099
0.00322869
0.0029958
0.00282994
0.00259502
0.00246447
0.00276354
0.00237394
0.00262054
0.00228378
0.00249609
0.00208267
0.00196121
0.00205516
0.00186778
0.0018991
0.00219511
0.00195231
0.00183759
0.00185172
0.00200903
0.00181431
0.00235643
0.00226542
0.00204431
0.00228722
0.00198357
0.00217536
0.00211628
0.00201827
0.00199147
0.00203981
0.00188936
0.00193079
0.00225145
0.00204636
0.00221008
0.00100705
0.00111228
0.00125789
0.00104864
0.00117962
0.00134434
0.0010772
0.00115792
0.00102966
0.00125694
0.00113301
0.00157144
0.00143963
0.00139241
0.00126807
0.00155781
0.00129012
0.00155403
0.00131333
0.0012036
0.00157366
0.00136404
0.0015425
0.00129618
0.00132522
0.00112132
0.0011981
0.00123906
0.00184439
0.00186669
0.0017519
0.001614
0.00168554
0.00148486
0.00164925
0.00142767
0.00153996
0.00158469
0.00140306
0.00146312
0.00129538
0.00137838
0.0013875
0.00253886
0.00218289
0.00226829
0.00232868
0.00238857
0.00247103
0.00195227
0.00182104
0.00191545
0.00182328
0.00203442
0.00192356
0.00185178
0.00221793
0.0019835
0.00199571
0.00182743
0.00181445
0.00212078
0.00199485
0.00219693
0.00330925
0.00405828
0.00374058
0.00398491
0.00371039
0.00333972
0.00351135
0.00341351
0.00375766
0.00315935
0.00357181
0.00245747
0.00286173
0.00279721
0.00323539
0.00228861
0.00247609
0.00239199
0.0024959
0.00250708
0.00272765
0.00226655
0.00236978
0.00239497
0.00274198
0.00247619
0.00308948
0.00313633
0.00278073
0.00150204
0.00154764
0.00169442
0.00175728
0.00171874
0.00186019
0.00235931
0.00204053
0.00226513
0.00196775
0.00203851
0.00216398
0.00191285
0.00304683
0.00259262
0.00275099
0.00322868
0.00305376
0.00299581
0.00282995
0.00267753
0.00259504
0.00246443
0.00276354
0.00237391
0.00262053
0.002179
0.00236144
0.00228372
0.00249606
0.0020827
0.00196119
0.00205519
0.00186782
0.0018991
0.0021951
0.00195231
0.00183764
0.00185175
0.00200902
0.00181433
0.0023564
0.00226538
0.00204429
0.00199649
0.00228705
0.00196545
0.00198354
0.00217556
0.00211625
0.00201167
0.00201825
0.00199145
0.00203981
0.00188939
0.00193078
0.00225143
0.00204639
0.0022101
0.00111227
0.00125789
0.00104862
0.00117963
0.00134433
0.0010772
0.00115793
0.00102965
0.00125695
0.001133
0.00157142
0.00143963
0.0013924
0.00126807
0.0015578
0.00129012
0.00155402
0.00131333
0.0012036
0.00157366
0.00136403
0.00154253
0.00129619
0.00132523
0.0011213
0.00119809
0.00123906
0.00184441
0.00186671
0.00175191
0.00161399
0.00168551
0.00148486
0.00164925
0.0014277
0.00153995
0.00158473
0.00140308
0.0014631
0.00129539
0.00137837
0.00138752
0.00253883
0.0021829
0.00226824
0.00232896
0.00238857
0.00247109
0.00195227
0.00182104
0.00191543
0.0018233
0.0020344
0.00192357
0.00185176
0.00221793
0.00198349
0.00199571
0.00182742
0.00181444
0.00212076
0.00199481
0.00219691
0.00366905
0.00342445
0.00336819
0.00266043
0.00285111
0.00304638
0.00304646
0.00313338
0.00296484
0.00314342
0.00154596
0.00155855
0.00159074
0.00163045
0.00175401
0.00156831
0.002013
0.00165003
0.00224207
0.00184842
0.00279716
0.00270542
0.00230025
0.00282128
0.00230704
0.00193098
0.00275946
0.00290782
0.00232181
0.00250765
0.00170474
0.00186374
0.00201747
0.00249085
0.00220576
0.0026642
0.00113607
0.00111367
0.00102975
0.00129127
0.00103821
0.00115537
0.000948086
0.000995722
0.000983196
0.00097056
0.00224512
0.00172689
0.00187635
0.00127242
0.00138409
0.00165415
0.000984859
0.000906863
0.00102088
0.000982797
0.00104337
0.0014411
0.00111584
0.00122261
0.00140008
0.00115895
0.00122743
0.00102165
0.000966028
0.00107225
0.00106016
0.000917364
0.00101407
0.000971373
0.000930598
0.000959949
0.00216079
0.00230611
0.00215421
0.00208372
0.00235656
0.00241206
0.00182578
0.00223288
0.00174472
0.0018987
0.00250787
0.00240996
0.0020576
0.00202459
0.00212978
0.00255824
0.0015218
0.00184616
0.00255065
0.00110599
0.00111191
0.0011586
0.0013587
0.00131547
0.00249026
0.00179844
0.0017965
0.00227661
0.00191133
0.00241291
0.00188611
0.00155326
0.00205674
0.00247319
0.00158983
0.00198006
0.00125135
0.00121433
0.00149979
0.00153149
0.00134026
0.00168939
0.00151405
0.00114469
0.00127439
0.00129451
0.00149293
0.00148224
0.00157626
0.00117102
0.00111898
0.00131311
0.00109094
0.00120649
0.00188266
0.0015104
0.00126954
0.00159996
0.00117162
0.00138408
0.00115072
0.00114952
0.00128294
0.00381683
0.0035192
0.00351983
0.00320982
0.00318252
0.00327559
0.00279056
0.00312791
0.00301481
0.00326321
0.00359019
0.00398496
0.00320686
0.0038656
0.00343232
0.00401192
0.00333435
0.00342773
0.00320314
0.00317924
0.00271378
0.00235189
0.00297617
0.00232022
0.0025392
0.00321062
0.00275389
0.00245375
0.00290121
0.00254728
0.00349092
0.00318111
0.00281109
0.00328279
0.00326717
0.00309588
0.00219716
0.0023158
0.00234384
0.00305581
0.00344096
0.00259734
0.00346117
0.00276485
0.00306952
0.00263343
0.00365996
0.00465538
0.00367896
0.00568406
0.00452308
0.00368241
0.00635514
0.00568801
0.00630846
0.0050691
0.00529182
0.0034118
0.00406869
0.00442528
0.00367783
0.0034194
0.0046339
0.00338581
0.00446119
0.0034571
0.00558095
0.00532392
0.00439133
0.00446197
0.00519718
0.00419442
0.00246031
0.00220844
0.00278636
0.00247308
0.00215494
0.00332359
0.00321215
0.00308605
0.00289648
0.00281157
0.00218412
0.00211474
0.00251154
0.00244597
0.00323334
0.00280244
0.0037344
0.00320117
0.00308539
0.00441157
0.00371208
0.00411596
0.00354876
0.00352406
0.00325771
0.00342024
0.00336351
0.00298953
0.00408334
0.0025769
0.00312656
0.00429798
0.00260172
0.00228779
0.00312434
0.00275587
0.00439158
0.00362833
0.00335209
0.00337963
0.00350105
0.00304688
0.00468978
0.00648534
0.00560596
0.0055418
0.00480032
0.00486847
0.00555325
0.00543888
0.0062173
0.00558428
0.00688715
0.00645761
0.00378926
0.00445742
0.00478212
0.00402799
0.00499334
0.00434924
0.00631722
0.0056997
0.00538803
0.00410162
0.00389099
0.0041173
0.00308337
0.00345906
0.00349508
0.00374142
0.00396204
0.00370217
0.00382838
0.00252361
0.0024377
0.00218301
0.00275138
0.00243012
0.00251839
0.00250746
0.0022136
0.00264128
0.00228761
0.00262978
0.00266068
0.00293266
0.00295706
0.00279877
0.00299738
0.00340603
0.00331067
0.00300471
0.00303252
0.00289304
0.00265311
0.00277304
0.00302709
0.00284317
0.00333718
0.0023061
0.00235657
0.0026381
0.00250789
0.00292395
0.00241002
0.00318921
0.0027587
0.00330329
0.00298742