# vtk DataFile Version 4.2
vtk output
ASCII
DATASET POLYDATA
POINTS 2562 double
-0.110658 4.96505 -0.0335714
-0.113019 4.96834 -0.0310972
-0.109926 4.97005 -0.0332778
-0.115199 4.9717 -0.0284391
-0.112295 4.97343 -0.0305614
-0.109048 4.97526 -0.0326407
-0.119136 4.97838 -0.0224986
-0.116514 4.98014 -0.0245539
-0.117222 4.97506 -0.0255893
-0.113658 4.98197 -0.0265239
-0.114493 4.97683 -0.0276433
-0.106868 4.98584 -0.0303399
-0.108029 4.98053 -0.031667
-0.110476 4.98387 -0.0284453
-0.111448 4.97867 -0.0296658
-0.126085 4.99044 -0.00716067
-0.123677 4.99298 -0.00904401
-0.124536 4.98773 -0.0113238
-0.121152 4.99513 -0.0109818
-0.122127 4.98999 -0.0132579
-0.122819 4.98479 -0.0153388
-0.115588 4.99902 -0.01475
-0.116815 4.99389 -0.0171111
-0.118465 4.99708 -0.0129267
-0.117754 4.98874 -0.0192404
-0.119549 4.992 -0.0152241
-0.120997 4.98164 -0.0190948
-0.118513 4.98359 -0.0210351
-0.120368 4.9868 -0.0173302
-0.100498 5.00747 -0.0209813
-0.10246 5.00219 -0.0238207
-0.105023 5.00544 -0.0194033
-0.10413 4.99674 -0.0263928
-0.106725 5.00017 -0.0221522
-0.108958 5.00325 -0.017931
-0.109363 4.98936 -0.0267374
-0.105595 4.99123 -0.0285868
-0.111658 4.99269 -0.022949
-0.108149 4.9947 -0.0246765
-0.112453 5.00106 -0.0164168
-0.113748 4.99592 -0.0189337
-0.110469 4.99799 -0.0205674
-0.115753 4.9854 -0.023039
-0.114846 4.99066 -0.0211609
-0.112724 4.98731 -0.0249407
-0.126324 5.01433 0.0386591
-0.123684 5.01802 0.0368398
-0.128725 5.01024 0.031465
-0.120992 5.02124 0.0348985
-0.125971 5.0142 0.0300726
-0.13001 5.00673 0.0249291
-0.115273 5.02666 0.0305067
-0.120256 5.02067 0.0263192
-0.118179 5.02411 0.0327448
-0.124478 5.0143 0.0220926
-0.123123 5.01769 0.0283275
-0.130345 5.00083 0.0129338
-0.130484 5.00363 0.0187418
-0.127875 5.00764 0.0176521
-0.127303 5.01075 0.0236571
-0.102044 5.03527 0.0238303
-0.107761 5.02963 0.0180558
-0.10564 5.03316 0.0246879
-0.112486 5.02397 0.0133476
-0.111052 5.02758 0.0195351
-0.109051 5.03108 0.0262351
-0.119542 5.01289 0.00600847
-0.119302 5.01633 0.0115815
-0.116378 5.01838 0.00943751
-0.118562 5.01983 0.0176351
-0.115586 5.02192 0.0152545
-0.112249 5.02894 0.0282663
-0.117228 5.02329 0.023947
-0.114227 5.02551 0.021641
-0.127475 4.99293 -0.00281887
-0.125274 4.99621 -0.00386767
-0.128737 4.99552 0.00207641
-0.126419 4.99884 0.000787459
-0.123958 5.00181 -0.000586744
-0.127837 5.00458 0.0116378
-0.129728 4.99816 0.00736917
-0.125187 5.00778 0.00996404
-0.127332 5.00169 0.00608241
-0.122059 5.00737 0.00270054
-0.122415 5.01048 0.00796092
-0.124738 5.00472 0.00441574
-0.121555 5.01731 0.0200129
-0.122258 5.0139 0.0138729
-0.125117 5.01104 0.015955
-0.0608849 5.0448 0.0165229
-0.0675521 5.04189 0.0102904
-0.0667837 5.04553 0.0195403
-0.0739862 5.03836 0.00472428
-0.0731548 5.04238 0.013229
-0.0724924 5.04548 0.0216677
-0.0857476 5.02931 -0.00534258
-0.0853092 5.03391 0.00183887
-0.0801302 5.03413 -0.000484329
-0.0847553 5.03775 0.00900775
-0.0794397 5.03848 0.00731804
-0.0835454 5.0434 0.0233785
-0.0781128 5.04472 0.0229046
-0.084175 5.04088 0.0161794
-0.0787563 5.042 0.0151765
-0.102486 5.01168 -0.0157319
-0.0981617 5.01277 -0.0177524
-0.103828 5.01546 -0.0106512
-0.0996526 5.01708 -0.0122125
-0.0949325 5.01836 -0.0140345
-0.104828 5.02257 -0.000389623
-0.100649 5.02478 -0.00130332
-0.104557 5.01908 -0.00558014
-0.0959502 5.02691 -0.00219907
-0.10042 5.02109 -0.00674017
-0.0907514 5.024 -0.00985825
-0.0909647 5.02851 -0.003443
-0.0957113 5.02289 -0.00806688
-0.0980483 5.03743 0.0234539
-0.103441 5.03225 0.0170751
-0.0935928 5.0396 0.0233797
-0.0993312 5.03457 0.0166973
-0.104324 5.02912 0.0108439
-0.0896739 5.03906 0.0165029
-0.0887317 5.04164 0.0234332
-0.0953684 5.03397 0.0101537
-0.0946525 5.03694 0.0165893
-0.10475 5.0259 0.00504485
-0.100526 5.02833 0.00448939
-0.10012 5.03153 0.01037
-0.0906177 5.03263 0.00314901
-0.0957465 5.03066 0.00390429
-0.0901767 5.03613 0.00979484
-0.122697 4.99863 -0.00585622
-0.119117 5.00942 0.000292298
-0.118336 5.00601 -0.0049175
-0.121184 5.00404 -0.00280035
-0.117156 5.00266 -0.00981905
-0.119994 5.0007 -0.0078978
-0.108678 5.0264 0.0117559
-0.109157 5.01978 0.000511462
-0.112875 5.01734 0.00184616
-0.109122 5.02309 0.00589299
-0.116279 5.01511 0.00369804
-0.112898 5.02063 0.00732591
-0.106776 5.00931 -0.0144916
-0.113935 5.00479 -0.0116454
-0.111735 5.01038 -0.00847028
-0.110571 5.00696 -0.0131612
-0.108812 5.01624 -0.00480978
-0.108059 5.01283 -0.00966428
-0.115945 5.0116 -0.00172447
-0.112528 5.01384 -0.00345882
-0.11517 5.00815 -0.00681478
-0.107554 4.96466 -0.0359953
-0.106783 4.96983 -0.0356464
-0.104176 4.96425 -0.0383662
-0.104575 4.98049 -0.034089
-0.10216 4.97489 -0.0374068
-0.105768 4.97515 -0.0350242
-0.0965096 4.96284 -0.0429454
-0.100504 4.96367 -0.0406864
-0.0995383 4.96902 -0.0403354
-0.103302 4.96952 -0.0380182
-0.0979667 5.00274 -0.0262676
-0.0953018 4.99748 -0.0312131
-0.0999301 4.99733 -0.0287433
-0.0898035 4.9855 -0.0397792
-0.0946575 4.98604 -0.0374546
-0.0925814 4.99168 -0.035756
-0.0991073 4.98623 -0.0350915
-0.09731 4.99188 -0.0333471
-0.103165 4.98615 -0.0327157
-0.101679 4.99168 -0.0309418
-0.0771073 4.95747 -0.0504866
-0.0823348 4.95902 -0.0489666
-0.0807846 4.96509 -0.0485977
-0.0874076 4.96049 -0.047146
-0.0858943 4.96626 -0.0468524
-0.0840106 4.97222 -0.0461881
-0.0952702 4.96829 -0.0426775
-0.0921685 4.96177 -0.045106
-0.0937129 4.97388 -0.0421075
-0.0908125 4.96735 -0.0448274
-0.087002 4.97901 -0.0432455
-0.0918699 4.97964 -0.0411639
-0.0890442 4.97314 -0.0442336
-0.100693 4.98049 -0.0364829
-0.0964616 4.98022 -0.0388544
-0.0981016 4.97453 -0.0397951
-0.0588891 5.04173 0.00897423
-0.0573235 5.03801 0.00169337
-0.0659173 5.03868 0.00336515
-0.0542186 5.02859 -0.01223
-0.0631588 5.03005 -0.0104962
-0.0558383 5.03359 -0.00544428
-0.0712177 5.03077 -0.00847116
-0.0645364 5.03468 -0.00367854
-0.0786771 5.0306 -0.00660485
-0.0726036 5.03492 -0.00184532
-0.0424881 5.00434 -0.0333443
-0.053142 5.00626 -0.0335729
-0.0463515 5.01074 -0.0292617
-0.0624691 5.00778 -0.0327218
-0.0566012 5.01253 -0.0289444
-0.0496649 5.01704 -0.0242918
-0.0777531 5.01001 -0.0289612
-0.0733699 5.01512 -0.0255814
-0.0706276 5.00907 -0.031058
-0.0679511 5.02005 -0.0217024
-0.0656038 5.01401 -0.0275749
-0.0522667 5.02306 -0.0185414
-0.061536 5.02457 -0.0173101
-0.0594316 5.01879 -0.0233858
-0.0953921 5.0091 -0.0227597
-0.0927271 5.01452 -0.0193119
-0.0899932 5.0101 -0.0246546
-0.0843338 5.02549 -0.0112499
-0.0826381 5.02096 -0.0172641
-0.0889865 5.02016 -0.0153869
-0.0841553 5.01041 -0.0267369
-0.0805196 5.01572 -0.0232663
-0.0868296 5.01555 -0.021141
-0.0697888 5.02573 -0.0152329
-0.0756179 5.02091 -0.0194585
-0.0773094 5.02611 -0.0130639
-0.0198054 4.9409 -0.0463537
-0.0282146 4.94396 -0.0492806
-0.0214751 4.94925 -0.0469244
-0.0362943 4.9464 -0.0512814
-0.0301523 4.95186 -0.0495605
-0.0232398 4.95727 -0.0467823
-0.0516362 4.95045 -0.0531231
-0.04673 4.95621 -0.0523281
-0.0441507 4.94853 -0.0525375
-0.0409927 4.96196 -0.050735
-0.0386687 4.95418 -0.051344
-0.0278126 4.97366 -0.0446055
-0.0253078 4.96543 -0.0460021
-0.0345822 4.96775 -0.0482012
-0.0322547 4.95982 -0.0491942
-0.0744184 4.96336 -0.0503361
-0.071615 4.95575 -0.0516991
-0.0713035 4.96923 -0.0497589
-0.0686004 4.96166 -0.0514995
-0.0654538 4.954 -0.0526201
-0.0635274 4.98095 -0.0471242
-0.0606216 4.97348 -0.0496196
-0.0676556 4.97508 -0.0487151
-0.057635 4.96583 -0.0514642
-0.0649036 4.9676 -0.0508314
-0.0587503 4.95223 -0.0531253
-0.0547058 4.95816 -0.0526303
-0.0618855 4.95989 -0.0523228
-0.0384717 4.99753 -0.0368453
-0.0485465 4.99856 -0.038144
-0.0344742 4.98995 -0.0399742
-0.0446407 4.99161 -0.0414202
-0.0540052 4.99273 -0.0419312
-0.0375156 4.97602 -0.046531
-0.0308739 4.98187 -0.0426039
-0.0468526 4.97794 -0.0475353
-0.0407946 4.98389 -0.0442888
-0.0589888 4.98682 -0.0449012
-0.0556476 4.97959 -0.0476774
-0.0503877 4.98555 -0.0450159
-0.0495555 4.96403 -0.0514636
-0.0524922 4.97185 -0.0499137
-0.0437459 4.96997 -0.0494724
-0.0927249 5.00379 -0.0282932
-0.0813862 5.00388 -0.0325485
-0.0844259 4.99791 -0.0354463
-0.0872908 5.00414 -0.030383
-0.0870613 4.99183 -0.037888
-0.08995 4.998 -0.0333584
-0.05836 5.00041 -0.0377562
-0.067295 4.98881 -0.0436473
-0.0709358 4.99605 -0.039578
-0.0630899 4.99459 -0.0410626
-0.0744671 5.00302 -0.0347645
-0.0670096 5.00185 -0.0365526
-0.0778611 4.97099 -0.0481236
-0.0839933 4.98496 -0.0420272
-0.0780115 4.98398 -0.0440087
-0.0810341 4.97816 -0.0453443
-0.0713174 4.9827 -0.0457251
-0.0747744 4.97687 -0.0471571
-0.0780606 4.99715 -0.0376504
-0.0746539 4.99007 -0.0420549
-0.0811888 4.99111 -0.040078
-0.109191 4.95982 -0.0352895
-0.10595 4.95941 -0.0376813
-0.107345 4.9546 -0.036856
-0.0985187 4.95805 -0.0423476
-0.100044 4.95351 -0.0416384
-0.102373 4.95885 -0.0400582
-0.102053 4.94425 -0.0398238
-0.10499 4.94942 -0.0383627
-0.101188 4.94898 -0.0408208
-0.103846 4.95415 -0.0392856
-0.079203 4.95201 -0.0502537
-0.0807134 4.94712 -0.0497918
-0.0844172 4.95376 -0.0486572
-0.0823287 4.93877 -0.0485402
-0.0869996 4.94487 -0.0475419
-0.081705 4.94279 -0.0492101
-0.0909938 4.95089 -0.0461863
-0.0859663 4.94906 -0.048142
-0.09411 4.95685 -0.0446551
-0.0894977 4.95546 -0.0467343
-0.0850308 4.9227 -0.0434214
-0.0898069 4.92817 -0.0431419
-0.0840076 4.92658 -0.0451772
-0.0943943 4.93365 -0.0423416
-0.0889913 4.93233 -0.0446886
-0.0833138 4.93061 -0.0465835
-0.0977002 4.94351 -0.0423674
-0.0985288 4.93905 -0.0411854
-0.0929524 4.94236 -0.0447104
-0.0937039 4.93808 -0.0436708
-0.0828144 4.93474 -0.047691
-0.0877514 4.94072 -0.0468104
-0.0883613 4.9366 -0.0458968
-0.0957187 4.95237 -0.0439863
-0.0921322 4.94663 -0.0455092
-0.0968717 4.94801 -0.0432428
-0.0228447 4.93501 -0.0470983
-0.0249969 4.92931 -0.047043
-0.030782 4.9378 -0.0497306
-0.0267547 4.91828 -0.0449426
-0.0336017 4.92616 -0.0487199
-0.0262581 4.9237 -0.0462835
-0.0400888 4.93422 -0.0512755
-0.0326178 4.93185 -0.0495215
-0.0460738 4.94232 -0.0527029
-0.038598 4.9402 -0.0515785
-0.0272589 4.89984 -0.0367555
-0.0339885 4.90637 -0.0419151
-0.0268753 4.90382 -0.038924
-0.0411466 4.91338 -0.0461232
[...]
POINT_DATA 2562
SCALARS Redistribution_Potential double 1
LOOKUP_TABLE default
0.000160793
-0.119845
0.25293
-0.231476
0.121295
0.51847
-0.401588
-0.082796
-0.31683
0.273491
0.012797
1.1102
0.811145
0.673594
0.389036
-0.639957
-0.332912
-0.587489
-0.0184019
-0.286588
-0.520871
0.658964
0.369562
0.310599
0.102656
0.0324448
-0.474828
-0.166263
-0.221002
2.31246
2.02901
1.86199
1.72688
1.5759
1.43571
0.972606
1.40643
0.85439
1.27277
1.0322
0.745427
1.14194
0.176945
0.461867
0.558264
-0.518709
-0.189677
-0.684387
0.133911
-0.353933
-0.771335
0.791139
0.311768
0.462396
-0.0871021
-0.0184313
-0.839023
-0.843936
-0.513349
-0.431851
2.08223
1.66509
1.76326
1.2543
1.33217
1.44176
0.496912
0.510214
0.83908
0.598845
0.926612
1.1177
0.65554
0.990116
-0.690542
-0.384054
-0.762623
-0.454206
-0.139528
-0.517553
-0.808121
-0.184859
-0.492933
0.168557
0.155659
-0.164242
0.258159
0.16892
-0.173052
5.27239
4.93308
4.84337
4.54184
4.51619
4.40909
3.72166
3.71454
4.13175
3.69817
4.12005
3.56197
3.97632
3.66329
4.08561
2.21441
2.6119
2.1314
2.52501
2.94351
2.05963
2.45161
2.07685
2.87035
2.46487
3.30551
3.29539
2.88419
2.41962
2.06976
2.78335
2.43111
2.04721
3.22983
3.16535
2.8291
2.82529
2.03743
2.42478
2.42193
3.27784
2.84408
3.26049
-0.0612791
0.515857
0.536464
0.196281
0.606315
0.266841
1.63708
1.63018
1.24102
1.61144
0.869188
1.21887
1.77912
0.984725
1.30209
1.36786
1.65134
1.70123
0.880728
1.25864
0.910802
0.286078
0.560099
0.594567
1.15858
1.18883
0.847369
1.24525
0.915053
1.21768
0.885475
2.43949
2.53397
2.12928
2.63708
2.2538
2.59358
1.86663
2.19446
1.48401
1.7922
2.6087
2.27229
2.63017
1.9286
2.28284
2.64971
1.57592
1.58294
1.91918
1.92536
2.65052
2.27991
2.28572
1.53145
1.90632
1.55228
5.49278
5.64924
5.10368
5.87185
5.34349
5.77564
4.80909
5.24099
4.26822
4.68964
6.19143
5.6547
6.11304
5.12801
5.57266
6.02968
4.14712
4.54202
4.62385
4.9688
5.04319
5.94922
5.41936
5.49329
2.77991
3.09198
3.23448
3.82584
3.93841
3.44121
3.68731
4.04432
3.57141
4.89046
4.45116
4.35985
5.14716
4.88988
5.43454
4.59881
5.13381
5.67786
3.95455
4.46022
4.28037
4.98933
4.8043
6.06188
5.88965
5.52843
5.34844
3.02971
2.93357
3.45811
3.36589
3.27406
4.34959
4.28611
3.89884
4.20219
3.81955
3.61546
4.08984
3.72851
6.23937
5.73947
6.24133
5.77346
5.27763
5.66916
6.18128
5.23795
5.75341
4.80951
4.78592
5.2808
4.60293
4.71258
5.13523
2.89689
3.76297
3.40218
3.32935
3.03695
2.9829
5.21521
4.34509
4.30426
4.77483
4.23447
4.70719
3.06224
3.06709
3.47327
3.07431
3.89896
3.4802
3.84311
3.88728
3.45377
-0.0646251
0.22909
-0.0855606
0.857536
0.523996
0.541325
-0.0408318
-0.0835712
0.228708
0.214666
2.2258
1.89235
1.88782
1.37648
1.27715
1.6134
1.20937
1.55371
1.19823
1.53831
0.412893
0.300115
0.677457
0.172205
0.54651
0.921008
0.307409
0.0557196
0.668279
0.419509
1.15132
1.02424
0.787067
0.857543
0.924407
0.566953
4.73818
4.36307
4.48785
3.70516
3.78253
4.01895
3.85276
4.11575
3.90518
4.20725
2.53937
2.64034
2.8279
2.70274
2.90604
3.1175
2.67547
2.92848
2.67911
3.21565
2.94852
3.4082
3.46455
3.18072
2.60592
2.92042
2.61543
3.58018
3.23981
3.25136
2.6383
2.93484
2.91757
3.51893
3.2198
3.5477
0.0345115
0.184394
0.328596
0.284534
0.471583
0.626186
0.434967
0.675585
0.387907
0.870879
0.569122
1.26053
0.938626
1.07925
0.773031
0.764091
0.473241
1.08004
0.798419
0.503245
1.62589
1.33592
1.35647
1.0311
1.07475
0.477758
0.730304
0.775535
2.24256
2.32121
1.92166
2.03614
2.12367
1.40609
1.59014
1.52378
1.72176
1.85808
1.57757
1.8388
0.971896
1.27265
1.19403
2.2627
2.35965
2.06816
2.31399
1.74348
1.97679
2.42075
1.91847
2.17509
2.15101
2.41441
2.41495
1.03122
1.51362
1.59772
1.28265
1.62727
1.34939
2.12244
1.88471
1.83893
-0.303847
-0.364689
-0.585942
-0.374084
-0.663184
-0.382444
-1.11565
-0.853265
-0.91481
-0.647378
0.0203502
-0.368099
-0.100733
-1.08452
-0.834743
-0.736053
-0.580293
-0.481168
-0.318132
-0.216397
-2.07942
-1.86047
-1.89637
-1.62561
-1.67528
-1.67199
-1.18407
-1.37469
-1.19559
-1.43317
-1.40355
-1.16794
-1.4401
-0.649076
-0.911883
-0.935169
-0.149102
-0.317008
-0.0162682
-0.659633
-0.409893
-0.47986
-0.143908
-0.20947
0.13919
0.0791608
-1.54752
-1.36556
-1.30329
-1.16138
-1.11604
-1.06915
-0.684684
-0.658617
-0.933366
-0.639719
-0.899641
-0.852097
-0.636797
-0.867203
0.134355
0.183054
-0.144159
0.173343
-0.092136
0.203266
-0.419708
-0.385748
-0.106648
-0.385802
-0.376666
-0.115071
-3.28351
-3.20266
-3.15326
-3.10544
-3.07682
-2.98796
-2.84859
-2.86128
-2.98533
-2.81286
-2.97986
-2.57051
-2.79166
-2.7122
-2.90846
-2.15088
-2.29444
-2.16311
-2.35469
-2.49752
-2.04473
-2.31474
-2.12453
-2.54029
-2.36072
-2.68712
-2.7153
-2.54881
-1.80186
-1.67732
-2.06646
-1.9513
-1.8101
-2.47933
-2.32776
-2.36532
-2.22801
-1.93826
-2.22018
-2.09646
-2.68993
-2.47699
-2.60604
-0.238201
-0.760277
-0.866703
-0.500886
-0.979539
-0.618706
-1.47572
-1.70902
-1.37268
-1.59672
-1.02451
-1.25896
-1.92124
-1.34196
-1.58388
-1.65485
-1.81183
-1.88878
-1.12627
-1.48043
-1.23521
-0.415184
-0.948717
-0.787277
-0.691344
-0.591848
-0.519502
-1.94337
-1.77158
-1.71345
-1.3948
-1.34591
-1.57713
-1.29266
-1.53184
-1.21194
-1.46366
-0.856821
-0.790795
-1.04394
-0.672334
-0.925878
-0.743845
-1.23096
-1.16569
-0.996666
-1.04496
-1.10711
-0.856345
-3.31052
-3.28596
-3.22145
-3.12424
-3.11123
-3.21713
-3.06479
-3.18213
-2.98056
-3.10629
-2.62763
-2.61683
-2.76539
-2.5741
-2.75902
-2.89781
-2.46223
-2.68535
-2.52073
-2.86019
-2.72825
-3.02064
-3.01761
-2.89335
-2.21008
-2.43418
-2.31051
-2.82533
-2.73958
-2.63838
-2.39398
-2.62616
-2.54411
-2.98839
-2.81183
-2.92764
-0.932217
-1.05792
-1.29384
-1.14716
-1.43496
-1.14348
-1.90371
-1.62996
-1.69199
-1.41322
-0.93125
-1.20655
-0.996085
-1.73449
-1.55856
-1.47324
-1.3668
-1.28643
-1.12111
-1.07271
-2.48404
-2.44753
-2.32261
-2.29904
-2.23094
-1.93978
-2.1351
-1.90314
-2.12954
-1.98899
-1.82802
-2.07497
-1.41863
-1.64511
-1.69467
-2.03995
-2.18906
-1.92238
-2.11998
-1.65434
-1.85135
-2.39511
-1.90422
-2.07111
-2.15195
-2.25689
-2.32369
-1.12417
-1.47356
-1.54957
-1.30104
-1.63909
-1.38458
-1.99259
-1.80892
-1.72628
5.5696
5.85672
5.9356
6.34056
6.51752
6.11887
6.57299
6.27012
6.59196
6.246
6.67963
7.06753
6.68469
7.55298
7.2666
7.3542
6.92568
7.03037
6.52265
6.63361
7.57665
7.35867
7.67146
7.11226
7.44654
7.70779
6.91372
6.84893
7.19969
7.18942
7.67172
7.41682
7.47414
6.7533
7.10965
6.88149
5.73998
6.13555
5.94823
6.81423
6.71661
6.49182
6.53208
6.35786
6.24703
6.11434
7.76459
7.82356
7.59041
7.77535
7.60311
7.36801
7.50888
7.40334
7.67479
7.24889
7.53226
7.10526
7.05258
7.34056
6.61521
6.53313
6.97237
6.35684
6.7919
6.4441
7.26576
7.17541
6.88921
6.91217
7.06413
6.67971
7.7795
7.92024
7.98675
8.01614
8.13147
8.12266
8.05819
8.26047
8.05998
8.36268
8.22819
8.19733
8.19166
8.34458
8.27811
7.90012
7.76205
8.12477
8.05833
7.91406
8.33503
8.37453
8.26799
8.34608
8.25917
8.01311
8.24286
8.17768
7.9057
8.03125
8.03495
8.16723
8.21495
8.34068
8.14036
8.40428
8.27607
8.31738
8.40322
8.33571
8.38114
8.42452
8.41715
7.04908
7.59959
7.64022
7.34897
7.6338
7.38465
8.01961
8.20777
8.02624
8.14688
7.80162
7.93107
7.93561
7.81535
8.01962
7.91064
8.19149
8.10175
7.86042
8.05655
7.86687
5.30283
4.86243
5.25212
3.99647
4.37112
4.42192
5.0303
5.15969
4.71142
4.8067
2.49384
2.82285
2.83457
3.3943
3.45105
3.11018
3.52418
3.15853
3.57509
3.19585
4.42953
4.57131
4.13759
4.72673
4.28065
3.89207
4.57245
4.87598
4.1418
4.42125
3.62594
3.74496
3.99738
3.93701
3.84465
4.27
-0.158571
0.173321
0.132036
0.756184
0.759447
0.468678
0.765881
0.464948
0.760241
0.441813
1.81878
1.943
1.65354
1.98327
1.68668
1.38267
2.02111
1.69685
1.97901
1.36516
1.6831
1.09864
1.05036
1.38455
2.10445
1.78059
2.0823
1.10479
1.42358
1.43942
2.04101
1.72446
1.75919
1.07489
1.39689
1.08962
3.03555
3.24042
2.7969
3.43175
2.97363
2.5217
3.78052
3.32622
3.60845
2.90247
3.15095
2.0847
2.26703
2.49154
2.7075
3.97489
4.27895
3.58986
3.82336
4.12341
2.98921
3.1004
3.27142
3.25367
3.4272
3.95469
3.50312
3.66453
1.89321
2.12677
1.93973
2.20361
2.41994
2.32795
1.97767
2.55791
2.24628
2.70856
2.79753
2.50597
3.08418
2.8892
2.69669
2.45191
2.38635
2.72545
2.40391
3.04949
2.75343
2.25092
2.82182
2.63466
2.54321
2.32356
2.31964
3.7366
3.28115
3.23142
3.53526
3.10862
3.39693
2.65233
2.93769
2.96638
-0.584601
-0.983101
-0.620374
-1.68563
-1.35703
-1.34976
-0.661641
-0.645206
-0.999659
-1.00414
-2.58944
-2.47251
-2.42959
-1.95229
-1.99335
-2.25185
-2.00902
-2.2645
-1.98508
-2.22915
-0.884256
-0.796845
-1.10069
-0.732108
-1.03953
-1.33202
-1.00001
-0.686643
-1.32175
-1.00153
-1.62457
-1.64971
-1.31658
-1.70355
-1.68251
-1.34848
-3.37016
-3.40615
-3.36465
-3.32153
-3.32144
-3.38871
-3.29828
-3.36728
-3.23564
-3.31823
-2.87551
-2.84261
-2.97637
-2.83003
-2.97788
-3.09526
-2.84994
-2.98711
-2.83079
-3.11504
-2.97918
-3.21852
-3.22989
-3.1137
-2.75631
-2.88744
-2.82851
-3.12653
-3.08497
-3.01249
-2.86193
-2.9965
-2.96069
-3.22752
-3.11869
-3.2009
-1.84991
-1.84131
-2.06207
-1.76981
-2.02635
-2.22858
-1.50641
-1.80468
-1.65155
-2.07211
-1.93624
-2.48091
-2.36356
-2.30071
-2.17494
-1.212
-1.01761
-1.51006
-1.34192
-1.18235
-2.05597
-1.9157
-1.79466
-1.77788
-1.63795
-1.34944
-1.64868
-1.49494
-2.78701
-2.70686
-2.69311
-2.61522
-2.51042
-2.41928
-2.59045
-2.30665
-2.52217
-2.29329
-2.17795
-2.40752
-1.92985
-2.05351
-2.19316
-2.66312
-2.67358
-2.47982
-2.68908
-2.24189
-2.49454
-2.65458
-2.22239
-2.43165
-2.4488
-2.64446
-2.63669
-1.39954
-1.92619
-1.92068
-1.63588
-1.96152
-1.69034
-2.44584
-2.19206
-2.20687
-3.27842
-3.12356
-3.2547
-2.71032
-2.84494
-2.93007
-3.15311
-3.2119
-2.99648
-3.06969
-1.6998
-1.83421
-1.9494
-2.10875
-2.21333
-1.96644
-2.33596
-2.08192
-2.46115
-2.21038
-2.84259
-2.92694
-2.661
-3.00844
-2.74526
-2.46411
-2.9096
-3.08437
-2.6399
-2.82838
-2.2765
-2.37034
-2.54942
-2.59288
-2.47473
-2.73865
-0.195883
-0.384988
-0.377504
-0.611336
-0.727331
-0.526282
-0.730545
-0.571389
-0.684347
-0.53266
-0.811508
-1.01842
-0.748017
-1.20808
-0.964107
-0.709066
-1.33028
-1.18887
-1.31088
-1.02882
-1.12995
-0.671959
-0.834665
-0.910405
-1.42172
-1.2063
-1.34191
-0.836971
-1.01711
-1.014
-1.32414
-1.17964
-1.16545
-0.897537
-1.04663
-0.867335
-1.35199
-1.71508
-1.45671
-2.03511
-1.76996
-1.46293
-2.46672
-2.22597
-2.2777
-1.95725
-2.03137
-1.29468
-1.40131
-1.63712
-1.7309
-2.58131
-2.76723
-2.3488
-2.53762
-2.69336
-1.9128
-2.07964
-2.13506
-2.24702
-2.31612
-2.60428
-2.3846
-2.48349
-0.899591
-1.11278
-1.01675
-1.22257
-1.41403
-1.50644
-1.15489
-1.69361
-1.3617
-1.68319
-1.82443
-1.54737
-2.12466
-1.9816
-1.83944
-1.57012
-1.4908
-1.66025
-1.50504
-1.85613
-1.7135
-1.29764
-1.75614
-1.61956
-1.54761
-1.48185
-1.43277
-2.38427
-2.02223
-1.99417
-2.19737
-1.96611
-2.1637
-1.64689
-1.80438
-1.82127
0.0998796
0.386473
0.197971
1.0038
0.790503
0.690387
0.546752
0.340477
0.619637
0.485488
2.34075
2.11731
2.02051
1.75723
1.59136
1.91941
1.45762
1.79201
1.34427
1.68021
1.32055
1.17254
1.45629
0.972033
1.26044
1.55137
0.830698
0.762317
1.12906
1.04709
1.64804
1.44034
1.34736
1.11799
1.25443
0.92869
5.1174
5.01961
4.7186
4.70294
4.50596
4.89026
4.25337
4.624
4.00309
4.34479
4.07493
3.81214
4.19408
3.58552
3.95558
4.35265
3.20142
3.55229
3.37368
3.92404
3.72395
4.50456
4.30588
4.10669
2.71164
3.02552
2.86021
3.66596
3.53768
3.34819
3.03866
3.38408
3.19341
4.12598
3.75219
3.89219
3.02998
2.80114
3.18811
2.54034
2.92072
3.31512
1.99131
2.3612
2.26618
2.75844
2.63515
3.59215
3.44135
3.17062
3.0338
1.63522
1.44654
1.95309
1.77299
1.59556
2.61666
2.44922
2.27964
2.28527
2.10963
1.76407
2.11766
1.93526
3.97728
3.68325
3.85654
3.57442
3.31967
3.30801
3.72536
3.03472
3.43492
2.96417
2.81291
3.18371
2.50133
2.65204
2.8998
2.48455
2.82494
2.47321
2.65663
2.12067
2.2915
3.43521
2.75218
2.8809
3.0853
3.01484
3.21607
1.7732
1.99134
2.20743
1.88215
2.40937
2.09036
2.6742
2.54358
2.33415
3.33992
3.73133
3.17112
4.09853
3.55385
3.05214
4.82679
4.28037
4.46251
3.78206
3.92431
3.10171
3.02973
3.38353
3.42157
6.08207
5.65524
5.80598
5.17311
5.34498
5.50689
4.47682
4.43729
4.7684
4.49983
4.84477
5.17982
4.65271
5.00667
3.34708
3.37749
3.75107
3.32776
3.69071
4.03826
3.45376
3.2236
3.79684
3.57676
4.25837
4.13883
3.92228
4.13886
4.0848
3.73553
7.75826
7.56845
7.6187
7.54725
7.36021
7.05539
7.11224
7.3672
7.13417
7.38377
6.96953
7.15679
7.10323
7.32346
5.88693
5.92313
6.1589
5.90471
6.15274
6.41523
5.83906
6.15058
5.8599
6.46676
6.1326
6.70787
6.76909
6.42011
6.34315
6.0218
6.58288
6.33121
5.91597
6.87232
6.78688
6.5754
6.62516
5.85154
6.18682
6.25042
6.82685
6.51988
6.86714
3.03166
3.35494
2.99397
3.29892
3.64666
2.91879
3.24416
2.93411
3.58655
3.25049
4.37808
3.9977
3.96597
3.59925
3.70551
3.23132
4.0481
3.57092
3.08479
4.68668
4.2475
4.37502
3.75444
3.91428
2.97495
3.30346
3.41376
5.57955
5.60198
5.20424
5.27068
5.30445
4.38279
4.77603
4.45966
4.83387
4.9938
4.58917
4.92959
3.63775
4.09728
3.99146
5.53588
5.488
5.16258
5.47507
4.83407
5.12534
5.63722
5.06294
5.33305
5.34728
5.54901
5.61504
4.11224
4.6111
4.73093
4.39978
4.7613
4.45259
5.24911
5.042
4.94159
2.86622
2.73081
2.45216
2.72807
2.38205
2.68729
1.75133
2.0931
2.05657
2.37627
2.97855
2.59897
2.98415
1.86698
2.20236
2.22408
2.5323
2.58216
2.83022
2.93041
0.484151
0.776227
0.782596
1.08722
1.081
1.13252
1.72314
1.41578
1.76746
1.40526
1.5088
1.82442
1.44815
2.44463
2.14687
2.07727
2.71203
2.40406
2.73252
1.7893
2.15768
2.10103
2.44215
2.43778
2.65277
2.71368
0.479774
0.913559
0.804109
1.31757
1.2421
1.12899
1.90479
1.91886
1.65401
1.91275
1.62986
1.46262
1.8661
1.56607
2.8816
2.75865
2.46506
2.62009
2.36543
2.66401
2.14602
2.13864
2.39357
2.17818
2.15928
2.39515
-1.64925
-1.61547
-1.41914
-1.43412
-1.36827
-0.832014
-0.914986
-1.14079
-0.920751
-1.19815
-0.790033
-1.09278
-0.875559
-1.17732
0.427407
0.16859
0.418502
0.100101
-0.185539
0.491579
0.121144
0.452518
-0.28086
0.0915817
-0.522727
-0.599497
-0.269992
0.156977
0.503404
-0.177611
0.151997
0.517879
-0.540853
-0.486039
-0.235774
-0.218917
0.515339
0.148686
0.156044
-0.614301
-0.261396
-0.587249
2.55618
1.87814
1.87286
2.17582
1.87477
2.21289
0.936581
0.942969
1.30147
0.949925
1.61244
1.31686
0.787545
1.52715
1.23067
1.17728
0.905615
0.845504
1.58225
1.27583
1.55615
3.21692
2.76893
3.09321
1.96685
2.28236
2.34832
2.74961
2.93866
2.58633
2.68208
0.576447
0.791403
0.900111
1.3456
1.4075
1.05429
1.48003
1.12934
1.58836
1.24307
1.79084
2.06992
1.82036
2.31733
2.05609
1.77596
2.44014
2.5367
2.11536
2.26657
1.62158
1.73742
1.96614
1.8731
1.81078
2.2109
-1.90902
-1.87544
-1.67325
-1.66307
-1.48489
-1.78095
-1.31344
-1.61011
-1.09756
-1.40827
-1.30987
-0.898182
-1.35708
-0.579172
-1.00481
-1.4369
-0.226709
-0.579875
-0.368329
-0.942716
-0.744096
-1.54337
-1.31425
-1.14776
0.198558
-0.127378
0.019018
-0.757147
-0.615541
-0.449439
-0.0988065
-0.43112
-0.299605
-1.14268
-0.78133
-0.962636
-0.967416
-1.39839
-0.574276
-0.955686
-1.41469
0.27139
-0.0733102
-0.152542
-0.465882
-0.516944
-1.39167
-1.4111
-0.896485
-0.929402
1.48532
1.46597
1.16881
1.14896
1.08345
0.474093
0.484091
0.82706
0.44328
0.826872
0.67737
0.366783
0.763414
-1.30676
-0.831019
-1.32879
-0.819054
-0.37321
-0.857318
-1.36187
-0.37289
-0.830189
0.0777467
0.0885673
-0.356822
0.00726111
0.0667226
-0.410775
0.403262
0.175738
0.560895
0.290969
0.942573
0.67211
-0.436651
0.422733
0.268729
0.00972609
0.040951
-0.143962
1.50161
1.22608
1.05324
1.41619
0.807383
1.15503
0.442663
0.675359
0.837175
3.72324
3.54841
3.96086
3.09526
3.42336
3.33775
4.05704
4.03736
3.73468
3.70485
2.08776
2.38159
2.35949
3.02506
2.97996
2.69712
2.9121
2.65768
2.84491
2.6132
4.25797
4.29756
3.96691
4.21099
3.97188
3.66149
3.79171
4.1208
3.56373
3.88545
3.3477
3.32564
3.65007
3.15657
3.23428
3.46862
-1.08218
-0.855904
-0.75304
-0.380153
-0.335766
-0.623594
-0.196296
-0.549668
0.0272263
-0.383006
0.792063
0.733244
0.493383
0.758014
0.422745
0.163011
1.08644
0.640773
0.890987
0.229641
0.475655
-0.134226
-0.107286
0.126488
1.71387
1.32789
1.55557
0.469736
0.664223
0.89282
1.3166
0.865887
1.10842
0.0143512
0.42372
0.222764
3.05961
2.77276
3.05794
2.7936
2.51962
3.21694
2.82445
3.09325
2.50883
2.77812
1.9863
2.25628
2.2505
2.51787
3.79266
4.08178
3.24572
3.51805
3.77124
2.22404
2.48635
2.71806
2.73335
2.9664
3.44442
2.97161
3.20671
1.07773
1.0756
1.38979
1.3667
1.39696
1.97363
1.70064
1.98159
1.68312
1.77248
2.04409
1.68882
2.57291
2.32017
2.25208
2.01808
1.61662
2.13862
1.84806
2.61592
2.31591
1.08632
1.94724
1.66731
1.48236
1.38569
1.19916
3.51728
2.92981
2.73001
3.22407
2.48221
2.9934
1.90706
2.20126
2.4377
4.07658
4.36013
4.62958
4.29437
4.79663
4.43686
4.6028
4.81394
4.51924
5.22909
4.96889
4.99492
4.68063
4.72187
4.37364
4.42549
6.02396
5.78217
5.82544
5.16665
5.30433
5.49206
5.53582
5.29815
5.59039
4.6884
5.00616
4.97454
3.32541
3.60627
3.32086
4.25402
3.92204
3.91257
3.65188
3.60193
3.42293
3.3412
5.83314
5.58412
5.43647
5.39046
5.15503
5.02258
5.07089
4.76793
5.22756
4.462
4.93556
4.62345
4.30278
4.70976
4.51317
4.27963
4.72218
3.62116
4.09548
3.93195
4.90359
4.60857
4.44904
4.02397
4.26367
3.80502
7.63246
7.41415
7.43571
6.99271
6.98742
7.19586
7.01633
7.21903
7.00021
7.20875
6.27738
6.24727
6.46828
6.15832
6.34463
6.16343
6.57619
6.40684
6.80409
6.63996
6.19251
6.03144
6.51557
6.33458
6.1648
6.80683
6.79051
6.58923
6.59706
6.18691
6.36652
6.39135
6.77061
6.55017
6.77313
4.88165
5.31896
5.35713
5.12035
5.26887
5.10496
5.83891
5.96373
5.7708
5.95911
5.50138
5.66583
6.05005
5.48786
5.7197
5.76402
5.93512
5.96501
5.57812
5.75321
5.52559
3.58513
4.27649
4.16635
3.9128
4.01073
3.81135
5.81144
5.71628
5.46256
5.43916
5.18699
5.58524
4.92873
5.32462
4.66648
5.0551
4.73643
4.56912
5.01905
4.20567
4.62463
4.38904
5.26258
5.03864
4.83225
4.54727
4.79718
4.40526
7.88724
7.97626
7.70731
7.95635
7.40637
7.68463
7.62204
7.44532
7.7534
6.96872
7.29583
7.21693
7.62969
7.54724
7.94405
7.86699
6.17536
6.45931
6.45617
7.06754
7.06585
6.74803
6.72025
7.02977
6.75889
7.68565
7.35799
7.39651
5.71521
5.53432
6.00696
5.64404
6.4357
6.09476
4.91939
5.39416
5.06535
6.30433
6.01636
5.86018
5.70541
5.54898
5.37999
5.22153
7.44103
7.25397
7.09111
6.75133
6.6277
7.02003
6.71319
6.47378
6.87845
5.87281
6.18311
6.33483
6.10426
6.61304
6.26252
6.37074
5.87858
6.01491
7.28666
6.53773
6.71391
6.92269
6.85763
7.08729
5.21868
5.70006
5.90545
5.48692
6.11013
5.6776
6.48664
6.31558
6.10253
-1.59449
-1.05573
-1.23968
-1.32897
-1.38561
-1.50916
0.11772
-0.124677
-0.166957
-0.409243
-0.565668
-0.298901
-0.675067
-0.391047
-0.752649
-0.459208
-0.709368
-0.882242
-0.58764
-1.22904
-0.953134
-1.06253
-0.48706
-0.681183
-0.769939
-0.962944
-0.842182
-1.11073
2.4638
1.90105
1.80536
2.1623
1.78588
2.12928
1.58409
1.32156
1.63309
0.762779
1.06475
1.0112
1.38626
1.32194
1.72661
1.64893
0.456951
0.753175
0.488246
1.41758
1.1005
1.07705
0.598198
0.897092
0.783124
1.54336
1.21191
1.4423
-0.225466
-0.32377
0.024973
-0.279786
0.383277
0.090728
-0.542637
-0.206155
-0.464862
0.483756
0.226682
0.137437
-0.0655934
-0.123278
-0.352602
-0.40733
1.4924
1.298
1.16117
0.737816
0.664534
1.02047
0.824587
0.591298
0.941432
-0.00178151
0.297051
0.365189
0.171341
0.447156
0.162371
0.275014
-0.110849
-0.0107586
1.26155
0.616178
0.695076
0.939148
0.708655
1.00325
-0.380317
-0.172299
0.0499825
-0.264305
0.270902
-0.0567559
0.413018
0.373655
0.123192
-1.79255
-1.85881
-2.22113
-1.83774
-2.41352
-2.1499
-1.77217
-2.18215
-1.81267
-2.73474
-2.54935
-2.50988
-2.2605
-2.2344
-1.86292
-1.84553
-2.94827
-2.86031
-2.96754
-2.61791
-2.71774
-2.75606
-2.89271
-2.75599
-2.85964
-2.25964
-2.55813
-2.51332
-2.11435
-2.4202
-2.25171
-2.28455
-1.98371
-2.07485
-2.87395
-2.79458
-2.76798
-2.51755
-2.51583
-2.65973
-2.54002
-2.6658
-2.54193
-2.65406
-1.7482
-1.76702
-2.06784
-1.88988
-2.10886
-1.81521
-2.32446
-2.3231
-2.07189
-2.40469
-2.3539
-2.17504
-3.38026
-3.3341
-3.40767
-3.36814
-3.39585
-3.41951
-3.05213
-3.17295
-3.13748
-3.17301
-3.2747
-3.206
-3.31849
-3.25158
-3.2807
-3.21504
-2.98963
-3.09186
-3.06993
-3.314
-3.28261
-3.20579
-3.1246
-3.23426
-3.17736
-3.3723
-3.33183
-3.37416
-2.11266
-2.56511
-2.6282
-2.37441
-2.68823
-2.44649
-2.93925
-3.03508
-2.87956
-2.98316
-2.70641
-2.82511
-3.07381
-2.88033
-2.99569
-3.01487
-3.0892
-3.11551
-2.76885
-2.94306
-2.82953
2.54369
2.04388
2.04254