# vtk DataFile Version 4.2
vtk output
ASCII
DATASET POLYDATA
POINTS 642 float
-0.220953 1.64573 -0.0273953
0.665562 2.07552 -0.0213712
-1.17747 -0.0683204 -0.026643
0.153592 0.408726 -0.0244827
-0.28245 0.459109 0.410443
0.0247926 1.70384 0.43217
-0.304693 0.456012 -0.53056
0.0391313 1.71252 -0.524459
0.870443 1.34322 -0.477791
0.863003 1.33481 0.415926
-1.35288 0.871724 -0.500492
-1.32934 0.869922 0.395226
-0.935333 1.06925 0.182583
-0.64986 1.13998 0.408327
-0.0785088 1.80894 0.321505
0.376313 2.08103 0.420692
0.116009 2.18478 -0.0219061
0.377799 2.09088 -0.492968
-0.0762916 1.81153 -0.388959
-0.660888 1.12968 -0.491648
-0.938377 1.06777 -0.248156
-1.43689 0.821816 -0.0253966
0.534758 1.54276 0.414705
1.07995 1.89421 0.37206
-0.903676 0.54879 0.395434
-0.178637 1.03965 0.409082
-1.40692 0.140648 -0.420062
-1.41773 0.165279 0.339308
-0.165369 1.03307 -0.538499
-0.936335 0.526663 -0.532064
1.08005 1.8942 -0.421055
0.558561 1.57352 -0.531889
0.564465 0.792768 0.253044
0.36136 0.849327 0.421558
-0.0267138 0.303408 0.379095
-0.823126 0.0469597 0.386274
-0.496262 0.0790896 -0.0326718
-0.843496 0.000486439 -0.535708
-0.03759 0.303802 -0.440197
0.357706 0.848694 -0.531092
0.562642 0.791779 -0.309981
0.929745 1.39094 -0.0256719
-0.522825 1.32114 0.0570458
-0.447518 1.37066 0.23278
-0.162074 1.72382 0.136031
-1.08049 0.952201 0.406332
-0.820643 1.09823 0.329967
-1.23696 0.960832 0.339876
-0.0302463 1.80146 0.419964
-0.346513 1.43509 0.363267
-0.239371 1.45328 0.428895
0.0511876 2.0697 0.225996
-0.0317403 1.93643 -0.0271039
0.201294 1.91932 0.4271
0.107818 2.09606 0.410208
0.345637 2.14367 -0.02463
0.201872 2.19403 0.275179
0.557544 2.08117 0.242376
0.0509394 2.06872 -0.280549
-0.162777 1.72252 -0.197333
0.557782 2.07975 -0.296889
0.202957 2.19226 -0.326421
-0.0277843 1.81327 -0.496657
0.10353 2.11083 -0.485428
0.206865 1.94278 -0.531084
-0.448265 1.36835 -0.299821
-0.523761 1.32006 -0.123483
-0.234976 1.44887 -0.504471
-0.344882 1.43237 -0.431291
-1.24392 0.955629 -0.406836
-0.828257 1.09276 -0.40011
-1.09514 0.941352 -0.494331
-0.978707 1.06381 -0.0316492
-1.43064 0.850014 -0.362555
-1.29752 0.959137 -0.180175
-1.29763 0.959918 0.126123
-1.43228 0.856877 0.306421
0.780624 2.00109 0.420068
0.890118 1.99413 0.170451
0.241661 1.63468 0.416914
0.530254 1.86488 0.42151
1.00748 1.62557 0.415852
0.849741 1.76922 0.41936
0.77716 1.44175 0.424702
-0.440509 1.12694 0.423548
-0.073651 1.38969 0.422394
-1.16663 0.691104 0.395161
-0.832034 0.888879 0.411403
-0.25119 0.704843 0.406922
-0.552259 0.795053 0.404919
-0.588269 0.472408 0.400493
-1.47434 0.488218 0.15498
-1.38578 0.560254 0.369359
-1.38739 0.54778 -0.460403
-1.47242 0.484295 -0.214198
-1.3524 -0.0382834 0.211703
-1.45419 0.145273 -0.0282044
-1.34867 -0.03201 -0.269413
-0.847821 0.861279 -0.525831
-1.18866 0.681114 -0.523313
-0.0524354 1.38544 -0.527232
-0.438082 1.10026 -0.523928
-0.627019 0.458207 -0.532418
-0.566422 0.778975 -0.537584
-0.257722 0.709172 -0.540874
0.54608 1.88134 -0.53174
0.266926 1.65887 -0.535013
0.88994 1.99393 -0.217401
0.788157 2.00721 -0.485161
0.78552 1.46171 -0.511357
0.873232 1.78637 -0.52203
1.02889 1.63117 -0.487484
0.352153 0.56454 0.109755
0.305013 0.541084 0.340243
0.0658375 0.34784 0.191204
0.661509 1.10864 0.430297
0.51106 0.791368 0.416999
0.739422 1.07888 0.353563
-0.158211 0.351534 0.41743
0.202295 0.551238 0.425637
0.00756949 0.620345 0.416521
-0.274926 0.160622 0.21814
-0.129686 0.220373 -0.0295244
-0.539244 0.24135 0.405958
-0.407577 0.136077 0.399759
-0.853761 -0.0363887 -0.0320309
-0.671168 0.0189533 0.239287
-1.0557 -0.0466608 0.253207
-0.281464 0.15885 -0.281551
0.0624335 0.34615 -0.249984
-1.0615 -0.0481495 -0.327762
-0.679162 0.01465 -0.310465
-0.175065 0.347363 -0.506449
-0.425548 0.125308 -0.471473
-0.582494 0.225043 -0.510461
0.302344 0.538531 -0.403732
0.351102 0.564131 -0.16487
0.00332615 0.624893 -0.533716
0.199269 0.547633 -0.507257
0.737168 1.07823 -0.411655
0.514461 0.784191 -0.490588
0.658958 1.10766 -0.508624
0.57949 0.803708 -0.0272041
0.919308 1.37844 -0.321342
0.765482 1.08541 -0.173211
0.766291 1.08558 0.119825
0.918994 1.37552 0.267607
0.109115 0.940659 0.407349
0.467232 1.18885 0.417749
0.188972 1.28381 0.409645
-1.21451 0.032644 0.365957
-0.910401 0.234948 0.393362
-1.21612 0.333485 0.383483
-0.950756 0.188753 -0.529673
-1.25378 0.00559404 -0.513757
-1.23883 0.283749 -0.512494
0.469945 1.1997 -0.532367
0.118643 0.945821 -0.539568
0.212865 1.29809 -0.535035
1.05137 1.67508 0.164206
1.05062 1.67527 -0.211332
1.0798 1.88902 -0.0189717
-0.318082 1.52084 0.00485904
-0.307808 1.52893 0.0925404
-0.202209 1.67149 0.0298957
-0.69219 1.18824 0.200032
-0.493673 1.34018 0.147977
-0.735497 1.17186 0.113315
-0.116507 1.77389 0.236804
-0.276253 1.55709 0.190386
-0.236087 1.59366 0.276716
-1.25028 0.898575 0.398533
-1.17524 0.960853 0.385312
-1.31992 0.92367 0.40519
-0.738887 1.11841 0.372882
-0.97329 1.02459 0.376402
-0.873639 1.02714 0.401601
-1.10779 1.01233 0.2648
-1.05127 1.0165 0.333155
-0.885589 1.07966 0.265829
0.00260094 1.74929 0.436126
-0.126598 1.63842 0.430368
-0.0726811 1.61629 0.432622
-0.199536 1.62463 0.34676
-0.168857 1.64358 0.399682
-0.0535133 1.82034 0.380665
-0.432143 1.28994 0.422456
-0.298331 1.45497 0.407835
-0.503056 1.26922 0.387099
-0.633173 1.20861 0.273897
-0.569439 1.23665 0.336832
-0.395881 1.40475 0.305051
-0.0841597 1.8376 0.0668361
-0.145791 1.75192 -0.0275392
-0.00212406 1.9657 0.290198
-0.0421101 1.91494 0.181636
0.0582408 2.08396 -0.0245479
0.0132792 2.01323 0.0955035
0.0895155 2.1381 0.122322
0.0936741 1.78827 0.430914
0.0765851 1.89647 0.439045
0.207725 2.12397 0.429992
0.152961 2.02947 0.436038
0.29307 2.02498 0.433556
0.0469735 1.96718 0.422357
0.0224321 1.98875 0.373336
0.540365 2.08701 -0.0238287
0.441889 2.10056 0.116976
0.629596 2.0888 0.0941066
0.152801 2.20242 0.138267
0.264995 2.16701 0.131043
0.203556 2.19545 -0.022444
0.471116 2.08698 0.350889
0.353925 2.13586 0.258347
0.27303 2.15774 0.367858
0.0826661 2.10315 0.337494
0.141695 2.19477 0.382658
0.111142 2.17697 0.26683
-0.0846161 1.83686 -0.12364
-0.202722 1.67078 -0.0870932
0.0898324 2.13709 -0.170026
0.0130115 2.0122 -0.148482
-0.116553 1.7733 -0.300227
-0.0426628 1.91348 -0.23965
-0.00131653 1.96615 -0.351463
0.629392 2.08852 -0.141663
0.442615 2.10086 -0.168224
0.273259 2.15428 -0.42665
0.355664 2.1344 -0.312819
0.471508 2.08237 -0.412337
0.266077 2.1665 -0.179599
0.153333 2.20158 -0.182598
0.0112626 1.75875 -0.519214
0.0833869 1.91366 -0.523247
0.108934 1.80663 -0.52748
0.024454 1.9963 -0.442063
0.0477227 1.98285 -0.499
-0.0499311 1.82754 -0.452587
0.290267 2.0405 -0.524548
0.151304 2.04931 -0.523253
0.204855 2.13967 -0.505491
0.112049 2.17633 -0.317845
0.142975 2.1956 -0.438788
0.0844405 2.10468 -0.399349
-0.309036 1.52738 -0.156483
-0.318695 1.52019 -0.0646797
-0.235478 1.59361 -0.343652
-0.27686 1.55582 -0.256071
-0.737234 1.17044 -0.180241
-0.494742 1.33843 -0.215195
-0.694914 1.18568 -0.267714
-0.0628598 1.61966 -0.520328
-0.124791 1.645 -0.510224
-0.505881 1.2584 -0.455154
-0.295091 1.452 -0.476319
-0.434643 1.2762 -0.492321
-0.166363 1.64908 -0.472141
-0.197295 1.62696 -0.416594
-1.33758 0.926382 -0.488016
-1.18743 0.951025 -0.458782
-1.27196 0.892534 -0.498045
-0.890596 1.07637 -0.333552
-1.05933 1.0126 -0.402388
-1.11218 1.00986 -0.329234
-0.885868 1.0153 -0.486637
-0.983868 1.01626 -0.451354
-0.748504 1.10879 -0.448662
-0.395722 1.40207 -0.372068
-0.573093 1.23012 -0.405057
-0.636828 1.20463 -0.342228
-0.532089 1.31508 -0.0326759
-0.968679 1.06446 -0.14526
-0.759386 1.1626 -0.0832459
-0.758753 1.16306 0.0169928
-0.967349 1.06498 0.0813643
-1.41264 0.881029 -0.488967
-1.36934 0.928194 -0.410375
-1.38607 0.914271 -0.112304
-1.38201 0.92022 -0.277162
-1.43525 0.828421 -0.203792
-1.28043 0.95943 -0.314243
-1.14499 1.00486 -0.2245
-1.36548 0.935383 0.348444
-1.37363 0.871646 0.387158
-1.14331 1.00591 0.164052
-1.27823 0.961362 0.255413
-1.43608 0.831464 0.152835
-1.38419 0.924606 0.225914
-1.38734 0.916025 0.0643996
-1.16008 1.0022 -0.0966365
-1.30222 0.95887 -0.0264561
-1.15978 1.00244 0.0379265
0.73844 2.05824 0.222002
0.760131 2.0507 0.0554936
0.58813 2.04382 0.423777
0.679688 2.06726 0.351682
1.00014 1.94329 0.276572
0.854651 2.00921 0.32355
0.950373 1.9401 0.399013
0.100258 1.6822 0.425329
0.231994 1.78472 0.421403
0.545255 1.71079 0.415824
0.38922 1.75276 0.41712
0.387497 1.58774 0.412074
0.360795 1.90301 0.424752
0.476115 1.98933 0.434557
0.919882 1.45676 0.41212
0.902225 1.5489 0.430812
0.841872 1.37855 0.427842
0.978388 1.84314 0.427332
0.953589 1.70914 0.42407
1.04104 1.77195 0.391132
0.672365 1.49547 0.419087
0.825467 1.61169 0.423125
0.696699 1.66456 0.417369
0.664603 1.94552 0.424952
0.698785 1.82087 0.420031
0.840043 1.89621 0.428254
-0.16945 1.43274 0.430596
-0.0117257 1.58241 0.427521
-0.551599 1.14557 0.427684
-0.349419 1.28617 0.430009
-0.128924 1.21259 0.41548
-0.250261 1.25886 0.423963
-0.314986 1.0883 0.4162
-1.27528 0.800555 0.393879
-1.1383 0.851333 0.406326
-0.875245 0.721246 0.401836
-1.00892 0.782713 0.40337
-1.0424 0.60965 0.395601
-0.959824 0.925494 0.409617
-0.761739 1.0226 0.415932
-0.273956 0.547826 0.408822
-0.413654 0.587531 0.403444
-0.401129 0.460453 0.406203
-0.364524 0.918191 0.409541
-0.398631 0.749304 0.402663
-0.219398 0.869454 0.40724
-0.752991 0.503358 0.396976
-0.580673 0.625496 0.397097
-0.733682 0.669156 0.400385
-0.639373 1.00086 0.417295
-0.695635 0.842141 0.408426
-0.506439 0.964062 0.413722
-1.43114 0.727784 0.360605
-1.35889 0.765049 0.383213
-1.4632 0.665969 0.062475
-1.4523 0.68507 0.231147
-1.40639 0.35849 0.361493
-1.44979 0.516568 0.311458
-1.46021 0.317578 0.257452
-1.3756 0.767956 -0.493087
-1.42481 0.71813 -0.421248
-1.43929 0.309097 -0.316374
-1.43496 0.504955 -0.368541
-1.40176 0.336438 -0.438947
-1.44262 0.679341 -0.285974
-1.46437 0.664311 -0.118657
-1.26995 -0.0719601 0.0686518
-1.35365 -0.0306078 -0.02352
-1.26958 -0.0693439 -0.121222
-1.44914 0.142712 0.189361
-1.41461 0.0291921 0.0988601
-1.40742 0.0197046 0.303066
-1.39841 0.0190608 -0.376944
[...]
POINT_DATA 642
SCALARS Mean_Curvature float 1
LOOKUP_TABLE default
-0.589634
0.827467
0.496838
-0.128011
-0.036406
0.33947
0.8595
0.299265
12.796
13.5191
5.71047
1.3723
-0.393483
12.0905
0.764949
11.2879
9.58168
10.5682
0.368559
12.1947
-0.3178
2.3683
-0.11891
15.7888
-0.185826
-0.100351
4.52547
9.46301
0.18259
0.179048
14.9729
0.141104
1.22226
0.0601223
11.1992
7.66154
-0.300439
17.0489
7.60984
1.19479
1.15056
-0.100221
-0.263044
0.444027
0.711379
9.57999
3.33677
1.99251
11.1584
3.73074
6.67923
0.502286
0.52169
-0.893342
11.9273
0.412945
5.20863
-0.564096
0.488261
0.639126
-0.536608
4.97923
10.6677
12.8822
0.85148
0.474531
-0.254445
4.8822
3.9922
1.28105
3.06061
8.61936
0.00566385
5.62059
1.39021
1.24695
8.03437
12.5075
0.144423
-0.171426
-0.395891
14.5808
-0.901985
0.0255094
0.167864
-0.0825206
0.0248304
0.415885
-0.0628507
-0.0801153
-0.0342199
1.30316
6.02604
6.46013
1.97964
5.42534
1.69621
5.10966
0.872175
1.22165
0.146289
0.658127
0.197324
0.226205
0.321758
0.809675
0.236517
0.248817
10.4605
-0.245794
1.14326
14.39
0.651623
1.83375
0.474609
4.5957
14.6002
2.50385
1.51034
4.84961
-0.0461677
-0.187116
0.447982
0.322154
16.041
0.938661
0.730313
1.6094
-0.275876
0.530686
1.14593
1.26409
1.4347
14.1522
0.595008
1.242
0.645048
0.798283
3.61829
2.07908
12.7686
4.08525
0.767286
0.116972
0.106711
0.118289
0.0968579
-0.111378
-0.130982
-0.223132
2.38547
0.14162
0.378802
-0.241103
8.52674
1.20735
0.434179
0.181896
0.0918595
2.50667
2.4792
12.2954
-0.296482
-0.24535
0.0572172
0.522353
-0.0365151
-0.0356176
0.157975
-0.180126
0.193602
2.07625
15.919
26.0944
6.51115
11.4254
10.3605
1.5517
3.13458
-0.414803
6.97844
12.2221
1.79386
1.55686
12.2185
5.88991
12.7575
12.2994
8.07533
-0.647249
0.778516
1.10313
-1.24512
0.275789
0.760128
1.04679
-0.303834
0.431485
1.98706
-0.200815
5.70317
10.9981
4.34833
2.09538
11.9557
6.91173
-1.40945
-2.03564
2.43754
10.6141
-0.0835559
4.32696
1.93886
0.54501
6.60165
2.01617
17.0135
9.34305
-1.19096
0.0448791
1.9258
0.410685
0.10493
0.971701
0.415417
2.38419
-1.90034
3.2522
0.596601
-0.734328
-0.0229492
10.5345
3.81867
4.1353
0.276229
5.26954
11.5177
4.28436
3.33214
5.38692
12.4369
9.17756
15.3293
0.27382
-0.243664
-0.297981
0.134966
-0.179253
-0.031887
-0.0161197
0.533786
0.992792
11.1615
5.27027
9.45059
8.98915
10.5374
1.16273
19.8445
7.43838
5.13286
-0.44179
3.31135
1.4177
8.21718
6.87084
3.31457
1.15101
1.11533
-0.375566
-0.318263
-0.0701112
-0.199779
-0.205112
-0.0892304
18.4832
7.3318
5.87423
6.27626
3.11653
1.31694
0.20617
12.1859
15.6151
0.189412
1.01636
2.88367
6.66794
6.09639
-0.0178754
1.48587
-0.0256628
1.63288
1.04892
13.0927
5.68163
2.00733
3.2693
10.1526
-0.245752
-0.381816
-0.252327
-0.243711
-0.40361
-0.34691
2.94461
12.5341
4.95012
6.04473
7.31185
2.91451
9.61378
-0.135605
-0.173076
-0.315005
0.850242
-0.270761
2.99628
1.39803
-0.0697216
5.41589
2.785
-0.115475
0.0508958
-0.108699
0.29059
1.22231
-0.0712937
0.0176858
-0.0174322
1.47708
3.68387
-0.0562635
-0.0640124
-0.0424783
-0.0631252
-0.464493
-0.107284
-0.197087
-0.692077
-0.0451433
0.191801
-0.022361
-0.0516262
12.0319
2.03608
0.751175
0.900565
9.44307
6.12945
3.13756
8.27586
5.17754
0.711439
2.30387
6.53955
0.170801
1.19886
4.75479
4.18776
4.56172
2.21698
4.36744
10.2137
5.36407
4.29867
2.14924
0.395355
1.58222
1.1314
1.09723
2.31821
1.78231
1.53021
0.468249
0.400187
0.567582
0.545426
0.398467
0.485678
0.739767
0.366864
1.15477
1.51628
0.351228
0.273476
0.342689
0.272622
0.245812
0.136821
0.211164
0.104293
0.282232
0.797527
0.564039
0.577906
0.501548
0.604845
2.74087
0.745808
0.163601
0.210722
0.190356
1.04091
1.66377
7.18955
1.88311
1.8938
3.76456
12.0727
5.57516
4.35222
10.5559
0.468543
0.545214
0.741241
6.34237
4.91092
10.692
3.08516
4.82442
0.840895
0.962231
1.06279
-0.404528
1.35856
0.941006
0.659628
2.49494
1.47053
2.56597
6.281
13.8736
17.1005
2.43979
8.70981
0.594868
1.51759
12.0441
4.82477
0.103209
0.232174
-0.042208
14.4683
4.09757
8.22444
-0.0698761
0.280388
0.769799
11.1135
10.0126
17.3172
0.68202
1.09234
1.24612
-0.278557
-0.300274
2.35104
0.709719
0.0369837
0.483809
15.0024
1.37538
1.00446
1.85353
18.657
0.648195
0.540668
0.673609
-0.00788062
1.30597
0.882397
11.2578
1.86707
9.22658
3.03164
4.63713
-0.467671
0.595175
-0.359518
0.770435
2.30917
2.75976
-0.136722
1.05502
0.662876
0.494125
3.49315
1.41966
0.94676
1.23332
0.035083
1.15407
0.680648
0.969463
16.8668
1.53149
6.28985
0.178325
1.8962
10.9772
-0.327835
2.75298
2.29592
1.02281
0.947018
1.65184
1.15924
0.64255
0.810452
1.31664
0.760823
0.992942
1.3755
1.10745
0.690894
2.86739
11.8402
11.0711
10.0513
9.45115
3.08106
7.6705
1.53869
1.04943
8.84865
2.75097
14.8062
8.965
7.29455
0.591697
0.837306
0.584443
0.591822
0.850634
5.17689
2.9789
1.16293
1.47487
-0.0794324
0.0135671
0.622315
3.0078
7.48288
0.58797
0.0106176
-0.102256
1.49221
1.1691
0.371308
0.167992
0.364315
-0.0635845
-0.125588
-0.102542
-0.0800672
-1.06453
0.586127
-0.127106
-0.168313
0.208327
-0.13481
-0.181547
-0.100583
-0.108584
-0.10297
-0.443304
-0.129708
-0.0855113
-0.763554
3.56016
4.15432
9.84157
16.1402
2.31341
0.0185448
0.00947402
0.0145197
0.173394
0.845744
0.967239
1.66509
1.36871
0.27564
0.0716515
0.853131
0.176825
0.586468
0.58863
1.93238
0.553592
0.191221
0.0365041
3.16604
15.116
11.9917
1.38016
13.5404
2.86813
0.295468
1.14588
3.03292
2.73514
2.29826
4.41324
-0.0602778
0.554564
0.753438
0.861663
0.955419
0.151686
0.348609
0.145432
0.299263
0.341868
0.438759
0.426097
-0.256596
-0.161822
0.210129
0.139507
0.160766
0.121291
0.124213
3.398
0.331166
0.305056
4.59467
-1.22687
1.83363
-1.56749
3.12503
0.349471
0.332947
0.0962537
12.5728
2.03779
2.04491
12.466
2.37577
-1.25476
-1.35787
SCALARS Redistribution_Potential float 1
LOOKUP_TABLE default
6.0396e-11
-0.838253
10.9085
3.64581
4.15827
-2.71885
6.04151
-1.36874
-0.597726
-1.57072
4.93327
3.57651
4.77451
3.6021
-2.74044
-2.71415
-2.79158
-1.89227
-1.70284
5.1637
5.54152
7.45359
0.140926
-1.29338
7.66659
4.08025
10.9652
9.9328
5.5505
9.32091
-0.745374
1.03181
1.69838
1.78534
3.66833
8.54672
9.39087
10.0166
5.0673
3.10516
2.49307
1.23322
3.71216
2.50074
-1.01015
4.13151
4.03176
3.74038
-3.32314
1.16578
0.57404
-3.59652
-2.0319
-3.11005
-4.39934
-1.54712
-3.54367
-1.28004
-2.90284
-0.422394
-0.730662
-2.84045
-2.13981
-3.54712
-2.20142
3.41776
4.04128
2.09198
2.45397
5.02448
5.2945
5.6112
5.55842
6.28948
5.87654
5.29116
5.06693
-1.30584
-0.438344
-0.602686
-1.22787
-1.35767
-1.27062
-1.0417
3.66564
1.26989
6.37281
5.32139
4.85185
5.9439
6.83403
10.0042
7.77198
9.06758
10.6079
10.457
11.6798
11.2457
7.03149
7.84758
2.81735
5.41785
8.64402
7.55706
6.49236
-0.421814
0.492903
-0.0836569
-0.646951
-0.0109883
-0.635095
-0.670849
2.97431
2.16221
4.07171
-0.0216243
1.0508
0.114195
3.84597
2.22499
3.37094
6.72732
6.5457
6.74532
6.40141
10.9851
9.10564
10.1208
7.63265
4.87343
11.1909
10.1055
5.57519
7.88501
8.52537
3.27524
3.4273
4.93896
3.62394
1.10139
2.20794
1.21348
2.75705
0.417055
1.94937
1.55373
-0.253111
3.38974
1.24099
2.10856
9.48418
8.57991
8.90219
10.1376
10.5637
10.3664
2.46848
4.69411
3.32269
-0.0680439
0.312213
0.0050148
1.389
1.16996
-0.400653
4.19193
3.20295
4.69533
-1.88948
0.578951
-0.224428
3.67685
3.7549
3.35996
3.80111
4.08219
4.18208
4.3174
4.06147
4.34567
-3.11393
-1.64595
-1.58557
-0.954107
-1.43426
-3.22275
2.3543
0.751924
2.6746
3.6478
3.12592
1.77389
-1.7215
-1.01761
-3.52494
-2.59898
-2.67445
-2.72927
-3.2228
-3.01621
-3.73757
-3.98242
-4.03477
-3.09664
-4.1183
-4.07981
-0.9055
-1.35432
-0.872544
-3.15465
-2.43177
-2.45768
-2.01475
-2.35627
-3.42094
-4.27325
-4.26119
-3.91271
-1.39695
-0.175131
-2.80606
-2.35768
-1.0204
-1.94521
-2.64945
-0.611909
-1.02989
-2.61408
-1.72543
-1.28081
-2.04325
-2.71798
-1.81883
-2.68489
-1.84501
-3.14348
-3.15285
-2.1105
-2.26167
-3.15946
-3.15862
-3.18868
-3.44
-3.43858
1.63494
1.52605
0.788222
1.35259
5.22221
3.84404
5.02268
-0.136343
-0.290106
4.12488
2.15076
3.93135
-0.174113
0.211978
4.75577
5.12031
5.10075
5.3947
5.29874
5.35962
5.69281
5.45263
5.22374
2.90888
4.41895
4.73287
3.9776
5.6436
5.25466
5.07309
5.23482
5.13697
5.16003
6.50206
5.99346
7.26932
5.39236
5.60362
3.80874
3.84808
4.89573
4.34133
6.59005
5.02244
6.14931
5.72663
5.90752
5.4779
-0.792926
-0.508733
-1.63413
-1.26836
-0.885263
-1.00638
-1.33974
-1.96518
-1.95012
-0.501967
-0.935304
0.102282
-2.0179
-1.94705
-1.46129
-1.41654
-1.51867
-1.51803
-1.47342
-1.40143
-0.36553
-1.12505
-0.652897
-1.35483
-1.03064
-1.36038
0.718659
-1.10465
3.51114
2.26667
2.91469
2.51175
3.94665
4.68968
4.72452
6.61671
5.88906
7.29581
4.71043
4.32714
4.43966
5.62285
5.31556
4.99899
5.58175
4.73664
7.53007
6.58288
6.8647
4.61896
5.81399
4.92039
6.13734
5.17896
8.89426
7.69538
9.28076
8.7076
10.2378
6.4005
7.41279
11.149
9.84943
10.5022
8.58854
9.20961
10.8525
11.2519
11.1995
10.8961
11.118
10.0865
11.0383
11.5391
11.5752
10.7319
11.6053
11.2913
6.26791
6.04818
6.01387
6.33264
8.86332
7.47107
8.22982
0.362565
2.33001
5.57526
4.20629
4.44246
3.9716
5.23219
7.23919
7.42331
6.2669
8.50372
8.26792
9.24654
6.2274
7.19756
6.56262
6.36588
6.59355
7.4822
-0.952084
-0.683951
-1.10258
-1.15075
1.04442
-0.0500044
0.283025
-0.3453
-0.320335
-0.761831
-0.441803
-0.399161
-0.614225
-0.874852
-0.516175
-0.596231
-0.61187
0.0903147
-0.337742
0.589019
-0.812687
-0.819548
-0.935933
-0.614211
-0.724442
-0.32964
3.35132
3.24795
3.90481
1.83127
2.54026
2.38351
3.83946
2.97902
2.75489
-1.09508
-0.135248
-1.01785
1.23273
0.567023
0.886956
0.963941
0.580227
1.18843
3.99065
3.3538
3.82135
2.75043
2.95595
3.71069
2.64463
2.68346
1.94885
1.54253
1.59034
2.05168
5.33353
4.7641
5.07251
5.34096
8.01816
6.81451
8.25542
5.17278
5.13796
7.70637
6.58616
7.77137
5.02731
4.90177
11.1244
10.6876
10.7643
9.47215
10.2172
10.3845
9.26834
9.68719
8.65046
6.51585
7.84925
8.12433
5.78221
4.25123
8.73818
7.28971
4.98698
6.21041
6.29796
11.2883
11.2815
10.0147
10.7862
10.626
10.794
9.98272
5.84022
6.97224
7.09566
6.38814
6.6934
5.2753
9.37774
8.24743
9.20557
9.04002
9.09457
7.75306
3.89759
3.55158
4.00863
3.99805
3.0275
3.38444
2.79145
5.59899
5.04568
3.30562
4.19276
4.04244
4.51955
4.16272
0.0202245
0.993775
0.0155012
2.21996
1.66948
1.86626
2.18129
1.76579
2.49225
3.32326
2.84476
2.68886
3.27291
2.77361
3.1125
2.88583
2.34581
-0.394194
0.532969
1.62083
1.24126
1.08701
1.51998
2.25228
-0.320925
-1.27435
1.65278
0.771205
0.722882
0.680684
1.42764
2.46247
2.00364
2.2554
4.09008
2.60825
3.47504
4.20425
3.908
-0.730079
0.727088
-0.0013979
0.470412
1.58573
0.00644634
3.11838
1.86812
0.849774
1.07893
2.38367
1.88055
2.95109
10.2428
9.14755
9.65557
9.77214
9.65309
6.84725
8.31966
7.84209
7.86351
8.56632
7.00003
9.40673
8.60024
7.92747
8.34057
9.10506
8.92325
9.32912
8.68367
10.0563
9.52284
9.5662
9.98788
11.1843
10.6377
10.7521
10.8023
10.4612
8.37917
9.94866
9.46073
10.0286
10.6656
10.4247
10.5489
10.4075
0.47598
2.88159
1.76473
1.1777
1.8055
5.70636
5.25995
5.64612
4.88367
3.91819
1.35307
2.13454
2.01082
3.2276
4.4745
3.63381
4.20257
3.05024
-0.983415
0.670803
-0.123028
-0.924412
-0.825798
-0.273691
-0.325574
-0.318333
0.398529
0.859387
-0.0548976
-0.599313
-0.22323
-0.0188469
-0.192358
0.496338
0.177513
-0.0282712
SCALARS CoVolArea float 1
LOOKUP_TABLE default
0.00783362
0.0123619
0.0142879
0.00929735
0.00766121
0.0063212
0.00866529
0.00711517
0.00506762
0.00467256
0.00483304
0.00436957
0.0219407
0.0120309
0.0158781
0.0145824
0.0150912
0.0158454
0.0169294
0.0147194
0.0222757
0.0237218
0.0256856
0.0148718
0.0256244
0.0263194
0.0214597
0.0186923
0.0260907
0.0266445
0.0151971
0.0253406
0.0199857
0.018903
0.0133008
0.0132769
0.0275203
0.0163889
0.0139672
0.0191738
0.0205967
0.0269283
0.0258644
0.0223649
0.0217075
0.0113844
0.0147226
0.0111086
0.00999119
0.0141345
0.0131629
0.0164387
0.0213184
0.0170126
0.0092283
0.026961
0.0153627
0.0246193
0.0172502
0.0224923
0.0256047
0.0160928
0.0111501
0.00968151
0.0166183
0.0226784
0.0263093
0.0158159
0.0148522
0.012282
0.0158237
0.0133669
0.0247331
0.0172307
0.0179989
0.0178439
0.0152997
0.0160382
0.0250602
0.0235279
0.0221589
0.0132252
0.0190622
0.0173718
0.0211045
0.0232787
0.0227771
0.0219905
0.0238752
0.0269296
0.0245848
0.0319221
0.0158872
0.01847
0.0320774
0.0187278
0.0309623
0.0193164
0.022399
0.0227493
0.0245735
0.0225149
0.0257396
0.0260552
0.0248894
0.0211564
0.0241531
0.0256954
0.0168901
0.0188243
0.0179706
0.0144357
0.0217957
0.0158771
0.0214282
0.0132087
0.0114372
0.0152681
0.0143745
0.0126379
0.0202289
0.0225618
0.0243463
0.0185605
0.0147814
0.0279318
0.0231375
0.02426
0.0233466
0.022094
0.0271182
0.0242561
0.0163162
0.0159278
0.0194944
0.0167969
0.0222517
0.0206485
0.0142874
0.015918
0.0127296
0.0151042
0.0243513
0.0218581
0.0245988
0.0244296
0.0212167
0.0257272
0.0240855
0.0267653
0.0153956
0.0229848
0.0224517
0.0230174
0.0148263
0.0226857
0.0240422
0.0249552
0.0269954
0.0229737
0.0234792
0.0193728
0.018351
0.0235936
0.0152417
0.0224996
0.0253831
0.0246357
0.020503
0.0239431
0.0202272
0.00848864
0.0086086
0.00574437
0.0118854
0.0105845
0.0118101
0.0171526
0.0129875
0.0186495
0.00847578
0.0108714
0.0109587
0.0152146
0.011634
0.0113538
0.0125152
0.011979
0.012513
0.0194011
0.0155339
0.018231
0.0199367
0.0146342
0.0163293
0.0201228
0.0193349
0.0202162
0.0160603
0.0117881
0.0115374
0.0114526
0.0120275
0.015625
0.00983368
0.0114063
0.0227825
0.0269205
0.0211968
0.0146801
0.0224123
0.0188151
0.0190787
0.0226875
0.015219
0.0116137
0.0107133
0.0124389
0.0204427
0.0159522
0.0164529
0.0206046
0.0213117
0.0208023
0.0173568
0.0218391
0.0274174
0.0162604
0.0236348
0.0205123
0.0228608
0.0150483
0.00983231
0.0123033
0.012422
0.0123907
0.0105298
0.0121182
0.0156
0.0119927
0.0118711
0.0130766
0.0112389
0.0125492
0.0244019
0.0188501
0.0209313
0.0244649
0.0248539
0.025682
0.0228016
0.0128899
0.0125686
0.0137746
0.0132397
0.0150334
0.0124715
0.0160285
0.00706187
0.0101742
0.00938532
0.0191925
0.0140311
0.0178207
0.0142616
0.0123543
0.0136274
0.0188008
0.0164337
0.0198514
0.0252133
0.0241781
0.0257267
0.0256139
0.0240381
0.00970118
0.0111392
0.0170006
0.0148444
0.0219897
0.0157885
0.0211219
0.00952205
0.00704387
0.0208215
0.0151966
0.0216112
0.0143443
0.0168828
0.0225803
0.0186594
0.0225242
0.0236589
0.0216136
0.015983
0.0195861
0.019072
0.0200413
0.0151753
0.0155939
0.020182
0.0249378
0.0239951
0.0255688
0.0209328
0.0174915
0.00955579
0.0133982
0.00981961
0.0135325
0.0140735
0.0132066
0.0229711
0.0191019
0.0237584
0.0178897
0.0218716
0.0164879
0.0173519
0.0158273
0.0158451
0.016344
0.0252101
0.0216359
0.0248322
0.0141566
0.017517
0.0255892
0.0232115
0.0249479
0.0169883
0.0157995
0.0163036
0.0236793
0.0173106
0.0264805
0.0265484
0.0260294
0.0255382
0.0266907
0.0264459
0.0211511
0.0253505
0.0249094
0.0163699
0.0111668
0.0306513
0.0261515
0.0175618
0.0231609
0.0274114
0.0126468
0.0191595
0.0289518
0.0251918
0.0201513
0.0268148
0.0306936
0.0192981
0.0208422
0.0198897
0.0277563
0.0236234
0.0175046
0.0193674
0.0240167
0.0285739
0.0338164
0.0336046
0.0335741
0.0179638
0.0141565
0.0183643
0.0185296
0.0253495
0.0229537
0.0252577
0.0172685
0.0199321
0.0249843
0.0232755
0.025649
0.0193391
0.0186847
0.0190307
0.0250242
0.017953
0.0262996
0.0267366
0.026448
0.0259024
0.0264346
0.0259165
0.0221535
0.0246331
0.0247742
0.0202206
0.0165554
0.0178781
0.0202079
0.02553
0.0233291
0.0238232
0.0220044
0.0245929
0.0157077
0.0210853
0.0197115
0.0208529
0.0173755
0.0110964
0.0144321
0.0101886
0.0227698
0.0191025
0.0231309
0.0137102
0.014181
0.0132525
0.0179044
0.0161177
0.0206038
0.0164454
0.0205349
0.0171652
0.0175178
0.0200623
0.0214243
0.018064
0.0188862
0.0143185
0.00900501
0.0108818
0.0102594
0.0136344
0.0117617
0.0162365
0.0179673
0.0127331
0.0148482
0.0123128
0.0159527
0.0142423
0.0114858
0.0133494
0.0119646
0.0203985
0.0167717
0.0155836
0.0127576
0.0117267
0.0121179
0.0225708
0.0185083
0.018474
0.0216212
0.0258364
0.023961
0.0259443
0.0148987
0.015865
0.0139904
0.0145533
0.015562
0.0134664
0.0143083
0.0244212
0.0273339
0.0230599
0.0265766
0.0261347
0.0271043
0.0169278
0.0231763
0.0169044
0.0197353
0.0193854
0.0240937
0.02298
0.0178274
0.026202
0.0242118
0.0186574
0.0222041
0.0191087
0.0242218
0.0283045
0.0195857
0.0250869
0.0215813
0.0267392
0.0269228
0.0136966
0.0178673
0.0163137
0.0153503
0.0155447
0.0135208
0.0155908
0.0158112
0.0145984
0.0248247
0.0201279
0.0206456
0.0213277
0.016868
0.0152295
0.0197628
0.0218714
0.0208076
0.0182959
0.0152764
0.0173026
0.0165708
0.0178722
0.020316
0.0151111
0.0128015
0.010725
0.0120131
0.0103142
0.0157603
0.0135856
0.0185825
0.0174308
0.0132486
0.0149474
0.013299
0.0131259
0.0137475
0.021678
0.0235162
0.0233434
0.0232057
0.0233055
0.012623
0.0184914
0.0257826
0.0237294
0.0258056
0.0214306
0.0230758
0.0179525
0.0121139
0.0227503
0.0208789
0.0256044
0.0233812
0.0257177
0.0250284
0.0254776
0.0249637
0.0213984
0.0233127
0.0235261
0.0249844
0.0265005
0.0152289
0.0254208
0.0215023
0.0191771
0.0218024
0.0234418
0.0264893
0.0262048
0.0260982
0.0265603
0.0252766
0.0264104
0.0266143
0.0211384
0.0144002
0.016268
0.015237
0.0151466
0.0215477
0.0249379
0.0238905
0.0206466
0.0176587
0.0189547
0.0176321
0.0184535
0.0231116
0.0247366
0.02034
0.0240219
0.020504
0.0225848
0.0176191
0.0203824
0.0246462
0.0263118
0.0231897
0.0163879
0.0161944
0.0199978
0.0166564
0.0196565
0.0259595
0.0238678
0.0199067
0.0183939
0.0187422
0.0189321
0.0242849
0.0171997
0.0218057
0.0202451
0.0223949
0.025418
0.0221369
0.026014
0.0248703
0.0230999
0.0227219
0.0244112
0.0267053
0.0266983
0.0267454
0.0265287
0.0247235
0.0261939
0.0261829
0.0166786
0.0260314
0.022855
0.0177312
0.0181529
0.0177595
0.0187685
0.0189401
0.0235182
0.0261467
0.0264912
0.0179709
0.0217838
0.0220385
0.0183755
0.02483
0.0219001
0.0216424
SCALARS SignedDistance float 1
LOOKUP_TABLE default
0.0748689
0.0342473
0.0469956
0.047801
0.232216
0.097279
0.0457048
0.0435132
0.0258923
0.0262184
0.0120725
0.0758254
0.0660594
0.0242833
0.0539071
0.0338268
0.0249926
0.0223999
0.0539214
0.0157986
0.0651422
0.0321287
0.368521
0.0226594
0.457749
0.350793
0.051099
0.0529951
0.0546933
0.0443791
0.0225925
0.0547476
0.0321911
0.144792
0.0185671
0.062969
0.0422374
0.0187418
0.0198448
0.0413138
0.0314258
0.0475431
0.0759263
0.0597519
0.0578262
0.0325402
0.0339788
0.0311344
0.0318757
0.0380497
0.0393591
0.0399041
0.053023
0.145894
0.025618
0.0401256
0.0321587
0.0558401
0.0394788
0.0575415
0.054342
0.030981
0.0272484
0.0250912
0.0422654
0.0585831
0.0758268
0.029773
0.0363188
0.0273098
0.030407
0.00919986
0.065715
0.034111
0.0343368
0.0351071
0.0334086
0.0303478
0.0276866
0.308328
0.197999
0.0250053
0.166444
0.121732
0.118331
0.184369
0.240778
0.12631
0.415616
0.338606
0.369909
0.0401943
0.0849432
0.030569
0.0386161
0.0449579
0.0205747
0.0418256
0.0366341
0.0312943
0.0545753
0.0423755
0.0474616
0.0456431
0.0484015
0.0452027
0.0551605
0.0274772
0.020483
0.0387605
0.0382414
0.0161209
0.0375254
0.0303921
0.0381245
0.0535567
0.0245562
0.0403839
0.0752041
0.0453622
0.200196
0.0396484
0.0360486
0.139621
0.0214878
0.0122321
0.0256145
0.0171659
0.0414279
0.0375306
0.0187001
0.0278229
0.0247004
0.0158222
0.0320234
0.0299055
0.0371029
0.0429911
0.0189701
0.0390913
0.0151434
0.027147
0.0385695
0.0388845
0.053225
0.0534575
0.0386719
0.380447
0.250152
0.456666
0.0811169
0.267014
0.253525
0.0515695
0.0205106
0.0323775
0.0535786
0.0534991
0.0599069
0.0251482
0.024356
0.024683
0.0756476
0.0732153
0.0685221
0.0594293
0.0687005
0.0677906
0.0593577
0.0673914
0.0583893
0.047794
0.0218469
0.0262681
0.0313447
0.0255586
0.024882
0.0318427
0.0280194
0.0592738
0.053744
0.0329561
0.0783947
0.0489181
0.0308597
0.0431197
0.023633
0.0250883
0.031407
0.0720669
0.0515865
0.0516934
0.0749249
0.064216
0.0463944
0.0491095
0.0435888
0.052347
0.0454442
0.111737
0.060342
0.0359459
0.0634978
0.0851707
0.0292008
0.0394908
0.0600568
0.0524922
0.0472987
0.0269285
0.0423097
0.0340595
0.0414918
0.0380677
0.0370795
0.0407991
0.0162483
0.0295355
0.0748322
0.0687263
0.0450715
0.0523236
0.0590752
0.0487643
0.046065
0.0470213
0.0527969
0.0347328
0.038018
0.0371131
0.0422663
0.0262363
0.0364138
0.0356094
0.0435452
0.0391884
0.0232959
0.0435178
0.0331585
0.0316363
0.020442
0.0288262
0.0178475
0.0406194
0.0731224
0.0756809
0.0579352
0.0670716
0.0674872
0.0681517
0.0583631