# vtk DataFile Version 4.2
vtk output
ASCII
DATASET POLYDATA
POINTS 642 double
-0.270896 1.60942 -0.0379934
0.593911 2.03946 -0.0302967
-0.990538 0.0739926 -0.0439673
0.123013 0.437155 -0.0393365
-0.266745 0.590546 0.377283
-0.0214995 1.56444 0.40424
-0.298648 0.569625 -0.509142
0.00525555 1.56843 -0.505362
0.726904 1.29025 -0.407369
0.732569 1.28065 0.33082
-1.15764 0.817707 -0.411779
-1.12558 0.851608 0.300304
-0.789508 1.14091 0.120205
-0.576235 1.1418 0.350899
-0.162399 1.71065 0.268323
0.341736 1.94545 0.320997
0.10659 2.05726 -0.0340192
0.356871 1.95654 -0.410631
-0.153733 1.7012 -0.340458
-0.572397 1.11478 -0.439456
-0.787462 1.13211 -0.20604
-1.33043 0.807839 -0.0450745
0.392775 1.45997 0.384438
0.822423 1.74994 0.214178
-0.72566 0.680888 0.353845
-0.156219 1.05273 0.391836
-1.22946 0.376439 -0.28694
-1.17982 0.412938 0.159544
-0.158583 1.04103 -0.523703
-0.795135 0.626197 -0.50638
0.832549 1.76096 -0.289785
0.428894 1.488 -0.51447
0.498676 0.821103 0.166768
0.263537 0.904047 0.374397
-0.049883 0.392933 0.275768
-0.679043 0.241101 0.262928
-0.439788 0.145195 -0.044597
-0.718653 0.21701 -0.382941
-0.0678231 0.403356 -0.359498
0.256955 0.908896 -0.489465
0.491557 0.823602 -0.243851
0.841596 1.32317 -0.0338614
-0.483348 1.37303 0.0308004
-0.442756 1.39155 0.187903
-0.225582 1.66573 0.0947686
-0.906005 0.964156 0.335493
-0.705866 1.14534 0.2648
-1.05465 0.98777 0.240747
-0.0959468 1.6693 0.376917
-0.364977 1.40216 0.318279
-0.258692 1.38675 0.387073
-0.0124077 1.94403 0.150909
-0.105871 1.83571 -0.036842
0.139523 1.74872 0.388268
0.0722608 1.92111 0.319686
0.365096 2.08732 -0.032148
0.225736 2.06587 0.176689
0.502485 2.03343 0.161995
-0.00916527 1.93809 -0.221818
-0.223826 1.66152 -0.171615
0.505562 2.0356 -0.228903
0.227933 2.06253 -0.244798
-0.0756074 1.66353 -0.455779
0.0861607 1.92144 -0.398124
0.174999 1.77365 -0.495336
-0.437127 1.38073 -0.267254
-0.482303 1.3701 -0.113812
-0.240045 1.36396 -0.471374
-0.355084 1.38457 -0.389077
-1.05306 0.966062 -0.323618
-0.70396 1.12716 -0.344871
-0.916656 0.930172 -0.433519
-0.816548 1.13348 -0.043793
-1.28009 0.811846 -0.272733
-1.13089 0.97656 -0.142526
-1.13267 0.983351 0.0543802
-1.25873 0.825942 0.17354
0.608408 1.87794 0.288413
0.742411 1.94684 0.0944567
0.158717 1.53028 0.394867
0.394305 1.71824 0.37126
0.803736 1.49974 0.29226
0.637663 1.63144 0.347983
0.613958 1.36732 0.377483
-0.379547 1.11244 0.393311
-0.0835023 1.33177 0.401355
-0.967695 0.769109 0.33604
-0.688976 0.917041 0.37637
-0.222059 0.783271 0.385343
-0.446332 0.85459 0.38435
-0.465248 0.618569 0.369412
-1.33794 0.588296 0.0702815
-1.17685 0.667935 0.244967
-1.23912 0.61949 -0.381062
-1.35967 0.575297 -0.170782
-1.1087 0.188291 0.0565692
-1.28353 0.352573 -0.0483208
-1.12803 0.171339 -0.158013
-0.718432 0.876241 -0.494179
-1.02315 0.713355 -0.479371
-0.0648822 1.31615 -0.515445
-0.382793 1.08593 -0.500863
-0.536107 0.582456 -0.514121
-0.48713 0.828924 -0.520196
-0.244399 0.780745 -0.524654
0.436297 1.75588 -0.492316
0.204063 1.54677 -0.521209
0.744885 1.94847 -0.158142
0.627362 1.89356 -0.378665
0.623876 1.39164 -0.481605
0.670228 1.66732 -0.456717
0.809989 1.51325 -0.372788
0.312965 0.59758 0.0577552
0.253677 0.598025 0.241911
0.0522062 0.396498 0.117261
0.541146 1.10872 0.358414
0.414257 0.845002 0.311956
0.648671 1.06963 0.26488
-0.167729 0.475577 0.361022
0.14006 0.633964 0.345753
-0.0383913 0.712299 0.382988
-0.262537 0.226557 0.133178
-0.122306 0.280457 -0.0430309
-0.445212 0.424551 0.348541
-0.374568 0.268693 0.27737
-0.753965 0.0673929 -0.0446027
-0.585021 0.13546 0.138126
-0.876045 0.114641 0.120702
-0.271069 0.232737 -0.219751
0.04383 0.401591 -0.20048
-0.894224 0.0973652 -0.222862
-0.594754 0.133688 -0.230086
-0.191578 0.468618 -0.464254
-0.401121 0.266977 -0.373855
-0.502493 0.388708 -0.470525
0.241114 0.605686 -0.322636
0.308866 0.600299 -0.138015
-0.0430299 0.713842 -0.506013
0.123504 0.643699 -0.442727
0.63959 1.07213 -0.337892
0.403328 0.849734 -0.401941
0.530404 1.11637 -0.455699
0.520392 0.821144 -0.0386428
0.815345 1.31056 -0.25776
0.691904 1.06397 -0.142391
0.695403 1.06356 0.0698785
0.820985 1.30792 0.190733
0.0584343 0.981742 0.38656
0.347104 1.1842 0.385921
0.127287 1.26164 0.390723
-0.948918 0.295884 0.222885
-0.722261 0.449191 0.321101
-0.973664 0.534826 0.284361
-0.798059 0.392178 -0.469803
-1.00609 0.249825 -0.363072
-1.05666 0.467143 -0.444642
0.355284 1.1922 -0.511036
0.0619406 0.981012 -0.521638
0.150707 1.26035 -0.523704
0.899164 1.56845 0.0929802
0.899339 1.56987 -0.157893
0.888073 1.78854 -0.0314163
-0.333763 1.53104 -0.0120038
-0.328135 1.53529 0.0596622
-0.25652 1.62816 0.00656457
-0.606051 1.25293 0.151355
-0.468559 1.38097 0.108936
-0.628571 1.24582 0.0730467
-0.193808 1.69657 0.184868
-0.31064 1.5469 0.146257
-0.285177 1.55853 0.228034
-1.04879 0.89578 0.323174
-0.990207 0.975411 0.299101
-1.12363 0.905337 0.291011
-0.646314 1.14367 0.314435
-0.826323 1.04736 0.305064
-0.746132 1.04208 0.342118
-0.935038 1.05813 0.176969
-0.88741 1.05477 0.252403
-0.754476 1.14477 0.19845
-0.0516388 1.60788 0.399971
-0.168075 1.53967 0.385183
-0.102454 1.51127 0.402818
-0.252576 1.56287 0.299611
-0.21408 1.55666 0.351131
-0.129253 1.70155 0.334601
-0.411093 1.26217 0.36731
-0.318403 1.39899 0.357787
-0.47329 1.26474 0.333347
-0.571481 1.25975 0.225502
-0.526318 1.26348 0.287616
-0.407635 1.39984 0.260315
-0.163037 1.755 0.0363438
-0.215006 1.68388 -0.0376055
-0.0810884 1.8399 0.219658
-0.119195 1.8089 0.126465
-0.00231771 1.96912 -0.0354452
-0.0565407 1.90225 0.0527138
0.0491898 2.01603 0.0653482
0.0376338 1.63321 0.401411
0.0180422 1.72922 0.390263
0.20112 1.94984 0.32621
0.109717 1.85019 0.36618
0.240742 1.85562 0.36378
-0.0114791 1.80521 0.35642
-0.0440906 1.83993 0.301656
0.508293 2.06326 -0.0309801
0.436456 2.0706 0.069915
0.564295 2.04422 0.0470471
0.163691 2.07593 0.0728905
0.294581 2.0883 0.0756219
0.227592 2.09213 -0.0329743
0.4283 2.00187 0.253909
0.364879 2.05958 0.175601
0.289004 2.02167 0.262343
0.0308293 1.95364 0.246662
0.151413 2.01091 0.260533
0.0991981 2.03217 0.168511
-0.162397 1.75263 -0.111275
-0.255991 1.62689 -0.0828977
0.0504735 2.01237 -0.134752
-0.0555301 1.89921 -0.125115
-0.189399 1.68917 -0.260169
-0.116931 1.80346 -0.200412
-0.0753482 1.83192 -0.291457
0.564982 2.04463 -0.10928
0.436987 2.07037 -0.133833
0.294886 2.02343 -0.338131
0.367157 2.05958 -0.243196
0.43577 2.00758 -0.331006
0.295402 2.08651 -0.141103
0.164756 2.07264 -0.140035
-0.0263775 1.60921 -0.491875
0.0442315 1.73626 -0.480864
0.0698901 1.64813 -0.505834
-0.033798 1.83243 -0.3731
0.00592883 1.80127 -0.435195
-0.116297 1.69304 -0.405921
0.269947 1.88006 -0.464499
0.135203 1.86345 -0.456919
0.217082 1.95788 -0.411723
0.10234 2.02642 -0.237464
0.157957 2.00877 -0.333707
0.0376831 1.94793 -0.317407
-0.32699 1.53164 -0.139275
-0.333569 1.53004 -0.0661122
-0.277915 1.54763 -0.303231
-0.307138 1.53975 -0.225082
-0.6269 1.24052 -0.158235
-0.465663 1.37449 -0.191415
-0.602791 1.24317 -0.23443
-0.0818788 1.50102 -0.494499
-0.147436 1.52563 -0.464424
-0.466734 1.24288 -0.410967
-0.304732 1.37836 -0.433304
-0.399748 1.23595 -0.451953
-0.199775 1.54295 -0.421657
-0.241445 1.54959 -0.369671
-1.13514 0.879849 -0.385103
-0.993129 0.950438 -0.38687
-1.07517 0.86057 -0.429046
-0.751976 1.13077 -0.281039
-0.88438 1.03596 -0.332777
-0.931321 1.04396 -0.260667
-0.748228 1.01167 -0.434065
-0.824377 1.02465 -0.3892
-0.644525 1.12212 -0.396454
-0.399237 1.38491 -0.334401
-0.520995 1.24511 -0.363366
-0.566791 1.24519 -0.304419
-0.487524 1.36956 -0.0412828
-0.809084 1.13237 -0.125559
-0.638739 1.23942 -0.0810618
-0.639212 1.24108 -0.00453111
-0.810095 1.13643 0.038267
-1.21499 0.816297 -0.368495
-1.19258 0.894829 -0.307211
-1.25722 0.897618 -0.0988289
-1.23581 0.897453 -0.205782
-1.31941 0.807861 -0.161161
-1.10132 0.974038 -0.238106
-0.964663 1.04758 -0.17668
-1.18746 0.911637 0.216455
-1.18474 0.842435 0.26023
-0.967283 1.05562 0.0896104
-1.10475 0.98855 0.151766
-1.30999 0.813818 0.0694554
-1.23347 0.905825 0.116852
-1.25674 0.900193 0.0099602
-0.981797 1.04954 -0.0886272
-1.14105 0.978941 -0.0443432
-0.982659 1.05207 0.000437182
0.63077 1.99908 0.134332
0.658927 2.01175 0.0190474
0.476785 1.91866 0.30814
0.56365 1.9698 0.23562
0.796207 1.86109 0.159253
0.691139 1.92376 0.204535
0.728007 1.82254 0.257701
0.0453763 1.55421 0.402723
0.153723 1.63971 0.394505
0.398643 1.5905 0.379452
0.275846 1.62197 0.38612
0.275478 1.49801 0.388039
0.265449 1.74211 0.380161
0.376592 1.84018 0.354976
0.768322 1.36516 0.322241
0.721062 1.43638 0.350089
0.699629 1.31425 0.35784
0.741944 1.6992 0.296787
0.738875 1.57076 0.32602
0.822303 1.62623 0.256987
0.507351 1.4166 0.382467
0.630235 1.49864 0.366545
0.518438 1.54937 0.373955
0.506736 1.80698 0.342152
0.519027 1.68046 0.361355
0.631665 1.76012 0.324197
-0.175826 1.36208 0.401258
-0.040591 1.48266 0.405326
-0.486028 1.13349 0.379572
-0.32695 1.24728 0.391463
-0.120788 1.19042 0.39639
-0.226173 1.22116 0.398756
-0.267236 1.08455 0.394819
-1.07266 0.819627 0.321185
-0.949823 0.87192 0.347458
-0.713856 0.798439 0.3682
-0.835465 0.835374 0.361186
-0.849834 0.721716 0.345212
-0.804258 0.944962 0.36199
-0.646711 1.03166 0.369969
-0.253374 0.656708 0.381299
-0.340667 0.693525 0.379846
-0.33613 0.599643 0.375424
-0.300585 0.951606 0.390083
-0.326244 0.820018 0.384968
-0.189673 0.917293 0.388318
-0.596968 0.646496 0.362068
-0.462629 0.72968 0.376719
-0.589108 0.763688 0.372911
-0.535865 1.01 0.385798
-0.56888 0.886423 0.382289
-0.418358 0.982645 0.390558
-1.2358 0.746487 0.216347
-1.15264 0.785091 0.283263
-1.36037 0.697418 0.0137595
-1.31308 0.715815 0.125242
-1.18764 0.538634 0.203863
-1.26815 0.621352 0.169906
-1.27286 0.492916 0.119206
-1.20193 0.745539 -0.408089
-1.2801 0.716936 -0.333795
-1.31008 0.468048 -0.232806
-1.31304 0.591319 -0.288383
-1.24729 0.494683 -0.339373
-1.3401 0.700333 -0.226984
-1.36836 0.693082 -0.10672
-1.04381 0.10396 -0.00414964
-1.1353 0.166337 -0.0467461
-1.05008 0.09866 -0.0874083
-1.24963 0.372615 0.0652514
-1.20314 0.26174 0.00899161
[...]
POINT_DATA 642
SCALARS Mean_Curvature double 1
LOOKUP_TABLE default
0.0913601
3.07491
6.83672
1.30815
0.86506
2.03538
1.88268
2.34936
5.57831
7.77916
6.75046
7.71323
0.733424
4.60209
3.18625
4.40424
3.96945
4.20044
3.08941
2.95255
0.968162
4.66982
0.170372
4.97693
0.384408
-0.0276788
3.67595
2.85637
0.562344
1.16781
4.75771
0.806632
2.49893
1.70551
4.98568
3.61664
1.83941
3.41935
3.46889
2.13573
2.33337
1.35072
0.19111
1.19369
0.458992
5.91174
3.26106
5.20306
7.13511
4.56285
4.41226
2.80787
0.601725
1.88298
6.74297
1.93841
4.90271
3.44832
2.74686
0.666691
2.73669
4.2483
4.72016
5.48408
2.86949
1.44438
0.324942
2.68892
3.17892
3.4152
2.59683
3.62938
0.312641
4.92378
1.92133
2.05066
6.01399
4.0072
4.38038
0.125295
0.918805
5.49539
1.83927
2.24249
1.36965
0.509319
1.60369
1.68876
0.118348
0.195266
0.34797
5.0941
2.54294
4.44192
4.61741
4.55396
4.34233
4.52702
1.74544
2.69721
0.942291
1.52471
1.04253
0.799905
0.654532
2.1818
0.755106
3.80025
4.2957
2.62502
3.26629
4.47822
1.59451
4.15974
1.79622
3.70579
4.75706
4.31976
3.40802
4.19084
0.96765
2.69669
1.41457
1.84395
4.79849
3.11067
3.4833
4.89796
2.37562
1.8243
4.09731
2.47095
3.16506
3.48742
2.27384
3.15736
1.59972
1.60529
3.21542
3.2293
3.64434
3.07974
1.18946
3.0662
1.20637
1.11566
3.46336
0.0561796
0.495478
-0.127406
2.09799
0.996167
0.741532
1.9438
3.62324
2.72182
1.13292
0.756272
0.395707
3.20622
2.83413
4.56559
-0.000360408
0.0795063
0.127019
0.651566
0.453047
0.038923
1.3173
0.493237
1.60643
7.38642
6.70123
11.8626
4.37902
5.13165
5.11142
1.58685
3.55172
1.77109
3.78017
6.20667
3.21411
3.81858
6.126
5.96985
4.78366
5.48807
4.8945
1.91075
3.63281
2.677
0.362673
0.260156
2.50318
0.850425
2.15413
1.42715
3.46457
1.85186
4.46083
5.10131
4.40866
2.59211
7.174
5.53378
2.14512
2.22387
2.99415
4.39401
3.10907
3.44028
4.51916
3.94649
5.33198
5.5718
6.3688
5.1598
0.467253
0.19447
3.37886
1.50055
1.61806
1.04163
2.43545
2.73256
1.98877
4.3787
3.24959
3.58007
2.90274
4.16632
3.32017
3.7681
2.43029
4.32684
4.8654
4.56873
3.66735
4.40936
5.05754
4.62272
5.387
4.74293
0.27289
0.0499486
1.87593
0.85174
0.247377
0.720117
0.889786
2.5696
3.72662
3.18761
3.30913
2.88169
3.93135
3.13617
6.3252
4.04112
5.3907
1.77394
2.53455
1.56411
3.08288
3.15995
3.0495
2.40325
2.72414
1.8138
0.173433
0.498989
-0.073274
-0.146221
0.343796
6.71303
5.16489
3.4784
3.93763
4.46222
2.46492
0.906596
7.72153
7.65083
0.715979
3.03743
5.23511
4.96129
3.75795
0.620369
1.76234
0.537124
4.17452
3.57467
3.94266
4.65758
5.08759
4.92621
4.42388
0.78842
0.624653
0.331149
0.282425
-0.0026827
0.971577
2.28138
7.20896
4.42655
6.06736
3.54815
3.60892
4.88458
0.672804
1.7995
0.707716
2.20935
1.12044
2.59931
1.94711
1.25064
3.31312
2.77273
0.14971
0.922428
0.349309
4.46201
3.75903
0.65658
1.65199
0.653049
3.81569
3.47284
0.462542
0.188639
0.569578
0.102425
0.0481584
-0.04898
0.304938
0.155072
0.274504
1.62963
0.615515
0.533939
4.51701
4.74748
5.34711
5.34274
2.5406
4.00955
3.98733
6.0632
5.14386
4.18899
4.50603
3.90881
4.7885
4.89512
6.68332
5.0351
6.38202
3.94444
4.23919
3.40974
3.84769
4.28959
4.05747
4.98212
4.55071
4.71524
3.33746
5.20094
2.42927
2.59265
1.64794
1.95927
1.20098
1.49905
1.74491
0.909136
1.26686
0.699296
2.07546
2.2867
1.4639
0.87965
1.30916
0.912444
0.768984
1.001
0.53919
0.620653
0.679284
1.68121
1.07652
1.18108
1.56825
1.48564
3.2363
2.28879
0.623089
1.21842
1.31478
3.3513
3.43733
4.62782
4.15778
4.44797
3.83726
3.99446
4.81209
4.2037
5.35954
1.7808
2.72219
1.37412
4.57041
4.2495
4.48201
3.41707
3.96918
2.51213
1.48878
1.80272
1.30017
3.33952
2.47346
1.82321
3.13917
2.8045
4.29497
6.06599
5.10883
6.78108
3.51636
4.25032
2.47515
3.1542
4.57751
4.21879
1.47053
1.97486
0.881902
5.21477
4.09372
5.52939
1.2236
2.32076
2.81874
4.69869
4.48531
4.9876
1.63124
1.34365
3.84388
2.34336
1.59064
1.63649
2.08674
1.1369
2.48792
4.2531
3.60008
2.74811
4.67495
5.13268
5.5812
4.52714
6.47404
2.07609
3.14455
2.24333
4.21211
4.38827
4.47433
4.10486
4.32356
3.11217
1.67814
1.34374
2.02496
1.63762
2.73543
2.23758
2.96812
5.82674
3.74906
3.21567
3.20311
3.6653
2.53422
1.74325
2.40555
2.79912
2.05868
3.53656
3.51202
3.71584
2.87443
3.11281
3.40469
2.42752
3.09231
3.09617
1.93609
1.52451
3.32144
2.64656
1.75749
2.2146
2.79688
1.76064
2.39725
2.70827
2.40622
1.84285
3.08973
3.55997
5.00308
3.76045
4.69421
3.26025
3.48053
2.54774
2.54507
3.45681
3.08273
3.60268
3.50815
3.549
1.39246
1.46769
1.2537
1.25006
1.46939
5.18367
3.54393
1.31566
1.98923
1.7742
2.12871
1.60057
4.18876
7.12916
1.68249
2.28502
1.76005
2.00222
1.29102
1.07656
0.852944
1.063
0.369272
0.593336
0.400908
0.0258131
-0.186461
3.01416
0.180484
0.957584
1.62159
0.954832
0.214314
-0.132631
0.00988798
-0.0989354
-0.22841
0.194656
0.0228065
-0.239421
5.20303
2.68533
3.54215
3.30766
2.25191
0.83686
0.542182
0.638769
1.36893
2.02518
1.98789
1.64503
1.28546
0.739312
0.429655
1.40593
0.648665
1.25258
1.56369
2.78716
1.99789
1.36552
1.40686
4.86829
3.61346
4.02794
4.00113
3.51839
3.87813
1.70482
2.38697
3.54163
3.57277
2.9314
3.2701
2.1732
3.00331
1.58869
2.00226
1.60312
0.833071
0.957741
0.512502
0.683572
1.13687
1.30769
0.620497
0.468121
0.376987
0.474637
0.455882
0.893181
0.523352
0.609243
5.08635
1.90092
2.87321
4.61735
4.81131
3.98057
4.17377
3.72893
2.49993
1.83347
3.84581
5.03194
4.51865
4.22521
4.54565
2.61374
3.85656
4.0978
SCALARS CoVolArea double 1
LOOKUP_TABLE default
0.00401066
0.00584965
0.00477835
0.00568315
0.00380562
0.00439278
0.00540136
0.00531664
0.00479975
0.00426784
0.00465614
0.0038871
0.0160463
0.0114721
0.0139969
0.0138938
0.0137088
0.0136521
0.0139613
0.0133045
0.015765
0.0136131
0.0158818
0.0137024
0.0152026
0.0160774
0.0146596
0.0146742
0.0163311
0.0159488
0.0141591
0.0161791
0.0149502
0.0151017
0.0132749
0.0137469
0.0155287
0.0141661
0.0142557
0.0148068
0.015066
0.01575
0.0157874
0.0162765
0.013868
0.0103357
0.0128747
0.0128702
0.0103275
0.0118604
0.012793
0.0145789
0.0145856
0.0133637
0.0118755
0.0149668
0.0136222
0.0138693
0.0146315
0.0139313
0.0146123
0.0140167
0.0117422
0.0128314
0.0140765
0.0158625
0.0159025
0.014118
0.0127091
0.0135095
0.0132857
0.0126822
0.0161328
0.0125588
0.0154832
0.0154524
0.0108022
0.0143828
0.0137312
0.0135705
0.0156099
0.0114002
0.0151363
0.0136343
0.0155945
0.015323
0.0129761
0.0147395
0.0136916
0.0161668
0.0135141
0.0143347
0.0126741
0.0131862
0.0150515
0.0129101
0.0146143
0.0134692
0.0152094
0.01448
0.0163022
0.0155735
0.0156005
0.0164966
0.0156189
0.0151282
0.0154018
0.0141849
0.0141386
0.0141634
0.0143724
0.0125895
0.0152877
0.0139211
0.0148777
0.0126945
0.0117351
0.0128918
0.012988
0.0131739
0.0145557
0.0152366
0.0155226
0.0139407
0.0133165
0.0147227
0.0141371
0.0127548
0.0153253
0.0150654
0.0139988
0.0149548
0.0132743
0.0143633
0.0143566
0.0145125
0.0154141
0.0150131
0.0137931
0.0137901
0.0131506
0.0136759
0.0157176
0.014255
0.0161268
0.016161
0.0140467
0.0160582
0.016448
0.0166076
0.0148755
0.0152223
0.0150626
0.014977
0.0145638
0.0144688
0.0160795
0.0159121
0.0167946
0.0142891
0.0146235
0.0142015
0.010529
0.0145901
0.00873627
0.0157967
0.0168634
0.0159917
0.015071
0.0163916
0.0156657
0.00767288
0.0100852
0.00777373
0.0111342
0.0108884
0.0110823
0.0152398
0.0128948
0.0149658
0.00802039
0.0106414
0.00963114
0.013359
0.0108591
0.0114414
0.0118052
0.0108779
0.0106812
0.0144644
0.0122869
0.0144614
0.0132215
0.00901132
0.014599
0.0149918
0.0146545
0.0150245
0.01404
0.00888534
0.0113318
0.0131924
0.0127266
0.0143663
0.0111876
0.0124486
0.0111614
0.0141535
0.0108255
0.0136253
0.0145993
0.0142429
0.0133522
0.014093
0.0133841
0.013118
0.0127714
0.0133466
0.0132782
0.00888092
0.0140709
0.0150259
0.0149078
0.0149565
0.0146461
0.0111153
0.0144071
0.01397
0.0147167
0.0142192
0.0147613
0.0137254
0.00899146
0.0123437
0.0100782
0.0132215
0.0124801
0.0123591
0.0138535
0.0133184
0.0132433
0.013551
0.0133063
0.0136181
0.0147445
0.0106692
0.0152615
0.0162096
0.0159145
0.0167302
0.0155102
0.0107332
0.0122961
0.0123641
0.012894
0.0134618
0.0123404
0.0134582
0.00911655
0.0118709
0.00941153
0.0146872
0.0133692
0.0149588
0.0130439
0.0125218
0.0126238
0.0142068
0.0127982
0.014264
0.0147404
0.016107
0.0156678
0.0156475
0.016192
0.00868305
0.0123548
0.0139724
0.0137234
0.0136277
0.0150485
0.0158371
0.0111056
0.00715819
0.016041
0.0149273
0.0127004
0.0129334
0.0137673
0.0160355
0.0155503
0.0160819
0.0133671
0.0107474
0.0139891
0.0136122
0.0138137
0.0137643
0.0142837
0.00906651
0.0126582
0.0156846
0.0147636
0.015262
0.0148009
0.0150584
0.00809835
0.0117524
0.00870876
0.0141334
0.0133072
0.0125308
0.0155169
0.014644
0.0157255
0.0152807
0.0157671
0.0151909
0.0141139
0.0103066
0.0137638
0.0143076
0.0160283
0.0155665
0.0161357
0.00847604
0.0114036
0.0152639
0.0140618
0.0146378
0.0126626
0.0131675
0.00856454
0.0126173
0.0085406
0.0161457
0.0154386
0.0155068
0.015033
0.0152655
0.0156765
0.0151492
0.0158047
0.0161236
0.0109746
0.00803903
0.0142225
0.0130929
0.0145003
0.0137757
0.0145037
0.00923523
0.0124672
0.0149763
0.0144906
0.0141748
0.0144082
0.0146988
0.00891875
0.0122285
0.00922584
0.0143929
0.0138516
0.0141541
0.0146468
0.0142425
0.0149556
0.0146947
0.014909
0.0145266
0.0132608
0.00992212
0.0142663
0.014107
0.0156048
0.0150892
0.0157987
0.011928
0.0149173
0.0161751
0.015713
0.0162855
0.0147984
0.0145904
0.0113602
0.0153344
0.0112317
0.0161679
0.0165632
0.0158888
0.0161356
0.016641
0.0163958
0.0153041
0.0160298
0.0159136
0.014136
0.0110592
0.0141711
0.0148101
0.0160762
0.0154534
0.0158419
0.010949
0.0140228
0.014184
0.0143809
0.0142685
0.0144393
0.0139
0.00951331
0.0124335
0.00908013
0.0156513
0.0146234
0.015711
0.0133483
0.0133908
0.0137671
0.0142246
0.0140383
0.0149845
0.0113164
0.0146179
0.0108281
0.0142368
0.0154085
0.0152668
0.0147132
0.0151743
0.0135553
0.00866968
0.0107421
0.00889893
0.0130623
0.0118429
0.0141906
0.0141259
0.0118471
0.0130881
0.0084106
0.013067
0.00901779
0.0126338
0.0137946
0.0129878
0.0154477
0.0149248
0.0141123
0.0123754
0.0121991
0.0123614
0.0146512
0.011279
0.0145676
0.0153719
0.0155189
0.0155838
0.0154178
0.00884818
0.0126513
0.0133425
0.0140766
0.0144
0.0135331
0.0133053
0.0103161
0.0130205
0.00934004
0.0152653
0.0146633
0.0153745
0.013131
0.013218
0.0130557
0.0140789
0.0135121
0.0147743
0.0147415
0.0111362
0.0154426
0.0155157
0.014952
0.0153481
0.0149901
0.00999489
0.0137984
0.0143405
0.0144746
0.0143115
0.015132
0.0154233
0.00983153
0.0133047
0.0107991
0.0144009
0.0139751
0.0136814
0.0139994
0.0141655
0.0140547
0.0151486
0.0145694
0.0148321
0.0148851
0.0115016
0.0143869
0.0153767
0.0153007
0.0155337
0.0145841
0.0108202
0.0136774
0.0141149
0.0146833
0.0149832
0.013967
0.0137914
0.00991165
0.0123628
0.00985279
0.0139329
0.0131644
0.0145095
0.0143103
0.0130645
0.0136745
0.0136224
0.0132843
0.0135253
0.0147607
0.0156113
0.0153972
0.0153763
0.0156208
0.00969287
0.0139151
0.016062
0.0157214
0.0154659
0.0155046
0.0155415
0.0135738
0.00913523
0.0155634
0.0154127
0.0154414
0.0157035
0.0160671
0.0158744
0.016245
0.0158917
0.0130576
0.0159872
0.0153836
0.0150884
0.0159795
0.0130288
0.0163348
0.0155655
0.0153242
0.0158862
0.0138156
0.0162967
0.0162568
0.015689
0.0162893
0.0164502
0.0167234
0.0164675
0.0124219
0.0143501
0.0139133
0.0141977
0.0148557
0.0128069
0.0151768
0.0146446
0.0147398
0.0148711
0.011997
0.0150098
0.0142942
0.0142837
0.0150247
0.0151496
0.0152887
0.0152357
0.0145281
0.0143521
0.0145969
0.0153566
0.0156662
0.0131884
0.014476
0.0145611
0.014606
0.0144345
0.0130552
0.0155001
0.0148607
0.0138662
0.0140826
0.0144505
0.0142852
0.0148885
0.0137731
0.0153982
0.0153149
0.0157165
0.0163472
0.0146702
0.0161821
0.0157082
0.0154052
0.0155155
0.0157258
0.0166191
0.0167988
0.0169896
0.0164411
0.015941
0.0162608
0.0164625
0.0118172
0.0155137
0.014503
0.0126918
0.0132508
0.0127365
0.0139548
0.013687
0.0148152
0.0155518
0.0136818
0.0139279
0.014069
0.0142472
0.0142642
0.0148419
0.0142032
0.014019
SCALARS SignedDistance double 1
LOOKUP_TABLE default
0.0667248
0.0107145
0.119841
0.0252678
0.313286
0.15465
0.0203367
0.0290839
0.0624631
0.0654685
0.0736552
0.113505
0.0485529
0.0260935
0.0262521
0.11679
0.0200154
0.0677607
0.0197425
0.0345812
0.042075
0.129904
0.435717
0.162838
0.384791
0.383173
0.211866
0.334894
0.040013
0.0157905
0.151317
0.0407069
0.0204951
0.225834
0.0246439
0.163779
0.0231961
0.110089
0.0448891
0.00976338
0.0228942
0.025771
0.0595952
0.0481193
0.0555957
0.0559835
0.0203658
0.0269135
0.041108
0.0205067
0.067508
0.0246767
0.0637081
0.188408
0.0511947
0.0344589
0.044778
0.0297512
0.0215695
0.0528009
0.0287843
0.0473374
0.0314121
0.0527043
0.0127053
0.0381994
0.0567765
0.0363154
0.0203665
0.0447554
0.0255729
0.0535085
0.0535196
0.130236
0.0258793
0.024884
0.116689
0.162158
0.0430651
0.323173
0.337424
0.0695985
0.288583
0.20179
0.188266
0.237911
0.247045
0.189031
0.446424
0.357471
0.442183
0.17726
0.27248
0.114085
0.155502
0.224504
0.231884
0.20706
0.00590774
0.0143356
0.0406507
0.0191178
0.0244908
0.0296971
0.0325796
0.0114237
0.0451458
0.0412226
0.103044
0.0320736
0.0494668
0.0661753
0.0127548
0.0206755
0.0259837
0.117755
0.0752126
0.0120343
0.163169
0.115925
0.282675
0.0212615
0.034748
0.262797
0.0983992
0.0373965
0.0386335
0.128545
0.0285475
0.0213647
0.121078
0.0372593
0.0364825
0.087996
0.0326326
0.0286596
0.013278
0.013678
0.0499176
0.0192686
0.065216
0.0462089
0.0150394
0.0168223
0.0290887
0.0319557
0.0194895
0.425176
0.324406
0.446782
0.324221
0.379641
0.462878
0.0333777
0.143841
0.0564991
0.0321191
0.0361893
0.0471287
0.0354871
0.0360049
0.109033
0.0659741
0.0645571
0.0670128
0.0607706
0.0556701
0.0718949
0.0364791
0.0592974
0.0474677
0.106781
0.040138
0.061995
0.0228879
0.0197471
0.0475939
0.0512278
0.0222253
0.0299511
0.109019
0.0363327
0.111825
0.0251132
0.0177829
0.0189485
0.0528815
0.0190716
0.0222586
0.0454546
0.0229463
0.0346241
0.0544835
0.0518723
0.0454941
0.0581082
0.0291949
0.0249918
0.0132944
0.165979
0.0888612
0.133842
0.120644
0.217559
0.0297002
0.0152593
0.0368639
0.0269386
0.0135411
0.041426
0.0172828
0.0235037
0.0483642
0.0209395
0.0565479
0.0121888
0.0745068
0.0266042
0.0526541
0.0658377
0.0142777
0.0240204
0.0306428
0.053383
0.038817
0.0130521
0.0266135
0.0501536
0.0208671
0.0406962
0.017772
0.0441091
0.0157858
0.0211883
0.0268301
0.00801313
0.0319484
0.0199727
0.0350681
0.0407598
0.0774939
0.0309601
0.0778081
0.0136236
0.0614517
0.0652074
0.0377376
0.0528392
0.0671782
0.049033
0.0519389
0.0209097
0.031418
0.0335166
0.0333682
0.0427874
0.0221791
0.0150416
0.0661274
0.0558818
0.0647943
0.0261327
0.0167179
0.0406355
0.0486742
0.028978
0.0359701
0.0230012
0.0219804
0.0371439
0.0598141
0.0505451
0.07478
0.0762195
0.0540879
0.0965559
0.0478667
0.0447025
0.0424664
0.131746
0.0335199
0.0476198
0.0321653
0.10297
0.0539546
0.0264563
0.127867
0.0336637
0.0420227
0.049327
0.0236565
0.051504
0.0453592
0.0318076
0.135769
0.0861597
0.103227
0.0885952
0.163184
0.215918
0.258343
0.444128
0.369135
0.438337
0.292347
0.217652
0.0587419
0.138402
0.104353
0.230948
0.168451
0.123588
0.318143
0.237879
0.36157
0.252318
0.365397
0.260923
0.146258
0.180757
0.100514
0.121498
0.307587
0.210537
0.284094
0.169446
0.151094
0.28165
0.195256
0.301911
0.106673
0.111554
0.36029
0.440264
0.360079
0.364229
0.455013
0.457842
0.463047
0.459272
0.370557
0.172664
0.2691
0.265224
0.191425
0.166832
0.152745
0.186309
0.32357
0.241515
0.243005
0.0829976
0.151177
0.197646
0.177521
0.158254
0.166967
0.145286
0.144497
0.202225
0.138183
0.265853
0.280299
0.319082
0.258436
0.273245
0.236087
0.146122
0.176625
0.189263
0.0282735
0.0462169
0.0306712
0.0278779
0.00559028
0.00275981
0.0142653
0.037666
0.0252099
0.0337401
0.0295919
0.0402922
0.0228347
0.0278129
0.0245715
0.0310695
0.0279508
0.0231074
0.0287763
0.0216392
0.03817
0.0335351
0.0358386
0.0110016
0.0271823
0.0210114
0.0343907
0.0395083
0.0395044
0.0150883
0.0449034
0.0346046
0.0296052
0.0315725
0.043192
0.127176
0.0777849
0.0962325
0.0753941
0.0811725
0.0582527
0.0680443
0.0572894
0.019474
0.0356721
0.0311284
0.112525
0.084129
0.112363
0.0530684
0.0760842
0.0256373
0.0228613
0.020099
0.0320841
0.0170711
0.0144491
0.0212408
0.0133085
0.0212393
0.0337137
0.0830723
0.0536808
0.0522558
0.139272
0.10413
0.181773
0.0143899
0.0517039
0.033228
0.259954
0.216216
0.300555
0.062238
0.123224
0.0855383
0.259996
0.194752
0.168157
0.0446144
0.0949355
0.057317
0.00582664
0.0224763
0.0240743
0.0234185
0.0265143
0.0111681
0.0191788
0.298208
0.213255
0.132766
0.169253
0.216264
0.118618
0.0488694
0.0893624
0.0652221
0.122289
0.0338242
0.0266938
0.0153686
0.140095
0.0733352
0.0848391
0.0612224
0.0634692
0.0210543
0.00763326
0.0303286
0.0205458
0.0122651
0.0163933
0.0200635
0.024302
0.115349
0.062661
0.0773071
0.068861
0.123789
0.0283004
0.0361611
0.00989383
0.0322662
0.0126719
0.0633399
0.0725447
0.0692006
0.0718407
0.0745378
0.101728
0.022482
0.071741
0.066184
0.017114
0.0219664
0.0440391
0.0246756
0.0199212
0.0176048
0.0223857
0.0197839
0.00706656
0.0243461
0.0136292
0.00882364
0.0420184
0.0614284
0.0557389
0.0556984
0.0624116
0.0382576
0.0564721
0.0216861
0.0269294
0.0623486
0.0434003
0.0603764
0.0610656
0.052096
0.0157965
0.0170261
0.0219707
0.022552
0.0160851
0.0316273
0.0346943
0.019239
0.0239252
0.0244466
0.0146883
0.00743055
0.0296065
0.0233421
0.0113022
0.0208288
0.0255347
0.0215402
0.0184545
0.0167746
0.0338912
0.0181185
0.366115
0.324562
0.354881
0.445861
0.483462
0.156458
0.378298
0.26438
0.213094
0.280049
0.274198
0.410009
0.340333
0.386354
0.475616
0.38547
0.437367
0.483483
0.181925
0.235941
0.217165
0.275264
0.378346
0.355625
0.461828
0.422941
0.318905
0.267877
0.260802
0.424269
0.367805
0.353805
0.416756
0.346705
0.458329
0.435464
0.01252
0.0716816
0.0316805
0.0116801
0.00722061
0.161237
0.174772
0.20897
0.178192
0.125752
0.0509976
0.0137977
0.0274029
0.0805475
0.12246
0.0777746
0.0941099
0.0409286
0.0345157
0.0197061
0.0149208
0.0269019
0.040791
0.0264742
0.0404457
0.0354505
0.0267554
0.0251312
0.0479925
0.0479737
0.0508686
0.0469934
0.0435021
0.0353073
0.0420307
0.0426714
0.0442528
0.0206825
0.0166141
0.0438881
0.0933262
0.0470344
0.09244
0.0450852
0.0176729
0.0199999
0.0329775
0.125098
0.0703834
0.0691499
0.121368
0.0311293
0.0784816
0.078285
