# vtk DataFile Version 4.2
vtk output
ASCII
DATASET POLYDATA
POINTS 642 float
-2.98586 6.59737 -0.0140587
3.02412 8.14101 -0.0160095
-4.11215 -3.68502 -0.0167273
3.37193 -3.72698 -0.0163919
-0.381495 -1.34012 5.94186
-0.467191 6.00549 5.65813
-0.378428 -1.31295 -5.92945
-0.467029 6.00144 -5.68398
5.68782 2.34919 -3.75845
5.68265 2.34932 3.7233
-6.13441 2.48398 -3.50893
-6.13593 2.48433 3.47786
-6.04088 6.49506 1.89089
-4.41622 5.05806 6.20542
-2.96448 8.42906 3.08517
1.79956 8.89063 3.81731
-1.02425 9.60563 -0.0176602
1.79895 8.8888 -3.85052
-2.96615 8.43221 -3.12075
-4.39985 5.04706 -6.21418
-6.03417 6.49002 -1.92289
-8.18698 2.64611 -0.0181745
3.76797 5.06823 6.79258
6.34516 6.66691 2.57407
-4.71018 -0.16335 6.85591
-0.462529 2.45834 8.13036
-7.19577 -1.71022 -2.57293
-7.21064 -1.71673 2.54482
-0.462972 2.45355 -8.13716
-4.71462 -0.158775 -6.91552
6.33798 6.66265 -2.60558
3.77019 5.07058 -6.83556
6.72857 -2.03241 2.69966
3.8992 -0.270134 6.96313
2.31119 -4.75055 4.37536
-3.02693 -4.45057 4.20171
-0.404188 -6.32819 -0.0192067
-3.02576 -4.44975 -4.2348
2.30672 -4.73987 -4.40422
3.89193 -0.265498 -6.98685
6.72278 -2.02895 -2.73263
8.25149 2.39476 -0.0179197
-3.8578 7.4853 0.172717
-4.67617 7.9741 2.0979
-3.61285 7.76961 0.305983
-5.79101 3.66088 4.94275
-6.2029 5.95505 4.44775
-6.65568 4.38842 3.07007
-1.65616 7.51069 5.00621
-3.70413 7.40391 5.31762
-2.2603 5.81194 6.24449
-2.61185 9.55634 1.35257
-3.38841 7.8689 -0.0166681
0.533411 7.5727 5.22518
-0.788199 9.34277 4.30041
1.43834 9.34067 -0.0171405
0.756343 10.2663 1.79668
2.7269 8.9594 1.7099
-2.61304 9.5598 -1.38795
-3.61155 7.76816 -0.338282
2.72744 8.96014 -1.74306
0.755732 10.2652 -1.83112
-1.65437 7.50168 -5.03006
-0.787967 9.32974 -4.32678
0.532348 7.56594 -5.2515
-4.66369 7.95824 -2.12647
-3.85244 7.4783 -0.204436
-2.25824 5.8051 -6.26674
-3.69735 7.39217 -5.34055
-6.63922 4.38295 -3.09556
-6.18705 5.94574 -4.46999
-5.78298 3.65831 -4.96895
-6.12987 7.26019 -0.0179724
-7.5018 2.58594 -2.18286
-7.98237 4.79966 -1.52834
-7.9911 4.80244 1.49417
-7.50636 2.58646 2.15035
4.63098 8.80858 3.36334
4.76687 8.02315 1.09954
1.32029 5.86201 6.52602
2.85496 7.70127 6.18494
6.63898 4.33067 3.60319
6.01008 6.02446 5.32429
5.35187 3.56785 5.43202
-2.55743 4.27678 8.09089
-0.477912 4.74111 7.22934
-5.88294 1.38251 5.09306
-5.41571 2.5602 7.15982
-0.420487 0.0336065 7.55993
-2.55109 0.748028 8.27334
-2.30964 -1.1791 6.94287
-8.69197 0.501289 1.68782
-7.00827 0.699133 3.3288
-6.96134 0.714884 -3.33723
-8.67944 0.504906 -1.72138
-5.86493 -3.35017 1.13985
-7.86491 -2.5411 -0.0193142
-5.85253 -3.33734 -1.17111
-5.42986 2.5544 -7.21979
-5.85619 1.38901 -5.10409
-0.476648 4.73793 -7.2548
-2.54959 4.26534 -8.09318
-2.28493 -1.12123 -6.86131
-2.57156 0.732571 -8.38367
-0.419457 0.0623699 -7.51699
2.84895 7.68952 -6.20632
1.32146 5.86093 -6.56788
4.76163 8.01729 -1.1317
4.63097 8.809 -3.39945
5.35306 3.56847 -5.46672
6.00432 6.02171 -5.35652
6.63426 4.32935 -3.63467
5.24304 -3.60303 1.18177
5.25292 -4.48901 3.69446
3.27935 -4.79154 1.92236
5.42372 1.19887 5.48734
6.38734 -1.28728 5.59168
6.67272 0.442935 3.60936
0.783379 -3.16736 5.82572
3.25004 -3.20196 6.76535
1.48864 -1.19386 6.93069
1.51444 -6.75438 2.26512
2.05375 -5.47252 -0.0181225
-1.5911 -3.16011 5.82754
-0.421984 -5.43479 5.32298
-2.76611 -5.21949 -0.0182474
-2.35271 -6.68964 2.25214
-4.07799 -4.78964 1.93078
1.51265 -6.747 -2.29988
3.2817 -4.79707 -1.958
-4.07831 -4.79077 -1.96362
-2.35266 -6.68872 -2.28704
0.780951 -3.14921 -5.84009
-0.418777 -5.45031 -5.36837
-1.59202 -3.1532 -5.85145
5.24446 -4.47973 -3.72701
5.24314 -3.60326 -1.21596
1.48426 -1.18735 -6.95064
3.24229 -3.19103 -6.78705
6.65954 0.445621 -3.63659
6.37425 -1.28135 -5.6179
5.40484 1.2013 -5.50419
7.50784 -3.03048 -0.0188623
7.39342 2.37761 -2.44777
8.68598 0.114792 -1.94307
8.6982 0.112497 1.90954
7.40082 2.37759 2.41719
1.74349 0.58517 8.73099
4.76698 2.43247 7.61345
1.67376 4.29786 8.62085
-5.87883 -4.12892 3.54209
-4.03085 -3.02534 6.5806
-6.92463 -1.01933 5.28965
-4.05269 -3.05992 -6.65851
-5.87472 -4.12446 -3.57634
-6.90328 -1.01518 -5.30825
4.75499 2.4298 -7.636
1.74259 0.587504 -8.77297
1.63735 4.25923 -8.48098
8.57468 4.71189 1.88121
8.57002 4.71047 -1.91568
6.98189 7.5731 -0.0183449
-2.78492 7.32862 -0.429451
-3.65865 7.69273 -0.0998896
-3.49885 6.99074 -0.68295
-5.58295 7.46626 1.98845
-4.16873 7.36339 0.86434
-4.85733 6.9693 0.985712
-3.23116 7.95273 1.59917
-3.85954 7.86616 1.10789
-3.91883 8.47017 2.62246
-6.26836 3.0611 4.34146
-6.46204 4.05091 4.13313
-6.69719 3.41099 3.46763
-5.49655 5.52335 5.66362
-5.72447 4.5862 4.55319
-4.90914 4.17574 5.19092
-6.12316 5.22854 2.42203
-6.16369 4.97007 3.50322
-6.35563 6.29881 3.05219
-1.04857 6.93562 5.65936
-1.98476 6.85192 5.88496
-1.34201 6.12908 6.2543
-3.28786 8.20173 4.23315
-2.50021 7.25856 4.92551
-2.17544 7.69754 3.94784
-2.97662 5.20624 5.6697
-2.82321 6.33228 5.60632
-4.03323 6.15032 5.87386
-6.39539 7.98111 3.8802
-5.69987 7.43669 5.70676
-4.96166 8.71499 4.3254
-3.75595 7.69554 -0.0613071
-3.89809 6.72396 -0.0151427
-2.94643 9.10711 2.2667
-3.22548 8.29636 0.874208
-2.21151 8.54655 -0.0168755
-2.91354 8.48739 0.378269
-1.8955 9.76785 0.581089
-0.00742862 6.95398 5.74854
-0.582617 7.73441 5.37191
0.683865 9.31442 4.28319
-0.0314785 8.12251 4.60975
1.00363 7.79383 4.29805
-1.23406 8.05849 4.46054
-2.1164 8.96319 3.81026
2.44389 9.05483 -0.0169217
2.20881 9.43732 0.833688
3.05584 8.85563 0.79497
-0.177858 10.1632 0.701211
1.05848 9.44543 0.753065
0.288901 9.1717 -0.0170949
2.15092 8.54121 2.4967
1.74132 9.17371 1.69283
1.48065 9.78992 2.97048
-1.98651 10.7828 3.27702
0.0470779 11.2048 3.61636
-1.11328 11.3281 1.87803
-3.7517 7.68722 0.029525
-3.49589 6.98613 0.65271
-1.89372 9.75447 -0.614837
-2.9104 8.47732 -0.410768
-3.22897 7.94826 -1.63083
-3.22315 8.29089 -0.906057
-2.94159 9.09379 -2.29559
3.04841 8.84231 -0.82639
2.20434 9.42586 -0.86576
1.47671 9.77845 -3.00036
1.74208 9.17656 -1.72673
2.15089 8.54105 -2.53001
1.05493 9.43112 -0.785325
-0.178917 10.1492 -0.735094
-1.04768 6.92647 -5.6802
-0.582793 7.72579 -5.39623
-0.00822255 6.94612 -5.77144
-2.11515 8.95916 -3.84259
-1.23265 8.04659 -4.48416
-2.17104 7.68361 -3.97026
1.0023 7.78838 -4.32707
-0.0322909 8.1157 -4.63748
0.681736 9.30559 -4.31209
-1.11327 11.3234 -1.91343
0.0449926 11.1875 -3.64584
-1.98374 10.7652 -3.30618
-3.66038 7.69518 0.0671676
-2.78345 7.32629 0.399263
-3.90982 8.45258 -2.64851
-3.86155 7.86904 -1.14267
-4.85853 6.97001 -1.01913
-4.16994 7.36453 -0.898153
-5.58577 7.46865 -2.02526
-1.34248 6.12866 -6.28743
-1.98189 6.84206 -5.90473
-4.01896 6.1347 -5.88482
-2.82145 6.32726 -5.63371
-2.96711 5.19427 -5.67953
-2.49704 7.25 -4.95032
-3.28683 8.19822 -4.26574
-6.69322 3.41037 -3.49894
-6.44625 4.04628 -4.15598
-6.25847 3.0598 -4.36796
-6.33811 6.28845 -3.07843
-6.16563 4.97052 -3.53839
-6.12551 5.22947 -2.45701
-4.90352 4.17279 -5.21824
-5.71444 4.58162 -4.57789
-5.49608 5.52244 -5.69878
-4.95097 8.69881 -4.34939
-5.69194 7.42918 -5.73475
-6.37772 7.96493 -3.90512
-3.54098 7.64877 -0.0161735
-6.17015 7.05839 -1.0459
-4.73323 7.32346 -0.319177
-4.73538 7.3257 0.285824
-6.17872 7.06525 1.01267
-7.06817 2.55416 -3.05083
-7.31499 3.51845 -2.78641
-8.38841 3.61514 -0.802949
-7.44566 3.50816 -1.79354
-7.40473 2.60163 -1.14117
-6.93571 4.48436 -2.282
-7.06338 5.83464 -1.91232
-7.32073 3.51961 2.75467
-7.07914 2.55491 3.0226
-7.06726 5.83686 1.87845
-6.94101 4.48627 2.2497
-7.41824 2.60213 1.10919
-7.44486 3.50837 1.7592
-8.39922 3.6168 0.767695
-8.2199 6.75145 -0.857672
-9.30153 5.23764 -0.0196911
-8.22735 6.75524 0.820221
3.91474 8.77958 1.439
3.99162 8.40059 0.494246
3.1534 9.1686 3.70444
3.34123 8.54498 2.3125
5.06396 7.07356 1.62437
4.44544 8.00512 1.98356
5.84448 7.89102 2.9656
0.347353 6.11759 6.31773
0.946887 6.89122 6.12433
3.44016 6.41256 6.86602
1.88655 6.40535 6.02972
2.19314 5.29284 6.17714
1.44853 7.3565 5.33249
2.2975 8.64178 5.09074
6.47102 3.27066 3.88494
6.28013 3.97643 4.71617
5.93543 2.9313 4.78636
6.52137 6.46896 3.9232
5.95093 4.9246 4.07908
5.95569 5.14271 2.88205
4.27845 4.09711 5.59186
5.37689 4.54772 5.17272
4.99133 5.52039 6.39367
4.58759 9.59718 5.81445
5.47896 7.89726 7.12528
6.61671 8.59702 5.27545
-1.40327 5.4324 7.01684
-0.489032 5.62911 6.69901
-3.65071 4.8497 7.22154
-2.27494 4.95503 6.59682
-0.454751 3.62571 7.07598
-1.3255 4.36882 7.14266
-1.3823 3.38069 8.50228
-6.30323 1.98866 4.39533
-6.11451 2.52578 5.2297
-5.26668 1.01691 7.1742
-5.36249 1.89259 5.65678
-4.95825 0.846915 5.35408
-5.34876 3.14464 5.60767
-5.12333 4.05171 6.88373
-0.405368 -0.923629 7.07805
-1.36954 -0.706621 7.52051
-1.2711 -1.44439 6.70413
-1.37464 1.59403 8.58317
-1.3178 0.461667 7.50697
-0.434236 1.21581 7.24698
-3.17177 -0.523123 6.43139
-2.33779 -0.18305 7.17779
-3.82538 0.0738053 7.83121
-4.78226 3.73657 9.31509
-4.86142 1.46069 9.57122
-3.04156 2.57602 10.2229
-7.51012 1.63641 2.8672
-6.80905 1.67456 3.56731
-8.66144 1.73445 0.807423
-7.60302 1.70701 1.82575
-6.70058 -0.203016 2.81297
-7.3536 0.669663 2.46745
-8.21312 -0.811692 2.34174
-6.80129 1.67519 -3.59628
-7.49699 1.63776 -2.89592
-8.23139 -0.818386 -2.37967
-7.32629 0.678034 -2.49124
-6.76673 -0.228365 -2.87627
-7.60003 1.70722 -1.85951
-8.65051 1.73544 -0.843152
-5.15344 -3.86508 0.521394
-6.01957 -3.56705 -0.0180742
-5.14358 -3.85232 -0.555025
-7.76136 -2.35481 1.47857
-6.40081 -2.69356 0.606476
-6.0527 -2.28572 1.65078
-6.0561 -2.28873 -1.68525
-6.3884 -2.68294 -0.640698
-7.73733 -2.3394 -1.50831
-10.3541 0.207332 -0.0203999
-10.021 -1.72266 -1.11091
-10.0455 -1.73277 1.07529
-6.09968 2.52458 -5.25101
-6.30094 1.98847 -4.42779
-5.11845 4.04874 -6.91356
-5.33915 3.1418 -5.631
-4.92528 0.860557 -5.35612
-5.35943 1.88993 -5.69106
-5.18145 1.04026 -7.09408
-0.487127 5.62843 -6.7348
-1.40177 5.42576 -7.03842
-1.38109 3.37503 -8.51287
-1.32496 4.36429 -7.16688
-0.455869 3.62064 -7.0866
-2.27265 4.94978 -6.62099
-3.65395 4.85055 -7.26387
-1.28681 -1.51514 -6.86162
-1.3915 -0.77486 -7.74994
-0.399123 -0.893845 -7.05276
-3.74062 0.142404 -7.65713
[...]
POINT_DATA 642
SCALARS Mean_Curvature float 1
LOOKUP_TABLE default
2.62355
2.06392
1.95646
1.93455
1.99203
2.02489
1.96645
2.0262
1.9687
1.9671
2.03328
2.03536
0.685987
0.120794
0.654516
0.0877439
0.715625
0.0788313
0.61988
0.0934768
0.695104
0.0525434
0.159546
0.18453
0.0633671
0.227292
0.200309
0.176484
0.250961
0.154554
0.188933
0.122943
0.201604
0.188944
0.186311
0.381686
0.250011
0.377163
0.183033
0.18287
0.201464
0.19274
5.09383
0.152959
4.81158
0.390762
0.394712
0.219868
0.203673
0.394643
0.51186
0.463423
5.03283
0.357109
0.383417
0.0438395
0.372793
0.469035
0.48721
4.82867
0.498015
0.38422
0.209968
0.380804
0.370451
0.128858
5.15736
0.505231
0.393383
0.164129
0.382639
0.401478
0.404457
0.459264
0.385511
0.389318
0.449842
0.300876
0.509932
0.204469
0.282424
0.600542
0.295682
0.261553
0.283329
0.583469
0.328169
0.295294
0.487758
0.11549
0.687085
0.305474
0.322657
0.0637169
0.29957
0.483742
0.275704
0.446977
0.359189
0.220442
0.574409
0.270281
0.138281
0.257858
0.417902
0.28233
0.316304
0.497306
0.310484
0.299851
0.307271
0.612023
0.532206
0.282825
0.412707
0.461773
0.27919
0.447493
0.482842
0.277748
0.4229
0.286475
0.305099
0.65483
0.247692
0.212962
0.314477
0.949303
0.292095
0.445718
0.960739
0.328005
0.487421
0.269497
0.589305
0.282999
0.548838
0.415222
0.279517
0.433212
0.279778
0.42122
0.245262
0.481372
0.296587
0.299721
0.498861
0.274957
0.271125
0.362472
0.246967
0.325287
0.339511
0.367571
0.254056
0.293493
0.272132
0.311145
0.242516
0.389561
0.391155
0.254541
2.70868
4.87128
2.61683
0.736313
0.60552
1.69747
1.93297
1.1835
0.710019
0.205763
1.03229
0.0691032
0.794166
0.368244
1.16734
1.40893
0.375112
0.443774
0.0786223
1.13973
0.263865
0.488976
0.314014
1.40248
1.4002
0.332172
0.32717
0.945624
0.982068
0.866306
4.93911
2.63539
0.55298
0.672003
1.97388
0.749115
0.577619
0.237607
1.1209
0.656657
0.35319
1.24211
0.360417
0.445837
0.0598201
1.14649
0.205713
0.484762
0.294632
1.42829
1.19493
0.499699
0.639572
0.893952
0.979904
0.897192
4.95413
2.61725
0.560329
0.717676
1.94924
0.672078
0.530739
0.167653
1.12604
0.62987
0.479036
1.1943
0.323074
0.472941
0.0689478
1.12431
0.223916
0.454528
0.368861
1.41337
1.24137
0.34967
0.657821
0.902541
0.980561
0.892241
4.89363
2.71265
0.695004
1.22294
1.69491
0.574841
0.765391
0.300886
1.12404
0.307028
0.309355
1.40474
0.314128
0.501252
0.090484
1.00643
0.201935
0.428911
0.336586
1.40252
1.1559
0.378033
0.81977
0.866547
0.985651
0.944105
5.25483
0.588501
0.745919
0.7529
0.599601
0.211721
1.06197
0.63354
0.347515
1.20706
0.368026
0.451286
1.05876
0.228258
0.448438
0.369646
1.18967
0.365605
0.64459
0.90462
0.99245
0.907246
1.23107
0.0612775
0.544071
0.455552
1.20177
0.436479
0.554586
0.134067
1.1123
0.574429
0.417778
1.19308
0.414638
0.562584
0.0806283
1.15407
0.155016
0.563304
0.467019
1.25776
1.24713
0.216717
0.538434
0.813235
0.822146
0.822627
1.24729
0.0823533
0.483013
0.597493
1.27216
0.519707
0.589007
0.0348098
1.23458
0.552603
0.456824
1.27803
0.41662
0.614463
0.0631221
1.19662
0.207676
0.593194
0.414731
1.24915
1.15607
0.432738
0.60135
0.827506
0.83111
0.837167
1.12825
0.0496108
0.515843
0.50527
1.16407
0.443953
0.581594
0.0401517
1.14289
0.605811
0.493738
1.09892
0.485766
0.509455
0.0788737
1.09848
0.0936307
0.60232
0.417661
1.21569
1.20787
0.444645
0.582937
0.822215
0.845596
0.85083
1.21753
0.047775
0.61119
0.423634
1.29868
0.406449
0.473182
0.137158
1.22915
0.588664
0.511436
1.26092
0.593502
0.513244
0.193929
1.50768
0.186499
0.363761
0.215558
1.18415
1.24429
0.731582
0.618933
0.829238
0.839862
0.850241
1.10167
0.0826242
0.566823
0.448537
1.19542
0.392953
0.564718
0.0763282
1.25605
0.552696
0.423852
1.20051
0.480926
0.540888
0.100673
1.16528
0.0937291
0.522313
0.232004
1.25723
1.25391
0.476756
0.566365
0.814328
0.826247
0.823556
0.0834388
1.30308
0.0879432
0.549199
0.431851
1.17203
1.18375
0.433454
0.543392
0.0542178
1.29326
0.0553191
0.536468
0.423921
1.19954
1.18243
0.412492
0.543122
0.0653012
1.29806
0.0735274
0.53764
0.422633
1.17983
1.19492
0.425329
0.544187
0.760694
0.756769
0.759474
1.31173
0.10035
0.557769
0.400676
1.21761
0.363342
0.532009
0.0739538
1.16469
0.610189
0.41126
1.11413
0.43883
0.557102
0.320208
1.22676
0.182345
0.579989
0.26728
1.13909
1.08207
0.747951
0.552708
0.763515
0.767682
0.766492
1.29375
0.0647025
0.524712
0.378999
1.18923
0.38789
0.55773
0.133914
1.20523
0.53063
0.749006
1.07377
0.289173
0.570179
0.119928
1.14923
0.207012
0.542309
0.495179
1.18135
1.13784
0.307307
0.594191
0.769154
0.771392
0.762327
1.31071
0.0970751
0.541058
0.435873
1.171
0.431393
0.551957
0.081356
1.30917
0.5428
0.42242
1.19685
0.422937
0.539453
0.0551952
1.28995
0.041594
0.544279
0.412753
1.18219
1.20323
0.418905
0.536314
0.761384
0.758204
0.762898
1.2333
0.576184
0.462759
0.441438
0.577676
0.117934
1.26332
0.515084
0.433809
1.19974
0.418863
0.545502
1.26118
0.094935
0.543695
0.411195
1.18757
0.455047
0.519691
0.763077
0.759509
0.764319
1.23355
0.576063
0.432634
0.459774
0.611863
1.22197
0.527069
0.400536
0.459558
0.581968
1.45451
0.348889
0.645936
0.183614
0.613809
0.803037
0.766484
0.80689
1.10226
0.716836
0.425758
0.451856
0.519516
1.35315
0.541059
0.578877
0.574981
0.548324
1.17909
0.542108
0.338567
0.349558
0.476531
0.808566
0.794676
0.780545
1.23352
0.566355
0.593419
0.505168
0.516963
1.13537
0.53161
0.440234
0.439222
0.698981
0.966485
0.571026
0.267317
0.139357
0.51217
0.813619
0.788881
0.784353
1.26099
0.571061
0.475337
0.389787
0.527665
1.27334
0.556073
0.405317
0.419809
0.570793
1.35377
0.632702
0.305733
0.537855
0.505962
0.804268
0.800654
0.788117
1.11947
0.516348
0.465619
0.297039
0.473584
1.11979
0.477263
0.296137
0.461177
0.508799
1.15522
0.575786
0.396916
0.413921
0.574137
0.818691
0.77475
0.777644
SCALARS CoVolArea float 1
LOOKUP_TABLE default
0.556154
0.843274
1.03183
1.09303
0.993549
0.827203
1.04815
0.830909
0.996296
1.00722
0.800009
0.804181
1.36685
1.75488
1.37745
1.78044
1.41394
1.77368
1.3712
1.76034
1.36009
1.63721
2.15336
2.08636
2.08255
1.94706
1.9808
2.01575
1.98443
2.0558
2.08248
2.12561
2.41857
2.29159
2.3831
2.31228
2.37954
2.29328
2.36581
2.26935
2.41148
2.21712
0.355259
1.96534
0.368836
0.955809
2.34582
0.931028
0.949576
2.23694
0.964591
2.08459
0.406859
0.957955
2.45383
0.925269
2.4474
0.968762
2.08286
0.36917
0.968726
2.44303
0.946422
2.44086
0.955177
1.9496
0.360643
0.963605
2.22569
0.926409
2.33426
0.951369
1.96594
0.941947
2.30982
2.31548
0.943572
3.2938
0.993597
1.0069
3.31227
1.14126
3.25889
1.10763
3.21057
0.995137
0.963512
3.21981
1.08285
3.1014
1.11134
3.05573
0.956999
0.951673
3.04666
1.0769
3.05959
1.07464
3.18581
0.958462
0.982271
3.16289
1.10499
3.10148
1.121
3.27999
0.985533
0.993209
3.27832
1.11124
3.24125
1.14011
1.15112
4.02758
1.15628
1.10738
4.02389
1.11434
1.09406
4.02181
1.08897
3.89421
1.15638
1.11075
3.90897
1.06818
3.98091
1.14303
3.8798
1.1576
1.13942
3.98677
1.09016
3.90074
1.10163
4.00466
1.15262
1.08449
3.99612
1.11005
4.00153
1.10342
3.97866
1.11005
3.95824
3.96962
1.11073
3.63539
3.53138
3.60515
3.51029
3.60946
3.48711
3.58746
3.47152
3.40235
3.53058
3.56218
3.52224
3.65059
3.64256
3.47805
0.55953
0.396198
0.569498
1.76074
0.785628
1.00312
1.04906
0.790958
1.67915
0.944404
0.944794
0.926059
2.0534
1.31887
1.49508
1.22818
1.252
1.92663
0.94671
0.961149
0.956079
1.82593
1.225
1.2442
1.44236
1.23727
1.9709
3.08312
3.1201
2.98575
0.422639
0.590968
1.81787
0.852426
1.0852
0.86659
1.83492
0.947682
0.965035
2.13177
1.32596
1.49856
1.27522
1.96318
0.933375
0.950002
0.970542
1.96979
1.26003
1.25894
1.46203
1.30897
2.11321
3.22491
3.37173
3.22607
0.416759
0.568914
1.83119
0.862692
1.04195
0.850588
1.80929
0.968212
0.945625
2.10195
1.30545
1.45539
1.25727
1.96612
0.943704
0.962209
0.946785
1.95583
1.27302
1.24844
1.49404
1.32124
2.12272
3.21995
3.35501
3.2076
0.402085
0.562323
1.66435
0.786487
1.0014
0.785243
1.75109
0.95576
0.956836
1.9645
1.22987
1.44888
1.22195
1.81873
0.921481
0.938644
0.93899
1.90696
1.23845
1.2172
1.49444
1.31453
2.05486
2.96973
3.11525
3.06456
0.390246
1.72381
0.827176
0.828147
1.73009
0.93203
0.944975
2.00049
1.27084
1.37313
1.23267
1.87079
0.946665
0.936429
1.87742
1.23785
1.37389
1.27527
2.00314
3.02514
3.14733
3.02851
1.00964
1.00694
2.62527
1.49544
1.70362
1.53398
2.75335
1.00607
0.966942
2.79215
1.53267
1.79451
1.4892
2.64107
1.13791
1.13192
1.12339
2.73125
1.62067
1.78245
1.76528
1.60304
2.73088
4.61323
4.64758
4.62783
0.977413
1.00995
2.57252
1.45553
1.55674
1.47726
2.65129
0.962207
0.97955
2.73639
1.53379
1.75419
1.49039
2.58525
1.09553
1.09911
1.12192
2.5711
1.46771
1.69066
1.69201
1.4823
2.58943
4.48816
4.51685
4.55486
0.960055
0.956236
2.38088
1.40239
1.64258
1.46829
2.62022
0.939155
0.952474
2.5984
1.4628
1.60093
1.39613
2.3778
1.09844
1.06611
1.09676
2.58801
1.5321
1.68
1.66224
1.52289
2.5638
4.19671
4.27186
4.29477
0.972657
0.946558
2.57799
1.50269
1.78942
1.50671
2.66509
0.994375
0.974309
2.62527
1.46591
1.60605
1.45382
2.56032
1.17672
1.2301
1.15736
2.4819
1.49418
1.61662
1.68512
1.58925
2.60522
4.40738
4.45963
4.45266
0.967049
0.9898
2.62558
1.48549
1.75971
1.52122
2.75721
1.00694
1.01318
2.74466
1.53489
1.69792
1.49766
2.61084
1.12048
1.13127
1.1326
2.70536
1.59832
1.76098
1.77852
1.62043
2.72402
4.56831
4.59244
4.60169
1.19498
1.18148
1.20743
3.30125
1.82434
1.99478
1.97576
1.81716
3.28071
1.12955
1.13683
1.14317
3.25346
1.77283
1.88573
1.97239
1.78415
3.29757
1.13406
1.127
1.12453
3.27565
1.77149
1.94024
1.88289
1.76968
3.25897
5.72963
5.72009
5.72101
1.17933
1.20427
3.21806
1.80404
1.95794
1.79483
3.21891
1.13411
1.10361
3.21563
1.73628
1.82702
1.74386
3.2101
1.14458
1.13243
1.14972
3.23766
1.7905
1.92648
1.89407
1.81991
3.23378
5.52165
5.55073
5.5123
1.17153
1.20297
3.20816
1.78522
1.96896
1.79706
3.19472
1.14379
1.12197
3.20848
1.79889
1.84692
1.78063
3.22791
1.14684
1.1017
1.15009
3.19079
1.74652
1.92288
1.8599
1.74123
3.21586
5.51409
5.55821
5.48743
1.1849
1.19472
3.26021
1.81159
1.98849
1.82063
3.28861
1.12371
1.12139
3.23505
1.75798
1.86793
1.76226
3.25847
1.13806
1.13056
1.1251
3.28499
1.77719
1.96567
1.86611
1.76362
3.23223
5.68317
5.67999
5.6965
1.15105
3.26995
1.79953
1.80067
3.28071
1.13578
1.13486
3.16801
1.75299
1.83676
1.78939
3.2789
1.13624
1.13946
3.29028
1.79542
1.83406
1.75872
3.1703
5.62689
5.58284
5.63754
1.09128
2.99162
1.67107
1.65571
2.96606
1.11138
2.87189
1.64949
1.67573
2.98476
1.09315
2.88907
1.57648
1.6777
2.93778
5.08712
4.93703
5.18177
1.11769
3.06104
1.72282
1.61815
2.79433
1.15913
2.89166
1.70009
1.70921
3.00028
0.987936
2.81049
1.57161
1.59045
2.90911
5.00607
4.93917
4.85954
1.11337
3.01639
1.74569
1.70912
2.87722
1.12263
2.77668
1.61545
1.70719
3.0133
0.97222
2.93026
1.61749
1.52847
2.74326
4.90082
4.79465
4.7877
1.11929
2.94157
1.66638
1.65004
2.89912
1.09077
2.89977
1.64483
1.66871
2.95579
1.04092
2.9275
1.59087
1.52897
2.82802
5.0001
5.04631
5.00427
1.12501
3.05014
1.73187
1.72344
2.91923
1.12382
2.90983
1.72106
1.72917
3.0496
1.011
2.86749
1.56598
1.56447
2.85789
5.1096
4.95786
4.9717
SCALARS SignedDistance float 1
LOOKUP_TABLE default
3.94296
4.4365
3.75086
5.63966
5.44754
5.21585
5.23095
5.09093
4.93828
4.99768
4.2316
4.30476
5.82636
6.62789
5.83128
5.83349
5.41116
5.72479
5.79366
6.52033
5.83261
5.2865
6.19529
5.7016
6.02324
5.70224
4.87008
4.96965
5.70261
6.02458
5.61055
6.19665
7.13982
6.80941
7.02356
5.61239
5.72063
5.40814
6.94776
6.80463
7.14607
6.04493
5.18282
6.29995
5.1912
5.47406
6.67269
5.20552
5.71153
6.89455
6.26172
6.02763
5.09889
5.58734
6.30522
5.16576
5.85418
5.21629
6.01458
5.18888
5.20576
5.82939
5.65589
6.21537
5.47478
6.2818
5.17846
6.13463
6.78729
5.11716
6.53405
5.37896
6.37651
4.83695
5.96191
5.98076
4.85921
6.37929
5.18474
5.99112
6.82745
5.52192
6.68835
5.86575
6.1779
5.75717
5.25939
6.3885
5.70495
5.75011
5.84098
6.71591
4.85072
4.72094
6.69334
4.43997
5.52367
4.4059
6.39373
5.14199
5.75662
6.17259
5.80582
5.74717
5.70192
6.71256
5.89355
5.16257
6.31892
5.70863
6.53783
5.49759
6.79188
8.04023
6.60127
6.31388
7.92715
6.32367
6.42182
7.80952
6.29693
6.10177
6.4597
6.00839
7.29562
5.03841
6.52431
4.97105
6.06969
6.58632
4.91317
6.48726
6.2815
7.18119
5.80074
8.06327
6.75537
6.29349
7.80057
6.25745
7.81023
6.24364
8.07949
5.86778
6.88621
6.90791
5.86814
5.87495
6.5643
5.72709
5.82107
6.57679
6.17392
6.52984
5.71745
5.95275
6.55895
5.87435
5.6763
6.11087
6.07596
6.38203
4.2919
5.18278
4.60018
6.44282
5.35449
5.52007
5.1258
5.45015
6.30281
5.13766
5.51894
4.98918
6.69116
5.59751
5.53216
5.05691
5.40293
6.30782
5.76489
6.23201
6.02191
6.39727
5.81196
5.34181
5.91968
6.1272
6.80891
7.8084
8.37946
7.74619
5.26025
4.75229
6.02343
5.3192
4.90748
5.27158
5.8631
5.66262
5.84846
6.21115
5.47209
5.1154
5.55133
6.11651
5.13346
5.44719
5.11585
5.69392
5.18163
4.80038
4.95388
5.19023
6.12037
6.71515
6.43881
6.01008
5.25053
4.59046
5.85056
5.25453
5.11634
5.30584
5.9606
5.10678
5.43035
6.03811
5.16421
4.90921
5.16685
5.69366
5.61806
5.74647
5.53869
6.10319
5.45534
5.21989
4.99154
5.3722
6.1161
5.98271
6.37966
6.66886
5.18654
4.28435
6.16662
5.45458
5.51187
5.36246
6.38748
5.8705
6.11236
6.6638
6.03959
5.70858
5.73402
6.29184
4.93172
5.39515
5.04706
6.18716
5.3392
5.03031
5.41206
5.58306
6.67307
7.65089
8.11266
7.82644
5.06638
6.20568
5.73596
5.74347
6.25079
4.78436
5.12012
5.74994
4.93438
4.5258
5.06176
5.99113
5.21742
4.84344
5.94005
5.14153
4.54532
4.96621
5.77267
7.30229
6.08794
7.34492
5.44226
5.07183
6.31202
5.20203
4.69908
5.11984
6.19194
5.81857
6.02902
6.52258
5.80639
5.62744
5.66619
6.44949
5.61747
5.96841
5.80992
6.29564
5.38516
4.78135
5.3424
5.69037
6.74703
8.47584
8.10184
8.20819
6.08962
5.92118
6.66003
6.24126
5.68915
5.90241
5.76696
4.99457
5.59342
6.22985
5.48801
5.02468
5.64569
6.6706
5.88214
5.75073
5.93529
5.73667
5.69845
5.72678
5.6373
5.67535
5.78909
6.3864
6.08095
5.76883
5.06379
4.82277
6.20853
4.75577
4.31434
4.7418
5.57217
4.74545
4.97149
5.51383
4.65451
4.27082
4.72128
6.20581
4.38924
4.68157
4.36785
5.40953
4.3634
3.96823
3.92449
4.3417
5.34476
6.74154
7.65297
7.65531
5.46853
4.90066
6.66765
5.46728
4.84776
5.3532
6.20336
5.92075
6.08766
5.76612
5.90169
5.68902
6.19991
6.66096
5.94967
5.76683
5.87591
5.77263
5.67654
5.3658
5.72785
5.70717
5.73747
6.37454
5.7677
6.09456
5.90389
5.70644
6.44368
5.51626
5.45532
5.73811
6.5149
5.06564
5.43666
6.19922
5.1003
4.67252
5.18558
6.19387
5.68305
5.79004
5.50471
6.68265
5.61033
5.29844
4.76932
5.27718
6.2176
8.11246
8.31352
8.07927
6.61458
7.05859
6.54757
7.89735
6.66756
6.16838
6.01603
6.64085
7.82506
5.98549
6.63719
5.99207
7.64395
6.42861
5.9908
5.93708
6.41408
7.78871
6.27852
6.70093
6.17735
7.72188
6.4838
5.92382
6.17272
6.60694
7.27619
10.127
9.26664
10.2243
6.90582
6.47028
6.74129
6.44463
5.70892
6.37686
5.7066
6.0474
6.47302
6.83222
5.9464
5.24776
6.20693
7.51619
4.87255
5.25214
4.68665
5.94702
5.29428
5.10158
4.54153
4.83968
7.21091
7.10036
7.33954
6.11952
6.88205
6.53977
5.70074
6.35969
5.92971
6.41568
6.70147
4.64689
5.22589
7.16612
4.78324
4.46724
5.26812
5.94984
6.09023
6.29345
5.93253
7.39271
6.04198
5.80507
5.01258
5.83316
6.72603
6.08553
7.29927
7.02503
7.01907
6.60133
7.77793
6.56398
6.14416
6.61599
7.8467
6.17226
6.69391
7.26819
6.48675
6.05355
6.37982
7.64283
5.88721
6.53919
5.88644
7.75244
6.34261
5.88843
5.88272
6.33414
7.67215
10.1714
9.24642
10.0055
7.10291
7.90928
6.70464
6.72011
7.8802
5.71782
6.34552
6.29916
6.01839
5.36515
6.23169
7.6297
6.41225
5.74749
7.64156
6.26962
5.39609
6.04119
6.30427
8.02587
6.97666
8.04045
5.95518
6.41179
6.01161
5.72755
5.69977
6.37949
6.32241
6.06664
6.21756
6.78995
5.85484
5.7391
5.66955
5.80783
5.89879
6.47945
6.10473
5.71569
4.83089
6.17013
4.72131
4.45695
5.50898
6.22051
6.19392
5.71497
5.60011
6.39988
5.29563
5.71223
4.88872
5.16631
6.33598
8.16398
7.6302
7.62281
6.10353
6.21127
5.33468
5.47931
6.19596
4.79095
5.35358
4.38616
4.63232
6.06871
5.14079
6.24434
5.04163
4.83184
5.54383
7.97313
7.48563
7.55072
6.31711
6.77653
6.14885
5.9366
6.31861
5.95302
5.70054
5.72684
6.01109
6.40621
5.8451
5.88882
5.7982
5.66973
5.72961
6.49418
5.71208
6.10782
5.92354
5.88198
5.58738
5.53018
6.28754
5.83798
6.2311
5.42034
5.53239
5.89448
5.43014
6.21549
5.13841
5.12275
6.23211
6.07958
6.80563
6.8511
