# vtk DataFile Version 4.2
vtk output
ASCII
DATASET POLYDATA
POINTS 642 float
-0.221653 1.64632 -0.0273966
0.66416 2.06975 -0.021373
-1.17682 -0.0580186 -0.0266278
0.152744 0.409865 -0.0244826
-0.28245 0.459187 0.408625
0.0278103 1.70217 0.413995
-0.304944 0.456696 -0.524622
0.0426501 1.71057 -0.510651
0.840852 1.35691 -0.446396
0.832743 1.34789 0.374994
-1.32559 0.847766 -0.447539
-1.30877 0.853077 0.347795
-0.934735 1.06829 0.182176
-0.636007 1.11823 0.372231
-0.0643644 1.80019 0.313798
0.369765 2.05184 0.381784
0.138936 2.14537 -0.0218079
0.370861 2.05865 -0.46204
-0.0654611 1.80493 -0.383876
-0.647928 1.10743 -0.460178
-0.937992 1.06726 -0.247917
-1.41987 0.814598 -0.0253042
0.534739 1.54276 0.415594
1.00641 1.85923 0.331617
-0.903686 0.548774 0.396229
-0.178613 1.03961 0.410047
-1.37909 0.141535 -0.407318
-1.38105 0.172147 0.30597
-0.165337 1.03302 -0.536855
-0.936291 0.526671 -0.530425
1.01046 1.86035 -0.392935
0.558506 1.57354 -0.530307
0.553791 0.801354 0.250466
0.360561 0.850078 0.413277
-0.0504355 0.337766 0.347941
-0.824851 0.0686185 0.350721
-0.496133 0.0787204 -0.0326719
-0.857609 0.0486928 -0.479161
-0.056176 0.330371 -0.420185
0.355734 0.850388 -0.519136
0.553904 0.798769 -0.308375
0.929164 1.39121 -0.0256717
-0.523456 1.3221 0.0570374
-0.443667 1.36653 0.231311
-0.159522 1.72219 0.135807
-1.07314 0.930071 0.364997
-0.810621 1.07775 0.316786
-1.22626 0.928933 0.319143
-0.00705756 1.78781 0.38204
-0.327014 1.41675 0.344337
-0.226898 1.44284 0.393343
0.0618935 2.06166 0.22429
-0.0299008 1.93525 -0.0271046
0.202083 1.91839 0.420027
0.139195 2.06813 0.364931
0.344912 2.14011 -0.0246296
0.202003 2.1522 0.268869
0.5563 2.07726 0.241217
0.0601881 2.06159 -0.279445
-0.160618 1.72114 -0.197163
0.557083 2.0782 -0.296415
0.203159 2.15428 -0.322262
-0.00428399 1.79966 -0.465129
0.139421 2.07602 -0.44333
0.208464 1.94045 -0.516388
-0.44465 1.36457 -0.298506
-0.524364 1.321 -0.123479
-0.223478 1.43975 -0.478052
-0.327863 1.41674 -0.416479
-1.23621 0.932166 -0.395815
-0.820564 1.07631 -0.391304
-1.08905 0.919749 -0.462705
-0.978678 1.06386 -0.0316492
-1.39177 0.834902 -0.355303
-1.29105 0.946659 -0.179738
-1.29114 0.947217 0.125619
-1.38313 0.836636 0.288009
0.767651 1.96616 0.374687
0.886749 1.9875 0.169905
0.241694 1.63465 0.417817
0.530129 1.86448 0.418858
0.963779 1.63899 0.368476
0.848512 1.76875 0.413231
0.775129 1.44259 0.413059
-0.439594 1.12599 0.412766
-0.0735366 1.38963 0.419325
-1.16628 0.691065 0.391719
-0.831505 0.888246 0.403456
-0.251198 0.70485 0.407513
-0.552256 0.795025 0.405573
-0.588278 0.472415 0.40089
-1.46256 0.487998 0.153268
-1.36771 0.560802 0.340198
-1.36466 0.548909 -0.437215
-1.46004 0.484127 -0.212323
-1.33031 -0.00616501 0.208731
-1.44057 0.149252 -0.0280544
-1.33008 -0.00511883 -0.268793
-0.847108 0.859827 -0.517419
-1.18718 0.680732 -0.512668
-0.0521185 1.38521 -0.524186
-0.437027 1.09874 -0.515736
-0.627036 0.458303 -0.530582
-0.566379 0.778926 -0.535592
-0.257727 0.709214 -0.53874
0.545603 1.87985 -0.522381
0.26696 1.65886 -0.533005
0.886773 1.98773 -0.217022
0.7738 1.97119 -0.451962
0.782642 1.46306 -0.501992
0.86944 1.78468 -0.504752
0.977058 1.64756 -0.445549
0.348612 0.568449 0.109553
0.286896 0.562976 0.326584
0.062023 0.353394 0.190499
0.650944 1.11611 0.396904
0.48368 0.814347 0.37222
0.717109 1.09409 0.338075
-0.161199 0.357153 0.395412
0.191718 0.565612 0.387955
0.00750161 0.620487 0.41373
-0.277481 0.166936 0.21693
-0.131991 0.224388 -0.0295204
-0.539533 0.24311 0.396041
-0.419226 0.174354 0.355552
-0.854841 -0.0303482 -0.0320459
-0.674806 0.031717 0.236258
-1.05704 -0.0282623 0.246812
-0.28339 0.163657 -0.280767
0.0589252 0.351277 -0.249431
-1.06208 -0.0379588 -0.325898
-0.682672 0.0255453 -0.308742
-0.178792 0.353972 -0.489167
-0.436949 0.163063 -0.437401
-0.583565 0.227965 -0.50054
0.287699 0.556237 -0.395069
0.347791 0.567789 -0.164701
0.00286318 0.625667 -0.527119
0.188477 0.562699 -0.478144
0.71915 1.09014 -0.401591
0.485171 0.808201 -0.455205
0.646912 1.11528 -0.482371
0.575603 0.806766 -0.0271991
0.911892 1.38176 -0.31973
0.763682 1.08657 -0.173107
0.764295 1.08686 0.119698
0.909438 1.37966 0.265042
0.109079 0.94069 0.408676
0.467192 1.18888 0.417111
0.188978 1.28378 0.411103
-1.21333 0.0442567 0.338878
-0.910289 0.235246 0.390103
-1.21537 0.33373 0.378093
-0.950849 0.189321 -0.525199
-1.25038 0.0347611 -0.473467
-1.23592 0.283231 -0.501846
0.469658 1.19982 -0.528447
0.118612 0.945834 -0.537936
0.212864 1.29808 -0.534335
1.03636 1.67832 0.163532
1.03661 1.67827 -0.2109
1.03268 1.86952 -0.0188257
-0.319311 1.52198 0.00488371
-0.308491 1.52963 0.0925495
-0.2019 1.67132 0.0298878
-0.690156 1.18562 0.199194
-0.492992 1.33954 0.147749
-0.735157 1.17169 0.113193
-0.111615 1.77079 0.23548
-0.275032 1.55603 0.190012
-0.228796 1.58769 0.273692
-1.24128 0.878861 0.358575
-1.16524 0.924884 0.346327
-1.29497 0.877161 0.340322
-0.725942 1.09467 0.348564
-0.961359 0.993087 0.344955
-0.863821 1.0055 0.365796
-1.1028 0.996961 0.26025
-1.04217 0.989518 0.316565
-0.881952 1.07174 0.262427
0.0122748 1.74393 0.403375
-0.105889 1.62371 0.387223
-0.0659819 1.6117 0.406144
-0.180258 1.60981 0.33324
-0.139227 1.62181 0.36627
-0.028281 1.80506 0.357142
-0.41551 1.27096 0.382165
-0.275235 1.43456 0.372157
-0.484959 1.24632 0.359933
-0.62924 1.20321 0.27082
-0.559097 1.22224 0.325314
-0.385363 1.39416 0.298603
-0.0868112 1.83924 0.0668605
-0.145973 1.75217 -0.0275408
0.0112117 1.95793 0.285618
-0.0366731 1.91161 0.18103
0.0642727 2.07833 -0.0245369
0.0176379 2.0103 0.0953649
0.104981 2.12053 0.121817
0.0952948 1.78737 0.418692
0.0868465 1.89082 0.40413
0.209021 2.09012 0.375879
0.161656 2.01977 0.399009
0.29234 2.01786 0.408314
0.0755188 1.95116 0.380464
0.0541621 1.97075 0.350592
0.540894 2.09163 -0.023828
0.443833 2.10797 0.117067
0.627678 2.07807 0.0938184
0.166052 2.15379 0.137017
0.263942 2.15688 0.13068
0.204245 2.16479 -0.0223962
0.466175 2.06605 0.338534
0.351459 2.12561 0.256213
0.263474 2.1169 0.343713
0.109032 2.08165 0.322907
0.169754 2.11835 0.336377
0.140392 2.13342 0.260798
-0.0873372 1.83854 -0.123674
-0.202525 1.67068 -0.0870909
0.104733 2.12001 -0.169587
0.0170728 2.00945 -0.148373
-0.112967 1.77104 -0.299383
-0.0380992 1.91066 -0.239229
0.00862168 1.96032 -0.348673
0.627529 2.07815 -0.141396
0.44449 2.10801 -0.168348
0.266526 2.1224 -0.412059
0.353859 2.12671 -0.311631
0.468886 2.07148 -0.40635
0.26505 2.15662 -0.179302
0.166345 2.15373 -0.18144
0.0210553 1.75336 -0.494971
0.0952556 1.90728 -0.493961
0.111347 1.80532 -0.516026
0.0529997 1.98019 -0.425472
0.0783616 1.96597 -0.462397
-0.0275662 1.81417 -0.434931
0.288855 2.02822 -0.495724
0.16322 2.03448 -0.482921
0.20578 2.09573 -0.454385
0.139053 2.13495 -0.313851
0.167876 2.12259 -0.406803
0.105541 2.08596 -0.389803
-0.309779 1.52812 -0.156499
-0.319936 1.52134 -0.0647057
-0.229596 1.58877 -0.341441
-0.275994 1.55504 -0.255793
-0.736914 1.1703 -0.180133
-0.494033 1.33779 -0.214971
-0.693049 1.18334 -0.266998
-0.0558033 1.61524 -0.499609
-0.10277 1.63031 -0.472728
-0.492047 1.24029 -0.436129
-0.275047 1.43482 -0.449443
-0.421692 1.26014 -0.464469
-0.138158 1.62912 -0.445449
-0.180649 1.61437 -0.406455
-1.31407 0.871098 -0.437818
-1.18053 0.922866 -0.435171
-1.26346 0.868962 -0.459871
-0.888053 1.07082 -0.331435
-1.05216 0.990902 -0.39179
-1.10824 0.997708 -0.326381
-0.877524 0.99557 -0.459518
-0.974465 0.990435 -0.429967
-0.738302 1.08875 -0.431092
-0.38645 1.39293 -0.366814
-0.564875 1.21872 -0.396885
-0.633492 1.20025 -0.339927
-0.53303 1.31647 -0.0326793
-0.968662 1.06463 -0.145251
-0.759724 1.16348 -0.0832475
-0.759097 1.16395 0.0169904
-0.967326 1.06515 0.0813457
-1.34366 0.849026 -0.434487
-1.33818 0.885359 -0.395753
-1.36525 0.893778 -0.112087
-1.35817 0.894714 -0.275608
-1.41405 0.819797 -0.203189
-1.27361 0.943693 -0.311861
-1.14357 1.00074 -0.224134
-1.32573 0.882564 0.316166
-1.33274 0.850511 0.335061
-1.14168 1.00116 0.163524
-1.27016 0.942624 0.250966
-1.41428 0.822407 0.151838
-1.35691 0.894958 0.222295
-1.36586 0.894704 0.0645266
-1.1594 1.00043 -0.0965992
-1.29567 0.946717 -0.0264103
-1.1591 1.00065 0.0378881
0.734407 2.04488 0.220388
0.757733 2.04373 0.0554089
0.580823 2.00993 0.379032
0.671263 2.03127 0.334662
0.981087 1.91963 0.270681
0.843452 1.98351 0.313196
0.928247 1.90443 0.359996
0.100479 1.68208 0.421768
0.232078 1.78465 0.421518
0.545242 1.71075 0.417011
0.389231 1.7527 0.418259
0.387504 1.5877 0.414237
0.360709 1.90257 0.421245
0.474173 1.98184 0.407399
0.889186 1.47085 0.373617
0.889184 1.55393 0.395553
0.826068 1.38549 0.390219
0.958716 1.83389 0.381351
0.941441 1.71092 0.393795
0.998695 1.7746 0.355287
0.672277 1.4955 0.418198
0.824239 1.61203 0.415272
0.696639 1.66456 0.417887
0.662538 1.93907 0.404293
0.698588 1.82048 0.417183
0.835562 1.8882 0.400196
-0.166828 1.4307 0.412394
-0.0108786 1.58187 0.41895
-0.544573 1.13643 0.394225
-0.344047 1.28058 0.403094
-0.128903 1.21257 0.415247
-0.24982 1.25847 0.416928
-0.314954 1.08828 0.415053
-1.27122 0.798534 0.376388
-1.13645 0.847971 0.388178
-0.875227 0.721234 0.401447
-1.00872 0.782506 0.399641
-1.04238 0.609654 0.395155
-0.957235 0.919779 0.388161
-0.75668 1.01424 0.387932
-0.273958 0.547835 0.408712
-0.413673 0.587537 0.404202
-0.401127 0.460468 0.405868
-0.364513 0.918178 0.409913
-0.398659 0.749265 0.404842
-0.21939 0.869452 0.408008
-0.753 0.503359 0.397931
-0.580707 0.625462 0.400225
-0.733683 0.669138 0.400913
-0.638464 0.999804 0.407054
-0.695593 0.842129 0.407094
-0.506383 0.96404 0.412087
-1.38651 0.724355 0.323146
-1.34214 0.762791 0.352761
-1.45549 0.664867 0.0621897
-1.43642 0.683306 0.22705
-1.37917 0.360155 0.326654
-1.41842 0.51704 0.292383
-1.43677 0.319337 0.248265
-1.34672 0.76708 -0.454567
-1.39373 0.717618 -0.405101
-1.42887 0.309704 -0.312993
-1.41771 0.505421 -0.360845
-1.37639 0.337012 -0.41873
-1.43417 0.678474 -0.284261
-1.45522 0.663057 -0.118225
-1.26283 -0.0450221 0.067919
-1.33735 -0.00808517 -0.0232309
-1.26262 -0.044031 -0.120442
-1.4287 0.147844 0.185619
-1.39096 0.0450242 0.0982006
[...]
POINT_DATA 642
SCALARS Mean_Curvature float 1
LOOKUP_TABLE default
-0.0175409
0.909181
2.06293
0.403482
0.581825
3.44421
1.0191
2.83842
5.77219
7.04971
10.7146
9.021
0.649863
5.33643
3.69496
6.28207
5.78071
5.66058
2.87795
4.42223
0.438491
2.99757
-0.1112
13.2741
-0.0697484
-0.131636
5.02787
6.9668
0.295835
0.302635
11.5201
0.314484
2.72131
2.10893
6.81962
6.07867
0.103045
8.79848
5.15506
2.35363
2.1126
0.239334
-0.0921234
1.30159
0.448524
6.07187
4.12426
7.01566
5.77621
5.00966
5.40322
3.10165
0.345472
2.2586
9.15343
0.762613
7.36459
1.40815
2.6712
0.348216
0.81309
6.44031
5.04023
9.30905
3.16396
1.10555
-0.0933436
4.24141
3.96461
5.25351
3.15867
4.90488
0.0182891
7.07662
2.50645
2.68727
8.99236
7.47467
1.86482
-0.0595135
0.988341
8.13827
2.15786
2.78022
2.37319
0.873447
0.969766
1.73059
-0.0883079
-0.071015
-0.0393073
2.0906
5.04907
4.38027
1.88313
6.58937
2.42084
5.12617
1.60048
1.97911
0.730864
1.6779
0.336617
0.360272
0.338544
1.9026
0.375052
1.6689
6.68176
2.40927
3.65726
8.62454
0.933112
5.74487
1.44131
5.5175
6.93815
5.41388
4.56121
6.40643
0.855065
1.86205
0.805583
2.43036
6.96611
0.957722
2.83346
3.68013
1.47454
1.23007
2.00041
2.10892
3.61356
5.89651
2.23655
4.52148
0.837599
1.232
5.44158
4.09386
6.17374
4.55305
0.75034
1.93526
0.505598
0.576138
2.53958
-0.207619
0.316957
-0.208318
5.74266
0.803385
1.19052
1.38533
7.87734
2.0326
0.74344
0.301985
0.122376
2.4875
2.23659
5.79464
-0.197081
-0.0325967
0.070391
0.7572
0.309708
0.141101
1.4448
0.617064
2.33096
7.78768
6.96757
9.6472
4.97539
5.6761
5.35564
3.2708
5.23991
2.28137
4.77338
6.08732
4.68423
4.81717
6.09566
5.4663
5.56019
5.76009
5.24297
2.00313
3.89362
3.14888
-0.0793441
-0.0922542
3.37371
1.1255
2.05858
1.1368
4.32902
2.79442
5.54487
9.77299
6.88908
4.96762
6.95782
6.47847
-0.317783
-0.528068
1.32003
6.43127
2.45356
4.79341
4.56597
2.47269
8.0429
7.44485
13.0239
7.9733
-0.127512
0.0438395
4.16704
1.05058
1.06919
0.89175
2.6099
1.23324
-0.567627
6.58831
1.80157
3.11303
2.33026
6.22683
4.03308
5.12234
2.55834
5.75216
6.57336
4.64359
5.45909
7.53234
9.72236
7.17326
11.599
6.54675
-0.0629682
-0.203559
1.86483
0.477029
0.111477
0.27943
0.602233
3.95748
5.44753
3.95073
4.59091
4.11728
5.32935
4.02331
10.0822
5.53571
7.64672
1.62215
3.91737
2.39232
4.37407
4.53038
4.0883
2.52396
2.91004
1.51829
-0.192594
0.0614042
-0.0900647
-0.0878964
0.0903035
12.367
9.11887
3.87225
5.1305
3.67011
3.46141
0.996626
10.522
9.90821
1.22338
4.48633
4.02804
6.24663
4.0309
0.514869
2.35206
0.538239
2.50776
1.19723
6.84421
6.41969
6.29954
5.34368
8.58271
1.12992
0.347953
-0.079883
-0.0603295
-0.273892
1.18562
4.8299
6.59826
6.0187
6.16979
8.51205
6.10544
8.52097
0.417648
2.10718
0.177169
4.43234
1.03312
5.41663
3.43312
2.15088
4.92505
4.49374
0.189488
1.69156
0.431656
4.40841
3.76111
0.184756
0.995823
0.166352
4.05463
4.51748
0.113294
-0.116934
0.169852
-0.0174989
-0.256142
-0.118255
-0.10704
-0.353328
-0.0716432
2.25973
0.406409
0.521403
7.76061
6.7163
1.46932
3.3981
5.63492
5.35167
4.19915
7.38837
5.59376
2.1612
3.11512
4.2892
2.02954
1.54054
4.14171
4.26679
3.81149
3.84391
4.46633
8.95395
7.00278
4.05494
2.98062
0.897566
1.69828
1.60932
3.4648
5.73922
3.45585
3.22211
0.733688
1.22738
0.647261
1.85655
2.36218
0.687269
1.3464
0.491892
3.03647
3.54257
0.613565
0.329962
0.588425
0.361792
0.279237
0.223831
0.268858
0.22444
0.37702
1.78169
0.782662
0.763339
1.03944
1.25669
4.60211
2.03625
0.200341
0.56912
0.563538
1.14868
2.04428
7.5359
4.01442
5.60718
4.9532
6.41188
5.16688
5.63969
5.46167
0.997685
2.545
0.91432
7.72666
6.73414
9.04388
4.91751
5.76041
2.19729
0.783594
1.26846
0.420718
4.23048
2.272
1.44456
4.37518
3.02476
5.69701
7.36349
6.39932
7.9191
5.54771
6.57784
3.84599
4.24547
6.96967
6.22076
1.54442
2.50221
0.669546
6.30118
5.37087
6.91955
1.22985
3.33065
4.34504
7.03608
6.83393
7.25815
0.802281
0.633382
5.46489
1.6129
0.399112
1.42393
0.663522
0.951798
3.3132
6.9355
5.77562
5.01685
7.14034
8.2492
0.961243
1.27583
1.90792
0.538886
1.46155
0.791504
6.47673
3.80348
6.83317
5.62381
5.95759
1.75909
0.740297
0.3872
0.618962
1.35615
3.41174
1.37545
4.44888
1.57463
0.917457
5.59372
2.1936
4.97073
1.21367
0.46627
1.69036
2.84335
1.25261
7.27056
6.04614
5.45261
4.44221
4.62017
4.70349
1.26872
4.06448
4.68873
1.08455
0.752748
4.49031
2.30242
1.18575
1.76154
3.15441
1.07174
2.25194
3.78936
2.92041
1.52037
4.29909
5.11165
6.46823
5.18274
6.19902
4.91238
5.56584
3.18771
3.47301
5.65523
5.00794
6.29453
5.83667
5.66345
0.695131
0.951963
0.707103
0.740576
1.05263
5.40284
4.25431
0.960841
1.66962
0.457731
1.51241
1.10258
5.39528
6.78389
1.31487
1.98426
0.540214
1.8922
0.984367
0.518677
0.374143
0.537822
0.0920678
0.28341
0.111481
-0.140262
-0.547909
4.21604
-0.0204317
0.930883
2.31169
0.863992
0.246156
-0.212104
-0.00863315
-0.137638
-0.277408
-0.0608125
-0.10982
-0.428415
5.77593
5.33395
6.17678
15.9192
6.67511
0.515399
0.110807
0.220604
1.53125
3.31078
2.79738
4.13866
3.39624
0.87664
0.225243
2.403
0.605162
2.16122
0.845617
6.0329
1.78286
0.453083
0.283151
4.17645
16.9955
10.9296
5.12246
6.73734
3.7868
0.62846
1.73854
3.48006
4.35077
5.01147
5.55274
1.2716
3.66014
1.31952
2.19703
1.36608
0.371906
0.562183
0.205725
0.329626
0.586215
0.810674
0.564263
-0.024609
0.0331981
0.265573
0.208738
0.401299
0.177722
0.213582
5.60553
0.768673
1.87129
5.89579
5.187
4.42564
4.45703
4.75946
1.45767
0.724269
1.32081
7.15329
4.55304
4.46784
6.66066
1.90026
3.15211
3.2014
SCALARS CoVolArea float 1
LOOKUP_TABLE default
0.00783147
0.0122241
0.0137112
0.00926991
0.00762497
0.00585897
0.00860026
0.00676261
0.0037096
0.00296806
0.00231813
0.0026634
0.021703
0.00936685
0.0145172
0.0107381
0.012203
0.0121976
0.0159276
0.0125035
0.0221341
0.0224121
0.0256429
0.00785533
0.0255618
0.0262518
0.0173471
0.0145302
0.0260418
0.0265883
0.00889431
0.0252843
0.018895
0.0181171
0.0095996
0.0100963
0.0274495
0.0107133
0.0113361
0.0183982
0.01989
0.0268274
0.0258231
0.0219756
0.0216178
0.00887569
0.0130074
0.00811706
0.00756391
0.0118762
0.0106469
0.0150689
0.0212106
0.0159459
0.00532653
0.0263208
0.0113197
0.0234229
0.0160512
0.0224247
0.0248588
0.0126037
0.00898261
0.00562447
0.0153909
0.0223769
0.0262676
0.0138911
0.0131778
0.0101005
0.014673
0.0113658
0.0247125
0.0131444
0.0171127
0.0167956
0.0107272
0.0114569
0.0238353
0.0234758
0.0215751
0.00896188
0.0177187
0.0162248
0.020156
0.023007
0.0223483
0.0213507
0.0238207
0.026866
0.0245251
0.0305611
0.0129559
0.0160916
0.0314083
0.013569
0.029544
0.0159255
0.0219248
0.0220077
0.024389
0.0219907
0.025691
0.0259956
0.0248486
0.0203876
0.0240943
0.0246992
0.0130702
0.0177664
0.0161161
0.0100129
0.0216203
0.0130896
0.0209585
0.0108451
0.00785695
0.0123293
0.0126155
0.00958523
0.0199956
0.021573
0.0241706
0.017622
0.00990223
0.0277269
0.0213945
0.0217961
0.0225923
0.0217562
0.0260142
0.0233276
0.0149529
0.0120688
0.0186787
0.0147417
0.0221132
0.0203851
0.011738
0.014002
0.00969127
0.0131191
0.0242437
0.0208454
0.02445
0.0242458
0.0197028
0.025662
0.0239755
0.0266976
0.0117797
0.0227088
0.0219889
0.0221954
0.00905239
0.0217691
0.0238783
0.0249088
0.026963
0.0218769
0.0226035
0.0150992
0.0183358
0.0235564
0.0152214
0.0222752
0.0252843
0.0245755
0.0201077
0.0237759
0.0194491
0.00609592
0.0058184
0.00258819
0.00957844
0.00813158
0.00933129
0.0160111
0.010959
0.0177711
0.00699413
0.00819255
0.00940933
0.0132344
0.00881364
0.00901711
0.00969468
0.00912906
0.0099951
0.0186034
0.0138425
0.0170479
0.019862
0.0146056
0.0151457
0.0198376
0.0182783
0.019845
0.0139892
0.011084
0.00955494
0.00700723
0.00929925
0.0133386
0.00704212
0.00894103
0.0225514
0.0265045
0.0208701
0.0113839
0.0206715
0.0162878
0.015921
0.0209419
0.0107689
0.00829337
0.0050855
0.00857257
0.0203773
0.0159348
0.0144379
0.0202617
0.0210553
0.0205972
0.0164581
0.0215508
0.0270722
0.0124866
0.022409
0.0180534
0.021221
0.0118507
0.00854941
0.0104418
0.0118169
0.0101499
0.00779136
0.010155
0.0129955
0.00890027
0.00730129
0.00956424
0.00604476
0.00945142
0.0243682
0.0188358
0.0203671
0.0243403
0.0248017
0.0255926
0.0226471
0.0115796
0.0101643
0.0119584
0.01104
0.0130386
0.0100774
0.0144794
0.00357996
0.0079904
0.00692625
0.0186637
0.0127548
0.0171496
0.0123028
0.0105812
0.0118146
0.0179316
0.0152938
0.01934
0.0251805
0.0241471
0.0256962
0.0255832
0.0239976
0.00463802
0.00710987
0.0154273
0.0125426
0.0202569
0.0144369
0.0208557
0.00538901
0.00354544
0.0204349
0.0131291
0.0193386
0.0112854
0.0151834
0.0224054
0.0178342
0.0223411
0.0224055
0.0213288
0.0116047
0.0160358
0.0144076
0.0166697
0.00978137
0.0153963
0.0200177
0.0248765
0.0239304
0.0255152
0.0203104
0.0150667
0.00666473
0.0106438
0.00781272
0.00914649
0.011065
0.00829176
0.0228063
0.0181319
0.0236218
0.0152294
0.0212548
0.0135235
0.0161193
0.0153135
0.0135917
0.0143946
0.025125
0.021033
0.0246838
0.0126547
0.0160017
0.0254912
0.0227834
0.0248665
0.0153331
0.0138728
0.0162701
0.0236214
0.0172713
0.026425
0.0264785
0.0259574
0.0254698
0.0266106
0.0263783
0.0202222
0.0252087
0.0247342
0.0118344
0.00851284
0.0298703
0.0231309
0.0143002
0.0197733
0.0245019
0.00911406
0.0154127
0.0277128
0.0235763
0.0181571
0.0252319
0.0300188
0.0173288
0.0184228
0.0182139
0.0248081
0.0206418
0.0116836
0.0136868
0.0216912
0.0267637
0.0333564
0.0329172
0.0325792
0.0165009
0.0120174
0.016931
0.0172875
0.0251868
0.0225507
0.0251416
0.0168797
0.0191096
0.0248554
0.0229264
0.025565
0.0181505
0.0171514
0.0189698
0.0249859
0.0179032
0.0262428
0.0266967
0.0264066
0.0258632
0.0263956
0.0258594
0.0215884
0.024479
0.0246247
0.0199851
0.0163793
0.0153796
0.0194048
0.0254954
0.0231943
0.023679
0.0217495
0.0237653
0.0110367
0.0186251
0.0156966
0.0181986
0.0133902
0.00934759
0.011646
0.00770264
0.022471
0.0179727
0.0229163
0.00908968
0.0107645
0.00875646
0.015196
0.0130363
0.0196444
0.016363
0.0202628
0.0170801
0.0155848
0.0192326
0.0209775
0.0161622
0.0177051
0.0113772
0.00635659
0.00755622
0.0068107
0.011182
0.00871048
0.0147159
0.0159979
0.00928685
0.0118537
0.0119447
0.0151719
0.0141331
0.00811917
0.0110445
0.00838359
0.0199882
0.0154898
0.0137821
0.00913367
0.00830107
0.00812167
0.0224123
0.0184462
0.0151912
0.0208473
0.0256689
0.0236934
0.0257573
0.0146904
0.0145379
0.00973851
0.0115408
0.0133132
0.00973939
0.00898261
0.024198
0.0267539
0.0221387
0.0263256
0.0256604
0.026947
0.0132511
0.0209195
0.0131233
0.0159206
0.0155831
0.022877
0.0228399
0.0177535
0.0260514
0.0239704
0.0174118
0.0216248
0.016543
0.0235765
0.0280179
0.0162954
0.0240252
0.0177702
0.0264561
0.0267475
0.0133581
0.0167721
0.0160877
0.0107924
0.0122982
0.0106925
0.0129467
0.0135885
0.0114139
0.0240623
0.0178155
0.0175868
0.0211305
0.0167919
0.0130673
0.0189596
0.0215716
0.0202564
0.017047
0.0151283
0.0166686
0.0150316
0.0168404
0.0198924
0.0133529
0.0102003
0.00828916
0.00951922
0.00809
0.0136096
0.0110975
0.0173474
0.0160467
0.0106691
0.0127141
0.00999679
0.0102115
0.0109889
0.0215855
0.0233434
0.023233
0.0230838
0.0230814
0.01071
0.0167535
0.0256285
0.0232422
0.0256193
0.0207664
0.0227822
0.0153254
0.0093707
0.0223116
0.0198817
0.0253592
0.0227152
0.0255523
0.0249399
0.0253864
0.0248661
0.0213547
0.0232144
0.0234721
0.0249205
0.0263999
0.0136268
0.0253745
0.0211603
0.018333
0.021506
0.0233512
0.0264128
0.02615
0.0260425
0.0265016
0.0252265
0.0263584
0.0265311
0.01664
0.011841
0.0116341
0.00745132
0.010472
0.021407
0.0248714
0.0238032
0.0200805
0.0163157
0.0177788
0.0154793
0.0169842
0.0227969
0.0246566
0.0194299
0.0238351
0.0194511
0.0224209
0.0140254
0.0195953
0.0245351
0.0262255
0.0206794
0.00799817
0.00962086
0.0163044
0.0117905
0.0178872
0.0257875
0.0232638
0.0184199
0.0148206
0.0159624
0.0149936
0.0236058
0.0157498
0.0214518
0.0194904
0.0220251
0.0253374
0.0220631
0.0259779
0.0248276
0.0230045
0.0225541
0.0243191
0.026674
0.0266646
0.0266989
0.0264896
0.0246496
0.0261592
0.0261393
0.0136746
0.0257582
0.0218251
0.0146565
0.0138937
0.0152695
0.0150782
0.0162304
0.0228157
0.0259026
0.0257091
0.0125843
0.0187664
0.0190997
0.013347
0.0241943
0.0194045
0.0190655
SCALARS SignedDistance float 1
LOOKUP_TABLE default
0.0744364
0.0282561
0.037418
0.0459732
0.232501
0.0882509
0.0395992
0.0302055
0.0217133
0.020356
0.0382957
0.0909729
0.0644597
0.0387652
0.0404476
0.0184668
0.0078618
0.0127373
0.0433542
0.0233097
0.0638588
0.047038
0.368771
0.0175527
0.457987
0.351044
0.072034
0.0880936
0.0523726
0.0423359
0.0141296
0.0527089
0.0195363
0.141339
0.0235506
0.0820789
0.0419887
0.0282621
0.020762
0.0298621
0.0200911
0.0464197
0.0756029
0.0534458
0.0532989
0.0460887
0.0138511
0.0135547
0.0133156
0.0214453
0.0306182
0.0251191
0.0494948
0.143209
0.0175978
0.0358131
0.0207073
0.0525099
0.0264633
0.0534783
0.0528736
0.0211408
0.0110745
0.0115261
0.0284717
0.0526089
0.0754677
0.0215111
0.0215921
0.0110667
0.0139045
0.0186386
0.0646068
0.0642157
0.0218684
0.0225088
0.072492
0.0249407
0.0213146
0.308562
0.197216
0.0286033
0.164215
0.116642
0.11309
0.182996
0.24126
0.126994
0.415758
0.338973
0.370019
0.0295498
0.102337
0.0515649
0.0269356
0.0529263
0.0296586
0.0526767
0.0282405
0.021096
0.0510181
0.0341201
0.0451613
0.0429925
0.045622
0.0362477
0.0526419
0.0214501
0.0117769
0.0296765
0.0221766
0.0228691
0.0318185
0.0199441
0.0330319
0.048353
0.0271394
0.0236978
0.0765756
0.0500555
0.199075
0.0348281
0.0311617
0.14131
0.028344
0.0109991
0.0150484
0.00669212
0.0366053
0.0328434
0.00899558
0.0187049
0.0136979
0.029197
0.0224151
0.0208729
0.0316938
0.0362761
0.0113387
0.0250182
0.013052
0.0163479
0.0343411
0.032341
0.0511512
0.0512338
0.0303554
0.380804
0.249962
0.456467
0.0916272
0.267405
0.254517
0.0475095
0.0327387
0.0222445
0.0493802
0.0512236
0.0585034
0.0100966
0.0102488
0.00401593
0.0757837
0.0727768
0.0670157
0.0558742
0.0665156
0.0660925
0.0536673
0.0648251
0.0488294
0.0655082
0.0147149
0.0691594
0.0199969
0.0203664
0.0144015
0.0240409
0.026862
0.0509542
0.0432567
0.0319201
0.0688102
0.0311728
0.00586968
0.0242231
0.0178443
0.00799591
0.0216994
0.0673196
0.0348628
0.0394899
0.0762666
0.0630666
0.0348163
0.0411187
0.0342662
0.0476606
0.0326232
0.105558
0.0478084
0.0341985
0.0534902
0.0749856
0.0168669
0.0160069
0.063979
0.0578125
0.0366789
0.0130872
0.0348607
0.0222132
0.0230619
0.0271465
0.00676259
0.0231269
0.0134969
0.0087526
0.0764749
0.0673325
0.0327316
0.0479035
0.0546296
0.0418182
0.037189
0.0367215
0.0579095
0.0104454
0.0297025
0.0273278
0.0348806
0.0131541
0.013307
0.00803625
0.0324745
0.0169207
0.00806695
0.0253304
0.00624332
0.00639153
0.0143361
0.00849899
0.0131578
0.025092
0.0727486
0.0758305
0.0499937
0.0648935
0.0658119
0.065953
0.0539349
0.0219192
0.0146556
0.0238037
0.01371
0.0199776
0.0041554
0.0325401
0.0426917
0.0107409
0.0273627
0.0546066
0.0245914
0.0248227
0.0152898
0.0172749
0.0169525
0.0392284
0.0363743
0.0654342
0.0784768
0.0640765
0.0727358
0.0727898
0.0645012
0.0474472
0.0488176
0.0492074
0.048825
0.0512765
0.0182728
0.0411746
0.0621228
0.0862406
0.0405941
0.0173994
0.0505748
0.0484824
0.0483725
0.0480383
0.0221393
0.0480529
0.0178808
0.0240251
0.0494875
0.0159239
0.0193587
0.0157085
0.0174408
0.164592
0.227818
0.34383
0.304634
0.437132
0.165801
0.0664271
0.0116864
0.0515813
0.0442874
0.0609623
0.0842889
0.0524068
0.224414
0.139512
0.273018
0.0982614
0.193985
0.0737213
0.0801368
0.130435
0.0262833
0.0586944
0.259949
0.143571
0.224906
0.140322
0.0982906
0.295996
0.208986
0.353202
0.0939258
0.0509484
0.300236
0.406373
0.290231
0.326288
0.450934
0.45458
0.451813
0.46205
0.374687
0.123944
0.22981
0.208567
0.0823265
0.119109
0.0222402
0.033405
0.0905957
0.0509777
0.0328523
0.0343747
0.0561764
0.0410522
0.0493709
0.0667863
0.0361492
0.0219905
0.0273903
0.0547777
0.0268121
0.040989
0.0769833
0.0885236
0.0708595
0.0800748
0.0452471
0.0359148
0.0300756
0.0313888
0.00701175
0.0106353
0.00968933
0.00709418
0.0347978
0.0260295
0.0367769
0.0417419
0.0349414
0.047467
0.0421141
0.0524374
0.0195265
0.0128422
0.0432706
0.0452317
0.0437852
0.0424599
0.0447077
0.045264
0.0500945
0.0448006
0.0485718
0.0299314
0.0430593
0.0386567
0.0454949
0.0450146
0.0080884
0.0354231
0.0536248
0.0482462
0.0477858
0.0240769
0.0179484
0.0147247
0.0179595
0.0202207
0.010067
0.0158558
0.0295868
0.0215721
0.0106621
0.0439984
0.0298111
0.0470231
0.0356154
0.0222225
0.0277877
0.00692356
0.0119362
0.0338038
0.034709
0.028449
0.0475495
0.0206526
0.0293288
0.033808
0.0112566
0.020375
0.0116032
0.046724
0.0134861
0.0272668
0.0633895
0.046446
0.0992771
0.0179732
0.0176712
0.0191718
0.167667
0.12845
0.218494
0.0171224
0.0506849
0.0374392
0.178327
0.111723
0.0850933
0.0206672
0.03495
0.0279349
0.0379309
0.0331919
0.0132081
0.0368265
0.0441145
0.00965943
0.0289646
0.204223
0.121335
0.0328313
0.0801297
0.0898875
0.069573
0.0193807
0.0251237
0.0256454
0.0299396
0.036279
0.0210641
0.0287201
0.0697763
0.0298759
0.0273676
0.0209161
0.0194876
0.027602
0.038999
0.0471319
0.0271822
0.00815979
0.00931855
0.0348281
0.0154718
0.030611
0.0267979
0.0250154
0.025087
0.0372112
0.0209371
0.0349299
0.0312839
0.0175374
0.0348165
0.0208187
0.0313391
0.0229248
0.025198
0.0313344
0.0321493
0.0306965
0.0231459
0.0256581
0.027882
0.0346161
0.0153717
0.0229223
0.0338474
0.0304153
0.0211721
0.0387263
0.0251173
0.010978
0.0193194
0.0320401
0.0145167
0.0144992
0.0197697
0.011342
0.026577
0.0175695
0.011878
0.0194269
0.0198346
0.0171263
0.00398922
0.0172014
0.0107045
0.0151334
0.0337868
0.0312173
0.0368289
0.0368679
0.0315829
0.0218344
0.00658672
0.0304366
0.0245783
0.0440214
0.0442811
0.0357733
0.00455445
0.0222885
0.0360238
0.0438337
0.0439424
0.024802
0.0306448
0.0413156
0.0518115
0.0414711
0.304915
0.253228
0.291161
0.410035
0.473181
0.0932919
0.31631
0.190732
0.125867
0.201701
0.244852
0.39383
0.314356
0.386234
0.457877
0.326892
0.388838
0.4649
0.0211449
0.0905273
0.0521824
0.0585065
0.111945
0.24442
0.405453
0.310067
0.182956
0.153374
0.175696
0.14184
0.152365
0.275936
0.398012
0.163747
0.303152
0.201289
0.0388437
0.0289002
0.0351769
0.0441905
0.0452121
0.0239784
0.0377111
0.042979
0.0293528
0.0247705
0.0128176
0.0383786
0.0220948
0.0338038
0.0444461
0.0301688
0.024958
0.0429101
0.0210849
0.0418693
0.0327838
0.0451586
0.0556898
0.0436148
0.0530893
0.0483351
0.0429476
0.044857
0.0544908
0.0587676
0.0580259
0.0575165
0.0553626
0.051556
0.054814
0.0559669
0.0172147
0.0347924
0.0293444
0.0181196
0.0218444
0.0155096
0.0233947
0.0144215
0.0302367
0.0347257
0.0206233
0.00500298
0.0192327
0.0192114
0.00499211
0.0123172
0.0306141
0.0305983
