# vtk DataFile Version 4.2
vtk output
ASCII
DATASET POLYDATA
POINTS 642 float
-0.864525 1.98824 -0.00431011
0.780725 1.96115 -0.00429269
-0.895549 -0.101779 -0.00347933
0.807571 -0.0729392 -0.00358631
-0.00480492 0.152451 0.950949
-0.0045032 1.7939 0.932072
-0.00359596 0.107176 -1.10678
-0.00333516 1.83444 -1.09182
0.951658 0.99693 -0.853891
0.927209 0.997083 0.77305
-1.11512 0.997603 -0.900367
-1.09185 0.997752 0.81305
-1.09184 1.83177 0.578451
-0.851064 1.55588 0.952085
-0.581446 1.96129 0.777892
0.551014 1.96155 0.77922
-0.00677555 1.98774 -0.00686232
0.555416 1.98845 -0.861535
-0.586861 1.98805 -0.860201
-0.897359 1.59057 -1.11772
-1.09182 1.83045 -0.607466
-1.12065 0.999079 -0.00537688
0.77101 1.55179 0.927779
0.932872 1.79192 0.544829
-0.849607 0.423674 0.951171
-0.000114642 0.996736 0.952909
-1.10885 0.111966 -0.611644
-1.10777 0.110196 0.581898
0.000843736 0.997324 -1.12066
-0.89595 0.390193 -1.1187
0.933016 1.79044 -0.575926
0.810098 1.58496 -1.09194
0.951149 0.155136 0.547334
0.770166 0.428179 0.9281
0.573441 -0.0729528 0.805307
-0.602599 -0.0729489 0.804183
-0.00593447 -0.101124 -0.00599439
-0.608951 -0.101442 -0.890992
0.578699 -0.10168 -0.892365
0.809336 0.396449 -1.09186
0.952583 0.156785 -0.578778
0.952806 0.998311 -0.00630197
-1.05145 1.95845 0.312415
-0.999405 1.96002 0.756697
-0.75226 1.98844 0.462533
-1.04355 1.31172 0.922563
-1.0843 1.78319 0.908127
-1.11872 1.4904 0.723755
-0.311961 1.9443 0.915966
-0.797167 1.90078 0.923125
-0.479985 1.69689 0.952032
-0.296148 1.98856 0.431407
-0.472749 1.98796 -0.00615137
0.300631 1.94431 0.915927
-0.00430207 1.95974 0.784576
0.443057 1.98889 -0.0060145
0.278935 1.98811 0.431981
0.691904 1.98732 0.461377
-0.295822 1.9876 -0.459703
-0.750976 1.9875 -0.487099
0.690628 1.98823 -0.485273
0.278313 1.98902 -0.460022
-0.322476 1.95854 -1.04987
-0.00433495 1.98841 -0.868534
0.312606 1.95856 -1.0503
-0.998108 1.9601 -0.818112
-1.0512 1.95848 -0.322457
-0.507037 1.73871 -1.12052
-0.83316 1.9369 -1.08838
-1.12053 1.49119 -0.784823
-1.0913 1.79978 -1.02687
-1.08067 1.32495 -1.08019
-1.09181 1.83827 -0.00347648
-1.12092 0.994635 -0.507432
-1.12239 1.4688 -0.309948
-1.12224 1.46636 0.295983
-1.12374 0.997655 0.474521
0.879549 1.95863 0.742549
0.916454 1.94351 0.300756
0.455234 1.69806 0.951101
0.739055 1.90182 0.922854
0.950971 1.46137 0.682182
0.922665 1.75092 0.873708
0.912307 1.30089 0.912975
-0.463897 1.28622 0.953677
-0.0046438 1.45533 0.95377
-1.04327 0.681426 0.922537
-0.858376 0.996629 0.951691
-0.00766748 0.520756 0.953452
-0.46537 0.702595 0.953726
-0.480245 0.263641 0.951668
-1.12056 0.515125 0.297662
-1.11925 0.495447 0.723373
-1.11881 0.494283 -0.784138
-1.12066 0.51451 -0.312688
-1.07582 -0.0654231 0.32147
-1.10403 0.103172 -0.00373462
-1.07585 -0.0654163 -0.330384
-0.904811 0.997436 -1.11208
-1.08127 0.669232 -1.08074
-0.00372442 1.48272 -1.12257
-0.488396 1.30296 -1.12083
-0.507845 0.221773 -1.11879
-0.489448 0.686755 -1.12077
-0.00681158 0.495263 -1.1209
0.77092 1.93687 -1.08837
0.48516 1.7402 -1.11932
0.916508 1.94343 -0.312012
0.879012 1.95878 -0.80076
0.922458 1.31197 -1.04522
0.923899 1.76516 -0.99264
0.951308 1.46183 -0.742631
0.922344 -0.0310522 0.308136
0.903246 -0.0681399 0.763581
0.719585 -0.100924 0.481329
0.912522 0.691555 0.913253
0.922783 0.211668 0.873261
0.951402 0.522772 0.681736
0.308084 -0.0324004 0.922246
0.748042 0.018667 0.923875
0.455308 0.26282 0.951094
0.291446 -0.101218 0.451221
0.46283 -0.100109 -0.00516169
-0.318751 -0.0321016 0.922289
-0.00360877 -0.0729489 0.811629
-0.491196 -0.101169 -0.00531344
-0.30697 -0.101731 0.450612
-0.781183 -0.100476 0.48277
0.290779 -0.100223 -0.477848
0.718312 -0.102005 -0.503428
-0.77995 -0.101518 -0.505586
-0.306596 -0.100743 -0.477498
0.321538 -0.0652205 -1.07627
-0.00352773 -0.0969507 -0.89916
-0.330385 -0.0652254 -1.07628
0.90332 -0.0681533 -0.82407
0.922385 -0.030652 -0.318713
0.485555 0.219714 -1.11991
0.780872 -0.0147954 -1.09112
0.951565 0.52228 -0.742422
0.923941 0.195419 -0.991408
0.922473 0.681316 -1.04503
0.95098 0.148159 -0.00500983
0.953619 0.993975 -0.482625
0.953256 0.539053 -0.297094
0.953468 0.540204 0.280887
0.954776 0.996986 0.447165
0.434311 0.708247 0.954604
0.77652 0.99701 0.925553
0.431349 1.28139 0.954583
-1.02162 -0.0725572 0.778692
-0.807952 0.0202309 0.924015
-1.08434 0.176925 0.908176
-0.846411 -0.0145648 -1.09159
-1.02133 -0.0729036 -0.844122
-1.09168 0.157157 -1.02654
0.816965 0.997709 -1.09188
0.461476 0.691999 -1.12334
0.458739 1.29917 -1.12318
0.954015 1.43975 0.278929
0.953682 1.44233 -0.294243
0.930119 1.79746 -0.00463805
-0.977712 1.96003 0.153667
-0.934927 1.96476 0.401322
-0.810359 1.98826 0.241516
-1.08684 1.93988 0.69591
-1.02767 1.95951 0.566679
-1.09034 1.91788 0.4594
-0.680192 1.98764 0.645664
-0.89191 1.98881 0.624323
-0.830003 1.96382 0.771498
-1.0901 1.15745 0.893113
-1.09156 1.41566 0.860015
-1.09654 1.25466 0.768565
-0.995478 1.6842 0.923938
-1.06499 1.573 0.921909
-0.969813 1.44875 0.923896
-1.11878 1.69018 0.665335
-1.09197 1.65699 0.831794
-1.09177 1.82305 0.794634
-0.158122 1.88783 0.923602
-0.407788 1.85071 0.923992
-0.249961 1.74781 0.952337
-0.707188 1.95863 0.882414
-0.572304 1.92555 0.922354
-0.456397 1.95892 0.863713
-0.68492 1.63618 0.951776
-0.64938 1.81532 0.925135
-0.837611 1.77384 0.942373
-1.08521 1.94249 0.876374
-0.988201 1.8702 0.924013
-0.938234 1.95899 0.883757
-0.618646 1.98751 0.229122
-0.682673 1.98904 -0.00529782
-0.442365 1.9874 0.622545
-0.536033 1.98855 0.448842
-0.243287 1.98746 -0.00669202
-0.386484 1.98797 0.222226
-0.151336 1.98893 0.21727
0.149313 1.888 0.923593
-0.00361766 1.94044 0.917803
0.285142 1.96024 0.785017
0.151296 1.95877 0.865161
0.438573 1.95884 0.864466
-0.159817 1.95879 0.864978
-0.298098 1.96014 0.784274
0.630367 1.98827 -0.0051803
0.575591 1.98765 0.229323
0.737715 1.97909 0.240287
0.137022 1.98866 0.217458
0.363323 1.98727 0.222653
0.226068 1.98894 -0.00661217
0.634186 1.98729 0.646133
0.503526 1.98748 0.449503
0.420138 1.98847 0.623661
-0.155938 1.9884 0.630679
0.144349 1.98818 0.631089
-0.00604126 1.98909 0.432609
-0.618009 1.98789 -0.243835
-0.809676 1.98862 -0.253861
-0.151254 1.98743 -0.234329
-0.386167 1.98835 -0.238509
-0.680336 1.98861 -0.694307
-0.535428 1.9876 -0.476074
-0.442876 1.98795 -0.67183
0.737119 1.98025 -0.252401
0.574881 1.98803 -0.243584
0.419941 1.9872 -0.672561
0.5025 1.98839 -0.47622
0.633401 1.988 -0.693753
0.36273 1.98761 -0.238687
0.136786 1.9891 -0.234404
-0.163955 1.92056 -1.0904
-0.00297783 1.95801 -1.0574
0.157218 1.92063 -1.09036
-0.301481 1.9879 -0.867461
-0.163044 1.96012 -0.976894
-0.467254 1.9601 -0.977126
0.449608 1.96009 -0.97836
0.154996 1.9601 -0.977255
0.288275 1.98751 -0.868299
-0.00616079 1.9881 -0.461639
0.144479 1.9888 -0.682461
-0.156447 1.98905 -0.682103
-0.933854 1.96513 -0.417496
-0.977374 1.96004 -0.161721
-0.83477 1.989 -0.849388
-0.890593 1.98747 -0.662465
-1.09037 1.9172 -0.475402
-1.02673 1.95963 -0.591427
-1.08699 1.93943 -0.73702
-0.26281 1.78793 -1.10208
-0.428418 1.88569 -1.09178
-0.883147 1.81572 -1.09232
-0.685121 1.8543 -1.09196
-0.725288 1.67681 -1.12
-0.59543 1.95505 -1.07142
-0.724069 1.9602 -1.00152
-1.12038 1.25604 -0.844288
-1.09186 1.42332 -0.968081
-1.09181 1.16166 -1.01082
-1.09182 1.82336 -0.865802
-1.10018 1.66416 -0.926593
-1.11928 1.68952 -0.710964
-1.00879 1.47306 -1.09214
-1.09088 1.59419 -1.05864
-1.03066 1.72093 -1.09147
-0.950745 1.96002 -0.998484
-1.02361 1.90571 -1.09143
-1.08499 1.94329 -0.967375
-1.04702 1.95832 -0.00304825
-1.09184 1.83794 -0.310854
-1.09016 1.9177 -0.165619
-1.09013 1.91785 0.158621
-1.09178 1.83866 0.29966
-1.1202 0.996608 -0.715135
-1.1249 1.24519 -0.651758
-1.12102 1.24842 -0.162221
-1.12131 1.24383 -0.412928
-1.12074 0.996347 -0.268723
-1.12285 1.48011 -0.562062
-1.12008 1.66486 -0.462096
-1.11962 1.24456 0.604769
-1.12026 0.997387 0.661427
-1.1192 1.66606 0.441246
-1.12179 1.47959 0.5286
-1.12104 0.999168 0.257935
-1.12142 1.24261 0.391441
-1.12101 1.24706 0.153445
-1.11913 1.67391 -0.162154
-1.12253 1.47213 -0.00529161
-1.11897 1.67415 0.152299
0.833869 1.9602 0.394788
0.867465 1.95902 0.150072
0.76246 1.96136 0.772192
0.802868 1.96003 0.618505
0.923392 1.88641 0.436212
0.902763 1.95513 0.548404
0.922834 1.90535 0.662661
0.237221 1.74815 0.952046
0.391053 1.85155 0.923931
0.764265 1.77131 0.928973
0.611851 1.81667 0.924089
0.637272 1.63743 0.952571
0.547011 1.92607 0.922223
0.666294 1.95855 0.883088
0.949818 1.23993 0.729918
0.924062 1.39395 0.827081
0.923213 1.15033 0.861524
0.929005 1.78288 0.754842
0.923859 1.62036 0.794944
0.952659 1.64966 0.625322
0.859036 1.43831 0.92299
0.921404 1.54972 0.897246
0.877323 1.67006 0.922563
0.844636 1.95885 0.882106
0.875837 1.86129 0.922789
0.923134 1.90138 0.840224
-0.241472 1.58184 0.952115
-0.00524136 1.63659 0.951211
-0.666478 1.42178 0.95831
-0.473077 1.5088 0.956885
-0.00121062 1.24578 0.953033
-0.237565 1.37956 0.953123
-0.24054 1.14791 0.952951
-1.09014 0.837833 0.893127
-1.05137 0.997857 0.921954
-0.856549 0.703109 0.951393
-0.968355 0.839557 0.923939
-0.968854 0.539409 0.923917
-0.968694 1.15464 0.923868
-0.857715 1.28762 0.950989
-0.0061109 0.32702 0.954986
-0.242306 0.387688 0.956223
-0.250965 0.206982 0.951393
-0.243345 0.842051 0.953021
-0.241533 0.605389 0.95346
-0.00399758 0.746133 0.953054
-0.68513 0.333411 0.951297
-0.47283 0.47061 0.954153
-0.665426 0.56408 0.958316
-0.679825 1.14485 0.957126
-0.678331 0.845102 0.957363
-0.472679 0.993573 0.953474
-1.11957 0.747783 0.605432
-1.09607 0.738676 0.768378
-1.12056 0.747244 0.15323
-1.12104 0.751328 0.394856
-1.12061 0.278634 0.665047
-1.12143 0.503835 0.531229
-1.11992 0.299601 0.442452
-1.12064 0.736895 -0.843412
-1.12463 0.7464 -0.650032
-1.11997 0.301779 -0.462621
-1.12094 0.504401 -0.561869
-1.11941 0.278724 -0.711052
-1.12102 0.747248 -0.415432
-1.12062 0.744245 -0.166628
-1.00571 -0.0730994 0.159408
-1.07181 -0.0675412 -0.0025939
-1.00549 -0.0731037 -0.166028
-1.1045 0.103011 0.302014
-1.09149 0.00129592 0.161589
-1.09166 0.00218944 0.467582
-1.09173 0.00337981 -0.483196
[...]
POINT_DATA 642
SCALARS CoVolArea float 1
LOOKUP_TABLE default
0.0335435
0.0264461
0.0348328
0.0265697
0.0323054
0.0278732
0.033999
0.0284409
0.0329994
0.0264765
0.0350515
0.026798
0.0305402
0.0366169
0.0311557
0.0280198
0.0570351
0.0360657
0.0401141
0.0383214
0.0341746
0.0706486
0.0289407
0.0297766
0.0392606
0.0631196
0.0405495
0.0361522
0.070653
0.0413357
0.0329694
0.0295479
0.0349255
0.03092
0.0283769
0.0317119
0.0618377
0.0413891
0.0369953
0.0317596
0.0387287
0.0631694
0.0212127
0.0199461
0.0408556
0.0203454
0.0172507
0.0364263
0.0180216
0.0193927
0.0373762
0.0534275
0.0521593
0.0173026
0.0350002
0.0479149
0.0514353
0.0339343
0.0578705
0.0440184
0.0365416
0.0556891
0.021208
0.044602
0.0204087
0.0249162
0.0220604
0.0401623
0.0209243
0.0444675
0.0204775
0.0241074
0.0380693
0.0566541
0.0585601
0.056383
0.0506412
0.0145007
0.0171044
0.0350617
0.0154659
0.0341358
0.0153312
0.016849
0.0556182
0.0462033
0.02086
0.0434964
0.0499909
0.0559032
0.0419765
0.0610629
0.0379683
0.0466446
0.0619883
0.0231346
0.0450711
0.0240584
0.0463442
0.0246758
0.0517951
0.0622359
0.0459923
0.0625374
0.0560445
0.0166897
0.0376045
0.0178188
0.0181573
0.0215234
0.021311
0.0404392
0.0195104
0.015849
0.035335
0.0172761
0.0178034
0.0355802
0.0204716
0.0195356
0.0390934
0.0556929
0.0518272
0.021294
0.0353971
0.0565021
0.0577873
0.0434218
0.0603617
0.038045
0.0468063
0.0626658
0.0232458
0.0463868
0.0241844
0.0198105
0.0202969
0.0428568
0.0187835
0.0424718
0.0247864
0.0220906
0.0425941
0.0505006
0.0554135
0.0545347
0.0449672
0.0508141
0.0351032
0.0492797
0.0192015
0.0244292
0.0199009
0.0236613
0.0240379
0.0237752
0.0358678
0.0572197
0.055572
0.0502409
0.0523042
0.0368685
0.0302595
0.0324629
0.0409992
0.0194256
0.0215631
0.0200439
0.0364658
0.0305749
0.0268076
0.0219512
0.0245336
0.0344431
0.0245861
0.0193995
0.026747
0.0345168
0.024385
0.0228854
0.0241788
0.0277347
0.035415
0.0203361
0.0191029
0.0196837
0.0369868
0.0286893
0.0293318
0.0171724
0.0195546
0.0187052
0.0486487
0.046897
0.044748
0.0465645
0.0532518
0.0520268
0.0574608
0.0237958
0.016755
0.0333955
0.0200656
0.0183456
0.0204266
0.0347148
0.0402957
0.0429556
0.0331097
0.0565208
0.0489063
0.0513899
0.0314945
0.0422196
0.0419042
0.0519567
0.0510557
0.059893
0.050206
0.0421365
0.0594299
0.0537608
0.0424071
0.0503627
0.0516929
0.0340369
0.0443197
0.0484156
0.0456435
0.0365697
0.0505208
0.0584408
0.0235497
0.0206211
0.0231879
0.0443278
0.0292916
0.0279805
0.0260722
0.0288163
0.0426683
0.0648414
0.0587481
0.0597823
0.0344178
0.0307318
0.0345505
0.0351018
0.0215391
0.0241125
0.0232738
0.0370243
0.0274407
0.0290559
0.0292
0.0404163
0.0218628
0.0277687
0.0434483
0.0340545
0.0308767
0.028641
0.032368
0.0403922
0.0266122
0.0233715
0.0237588
0.0237683
0.0198606
0.0212639
0.0205407
0.0378615
0.0216901
0.0213242
0.0364629
0.0495668
0.0525723
0.0669487
0.0586224
0.0627372
0.0514335
0.0494541
0.046121
0.0425859
0.0464926
0.0464142
0.0594993
0.0533915
0.0654777
0.0567562
0.0654525
0.056085
0.0242489
0.0219009
0.0213186
0.0233994
0.0200235
0.0166355
0.0181081
0.0345543
0.0261403
0.0228411
0.0250577
0.0322781
0.017133
0.0169583
0.0331488
0.0249002
0.0222804
0.0229196
0.0244503
0.0322494
0.0189651
0.0168334
0.0178096
0.0138708
0.0146111
0.0143912
0.0432878
0.0402173
0.0472726
0.0447272
0.0535496
0.050361
0.0630204
0.0221626
0.0206568
0.0431318
0.0295996
0.0280553
0.0292518
0.0420988
0.0437167
0.04674
0.0401494
0.0632959
0.052696
0.0560281
0.0407854
0.0476436
0.0489907
0.0564516
0.0565405
0.0645908
0.046705
0.0349403
0.0687968
0.0551145
0.0382883
0.0489379
0.0515996
0.0442154
0.0530023
0.0547784
0.0538998
0.0450999
0.0588733
0.0691613
0.0305155
0.0226217
0.0309895
0.0431648
0.0273169
0.0248206
0.0267484
0.0277988
0.0448587
0.0706346
0.0626034
0.0621231
0.0233612
0.0311856
0.0448289
0.0288587
0.027943
0.0291791
0.045965
0.0442256
0.0482442
0.0702205
0.0563698
0.0599791
0.0503452
0.0530447
0.0433371
0.0524077
0.0489157
0.0549697
0.0533986
0.044987
0.0625168
0.0588098
0.0704642
0.0631246
0.0719431
0.0633105
0.0258282
0.0361492
0.0231024
0.0193859
0.0344557
0.0250338
0.0225907
0.0222735
0.0257568
0.0216438
0.0185947
0.0214875
0.0268528
0.0273595
0.0307132
0.0330158
0.0399997
0.0194885
0.0224437
0.0194509
0.0371137
0.0317278
0.0286404
0.0179597
0.0192665
0.0170804
0.0215957
0.0239882
0.0338889
0.0226755
0.01839
0.0253407
0.0327525
0.0233092
0.0212731
0.0225006
0.0258515
0.0336675
0.0200144
0.0180536
0.0198232
0.0353021
0.0266782
0.0270858
0.0295255
0.0316348
0.0391065
0.018253
0.0209724
0.0186685
0.0353221
0.0299413
0.0265333
0.0176635
0.0179224
0.0159635
0.0460938
0.0427046
0.0445626
0.0455647
0.0557895
0.0530836
0.0613123
0.0300063
0.0198132
0.0352017
0.020117
0.020058
0.0197732
0.033889
0.0503074
0.0525303
0.0431424
0.0622992
0.0564738
0.0577691
0.0383285
0.0503491
0.0475561
0.054342
0.0552636
0.0646968
0.0475064
0.0347967
0.0633742
0.0547964
0.03854
0.0492805
0.0519997
0.0443076
0.0541585
0.0555532
0.0545218
0.0452707
0.0582996
0.0644018
0.0294538
0.0228446
0.0299246
0.0442967
0.0287786
0.0260817
0.0280822
0.0292711
0.0460354
0.0701235
0.0641586
0.0630743
0.0254737
0.0219511
0.0272703
0.0270721
0.0272336
0.0206861
0.0271504
0.0422316
0.0323921
0.0261961
0.0302301
0.0381281
0.0221541
0.0226035
0.0406999
0.0342632
0.0310562
0.0339548
0.034649
0.0409574
0.0203651
0.0241133
0.022007
0.0187308
0.0201032
0.0234222
0.0198222
0.0424032
0.02853
0.0280286
0.0409025
0.0441062
0.0472299
0.0620594
0.0527319
0.0562
0.0481859
0.0489989
0.0418563
0.0388737
0.0461633
0.0434005
0.0531201
0.0490809
0.0617319
0.0560472
0.063375
0.0557161
0.0459806
0.0430326
0.044436
0.0514115
0.0585681
0.0162084
0.0338344
0.0205409
0.0207624
0.034634
0.0424338
0.0572488
0.0477675
0.0415637
0.0414104
0.0497266
0.0493614
0.0568305
0.0330974
0.0266314
0.0306846
0.0220534
0.0220125
0.0334861
0.0341211
0.0341903
0.0233779
0.021924
0.0254548
0.0268422
0.026872
0.0209244
0.0277003
0.0203848
0.0236569
0.0189137
0.0344154
0.027294
0.0251103
0.0354217
0.0339506
0.0351125
0.0265253
0.0249118
0.0358203
0.0343682
0.0353319
0.0269871
0.0253091
0.0358042
0.0337918
0.0230329
0.0228446
0.0227002
0.0207272
0.0355164
0.0204289
0.0202155
0.0347033
0.0517305
0.0656681
0.0577046
0.0500595
0.0473166
0.0473774
0.0455181
0.0467866
0.0537839
0.0643061
0.0547622
0.0639092
0.0543668
0.0412669
0.0586081
0.0474363
0.0411659
0.0420717
0.0468007
0.0448154
0.0459096
0.0523926
0.0599025
0.016787
0.0352939
0.0220642
0.0224451
0.0365751
0.0585888
0.0513534
0.0507679
SCALARS SignedDistance float 1
LOOKUP_TABLE default
0.0307634
0.0259318
0.0331929
0.0244297
0.0310543
0.0194428
0.0201654
0.0241879
0.0317738
0.0244437
0.0300676
0.024052
0.0241978
0.030336
0.0245957
0.0255315
0.0320798
0.0309792
0.0306252
0.0327512
0.0242044
0.507022
0.0237679
0.0186781
0.0312765
0.504531
0.023502
0.0223906
0.504101
0.0337289
0.0175715
0.0239573
0.0312667
0.0234952
0.0244303
0.0244396
0.0324859
0.0328488
0.0330908
0.0240601
0.0308591
0.5072
0.0238056
0.0256959
0.030946
0.0245676
0.0232041
0.0337421
0.0239968
0.0250616
0.0302837
0.0310361
0.0323036
0.0240267
0.0262627
0.0313357
0.0324677
0.0316939
0.0319121
0.0318711
0.0307699
0.0314416
0.0238797
0.0309289
0.023808
0.0257158
0.0237789
0.0336122
0.022446
0.0335262
0.0228971
0.0227757
0.0241728
0.177489
0.0881581
0.0901729
0.0562508
0.0242127
0.0240326
0.0311975
0.0251517
0.0309529
0.0248729
0.02396
0.21078
0.0983715
0.0246423
0.0317844
0.180973
0.217518
0.031766
0.169504
0.0342953
0.0338304
0.175901
0.0229362
0.0185299
0.0229358
0.0254049
0.0229053
0.0758944
0.191468
0.03381
0.194814
0.157659
0.0224681
0.0343062
0.0240231
0.0241804
0.0246391
0.026699
0.0313673
0.024299
0.0229703
0.0343159
0.0240313
0.0248225
0.0315263
0.02425
0.0261742
0.0311779
0.0325764
0.033439
0.0242495
0.0243924
0.032529
0.0330713
0.0338401
0.0335544
0.0333979
0.0328931
0.0340882
0.0229253
0.0302243
0.0229238
0.0229541
0.0243061
0.0329248
0.0226832
0.0316707
0.026629
0.0246377
0.0310813
0.200684
0.198559
0.191802
0.0775054
0.0891626
0.0248019
0.09188
0.0232308
0.0261294
0.0232058
0.0223467
0.0229775
0.0225827
0.0240045
0.0673599
0.0697178
0.113071
0.110535
0.0203528
0.026148
0.0212671
0.030748
0.0228691
0.0246086
0.0225544
0.032033
0.0313543
0.0233002
0.0222778
0.0227804
0.0201723
0.0263462
0.0231524
0.0267825
0.0337615
0.0236549
0.0241237
0.0253553
0.0266163
0.0306135
0.024008
0.0237921
0.0248661
0.0299795
0.026487
0.0208333
0.022049
0.025857
0.0236366
0.0318446
0.0314759
0.0317305
0.0310391
0.0317861
0.0323128
0.0313696
0.0253601
0.0240956
0.0266512
0.0249295
0.0249457
0.0249095
0.026565
0.030762
0.0319761
0.023195
0.0311155
0.0315951
0.0313791
0.0316741
0.0318006
0.0309359
0.0308918
0.0306759
0.0315236
0.0322534
0.0311228
0.0317563
0.0308207
0.0310869
0.0319532
0.0323086
0.0230147
0.0324048
0.031507
0.0308374
0.0323597
0.031948
0.0315267
0.0224266
0.0235635
0.0224363
0.0323413
0.0261022
0.0261832
0.026204
0.0260867
0.0318583
0.0324422
0.0312486
0.0314918
0.0209207
0.0261515
0.0314837
0.0318985
0.0225773
0.0245314
0.0227661
0.0164914
0.0229425
0.0233063
0.0239466
0.0329972
0.0233712
0.0253611
0.0333357
0.0242414
0.0231886
0.0241585
0.0163675
0.0343149
0.0229087
0.021883
0.0225256
0.0256338
0.0213394
0.0230896
0.0242443
0.0241202
0.022707
0.0227261
0.0242122
0.0342672
0.0467753
0.298199
0.260541
0.411701
0.07442
0.0330912
0.0346745
0.0332369
0.034168
0.0357937
0.259625
0.130598
0.296771
0.034166
0.0851555
0.033994
0.0254803
0.0246215
0.0257297
0.0262343
0.0256729
0.0237465
0.0251048
0.0303316
0.0267047
0.022544
0.0262299
0.030889
0.023791
0.0239855
0.0281866
0.0263608
0.0251977
0.0214576
0.0269543
0.0309902
0.0255634
0.023697
0.0248538
0.0233116
0.0243187
0.0242424
0.031267
0.0313031
0.0375877
0.0525084
0.299758
0.169996
0.388495
0.022212
0.0244093
0.0314921
0.0268482
0.0268404
0.0268894
0.0311541
0.0342282
0.0586096
0.0314955
0.431367
0.262957
0.400697
0.0313601
0.13198
0.0375884
0.0363507
0.0366288
0.210208
0.0346178
0.0196511
0.355704
0.127222
0.0336233
0.0354607
0.0338937
0.033636
0.0480402
0.0339535
0.11833
0.0344402
0.267195
0.399383
0.0235058
0.0228208
0.0235124
0.017952
0.023135
0.0230338
0.0230307
0.0231308
0.0186256
0.169075
0.0329868
0.0345955
0.0228405
0.0231023
0.0264034
0.0230608
0.0229712
0.0230918
0.0263391
0.0337622
0.0332122
0.37866
0.149571
0.285572
0.0385523
0.03515
0.0331252
0.0393552
0.0337027
0.0352679
0.104826
0.0330002
0.387863
0.243446
0.419493
0.0340524
0.187157
0.0341276
0.022974
0.016273
0.0254468
0.023327
0.0337834
0.0239301
0.0241175
0.0245881
0.0254741
0.0248461
0.0236855
0.02561
0.0263264
0.0208687
0.0269026
0.018469
0.0315397
0.0233173
0.0253363
0.0222921
0.0310693
0.0307188
0.0156963
0.0247803
0.0250189
0.0228882
0.0226201
0.0231936
0.0182733
0.0259276
0.0235581
0.0267028
0.0341489
0.024148
0.024459
0.0251398
0.0264134
0.0282794
0.0247064
0.0236209
0.0255939
0.0310078
0.0269839
0.0175293
0.0267238
0.0226446
0.0311577
0.0231935
0.0250052
0.0227575
0.0304332
0.0315928
0.0212025
0.0253533
0.0245303
0.0225904
0.0334284
0.0339469
0.034232
0.0336577
0.0336345
0.0337214
0.0333839
0.0267144
0.024689
0.0244029
0.0228933
0.0227475
0.0229002
0.0243991
0.0332912
0.0337878
0.0337204
0.0336208
0.0325534
0.0340857
0.0326222
0.0328939
0.0330767
0.0340336
0.0342768
0.0336249
0.0338178
0.0180549
0.0337825
0.0341532
0.0333086
0.0326651
0.0331403
0.0341282
0.0342259
0.0340314
0.0339126
0.0341359
0.032941
0.034047
0.0230637
0.0229207
0.0230634
0.0293617
0.0234853
0.0234607
0.023509
0.0234878
0.031447
0.0326653
0.0332236
0.0329647
0.0231833
0.0226118
0.0245767
0.024195
0.0267153
0.023534
0.0259079
0.0346739
0.024072
0.0242025
0.0203665
0.0333873
0.0220172
0.0230431
0.0317841
0.0181532
0.0268621
0.0299779
0.0303662
0.0313407
0.0222969
0.0252452
0.0233049
0.021759
0.02342
0.0260919
0.023942
0.0308428
0.0266332
0.0266371
0.0303143
0.036698
0.0741961
0.411518
0.286472
0.423873
0.145568
0.035531
0.0303952
0.0309924
0.0355496
0.0375161
0.273596
0.147014
0.364121
0.0340598
0.191897
0.0337873
0.0578402
0.0302504
0.0777869
0.25534
0.28521
0.0241168
0.0255485
0.025518
0.0255621
0.0253649
0.0313779
0.285874
0.176634
0.0479774
0.0317746
0.0311104
0.0310273
0.0874231
0.0245102
0.0245285
0.0159686
0.0222527
0.0224534
0.0222752
0.030012
0.0301329
0.0249943
0.0231737
0.0227919
0.0242443
0.0236812
0.0231867
0.0264368
0.0233434
0.0265577
0.021073
0.0240832
0.0228338
0.0219535
0.0202211
0.032937
0.0245157
0.0222372
0.0222201
0.0166769
0.0327266
0.024137
0.0224137
0.0218143
0.0159574
0.0296541
0.0227381
0.0220596
0.0221877
0.0249515
0.0240097
0.0224667
0.0224419
0.0240769
0.0393716
0.272067
0.237952
0.0530078
0.0345062
0.0329654
0.0339291
0.0357143
0.155806
0.272557
0.0336494
0.0658185
0.033609
0.0303836
0.307947
0.150387
0.0368663
0.0301467
0.0729344
0.030389
0.0963335
0.27784
0.311407
0.023941
0.0209571
0.0256224
0.02561
0.0206801
0.107329
0.0312069
0.031091
