# vtk DataFile Version 4.2
vtk output
ASCII
DATASET POLYDATA
POINTS 642 float
-0.320649 3.47833 -0.0363601
1.24233 4.10003 -0.0252858
-2.4307 -0.133359 -0.0301009
0.251041 0.942758 -0.0308657
-0.543004 0.900993 0.75261
0.034176 3.536 0.774005
-0.616176 0.89915 -1.02079
0.0482676 3.56577 -0.99581
1.55158 2.74921 -0.879467
1.53753 2.72622 0.730569
-2.77985 1.75238 -0.934432
-2.72231 1.75971 0.722783
-2.02809 2.06359 0.44366
-1.37367 2.265 0.727151
-0.099121 3.81021 0.688713
0.634676 4.0865 0.751824
0.168673 4.29033 -0.0263378
0.634071 4.09216 -0.92258
-0.104252 3.83033 -0.824543
-1.39917 2.25662 -0.91376
-2.03573 2.06443 -0.54735
-2.95102 1.76167 -0.0240165
1.14234 3.19451 0.762371
1.89706 3.71781 0.680092
-1.95369 1.10501 0.742897
-0.279675 2.21854 0.744396
-2.96618 0.194424 -0.930555
-2.96002 0.258959 0.745082
-0.273817 2.16837 -1.03442
-1.95613 1.05441 -1.03666
1.90423 3.71857 -0.809465
1.15929 3.22829 -1.02491
0.996228 1.67832 0.551263
0.72716 1.74736 0.776432
-0.1091 0.771412 0.725698
-1.66485 0.116618 0.755569
-0.904551 0.251483 -0.03242
-1.72884 0.0809188 -1.00222
-0.105711 0.744918 -0.885451
0.723308 1.731 -1.00342
0.996346 1.67408 -0.645301
1.6887 2.85094 -0.0275941
-1.10893 2.57647 0.244093
-0.765919 2.8795 0.508398
-0.196482 3.69821 0.426046
-2.1932 1.90455 0.722026
-1.78585 2.09643 0.665497
-2.5158 1.89532 0.661433
-0.0553814 3.77155 0.743597
-0.510171 3.06283 0.714047
-0.46363 3.0343 0.755011
0.0779217 4.17097 0.515087
-0.00999313 4.06348 -0.0309894
0.333516 3.94175 0.778169
0.165314 4.16532 0.736257
0.448454 4.27871 -0.0262916
0.256741 4.30399 0.588107
0.997528 4.12118 0.591045
0.0756942 4.17347 -0.609649
-0.197304 3.70114 -0.52151
0.99538 4.10039 -0.68456
0.258048 4.30773 -0.680344
-0.0403624 3.80114 -0.9337
0.161567 4.1858 -0.91639
0.325724 3.97943 -0.99953
-0.765921 2.88372 -0.619875
-1.11055 2.57654 -0.331384
-0.454551 3.058 -0.93309
-0.51249 3.08379 -0.868607
-2.53769 1.89353 -0.794978
-1.81278 2.10165 -0.810841
-2.22088 1.89579 -0.928925
-2.07955 2.06624 -0.036795
-2.92879 1.75937 -0.766109
-2.69148 1.89358 -0.435625
-2.69021 1.89329 0.358677
-2.91263 1.75081 0.634674
1.47929 3.92251 0.752662
1.7391 3.89926 0.447661
0.581729 3.42458 0.75919
1.00678 3.74141 0.771799
1.82576 3.33276 0.730589
1.64689 3.50921 0.773955
1.47523 2.9825 0.773351
-0.869997 2.41457 0.766918
-0.119061 2.95117 0.765152
-2.40075 1.4626 0.754379
-1.84666 1.85325 0.758917
-0.346069 1.42074 0.732341
-1.1656 1.67066 0.731226
-1.26905 0.883193 0.738202
-3.08156 1.11973 0.484751
-2.89469 1.13427 0.745376
-2.89921 1.10396 -0.955862
-3.0271 1.11178 -0.553557
-2.87843 -0.13155 0.538274
-3.01897 0.167181 -0.0245619
-2.88105 -0.135471 -0.634846
-1.87052 1.80888 -1.00101
-2.43558 1.44243 -1.03299
-0.0929949 2.94619 -1.00755
-0.868989 2.36822 -0.993016
-1.32714 0.874721 -1.03281
-1.15274 1.57948 -1.03896
-0.428233 1.45769 -1.03844
1.02512 3.76533 -1.01954
0.579981 3.44299 -1.03143
1.73976 3.90023 -0.513116
1.49362 3.92832 -0.90528
1.50004 3.01504 -0.965032
1.69459 3.53694 -0.983726
1.85419 3.34882 -0.897103
0.642944 1.28901 0.313441
0.500251 1.20033 0.66193
0.074067 0.839747 0.48728
1.19163 2.23908 0.767511
0.916556 1.70666 0.740481
1.30474 2.19339 0.679785
-0.275464 0.734215 0.762115
0.334367 1.17606 0.751558
0.153869 1.29779 0.764496
-0.490296 0.44488 0.518361
-0.300629 0.546123 -0.0307798
-1.12648 0.45066 0.763264
-0.793807 0.408557 0.730083
-1.62808 -0.0230999 -0.0325475
-1.35107 0.114205 0.564903
-2.108 -0.0821748 0.643815
-0.495455 0.438714 -0.610253
0.0730302 0.83645 -0.577961
-2.12736 -0.0806239 -0.784309
-1.37058 0.108581 -0.68326
-0.297387 0.712989 -0.958619
-0.836671 0.390074 -0.901254
-1.2187 0.410694 -0.979771
0.509179 1.18736 -0.786696
0.64298 1.28766 -0.387496
0.134939 1.30251 -1.02175
0.337743 1.16882 -0.949508
1.30677 2.18943 -0.796628
0.921436 1.69095 -0.912862
1.1918 2.23846 -0.947987
1.00214 1.6732 -0.029419
1.66984 2.83287 -0.640797
1.41471 2.2474 -0.406366
1.4138 2.24736 0.338341
1.66309 2.82531 0.553014
0.352709 1.88943 0.754604
1.03458 2.4731 0.76998
0.555473 2.77835 0.751349
-2.52821 0.015014 0.761452
-1.85772 0.467642 0.756954
-2.5313 0.696083 0.753779
-1.91342 0.349405 -1.04731
-2.62074 -0.0150056 -1.01653
-2.56812 0.566341 -1.02936
1.03006 2.48325 -1.014
0.325889 1.87879 -1.03664
0.513959 2.77818 -1.02841
1.91415 3.35423 0.419391
1.91497 3.35558 -0.489056
1.93102 3.74739 -0.0226423
-0.610053 3.07955 0.126267
-0.489039 3.23405 0.313812
-0.24176 3.59155 0.218015
-1.44314 2.31505 0.438733
-0.932961 2.72285 0.393382
-1.63384 2.21921 0.331574
-0.150085 3.7738 0.581442
-0.395102 3.36657 0.478716
-0.315313 3.45362 0.587062
-2.47118 1.83075 0.74695
-2.38384 1.88167 0.717831
-2.65707 1.82907 0.700001
-1.59141 2.16334 0.70175
-2.03082 1.97797 0.696565
-1.82204 2.02458 0.71931
-2.3071 1.96884 0.567968
-2.20025 1.9621 0.663292
-1.94011 2.07216 0.584967
-0.0374907 3.68208 0.765483
-0.199921 3.43453 0.740288
-0.192143 3.33682 0.762627
-0.231176 3.49039 0.696928
-0.207668 3.4838 0.719321
-0.0617302 3.81182 0.727001
-0.853001 2.63333 0.742733
-0.481744 3.06308 0.734521
-0.931221 2.59373 0.725698
-1.30077 2.38067 0.58073
-1.12222 2.479 0.68692
-0.63414 2.98656 0.641433
-0.0811764 3.90456 0.239916
-0.136251 3.83437 -0.033848
-0.00822263 4.02513 0.631344
-0.0509598 3.98484 0.478341
0.0999014 4.22522 -0.0283528
0.0407342 4.12777 0.272372
0.130679 4.24594 0.296352
0.190528 3.76205 0.775306
0.0922154 3.90846 0.773306
0.266906 4.18773 0.751992
0.203441 4.1002 0.771624
0.471176 4.0601 0.774877
0.0595771 4.00369 0.7457
0.0503137 4.02668 0.729481
0.853207 4.15271 -0.0266394
0.715508 4.19145 0.324457
1.13435 4.13387 0.34006
0.210703 4.29721 0.318606
0.331567 4.31104 0.327879
0.224472 4.31326 -0.0254943
0.821008 4.09391 0.717603
0.543009 4.22227 0.59285
0.39235 4.22535 0.702429
0.140309 4.20757 0.690596
0.202375 4.25969 0.702532
0.171823 4.27857 0.579031
-0.0815049 3.90434 -0.316216
-0.241795 3.59188 -0.298926
0.129626 4.24549 -0.363207
0.0399555 4.1277 -0.343843
-0.151759 3.78272 -0.692075
-0.0517914 3.98745 -0.5733
-0.011317 4.03759 -0.750262
1.13443 4.13233 -0.403592
0.716448 4.19053 -0.390471
0.39346 4.23587 -0.840621
0.54523 4.22441 -0.686108
0.825719 4.10007 -0.856825
0.333304 4.31109 -0.391911
0.210899 4.29772 -0.382155
-0.0231946 3.71591 -0.96496
0.103635 3.94989 -0.975314
0.199359 3.80327 -1.00369
0.0462792 4.06122 -0.900337
0.0696901 4.04264 -0.932986
-0.0588475 3.83796 -0.899429
0.457917 4.07868 -0.969247
0.199503 4.13762 -0.963128
0.254974 4.2036 -0.933972
0.167927 4.28147 -0.67307
0.196652 4.26803 -0.853575
0.127364 4.22315 -0.830404
-0.489018 3.23671 -0.406406
-0.609859 3.08038 -0.20521
-0.3163 3.46445 -0.707736
-0.395976 3.37281 -0.584007
-1.63945 2.21902 -0.427955
-0.933781 2.72437 -0.494877
-1.44869 2.31419 -0.545173
-0.17677 3.35931 -0.963967
-0.18798 3.45972 -0.927705
-0.942582 2.60161 -0.877751
-0.47666 3.0862 -0.903301
-0.861339 2.6341 -0.90913
-0.204178 3.50816 -0.890839
-0.236978 3.51239 -0.846798
-2.70624 1.82291 -0.879508
-2.41473 1.88281 -0.890164
-2.51639 1.81667 -0.940288
-1.95724 2.07541 -0.703118
-2.22468 1.97431 -0.804796
-2.31888 1.97214 -0.68125
-1.85659 2.01728 -0.9168
-2.06282 1.98188 -0.878685
-1.62055 2.15999 -0.875308
-0.636225 2.99802 -0.76872
-1.13179 2.48534 -0.819336
-1.30699 2.38036 -0.696411
-1.1199 2.5706 -0.0386292
-2.07021 2.06539 -0.324962
-1.7016 2.20496 -0.181564
-1.70037 2.20468 0.101099
-2.0684 2.0647 0.23889
-2.88769 1.75372 -0.879033
-2.82231 1.81797 -0.82127
-2.86878 1.83155 -0.273677
-2.85845 1.83046 -0.60467
-2.94658 1.76144 -0.44732
-2.63691 1.893 -0.663041
-2.40906 1.94973 -0.522384
-2.79341 1.81031 0.664118
-2.87417 1.74046 0.679415
-2.40499 1.94994 0.429046
-2.62822 1.89548 0.558152
-2.94403 1.76094 0.384648
-2.85453 1.82737 0.518056
-2.86857 1.83081 0.216077
-2.4126 1.95098 -0.218272
-2.69518 1.89501 -0.0300617
-2.41191 1.95078 0.146466
1.3944 4.04621 0.540893
1.50421 4.02133 0.220898
1.1069 4.02041 0.748924
1.26485 4.03481 0.720048
1.88957 3.78758 0.620976
1.63473 3.91075 0.69068
1.78775 3.79479 0.720174
0.274159 3.49811 0.765755
0.461635 3.69273 0.767226
1.09773 3.4841 0.76383
0.807878 3.59713 0.764204
0.893791 3.30957 0.757955
0.6664 3.85608 0.774796
0.854409 3.95131 0.774971
1.70487 3.0811 0.732191
1.6966 3.17401 0.760796
1.54076 2.86457 0.757519
1.82559 3.63831 0.746982
1.7927 3.44 0.758066
1.86986 3.56814 0.711988
1.33744 3.08915 0.769344
1.57892 3.26915 0.774521
1.39812 3.35323 0.769321
1.26932 3.86547 0.777114
1.36895 3.62733 0.772971
1.6251 3.74774 0.775658
-0.316292 3.03372 0.774386
-0.0229875 3.25941 0.768521
-1.12559 2.36911 0.751565
-0.680642 2.71269 0.772196
-0.230949 2.60038 0.757749
-0.473812 2.69263 0.772386
-0.603389 2.3752 0.756066
-2.57313 1.63875 0.757697
-2.3466 1.78421 0.762888
-1.94084 1.53694 0.749535
-2.15 1.66731 0.757056
-2.20088 1.27717 0.748129
-2.03416 1.89851 0.742099
-1.67518 2.05204 0.741737
-0.451594 1.14047 0.740834
-0.797999 1.11802 0.730286
-0.898865 0.875479 0.741384
-0.709273 1.96473 0.733884
-0.73637 1.52083 0.715274
-0.293572 1.81968 0.730085
-1.6328 0.966724 0.739953
-1.2139 1.21335 0.72594
-1.58881 1.36034 0.737633
-1.39089 2.09284 0.759608
-1.53996 1.78562 0.749111
-1.06225 2.07361 0.749368
-2.93743 1.5367 0.71403
-2.85031 1.52396 0.747636
-3.01617 1.54349 0.24634
-3.00276 1.54479 0.59081
-2.92509 0.670008 0.737095
-3.00735 1.10792 0.707808
-3.05734 0.654678 0.668265
-2.86711 1.53042 -0.966886
-2.95452 1.54837 -0.890959
-3.00957 0.629209 -0.772009
-2.99437 1.09101 -0.840976
-2.92481 0.610385 -0.930338
-3.00632 1.54341 -0.677749
-3.01468 1.5428 -0.29882
-2.70925 -0.166619 0.262714
-2.87174 -0.139343 -0.0235883
-2.70911 -0.167163 -0.326509
-3.01386 0.171862 0.512571
-2.97434 -0.0419763 0.291206
-2.94848 -0.0154767 0.687035
-2.95693 -0.0319067 -0.858837
-2.97454 -0.0422584 -0.347661
-3.01466 0.164503 -0.598558
-3.08341 1.10521 -0.024758
-3.0829 0.600223 -0.317835
-3.08625 0.603152 0.259396
-2.37761 1.75572 -0.986648
-2.62466 1.62514 -0.999727
-1.70042 2.0272 -0.957934
-2.06797 1.87606 -0.968908
-2.21215 1.23775 -1.0369
[...]
POINT_DATA 642
SCALARS Normal_Velocity float 1
LOOKUP_TABLE default
0.226954
0.382601
0.038197
0.504478
0.112939
0.672695
0.540348
0.56246
4.05129
5.88604
5.72979
3.99683
0.568994
4.55252
5.27231
4.71641
4.83993
3.36337
2.90698
3.77381
0.294321
3.16686
0.0924137
7.8815
0.0729943
0.0630654
4.19351
6.01459
0.0714063
0.0451724
6.17821
0.278862
1.59602
0.955001
6.64205
4.71931
0.468786
6.90205
4.62884
1.32579
0.980073
0.213544
0.186703
0.365683
0.377128
4.42399
4.1206
4.58356
5.70525
5.57938
5.30395
0.924939
0.669654
0.331441
6.56647
0.413144
4.70533
1.25421
0.580656
0.227584
0.336263
3.88454
4.86082
7.49889
1.32546
0.150685
0.203049
4.3298
4.25582
1.67625
2.03157
4.26931
0.0536872
4.90782
0.743779
0.793308
6.83687
6.52847
0.868702
0.101294
0.0420916
7.25559
0.565449
1.15143
0.886611
0.0212686
0.00359529
1.12959
0.131375
0.107426
0.103352
1.14852
1.85603
3.49362
0.0311101
4.93713
0.157813
4.33391
0.716818
0.670855
0.132256
0.576127
0.115218
0.183345
0.164606
0.905184
0.111653
0.677496
4.45029
0.790827
1.69241
6.90863
0.253808
4.30802
0.219001
3.62806
6.41349
4.59572
4.62083
5.2366
0.184728
1.3021
0.220929
0.972324
5.42152
0.591518
1.37291
2.89467
0.953989
0.480981
1.01355
0.598772
3.50274
4.5878
0.871691
2.20365
0.199046
0.826828
4.14554
2.25344
4.91358
3.20488
0.399766
0.400184
0.778974
0.808929
0.924145
0.0980967
0.02752
0.121144
2.49347
0.0767838
0.0296886
0.229136
4.60471
0.242024
0.662254
0.133187
0.0307782
1.61066
1.49062
3.85468
0.46332
0.0501068
0.744611
0.308505
0.168219
0.269488
1.88427
1.46187
1.95228
7.26136
6.00924
6.28815
4.53421
5.12725
5.28013
1.90796
4.61347
1.8954
3.45062
4.06858
2.73211
4.45205
4.53937
6.22749
5.77784
5.91556
5.73888
0.267041
3.77389
2.59433
0.353808
0.537336
3.14368
1.1876
1.56613
0.557025
2.9536
0.241409
2.80608
5.84912
3.67057
2.58435
6.64585
7.16504
0.571547
0.193929
0.930696
4.72636
1.84546
3.93841
4.31001
1.27342
6.24807
5.74718
12.4673
6.55856
0.336191
0.731628
2.9001
0.56326
1.11211
0.912622
1.63444
0.965315
0.172367
3.58166
0.603388
1.77642
1.76158
4.66399
3.37473
3.14767
0.628537
5.72981
5.72376
4.79573
3.43705
4.94573
6.88069
5.91362
9.39842
4.29783
0.0953446
0.459022
0.914198
1.15935
0.229656
0.195297
0.349179
2.4183
3.32893
3.87657
4.75227
3.80087
3.34345
2.753
4.22251
3.62088
4.62202
0.867728
2.5779
1.01895
3.60569
3.94624
3.0982
1.4166
2.04087
0.409216
0.271496
0.0827817
0.12411
0.0964387
0.122921
8.63921
3.97366
2.52114
2.82016
3.50104
0.902175
0.289368
6.76778
6.24495
0.164322
1.79171
3.58039
3.51535
2.5427
0.387834
0.647738
0.386429
1.2657
0.698605
5.45161
6.42009
6.04245
3.95464
7.292
0.0749176
0.156513
0.13494
0.10855
0.121202
0.179035
1.90704
5.63163
4.42244
4.16798
4.7058
3.91004
5.21729
0.0168129
0.694404
0.0875595
1.56468
0.0011085
2.26568
1.3058
0.231047
3.59184
3.66793
0.0851917
0.333118
0.0807752
0.835653
2.23273
0.0399886
0.231998
0.0566496
3.03482
4.51628
0.159287
0.132662
0.137142
0.110862
0.336786
0.194601
0.0703278
0.194721
0.0596
1.23954
0.0207858
0.0592384
7.29964
2.50315
0.483821
2.3549
2.35792
5.57797
3.78017
3.74576
4.63897
1.10233
2.78281
3.62898
1.45988
0.574226
1.27085
3.77986
1.18486
0.864785
3.35535
6.81213
5.30904
3.30367
0.649786
0.446902
0.64668
0.471123
1.80776
1.49008
3.20125
2.8589
0.161894
0.755208
0.0929146
0.839353
0.881205
0.406439
0.483438
0.246508
1.97795
2.66939
0.288333
0.201763
0.278825
0.124797
0.0746724
0.0198095
0.0597431
0.337507
0.170138
0.817191
0.423603
0.421061
0.596174
0.507897
2.28732
0.746086
0.0775989
0.306896
0.321859
0.67467
0.873983
5.92495
2.31156
5.17126
3.65141
6.60528
3.14625
4.28138
4.83714
0.733293
0.944525
0.665063
4.14467
4.62712
6.48917
2.31902
3.31633
0.838103
0.118349
0.834212
0.00924407
2.11973
0.854085
0.809186
2.8682
2.83149
5.06409
5.30806
5.35462
7.92304
4.53211
5.42347
2.5132
2.48373
5.79432
5.57249
0.828694
1.49154
0.0203865
6.24061
5.51266
6.47434
0.541881
2.25728
3.23494
6.16239
6.00947
6.51509
0.556599
0.0826477
3.83063
1.08544
1.49346
0.103771
0.211801
0.114652
2.164
4.87348
4.31877
3.0678
5.61157
6.3874
0.360349
0.510427
0.0205858
0.800921
0.648337
0.331163
6.92031
2.61864
5.92585
5.32611
3.97494
2.23602
0.541234
0.0377171
0.224284
0.119402
1.20124
0.693612
2.00286
0.0495059
0.447556
3.24692
1.65285
4.18204
0.68755
0.762582
0.58244
1.80556
0.587762
5.2332
4.57743
5.27167
3.23593
3.17159
2.95767
1.54676
2.34149
3.09509
0.665701
0.112183
2.9361
1.68744
0.617855
0.366231
0.806984
0.480286
1.02127
2.98035
1.95182
0.582125
4.12389
4.75632
5.5557
3.47848
4.63331
3.24349
3.56823
1.09684
2.38517
4.93936
3.98564
4.51325
5.42555
3.75383
0.174518
0.424496
0.349484
0.354291
0.482329
2.76637
2.17583
0.527046
0.630394
0.173352
0.797642
0.0111038
3.84896
4.76221
0.123782
1.24238
0.138492
0.681807
0.540489
0.205112
0.590505
0.203717
0.151905
0.0624437
0.110706
0.107185
0.0494693
1.98023
0.10086
0.152645
1.03073
0.284517
0.0729037
0.0416463
0.0668492
0.0841458
0.0713332
0.105119
0.0959477
0.0645415
2.16446
3.38078
5.38124
7.62595
1.9557
0.088452
0.060009
0.0912395
0.147017
0.686041
0.170035
0.670693
0.371528
0.0384853
0.0588482
0.158818
0.0756029
0.0329877
0.504532
3.71002
0.266386
0.123991
0.0902164
1.16746
6.37269
5.39225
2.83117
4.65484
1.26368
0.0186938
0.272317
1.33076
1.40896
2.19493
2.06266
0.0898788
2.08
0.651385
1.09302
0.585801
0.304627
0.324198
0.0295342
0.134769
0.453265
0.65274
0.262184
0.067323
0.0405763
0.00662414
0.0514814
0.356607
0.0556311
0.164575
4.5363
0.133539
0.686088
4.51028
2.50311
2.60271
1.09563
2.87573
0.360018
0.119332
0.409162
4.47307
4.13869
4.12496
4.18175
1.32596
0.766784
0.776876
SCALARS Mean_Curvature float 1
LOOKUP_TABLE default
0.226954
0.382601
0.038197
0.504478
0.112939
0.672695
0.540348
0.56246
4.05129
5.88604
5.72979
3.99683
0.568994
4.55252
5.27231
4.71641
4.83993
3.36337
2.90698
3.77381
0.294321
3.16686
0.0924137
7.8815
0.0729943
0.0630654
4.19351
6.01459
0.0714063
0.0451724
6.17821
0.278862
1.59602
0.955001
6.64205
4.71931
0.468786
6.90205
4.62884
1.32579
0.980073
0.213544
0.186703
0.365683
0.377128
4.42399
4.1206
4.58356
5.70525
5.57938
5.30395
0.924939
0.669654
0.331441
6.56647
0.413144
4.70533
1.25421
0.580656
0.227584
0.336263
3.88454
4.86082
7.49889
1.32546
0.150685
0.203049
4.3298
4.25582
1.67625
2.03157
4.26931
0.0536872
4.90782
0.743779
0.793308
6.83687
6.52847
0.868702
0.101294
0.0420916
7.25559
0.565449
1.15143
0.886611
0.0212686
0.00359529
1.12959
0.131375
0.107426
0.103352
1.14852
1.85603
3.49362
0.0311101
4.93713
0.157813
4.33391
0.716818
0.670855
0.132256
0.576127
0.115218
0.183345
0.164606
0.905184
0.111653
0.677496
4.45029
0.790827
1.69241
6.90863
0.253808
4.30802
0.219001
3.62806
6.41349
4.59572
4.62083
5.2366
0.184728
1.3021
0.220929
0.972324
5.42152
0.591518
1.37291
2.89467
0.953989
0.480981
1.01355
0.598772
3.50274
4.5878
0.871691
2.20365
0.199046
0.826828
4.14554
2.25344
4.91358
3.20488
0.399766
0.400184
0.778974
0.808929
0.924145
0.0980967
0.02752
0.121144
2.49347
0.0767838
0.0296886
0.229136
4.60471
0.242024
0.662254
0.133187
0.0307782
1.61066
1.49062
3.85468
0.46332
0.0501068
0.744611
0.308505
0.168219
0.269488
1.88427
1.46187
1.95228
7.26136
6.00924
6.28815
4.53421
5.12725
5.28013
1.90796
4.61347
1.8954
3.45062
4.06858
2.73211
4.45205
4.53937
6.22749
5.77784
5.91556
5.73888
0.267041
3.77389
2.59433
0.353808
0.537336
3.14368
1.1876
1.56613
0.557025
2.9536
0.241409
2.80608
5.84912
3.67057
2.58435
6.64585
7.16504
0.571547
0.193929
0.930696
4.72636
1.84546
3.93841
4.31001
1.27342
6.24807
5.74718
12.4673
6.55856
0.336191
0.731628
2.9001
0.56326
1.11211
0.912622
1.63444
0.965315
0.172367
3.58166
0.603388
1.77642
1.76158
4.66399
3.37473
3.14767
0.628537
5.72981
5.72376
4.79573
3.43705
4.94573
6.88069
5.91362
9.39842
4.29783
0.0953446
0.459022
0.914198
1.15935
0.229656
0.195297
0.349179
2.4183
3.32893
3.87657
4.75227
3.80087
3.34345
2.753
4.22251
3.62088
4.62202
0.867728
2.5779
1.01895
3.60569
3.94624
3.0982
1.4166
2.04087
0.409216
0.271496
0.0827817
0.12411
0.0964387
0.122921
8.63921
3.97366
2.52114
2.82016
3.50104
0.902175
0.289368
6.76778
6.24495
0.164322
1.79171
3.58039
3.51535
2.5427
0.387834
0.647738
0.386429
1.2657
0.698605
5.45161
6.42009
6.04245
3.95464
7.292
0.0749176
0.156513
0.13494
0.10855
0.121202
0.179035
1.90704
5.63163
4.42244
4.16798
4.7058
3.91004
5.21729
0.0168129
0.694404
0.0875595
1.56468
0.0011085
2.26568
1.3058
0.231047
3.59184
3.66793
0.0851917
0.333118
0.0807752
0.835653
2.23273
0.0399886
0.231998
0.0566496
3.03482
4.51628
0.159287
0.132662
0.137142
0.110862
0.336786
0.194601
0.0703278
0.194721
0.0596
1.23954
0.0207858
0.0592384
7.29964
2.50315
0.483821
2.3549
2.35792
5.57797
3.78017
3.74576
4.63897
1.10233
2.78281
3.62898
1.45988
0.574226
1.27085
3.77986
1.18486
0.864785
3.35535
6.81213
5.30904
3.30367
0.649786
0.446902
0.64668
0.471123
1.80776
1.49008
3.20125
2.8589
0.161894
0.755208
0.0929146
0.839353
0.881205
0.406439
0.483438
0.246508
1.97795
2.66939
0.288333
0.201763
0.278825
0.124797
0.0746724
0.0198095
0.0597431
0.337507
0.170138
0.817191
0.423603
0.421061
0.596174
0.507897
2.28732
0.746086
0.0775989
0.306896
0.321859
0.67467
0.873983
5.92495
2.31156
5.17126
3.65141
6.60528
3.14625
4.28138
4.83714
0.733293
0.944525
0.665063
4.14467
4.62712
6.48917
2.31902
3.31633
0.838103
0.118349
0.834212
0.00924407
2.11973
0.854085
0.809186
2.8682
2.83149
5.06409
5.30806
5.35462
7.92304
4.53211
5.42347
2.5132
2.48373
5.79432
5.57249
0.828694
1.49154
0.0203865
6.24061
5.51266
6.47434
0.541881
2.25728
3.23494
6.16239
6.00947
6.51509
0.556599
0.0826477
3.83063
1.08544
1.49346
0.103771
0.211801
0.114652
2.164
4.87348
4.31877
3.0678
5.61157
6.3874
0.360349
0.510427
0.0205858
0.800921
0.648337
0.331163
6.92031
2.61864
5.92585
5.32611
3.97494
2.23602
0.541234
0.0377171
0.224284
0.119402
1.20124
0.693612
2.00286
0.0495059
0.447556
3.24692
1.65285
4.18204
0.68755
0.762582
0.58244
1.80556
0.587762
5.2332
4.57743
5.27167
3.23593
3.17159
2.95767
1.54676
2.34149
3.09509
0.665701
0.112183
2.9361
1.68744
0.617855
0.366231
0.806984
0.480286
1.02127
2.98035
1.95182
0.582125
4.12389
4.75632
5.5557
3.47848
4.63331
3.24349
3.56823
1.09684
2.38517
4.93936
3.98564
4.51325
5.42555
3.75383
0.174518
0.424496
0.349484
0.354291
0.482329
2.76637
2.17583
0.527046
0.630394
0.173352
0.797642
0.0111038
3.84896
4.76221
0.123782
1.24238
0.138492
0.681807
0.540489
0.205112
0.590505
0.203717
0.151905
0.0624437
0.110706
0.107185
0.0494693
1.98023
0.10086
0.152645
1.03073
0.284517
0.0729037
0.0416463
0.0668492
0.0841458
0.0713332
0.105119
0.0959477
0.0645415
2.16446
3.38078
5.38124
7.62595
1.9557
0.088452
0.060009
0.0912395
0.147017
0.686041
0.170035
0.670693
0.371528
0.0384853
0.0588482
0.158818
0.0756029
0.0329877
0.504532
3.71002
0.266386
0.123991
0.0902164
1.16746
6.37269
5.39225
2.83117
4.65484
1.26368
0.0186938
0.272317
1.33076
1.40896
2.19493
2.06266
0.0898788
2.08
0.651385
1.09302
0.585801
0.304627
0.324198
0.0295342
0.134769
0.453265
0.65274
0.262184
0.067323
0.0405763
0.00662414
0.0514814
0.356607
0.0556311
0.164575
4.5363
0.133539
0.686088
4.51028
2.50311
2.60271
1.09563
2.87573
0.360018
0.119332
0.409162
4.47307
4.13869
4.12496
4.18175
1.32596
0.766784
0.776876
SCALARS CoVolArea float 1
LOOKUP_TABLE default
0.111895
0.114575
0.142387
0.0844187
0.0611152
0.044506
0.0716401
0.0465606
0.0225125
0.0179202
0.0264801
0.026301
0.0732377
0.0245712
0.0288456
0.0330495
0.0286934
0.0411825
0.0378996
0.0382589
0.0795926
0.0761336
0.0727105
0.0189911
0.120736
0.156582
0.0773977
0.0658838
0.144557
0.12718
0.0238281
0.0790088
0.0598161
0.0504111
0.023542
0.0400468
0.136971
0.0321554
0.0350749
0.0529767
0.0681601
0.122677
0.157402
0.092696
0.0712613
0.0172772
0.0431109
0.0252067
0.0148112
0.0359766
0.0344301
0.0362113
0.0697261
0.0501261
0.00947314
0.125965
0.0345858
0.0877177
0.0412854
0.0772528
0.102427
0.0422137
0.0184094
0.0106131
0.0479324
0.102062
0.167567
0.042814
0.0465762
0.0345994
0.0586764
0.0258795
0.11152
0.0368776
0.0751068
0.0700996
0.0256111
0.0336469
0.0914858
0.0838378
0.0703891
0.0192718
0.0505986
0.0469878
0.0829922
0.0906052
0.0819933
0.0719843
0.12216
0.176491
0.105875
0.173758
0.0628861
0.0733756
0.193028
0.0685853
0.186251
0.0827506
0.0838499
0.0898995
0.0989526
0.105016
0.101376
0.151038
0.115037
0.0724549
0.0865378
0.0997296
0.0412273
0.052847
0.0470768
0.0254186
0.078536
0.0351954
0.0700459
0.0299561
0.0188029
0.0330158
0.0324544
0.0226186
0.0584115
0.072167
0.103066
0.061306
0.0245715
0.142116
0.0867604
0.0855591
0.0831325
0.0773305
0.117472
0.103717
0.0430047
0.0361624
0.0650891
0.0468401
0.0834399
0.0652267
0.0301028
0.0438574
0.0272584
0.0357463
0.108293
0.0774678
0.10189
0.095875
0.0678425
0.0933837
0.0758127
0.142383
0.0621118
0.0921401
0.0994595
0.0938107
0.0422581
0.106959
0.0838262
0.102096
0.135014
0.0794508
0.0864218
0.0509631
0.168151
0.113048
0.102892
0.0924176
0.102268
0.102315
0.0438966
0.0757278
0.0596251
0.0223761
0.0158563
0.0136268
0.0245041
0.0173027
0.0184718
0.0424787
0.0282888
0.0645025
0.031042
0.0203427
0.0427134
0.035807
0.0146277
0.0111419
0.0276133
0.0195314
0.0267084
0.0951412
0.0582973
0.0800136
0.0736147
0.0909937
0.0322768
0.0505264
0.046686
0.0545008
0.0348086
0.0506733
0.0297075
0.0203935
0.0247373
0.0383667
0.012057
0.0146032
0.150351
0.130587
0.123025
0.0297362
0.0806547
0.0489268
0.0434605
0.0780337
0.0330171
0.018683
0.013204
0.0218625
0.0778188
0.108366
0.0372698
0.0578616
0.0501791
0.0557726
0.0395857
0.130717
0.139287
0.044797
0.0915917
0.0589995
0.0861724
0.0323644
0.0328395
0.0290983
0.0502775
0.0213246
0.0139388
0.0185519
0.0380731
0.0223275
0.022622
0.0263533
0.0179931
0.024302
0.122329
0.173507
0.0690504
0.0835302
0.110663
0.111933
0.100218
0.0473443
0.0250843
0.0389413
0.0265882
0.0403401
0.0222938
0.0464255
0.0200486
0.0258941
0.029502
0.0736478
0.0386113
0.0491045
0.028354
0.0286856
0.0392107
0.0926899
0.0742432
0.107384
0.207112
0.103054
0.149267
0.144446
0.0970029
0.0202328
0.0273912
0.0603185
0.042454
0.0620843
0.0489634
0.0756772
0.0191303
0.0165731
0.0692963
0.0406299
0.0552347
0.0354501
0.0580602
0.108297
0.0954073
0.104565
0.0895842
0.122848
0.0358701
0.0452032
0.0352965
0.0482667
0.0244252
0.0698185
0.0712943
0.0745805
0.0745819
0.0789204
0.0637641
0.0530072
0.0204438
0.0301682
0.0289407
0.0250479
0.0271557
0.018215
0.0571882
0.0462574
0.0654102
0.0606901
0.0743468
0.0496104
0.0630878
0.0669161
0.0481026
0.0542265
0.122555
0.0825005
0.119313
0.0579422
0.0449156
0.115356
0.0720361
0.0954359
0.0359143
0.0386355
0.0815511
0.124551
0.0836901
0.168602
0.180898
0.154398
0.119439
0.162899
0.157168
0.0838745
0.133092
0.132081
0.0357131
0.0506261
0.151541
0.0799476
0.0637696
0.0741111
0.122602
0.051433
0.0534286
0.147474
0.0983338
0.0754541
0.100156
0.157567
0.123332
0.0916356
0.132246
0.132416
0.0929994
0.0501786
0.059942
0.101407
0.152751
0.252869
0.250894
0.238835
0.0510555
0.0600651
0.05375
0.0443183
0.10691
0.0782758
0.120994
0.0711394
0.0735497
0.133751
0.0996926
0.123256
0.0717278
0.0677629
0.0914133
0.114796
0.0950795
0.145407
0.130202
0.113521
0.127841
0.135649
0.148936
0.105032
0.147028
0.142113
0.0721101
0.0716743
0.05607
0.065126
0.0829995
0.0778805
0.0781381
0.12703
0.102807
0.0302356
0.0613768
0.0423579
0.0604654
0.0453465
0.032386
0.0327165
0.0261068
0.0672272
0.0467133
0.0616903
0.0237307
0.0265507
0.0241706
0.0626836
0.0491661
0.0742417
0.0905601
0.0729934
0.0896415
0.0460856
0.0561296
0.0648562
0.0431654
0.0494255
0.028117
0.0243923
0.0220267
0.0220498
0.0299994
0.0210914
0.036832
0.0436614
0.0233198
0.0338793
0.0555935
0.0471654
0.0639203
0.0175095
0.0251953
0.0129375
0.0519568
0.0396929
0.0357414
0.0272818
0.022516
0.0232424
0.0914339
0.102234
0.0439776
0.0668305
0.104669
0.0899399
0.112311
0.0693708
0.0465021
0.0286016
0.0322902
0.0455717
0.0212954
0.0236055
0.168504
0.131412
0.144204
0.129765
0.117379
0.135688
0.0405231
0.0772194
0.044035
0.0501896
0.0529907
0.0966069
0.0968499
0.0944754
0.120126
0.0954346
0.0538993
0.0751841
0.0568445
0.160902
0.145927
0.0600235
0.0998232
0.0598815
0.127885
0.139816
0.0683047
0.0562859
0.0782945
0.0341995
0.0292783
0.0201578
0.0382028
0.0364504
0.0334467
0.111258
0.070809
0.0658883
0.0793005
0.0934453
0.0404582
0.0581275
0.070799
0.0634905
0.0564359
0.0756646
0.0578976
0.0400624
0.0463202
0.0550918
0.033727
0.0272321
0.0315881
0.0302944
0.0290729
0.045255
0.033659
0.0533415
0.0410794
0.0277279
0.0341337
0.0351839
0.0307327
0.0401518
0.0940856
0.0962322
0.090791
0.0879727
0.0905278
0.0427511
0.0585855
0.118002
0.0862144
0.101587
0.0675253
0.0877788
0.0477252
0.0317502
0.0803987
0.0592664
0.0958986
0.0790699
0.114651
0.126389
0.129304
0.122491
0.0784752
0.0718733
0.071327
0.101733
0.142722
0.0424365
0.079723
0.0587585
0.0491725
0.0648426
0.092442
0.169476
0.132223
0.106554
0.0982446
0.0952983
0.112767
0.13986
0.0854598
0.0549451
0.0439578
0.0403326
0.0604364
0.0821882
0.104104
0.0905361
0.0753803
0.072487
0.0867215
0.0813788
0.0844351
0.0949915
0.104227
0.0975973
0.109423
0.103492
0.0860632
0.0562137
0.0743306
0.0943548
0.115259
0.113563
0.0430807
0.049701
0.0654441
0.041874
0.0924483
0.120212
0.110199
0.0941236
0.0758411
0.0779164
0.0823133
0.115789
0.048872
0.0698065
0.0554173
0.0653129
0.0881441
0.0890156
0.135069
0.103364
0.0766452
0.0758636
0.0956312
0.106265
0.106527
0.123334
0.148327
0.106968
0.142449
0.124699
0.0388503
0.106246
0.0705005
0.0386956
0.0469787
0.0492433
0.0555412
0.0488445
0.0789204
0.109506
0.113725
0.0389899
0.0583989
0.0607474
0.0432877
0.110607
0.0907637
0.087007
SCALARS SignedDistance float 1
LOOKUP_TABLE default
0.0593786
0.017567
0.0848438
0.0407709
0.357569
0.195702
0.052396
0.0296804
0.0553207
0.0538813
0.0437813
0.136192
0.0669072
0.0664343
0.017917
0.0351932
0.0211846
0.0169487
0.0236406
0.0450058
0.0669654
0.0875568
0.587988
0.0249119
0.905834
0.748087
0.0589116
0.116149
0.0687822
0.0618851
0.0193329
0.0682099
0.0429076
0.206691
0.0214221
0.0820645
0.0616055
0.041897
0.0243302
0.0248139
0.0436601
0.0651517
0.0459559
0.0508054
0.0597132
0.110271
0.0263317
0.0259938
0.044695
0.0387089
0.0652541
0.0468095
0.0207148
0.241283
0.0408743
0.0498872
0.039321
0.0678449
0.0479346
0.0604371
0.0471193
0.0398874
0.0210571
0.016366
0.0203476
0.0529046
0.0471838
0.0418625
0.0346146
0.0259622
0.0322727
0.0470276
0.06647
0.0917397
0.0408655
0.0405741
0.113845
0.0463977
0.062627
0.672803
0.373268
0.0688433
0.26778
0.178832
0.202573
0.394563
0.428718
0.184251
0.671678
0.640594
0.670028
0.0764759
0.183507
0.034487
0.0512514
0.0788986
0.0590809
0.0777322
0.0251289
0.0464647
0.0612667
0.0334689
0.0645431
0.0537933
0.0509989
0.0477756
0.068892
0.0631581
0.0232637
0.0532036
0.0236931
0.0403214
0.0389293
0.0327221
0.0517009
0.0757904
0.0509951
0.0511289
0.0982127
0.0807649
0.288908
0.0349817
0.0801874
0.232059
0.0798808
0.0543538
0.051367
0.0441487
0.0353713
0.0527945
0.0383863
0.0433354
0.0364416
0.0396495
0.0380072
0.02771
0.0395294
0.0402812
0.0234098
0.0522245
0.0280151
0.0341549
0.0465489
0.0535954
0.0600096
0.0597936
0.0483675
0.574521
0.353622
0.920186
0.108159
0.492583
0.544437
0.0931069
0.040164
0.0699145
0.0587904
0.0626766
0.0814605
0.0227886
0.0221418
0.0091686
0.0597676
0.0583374
0.0637187
0.0630285
0.0482824
0.055906
0.0179821
0.0348264
0.0510398
0.0493884
0.029336
0.0633129
0.0306809
0.0554102
0.0238228
0.0508895
0.0666921
0.0791947
0.0943363
0.0745493
0.133801
0.0501309
0.054807
0.0271745
0.0553961
0.0486674
0.0409376
0.0694855
0.0481016
0.0364519
0.0495624
0.0216647
0.0186298
0.0482681
0.0435076
0.0394499
0.02176
0.247212
0.102271
0.064847
0.0851142
0.114929
0.0485689
0.0380855
0.0719057
0.0943813
0.0518623
0.0294437
0.0551196
0.0327396
0.00757292
0.0225375
0.00920583
0.0235707
0.0276193
0.0220469
0.0496147
0.0638603
0.0225377
0.0394541
0.0190058
0.0490735
0.0212231
0.0503507
0.0937574
0.0121963
0.0229156
0.0121679
0.0554628
0.0294896
0.0250309
0.013218
0.0304334
0.021651
0.0203443
0.0257635
0.014267
0.0116453
0.0169315
0.0213572
0.0256443
0.0260153
0.0588644
0.059931
0.0541814
0.0352959
0.0566292
0.0495031
0.0617738
0.0395598
0.0424252
0.0358353
0.0382767
0.0445633
0.0410728
0.0454574
0.0470982
0.022522
0.0234655
0.0803257
0.0533981
0.0490744
0.023531
0.0320911
0.0238533
0.0418349
0.0512164
0.0724573
0.0496978