# vtk DataFile Version 4.2
vtk output
ASCII
DATASET POLYDATA
POINTS 642 float
-0.220953 1.64573 -0.0273952
0.665562 2.07552 -0.0213711
-1.17747 -0.0683196 -0.0266429
0.153591 0.408726 -0.0244825
-0.28245 0.459109 0.410442
0.0247927 1.70384 0.43217
-0.304693 0.456012 -0.53056
0.0391314 1.71252 -0.524459
0.870443 1.34322 -0.477791
0.863003 1.33481 0.415926
-1.35288 0.871724 -0.500491
-1.32934 0.869922 0.395226
-0.935334 1.06925 0.182583
-0.64986 1.13998 0.408326
-0.0785083 1.80894 0.321506
0.376313 2.08103 0.420691
0.11601 2.18478 -0.021906
0.377799 2.09088 -0.492967
-0.0762913 1.81153 -0.388959
-0.660888 1.12968 -0.491647
-0.938377 1.06777 -0.248156
-1.43689 0.821815 -0.0253964
0.534758 1.54276 0.414706
1.07995 1.89421 0.37206
-0.903676 0.54879 0.395434
-0.178637 1.03965 0.409082
-1.40692 0.140648 -0.420062
-1.41773 0.165279 0.339306
-0.165369 1.03307 -0.538498
-0.936334 0.526663 -0.532064
1.08005 1.8942 -0.421055
0.558561 1.57352 -0.531889
0.564464 0.792768 0.253044
0.36136 0.849327 0.421558
-0.0267143 0.303409 0.379095
-0.823125 0.0469608 0.386273
-0.496262 0.0790898 -0.0326715
-0.843496 0.000486504 -0.535708
-0.0375906 0.303803 -0.440196
0.357706 0.848694 -0.531092
0.562642 0.79178 -0.309981
0.929745 1.39094 -0.0256715
-0.522826 1.32114 0.0570464
-0.447518 1.37066 0.23278
-0.162074 1.72382 0.136032
-1.08049 0.9522 0.40633
-0.820643 1.09823 0.329966
-1.23696 0.960832 0.339876
-0.0302458 1.80146 0.419963
-0.346512 1.43509 0.363266
-0.239371 1.45328 0.428894
0.0511876 2.0697 0.225996
-0.03174 1.93643 -0.0271037
0.201295 1.91932 0.427099
0.107818 2.09606 0.410207
0.345637 2.14367 -0.0246297
0.201872 2.19403 0.275179
0.557543 2.08117 0.242376
0.0509395 2.06872 -0.280549
-0.162777 1.72252 -0.197334
0.557782 2.07975 -0.296889
0.202958 2.19226 -0.326421
-0.0277839 1.81327 -0.496657
0.10353 2.11083 -0.485428
0.206865 1.94278 -0.531084
-0.448266 1.36835 -0.299821
-0.523762 1.32006 -0.123483
-0.234976 1.44887 -0.50447
-0.344882 1.43237 -0.43129
-1.24392 0.955628 -0.406836
-0.828257 1.09276 -0.40011
-1.09514 0.941352 -0.49433
-0.978707 1.06381 -0.0316488
-1.43064 0.850014 -0.362555
-1.29751 0.959136 -0.180175
-1.29763 0.959918 0.126123
-1.43228 0.856877 0.306421
0.780624 2.00109 0.420068
0.890118 1.99413 0.170452
0.241661 1.63468 0.416914
0.530254 1.86488 0.421509
1.00748 1.62557 0.415852
0.849741 1.76922 0.419359
0.77716 1.44175 0.424701
-0.440508 1.12694 0.423547
-0.0736505 1.38969 0.422394
-1.16663 0.691104 0.39516
-0.832033 0.888879 0.411402
-0.251189 0.704843 0.406922
-0.552259 0.795053 0.404919
-0.588269 0.472408 0.400492
-1.47434 0.488218 0.15498
-1.38578 0.560254 0.369357
-1.38739 0.54778 -0.460402
-1.47242 0.484295 -0.214197
-1.3524 -0.0382814 0.211703
-1.45419 0.145273 -0.0282042
-1.34867 -0.0320082 -0.269413
-0.847821 0.861279 -0.52583
-1.18866 0.681114 -0.523312
-0.0524352 1.38544 -0.527232
-0.438082 1.10026 -0.523928
-0.627019 0.458207 -0.532417
-0.566422 0.778975 -0.537584
-0.257722 0.709171 -0.540873
0.54608 1.88133 -0.53174
0.266926 1.65887 -0.535013
0.88994 1.99393 -0.217401
0.788157 2.00721 -0.48516
0.78552 1.46171 -0.511357
0.873232 1.78637 -0.522029
1.02889 1.63117 -0.487485
0.352152 0.56454 0.109756
0.305012 0.541085 0.340243
0.0658374 0.347841 0.191204
0.661509 1.10864 0.430295
0.51106 0.791368 0.416998
0.739421 1.07889 0.353563
-0.158211 0.351534 0.417429
0.202295 0.551238 0.425635
0.00756935 0.620345 0.41652
-0.274926 0.160622 0.21814
-0.129686 0.220374 -0.0295241
-0.539244 0.241351 0.405957
-0.407577 0.136077 0.399759
-0.853761 -0.0363881 -0.0320307
-0.671168 0.0189541 0.239287
-1.0557 -0.0466596 0.253207
-0.281464 0.158851 -0.28155
0.0624334 0.346151 -0.249984
-1.0615 -0.0481488 -0.327762
-0.679162 0.0146505 -0.310465
-0.175065 0.347363 -0.506449
-0.425548 0.125309 -0.471473
-0.582494 0.225043 -0.510461
0.302344 0.538532 -0.403732
0.351101 0.564131 -0.164869
0.0033262 0.624893 -0.533716
0.199268 0.547633 -0.507256
0.737168 1.07823 -0.411655
0.514461 0.784191 -0.490588
0.658958 1.10766 -0.508624
0.579489 0.803708 -0.0272037
0.919307 1.37844 -0.321342
0.765481 1.08541 -0.17321
0.76629 1.08558 0.119825
0.918993 1.37552 0.267607
0.109115 0.940659 0.407349
0.467231 1.18885 0.417749
0.188972 1.28381 0.409645
-1.21451 0.0326444 0.365956
-0.910401 0.234948 0.393361
-1.21612 0.333485 0.383482
-0.950756 0.188753 -0.529673
-1.25378 0.00559477 -0.513756
-1.23883 0.283749 -0.512493
0.469945 1.1997 -0.532367
0.118643 0.94582 -0.539568
0.212866 1.29809 -0.535035
1.05137 1.67508 0.164206
1.05062 1.67527 -0.211332
1.0798 1.88902 -0.0189716
-0.318083 1.52084 0.00485994
-0.307808 1.52893 0.0925417
-0.202209 1.67149 0.0298969
-0.692191 1.18824 0.200033
-0.493674 1.34018 0.147977
-0.735497 1.17186 0.113315
-0.116506 1.77389 0.236805
-0.276253 1.55709 0.190387
-0.236087 1.59366 0.276717
-1.25028 0.898575 0.398533
-1.17524 0.960853 0.385312
-1.31992 0.92367 0.405189
-0.738887 1.11841 0.372881
-0.97329 1.02459 0.376402
-0.873639 1.02714 0.4016
-1.10779 1.01233 0.2648
-1.05127 1.0165 0.333155
-0.885589 1.07966 0.26583
0.00260119 1.74929 0.436125
-0.126598 1.63842 0.430367
-0.0726808 1.61629 0.432621
-0.199535 1.62462 0.34676
-0.168857 1.64358 0.399682
-0.0535127 1.82034 0.380665
-0.432143 1.28994 0.422455
-0.298331 1.45497 0.407834
-0.503055 1.26922 0.387098
-0.633172 1.20861 0.273897
-0.569439 1.23665 0.336832
-0.395881 1.40475 0.305051
-0.0841593 1.8376 0.0668368
-0.145791 1.75192 -0.027539
-0.00212375 1.9657 0.290198
-0.0421097 1.91494 0.181636
0.0582409 2.08396 -0.0245477
0.0132795 2.01323 0.095504
0.0895161 2.1381 0.122322
0.0936745 1.78827 0.430913
0.0765854 1.89647 0.439044
0.207725 2.12397 0.429992
0.152961 2.02947 0.436037
0.29307 2.02498 0.433555
0.046974 1.96718 0.422357
0.0224329 1.98875 0.373335
0.540365 2.08701 -0.0238285
0.441889 2.10056 0.116977
0.629596 2.0888 0.094107
0.152801 2.20242 0.138267
0.264996 2.16701 0.131043
0.203556 2.19545 -0.0224438
0.471116 2.08698 0.350889
0.353925 2.13586 0.258347
0.273029 2.15774 0.367858
0.0826668 2.10315 0.337494
0.141696 2.19477 0.382657
0.111143 2.17697 0.266831
-0.0846156 1.83686 -0.12364
-0.202722 1.67078 -0.087094
0.089833 2.13709 -0.170025
0.0130118 2.0122 -0.148482
-0.116552 1.7733 -0.300227
-0.0426624 1.91348 -0.23965
-0.00131627 1.96615 -0.351463
0.629392 2.08852 -0.141663
0.442615 2.10086 -0.168224
0.273259 2.15428 -0.42665
0.355664 2.1344 -0.312819
0.471508 2.08237 -0.412337
0.266078 2.1665 -0.179599
0.153333 2.20158 -0.182598
0.0112627 1.75875 -0.519213
0.0833872 1.91366 -0.523246
0.108934 1.80664 -0.52748
0.0244545 1.9963 -0.442062
0.0477229 1.98285 -0.499
-0.049931 1.82754 -0.452587
0.290267 2.0405 -0.524547
0.151305 2.04931 -0.523252
0.204856 2.13967 -0.50549
0.112049 2.17633 -0.317845
0.142975 2.1956 -0.438788
0.0844408 2.10468 -0.399349
-0.309036 1.52738 -0.156483
-0.318696 1.52019 -0.06468
-0.235478 1.5936 -0.343652
-0.27686 1.55582 -0.256071
-0.737235 1.17044 -0.180241
-0.494742 1.33843 -0.215194
-0.694914 1.18568 -0.267714
-0.0628597 1.61966 -0.520328
-0.12479 1.645 -0.510223
-0.505881 1.2584 -0.455154
-0.295091 1.452 -0.476318
-0.434643 1.2762 -0.49232
-0.166363 1.64908 -0.472141
-0.197295 1.62696 -0.416594
-1.33758 0.926381 -0.488016
-1.18743 0.951024 -0.458782
-1.27196 0.892534 -0.498044
-0.890596 1.07637 -0.333552
-1.05933 1.0126 -0.402387
-1.11218 1.00986 -0.329234
-0.885867 1.0153 -0.486636
-0.983868 1.01626 -0.451353
-0.748503 1.10879 -0.448661
-0.395722 1.40207 -0.372067
-0.573093 1.23012 -0.405056
-0.636829 1.20463 -0.342227
-0.53209 1.31508 -0.0326755
-0.968679 1.06446 -0.14526
-0.759387 1.1626 -0.0832455
-0.758754 1.16306 0.0169932
-0.967349 1.06498 0.0813646
-1.41264 0.88103 -0.488969
-1.36934 0.928193 -0.410375
-1.38607 0.914269 -0.112304
-1.38201 0.920218 -0.277162
-1.43525 0.828421 -0.203792
-1.28043 0.959429 -0.314243
-1.14499 1.00486 -0.2245
-1.36548 0.935382 0.348444
-1.37363 0.871646 0.387158
-1.14331 1.00591 0.164052
-1.27823 0.961362 0.255413
-1.43608 0.831464 0.152835
-1.38419 0.924604 0.225914
-1.38734 0.916022 0.0643996
-1.16008 1.0022 -0.0966362
-1.30222 0.95887 -0.0264559
-1.15978 1.00244 0.0379269
0.73844 2.05824 0.222002
0.760131 2.0507 0.0554939
0.58813 2.04382 0.423776
0.679688 2.06726 0.351681
1.00014 1.94328 0.276572
0.85465 2.00921 0.323549
0.950373 1.9401 0.399012
0.100259 1.6822 0.425329
0.231994 1.78472 0.421403
0.545255 1.71079 0.415824
0.38922 1.75276 0.41712
0.387497 1.58774 0.412074
0.360795 1.90301 0.424752
0.476115 1.98933 0.434556
0.919882 1.45677 0.41212
0.902225 1.5489 0.43081
0.841872 1.37855 0.427841
0.978387 1.84314 0.427331
0.953588 1.70914 0.424069
1.04104 1.77195 0.391131
0.672364 1.49547 0.419087
0.825467 1.61169 0.423125
0.696699 1.66456 0.417369
0.664603 1.94552 0.424951
0.698785 1.82087 0.420031
0.840042 1.89621 0.428253
-0.16945 1.43274 0.430596
-0.0117254 1.58241 0.427521
-0.551599 1.14557 0.427683
-0.349419 1.28617 0.430008
-0.128923 1.21258 0.41548
-0.25026 1.25886 0.423962
-0.314986 1.0883 0.4162
-1.27528 0.800555 0.393879
-1.1383 0.851333 0.406325
-0.875244 0.721246 0.401836
-1.00892 0.782713 0.40337
-1.0424 0.60965 0.3956
-0.959824 0.925494 0.409616
-0.761739 1.0226 0.41593
-0.273956 0.547826 0.408822
-0.413653 0.587531 0.403444
-0.401129 0.460453 0.406203
-0.364524 0.918191 0.40954
-0.39863 0.749303 0.402662
-0.219398 0.869454 0.40724
-0.752991 0.503359 0.396975
-0.580673 0.625496 0.397096
-0.733681 0.669155 0.400384
-0.639373 1.00086 0.417294
-0.695635 0.84214 0.408426
-0.506439 0.964061 0.413722
-1.43113 0.727784 0.360605
-1.35889 0.76505 0.383212
-1.4632 0.665969 0.0624752
-1.4523 0.68507 0.231147
-1.40638 0.35849 0.361491
-1.44979 0.516568 0.311457
-1.46021 0.317578 0.257452
-1.3756 0.767956 -0.493086
-1.42481 0.71813 -0.421248
-1.43929 0.309097 -0.316374
-1.43496 0.504955 -0.368541
-1.40176 0.336438 -0.438946
-1.44262 0.679341 -0.285973
-1.46437 0.664311 -0.118657
-1.26995 -0.071958 0.0686518
-1.35365 -0.0306059 -0.0235198
-1.26958 -0.0693419 -0.121222
-1.44914 0.142712 0.189361
-1.4146 0.0291934 0.0988602
-1.40742 0.0197058 0.303065
-1.39841 0.0190619 -0.376944
[...]
POINT_DATA 642
SCALARS Mean_Curvature float 1
LOOKUP_TABLE default
-0.589548
0.827519
0.496941
-0.127954
-0.03638
0.339578
0.859482
0.299224
12.7967
13.5201
5.70957
1.37225
-0.393435
12.091
0.765139
11.2881
9.58171
10.5681
0.368664
12.1944
-0.317736
2.36849
-0.118905
15.7889
-0.185837
-0.100339
4.52546
9.46308
0.182583
0.179057
14.973
0.141089
1.22233
0.0601869
11.1995
7.66151
-0.300418
17.049
7.60983
1.19481
1.15057
-0.100178
-0.263031
0.444045
0.711372
9.57958
3.33676
1.99253
11.1586
3.73051
6.67897
0.502425
0.521699
-0.893192
11.9274
0.412913
5.20863
-0.563929
0.48833
0.639116
-0.5365
4.97914
10.6678
12.8822
0.851479
0.474543
-0.254445
4.88227
3.99223
1.28119
3.06071
8.61944
0.00565357
5.62064
1.39033
1.2471
8.03438
12.5076
0.14449
-0.171422
-0.395827
14.5812
-0.901855
0.0255718
0.16793
-0.0824824
0.0248502
0.415934
-0.062826
-0.0800726
-0.0341877
1.30321
6.02603
6.46016
1.97961
5.42534
1.69623
5.10966
0.872218
1.22167
0.1463
0.65811
0.197327
0.226203
0.32175
0.809713
0.236533
0.248834
10.4605
-0.245795
1.14329
14.3901
0.651654
1.83356
0.474653
4.59535
14.6008
2.50359
1.51034
4.84908
-0.0461294
-0.187088
0.447991
0.322168
16.0411
0.938615
0.730375
1.60943
-0.275883
0.53069
1.14593
1.26407
1.43469
14.1521
0.595011
1.24195
0.645053
0.798282
3.61833
2.07909
12.7687
4.08541
0.767282
0.116981
0.106746
0.118321
0.0969996
-0.111369
-0.130957
-0.223148
2.38545
0.141636
0.378818
-0.241131
8.52668
1.20737
0.434207
0.181883
0.0918672
2.50658
2.4791
12.2953
-0.296501
-0.245309
0.0572212
0.522362
-0.0364759
-0.0356582
0.157981
-0.180124
0.193748
2.07617
15.9196
26.0946
6.51078
11.426
10.3604
1.55172
3.1344
-0.414654
6.97823
12.2222
1.79382
1.55679
12.2185
5.88964
12.7577
12.2998
8.07496
-0.647104
0.778699
1.10327
-1.24503
0.275737
0.760227
1.04678
-0.303731
0.431446
1.98702
-0.200689
5.70288
10.9981
4.34814
2.09526
11.956
6.91152
-1.40944
-2.03555
2.4375
10.6141
-0.0834891
4.32691
1.93869
0.545063
6.6016
2.01624
17.0137
9.34289
-1.19093
0.0448677
1.92574
0.410664
0.104905
0.971714
0.415339
2.38413
-1.90027
3.25219
0.596633
-0.734379
-0.0228957
10.5345
3.81868
4.13529
0.276251
5.26962
11.5177
4.28426
3.33218
5.3869
12.437
9.17756
15.3294
0.273779
-0.243694
-0.297957
0.13497
-0.179198
-0.0318989
-0.0161451
0.533821
0.992769
11.1615
5.27006
9.45043
8.98926
10.5374
1.16269
19.8445
7.43826
5.13295
-0.441842
3.31137
1.41771
8.21723
6.87069
3.31458
1.15105
1.11537
-0.375572
-0.318234
-0.0701053
-0.199744
-0.205092
-0.0892354
18.4838
7.33142
5.87404
6.27586
3.11671
1.31703
0.206169
12.1859
15.6157
0.189433
1.01648
2.88386
6.66766
6.09592
-0.0178247
1.48602
-0.0256627
1.63284
1.04888
13.0929
5.6815
2.00733
3.2694
10.1526
-0.245726
-0.381796
-0.252309
-0.2437
-0.403589
-0.346831
2.94438
12.5348
4.94952
6.04447
7.3118
2.9144
9.61372
-0.135583
-0.172933
-0.314977
0.850139
-0.270705
2.99612
1.39799
-0.0696625
5.41557
2.78484
-0.115455
0.0509535
-0.108665
0.290613
1.22231
-0.071279
0.0177139
-0.0174189
1.47709
3.68363
-0.0562458
-0.0639695
-0.0424594
-0.0631009
-0.464527
-0.107276
-0.197069
-0.692166
-0.0451112
0.191891
-0.0223373
-0.0515961
12.0319
2.036
0.751029
0.900766
9.44317
6.12928
3.13754
8.27572
5.17744
0.711599
2.30395
6.53937
0.170814
1.19892
4.75475
4.18776
4.56169
2.21706
4.36739
10.2137
5.36399
4.29863
2.1493
0.395436
1.58214
1.13144
1.09723
2.31823
1.78235
1.53021
0.46826
0.40019
0.567596
0.545443
0.398453
0.485694
0.739753
0.366871
1.15483
1.51637
0.351195
0.273497
0.3427
0.272619
0.245817
0.136816
0.211166
0.10429
0.282228
0.797518
0.564076
0.577905
0.501535
0.604845
2.74086
0.745846
0.163601
0.210737
0.19037
1.04091
1.66369
7.18949
1.88311
1.89386
3.76455
12.0728
5.57519
4.35225
10.5555
0.468584
0.545221
0.741278
6.34231
4.91077
10.6921
3.08515
4.82443
0.840853
0.962204
1.0628
-0.404461
1.35859
0.941048
0.659641
2.49488
1.47053
2.56581
6.28052
13.8742
17.101
2.43955
8.70941
0.594981
1.51765
12.0444
4.82448
0.103241
0.232239
-0.0421771
14.4688
4.09722
8.2242
-0.0698363
0.280486
0.769875
11.1137
10.0125
17.3178
0.68201
1.09231
1.24603
-0.278458
-0.300237
2.35095
0.709706
0.0369987
0.483805
15.0026
1.37526
1.00447
1.85328
18.6574
0.648216
0.540755
0.673669
-0.00787248
1.30602
0.882387
11.2579
1.86706
9.22643
3.03166
4.63716
-0.467645
0.59518
-0.359465
0.770432
2.30913
2.75974
-0.136685
1.05499
0.662913
0.494165
3.49309
1.41961
0.946756
1.23339
0.0350816
1.15412
0.680628
0.969505
16.8669
1.53145
6.28974
0.178317
1.89626
10.9771
-0.327856
2.75308
2.296
1.02282
0.947002
1.65184
1.15925
0.642547
0.810447
1.31669
0.760854
0.992988
1.37549
1.10746
0.690946
2.86745
11.8402
11.0712
10.0511
9.45124
3.08094
7.6704
1.53875
1.04946
8.84866
2.75095
14.8062
8.96506
7.29443
0.591706
0.837312
0.584458
0.591814
0.850633
5.17685
2.97877
1.16286
1.47489
-0.0794014
0.0136077
0.622315
3.00761
7.48258
0.587984
0.0107142
-0.102218
1.4922
1.16907
0.371307
0.16801
0.364331
-0.0635713
-0.12557
-0.102521
-0.0800572
-1.06454
0.586165
-0.1271
-0.168276
0.208388
-0.134786
-0.181533
-0.100577
-0.108575
-0.102971
-0.443266
-0.129698
-0.0855061
-0.763499
3.56015
4.1542
9.84168
16.1404
2.31346
0.0185557
0.00948781
0.0145322
0.173414
0.845792
0.967259
1.66513
1.36875
0.27566
0.0716565
0.853162
0.176841
0.586494
0.588625
1.93249
0.55362
0.191227
0.0365143
3.16604
15.116
11.9918
1.38016
13.5404
2.86811
0.295484
1.1459
3.03291
2.73517
2.29839
4.41323
-0.060264
0.554525
0.753482
0.861636
0.955423
0.151685
0.34861
0.145442
0.29926
0.341886
0.438763
0.426115
-0.256575
-0.161846
0.210131
0.139504
0.160759
0.121296
0.124209
3.39779
0.331182
0.305137
4.59451
-1.22652
1.83363
-1.56751
3.12501
0.349513
0.332973
0.096336
12.5727
2.03779
2.04496
12.466
2.37562
-1.25454
-1.35763
SCALARS Redistribution_Potential float 1
LOOKUP_TABLE default
-2.32417e-16
-0.837794
10.9107
3.6441
4.15058
-2.72558
6.0482
-1.36221
-0.593919
-1.57714
4.93788
3.57315
4.77163
3.59586
-2.74492
-2.71817
-2.79086
-1.88714
-1.69814
5.16883
5.54386
7.45425
0.133524
-1.29691
7.66145
4.07128
10.97
9.93223
5.5575
9.32747
-0.742226
1.0378
1.69241
1.77657
3.66212
8.54425
9.39156
10.0222
5.07151
3.11032
2.49463
1.23192
3.71032
2.49644
-1.01241
4.12711
4.02693
3.73708
-3.32876
1.15978
0.567029
-3.59887
-2.03146
-3.11549
-4.40324
-1.54639
-3.54614
-1.28225
-2.89926
-0.420062
-0.727399
-2.8365
-2.134
-3.54186
-2.19533
3.42093
4.04201
2.09773
2.45874
5.02843
5.29858
5.61603
5.55819
6.2931
5.87838
5.28988
5.06458
-1.30975
-0.440076
-0.610083
-1.2334
-1.36246
-1.27573
-1.04849
3.65801
1.26173
6.36882
5.31541
4.84318
5.93633
6.82756
10.0041
7.76977
9.07232
10.6108
10.4575
11.6818
11.2497
7.0375
7.85316
2.82405
5.42412
8.65095
7.56399
6.4994
-0.416159
0.499621
-0.0816891
-0.642722
-0.00621947
-0.630589
-0.667261
2.9703
2.15537
4.06738
-0.0293282
1.04299
0.107573
3.839
2.21705
3.36228
6.72418
6.54506
6.74018
6.39689
10.9868
9.10409
10.1205
7.63558
4.87508
11.1952
10.1095
5.58079
7.89013
8.53157
3.27822
3.42712
4.94502
3.62851
1.10431
2.21163
1.21779
2.75481
0.419171
1.94936
1.5499
-0.25778
3.38035
1.23236
2.09962
9.48329
8.57642
8.89974
10.1438
10.5691
10.3721
2.47427
4.70067
3.32949
-0.0705823
0.31347
0.00474192
1.38818
1.16789
-0.401474
4.18825
3.19984
4.69289
-1.89294
0.575512
-0.229
3.67316
3.75107
3.35661
3.79554
4.07753
4.17678
4.31423
4.05751
4.34172
-3.12024
-1.65237
-1.59248
-0.959484
-1.44024
-3.22781
2.34745
0.745355
2.66833
3.6431
3.12029
1.76861
-1.7225
-1.01749
-3.52833
-2.6013
-2.6738
-2.73023
-3.22382
-3.0225
-3.74296
-3.98632
-4.03931
-3.10125
-4.12296
-4.08396
-0.904896
-1.35517
-0.873246
-3.15574
-2.43273
-2.45694
-2.01807
-2.35857
-3.42426
-4.27658
-4.26453
-3.9152
-1.39542
-0.174315
-2.80366
-2.35563
-1.01673
-1.94216
-2.64512
-0.610204
-1.02771
-2.60937
-1.72176
-1.27643
-2.0408
-2.71544
-1.81255
-2.67888
-1.83858
-3.13833
-3.14725
-2.10511
-2.25603
-3.1538
-3.15336
-3.18475
-3.43518
-3.43389
1.63641
1.52624
0.792175
1.35539
5.22366
3.84598
5.02525
-0.130075
-0.284249
4.12979
2.15608
3.93672
-0.16875
0.216805
4.76021
5.12473
5.10545
5.398
5.30272
5.36286
5.69778
5.45713
5.22839
2.91288
4.42326
4.73637
3.97704
5.64472
5.25483
5.07193
5.23321
5.14135
5.16396
6.50337
5.99633
7.27164
5.3955
5.60579
3.80582
3.845
4.89366
4.33882
6.58904
5.02049
6.14887
5.72742
5.90779
5.47721
-0.795004
-0.509172
-1.63815
-1.27163
-0.888076
-1.00946
-1.34348
-1.97224
-1.95657
-0.50846
-0.941849
0.094762
-2.02342
-1.95173
-1.46703
-1.42224
-1.52521
-1.52223
-1.47829
-1.40551
-0.372637
-1.13098
-0.659156
-1.35947
-1.03602
-1.36482
0.711105
-1.11202
3.50425
2.25926
2.90599
2.50369
3.93827
4.6861
4.72022
6.61099
5.88405
7.29128
4.70525
4.32106
4.43152
5.61507
5.30829
4.99055
5.57352
4.72767
7.5243
6.57576
6.85828
4.61206
5.80718
4.91267
6.13492
5.17594
8.89449
7.69411
9.27939
8.70616
10.2374
6.40513
7.41697
11.153
9.85354
10.507
8.59176
9.21145
10.8541
11.2541
11.2024
10.8966
11.1193
10.0865
11.0429
11.5422
11.5789
10.7334
11.6079
11.2923
6.27313
6.05312
6.01943
6.33805
8.86945
7.47692
8.23622
0.369179
2.3363
5.58203
4.21276
4.44933
3.97756
5.23792
7.24606
7.43039
6.27379
8.51052
8.27495
9.25337
6.23447
7.20468
6.56961
6.37201
6.60021
7.48875
-0.945612
-0.677246
-1.09718
-1.14475
1.05088
-0.0437216
0.288893
-0.34419
-0.317597
-0.758188
-0.438447
-0.396504
-0.610278
-0.870117
-0.512026
-0.59208
-0.608131
0.095617
-0.333053
0.594421
-0.809295
-0.815548
-0.932137
-0.609281
-0.720096
-0.324517
3.34867
3.2436
3.90203
1.82468
2.53459
2.37838
3.83395
2.97323
2.7482
-1.10205
-0.142509
-1.02447
1.22444
0.559149
0.878603
0.957482
0.572867
1.18129
3.98321
3.3459
3.8132
2.74323
2.9484
3.70412
2.63575
2.67513
1.94039
1.53503
1.58233
2.04416
5.33096
4.76278
5.06763
5.33711
8.01817
6.81253
8.25417
5.166
5.13174
7.70296
6.58146
7.7677
5.02153
4.89627
11.1265
10.6882
10.7654
9.47165
10.2172
10.3858
9.26689
9.68623
8.64822
6.51184
7.84622
8.12204
5.7828
4.25089
8.74006
7.29097
4.99017
6.21277
6.30174
11.2915
11.2847
10.0198
10.7905
10.6312
10.7969
9.98519
5.84655
6.97826
7.10219
6.39285
6.69875
5.28019
9.38363
8.25311
9.21104
9.0435
9.0993
7.75731
3.89832
3.55044
4.01223
4.00048
3.02823
3.38605
2.79376
5.60549
5.0515
3.31045
4.19808
4.04806
4.52461
4.16709
0.023746
0.997454
0.0194774
2.22283
1.6728
1.86856
2.18599
1.76978
2.49664
3.32713
2.84885
2.69225
3.27079
2.77339
3.11129
2.88258
2.34156
-0.39085
0.535544
1.62012
1.24234
1.08752
1.52166
2.25303
-0.326699
-1.28026
1.64778
0.765723
0.719781
0.676335
1.42505
2.46134
2.00171
2.25227
4.08128
2.59907
3.46586
4.19504
3.89867
-0.737452
0.718946
-0.00918247
0.462236
1.57689
-0.00147379
3.10923
1.85944
0.841507
1.0706
2.37447
1.87165
2.94177
10.2431
9.14592
9.65492
9.77189
9.65248
6.84148
8.31532
7.83711
7.85928
8.56351
6.99703
9.40539
8.59807
7.92418
8.3368
9.10299
8.92036
9.32754
8.69029
10.0623
9.52913
9.57284
9.99436
11.1886
10.6429
10.7571
10.8074
10.4668
8.38433
9.95484
9.46646
10.0338
10.6708
10.4305
10.5544
10.4135
0.480591
2.88708
1.76977
1.18302
1.81148
5.71304
5.26689
5.65296
4.89
3.92412
1.35993
2.14104
2.01763
3.23451
4.48145
3.64002
4.20929
3.05664
-0.988214
0.668927
-0.126579
-0.928329
-0.828918
-0.270683
-0.323198
-0.315586
0.400247
0.859379
-0.0547768
-0.60165
-0.224377
-0.0179017
-0.190521
0.495676
0.178111
-0.0297164
SCALARS CoVolArea float 1
LOOKUP_TABLE default
0.00783383
0.0123619
0.0142879
0.00929733
0.00766116
0.0063212
0.00866528
0.00711519
0.00506761
0.00467252
0.00483314
0.00436956
0.0219406
0.0120307
0.0158779
0.0145823
0.0150911
0.0158454
0.0169294
0.0147193
0.0222757
0.0237217
0.0256855
0.0148716
0.0256243
0.0263194
0.0214595
0.018692
0.0260907
0.0266445
0.015197
0.0253406
0.0199856
0.018903
0.0133006
0.0132767
0.0275203
0.0163889
0.0139671
0.0191738
0.0205968
0.0269282
0.0258644
0.0223647
0.0217076
0.0113844
0.0147224
0.0111086
0.00999111
0.0141343
0.0131628
0.0164386
0.0213184
0.0170126
0.00922823
0.026961
0.0153626
0.0246192
0.0172502
0.0224924
0.0256047
0.0160928
0.0111501
0.00968148
0.0166183
0.0226784
0.0263093
0.0158158
0.0148522
0.0122819
0.0158237
0.0133668
0.0247331
0.0172308
0.0179988
0.0178438
0.0152995
0.0160381
0.0250601
0.0235279
0.0221589
0.0132251
0.0190622
0.0173718
0.0211045
0.0232787
0.0227771
0.0219905
0.0238751
0.0269295
0.0245847
0.0319219
0.015887
0.0184699
0.0320774
0.0187275
0.0309622
0.0193163
0.022399
0.0227494
0.0245735
0.0225149
0.0257396
0.0260552
0.0248894
0.0211564
0.0241532
0.0256954
0.0168901
0.0188243
0.0179705
0.0144357
0.0217956
0.0158769
0.0214282
0.0132087
0.011437
0.015268
0.0143744
0.0126378
0.0202288
0.0225618
0.0243463
0.0185605
0.0147813
0.0279318
0.0231374
0.0242599
0.0233466
0.022094
0.0271182
0.0242561
0.0163162
0.0159278
0.0194944
0.0167969
0.0222517
0.0206485
0.0142873
0.015918
0.0127295
0.0151041
0.0243513
0.0218581
0.0245988
0.0244295
0.0212166
0.0257271
0.0240855
0.0267651
0.0153955
0.0229848
0.0224517
0.0230174
0.0148262
0.0226857
0.0240422
0.0249552
0.0269954
0.0229736
0.0234792
0.0193727
0.0183512
0.0235936
0.0152419
0.0224995
0.025383
0.0246357
0.020503
0.0239431
0.020227
0.0084886
0.00860853
0.00574434
0.0118852
0.0105844
0.01181
0.0171525
0.0129873
0.0186493
0.00847573
0.0108713
0.0109587
0.0152144
0.0116338
0.0113537
0.012515
0.0119788
0.0125127
0.019401
0.0155337
0.0182309
0.0199368
0.0146343
0.0163292
0.0201227
0.0193349
0.0202161
0.0160603
0.0117881
0.0115373
0.0114525
0.0120275
0.015625
0.00983364
0.0114062
0.0227825
0.0269204
0.0211968
0.01468
0.0224122
0.018815
0.0190785
0.0226875
0.0152189
0.0116136
0.0107132
0.0124388
0.0204428
0.0159523
0.0164529
0.0206045
0.0213117
0.0208023
0.0173567
0.0218391
0.0274174
0.0162604
0.0236348
0.0205123
0.0228608
0.0150483
0.00983227
0.0123033
0.012422
0.0123907
0.0105298
0.0121183
0.0155999
0.0119926
0.0118711
0.0130766
0.0112389
0.0125491
0.024402
0.0188503
0.0209313
0.024465
0.0248539
0.0256821
0.0228015
0.0128899
0.0125685
0.0137746
0.0132396
0.0150333
0.0124716
0.0160285
0.00706188
0.0101742
0.00938527
0.0191925
0.0140311
0.0178207
0.0142615
0.0123542
0.0136274
0.0188008
0.0164337
0.0198514
0.0252133
0.024178
0.0257267
0.0256139
0.0240381
0.00970141
0.0111392
0.0170005
0.0148443
0.0219897
0.0157884
0.0211219
0.00952197
0.0070438
0.0208215
0.0151966
0.0216111
0.0143441
0.0168826
0.0225803
0.0186594
0.0225242
0.0236588
0.0216136
0.0159829
0.0195859
0.0190719
0.0200412
0.0151752
0.015594
0.020182
0.0249377
0.023995
0.0255687
0.0209328
0.0174915
0.00955566
0.0133981
0.00981957
0.0135323
0.0140734
0.0132064
0.022971
0.0191018
0.0237584
0.0178897
0.0218716
0.0164878
0.0173519
0.0158274
0.0158451
0.016344
0.0252101
0.021636
0.0248322
0.0141566
0.017517
0.0255891
0.0232115
0.0249478
0.0169883
0.0157994
0.0163036
0.0236792
0.0173105
0.0264805
0.0265483
0.0260292
0.0255381
0.0266906
0.0264458
0.0211511
0.0253505
0.0249095
0.0163697
0.0111668
0.0306512
0.0261514
0.0175615
0.0231606
0.0274111
0.0126468
0.0191595
0.0289517
0.0251918
0.0201512
0.0268148
0.0306936
0.0192979
0.020842
0.0198895
0.027756
0.0236232
0.0175043
0.0193673
0.0240166
0.0285738
0.0338164
0.0336045
0.0335741
0.0179638
0.0141565
0.0183642
0.0185296
0.0253496
0.0229537
0.0252577
0.0172685
0.0199321
0.0249844
0.0232755
0.0256491
0.0193391
0.0186846
0.0190306
0.0250242
0.017953
0.0262996
0.0267366
0.026448
0.0259024
0.0264346
0.0259165
0.0221535
0.0246331
0.0247742
0.0202206
0.0165554
0.0178781
0.0202079
0.02553
0.023329
0.0238232
0.0220044
0.0245929
0.0157076
0.0210854
0.0197114
0.0208529
0.0173755
0.0110964
0.0144321
0.0101886
0.0227698
0.0191025
0.023131
0.0137102
0.014181
0.0132524
0.0179044
0.0161177
0.0206038
0.0164454
0.0205348
0.0171652
0.0175177
0.0200623
0.0214243
0.0180638
0.0188861
0.0143184
0.00900495
0.0108816
0.0102593
0.0136343
0.0117616
0.0162364
0.0179671
0.0127329
0.0148481
0.0123128
0.0159527
0.0142422
0.0114857
0.0133493
0.0119645
0.0203985
0.0167716
0.0155836
0.0127574
0.0117265
0.0121177
0.0225708
0.0185083
0.0184739
0.0216212
0.0258364
0.023961
0.0259443
0.0148986
0.015865
0.0139902
0.0145533
0.015562
0.0134664
0.0143082
0.0244212
0.0273339
0.0230599
0.0265766
0.0261347
0.0271043
0.0169276
0.0231762
0.0169041
0.0197352
0.0193853
0.0240936
0.02298
0.0178274
0.0262019
0.0242117
0.0186574
0.0222041
0.0191088
0.0242217
0.0283045
0.0195858
0.0250869
0.0215813
0.0267392
0.0269228
0.0136967
0.0178673
0.0163137
0.0153503
0.0155446
0.0135207
0.0155908
0.0158111
0.0145983
0.0248247
0.0201279
0.0206457
0.0213277
0.016868
0.0152296
0.0197628
0.0218714
0.0208076
0.0182959
0.0152764
0.0173026
0.0165708
0.0178721
0.020316
0.0151111
0.0128014
0.010725
0.012013
0.0103142
0.0157603
0.0135856
0.0185825
0.0174307
0.0132485
0.0149473
0.0132989
0.0131259
0.0137475
0.0216779
0.0235162
0.0233434
0.0232057
0.0233055
0.012623
0.0184914
0.0257825
0.0237295
0.0258055
0.0214306
0.0230758
0.0179524
0.0121138
0.0227502
0.0208788
0.0256044
0.0233811
0.0257177
0.0250284
0.0254776
0.0249636
0.0213983
0.0233126
0.023526
0.0249843
0.0265004
0.0152289
0.0254207
0.0215022
0.0191771
0.0218023
0.0234419
0.0264892
0.0262047
0.0260982
0.0265602
0.0252765
0.0264103
0.0266142
0.0211382
0.0144
0.0162678
0.0152369
0.0151465
0.0215477
0.0249378
0.0238905
0.0206466
0.0176586
0.0189548
0.0176321
0.0184535
0.0231116
0.0247366
0.02034
0.0240219
0.020504
0.0225848
0.0176191
0.0203824
0.0246462
0.0263118
0.0231896
0.0163878
0.0161943
0.0199977
0.0166564
0.0196565
0.0259595
0.0238678
0.0199066
0.0183939
0.0187422
0.0189321
0.0242849
0.0171997
0.0218057
0.0202451
0.0223949
0.0254179
0.0221369
0.026014
0.0248703
0.0230998
0.0227218
0.0244112
0.0267053
0.0266983
0.0267454
0.0265288
0.0247235
0.0261939
0.0261829
0.0166785
0.0260313
0.0228549
0.0177311
0.0181527
0.0177595
0.0187685
0.0189401
0.0235182
0.0261467
0.0264912
0.0179707
0.0217837
0.0220385
0.0183754
0.02483
0.0219001
0.0216423
SCALARS SignedDistance float 1
LOOKUP_TABLE default
0.0748691
0.0342471
0.0469948
0.0478009
0.232216
0.0972793
0.0457047
0.043513
0.0258884
0.0262127
0.0120721
0.0758249
0.0660589
0.0242833
0.0539066
0.0338268
0.024992
0.0223961
0.0539215
0.0157948
0.0651422
0.0321287
0.368521
0.0226595
0.457749
0.350794
0.0511004
0.0529967
0.0546932
0.0443791
0.0225935
0.0547475
0.0321901
0.144792
0.0185662
0.06297
0.0422372
0.0187416
0.0198443
0.0413135
0.0314253
0.0475431
0.0759265
0.0597514
0.0578261
0.0325402
0.0339776
0.0311342
0.0318747
0.0380478
0.0393581
0.0399039
0.053023
0.145894
0.0256177
0.0401254
0.0321576
0.0558404
0.0394786
0.0575414
0.0543424
0.0309802
0.0272483
0.0250916
0.0422652
0.058583
0.075827
0.0297737
0.0363159
0.0273095
0.0304063
0.00919902
0.0657149
0.0341148
0.0343364
0.0351066
0.0334091
0.0303516
0.0276861
0.308329
0.198001
0.0249939
0.166444
0.121732
0.118331
0.18437
0.240778
0.12631
0.415616
0.338606
0.369909
0.0401928
0.0849442
0.0305703
0.0386153
0.0449574
0.0205729
0.0418258
0.036634
0.031294
0.0545753
0.0423752
0.0474615
0.045643
0.0484014
0.0452027
0.0551605
0.0274764
0.0204849
0.0387602
0.038241
0.0161209
0.0375249
0.0303914
0.0381241
0.0535557
0.0245543
0.0403829
0.0752037
0.0453613
0.200196
0.0396478
0.0360482
0.139621
0.0214878
0.0122315
0.0256139
0.0171646
0.0414276
0.0375303
0.0186996
0.0278226
0.0246997
0.0158224
0.0320232
0.0299049
0.0371025
0.0429909
0.0189694
0.0390912
0.0151415
0.0271466
0.038569
0.0388844
0.0532248
0.0534573
0.0386723
0.380446
0.250152
0.456667
0.0811174
0.267015
0.253526
0.0515693
0.0205106
0.0323769
0.0535785
0.0534989
0.0599069
0.0251471
0.024355
0.024683
0.0756476
0.0732154
0.0685221
0.059429
0.0687005
0.06779
0.0593573
0.0673916
0.058389
0.0477942
0.0218459
0.0262686
0.0313447
0.0255581
0.0248815
0.0318421
0.0280186
0.0592735
0.0537434
0.0329552
0.0783946
0.0489174
0.0308588
0.0431186
0.0236282
0.0250878
0.0314055
0.0720669
0.0515857
0.0516927
0.0749252
0.0642161
0.0463939
0.0491091
0.0435888
0.0523466
0.0454436
0.111738
0.0603414
0.035944
0.0634968
0.0851717
0.0291998
0.0394899
0.0600569
0.0524925
0.0472982
0.0269273
0.0423102
0.0340589
0.0414904
0.0380673
0.0370789
0.0407986
0.0162479
0.0295348
0.0748323
0.0687262
0.0450711
0.0523233
0.0590753
0.0487641
0.0460646
0.0470209
0.0527973
0.0347366
0.038018
0.0371128
0.0422668
0.0262358
0.0364136
0.0356093
0.0435451
0.0391883
0.0232956
0.0435176
0.0331581
0.0316359
0.020442
0.0288259
0.017847
0.0406192
0.0731223
0.0756811
0.057935
0.0670719
0.0674872