# vtk DataFile Version 4.2
vtk output
ASCII
DATASET POLYDATA
POINTS 642 float
-0.319423 3.47731 -0.0363581
1.24323 4.10352 -0.0252909
-2.43085 -0.132353 -0.0300955
0.254677 0.938046 -0.0308591
-0.542894 0.90082 0.750612
0.0339572 3.53607 0.777031
-0.615891 0.898526 -1.02685
0.0479152 3.56594 -0.995914
1.58897 2.73083 -0.916919
1.58056 2.70857 0.795407
-2.79294 1.77932 -0.982159
-2.72936 1.76893 0.747088
-2.02989 2.06727 0.443988
-1.38662 2.28543 0.758077
-0.137114 3.82832 0.708499
0.639145 4.11025 0.80382
0.130316 4.34786 -0.0263183
0.637739 4.12367 -0.951931
-0.125815 3.84062 -0.831296
-1.41653 2.28592 -0.948646
-2.0368 2.06642 -0.547435
-2.97913 1.77988 -0.0239283
1.14236 3.19451 0.761456
1.96572 3.73483 0.720489
-1.9537 1.10501 0.742155
-0.279677 2.21857 0.743811
-3.00065 0.194336 -0.953738
-2.99624 0.254892 0.792844
-0.273822 2.16838 -1.035
-1.95613 1.0544 -1.03711
1.96365 3.73488 -0.828945
1.15939 3.22823 -1.02745
1.00593 1.67099 0.552688
0.727542 1.74702 0.779653
-0.0779922 0.727297 0.768403
-1.66041 0.104182 0.796488
-0.902843 0.246574 -0.0324104
-1.70623 0.0334874 -1.07216
-0.0851812 0.715968 -0.902622
0.724944 1.72979 -1.01151
1.00312 1.66905 -0.645757
1.6864 2.85188 -0.0275967
-1.10872 2.57476 0.244692
-0.764408 2.87991 0.507366
-0.198664 3.69963 0.426028
-2.19741 1.92551 0.749943
-1.80359 2.12765 0.686926
-2.52501 1.9339 0.67846
-0.0822821 3.78219 0.80157
-0.548274 3.09764 0.751153
-0.476222 3.04548 0.801125
0.0811317 4.17031 0.515315
-0.0160445 4.06716 -0.0309754
0.333433 3.94202 0.777331
0.133315 4.19173 0.801355
0.449041 4.28132 -0.02629
0.257945 4.33944 0.592795
0.999187 4.12857 0.593358
0.0804881 4.17193 -0.609682
-0.198593 3.70203 -0.521487
0.994748 4.09423 -0.684018
0.259153 4.33929 -0.682656
-0.0790924 3.81632 -0.98698
0.118824 4.23061 -0.975216
0.325504 3.98078 -1.00824
-0.763254 2.88293 -0.618758
-1.11007 2.57464 -0.331868
-0.471117 3.07078 -0.970987
-0.543338 3.11141 -0.889478
-2.54019 1.90336 -0.798228
-1.82076 2.11471 -0.816626
-2.22902 1.92943 -0.969547
-2.07979 2.06688 -0.0367932
-2.96752 1.78595 -0.771516
-2.69309 1.89959 -0.435761
-2.69185 1.89927 0.358838
-2.96653 1.78805 0.657902
1.4935 3.95659 0.81578
1.74137 3.90293 0.448049
0.581724 3.4246 0.758206
1.00682 3.74154 0.770768
1.87876 3.31824 0.798707
1.64731 3.50921 0.775178
1.47587 2.98226 0.779128
-0.870246 2.41483 0.771014
-0.119117 2.95121 0.764227
-2.40076 1.46262 0.753801
-1.84692 1.85367 0.765892
-0.346019 1.4207 0.731145
-1.16563 1.67069 0.730203
-1.26905 0.883152 0.737231
-3.09124 1.12049 0.486071
-2.89776 1.13436 0.757378
-2.91968 1.1039 -0.98607
-3.02629 1.11174 -0.553573
-2.89808 -0.174226 0.544004
-3.01876 0.167035 -0.0245609
-2.89868 -0.174169 -0.637526
-1.87086 1.80981 -1.00483
-2.43581 1.44279 -1.03938
-0.0930761 2.94623 -1.00841
-0.869418 2.36889 -0.996227
-1.32713 0.874688 -1.03377
-1.15274 1.57948 -1.04087
-0.428246 1.4577 -1.04024
1.02538 3.7663 -1.02766
0.579975 3.44299 -1.03223
1.74152 3.90289 -0.513287
1.50982 3.96363 -0.939926
1.50105 3.0147 -0.966799
1.69709 3.53736 -0.995145
1.91394 3.33124 -0.94065
0.644443 1.28746 0.313481
0.52177 1.17743 0.674832
0.0703222 0.844955 0.487277
1.19719 2.23515 0.797981
0.95214 1.67808 0.808547
1.33481 2.17079 0.699451
-0.27112 0.726934 0.792582
0.344873 1.16417 0.794993
0.154014 1.29765 0.763681
-0.485754 0.436214 0.519235
-0.299597 0.544563 -0.0307742
-1.12629 0.450123 0.766843
-0.781365 0.375823 0.787018
-1.62645 -0.0288606 -0.0325363
-1.34823 0.105104 0.567052
-2.10557 -0.104346 0.650735
-0.491454 0.43091 -0.610585
0.0686647 0.842479 -0.577906
-2.12639 -0.0891815 -0.785727
-1.3694 0.104308 -0.68404
-0.291806 0.703569 -0.979539
-0.822486 0.351037 -0.943661
-1.21822 0.409388 -0.982782
0.521378 1.17429 -0.790578
0.644207 1.28639 -0.387513
0.135565 1.30164 -1.02943
0.353925 1.14889 -0.989402
1.32193 2.17865 -0.803452
0.957424 1.66347 -0.949523
1.20585 2.23033 -0.979256
1.00552 1.67068 -0.0294209
1.67152 2.83218 -0.641151
1.42156 2.24287 -0.406746
1.42084 2.24271 0.33875
1.66728 2.82365 0.554155
0.352749 1.88941 0.753623
1.03466 2.47305 0.768765
0.555482 2.77835 0.750095
-2.52829 0.0108625 0.776303
-1.85771 0.467581 0.755863
-2.53131 0.696074 0.753253
-1.91348 0.349253 -1.04778
-2.6202 -0.0410457 -1.05767
-2.56828 0.566567 -1.03107
1.03081 2.48295 -1.02088
0.325908 1.87878 -1.0376
0.513959 2.77818 -1.02868
1.92995 3.35001 0.419812
1.93056 3.35157 -0.489244
1.97109 3.75816 -0.0226522
-0.606346 3.07613 0.126491
-0.487523 3.23339 0.3143
-0.234015 3.58697 0.218203
-1.44149 2.31135 0.43695
-0.932513 2.72222 0.394333
-1.63624 2.21903 0.333135
-0.161197 3.78009 0.58366
-0.410608 3.37795 0.480198
-0.324653 3.45956 0.590371
-2.47872 1.86044 0.823906
-2.39309 1.92123 0.76303
-2.67439 1.87504 0.751009
-1.61277 2.19606 0.737303
-2.04744 2.02831 0.749618
-1.83876 2.05913 0.779331
-2.31068 1.98236 0.570496
-2.20982 1.99614 0.682662
-1.94471 2.08154 0.588579
-0.0427738 3.68423 0.78745
-0.217672 3.44469 0.784587
-0.195828 3.33887 0.782942
-0.258042 3.50708 0.7208
-0.237551 3.50197 0.762305
-0.113101 3.83343 0.786294
-0.876724 2.66146 0.804558
-0.514626 3.09182 0.792245
-0.964685 2.63926 0.770749
-1.29737 2.37518 0.582112
-1.13722 2.49914 0.706289
-0.644284 2.99638 0.647317
-0.0764393 3.90216 0.239916
-0.142135 3.83744 -0.0338341
-0.026677 4.03648 0.637152
-0.0613344 3.99078 0.478425
0.0985477 4.22928 -0.028352
0.0384037 4.1296 0.272379
0.112648 4.2642 0.296528
0.190374 3.76214 0.775117
0.0889611 3.91008 0.788716
0.268372 4.20696 0.798919
0.200065 4.10426 0.79491
0.471787 4.06315 0.791049
0.033305 4.01917 0.801453
-0.00332076 4.05986 0.782434
0.852001 4.1464 -0.0266326
0.71474 4.18875 0.324485
1.13622 4.14337 0.340417
0.192653 4.3501 0.31955
0.333488 4.32542 0.328103
0.220422 4.34432 -0.0254851
0.827921 4.12572 0.743131
0.544239 4.22843 0.594961
0.407786 4.27478 0.738618
0.114394 4.22965 0.708611
0.176488 4.35235 0.770605
0.129501 4.33636 0.582523
-0.0772079 3.90216 -0.316215
-0.234402 3.58749 -0.299111
0.111867 4.26354 -0.363284
0.0374009 4.12964 -0.343837
-0.160273 3.78765 -0.693033
-0.0605884 3.99252 -0.573223
-0.0208115 4.04328 -0.751828
1.13633 4.14268 -0.404225
0.715681 4.18846 -0.390411
0.401255 4.26236 -0.852676
0.546179 4.22788 -0.68672
0.828351 4.10839 -0.862714
0.335131 4.32487 -0.392055
0.193134 4.35024 -0.382851
-0.0331278 3.71997 -0.98993
0.0967515 3.9534 -0.996376
0.198887 3.80354 -1.00667
0.00282829 4.08603 -0.925182
0.0339347 4.06249 -0.984845
-0.0932023 3.85258 -0.925364
0.460588 4.09087 -0.997876
0.193041 4.14852 -0.997495
0.262527 4.24611 -0.990364
0.129186 4.33704 -0.674223
0.176406 4.35257 -0.887911
0.11042 4.23993 -0.837798
-0.487317 3.23586 -0.406826
-0.606241 3.07707 -0.205424
-0.318744 3.46611 -0.708233
-0.409283 3.38259 -0.585036
-1.64151 2.21875 -0.429184
-0.933206 2.72358 -0.495657
-1.44735 2.31078 -0.543756
-0.183725 3.36274 -0.983171
-0.210005 3.47157 -0.961753
-0.966808 2.63551 -0.899729
-0.510476 3.11388 -0.94459
-0.879897 2.65742 -0.943331
-0.228795 3.52306 -0.914488
-0.254464 3.52328 -0.856746
-2.71438 1.85777 -0.899556
-2.42109 1.90939 -0.907294
-2.52387 1.84891 -0.984162
-1.95995 2.0808 -0.704374
-2.23077 1.99464 -0.811299
-2.32143 1.9815 -0.682099
-1.86854 2.04263 -0.942731
-2.07614 2.01889 -0.902473
-1.63461 2.18459 -0.891947
-0.641003 3.00285 -0.770972
-1.14102 2.49687 -0.82833
-1.30212 2.37258 -0.696503
-1.11819 2.56837 -0.0386317
-2.07052 2.06625 -0.324991
-1.70118 2.20364 -0.181567
-1.70013 2.20362 0.10112
-2.0688 2.06583 0.238938
-2.94337 1.80022 -0.929639
-2.83368 1.84628 -0.829015
-2.88103 1.85295 -0.273802
-2.87074 1.85354 -0.605971
-2.97762 1.78178 -0.447932
-2.63879 1.89972 -0.663746
-2.40786 1.94509 -0.522455
-2.81758 1.86395 0.696988
-2.90095 1.76616 0.725163
-2.4039 1.94552 0.42919
-2.63098 1.90521 0.560186
-2.975 1.78134 0.385904
-2.86892 1.85341 0.521149
-2.88098 1.85237 0.216304
-2.41147 1.94667 -0.218263
-2.6966 1.90018 -0.0300574
-2.41079 1.94645 0.146452
1.39744 4.05485 0.542301
1.50688 4.0279 0.221028
1.11107 4.04609 0.803182
1.27636 4.08526 0.752769
1.92873 3.82614 0.631776
1.6464 3.93556 0.703182
1.81884 3.8338 0.779126
0.274125 3.49814 0.76471
0.461617 3.6928 0.765357
1.09776 3.48414 0.762404
0.807885 3.59718 0.76305
0.893805 3.30959 0.756711
0.666427 3.85623 0.774398
0.85481 3.9533 0.786417
1.74675 3.06041 0.792623
1.70581 3.16987 0.791899
1.55063 2.86041 0.787315
1.84053 3.64125 0.783564
1.8015 3.43862 0.783283
1.91214 3.5668 0.751858
1.33749 3.08913 0.768604
1.57931 3.26899 0.77694
1.39817 3.35323 0.76798
1.26984 3.86726 0.784488
1.36901 3.62743 0.771672
1.62707 3.74998 0.789478
-0.316884 3.03431 0.781027
-0.0230764 3.25947 0.768947
-1.13064 2.37605 0.783735
-0.684169 2.71624 0.798276
-0.230976 2.60042 0.756776
-0.473952 2.69279 0.772726
-0.603436 2.37529 0.754784
-2.5735 1.63917 0.761263
-2.34716 1.78696 0.775399
-1.94086 1.53697 0.748841
-2.15007 1.66743 0.757528
-2.20089 1.27717 0.747551
-2.03611 1.90484 0.762625
-1.6813 2.06284 0.783267
-0.451523 1.14038 0.739206
-0.797977 1.11797 0.729076
-0.898834 0.87539 0.739932
-0.709287 1.96478 0.732836
-0.736356 1.52083 0.711745
-0.293516 1.81972 0.728065
-1.63281 0.966708 0.73927
-1.21394 1.21332 0.723918
-1.58883 1.36035 0.737076
-1.39125 2.09336 0.765857
-1.54001 1.78569 0.748236
-1.06231 2.07372 0.748062
-2.98653 1.54929 0.775965
-2.85413 1.52534 0.761735
-3.01911 1.54427 0.246387
-3.01886 1.54826 0.595027
-2.93149 0.670634 0.759361
-3.0469 1.10996 0.749575
-3.08914 0.653596 0.687236
-2.88185 1.5337 -0.998647
-2.99399 1.55268 -0.914384
-3.01824 0.629253 -0.774713
-3.01977 1.09097 -0.851239
-2.95199 0.611342 -0.959362
-3.01801 1.54504 -0.678931
-3.01888 1.54376 -0.298864
-2.70939 -0.176966 0.263002
-2.88886 -0.17469 -0.0235317
-2.70921 -0.176967 -0.326708
-3.01874 0.170874 0.513585
-3.00365 -0.0572018 0.291823
-2.99951 -0.0437098 0.719411
-3.00055 -0.0560104 -0.870093
-3.00382 -0.0574098 -0.347943
-3.01865 0.163822 -0.598975
-3.08781 1.10554 -0.0249377
-3.08943 0.599958 -0.318293
-3.09046 0.60283 0.259537
-2.37872 1.75989 -0.997719
-2.62588 1.62727 -1.00968
[...]
POINT_DATA 642
SCALARS Normal_Velocity float 1
LOOKUP_TABLE default
-0.0554647
-0.0163388
-0.00676731
-0.0399025
-0.032197
-0.0432431
-0.0122996
-0.0242033
0.0044453
0.012045
-0.0145915
-0.0281184
-0.000286978
-0.0387652
-0.0162748
-0.00240654
-0.010155
-0.0118261
-0.0241052
-0.0165868
-0.00440243
0.0358366
-0.0354703
-0.000673619
-0.0281593
-0.0303272
-0.00225889
0.0457315
-0.017182
-0.0156979
-0.00769032
-0.0118076
0.00356916
-0.0417897
-0.00243408
0.000934853
0.00205311
0.0193714
-0.0127779
-0.0211567
0.00295011
-0.0250169
-0.0437829
-0.0480079
-0.023584
-0.0322337
-0.0260757
0.0260869
-0.0216674
-0.0215916
-0.0207144
-0.0308404
-0.025722
-0.0372691
-0.00663282
-0.0100375
0.00683891
-0.00833785
-0.032596
-0.0241478
-0.0189748
0.00720136
-0.00891396
-0.00956802
-0.0193031
-0.0492554
-0.0446475
-0.0255297
-0.027179
-0.0183449
-0.0344946
-0.0217023
-0.0180226
0.0208363
-0.017571
-0.0173203
0.0778215
-0.00462058
-0.000350539
-0.0345837
-0.0360584
0.00862003
-0.0351855
-0.0413144
-0.0439232
-0.0401968
-0.0351598
-0.0358109
-0.0214799
-0.0226996
-0.0253644
0.0876192
-0.00923867
-0.0113976
-0.00102752
0.0313892
-0.000202724
0.029496
-0.0242565
-0.00998869
-0.0107709
-0.0264567
-0.0158101
-0.0173448
-0.0172012
-0.00945562
-0.0144955
-0.000409155
-0.0117066
-0.0403062
-0.0164855
-0.0159729
-0.0397592
-0.0268566
-0.0374136
-0.0192046
-0.00114309
0.037597
-0.0401671
-0.0121114
-0.0381294
-0.0285279
-0.00699318
-0.0373918
0.0186212
0.00301239
0.00188935
0.00109466
-0.0288803
-0.0385342
-0.0122876
-0.00680271
-0.0271561
-0.00642712
-0.0301228
-0.0284146
-0.0403032
-0.0140155
-0.0121088
0.00563876
-0.0157792
-0.0189788
0.00201108
-0.0249303
-0.00400679
-0.00327554
-0.0239064
-0.035108
-0.0398337
-0.0310652
-0.0348066
-0.0334071
-0.0334855
-0.00666018
-0.00931601
-0.0100396
-0.0085711
-0.0166818
-0.0144265
-0.011914
-0.012155
-0.015842
-0.0557502
-0.0426153
-0.05511
-0.0515602
-0.048122
-0.0338173
-0.0243201
-0.0248876
-0.00866675
-0.00932985
0.0055323
-0.00729946
0.00917586
0.0140424
-0.00972045
-0.0426742
-0.0378975
-0.00433108
-0.0424407
0.0116222
-0.0364199
-0.0319792
0.0134408
-0.0141627
-0.00580767
-0.00945529
0.00484039
-0.055718
-0.0181115
-0.0427826
-0.0456624
-0.0232384
-0.00467963
0.00610751
-0.0309527
-0.0392363
-0.0219225
-0.0397356
-0.0395919
-0.00846877
-0.0363833
-0.0372245
-0.0205363
-0.0105147
-0.0164133
-0.000114973
-0.00207304
-0.0141536
0.0058013
-0.0120867
-0.00187265
-0.0189076
0.0113109
-0.0206383
-0.0132767
-0.0111462
-0.0462973
-0.0557263
-0.0221686
-0.0392661
-0.0246258
0.0049662
-0.0153425
-0.00196095
-7.14513e-05
-0.0117304
-0.0199979
-0.018151
0.00540846
-0.0143447
-0.018602
-0.0168091
-0.021567
-0.0144116
-0.010551
-0.0264081
-0.0139654
-0.0131296
-0.00711827
-0.0114829
-0.0114218
-0.0231474
-0.0431401
-0.0560698
-0.0190134
-0.0269269
-0.0347206
-0.0493927
-0.0521977
-0.0244934
-0.019227
-0.00350434
-0.0189421
-0.020428
-0.0267745
-0.0386179
-0.0254199
-0.0155288
-0.0127577
-0.00130173
-0.0383487
-0.0429823
-0.0255484
-0.015503
-0.0164287
-0.0442407
-0.0230093
-0.0579739
-0.0459799
-0.0156164
-0.0353879
-0.0348336
-0.0145216
-0.0165977
-0.0405295
-0.0345162
-0.0321211
0.0729028
-0.0161703
-0.0409467
-0.00919653
0.11065
-0.0414319
-0.0131509
-0.0450797
-0.0312677
-0.0346615
-0.0454493
-0.0188326
-0.0449426
-0.0362873
0.00427188
0.00583905
-0.0109809
-0.00755003
-0.0135816
0.00308919
-0.0380825
-0.0364041
-0.034334
-0.0355628
-0.0330699
-0.0386281
-0.0385797
0.000613071
-0.0291111
-0.0390143
0.0117803
-0.0217476
0.0170821
-0.0381849
-0.0377989
-0.0358344
-0.0356162
-0.0355609
-0.0331513
-0.0444812
-0.0416406
-0.0138766
-0.0301724
-0.0373739
-0.0425136
-0.0366416
-0.0369565
-0.0436792
-0.0337814
-0.0383128
-0.0320482
-0.0243677
-0.0151384
-0.026406
-0.0203303
-0.0265069
-0.0237246
-0.0045297
-0.0167273
-0.0267163
-0.0153293
-0.0267035
-0.0427299
-0.0350263
-0.0347717
0.0900924
-0.0362766
-0.000639604
0.0051358
0.0610081
0.0100196
0.0969039
-0.0115194
-0.0112655
-0.00417538
-0.00275889
-0.0186649
0.00393396
0.000813383
0.00787653
0.0275852
0.00769128
-7.32522e-05
0.0137819
0.0432998
0.0271292
0.0135186
0.00031566
-0.0807756
0.0853553
0.0842994
-0.0195787
-0.0169026
-0.0171766
-0.0185456
-0.0146636
-0.0157385
-0.0161507
-0.0116886
-0.032747
-0.0143102
-0.0219958
-0.0139014
-0.0405051
-0.0316159
-0.0148213
-0.0152853
-0.0158968
-0.0166926
-0.0173465
-0.0163069
-0.0181042
-0.0240263
-0.0163653
-0.0251894
-0.0155293
-0.0157133
-0.00862667
-0.00877504
-0.0167087
-0.0189122
-0.0140379
-0.0118675
-0.0113942
0.00406463
0.0468492
0.00355698
-0.0195888
-0.00789719
-0.0181003
-0.00564179
-0.037046
-0.025142
-0.0171186
-0.00775528
-0.019908
-0.0106019
-0.0133991
-0.0143492
-0.0149594
-0.0158228
-0.0127793
-0.0134948
-0.0265993
-0.0276215
-0.0334506
-0.0358606
-0.0410852
-0.0258458
-0.030681
0.010553
-0.01237
-0.0184057
0.0019018
-0.00910014
-0.0382713
-0.00325743
-0.0425547
-0.0227065
-0.0056855
0.013712
-0.0393666
-0.0415292
-0.0356916
-0.0091511
-0.0382692
0.000221315
-0.0406102
-0.0424308
-0.0417482
0.0120139
0.00587632
0.0125766
-0.0324894
-0.0385537
0.0203495
-0.0200875
-0.0151382
-0.0278446
-0.0340025
-0.0336072
-0.0381796
0.00878823
-0.0296732
-0.0393707
-0.00727475
-0.00461693
-0.0044884
-0.0160275
-0.00901446
-0.0295706
0.00152311
0.00508752
0.00584198
-0.0247218
0.0157477
-0.0208603
-0.0365523
0.0232736
-0.032496
-0.0339801
-0.0346217
-0.026766
-0.0304312
-0.0200088
-0.000894159
-0.00841347
-0.0161571
-0.0193236
-0.031593
-0.0128702
0.00325214
-0.0295578
-0.0235478
-0.0274034
-0.0190074
-0.0174429
-0.0182532
-0.0112837
-0.0308078
-0.0366772
-0.0119339
0.0148285
-0.0274513
-0.0249794
-0.0284208
-0.0324597
-0.0266591
0.0074081
-0.0254679
-0.0415994
-0.0396413
-0.0168118
-0.0228094
-0.0181908
-0.0208883
-0.0234174
-0.0163213
-0.0131443
-0.0140407
-0.00577396
-0.0213694
0.00841031
-0.0244607
-0.0259408
-0.0203801
-0.0118627
-0.0143017
-0.00894269
-0.00877255
0.000503036
-0.0412268
0.00177788
-0.0317109
-0.031796
0.00191757
-0.0302413
-0.0204607
0.00153426
0.000243516
-0.0251994
-0.000591713
-0.0374614
-0.0188774
-0.0187166
-0.0367717
-0.00302619
-0.0254156
-0.000398952
0.00161555
-0.0396956
-0.00751906
-0.0394438
-0.0307316
-0.0390224
-0.0356596
-0.0290319
-0.0311556
-0.0425302
-0.0373361
-0.0403339
-0.0425842
-0.0418499
-0.0371637
-0.0343284
-0.0358301
-0.0330893
-0.0343722
-0.0384878
-0.0360534
-0.0354992
0.0153147
-0.0306549
-0.00595602
0.011716
-0.0267959
-0.0312015
-0.0306426
-0.0306738
-0.0354793
-0.0365669
-0.0342302
-0.0355423
-0.0369136
-0.0328562
-0.030974
-0.0356644
-0.0327843
-0.0336263
-0.0120768
0.0133778
-0.02218
-0.014176
-0.0139044
0.0110761
0.0365744
0.00222039
-0.0122611
0.0134144
-0.00978804
-0.0140234
-0.0127453
-0.0122816
-0.00760231
0.00895682
0.0222315
-0.00845771
-0.0363476
-0.0191781
-0.0220954
-0.0173393
-0.00822141
-0.0158846
-0.0176168
-0.0173566
-0.0129649
-0.0101052
-0.0131173
-0.0135771
-0.0146666
-0.0132139
-0.0158881
-0.0118796
-0.0160054
-0.0130099
-0.0157193
-0.0274002
-0.0249474
-0.0105519
-0.0153655
-0.0193117
-0.0206913
-0.0103473
-0.0259392
-0.0277429
-0.000254377
-0.0144616
-0.00899806
-0.00906442
-0.0152841
-0.0128003
-0.0205953
-0.0203603
SCALARS Mean_Curvature float 1
LOOKUP_TABLE default
0.0394519
0.334056
0.185103
0.76909
0.253156
0.0520483
0.799337
0.782771
10.5581
14.6028
5.8838
0.255365
0.268212
1.41773
2.82716
8.69828
11.7199
6.8423
2.06446
8.05052
0.119235
3.74921
0.0851666
9.51495
0.0780897
0.0512852
4.33235
6.49904
0.0387325
0.0469654
7.63758
0.21138
0.756685
0.392799
5.95368
4.31109
0.595229
12.8351
1.49095
0.114516
0.659775
0.296505
0.197528
0.768953
0.0824118
0.722368
3.41754
4.12216
7.64967
7.3676
3.22194
2.24294
0.907677
0.538578
12.052
0.114675
2.02487
0.118828
2.23154
0.0074838
0.996875
2.15585
13.4437
11.7466
0.326602
0.725807
0.219104
3.59552
4.64588
0.0377176
0.818522
8.23693
0.0865654
4.80858
0.435305
0.401038
7.84118
9.38276
0.211833
0.0938083
0.236522
12.1617
0.392124
0.0444914
0.29373
0.153817
0.0995911
0.122685
0.102412
0.0941468
0.0862223
0.717862
0.382263
4.10278
0.250222
4.77139
0.26961
4.43227
0.099042
0.636155
0.0383407
0.00572449
0.0634007
0.205418
0.210809
0.769898
0.0306089
0.225346
6.99533
0.706054
0.384829
9.39804
0.197019
1.69593
1.21491
2.27538
13.5431
3.82671
1.15338
3.04137
0.330726
0.585653
0.11308
0.460815
11.5875
0.611181
0.423146
1.56203
0.836389
1.13042
0.735853
0.267125
0.767448
9.55933
0.425366
1.26458
0.161079
0.847116
6.55553
1.55187
8.42158
4.52203
0.440939
0.0767659
0.910807
0.944973
0.110672
0.0941113
0.204457
0.135826
0.0488441
0.130394
0.0731102
0.178048
5.89404
0.0953592
0.830248
0.0345092
0.0246387
1.77939
1.87851
5.12711
0.554254
0.498903
1.13219
0.577534
0.282429
0.433292
0.6286
3.2766
0.478785
10.608
8.04815
10.1966
10.1798
15.8099
10.9742
0.875781
2.0996
0.36711
0.542111
7.49458
0.287566
1.40907
12.2711
15.8981
10.1315
13.9223
14.2862
1.927
0.803204
0.514385
0.793924
0.863592
0.813631
1.39511
2.20289
0.023035
1.88903
0.248551
0.440333
4.81957
0.0158511
0.270697
5.95208
11.643
0.745957
0.392982
1.06326
7.66301
0.836172
1.36881
3.89836
0.233957
7.10195
0.555691
12.6456
9.24612
0.695963
1.05078
1.88949
0.0463175
0.984238
1.2727
0.40541
1.22517
0.290815
2.15163
0.0977433
0.501125
0.789671
7.58775
0.496554
0.313004
0.0726701
5.58452
10.0505
2.17327
2.44334
1.2607
8.54467
8.95833
10.4127
0.598807
0.447067
0.529745
0.996063
2.85932
0.340452
0.211196
0.410326
0.973344
7.53189
7.6482
11.448
6.40055
4.70821
1.17781
4.59608
2.25655
7.68656
0.217872
1.50639
1.10432
4.88815
6.02947
3.68713
0.586102
0.646399
1.73267
0.294942
0.109766
0.163371
0.130577
0.126797
10.1508
1.87357
2.57837
2.54169
4.14394
0.490334
0.779589
7.18814
6.42963
0.844992
0.208021
4.24599
2.2797
2.52571
0.512327
0.353164
0.514035
0.509635
0.755058
8.17041
6.07411
5.38363
1.79058
9.29574
0.126507
0.207206
0.146094
0.112273
0.132659
0.256265
0.314278
13.1998
0.612394
0.00390256
2.95682
0.456041
7.83952
0.15229
0.262253
0.163263
0.612101
0.246279
0.140949
0.257863
0.176098
3.28388
0.676505
0.102578
0.310784
0.167741
0.238232
0.233204
0.098018
0.135961
0.0564842
0.55974
3.75304
0.16048
0.103946
0.144514
0.0953565
0.389529
0.220845
0.0668013
0.220776
0.0490479
0.347422
0.15107
0.193263
9.80083
0.116376
0.0259323
0.771324
2.54677
6.48585
3.74672
3.36697
4.93169
0.62785
2.78955
4.77958
0.789514
0.213764
0.70988
4.39778
0.691488
0.00940869
3.45864
7.04855
5.22055
3.50524
0.0515474
0.496854
0.64925
0.337907
0.0113135
0.303952
3.25293
1.81125
0.122298
0.633828
0.0084321
0.842609
0.491334
0.457018
0.303446
0.269075
0.279434
1.38266
0.248263
0.257418
0.213812
0.124564
0.0440875
0.000150318
0.0334246
0.506421
0.188383
0.023585
0.454003
0.451882
0.672618
0.667462
0.755804
0.12995
0.0282477
0.256604
0.231538
0.749616
0.559558
6.83587
0.794567
4.98359
2.14491
9.61022
1.238
2.74359
10.3765
0.837874
0.489011
0.920195
2.51897
4.25104
7.85455
0.80641
2.37076
0.482389
0.0262356
0.750898
0.0882056
0.309846
0.163653
0.800175
0.269783
2.43726
1.91505
1.40451
8.36753
13.2787
0.0933304
8.06147
0.356295
0.384025
7.87228
3.6947
0.504927
0.51836
0.312413
15.9996
0.0762691
18.0853
0.367228
0.338058
0.332128
7.18046
9.94233
12.3787
0.745523
0.253674
2.37922
0.59754
1.98039
0.109867
0.619404
0.32742
0.749024
12.0793
0.856068
0.418084
6.43253
9.13296
0.380397
0.351596
0.272692
1.26055
0.638324
0.416065
9.97204
1.37604
7.18672
4.27277
1.9204
2.09072
0.741354
0.111885
0.537628
0.0537318
0.109387
0.604679
0.839796
0.201774
0.383786
1.46089
1.59315
1.96168
0.767002
1.11604
0.42596
0.080038
0.41388
6.51175
5.64162
15.8559
2.9572
0.489643
10.8588
1.64964
0.99264
1.76907
0.72189
0.0111647
1.21599
1.7306
0.738267
0.102312
0.177114
0.595017
0.528947
0.584961
0.395178
0.491509
2.14955
9.93012
8.50969
3.73293
5.79404
2.26215
1.64606
0.428369
0.440985
10.1029
2.76648
5.3688
10.5985
1.69963
0.173096
0.410527
0.355715
0.344776
0.428646
0.867148
0.344564
0.568038
0.520731
0.297812
0.402957
0.25152
0.167113
2.22196
0.321334
0.0199441
0.299347
0.368644
0.59112
0.317526
0.634547
0.321874
0.173762
0.201759
0.177601
0.0924597
0.0377297
0.0131907
0.123552
0.21847
0.322045
0.303764
0.0866248
0.034752
0.0609703
0.0811727
0.0576245
0.133111
0.0895695
0.0558342
0.909882
0.222893
9.27997
8.54831
0.054168
0.180235
0.0510079
0.0963835
0.28003
0.40973
0.0998188
0.163059
0.0106061
0.0624029
0.0585022
0.197338
0.08253
0.164866
0.641095
1.43769
0.300376
0.148178
0.125334
0.686242
6.34194
5.10432
1.27152
8.46445
0.805595
0.0444131
0.160888
0.77663
0.539228
1.15454
1.61261
0.364429
0.140128
0.308021
0.582078
0.391894
0.262194
0.270213
0.015182
0.0970995
0.560475
0.79465
0.196939
0.0429076
0.0214841
0.0406605
0.0408154
0.367814
0.0239364
0.107377
1.6839
0.0483596
0.0331353
3.16747
0.269373
0.351967
1.0419
2.20994
0.0382919
0.0505918
0.429597
5.01511
4.81383
4.82718
5.21699
1.70494
0.588168
0.602137
SCALARS CoVolArea float 1
LOOKUP_TABLE default
0.112178
0.115119
0.142805
0.0845601
0.0612075
0.0452292
0.0718252
0.0474698
0.0287491
0.0281352
0.0332576
0.0311854
0.0733302
0.0351592
0.0353016
0.0428567
0.0377966
0.0495994
0.0406451
0.0466914
0.0794355
0.081978
0.0727124
0.0281035
0.120733
0.156587
0.0875321
0.079509
0.144608
0.12719
0.0318444
0.0791259
0.0621046
0.0520095
0.0343077
0.0503438
0.137791
0.0461589
0.0427118
0.0546845
0.0690649
0.122795
0.158033
0.0942456
0.0718034
0.0232635
0.0509032
0.0308999
0.0207588
0.0448626
0.0427302
0.0398306
0.0702058
0.0509399
0.0168127
0.127571
0.0440199
0.0922503
0.0445965
0.0776233
0.104291
0.0496574
0.0242781
0.018709
0.0495049
0.102927
0.168103
0.0493632
0.0521637
0.0365055
0.0620245
0.031014
0.11154
0.0449777
0.076205
0.0713239
0.0347095
0.0465397
0.0958788
0.0838381
0.0708142
0.0297486
0.0520391
0.0486591
0.0852018
0.0907484
0.0822779
0.0738153
0.122196
0.176527
0.105884
0.180599
0.0709524
0.0811072
0.1948
0.0822345
0.189639
0.0944716
0.0853141
0.0904833
0.099132
0.106237
0.101428
0.151168
0.115111
0.0734161
0.0866173
0.103524
0.0503663
0.0545117
0.0503324
0.0342671
0.078703
0.0422325
0.0712168
0.0345475
0.0297448
0.0415414
0.0391016
0.0311039
0.0587976
0.0753741
0.103501
0.0631703
0.0353683
0.142494
0.091944
0.0952191
0.0844982
0.0779272
0.120026
0.105795
0.0492291
0.0445837
0.0671352
0.0496975
0.0835514
0.0656938
0.0369047
0.0475003
0.0349887
0.0404478
0.108434
0.0785233
0.102283
0.0963202
0.070469
0.0933848
0.0759021
0.142382
0.0696197
0.0922165
0.0995475
0.0950712
0.0519629
0.107693
0.0841213
0.102195
0.135022
0.0815141
0.0879192
0.0588214
0.168527
0.113901
0.103256
0.0929154
0.102493
0.102172
0.0460578
0.0769429
0.0629583
0.0300792
0.0232825
0.0209682
0.0342219
0.0246066
0.0253239
0.0446544
0.0340315
0.0675241
0.0342483
0.026463
0.0457865
0.0421782
0.0213457
0.0184515
0.0405599
0.0304623
0.0391572
0.101445
0.0688972
0.0872417
0.0739539
0.0914168
0.0368547
0.0513113
0.050514
0.0553191
0.0403584
0.0512573
0.0329106
0.0289853
0.0283511
0.0418667
0.0180762
0.0223236
0.150913
0.131463
0.123833
0.0377881
0.0843565
0.0560178
0.0534374
0.0829452
0.044929
0.0270554
0.0258773
0.0314952
0.0781209
0.108698
0.0430618
0.0586911
0.0510714
0.0562222
0.0419089
0.131529
0.139977
0.0521454
0.0936583
0.0658991
0.0898127
0.0406054
0.0363003
0.0328277
0.0511232
0.027003
0.0200788
0.0235862
0.042625
0.0276279
0.0316035
0.0353313
0.0291052
0.0316211
0.123041
0.173851
0.0704501
0.0844001
0.110531
0.112128
0.100384
0.0500615
0.030226
0.0467999
0.0350524
0.0492077
0.0273419
0.0495257
0.0257448
0.0300133
0.0353653
0.074478
0.0406134
0.0497307
0.0334625
0.0328413
0.0452664
0.0965133
0.0792883
0.110351
0.207452
0.103013
0.14947
0.1447
0.0969807
0.030383
0.0322455
0.0645118
0.0462224
0.0675467
0.0500553
0.0758954
0.025961
0.0241535
0.0697163
0.0438932
0.0616631
0.0407846
0.0623223
0.108469
0.096777
0.10474
0.0938341
0.123478
0.0473642
0.0565454
0.0447987
0.0583474
0.0360716
0.0698568
0.0713297
0.0745931
0.0745971
0.0789203
0.06429
0.0578732
0.0313508
0.036735
0.0361084
0.0312886
0.03248
0.025489
0.0572956
0.0475703
0.0654753
0.0667832
0.0748481
0.0562884
0.0657312
0.0674026
0.0563897
0.0611071
0.122577
0.0835401
0.11942
0.061457
0.0487783
0.11545
0.0727265
0.0954433
0.0397858
0.0454243
0.0815689
0.124589
0.0837101
0.168636
0.180978
0.154432
0.11944
0.162935
0.157175
0.0869659
0.133326
0.132314
0.0499632
0.056958
0.154834
0.0907065
0.0715541
0.0887219
0.134334
0.0596289
0.0634582
0.15235
0.105226
0.0829762
0.105527
0.160495
0.128118
0.103116
0.136785
0.142525
0.10449
0.0652249
0.072869
0.11223
0.158911
0.253559
0.251561
0.241997
0.0541563
0.0639905
0.0587022
0.0476775
0.107023
0.079042
0.12113
0.0717345
0.0756541
0.133938
0.100234
0.123338
0.0756953
0.0732765
0.0915463
0.114872
0.0952043
0.14546
0.130236
0.113529
0.127868
0.135753
0.149056
0.106912
0.147302
0.142358
0.0723371
0.0718749
0.0627189
0.066317
0.0830265
0.0780419
0.0783337
0.127587
0.104484
0.0393857
0.0672984
0.0504397
0.0679427
0.0586152
0.0376844
0.0388265
0.0342353
0.067586
0.0486034
0.0619655
0.0301857
0.0327127
0.0319892
0.0696748
0.0557396
0.0755541
0.0906824
0.0737189
0.0898557
0.0505283
0.0576098
0.0653754
0.0481151
0.0524978
0.037467
0.0334257
0.0308844
0.0353342
0.0370361
0.0286873
0.0400374
0.0479765
0.0318368
0.042236
0.057046
0.04976
0.064134
0.0289208
0.032982
0.0232518
0.052699
0.0426323
0.0404835
0.0381941
0.0332302
0.0351622
0.0916872
0.102374
0.0513124
0.0681844
0.105748
0.0904783
0.113572
0.0697713
0.0502609
0.0399474
0.0393823
0.0505484
0.0292753
0.0339577
0.168725
0.132833
0.14564
0.131165
0.118325
0.136205
0.0557541
0.0848769
0.0560444
0.0599149
0.0635234
0.101199
0.0970747
0.0946771
0.121096
0.0959148
0.0560621
0.0757303
0.0608569
0.161428
0.146636
0.0685096
0.102445
0.0690008
0.128594
0.140786
0.0694388
0.0591449
0.0787199
0.0425877
0.0364369
0.0302702
0.0445593
0.0409503
0.0420453
0.113536
0.0771672
0.0719021
0.0796973
0.0935509
0.0452243
0.0594433
0.0710364
0.0640405
0.0580437
0.0759225
0.0598396
0.0452281
0.0489837
0.0559466
0.0403683
0.0352581
0.0390503
0.0359655
0.0353996
0.0491556
0.038702
0.0548116
0.0449829
0.0347879
0.0406506
0.0424666
0.0402315
0.0467642
0.0941371
0.0964256
0.0909394
0.0881355
0.0908336
0.0483266
0.0621941
0.118333
0.0867457
0.101709
0.0683635
0.088059
0.0552446
0.0414398
0.0810652
0.0615543
0.0960934
0.0801201
0.114982
0.126605
0.129735
0.122717
0.0784976
0.0719779
0.071369
0.10174
0.142723
0.044971
0.0797309
0.0590601
0.050327
0.0653073
0.0924507
0.169473
0.132222
0.106552
0.0982435
0.0953167
0.112768
0.139857
0.0957587
0.064148
0.0589375
0.0559093
0.0703938
0.082284
0.104102
0.0905493
0.0760433
0.0749632
0.0873984
0.0858334
0.0852882
0.0950147
0.104225
0.0987404
0.109438
0.104293
0.0862782
0.0642474
0.0761574
0.0944422
0.115292
0.118328
0.054424
0.0607022
0.0728903
0.0530765
0.095314
0.120242
0.110606
0.0978099
0.0818948
0.08357
0.0872601
0.116523
0.0516349
0.0704417
0.0569234
0.0657806
0.0882827
0.0891621
0.135077
0.103414
0.0768322
0.0761634
0.0957594
0.106289
0.106538
0.123353
0.148345
0.107146
0.142482
0.124804
0.046748
0.106857
0.0726249
0.0454787
0.0528103
0.0545568
0.0599109
0.0534959
0.0800035
0.110107
0.117569
0.0472409
0.0667345
0.0691941
0.0511151
0.111995
0.0945525
0.0908808
SCALARS SignedDistance float 1
LOOKUP_TABLE default
0.0594778
0.0215687
0.0840788
0.0414188
0.357464
0.195572
0.0586201
0.0301203
0.0444946
0.0393877
0.0175495
0.128235
0.0698107
0.054425
0.0174597
0.0372425
0.0147294
0.0272598
0.0269266
0.0334206
0.0686715
0.068552
0.587994
0.0305458
0.905837
0.748093
0.044366
0.0814619
0.0698409
0.0627797
0.0290302
0.0709734
0.0488614
0.206352
0.0338001
0.069078
0.0634186
0.0429419
0.0351705
0.0326005
0.0478912
0.0638633
0.0459994
0.0511375
0.0619692
0.0952534
0.0297446
0.0592023
0.0312646
0.0300747
0.056407
0.0457768
0.0266941
0.241158
0.026158
0.0523412
0.0417028
0.074095
0.0462666
0.0619991
0.0420576
0.0422828
0.0105474
0.0137
0.0287126
0.052218
0.046931
0.0338287
0.0321045
0.0346766
0.0387053
0.0289917
0.0676524
0.0665855
0.0469893
0.046617
0.0712448
0.0217672
0.0646289
0.672806
0.373207
0.0423414
0.26754
0.178336
0.202391
0.394564
0.428743
0.183988
0.671659
0.640584
0.670023
0.0831413
0.180692
0.0145588
0.0520607
0.0578807
0.059387
0.0582391
0.0292187
0.052774