# vtk DataFile Version 4.2
vtk output
ASCII
DATASET POLYDATA
POINTS 642 float
-530.727 19806.2 3104.96
82803.5 13410.7 17474.7
4.75354e+06 1.78983e+06 682190
176580 -60981.9 24015.7
128678 6442.67 100853
94840 131680 147717
-115847 -12081.9 50967.2
45604.2 39641.8 -44638.3
295426 88611.6 -97710.3
335770 132004 135841
182335 -1.27801e+06 969106
-360680 -994131 -803986
6.5619e+06 -1.98867e+07 -1.01358e+06
-2.01914e+06 -1.04946e+06 130316
1.42494e+06 -1.03183e+06 -79715.1
-2.60696e+06 -6.5326e+06 -6.19242e+06
4.84213e+06 -3.9917e+06 10402.6
336274 -2.97899e+06 6.09828e+06
-392289 1.18889e+06 -1.30499e+06
-7.12664e+06 -1.13865e+07 5.47846e+06
1.02449e+07 -2.89201e+07 38659.4
1.36786e+08 -2.28148e+07 -1.08474e+07
-3.55447e+06 -3.54113e+06 -9.29115e+06
-1.20168e+07 -8.88268e+06 -5.44159e+06
-8.80309e+06 -4.83707e+06 -1.7142e+07
-641940 970826 -1.38986e+06
2.28024e+08 1.36282e+08 1.4727e+08
1.86672e+08 9.40145e+07 -1.30223e+08
-644096 -1.30484e+06 55563.3
-1.16896e+07 -6.52748e+07 -823123
-1.20233e+07 -5.81536e+06 3.41534e+06
683700 -4.243e+06 5.72331e+06
-3.70573e+06 6.17125e+06 233198
2.00574e+06 3.70203e+06 -5.47616e+06
101222 -502967 83585.8
1.30193e+07 3.48256e+07 -7.81971e+07
-3.09716e+07 1.72066e+07 -1.11784e+06
1.79047e+07 7.62845e+07 1.06382e+08
-1.90617e+06 295172 -1.28838e+06
2.16508e+06 2.70466e+06 3.38537e+06
-3.83717e+06 4.85906e+06 -1.17331e+06
-9.98476e+06 4.38022e+06 1.33248e+06
-1.86274e+06 -1.01858e+06 -453548
1.6739e+06 -122633 -422342
-40965.4 -28350.4 47862.1
-943798 -1.47236e+06 -1.59861e+06
-6.67868e+06 -6.20484e+06 5.50692e+06
-80455.7 1.96301e+06 -2.32805e+06
1.46994e+06 -211173 -84718.6
296017 -967073 -478308
-86926.4 -237610 -468058
1.52854e+06 -332106 2.03077e+06
283177 -23.1247 35905.3
5.35163e+06 1.03615e+06 -2.18373e+06
-5.48371e+06 -1.0276e+06 5.28922e+06
3.43449e+06 -1.82746e+06 1.50272e+06
4.57208e+06 4.99507e+06 -4.67555e+06
4.07575e+06 -3.66741e+06 3.97399e+06
2.06416e+06 -1.87967e+06 -3.3195e+06
-209434 -77384.7 339739
4.54006e+06 -2.5271e+06 1.08666e+06
2.64715e+06 4.21205e+06 -1.03043e+06
70047.1 -423725 159324
-2.44857e+06 1.6932e+06 3.08981e+06
1.63585e+06 670389 1.2643e+06
4.17612e+06 -230999 1.97899e+06
-2.56636e+06 -1.50367e+06 479842
-121297 -13283.1 -133420
6.90799e+06 -3.51429e+06 -940002
293522 1.79151e+06 2.73688e+06
-1.7675e+07 -1.58216e+07 -7.60893e+06
183849 -1.12445e+06 1.20835e+06
5.87177e+07 3.06605e+07 1.14639e+06
-8.98742e+06 -5.03037e+06 2.60895e+07
-2.11451e+06 -5.30672e+07 -1.21142e+08
7.69227e+06 -4.93253e+07 1.09945e+08
-1.12101e+07 -4.79995e+06 -2.841e+07
80335.9 1.12486e+07 -1.42228e+07
4.9089e+06 -6.31038e+06 5.52026e+06
5.37641e+06 -3.44789e+06 4426.25
-1.21722e+07 -715120 6.39267e+06
825059 7.47242e+06 -4.32798e+06
1.09163e+07 -1.64261e+07 1.86984e+06
-2.99475e+06 7.70406e+06 2.2634e+06
-373220 893628 -2.81654e+06
290223 875580 -606374
-2.57906e+06 843732 -4.43937e+06
-1.34294e+07 4.2652e+06 462194
23228.7 -52449.7 58533.4
976795 130628 -1.38598e+06
-3.24284e+06 -461965 -19715
2.39659e+08 4.58007e+08 5.33725e+08
-6.7142e+06 -3.81043e+07 -1.77648e+07
-6.40589e+06 -5.96047e+07 2.09182e+07
2.05966e+08 4.81902e+08 -5.57592e+08
-2.20849e+07 2.54268e+07 1.53425e+07
5.24052e+08 -6.63339e+08 2.97295e+06
-2.81182e+07 3.14012e+07 -2.58137e+07
-6.094e+07 6.59687e+06 1.14268e+07
-8.82818e+06 5.50065e+06 1.5452e+07
-111829 59104.4 186042
1.06535e+07 9.34372e+06 1.07787e+07
-8.01334e+06 2.71173e+06 -1.89092e+06
2.63402e+07 -3.2342e+07 5.43567e+06
-395937 139858 -25092.2
-3.08133e+06 -336834 -2.02979e+06
1.91203e+06 -637322 431503
5.81859e+06 -6.05066e+06 -1.23797e+06
-218683 1.06149e+07 7.82901e+06
1.86372e+06 4.69716e+06 2.67552e+06
7.20831e+06 -9.92664e+06 -4.36577e+06
3.31722e+06 2.90119e+06 7.80124e+06
1.09522e+06 1.92722e+06 1.27439e+06
-555514 -1.86688e+06 -2.98901e+06
-219187 244466 -57959.7
1.13175e+06 1.01866e+06 -1.28421e+06
7.46325e+06 7.29194e+06 2.64795e+06
1.24169e+06 -1.65287e+06 -3.97405e+06
124912 105002 296136
-1.01208e+06 138933 -311006
1.08115e+06 627205 -384658
9.57109e+06 1.0434e+07 -6.81636e+06
-751055 -554759 -102463
-5.06503e+06 -2.66385e+06 -3.31831e+06
4.56016e+06 1.45325e+07 5.72489e+06
-785967 2.16642e+06 -652588
-5.051e+07 -2.35283e+07 -2.80677e+07
-8.21465e+06 -6.75906e+06 1.91134e+07
1.91992e+07 1.90602e+07 1.63616e+07
-185844 132009 250244
-6.94238e+06 -1.05039e+07 -2.24251e+07
-8.00281e+07 -2.64341e+07 5.45016e+07
-364802 -431742 305328
1.20194e+07 3.03971e+07 -2.47071e+07
-1.12064e+07 -7.13926e+06 8.992e+06
-4.87242e+06 -3.90701e+06 -2.25325e+06
1.24581e+06 1.87912e+06 -592268
104979 6442.99 -36529.6
-99395.4 -1.00673e+06 2.5909e+06
1.63021e+06 13993.6 4.48878e+06
3.30358e+06 2.30181e+06 -3.42178e+06
1.42109e+06 1.72654e+06 2.01812e+06
-5.71875e+06 -7.18777e+06 -288455
1.47525e+06 -916086 6.92953e+06
926186 7.07919e+06 -1.30992e+07
1.52504e+06 7.80495e+06 1.47172e+07
1.79326e+06 -981737 -6.65733e+06
-4.3081e+06 -3.56276e+06 -1.0858e+06
1.09836e+07 -1.04918e+06 -2.95781e+06
-6.05179e+06 5.552e+06 375875
439533 -1.48285e+08 -2.15029e+08
1.81775e+08 6.17552e+07 1.85506e+07
-9.21183e+07 2.48408e+08 1.06012e+06
3.62189e+08 1.02466e+08 -7.61485e+07
1.21041e+07 -2.18258e+08 3.79581e+08
-1.7934e+08 4.01646e+08 2.61947e+07
3.19647e+06 -573740 -1.94387e+06
-1.00306e+06 2.82968e+06 467227
-1.94493e+06 -4.15672e+06 -734647
950401 -1.39868e+07 2.30233e+07
-161875 -1.308e+07 -2.09976e+07
-7.7773e+06 1.4971e+07 -495628
-8077.92 37121.2 -9532.29
42956.1 -72365.8 55401.4
3026.57 8861.96 -1973.11
497114 7.24881e+06 -8.10295e+06
1.23319e+06 616988 2.6467e+06
-5.77719e+06 -9.12462e+06 3.66203e+06
-68334.8 600685 490688
-172007 -167150 162251
-256582 -630442 641193
241384 509571 1.50695e+06
-899056 989089 955166
-2.27486e+06 1.97881e+06 -2.44084e+06
4.49031e+06 -5.73748e+06 2.74646e+06
992921 243834 1.34006e+06
4.2304e+06 -21845.4 -2.50993e+06
1.26455e+07 1.44353e+07 -1.30209e+07
-771935 -5.31984e+06 761407
-9.03049e+06 -5.35902e+06 -7.70854e+06
288003 37118.9 -242332
384486 283612 449438
26635.1 -82979.4 -102186
-1.11601e+06 911791 -191974
189930 462418 -241377
-1.40266e+06 -721876 -1.73865e+06
-123785 -361592 -605359
-70305.9 -88135.7 768257
113020 1.57941e+06 -521327
-5.30531e+06 7.46803e+06 1.16205e+06
3.28858e+06 1.22493e+06 7.22433e+06
3.45071e+06 3.11572e+06 -887510
63240.1 44057.3 51651.8
47848.6 29720.5 9526.57
965270 198432 -716337
517771 -170718 217956
1.84874e+06 -1.04137e+06 258589
385119 768185 349312
-1.88735e+06 -124075 1.85421e+06
905878 177757 -356202
647972 390073 87922.2
2.65862e+06 -5.38819e+06 8.2775e+06
-4.2791e+06 1.75848e+06 -517936
4.00635e+06 1.79477e+06 -8.82159e+06
24140.7 1.58845e+06 -968269
-2.66668e+06 -1.47848e+06 -1.02732e+06
536887 -434075 994939
1.2154e+06 177116 426136
358300 -394254 1.81222e+06
-2.22935e+06 397895 -1.05979e+07
-176103 154154 -486819
-7.47626e+06 -1.07602e+06 -731331
-6.28214e+06 -5.82394e+06 7.44907e+06
-8.77321e+06 4.66812e+06 191027
1.08801e+07 -1.67562e+06 -1.52053e+06
-2.31856e+06 -1.91351e+06 -1.65859e+06
1.51549e+06 5.49326e+06 5.53802e+06
-5.26167e+06 4.48132e+06 176238
107965 87769.3 48141.2
-3652.14 12861.5 46624.9
882521 1.60895e+06 -2.10009e+06
460387 636086 302820
-351844 231607 1.04948e+06
62762.7 86713.7 -847487
3.06642e+06 1.09677e+06 -458227
762313 -581850 -1.00942e+06
1.32196e+06 -3236.62 -18760.6
7.92048e+06 -3.35432e+06 -6.8596e+06
-6.185e+06 2.94471e+06 -270386
-5.34356e+06 -3.84512e+06 -5.80526e+06
-5548.93 226112 -974597
-5.75876e+06 3.06677e+06 9.18522e+06
-82049.6 -27289.5 190857
469939 227562 -200605
429181 181443 248177
696748 2.57964e+06 3.38458e+06
-489816 -198414 283182
696666 -431558 -794181
1.42383e+06 175611 4.11773e+06
16105.5 1.3663e+06 767385
-1.94766e+06 163248 -1.80412e+06
-2.42958e+06 -4.24172e+06 -5.84636e+06
-5.92469e+06 3.15288e+06 793065
71897.8 -3.7251e+06 2.23854e+06
-40491.8 -50763.8 -19054.3
-28574.1 15904.1 -3935.08
966833 -870890 397949
-1.42344e+06 -197423 -262827
-7.98425e+06 -1.30842e+07 -5.71676e+06
1.97494e+06 851273 -4.67155e+06
488558 1.20385e+07 1.80021e+07
-43379.9 -18805.8 -8021.32
96448.3 129556 -69381
619592 5.45696e+06 2.25091e+06
-614031 329898 -15209.4
-3.66332e+06 -1.72633e+06 654451
-483839 -206955 -121441
-134325 -947967 530375
-3.39414e+06 3.09452e+06 3.93026e+06
-1.86145e+06 2.0129e+06 -2.5812e+06
1.90265e+06 2.16294e+06 -4.72332e+06
-1.34908e+07 -1.0895e+07 1.48907e+07
-1.72776e+06 -6.08381e+06 -35254.2
1.88936e+07 2.0943e+07 1.86263e+07
1.65419e+07 4.75823e+06 5.29778e+06
895700 -798555 -1.67011e+06
1.12605e+07 -1.70947e+07 -8.77521e+06
1.04565e+07 1.37104e+07 1.56532e+06
3.37466e+06 3.93941e+06 -2.2318e+07
-1.75107e+07 1.74511e+07 630572
-272408 360295 -8036.95
1.39574e+07 6.07327e+06 4.68899e+06
-5.27229e+06 -270092 -227818
-7.70264e+06 -152.668 642653
1.22875e+07 2.21866e+06 -4.22754e+06
-5.62818e+06 -5.38063e+06 8.5208e+06
-1.09423e+07 4.67121e+06 527033
5.94459e+06 -9.07494e+07 -5.08482e+07
4.56155e+06 3.97237e+06 -1.6903e+07
1.79484e+07 -5.62428e+06 1.36419e+08
-4.6263e+06 6.17422e+06 4.99054e+06
4.87751e+07 -5.53553e+06 -3.94799e+07
-8.12263e+06 3.00369e+06 -398661
-3.62282e+06 -3.70817e+06 -5.66719e+06
4.14209e+07 -7.94332e+06 2.83667e+07
-6.60951e+06 7.5525e+06 -5.78577e+06
1.19036e+07 -6.76663e+06 -1.28881e+08
3.3638e+06 7.76473e+06 1.46296e+07
5.98338e+06 -8.2402e+07 5.56904e+07
-2.59735e+07 1.31889e+08 -1.01174e+08
-1.77377e+08 -4.63132e+07 8.45216e+06
-1.86413e+07 1.22649e+08 1.0775e+08
904196 52410.5 833346
1.39275e+06 -1.17326e+06 1.17526e+06
-7.41232e+06 7.03e+06 -1.05428e+07
1.51922e+06 41340.3 2.55731e+06
981724 -1.37544e+07 6.97249e+06
-2.12708e+06 2.52308e+06 3.07406e+06
3.3111e+06 3.62223e+06 -1.65513e+07
795519 -293618 43804
575655 204768 282034
-9.79002e+06 -4.98492e+06 4.93018e+06
4.59335e+06 4.65089e+06 -1.1838e+06
5.6025e+06 -5.36533e+06 -4.44527e+06
874606 -241366 784062
-1.19149e+07 981400 1.83464e+06
93311.4 1.35195e+06 -531461
-43298.7 2.08711e+06 486273
-262047 -18299.7 309059
1.10237e+07 -1.32415e+07 -1.0164e+07
-1.49456e+06 1.19638e+06 4.74401e+06
-7.36276e+06 1.19904e+07 -9.13597e+06
[...]
POINT_DATA 642
SCALARS Mean_Curvature float 1
LOOKUP_TABLE default
9.3894
1.54381
0.0708747
18.5317
15.7729
23.4727
14.3968
4.29662
17.3131
8.74701
0.933155
5.84221
0.00413627
0.0306373
0.153425
0.0111393
0.0701749
0.0318436
0.121836
0.00901758
0.00269279
0.000480353
0.0120233
0.00618488
0.00186387
0.153287
0.000224327
0.000272071
0.0983019
0.00137022
0.00729232
0.0461282
0.0303678
0.0607227
0.113372
0.00167208
0.00411525
0.000841137
0.0591685
0.213771
0.0343109
0.0113774
0.483841
0.00127009
0.0537466
0.0350642
0.00245966
0.00571103
1.79918
0.0214018
0.922117
0.241321
1.63493
6.69212
0.055722
2.92882
0.0225603
3.16207
0.065693
0.299973
4.36163
0.0245709
0.670279
0.10034
5.57661
0.000419697
0.397232
0.374751
0.00313699
0.0017504
0.00101608
0.000279051
0.000309302
0.00299609
0.000233686
0.00024396
0.00694589
0.00413277
3.27859
3.18446
0.00383686
3.00789
0.00398591
5.68045
0.0182935
1.28992
0.00350428
0.00218238
0.0746381
0.000980729
0.246703
5.27391e-05
0.00516563
0.00318809
5.06155e-05
0.00179183
4.33435e-05
0.0020089
0.000619959
0.00403431
0.539943
0.00126364
0.0179827
0.00131023
0.971518
0.00906108
4.25905
5.09516
0.0129008
5.99445
0.0124033
3.675
2.89575
0.0125488
1.30952
3.16539
0.0124145
6.62489
2.33783
0.0029148
2.68607
0.00083608
0.271959
0.153849
0.000412436
1.88189e-05
0.000455529
0.0133247
0.000633676
0.528358
0.00759097
0.000327988
0.140686
0.000317026
0.0447672
0.142913
3.60424
0.715167
0.0432158
4.62848
0.0212764
3.88883
0.0050137
3.96879
0.00578044
0.00559205
6.66999
0.0148971
0.0100176
0.00951412
9.29703e-05
0.000159531
0.000119841
9.44525e-05
5.96356e-05
7.68941e-05
0.0237881
0.0540794
0.155002
0.0033395
0.00374409
0.00274803
2.8389
0.863557
1.08573
0.00557349
0.0301909
0.00842085
0.283631
0.227078
0.0130445
1.64436
0.191433
0.554257
0.00775292
0.00033068
0.0139302
0.00936486
0.00229975
0.0024829
4.80551
2.42576
1.16247
0.026534
0.188388
0.220496
0.152545
0.818081
0.0302074
0.00129414
0.00198139
0.003135
25.3205
21.3651
0.239398
1.7253
0.14971
1.37463
0.0814231
35.8739
2.17221
0.0401968
0.0879167
0.0330954
0.133298
0.217392
16.1917
1.17148
21.2231
0.110148
0.000312745
0.105296
0.0334418
0.207294
0.032222
0.0212236
0.0167952
0.0353467
4.86589
1.24027
0.0486775
0.161473
0.145703
0.186155
0.0472221
17.9124
1.52425
0.137829
0.340213
0.0720304
0.0105206
0.154143
4.91158
5.50323
35.6887
0.0937245
0.255495
0.172632
0.0567553
0.155843
0.0268287
0.044325
0.0461003
0.0178657
0.374919
2.89237
0.00372465
0.0921428
0.00545895
0.0160579
0.00339491
0.15246
0.754801
0.00145836
0.0359862
0.0219221
0.298389
0.0019013
0.300769
0.093083
0.69247
0.0011196
0.0005238
0.0059686
0.00725265
3.85876e-05
0.00298945
0.00109494
0.000698292
0.000571865
1.52338
0.000186135
0.00149486
0.00482041
0.000193588
0.0760361
0.0282114
0.000259673
9.09382e-05
0.00116252
0.000114728
0.000495438
0.0375262
0.103339
0.000528426
0.000352472
0.00114693
0.000104389
0.000267137
0.000139587
0.000108991
0.000145364
1.39399
15.9888
0.0114202
0.00573125
0.0158391
0.007941
0.00683283
22.4159
3.14187
0.00981708
0.0639448
0.0238694
0.00151379
0.011832
36.9677
5.86831
2.49993
0.00760527
0.0070255
0.0175794
0.0251367
0.00561773
0.00939189
0.00314406
0.00292885
0.00262724
4.06893
7.76943
0.0367042
0.978954
0.368984
0.229349
0.158853
0.287113
0.0938972
0.00347946
0.000433599
0.0035529
4.36272e-05
0.0058498
1.67766
0.343511
1.70304
0.0715264
0.151695
0.163234
0.0080547
0.00280216
0.0037745
0.00174139
0.00114461
0.00290849
0.0163671
0.0369752
5.26784e-05
0.000186522
0.000657547
1.81049e-05
4.91443e-05
0.0327158
0.0083839
5.99113e-05
1.26662e-05
0.000480517
0.000126729
5.58374e-05
0.0735486
0.0105335
0.0577562
6.33335e-05
2.40539e-05
0.000672413
0.000564515
1.75545e-05
5.16609e-05
2.44377e-05
2.16841e-05
2.19823e-05
0.0290701
0.0577695
0.00147407
3.92739e-05
0.000979234
0.00310238
0.00158987
9.2332
1.34499
0.000531118
0.265318
0.0923206
0.0493904
0.000144675
0.334141
0.206098
3.51597
0.000398328
0.0161815
0.00272379
0.204566
0.00099945
0.00292466
0.000378899
0.000525674
0.00024267
5.702
32.7477
0.00339042
0.163025
0.0469583
0.197044
0.00720226
16.4228
2.12307
0.0142053
0.0362193
0.0194301
0.0221379
0.0691508
4.55858
2.62205
22.4571
0.064544
0.00908869
0.0589078
0.0213935
0.0834168
0.0149721
0.00953685
0.00708753
0.0101193
17.3574
7.90393
6.11147
0.0211777
0.0507846
0.047356
0.553153
1.2805
0.145325
1.30567
2.40165
0.683101
0.0362166
0.649923
0.0911908
0.0545098
0.576785
0.0323868
0.674016
1.01706
15.1584
0.146545
1.86839
0.168861
0.0653309
0.0579051
0.0221608
0.00878675
0.0100875
0.0235719
1.08146
0.54167
0.00137703
0.182809
0.00640341
0.0110077
0.000605096
2.79916
1.00393
0.00132112
0.000777269
0.00185952
0.0932017
0.00401512
0.0217717
0.0154826
0.157389
0.00112069
0.000345004
0.00527746
0.00250172
0.0014433
0.000577057
0.000549843
0.000302237
0.000350198
0.754746
4.04617
0.000185362
0.0177003
0.0647165
0.138546
0.000413185
0.106365
0.0121649
0.000268364
0.000908382
0.00126639
0.000295751
0.000790761
1.56543
0.226658
0.432171
0.00169944
0.00646863
0.106842
0.00113896
0.000117265
0.000838872
0.00022181
0.00017858
0.000307395
6.25796
13.8864
0.0829284
0.0889778
0.0551127
0.0795196
0.0486089
15.0001
1.26344
0.106645
0.0156737
0.193487
0.194384
0.0384346
17.2107
2.02452
3.32391
0.0692241
0.1718
0.0602029
0.156034
0.134024
0.107027
0.0175448
0.0415853
0.0230635
5.42371
0.0173971
0.514614
0.485218
0.0152163
23.0661
3.19833
0.012146
0.0260819
0.0259534
0.0384286
0.0201789
26.6649
5.9926
0.0156142
0.0643419
0.0280635
0.0416476
0.0130229
0.00449264
0.00338444
0.00416931
2.73018
0.0116882
0.721896
1.06628
0.303661
10.1785
0.0142011
0.06241
0.233423
0.0338761
3.31062
0.0559425
0.722092
0.0135517
0.0240462
0.00808147
0.00747049
0.010218
0.0168025
0.00032093
6.28385e-05
2.58102e-05
0.000131997
0.608226
3.7244e-05
0.0186006
0.00546796
1.57475e-05
0.0221127
0.000125771
4.23096e-05
0.000528651
0.000256801
5.95021e-05
6.29536e-05
5.20335e-05
0.127297
2.15732e-05
0.00180295
0.00741445
2.70272e-05
0.0115672
0.000109607
1.92304e-05
6.37651e-05
0.000189645
0.0132752
0.000207193
8.33302e-05
7.15349e-05
6.10661e-05
3.66988e-05
3.3667e-05
3.91427e-05
2.02302
0.166479
0.140766
0.19843
0.120687
1.63853
0.0470826
0.225372
0.00154653
0.0621818
6.56567
0.053518
0.098971
0.049912
0.100892
0.0539885
0.0178366
0.0521494
7.73864
0.00628295
0.0812891
0.0119477
0.00407032
3.10562
0.00448307
0.00512008
0.0768605
0.00458406
1.35343
0.00870898
0.00660234
0.00373397
0.0109175
0.00182954
0.00223064
0.00210739
SCALARS CoVolArea float 1
LOOKUP_TABLE default
0
0
0
0
0
0
0
0
0
0
0
0
0
0
0
0
0
0
0
0
0
0
0
0
0
0
0
0
0
0
0
0
0
0
0
0
0
0
0
0
0
0
0
0
0
0
0
0
0
0
0
0
0
0
0
0
0
0
0
0
0
0
0
0
0
0
0
0
0
0
0
0
0
0
0
0
0
0
0
0
0
0
0
0
0
0
0
0
0
0
0
0
0
0
0
0
0
0
0
0
0
0
0
0
0
0
0
0
0
0
0
0
0
0
0
0
0
0
0
0
0
0
0
0
0
0
0
0
0
0
0
0
0
0
0
0
0
0
0
0
0
0
0
0
0
0
0
0
0
0
0
0
0
0
0
0
0
0
0
0
0
0
0
0
0
0
0
0
0
0
0
0
0
0
0
0
0
0
0
0
0
0
0
0
0
0
0
0
0
0
0
0
0
0
0
0
0
0
0
0
0
0
0
0
0
0
0
0
0
0
0
0
0
0
0
0
0
0
0
0
0
0
0
0
0
0
0
0
0
0
0
0
0
0
0
0
0
0
0
0
0
0
0
0
0
0
0
0
0
0
0
0
0
0
0
0
0
0
0
0
0
0
0
0
0
0
0
0
0
0
0
0
0
0
0
0
0
0
0
0
0
0
0
0
0
0
0
0
0
0
0
0
0
0
0
0
0
0
0
0
0
0
0
0
0
0
0
0
0
0
0
0
0
0
0
0
0
0
0
0
0
0
0
0
0
0
0
0
0
0
0
0
0
0
0
0
0
0
0
0
0
0
0
0
0
0
0
0
0
0
0
0
0
0
0
0
0
0
0
0
0
0
0
0
0
0
0
0
0
0
0
0
0
0
0
0
0
0
0
0
0
0
0
0
0
0
0
0
0
0
0
0
0
0
0
0
0
0
0
0
0
0
0
0
0
0
0
0
0
0
0
0
0
0
0
0
0
0
0
0
0
0
0
0
0
0
0
0
0
0
0
0
0
0
0
0
0
0
0
0
0
0
0
0
0
0
0
0
0
0
0
0
0
0
0
0
0
0
0
0
0
0
0
0
0
0
0
0
0
0
0
0
0
0
0
0
0
0
0
0
0
0
0
0
0
0
0
0
0
0
0
0
0
0
0
0
0
0
0
0
0
0
0
0
0
0
0
0
0
0
0
0
0
0
0
0
0
0
0
0
0
0
0
0
0
0
0
0
0
0
0
0
0
0
0
0
0
0
0
0
0
0
0
0
0
0
0
0
0
0
0
0
0
0
0
0
0
0
0
0
0
0
0
0
0
0
0
0
0
0
0
0
0
0
0
0
0
0
0
0
0
0
0
0
0
0
0
0
0
0
0
0
0
0
0
0
0
0
0
0
0
0
0
0
0
0
0
0
0
0
0
0
0
0
0
0
0
0
0
0
0
0
0
0
0
0
0
0
0
0
0
0
0
0
0
0
0
0
0
0
0
2000.8
SCALARS SignedDistance float 1
LOOKUP_TABLE default
3.16779
4.81224
8.72123
4.19778
3.59653
4.2482
1.51483
3.71863
4.30807
4.05674
4.93337
1.38244
10.8051
7.23436
4.08033
10.8051
6.63718
10.5758
7.42125
10.8051
10.8051
8.72647
9.81564
10.8051
8.50544
6.67259
10.8051
10.8051
5.8664
10.8051
10.8051
8.79867
11.2842
9.21726
2.60312
10.8051
8.05093
10.8051
8.62941
8.33916
9.69854
7.82347
1.22915
8.89673
3.20658
0.327745
10.8051
4.09255
5.6441
6.54997
4.45259
3.58079
3.81976
6.1196
9.75779
7.10854
8.92192
6.21027
9.17752
2.58538
5.81299
7.66183
3.49323
6.67854
4.76758
8.82367
0.954299
2.64655
10.8051
7.32501
10.8051
3.91068
8.96652
5.93369
10.8051
10.8051
6.06287
9.98818
6.52788
6.26914
10.8051
7.20851
10.8051
7.71873
9.29359
5.06112
7.33103
10.8051
4.45295
10.3986
2.84949
10.8051
9.28856
9.62931
10.8051
8.66286
9.39988
10.5274
10.8051
9.80396
3.11464
10.8051
5.49667
10.8051
1.73095
7.76201
4.85886
6.44702
8.80626
7.05708
9.31491
6.40075
5.76248
6.11754
4.77267
6.44336
8.42383
6.64898
3.78812
7.70728
5.11027
8.79832
3.62953
3.86871
10.8051
7.91424
10.8051
6.24287
9.75829
4.25273
7.16734
10.8051
1.30992
9.66642
5.83096
8.33888
5.62159
3.12928
7.87073
6.23137
8.26761
5.92459
6.02451
6.88825
8.36251
8.36553
7.39417
8.08905
8.54382
10.8051
10.8051
10.8832
10.8051
10.8051
10.8051
10.8051
8.38576
9.34373
6.50866
10.8051
10.8051
8.73147
2.59119
3.27084
3.34321
10.8051
3.00277
10.6516
0.968856
4.64926
8.71045
1.20455
6.14046
0.757738
8.24513
5.69742
8.92257
10.8051
5.57306
6.84232
4.65735
3.32877
4.3527
5.61276
3.09782
8.13068
5.4039
3.20525
6.66461
10.8051
8.19739
10.8051
3.47692
3.56984
4.58182
3.66463
5.98776
3.29461
2.30125
4.78231
3.61375
5.71629
2.44876
8.91511
3.49699
4.78621
4.718
1.86219
4.71848
7.5911
1.89236
8.71916
10.0335
3.69945
4.61543
6.42028
8.87765
8.86783
3.40923
3.18689
2.90806
3.17338
5.18006
3.85138
8.92084
4.77012
1.8164
4.68651
3.15847
8.85213
1.92883
5.99502
3.71935
3.11489
3.94407
5.83529
3.68483
2.0403
8.64817
2.47645
2.47511
9.3807
6.90095
10.0732
3.36467
2.46746
9.98898
6.02609
10.8051
4.78667
10.8051
3.35654
2.92857
8.52181
5.14861
9.2729
3.44853
8.48254
0.635362
7.27615
0.21786
8.24262
7.56761
10.8051
10.6992
5.61114
11.2584
10.8051
10.8051
10.8051
2.00267
10.8051
7.98466
7.60292
10.8051
0.712462
7.80549
10.8051
11.0224
10.3589
5.67648
10.8051
6.50753
0.0548472
10.8051
5.99152
10.2408
9.26118
10.8051
10.8051
10.8051
10.8051
1.91953
4.97196
8.45054
1.86636
9.6866
1.63139
11.0275
4.60804
4.16045
7.25112
4.52184
9.26237
3.78529
8.73283
5.37937
4.05258
5.18064
6.93853
2.55421
9.14481
8.42528
0.376479
8.13167
8.82915
10.8051
10.8051
3.47679
4.36423
8.70849
4.10782
7.87699
4.5529
4.67003
0.293265
7.6012
10.8051
6.19119
8.64629
8.84959
9.97209
3.89874
3.77214
3.14365
6.28822
4.75206
6.28195
9.60861
6.18853
10.8051
10.8051
10.8051
10.8051
9.04347
0.721567
10.8051
10.8051
10.8051
10.8051
10.8051
2.00968
11.1056
10.8051
10.8051
10.8051
10.601
10.8051
6.59512
5.96839
6.84212
10.8051
10.8051
10.8051
10.8051
9.31862
10.8051
10.8051
10.8051
10.8051
7.01087
0.602373
8.71515
8.72515
10.2624
6.56548
10.8051
3.50359
2.79909
8.73163
3.49979
1.94891
4.45355
8.71048
1.58763
7.27533
2.05506
10.8051
10.8725
8.27996
6.38454
2.57371
6.49142
10.8051
10.8051
10.8051
3.36801
3.87934
4.93548
3.32073
8.48562
3.37165
3.46889
5.02141
1.5503
9.81881
1.10649
8.87182
2.07277
8.88294
4.94573
3.29006
5.18989
6.19485
1.15353
8.41562
8.7583
2.64893
5.97444
8.42541
10.8051
6.66413
4.54592
4.15159
4.38806
4.63043
4.63468
9.02872
5.32101
4.55593
6.48295
4.64326
4.48982
4.68581
5.70837
3.98292
8.84676
9.76963
4.31597
4.77033
3.82131
4.119
4.12003
7.63789
4.90697
1.19363
8.79173
4.83688
4.40801
10.8051
11.0934
9.05037
3.6189
4.09417
8.72043
4.08007
6.12186
6.05147
10.8051
3.05443
3.8683
9.31199
8.56121
10.8051
4.94054
9.40227
0.0557598
11.1328
0.965453
8.20308
10.8051
8.72042
10.8051
10.8051
10.8051
10.8051
10.8051
10.8051
3.50099
4.28418
10.74
6.67982
3.16042
4.85813
8.96862
0.83706
11.0977
10.8051
10.8051
10.8051
10.8051
8.40459
2.20334
4.2607
1.69397
10.8051
5.38649
8.2882
10.8051
8.75115
9.10249
10.8051
10.8051
10.8051
3.9602
4.51994
9.48747
4.67443
8.72686
4.35043
3.37809
2.97581
4.13302
5.73478
4.68072
2.76353
4.75302
8.39775
4.55284
3.63421
4.58009
4.00928
3.90784
9.46818
8.56364
3.49592
6.2013
9.66923
10.5024
10.8051
4.48845
6.95931
5.20858
5.2315
6.85163
4.89918
3.67095
5.64612
3.51887
9.49238
3.05073
6.74275
4.38766
5.18408
6.99167
3.45456
9.55545
4.12184
5.67109
10.8051
6.71736
10.8051
4.13722
4.71563
5.0055
4.91291
5.51071
4.32596
6.43366
3.28213
3.59029
6.74474
3.42975
5.65368
5.06762
1.97369
7.19662
10.8051
10.8051
8.92137
8.94707
10.8051
10.8051
8.6479
10.8051
4.40808
10.8051
8.20641
8.7162
10.8051
11.434
10.8051
8.72189
7.45208
10.8051
10.8051
10.8051
10.8051
7.19905
10.8051
9.72504
9.4054
10.8051
9.76655
10.8051
8.72638
11.0168
10.8051
9.39825
8.67888
8.04777
9.04853
10.8051
10.8051
10.8051
10.8051
3.36795
4.96373
3.40068
2.75054
3.22647
3.93029
5.69221
4.42308
4.31285
6.25258
2.93711
2.8937
2.55784
3.60144
7.68245
6.98083
7.41227
6.54818
4.21225
9.96297
4.43368
1.38759
7.15111
3.63353
6.74767
2.01284
4.14255
9.70051
2.42709
8.20261
2.32829
2.61086
8.28451
8.71769
10.8051
10.8051
