# vtk DataFile Version 4.2
vtk output
ASCII
DATASET POLYDATA
POINTS 2562 float
-0.306729 3.49633 -0.0363973
1.245 4.10208 -0.0251161
-2.43135 -0.13196 -0.0297653
0.257454 0.941976 -0.0307894
-0.542717 0.904417 0.760688
0.0301937 3.54694 0.777994
-0.610731 0.893701 -1.02606
0.052586 3.57266 -0.996728
1.58324 2.74153 -0.910652
1.58186 2.70834 0.785673
-2.80826 1.78254 -0.981657
-2.74652 1.7829 0.748769
-2.06278 2.06137 0.445089
-1.40327 2.2675 0.777994
-0.124986 3.83658 0.710076
0.626039 4.11915 0.799538
0.135564 4.35673 -0.0263167
0.629017 4.12739 -0.955117
-0.113223 3.84827 -0.833756
-1.42708 2.26239 -0.950722
-2.0697 2.06075 -0.548527
-2.9742 1.78344 -0.0235079
1.15473 3.19892 0.757303
1.9602 3.76834 0.742665
-1.97793 1.11386 0.742309
-0.30272 2.24079 0.744081
-2.99638 0.164599 -0.972009
-2.97273 0.239628 0.742029
-0.273613 2.16818 -1.03527
-1.96275 1.04827 -1.03665
1.95696 3.76937 -0.855074
1.16554 3.23354 -1.02749
1.00612 1.67114 0.557803
0.735974 1.73874 0.776811
-0.0866754 0.716719 0.771215
-1.65702 0.0800076 0.797374
-0.911657 0.246824 -0.0323324
-1.7075 0.031408 -1.06023
-0.0928156 0.706769 -0.907186
0.728997 1.7249 -1.01067
1.00343 1.66926 -0.650458
1.69072 2.85707 -0.0275089
-1.12442 2.55606 0.22934
-0.73273 2.91122 0.517478
-0.186461 3.71937 0.420516
-2.21366 1.93872 0.760393
-1.82763 2.10972 0.695793
-2.53811 1.92892 0.684103
-0.0813723 3.78913 0.802487
-0.52212 3.12365 0.751855
-0.467337 3.05834 0.797765
0.083881 4.18536 0.525685
-0.0132722 4.07095 -0.0310529
0.332894 3.94948 0.778421
0.14356 4.22779 0.800329
0.442747 4.28674 -0.0263148
0.238549 4.33964 0.604213
1.02129 4.1297 0.599301
0.0830069 4.18643 -0.618291
-0.186263 3.7221 -0.516106
1.01935 4.09647 -0.686581
0.240485 4.33933 -0.692693
-0.0753871 3.82092 -0.983069
0.129878 4.26805 -0.978314
0.323622 3.98462 -1.00822
-0.730367 2.91608 -0.627455
-1.12536 2.55651 -0.317068
-0.457607 3.08356 -0.968887
-0.512707 3.13862 -0.887145
-2.55464 1.89721 -0.805001
-1.84625 2.0982 -0.825033
-2.24385 1.93459 -0.964577
-2.11225 2.05594 -0.0363282
-2.96331 1.78199 -0.787579
-2.70588 1.89909 -0.433691
-2.70479 1.89882 0.356615
-2.95874 1.77967 0.680762
1.4985 3.95388 0.811536
1.74359 3.90269 0.452072
0.582114 3.44292 0.75391
1.02008 3.75389 0.767221
1.88209 3.33233 0.78144
1.65549 3.52523 0.77431
1.49238 2.98345 0.779429
-0.872194 2.41492 0.776332
-0.130439 2.96475 0.759592
-2.41443 1.47401 0.753965
-1.84643 1.86347 0.772433
-0.358967 1.41954 0.745242
-1.14794 1.68041 0.745519
-1.2475 0.877351 0.745606
-3.09069 1.11859 0.490531
-2.92308 1.13628 0.760127
-2.93653 1.11 -0.981019
-3.026 1.11097 -0.555044
-2.91323 -0.173079 0.569217
-3.01898 0.165408 -0.0230958
-2.91284 -0.173713 -0.652817
-1.87425 1.80407 -1.00605
-2.44765 1.44663 -1.0375
-0.0947933 2.95544 -1.01008
-0.870226 2.36219 -0.997481
-1.32636 0.866997 -1.03392
-1.15859 1.58563 -1.04177
-0.421868 1.45395 -1.04099
1.03893 3.77657 -1.02586
0.579338 3.44987 -1.03226
1.74381 3.90273 -0.51757
1.51343 3.95978 -0.949068
1.51393 3.01813 -0.965287
1.70171 3.55348 -0.99466
1.91044 3.33961 -0.947437
0.641576 1.28586 0.313532
0.521932 1.17861 0.68709
0.0731385 0.843047 0.486278
1.21265 2.23024 0.799775
0.946573 1.67268 0.792729
1.34104 2.18544 0.709111
-0.275313 0.733748 0.793912
0.356957 1.15342 0.800497
0.14717 1.29237 0.768713
-0.50183 0.426146 0.525284
-0.29477 0.549297 -0.0309018
-1.12471 0.450861 0.769582
-0.772538 0.379458 0.78149
-1.6403 -0.0313743 -0.0321381
-1.35338 0.104478 0.571095
-2.11126 -0.104228 0.657161
-0.506392 0.421381 -0.619065
0.0714052 0.840345 -0.576729
-2.13342 -0.0880437 -0.788758
-1.37334 0.102941 -0.690904
-0.292314 0.707052 -0.978596
-0.814832 0.352068 -0.940753
-1.22137 0.414174 -0.983595
0.52201 1.17528 -0.801793
0.641376 1.28473 -0.387797
0.135021 1.29872 -1.02716
0.367033 1.14085 -0.986905
1.33032 2.19429 -0.814883
0.950536 1.66025 -0.950671
1.21907 2.22917 -0.976199
1.01148 1.67508 -0.0292275
1.67508 2.83901 -0.646283
1.42979 2.25362 -0.407185
1.42933 2.25363 0.339742
1.67065 2.82915 0.559435
0.370678 1.87599 0.750434
1.03847 2.46715 0.763281
0.575839 2.75662 0.741246
-2.53534 0.00787751 0.772989
-1.86392 0.44784 0.754657
-2.54682 0.683146 0.751239
-1.92461 0.337485 -1.0511
-2.65045 -0.0350179 -1.05635
-2.57566 0.550934 -1.03046
1.0296 2.4812 -1.02056
0.332104 1.88182 -1.03754
0.520033 2.77423 -1.02698
1.93117 3.35641 0.420459
1.9318 3.35755 -0.489949
1.96808 3.76851 -0.0220507
-0.581292 3.11127 0.112319
-0.471204 3.27368 0.313976
-0.225122 3.61143 0.214201
-1.49893 2.29037 0.45638
-0.920628 2.73099 0.385264
-1.68359 2.20488 0.324952
-0.155001 3.79574 0.584979
-0.386985 3.39902 0.480667
-0.310142 3.47209 0.608554
-2.49928 1.86078 0.812546
-2.39791 1.92051 0.764764
-2.69602 1.86298 0.76147
-1.64264 2.18516 0.767966
-2.0752 2.02224 0.765165
-1.85427 2.05491 0.787631
-2.31666 1.97658 0.574101
-2.22891 1.99331 0.693419
-1.97561 2.07824 0.587003
-0.0381736 3.68649 0.792088
-0.216212 3.45479 0.785392
-0.19053 3.3549 0.781616
-0.255031 3.51074 0.723807
-0.235394 3.50188 0.766768
-0.099246 3.83397 0.7874
-0.868375 2.66948 0.804946
-0.497337 3.11218 0.786449
-0.958014 2.64125 0.774126
-1.34277 2.35005 0.585427
-1.15549 2.48411 0.703854
-0.609094 3.03587 0.653228
-0.075348 3.91183 0.242849
-0.136718 3.8429 -0.0338345
-0.0147428 4.04874 0.64658
-0.0530968 4.00087 0.476872
0.10213 4.23931 -0.0284426
0.0396295 4.12964 0.277064
0.121851 4.29359 0.306197
0.1834 3.76667 0.776145
0.088591 3.91214 0.7913
0.269267 4.23344 0.801697
0.197397 4.11335 0.795056
0.474055 4.07946 0.795804
0.0330512 4.02899 0.799377
0.00291865 4.07178 0.785577
0.868026 4.14647 -0.0268448
0.709219 4.18978 0.324402
1.14767 4.13234 0.344364
0.174671 4.35873 0.329784
0.32879 4.32691 0.333481
0.212398 4.35023 -0.0255643
0.834106 4.12159 0.746096
0.526626 4.23026 0.596866
0.390327 4.27884 0.755441
0.123586 4.2562 0.723921
0.166819 4.34545 0.776395
0.13637 4.35088 0.593256
-0.075841 3.91199 -0.319178
-0.225345 3.61237 -0.295083
0.121278 4.29312 -0.372473
0.0386893 4.12969 -0.348434
-0.154266 3.80342 -0.695294
-0.0524219 4.00263 -0.571473
-0.0122 4.05641 -0.76176
1.14725 4.1328 -0.407971
0.71036 4.18951 -0.3913
0.382238 4.26707 -0.87553
0.530461 4.22972 -0.687201
0.836616 4.10566 -0.870465
0.330508 4.3263 -0.397088
0.175146 4.35881 -0.392404
-0.0275649 3.72364 -0.989873
0.100409 3.95862 -0.995758
0.198695 3.80507 -1.00714
0.0142859 4.09415 -0.926472
0.0372427 4.06995 -0.982583
-0.0853999 3.85519 -0.931387
0.458627 4.10358 -0.996738
0.192122 4.16123 -0.996909
0.251605 4.26704 -0.982653
0.136262 4.3504 -0.681567
0.166018 4.35117 -0.910551
0.119966 4.26373 -0.852798
-0.470779 3.27625 -0.406013
-0.581166 3.11223 -0.191257
-0.302377 3.48001 -0.727252
-0.383982 3.40325 -0.585122
-1.6879 2.20398 -0.420459
-0.920357 2.73304 -0.484648
-1.50751 2.29012 -0.564069
-0.179232 3.37154 -0.983198
-0.213094 3.47845 -0.959917
-0.96067 2.6346 -0.905186
-0.483986 3.13324 -0.94004
-0.871461 2.66448 -0.944044
-0.225928 3.52401 -0.92292
-0.248749 3.53016 -0.860021
-2.73841 1.8497 -0.920897
-2.42609 1.90971 -0.914476
-2.54705 1.84267 -0.981009
-1.9895 2.07225 -0.7042
-2.24917 1.98919 -0.823824
-2.32826 1.97569 -0.686118
-1.88879 2.03786 -0.950325
-2.10461 2.01061 -0.915316
-1.66411 2.17492 -0.906929
-0.603998 3.04537 -0.776912
-1.16205 2.4791 -0.830814
-1.3517 2.34531 -0.702278
-1.14044 2.54236 -0.0387387
-2.10442 2.05831 -0.330309
-1.72743 2.19003 -0.181717
-1.72651 2.18999 0.101865
-2.10248 2.05829 0.245108
-2.9319 1.78018 -0.922073
-2.85164 1.83879 -0.835083
-2.89005 1.84633 -0.271462
-2.8813 1.84479 -0.614835
-2.97312 1.78445 -0.455508
-2.65888 1.89801 -0.667862
-2.40933 1.94514 -0.515766
-2.83226 1.84756 0.702766
-2.91253 1.77126 0.710682
-2.40493 1.94569 0.422576
-2.65179 1.90374 0.565047
-2.97254 1.78461 0.394575
-2.87874 1.84465 0.530815
-2.8897 1.84559 0.214836
-2.41668 1.9454 -0.217895
-2.70991 1.89945 -0.0296449
-2.416 1.94513 0.146536
1.39625 4.05503 0.549462
1.50376 4.02644 0.222074
1.12849 4.05649 0.79219
1.27613 4.08494 0.759029
1.94219 3.81744 0.649193
1.64661 3.93479 0.710778
1.84899 3.81916 0.790634
0.262299 3.51344 0.762258
0.461747 3.70623 0.763761
1.1114 3.49773 0.759299
0.807546 3.61035 0.759478
0.899443 3.32784 0.752289
0.665532 3.86273 0.772261
0.864618 3.95905 0.779109
1.74231 3.06193 0.789453
1.71368 3.16807 0.788655
1.56075 2.86096 0.785748
1.87032 3.67651 0.791274
1.81435 3.43316 0.781054
1.91095 3.56644 0.759051
1.35056 3.09057 0.766318
1.59349 3.27039 0.776122
1.40722 3.36332 0.765584
1.28358 3.88249 0.783714
1.38004 3.64287 0.770161
1.64557 3.76636 0.790516
-0.322474 3.0486 0.77936
-0.0291786 3.28188 0.766966
-1.13102 2.36903 0.788282
-0.685534 2.726 0.798231
-0.23883 2.61408 0.752387
-0.481192 2.70495 0.771667
-0.611039 2.37853 0.758848
-2.59156 1.65108 0.760595
-2.36044 1.79341 0.77794
-1.94734 1.54947 0.751776
-2.16382 1.67779 0.76023
-2.2168 1.28634 0.747625
-2.04879 1.9113 0.770011
-1.69205 2.06499 0.796475
-0.455165 1.14343 0.751994
-0.792368 1.13138 0.744588
-0.887108 0.878654 0.751288
-0.717584 1.95561 0.74612
-0.72251 1.49726 0.735159
-0.295119 1.77516 0.739637
-1.61707 0.935621 0.74161
-1.17925 1.19542 0.739146
-1.59342 1.38677 0.7436
-1.39424 2.08632 0.774647
-1.53843 1.79794 0.758268
-1.05893 2.06772 0.759437
-2.97581 1.5595 0.738083
-2.86822 1.53883 0.751885
-3.01909 1.55503 0.247428
-3.01885 1.56252 0.610634
-2.96668 0.671463 0.764711
-3.03947 1.11215 0.753914
-3.08902 0.639267 0.69757
-2.89341 1.55077 -0.999226
-2.98457 1.56829 -0.921287
-3.01568 0.617372 -0.790425
-3.01149 1.09468 -0.871101
-2.95458 0.605095 -0.944164
-3.01764 1.55865 -0.69255
-3.01911 1.5532 -0.299326
-2.72742 -0.17689 0.270852
-2.90877 -0.1741 -0.0218138
-2.72703 -0.176886 -0.331635
-3.01894 0.168365 0.52903
-2.99409 -0.0797619 0.301179
-2.96382 -0.058305 0.713211
-2.98358 -0.0771556 -0.902775
-2.99435 -0.0796127 -0.351672
-3.01866 0.159481 -0.611388
-3.08734 1.10481 -0.0242958
-3.08772 0.591867 -0.321772
-3.08881 0.594961 0.265535
-2.39265 1.75971 -0.997571
-2.64766 1.63448 -1.00851
-1.71591 2.03566 -0.987474
-2.08356 1.88569 -0.992609
[...]
POINT_DATA 2562
SCALARS CoVolArea float 1
LOOKUP_TABLE default
0.0260247
0.0276606
0.03931
0.0214966
0.015031
0.0102054
0.0179599
0.0114342
0.00578144
0.0054693
0.00716269
0.00800085
0.0167738
0.00715978
0.00846703
0.00958896
0.00725579
0.0115945
0.00963217
0.00925736
0.0181516
0.0155333
0.0179986
0.00359025
0.0344358
0.0457505
0.0173008
0.0103928
0.0378227
0.0336007
0.00402519
0.0195255
0.0155206
0.0130548
0.00801639
0.0110982
0.0379021
0.0061544
0.0106091
0.0138752
0.0171841
0.0337484
0.0448976
0.0284485
0.0165007
0.00468727
0.0127697
0.00903733
0.00447401
0.010281
0.0100461
0.0114504
0.0176052
0.0136092
0.0031044
0.0340813
0.0108463
0.0239718
0.0127816
0.0178917
0.0276186
0.0122933
0.00499892
0.00364738
0.0126122
0.0309448
0.04814
0.0113053
0.0125258
0.0104432
0.01474
0.00618525
0.0275679
0.00753536
0.019788
0.0183317
0.00466079
0.00961424
0.0268888
0.0208129
0.0184627
0.00425416
0.0146386
0.0123266
0.0214231
0.0224307
0.0221793
0.0172836
0.0254494
0.0466488
0.0240187
0.0495967
0.0171256
0.0190879
0.0544625
0.0176926
0.0534315
0.0220081
0.0206677
0.0234631
0.025352
0.0269065
0.0244718
0.0390603
0.0294567
0.0192496
0.0221399
0.0290808
0.010378
0.014531
0.0135509
0.00595324
0.0199587
0.0106136
0.0185963
0.0083733
0.00505184
0.0104618
0.00980865
0.00785042
0.015065
0.0184129
0.0283465
0.0160388
0.00662956
0.0342452
0.0252683
0.0259695
0.0204729
0.0203488
0.0329297
0.0290169
0.0122541
0.0082101
0.018125
0.012751
0.021362
0.0164088
0.00886002
0.0124461
0.00644818
0.00999511
0.0277891
0.0210926
0.0251092
0.0234576
0.0193425
0.0226812
0.0187497
0.0425103
0.0159346
0.0241959
0.0263848
0.0266535
0.00931291
0.0294133
0.0210917
0.0252482
0.0366232
0.0191941
0.0207085
0.00984426
0.0428385
0.0294537
0.0239492
0.0241324
0.0344657
0.0273013
0.0116215
0.0195934
0.0154686
0.00534918
0.00463518
0.00325262
0.0103253
0.00541322
0.00465169
0.0106692
0.00789633
0.0151697
0.00782791
0.00640976
0.0105162
0.00912975
0.00435377
0.00401428
0.00943933
0.00642094
0.0106074
0.0272096
0.0189593
0.0214355
0.0177626
0.0215305
0.00927781
0.012345
0.0153223
0.014753
0.0106215
0.0122833
0.00766654
0.00604155
0.00739386
0.011414
0.00435438
0.00463162
0.0433581
0.0384173
0.0286641
0.00718111
0.0218927
0.0138324
0.0146796
0.0235627
0.010587
0.00651678
0.00243211
0.00515331
0.0189396
0.0255043
0.0113606
0.0157344
0.0128828
0.0135786
0.0105156
0.0305171
0.0409144
0.0134979
0.0263623
0.0187553
0.0234156
0.00775461
0.00865708
0.00791619
0.0121612
0.00620031
0.00457379
0.00553219
0.0121043
0.00665849
0.0061924
0.00589355
0.0036003
0.00800602
0.0315225
0.0446427
0.0171822
0.0213797
0.0293276
0.0371082
0.0264917
0.0122648
0.00740991
0.012743
0.00702043
0.0115334
0.00559372
0.0110623
0.00571251
0.0067133
0.00722838
0.0167394
0.00936898
0.0118641
0.0071327
0.0075622
0.0127578
0.0236808
0.0219164
0.0299814
0.0587118
0.0237257
0.0348636
0.0333993
0.0220606
0.00282375
0.00750711
0.0153583
0.0109232
0.0130269
0.013444
0.01828
0.00496353
0.00268145
0.0166608
0.0120943
0.0119663
0.00974663
0.0147363
0.0270091
0.0253924
0.0258506
0.023364
0.0319637
0.0102039
0.012211
0.0105241
0.0157648
0.00674836
0.0171691
0.0185185
0.0194239
0.0186127
0.0205845
0.0165703
0.0146334
0.00603922
0.00854476
0.00894248
0.00711003
0.00880903
0.00628778
0.0147993
0.012546
0.0168799
0.0161135
0.0190572
0.0130735
0.0156991
0.0161932
0.0140895
0.0143064
0.028421
0.0205077
0.0279151
0.0163238
0.0111217
0.0287711
0.0183838
0.0247817
0.0100418
0.0107788
0.019685
0.0263574
0.0207626
0.043229
0.0479057
0.0425446
0.034272
0.0453726
0.0489725
0.020836
0.0309978
0.0305484
0.00563138
0.0154907
0.0434098
0.0263421
0.0152626
0.0183453
0.0334917
0.0152186
0.012917
0.0395007
0.0252444
0.0160541
0.0303509
0.0451438
0.0335839
0.024529
0.035751
0.0403664
0.0251184
0.00768827
0.0150734
0.0267578
0.0452014
0.0693314
0.0678933
0.0643207
0.0133384
0.0159284
0.0141176
0.0119788
0.0289729
0.0195258
0.0301113
0.0171559
0.018628
0.0333084
0.0253101
0.0320416
0.0193873
0.0185762
0.0227345
0.0297759
0.024228
0.0395697
0.0348122
0.0293656
0.0331045
0.0365508
0.0382243
0.0259537
0.0356248
0.034264
0.0183982
0.0174196
0.0157964
0.0178739
0.021281
0.020338
0.0202151
0.0332004
0.0258826
0.00818969
0.0190621
0.0120979
0.0152771
0.0116338
0.00881714
0.00893567
0.00672938
0.0167521
0.0133806
0.0161084
0.00873541
0.00807794
0.00609181
0.0168782
0.0131758
0.019197
0.02272
0.0176847
0.0230177
0.0131501
0.0151857
0.0165256
0.0127749
0.0138617
0.00937541
0.00806192
0.00638449
0.00616862
0.00920695
0.00621193
0.0106042
0.0131217
0.00666124
0.00991003
0.0137297
0.01232
0.0157076
0.00504835
0.00838178
0.00573224
0.01353
0.0113833
0.0105025
0.00765689
0.00620011
0.0063201
0.0223424
0.0273323
0.0132365
0.0173209
0.0254156
0.0242012
0.0287198
0.0175169
0.0134623
0.00748853
0.0109429
0.0130409
0.00837893
0.00625708
0.0456764
0.0344793
0.0393193
0.0351575
0.029991
0.0379243
0.00922412
0.0198564
0.0119503
0.0128448
0.0157197
0.0267769
0.0238142
0.0244858
0.0310335
0.0258432
0.0148349
0.0191952
0.0157696
0.0437168
0.0384497
0.0163788
0.024026
0.0176831
0.0328875
0.0382305
0.0169746
0.0163523
0.0194528
0.00706978
0.0103757
0.00592191
0.0108348
0.0123578
0.00786281
0.0303336
0.0187869
0.0167448
0.0191705
0.0236102
0.0114649
0.0155138
0.0179706
0.0167144
0.0150205
0.0183362
0.0149876
0.011663
0.0129657
0.0144412
0.0104291
0.00692424
0.00768449
0.0074252
0.00734178
0.0121379
0.0093294
0.0149355
0.0121232
0.00721295
0.0101282
0.00820183
0.00787941
0.01071
0.0247362
0.0239275
0.0238826
0.0229809
0.0223966
0.0134353
0.0147957
0.030363
0.0217777
0.0281439
0.0177868
0.0230558
0.013221
0.0111407
0.0211607
0.0159617
0.0264659
0.0200638
0.0292922
0.0335407
0.0319848
0.032325
0.0190419
0.0178617
0.0178422
0.0231679
0.039942
0.0121999
0.0195902
0.015687
0.0131005
0.016061
0.0228169
0.0535547
0.03642
0.0308009
0.0252858
0.0226029
0.0256547
0.0318095
0.0254835
0.0155698
0.0125217
0.00693292
0.0180136
0.0198382
0.0271675
0.0222578
0.0189486
0.0204759
0.023553
0.0230843
0.0233452
0.0249944
0.0270001
0.0234667
0.0268797
0.0274209
0.0204841
0.0155587
0.0199782
0.0244112
0.0285148
0.0324672
0.00762412
0.0106288
0.0210726
0.0106679
0.0251815
0.0303401
0.0302541
0.0271462
0.0226703
0.0190226
0.0214633
0.0301035
0.013666
0.0178929
0.0154433
0.017395
0.0218256
0.0219178
0.034241
0.0259618
0.0190488
0.0188413
0.0238123
0.0271229
0.027799
0.0334629
0.0394749
0.0258722
0.035353
0.0306001
0.0116029
0.0279223
0.0189533
0.0108072
0.0162212
0.0138231
0.0187726
0.0127956
0.0207286
0.0289891
0.0336811
0.00757794
0.0161123
0.0167697
0.00829644
0.0265961
0.0285603
0.027476
0.0350689
0.0298595
0.0281179
0.0380088
0.0342411
0.047608
0.0196067
0.0254382
0.0214126
0.0201177
0.0243061
0.0208243
0.0285309
0.0290313
0.0292049
0.0355933
0.0330983
0.0377838
0.00951749
0.0123337
0.0113049
0.0178522
0.0148223
0.0136614
0.0218224
0.016506
0.0233226
0.034113
0.0282851
0.0242738
0.00772555
0.00375681
0.00403282
0.0033594
0.00412536
0.00448781
0.00654997
0.00537186
0.00714422
0.00800928
0.00572988
0.00614261
0.00839383
0.00718122
0.0111927
0.00420697
0.00448084
0.00320919
0.0126265
0.0115774
0.0162189
0.00819157
0.00919077
0.0100062
0.0143194
0.0102992
0.00948854
0.00345868
0.00681826
0.00567075
0.00988009
0.0084143
0.0112507
0.00512444
0.00638308
0.00601182
0.0105998
0.00789172
0.00876551
0.00900584
0.00590084
0.00569847
0.00422233
0.0051127
0.00830274
0.00341842
0.00467071
0.00444864
0.00819192
0.00868945
0.00991352
0.00798904
0.00813581
0.00973243
0.0120922
0.0086562
0.00658128
0.0052972
0.00491144
0.00716416
0.0208481
0.0192696
0.0203829
0.0274143
0.0313938
0.0128903
0.0183245
0.0141904
0.0141125
0.0156055
0.0139495
0.0267204
0.0194429
0.0146519
0.0168154
0.0247042
0.0241103
0.0276803
0.0231075
0.0264043
0.0166078
0.0195284
0.0194468
0.0197962
0.0182284
0.00875043
0.00977206
0.0108958
0.0100346
0.00985857
0.0117661
0.0140288
0.0105921
0.0126258
0.00894362
0.0166053
0.0158599
0.0168938
0.0115639
0.0133229
0.0125769
0.0152927
0.0134908
0.0162016
0.0120464
0.00967516
0.0104901
0.00972062
0.0129551
0.00743002
0.00570098
0.008322
0.00841227
0.00929541
0.0045402
0.00659032
0.00388827
0.0127858
0.0100114
0.0106455
0.00391577
0.00663757
0.00431748
0.00341087
0.00346855
0.00306234
0.00346289
0.0079267
0.00547027
0.0061411
0.0359591
0.0371582
0.0315454
0.0384894
0.0425015
0.0428344
0.0257535
0.0352148
0.0323676
0.00653579
0.00952934
0.00692031
0.0153195
0.0126095
0.00882005
0.022899
0.0179508
0.028434
0.00952474
0.0140688
0.0100772
0.0272825
0.0207313
0.0196462
0.0111933
0.0160158
0.0166193
0.032453
0.0244263
0.032378
0.0081646
0.00402195
0.00613454
0.00882093
0.00982174
0.00736235
0.00631736
0.00624886
0.00385089
0.0023293
0.00761044
0.00961603
0.00811495
0.00580254
0.00592548
0.00325374
0.00349087
0.00622189
0.0239459
0.0291012
0.0188928
0.020516
0.0211247
0.0208067
0.0179383
0.00928281
0.0130723
0.0136771
0.0142018
0.0126064
0.0164175
0.0172102
0.0106442
0.0108999
0.00988388
0.0153177
0.0130186
0.0149767
0.0113115
0.011216
0.0120919
0.0172867
0.0146579
0.0165766
0.0325374
0.0384188
0.0354682
0.0374698
0.0282523
0.0439454
0.0398192
0.0125812
0.0172534
0.0129237
0.0187837
0.0189348
0.0137221
0.0238512
0.024275
0.0310267
0.00990248
0.0068156
0.0294295
0.0186024
0.00978943
0.0135316
0.0168705
0.0352414
0.0267188
0.0346269
0.0111265
0.0102892
0.0127
0.00636299
0.00804094
0.00649622
0.0120281
0.00984756
0.00979067
0.00786907
0.00518372
0.00707776
0.00371518
0.00386292
0.00466221
0.00434744
0.00431056
0.00491281
0.0107056
0.00875794
0.0100428
0.0097124
0.00930097
0.0125892
0.00354388
0.00572905
0.00419253
0.00640585
0.00546408
0.00759918
0.00817951
0.00682321
0.00647303
0.00891889
0.010752
0.00935419
0.00320367
0.0045382
0.00842675
0.00787533
0.00968713
0.011386
0.010455
0.00785317
0.00541286
0.00440565
0.00441044
0.00736039
0.0316471
0.0357918
0.0230634
0.0273054
0.0505544
0.0366966
0.0410165
0.0127977
0.0137589
0.0252587
0.0181476
0.0237793
0.0163374
0.0194271
0.0224541
0.0265031
0.0219494
0.0407284
0.0356687
0.0381992
0.0318229
0.0315597
0.0309146
0.0261176
0.0305062
0.0365901
0.0130096
0.0100172
0.00945176
0.00946991
0.012039
0.00776242
0.00605519
0.0123173
0.0100217
0.0107312
0.00841518
0.00969028
0.0137788
0.0113622
0.00902673
0.00844375
0.00720677
0.0104468
0.00518275
0.00571594
0.0111344
0.00720272
0.00672641
0.00726221
0.00570371
0.00583463
0.00480367
0.00563673
0.00789975
0.0089496
0.00717696
0.00833795
0.00670217
0.0059659
0.00512084
0.0176306
0.0127213
0.0137262
0.0110389
0.0116908
0.0161037
0.011331
0.010435
0.00987756
0.0075589
0.00733159
0.0105011
0.00550753
0.00669395
0.00653655
0.0129227
0.00900498
0.0102095
0.00802087
0.00871897
0.00621327
0.0157915
0.0187466
0.0169583
0.021631
0.0293601
0.0158513
0.0186526
0.0160614
0.0166684
0.0200186
0.0228224
0.0342891
0.029967
0.0224252
0.0221372
0.0265343
0.0282899
0.0304666
0.0479959
0.0579387
0.0586276
0.0574023
0.0556293
0.0209385
0.0252324
0.0301074
0.0276457
0.0263253
0.0320669
0.0446237
0.0235165
0.0193691
0.0421977
0.0300201
0.0252075
0.026056
0.0294594
0.0474206
0.0367094
0.0463928
0.00527519
0.00348237
0.00557057
0.00375705
0.00394584
0.00624926
0.00939872
0.0123484
0.010489
0.0142595
0.01432
0.0122862
0.0180158
0.0105634
0.00924647
0.00762733
0.0138414
0.0170383
0.0118479
0.0130481
0.0196784
0.0150692
0.0152052
0.00943172
0.01286
0.0111328
0.00194672
0.00635116
0.00746823
0.00351599
0.00144782
0.00156881
0.003368
0.015629
0.0124594
0.0138283
0.0136502
0.0180554
0.0117388
0.0104606
0.0136611
0.00986877
0.01211
0.00630495
0.00838178
0.00907409
0.0169319
0.0113405
0.0130442
0.00943804
0.0114227
0.00766691
0.021642
0.0257978
0.0235223
0.0245945
0.0272603
0.0174781
0.023734
0.0210059
0.0214687
0.0247734
0.0199447
0.0266643
0.02311
0.0218077
0.0242421
0.0288186
0.0281868
0.0288509
0.0292815
0.0327718
0.0211698
0.0247775
0.0298987
0.02796
0.0258414
0.00948702
0.00848948
0.00868186
0.00892795
0.00976338
0.0126234
0.017064
0.00324171
0.00771205
0.00376632
0.0217834
0.0153212
0.0196672
0.00855258
0.0100032
0.0100487
0.0183182
0.0145074
0.0209241
0.014394
0.0150067
0.0198298
0.017979
0.0195678
0.0157584
0.0164735
0.0191935
0.0186927
0.0186369
0.0176452
0.0180485
0.0188375
0.020666
0.0191889
0.0196513
0.0123183
0.0117791
0.0158938
0.0142486
0.0166804
0.0147128
0.0166176
0.0194738
0.0183341
0.0183473
0.00697917
0.00719
0.0075003
0.00588094
0.00588124
0.00481905
0.0103743
0.00850447
0.010838
0.00402109
0.0049728
0.00563635
0.0110536
0.00783306
0.0114132
0.00548853
0.00633297
0.0063688
0.0155499
0.0145848
0.0176576
0.0125611
0.0135933
0.0135849
0.0159083
0.0136406
0.0127729
0.00891591
0.0112196
0.0112482
0.0142452
0.0188637
0.0163478
0.0136526
0.0132018
0.0204245
0.0181399
0.0191981
0.0201848
0.0199917
0.00657881
0.0116758
0.00922836
0.010761
0.0153482
0.0186473
0.0174169
0.0153784
0.0135632
0.0138417
0.0126145
0.0131792
0.0189999
0.0161366
0.0191122
0.00990602
0.0103157
0.0169048
0.0134892
0.0175725
0.0115212
0.0120686
0.032931
0.0260569
0.0341374
0.0215357
0.023436
0.0250514
0.0242421
0.0222534
0.0198413
0.0153758
0.0179682
0.0187427
0.0132129
0.0104697
0.0166466
0.0130253
0.019225
0.00763026
0.00719737
0.0332259
0.0249604
0.0267062
0.0168482
0.0214455
0.0227581
0.0234713
0.0223945
0.0200141
0.00705442
0.00935327
0.00728753
0.00669875
0.0128134
0.00899042
0.0124267
0.0152156
0.0140144
0.0106834
0.0186226
0.0203092
0.0194428
0.026286
0.0219685
0.0214781
0.0218528
0.0222392
0.0255831
0.0442401
0.048423
0.0488021
0.0510921
0.0489115
0.0433271
0.0320466
0.0452616
0.034779
0.0373243
0.0460899
0.0430624
0.0310839
0.0402473
0.0273529
0.0492715
0.051501
0.0527997
0.0362093
0.0487032
0.0346902
0.0143645
0.019193
0.0157465
0.0180214
0.022521
0.0404798
0.0402186
0.0411668
0.031533
0.0243939
0.037216
0.026748
0.0305855
0.036757
0.0381396
0.0255619
0.0315695
0.0265195
0.00863579
0.0129235
0.0044453
0.00354461
0.0167433
0.00972517
0.01106
0.0297257
0.0238799
0.0370272
0.0332488
0.0492608
0.0197399
0.0129101
0.0133654
0.015948
0.0207989
0.0126322
0.0136386
0.0159774
0.0433945
0.0237291
0.0332428
0.0136246
0.0251348
0.0113647
0.0114487
0.00784838
0.014478
0.0115359
0.0179281
0.00616861
0.0108798
0.027473
0.0198269
0.0152589
0.0385287
0.0297914
0.0490907
0.0174934
0.0174915
0.0161707
0.0254243
0.0303158
0.0173292
0.0220012
0.0525725
0.0360786
0.0408377
0.0199752
0.0319417
0.0221695
0.0429084
0.0350126
0.0440942
0.0225237
0.0277026
0.025141
0.0281294
0.0285201
0.0240792
0.0225473
0.0204493
0.00770132
0.0379228
0.0327018
0.0489937
0.00958607
0.0180409
0.0173141
0.0159542
0.02859
0.032386
0.0197597
0.0229476
0.0154974
0.0513679
0.0357506
0.0388074
0.0213426
0.0279538
0.0220167
0.0510555
0.0677847
0.0621392
0.0609188
0.064721
0.0489187
0.0654511
0.0598919
0.0590816
0.0665893
0.0423653
0.0615096
0.0530354
0.0553447
0.0639135
0.0732308
0.0713681
0.0715509
0.011163
0.0122591
0.00950919
0.00998233
0.0196736
0.0145605
0.0182797
0.0119805
0.00957036
0.0149527
0.011594
0.0168803
0.00889943
0.00902288
0.0304347
0.0277921
0.0349542
0.0216295
0.0244512
0.0263177
0.02427
0.0225069
0.0182048
0.0127929
0.0157567
0.0169773
0.0151877
0.0152556
0.0219007
0.0179152
0.0203536
0.0151772
0.0149635
0.0373661
0.031022
0.0344551
0.0251962
0.0270853
0.0292905
0.0287866
0.027799
0.025625
0.0140729
0.0134085
0.0147107
0.0150494
0.0227304
0.0184176
0.0227485
0.0232522
0.0236427
0.0192808
0.0226633
0.0243015
0.0225924
0.0264929
0.0249746
0.0226607
0.0263424
0.0268592
0.0309741
0.0377386
0.0340301
0.0308176
0.0370887
0.0359496
0.0393435
0.0266192
0.0317932
0.0289691
0.0344623
0.034554
0.0386254
0.0337405
0.0341176
0.0311125
0.0379624
0.0350482
0.0366802
0.0329493
0.0376231
0.0354718
0.0182358
0.0281003
0.0226074
0.0201923
0.0243157
0.0405733
0.039974
0.0396175
0.0357521
0.0321623
0.0395574
0.0282407
0.0330481
0.0397347
0.0400867
0.0319292
0.0360574
0.0305239
0.0148722
0.015099
0.015649
0.0149146
0.0201726
0.0177603
0.0206063
0.0133979
0.0138942
0.0177487
0.0161784
0.0174989
0.0155107
0.0160597
0.0195753
0.0195646
0.0200403
0.0213606
0.0206633
0.0219403
0.0198451
0.0193046
0.0189007
0.018947
0.0198203
0.0207679
0.0333586
0.030937
0.028446
0.0301169
0.0316805
0.0268999
0.0237156
0.00377272
0.00946735
0.00384453
0.0126706
0.0130777
0.0102574
0.0218788
0.0182214
0.0247015
0.0126686
0.0123163
0.0202843
0.0160913
0.00990122
0.0107331
0.0111048
0.0240025
0.0180342
0.021174
0.00653656
0.00610389
0.0066164
0.0120314
0.00867092
0.0118027
0.00592167
0.00617034
0.00566238
0.0184401
0.0151298
0.0167112
0.0125018
0.0137241
0.0150526
0.0156061
0.0145851
0.0140165
0.00693251
0.00555694
0.00371749
0.00602167
0.00596614
0.0070926
0.0102471
0.00694651
0.0104175
0.0122535
0.0115087
0.00875889
0.0150949
0.0134785
0.0140846
0.017024
0.0196004
0.00598171
0.0147954
0.00988335
0.00960833
0.0120283
0.02075
0.0208061
0.0206263
0.0187001
0.0173092
0.0159777
0.0176475
0.0194659
0.0240728
0.0221813
0.0250523
0.0187291
0.0198641
0.0209318
0.0204893
0.0195204
0.0176085
0.0145006
0.0139195
0.0153074
0.0121914
0.0128903
0.0117141
0.0181302
0.0155019
0.0176113
0.00982825
0.0109508
0.00929045
0.0157819
0.0133495
0.0156351
0.00948664
0.0110584
0.0114295
0.0172625
0.0148551
0.0163201
0.0071838
0.00593748
0.00656673
0.00705503
0.00658644
0.0085507
0.00712756
0.00551985
0.00778352
0.0113595
0.00940473
0.0113684
0.00521601
0.00712013
0.00665366
0.00930166
0.00843409
0.00774606
0.0134307
0.0106366
0.0132777
0.00930975
0.0100648
0.0123629
0.00615488
0.00712486
0.00481963
0.00641461
0.00528954
0.00657933
0.0159593
0.0146563
0.0167284
0.0107127
0.0125994
0.0115879
0.0152008
0.0138563
0.0138495
0.00628044
0.00466402
0.00511023
0.00788135
0.0057569
0.00625552
0.00750258
0.00658575
0.00872348
0.0127604
0.0114324
0.0119455
0.0133242
0.0122839
0.0141734
0.00903111
0.0101788
0.00924456
0.0107029
0.0105769
0.0125368
0.0132681
0.00589893
0.00909903
0.0114438
0.0101097
0.0110621
0.0075845
0.00903911
0.00808079
0.00568136
0.00763171
0.00883783
0.00788975
0.00634583
0.00669388
0.00567305
0.00589275
0.00697374
0.0267408
0.0278572
0.0207631
0.0236552
0.0251737
0.0248941
0.0253791
0.010052
0.0114538
0.018538
0.0145787
0.0161094
0.0145299
0.017851
0.0321075
0.0258363
0.0359726
0.0278419
0.0244201
0.027437
0.0213403
0.0209111
0.0198983
0.0201293
0.0218343
0.0244068
0.0178654
0.0155593
0.014978
0.0153858
0.0167224
0.013285
0.0110409
0.0087789
0.00934276
0.0113307
0.00712026
0.00830947
0.00666194
0.0142209
0.0118012
0.0137486
0.00529674
0.00758497
0.00853774
0.00663451
0.00629243
0.0058209
0.0070701
0.0132418
0.0106386
0.0111073
0.0463043
0.0442614
0.0443094
0.0342462
0.0412092
0.0382595
0.0321267
0.0390874
0.0320886
0.0376293
0.0362913
0.0368088
0.0264444
0.0319419
0.0304382
0.0352305
0.0344771
0.0329733
0.00857626
0.00870052
0.00885888
0.0237186
0.0139242
0.0166757
0.0185919
0.0140922
0.0207188
0.0300736
0.0254607
0.0272712
0.0113269
0.0100253
0.00927469
0.0133783
0.0166759
0.0101111
0.0227903
0.0153104
0.00991973
0.0105396
0.0365893
0.0230654
0.0297226
0.0318266
0.0282381
0.0159704
0.0227053
0.0210168
0.0276637
0.0258709
0.0263132
0.0257561
0.0221638
0.0251718
0.022455
0.0375032
0.0269524
0.0216812
0.0224672
0.0235868
0.0253119
0.0288449
0.012201
0.013461
0.0124801
0.01954
0.0162917
0.0174931
0.018387
0.0166336
0.0205544
0.0260976
0.0238614
0.0218929
0.0465304
0.0465801
0.0378027
0.0433776
0.037744
0.0434312
0.0361176
0.00945117
0.0138642
0.00974459
0.0242577
0.018545
0.0226528
0.0264524
0.0210683
0.0301581
0.0379441
0.0393105
0.034598
0.0361097
0.0342927
0.0348399
0.0298822
0.0319453
0.0291101
0.033212
0.0191185
0.0185349
0.0206354
0.0136351
0.016491
0.0146312
0.0184233
0.0180811
0.0172843
0.0096524
0.00636745
0.006284
0.00816073
0.00672617
0.00713847
0.00859736
0.0076288
0.0101959
0.00559185
0.00696996
0.00613077
0.015448
0.0118624
0.0158895
0.00860888
0.00882433
0.00870352
0.0135331
0.0126493
0.0153213
0.0395711
0.0323076
0.0356021
0.0329468
0.026324
0.0122562
0.0135248
0.0123986
0.019137
0.0265774
0.0138269
0.0197026
0.0164304
0.01163
0.0134951
0.0263911
0.0200937
0.0248945
0.0233923
0.0245287
0.0192188
0.0210253
0.022148
0.0212533
0.0202105
0.0120142
0.0130811
0.0131155
0.0127427
0.0114383
0.0153084
0.0175489
0.0168086
0.0155102
0.0163071