# vtk DataFile Version 4.2
vtk output
ASCII
DATASET POLYDATA
POINTS 642 float
-1.86921 6.69573 0.183522
3.66653 7.99389 0.211656
8.38806 14.0748 0.198932
3.63745 -1.41199 0.194683
1.17701 0.601725 4.15994
0.455552 5.21781 4.78486
1.03659 1.28791 -2.52191
0.522094 5.24917 -4.42313
5.18343 2.11971 -2.9073
4.73355 2.14218 3.00164
4.81451 3.0387 3.11539
2.39548 3.03914 -1.08058
38.4576 -19.5176 -19.781
10.3701 2.20031 -5.28229
2.51767 4.37446 2.44971
8.37335 19.5116 11.7902
3.72961 13.0313 0.916364
6.44528 14.1938 -5.82084
5.06973 -4.09273 4.30319
20.6121 -7.05614 21.799
47.8036 -24.5394 23.7955
137.239 -8.33695 1.36549
11.122 7.34418 17.0137
24.0202 15.7739 10.543
24.156 1.8061 -28.194
4.10626 4.52179 5.72764
147.241 101.9 60.0265
130.261 87.1091 -58.4472
0.976682 4.99976 13.2797
31.6372 -8.74165 17.6025
23.0244 14.6107 -7.01956
8.64488 5.57922 -9.236
14.8596 -3.74376 5.35733
9.92531 0.0269345 10.9717
2.11686 6.37333 -1.81849
27.4369 87.808 -45.7783
5.7616 61.6499 -0.0496565
29.2041 109.188 64.5581
-3.26642 13.5604 9.80899
7.79558 2.03994 -4.68203
14.6818 -3.06094 -3.11126
23.6304 -1.31677 0.909294
1.56703 5.15176 -0.348221
3.23414 24.3933 -6.34222
-1.22643 7.01143 -0.454903
0.745017 2.83295 -0.457954
-45.095 -7.12855 35.3515
4.1993 0.579537 0.472528
1.58653 5.4527 5.75547
14.3542 5.49414 6.18111
2.02179 5.63172 4.46071
-1.48864 9.33205 -0.931155
-2.17679 7.05082 0.417412
0.951697 5.90112 6.48798
5.71554 -2.30414 -7.34349
5.27787 9.29243 0.458835
-6.09013 -12.624 1.56869
4.7486 8.71453 0.216354
-6.2813 13.0691 5.98992
-0.914721 6.42602 1.44372
4.58544 8.40524 0.704789
-2.14994 -9.48679 2.12366
1.90448 4.63969 -4.17269
5.93043 2.82099 -7.79351
0.857111 5.39519 -5.22627
2.21524 29.9399 13.3636
1.87348 4.65905 1.0496
2.79693 5.27171 -2.66272
24.0836 15.4006 -24.4482
6.78367 -0.436346 1.83848
-68.0498 -14.5709 -41.2987
2.44253 2.03804 3.68562
24.3349 77.1648 2.38627
14.2963 4.19429 -1.7262
-80.306 -15.778 -125.321
-68.0859 -14.6438 121.18
12.4721 4.06057 2.19191
-10.2237 -23.7709 4.51779
4.7704 9.0579 0.360579
0.792246 6.33636 6.70869
8.11721 -6.57017 -17.6373
7.1504 2.08451 4.43299
-26.2749 8.41976 -17.4362
7.61702 1.82434 4.73568
12.311 10.4903 -2.99005
1.43612 6.20416 4.85397
4.03582 6.74136 -6.05753
-54.7441 15.3175 26.4081
2.31826 0.350711 4.31274
20.153 -4.95539 13.5553
4.0972 2.7079 1.77318
-90.6792 126.031 214.014
12.834 10.9519 -3.73715
24.31 8.03087 11.3125
-106.014 132.119 -216.708
14.716 6.65926 -5.2919
23.3235 -282.323 3.55081
16.7803 9.70985 5.88939
-106.375 14.4592 -31.9496
8.10381 8.60162 15.2472
1.56241 5.98627 -3.06727
23.1377 33.0835 -8.97756
4.64165 5.71432 3.76375
35.5858 -36.9862 -38.3916
2.11375 0.918386 -1.65286
4.05438 0.972752 4.40459
0.667178 5.97195 -5.00756
4.76427 8.98288 0.574364
-6.875 -17.6965 -0.656776
7.49094 1.90219 -3.78285
-15.9592 5.71472 13.9059
7.01502 2.03588 -3.44059
4.69829 -2.16086 0.0784512
3.88922 11.4851 0.211091
4.97154 -0.233679 -0.258831
6.87714 2.62067 3.6954
-17.84 3.61701 -12.6754
6.85483 2.66809 4.16895
2.06388 2.20797 4.28033
6.60258 6.71083 2.9639
1.63312 0.27757 5.2788
42.8833 -1.09623 -9.87461
5.06266 2.34627 0.404479
4.37027 5.0955 2.51333
21.1275 11.2166 49.1685
5.8639 26.657 0.576557
-78.8695 -86.4072 -22.8222
-1.47622 -15.7399 -2.47399
52.7031 -3.74146 18.3778
4.70536 0.295629 1.2159
-1.14503 -17.7129 4.30588
-96.6197 -97.4959 38.498
1.69124 3.30722 -2.34424
27.8217 7.81354 -77.3874
5.63699 6.78198 -2.09268
7.3563 6.51388 4.06485
4.63975 -2.01301 0.699953
1.49826 0.790158 -3.67241
4.53555 -1.81364 -17.3006
6.96051 2.70685 -3.40619
-10.1565 4.93068 10.7747
6.86832 2.64592 -2.89139
-0.436474 16.036 1.19516
7.15527 1.81007 -3.88251
-18.2531 3.69837 16.4727
-22.0579 3.64168 -17.421
7.10003 1.77543 4.69118
6.85807 5.65361 -0.742014
-17.5711 4.77475 -12.558
7.41027 -2.56022 -11.7425
-51.7649 -161.37 -81.2209
99.9388 -5.0594 89.7956
-132.496 121.952 82.7472
142.628 -22.8821 -141.016
-59.2723 -189.192 113.751
-173.658 139.063 -84.7017
-6.6338 4.60887 9.87148
4.8517 -8.83511 -12.7928
4.38237 10.659 -2.37309
-30.0993 9.96154 -27.7899
-25.5292 8.9208 25.7797
-8.75045 -25.4269 1.20736
-1.10821 6.58429 0.0242693
-1.11482 7.28762 -0.455377
-1.88704 6.87072 -0.0929802
-18.9433 25.4155 -16.3471
4.41686 3.93746 -0.489947
14.8356 -13.0177 -6.05465
1.38018 3.50901 -0.173419
0.851322 8.65187 -1.39866
7.06665 12.2592 -0.850758
-1.26746 3.42414 1.8513
-6.08643 2.31933 5.52496
-0.144241 3.31634 1.40034
-1.77556 -5.55815 23.5925
-3.36791 0.907722 6.29654
20.8251 0.231016 -17.3511
41.6912 -8.93492 -23.9606
-6.43967 0.746782 4.62524
-35.217 5.13926 -3.32134
0.827544 5.12143 5.13268
1.60599 4.73121 4.00638
0.998399 5.40307 4.73026
7.19305 3.60791 1.97365
3.36792 3.95442 3.43794
1.87736 7.6739 8.51996
3.8834 5.25481 2.4962
4.05268 4.6833 2.83547
9.47755 5.45351 3.69911
-62.5457 58.3521 21.8821
-1.42175 17.1486 58.373
15.3822 41.8846 16.3979
-2.11819 6.86963 -0.124494
-2.2347 6.84227 0.235265
-2.73095 7.98156 3.35338
-1.93017 7.23414 -0.418257
-1.12714 8.64085 0.571775
-1.7192 7.00465 -0.349934
2.53082 6.34433 -0.245639
0.362202 5.16192 5.29145
0.889249 4.35281 4.41505
-1.92806 1.39381 -5.04041
1.42466 3.82282 3.51293
3.44474 15.5759 17.4568
2.47186 3.72875 4.32429
4.22973 4.2633 4.75329
4.04892 7.67395 0.255462
2.9585 5.38328 0.0915862
3.8314 7.80508 -0.154023
4.27943 -0.326601 5.09627
3.81001 4.14025 1.04357
10.0467 19.5458 0.752935
12.2451 23.0926 4.73777
4.57655 5.99441 -0.0415053
-4.21123 -0.184641 -3.24428
4.5217 6.14997 5.22323
0.368515 -11.5494 -8.65846
7.52743 -0.293344 0.544401
-2.11035 6.79608 0.803948
-1.81925 6.748 0.558875
2.70969 5.44802 3.49934
-1.60537 6.66924 1.75899
4.28524 -2.52567 2.64206
-2.19448 6.96808 1.98128
-8.0993 9.53395 -2.21724
3.8578 7.83547 0.686281
2.95119 5.33659 0.561782
-0.427077 0.941735 4.68893
4.26542 5.45894 1.55648
10.7103 19.7113 -1.71239
3.95808 4.09949 0.404916
4.541 -0.913305 -1.97949
0.921169 5.00667 -4.4587
0.985439 4.44879 -4.12943
0.423167 5.09192 -4.69311
-1.32526 5.43906 -9.74327
2.381 3.67522 -4.68964
2.89565 0.153093 1.17697
2.33836 9.9216 -9.27627
1.8205 3.80996 -3.7085
3.06177 2.3495 1.2536
7.67728 12.3045 7.1116
11.7896 4.41276 -0.663621
-7.31213 22.9083 -14.4712
-1.13719 7.32628 1.16524
-1.05307 6.49023 0.408851
9.65391 18.1571 5.06334
1.27253 9.19398 3.32011
17.6881 -16.7545 7.57606
5.75454 2.41074 1.22098
-24.8935 28.7878 26.5742
1.12887 5.27607 -3.98067
1.91015 4.87253 -3.7186
11.5228 4.97349 -7.37754
5.65353 4.81655 -3.82772
5.41535 -3.58425 12.4764
4.53427 4.16572 -2.8025
13.1491 10.3004 -2.00445
0.456517 3.35425 -0.481698
-7.86026 1.7767 -5.55836
-0.352541 3.53345 -0.721029
-42.4799 3.81763 10.4574
-10.0215 -0.571846 -3.12107
52.3688 -11.6809 29.7664
36.5386 -3.626 33.0574
-4.90275 -0.925396 -5.76982
-7.41588 -15.5355 -37.8497
16.7466 73.5786 -22.9881
-15.1086 26.6697 -97.3163
-94.8448 78.2077 -19.1715
0.539113 6.22489 0.291787
20.6154 38.8901 -23.77
7.09329 8.80309 0.515462
6.90425 8.34199 0.720409
21.1066 33.8045 23.9641
1.99725 3.54983 0.48216
-7.74098 2.11535 -12.1648
-53.516 -62.2197 -29.1238
-6.97041 -7.12997 -19.2382
105.968 -2.61287 37.0757
1.42655 3.44845 -15.2442
9.20912 27.8592 -52.9916
-5.684 2.40076 10.5304
1.35218 3.50533 0.614191
12.3447 23.138 46.8126
2.82532 3.22446 13.8198
98.2829 -2.41317 -34.385
-3.69667 -5.18533 18.2883
-51.0734 -60.7553 33.6431
-94.0233 159.424 -110.932
-258.081 -32.0783 6.07583
-85.3693 151.223 116.298
2.51985 5.70615 -0.118689
3.50819 8.22882 -0.0168055
6.76588 -6.63422 1.37605
3.52243 4.81046 0.0395541
20.7975 25.6124 4.36954
2.5769 5.39382 0.539987
-9.24021 -2.75088 7.58148
0.267727 5.45204 5.03233
0.211654 4.93946 4.79076
4.89996 5.46214 -7.53006
0.900257 4.99283 5.02777
4.97418 12.5645 20.7844
1.20892 4.45358 4.55225
8.32192 -4.0346 -0.768881
5.57647 1.67412 3.6883
4.74826 1.5698 2.72002
5.7128 1.8777 3.28817
-13.4408 3.62328 3.72168
3.49112 1.86879 2.30384
29.1213 6.52249 17.2292
20.3253 2.83572 18.1346
2.58962 2.86021 0.271031
-0.234864 8.33543 -8.85854
-1.66976 -36.1222 -20.9422
-15.5034 -4.76406 -44.9048
-44.9907 -22.5068 -12.4065
1.45896 5.50972 3.79569
0.662253 5.61595 4.69564
8.47551 11.8418 1.71546
3.74741 6.31557 2.73756
3.40548 7.57157 8.78717
3.31018 6.53923 3.25878
4.83285 5.90576 -2.65474
0.433962 3.70891 0.571703
-8.11363 4.44304 4.55101
-30.1238 -14.2989 9.82898
-9.82624 3.80633 2.35569
53.2731 1.5727 -43.3977
-7.53899 8.12507 2.81656
-11.5117 25.1479 5.18872
1.41975 0.281278 4.2755
2.54454 0.624099 3.84056
1.80414 1.0404 3.59847
9.04682 4.6786 0.462706
4.70839 1.00442 3.44325
3.07714 1.62941 4.60349
4.84625 14.8882 -27.532
6.07858 0.150914 3.25485
9.72178 -17.4562 14.6702
-11.1048 49.9925 46.4549
-25.2068 -28.5263 81.571
33.482 12.2374 31.9777
-4.77701 8.43272 11.65
2.05226 3.66646 -0.240193
-14.7963 101.766 28.0028
9.27192 18.5409 13.0425
105.637 18.0358 -61.4241
10.2641 15.7737 20.9583
18.1952 -15.8359 151.555
2.90056 4.3013 1.01243
-7.28359 9.01761 -14.1247
9.02991 -23.1476 -168.461
10.9322 14.8615 -17.3184
119.875 17.2262 61.569
6.64412 22.35 -14.3963
-16.7961 103.475 -23.0111
3.16576 8.84455 2.1027
1.38058 -18.6688 0.393899
3.68406 10.0914 -1.78155
44.047 -104.785 116.304
20.3536 -18.3092 6.60098
93.7261 112.26 -18.0198
101.284 119.226 16.547
20.3244 -16.7407 -3.57418
40.4623 -111.553 -113.349
-411.671 261.553 7.72202
-335.09 -279.106 -323.984
-322.353 -270.799 337.716
-11.9554 4.60887 -4.18645
1.0218 4.18682 0.820853
-24.0956 41.1247 -1.50252
-10.8693 9.82711 0.472161
84.8193 -2.48504 66.2427
-17.8047 0.838392 0.21237
-33.8292 -11.7011 18.0806
0.753492 5.5481 -4.02331
1.68314 5.63464 -3.12853
16.0214 10.3757 0.0176947
3.60315 6.44414 -0.372869
1.55901 4.33842 3.76743
4.86263 6.4913 -0.332285
6.85561 27.1325 -1.04251
1.97268 1.56759 -2.24431
4.18861 -1.87232 -5.95537
1.36666 0.949268 -2.81858
22.9094 -6.7099 11.6159
7.03524 -8.90315 -6.70176
0.86864 22.3922 51.8815
2.06371 6.31193 12.749
3.41934 2.18259 1.58692
23.0806 2.09058 -4.4771
-37.4664 92.7495 -87.0528
63.6983 18.1501 -87.6296
-63.3604 -75.1091 -135.325
0.255708 4.98795 -4.22395
[...]
POINT_DATA 642
SCALARS Mean_Curvature float 1
LOOKUP_TABLE default
1.26524
0.958956
5.23389
0.444982
1.21418
0.259736
2.84165
1.02593
0.215964
0.227333
4.39768
3.87582
2.30058
2.48027
3.19779
2.99949
2.71052
2.82265
2.95352
2.31738
2.21206
1.81682
2.91402
2.62965
1.75144
3.86221
1.34869
1.35996
3.41745
0.797259
2.59602
2.69998
3.24664
3.12976
3.2273
1.55567
2.06773
1.42823
3.04582
3.07167
3.28961
3.00583
1.72221
0.614439
2.03903
1.76875
0.913841
1.7802
1.79747
0.95118
1.13736
0.865195
1.76531
1.46399
0.887612
1.80836
0.859328
1.22935
0.870931
2.1635
1.27117
0.858292
1.97056
0.882007
1.62261
0.591731
1.79646
1.25121
0.937109
1.96993
0.877949
1.82152
0.738822
1.96981
0.816948
0.813974
1.94558
0.865308
1.16923
1.61699
0.835758
1.13131
0.831765
1.4467
0.834441
1.00784
2.19565
0.898917
1.58529
0.649578
1.11312
0.667708
1.94681
2.54912
0.667504
1.40476
0.625197
1.55479
0.936848
2.46384
1.22849
0.80561
2.50869
0.839017
1.6478
0.832993
1.77014
1.23032
0.857038
1.69596
0.830552
1.13814
1.09509
0.912242
1.88636
0.958149
0.852271
1.01555
1.79951
0.911372
1.13094
0.823729
1.94909
1.11269
0.773992
3.1048
0.86583
1.39433
0.813842
1.97503
1.51455
0.856833
1.9159
0.778593
0.847629
0.913447
1.16933
1.38844
0.92159
1.15579
0.861978
1.19126
0.824785
1.13522
0.913108
0.904163
1.08843
0.860034
0.84741
0.969627
0.650382
0.71264
0.746716
0.715949
0.628852
0.69463
0.85276
0.915765
0.838703
0.918426
0.928928
0.816293
1.1044
1.29242
1.15143
0.955582
0.998496
2.83107
3.73597
0.692225
0.908378
1.08011
0.917042
1.35692
0.724798
0.21689
3.03488
2.7891
0.261701
0.689033
0.969076
0.167185
0.80025
0.701819
0.123694
3.88774
4.1981
0.268772
0.231593
0.935852
0.863861
0.855764
0.492588
1.11613
0.679101
0.188093
3.30664
0.283825
0.735521
0.771102
0.201356
0.644472
0.211641
3.63042
0.175121
0.660688
0.978879
0.464926
0.930875
0.726858
0.244307
3.30509
3.53475
0.161509
0.57524
0.884439
0.88146
0.889991
0.497648
1.29179
0.676668
0.23253
3.60366
0.213247
0.650793
1.05694
0.470653
0.571237
0.140174
3.42793
0.191319
0.67325
1.24881
0.502557
0.938959
0.67081
0.24176
3.57523
3.38114
0.290819
0.649395
0.871781
0.866241
0.867964
1.48419
1.19736
0.857635
0.755575
2.75065
1.01065
0.950566
0.991421
0.462716
0.243292
0.427234
3.75415
0.189329
0.695145
1.28943
0.997549
1.1885
0.634508
0.336521
2.6851
2.68088
0.232437
0.771031
0.83118
0.848258
0.900941
0.709099
0.632777
0.338891
0.325096
0.633489
1.63717
1.43402
0.596287
0.455208
2.35564
0.312848
0.573313
1.31392
1.6236
0.562243
0.298169
2.3728
0.421236
0.610485
0.760759
0.77348
0.759228
0.383494
0.940535
0.673396
0.191262
3.30378
0.163323
0.640994
0.64618
0.017686
0.631289
0.105721
3.7927
0.134401
0.716296
0.715357
0.0495144
0.65204
0.639177
0.116157
3.489
3.87383
0.28771
0.583065
0.8911
0.881626
0.887887
0.0989841
0.722061
0.524457
0.295879
4.50921
0.480394
0.573713
1.67126
1.20894
0.637259
0.358505
2.70476
0.372007
0.700204
0.936719
0.208738
2.01424
0.622392
0.263193
4.41454
3.1968
0.363154
0.640172
0.896489
0.905277
0.896368
1.45122
1.72743
0.442857
0.237078
1.91076
0.296148
0.532277
1.32382
1.71198
0.557526
0.22777
1.86178
0.287244
0.434158
1.92337
1.53961
2.04275
0.532455
0.281124
1.88061
1.83236
0.252093
0.520924
0.617956
0.635471
0.636296
1.45157
1.42693
0.682668
0.360135
2.22677
0.483119
0.471299
0.994488
0.443163
0.612168
0.352633
4.10041
0.26651
0.602044
1.53006
1.92727
1.87569
0.346716
0.938739
3.06516
3.79899
0.502539
0.652214
0.840357
0.840754
0.868096
0.210161
0.998285
0.716055
0.161263
3.54249
0.13798
0.628639
1.02723
0.484291
0.630365
0.178756
3.23295
0.176336
0.658794
0.849115
0.12216
0.87468
0.573005
0.384542
3.73128
3.36131
0.114359
0.638284
0.864451
0.86236
0.861188
0.61809
0.0342884
1.0925
0.58811
0.0727786
4.04655
3.96588
0.188636
0.709571
0.412324
0.239626
0.424174
0.562758
0.186955
3.89989
4.001
0.215348
0.542622
1.11314
0.198898
0.646479
0.699609
0.145833
3.89407
3.86625
0.0821258
0.618216
0.950095
0.953709
0.977761
0.291329
1.31016
0.604518
0.131036
2.94792
0.317897
0.670799
1.85665
0.247828
0.810944
0.331837
2.39272
0.143972
0.611658
0.338161
1.48302
0.85987
0.673318
0.701095
2.32841
1.85915
0.903056
0.635915
0.783606
0.823503
0.808209
0.292137
1.21327
0.620627
0.273848
3.77288
0.155264
0.599414
1.12728
1.45454
0.561094
0.912904
1.79903
0.64537
0.61196
1.56155
0.385267
1.38017
0.575965
0.119021
3.64178
2.12827
0.569892
0.769874
0.783586
0.801982
0.757185
0.0959575
0.68726
0.708231
0.212997
4.02895
0.0914403
0.607382
0.813932
0.518761
0.667697
0.163777
3.67453
0.193465
0.703032
0.581606
0.0640641
0.657145
0.57446
0.199558
3.97403
3.81408
0.128587
0.628143
0.956169
0.939563
0.928804
0.134935
0.689866
0.171138
0.181066
0.657804
0.70358
0.00621564
0.52841
0.0656103
3.77002
0.0804699
0.651172
0.129447
0.642476
0.601129
0.0710724
3.77871
0.0940191
0.525843
0.952931
0.94695
0.95144
0.0636163
0.611961
0.131954
0.139445
0.63543
0.134557
0.693603
0.0737132
0.0817296
0.603786
0.236578
0.0853674
0.326524
0.410016
0.929886
0.955976
0.890263
1.01644
1.07625
0.689235
0.189185
0.32336
0.567246
1.37335
0.472822
0.25808
0.197913
0.502705
1.36427
0.587361
0.376161
0.285106
0.430986
0.683382
0.67267
0.681461
1.75568
0.485801
0.2717
0.181064
0.46288
1.28969
0.551146
0.342021
0.17429
0.640968
0.808028
0.57525
0.305217
0.690784
0.510904
0.656348
0.657161
0.637422
0.0968961
0.637232
0.0862055
0.163799
0.645555
0.438534
0.711986
0.16248
0.112348
0.642092
0.542554
0.850363
0.387867
0.111409
0.601583
0.918646
0.957702
0.922903
0.0749005
0.475799
0.135043
0.241439
0.585734
0.0286288
0.617062
0.289469
0.120289
0.464565
0.278144
0.710145
0.130787
0.129487
0.736549
0.884077
0.852862
0.854258
SCALARS Redistribution_Potential float 1
LOOKUP_TABLE default
-9.98261e-08
928.088
-1624.95
368.126
11.1786
667.388
-421.385
262.36
990.023
1230.18
-1393.83
-1119.27
-968.666
-433.226
-60.1449
478.269
142.075
234.151
-311.402
-851.143
-1131.21
-2104.22
650.703
743.075
-1146.3
85.4598
-2556.11
-2352.22
-406.373
-1644.24
594.771
268.934
624.006
492.325
-172.692
-1406.82
-1050.02
-1719.96
-432.482
113.616
479.731
807.006
-284.29
-412.075
-47.5934
-903.081
-868.458
-1094.85
429.471
-62.6366
355.487
-33.4053
48.6677
613.346
263.896
686.859
394.457
783.763
-142.995
-129.995
703.985
279.489
57.6699
-43.7975
250.88
-585.742
-331.443
-75.5888
-460.992
-1333.95
-1175.01
-1234.89
-1016.93
-1713.27
-1761.19
-1652.09
-1521.53
630.239
862.604
657.025
543.451
1081.02
790.161
1053.56
6.11821
494.91
-1181.27
-940.366
38.4951
-406.143
-359.142
-2523.88
-1576.7
-1823.87
-2639.46
-1970.66
-2781.87
-2039.35
-1387.27
-1537.41
46.6947
-516.372
-824.895
-965.075
-418.217
183.737
250.811
814.373
456.9
758.903
498.666
862.711
471.525
255.688
187.195
1042.75
758.155
1070.87
-70.0377
103.927
196.697
-513.606
-62.8899
-453.792
-725.265
-1480.12
-1435.71
-1634.22
-659.24
101.485
-1757.11
-1598.22
-457.001
-1087.46
-883.559
93.8871
423.895
-220.984
-257.602
853.458
469.941
750.755
488.444
927.547
725.952
852.27
1098.96
195.337
759.527
430.956
-2167.29
-1375.98
-1957.53
-1923.93
-2464.63
-2359.89
373.978
-249.477
-19.0325
823.475
704.03
671.112
-80.4445
-95.3793
9.05533
-708.732
-320.639
-589.736
-115.901
-163.743
-221.935
-1009.6
-977.088
-1084.3
-683.113
-871.347
-771.803
-1104.19
-998.272
-979.021
604.845
485.587
577.473
-25.2389
282.859
179.209
23.1467
229.453
-184.621
-791.024
-599.113
-437.056
43.2013
46.7262
-86.3649
-25.5867
35.8547
37.6909
42.6446
675.587
591.165
401.885
514.824
510.518
386.605
84.3251
863.5
810.621
900.326
272.305
602.277
424.481
608.339
676.496
469.094
-31.651
159.541
33.7362
9.3145
-21.7899
3.18121
3.47811
-266.326
-116.639
-268.164
870.69
777.515
285.966
585.885
461.316
568.965
232.102
211.365
215.639
286.449
-204.98
38.4937
-147.51
190.998
169.887
112.991
-100.098
-63.2771
-248.349
-151.48
-99.1375
-433.662
-281.981
-682.995
-403.428
-873.88
163.061
81.1699
-606.76
-188.498
-402.878
-94.2831
-353.054
-1346.45
-1261.5
-1308.28
-1206.06
-1258.51
-1316.95
-1145.24
-1194.74
-1058.34
-751.337
-969.024
-1068.97
-208.357
-1057.1
-520.471
-485.945
-970.301
-1486.57
-1466.75
-1963.83
-1698.25
-1953.46
-1457.1
-1434.35
-1242.09
-1241.56
-1278.83
-1256.25
-1833.09
-1533.75
-1901.94
-1685.03
-1948.85
-1636.99
883.553
930.529
542.719
744.467
759.14
801.336
692.368
690.83
685.244
586.853
639.302
601.562
605.765
490.413
1202.99
1141.29
1190.31
777.835
998.156
894.831
843.083
976.454
730.614
452.618
522.157
551.661
515.389
629.53
-186.318
260.816
284.29
362.465
103.302
-1117.32
-1011.22
-1128.93
-1079.09
-1238.47
-899.312
-697.832
52.5671
-80.4403
-91.5661
-88.3788
-93.0965
8.1188
-721.047
-377.677
-836.412
-629.736
-862.251
-413.955
-1458.76
-1258.97
-2273.03
-1765.35
-1940.38
-1816.32
-2471.43
-1535.22
-1692.32
-2647.61
-2024.31
-2204.55
-1943.42
-2334.79
-1720.63
-1922.8
-1743.91
-2611.97
-2186.1
-2211.16
-2332.6
-2226.67
-2705.79
-3061.99
-3215.29
-3178.77
-1344.6
-1425.3
-1129.9
-1270.24
-1639.77
-1455.54
-1584.34
207.79
80.0991
-417.3
-101.826
-183.448
-189.477
-659.084
-547.676
-559.702
-393.189
-1336.03
-863.826
-1208.3
-469.072
-549.329
-625.706
-1157.59
-985.956
-1380.19
295.95
284.694
187.634
246.55
199.499
248.427
202.281
912.324
830.384
546.417
714.14
670.84
635.541
342.174
929.679
886.529
970.888
384.34
683.142
510.711
701.482
760.141
567.364
166.709
294.256
181.82
438.838
381.292
327.781
479.123
417.324
493.795
-8.49139
217.627
-15.0824
1186.9
1131.92
1197.43
651.116
958.542
793.265
856.033
980.132
722.519
8.68611
98.0536
114.983
-106.841
1.57365
-168.633
281.844
184.49
318.305
393.398
334.712
72.2641
163.141
238.808
-269.498
0.35805
-484.625
-189.169
-773.533
-121.674
-162.02
-1080.48
-536.311
-901.484
-247.108
-374.867
-1552.4
-1526.76
-1604.04
-1286.88
-1453.05
-1381.7
-1600.27
-1548.2
-1465.73
-883.677
-1308.3
-1203.52
127.054
296.332
-832.372
-228.53
-164.653
-102.037
-480.44
-1646.35
-1582.32
-1703.77
-1678.17
-1804.81
-1514.93
-1357.03
-407.797
-576.585
-556.059
-692.988
-619.345
-510.644
-1288.6
-938.953
-1413.08
-1391.7
-1580.74
-1155.57
327.484
419.967
-216.233
105.816
406.564
332.767
342.386
-311.978
-310.543
-68.23
-216.442
-124.333
-374.304
-417.178
965.813
879.371
926.92
519.867
744.985
666.1
464.165
669.162
306.814
-204.058
-5.13097
145.746
475.852
449.331
463.795
497.481
535.928
993.241
951.075
776.58
873.797
824.911
817.245
597.039
1154.49
1207.59
750.833
1004.34
928.629
1027.85
842.685
521.085
662.949
581.016
140.978
338.503
218.46
107.87
78.4965
1124.32
722.077
964.305
953.881
651.809
634.647
225.999
478.809
593.262
555.512
390.187
469.23
224.72
-1734.12
-1887.3
-1766.69
-1989.64
-2296.15
-293.631
-1170.49
-575.777
-658.498
-1403.69
-1305.62
-2175.07
-1650.38
-1382.88
-1469.59
-2206.92
-2091.48
-2408.53
-749.27
-1851.75
-1094.4
-1057.45
-1710.49
-1820.79
-2540.43
-2126.26
-1932.6
-2207.35
-1613.19
-2009.45
-1764.01
-1982.04
-2474.09
-2649.67
-2812.09
-2561.24
839.586
278.982
634.112
641.116
345.361
-296.274
-387.065
-344.365
-208.897
-72.6615
210.96
136.872
171.863
29.9094
-239.253
-52.0544
-242.138
12.8633
1160.46
833.524
1030.04
1011.26
791.037
956.598
638.204
824.862
876.037
768.981
897.102
703.257
814.301
780.312
617.187
613.316
542.15
597.301
SCALARS CoVolArea float 1
LOOKUP_TABLE default
0
0
0
0
0
0
0
0
0
0
0
0
0
0
0
0
0
0
0
0
0
0
0
0
0
0
0
0
0
0
0
0
0
0
0
0
0
0
0
0
0
0
0
0
0
0
0
0
0
0
0
0
0
0
0
0
0
0
0
0
0
0
0
0
0
0
0
0
0
0
0
0
0
0
0
0
0
0
0
0
0
0
0
0
0
0
0
0
0
0
0
0
0
0
0
0
0
0
0
0
0
0
0
0
0
0
0
0
0
0
0
0
0
0
0
0
0
0
0
0
0
0
0
0
0
0
0
0
0
0
0
0
0
0
0
0
0
0
0
0
0
0
0
0
0
0
0
0
0
0
0
0
0
0
0
0
0
0
0
0
0
0
0
0
0
0
0
0
0
0
0
0
0
0
0
0
0
0
0
0
0
0
0
0
0
0
0
0
0
0
0
0
0
0
0
0
0
0
0
0
0
0
0
0
0
0
0
0
0
0
0
0
0
0
0
0
0
0
0
0
0
0
0
0
0
0
0
0
0
0
0
0
0
0
0
0
0
0
0
0
0
0
0
0
0
0
0
0
0
0
0
0
0
0
0
0
0
0
0
0
0
0
0
0
0
0
0
0
0
0
0
0
0
0
0
0
0
0
0
0
0
0
0
0
0
0
0
0
0
0
0
0
0
0
0
0
0
0
0
0
0
0
0
0
0
0
0
0
0
0
0
0
0
0
0
0
0
0
0
0
0
0
0
0
0
0
0
0
0
0
0
0
0
0
0
0
0
0
0
0
0
0
0
0
0
0
0
0
0
0
0
0
0
0
0
0
0
0
0
0
0
0
0
0
0
0
0
0
0
0
0
0
0
0
0
0
0
0
0
0
0
0
0
0
0
0
0
0
0
0
0
0
0
0
0
0
0
0
0
0
0
0
0
0
0
0
0
0
0
0
0
0
0
0
0
0
0
0
0
0
0
0
0
0
0
0
0
0
0
0
0
0
0
0
0
0
0
0
0
0
0
0
0
0
0
0
0
0
0
0
0
0
0
0
0
0
0
0
0
0
0
0
0
0
0
0
0
0
0
0
0
0
0
0
0
0
0
0
0
0
0
0
0
0
0
0
0
0
0
0
0
0
0
0
0
0
0
0
0
0
0
0
0
0
0
0
0
0
0
0
0
0
0
0
0
0
0
0
0
0
0
0
0
0
0
0
0
0
0
0
0
0
0
0
0
0
0
0
0
0
0
0
0
0
0
0
0
0
0
0
0
0
0
0
0
0
0
0
0
0
0
0
0
0
0
0
0
0
0
0
0
0
0
0
0
0
0
0
0
0
0
0
0
0
0
0
0
0
0
0
0
0
0
0
0
0
0
0
0
0
0
0
0
0
0
0
0
0
0
0
0
0
0
0
0
0
0
0
0
0
0
0
0
0
0
0
0
0
0
0
0
0
0
0
0
0
0
0
0
0
0
3.85883
SCALARS SignedDistance float 1
LOOKUP_TABLE default
3.82187
2.76166
2.10337
3.68685
3.6339
3.5554
3.51851
3.4387
3.08715
3.15422
2.64896
2.74548
4.07731
4.4271
3.86089
3.33608
3.42625
3.28491
3.84714
4.36517
4.0744
3.2734
3.66549
2.8538
4.21246
4.54611
2.64073
2.754
4.37005
4.15119
2.83904
3.62119
3.87649
3.9981
3.91853
3.15499
3.76299
3.01948
3.89497
3.95408
3.87819
3.52492
4.06723
4.65733
3.8261
3.26111
4.60604
3.13552
3.57428
4.60649
3.8209
4.40713
3.69797
3.41912
4.17628
2.98898
3.89724
2.87207
4.48419
3.83612
2.89449
3.95858
3.49154
4.20011
3.32755
4.69438
4.06816
3.75025
4.65808
3.0754
4.6351
3.18866
5.36627
2.82603
4.58242
4.57009
2.87372
3.61615
2.75695
3.64016
4.18753
3.03668
3.70966
3.22035
4.73621
3.86736
3.07654
4.57115
3.92458
4.77146
3.84659
4.64071
2.85275
2.70789
4.65368
2.25158
4.1776
2.24823
4.73463
2.96441
3.77718
4.8124
3.68591
4.9156
3.83098
4.21969
3.54323
2.76712
3.68553
3.14877
3.7203
2.97453
3.77152
4.37041
3.72571
3.3918
4.09423
3.35627
3.68324
4.43589
3.80835
4.7224
3.74471
3.67248
4.66439
2.69679
4.38206
2.66444
4.79633
3.74459
2.69041
4.45418
3.60646
4.7424
3.58264
4.44475
3.78337
3.72995
4.49907
3.32618
4.15526
3.34264
4.37789
3.1371
3.99763
3.97827
3.17068
4.57608
4.03858
4.5764
4.05277
5.00149
4.79283
5.12885
4.12177
4.78534
4.1252
4.68724
4.5362
3.81689
3.81174
3.53256
3.90457
3.96172
3.81745
4.82064
4.00862
4.22357
3.73796
4.00752
4.27098
2.96783
3.1605
2.90859
4.4638
3.52628
3.61621
3.31406
3.41463
4.26031
3.53256
3.66451
3.63598
4.15884
3.76235
3.59184
3.99482
3.93968
4.47063
6.16242
5.95339
5.60562
3.79702
3.75986
4.1652
3.83709
3.4801
3.77691
3.9616
3.4734
3.49205
3.74227
3.48253
3.30147
3.60624
4.05679
2.83646
2.92666
2.7959
3.69256
3.16267
3.08652
2.93856
3.01772
3.49704
5.24233
4.98212
5.06458
3.80296
3.82149
3.96782
3.77886
3.6998
3.86015
4.18603
2.80045
2.93464
3.49516
3.04095
2.91203
3.16538
3.6994
3.42928
3.41373
3.37063
4.06521
3.53559
3.49831
3.19115
3.41182
3.7305
5.1803
5.10811
5.34468
3.9797
3.90645
4.30299
4.02281
4.2338
4.02936
4.87346
3.53849
3.59147
4.39632
3.89439
3.8388
3.70482
4.15615
2.83138
3.10057
2.88656
4.21334
3.38339
3.26309
3.49345
3.45003
4.53927
5.73086
6.22938
6.32732
4.02751
4.81425
4.38868
4.37947
4.79918
2.72571
2.97932
3.84683
3.11765
2.6904
3.27739
4.29793
3.03209
2.80328
4.26912
3.29769
2.73469
3.14805
3.85132
6.42513
5.87865
6.40564
2.81651
2.74142
3.48202
2.94275
2.64676
2.83718
3.15795
3.5523
3.51203
3.99803
3.67459
3.67473
3.52882
3.77962
3.08327
3.11643
3.1576
3.21231
3.10358
2.80561
3.32208
3.28383
3.7022
4.8043
4.87193
4.51361
3.77693
3.65379
4.58885
3.98798
4.13523
4.01385
4.59971
2.88043
3.15886
4.25569
3.37625
3.18241
3.50745
4.45192
3.72912
3.83637
3.67143
4.70807
4.1263
4.178
3.92216
4.05962
4.57705
6.04664
5.70879
5.68466
2.92007
2.77683
3.79171
2.97873
2.62193
3.00994
3.84885
2.69915
2.85364
3.82564
2.90542
2.65652
2.93835
3.78582
2.16204
2.33902
2.15576
3.46801
2.3991
1.91097
1.90317
2.38971
3.41504
6.39759
7.84968
7.86991
3.09557
2.80369
4.49016
3.45378
2.95818
3.30197
4.08479
3.55001
3.69078
4.60854
3.94341
4.01057
3.91261
4.62338
3.60445
3.84166
3.62768
4.20192
4.02334
3.71654
4.00743
3.96383
4.67236
6.13873
5.68602
5.71097
3.4222
3.44512
3.77408
3.45047
3.55869
3.59939
3.98117
2.74406
2.83331
3.18821
2.86025
2.64948
2.94466
3.49585
3.09103
3.05232
3.02008
3.67374
3.22427
3.22043
2.74057
3.02926
3.19439
4.99147
4.66133
4.95052
3.70407
3.73381
3.68992
4.11495
3.83478
3.79916
3.70288
3.81121
4.14727
3.22411
3.30891
3.21694
4.03528
3.53339
3.63016
3.55584
3.50604
3.94688
3.63181
3.72262
3.6938
4.14605
3.81194
3.68601
3.89744
3.88841
4.23916
5.07561
5.14306
5.21748
3.75104
3.68844
4.26765
3.84026
3.63736
3.88852
4.37246
3.61212
3.66557
4.24215
3.76923
3.45661
3.77655
4.26352
2.47918
2.68724
2.36646
4.13186
3.11396
3.00386
2.62844
2.66931
3.74852
5.87059
5.9572
6.01432
3.75865
3.69521
4.37282
3.89364
3.68372
3.86623
4.30222
2.3614
2.68811
3.66236
2.6753
2.59352
3.10679
4.12775
3.53623
3.60074
3.54114
4.25879
3.70127
3.60161
3.23468
3.7375
4.17405
5.71658
6.12561
6.02559
3.75113
3.70756
4.17208
3.83174
3.80932
3.86298
4.1562
3.60107
3.65689
4.24989
3.83202
3.7989
3.75465
4.15525
3.16124
3.26295
3.16874
3.9713
3.47898
3.52406
3.56521
3.49747
4.05157
5.40125
5.33075
5.23274
3.75351
4.15103
3.87391
3.86706
4.12791
3.08331
3.19538
3.67596
3.31135
3.22714
3.43662
3.95815
3.22639
3.12835
3.94559
3.45398
3.24926
3.33032
3.65848
5.03621
4.84688
5.00275
3.81032
4.25836
3.9543
4.04227
4.64018
3.27057
3.77526
3.41355
3.51443
4.04873
3.70225
4.47402
3.97485
3.86845
4.12392
5.19817
4.94885
5.64176
2.43042
4.06166
2.67334
2.43737
3.34145
3.76144
4.58069
3.86439
3.74202
4.20706
3.00533
3.79798
3.11952
3.27585
4.25936
6.38914
6.16891
6.05871
3.68087
4.20055
3.56089
3.70441
4.55948
2.46299
3.35595
2.46046
2.65977
4.04394
2.89692
4.52444
3.22432
3.19825
3.66865
6.47988
6.22296
6.30182
3.21967
4.06972
3.47499
3.36452
3.76151
3.74237
4.59073
3.98541
3.89716
4.27593
3.61836
4.1158
3.77626
3.89652
4.53025
5.43103
5.68468
5.24874
3.0904
3.61827
3.19063
3.11753
3.19392
3.04515
3.1721
3.0657
3.16464
3.62706
2.7713
3.16787
2.83153
2.83531
3.18531
4.8591
4.43126
4.41913
