# vtk DataFile Version 4.2
vtk output
ASCII
DATASET POLYDATA
POINTS 2562 float
-0.867118 1.98714 -0.00410932
0.782626 1.96121 -0.004134
-0.898363 -0.0977665 -0.00328753
0.811486 -0.0730436 -0.00337963
-0.00449652 0.14981 0.951242
-0.00442189 1.79562 0.930906
-0.0032775 0.104548 -1.10487
-0.00325898 1.8377 -1.09197
0.952487 0.997085 -0.856974
0.926584 0.997107 0.774748
-1.11263 0.997887 -0.903439
-1.09191 0.99782 0.817248
-1.09199 1.83808 0.584586
-0.855353 1.56057 0.951425
-0.585789 1.96049 0.781386
0.55639 1.96065 0.782803
-0.00658088 1.98783 -0.00657309
0.560511 1.98781 -0.865845
-0.591219 1.9873 -0.864453
-0.902478 1.59635 -1.11342
-1.09196 1.83644 -0.61229
-1.12062 0.999347 0.000431007
0.774574 1.55676 0.926206
0.930905 1.79566 0.549834
-0.854251 0.419194 0.952449
-0.000385935 1.00012 0.952824
-1.10656 0.106641 -0.616597
-1.10566 0.104972 0.588141
0.000511082 1.00099 -1.12062
-0.901398 0.385195 -1.11467
0.931485 1.79419 -0.579987
0.817467 1.59077 -1.09197
0.952161 0.150856 0.552137
0.773697 0.423844 0.927088
0.579314 -0.0730256 0.812237
-0.60722 -0.0730365 0.810836
-0.00572339 -0.101176 -0.00572888
-0.613795 -0.0998592 -0.896046
0.58478 -0.0991843 -0.897549
0.816551 0.391526 -1.09189
0.951699 0.152654 -0.58299
0.952814 0.998687 -0.000632289
-1.05711 1.95698 0.31472
-1.00996 1.95965 0.769969
-0.756539 1.98879 0.463757
-1.05349 1.31414 0.92098
-1.08234 1.79778 0.909887
-1.11753 1.4919 0.729206
-0.313714 1.9439 0.914889
-0.807155 1.91188 0.921688
-0.480438 1.70126 0.9509
-0.295031 1.98854 0.434921
-0.47574 1.98805 -0.00591348
0.302744 1.94394 0.914831
-0.00412226 1.96119 0.783528
0.446551 1.98896 -0.00575628
0.278198 1.98817 0.435561
0.696381 1.98714 0.462515
-0.2949 1.98761 -0.462572
-0.755405 1.98786 -0.488026
0.695241 1.98807 -0.486068
0.277807 1.9891 -0.462954
-0.324428 1.95648 -1.05856
-0.00410376 1.9877 -0.868453
0.314946 1.9565 -1.05885
-1.00917 1.95984 -0.829041
-1.05695 1.95701 -0.324349
-0.508184 1.74373 -1.11904
-0.844321 1.94037 -1.08494
-1.12007 1.49295 -0.789491
-1.08969 1.81842 -1.04149
-1.08152 1.32757 -1.07982
-1.09198 1.83873 -0.00330634
-1.12116 0.996913 -0.51423
-1.12153 1.47236 -0.30976
-1.12158 1.47108 0.294471
-1.12256 0.996952 0.476469
0.889265 1.95669 0.756014
0.914373 1.94509 0.302871
0.4561 1.70282 0.951781
0.752122 1.91271 0.921618
0.952307 1.46218 0.687367
0.921084 1.76282 0.884089
0.913156 1.30284 0.912321
-0.468421 1.28411 0.953506
-0.00583412 1.4607 0.954329
-1.05324 0.679407 0.920956
-0.858118 0.997033 0.951011
-0.0057928 0.515043 0.953525
-0.471969 0.706701 0.95348
-0.481356 0.261063 0.951939
-1.12134 0.509233 0.29762
-1.11956 0.494298 0.728494
-1.11912 0.492543 -0.788129
-1.12127 0.505043 -0.310634
-1.07552 -0.0643369 0.324095
-1.10462 0.103088 -0.0032884
-1.07553 -0.0643549 -0.332454
-0.904687 0.997879 -1.11142
-1.08144 0.667104 -1.07977
-0.00473045 1.48621 -1.12172
-0.494429 1.30168 -1.12117
-0.509453 0.216816 -1.11962
-0.49765 0.690854 -1.12108
-0.0047423 0.488914 -1.12129
0.787639 1.94049 -1.08473
0.48664 1.74553 -1.11984
0.914402 1.94503 -0.313814
0.888641 1.9568 -0.810768
0.921334 1.31401 -1.05101
0.92375 1.77679 -1.00154
0.951262 1.46266 -0.745392
0.920419 -0.0396476 0.310449
0.906079 -0.0649594 0.778869
0.72471 -0.101001 0.482853
0.913157 0.689805 0.912332
0.921179 0.201649 0.883653
0.951037 0.522178 0.68621
0.310276 -0.0378506 0.920916
0.76032 0.00911323 0.923494
0.456282 0.25922 0.952549
0.29087 -0.101212 0.455025
0.466525 -0.100201 -0.0048753
-0.320462 -0.0376167 0.920959
-0.00338783 -0.0730535 0.812586
-0.49425 -0.101247 -0.00502261
-0.305922 -0.101761 0.454414
-0.78601 -0.101306 0.484356
0.290479 -0.100267 -0.480982
0.723253 -0.100317 -0.504587
-0.784722 -0.100311 -0.506898
-0.305771 -0.100792 -0.480511
0.324198 -0.0634536 -1.07761
-0.0032744 -0.0967497 -0.899672
-0.332534 -0.0634733 -1.0776
0.905926 -0.0651004 -0.834606
0.920469 -0.0393817 -0.320552
0.487187 0.214749 -1.11984
0.800564 -0.0287497 -1.08934
0.952164 0.520883 -0.744044
0.923804 0.184989 -1.00091
0.921337 0.679493 -1.05086
0.951838 0.148465 -0.00452797
0.95348 0.996077 -0.488422
0.953384 0.530472 -0.294764
0.953537 0.535171 0.279726
0.95427 0.996087 0.450822
0.438032 0.708359 0.954039
0.775555 0.997093 0.925957
0.437347 1.28021 0.954084
-1.03671 -0.0710438 0.797456
-0.818276 0.00999894 0.923623
-1.0824 0.165881 0.909928
-0.860052 -0.0279763 -1.0895
-1.03588 -0.0711772 -0.857544
-1.08983 0.142574 -1.04092
0.818354 0.997866 -1.09194
0.463893 0.692118 -1.12222
0.463587 1.29817 -1.1222
0.954278 1.44596 0.276613
0.95419 1.44767 -0.293869
0.930496 1.79671 -0.00446137
-0.979349 1.96012 0.154906
-0.939391 1.96335 0.402637
-0.815168 1.98836 0.240769
-1.08453 1.94108 0.706133
-1.03694 1.95821 0.570234
-1.08851 1.92616 0.463592
-0.683627 1.98862 0.648699
-0.897366 1.98548 0.627579
-0.836618 1.96105 0.779404
-1.08804 1.15863 0.896013
-1.09013 1.41732 0.870528
-1.09431 1.25317 0.774029
-1.00225 1.69383 0.923806
-1.06844 1.57672 0.918109
-0.976325 1.45192 0.92393
-1.12009 1.69426 0.670211
-1.09158 1.66096 0.841646
-1.09173 1.83502 0.803807
-0.158487 1.88939 0.923112
-0.408952 1.85721 0.92393
-0.248525 1.7521 0.951442
-0.715033 1.95688 0.889037
-0.575126 1.9308 0.920236
-0.4599 1.95819 0.871824
-0.687713 1.64042 0.951916
-0.651618 1.81996 0.923917
-0.845317 1.77892 0.93871
-1.07988 1.94234 0.886518
-1.00436 1.88717 0.922786
-0.953248 1.95629 0.893007
-0.621465 1.98752 0.230124
-0.687602 1.98725 -0.00507506
-0.442033 1.9882 0.627302
-0.538073 1.98853 0.450505
-0.244418 1.98751 -0.00643586
-0.388356 1.98806 0.223688
-0.149971 1.98902 0.219555
0.149941 1.88961 0.923097
-0.00345033 1.94228 0.915361
0.287128 1.96062 0.784034
0.151606 1.95828 0.871009
0.442557 1.95812 0.87238
-0.159763 1.9583 0.870858
-0.299644 1.96087 0.783368
0.635507 1.98726 -0.00493984
0.578591 1.98799 0.230173
0.742733 1.97672 0.23921
0.136093 1.98868 0.219836
0.365746 1.98732 0.224083
0.227517 1.98902 -0.00633967
0.63823 1.98836 0.649475
0.50598 1.98748 0.451083
0.420319 1.98735 0.628474
-0.155804 1.98726 0.633184
0.144637 1.9889 0.633666
-0.00584613 1.98724 0.435991
-0.620889 1.98793 -0.244319
-0.814479 1.98868 -0.252653
-0.149974 1.98749 -0.236082
-0.388099 1.98838 -0.239444
-0.684042 1.98856 -0.697145
-0.537555 1.98758 -0.477358
-0.442819 1.98791 -0.676128
0.742147 1.97706 -0.250959
0.577909 1.98832 -0.244004
0.420399 1.9872 -0.676963
0.505112 1.98838 -0.477435
0.63762 1.9883 -0.696833
0.365218 1.98763 -0.239565
0.135787 1.98731 -0.236119
-0.16483 1.92455 -1.08897
-0.00279504 1.95631 -1.06173
0.158353 1.92467 -1.08894
-0.302939 1.98722 -0.867722
-0.163087 1.96004 -0.982744
-0.470236 1.96003 -0.984296
0.453075 1.96001 -0.98541
0.155463 1.96002 -0.983073
0.290295 1.98856 -0.86881
-0.00595231 1.98818 -0.464256
0.144862 1.98878 -0.684941
-0.156248 1.98911 -0.684544
-0.938384 1.96364 -0.418432
-0.979037 1.96014 -0.162605
-0.840568 1.98728 -0.857367
-0.896203 1.98654 -0.665272
-1.08856 1.92575 -0.4789
-1.03614 1.95832 -0.59403
-1.08469 1.9407 -0.745339
-0.261474 1.79326 -1.09981
-0.429488 1.896 -1.0906
-0.892063 1.82189 -1.09182
-0.688563 1.86334 -1.0919
-0.728885 1.68131 -1.11956
-0.598709 1.95235 -1.07317
-0.732777 1.95969 -1.00933
-1.11962 1.25528 -0.850201
-1.09196 1.42574 -0.975251
-1.09129 1.16302 -1.01427
-1.09194 1.8346 -0.874515
-1.09777 1.66826 -0.932993
-1.11891 1.6933 -0.715182
-1.01871 1.47733 -1.09107
-1.0883 1.59867 -1.06346
-1.04192 1.73231 -1.08985
-0.968665 1.95921 -1.01519
-1.04221 1.92085 -1.0872
-1.0827 1.945 -0.988401
-1.05534 1.957 -0.00288739
-1.09202 1.83833 -0.312587
-1.08868 1.92564 -0.165718
-1.08866 1.92573 0.15911
-1.09195 1.83915 0.301952
-1.12019 0.997221 -0.718414
-1.12365 1.24569 -0.652922
-1.12077 1.25384 -0.159721
-1.12099 1.24651 -0.417598
-1.12069 0.998446 -0.271978
-1.12204 1.48132 -0.564521
-1.11902 1.67038 -0.462068
-1.11969 1.24538 0.607066
-1.12062 0.997345 0.66728
-1.1198 1.67195 0.441909
-1.12124 1.48088 0.531564
-1.12089 0.997303 0.259643
-1.12165 1.24203 0.396542
-1.12083 1.24979 0.152253
-1.1195 1.67781 -0.162217
-1.12152 1.47523 -0.00473822
-1.11923 1.67821 0.152662
0.841125 1.95977 0.396062
0.869621 1.9584 0.150911
0.768626 1.95992 0.781005
0.809178 1.96016 0.622126
0.92277 1.89324 0.43988
0.903886 1.95267 0.551836
0.921622 1.91291 0.671911
0.236051 1.75267 0.950983
0.392679 1.8581 0.923879
0.772861 1.77725 0.926405
0.615086 1.82158 0.924011
0.640571 1.6413 0.951944
0.550617 1.9312 0.920058
0.675416 1.95677 0.889717
0.945777 1.23867 0.734535
0.923803 1.39527 0.833847
0.92263 1.15092 0.863348
0.926699 1.79097 0.760446
0.924002 1.62373 0.800192
0.951918 1.65299 0.629404
0.866272 1.44208 0.922379
0.91819 1.55303 0.899933
0.884367 1.67879 0.921166
0.862585 1.95492 0.892558
0.888154 1.8792 0.920339
0.920214 1.9164 0.858445
-0.241669 1.58175 0.952471
-0.00533866 1.64024 0.95137
-0.669132 1.41955 0.956863
-0.472477 1.50982 0.955482
-0.00472156 1.24753 0.953083
-0.239417 1.38225 0.953562
-0.244019 1.14825 0.952953
-1.08807 0.836982 0.895931
-1.05622 0.998011 0.920837
-0.857471 0.702047 0.952432
-0.973751 0.839578 0.923979
-0.975446 0.536568 0.923958
-0.97397 1.15502 0.923908
-0.85812 1.28916 0.952025
-0.00550954 0.324442 0.954823
-0.242073 0.384647 0.955141
-0.249685 0.201723 0.950882
-0.248119 0.846345 0.952901
-0.241187 0.601261 0.953217
-0.00327609 0.743126 0.952923
-0.687395 0.330288 0.95228
-0.474678 0.464477 0.954336
-0.669133 0.564511 0.957217
-0.678827 1.14535 0.956578
-0.678667 0.846445 0.956594
-0.477059 0.996088 0.95338
-1.12016 0.746831 0.606719
-1.09446 0.740408 0.77367
-1.12078 0.744992 0.154763
-1.12165 0.74957 0.397702
-1.11938 0.275095 0.669286
-1.12169 0.502366 0.531172
-1.11983 0.297183 0.441793
-1.11987 0.738118 -0.849607
-1.12364 0.746144 -0.652844
-1.11987 0.298646 -0.462575
-1.12173 0.500736 -0.566442
-1.11879 0.275687 -0.71475
-1.12098 0.746895 -0.421961
-1.12072 0.739648 -0.160659
-1.0088 -0.0727422 0.160806
-1.07368 -0.064913 -0.00234797
-1.00857 -0.0727574 -0.166994
-1.10396 0.102884 0.304224
-1.09071 -0.00598597 0.162098
-1.0906 -0.00772737 0.472016
-1.09065 -0.0068748 -0.486954
[...]
POINT_DATA 2562
SCALARS CoVolArea float 1
LOOKUP_TABLE default
0.00853062
0.0068385
0.00897041
0.0068483
0.00830673
0.00713636
0.00880242
0.00741487
0.00845577
0.0068194
0.00905895
0.00688394
0.00817513
0.00970478
0.00845301
0.00763158
0.0144951
0.00953062
0.0105637
0.0103756
0.0091294
0.018911
0.00780045
0.00794728
0.0103988
0.0169163
0.0109118
0.00979062
0.0189123
0.0111316
0.00881376
0.00773272
0.00926291
0.00833925
0.00747879
0.00834068
0.0156922
0.0111214
0.00995978
0.00830457
0.0102878
0.0169184
0.00470524
0.00506778
0.0105604
0.00443799
0.00325355
0.00974532
0.00343416
0.00465501
0.00985323
0.0136884
0.0133286
0.00330169
0.00909505
0.0122667
0.013186
0.00889358
0.0147936
0.0113642
0.00955869
0.0142551
0.0044354
0.0113667
0.0042765
0.0064623
0.00487832
0.010803
0.00420818
0.0117448
0.00474666
0.00458685
0.0098607
0.0140746
0.0144704
0.0142734
0.0125477
0.00322793
0.00321221
0.00915266
0.00370459
0.00896719
0.00359239
0.00317217
0.0143735
0.0113198
0.00454306
0.0112765
0.0125074
0.0144884
0.0108373
0.0155391
0.0102159
0.012264
0.015792
0.00443904
0.0116937
0.00459914
0.0120446
0.00468423
0.0128032
0.0158622
0.0121786
0.0160165
0.013833
0.00318136
0.01001
0.00333711
0.004084
0.00488445
0.00560098
0.0104674
0.00413632
0.00299409
0.00939214
0.00325263
0.00416316
0.00940298
0.0045644
0.00504262
0.0101614
0.0143252
0.0132936
0.00473766
0.0090321
0.0144577
0.0148363
0.0113189
0.0154827
0.0101281
0.0121788
0.016053
0.00438688
0.0119124
0.00454549
0.00390959
0.00429284
0.0113431
0.00414665
0.0108828
0.00653161
0.00500125
0.0110283
0.0127091
0.0142095
0.0140077
0.0110469
0.0124996
0.00908943
0.0124139
0.00444474
0.00636045
0.00388485
0.00559633
0.00595249
0.00575817
0.00906992
0.014135
0.0140185
0.0127539
0.0129053
0.00949606
0.00777563
0.00853684
0.0103878
0.00377064
0.00513845
0.00450741
0.00954631
0.00825588
0.00743278
0.00464779
0.00572046
0.00901151
0.00636471
0.00376431
0.00724303
0.00925517
0.00630291
0.00592877
0.00600561
0.00704201
0.00913634
0.00443385
0.00399734
0.00482873
0.00981567
0.0077624
0.00795379
0.00220024
0.00424788
0.00353912
0.0124282
0.0118798
0.0114603
0.0120608
0.0136405
0.0133778
0.0146353
0.00591231
0.0032745
0.0087732
0.00503784
0.00451535
0.00512319
0.00907861
0.0102305
0.0109825
0.00849758
0.0143953
0.0126036
0.0131982
0.00827522
0.0109515
0.010752
0.0129138
0.0127158
0.0151028
0.0128086
0.0106678
0.0151038
0.0137956
0.0110888
0.0130196
0.0132592
0.00873149
0.0113024
0.0124339
0.0118099
0.00957202
0.0129992
0.0148472
0.00525532
0.00448623
0.00517461
0.0113241
0.00783105
0.00750836
0.00703993
0.00771364
0.010939
0.0163518
0.0147165
0.0149725
0.00900842
0.0078945
0.00941915
0.00943681
0.00481934
0.00570108
0.00453501
0.00968478
0.00658909
0.00799245
0.00761352
0.010852
0.0041296
0.00706152
0.0113264
0.00875023
0.00763012
0.00779517
0.00888876
0.0108072
0.00682027
0.00486319
0.00568472
0.00543098
0.00325202
0.00355814
0.00468133
0.00987281
0.00505551
0.00497525
0.00952849
0.0125739
0.012884
0.0171675
0.0154466
0.0167434
0.0131463
0.0129243
0.0119631
0.0110827
0.0121587
0.0120728
0.0150367
0.0136008
0.0170576
0.014468
0.01585
0.0142589
0.00607484
0.00523603
0.00583917
0.00625502
0.00516218
0.00322747
0.0042861
0.00888863
0.00665775
0.00627668
0.00680377
0.00850144
0.0036112
0.00375148
0.00849285
0.00626013
0.00542697
0.00629378
0.00656839
0.0085082
0.00475757
0.00335692
0.00406668
0.00230762
0.00274484
0.00272375
0.0109269
0.0103187
0.0118936
0.011292
0.0137633
0.0126229
0.0161485
0.00469172
0.00464587
0.0112053
0.00791561
0.00756045
0.00783607
0.0109594
0.0108592
0.0114364
0.0103638
0.0165892
0.0138274
0.0147528
0.0106696
0.0123032
0.0122305
0.0135753
0.0136899
0.0157105
0.012153
0.00916018
0.0177503
0.013615
0.0102828
0.0125491
0.0132909
0.0115193
0.0130213
0.0140133
0.0138353
0.0119458
0.0156193
0.01822
0.00760218
0.00438697
0.0077111
0.0113176
0.00696689
0.00629055
0.00672036
0.00707479
0.0116952
0.0171527
0.0156035
0.0154056
0.00449793
0.00770383
0.011749
0.00744864
0.00712165
0.00752099
0.0119972
0.0114795
0.0124692
0.0181013
0.0140397
0.0153945
0.0128148
0.0136092
0.0113221
0.0129883
0.0124975
0.0140568
0.0137228
0.011934
0.0165134
0.0154149
0.018495
0.0155598
0.017352
0.0156873
0.00622799
0.00944143
0.00592926
0.00371608
0.00925868
0.00659243
0.00586777
0.00532067
0.00642721
0.00504316
0.00358232
0.00552324
0.00714224
0.00748294
0.00795021
0.00864833
0.0103356
0.00371553
0.0054771
0.00413666
0.0097432
0.00851179
0.0078555
0.00361787
0.0040797
0.00235686
0.00473562
0.00568702
0.00884337
0.00583778
0.00351763
0.0068667
0.00873965
0.00608145
0.00549357
0.00548403
0.00649222
0.00864559
0.00452022
0.00358881
0.00497013
0.00936035
0.00716007
0.00737918
0.00756799
0.0083081
0.0100892
0.00350244
0.00501477
0.00411527
0.00930893
0.00804268
0.00732667
0.00369292
0.00358362
0.00208505
0.0118274
0.0108961
0.0115103
0.0118686
0.0143315
0.0136953
0.0156265
0.00768548
0.00454328
0.00902492
0.0046124
0.00440037
0.00453913
0.00871119
0.0127888
0.01345
0.0110508
0.0158836
0.0145308
0.0147917
0.0101825
0.013086
0.0122574
0.0135864
0.0138011
0.0163531
0.012171
0.00907663
0.0161096
0.0141095
0.0102259
0.0127935
0.0134227
0.0113365
0.0138509
0.0143078
0.0141214
0.0119206
0.0149555
0.0163641
0.00724682
0.00440876
0.00735123
0.0114964
0.00750883
0.00679095
0.00725608
0.00762769
0.011876
0.0177299
0.0161154
0.0158674
0.00601472
0.00480954
0.00743159
0.00699899
0.00732841
0.00390788
0.00692499
0.011044
0.00822767
0.00699982
0.00830563
0.0102608
0.00447404
0.00545849
0.0105066
0.00895526
0.00803054
0.00920668
0.0092947
0.0106731
0.00431505
0.0058565
0.00418148
0.00302462
0.00328754
0.00546905
0.00436737
0.0110155
0.00764628
0.00752579
0.0106507
0.0108788
0.0115229
0.0163579
0.0139895
0.015016
0.0124392
0.0122052
0.0107206
0.0100161
0.0116819
0.0109171
0.0134478
0.0122175
0.0158584
0.0136685
0.0154352
0.0134894
0.0112569
0.0111318
0.0112994
0.013578
0.0149947
0.00312031
0.00881611
0.00525621
0.00531865
0.00901795
0.0106657
0.0149496
0.0125446
0.0106333
0.0106936
0.0125481
0.0124248
0.0137532
0.00856991
0.0071638
0.00842982
0.00473586
0.00509468
0.00877277
0.00921719
0.00916089
0.00556183
0.00418779
0.00592912
0.00720895
0.00692253
0.00402534
0.00711026
0.0033859
0.00551081
0.00281592
0.00868919
0.00663126
0.00498151
0.00960007
0.00957347
0.00904928
0.00617237
0.0052669
0.00972747
0.00966691
0.00906351
0.00648163
0.0051999
0.00974354
0.00944527
0.00473254
0.00441651
0.00444409
0.00482756
0.00902766
0.00450342
0.00445551
0.00883202
0.0127427
0.0167892
0.0151535
0.0127894
0.0124264
0.0121567
0.0119265
0.0121158
0.0139784
0.0167448
0.0139639
0.0155299
0.0138311
0.0105374
0.0152757
0.0122094
0.0105359
0.010847
0.0114189
0.0114864
0.0117227
0.0138341
0.0153432
0.00325476
0.00914343
0.00574338
0.00583996
0.00946405
0.0141611
0.01288
0.012688
0.00913152
0.00936473
0.0102935
0.0067874
0.00818228
0.00623714
0.0104311
0.00953822
0.00975115
0.00594483
0.00400576
0.00603283
0.00506321
0.00355536
0.00359572
0.00375684
0.00375446
0.00502528
0.0088216
0.00828956
0.00820245
0.00956713
0.00891611
0.0100964
0.00631147
0.00750508
0.00657081
0.0071663
0.00717649
0.00876947
0.00651828
0.00705675
0.00867345
0.00407348
0.00515598
0.00367463
0.00930186
0.00744393
0.00806652
0.00845669
0.00661111
0.00827618
0.00337533
0.0044907
0.00414339
0.00575599
0.0052702
0.00419884
0.00854106
0.00744971
0.00730406
0.00830976
0.00799117
0.00958136
0.00418745
0.00595141
0.00424766
0.00431227
0.00444149
0.00633095
0.00737068
0.00787472
0.00880829
0.00504948
0.00650231
0.00442374
0.00942604
0.00824301
0.00871884
0.00673634
0.00446476
0.00637293
0.0041956
0.00324921
0.00341353
0.00354113
0.00347242
0.00376706
0.00948039
0.00865517
0.00911275
0.00900131
0.00889041
0.0098172
0.00640006
0.00751921
0.00605724
0.00567335
0.00610247
0.00770677
0.00546021
0.00278667
0.00388748
0.00325486
0.00335671
0.00823727
0.00494451
0.00666967
0.00579066
0.00356355
0.00682251
0.00465528
0.0058097
0.00430127
0.00364354
0.00242714
0.00312817
0.00261623
0.0112553
0.0110292
0.0116105
0.0113526
0.0125617
0.0120765
0.0130096
0.0102208
0.0100773
0.012299
0.0112009
0.0125556
0.0108044
0.0114767
0.0136196
0.0135426
0.0148462
0.0134748
0.0134694
0.0134503
0.0141529
0.0132582
0.0129816
0.0127165
0.0131498
0.0133956
0.00731873
0.00572232
0.00318892
0.00417312
0.00430948
0.00420669
0.0032459
0.00847607
0.00620936
0.00586467
0.00659205
0.00640956
0.00888342
0.00335834
0.00477969
0.00355464
0.00651984
0.009018
0.00365155
0.00496226
0.00901344
0.00657598
0.00664323
0.00379016
0.00522559
0.00382245
0.00926336
0.00950256
0.00835527
0.0117401
0.0105301
0.0111683
0.00868401
0.00966003
0.0100114
0.0147394
0.0132
0.0133985
0.0123642
0.0127863
0.0137765
0.0127394
0.0128852
0.0125566
0.00778181
0.00910402
0.00943198
0.0100294
0.00960705
0.00860463
0.0119558
0.0103364
0.0115441
0.0122455
0.0121714
0.0113857
0.0114866
0.0115919
0.0114135
0.0126839
0.0141881
0.0109491
0.0138195
0.0122361
0.0111522
0.0115084
0.016023
0.0151726
0.0155668
0.0154333
0.0149151
0.0132454
0.0144716
0.0145782
0.0114095
0.0104109
0.013197
0.0122497
0.0109286
0.0116959
0.0121956
0.0150794
0.0137302
0.0136771
0.0136674
0.0149047
0.0136615
0.0136735
0.0105251
0.0116862
0.0121738
0.0123764
0.0120639
0.0112578
0.0140104
0.0125073
0.0132963
0.0138034
0.0138334
0.0133678
0.00845629
0.00963488
0.0105041
0.00994291
0.00908761
0.0106785
0.0119118
0.0112166
0.0105439
0.00927178
0.01247
0.0115244
0.013334
0.00957046
0.0107069
0.0108015
0.0133928
0.0149549
0.0127431
0.0130711
0.014511
0.0131861
0.0130181
0.0119446
0.0128074
0.0126175
0.0071791
0.00490702
0.00713194
0.00446727
0.0037554
0.00401387
0.00390911
0.0037253
0.00439573
0.0112448
0.00901704
0.00882808
0.0091633
0.00906165
0.0112636
0.00575401
0.00763638
0.00606986
0.00813433
0.00860871
0.0105702
0.0059242
0.00737486
0.00547735
0.0110852
0.00884224
0.00909557
0.00636205
0.00799499
0.00631448
0.0165309
0.0161381
0.0162483
0.0163893
0.0164173
0.0130147
0.0137239
0.0132644
0.0141376
0.0154257
0.0136545
0.0158448
0.0146687
0.0136095
0.0138311
0.0161807
0.0153514
0.0163146
0.00956294
0.00919418
0.0104082
0.00990639
0.00639216
0.00843957
0.00710016
0.0103064
0.00992335
0.0078863
0.00902042
0.00810084
0.0103078
0.0105704
0.0065856
0.00449737
0.00689003
0.00535168
0.00409744
0.00395289
0.00449966
0.00410086
0.00595953
0.00956376
0.00808895
0.00771869
0.00930655
0.00775561
0.00908299
0.00827327
0.0101217
0.00587336
0.00452418
0.00957434
0.00925859
0.0103691
0.00546737
0.00756398
0.0057917
0.0108739
0.00947129
0.00951468
0.00705664
0.00934764
0.0043438
0.00542784
0.00469171
0.00483204
0.00402441
0.00742123
0.00539626
0.00500047
0.0110936
0.00985996
0.00945817
0.0106315
0.0101243
0.0114984
0.00560931
0.00813139
0.00633337
0.0087453
0.00912456
0.00978101
0.00663556
0.00805991
0.00635947
0.0113395
0.00997521
0.0106275
0.00845411
0.00608962
0.0085092
0.00481481
0.00474914
0.00505478
0.00393774
0.00415378
0.0047827
0.00932301
0.0071391
0.00693219
0.00952031
0.00446037
0.00674663
0.00816918
0.00662653
0.00798186
0.00339822
0.00484437
0.00588671
0.00415747
0.00687072
0.00480694
0.00445953
0.00569674
0.0042594
0.0033637
0.00273776
0.00404691
0.00761971
0.0046569
0.00612919
0.00608341
0.00458581
0.00983534
0.00680056
0.00691922
0.00686843
0.00977935
0.00491745
0.0039511
0.00647587
0.0092273
0.00385495
0.00474338
0.00963002
0.00669689
0.00686633
0.00413173
0.00515956
0.00410129
0.0119425
0.0122005
0.0134176
0.0125174
0.0127352
0.012265
0.0125629
0.0187521
0.0168198
0.0178019
0.0145161
0.0155854
0.0155088
0.0152449
0.0159318
0.0149278
0.0114272
0.0114317
0.0125542
0.0120973
0.0136547
0.0124015
0.0132919
0.0145075
0.0146427
0.013581
0.0102453
0.00978328
0.0110763
0.0105694
0.011974
0.0114798
0.0123599
0.0105356
0.0102878
0.0126728
0.0115766
0.0132101
0.010799
0.0111795
0.0165584
0.0157412
0.0184533
0.012966
0.0142345
0.0134234
0.0154097
0.01476
0.0137954
0.0123897
0.0130846
0.0128089
0.0128491
0.0153492
0.0142405
0.0127308
0.0129077
0.0189065
0.0158032
0.0169885
0.016965
0.0159343
0.0122443
0.0128137
0.0124213
0.0137625
0.0150485
0.0157701
0.0156733
0.0148302
0.00710939
0.00675987
0.00779088
0.00741664
0.00376104
0.00565913
0.00423235
0.00699178
0.0069503
0.00453734
0.00583499
0.0044997
0.00738258
0.00775741
0.00634718
0.00456671
0.00640838
0.00331212
0.00352164
0.00383314
0.00282973
0.0029868
0.00314791
0.00645521
0.00475262
0.00459324
0.00870421
0.00770227
0.00816285
0.00791474
0.00898889
0.00629203
0.00481532
0.00729587
0.0072462
0.00797187
0.00510504
0.00626241
0.00503981
0.00884987
0.00772251
0.00813681
0.00400158
0.00589883
0.00352768
0.00318106
0.00278118
0.00283625
0.00359965
0.00704928
0.00543216
0.00525501
0.00832624
0.00722098
0.00684708
0.00788261
0.00752224
0.00869573
0.00392957
0.00585129
0.00443079
0.00735874
0.00725029
0.00803125
0.00491403
0.00620221
0.00496419
0.00875558
0.00763529
0.00792401
0.00605532
0.00424168
0.00619121
0.00332497
0.00327292
0.00351163
0.00287588
0.00287884
0.00339586
0.00668252
0.00508345
0.0048336
0.00556342
0.00263116
0.00332991
0.00427425
0.00302002
0.00600729
0.00276623
0.00374375
0.00483172
0.00355847
0.0061571
0.00256944
0.00385193
0.00487492
0.00351771
0.00194003
0.0020221
0.00179656
0.00987833
0.00949676
0.0106118
0.0101765
0.0105315
0.0105443
0.0110041
0.0112012
0.010494
0.0123065
0.0111859
0.0128025
0.0106229
0.01072
0.0149307
0.0143816
0.017109
0.0119942
0.0131075
0.0124538
0.0152311
0.0137288
0.0132179
0.0113349
0.0121833
0.0116992
0.00654311
0.0043595
0.00459415
0.00353726
0.00373867
0.00351836
0.00454824
0.0111137
0.00894351
0.00873302
0.00911484
0.00899974
0.0111506
0.00594761
0.00770832
0.00627425
0.0086738
0.0106547
0.0061778
0.00753224
0.0110387
0.00885304
0.0090661
0.00657082
0.0080967
0.0065416
0.0106402
0.0108429
0.0101337
0.0119212
0.0109394
0.0111353
0.0105549
0.010946
0.0112029
0.0176745
0.0153871
0.0157915
0.0140607
0.0145338
0.0153466
0.0135038
0.014134
0.013178
0.010216
0.0109723
0.0117486
0.011326
0.0112873
0.0107533
0.0130439
0.0117881
0.0131776
0.0128473
0.0134972
0.0121475
0.0127537
0.0132843
0.0129077
0.0132078
0.01449
0.0131366
0.014504
0.01342
0.0131051
0.0133441
0.0182455
0.0158824
0.0168224
0.0167955
0.0157791
0.0140781
0.0148874
0.0148483
0.0103309
0.00873454
0.0124412
0.0115694
0.00956995
0.0107523
0.0114077
0.0187582
0.0157776
0.0143035
0.0150011
0.0167229
0.0142191
0.0130295
0.00982757
0.0113602
0.0120167
0.0117121
0.0115648
0.0103143
0.0140288
0.0122513
0.0132771
0.0129697
0.0133204
0.0127338
0.0111761
0.0122952
0.0128661
0.0124656
0.011834
0.0126008
0.0134681
0.0130441
0.0124977
0.0112466
0.0143969
0.0131278
0.0144241
0.012132
0.012831
0.0130505
0.0172642
0.0193783
0.014851
0.0160192
0.0169457
0.0163485
0.015667
0.0138446
0.0151404
0.0144713
0.00940701
0.00743463
0.00946835
0.0042909
0.00543044
0.00561762
0.00575235
0.00546909
0.00435637
0.0109467
0.00836255
0.00787421
0.00881608
0.00859554
0.011431
0.00468175
0.00664254
0.00494533
0.00858398
0.00876995
0.0116517
0.00506716
0.00688095
0.00491899
0.0115944
0.00880412
0.00888031
0.00524162
0.00721011
0.00528056
0.0199059
0.0172247
0.0184053
0.0184985
0.0173127
0.0146023
0.0146872
0.0144766
0.0153654
0.0161044
0.0139473
0.0159747
0.014964
0.014167
0.014588
0.0165263
0.015997
0.0164441
0.00741445
0.00949972
0.00442058
0.00538753
0.00569356
0.00541334
0.0044588
0.0114463
0.00888271
0.00927064
0.00907117
0.0118061
0.00714229
0.00533808
0.00895134
0.00916633
0.0119275
0.00541087
0.00730216
0.00520599
0.0119205
0.00921195
0.00931595
0.00561819
0.00767979
0.0056416
0.0102832
0.0108093
0.0126238
0.0119183
0.0121664
0.0112157
0.0118746
0.0191199
0.0161091
0.0167106
0.0146971
0.015376
0.0170396
0.0138428
0.0146248
0.0134005
0.0118236
0.0124606
0.0121553
0.012018
0.0143157
0.0125972
0.0136332
0.013243
0.0136456
0.0130104
0.0109377
0.0121462
0.0117189
0.0128539
0.0123868
0.0116706
0.0126246
0.0125878
0.0132973
0.0131494
0.0125086
0.0113203
0.0145583
0.0131965
0.01459
0.0120714
0.0127437
0.0129983
0.0176768
0.0171881
0.0197073
0.0146206
0.0157838
0.0150636
0.0171124
0.0162426
0.0157007
0.0137127
0.0149963
0.0142537
0.0143123
0.0161635
0.015171
0.0144574
0.0148417
0.0203526
0.0174222
0.0187048
0.0187845
0.0175534
0.0147276
0.01491
0.0146604
0.0153997
0.0162013
0.0165779
0.0166262
0.0161206
0.00759747
0.00920552
0.00431365
0.00568516
0.00967047
0.00795511
0.0084995
0.00817162
0.00633194
0.00339357
0.0042083
0.00376907
0.00498573
0.00407356
0.00837422
0.00739584
0.00704963
0.0085693
0.00808515
0.00969702
0.0042746
0.00605377
0.00446629
0.00462374
0.00476424
0.00677991
0.00680825
0.00726775
0.00443845
0.0058496
0.00386071
0.00771391
0.0083034
0.0073073
0.00508815
0.00690368
0.00368867
0.00341053
0.00345991
0.0040395
0.00383807
0.00353513
0.00834041
0.00881931
0.00855462
0.00849697
0.00576636
0.00704717
0.00541102
0.00496411
0.00536014
0.00705147
0.00912349
0.00941546
0.0102334
0.00700568
0.0083361
0.00646848
0.0103213
0.00958319
0.00983537
0.00557503
0.0037902
0.00552004
0.00546957
0.00377412
0.00397301
0.00367843
0.00382805
0.00527063
0.00909988
0.00858252
0.00857441
0.00973358
0.00916571
0.0101304
0.00680551
0.00784236
0.00695261
0.00742057
0.00749625
0.00894355
0.00774409
0.0043091
0.00601164
0.00518197
0.00309196
0.00747056
0.00535129
0.00648017
0.00491238
0.00358353
0.00527768
0.00271051
0.00389639
0.00338445
0.00389728
0.00295914
0.00303107
0.00220497
0.00655131
0.00702047
0.00857735
0.0039922
0.00519038
0.00364126
0.00905472
0.00733905
0.00786917
0.00797572
0.0061869
0.00792027
0.00317427
0.0040982
0.00370546
0.00535117
0.00485923
0.00390671
0.007971
0.00695625
0.00671996
0.00800068
0.00757105
0.00913544
0.00393631
0.00561336
0.00408964
0.00424478
0.00435206
0.00622357
0.00687835
0.00732832
0.00839028
0.00456958
0.00597882
0.00400034
0.00894606
0.00771931
0.00821842
0.0067434
0.00455467
0.00639755
0.00375243
0.00313833
0.00326792
0.00363316
0.00346056
0.00346755
0.00902494
0.00815523
0.00859959
0.0084485
0.00837614
0.00937955
0.00580974
0.00699622
0.00549487
0.00507874
0.00548431
0.00707233
0.00889775
0.00909574
0.0100184
0.00661677
0.00795062
0.00608153
0.0100878
0.00925947
0.00949132
0.00541158
0.00368113
0.00545311
0.0049764
0.00343824
0.00353491
0.00352872
0.00357509
0.00488682
0.00863223
0.00810021
0.00805955
0.00931168
0.00869549
0.00974293
0.0062573
0.0073685
0.00644779
0.00698256
0.00698777
0.0085308
0.00762848
0.00437385
0.0060299
0.00518815
0.0030989
0.00683883
0.00473086
0.00585457
0.00438331
0.0034053
0.00501421
0.00253641
0.003606
0.00307744
0.00337922
0.00282642
0.00261339
0.00213076
0.0100627
0.00965426
0.0107102
0.0103039
0.0120487
0.0112904
0.0127009
0.00980102
0.00970814
0.012545
0.0111587
0.0129269
0.0103088
0.0107665
0.0145459
0.0143368
0.0159835
0.0136291
0.0139906
0.0138259
0.0149816
0.0138945
0.013447
0.0123036
0.0132196
0.0132755
0.00895883
0.00743135
0.00452258
0.00598234
0.00623672
0.0059358
0.00444869
0.00897161
0.00615104
0.00594993
0.00628126
0.00622927
0.00895728
0.00371511
0.00448113
0.00370086
0.0058545
0.0084146
0.00360689
0.0043208
0.00881759
0.006073
0.00623322
0.00387314
0.00471043
0.00384257
0.0117524
0.0120577
0.0109057
0.0141017
0.0130301
0.0135871
0.011134
0.0122108
0.0125471
0.0161069
0.0146821
0.0147554
0.0141146
0.0143885
0.0153603
0.0145885
0.0146101
0.0146276
0.0091103
0.010784
0.0106372
0.0124159
0.0116583
0.0108171
0.0135585
0.0121075
0.0133577
0.0145346
0.0142845
0.0137898
0.0114102
0.0119678
0.0115914
0.0130935
0.0149279
0.0119587
0.0153028
0.0135596
0.0118788
0.0120583
0.017386
0.0161684
0.0167497
0.0168862
0.0164286
0.0141535
0.0157242
0.0156071
0.010194
0.00867776
0.0128763
0.0114426
0.0094804
0.0105955
0.0112468
0.01622
0.0145355
0.0141434
0.0143096
0.015751
0.0141817
0.0138198
0.009827
0.0113531
0.0119729
0.0116131
0.0115436
0.0102163
0.0144724
0.0125035
0.0135425
0.013656
0.0138847
0.0129115
0.0110263
0.0122095
0.0131518
0.0125532
0.0116512
0.0132089
0.0142987
0.0130018
0.0125995
0.011218
0.014434
0.0135714
0.0151827
0.0121121
0.0130734
0.0133815
0.0148961
0.0163254
0.0148186
0.0148195
0.0161568
0.0148287
0.0148389
0.0144809
0.0150086
0.0149675
0.00909476
0.00702584
0.00915401
0.00431243
0.00504982
0.00523339
0.00536049