# vtk DataFile Version 4.2
vtk output
ASCII
DATASET POLYDATA
POINTS 642 float
-0.229505 1.63629 -0.0211498
0.602512 2.08359 -0.0152655
-1.07888 -0.070721 -0.0185864
0.188763 0.423363 -0.017588
-0.211554 0.547665 0.412503
-0.0183517 1.6294 0.428564
-0.236548 0.515859 -0.541359
-0.00338464 1.65245 -0.525784
0.831504 1.27376 -0.488023
0.813107 1.26554 0.429905
-1.22679 0.911425 -0.510568
-1.18607 0.917876 0.423122
-0.776646 1.15316 0.190089
-0.58349 1.18965 0.40532
-0.14217 1.72908 0.305795
0.324653 2.02269 0.440194
0.0709259 2.1029 -0.0185226
0.34085 2.0666 -0.517528
-0.138492 1.73835 -0.36262
-0.594646 1.18638 -0.486608
-0.783396 1.15213 -0.240651
-1.43969 0.929936 -0.0179327
0.424734 1.48326 0.413154
1.06258 1.86144 0.418265
-0.746732 0.694504 0.403522
-0.142488 1.07786 0.406673
-1.45626 0.284023 -0.448562
-1.43768 0.311582 0.424868
-0.139751 1.06686 -0.54432
-0.808366 0.64094 -0.546441
1.0843 1.87796 -0.434422
0.472747 1.51724 -0.535085
0.553285 0.771348 0.24458
0.324562 0.868687 0.420252
0.0407195 0.338991 0.385733
-0.647758 0.112598 0.430988
-0.358047 0.108108 -0.0193451
-0.675133 0.0657075 -0.525896
0.0368859 0.328037 -0.440577
0.338627 0.859604 -0.539295
0.555209 0.771433 -0.286193
0.900994 1.31257 -0.0161654
-0.378341 1.4606 0.0463718
-0.347482 1.47772 0.217088
-0.196978 1.67925 0.0973768
-1.00667 0.985319 0.416151
-0.706272 1.17008 0.322798
-1.10416 1.01058 0.360784
-0.0765586 1.69595 0.428919
-0.284109 1.50814 0.366183
-0.18771 1.5008 0.434325
-0.0358684 1.92131 0.182775
-0.112715 1.79968 -0.0203181
0.0910557 1.75872 0.428011
0.00726366 1.91978 0.409574
0.370631 2.13197 -0.0162353
0.186991 2.18891 0.234814
0.510637 2.09079 0.186084
-0.0319461 1.93028 -0.225748
-0.196755 1.68149 -0.14148
0.514273 2.09127 -0.220971
0.190008 2.1894 -0.269116
-0.0695824 1.71635 -0.506567
0.00996808 1.94843 -0.47329
0.111349 1.79502 -0.529297
-0.349118 1.47889 -0.270209
-0.379113 1.46074 -0.0906599
-0.181956 1.5106 -0.51664
-0.28364 1.51341 -0.434225
-1.12234 1.00611 -0.421913
-0.714369 1.16818 -0.389883
-1.0335 0.983523 -0.504956
-0.808785 1.14727 -0.0209436
-1.3881 0.957839 -0.409253
-1.16145 1.01064 -0.178636
-1.15318 1.01236 0.138482
-1.35591 0.961146 0.374362
0.648909 2.01627 0.434911
0.770214 2.04371 0.118554
0.125221 1.5973 0.419754
0.378463 1.76105 0.418269
0.891713 1.42974 0.421963
0.694529 1.62861 0.419248
0.708623 1.34216 0.425635
-0.374428 1.16521 0.424872
-0.064081 1.44805 0.424859
-1.06296 0.835692 0.419325
-0.73415 0.947172 0.424158
-0.191626 0.725399 0.405905
-0.429967 0.852985 0.407027
-0.395533 0.584391 0.404804
-1.4751 0.63721 0.198528
-1.28367 0.751021 0.410802
-1.35135 0.718428 -0.524076
-1.46761 0.629346 -0.233809
-1.2707 -0.1057 0.14741
-1.47545 0.197321 -0.0175283
-1.28435 -0.109164 -0.18317
-0.770701 0.922849 -0.535562
-1.11659 0.807066 -0.534135
-0.048954 1.45945 -0.528477
-0.379893 1.1552 -0.532568
-0.440676 0.538379 -0.544964
-0.460516 0.819507 -0.549067
-0.208137 0.698346 -0.548874
0.421593 1.81012 -0.536283
0.154322 1.62907 -0.536707
0.774796 2.04165 -0.14988
0.683625 2.04942 -0.497043
0.739668 1.36011 -0.516659
0.744951 1.67101 -0.530515
0.916768 1.44224 -0.479599
0.321415 0.52808 0.0783215
0.296808 0.518041 0.307665
0.134438 0.391264 0.138764
0.656305 1.12438 0.432205
0.49764 0.788435 0.425505
0.738734 1.08584 0.37797
-0.122299 0.455246 0.422209
0.165683 0.558167 0.429855
-0.0312674 0.643575 0.415062
-0.134947 0.204411 0.218868
0.0202104 0.297108 -0.0180587
-0.351083 0.402566 0.413505
-0.265893 0.227468 0.421596
-0.804177 -0.0558727 -0.019137
-0.545625 0.0557762 0.246212
-0.944198 -0.0567468 0.212225
-0.142616 0.197296 -0.26084
0.133479 0.38943 -0.177471
-0.95875 -0.0654612 -0.254965
-0.557557 0.046899 -0.292457
-0.139152 0.429251 -0.530522
-0.288231 0.195567 -0.497382
-0.391864 0.360197 -0.534022
0.299218 0.517271 -0.356052
0.321983 0.527959 -0.114574
-0.0360858 0.62433 -0.54299
0.173191 0.543204 -0.521412
0.745663 1.08921 -0.428418
0.51396 0.778172 -0.495957
0.673499 1.12537 -0.513429
0.558175 0.768778 -0.0171581
0.881847 1.29202 -0.358873
0.758 1.06619 -0.180992
0.756346 1.06563 0.145461
0.878447 1.28527 0.316714
0.0917246 0.966578 0.404059
0.428652 1.20302 0.414947
0.149363 1.32615 0.408243
-1.02976 0.113609 0.417486
-0.708948 0.394298 0.4048
-1.05737 0.536073 0.408195
-0.774097 0.324962 -0.538545
-1.09248 0.0181534 -0.578333
-1.13657 0.466841 -0.537025
0.460529 1.20959 -0.536195
0.10405 0.956379 -0.54555
0.176818 1.338 -0.538255
1.00556 1.55369 0.168758
1.01009 1.56086 -0.20298
1.08395 1.90487 -0.016061
-0.262119 1.59252 -0.000630226
-0.259923 1.59311 0.0630136
-0.219792 1.64926 0.0145489
-0.541738 1.29831 0.198205
-0.367943 1.46631 0.128388
-0.56325 1.28748 0.112532
-0.168832 1.71014 0.202887
-0.246864 1.60245 0.156181
-0.223305 1.61902 0.255112
-1.14179 0.937256 0.431261
-1.07133 1.00675 0.404318
-1.17655 0.954088 0.419246
-0.656709 1.17938 0.366574
-0.884031 1.06156 0.373377
-0.815086 1.07424 0.420439
-0.959723 1.06307 0.273606
-0.924324 1.06081 0.334112
-0.743881 1.16016 0.267109
-0.0370575 1.6534 0.429835
-0.107763 1.6204 0.428963
-0.0629955 1.60106 0.429846
-0.195224 1.63512 0.342163
-0.162723 1.64043 0.409194
-0.116272 1.72706 0.386593
-0.371425 1.35165 0.428831
-0.24233 1.5129 0.414451
-0.433457 1.34787 0.387935
-0.512044 1.31334 0.27318
-0.476173 1.3307 0.335476
-0.318356 1.49339 0.299153
-0.157957 1.73621 0.0445857
-0.196341 1.68398 -0.0209333
-0.0849654 1.81728 0.252919
-0.116417 1.78644 0.142659
-0.0211005 1.9535 -0.0193729
-0.0697477 1.86938 0.0719796
0.0185833 2.02155 0.0905026
0.0146174 1.66871 0.428923
-0.00319625 1.72908 0.432941
0.149202 1.98473 0.431619
0.0608806 1.84189 0.431181
0.194301 1.87929 0.425374
-0.0380285 1.78962 0.416641
-0.06444 1.81986 0.351645
0.528001 2.09121 -0.0154844
0.445796 2.10395 0.0843489
0.576198 2.0844 0.0503903
0.110727 2.1768 0.100844
0.282973 2.16183 0.101262
0.203556 2.19029 -0.0173109
0.429536 2.09399 0.333192
0.360661 2.13236 0.2194
0.270701 2.14479 0.379176
-0.0128869 1.94006 0.301051
0.0684311 2.09062 0.367087
0.0497847 2.06625 0.21299
-0.157404 1.7379 -0.0864814
-0.219825 1.64979 -0.056998
0.0205937 2.02628 -0.12925
-0.06871 1.87307 -0.112549
-0.167367 1.71519 -0.251488
-0.114532 1.79161 -0.186656
-0.0817404 1.82842 -0.302952
0.57758 2.08434 -0.0814669
0.446321 2.10451 -0.116638
0.272043 2.15188 -0.410112
0.359736 2.13438 -0.255021
0.433126 2.09544 -0.376539
0.282597 2.16235 -0.135695
0.112875 2.17918 -0.137572
-0.0248796 1.67619 -0.521435
0.00750417 1.75495 -0.519837
0.0310124 1.69595 -0.526553
-0.0611768 1.83822 -0.413389
-0.0348158 1.81368 -0.493787
-0.110818 1.74179 -0.453443
0.218436 1.92464 -0.533119
0.0704116 1.87702 -0.521615
0.15567 2.04136 -0.528473
0.0558895 2.07657 -0.252632
0.076234 2.11715 -0.403791
-0.00632812 1.95714 -0.349691
-0.260556 1.59362 -0.107235
-0.262284 1.59264 -0.0421156
-0.223832 1.62288 -0.309459
-0.247748 1.60402 -0.204172
-0.565711 1.28702 -0.159361
-0.369417 1.46675 -0.176055
-0.54506 1.29779 -0.250768
-0.050929 1.62005 -0.523826
-0.102599 1.63834 -0.51583
-0.43378 1.34652 -0.457044
-0.242013 1.52199 -0.490859
-0.371386 1.34998 -0.500286
-0.162663 1.65542 -0.482932
-0.194924 1.64331 -0.405374
-1.2071 0.951101 -0.492254
-1.09208 1.00407 -0.475225
-1.17483 0.931459 -0.510607
-0.751912 1.15848 -0.326069
-0.937673 1.06067 -0.400115
-0.972004 1.06315 -0.329236
-0.830302 1.06813 -0.497741
-0.896724 1.06037 -0.447344
-0.666517 1.17866 -0.441116
-0.319242 1.49608 -0.359228
-0.478266 1.33061 -0.400955
-0.515197 1.31305 -0.332442
-0.381413 1.45903 -0.0216066
-0.803358 1.14837 -0.135025
-0.575393 1.28177 -0.0667303
-0.574504 1.28196 0.0231052
-0.799645 1.14893 0.0908934
-1.2741 0.92708 -0.504058
-1.24127 0.969004 -0.426343
-1.3044 0.975565 -0.110005
-1.28416 0.975214 -0.285933
-1.43478 0.937816 -0.219254
-1.14585 1.00833 -0.322072
-0.996506 1.06556 -0.221255
-1.21059 0.969973 0.369164
-1.22683 0.9236 0.418781
-0.988233 1.06583 0.175704
-1.13087 1.01178 0.273819
-1.42758 0.94398 0.182298
-1.26419 0.977233 0.243887
-1.29885 0.976337 0.0721236
-1.00695 1.06701 -0.0889322
-1.16429 1.0119 -0.0190339
-1.00409 1.06716 0.0485233
0.642807 2.08299 0.150893
0.658805 2.0787 0.0264883
0.481847 2.03018 0.433162
0.579882 2.0764 0.305345
0.901899 1.98563 0.238305
0.739316 2.05411 0.280337
0.832543 1.96971 0.43237
0.0237422 1.62257 0.426117
0.108504 1.68077 0.42379
0.40173 1.6241 0.414566
0.242884 1.66753 0.417887
0.265243 1.54882 0.414216
0.221587 1.77354 0.421382
0.355272 1.89631 0.424884
0.837168 1.31529 0.426498
0.796863 1.38179 0.428375
0.78507 1.29025 0.430837
0.836158 1.72013 0.419112
0.820564 1.52502 0.427707
0.972043 1.59155 0.428848
0.58204 1.41026 0.418098
0.705091 1.46607 0.422301
0.563836 1.55338 0.416671
0.514005 1.87737 0.42184
0.539005 1.7122 0.416917
0.676611 1.82055 0.420576
-0.131999 1.48049 0.432689
-0.0282311 1.58193 0.427544
-0.485114 1.18643 0.429924
-0.293059 1.33668 0.435152
-0.106191 1.26853 0.415862
-0.206186 1.31022 0.42657
-0.260057 1.12834 0.41553
-1.15812 0.892762 0.424087
-1.04823 0.915046 0.423501
-0.750848 0.829334 0.413343
-0.910615 0.879125 0.418709
-0.917116 0.765169 0.412114
-0.883586 0.971201 0.422167
-0.687944 1.06329 0.43507
-0.206942 0.599461 0.410342
-0.286838 0.647048 0.40614
-0.265362 0.5571 0.410001
-0.289203 0.952893 0.406893
-0.297181 0.787809 0.402548
-0.170225 0.892998 0.399799
-0.565713 0.632007 0.398339
-0.419244 0.70817 0.401862
-0.581038 0.770925 0.405346
-0.55104 1.04269 0.425487
-0.57885 0.907861 0.414209
-0.417244 1.0054 0.415301
-1.33247 0.844047 0.412587
-1.21476 0.877119 0.419773
-1.46398 0.791649 0.0898643
-1.45711 0.817442 0.292732
-1.36083 0.553053 0.423212
-1.45427 0.686272 0.389207
-1.47469 0.475522 0.301342
-1.26788 0.864514 -0.519903
-1.40934 0.843578 -0.506689
-1.4646 0.454982 -0.337523
-1.45905 0.667499 -0.423286
-1.4192 0.51405 -0.505368
-1.46003 0.807629 -0.328731
-1.46452 0.788904 -0.124808
-1.14225 -0.0785649 0.0311384
-1.29095 -0.110145 -0.0179334
-1.1465 -0.0788547 -0.0683589
-1.4743 0.230187 0.20086
-1.45857 -0.0203662 0.0793761
[...]
POINT_DATA 642
SCALARS Mean_Curvature float 1
LOOKUP_TABLE default
0.518308
0.580696
3.46655
0.761732
0.165435
0.394642
0.304082
0.608803
12.5141
15.5883
3.56445
4.50025
0.0195189
7.8242
2.12659
6.38939
1.18898
7.55392
1.32137
7.09216
0.0608043
7.11043
0.186443
8.5348
0.0566457
0.142215
5.19846
7.35257
0.137422
0.26437
8.30016
0.13322
1.13864
0.142885
10.0068
6.32443
0.316924
7.76778
7.4043
0.928013
0.95155
0.0173004
0.132449
0.0713671
0.461902
8.6307
3.18938
3.62169
11.2104
4.20423
7.63958
0.65704
0.958247
0.213752
10.7455
0.034305
6.96321
0.834882
0.495819
0.463604
0.901107
6.60581
8.03996
8.14546
0.456593
0.00887756
0.145633
5.14457
2.94462
1.73369
1.72988
8.57636
0.261716
9.64957
0.307781
0.218814
12.0717
7.97103
0.84021
0.183012
0.243812
10.4103
0.157417
0.0335285
0.214481
0.0614759
0.14043
0.426395
0.115972
0.146044
0.130741
0.722253
0.0938083
4.77325
0.196109
4.01348
0.496327
4.46927
0.589927
0.927384
0.338665
0.759916
0.186381
0.311892
0.348377
0.283037
0.4271
0.767859
8.19083
0.481051
0.465414
9.62651
0.630742
2.06873
0.907409
3.59351
11.8475
4.66946
0.0929129
3.01617
0.154248
1.28277
1.9012
0.161527
7.3213
2.24503
0.875533
0.544131
1.57867
0.899054
0.208051
0.707204
0.682601
7.43242
0.798905
1.27624
0.615644
0.466148
4.06204
2.29333
10.2857
4.09208
0.7463
0.442573
0.33662
0.339874
0.744381
0.132097
0.142338
0.102222
2.08284
0.0574871
0.128369
0.0732936
6.76761
0.121674
0.336317
0.149105
0.0664624
0.89963
1.08226
6.97202
0.398091
0.392538
0.253078
0.259777
0.0827619
0.478046
0.932208
0.322676
0.0160097
13.7766
18.3524
17.7487
4.00865
1.88479
16.3113
0.590557
0.848113
0.340639
1.14948
5.12629
1.63274
1.92414
13.7538
7.80896
11.1735
10.3867
9.18688
0.252134
1.98565
0.756832
0.399346
0.613465
0.421604
0.581235
0.00511935
0.159897
0.549642
0.329515
5.34971
4.59401
3.83307
0.530933
10.0625
2.7415
0.753793
1.67205
1.08404
8.09213
0.990383
5.7221
2.29228
0.679286
8.31008
1.27539
9.80385
1.28047
0.348396
0.251595
0.620528
0.246895
0.751089
0.686327
0.474286
1.02732
1.63308
5.68721
0.542624
0.216571
0.907298
8.22623
1.84107
3.44413
0.520313
2.07496
8.97469
5.17232
0.726579
4.21107
8.22361
1.09521
8.38412
0.556407
0.40961
0.401684
0.147837
0.367912
0.503091
0.114364
0.308315
1.23967
6.2032
7.36875
10.3763
7.7561
11.7421
1.23415
11.3596
12.5475
7.58871
0.0783044
0.776554
0.550996
11.9006
1.42659
4.25683
0.471149
1.84069
0.159613
0.147529
0.212153
0.578397
0.571012
0.165069
11.4857
1.75599
0.576309
0.0906707
7.66993
0.0257305
0.21133
3.50272
11.512
0.261423
0.445831
7.76363
0.131312
0.427828
0.0952191
0.355815
0.10172
2.46704
2.26059
8.15004
2.51059
1.39769
3.39741
7.25286
0.0787611
0.167017
0.245755
0.169922
0.107295
0.288112
0.47178
11.8392
1.27029
2.26438
0.46373
0.897849
9.11831
0.180612
0.174451
0.105735
0.406633
0.234967
0.331061
1.5224
0.219983
5.01575
2.87472
0.161499
0.0873023
0.155785
0.232963
1.66963
0.101151
0.127325
0.124794
1.50111
5.41611
0.145216
0.116657
0.150918
0.145218
0.453447
0.947239
0.651847
0.439477
0.179116
0.260988
0.262548
0.163173
6.98999
0.73701
0.946168
4.71584
5.01257
8.79716
3.40741
2.61748
10.6309
0.945018
4.71391
7.29071
2.61484
0.972558
1.17936
4.44964
1.31482
0.903463
5.02926
7.24938
6.57811
4.96744
0.0250356
0.406005
0.344853
0.028124
1.62809
1.48245
3.01429
2.09528
0.516296
0.863904
0.469722
0.559708
0.844609
0.42197
0.484031
0.370555
1.40092
3.13818
0.223496
0.281127
0.261936
0.359034
0.276351
0.204929
0.206691
0.235892
0.163628
0.707827
0.399062
0.419515
0.77831
0.712249
1.1256
0.473237
0.170325
0.192161
0.125993
2.28618
2.28672
6.85322
1.79276
0.495088
1.17979
7.30649
4.70115
2.56886
11.8262
0.306311
0.434667
0.0379388
9.00987
1.46066
2.91653
1.88095
1.72028
0.215098
1.14984
1.14846
0.0438199
1.10647
0.769644
0.632298
0.171855
1.3464
3.44891
2.33631
12.3541
17.9389
1.18089
5.33992
0.166186
1.90698
13.2617
5.18555
0.179087
0.160052
0.171825
10.0423
1.238
6.2662
0.185219
0.0581561
0.036398
8.4854
8.46601
12.0714
0.28426
1.11293
1.53824
2.0646
1.95294
0.999971
1.24212
0.17041
0.0940651
7.42825
0.251722
0.176886
2.10305
9.73601
1.01113
1.02423
0.82511
0.13224
0.228606
0.0187641
9.11089
2.36666
7.07466
8.58073
7.85279
0.55264
0.323529
0.0599374
0.933463
1.06283
0.103713
1.93854
0.112643
0.468864
0.807085
4.03817
2.23989
4.24466
0.284585
0.115096
0.564315
0.843961
0.365187
8.91246
2.14744
5.78803
0.275702
1.02758
6.95542
0.300412
5.20646
5.59573
1.10403
1.13955
1.71853
1.16394
0.591163
0.70771
0.827354
0.328275
0.880009
1.14466
0.993382
0.611897
1.48756
8.24448
16.2127
9.68713
6.53412
2.91443
7.63003
1.45449
0.945243
7.85254
2.73794
9.38811
7.8018
5.39236
0.620664
0.772104
0.544329
0.553688
0.800057
4.59937
5.21884
2.14599
2.63977
0.0254822
0.101109
0.613531
7.51881
13.4306
0.681766
0.0969458
0.0150517
2.81441
2.19996
0.504948
0.401521
0.52169
0.140859
0.156615
0.151769
0.11722
0.742918
0.177958
0.11109
0.195054
0.0220145
0.186351
0.165964
0.151031
0.153155
0.140997
0.433597
0.161591
0.134107
1.7299
0.25937
2.30883
7.07354
6.57698
0.501136
0.163845
1.70332
0.126756
0.164136
0.21315
0.137771
0.194127
0.29141
0.102652
0.0412872
0.116746
0.130519
0.125997
0.219051
0.0887529
0.494245
0.11921
0.0843913
0.275382
6.44676
3.4809
2.67195
7.93465
0.583782
0.163985
0.481742
1.09523
1.63423
0.971403
1.09012
0.0156094
0.853203
0.522498
0.721294
1.01878
0.121653
0.298481
0.151187
0.33324
0.290649
0.254852
0.775261
0.274618
0.14094
0.173717
0.125847
0.129949
0.135971
0.0840628
6.76207
0.224332
0.517349
3.64788
2.51543
3.2698
1.37971
1.26554
0.455906
0.208218
0.844806
6.93531
0.0391805
0.0054916
6.87083
1.68598
0.415239
0.502806
SCALARS CoVolArea float 1
LOOKUP_TABLE default
0.00184271
0.00406701
0.00563701
0.00263236
0.00218668
0.00149371
0.00237687
0.00171931
0.00187568
0.00181993
0.00203673
0.00140874
0.0224701
0.0149892
0.0110153
0.0214924
0.0199928
0.0230398
0.0125772
0.0169602
0.0244946
0.0288662
0.0210117
0.0512537
0.0242471
0.0237226
0.0480551
0.0522697
0.0262831
0.0275115
0.0485908
0.0233068
0.0219455
0.0214942
0.0148031
0.0253859
0.0309804
0.0266346
0.0169825
0.021981
0.0231961
0.0259169
0.0168225
0.0185455
0.00992064
0.00939395
0.013868
0.0100352
0.00543399
0.0125065
0.0100515
0.0171577
0.0128665
0.00995162
0.0154085
0.0187891
0.0263859
0.0180827
0.0180402
0.0104687
0.0194555
0.0250293
0.0062394
0.0183912
0.0113776
0.0201307
0.0173759
0.0115815
0.0142148
0.0121531
0.0159923
0.0112079
0.0271529
0.0225161
0.0235695
0.0224899
0.0205731
0.0281534
0.0216005
0.0116973
0.0209364
0.0132655
0.024604
0.0114226
0.0202226
0.0146063
0.0131199
0.0185322
0.0148135
0.0214287
0.0159143
0.0363296
0.0191493
0.0214096
0.0371637
0.038899
0.0472074
0.0351753
0.0213202
0.0154687
0.0162578
0.0225161
0.0179455
0.024716
0.0163942
0.0218844
0.0135624
0.0220437
0.0296855
0.0120064
0.0249278
0.0150712
0.0147769
0.0174627
0.0132831
0.0123905
0.0159636
0.0125144
0.00933858
0.0156222
0.0138595
0.0233813
0.0168335
0.0145884
0.0178548
0.0260789
0.0279916
0.0250093
0.0246111
0.0140856
0.0263585
0.0296899
0.0104429
0.0200003
0.015366
0.0190447
0.0152019
0.0152461
0.0171664
0.014138
0.018034
0.0130144
0.0244111
0.0137222
0.0251764
0.024346
0.0129579
0.0234729
0.0219569
0.0218714
0.0372007
0.0272233
0.029611
0.0286944
0.0443247
0.0312972
0.0235156
0.0252572
0.0251067
0.0267207
0.0275872
0.0312627
0.00666141
0.0106501
0.00487459
0.0217217
0.0189614
0.0236681
0.0124337
0.0139222
0.0137686
0.0043304
0.00728625
0.00387231
0.0132926
0.0108285
0.0137582
0.0169326
0.0118356
0.0175719
0.00303546
0.00608295
0.00448483
0.0110316
0.00814075
0.0078724
0.0141138
0.0106142
0.0134792
0.0182883
0.0150472
0.0158273
0.00982372
0.00552645
0.0136433
0.0133674
0.0179708
0.0157184
0.0194751
0.00419286
0.00614068
0.0213735
0.0118164
0.0168831
0.00818915
0.0110723
0.0106201
0.0168727
0.0102517
0.0217989
0.0214382
0.020594
0.0206452
0.0223135
0.0266052
0.0178062
0.0258927
0.0227073
0.0100857
0.00500641
0.0196773
0.0161082
0.0136109
0.0141801
0.0151358
0.0105735
0.017317
0.0267012
0.0227566
0.0226042
0.0213931
0.0214614
0.00348016
0.00708396
0.00480535
0.0129131
0.00965498
0.00917182
0.0189969
0.0143066
0.0245127
0.0225281
0.0267702
0.0194417
0.0110958
0.00676803
0.0152438
0.0148924
0.0250314
0.0200845
0.0236791
0.00520561
0.00715052
0.0150154
0.0121231
0.0158055
0.00949636
0.0126579
0.00518983
0.00876574
0.0051937
0.0199041
0.0139101
0.0191887
0.0155608
0.0125946
0.0150546
0.0176672
0.0169471
0.0204177
0.015299
0.0269664
0.0243749
0.0239026
0.0258506
0.00899478
0.0132087
0.0257518
0.0225778
0.0280806
0.0189052
0.0239767
0.0108181
0.00631907
0.0223587
0.0167321
0.0287118
0.0217353
0.0256402
0.0258234
0.0246401
0.0252837
0.0173599
0.0103682
0.0218033
0.0214439
0.0372268
0.0265301
0.0406822
0.0048874
0.00928771
0.021013
0.0159847
0.0181869
0.0156313
0.0207801
0.00495968
0.00987205
0.00478473
0.0379787
0.0201898
0.0317054
0.0182972
0.0170018
0.0216718
0.0251858
0.0244773
0.0311617
0.0110281
0.00575284
0.0176159
0.0158785
0.0216734
0.0185669
0.0223734
0.00514226
0.0092067
0.0211228
0.0158861
0.0205966
0.0139722
0.0171902
0.00664574
0.0126111
0.00693758
0.0222124
0.0188291
0.0212238
0.0227719
0.0193948
0.0226433
0.0200207
0.0213794
0.0217221
0.0169509
0.00634976
0.032821
0.0287939
0.0330879
0.0286269
0.0394139
0.00906412
0.020949
0.0395639
0.029672
0.0315575
0.0297545
0.0329318
0.0151382
0.0274517
0.0152338
0.0527567
0.0467742
0.0634903
0.0563043
0.0432825
0.0493021
0.0399687
0.0449153
0.0445281
0.0109924
0.00636393
0.0194638
0.0163936
0.0238227
0.0186541
0.0243356
0.00647006
0.0123735
0.0248136
0.0204316
0.0240187
0.017698
0.0199082
0.00777678
0.0142574
0.00732066
0.0258935
0.0222732
0.0255552
0.0235351
0.0214412
0.0251111
0.0226414
0.0246603
0.0244837
0.0106554
0.00563791
0.0211075
0.016902
0.0208912
0.0179889
0.0230295
0.010542
0.0182125
0.0396102
0.0283073
0.036428
0.0239386
0.0233527
0.00500143
0.0104923
0.00528563
0.0229061
0.0177509
0.0194826
0.0342917
0.0217581
0.0372416
0.0252419
0.0303279
0.0250044
0.00703112
0.0116481
0.00679028
0.0196673
0.0170185
0.0204019
0.0162884
0.0153667
0.0154053
0.00543891
0.00916466
0.00569278
0.0178624
0.0141669
0.0187018
0.0191074
0.0143488
0.0185329
0.00494619
0.0096057
0.00614084
0.0136163
0.0123591
0.0122971
0.0198697
0.0155753
0.0187483
0.0175418
0.0168743
0.0160293
0.013064
0.0074813
0.0185087
0.0178325
0.0253595
0.0211066
0.0276543
0.00630865
0.00958743
0.0204531
0.0160749
0.0215253
0.0126874
0.015595
0.0141279
0.0222466
0.0138999
0.0309554
0.0292537
0.0320105
0.0285813
0.027921
0.025146
0.0217926
0.023042
0.0272022
0.0134494
0.00699104
0.0282805
0.021672
0.0178792
0.0190053
0.020747
0.014348
0.0230037
0.0269691
0.0291056
0.0307128
0.0301896
0.0317424
0.00540992
0.0104984
0.00693255
0.0183855
0.0145836
0.0141562
0.0213167
0.0170742
0.0215043
0.0284771
0.0249496
0.0238896
0.0121884
0.00714289
0.0173158
0.0166247
0.021247
0.017999
0.0210299
0.00685403
0.0107141
0.0196788
0.016912
0.0208556
0.0137943
0.0154816
0.00651311
0.010401
0.00592246
0.0204019
0.0160206
0.0206291
0.0192446
0.0153673
0.0189918
0.0179706
0.0185041
0.0194773
0.0132645
0.0244909
0.0201954
0.0199178
0.0238218
0.00554494
0.0124473
0.0252311
0.0199678
0.0224336
0.0204017
0.0248124
0.0115879
0.00529513
0.0236888
0.0190516
0.0215565
0.0190665
0.0247543
0.0265982
0.0266567
0.0261996
0.0124852
0.0232744
0.0192503
0.0194895
0.0237902
0.0103998
0.0208183
0.0167015
0.0181034
0.0229314
0.0108697
0.0237632
0.018906
0.0168616
0.0207249
0.0245026
0.023042
0.0245383
0.0258596
0.0299827
0.0308413
0.0470716
0.0535029
0.0136409
0.0262308
0.0218095
0.0215931
0.0272252
0.0125592
0.0394659
0.0250457
0.0206333
0.0257231
0.0318011
0.0300403
0.0367005
0.0149444
0.0280429
0.0222939
0.0236999
0.0288366
0.0262041
0.0560396
0.0461701
0.0336967
0.0338178
0.0152008
0.0288358
0.0235713
0.0263056
0.038428
0.0353406
0.0418001
0.0323559
0.0108723
0.0236444
0.0187286
0.017682
0.0229327
0.0137767
0.0261079
0.0212617
0.0206928
0.0242753
0.0124051
0.0238212
0.0195823
0.0214755
0.0265736
0.0262839
0.0271778
0.0258542
0.0103498
0.0259743
0.0190523
0.02055
0.0371454
0.0113365
0.0371685
0.0230279
0.020275
0.0265047
0.0186814
0.040353
0.028275
0.0278711
0.0376953
0.0288326
0.0313356
0.0317731
SCALARS SignedDistance float 1
LOOKUP_TABLE default
0.0781448
0.0467892
0.0413699
0.0471425
0.264287
0.109452
0.0543048
0.0462872
0.0202518
0.0312347
0.0252568
0.0329875
0.0709532
0.035858
0.0438865
0.0770288
0.0473067
0.0284941
0.0483288
0.0369644
0.0722484
0.0244041
0.441418
0.0291405
0.34594
0.346895
0.0228812
0.0445752
0.0619715
0.0555597
0.0314713
0.0602238
0.037582
0.182751
0.0294432
0.0612406
0.0519448
0.0427783
0.0311743
0.0499436
0.0390738
0.0454547
0.0781397
0.0684438
0.0664937
0.0341725
0.0492663
0.0288316
0.0363393
0.0420554
0.0425992
0.0471561
0.0730371
0.118207
0.0138144
0.0458692
0.0231894
0.0546817
0.0492385
0.0670647
0.0563003
0.0245768
0.0289738
0.0287257
0.0455971
0.0704463
0.0787842
0.03539
0.0452194
0.033513
0.0521119
0.0254085
0.0760185
0.0377857
0.0581482
0.0554746
0.0389883
0.0519123
0.0312318
0.232756
0.296935
0.0308847
0.261887
0.13811
0.134379
0.157894
0.143183
0.125763
0.398057
0.345016
0.394207
0.0404785
0.161757
0.0310807
0.0344431
0.0551098
0.0407662
0.0490227
0.0489344
0.0428168
0.0561577
0.0523489
0.057105
0.0584207
0.0567974
0.0520514
0.0575168
0.0331755
0.0111495
0.042967
0.0503105
0.0317078
0.0446064
0.0335915
0.0543601
0.0645137
0.0323133
0.0373644
0.145738
0.0771446
0.240398
0.0427871
0.0384583
0.220864
0.0569686
0.0318548
0.0503748
0.0429649
0.0425467
0.0551997
0.0499133
0.0529111
0.0463925
0.0256701
0.0516443
0.0359583
0.0450211
0.0523713
0.0332616
0.0407429
0.0192165
0.0322429
0.0432291
0.0426716
0.0592246
0.0583887
0.0426466
0.410384
0.289086
0.399487
0.15287
0.333056
0.390578
0.0575768
0.0361869
0.0517464
0.0578565
0.0598254
0.0640064
0.0412496
0.0424507
0.0200223
0.0784035
0.0770212
0.0752738
0.073517
0.0748849
0.0818101
0.0543406
0.0724462
0.0639455
0.0285926
0.0206438
0.0229983
0.0500301
0.0472379
0.0207653
0.062719
0.0580151
0.0619877
0.0831881
0.0477174
0.0886898
0.0498853
0.0247356
0.0334617
0.0283175
0.0265603
0.0349211
0.062292
0.0505579
0.0578816
0.0631471
0.0675562
0.0636071
0.0673212
0.0547777
0.0674563
0.049513
0.109051
0.0597846
0.0811856
0.0704081
0.158217
0.0295683
0.0503447
0.0604942
0.0555957
0.0541459
0.0294942
0.0428516
0.0291199
0.0456145
0.0393585
0.0262838
0.0379437
0.0399793
0.0388601
0.0638879
0.0755096
0.0487677
0.0669465
0.056558
0.0692642
0.0678003
0.0537676
0.0561253
0.0325634
0.040696
0.0472487
0.0432255
0.027531
0.0414343
0.0372
0.0461906
0.0566373
0.0289932
0.0388563
0.0449377
0.0354649
0.0369095
0.040494
0.0517602
0.0441845
0.0778446
0.0786076
0.066768
0.0741298
0.0832857
0.0762172
0.0756239
0.0449939
0.0324519
0.0379133
0.0272774
0.0303038
0.0287913
0.0524147
0.0214474
0.0238342
0.0240982
0.0652642
0.0588174
0.0640075
0.021122
0.0527487
0.0490828
0.0603688
0.0516674
0.0644811
0.0791804
0.0752837
0.0867839
0.0862496
0.0746036
0.0222096
0.0399446
0.0511007
0.0492463
0.0236327
0.0478746
0.0696866
0.0356161
0.0278997
0.068849
0.0433396
0.0288641
0.0498265
0.0514784
0.0725727
0.0607862
0.072341
0.0413942
0.0373168
0.0373023
0.0451232
0.0240288
0.0267388
0.0333672
0.142255
0.173187
0.418155
0.292705
0.374185
0.22435
0.173573
0.029438
0.082119
0.0597903
0.174552
0.104351
0.0343628
0.27539
0.187489
0.346119
0.182154
0.341352
0.203151
0.0891433
0.121553
0.0568833
0.0715172
0.237504
0.14191
0.231678
0.0600329
0.085495
0.218085
0.146991
0.251683
0.0615855
0.0583448
0.303717
0.388274
0.302289
0.344457
0.464209
0.459868
0.461395
0.462228
0.347615
0.121989
0.2285
0.223539
0.0923271
0.0724386
0.0307879
0.0238377
0.116822
0.0209705
0.0402081
0.0307585
0.022235
0.0313637
0.0256824
0.0243752
0.0267462
0.0313321
0.0533568
0.0454743
0.0541424
0.041257
0.0250499
0.0218606
0.0289167
0.0249374
0.0324578
0.0409915
0.0409328
0.0404326
0.0354149
0.0320216
0.0388073
0.0376758
0.0506167
0.0469039
0.0529221
0.0501745
0.0502937
0.0595871
0.0553078
0.0617395
0.0447502
0.0398836
0.0554541
0.0567975
0.0551125
0.0561481
0.0578215
0.0573814
0.0604093
0.0575039
0.0607723
0.0508054
0.0581282
0.0561525
0.0532111
0.0509815
0.0430381
0.0518675
0.0598157
0.0561991
0.0563947
0.0371294
0.0403816
0.0200806
0.0266902
0.0264078
0.0444331
0.0164813
0.027426
0.0337259
0.0286732
0.0552403
0.0482315
0.0560937
0.0245705
0.0378952
0.0443965
0.0447549
0.0450708
0.0516563
0.042041
0.04094
0.0505857
0.036713
0.0417584
0.0419173
0.0444012
0.0376478
0.0363634
0.0632002
0.0288734
0.0313625
0.0921094
0.0572371
0.130305
0.0374172
0.0201965
0.0323577
0.223652
0.187941
0.255615
0.0297892
0.0981057
0.0615693
0.222913
0.157066
0.126685
0.02846
0.0470493
0.0184923
0.049531
0.0572234
0.043812
0.0351142
0.0440513
0.0578302
0.0424606
0.250539
0.180328
0.0569263
0.132804
0.153318
0.0920209
0.0304685
0.0523138
0.0485951
0.0451467
0.0461604
0.0468952
0.0492918
0.0202812
0.0345565
0.034015
0.0240343
0.0295972
0.0512435
0.0497324
0.0509057
0.0450386
0.0589706
0.0458856
0.0360124
0.04919
0.0452612
0.0529132
0.0330847
0.0330274
0.0199991
0.048223
0.0485136
0.0528267
0.0496919
0.0540847
0.0293556
0.0385509
0.032478
0.0436099
0.0412073
0.0265265
0.0529692
0.027385
0.0250965
0.0416006
0.042204
0.0396005
0.0391621
0.0428396
0.0427836
0.0386415
0.0537077
0.0504106
0.0405738
0.0462644
0.049327
0.0395482
0.0221319
0.0138981
0.0280094
0.0255052
0.0341673
0.026951
0.0394419
0.0433061
0.0278295
0.0363607
0.0259685
0.0249305
0.0310383
0.0451902
0.0424284
0.0443795
0.0441006
0.0417922
0.0323663
0.0247996
0.0359458
0.0327847
0.0441222
0.054689
0.045564
0.0220587
0.0215848
0.0444384
0.0519881
0.0443303
0.031459
0.0355294
0.0478603
0.0602033
0.0475185
0.315661
0.29295
0.319439
0.415068
0.470485
0.108995
0.360604
0.213516
0.155797
0.23843
0.189942
0.359193
0.262657
0.310419
0.458065
0.368076
0.439969
0.490508
0.0442551
0.120427
0.0382699
0.0461539
0.213295
0.303028
0.457449
0.383187
0.264097
0.18672
0.140423
0.248153
0.256212
0.258224
0.393495
0.279566
0.453265
0.355881
0.055617
0.0561294
0.0543333
0.0572372
0.0573119
0.0490016
0.0771383
0.0500115
0.0375384
0.0256204
0.0378225
0.0539138
0.0483823
0.0440571
0.0451605
0.0600729
0.0548342
0.0560796
0.038828
0.0544417
0.0477079
0.0550993
0.0608631
0.055198
0.0614959
0.0583465
0.0545093
0.0560783
0.058106
0.063107
0.0626887
0.0637839
0.0630127
0.0593815
0.061865
0.0622637
0.020191
0.0522934
0.0470857
0.0283984
0.0238374
0.0262666
0.0252042
0.0316407
0.0501454
0.0518165
0.034033
0.0239525
0.0295887
0.0311234
0.0234284
0.0429374
0.0359291
0.0343856
