# vtk DataFile Version 4.2
vtk output
ASCII
DATASET POLYDATA
POINTS 2562 float
-0.306728 3.49633 -0.0363974
1.245 4.10208 -0.0251162
-2.43135 -0.13196 -0.0297653
0.257454 0.941976 -0.0307893
-0.542717 0.904417 0.760688
0.0301937 3.54694 0.777994
-0.610731 0.893701 -1.02606
0.0525861 3.57267 -0.996728
1.58324 2.74153 -0.910651
1.58186 2.70834 0.785672
-2.80826 1.78254 -0.981657
-2.74652 1.7829 0.748769
-2.06278 2.06137 0.44509
-1.40327 2.2675 0.777994
-0.124986 3.83658 0.710076
0.62604 4.11916 0.799538
0.135564 4.35673 -0.0263168
0.629017 4.12739 -0.955117
-0.113222 3.84827 -0.833756
-1.42708 2.26239 -0.950721
-2.0697 2.06075 -0.548527
-2.97433 1.78355 -0.0235077
1.15473 3.19892 0.757303
1.9602 3.76834 0.742664
-1.97792 1.11386 0.74231
-0.30272 2.24079 0.744081
-2.99638 0.164599 -0.972009
-2.97273 0.239628 0.742029
-0.273613 2.16818 -1.03527
-1.96275 1.04828 -1.03665
1.95696 3.76937 -0.855075
1.16554 3.23354 -1.02749
1.00612 1.67114 0.557803
0.735974 1.73874 0.776811
-0.0866754 0.716719 0.771215
-1.65702 0.0800075 0.797374
-0.911657 0.246824 -0.0323323
-1.7075 0.0314078 -1.06023
-0.0928156 0.706768 -0.907186
0.728997 1.7249 -1.01067
1.00343 1.66926 -0.650458
1.69072 2.85707 -0.0275088
-1.12442 2.55606 0.22934
-0.73273 2.91122 0.517478
-0.186462 3.71937 0.420516
-2.21366 1.93872 0.760393
-1.82763 2.10972 0.695793
-2.53811 1.92892 0.684103
-0.0813724 3.78913 0.802488
-0.52212 3.12365 0.751855
-0.467337 3.05834 0.797765
0.0838814 4.18536 0.525685
-0.0132724 4.07095 -0.031053
0.332894 3.94948 0.778421
0.14356 4.22778 0.800329
0.442747 4.28674 -0.0263149
0.238549 4.33964 0.604213
1.02129 4.1297 0.5993
0.0830068 4.18643 -0.618292
-0.186264 3.7221 -0.516106
1.01935 4.09647 -0.686581
0.240485 4.33933 -0.692693
-0.0753869 3.82092 -0.983069
0.129878 4.26805 -0.978315
0.323622 3.98462 -1.00822
-0.730368 2.91608 -0.627455
-1.12536 2.55651 -0.317068
-0.457607 3.08356 -0.968886
-0.512707 3.13862 -0.887145
-2.55464 1.89721 -0.805002
-1.84624 2.0982 -0.825033
-2.24385 1.93459 -0.964577
-2.11225 2.05594 -0.0363281
-2.9633 1.78199 -0.78758
-2.70588 1.89909 -0.433691
-2.70479 1.89882 0.356615
-2.95874 1.77967 0.680762
1.4985 3.95388 0.811535
1.74359 3.90269 0.452072
0.582114 3.44292 0.75391
1.02008 3.75389 0.767221
1.88209 3.33233 0.78144
1.65549 3.52523 0.77431
1.49238 2.98345 0.779429
-0.872194 2.41492 0.776332
-0.130439 2.96475 0.759592
-2.41443 1.47401 0.753965
-1.84644 1.86347 0.772433
-0.358967 1.41954 0.745242
-1.14794 1.68041 0.745519
-1.2475 0.877351 0.745606
-3.09069 1.11859 0.490531
-2.92308 1.13628 0.760128
-2.93653 1.11 -0.981019
-3.026 1.11097 -0.555044
-2.91323 -0.173079 0.569217
-3.01898 0.165408 -0.0230957
-2.91284 -0.173713 -0.652817
-1.87425 1.80407 -1.00605
-2.44765 1.44663 -1.0375
-0.0947931 2.95544 -1.01008
-0.870226 2.36219 -0.997481
-1.32636 0.866997 -1.03392
-1.15859 1.58563 -1.04177
-0.421868 1.45395 -1.04099
1.03893 3.77657 -1.02586
0.579338 3.44986 -1.03226
1.74381 3.90273 -0.51757
1.51343 3.95978 -0.949068
1.51393 3.01813 -0.965288
1.70171 3.55348 -0.994661
1.91045 3.33961 -0.94744
0.641575 1.28586 0.313533
0.521932 1.17861 0.687091
0.0731385 0.843047 0.486278
1.21264 2.23024 0.799775
0.946573 1.67268 0.792729
1.34104 2.18544 0.709111
-0.275313 0.733748 0.793912
0.356957 1.15342 0.800497
0.14717 1.29237 0.768713
-0.50183 0.426146 0.525284
-0.29477 0.549297 -0.0309018
-1.12471 0.450861 0.769582
-0.772539 0.379458 0.78149
-1.6403 -0.0313742 -0.0321381
-1.35338 0.104478 0.571095
-2.11126 -0.104228 0.657161
-0.506392 0.421381 -0.619065
0.0714054 0.840346 -0.57673
-2.13342 -0.0880437 -0.788759
-1.37334 0.102941 -0.690904
-0.292314 0.707052 -0.978596
-0.814831 0.352067 -0.940753
-1.22137 0.414174 -0.983595
0.522009 1.17528 -0.801794
0.641376 1.28473 -0.387797
0.135021 1.29872 -1.02716
0.367033 1.14085 -0.986906
1.33032 2.19429 -0.814882
0.950536 1.66025 -0.950672
1.21907 2.22917 -0.976199
1.01148 1.67508 -0.0292273
1.67508 2.83901 -0.646283
1.42979 2.25362 -0.407186
1.42933 2.25363 0.339742
1.67065 2.82915 0.559435
0.370678 1.87599 0.750434
1.03847 2.46715 0.763281
0.575839 2.75662 0.741247
-2.53534 0.00787722 0.772989
-1.86392 0.44784 0.754657
-2.54682 0.683146 0.75124
-1.92461 0.337485 -1.0511
-2.65045 -0.0350185 -1.05635
-2.57566 0.550934 -1.03046
1.0296 2.4812 -1.02056
0.332104 1.88182 -1.03754
0.520033 2.77423 -1.02698
1.93117 3.35641 0.420459
1.9318 3.35755 -0.489949
1.96808 3.76851 -0.0220508
-0.581291 3.11127 0.112319
-0.471203 3.27368 0.313976
-0.225121 3.61144 0.214201
-1.49893 2.29037 0.456379
-0.92063 2.73099 0.385265
-1.68358 2.20488 0.324952
-0.155002 3.79574 0.584979
-0.386986 3.39902 0.480667
-0.310141 3.47209 0.608553
-2.49928 1.86078 0.812546
-2.39792 1.92051 0.764763
-2.69602 1.86298 0.76147
-1.64264 2.18516 0.767966
-2.0752 2.02224 0.765165
-1.85427 2.05491 0.787631
-2.31666 1.97658 0.574101
-2.22892 1.99331 0.69342
-1.97561 2.07824 0.587002
-0.0381735 3.68649 0.792088
-0.216212 3.45479 0.785392
-0.19053 3.3549 0.781616
-0.255031 3.51074 0.723807
-0.235394 3.50188 0.766768
-0.0992467 3.83397 0.7874
-0.868376 2.66948 0.804947
-0.497337 3.11218 0.786449
-0.958013 2.64125 0.774125
-1.34277 2.35005 0.585426
-1.15549 2.48411 0.703855
-0.609093 3.03587 0.653228
-0.0753477 3.91183 0.242848
-0.136717 3.84291 -0.0338347
-0.0147426 4.04874 0.646581
-0.0530962 4.00087 0.476872
0.10213 4.23931 -0.0284428
0.039629 4.12964 0.277064
0.121851 4.29359 0.306197
0.1834 3.76667 0.776145
0.0885909 3.91214 0.7913
0.269267 4.23344 0.801697
0.197397 4.11335 0.795057
0.474055 4.07946 0.795804
0.0330512 4.02899 0.799377
0.00291895 4.07178 0.785577
0.868026 4.14647 -0.0268446
0.709219 4.18978 0.324402
1.14767 4.13234 0.344364
0.174671 4.35873 0.329784
0.32879 4.32691 0.333481
0.212398 4.35023 -0.0255644
0.834107 4.12159 0.746096
0.526625 4.23026 0.596866
0.390328 4.27884 0.755441
0.123586 4.2562 0.723921
0.166819 4.34545 0.776395
0.13637 4.35088 0.593256
-0.0758408 3.91199 -0.319178
-0.225344 3.61237 -0.295083
0.121278 4.29312 -0.372472
0.0386888 4.12969 -0.348434
-0.154266 3.80342 -0.695294
-0.0524219 4.00263 -0.571473
-0.0122 4.05641 -0.76176
1.14725 4.1328 -0.407971
0.71036 4.18951 -0.391301
0.382238 4.26707 -0.875529
0.530461 4.22972 -0.687201
0.836616 4.10566 -0.870466
0.330508 4.3263 -0.397088
0.175146 4.35881 -0.392404
-0.0275648 3.72364 -0.989873
0.100409 3.95862 -0.995758
0.198695 3.80507 -1.00714
0.014286 4.09415 -0.926471
0.0372425 4.06995 -0.982583
-0.0854004 3.85519 -0.931387
0.458628 4.10358 -0.996738
0.192122 4.16124 -0.996909
0.251604 4.26704 -0.982653
0.136262 4.3504 -0.681567
0.166019 4.35118 -0.91055
0.119966 4.26373 -0.852797
-0.470779 3.27625 -0.406014
-0.581165 3.11223 -0.191256
-0.302377 3.48001 -0.727252
-0.383982 3.40325 -0.585122
-1.6879 2.20398 -0.42046
-0.920356 2.73304 -0.484648
-1.50751 2.29012 -0.564069
-0.179232 3.37154 -0.983198
-0.213094 3.47845 -0.959917
-0.96067 2.6346 -0.905185
-0.483986 3.13324 -0.94004
-0.871459 2.66448 -0.944043
-0.225929 3.52401 -0.92292
-0.24875 3.53016 -0.860021
-2.73841 1.8497 -0.920897
-2.42609 1.90971 -0.914476
-2.54705 1.84267 -0.981009
-1.9895 2.07225 -0.7042
-2.24917 1.98919 -0.823824
-2.32826 1.97569 -0.686118
-1.88879 2.03786 -0.950325
-2.10461 2.01061 -0.915315
-1.66411 2.17492 -0.906928
-0.603998 3.04537 -0.776913
-1.16205 2.4791 -0.830813
-1.3517 2.34531 -0.702278
-1.14044 2.54236 -0.0387386
-2.10442 2.05831 -0.330309
-1.72743 2.19003 -0.181717
-1.72651 2.18999 0.101865
-2.10248 2.05829 0.245108
-2.9319 1.78018 -0.922071
-2.85164 1.83879 -0.835084
-2.89005 1.84633 -0.271462
-2.8813 1.84479 -0.614835
-2.97312 1.78445 -0.455508
-2.65888 1.89801 -0.667862
-2.40933 1.94514 -0.515766
-2.83226 1.84756 0.702766
-2.91253 1.77126 0.710682
-2.40493 1.94569 0.422576
-2.65179 1.90374 0.565046
-2.97254 1.78461 0.394575
-2.87874 1.84465 0.530814
-2.8897 1.84559 0.214837
-2.41668 1.9454 -0.217895
-2.70991 1.89945 -0.0296447
-2.416 1.94513 0.146537
1.39626 4.05503 0.549462
1.50376 4.02644 0.222074
1.12849 4.05649 0.792191
1.27613 4.08494 0.759029
1.94219 3.81744 0.649193
1.64661 3.93479 0.710778
1.84899 3.81916 0.790633
0.262299 3.51345 0.762258
0.461747 3.70622 0.763761
1.1114 3.49773 0.7593
0.807546 3.61035 0.759478
0.899442 3.32784 0.752289
0.665532 3.86273 0.772261
0.864618 3.95905 0.779109
1.74231 3.06193 0.789454
1.71369 3.16807 0.788655
1.56075 2.86096 0.785747
1.87031 3.67651 0.791273
1.81435 3.43316 0.781054
1.91095 3.56644 0.759051
1.35056 3.09057 0.766319
1.59349 3.27039 0.776122
1.40722 3.36332 0.765584
1.28358 3.88249 0.783715
1.38004 3.64287 0.770161
1.64557 3.76636 0.790516
-0.322475 3.0486 0.77936
-0.0291785 3.28188 0.766966
-1.13102 2.36903 0.788282
-0.685534 2.726 0.798231
-0.23883 2.61408 0.752387
-0.481192 2.70495 0.771667
-0.611039 2.37853 0.758848
-2.59156 1.65108 0.760595
-2.36044 1.79341 0.777941
-1.94734 1.54947 0.751776
-2.16382 1.67779 0.76023
-2.2168 1.28634 0.747626
-2.04879 1.9113 0.770011
-1.69205 2.06499 0.796476
-0.455165 1.14343 0.751994
-0.792369 1.13138 0.744587
-0.887108 0.878653 0.751288
-0.717583 1.95561 0.746119
-0.72251 1.49726 0.735158
-0.295119 1.77516 0.739636
-1.61707 0.935622 0.74161
-1.17925 1.19542 0.739147
-1.59342 1.38677 0.7436
-1.39424 2.08632 0.774647
-1.53843 1.79794 0.758268
-1.05893 2.06772 0.759437
-2.97581 1.5595 0.738083
-2.86822 1.53883 0.751885
-3.01909 1.55503 0.247428
-3.01885 1.56252 0.610634
-2.96668 0.671463 0.764711
-3.03947 1.11215 0.753914
-3.08902 0.639266 0.69757
-2.89341 1.55077 -0.999226
-2.98457 1.56829 -0.921287
-3.01568 0.617372 -0.790425
-3.0115 1.09468 -0.8711
-2.95458 0.605095 -0.944164
-3.01764 1.55865 -0.69255
-3.01911 1.5532 -0.299326
-2.72742 -0.176891 0.270852
-2.90877 -0.1741 -0.0218138
-2.72703 -0.176886 -0.331635
-3.01894 0.168366 0.52903
-2.99409 -0.0797624 0.301179
-2.96382 -0.058305 0.713211
-2.98358 -0.0771564 -0.902776
-2.99435 -0.0796127 -0.351672
-3.01866 0.15948 -0.611388
-3.08734 1.10481 -0.0242959
-3.08772 0.591878 -0.321765
-3.08881 0.594962 0.265535
-2.39265 1.75971 -0.997571
-2.64766 1.63448 -1.00851
-1.71591 2.03566 -0.987474
-2.08356 1.88569 -0.992609
[...]
POINT_DATA 2562
SCALARS CoVolArea float 1
LOOKUP_TABLE default
0.0260248
0.0276606
0.0393099
0.0214966
0.015031
0.0102055
0.0179599
0.0114343
0.0057816
0.00546937
0.00716277
0.00800094
0.0167738
0.00715979
0.00846708
0.00958908
0.00725585
0.0115946
0.0096322
0.00925712
0.0181516
0.0155318
0.0179986
0.00359025
0.0344357
0.0457505
0.0173007
0.0103929
0.0378226
0.0336008
0.00402513
0.0195256
0.0155206
0.0130549
0.00801636
0.0110982
0.0379021
0.00615441
0.0106091
0.0138753
0.0171842
0.0337484
0.0448976
0.0284485
0.0165008
0.00468718
0.0127697
0.00903733
0.00447405
0.0102809
0.0100462
0.0114505
0.0176053
0.0136091
0.00310442
0.0340813
0.0108463
0.0239718
0.0127817
0.0178918
0.0276185
0.0122933
0.00499886
0.00364738
0.0126122
0.0309446
0.04814
0.0113053
0.0125258
0.0104433
0.0147399
0.00618521
0.0275678
0.00753531
0.019788
0.0183317
0.00466082
0.0096142
0.0268888
0.0208128
0.0184628
0.00425404
0.0146386
0.0123267
0.0214229
0.0224306
0.0221794
0.0172834
0.0254494
0.0466487
0.0240187
0.0495968
0.0171257
0.0190879
0.0544625
0.0176925
0.0534306
0.0220081
0.0206677
0.0234631
0.0253521
0.0269065
0.0244718
0.0390604
0.0294567
0.0192496
0.0221398
0.0290749
0.0103779
0.0145311
0.0135508
0.00595343
0.0199587
0.0106136
0.0185963
0.0083734
0.00505187
0.0104617
0.00980865
0.00785042
0.015065
0.0184129
0.0283465
0.0160389
0.00662954
0.0342452
0.0252683
0.0259695
0.0204729
0.0203488
0.0329298
0.0290169
0.0122541
0.00821011
0.018125
0.012751
0.021362
0.0164088
0.00886
0.0124462
0.00644823
0.00999501
0.0277891
0.0210927
0.0251092
0.0234575
0.0193426
0.0226811
0.0187497
0.0425103
0.0159347
0.024196
0.0263847
0.0266536
0.00931291
0.0294133
0.0210916
0.0252482
0.0366233
0.0191941
0.0207085
0.00984444
0.0428386
0.0294537
0.0239492
0.0241324
0.0344656
0.0273013
0.0116215
0.0195935
0.0154686
0.00534915
0.00463519
0.0032526
0.0103253
0.00541318
0.00465164
0.0106693
0.00789635
0.0151696
0.0078279
0.00640979
0.0105162
0.00912978
0.00435369
0.00401425
0.00943945
0.00642084
0.0106072
0.0272098
0.0189592
0.0214355
0.0177625
0.0215305
0.00927775
0.012345
0.0153223
0.014753
0.0106215
0.0122833
0.00766659
0.00604148
0.00739391
0.0114141
0.00435439
0.00463159
0.0433582
0.0384173
0.0286641
0.00718108
0.0218929
0.0138324
0.0146796
0.0235626
0.010587
0.00651678
0.00243214
0.00515328
0.0189396
0.0255042
0.0113606
0.0157343
0.0128827
0.0135785
0.0105156
0.030517
0.0409144
0.0134978
0.0263623
0.0187551
0.0234155
0.00775459
0.0086571
0.00791624
0.0121611
0.00620032
0.00457378
0.0055322
0.0121043
0.00665847
0.0061925
0.00589349
0.00360028
0.00800602
0.0315227
0.0446427
0.0171823
0.0213796
0.0293276
0.0371082
0.0264916
0.0122647
0.0074099
0.012743
0.00702046
0.0115334
0.0055937
0.0110623
0.00571249
0.00671339
0.00722831
0.0167394
0.00936894
0.0118641
0.00713278
0.00756226
0.0127577
0.0236808
0.0219165
0.0299813
0.058712
0.0237256
0.0348635
0.0333992
0.0220607
0.0028237
0.00750712
0.0153583
0.0109231
0.0130269
0.013444
0.0182801
0.00496355
0.00268145
0.0166608
0.0120943
0.0119662
0.00974667
0.0147363
0.0270092
0.0253923
0.0258506
0.023364
0.0319637
0.0102039
0.0122109
0.0105242
0.0157648
0.00674828
0.0171692
0.0185186
0.0194238
0.0186127
0.0205845
0.0165703
0.0146333
0.00603919
0.00854475
0.00894249
0.00711011
0.00880899
0.00628772
0.0147994
0.0125461
0.0168799
0.0161134
0.0190571
0.0130735
0.015699
0.0161931
0.0140894
0.0143064
0.028421
0.0205077
0.0279152
0.0163237
0.0111218
0.0287713
0.0183835
0.0247818
0.0100418
0.0107789
0.019685
0.0263574
0.0207627
0.043229
0.0479056
0.0425446
0.034272
0.0453726
0.0489724
0.0208359
0.0309978
0.0305486
0.00563143
0.0154907
0.0434097
0.026342
0.0152626
0.0183452
0.0334917
0.0152186
0.012917
0.0395009
0.0252443
0.0160541
0.030351
0.0451438
0.033584
0.0245289
0.0357511
0.0403664
0.0251184
0.00768828
0.0150734
0.0267578
0.0451875
0.0693315
0.067882
0.0643206
0.0133384
0.0159284
0.0141175
0.0119788
0.0289728
0.0195258
0.0301113
0.0171559
0.018628
0.0333084
0.0253101
0.0320416
0.0193873
0.0185763
0.0227345
0.0297758
0.024228
0.0395697
0.0348122
0.0293657
0.0331044
0.0365508
0.0382243
0.0259536
0.0356247
0.034264
0.0183983
0.0174196
0.0157964
0.0178739
0.021281
0.0203381
0.020215
0.0332005
0.0258826
0.00818979
0.0190578
0.0120978
0.0152772
0.0116338
0.00881714
0.00893583
0.00672949
0.016752
0.0133807
0.0161085
0.00873538
0.00807789
0.00609196
0.0168783
0.0131759
0.019197
0.0227201
0.0176847
0.0230178
0.0131501
0.0151857
0.0165256
0.0127748
0.0138617
0.00937538
0.00806187
0.00638453
0.00616852
0.00920696
0.00621195
0.0106043
0.0131216
0.00666126
0.00990998
0.0137296
0.01232
0.0157076
0.00504836
0.00838178
0.00573229
0.0135301
0.0113833
0.0105025
0.00765687
0.00620006
0.0063201
0.0223424
0.0273323
0.0132365
0.0173209
0.0254156
0.0242012
0.0287199
0.0175169
0.0134623
0.00748859
0.0109429
0.0130409
0.00837895
0.00625707
0.0456764
0.0344794
0.0393193
0.0351575
0.029991
0.0379243
0.00922409
0.0198565
0.0119503
0.0128448
0.0157196
0.0267769
0.0238142
0.0244858
0.0310335
0.0258431
0.0148349
0.0191952
0.0157696
0.0437169
0.0384497
0.0163788
0.0240259
0.0176831
0.0328875
0.0382305
0.0169746
0.0163523
0.0194528
0.00706978
0.0103757
0.0059219
0.0108348
0.0123578
0.0078628
0.0303336
0.0187868
0.0167448
0.0191705
0.0236102
0.011465
0.0155138
0.0179706
0.0167144
0.0150206
0.0183362
0.0149876
0.011663
0.0129657
0.0144412
0.0104291
0.00692422
0.00768449
0.00742531
0.00734191
0.0121378
0.00932942
0.0149355
0.0121232
0.00721299
0.0101282
0.0082018
0.0078794
0.01071
0.0247362
0.0239274
0.0238827
0.0229809
0.0223967
0.0134354
0.0147957
0.0303631
0.0217778
0.0281438
0.0177867
0.0230558
0.0132211
0.0111406
0.0211607
0.0159618
0.0264658
0.0200638
0.0292922
0.0335408
0.0319848
0.032325
0.0190419
0.0178616
0.0178422
0.0231678
0.0399421
0.0121999
0.0195902
0.015687
0.0131005
0.016061
0.0228168
0.0535547
0.0364201
0.030801
0.0252858
0.0226028
0.0256547
0.0318096
0.0254836
0.0155698
0.0125216
0.00693296
0.0180136
0.0198382
0.0271674
0.0222578
0.0189486
0.0204758
0.0235531
0.0230842
0.0233453
0.0249943
0.0270002
0.0234668
0.0268796
0.0274209
0.0204841
0.0155587
0.0199782
0.0244111
0.0285147
0.0324672
0.00762414
0.0106288
0.0210726
0.0106679
0.0251816
0.03034
0.0302541
0.0271462
0.0226703
0.0190226
0.0214632
0.0301036
0.013666
0.0178929
0.0154433
0.0173949
0.0218257
0.0219179
0.0342411
0.0259618
0.0190488
0.0188413
0.0238122
0.0271229
0.027799
0.0334627
0.0394749
0.0258722
0.0353531
0.0306002
0.0116031
0.0279222
0.0189533
0.0108072
0.0162212
0.0138229
0.0187727
0.0127956
0.0207286
0.0289892
0.0336811
0.00757795
0.0161123
0.0167698
0.00829642
0.0265962
0.0285604
0.0274761
0.035069
0.0298595
0.0281179
0.0380088
0.0342411
0.047608
0.0196068
0.0254382
0.0214125
0.0201177
0.024306
0.0208243
0.0285308
0.029031
0.0292049
0.0355933
0.0330981
0.037784
0.00951748
0.0123336
0.0113049
0.0178521
0.0148222
0.0136615
0.0218225
0.016506
0.0233227
0.0341131
0.0282852
0.0242737
0.00772554
0.00375675
0.00403277
0.00335938
0.00412538
0.0044878
0.00655001
0.00537184
0.00714419
0.00800916
0.00572976
0.00614257
0.00839386
0.00718116
0.0111928
0.00420696
0.00448082
0.00320908
0.0126264
0.0115774
0.0162188
0.00819155
0.00919082
0.0100062
0.0143193
0.0102992
0.00948852
0.00345867
0.00681823
0.00567069
0.0098802
0.00841437
0.0112507
0.00512444
0.00638312
0.00601185
0.0105998
0.00789178
0.00876559
0.00900585
0.00590083
0.0056985
0.00422229
0.00511268
0.00830276
0.00341842
0.00467068
0.00444865
0.00819197
0.00868955
0.0099136
0.00798912
0.00813586
0.00973258
0.0120922
0.00865621
0.00658132
0.0052972
0.00491142
0.0071641
0.0208481
0.0192696
0.020383
0.0274144
0.0313939
0.01289
0.0183245
0.0141901
0.0141124
0.0156054
0.0139495
0.0267204
0.0194429
0.0146518
0.0168154
0.0247043
0.0241102
0.0276804
0.0231074
0.0264044
0.0166079
0.0195283
0.0194467
0.0197962
0.0182284
0.00875041
0.00977207
0.0108958
0.0100347
0.00985863
0.0117662
0.0140289
0.0105921
0.0126259
0.00894359
0.0166053
0.0158599
0.0168937
0.0115639
0.013323
0.012577
0.0152927
0.0134908
0.0162016
0.0120464
0.00967512
0.0104901
0.00972061
0.0129551
0.00742996
0.00570098
0.00832195
0.00841223
0.00929535
0.00454018
0.00659035
0.00388825
0.0127858
0.0100115
0.0106454
0.0039158
0.0066376
0.00431745
0.0034109
0.00346854
0.00306239
0.00346286
0.00792679
0.00547025
0.00614113
0.0359589
0.0371582
0.0315453
0.0384894
0.0425015
0.0428345
0.0257534
0.0352148
0.0323676
0.00653584
0.0095293
0.00692029
0.0153195
0.0126095
0.00882004
0.0228989
0.0179508
0.0284341
0.0095247
0.0140688
0.0100773
0.0272825
0.0207313
0.0196462
0.0111933
0.0160158
0.0166192
0.0324531
0.0244263
0.032378
0.00816451
0.00402195
0.00613451
0.00882091
0.00982172
0.00736229
0.00631736
0.00624888
0.00385085
0.00232929
0.00761041
0.00961604
0.00811486
0.00580252
0.00592548
0.00325375
0.00349088
0.00622189
0.0239459
0.0291011
0.0188927
0.020516
0.0211246
0.0208066
0.0179384
0.00928275
0.0130724
0.0136772
0.0142019
0.0126064
0.0164175
0.0172101
0.0106442
0.0108999
0.00988383
0.0153177
0.0130186
0.0149767
0.0113114
0.0112159
0.0120919
0.0172867
0.0146578
0.0165766
0.0325372
0.0384188
0.0354682
0.0374698
0.0282523
0.0439455
0.0398193
0.0125812
0.0172533
0.0129237
0.0187838
0.0189347
0.013722
0.0238513
0.0242751
0.0310268
0.00990249
0.00681559
0.0294294
0.0186023
0.00978938
0.0135316
0.0168706
0.0352415
0.0267188
0.0346269
0.0111265
0.0102892
0.0127
0.00636302
0.00804092
0.00649619
0.012028
0.00984756
0.00979073
0.0078691
0.00518372
0.00707774
0.00371525
0.0038629
0.00466221
0.00434743
0.00431057
0.00491276
0.0107056
0.00875796
0.0100429
0.00971241
0.00930093
0.0125892
0.00354388
0.00572905
0.00419256
0.00640582
0.00546407
0.00759924
0.00817949
0.00682318
0.00647297
0.0089188
0.0107521
0.0093543
0.00320367
0.0045382
0.00842664
0.00787526
0.00968712
0.011386
0.010455
0.00785315
0.00541289
0.00440562
0.00441049
0.00736043
0.031647
0.0357918
0.0230634
0.0273055
0.0505545
0.0366968
0.0410166
0.0127977
0.0137589
0.0252587
0.0181476
0.0237794
0.0163373
0.0194271
0.0224539
0.026503
0.0219493
0.0407285
0.0356689
0.0381993
0.0318228
0.0315598
0.0309147
0.0261176
0.0305061
0.0365901
0.0130096
0.0100172
0.00945178
0.00946995
0.012039
0.00776244
0.00605515
0.0123171
0.0100217
0.010731
0.00841517
0.00969022
0.0137788
0.0113622
0.00902672
0.00844382
0.00720675
0.0104468
0.00518271
0.00571601
0.0111344
0.00720277
0.00672629
0.00726226
0.00570374
0.00583461
0.00480371
0.00563671
0.0078998
0.00894961
0.00717697
0.00833794
0.00670212
0.00596587
0.00512089
0.0176307
0.0127213
0.0137262
0.0110388
0.0116908
0.0161038
0.0113311
0.0104349
0.00987757
0.00755875
0.00733142
0.0105009
0.0055076
0.00669399
0.00653659
0.0129226
0.00900487
0.0102095
0.00802084
0.00871892
0.00621337
0.0157914
0.0187465
0.0169583
0.0216311
0.0293602
0.0158513
0.0186527
0.0160615
0.0166685
0.0200187
0.0228223
0.034289
0.029967
0.0224252
0.0221372
0.0265341
0.0282899
0.0304666
0.0479958
0.0579388
0.0586277
0.0574023
0.0556292
0.0209385
0.0252324
0.0301073
0.0276456
0.0263252
0.032067
0.0446237
0.0235165
0.0193692
0.0421976
0.03002
0.0252075
0.026056
0.0294594
0.0474207
0.0367093
0.0463928
0.00527523
0.00348232
0.00557048
0.00375696
0.00394565
0.00624924
0.00939874
0.0123478
0.0104888
0.0142592
0.01432
0.0122862
0.0180158
0.0105635
0.0092465
0.0076274
0.0138415
0.0170383
0.011848
0.0130481
0.0196785
0.0150692
0.0152052
0.00943171
0.0128599
0.0111328
0.00194666
0.00635115
0.00746824
0.00351602
0.00144784
0.00156878
0.00336802
0.015629
0.0124594
0.0138282
0.0136501
0.0180554
0.0117387
0.0104606
0.0136602
0.0098685
0.0121092
0.00630505
0.00838188
0.00907419
0.016932
0.0113405
0.0130442
0.00943808
0.0114227
0.00766694
0.0216421
0.0257979
0.0235223
0.0245946
0.0272604
0.0174781
0.023734
0.0210059
0.0214687
0.0247734
0.0199447
0.0266642
0.02311
0.0218077
0.024242
0.0288186
0.0281867
0.0288509
0.0292816
0.0327718
0.0211698
0.0247776
0.0298987
0.02796
0.0258414
0.009487
0.00848942
0.00868184
0.00892801
0.00976333
0.0126234
0.017064
0.00324177
0.00771207
0.00376641
0.0217835
0.0153213
0.0196673
0.00855255
0.0100032
0.0100488
0.0183181
0.0145073
0.020924
0.0143942
0.0150067
0.0198296
0.0179789
0.0195679
0.0157584
0.0164735
0.0191935
0.0186928
0.018637
0.0176451
0.0180483
0.0188373
0.0206659
0.0191892
0.0196514
0.0123184
0.0117791
0.0158937
0.0142487
0.0166804
0.0147129
0.0166177
0.0194739
0.0183341
0.0183473
0.00697922
0.00718999
0.00750037
0.00588081
0.00588108
0.00481899
0.0103743
0.00850439
0.010838
0.00402122
0.00497282
0.00563632
0.0110536
0.00783309
0.0114132
0.00548849
0.00633301
0.00636876
0.0155499
0.0145848
0.0176576
0.0125611
0.0135933
0.0135849
0.0159083
0.0136406
0.0127729
0.0089159
0.0112196
0.0112483
0.0142451
0.0188637
0.0163477
0.0136525
0.0132017
0.0204246
0.0181399
0.019198
0.0201847
0.0199917
0.00657891
0.0116759
0.0092284
0.010761
0.0153482
0.0186474
0.017417
0.0153785
0.0135632
0.0138417
0.0126146
0.0131793
0.0189998
0.0161365
0.0191121
0.00990615
0.0103158
0.0169047
0.0134892
0.0175723
0.0115212
0.0120686
0.0329309
0.026057
0.0341375
0.0215357
0.023436
0.0250514
0.0242422
0.0222535
0.0198412
0.0153758
0.017968
0.0187425
0.0132129
0.0104697
0.0166468
0.0130253
0.019225
0.00763027
0.00719736
0.0332259
0.0249605
0.0267062
0.0168481
0.0214456
0.0227581
0.0234712
0.0223943
0.020014
0.00705444
0.00935339
0.0072876
0.00669878
0.0128134
0.00899052
0.0124267
0.0152157
0.0140143
0.0106835
0.0186227
0.0203092
0.0194428
0.026286
0.0219684
0.021478
0.0218528
0.0222392
0.0255831
0.0442401
0.0484229
0.048802
0.051092
0.0489114
0.043327
0.0320466
0.0452616
0.0347791
0.0373243
0.0460899
0.0430623
0.031084
0.0402474
0.0273528
0.0492715
0.051501
0.0527997
0.0362092
0.0487031
0.0346902
0.0143646
0.019193
0.0157465
0.0180213
0.022521
0.0404799
0.0402185
0.0411668
0.0315331
0.024394
0.0372161
0.0267481
0.0305856
0.0367571
0.0381396
0.025562
0.0315695
0.0265195
0.00863583
0.0129236
0.00444527
0.00354466
0.0167434
0.00972524
0.0110601
0.0297249
0.0238797
0.0370271
0.0332488
0.0492608
0.0197399
0.0129101
0.0133655
0.015948
0.0207989
0.0126323
0.0136386
0.0159774
0.0433945
0.0237291
0.0332427
0.0136245
0.0251345
0.0113646
0.0114487
0.00784845
0.014478
0.011536
0.0179281
0.00616855
0.0108797
0.0274729
0.019827
0.0152589
0.0385286
0.0297913
0.0490912
0.0174934
0.0174915
0.0161709
0.0254244
0.0303152
0.0173292
0.0220011
0.0525724
0.0360786
0.0408378
0.0199752
0.0319417
0.0221695
0.0429083
0.0350127
0.0440941
0.0225236
0.0277026
0.025141
0.0281294
0.0285202
0.0240793
0.0225473
0.0204493
0.00770134
0.0379228
0.0327019
0.0489937
0.00958609
0.0180409
0.0173141
0.0159542
0.0285901
0.032386
0.0197597
0.0229476
0.0154973
0.0513502
0.0357506
0.0388074
0.0213426
0.0279538
0.0220167
0.0510554
0.0677848
0.0621393
0.0609189
0.0647211
0.0489039
0.06544
0.059849
0.0590624
0.0665891
0.0423652
0.0615096
0.0530354
0.0553447
0.0639119
0.0732301
0.0713668
0.0715508
0.011163
0.0122591
0.00950928
0.00998236
0.0196737
0.0145605
0.0182797
0.0119802
0.00957029
0.0149527
0.011594
0.0168804
0.00889944
0.00902295
0.0304347
0.0277921
0.0349542
0.0216295
0.0244511
0.0263177
0.0242701
0.0225069
0.0182048
0.0127929
0.0157568
0.0169773
0.0151877
0.0152556
0.0219006
0.0179153
0.0203535
0.0151772
0.0149635
0.0373661
0.0310221
0.0344551
0.0251962
0.0270853
0.0292904
0.0287866
0.027799
0.0256251
0.0140729
0.0134084
0.0147107
0.0150494
0.0227304
0.0184175
0.0227485
0.0232521
0.0236427
0.0192809
0.0226633
0.0243015
0.0225924
0.0264929
0.0249746
0.0226607
0.0263424
0.0268592
0.0309741
0.0377385
0.0340301
0.0308175
0.0370887
0.0359497
0.0393436
0.0266192
0.0317932
0.028969
0.0344622
0.034554
0.0386254
0.0337405
0.0341176
0.0311125
0.0379625
0.0350482
0.0366802
0.0329493
0.0376231
0.0354718
0.0182359
0.0281003
0.0226075
0.0201924
0.0243157
0.0405734
0.039974
0.0396175
0.0357521
0.0321623
0.0395573
0.0282407
0.0330481
0.0397347
0.0400867
0.0319291
0.0360574
0.0305239
0.0148722
0.015099
0.015649
0.0149146
0.0201726
0.0177603
0.0206063
0.0133978
0.0138942
0.0177487
0.0161783
0.017499
0.0155106
0.0160596
0.0195753
0.0195646
0.0200403
0.0213606
0.0206633
0.0219402
0.019845
0.0193047
0.0189007
0.0189471
0.0198202
0.0207679
0.0333586
0.0309371
0.0284386
0.030117
0.0316806
0.0269
0.0237155
0.00377272
0.00946732
0.00384442
0.0126706
0.0130778
0.0102572
0.0218725
0.0182149
0.0246838
0.0126685
0.0123164
0.0202842
0.0160913
0.00990127
0.0107329
0.0111048
0.023997
0.0180343
0.0211739
0.00653663
0.00610381
0.00661641
0.0120315
0.00867095
0.0118027
0.00592202
0.00617054
0.00566259
0.0184401
0.0151298
0.0167113
0.0125017
0.0137241
0.0150525
0.015606
0.0145851
0.0140167
0.00693261
0.00555697
0.00371757
0.00602159
0.00596611
0.00709251
0.0102472
0.00694659
0.0104175
0.0122536
0.0115087
0.00875891
0.0150949
0.0134786
0.0140846
0.017024
0.0196005
0.00598207
0.0147955
0.00988346
0.0096083
0.0120282
0.02075
0.020806
0.0206263
0.0187001
0.0173092
0.0159778
0.0176475
0.0194659
0.0240728
0.0221814
0.0250523
0.0187292
0.0198641
0.0209318
0.0204893
0.0195204
0.0176085
0.0145006
0.0139195
0.0153074
0.0121914
0.0128902
0.011714
0.0181302
0.0155019
0.0176113
0.00982824
0.0109508
0.00929043
0.0157819
0.0133495
0.0156352
0.00948664
0.0110584
0.0114295
0.0172625
0.0148551
0.0163202
0.00718373
0.00593737
0.00656672
0.0070551
0.00658637
0.00855085
0.00712747
0.00551978
0.00778355
0.0113595
0.00940474
0.0113684
0.00521604
0.00712011
0.00665368
0.00930164
0.00843404
0.0077461
0.0134307
0.0106366
0.0132777
0.00930975
0.0100648
0.0123629
0.00615483
0.00712483
0.00481961
0.00641466
0.00528953
0.00657935
0.0159593
0.0146563
0.0167285
0.0107127
0.0125994
0.0115879
0.0152008
0.0138563
0.0138495
0.00628042
0.00466403
0.00511025
0.00788135
0.00575691
0.00625553
0.0075026
0.00658577
0.00872347
0.0127605
0.0114324
0.0119455
0.0133243
0.0122838
0.0141734
0.00903115
0.0101788
0.0092446
0.0107029
0.0105769
0.0125368
0.0132681
0.00589898
0.00909899
0.0114438
0.0101097
0.0110622
0.00758448
0.00903919
0.00808084
0.0056814
0.00763168
0.00883783
0.00788971
0.00634583
0.00669387
0.00567303
0.0058927
0.00697376
0.0267408
0.0278572
0.0207631
0.0236552
0.0251737
0.0248941
0.0253791
0.010052
0.0114538
0.018538
0.0145787
0.0161094
0.0145299
0.017851
0.0321075
0.0258363
0.0359726
0.0278419
0.0244201
0.027437
0.0213403
0.0209111
0.0198983
0.0201293
0.0218343
0.0244068
0.0178654
0.0155592
0.014978
0.0153858
0.0167224
0.013285
0.011041
0.00877892
0.00934281
0.0113307
0.00712029
0.00830953
0.00666197
0.0142209
0.0118012
0.0137486
0.00529676
0.00758493
0.00853773
0.00663455
0.00629241
0.0058209
0.00707012
0.0132418
0.0106386
0.0111073
0.0463043
0.0442614
0.0443094
0.0342462
0.0412092
0.0382596
0.0321267
0.0390873
0.0320886
0.0376293
0.0362913
0.0368088
0.0264444
0.0319419
0.0304382
0.0352305
0.0344771
0.0329733
0.00857624
0.00870051
0.00885887
0.0237186
0.0139242
0.0166757
0.0185919
0.0140922
0.0207188
0.0300735
0.0254607
0.0272712
0.0113269
0.0100253
0.00927471
0.0133783
0.0166759
0.0101111
0.0227903
0.0153104
0.00991972
0.0105396
0.0365893
0.0230654
0.0297226
0.0318266
0.0282381
0.0159705
0.0227053
0.0210168
0.0276637
0.0258709
0.0263132
0.0257561
0.0221638
0.0251718
0.022455
0.0375032
0.0269524
0.0216812
0.0224671
0.0235868
0.0253119
0.0288449
0.012201
0.013461
0.0124801
0.01954
0.0162917
0.0174931
0.018387
0.0166336
0.0205544
0.0260976
0.0238614
0.0218929
0.0465304
0.0465801
0.0378027
0.0433775
0.0377441
0.0434312
0.0361177
0.00945113
0.0138642
0.00974458
0.0242577
0.018545
0.0226528
0.0264524
0.0210683
0.0301581
0.0379441
0.0393106
0.034598
0.0361097
0.0342927
0.0348399
0.0298822
0.0319453
0.0291101
0.0332121
0.0191185
0.0185349
0.0206354
0.0136351
0.016491
0.0146312
0.0184233
0.0180811
0.0172843
0.00965239
0.00636746
0.00628399
0.00816074
0.00672616
0.00713846
0.00859733
0.00762875
0.0101959
0.00559188
0.00696997
0.00613076
0.015448
0.0118624
0.0158895
0.00860893
0.00882431
0.00870351
0.0135331
0.0126492
0.0153213
0.0395712
0.0323076
0.0356021
0.0329468
0.0263241
0.0122563
0.0135248
0.0123987
0.019137
0.0265774
0.0138269
0.0197026
0.0164304
0.0116301
0.0134951
0.0263911
0.0200937
0.0248945
0.0233923
0.0245287
0.0192188
0.0210253
0.0221479
0.0212533
0.0202105
0.0120142
0.0130812
0.0131155
0.0127427
0.0114383
0.0153084
0.0175489
0.0168086
0.0155101