# vtk DataFile Version 4.2
vtk output
ASCII
DATASET POLYDATA
POINTS 642 float
-0.862024 1.97327 -0.00431459
0.775695 1.95047 -0.00430347
-0.891956 -0.0837414 -0.00348741
0.798596 -0.0545185 -0.00358145
-0.00480835 0.154927 0.936806
-0.00450822 1.79021 0.921823
-0.00359891 0.110257 -1.09535
-0.00333717 1.8271 -1.07617
0.938634 0.996928 -0.85174
0.917179 0.99708 0.768574
-1.10019 0.997601 -0.897116
-1.07188 0.997759 0.802886
-1.07467 1.82379 0.577902
-0.848871 1.55544 0.937988
-0.581357 1.94913 0.772463
0.550539 1.94747 0.77322
-0.00677622 1.988 -0.00686257
0.55465 1.97167 -0.858939
-0.586745 1.97441 -0.857933
-0.893338 1.58973 -1.09857
-1.07656 1.82311 -0.607331
-1.12075 0.999079 -0.00537692
0.765911 1.55146 0.914865
0.919295 1.78761 0.544385
-0.847646 0.423804 0.939098
-0.000114719 0.996736 0.953016
-1.09481 0.115573 -0.611573
-1.09157 0.114257 0.581151
0.000843561 0.997324 -1.12077
-0.892251 0.390371 -1.10141
0.921039 1.78651 -0.575852
0.799872 1.58446 -1.07195
0.93539 0.157714 0.546621
0.765315 0.428289 0.916076
0.572863 -0.0536636 0.795743
-0.602457 -0.0555394 0.795331
-0.00593437 -0.100966 -0.00599401
-0.608754 -0.0840476 -0.887493
0.577585 -0.0812259 -0.888357
0.799582 0.396674 -1.07304
0.938594 0.159176 -0.57863
0.9529 0.998311 -0.00630199
-1.01541 1.9084 0.31251
-0.979946 1.91833 0.747558
-0.751859 1.98216 0.462442
-1.01138 1.31189 0.876735
-1.02332 1.77338 0.84965
-1.10124 1.49032 0.720001
-0.311704 1.89458 0.863353
-0.794751 1.87173 0.878322
-0.47979 1.69538 0.941926
-0.296147 1.98744 0.431371
-0.472747 1.98787 -0.0061514
0.30033 1.89465 0.863315
-0.00429915 1.94827 0.779355
0.443021 1.98749 -0.00601588
0.27893 1.98704 0.431946
0.689568 1.97311 0.46113
-0.295822 1.98768 -0.4597
-0.750636 1.98272 -0.487081
0.688366 1.97468 -0.48515
0.27831 1.98844 -0.460019
-0.322719 1.91108 -1.01448
-0.0043402 1.97443 -0.866141
0.312797 1.91092 -1.01464
-0.981835 1.93042 -0.815435
-1.01528 1.90845 -0.32258
-0.507022 1.7359 -1.10584
-0.828475 1.88856 -1.03161
-1.11239 1.49096 -0.783958
-1.03562 1.787 -0.994491
-1.02978 1.32463 -1.03186
-1.07482 1.83019 -0.00347603
-1.1209 0.994635 -0.50743
-1.12084 1.46876 -0.309948
-1.12053 1.46632 0.295976
-1.12086 0.997656 0.474439
0.836894 1.89826 0.732049
0.864173 1.89472 0.300617
0.454927 1.6965 0.940411
0.729728 1.86703 0.866955
0.939185 1.4611 0.680189
0.867046 1.74346 0.836127
0.8614 1.30071 0.86134
-0.46389 1.28622 0.954006
-0.00464382 1.45531 0.952454
-1.01117 0.681232 0.876761
-0.856277 0.996626 0.939588
-0.00766755 0.520761 0.953516
-0.465364 0.702595 0.953988
-0.480233 0.264017 0.946908
-1.12003 0.515134 0.29766
-1.10207 0.495399 0.71966
-1.11212 0.494421 -0.783418
-1.12021 0.514518 -0.312688
-1.02796 -0.0127122 0.321008
-1.09252 0.10634 -0.00373965
-1.02809 -0.0127422 -0.330024
-0.901693 0.997417 -1.09849
-1.02993 0.669498 -1.03213
-0.00372445 1.48266 -1.12042
-0.488391 1.30296 -1.12065
-0.507704 0.222651 -1.11156
-0.489444 0.686756 -1.12054
-0.00681191 0.495266 -1.12087
0.755755 1.87929 -1.02276
0.485014 1.73733 -1.10396
0.86428 1.89481 -0.311923
0.843131 1.90765 -0.797566
0.875563 1.31213 -1.01343
0.888394 1.75871 -0.975997
0.946651 1.46177 -0.742323
0.874982 0.00422516 0.308297
0.845104 -0.0042072 0.75057
0.715974 -0.0829414 0.481205
0.861447 0.691719 0.861421
0.873319 0.214763 0.839822
0.939938 0.522982 0.679769
0.308181 0.00292147 0.87248
0.739622 0.0382575 0.882774
0.455225 0.263227 0.945708
0.291442 -0.0999115 0.451177
0.462784 -0.099143 -0.00516067
-0.318889 0.00305745 0.872613
-0.00360912 -0.0536045 0.80186
-0.491193 -0.101004 -0.00531353
-0.306972 -0.100386 0.450569
-0.780393 -0.0924741 0.482548
0.290777 -0.100333 -0.477845
0.714811 -0.0846621 -0.503502
-0.779215 -0.0940486 -0.505482
-0.306595 -0.100708 -0.477495
0.321321 -0.0160308 -1.02742
-0.00352923 -0.0824636 -0.896058
-0.330273 -0.0160273 -1.02734
0.854154 -0.0124727 -0.820099
0.875204 0.00440389 -0.31893
0.485264 0.220771 -1.11113
0.764547 0.02232 -1.03034
0.947451 0.522293 -0.742131
0.896315 0.198114 -0.976827
0.875643 0.681139 -1.01334
0.937764 0.150555 -0.00501578
0.953739 0.993975 -0.482619
0.953334 0.539057 -0.297094
0.95362 0.540208 0.280882
0.952643 0.996987 0.447121
0.434265 0.708247 0.952828
0.771993 0.997009 0.9147
0.431304 1.28139 0.952777
-0.990949 -0.0165127 0.764434
-0.805626 0.0364291 0.894706
-1.02846 0.18111 0.855557
-0.840747 0.0158837 -1.04514
-0.996261 -0.0308499 -0.839274
-1.04611 0.16336 -0.998691
0.806173 0.997708 -1.07146
0.461417 0.692 -1.12137
0.458679 1.29916 -1.12106
0.952791 1.43972 0.278931
0.952462 1.4423 -0.294243
0.919507 1.79381 -0.00463902
-0.968052 1.94104 0.153564
-0.930164 1.95334 0.401305
-0.809218 1.97887 0.241396
-1.02738 1.89007 0.692611
-1.00213 1.91993 0.566044
-1.04128 1.88281 0.459793
-0.680006 1.97658 0.644349
-0.887573 1.96456 0.622961
-0.828416 1.94616 0.764834
-1.03738 1.157 0.853074
-1.05273 1.41533 0.834988
-1.08519 1.25461 0.763722
-0.981162 1.68214 0.895251
-1.02148 1.57338 0.869402
-0.960887 1.44876 0.907529
-1.10111 1.68828 0.663519
-1.06273 1.65565 0.815948
-1.05567 1.81159 0.783202
-0.157954 1.86626 0.889151
-0.407559 1.83939 0.903613
-0.249997 1.74462 0.935976
-0.706679 1.90816 0.847362
-0.571813 1.88592 0.870351
-0.456436 1.9164 0.836707
-0.684689 1.63554 0.944721
-0.649115 1.80959 0.913017
-0.835403 1.76911 0.91977
-1.0048 1.86828 0.819018
-0.967882 1.84555 0.866692
-0.927053 1.89552 0.837607
-0.618611 1.9868 0.229116
-0.682556 1.98651 -0.00529897
-0.442359 1.97937 0.621657
-0.536018 1.98678 0.448793
-0.243287 1.98773 -0.00669237
-0.386484 1.98793 0.222225
-0.151335 1.98855 0.21727
0.149129 1.86637 0.889026
-0.00361925 1.89256 0.867402
0.285102 1.94803 0.779604
0.151218 1.91661 0.838652
0.438432 1.91596 0.83701
-0.159736 1.91662 0.838531
-0.298076 1.94811 0.778948
0.629462 1.97979 -0.00519169
0.57532 1.9836 0.229322
0.733938 1.96444 0.240334
0.137022 1.98841 0.217457
0.363318 1.98731 0.222653
0.226067 1.98857 -0.00661248
0.632847 1.97103 0.644417
0.503426 1.98502 0.449441
0.420068 1.97933 0.622687
-0.15592 1.9797 0.629685
0.144338 1.97956 0.630104
-0.00604187 1.98783 0.432571
-0.617974 1.98702 -0.243831
-0.808531 1.97911 -0.253738
-0.151255 1.98769 -0.234329
-0.386166 1.98802 -0.238508
-0.680196 1.98474 -0.694167
-0.53542 1.98722 -0.476071
-0.442871 1.98633 -0.671745
0.733291 1.96518 -0.252476
0.574617 1.98412 -0.243592
0.419902 1.98546 -0.672462
0.502414 1.98649 -0.476207
0.632304 1.97789 -0.693381
0.362725 1.98772 -0.238687
0.136786 1.98867 -0.234404
-0.163636 1.88579 -1.04098
-0.00296856 1.90841 -1.01955
0.15689 1.88584 -1.04092
-0.301457 1.97418 -0.865118
-0.163044 1.9425 -0.967062
-0.467353 1.94193 -0.966821
0.449523 1.94105 -0.967716
0.154994 1.94237 -0.96736
0.288226 1.9738 -0.865962
-0.00616096 1.9881 -0.461637
0.144473 1.98685 -0.682362
-0.156445 1.98697 -0.682006
-0.929193 1.95377 -0.417559
-0.967788 1.9412 -0.161619
-0.832551 1.96831 -0.846522
-0.886844 1.96965 -0.66241
-1.04178 1.88258 -0.475931
-1.00238 1.92192 -0.59138
-1.03207 1.89401 -0.7367
-0.262844 1.78398 -1.09049
-0.428224 1.86512 -1.05773
-0.878878 1.80812 -1.07024
-0.684601 1.84285 -1.06986
-0.724728 1.67552 -1.10917
-0.595962 1.90408 -1.02497
-0.723219 1.93325 -0.986598
-1.10933 1.2559 -0.84249
-1.07603 1.42299 -0.960156
-1.0636 1.16137 -0.994296
-1.06899 1.81456 -0.862556
-1.08315 1.66287 -0.921436
-1.10677 1.68797 -0.710415
-0.990683 1.47278 -1.06243
-1.03872 1.59235 -1.01912
-1.00244 1.71627 -1.0452
-0.937807 1.91368 -0.976585
-0.980006 1.85796 -1.01418
-1.01504 1.88047 -0.943929
-1.01258 1.91139 -0.00304305
-1.07507 1.83005 -0.310861
-1.04128 1.88249 -0.165617
-1.04124 1.88259 0.158631
-1.07474 1.83066 0.299647
-1.11804 0.996608 -0.714973
-1.12172 1.24518 -0.651668
-1.1211 1.24842 -0.162221
-1.12145 1.24383 -0.412926
-1.12083 0.996347 -0.268723
-1.12052 1.48004 -0.562028
-1.11187 1.66385 -0.462087
-1.11367 1.24457 0.604204
-1.10963 0.99739 0.65985
-1.11083 1.66504 0.441177
-1.11795 1.47952 0.528425
-1.12109 0.999168 0.257933
-1.12069 1.24261 0.391426
-1.12108 1.24706 0.153445
-1.1111 1.67287 -0.162155
-1.12082 1.47208 -0.00529241
-1.11098 1.67312 0.152289
0.81779 1.93251 0.394503
0.840055 1.91744 0.149927
0.754957 1.93112 0.762981
0.792977 1.93914 0.617117
0.887223 1.8646 0.436042
0.855549 1.90114 0.547216
0.873736 1.87434 0.65923
0.237231 1.74495 0.93569
0.390712 1.83994 0.902876
0.756644 1.76613 0.90186
0.610799 1.81008 0.90874
0.635808 1.63646 0.937844
0.545804 1.88516 0.868772
0.66308 1.90301 0.844146
0.932395 1.24 0.725976
0.899508 1.39366 0.812806
0.884743 1.15017 0.836268
0.902286 1.77659 0.748467
0.906526 1.61943 0.786682
0.938508 1.6485 0.624131
0.834115 1.43819 0.882929
0.86746 1.5487 0.852887
0.842944 1.66765 0.871314
0.806761 1.87874 0.825492
0.826252 1.83318 0.848182
0.847598 1.85687 0.8065
-0.24148 1.58168 0.950154
-0.00524367 1.63615 0.945906
-0.666324 1.42172 0.953882
-0.473078 1.50871 0.953796
-0.00121069 1.24578 0.953066
-0.237566 1.37956 0.953022
-0.240539 1.14791 0.953111
-1.03727 0.838288 0.853048
-1.01651 0.997866 0.874146
-0.8545 0.703138 0.939589
-0.960125 0.839563 0.908728
-0.960098 0.539313 0.907911
-0.96043 1.15463 0.908613
-0.855669 1.28759 0.939293
-0.00611086 0.327183 0.951809
-0.242296 0.387758 0.95345
-0.250855 0.208126 0.942879
-0.243345 0.842051 0.953194
-0.241532 0.605391 0.953612
-0.00399765 0.746133 0.953187
-0.685007 0.333562 0.948581
-0.472825 0.470625 0.953486
-0.665291 0.564117 0.954086
-0.679693 1.14485 0.953779
-0.6782 0.845101 0.95393
-0.472673 0.993573 0.953779
-1.1135 0.74776 0.604858
-1.08501 0.738715 0.763598
-1.12059 0.747244 0.15323
-1.12033 0.75133 0.394841
-1.10637 0.279473 0.663297
-1.11831 0.503853 0.531074
-1.11544 0.299893 0.442399
-1.10945 0.737041 -0.84163
-1.12145 0.74641 -0.649947
-1.11609 0.302028 -0.462611
-1.11983 0.50442 -0.561849
-1.11249 0.279075 -0.710771
-1.12107 0.747248 -0.41543
-1.12064 0.744245 -0.166628
-0.990044 -0.0464207 0.159105
-1.02567 -0.0183722 -0.00259885
-0.989927 -0.0466061 -0.165743
-1.09249 0.10628 0.301997
-1.05723 0.0216578 0.161511
-1.05653 0.0233085 0.467295
[...]
POINT_DATA 642
SCALARS CoVolArea float 1
LOOKUP_TABLE default
0.0326438
0.0242819
0.0333622
0.0235584
0.0314191
0.0261605
0.0324129
0.0255489
0.0322551
0.0244819
0.0335676
0.0234676
0.0267523
0.0353981
0.0285819
0.0252761
0.057035
0.0345736
0.0388244
0.0359742
0.0305494
0.0706484
0.0265335
0.0276179
0.0381376
0.0631193
0.0382328
0.0335672
0.0706527
0.0391422
0.0309641
0.0255341
0.0334946
0.028623
0.0245714
0.0280547
0.0618368
0.0394018
0.0347422
0.027823
0.0374864
0.0631693
0.0161297
0.013623
0.0403572
0.0154164
0.00963929
0.0346367
0.0124013
0.0143869
0.0365924
0.0533292
0.0521478
0.0118599
0.0326136
0.0478492
0.0513368
0.032756
0.0578584
0.0436136
0.0354618
0.0556724
0.0159149
0.0434854
0.0152357
0.0194216
0.0168421
0.0387696
0.0137857
0.0437786
0.0132644
0.0174088
0.0347119
0.0566317
0.0584473
0.0562548
0.0505126
0.00862257
0.011638
0.0341993
0.00977105
0.0331228
0.00982897
0.0113787
0.0555869
0.0461671
0.0158391
0.0425541
0.0499708
0.055879
0.0415917
0.0610159
0.0362281
0.0460335
0.0619594
0.0166397
0.0431449
0.0174111
0.0446071
0.017955
0.0517056
0.0622023
0.0453083
0.0625158
0.0560164
0.00902425
0.0360722
0.0121911
0.0128969
0.016749
0.0154936
0.0400489
0.0145477
0.00852411
0.0336432
0.0117094
0.012716
0.0346014
0.0155984
0.0135551
0.0386172
0.0555316
0.0516992
0.0162947
0.031913
0.0564862
0.0576391
0.0427243
0.0603344
0.0364871
0.0462417
0.0626483
0.0168039
0.0447064
0.0175666
0.013017
0.0152067
0.0420556
0.0114774
0.0421372
0.0194607
0.0172372
0.0414971
0.05048
0.0553949
0.0545017
0.0449127
0.0507332
0.0329399
0.0491874
0.0121362
0.019214
0.012652
0.0174713
0.0182119
0.0175306
0.0320952
0.0570719
0.0554231
0.0501749
0.0522483
0.0349914
0.0271737
0.0299447
0.0403213
0.012161
0.0170055
0.0148442
0.0356707
0.0284476
0.0230783
0.0164665
0.0201057
0.031668
0.0200469
0.0139875
0.0235842
0.0327795
0.0200188
0.0162672
0.0199281
0.0241199
0.0340046
0.0153079
0.014051
0.0150735
0.0364352
0.0260428
0.0265686
0.00723917
0.0123131
0.0112129
0.0485654
0.0466804
0.0441817
0.046433
0.0532513
0.0520194
0.0574562
0.019599
0.0111296
0.0310736
0.0153697
0.0139035
0.0156558
0.0323494
0.0397829
0.0426475
0.0313629
0.056516
0.04888
0.0513875
0.0303017
0.0419407
0.0412807
0.0513802
0.0504828
0.0597911
0.0501249
0.0414523
0.0594293
0.0537573
0.0419371
0.0503243
0.0514403
0.0322822
0.0440213
0.0480915
0.045462
0.0358014
0.0504979
0.0584403
0.0183423
0.0150509
0.0180339
0.0431924
0.0258292
0.0243789
0.0225313
0.025383
0.0415199
0.0648282
0.0584842
0.059514
0.0318977
0.0276138
0.0321586
0.0333022
0.0161566
0.0195485
0.0164423
0.0346852
0.0231052
0.0238397
0.0251499
0.039331
0.0160069
0.0232426
0.0423087
0.0301911
0.0263491
0.023158
0.0291596
0.0393534
0.0218854
0.0174557
0.0176443
0.0164431
0.0106506
0.011854
0.0151535
0.0346021
0.0161112
0.0158216
0.0332552
0.0492561
0.0524253
0.0669418
0.0586056
0.0627368
0.0512554
0.0486702
0.0456534
0.0417356
0.0456155
0.0460043
0.0594899
0.053338
0.0654698
0.0559016
0.0653215
0.0552296
0.0203958
0.0173693
0.016711
0.0200092
0.0158761
0.0114875
0.0131616
0.0331597
0.0226167
0.0188337
0.0221907
0.0313828
0.0122161
0.0115535
0.0315314
0.0211686
0.0178942
0.0190098
0.0213943
0.0313586
0.0146507
0.0118202
0.0128339
0.00651154
0.00761317
0.00745683
0.0430515
0.0398187
0.0470292
0.0446133
0.0535476
0.0503449
0.0630193
0.0166278
0.0152527
0.0421938
0.0265016
0.0248282
0.026175
0.0411649
0.0434916
0.0466518
0.0394786
0.063295
0.0526883
0.0560275
0.0403555
0.0475995
0.0487687
0.0562141
0.0563012
0.064568
0.0462378
0.0321381
0.0687945
0.0550637
0.0369588
0.0485997
0.0511516
0.0430697
0.0528577
0.0544306
0.0538119
0.0443594
0.0588622
0.0691603
0.0261082
0.0159221
0.026541
0.0412612
0.0222579
0.020059
0.0219432
0.0226836
0.0429728
0.0705989
0.0622776
0.0617847
0.0165409
0.026655
0.0430647
0.023918
0.023255
0.0242414
0.0442382
0.0435777
0.0479026
0.0702193
0.0563384
0.0599737
0.0501075
0.0526015
0.0420838
0.0522342
0.0486091
0.0545975
0.0533096
0.0441983
0.0625162
0.0587958
0.0704635
0.0627982
0.0719214
0.0629869
0.021559
0.0338314
0.0181087
0.0136419
0.0327283
0.0206457
0.0161189
0.0176987
0.0218136
0.0170602
0.0132639
0.0171867
0.0236924
0.0240445
0.0280135
0.030853
0.0394361
0.0124085
0.0181198
0.0140566
0.0365412
0.0299447
0.0255919
0.010618
0.0123888
0.00766518
0.0164962
0.0197586
0.0314019
0.0179402
0.0129739
0.021967
0.0309446
0.0190282
0.0149561
0.0180835
0.0220487
0.0320327
0.0152633
0.0129207
0.0154052
0.0346202
0.0237548
0.023993
0.0265454
0.029191
0.0384394
0.0113825
0.0165651
0.0136112
0.0346136
0.0278754
0.0230836
0.01053
0.0108701
0.0067048
0.0456564
0.041913
0.0435302
0.0451279
0.0557853
0.05304
0.0613068
0.0269975
0.0146646
0.0318151
0.0147002
0.0148185
0.0144328
0.0305591
0.0499607
0.0523804
0.0419994
0.0622938
0.0564633
0.0577676
0.0372024
0.0501449
0.0466205
0.0532991
0.0542207
0.0645251
0.0470742
0.0322761
0.0633724
0.0547543
0.0373532
0.0489868
0.0515428
0.0431632
0.0540168
0.0551743
0.0544554
0.0445859
0.0582945
0.0644008
0.0248886
0.0161702
0.0253224
0.0426324
0.0240878
0.0215209
0.0234528
0.0244999
0.0443484
0.0701053
0.0637964
0.0627289
0.0211634
0.0167894
0.0222337
0.0230966
0.0238008
0.0151397
0.0228312
0.0409589
0.028448
0.0205034
0.0266815
0.0368765
0.0160779
0.0165828
0.0401351
0.0321082
0.0283388
0.0317183
0.0330736
0.0405378
0.0148416
0.0197843
0.0151372
0.00984104
0.0108466
0.0163512
0.0144225
0.0413281
0.0251622
0.0246939
0.0398137
0.0439058
0.0471554
0.0620589
0.0527268
0.0561994
0.0481493
0.0487569
0.0415607
0.0383821
0.0458604
0.0432307
0.0531162
0.0490552
0.061731
0.0557856
0.0633575
0.0554554
0.0458887
0.0425702
0.0443305
0.0513977
0.0585612
0.0105956
0.0317288
0.01597
0.0161568
0.0325129
0.04219
0.057242
0.0477468
0.0413629
0.04089
0.0492317
0.048864
0.0567345
0.0294048
0.0213689
0.0276568
0.0164417
0.0155612
0.0310582
0.0319242
0.0324777
0.0189852
0.0154018
0.0209475
0.0211387
0.0226727
0.0154018
0.0234155
0.0112791
0.0163952
0.00930812
0.0304195
0.0222171
0.0190818
0.0321854
0.02971
0.0314067
0.0210578
0.0194285
0.0331577
0.0307109
0.031484
0.0216088
0.019559
0.0328358
0.0295095
0.015415
0.0147176
0.0146515
0.0156153
0.0318289
0.0147064
0.0145382
0.0310601
0.0515416
0.0656584
0.057682
0.0498331
0.0462935
0.0470256
0.0444547
0.0464174
0.0537501
0.0642959
0.0536674
0.063752
0.0532783
0.040971
0.0586041
0.0474083
0.0409566
0.0416586
0.0467241
0.0444577
0.0458348
0.0523843
0.0598987
0.0110407
0.0334817
0.0176291
0.0179553
0.0347376
0.0585226
0.0509705
0.0503893
SCALARS SignedDistance float 1
LOOKUP_TABLE default
0.017771
0.0344413
0.0174627
0.0406177
0.0169223
0.0279152
0.0197119
0.0379829
0.0186461
0.0324554
0.0153781
0.0417756
0.0393902
0.0181284
0.0357865
0.0372648
0.031373
0.0163821
0.0189381
0.0162022
0.0377221
0.507032
0.034617
0.0303025
0.0191292
0.504543
0.0201395
0.0231547
0.504114
0.0166974
0.0287434
0.0417215
0.0156971
0.0335304
0.0413974
0.0397742
0.0333031
0.0177655
0.0152046
0.0408026
0.0187387
0.507209
0.0641985
0.0631185
0.0261289
0.0636468
0.0709229
0.0164968
0.0655231
0.0648618
0.0217862
0.0309552
0.031271
0.0654926
0.0366214
0.0310011
0.0305572
0.0176681
0.0310467
0.0265539
0.0191561
0.031846
0.0632458
0.0188764
0.0632839
0.0521281
0.0642099
0.0209344
0.0659187
0.026976
0.0713983
0.0623407
0.0392911
0.177466
0.0871382
0.0890579
0.0538445
0.0731409
0.0650911
0.020373
0.0725169
0.0191374
0.0715855
0.0656343
0.210903
0.0975292
0.0638428
0.0195566
0.180988
0.217608
0.0264293
0.169268
0.0172904
0.026621
0.175702
0.0629917
0.0225379
0.0629401
0.0165419
0.0621815
0.0743361
0.191389
0.0260908
0.194712
0.157643
0.0732262
0.0190298
0.0650139
0.0663891
0.0637274
0.0582493
0.0261698
0.0635871
0.0727656
0.0167002
0.0656619
0.0669527
0.0199614
0.0643736
0.0634362
0.0253208
0.0323824
0.0316049
0.0643527
0.0415045
0.033359
0.0328489
0.0254869
0.0326889
0.0183213
0.0269548
0.0330584
0.0619461
0.0160513
0.0619741
0.0658735
0.0635369
0.0257835
0.0738064
0.0269458
0.0511909
0.0636082
0.0178463
0.200722
0.198578
0.191859
0.0759781
0.088001
0.0349158
0.0907127
0.0724588
0.0526125
0.0666993
0.0629572
0.0604732
0.0631689
0.0422179
0.0658398
0.0681052
0.11236
0.109812
0.0302667
0.0429053
0.0318101
0.022964
0.0672952
0.0593262
0.0634737
0.0208731
0.0202406
0.0382934
0.0638151
0.0574555
0.0297611
0.0521391
0.0641584
0.0412606
0.0163505
0.0501637
0.0566077
0.0566001
0.0448447
0.0162577
0.065115
0.0652857
0.0628238
0.0243977
0.03649
0.0294886
0.083519
0.0745926
0.0745232
0.0302999
0.0301291
0.023356
0.0303714
0.0311043
0.0313325
0.0319482
0.0567021
0.0645266
0.0367758
0.0622334
0.0631514
0.0622387
0.0367646
0.0237973
0.0273451
0.0208975
0.0318129
0.0307356
0.0319679
0.0157099
0.0286797
0.0233845
0.0237198
0.0235771
0.0313271
0.0305356
0.0232289
0.0310656
0.0314301
0.0285592
0.0306853
0.0299159
0.0201843
0.0278876
0.0290693
0.030072
0.0221112
0.0311363
0.0320656
0.0627432
0.0629053
0.0627623
0.0186753
0.0415825
0.0421958
0.0429722
0.0416671
0.0182337
0.0314958
0.0304276
0.0305552
0.0314384
0.0427784
0.0167718
0.0157182
0.0633621
0.0576715
0.0641603
0.024511
0.0537882
0.0437575
0.0436918
0.0239757
0.0630531
0.0497285
0.0240604
0.0383018
0.0485125
0.044594
0.0313383
0.0216413
0.0501618
0.0627775
0.0628916
0.067389
0.083847
0.0760231
0.0636702
0.0390297
0.0636597
0.0636606
0.0393599
0.0323209
0.0439155
0.298213
0.260578
0.411712
0.0727949
0.0264331
0.0281112
0.0243828
0.0253886
0.0322298
0.259631
0.130203
0.29678
0.0256804
0.0840034
0.0255463
0.0506039
0.0609293
0.0522975
0.0446405
0.0588856
0.0656643
0.0667152
0.0159819
0.045527
0.0465226
0.0403816
0.0180424
0.066288
0.0683171
0.0173494
0.0486114
0.0596037
0.0462265
0.0422771
0.0187129
0.0619362
0.0661101
0.066937
0.0864334
0.0843506
0.0854797
0.0295319
0.0254463
0.0333467
0.0498875
0.299754
0.169936
0.388522
0.0638704
0.0634494
0.0195657
0.0402259
0.0410112
0.0403113
0.0193485
0.0312179
0.056324
0.0226422
0.431394
0.262993
0.400717
0.0280554
0.131624
0.0335042
0.0331271
0.033318
0.210318
0.0279332
0.0299117
0.355702
0.126834
0.0213962
0.0325683
0.0297893
0.0242198
0.045202
0.0303754
0.117724
0.0270424
0.267204
0.399379
0.0476538
0.0615824
0.0475013
0.0225359
0.0538681
0.0547292
0.0538343
0.0537096
0.021941
0.168852
0.0300094
0.0296867
0.0611696
0.0482535
0.0167502
0.0498233
0.0492578
0.0494814
0.0157777
0.025051
0.0297305
0.378668
0.149399
0.285571
0.0349947
0.0320715
0.0227693
0.0357969
0.031478
0.0324811
0.10414
0.0283165
0.38788
0.243478
0.419499
0.0313265
0.187039
0.0314736
0.0543852
0.0247947
0.0565011
0.0640898
0.0173199
0.0473194
0.0569455
0.0607095
0.0498418
0.0629325
0.0649195
0.0583611
0.0413058
0.0380947
0.0410113
0.0292788
0.0234608
0.0664951
0.0573845
0.0632534
0.0229274
0.0177779
0.0313672
0.0788231
0.0736964
0.0829201
0.0633673
0.0560075
0.0283823
0.0567826
0.0641555
0.043633
0.0154499
0.0494268
0.0581632
0.0594764
0.0482118
0.0172449
0.0650997
0.0655818
0.0616354
0.0222017
0.040417
0.0366585
0.0437078
0.0329739
0.0223712
0.0673149
0.059945
0.0635195
0.0213964
0.0211942
0.0370603
0.0786364
0.0759593
0.0840461
0.0279918
0.0233099
0.0239957
0.0302827
0.0327765
0.0325276
0.0337388
0.043543
0.0637771
0.0412972
0.0636229
0.0633205
0.0636185
0.0415772
0.0318922
0.0319769
0.0227845
0.032867
0.0333135
0.0331569
0.0203493
0.0321532
0.0249218
0.0240931
0.0243057
0.0320309
0.0273734
0.0283879
0.0328796
0.032565
0.0229838
0.0316899
0.0314188
0.0231655
0.032294
0.0312315
0.032453
0.028448
0.0335596
0.03314
0.0509622
0.0609185
0.0508402
0.0163534
0.0471927
0.0477912
0.0470163
0.0471114
0.0165564
0.0333709
0.0317925
0.0316161
0.0554827
0.0633829
0.0449955
0.0457124
0.0426376
0.0632423
0.0504035
0.0224586
0.0405835
0.0492199
0.0359057
0.0202563
0.0630893
0.062793
0.0236717
0.0288681
0.0408685
0.0173106
0.0153582
0.0281121
0.0632057
0.0562739
0.06458
0.0828852
0.0771084
0.0670549
0.0633638
0.0187569
0.0423074
0.0424512
0.0182867
0.0325991
0.0726798
0.41153
0.28649
0.42389
0.145301
0.0322444
0.0288705
0.0240119
0.0318728
0.0332158
0.273592
0.146919
0.364145
0.0315248
0.191912
0.031355
0.0553992
0.024313
0.0761228
0.255363
0.285215
0.0648518
0.0349343
0.0614394
0.0613665
0.034688
0.0294362
0.285871
0.176488
0.04459
0.0239792
0.0234202
0.0233651
0.0861518
0.0378714
0.0461735
0.0313388
0.0634107
0.0658696
0.0323957
0.0172345
0.016191
0.0581307
0.0642108
0.0572505
0.0482104
0.0477721
0.0636387
0.0485286
0.0754413
0.0662554
0.0838481
0.0400261
0.0545242
0.0616991
0.0299674
0.024118
0.0372068
0.0589561
0.0619287
0.0254447
0.0218164
0.0378348
0.0564542
0.0616894
0.0272594
0.0259864
0.0750793
0.0761269
0.0772552
0.0636373
0.0421457
0.063549
0.0635648
0.0423532
0.0358988
0.27211
0.238019
0.0505366
0.0252239
0.0294445
0.0245523
0.0325921
0.15556
0.272585
0.0255738
0.0642645
0.0255683
0.0287914
0.307952
0.150229
0.0320102
0.0254881
0.0713148
0.0255946
0.0952854
0.277848
0.311401
0.06464
0.0302038
0.0584307
0.0583272
0.0299491
0.106525
0.0247157
0.0246912
