# vtk DataFile Version 4.2
vtk output
ASCII
DATASET POLYDATA
POINTS 642 double
-0.270393 1.60899 -0.037991
0.601275 2.06249 -0.0302771
-1.00593 0.0252698 -0.0406017
0.128159 0.43011 -0.0395357
-0.266864 0.590248 0.381541
-0.0218311 1.56488 0.412163
-0.297883 0.567438 -0.522381
0.00273348 1.56997 -0.520212
0.757752 1.27575 -0.440835
0.771288 1.26326 0.384995
-1.18335 0.838459 -0.45659
-1.14624 0.851819 0.343098
-0.791179 1.14374 0.120669
-0.587459 1.15587 0.382066
-0.175299 1.72006 0.273363
0.345432 1.96006 0.347054
0.0938806 2.08136 -0.0345356
0.359779 1.9751 -0.431969
-0.168021 1.71145 -0.34703
-0.57936 1.12441 -0.456392
-0.790137 1.13671 -0.207069
-1.35687 0.822048 -0.0445476
0.392799 1.45999 0.385218
0.846124 1.76062 0.234068
-0.72586 0.680641 0.355891
-0.156229 1.05274 0.391457
-1.24555 0.366032 -0.299384
-1.18946 0.406348 0.173256
-0.158675 1.04113 -0.52692
-0.795625 0.625889 -0.513523
0.857728 1.7717 -0.305066
0.429245 1.48804 -0.518821
0.509676 0.811999 0.170053
0.264656 0.903033 0.383506
-0.0354752 0.36879 0.294146
-0.681621 0.229361 0.283853
-0.436106 0.133745 -0.0448217
-0.717955 0.201722 -0.400692
-0.0578438 0.386716 -0.372299
0.259974 0.906165 -0.5024
0.503135 0.813961 -0.247682
0.848635 1.32032 -0.0339497
-0.484011 1.37366 0.0308368
-0.446731 1.39537 0.189067
-0.227465 1.66714 0.0949037
-0.915199 0.980071 0.374013
-0.715414 1.16018 0.273689
-1.06557 1.01013 0.251205
-0.116986 1.68666 0.426493
-0.383659 1.41785 0.334962
-0.265675 1.39079 0.413843
-0.0233674 1.95402 0.153056
-0.107201 1.83671 -0.03687
0.139864 1.74997 0.396892
0.0572404 1.94955 0.354271
0.366221 2.09719 -0.0322079
0.22311 2.09565 0.186413
0.507769 2.05199 0.169146
-0.0205924 1.94843 -0.224538
-0.226673 1.66364 -0.171948
0.509511 2.05045 -0.233586
0.22507 2.0887 -0.252882
-0.0917036 1.67511 -0.48388
0.0707066 1.94489 -0.423298
0.173447 1.77785 -0.51268
-0.442996 1.38636 -0.269518
-0.48355 1.37134 -0.113956
-0.245826 1.36825 -0.486559
-0.369133 1.39673 -0.403003
-1.06093 0.982953 -0.331887
-0.712306 1.1403 -0.353476
-0.92264 0.943643 -0.454413
-0.81739 1.13498 -0.0438389
-1.3045 0.825742 -0.283736
-1.13616 0.986474 -0.143765
-1.13814 0.993246 0.0548257
-1.29074 0.837165 0.191817
0.617179 1.88967 0.310313
0.758711 1.96821 0.101546
0.158725 1.53029 0.395039
0.394801 1.71876 0.376182
0.830734 1.50236 0.320292
0.639956 1.63302 0.357769
0.615266 1.36755 0.38811
-0.379955 1.11261 0.399752
-0.0835185 1.33173 0.403023
-0.96883 0.767984 0.343127
-0.68963 0.917141 0.384627
-0.222064 0.783261 0.385797
-0.446351 0.854546 0.385219
-0.465362 0.618446 0.371118
-1.36763 0.582872 0.0852746
-1.18341 0.664944 0.256417
-1.25789 0.616537 -0.402336
-1.38787 0.571668 -0.177631
-1.12603 0.17076 0.0707489
-1.30719 0.338226 -0.0446492
-1.14586 0.151309 -0.165429
-0.719803 0.878425 -0.504744
-1.02602 0.714118 -0.494731
-0.0654032 1.3165 -0.520921
-0.384214 1.08759 -0.510174
-0.536224 0.581824 -0.520299
-0.487358 0.829148 -0.524941
-0.244337 0.780645 -0.528134
0.437866 1.75867 -0.505444
0.204036 1.54689 -0.52513
0.758913 1.96716 -0.163145
0.638524 1.91086 -0.398839
0.628023 1.39066 -0.495935
0.67768 1.67064 -0.475592
0.83331 1.51199 -0.391243
0.319583 0.590644 0.0583786
0.27074 0.579258 0.253754
0.0575427 0.3887 0.118596
0.546797 1.10292 0.380254
0.431353 0.830195 0.338332
0.667695 1.05436 0.277228
-0.166113 0.470406 0.380819
0.148137 0.625169 0.371016
-0.0381953 0.712044 0.387779
-0.256408 0.211634 0.136547
-0.118414 0.273186 -0.0432576
-0.445884 0.422415 0.358797
-0.370117 0.245881 0.302231
-0.75112 0.0496404 -0.044357
-0.581354 0.115503 0.146224
-0.880871 0.0891088 0.140174
-0.265223 0.219093 -0.22356
0.0494401 0.393272 -0.202511
-0.896398 0.074247 -0.234383
-0.591473 0.119598 -0.235152
-0.187287 0.460168 -0.482392
-0.395824 0.249544 -0.389539
-0.501805 0.383638 -0.483604
0.25375 0.591469 -0.332006
0.315731 0.593081 -0.139172
-0.041738 0.712267 -0.515905
0.131086 0.634624 -0.460513
0.654082 1.06101 -0.346948
0.417173 0.837584 -0.419753
0.537744 1.11039 -0.472832
0.526046 0.816554 -0.0387724
0.832724 1.30358 -0.261678
0.69746 1.06018 -0.142977
0.700026 1.06041 0.070197
0.839284 1.301 0.194324
0.0584385 0.981739 0.38674
0.347163 1.18412 0.388348
0.127253 1.26166 0.389736
-0.952788 0.291449 0.233749
-0.723277 0.448141 0.326891
-0.974662 0.53395 0.288053
-0.798901 0.388887 -0.481086
-1.01363 0.236473 -0.381059
-1.06174 0.462955 -0.460582
0.356037 1.19168 -0.517818
0.0621637 0.980828 -0.526047
0.15073 1.26035 -0.52589
0.91786 1.56665 0.0961507
0.916009 1.56801 -0.160485
0.915977 1.79968 -0.0311722
-0.333297 1.53066 -0.0120123
-0.327955 1.53511 0.0596595
-0.256228 1.62794 0.00656618
-0.607277 1.25446 0.151831
-0.470035 1.38241 0.109163
-0.627969 1.24488 0.073054
-0.199463 1.7007 0.185814
-0.311774 1.54783 0.146483
-0.290183 1.56254 0.229696
-1.05929 0.9049 0.365857
-1.00359 1.00782 0.331854
-1.16512 0.946331 0.354
-0.658495 1.1612 0.333846
-0.838713 1.07268 0.329011
-0.756308 1.05902 0.37647
-0.937386 1.06301 0.178402
-0.894587 1.0703 0.260415
-0.759176 1.15249 0.200917
-0.0542706 1.61039 0.418031
-0.183604 1.54903 0.430117
-0.104473 1.51236 0.418234
-0.266808 1.57364 0.308075
-0.240695 1.57551 0.380347
-0.153225 1.71965 0.355301
-0.422377 1.27197 0.399261
-0.339323 1.41457 0.392496
-0.491736 1.28344 0.359584
-0.577046 1.26664 0.228464
-0.539306 1.27837 0.298716
-0.417335 1.40868 0.265355
-0.164441 1.75598 0.0363825
-0.217219 1.68545 -0.0376359
-0.0900965 1.84699 0.222348
-0.121061 1.81031 0.126738
-0.0112272 1.97737 -0.0356498
-0.0635326 1.90757 0.0530085
0.0350817 2.03325 0.0667375
0.0376523 1.6338 0.408974
0.0156287 1.73438 0.415071
0.200072 1.96707 0.353757
0.107898 1.85867 0.390025
0.241558 1.85924 0.377042
-0.0316701 1.82946 0.400547
-0.0665166 1.85986 0.317741
0.510575 2.07428 -0.0309769
0.438465 2.08162 0.0714734
0.5694 2.06216 0.0497454
0.155795 2.1043 0.0758129
0.29536 2.10655 0.0777414
0.225542 2.1143 -0.0332989
0.434601 2.02452 0.272662
0.368613 2.08355 0.184057
0.29107 2.0497 0.284294
0.0087332 1.97986 0.260463
0.141668 2.04551 0.284455
0.0836856 2.06148 0.176605
-0.164353 1.754 -0.111399
-0.256034 1.62692 -0.0829153
0.0365628 2.02936 -0.136904
-0.0629954 1.90492 -0.125721
-0.19708 1.69476 -0.261933
-0.120133 1.80583 -0.200963
-0.0853087 1.83967 -0.294867
0.5697 2.06141 -0.111583
0.438748 2.08048 -0.135165
0.295646 2.04751 -0.352896
0.369857 2.0798 -0.249392
0.440052 2.02628 -0.342499
0.295973 2.104 -0.143323
0.156989 2.09967 -0.143651
-0.0322427 1.61327 -0.511902
0.0379357 1.7431 -0.50264
0.0679294 1.65031 -0.520479
-0.0531754 1.84901 -0.38721
-0.0099913 1.81685 -0.460778
-0.138138 1.70868 -0.425016
0.269849 1.8897 -0.485539
0.129209 1.87554 -0.481567
0.213566 1.98026 -0.43736
0.0879323 2.0528 -0.245216
0.148149 2.03871 -0.351633
0.0179553 1.97039 -0.32954
-0.32772 1.53224 -0.13937
-0.333332 1.52985 -0.0661087
-0.285788 1.55379 -0.306383
-0.31026 1.54231 -0.225809
-0.627181 1.24079 -0.158365
-0.468473 1.37727 -0.192043
-0.605413 1.24653 -0.235491
-0.0859591 1.50333 -0.50945
-0.158874 1.53277 -0.487593
-0.478407 1.25587 -0.428244
-0.316431 1.38781 -0.451859
-0.40668 1.24317 -0.468215
-0.216864 1.5547 -0.441012
-0.256182 1.56044 -0.379508
-1.15414 0.90948 -0.412467
-1.00178 0.970494 -0.404425
-1.08466 0.877616 -0.458664
-0.757491 1.13989 -0.284585
-0.89063 1.04878 -0.33991
-0.934751 1.05103 -0.262972
-0.754453 1.02313 -0.451877
-0.832112 1.0401 -0.40353
-0.65368 1.13568 -0.410948
-0.40949 1.3943 -0.340857
-0.531212 1.25728 -0.373232
-0.573061 1.25305 -0.308351
-0.488189 1.3702 -0.0413041
-0.81042 1.13472 -0.125826
-0.637943 1.23818 -0.0810261
-0.638138 1.23945 -0.00452745
-0.810915 1.13785 0.0383435
-1.24668 0.835722 -0.395239
-1.21182 0.919228 -0.319409
-1.27178 0.913679 -0.100379
-1.25221 0.916236 -0.210667
-1.34376 0.821484 -0.166217
-1.10751 0.986382 -0.241277
-0.966579 1.05156 -0.177367
-1.22087 0.942069 0.234381
-1.22147 0.846993 0.296541
-0.968351 1.05779 0.0898486
-1.11216 1.00247 0.154252
-1.33947 0.827966 0.07761
-1.25542 0.927271 0.122086
-1.27264 0.916995 0.0108423
-0.983163 1.0524 -0.0888364
-1.14591 0.9878 -0.0446836
-0.983725 1.0543 0.000441659
0.641493 2.02261 0.143308
0.668895 2.03204 0.0213269
0.482735 1.93089 0.330714
0.57403 1.99298 0.255472
0.819668 1.87989 0.17441
0.707445 1.94578 0.223395
0.742548 1.83452 0.279661
0.0454405 1.55425 0.405082
0.153872 1.63982 0.396825
0.398737 1.59058 0.380868
0.275929 1.62203 0.387258
0.275462 1.49801 0.387753
0.265817 1.74261 0.38459
0.378267 1.8433 0.367951
0.802663 1.36299 0.36177
0.730307 1.4386 0.374267
0.710952 1.31156 0.392498
0.751862 1.7045 0.315191
0.747933 1.57431 0.345865
0.845632 1.63174 0.279534
0.507482 1.41672 0.38556
0.631769 1.49963 0.375812
0.518736 1.54966 0.377573
0.509183 1.81003 0.354481
0.519879 1.68123 0.367412
0.636127 1.76396 0.338677
-0.176594 1.3623 0.410247
-0.0406837 1.48269 0.409631
-0.489488 1.13674 0.399481
-0.329098 1.24865 0.406276
-0.120792 1.19041 0.396745
-0.226315 1.22115 0.40259
-0.26725 1.08452 0.396132
-1.07847 0.817067 0.343188
-0.952692 0.872708 0.366425
-0.714056 0.79817 0.371304
-0.836252 0.834873 0.369237
-0.850217 0.721228 0.348334
-0.807405 0.948142 0.384635
-0.65005 1.03563 0.390155
-0.253433 0.656628 0.383501
-0.340689 0.693498 0.380434
-0.336269 0.59947 0.378224
-0.300586 0.951594 0.390432
-0.326245 0.820019 0.384917
-0.18968 0.91731 0.387557
-0.597097 0.646351 0.363638
-0.462661 0.729637 0.377441
-0.589172 0.763586 0.37422
-0.53649 1.0103 0.393971
-0.568995 0.886309 0.385024
-0.418418 0.982586 0.392878
-1.25364 0.74497 0.234727
-1.16527 0.780999 0.305346
-1.39399 0.702146 0.021047
-1.34328 0.718069 0.143335
-1.19529 0.534374 0.216907
-1.2855 0.616763 0.188492
-1.29105 0.484454 0.1358
-1.22633 0.749933 -0.440917
-1.3059 0.721346 -0.35195
-1.33299 0.459046 -0.243469
-1.33765 0.588041 -0.303211
-1.26448 0.487509 -0.355739
-1.36848 0.705429 -0.23736
-1.39901 0.698221 -0.10935
-1.06757 0.0675183 0.00914937
-1.15714 0.144383 -0.0431124
-1.07223 0.0625653 -0.0921211
-1.26815 0.360905 0.0779815
-1.22331 0.245976 0.017893
-1.16582 0.284719 0.12501
[...]
POINT_DATA 642
SCALARS Mean_Curvature double 1
LOOKUP_TABLE default
-0.495265
6.23344
10.9275
1.97973
0.339473
-0.0784798
2.73966
2.67243
13.0595
18.2476
13.9146
7.92675
0.217929
8.03993
1.58725
5.09552
4.50294
4.66195
2.20891
3.4776
0.558369
4.5057
0.0835656
5.07771
0.221265
-0.0269631
3.15047
2.56564
0.372711
0.984698
4.85497
0.446769
1.6528
0.880417
5.36515
3.78573
1.9708
3.86258
3.53394
1.94945
2.44218
0.804061
0.108457
0.426674
0.308575
8.04049
2.6201
2.20729
12.0995
4.02611
3.5501
1.2357
-0.471451
0.463694
8.32864
0.711022
4.58744
2.50039
1.58221
0.396505
1.8876
4.07828
6.40145
6.30735
2.52599
0.998503
0.20676
2.07904
4.2864
2.34577
2.91129
4.56503
0.229778
4.04944
1.4385
1.26199
5.91785
4.07581
3.95534
-0.0515361
0.540609
7.1141
1.08497
0.662857
0.332855
-0.0369347
0.456611
0.536934
0.0249676
0.0783146
0.13081
5.27699
1.34859
4.24583
4.20096
4.0048
4.15004
3.77657
1.5681
1.90209
0.697913
1.35969
0.768653
0.592683
0.328372
1.85958
0.352098
3.35835
4.58387
1.65802
2.85931
4.69368
1.28886
4.46291
0.872105
3.24256
6.58081
3.86032
2.49078
4.39838
0.388983
2.21502
0.926828
1.15388
6.06582
2.06639
3.03509
5.15914
2.23794
0.985236
3.7259
2.12631
2.82098
3.97043
1.83911
3.35257
1.43539
1.45517
3.22169
2.78068
4.4552
2.6898
1.00077
2.6504
0.691045
0.423835
2.33477
0.0828881
0.209307
-0.150121
1.52233
0.783347
0.403208
1.49655
3.53582
2.41994
0.880955
0.520697
0.242894
2.31045
2.10921
4.6468
-0.180731
-0.139033
-0.536254
-0.174673
0.183893
-0.420602
0.901679
-0.0708418
0.165317
6.63426
9.31224
15.6394
4.04056
6.9423
8.51602
-0.27429
1.34347
0.903888
0.379733
10.396
0.142189
1.1652
8.07397
4.63311
6.70709
9.89013
7.56882
0.498578
2.95753
1.07246
0.212684
1.15534
0.666241
-0.500756
1.17879
1.46691
3.34018
0.0899903
2.68235
4.83433
2.88979
1.2439
10.8062
4.63227
0.730715
0.820702
2.50354
4.77455
2.22843
3.37166
4.6924
3.95271
5.6973
5.9332
7.14123
5.33939
0.300225
-0.455319
3.35801
1.56127
1.34451
-0.204022
1.16842
2.46056
0.842725
4.14449
3.36796
3.01379
2.26813
4.62702
2.77876
3.16306
2.03653
4.7117
5.91274
5.90019
3.24212
4.00532
5.59609
4.94755
5.80436
5.33078
0.000511427
-0.143579
0.975337
0.271313
-0.214906
0.446132
0.288089
1.81118
4.97385
5.30973
4.4782
2.60687
5.13631
3.17834
7.65873
4.90659
5.32165
1.56634
2.15372
0.666421
3.98544
3.98011
3.91821
2.01463
2.90281
1.22985
0.125617
0.315968
-0.422971
-0.482568
0.179027
7.32382
4.97245
2.99867
3.83331
4.16696
1.70295
0.35651
7.32314
9.40583
-0.0333124
1.64284
5.09403
4.50977
3.1126
0.331988
1.20615
0.208269
4.1711
3.07337
4.22317
5.47614
5.27483
5.36512
4.46982
-0.104291
0.0596922
0.0397695
0.0594088
-0.0576477
0.278725
1.64795
9.88166
3.0997
3.89175
2.84452
2.96359
5.38193
0.229189
0.911486
0.362164
1.53177
0.670878
2.03852
0.377326
-0.116766
2.38617
1.16429
-0.0337043
0.112611
0.03126
1.77725
1.29428
0.255954
0.616474
0.300041
2.72324
2.16336
0.205436
-0.0738832
0.268701
0.0292452
-0.0911872
-0.233095
0.137023
0.0639178
0.116101
0.607698
0.163645
0.13087
2.88526
2.40173
5.24407
5.67144
2.20175
3.97716
3.9868
6.70562
4.38611
3.96347
4.30911
3.54116
4.57551
4.54302
7.48707
4.29923
6.75665
3.7633
4.05137
3.11363
3.39287
4.0671
3.70554
4.65347
4.33378
4.75594
2.33256
3.85961
2.04727
1.87009
1.34442
1.61426
0.632571
0.601042
1.38063
0.678003
1.05584
0.479228
1.79531
1.93011
1.11014
0.529948
0.934913
0.772251
0.550961
0.800674
0.386373
0.460475
0.473344
1.48018
0.854422
0.968121
0.97318
0.93484
2.81757
1.9217
0.366704
0.791391
0.991424
2.85445
3.36574
4.74987
3.97056
4.30443
3.97569
4.45764
3.86912
4.0517
6.97591
1.41714
2.06671
0.784759
4.73022
4.65278
4.51122
3.24764
4.0708
2.0552
1.45015
1.46932
0.5069
2.88215
1.46566
0.959066
2.04886
2.08272
3.58708
6.25174
7.05623
8.21099
3.06514
5.19616
1.54173
2.4167
5.63574
4.68457
0.625921
0.913335
0.337634
7.62906
3.9334
7.85112
0.550237
1.22914
1.90341
5.59596
5.72806
6.68713
1.77804
0.919179
3.39173
1.71826
1.1122
0.866772
1.68914
0.517005
1.46369
4.95729
3.43806
2.28596
5.70037
5.98097
5.1103
3.93812
6.97385
0.464329
2.60368
2.44125
4.76066
4.63908
5.4843
3.86985
4.77191
2.90888
1.89175
0.553045
2.15008
1.01816
2.77167
2.12662
2.89587
5.60996
2.99294
3.16437
2.9639
3.73113
2.14832
0.378411
2.69294
2.49996
2.09445
3.7336
4.10135
4.82246
2.88572
3.23867
3.99798
2.28092
3.16133
3.19805
1.94459
1.29903
3.29335
2.61577
1.05263
1.61286
2.97993
1.68032
2.36242
2.33186
2.18323
1.74546
2.64982
4.52779
6.16541
4.57079
5.08296
3.35664
4.08983
2.05761
2.19901
4.13972
2.98832
4.43568
4.17767
3.95026
1.21487
1.10633
0.946798
0.944519
1.19368
5.23674
3.0359
1.15431
1.46031
1.315
1.83682
1.23529
2.708
6.76149
1.12339
1.27703
1.05109
1.31284
1.17785
0.820523
0.335804
0.782734
0.170361
0.270455
0.181827
-0.132045
-0.638256
1.26703
0.0827928
0.294977
0.757754
0.428022
-0.114976
-0.0505408
-0.0605276
-0.0792594
-0.873725
0.126194
0.0244757
-0.875912
5.0536
2.22849
2.97781
2.81441
1.96119
0.474635
0.573223
0.433938
0.97081
1.58598
0.769153
1.41061
0.642971
0.233493
0.17183
1.06955
0.204127
0.984417
1.35294
2.70735
1.57413
1.16223
1.18631
4.40674
3.3146
3.79422
3.90233
3.61691
3.01856
1.35831
1.69924
3.58039
3.72615
2.95456
3.53407
1.69989
2.2834
1.39118
1.78004
1.23687
0.564755
0.369715
0.332993
0.527763
0.936606
1.07785
-0.0706848
0.273042
0.195136
0.29539
0.292717
0.650167
0.338667
0.402616
4.0622
1.38023
1.83545
4.74348
5.11775
3.46529
4.18656
3.57077
1.75415
1.38951
3.4422
5.19551
4.09145
3.81825
4.64949
1.83656
3.81589
4.03299
SCALARS Redistribution_Potential double 1
LOOKUP_TABLE default
-2.25908e-09
0.64982
0.731328
0.420074
-0.770068
-0.573935
0.65552
0.291079
0.668171
0.319178
0.544724
-0.234201
0.89287
0.402593
0.237539
1.08475
1.05086
1.36334
0.556398
1.1965
1.16108
1.25292
0.914106
1.41666
0.461546
0.678444
1.74403
1.25842
1.63337
1.57274
1.62947
1.52932
1.22822
0.95013
0.691598
0.992556
1.48239
1.62162
1.23883
1.59425
1.49873
1.4513
0.740535
0.577966
0.145648
0.22018
0.535454
0.545456
-0.0722905
0.335762
0.263239
0.784097
0.544434
0.399662
0.725529
1.11432
1.1001
1.09177
0.923965
0.295756
1.25152
1.23964
0.465549
1.04544
1.04509
0.911589
0.851645
1.01663
0.892211
0.978035
1.10307
1.05698
1.12418
1.12443
1.13796
0.990036
0.630585
1.30269
1.28878
0.276192
1.00445
0.976425
1.15295
0.738791
0.537933
0.384357
0.158818
0.385481
0.085344
0.381329
0.0385472
1.42036
0.533428
1.36145
1.69863
1.21013
1.67272
1.4546
1.39335
1.21039
1.29612
1.44144
1.40788
1.53717
1.37975
1.4798
1.16586
1.38606
1.54889
1.23385
1.53232
1.30549
1.0829
0.930621
0.770472
0.818196
0.951871
0.954181
0.0981591
0.726991
0.37098
1.17056
1.18651
0.3462
0.851031
1.33503
1.24119
1.08364
1.46462
1.04363
1.43971
1.58164
1.03769
1.46867
1.39056
1.35657
1.22759
1.39218
1.39127
1.31557
1.46633
1.3578
1.46268
1.24925
1.5144
1.40266
1.06727
0.868947
1.00883
0.822228
1.08407
0.736745
0.744137
1.64767
1.68899
1.59605
1.63339
1.6966
1.62854
1.42683
1.54273
1.58598
0.143605
0.22629
-0.0685704
0.760795
0.681298
0.891268
0.25814
0.303718
0.281183
-0.044821
0.294787
0.0982509
0.426572
0.386702
0.346453
0.761388
0.53849
0.710131
-0.424037
-0.0879364
-0.257939
0.183913
0.0572574
0.12316
0.388426
0.274534
0.385792
0.602987
0.46329
0.449655
0.26128
-0.0156319
0.52099
0.457466
0.881153
0.704771
0.944926
-0.267889
0.0767729
0.930394
0.593529
0.843801
0.343754
0.474792
0.832044
1.03132
0.825166
1.07775
1.13206
1.14277
1.1459
1.12685
1.09733
0.793351
0.981816
0.981938
0.33296
-0.0125727
1.01145
0.774659
0.491705
0.603906
0.744751
0.892888
1.11262
1.31256
1.28258
1.37136
1.20664
1.14496
0.317727
0.682284
0.554349
0.785698
0.762935
0.536215
1.26776
1.05414
1.23543
1.1151
1.19416
1.01206
0.364861
0.182533
0.612265
0.541747
1.07678
0.904367
1.07342
0.566981
0.581967
1.05958
0.932583
1.14482
0.599168
0.615331
0.697934
0.944354
0.749884
1.1272
1.06858
1.11427
1.16997
1.085
1.12239
0.895002
1.03141
1.04658
0.785374
1.16556
1.0434
0.981749
1.03418
0.769838
0.924285
1.14524
1.10588
1.28296
1.08211
1.16007
0.49317
0.0943153
0.957258
0.796725
1.03165
0.816364
1.04568
1.15607
1.10747
1.0891
1.11402
0.912973
1.1927
1.21281
1.43707
1.31975
1.38306
-0.306044
0.224788
0.938241
0.660513
0.697443
0.737328
1.06109
0.583244
0.75756
0.451152
1.28276
1.06548
1.23275
0.917829
0.945481
1.02807
1.20763
1.14396
1.28717
0.275908
-0.230101
0.455499
0.452175
0.646946
0.534824
0.608487
-0.146238
0.0871616
0.398484
0.277429
0.380439
0.284896
0.391676
-0.528274
-0.228287
-0.528824
0.505561
0.220758
0.494835
0.363485
0.17948
0.38285
0.465478
0.434794
0.510819
0.504894
-0.0210532
1.38785
1.03862
1.0047
1.02292
1.36085
0.872297
1.20916
1.76012
1.58358
1.63431
1.46431
1.5246
0.911874
1.27429
1.00937
1.49388
1.46299
1.31918
1.69505
1.60016
1.7642
1.64149
1.75901
1.61996
1.05198
0.798837
1.2972
1.22993
1.45469
1.31924
1.48589
0.69871
1.1277
1.55183
1.40934
1.54393
1.27174
1.31402
0.95978
1.22535
0.925696
1.54632
1.48324
1.56518
1.58309
1.47817
1.57333
1.42611
1.52393
1.50302
1.04276
0.629903
1.42227
1.30938
1.43981
1.35833
1.51244
0.954326
1.25063
1.61048
1.50457
1.58448
1.42843
1.46097
0.860408
1.17615
0.911522
1.52339
1.40411
1.45795
1.51778
1.43556
1.57731
1.52728
1.58
1.55216
0.675671
0.780942
0.543267
1.08886
1.0287
1.21563
0.798034
0.827234
0.75911
0.512702
0.799028
0.585329
0.928624
0.904913
0.948566
1.13757
0.964713
1.06391
-0.508369
0.0507701
-0.410193
0.634025
0.435541
0.486013
0.78854
0.599858
0.843472
0.957188
0.877861
0.819441
0.922846
0.700846
0.919558
0.990069
1.39561
1.22367
1.35518
-0.416424
0.0411084
0.935149
0.630457
0.777441
0.476949
0.744622
0.976406
1.13857
0.877915
1.38806
1.3216
1.4692
1.08637
1.16968
1.09861
1.03418
1.08939
1.24548
1.06955
0.657439
1.50777
1.36692
1.20709
1.27462
1.35047
1.02616
1.3251
1.59832
1.53256
1.60058
1.50324
1.55299
0.769571
1.10172
0.942089
1.33255
1.24491
1.18072
1.55006
1.42507
1.55861
1.56058
1.56928
1.49046
0.998463
0.741035
1.26183
1.19212
1.42528
1.31507
1.43767
0.925693
1.11093
1.50296
1.40826
1.55665
1.22448
1.26641
0.934374
1.26734
0.945175
1.4705
1.41413
1.46143
1.53008
1.43725
1.51291
1.37291
1.45416
1.4356
1.13269
1.50393
1.38057
1.31035
1.36988
0.882832
1.182
1.4757
1.39765
1.42714
1.43506
1.51921
0.93816
0.620442
1.33044
1.20445
1.33202
1.25186
1.42677
1.52774
1.50634
1.46582
0.133776
0.940162
0.670768
0.546192
0.768103
0.690214
0.951413
0.886203
0.932201
1.0108
0.119161
0.789496
0.595836
0.547679
0.838919
1.01025
0.974634
0.92763
1.05182
1.03198
1.10074
1.1732
1.15935
0.0930091
0.581775
0.431999
0.593362
0.881635
0.185186
0.99114
0.647096
0.431935
0.572097
0.940329
0.77967
0.973259
1.37167
1.63918
1.55789
1.56801
1.63129
1.36603
1.71055
1.62621
1.60304
1.66337
1.19002
1.58233
1.43674
1.49469
1.65966
1.67884
1.67885
1.65393
1.20584
1.63775
1.51222
1.45106
1.57504
1.34897
1.68396
1.58543
1.58418
1.66462
1.07822
1.56617
1.41159
1.48909
1.65434
1.7057
1.71248
1.67655
0.956697
1.44733
1.26167
1.21886
1.41302
1.20764
1.58923
1.45211
1.41931
1.49994
1.27684
1.51996
1.47418
1.5239
1.62577
1.5366
1.59798
1.54108
SCALARS CoVolArea double 1
LOOKUP_TABLE default
0.00402052
0.00629531
0.00661813
0.00576889
0.00385479
0.00458358
0.00555823
0.0055377
0.0061437
0.00678794
0.00651496
0.00623116
0.0161877
0.0132977
0.015117
0.0155547
0.015021
0.0151792
0.0149111
0.0140976
0.0159309
0.0154867
0.0159588
0.0157614
0.0152831
0.0161454
0.0159835
0.015531
0.0164183
0.0161428
0.0161027
0.0163261
0.0156536
0.015518
0.0154549
0.0149261
0.0159061
0.0152083
0.0153761
0.0152995
0.0156255
0.0159989
0.0158466
0.0165224
0.0139432
0.0127688
0.0139185
0.0162162
0.0137982
0.0137419
0.0146286
0.0156472
0.0147209
0.0139352
0.0152067
0.015485
0.01576
0.0151043
0.0155583
0.0140324
0.0154539
0.0156685
0.0133402
0.0151641
0.0149096
0.0161478
0.0159713
0.0148397
0.0136669
0.01474
0.0139333
0.013834
0.0161991
0.0145972
0.0160013
0.0161043
0.0134495
0.015877
0.0154329
0.0136447
0.0158125
0.0136279
0.0156315
0.0143556
0.0159354
0.0154563
0.0133617
0.0151782
0.0137612
0.0162383
0.0135993
0.0165835
0.0134011
0.0148914
0.0170843
0.0147059
0.0163578
0.0153012
0.0155625
0.0152681
0.0164584
0.0158582
0.0157659
0.0166169
0.0157183
0.0156802
0.0155268
0.0155214
0.0157342
0.0149333
0.01544
0.0142299
0.0155753
0.015429
0.0152892
0.0139594
0.013482
0.014569
0.0142168
0.0147992
0.014749
0.0160458
0.0157697
0.014383
0.0152532
0.015805
0.0153557
0.0147057
0.0159309
0.0154867
0.0155263
0.0156287
0.0141347
0.0154747
0.0149079
0.0154593
0.0157052
0.0153387
0.0147567
0.0148344
0.0142675
0.014609
0.0159009
0.0152099
0.0163675
0.0163941
0.0153692
0.0161317
0.016561
0.0166792
0.0154117
0.0153941
0.0152018
0.0154246
0.0157793
0.0152213
0.0162879
0.0160312
0.0168678
0.0153953
0.0155042
0.0160404
0.0105544
0.0146388
0.00876422
0.015962
0.0169546
0.0160633
0.0153488
0.0165123
0.0161179
0.0109305
0.0137216
0.0133758
0.0128521
0.0129618
0.0131292
0.0158105
0.014311
0.0153945
0.00950197
0.0134726
0.010696
0.0148758
0.0138974
0.0143864
0.0136677
0.0134915
0.0126343
0.0149708
0.0134923
0.0152541
0.0132908
0.00904485
0.0156048
0.0152142
0.0152688
0.0153602
0.0152097
0.00926589
0.0133852
0.015554
0.0148382
0.0153158
0.0148469
0.0151638
0.0115579
0.0147987
0.0115357
0.015236
0.0156854
0.0153714
0.0151138
0.0155694
0.0157271
0.015669
0.0158065
0.0155467
0.0133574
0.00891282
0.0151627
0.0153689
0.0152385
0.0152016
0.0154886
0.0116972
0.0149222
0.0157274
0.0157586
0.0154868
0.0156934
0.0151775
0.0097843
0.0135914
0.0105439
0.0149606
0.014439
0.0140095
0.0151342
0.0150434
0.0153305
0.0153368
0.0156272
0.015519
0.0148094
0.0106969
0.0157382
0.016385
0.0160015
0.016855
0.0156996
0.011269
0.0134291
0.0132659
0.0139238
0.0142114
0.013719
0.014464
0.0113581
0.0132877
0.0112143
0.0150524
0.0140591
0.0153385
0.0138955
0.0134345
0.0134757
0.0148164
0.0135307
0.0146836
0.0147946
0.0161933
0.0157265
0.0157033
0.016264
0.0112016
0.0143387
0.0150671
0.0150431
0.0153597
0.0158312
0.016034
0.0153326
0.0105815
0.016254
0.0163116
0.0148898
0.0149063
0.0150242
0.0161713
0.0160107
0.0162149
0.0148484
0.0117301
0.0153951
0.0153798
0.0159632
0.0157522
0.0160335
0.00917091
0.0127885
0.0157757
0.0148491
0.0153337
0.0150311
0.0157673
0.0110348
0.0134747
0.0108576
0.0154157
0.0145563
0.0143845
0.0156674
0.0151475
0.0158741
0.0159464
0.0160182
0.0160213
0.0146759
0.0105202
0.0148633
0.0151968
0.0161052
0.0157861
0.0162308
0.00963368
0.0127058
0.0153911
0.014472
0.0147599
0.0139791
0.0143855
0.00862762
0.0126902
0.00861511
0.0162142
0.015508
0.015574
0.0151115
0.0153382
0.0157508
0.0155586
0.0159304
0.0162392
0.0127006
0.0093312
0.0166704
0.0153706
0.0152331
0.0152718
0.0160061
0.0114281
0.0146497
0.0166406
0.0163254
0.0155903
0.0164232
0.0168724
0.0113911
0.0143024
0.0115614
0.0158569
0.0154454
0.0152711
0.016067
0.0158964
0.0165421
0.0169818
0.0168423
0.0165175
0.0143103
0.011604
0.0148486
0.0147878
0.0159363
0.0155324
0.016017
0.0121462
0.0152688
0.0163191
0.0159321
0.0163951
0.0152403
0.0151189
0.0115473
0.0154579
0.0113771
0.0163069
0.016678
0.0160449
0.0162179
0.0167336
0.0164987
0.0156317
0.0162057
0.0161077
0.0144515
0.0112469
0.0152034
0.0153979
0.0161831
0.0156876
0.0161065
0.0118106
0.0150894
0.0160344
0.0159544
0.0160484
0.0157762
0.0152803
0.0109208
0.0138715
0.0108229
0.0160767
0.0154456
0.0160126
0.0150724
0.0148786
0.0154939
0.0153451
0.015452
0.0157006
0.0114978
0.0149624
0.010999
0.0153484
0.0161043
0.0156986
0.0157951
0.0160268
0.0153165
0.0109218
0.0127427
0.01162
0.0142109
0.0133005
0.0148888
0.0151358
0.0134955
0.014572
0.00867085
0.013584
0.00913186
0.014945
0.0154037
0.0154026
0.015715
0.0156305
0.0149821
0.0141784
0.0138633
0.0143964
0.0149218
0.0114483
0.0160075
0.0159808
0.0158231
0.0159414
0.0158873
0.00901378
0.013388
0.0148875
0.0153426
0.0152018
0.0154238
0.0155685
0.0122657
0.0148014
0.0117483
0.0158725
0.0156627
0.0159202
0.0146045
0.0148003
0.014677
0.0156702
0.0151341
0.015757
0.0150261
0.0113236
0.015856
0.0158674
0.0157244
0.015874
0.0158626
0.0120535
0.0151534
0.0153227
0.0154491
0.0155136
0.0158125
0.0158684
0.0102575
0.0140165
0.0111453
0.015563
0.015075
0.0148669
0.0147881
0.0150899
0.0150864
0.015771
0.0154881
0.0157576
0.0152527
0.0116957
0.0154259
0.0160676
0.015695
0.0160911
0.0153593
0.0110792
0.0142273
0.0148298
0.0152913
0.0153662
0.0148851
0.0149438
0.0115021
0.0136082
0.0112727
0.0148847
0.0141943
0.0151931
0.014958
0.0140721
0.0145494
0.014768
0.0143472
0.0146296
0.0149742
0.0158806
0.0156112
0.0155891
0.0158887
0.0113298
0.0150767
0.0162829
0.0162164
0.0158556
0.0160542
0.0158783
0.0153086
0.0120041
0.0159405
0.0161171
0.0158515
0.0162399
0.0162793
0.0160499
0.0163958
0.0160655
0.013139
0.0161089
0.0154759
0.0151576
0.0160514
0.0140558
0.016419
0.0157989
0.0157426
0.0160873
0.0139017
0.0163667
0.0163273
0.0157622
0.0163665
0.0165309
0.0167962
0.0165415
0.0145217
0.0151226
0.0151635
0.0152973
0.0154231
0.0129509
0.0152697
0.0147583
0.0150129
0.0153616
0.0124666
0.0153676
0.0145683
0.0144289
0.0151119
0.0154308
0.0154094
0.0154751
0.0148193
0.0151178
0.0150459
0.015602
0.0159308
0.0151375
0.0157015
0.0160496
0.0160615
0.0155658
0.0144254
0.0158663
0.0155129
0.0149787
0.0152084
0.0152827
0.0152503
0.0154319
0.0146509
0.0157172
0.0157886
0.0160676
0.0164899
0.0148288
0.0162631
0.0158091
0.0155925
0.0157549
0.0158369
0.0167018
0.0168729
0.0170729
0.016518
0.0160897
0.0163469
0.0165642
0.0140352
0.0159688
0.0154646
0.0144342
0.0151502
0.0141447
0.0155143
0.0149504
0.0155422
0.0159691
0.0150051
0.016054
0.0159268
0.0159014
0.0160799
0.0156307
0.015599
0.0155731
SCALARS SignedDistance double 1
LOOKUP_TABLE default
0.0673198
0.0212777
0.0736422
0.0327308
0.312464
0.154424
0.0334573
0.0434723
0.0305087
0.0272702
0.0344893
0.102337
0.0521522
0.0161362
0.0356665
0.100965
0.0177672
0.0513662
0.0277215
0.0226344
0.0469343
0.115751
0.435213
0.14804
0.384999
0.383063
0.197786
0.323865
0.0436071
0.0230071
0.13353
0.0452135
0.0174393
0.22371
0.0069586
0.153334
0.0239074
0.0950135
0.0256442
0.0153272
0.0186789
0.028655
0.0616884
0.0534012
0.0584694
0.0426669
0.032355
0.0177051
0.0377437
0.0277588
0.0617123
0.0331994
0.0661757
0.187837
0.0310374
0.0395147
0.0217142
0.0256696
0.0291876
0.0566285
0.0246511
0.0269863
0.0162838
0.0343696
0.0294464
0.045265
0.0596566
0.0246574
0.0197071
0.0320709
0.019758
0.0351162
0.0558368
0.116825
0.0241692
0.0238955
0.108903
0.147802
0.021251
0.323115
0.335443
0.0454839
0.286034
0.200043
0.187456
0.237608
0.247822
0.188185
0.446158
0.357343
0.441753
0.147409
0.273024
0.0940767
0.127819
0.20678
0.207866
0.187281
0.016509
0.00230541
0.0463629
0.028538
0.0308172
0.0347086
0.0363767
0.0227724
0.0492296
0.0222173
0.0847466
0.0234742
0.0311548
0.04381
0.0172207
0.0186772
0.0305614
0.109932
0.0532671
0.011592
0.157545
0.103828
0.28168
0.0156498
0.0394977
0.260329
0.0775717
0.0222594
0.0199603
0.108761
0.0219623
0.025139
0.102416
0.0230544
0.0193376
0.0733988
0.0200019
0.0168686
0.0142099
0.0236723
0.0326007
0.00873998
0.0499537
0.0300608
0.0184869
0.025608
0.0344881
0.0364863
0.0296227
0.42478
0.323678
0.446906
0.320506
0.378254
0.463412
0.0224604
0.126879
0.0414537
0.0390124
0.040884
0.0497091
0.0226466
0.0243454
0.0866296
0.0666512
0.0655136
0.0678886
0.0636036
0.0587344
0.0721084
0.0437518
0.0615466
0.0537696
0.0970009
0.00894803
0.0159466
0.0360135
0.0104007
0.0302208
0.0562805
0.0307977
0.0403831
0.110114
0.0414885
0.113723
0.0422589
0.0251365
0.0300771
0.0379469
0.014633
0.0147128
0.0520335
0.0317802
0.0448843
0.0568052
0.0552337
0.0532739
0.0609791
0.0376212
0.0323402
0.00767428
0.165093
0.0861779
0.122473
0.114543
0.214939
0.0108483
0.033366
0.0478185
0.0367968
0.0265959
0.0218942
0.0116077
0.00618021
0.0251469
0.0337206
0.0313635
0.023786
0.0464774
0.0185734
0.05544
0.067096
0.00805001
0.0313514
0.0392806
0.0576776
0.0487765
0.0257554
0.0357426
0.0295144
0.0320172
0.0220373
0.0124292
0.0248746
0.033526
0.0206164
0.0409756
0.0219645
0.0162821
0.0221865
0.0144427
0.0178229
0.0549148
0.0180892
0.0539119
0.0169908
0.0634962
0.0661606
0.0461822
0.057123
0.0687694
0.0538984
0.05697
0.0354277
0.0198594
0.0242431
0.0230467
0.030322
0.0173726
0.0261322
0.0345419
0.0363018
0.0361886
0.0310369
0.0227325
0.0471515
0.0321573
0.0200577
0.0289273
0.0329114
0.0253236
0.0433878
0.0619369
0.0535906
0.0747507
0.0757552