# vtk DataFile Version 4.2
vtk output
ASCII
DATASET POLYDATA
POINTS 2562 float
-0.313064 3.50115 -0.0363877
1.24283 4.09337 -0.0251182
-2.43101 -0.134899 -0.0297639
0.253541 0.947458 -0.0307961
-0.542793 0.904526 0.76239
0.0304629 3.54689 0.774407
-0.611076 0.89435 -1.01967
0.0528896 3.57252 -0.996734
1.55274 2.75504 -0.878436
1.54436 2.72341 0.730309
-2.79138 1.74475 -0.925423
-2.73381 1.76434 0.709358
-2.06093 2.05634 0.444975
-1.38747 2.23991 0.731432
-0.0843639 3.81728 0.687277
0.617105 4.09385 0.746248
0.177677 4.29005 -0.0263569
0.623146 4.09945 -0.927738
-0.0910572 3.83762 -0.826087
-1.40995 2.23097 -0.914341
-2.0678 2.05539 -0.5484
-2.9446 1.76007 -0.0235191
1.15469 3.19892 0.75837
1.87809 3.73705 0.694105
-1.97792 1.11385 0.743166
-0.302701 2.24077 0.744878
-2.94703 0.160665 -0.940606
-2.9482 0.245341 0.703191
-0.27361 2.16817 -1.03485
-1.96275 1.04828 -1.03653
1.88665 3.73995 -0.83201
1.16543 3.23364 -1.0243
0.992581 1.68173 0.55605
0.735584 1.73906 0.770563
-0.124776 0.762714 0.718573
-1.66294 0.0981533 0.742601
-0.913607 0.253148 -0.0323502
-1.73006 0.0698588 -0.994596
-0.122396 0.743844 -0.880254
0.727226 1.72614 -1.0021
0.994068 1.67658 -0.649971
1.69376 2.8557 -0.0275049
-1.12392 2.55619 0.228981
-0.733234 2.91166 0.517751
-0.183183 3.71763 0.420334
-2.20621 1.90955 0.71835
-1.81689 2.08369 0.676578
-2.52892 1.88484 0.663675
-0.0480517 3.77386 0.740558
-0.486659 3.09439 0.712286
-0.454262 3.04707 0.750716
0.0831514 4.18423 0.525062
-0.00606551 4.06637 -0.0310622
0.332951 3.94926 0.779535
0.187462 4.19709 0.724207
0.440074 4.27937 -0.0263189
0.243809 4.29546 0.597276
1.01932 4.11643 0.59598
0.0799728 4.18683 -0.618167
-0.183514 3.72065 -0.515971
1.01981 4.10718 -0.687974
0.244488 4.30207 -0.690166
-0.0345317 3.80244 -0.928279
0.188848 4.21768 -0.900511
0.323893 3.98355 -1.00047
-0.731913 2.91742 -0.627882
-1.12501 2.55673 -0.316772
-0.438925 3.072 -0.930477
-0.485292 3.1172 -0.866628
-2.55271 1.889 -0.801718
-1.84257 2.08861 -0.819546
-2.23353 1.89924 -0.924573
-2.11111 2.05139 -0.0363314
-2.92342 1.74724 -0.779605
-2.70406 1.89225 -0.43358
-2.70294 1.89209 0.356484
-2.90282 1.72895 0.640673
1.48231 3.91635 0.739206
1.74146 3.89922 0.451893
0.582121 3.44288 0.754957
1.02006 3.75382 0.76798
1.83177 3.35119 0.717396
1.65519 3.52525 0.773279
1.49168 2.9837 0.772662
-0.871916 2.41466 0.770431
-0.130357 2.96469 0.760928
-2.41442 1.47399 0.75474
-1.84606 1.86309 0.765454
-0.358987 1.41957 0.746104
-1.14793 1.68039 0.746278
-1.24751 0.877376 0.74644
-3.07925 1.11781 0.489468
-2.9167 1.13576 0.736674
-2.9089 1.11127 -0.943175
-3.03319 1.11115 -0.556222
-2.88126 -0.113416 0.558822
-3.02699 0.163919 -0.0230959
-2.88839 -0.124452 -0.650777
-1.87409 1.80364 -1.00472
-2.44743 1.4459 -1.02833
-0.0946148 2.95538 -1.00768
-0.869728 2.36146 -0.993914
-1.32636 0.867028 -1.03291
-1.1586 1.58563 -1.03934
-0.42186 1.45395 -1.03936
1.03875 3.77569 -1.01791
0.57934 3.44987 -1.03143
1.74226 3.90034 -0.517531
1.49618 3.92082 -0.910753
1.5124 3.01885 -0.961423
1.69896 3.55326 -0.981618
1.8439 3.36313 -0.89347
0.640597 1.28682 0.313487
0.496603 1.2048 0.670871
0.0778241 0.836345 0.486418
1.20476 2.23552 0.760567
0.909105 1.70181 0.726155
1.30997 2.20978 0.685933
-0.280343 0.741109 0.761636
0.342281 1.16893 0.749528
0.147071 1.29249 0.769575
-0.506747 0.432977 0.52432
-0.296795 0.552626 -0.0309062
-1.12483 0.45128 0.76414
-0.781184 0.410834 0.728603
-1.64177 -0.0265699 -0.0321434
-1.3555 0.108753 0.569497
-2.1138 -0.074067 0.645963
-0.510523 0.4266 -0.618789
0.0768675 0.832663 -0.576899
-2.13405 -0.0797744 -0.787181
-1.37217 0.0998733 -0.690788
-0.299568 0.719582 -0.950671
-0.82409 0.385538 -0.90283
-1.22179 0.415239 -0.980312
0.50865 1.18955 -0.797604
0.640598 1.28549 -0.387765
0.134387 1.29962 -1.01899
0.347962 1.16412 -0.943203
1.31821 2.20327 -0.808802
0.911595 1.68894 -0.911225
1.2047 2.23784 -0.944237
1.00574 1.67962 -0.0292271
1.67521 2.83884 -0.646116
1.42287 2.25869 -0.406987
1.42227 2.25879 0.339518
1.66884 2.82972 0.558604
0.370638 1.87603 0.75159
1.03837 2.46721 0.764823
0.575813 2.75661 0.74229
-2.53474 0.0151905 0.745987
-1.86393 0.447891 0.755802
-2.54681 0.68315 0.751855
-1.92465 0.337454 -1.04973
-2.65205 -0.0054705 -1.01578
-2.57555 0.550747 -1.02927
1.02884 2.48153 -1.01328
0.332091 1.88182 -1.03661
0.520037 2.77423 -1.0264
1.91172 3.36131 0.42017
1.91272 3.36222 -0.489771
1.92031 3.74924 -0.0220778
-0.585103 3.11446 0.112216
-0.467894 3.27101 0.31392
-0.236771 3.61759 0.214114
-1.49407 2.28512 0.456281
-0.920983 2.7315 0.385133
-1.68058 2.20018 0.324726
-0.136528 3.78681 0.582842
-0.376033 3.39145 0.479496
-0.300554 3.46624 0.604724
-2.49084 1.8271 0.730436
-2.3898 1.87454 0.711884
-2.67272 1.81452 0.697003
-1.61735 2.13568 0.715221
-2.05702 1.97135 0.705981
-1.83812 2.02027 0.728801
-2.3138 1.96564 0.571767
-2.21722 1.95465 0.669493
-1.97152 2.06735 0.583988
-0.0305333 3.68349 0.764282
-0.196847 3.44381 0.739836
-0.186426 3.35298 0.760437
-0.227723 3.49294 0.697109
-0.204818 3.48241 0.721665
-0.0505979 3.81091 0.727044
-0.84342 2.64413 0.74088
-0.466371 3.08696 0.730568
-0.92344 2.60094 0.723748
-1.34489 2.35475 0.584202
-1.13951 2.4625 0.684061
-0.59668 3.02525 0.646089
-0.084727 3.91683 0.242715
-0.130345 3.83961 -0.0338439
0.00865691 4.03446 0.638897
-0.040505 3.99434 0.476315
0.107815 4.23195 -0.0284483
0.0380465 4.13054 0.277103
0.14565 4.26481 0.306037
0.183573 3.76657 0.77645
0.0936225 3.90925 0.768952
0.269858 4.20514 0.741493
0.203794 4.10792 0.764535
0.472273 4.07534 0.771993
0.0678752 4.0064 0.736935
0.0621297 4.0321 0.721464
0.868815 4.15164 -0.0268459
0.708976 4.18878 0.324373
1.14518 4.1184 0.344571
0.198827 4.29611 0.3296
0.325485 4.30793 0.333418
0.222101 4.30753 -0.0255859
0.826959 4.08655 0.712061
0.526116 4.22694 0.594747
0.373482 4.22655 0.711067
0.166877 4.22114 0.690568
0.208487 4.24604 0.698533
0.18495 4.27681 0.586734
-0.0850427 3.91692 -0.319049
-0.236835 3.61846 -0.294977
0.144719 4.26469 -0.372381
0.0373352 4.13043 -0.348463
-0.138465 3.79571 -0.694457
-0.0414771 3.99697 -0.571123
0.00224568 4.04802 -0.759834
1.14476 4.11823 -0.408038
0.710131 4.18841 -0.391276
0.373348 4.24003 -0.861097
0.530498 4.22911 -0.686926
0.834455 4.09515 -0.863157
0.327156 4.30773 -0.39705
0.198755 4.29653 -0.392307
-0.0158868 3.7188 -0.961837
0.109849 3.95382 -0.969342
0.19908 3.80485 -1.00472
0.0637204 4.06478 -0.894368
0.0818316 4.04471 -0.924798
-0.047318 3.83745 -0.900298
0.45488 4.09153 -0.968297
0.204228 4.14688 -0.950811
0.249151 4.21822 -0.91855
0.180098 4.28208 -0.679227
0.201246 4.25108 -0.869796
0.151547 4.23259 -0.839455
-0.467587 3.2737 -0.405994
-0.584851 3.11529 -0.191159
-0.301606 3.47981 -0.726782
-0.37521 3.39721 -0.584313
-1.68533 2.19985 -0.420311
-0.920979 2.7338 -0.484552
-1.50213 2.28366 -0.563839
-0.17321 3.36815 -0.965165
-0.19159 3.46565 -0.926732
-0.935 2.60247 -0.878237
-0.453343 3.11228 -0.902501
-0.850645 2.64122 -0.90706
-0.20146 3.50751 -0.897341
-0.232189 3.51916 -0.8497
-2.72721 1.80445 -0.890547
-2.41821 1.8782 -0.892329
-2.53954 1.80831 -0.935204
-1.98717 2.06642 -0.703136
-2.24255 1.96588 -0.816555
-2.32658 1.96905 -0.68548
-1.87851 2.0094 -0.92033
-2.09253 1.96999 -0.889091
-1.64566 2.13737 -0.882183
-0.596625 3.0393 -0.773763
-1.15255 2.46586 -0.82157
-1.35614 2.35359 -0.702555
-1.14236 2.54477 -0.0387332
-2.10298 2.05265 -0.330251
-1.72695 2.18911 -0.181704
-1.72598 2.18895 0.101844
-2.10099 2.05247 0.245024
-2.88473 1.73272 -0.879374
-2.83408 1.80123 -0.823226
-2.87479 1.82278 -0.27131
-2.86596 1.81959 -0.61334
-2.94179 1.75909 -0.455073
-2.65717 1.8911 -0.667099
-2.41162 1.95429 -0.515668
-2.80078 1.79267 0.658322
-2.87557 1.73404 0.662086
-2.40705 1.95443 0.422423
-2.64843 1.89095 0.56237
-2.94043 1.75825 0.393652
-2.86002 1.81493 0.526379
-2.87465 1.82236 0.214604
-2.4192 1.9546 -0.21793
-2.70817 1.89289 -0.029649
-2.41852 1.9544 0.14659
1.393 4.04487 0.548163
1.49948 4.01578 0.222025
1.12479 4.01976 0.73175
1.26047 4.02454 0.710553
1.88304 3.76976 0.635795
1.63132 3.90207 0.690006
1.81643 3.76808 0.718195
0.262362 3.51339 0.763819
0.461776 3.70613 0.765827
1.11137 3.49769 0.760689
0.80754 3.6103 0.760619
0.899426 3.32782 0.753462
0.665499 3.86264 0.771961
0.864032 3.95667 0.764847
1.70102 3.08004 0.729686
1.70059 3.17268 0.751988
1.54883 2.86527 0.755696
1.84317 3.67557 0.735098
1.80151 3.43547 0.748108
1.86793 3.56792 0.714033
1.35048 3.09059 0.767571
1.59314 3.27046 0.772914
1.40715 3.36332 0.767221
1.28321 3.88039 0.771052
1.37998 3.64277 0.77169
1.64334 3.76235 0.768139
-0.322053 3.04805 0.770506
-0.0290982 3.28184 0.767068
-1.12418 2.35911 0.751893
-0.681211 2.72224 0.76813
-0.238773 2.61404 0.753661
-0.481077 2.70484 0.771684
-0.61097 2.37844 0.760291
-2.59107 1.65059 0.755264
-2.36002 1.78903 0.755131
-1.94733 1.54943 0.752811
-2.16379 1.67771 0.759712
-2.21679 1.28632 0.748288
-2.04568 1.90335 0.744743
-1.68437 2.04896 0.748197
-0.455207 1.14349 0.753302
-0.792383 1.13141 0.745438
-0.887137 0.878705 0.752499
-0.717569 1.95559 0.746864
-0.722518 1.49726 0.738208
-0.295128 1.77517 0.741081
-1.61707 0.935636 0.742478
-1.17925 1.19543 0.740546
-1.59342 1.38676 0.74425
-1.39385 2.08554 0.766879
-1.53839 1.79785 0.759519
-1.05889 2.06766 0.760474
-2.93641 1.54908 0.688727
-2.86181 1.53635 0.72921
-3.01909 1.55466 0.247409
-2.99425 1.55718 0.601974
-2.95469 0.67138 0.730447
-2.99503 1.10968 0.698105
-3.04083 0.639694 0.669563
-2.87358 1.54735 -0.959225
-2.94445 1.56387 -0.89405
-3.0009 0.617334 -0.786488
-2.97772 1.0949 -0.857217
-2.92736 0.604483 -0.915685
-3.00554 1.55715 -0.69145
-3.01885 1.55281 -0.299302
-2.72752 -0.164061 0.270817
-2.88696 -0.129632 -0.0218005
-2.7272 -0.164301 -0.331657
-3.01783 0.168891 0.527486
-2.96149 -0.0606191 0.300791
-2.9105 -0.0287106 0.664164
-2.93099 -0.0440497 -0.887413
-2.96153 -0.0605291 -0.351573
-3.01634 0.159982 -0.611067
-3.08334 1.10455 -0.0242736
-3.07966 0.592073 -0.321084
-3.08744 0.595019 0.265518
-2.39125 1.75458 -0.983078
-2.64679 1.63212 -0.996157
-1.70988 2.02104 -0.95675
-2.08054 1.87507 -0.968937
[...]
POINT_DATA 2562
SCALARS CoVolArea float 1
LOOKUP_TABLE default
0.0259142
0.0275368
0.039283
0.0214066
0.0150264
0.0100451
0.0179009
0.011314
0.00472907
0.00331247
0.00489502
0.0062004
0.0166449
0.0045337
0.00654869
0.00662798
0.00434083
0.00905024
0.00886598
0.00710218
0.0180466
0.0136573
0.0179985
0.00113156
0.0344343
0.0457489
0.0134947
0.00746461
0.0378182
0.0335996
0.00208178
0.019497
0.0149177
0.0127343
0.00485109
0.00823743
0.0375373
0.00360744
0.0081888
0.0135393
0.0169697
0.0337245
0.0447822
0.028134
0.0163882
0.00327249
0.0104693
0.00692655
0.00266842
0.00724149
0.00769677
0.0106854
0.0174242
0.013515
0.00135691
0.0336164
0.00759777
0.0226684
0.0121232
0.0177919
0.0270809
0.00966636
0.00336753
0.00115384
0.0123832
0.0307782
0.0480305
0.00940279
0.0105023
0.00996851
0.0138803
0.00474445
0.027431
0.00539011
0.0195173
0.0180618
0.00245193
0.00589809
0.0262745
0.0208129
0.0184349
0.002121
0.0144538
0.0119227
0.0209786
0.0224234
0.0221674
0.0168382
0.0254495
0.0466495
0.024019
0.048097
0.0153558
0.0162258
0.0540401
0.0122474
0.052581
0.0172909
0.0204571
0.0233313
0.0252932
0.0266959
0.024464
0.0390318
0.0294461
0.0190892
0.0221339
0.0285639
0.00783143
0.0141957
0.0130139
0.00323346
0.019923
0.00852199
0.0184555
0.00692533
0.00285617
0.0080665
0.00814178
0.00534024
0.0150252
0.017483
0.027987
0.0157472
0.00411005
0.0339801
0.0237891
0.0226516
0.0196842
0.0202507
0.0325721
0.0281239
0.0105627
0.00603328
0.0178832
0.0120032
0.0213293
0.0163049
0.00677335
0.011482
0.00455524
0.00874475
0.0276971
0.0209251
0.0248749
0.0232242
0.0188534
0.0226808
0.0187425
0.0425008
0.0141075
0.0241938
0.0263837
0.0264642
0.00700368
0.0293521
0.0209974
0.0252379
0.0365999
0.018665
0.0202088
0.00769891
0.0427029
0.0292844
0.023721
0.023789
0.034412
0.0272288
0.0111108
0.0193118
0.0145953
0.00285438
0.00281132
0.00164215
0.00667212
0.00342934
0.00282821
0.010293
0.00620482
0.0145086
0.00658539
0.00472037
0.00966129
0.00679749
0.00288283
0.00226332
0.00603375
0.00392401
0.00740679
0.0259385
0.0155908
0.0192417
0.0175404
0.0214632
0.00811569
0.0121073
0.0141596
0.0145567
0.00829649
0.0121979
0.00670955
0.00353293
0.00626434
0.0102417
0.00255714
0.00238787
0.0432031
0.0382679
0.0283931
0.00445634
0.0206992
0.0108663
0.0110373
0.0221828
0.00657136
0.00368834
0.000285027
0.00251325
0.0187209
0.0252708
0.00891012
0.0155302
0.0125812
0.0133912
0.0100328
0.03019
0.0408046
0.0110469
0.0259759
0.0169651
0.0222034
0.00486216
0.00755731
0.00695404
0.0120521
0.00441186
0.00291118
0.00415806
0.010562
0.00499191
0.00318152
0.00329981
0.000838244
0.00542149
0.0313569
0.0445143
0.0169074
0.0211643
0.0292536
0.0370519
0.0261445
0.0115369
0.0059211
0.0108489
0.00523678
0.00943164
0.00438443
0.00977007
0.00426562
0.00557925
0.00553427
0.0165699
0.00876422
0.0117625
0.00547375
0.0061764
0.0107391
0.022641
0.0202384
0.029325
0.058691
0.0235791
0.0347751
0.033311
0.0219214
0.00121682
0.006163
0.014255
0.0100202
0.0113085
0.0132238
0.0181739
0.00304553
0.0015491
0.0165457
0.0113392
0.0101478
0.00844032
0.0136814
0.026886
0.0250596
0.0257304
0.0225388
0.0317318
0.00640692
0.00703352
0.00666625
0.0123182
0.00296062
0.0171663
0.018515
0.019423
0.0186123
0.0205844
0.0165072
0.0137344
0.0035054
0.00678471
0.00674743
0.00457372
0.00716614
0.0037543
0.0147911
0.0123526
0.0168766
0.0150426
0.0190257
0.0116435
0.0152216
0.0161479
0.0114357
0.0124073
0.0284202
0.0203984
0.0279092
0.015841
0.0100334
0.0287691
0.0183076
0.0247822
0.00874782
0.00792542
0.0196842
0.0263576
0.0207619
0.0432299
0.047893
0.0425438
0.0342705
0.0453717
0.0489732
0.0201441
0.0309817
0.030534
0.0033386
0.013937
0.0425401
0.022035
0.0128421
0.0126864
0.0271288
0.0122292
0.00967145
0.0378442
0.0228282
0.0138235
0.0288547
0.0442378
0.0327049
0.0200227
0.0349102
0.037374
0.0214303
0.00425352
0.0103657
0.0230915
0.0444095
0.0691667
0.0672646
0.0639758
0.0125906
0.0152641
0.0122789
0.0107536
0.0289562
0.0194114
0.0300479
0.0170447
0.0182603
0.0332335
0.0252126
0.0319964
0.0182591
0.016772
0.0227002
0.0297638
0.0242005
0.0395161
0.0348086
0.0293652
0.0330999
0.0364312
0.0382074
0.0256307
0.0355442
0.0341277
0.0183237
0.0173743
0.0140909
0.0177145
0.0212785
0.0203126
0.020186
0.0329635
0.0255975
0.00439487
0.017648
0.00879758
0.0128447
0.00707959
0.00764406
0.00674254
0.00457585
0.0166464
0.0130891
0.0160325
0.00657887
0.00576014
0.00324042
0.0152771
0.0110303
0.0190317
0.0226297
0.0175594
0.0229086
0.0119353
0.014875
0.016376
0.0114054
0.0128122
0.0064878
0.0053431
0.0042432
0.0028296
0.0072394
0.00392617
0.0096424
0.011911
0.00399789
0.00697237
0.0135386
0.0118462
0.0156893
0.0029081
0.00637553
0.0032301
0.0134154
0.010639
0.00918264
0.0047672
0.00380895
0.00353396
0.0221289
0.0271271
0.0110102
0.0169328
0.0242481
0.024012
0.028045
0.017486
0.012685
0.004846
0.00903684
0.0117163
0.00557328
0.0035486
0.0455938
0.0342862
0.0391583
0.034356
0.0295856
0.0376597
0.00527258
0.0171251
0.00781842
0.00898227
0.0116861
0.0255386
0.0235977
0.024379
0.0303449
0.0256267
0.0142646
0.0189157
0.0147486
0.0435965
0.0383031
0.0133531
0.0230024
0.0138993
0.0324693
0.037458
0.0168264
0.0157514
0.0193779
0.00507384
0.00779827
0.00362732
0.00904064
0.0110802
0.00610101
0.0296982
0.0161124
0.0138388
0.0190694
0.0235188
0.0100609
0.01507
0.0178584
0.0165993
0.0147186
0.0182821
0.0146196
0.0103144
0.0123313
0.0143085
0.00838708
0.00486519
0.00540634
0.00612531
0.00564703
0.0108689
0.00767364
0.01466
0.0111533
0.00506471
0.0081568
0.00624635
0.00518921
0.00892948
0.0246868
0.0238351
0.0238027
0.0229041
0.0222946
0.012126
0.0135822
0.0301993
0.021557
0.0281252
0.0174774
0.023013
0.010826
0.00842981
0.0210777
0.0153841
0.0264441
0.0197831
0.0291291
0.0334894
0.0317387
0.0322751
0.0190405
0.017853
0.0178397
0.0231681
0.0399382
0.0114181
0.0195892
0.0156521
0.0128425
0.0159949
0.0228166
0.0535461
0.0364208
0.0307997
0.0252858
0.0226011
0.0256546
0.0318108
0.0224588
0.0131037
0.00799372
0.00372197
0.015809
0.0198346
0.027168
0.0222577
0.0188998
0.0201112
0.0234754
0.0226419
0.0231903
0.0249947
0.0270007
0.0233418
0.02688
0.0273724
0.020429
0.013215
0.0197853
0.0243989
0.0285056
0.0315507
0.00380835
0.00699709
0.018666
0.00757724
0.0246588
0.0303376
0.0302064
0.02641
0.0211026
0.0172028
0.0198992
0.0300343
0.012973
0.0177913
0.0151862
0.0172897
0.0217664
0.0218198
0.0342404
0.0259035
0.0190004
0.01876
0.0237762
0.0270966
0.0277956
0.0334351
0.0394719
0.0258246
0.035351
0.0305796
0.00906895
0.0278245
0.0186701
0.00804177
0.0146205
0.0124351
0.0177228
0.0114506
0.0206083
0.0288835
0.033144
0.00579657
0.0128675
0.0134114
0.00641124
0.026031
0.0275109
0.0264506
0.034912
0.0296342
0.0279256
0.0379292
0.0340843
0.0475603
0.0194462
0.0252875
0.0212697
0.0199972
0.0241971
0.0206851
0.0287471
0.0289522
0.0288509
0.0353877
0.0327997
0.0376686
0.00843937
0.0117583
0.00999277
0.0176426
0.0145249
0.0134584
0.021025
0.0161588
0.0230723
0.033999
0.0281342
0.0240568
0.00520097
0.00168084
0.00237847
0.00215614
0.00214387
0.00278083
0.00395774
0.00280947
0.00473207
0.00480989
0.00308204
0.00313781
0.00574567
0.00447958
0.00817055
0.00280788
0.00275962
0.00205065
0.0124877
0.0110494
0.0159849
0.0066332
0.00824418
0.00903889
0.0129359
0.0090665
0.00739622
0.00231162
0.00467345
0.0040346
0.00928991
0.00719723
0.010702
0.00322947
0.00469468
0.00425284
0.00914724
0.00649883
0.00654597
0.00706092
0.0038972
0.00365774
0.00242575
0.00350426
0.00536866
0.00184139
0.00281593
0.00260982
0.00562753
0.00523167
0.00691595
0.00531085
0.0048379
0.00653892
0.00828492
0.00513862
0.00404838
0.00357947
0.00290707
0.00470919
0.0205511
0.0175136
0.0196337
0.0266782
0.0305889
0.00931409
0.0142375
0.0106544
0.010663
0.0130868
0.0119769
0.0258023
0.0172558
0.0110764
0.0133235
0.0220157
0.0208773
0.0262217
0.0229814
0.0263074
0.0164578
0.0193435
0.0193493
0.0196656
0.0180608
0.00707114
0.00902646
0.0106137
0.00963215
0.00927772
0.0114204
0.0139016
0.0080338
0.0110105
0.00611464
0.0163967
0.0153495
0.0165558
0.0101989
0.0125506
0.0122282
0.0151472
0.0133056
0.0160643
0.0119159
0.00921306
0.0101658
0.00936112
0.0128913
0.00638534
0.00411812
0.00521801
0.0065477
0.00721124
0.0029399
0.00486708
0.00164559
0.0124278
0.00904336
0.0102124
0.00215599
0.00435022
0.00262115
0.00186007
0.00196964
0.00146593
0.00211619
0.00700545
0.00402673
0.00447866
0.0358236
0.0370279
0.0314171
0.038249
0.0423557
0.0425914
0.0253604
0.0350368
0.0320475
0.003908
0.00672146
0.00420194
0.0134829
0.0102026
0.00606203
0.0214195
0.0157961
0.0276851
0.00660311
0.0099824
0.00590606
0.0260527
0.0177014
0.0165627
0.00738133
0.0129757
0.0146501
0.0320736
0.0235814
0.0319572
0.00565606
0.00163354
0.00387978
0.00722046
0.00794025
0.00402908
0.00259387
0.00267118
0.00125036
0.000338132
0.00464004
0.00727626
0.00551957
0.00321937
0.00293635
0.000661751
0.000842926
0.00301175
0.0238187
0.0289093
0.0187267
0.0203866
0.0209675
0.0206149
0.0177947
0.00636218
0.0114144
0.0133293
0.0133953
0.0112039
0.0158936
0.0169966
0.0102127
0.010591
0.00920633
0.015211
0.0127767
0.0148152
0.0110013
0.0110304
0.0118715
0.0171472
0.0144812
0.016441
0.0323967
0.0382808
0.0352784
0.037284
0.0278402
0.0437997
0.0395768
0.00976187
0.0155821
0.0107584
0.017667
0.0179077
0.01119
0.0228437
0.0235369
0.0307234
0.00700586
0.00408697
0.0286652
0.0163977
0.00698697
0.0110279
0.0151534
0.0350245
0.026057
0.0342646
0.0106521
0.00986925
0.0125832
0.00488282
0.00707128
0.0048941
0.0118951
0.00947615
0.00935515
0.0066495
0.00381918
0.00594021
0.00220468
0.00233649
0.00277285
0.00295217
0.00291503
0.00337045
0.00831495
0.00621477
0.00681266
0.00894694
0.00773521
0.0119634
0.000904556
0.00341701
0.00211539
0.00479164
0.0038166
0.00647375
0.00502334
0.00399283
0.00373187
0.0061973
0.00857345
0.00582157
0.000291538
0.0013093
0.00487945
0.0044862
0.00827086
0.00996748
0.00943606
0.00586058
0.00221407
0.00176769
0.00138712
0.00452661
0.031421
0.0356369
0.0229274
0.0271579
0.0505109
0.0365407
0.0409335
0.0123049
0.0135005
0.0251394
0.0179949
0.0235261
0.016133
0.0192404
0.0223092
0.0263633
0.021861
0.0405996
0.0353691
0.0379957
0.0315092
0.0314497
0.0311372
0.0259236
0.0303889
0.0364871
0.0126389
0.00905185
0.00735051
0.00817392
0.0105638
0.00627082
0.00437908
0.010217
0.00788648
0.00880356
0.00647773
0.00762971
0.0117564
0.00933142
0.00712351
0.00646211
0.00595385
0.00956084
0.00366182
0.0043076
0.00887975
0.00589146
0.0047929
0.0051862
0.00392301
0.00449062
0.00303156
0.00407054
0.00593231
0.00807225
0.00584613
0.00726761
0.00521914
0.00455867
0.00396153
0.0175449
0.0126335
0.0136998
0.0104053
0.0114264
0.0157219
0.0111342
0.01017
0.00939236
0.00558652
0.00564861
0.00831189
0.00409184
0.00507046
0.00471027
0.0114684
0.00739197
0.00901456
0.00712403
0.00766179
0.00505208
0.0150037
0.0168292
0.015098
0.0207692
0.0289806
0.0137284
0.0174325
0.0143473
0.0148554
0.0181314
0.0227061
0.0337462
0.029404
0.0221845
0.0214302
0.0249288
0.0269316
0.0298135
0.0479133
0.0578736
0.0585758
0.057343
0.0555516
0.0208189
0.0250226
0.0299273
0.0274497
0.0261865
0.0319591
0.044479
0.0233122
0.0192606
0.0420311
0.0299085
0.0250722
0.0258632
0.0292815
0.0473992
0.0366205
0.0463681
0.00278225
0.00201618
0.00417092
0.00233539
0.00212738
0.00475742
0.00853618
0.0110613
0.00937141
0.0125161
0.0136922
0.0113663
0.0172705
0.00877719
0.00817828
0.00646437
0.0137689
0.0169915
0.0115577
0.0129382
0.0195858
0.014975
0.0149774
0.00836712
0.0122527
0.0104451
0.00113027
0.00448098
0.00516496
0.00192986
0.000665906
0.000884554
0.00198812
0.0155707
0.0123177
0.0134747
0.0134663
0.017953
0.0113022
0.0089958
0.0119776
0.00879327
0.0108566
0.00456492
0.00712727
0.00648728
0.0162208
0.0104125
0.0123264
0.00747237
0.0102224
0.0056876
0.0215425
0.0256965
0.0234045
0.0244906
0.0271518
0.0162285
0.0234184
0.0201453
0.0205872
0.0244462
0.0198491
0.026557
0.0230096
0.0216928
0.0241441
0.0287095
0.0280797
0.0287227
0.0290997
0.0325961
0.0199379
0.0244693
0.0297149
0.0277258
0.0252434
0.00721006
0.00547324
0.00480541
0.00384878
0.00590275
0.00779519
0.0134975
0.00112136
0.0035196
0.000623
0.0201737
0.0114699
0.0170941
0.00531962
0.00621224
0.00611847
0.0151938
0.0104018
0.0187633
0.0143662
0.0149924
0.0198288
0.0179763
0.0195671
0.015748
0.0164594
0.0191929
0.0186924
0.0186368
0.017642
0.0180482
0.0188351
0.0206662
0.0191889
0.0196513
0.0112528
0.00982002
0.0158204
0.0138584
0.0164657
0.014428
0.0165779
0.0194726
0.0183284
0.0183381
0.00420791
0.00434148
0.00508389
0.00390737
0.00385611
0.00288649
0.00914918
0.00613994
0.00957204
0.00108387
0.00283117
0.00279212
0.0103839
0.0062249
0.0103447
0.00231234
0.00397693
0.00380741
0.015549
0.0145802
0.0176568
0.0122054
0.0135445
0.0135118
0.0158881
0.0136164
0.0126245
0.00720567
0.0105172
0.0104033
0.0118131
0.0186524
0.01542
0.0109996
0.0102194
0.0204229
0.0180842
0.0191925
0.0201816
0.0199655
0.00287573
0.00882748
0.00619596
0.00853248
0.0148096
0.0183927
0.0170849
0.0141507
0.013274
0.0137202
0.0112211
0.0125615
0.0189844
0.0159981
0.0190289
0.00698509
0.00749748
0.0158395
0.0111629
0.0161361
0.00839048
0.00965705
0.0329312
0.0260545
0.034137
0.0215036
0.0234265
0.0250488
0.0241739
0.0222252
0.019587
0.0142446
0.0172998
0.0184673
0.0117896
0.00845424
0.0164102
0.0121495
0.0191268
0.00561909
0.00558019
0.0332266
0.0249604
0.0267068
0.0166771
0.0214329
0.0227044
0.0234708
0.0223909
0.0199768
0.00434112
0.00561145
0.00569303
0.00486834
0.011339
0.00714862
0.0116183
0.0148557
0.0135302
0.00959951
0.0186206
0.0203084
0.0194408
0.026286
0.0219684
0.0214779
0.0218528
0.0222392
0.0255835
0.0442414
0.0484236
0.0488002
0.0510883
0.0489078
0.0433281
0.0320463
0.0452573
0.0347742
0.0373195
0.0460885
0.0430613
0.0310835
0.0402464
0.0273528
0.049272
0.0515009
0.0527996
0.0362042
0.0486986
0.0346899
0.0109758
0.0184875
0.0138198
0.0162122
0.0219124
0.0404801
0.0402176
0.041166
0.0315242
0.0242624
0.0372155
0.0266286
0.030575
0.0367567
0.0381391
0.0254007
0.0315525
0.026372
0.00637901
0.0112285
0.00219469
0.00202314
0.0150691
0.00738261
0.00847679
0.0276731
0.0219473
0.0342803
0.0319023
0.0489576
0.0167535
0.00851617
0.0102677
0.0110866
0.0148532
0.00946532
0.0100003
0.0141328
0.0395944
0.0179039
0.0277965
0.00885302
0.0191105
0.007219
0.00832088
0.00457879
0.0113478
0.00815003
0.0150768
0.0034047
0.00751649
0.024939
0.0173393
0.0129139
0.0374877
0.0277533
0.048303
0.0150659
0.0149455
0.0132999
0.0235519
0.0282374
0.0144668
0.0199655
0.0522693
0.0351713
0.0404507
0.0172368
0.0304332
0.0193186
0.0427102
0.0341748
0.0439002
0.018012
0.0251794
0.0222021
0.025581
0.0259694
0.0195706
0.0177048
0.0162911
0.00493845
0.03609
0.0300475
0.0481418
0.00510743
0.0135293
0.0124474
0.011594
0.0256359
0.029866
0.0149814
0.0190254
0.0103847
0.0505924
0.0338663
0.0369774
0.0164985
0.0242227
0.0170576
0.050063
0.0673667
0.0619173
0.0607982
0.0645602
0.0478196
0.0646696
0.0592414
0.0583001
0.0660044
0.0369461
0.0609748
0.0504481
0.0540168
0.0632208
0.0729671
0.0709913
0.07149
0.00976841
0.0103629
0.00807703
0.00859785
0.0194738
0.0139602
0.0180945
0.0093612
0.00759093
0.0143924
0.0101921
0.0160708
0.00697007
0.00730716
0.03043
0.0277585
0.0349354
0.0215451
0.0244013
0.0262625
0.0241758
0.0224322
0.0180504
0.011824
0.0153438
0.0166997
0.015078
0.015026
0.0218227
0.0177809
0.0202712
0.0145938
0.0137583
0.0373384
0.030964
0.0344366
0.0250743
0.0270038
0.0291864
0.0287238
0.0277216
0.0255508
0.0121552
0.0111643
0.0130083
0.0131055
0.0219366
0.0170186
0.022242
0.0230317
0.0233164
0.0184508
0.0226002
0.0242754
0.0225418
0.0264888
0.0249639
0.0226431
0.0263263
0.0268462
0.0309572
0.0377308
0.0340274
0.0308172
0.0370738
0.0359417
0.0392851
0.0266167
0.0317921
0.0289675
0.0344613
0.0345465
0.0386191
0.0336921
0.034083
0.0311053
0.0379311
0.0349842
0.0366153
0.0329424
0.0375844
0.0354124
0.0159524
0.027781
0.0215373
0.019134
0.0240144
0.0405367
0.0399253
0.0395742
0.0356653
0.0320445
0.0394837
0.0281349
0.032918
0.0395664
0.0400062
0.0318234
0.035981
0.0304112
0.0148219
0.0150497
0.0155324
0.0148277
0.0201482
0.0177104
0.0205803
0.0105853
0.0123184
0.0176048
0.0156055
0.0169761
0.0148745
0.0158704
0.0195683
0.0195579
0.0200203
0.0213493
0.0206568
0.0219378
0.0197732
0.0192811
0.0188411
0.0188622
0.0197641
0.0207282
0.0331793
0.0307399
0.0281591
0.0299262
0.0315177
0.0266448
0.0233037
0.00114512
0.00596327
0.00196623
0.0105666
0.0103734
0.00755436
0.0196806
0.0157086
0.0239826
0.00923025
0.00874508
0.0191075
0.0135421
0.00699404
0.00724342
0.00870951
0.0232905
0.0163082
0.0202143
0.00544055
0.00466325
0.00529227
0.0109585
0.00693431
0.0109264
0.00382662
0.00383873
0.00348657
0.0183816
0.0150467
0.0166479
0.0121641
0.0136162
0.0148895
0.0155126
0.0144995
0.0137099
0.00459911
0.0033204
0.00130834
0.00306343
0.00375761
0.00435156
0.00841419
0.00499469
0.00916992
0.0110704
0.0103469
0.00646899
0.0112886
0.010751
0.0107085
0.0153411
0.0190974
0.00215351
0.013602
0.00670642
0.00600761
0.0093252
0.0206827
0.0206454
0.0205374
0.0185658
0.0170509
0.0142689
0.0169609
0.0189417
0.0240019
0.022046
0.0249296
0.0186718
0.0197485
0.020843
0.0204088
0.0193642
0.0174713
0.0135921
0.0135672
0.0150688
0.0112866
0.0122431
0.0101016
0.0180575
0.0152812
0.0175565
0.00728962
0.00909139
0.00651132
0.0154037
0.0123133
0.0151975
0.00678674
0.00904457
0.00998152
0.0171555
0.0143411
0.0160161
0.00400452
0.00307374
0.00339864
0.00506708
0.0045535
0.0068717
0.0043735
0.00331903
0.00536237
0.010348
0.00814509
0.0108521
0.0032758
0.0052215
0.00434701
0.00797362
0.00658888
0.00555709
0.0125984
0.00869697
0.0115114
0.00630561
0.00761426
0.0103839
0.00355039
0.00477204
0.00287177
0.00385651
0.00293235
0.00371121
0.0159256
0.014585
0.0167181
0.00970755
0.0122659
0.0108874
0.0151737
0.0137429
0.0136889
0.0039138
0.00275432
0.00263254
0.00556797
0.0036959
0.00354293
0.00510763
0.00431519
0.00686478
0.0125748
0.0109748
0.0112009
0.013109
0.0119764
0.0141089
0.00715619
0.00929062
0.0076277
0.00945774
0.00899797
0.0118994
0.0108411
0.00330616
0.00592905
0.00888391
0.00732726
0.00923622
0.00501828
0.00675182
0.00561308
0.00330178
0.00459694
0.00584095
0.00460095
0.0032964
0.00385574
0.00322089
0.00339683
0.00416504
0.0266445
0.027733
0.0205684
0.0235932
0.0247683
0.0247205
0.0251184
0.00696827
0.00938343
0.018197
0.0135731
0.0147953
0.0136795
0.0175561
0.0311751
0.02519
0.0356442
0.0275769
0.0239771
0.0268773
0.0202702
0.020343
0.0194775
0.0196918
0.0215965
0.0241433
0.0178541
0.0154799
0.0145194
0.0151942
0.0166311
0.0129164
0.00994807
0.00609667
0.00715702
0.00952754
0.0050237
0.00608896
0.00425389
0.0135406
0.0100401
0.0127506
0.00322386
0.00462948
0.00662639
0.00434871
0.00285379
0.0032103
0.00407107
0.0118392
0.00793332
0.00921831
0.0462702
0.0442129
0.0442583
0.0340296
0.0411195
0.0380742
0.0312688
0.0389256
0.0311333
0.0372514
0.0358931
0.0363769
0.0257025
0.0314918
0.0294591
0.0349842
0.0342254
0.0325967
0.00558557
0.00507867
0.00548594
0.0203953
0.00926669
0.0114734
0.0152476
0.0103577
0.0187678
0.0297573
0.024592
0.0264653
0.0078544
0.00600361
0.00510432
0.0101391
0.0144658
0.00636862
0.0193503
0.0107944
0.00639967
0.00670329
0.0362627
0.0217813
0.0290798
0.0310265
0.0263396
0.0113787
0.0194539
0.017951
0.0275658
0.0257471
0.0260433
0.0255778
0.022082
0.0251051
0.0222623
0.0371642
0.02628
0.0212904
0.0218825
0.0226298
0.0248446
0.0285638
0.010804
0.0123066
0.010708
0.0193374
0.015848
0.0173347
0.0176332
0.0160925
0.0202732
0.0258329
0.023613
0.0214795
0.0464822
0.0465261
0.0375786
0.0432729
0.0375595
0.0433369
0.0358972
0.0060837
0.0102448
0.00605515
0.0234211
0.0166667
0.0212635
0.0244992
0.0185014
0.0293201
0.0375314
0.0389505
0.0342114
0.0358325
0.0333019
0.0343337
0.0292903
0.0315962
0.0285486
0.0329063
0.0190542
0.0184439
0.020551
0.0127576
0.0162123
0.0140155
0.0183295
0.0179326
0.0169396
0.00742772
0.00462659
0.00395931
0.00542585
0.00443017
0.00379799
0.00616038
0.00579552
0.00857094
0.00368819
0.00549733
0.00396954
0.0147367
0.010508
0.0150167
0.0067697
0.00750919
0.0070857
0.0119493
0.0103469
0.0142744
0.0392656
0.0309791
0.0349841
0.0324559
0.0252647
0.00887548
0.0102907
0.00988932
0.0164423
0.0247402
0.0117306
0.0180624
0.0143014
0.00811119
0.00963493
0.0241306
0.016228
0.0226591
0.0232622
0.0244581
0.0191153
0.0208801