<VTKFile type="ImageData" version="1.0" byte_order="LittleEndian" header_type="UInt64">
	<ImageData WholeExtent="0 99 0 99 0 99" Origin="-85.0795 -2.78348 -64.0035" Spacing="1.50003 1.50003 1.50003">
		<Piece Extent="0 99 0 99 0 99">
			<PointData Scalars="Scalars_">
				<DataArray type="Float32" Name="Scalars_" format="ascii" RangeMin="0" RangeMax="100">
78.1699
77.2918
76.4169
75.5449
74.6708
73.7945
72.9122
72.0245
71.1309
70.2326
69.3323
68.4333
67.5381
66.6508
65.7739
64.9108
64.0637
63.2339
62.4237
61.6337
60.8662
60.1222
59.4021
58.7073
58.0385
57.3958
56.7812
56.1947
55.6368
55.1088
54.6111
54.1443
53.7087
53.306
52.936
52.6007
52.2997
52.0351
51.8086
51.6214
51.4762
51.3752
51.322
51.3664
51.452
51.5777
51.741
51.9389
52.1659
52.4164
52.6864
52.9727
53.2748
53.5931
53.9276
54.2764
54.6352
54.9954
55.3328
55.6085
55.8194
56.0077
56.2088
56.433
56.6805
56.9487
57.2365
57.5441
57.8723
58.2227
58.5965
58.9953
59.42
59.87
60.3469
60.849
61.3761
61.9282
62.5044
63.1036
63.7252
64.3689
65.0329
65.7167
66.4202
67.1406
67.8783
68.6313
69.4007
70.1833
70.9777
71.7844
72.5993
73.4207
74.2469
75.0756
75.9033
76.729
77.5509
78.3666
77.6594
76.7753
75.8959
75.0173
74.1379
73.2553
72.367
71.4718
70.5723
69.668
68.7606
67.855
66.9524
66.0577
65.1737
64.3028
63.4475
62.6096
61.7914
60.9946
60.2194
59.4675
58.74
58.0377
57.361
56.7112
56.0891
55.4954
54.9308
54.3961
53.8916
53.4187
52.9773
52.5689
52.1937
51.8535
51.5478
51.2791
51.049
50.8589
50.7115
50.6094
50.5547
50.5989
50.6851
50.8122
50.9771
51.1774
51.4078
51.6617
51.9347
52.2246
52.5303
52.8515
53.1888
53.5391
53.8983
54.2571
54.5894
54.8578
55.0638
55.2519
55.4548
55.6809
55.9308
56.201
56.4909
56.8002
57.1301
57.4825
57.8587
58.2601
58.6872
59.1404
59.6198
60.125
60.6554
61.2103
61.7889
62.3912
63.0159
63.6619
64.3284
65.0144
65.7192
66.4417
67.1811
67.9364
68.7061
69.4902
70.2866
71.0949
71.911
72.7348
73.5631
74.3934
75.2235
76.0518
76.8756
77.6945
77.1741
76.2856
75.4001
74.5164
73.6313
72.7429
71.8485
70.9475
70.0412
69.1294
68.2164
67.3027
66.3938
65.4916
64.6003
63.7223
62.8598
62.0148
61.1887
60.384
59.6016
58.8421
58.107
57.3973
56.7133
56.0566
55.4272
54.8264
54.255
53.7139
53.203
52.7235
52.2767
51.8627
51.4825
51.1368
50.8268
50.5544
50.3205
50.1275
49.9781
49.8741
49.8183
49.8626
49.9489
50.0768
50.2437
50.4467
50.6798
50.9366
51.2136
51.5069
51.8156
52.1396
52.4788
52.83
53.1886
53.5433
53.8678
54.1271
54.3282
54.5165
54.7211
54.9499
55.2012
55.4733
55.7646
56.0754
56.4072
56.7617
57.1401
57.5441
57.9737
58.4293
58.9115
59.4194
59.9527
60.51
61.0914
61.6959
62.3226
62.9706
63.6389
64.3265
65.0331
65.757
66.498
67.2544
68.0261
68.8121
69.6098
70.4192
71.2373
72.0628
72.8932
73.726
74.5594
75.3903
76.2162
77.0397
76.7152
75.8208
74.9298
74.0412
73.1511
72.2569
71.3572
70.451
69.5379
68.6199
67.6992
66.7793
65.8633
64.9553
64.0567
63.1717
62.3018
61.4494
60.6162
59.8039
59.0142
58.2474
57.5049
56.7878
56.0966
55.4327
54.7968
54.1891
53.6111
53.0627
52.5461
52.0608
51.608
51.1889
50.8032
50.4522
50.1383
49.8621
49.6245
49.4283
49.2771
49.1713
49.1144
49.1584
49.2449
49.3743
49.5427
49.7479
49.9833
50.2437
50.5239
50.8202
51.1318
51.4585
51.7989
52.1495
52.5047
52.8531
53.1673
53.4156
53.6119
53.7999
54.0065
54.2373
54.4912
54.765
55.0576
55.3697
55.7036
56.0597
56.44
56.8462
57.2783
57.7365
58.2212
58.7312
59.2668
59.8264
60.4099
61.0167
61.645
62.2942
62.9643
63.6531
64.3609
65.0862
65.8288
66.5867
67.36
68.1471
68.9464
69.7578
70.5785
71.4063
72.2395
73.0753
73.9108
74.7443
75.5757
76.402
76.282
75.3836
74.4876
73.5936
72.6977
71.7992
70.8935
69.9814
69.0623
68.1394
67.2122
66.2856
65.363
64.4478
63.5429
62.6506
61.774
60.915
60.0748
59.2555
58.4587
57.685
56.935
56.2108
55.5126
54.8417
54.1987
53.5849
53
52.4459
51.9227
51.4316
50.9731
50.548
50.1573
49.8019
49.4835
49.2034
48.9625
48.7635
48.6093
48.5022
48.4445
48.4881
48.5749
48.7049
48.8747
49.0817
49.3202
49.5839
49.8673
50.1665
50.4808
50.8087
51.1491
51.4974
51.8462
52.1847
52.4853
52.7218
52.9126
53.1013
53.3107
53.5434
53.7987
54.0743
54.3684
54.6824
55.0173
55.375
55.7576
56.1656
56.6
57.0605
57.5469
58.0595
58.5968
59.1584
59.7439
60.3522
60.9817
61.6325
62.3038
62.994
63.7028
64.4296
65.173
65.9326
66.707
67.4958
68.2983
69.1114
69.9345
70.7647
71.6008
72.4401
73.2801
74.1176
74.9521
75.7829
75.8764
74.973
74.0728
73.1736
72.2729
71.3684
70.4583
69.5404
68.6165
67.6864
66.7541
65.8215
64.8935
63.9717
63.0599
62.1612
61.2776
60.4118
59.5651
58.7393
57.9351
57.1544
56.3978
55.6668
54.9618
54.2841
53.6346
53.0145
52.4235
51.8631
51.3341
50.8371
50.3731
49.9428
49.5472
49.187
48.8642
48.5799
48.3362
48.1343
47.9776
47.8685
47.8102
47.8529
47.9397
48.0698
48.2417
48.4508
48.6918
48.9583
49.2448
49.5474
49.8634
50.1919
50.5301
50.8723
51.2116
51.5354
51.8191
52.0423
52.2294
52.4194
52.631
52.8659
53.1234
53.4001
53.6958
54.0109
54.347
54.7071
55.0913
55.5014
55.9373
56.4001
56.8889
57.4028
57.9419
58.5053
59.0918
59.7016
60.3324
60.9841
61.6564
62.3481
63.0578
63.7861
64.531
65.2925
66.0689
66.8604
67.6643
68.4805
69.3067
70.1403
70.9804
71.823
72.6669
73.5093
74.3482
75.1828
75.4983
74.5901
73.6858
72.7822
71.8769
70.9675
70.0524
69.1296
68.2004
67.2649
66.3268
65.3885
64.4537
63.5262
62.6085
61.7037
60.8136
59.9413
59.0882
58.2556
57.4452
56.6583
55.8952
55.1576
54.4463
53.7618
53.1063
52.4795
51.8823
51.316
50.7815
50.2791
49.8093
49.3746
48.9739
48.6089
48.2817
47.9938
47.7467
47.542
47.3829
47.2718
47.2129
47.255
47.3412
47.472
47.6452
47.8561
48.0992
48.369
48.6582
48.963
49.2805
49.6082
49.9407
50.2727
50.596
50.9008
51.165
51.3761
51.5599
51.7516
51.9657
52.2033
52.4624
52.7411
53.0377
53.3545
53.692
54.0535
54.4397
54.8518
55.2897
55.7543
56.2445
56.7605
57.3011
57.8655
58.4537
59.0643
59.6962
60.3491
61.0226
61.7156
62.4267
63.1561
63.9033
64.6662
65.4455
66.2393
67.0461
67.8653
68.6957
69.5333
70.3773
71.2249
72.0726
72.9197
73.7628
74.6018
75.1488
74.2357
73.3269
72.4193
71.5098
70.5959
69.6764
68.7492
67.8144
66.8746
65.9309
64.9877
64.0472
63.113
62.1895
61.2784
60.3833
59.5048
58.6451
57.8067
56.9902
56.1969
55.4278
54.6838
53.966
53.276
52.6143
51.9814
51.3786
50.8067
50.266
49.7582
49.2834
48.843
48.438
48.0693
47.738
47.4461
47.1957
46.9885
46.8269
46.7147
46.6542
46.695
46.7811
46.9121
47.086
47.2989
47.5445
47.817
48.109
48.4157
48.7334
49.0567
49.3789
49.6937
49.9957
50.2769
50.5203
50.7208
50.9031
51.0974
51.3143
51.554
51.8151
52.0951
52.3932
52.711
53.0505
53.4137
53.8019
54.2158
54.6558
55.1217
55.6134
56.1306
56.673
57.2387
57.8279
58.4394
59.0726
59.727
60.402
61.0964
61.8098
62.5415
63.2908
64.0568
64.8385
65.6358
66.4452
67.2686
68.1027
68.9445
69.793
70.6445
71.4976
72.3493
73.1973
74.0412
74.8273
73.9106
72.9979
72.0865
71.1735
70.2552
69.3307
68.3991
67.4604
66.5151
65.5669
64.6184
63.6729
62.7341
61.8044
60.8881
59.9867
59.1023
58.2374
57.393
56.5704
55.7716
54.9967
54.2468
53.5235
52.8277
52.16
51.5212
50.9132
50.3354
49.7899
49.2769
48.797
48.3518
47.9422
47.5691
47.2336
46.9385
46.685
46.4753
46.3119
46.1975
46.1357
46.1752
46.261
46.3917
46.5664
46.7809
47.029
47.3038
47.5982
47.9061
48.2214
48.5354
48.8394
49.1291
49.4032
49.6585
49.8833
50.0754
50.2579
50.4554
50.6749
50.9171
51.1804
51.4618
51.761
52.0804
52.422
52.7872
53.1773
53.5924
54.0341
54.5019
54.9951
55.514
56.0575
56.6247
57.215
57.8278
58.4626
59.1186
59.7953
60.4918
61.2074
61.9422
62.6939
63.4633
64.2483
65.0495
65.8633
66.6901
67.5284
68.3756
69.2284
70.0852
70.9437
71.8003
72.6528
73.502
74.5353
73.6154
72.6993
71.7843
70.8662
69.9444
69.0159
68.0806
67.137
66.1877
65.2351
64.2815
63.3318
62.388
61.4536
60.5323
59.6258
58.7359
57.8655
57.0156
56.1878
55.3832
54.6029
53.8478
53.1191
52.4179
51.7447
51.1009
50.4874
49.9047
49.3542
48.8358
48.3513
47.9015
47.4879
47.1107
46.7717
46.4728
46.2162
46.0039
45.8385
45.7223
45.6592
45.6978
45.7821
45.9129
46.088
46.3035
46.5538
46.831
47.1269
47.4348
47.7432
48.0391
48.3136
48.5692
48.8126
49.0437
49.2531
49.4401
49.6243
49.8249
50.0477
50.2927
50.5581
50.8408
51.1417
51.463
51.8062
52.1729
52.5651
52.9823
53.4257
53.8952
54.3898
54.91
55.4547
56.0237
56.6156
57.2302
57.8668
58.5251
59.2041
59.9033
60.6219
61.3595
62.1148
62.8876
63.6768
64.4817
65.3001
66.1318
66.9748
67.8264
68.6849
69.547
70.4105
71.2715
72.1303
72.9838
74.2738
73.3498
72.4311
71.5126
70.5915
69.6664
68.7347
67.7954
66.8484
65.8948
64.938
63.9801
63.0253
62.0771
61.1382
60.2123
59.301
58.4066
57.5312
56.6762
55.8432
55.0335
54.2482
53.4881
52.7546
52.0485
51.3702
50.7213
50.1028
49.5153
48.9603
48.4375
47.9485
47.4942
47.0763
46.6952
46.3526
46.0508
45.7911
45.5761
45.4086
45.2906
45.2264
45.2632
45.3461
45.4765
45.6517
45.8683
46.1207
46.3997
46.6967
47.0005
47.2937
47.5573
47.7904
48.007
48.221
48.432
48.6313
48.8164
49.0032
49.2076
49.4344
49.6818
49.949
50.2334
50.5361
50.8587
51.2037
51.5725
51.9663
52.3856
52.8309
53.3018
53.7978
54.3196
54.8662
55.4368
56.0308
56.6478
57.2872
57.948
58.6299
59.3324
60.0542
60.795
61.5541
62.3316
63.1249
63.9342
64.7577
65.5942
66.4421
67.2992
68.1627
69.0298
69.8983
70.7656
71.6292
72.4883
74.0432
73.1175
72.1946
71.2725
70.349
69.421
68.4857
67.5428
66.5915
65.6351
64.6748
63.713
62.7539
61.8019
60.859
59.9289
59.0136
58.1148
57.2347
56.3751
55.5379
54.7235
53.9333
53.1689
52.4308
51.7198
51.0375
50.3843
49.761
49.1695
48.6097
48.0825
47.5899
47.1315
46.7092
46.3251
45.9789
45.6737
45.4113
45.1938
45.0239
44.9046
44.8387
44.8731
44.9545
45.0843
45.2595
45.4772
45.7309
46.0114
46.3074
46.6002
46.8613
47.0732
47.2561
47.4375
47.629
47.8271
48.0208
48.2068
48.3971
48.6055
48.8354
49.086
49.3548
49.6414
49.9458
50.2702
50.6171
50.9875
51.3829
51.8041
52.2508
52.7236
53.2217
53.7457
54.2939
54.8667
55.4632
56.083
56.7255
57.3893
58.0742
58.7804
59.5063
60.251
61.0146
61.7963
62.5951
63.4093
64.2376
65.0793
65.932
66.7943
67.6627
68.5356
69.4099
70.2827
71.1516
72.0161
73.8433
72.915
71.9902
71.0657
70.139
69.2085
68.2703
67.3242
66.3709
65.4102
64.4465
63.4815
62.5193
61.5639
60.6171
59.683
58.7639
57.8616
56.9779
56.1144
55.2726
54.4542
53.6604
52.8916
52.1491
51.4344
50.7481
50.0907
49.4635
48.8679
48.3041
47.7731
47.2763
46.8147
46.3888
46.0007
45.6517
45.3437
45.0786
44.8587
44.6867
44.5656
44.4984
44.53
44.609
44.7379
44.9131
45.1315
45.3862
45.6672
45.9566
46.2211
46.4223
46.5688
46.7074
46.8642
47.0426
47.2343
47.4261
47.6141
47.8086
48.0212
48.2545
48.5082
48.7792
49.0672
49.3737
49.6997
50.0481
50.4205
50.8172
51.2402
51.6888
52.1635
52.6638
53.1896
53.7403
54.3156
54.9154
55.538
56.1836
56.8509
57.5399
58.25
58.9798
59.7292
60.4975
61.284
62.0873
62.9069
63.7406
64.5871
65.4447
66.3131
67.1867
68.0649
68.9437
69.8217
70.6961
71.5658
73.6773
72.747
71.8192
70.8926
69.9637
69.0306
68.0904
67.1414
66.1852
65.2223
64.2559
63.2881
62.3229
61.3639
60.4142
59.4766
58.5544
57.6487
56.7612
55.8948
55.0495
54.2277
53.4301
52.658
51.9122
51.1938
50.5037
49.8425
49.2119
48.6127
48.0453
47.5107
47.0104
46.5452
46.1162
45.7253
45.3732
45.062
44.7944
44.572
44.3981
44.2755
44.2068
44.2346
44.3115
44.4384
44.6136
44.8329
45.0882
45.3656
45.6323
45.8347
45.9489
46.0383
46.1505
46.2957
46.4687
46.6585
46.8505
47.0421
47.241
47.4581
47.6949
47.9512
48.2244
48.514
48.822
49.15
49.5
49.8739
50.2727
50.6973
51.1477
51.6239
52.1267
52.6549
53.2081
53.7862
54.3886
55.0149
55.6641
56.3353
57.0285
57.7431
58.4773
59.2315
60.0047
60.7959
61.604
62.4287
63.2673
64.1193
64.9825
65.8552
66.7343
67.6175
68.5026
69.386
70.2656
71.1409
73.5428
72.6104
71.6813
70.7528
69.8228
68.8875
67.9447
66.9942
66.0359
65.071
64.1019
63.1322
62.1647
61.2031
60.251
59.3106
58.3852
57.4768
56.5872
55.718
54.8699
54.0451
53.2444
52.4697
51.7207
50.9993
50.306
49.6416
49.0083
48.4059
47.8352
47.2971
46.7936
46.3252
45.8932
45.4992
45.1446
44.831
44.5607
44.3362
44.1601
44.0356
43.9654
43.9892
44.0628
44.1887
44.3633
44.5824
44.8363
45.0968
45.3027
45.3992
45.433
45.4947
45.5988
45.7409
45.9131
46.1035
46.2977
46.493
46.6966
46.9182
47.1589
47.4178
47.6928
47.9847
48.2945
48.6241
48.9762
49.3514
49.752
50.1777
50.6298
51.1084
51.6132
52.1439
52.6996
53.2807
53.8866
54.5164
55.1693
55.8447
56.5424
57.261
58.0003
58.7596
59.5372
60.3331
61.1467
61.9759
62.8197
63.6768
64.5452
65.423
66.3069
67.195
68.0851
68.9735
69.8589
70.7389
73.4435
72.5096
71.5798
70.6501
69.7186
68.7822
67.8383
66.8861
65.926
64.9584
63.9878
63.0158
62.0464
61.0827
60.1285
59.1863
58.2588
57.3486
56.4568
55.585
54.7351
53.9085
53.1056
52.3278
51.5764
50.8526
50.1571
49.4901
48.8536
48.2485
47.675
47.134
46.628
46.1564
45.7216
45.3248
44.9674
44.6516
44.3791
44.1524
43.9746
43.8475
43.7759
43.795
43.8657
43.9897
44.1632
44.3814
44.623
44.8244
44.9083
44.8983
44.8986
44.9575
45.0623
45.2062
45.3801
45.5721
45.7697
45.9688
46.178
46.4046
46.6494
46.9111
47.1882
47.482
47.7933
48.1248
48.4784
48.8554
49.2575
49.6848
50.1388
50.619
51.1257
51.6586
52.2171
52.8016
53.4108
54.0445
54.7015
55.381
56.0829
56.8061
57.5506
58.3141
59.0969
59.8976
60.7155
61.5496
62.3987
63.2606
64.1341
65.0164
65.905
66.7981
67.6925
68.586
69.4775
70.3621
73.3811
72.4474
71.5164
70.5854
69.653
68.7151
67.7701
66.8166
65.8551
64.8877
63.9154
62.9424
61.9716
61.0073
60.0515
59.1077
58.1788
57.2665
56.3732
55.5001
54.6487
53.8202
53.0158
52.2359
51.4824
50.7567
50.0588
49.3901
48.7514
48.1437
47.5679
47.0246
46.5154
46.0415
45.6042
45.2045
44.8444
44.5264
44.2512
44.0225
43.8424
43.7142
43.64
43.6528
43.7214
43.8431
44.0155
44.2266
44.4084
44.4655
44.4216
44.3696
44.3731
44.4378
44.5476
44.695
44.8716
45.0662
45.2672
45.4716
45.6869
45.9185
46.1671
46.4318
46.7117
47.0073
47.3211
47.6544
48.0094
48.3886
48.792
49.2209
49.676
50.1582
50.667
51.2019
51.7638
52.3511
52.9639
53.601
54.2619
54.946
55.652
56.3798
57.1285
57.8968
58.6845
59.4898
60.3128
61.151
62.0045
62.8707
63.7483
64.6356
65.5289
66.4268
67.3255
68.2239
69.1189
70.0088
73.3535
72.4358
71.5121
70.5822
69.6478
68.7082
67.7615
66.806
65.843
64.8729
63.8992
62.9245
61.9523
60.9865
60.03
59.0854
58.1556
57.2425
56.3479
55.4736
54.6208
53.7907
52.9846
52.2033
51.4482
50.7201
50.0198
49.3486
48.7071
48.0965
47.5176
46.9719
46.4598
45.9829
45.5426
45.1401
44.7775
44.4566
44.1794
43.9488
43.7668
43.6361
43.5603
43.5675
43.6332
43.7534
43.9243
44.0723
44.077
43.9872
43.902
43.8482
43.8653
43.9394
44.0558
44.208
44.3879
44.5856
44.7909
45.0016
45.2231
45.4604
45.7137
45.9815
46.2641
46.5622
46.8783
47.2142
47.5716
47.9521
48.3569
48.7874
49.2445
49.7282
50.239
50.777
51.3415
51.932
52.5475
53.1885
53.8532
54.5415
55.2516
55.9837
56.7365
57.5094
58.301
59.1111
59.9381
60.7808
61.6382
62.5085
63.3904
64.2817
65.1792
66.081
66.9842
67.8869
68.7863
69.6807
73.1186
72.2705
71.4173
70.552
69.6641
68.7476
67.8064
66.8517
65.889
64.9193
63.9455
62.9706
61.9985
61.0328
60.0763
59.132
58.2023
57.2901
56.396
55.5225
54.6708
53.8418
53.0368
52.2569
51.5034
50.777
50.0787
49.4097
48.7707
48.1625
47.5864
47.0441
46.535
46.0611
45.6234
45.2238
44.863
44.5438
44.2678
44.0377
43.8552
43.7238
43.6473
43.6507
43.7098
43.8211
43.8614
43.7499
43.5995
43.476
43.3901
43.3434
43.3768
43.4616
43.5869
43.7444
43.9281
44.1301
44.3409
44.5582
44.7868
45.0301
45.288
45.5596
45.8456
46.1473
46.4668
46.8056
47.1657
47.5482
47.955
48.3867
48.8452
49.3308
49.8439
50.3843
50.9511
51.5444
52.1634
52.8076
53.4766
54.1683
54.8825
55.6186
56.3756
57.1529
57.9483
58.7622
59.5935
60.4401
61.3009
62.1746
63.0597
63.9546
64.8557
65.7619
66.6692
67.5756
68.4786
69.3774
72.6475
71.831
71.0257
70.2284
69.4311
68.6228
67.7845
66.9007
65.9654
64.9976
64.024
63.05
62.0784
61.1133
60.1572
59.2135
58.2843
57.3726
56.4796
55.6075
54.7568
53.9295
53.1264
52.3485
51.5972
50.8732
50.1778
49.5118
48.8762
48.2715
47.6992
47.1604
46.6555
46.1862
45.7531
45.357
45
44.6834
44.4094
44.1801
43.9981
43.8667
43.7878
43.7876
43.7997
43.6742
43.4667
43.2655
43.0999
42.9764
42.8949
42.8579
42.907
43.0037
43.1383
43.3027
43.4914
43.698
43.9154
44.1407
44.3775
44.6266
44.8894
45.1652
45.456
45.7627
46.0863
46.4292
46.7925
47.1775
47.5861
48.0199
48.4804
48.9678
49.4828
50.0254
50.5952
51.1912
51.8134
52.4608
53.1331
53.8284
54.5467
55.2864
56.0466
56.827
57.6263
58.4439
59.2781
60.1277
60.9919
61.8686
62.7573
63.6547
64.5588
65.4676
66.3786
67.2886
68.1956
69.0975
72.1245
71.31
70.5121
69.7297
68.9616
68.2045
67.452
66.6908
65.8984
65.0485
64.128
63.1606
62.1902
61.2257
60.2708
59.3284
58.401
57.4906
56.5991
55.7285
54.8797
54.0544
53.2532
52.4775
51.7287
51.0074
50.3148
49.6524
49.0199
48.4197
47.8516
47.3171
46.8174
46.3531
45.9246
45.533
45.1811
44.8687
44.5975
44.3704
44.1894
44.0559
43.955
43.7766
43.5082
43.2342
42.9887
42.7827
42.6178
42.4965
42.4191
42.3921
42.4545
42.5638
42.7084
42.8809
43.0758
43.2886
43.5137
43.7473
43.9921
44.2482
44.5165
44.7983
45.0946
45.4075
45.737
46.0847
46.4518
46.8406
47.2517
47.688
48.1508
48.6401
49.1573
49.7021
50.2747
50.8733
51.4984
52.1487
52.8235
53.5224
54.2435
54.9867
55.7502
56.5338
57.3359
58.1563
58.9933
59.8454
60.712
61.5914
62.4816
63.3814
64.2881
65.1994
66.1133
67.0259
67.9373
68.8444
71.6105
70.7937
69.9936
69.2104
68.4454
67.697
66.9646
66.2455
65.5333
64.8113
64.0546
63.2307
62.3235
61.3704
60.4186
59.4778
58.5523
57.6436
56.7541
55.8851
55.0383
54.2152
53.4166
52.6436
51.8974
51.1789
50.4895
49.8298
49.2015
48.6052
48.0417
47.5119
47.0168
46.5578
46.1347
45.7491
45.4021
45.0938
44.8257
44.5941
44.3723
44.0761
43.728
43.3795
43.0573
42.7719
42.5257
42.3204
42.1575
42.0381
41.9642
41.947
42.0204
42.141
42.2963
42.4773
42.6798
42.9002
43.1337
43.3772
43.6303
43.8936
44.1686
44.457
44.7607
45.0806
45.4177
45.7721
46.1443
46.5368
46.9518
47.3909
47.8561
48.3478
48.8674
49.4146
49.989
50.5908
51.2185
51.8719
52.5497
53.2514
53.9753
54.7209
55.4875
56.273
57.0777
57.8997
58.7382
59.5924
60.4603
61.3409
62.2332
63.1349
64.0437
64.9577
65.8739
66.7898
67.7049
68.6152
71.1182
70.2971
69.4939
68.7075
67.9399
67.191
66.4602
65.7483
65.0533
64.3724
63.6981
63.013
62.2872
61.4829
60.5866
59.6585
58.737
57.8312
56.9437
56.0768
55.2328
54.412
53.616
52.8458
52.102
51.3866
50.7006
50.0444
49.4194
48.827
48.2675
47.7421
47.2519
46.7974
46.3793
45.9976
45.65
45.325
44.975
44.5593
44.1205
43.6946
43.298
42.9369
42.6134
42.329
42.0848
41.8814
41.7204
41.6029
41.5317
41.5234
41.6056
41.7364
41.9022
42.0923
42.3035
42.5325
42.7757
43.0297
43.2921
43.5631
43.8454
44.1412
44.4531
44.7817
45.1273
45.489
45.8683
46.2663
46.6854
47.1281
47.5962
48.0908
48.6129
49.1624
49.7395
50.344
50.9744
51.6303
52.3107
53.0145
53.7414
54.4893
55.2573
56.045
56.8512
57.6743
58.5137
59.3683
60.2372
61.1189
62.0122
62.9149
63.825
64.741
65.6598
66.5789
67.4966
68.4104
70.6484
69.8239
69.017
68.2281
67.4573
66.7059
65.9729
65.2597
64.5657
63.8925
63.2367
62.5961
61.9613
61.3126
60.6134
59.8221
58.9437
58.0496
57.167
56.3036
55.462
54.6439
53.8506
53.0834
52.3429
51.6306
50.9475
50.2948
49.6732
49.084
48.5281
48.0063
47.5185
47.0632
46.6331
46.2052
45.7213
45.1989
44.6757
44.1744
43.704
43.2692
42.8716
42.5118
42.1909
41.9095
41.6677
41.4671
41.3081
41.1928
41.1239
41.123
41.212
41.3513
41.5266
41.7267
41.9471
42.1863
42.4409
42.7059
42.9785
43.2576
43.5475
43.8512
44.1716
44.5094
44.8635
45.2342
45.621
46.0254
46.45
46.8972
47.3692
47.8669
48.3921
48.9449
49.5245
50.131
50.764
51.4225
52.1052
52.8112
53.5396
54.2892
55.0588
55.8472
56.6539
57.4778
58.3176
59.1729
60.0419
60.9237
61.8172
62.7205
63.6313
64.5485
65.4687
66.3904
67.3108
68.2287
70.2028
69.3747
68.5647
67.7726
66.9988
66.244
65.5088
64.7933
64.0978
63.4236
62.77
62.1365
61.5225
60.9235
60.3299
59.718
59.0447
58.265
57.4153
56.5623
55.7255
54.9108
54.1207
53.3563
52.6191
51.9097
51.2296
50.5797
49.9606
49.3724
48.8141
48.2811
47.7574
47.2055
46.6037
45.9903
45.39
44.8159
44.2735
43.7662
43.2953
42.8616
42.4659
42.109
41.7911
41.5133
41.2748
41.0771
40.9214
40.8088
40.7421
40.748
40.8425
40.9889
41.1727
41.3829
41.6135
41.8631
42.1297
42.4069
42.6901
42.9787
43.2764
43.5879
43.916
44.2616
44.624
45.0027
45.3967
45.8081
46.2386
46.6911
47.1681
47.6703
48.1993
48.7552
49.3382
49.948
50.5839
51.244
51.9289
52.6368
53.3665
54.1172
54.8874
55.6765
56.4838
57.3077
58.1473
59.0021
59.8711
60.7526
61.6462
62.5498
63.4613
64.3798
65.3019
66.2257
67.1497
68.0705
69.7806
68.9494
68.1362
67.3408
66.5653
65.8075
65.0692
64.352
63.6544
62.9778
62.3226
61.6894
61.0776
60.4869
59.9159
59.3608
58.8099
58.2359
57.5896
56.826
56.0159
55.2107
54.4248
53.6634
52.9288
52.2215
51.5415
50.8883
50.2575
49.638
49.0052
48.3258
47.626
46.9328
46.2608
45.6176
45.0056
44.4272
43.8841
43.3771
42.9071
42.4755
42.0829
41.7294
41.4155
41.1418
40.9078
40.7145
40.5624
40.4528
40.3891
40.4007
40.4996
40.6518
40.8437
41.0634
41.3049
41.5665
41.8449
42.1345
42.4295
42.7275
43.0326
43.3506
43.6845
44.0358
44.4036
44.7875
45.1875
45.605
46.0417
46.5001
46.9823
47.4897
48.0233
48.5837
49.1707
49.7838
50.4228
51.086
51.7735
52.4836
53.2152
53.967
54.7383
55.5283
56.3358
57.1595
57.9992
58.8542
59.7229
60.6047
61.4983
62.4025
63.3154
64.235
65.1591
66.0855
67.0118
67.9366
69.3823
68.5492
67.7334
66.9352
66.1563
65.3964
64.6561
63.9365
63.237
62.5586
61.9014
61.2663
60.6534
60.0629
59.4944
58.9473
58.421
57.9097
57.4004
56.8637
56.2469
55.5171
54.7525
53.9957
53.2576
52.5371
51.8256
51.1048
50.3452
49.5634
48.7846
48.0233
47.2864
46.5776
45.8991
45.2524
44.6391
44.0605
43.5175
43.0115
42.5434
42.1145
41.7251
41.3755
41.0664
40.7979
40.5689
40.3808
40.233
40.1271
40.0673
40.0844
40.1868
40.344
40.5427
40.7721
41.0243
41.2972
41.5875
41.8895
42.1955
42.5022
42.814
43.1365
43.4732
43.8262
44.1954
44.5811
44.9839
45.4053
45.8466
46.3101
46.7977
47.3107
47.8497
48.415
49.0068
49.6249
50.2683
50.9361
51.6271
52.3405
53.0747
53.8297
54.6029
55.3949
56.2038
57.0288
57.8698
58.7255
59.595
60.4775
61.3721
62.2773
63.1919
64.1135
65.0406
65.9702
66.9009
67.8294
69.0089
68.1728
67.3547
66.5547
65.7733
65.0113
64.2689
63.5469
62.8458
62.1661
61.5076
60.8708
60.2567
59.6649
59.0956
58.5488
58.0238
57.5191
57.0315
56.5523
56.063
55.5325
54.9249
54.2218
53.4387
52.6091
51.7606
50.9117
50.0745
49.2563
48.4616
47.6928
46.952
46.2409
45.5608
44.9125
44.2986
43.7198
43.1772
42.6725
42.2067
41.7806
41.3951
41.0503
40.7469
40.4844
40.2624
40.0801
39.9375
39.8358
39.7798
39.8031
39.908
40.0686
40.2729
40.5098
40.7723
41.0561
41.3572
41.6692
41.9836
42.2969
42.6125
42.9365
43.2736
43.6251
43.9932
44.3786
44.7819
45.2055
45.6502
46.1187
46.6116
47.1301
47.6746
48.2461
48.8436
49.4672
50.1161
50.7889
51.485
52.2025
52.9415
53.7004
54.4782
55.2731
56.0851
56.9135
57.757
58.6148
59.4865
60.3707
61.267
62.1741
63.0909
64.0158
64.9466
65.8802
66.8153
67.7492
68.6605
67.8217
67.0015
66.1993
65.4156
64.652
63.908
63.1841
62.4819
61.801
61.1407
60.5036
59.8881
59.2955
58.7251
58.1776
57.6517
57.1469
56.6601
56.1839
55.7018
55.1856
54.5997
53.9184
53.1489
52.3218
51.4698
50.617
49.7767
48.9559
48.1588
47.388
46.6453
45.9325
45.251
44.6024
43.9878
43.4089
42.8671
42.3638
41.9
41.4773
41.0958
40.7566
40.4598
40.2051
39.9912
39.8166
39.6806
39.5838
39.5317
39.5615
39.6677
39.8294
40.036
40.2781
40.5479
40.8395
41.1482
41.4655
41.7834
42.0989
42.4149
42.7386
43.0744
43.4253
43.7929
44.1783
44.5842
45.0111
45.4607
45.9349
46.4341
46.959
47.5103
48.0878
48.6919
49.3211
49.9757
50.6543
51.3556
52.0789
52.8227
53.5863
54.3683
55.1671
55.983
56.8147
57.6604
58.5207
59.3938
60.2803
61.1782
62.0873
63.0073
63.9355
64.8712
65.8118
66.7556
67.6998
68.3367
67.496
66.6739
65.8693
65.0852
64.3193
63.5738
62.8488
62.145
61.4626
60.8021
60.164
59.548
58.9545
58.384
57.8358
57.3097
56.8051
56.3181
55.8429
55.3655
54.8593
54.2876
53.6229
52.8668
52.0478
51.2
50.3478
49.5065
48.6847
47.8865
47.1142
46.3703
45.656
44.9737
44.3247
43.7096
43.1309
42.5898
42.0882
41.6269
41.2074
40.8308
40.4976
40.2085
39.9625
39.7586
39.5942
39.4667
39.3762
39.3282
39.3644
39.471
39.631
39.835
40.076
40.3472
40.6416
40.9516
41.2673
41.5812
41.8928
42.207
42.5311
42.8687
43.2224
43.5934
43.9841
44.3956
44.8302
45.2876
45.7694
46.277
46.8099
47.369
47.9534
48.5636
49.1989
49.8587
50.5423
51.2489
51.9767
52.7247
53.4914
54.2761
55.0772
55.8947
56.7267
57.5731
58.4324
59.3046
60.1896
61.0869
61.9956
62.9158
63.8454
64.785
65.7326
66.6851
67.642
68.0376
67.1953
66.3709
65.5656
64.7795
64.0125
63.2657
62.5401
61.8355
61.1523
60.4917
59.8529
59.237
58.6433
58.0727
57.5247
56.9989
56.4941
56.0077
55.5339
55.0604
54.5623
54.0044
53.3561
52.6141
51.8043
50.9607
50.1103
49.2692
48.4464
47.6469
46.8737
46.1289
45.414
44.7307
44.0813
43.4663
42.8882
42.3479
41.8479
41.3893
40.9737
40.6017
40.2749
39.9937
39.7579
39.566
39.4149
39.2998
39.2175
39.1735
39.2165
39.3216
39.4748
39.6702
39.9023
40.166
40.4547
40.7583
41.0662
41.372
41.6784
41.9923
42.3197
42.6631
43.0239
43.4034
43.8034
44.2249
44.6693
45.1368
45.6293
46.147
46.6894
47.2572
47.8499
48.4669
49.1079
49.7728
50.4602
51.1693
51.8986
52.6472
53.4137
54.1973
54.9956
55.8097
56.6378
57.4793
58.3336
59.2015
60.0822
60.976
61.8822
62.8006
63.7303
64.671
65.6218
66.5816
67.5478
67.7641
66.9203
66.0946
65.2885
64.5004
63.7324
62.9854
62.2587
61.5536
60.8705
60.2094
59.5706
58.9546
58.362
57.7916
57.2442
56.7192
56.2147
55.7293
55.2567
54.7864
54.2962
53.7509
53.119
52.3918
51.592
50.7539
49.9061
49.0656
48.2427
47.4431
46.6689
45.9238
45.2084
44.5249
43.8751
43.2607
42.683
42.1439
41.6452
41.1892
40.777
40.4096
40.0891
39.8158
39.5902
39.4111
39.2757
39.1773
39.1088
39.0691
39.1167
39.2166
39.3572
39.5367
39.7527
40.0018
40.2788
40.5723
40.8705
41.1692
41.4734
41.7895
42.1228
42.4744
42.845
43.2352
43.6458
44.0787
44.534
45.0135
45.5167
46.0454
46.5994
47.1778
47.7806
48.4063
49.0551
49.7255
50.4162
51.126
51.8538
52.5989
53.3599
54.1367
54.9285
55.734
56.5541
57.3882
58.2363
59.098
59.9738
60.8634
61.7667
62.6825
63.6115
64.5524
65.5052
66.4692
67.4411
67.5145
66.6698
65.8437
65.0358
64.2475
63.4784
62.7306
62.0042
61.2993
60.6162
59.9553
59.3174
58.7022
58.1098
57.5409
56.9944
56.4705
55.9676
55.4831
55.013
54.5458
54.0618
53.5283
52.9118
52.1995
51.4113
50.5797
49.7349
48.8963
48.0744
47.2748
46.5011
45.7559
45.0407
44.3575
43.7082
43.0943
42.5171
41.9792
41.4822
41.0281
40.6186
40.255
39.9394
39.6731
39.4564
39.2891
39.1693
39.0904
39.0458
39.0082
39.055
39.1451
39.2677
39.4263
39.6226
39.8558
40.1199
40.4034
40.6945
40.9905
41.2957
41.6159
41.9554
42.3152
42.6954
43.0963
43.5181
43.9616
44.4274
44.916
45.4284
45.9648
46.5253
47.1091
47.7159
48.3456
48.9961
49.6665
50.3562
51.064
51.7883
52.5293
53.2864
54.0579
54.8449
55.6461
56.4618
57.292
58.1366
58.9955
59.8688
60.756
61.6574
62.5723
63.5007
64.4423
65.3965
66.3619
67.3379
67.29
66.4445
65.6169
64.8085
64.0196
63.2511
62.5032
61.7765
61.0712
60.3889
59.7286
59.0916
58.4777
57.8873
57.3198
56.7758
56.2537
55.7528
55.2699
54.8014
54.3381
53.8603
53.3371
52.7351
52.0379
51.2612
50.4378
49.5981
48.7621
47.9416
47.1432
46.3712
45.6272
44.9131
44.2305
43.5818
42.9688
42.3925
41.8558
41.3603
40.9076
40.4998
40.1389
39.8267
39.5649
39.3545
39.1962
39.0883
39.025
39.0847
39.0858
39.0966
39.126
39.2116
39.3434
39.5177
39.7324
39.9818
40.2556
40.5437
40.8419
41.1518
41.4788
41.8252
42.1923
42.5804
42.9896
43.4206
43.8743
44.3499
44.8477
45.3685
45.9121
46.4774
47.0641
47.672
48.301
48.9503
49.6185
50.3049
51.009
51.7301
52.4669
53.2198
53.9885
54.7723
55.5716
56.3847
57.213
58.0556
58.9131
59.7848
60.6708
61.5708
62.4848
63.4124
64.353
65.3061
66.2714
67.2493
67.0907
66.2439
65.4155
64.607
63.8178
63.049
62.3008
61.5743
60.8704
60.1888
59.5297
58.8942
58.2818
57.693
57.1281
56.5865
56.0673
55.5695
55.0901
54.6247
54.1652
53.6926
53.1789
52.5891
51.9058
51.1404
50.3255
49.4912
48.6596
47.8427
47.047
46.2774
45.5357
44.8238
44.1435
43.4965
42.8849
42.3101
41.7746
41.2803
40.829
40.4227
40.0634
39.7533
39.495
39.289
39.1387
39.0476
39.0809
39.154
39.1747
39.1365
39.0886
39.1638
39.2756
39.4279
39.6223
39.8573
40.1245
40.4141
40.7204
41.0413
41.3779
41.7321
42.105
42.4978
42.9113
43.3465
43.8043
44.2842
44.787
45.3118
45.8584
46.4258
47.0143
47.6232
48.2521
48.9008
49.5683
50.2544
50.9579
51.6781
52.4147
53.1676
53.9358
54.7192
55.5175
56.3305
57.1583
58.0008
58.8575
59.7284
60.6137
61.5124
62.4258
63.3515
64.2907
65.2426
66.207
67.1841
66.9163
66.0693
65.2411
64.4314
63.6422
62.8735
62.1256
61.3996
60.6962
60.0154
59.3578
58.7234
58.1132
57.5274
56.9657
56.4275
55.9118
55.4176
54.9425
54.4816
54.0265
53.5602
53.0545
52.475
51.8027
51.0473
50.2396
49.4108
48.5837
47.7708
46.9794
46.2136
45.4754
44.768
44.0916
43.4488
42.8407
42.2695
41.7373
41.2466
40.7991
40.3975
40.0438
39.7408
39.4911
39.2968
39.1601
39.0832
39.1428
39.1878
39.2178
39.1385
39.0861
39.1267
39.2089
39.3391
39.5176
39.742
40.006
40.3002
40.6183
40.9549
41.3074
41.6742
42.0557
42.4541
42.8716
43.3102
43.7716
44.2559
44.7637
45.2945
45.8478
46.4225
47.0181
47.6336
48.269
48.9224
49.5938
50.2829
50.9886
51.7103
52.4471
53.1992
53.9659
54.7468
55.5419
56.3513
57.1749
58.0118
58.8628
59.7282
60.6078
61.5013
62.409
63.3302
64.2651
65.2134
66.1746
67.1481
66.7684
65.921
65.0917
64.282
63.493
62.7244
61.9768
61.2515
60.5482
59.8685
59.2122
58.5799
57.9723
57.3894
56.8305
56.296
55.7847
55.2955
54.826
54.372
53.9239
53.4646
52.9669
52.3972
51.7332
50.9851
50.1837
49.3595
48.536
47.7271
46.9401
46.1798
45.4486
44.7485
44.0808
43.4473
42.8488
42.2869
41.7636
41.2801
40.8388
40.4416
40.0903
39.788
39.537
39.3389
39.1968
39.1139
39.1805
39.1971
39.1794
39.1677
39.0881
39.0631
39.1366
39.2591
39.4304
39.6487
39.9092
40.2061
40.5333
40.8841
41.2541
41.6395
42.0385
42.4507
42.8785
43.3243
43.7906
44.2784
44.7884
45.3209
45.8756
46.4521
47.0499
47.6678
48.3059
48.9628
49.6379
50.3299
51.0388
51.763
52.5019
53.2552
54.0224
54.8037
55.5985
56.4063
57.2281
58.0635
58.9127
59.7758
60.6529
61.5426
62.4459
63.3623
64.2924
65.2353
66.1909
67.1583
66.6474
65.7988
64.9699
64.1607
63.3714
62.6026
61.8559
61.131
60.4291
59.7505
59.0956
58.4652
57.8598
57.2794
56.7241
56.193
55.6865
55.203
54.7399
54.2927
53.8537
53.4072
52.9268
52.3792
51.7409
51.0145
50.2273
49.4113
48.5917
47.7841
46.9977
46.2366
45.5038
44.8019
44.1321
43.4965
42.8956
42.3314
41.806
41.3201
40.8757
40.4749
40.1202
39.8129
39.5549
39.3483
39.1958
39.1022
39.1773
39.1478
39.0992
39.1692
39.0826
39.0113
39.0873