<VTKFile type="ImageData" version="1.0" byte_order="LittleEndian" header_type="UInt64">
	<ImageData WholeExtent="0 44 0 44 0 44" Origin="-0.13467 -0.00697991 -0.101969" Spacing="0.0053577 0.0053577 0.0053577">
		<Piece Extent="0 44 0 44 0 44">
			<PointData Scalars="Scalars_">
				<DataArray type="Float32" Name="Scalars_" format="ascii" RangeMin="0" RangeMax="100">
1e+07
1e+07
1e+07
1e+07
0.180637
0.154711
0.145814
0.138477
0.124023
0.116168
0.110213
0.106084
0.103364
0.101187
0.0970687
0.0916076
0.087105
0.0840308
0.0821305
0.0810553
0.0814237
0.0820135
0.0827597
0.0836354
0.0845927
0.0855439
0.0864171
0.0872598
0.0881499
0.089156
0.090323
0.0916732
0.0932138
0.0949423
0.096851
0.0989299
0.101166
0.103544
0.106046
0.108653
0.111347
0.114108
0.11692
0.119771
0.122656
1e+07
1e+07
1e+07
1e+07
0.176741
0.151172
0.142296
0.134958
0.121726
0.113855
0.107877
0.103762
0.101072
0.0988419
0.0944835
0.0888635
0.0843443
0.0812939
0.0793959
0.0783456
0.0787211
0.0793219
0.0800793
0.0809604
0.0819111
0.0828442
0.0837039
0.0845483
0.0854495
0.0864704
0.0876554
0.0890268
0.0905904
0.0923438
0.0942783
0.0963846
0.0986488
0.101055
0.103585
0.106221
0.108943
0.11173
0.114568
0.117446
0.120357
1e+07
1e+07
1e+07
1e+07
0.172911
0.147727
0.138874
0.131537
0.119605
0.111733
0.105734
0.101633
0.09898
0.0967002
0.0920906
0.0863203
0.0817894
0.0787727
0.076891
0.0758729
0.0762545
0.0768663
0.0776319
0.0785077
0.0794355
0.0803346
0.081173
0.0820168
0.0829267
0.0839602
0.0851609
0.0865501
0.0881336
0.0899081
0.0918656
0.0939955
0.0962842
0.0987157
0.101272
0.103934
0.106681
0.109495
0.112359
0.115262
0.1182
1e+07
1e+07
1e+07
1e+07
0.169151
0.144383
0.135557
0.128223
0.11765
0.109818
0.103797
0.0997128
0.0971025
0.0947767
0.0899096
0.0839994
0.0794607
0.0764883
0.0746399
0.0736645
0.0740522
0.0746739
0.0754417
0.0762932
0.0771724
0.078017
0.0788267
0.0796686
0.0805855
0.0816298
0.0828438
0.0842477
0.0858476
0.0876402
0.0896168
0.0917674
0.094077
0.0965312
0.0991115
0.101798
0.10457
0.107408
0.110298
0.113227
0.116192
1e+07
1e+07
1e+07
1e+07
0.165465
0.141147
0.132351
0.125022
0.115824
0.108121
0.102084
0.0980154
0.0954541
0.0930873
0.0879625
0.0819239
0.0773806
0.0744635
0.0726694
0.0717515
0.0721449
0.0727748
0.0735328
0.074323
0.0751147
0.0758828
0.0766612
0.0775015
0.0784253
0.079479
0.0807043
0.0821212
0.0837349
0.0855421
0.0875344
0.0897021
0.0920307
0.0945053
0.0971077
0.0998175
0.102614
0.105477
0.108393
0.111348
0.11434
1e+07
1e+07
1e+07
1e+07
0.161859
0.138026
0.129264
0.121943
0.11403
0.10665
0.100612
0.0965584
0.0940512
0.0916499
0.0862753
0.0801215
0.0755744
0.0727222
0.0710084
0.0701698
0.0705676
0.071205
0.0719216
0.0725777
0.0732325
0.0739108
0.0746632
0.0755061
0.0764386
0.077503
0.0787402
0.0801695
0.0817951
0.0836144
0.0856207
0.0878037
0.0901497
0.0926439
0.0952674
0.0980001
0.100821
0.10371
0.106652
0.109634
0.112653
1e+07
1e+07
1e+07
1e+07
0.158338
0.135029
0.126304
0.118995
0.112102
0.105383
0.0994046
0.0953623
0.0929107
0.0904823
0.0848782
0.0786244
0.0740726
0.0712903
0.0696871
0.0689628
0.0693641
0.070006
0.0705886
0.0709828
0.0714703
0.0720708
0.0728129
0.0736673
0.0746142
0.075694
0.076946
0.0783888
0.0800273
0.0818593
0.0838786
0.0860762
0.0884397
0.0909531
0.0935979
0.0963538
0.0991996
0.102115
0.105084
0.108093
0.11114
1e+07
1e+07
1e+07
1e+07
0.154908
0.132164
0.12348
0.116185
0.109904
0.104176
0.0984893
0.0944528
0.0920535
0.0896069
0.0838098
0.0774743
0.0729141
0.0701993
0.0687376
0.0681933
0.0685972
0.0692311
0.0693809
0.0694034
0.069773
0.0703403
0.0710948
0.0719723
0.0729428
0.0740455
0.0753183
0.0767789
0.0784325
0.0802791
0.0823135
0.0845274
0.0869086
0.0894422
0.0921089
0.0948885
0.097759
0.100701
0.103696
0.106733
0.109807
1e+07
1e+07
1e+07
1e+07
0.151575
0.12944
0.120799
0.113524
0.107484
0.102638
0.0984743
0.0948773
0.0925272
0.0902832
0.0845154
0.0781515
0.0735435
0.0707796
0.0693154
0.0686318
0.0689257
0.0688906
0.0679417
0.0677897
0.0681446
0.0687262
0.0695102
0.0704221
0.0714268
0.0725617
0.0738623
0.0753461
0.0770196
0.0788841
0.0809358
0.0831675
0.0855679
0.0881212
0.0908096
0.093612
0.0965073
0.0994748
0.102497
0.105561
0.108661
1e+07
1e+07
1e+07
1e+07
0.148345
0.126868
0.118273
0.111019
0.105037
0.10038
0.0969036
0.0941685
0.0919744
0.0901654
0.0856476
0.0793089
0.0746801
0.0718217
0.0702017
0.0693644
0.0692471
0.067535
0.0662697
0.0662588
0.0666501
0.0672656
0.0680842
0.0690363
0.0700841
0.0712593
0.0725941
0.0741054
0.0758023
0.0776871
0.0797581
0.0820084
0.0844271
0.0869997
0.0897079
0.0925316
0.0954499
0.0984419
0.101489
0.10458
0.107707
1e+07
1e+07
1e+07
1e+07
0.145224
0.124458
0.115909
0.10868
0.10273
0.0981158
0.0947495
0.0921792
0.0900362
0.0883418
0.0866387
0.0807983
0.0761674
0.0732256
0.0713751
0.0703929
0.0679393
0.0658592
0.0646639
0.0648846
0.0653411
0.0659941
0.0668418
0.0678348
0.0689325
0.0701549
0.0715287
0.0730706
0.0747923
0.0766981
0.0787877
0.0810547
0.0834892
0.0860775
0.0888022
0.0916438
0.0945824
0.0975975
0.100671
0.10379
0.106944
1e+07
1e+07
1e+07
1e+07
0.142219
0.122221
0.113716
0.106513
0.100601
0.0960214
0.0927113
0.0902018
0.0880746
0.0864156
0.085385
0.0825476
0.0779401
0.0748864
0.0728184
0.0693046
0.0662269
0.0642721
0.0631984
0.0636388
0.06421
0.0649119
0.0657801
0.0668073
0.0679587
0.0692354
0.0706524
0.0722268
0.0739728
0.0758982
0.0780036
0.0802839
0.08273
0.0853292
0.0880667
0.0909236
0.0938817
0.0969216
0.100025
0.103175
0.106362
1e+07
1e+07
1e+07
1e+07
0.13934
0.12017
0.111703
0.104523
0.0986593
0.0941224
0.0908718
0.0884286
0.0863093
0.0846866
0.0836961
0.0833463
0.0799489
0.076705
0.0719167
0.0675958
0.0646293
0.062824
0.0618812
0.0624859
0.0632202
0.0640085
0.0648961
0.0659379
0.0671261
0.0684457
0.0698988
0.0715012
0.07327
0.0752147
0.0773363
0.0796307
0.0820886
0.0846993
0.0874495
0.0903237
0.093305
0.0963756
0.0995164
0.10271
0.105941
1e+07
1e+07
1e+07
1e+07
0.136593
0.118319
0.109873
0.102711
0.0969098
0.092428
0.089243
0.0868783
0.0847582
0.0831775
0.0822346
0.0820214
0.0813755
0.0761697
0.0702772
0.0660328
0.0631777
0.0615439
0.0607434
0.0614347
0.0623352
0.0632698
0.0642045
0.0652388
0.066416
0.0677363
0.0692035
0.0708295
0.0726251
0.0745961
0.0767418
0.0790566
0.0815325
0.0841588
0.0869246
0.0898175
0.0928245
0.0959291
0.0991168
0.10237
0.105674
1e+07
1e+07
1e+07
1e+07
0.133988
0.11668
0.108231
0.101076
0.0953484
0.0909441
0.0878329
0.0855615
0.0834279
0.081898
0.0810182
0.0808212
0.0805363
0.0747652
0.0688644
0.064644
0.061923
0.0604987
0.0598719
0.06059
0.0615974
0.0626605
0.063656
0.0646717
0.0658198
0.0671413
0.068639
0.0703077
0.0721448
0.0741485
0.0763178
0.0786476
0.0811327
0.0837654
0.0865368
0.0894369
0.0924549
0.0955792
0.0987965
0.102092
0.105452
1e+07
1e+07
1e+07
1e+07
0.131532
0.115269
0.106773
0.0996107
0.093965
0.0896709
0.0866461
0.0844864
0.0823196
0.0808511
0.0800591
0.0799011
0.0795428
0.0736428
0.0677392
0.0634948
0.0609542
0.0598549
0.0593906
0.0600509
0.0610621
0.0621542
0.0631707
0.0641707
0.0653071
0.0666465
0.0681904
0.0699206
0.0718187
0.0738724
0.0760759
0.0784261
0.0809203
0.0835549
0.0863248
0.0892234
0.0922423
0.0953727
0.0986038
0.101924
0.105321
1e+07
1e+07
1e+07
1e+07
0.129238
0.114103
0.105487
0.0983089
0.0927452
0.0886031
0.0856852
0.0836591
0.0814279
0.0800355
0.0793685
0.0792966
0.0788326
0.0730288
0.0671857
0.0630948
0.0607501
0.059665
0.0592073
0.0597072
0.0606393
0.0617445
0.0628662
0.064002
0.0652474
0.0666623
0.0682584
0.0700267
0.0719549
0.0740329
0.076254
0.0786137
0.0811081
0.0837335
0.0864855
0.0893587
0.0923468
0.0954443
0.0986434
0.101938
0.105322
1e+07
1e+07
1e+07
1e+07
0.127114
0.113196
0.104354
0.0971752
0.0916853
0.0877341
0.0849877
0.0835174
0.0809007
0.0794621
0.0789576
0.0790803
0.0784615
0.0732878
0.067529
0.0634423
0.0610847
0.059892
0.0593568
0.0597514
0.0606302
0.061712
0.0628672
0.064083
0.0654068
0.0668769
0.0685067
0.0702945
0.0722342
0.0743164
0.0765341
0.0788799
0.0813499
0.0839398
0.0866473
0.0894693
0.0924046
0.0954507
0.0986056
0.101866
0.105228
1e+07
1e+07
1e+07
1e+07
0.125173
0.112613
0.103354
0.0962358
0.0908112
0.0873254
0.0848584
0.0825854
0.0801775
0.0791055
0.078738
0.0790936
0.0786502
0.0739415
0.0683833
0.0644132
0.0620138
0.0606332
0.0599465
0.0603067
0.0611257
0.0621521
0.0632766
0.0644993
0.0658491
0.0673445
0.068992
0.0707896
0.0727311
0.074809
0.077016
0.0793457
0.0817943
0.0843609
0.0870442
0.0898437
0.0927587
0.0957879
0.0989286
0.102176
0.105526
1e+07
1e+07
1e+07
1e+07
0.123425
0.112778
0.102499
0.0956669
0.0908941
0.087202
0.0833917
0.0800478
0.0778012
0.0775429
0.0776927
0.0782664
0.078553
0.0749424
0.0697097
0.0657896
0.0633288
0.0617213
0.0609167
0.0612372
0.0619877
0.0629461
0.0640291
0.0652394
0.0665908
0.068091
0.0697407
0.0715361
0.0734705
0.0755367
0.0777277
0.0800385
0.0824664
0.0850108
0.0876726
0.0904508
0.093346
0.0963561
0.0994784
0.102709
0.106043
1e+07
1e+07
1e+07
1e+07
0.121884
0.112984
0.103224
0.0964444
0.0912075
0.0854108
0.0803321
0.0764964
0.0742117
0.0743736
0.0749718
0.0758634
0.0768918
0.0761371
0.0713511
0.0675005
0.064899
0.0631466
0.0622439
0.0625174
0.0632
0.0640908
0.065128
0.0663134
0.0676507
0.0691391
0.0707761
0.0725547
0.0744688
0.0765114
0.0786769
0.0809611
0.0833626
0.0858815
0.0885183
0.091273
0.0941452
0.0971332
0.100234
0.103445
0.106759
1e+07
1e+07
1e+07
1e+07
0.120566
0.112591
0.104197
0.0973998
0.0892951
0.0821323
0.0766645
0.0726667
0.0703022
0.0705082
0.0712606
0.0723872
0.0737934
0.0752638
0.0732127
0.0694605
0.0667204
0.0648775
0.0639
0.0641201
0.0647387
0.0655661
0.0665563
0.0677094
0.0690213
0.0704855
0.0720952
0.0738431
0.0757225
0.0777279
0.0798556
0.0821029
0.0844694
0.0869557
0.0895622
0.0922886
0.0951346
0.0980971
0.101174
0.104361
0.107653
1e+07
1e+07
1e+07
1e+07
0.119487
0.111559
0.104951
0.0965695
0.0860286
0.0785378
0.0729437
0.0688595
0.0664209
0.0665717
0.0673724
0.068597
0.0701785
0.0720557
0.073789
0.0716022
0.0687808
0.066885
0.065854
0.0660144
0.0665748
0.0673439
0.0682874
0.0694027
0.0706806
0.0721097
0.0736799
0.0753839
0.0772153
0.0791707
0.0812486
0.0834484
0.0857707
0.0882169
0.0907868
0.0934801
0.0962951
0.099229
0.102278
0.105439
0.108706
1e+07
1e+07
1e+07
1e+07
0.118668
0.110722
0.104464
0.0933781
0.0826138
0.0749958
0.0693129
0.0651594
0.0626573
0.0627192
0.0635499
0.0648317
0.0664972
0.0684968
0.0707786
0.0728198
0.071053
0.069137
0.068072
0.06817
0.0686781
0.0693939
0.0702904
0.0713632
0.0725996
0.0739844
0.075505
0.0771536
0.0789261
0.0808215
0.0828401
0.084984
0.0872552
0.0896548
0.0921825
0.094837
0.097617
0.100518
0.103537
0.106669
0.109908
1e+07
1e+07
1e+07
1e+07
0.118477
0.110404
0.103979
0.0896919
0.0793041
0.0715769
0.0658049
0.0615936
0.0590418
0.0589897
0.0598526
0.0611893
0.0629263
0.0650119
0.0674034
0.070053
0.0725271
0.0716002
0.0705209
0.070557
0.0710187
0.0716841
0.0725329
0.073559
0.0747469
0.0760788
0.0775414
0.0791269
0.0808332
0.0826619
0.0846161
0.0866991
0.0889145
0.0912631
0.0937441
0.0963564
0.0990974
0.101963
0.104947
0.108047
0.111256
1e+07
1e+07
1e+07
1e+07
0.118685
0.1106
0.104085
0.0859797
0.0761383
0.0682985
0.0624354
0.0581815
0.0555977
0.055408
0.0563075
0.0577025
0.0595127
0.0616819
0.0641647
0.0669221
0.0699114
0.0728294
0.0731615
0.0731471
0.0735678
0.0741845
0.0749832
0.0759575
0.0770904
0.0783634
0.0797624
0.0812801
0.082917
0.0846764
0.0865642
0.0885848
0.0907423
0.0930377
0.09547
0.0980375
0.100736
0.103563
0.106511
0.109576
0.112751
1e+07
1e+07
1e+07
1e+07
0.11941
0.111194
0.104644
0.0823502
0.0731205
0.0651711
0.0592192
0.0549436
0.0523497
0.0520011
0.052941
0.0543972
0.0562827
0.0585366
0.0611098
0.0639609
0.067054
0.0703524
0.073668
0.0755956
0.0762736
0.0768633
0.0776106
0.0785284
0.0796014
0.0808109
0.0821429
0.0835916
0.085159
0.0868508
0.0886738
0.0906338
0.0927342
0.094976
0.0973586
0.0998796
0.102535
0.105319
0.108228
0.111255
0.114395
1e+07
1e+07
1e+07
1e+07
0.120412
0.112008
0.105467
0.0788512
0.0702391
0.0622049
0.056174
0.0519037
0.0493259
0.0488019
0.049784
0.0513026
0.053264
0.0556024
0.0582649
0.0612074
0.0643924
0.0677874
0.0713549
0.0749823
0.0780988
0.0795368
0.0803687
0.0812417
0.082253
0.083397
0.0846621
0.0860437
0.0875455
0.0891738
0.090936
0.0928384
0.0948837
0.0970736
0.0994074
0.101881
0.104491
0.107233
0.1101
0.113087
0.116188
1e+07
1e+07
1e+07
1e+07
0.121635
0.113057
0.106532
0.0755111
0.0674667
0.0594111
0.0533215
0.0490891
0.0465578
0.0458498
0.0468737
0.0484536
0.0504886
0.0529085
0.0556569
0.058687
0.0619591
0.0654399
0.0690916
0.0728224
0.0764296
0.0796266
0.0822698
0.0838447
0.084974
0.0860912
0.0873007
0.0886221
0.0900643
0.0916351
0.0933423
0.0951912
0.0971852
0.0993257
0.101611
0.104039
0.106603
0.109301
0.112125
0.11507
0.11813
1e+07
1e+07
1e+07
1e+07
0.12305
0.114303
0.107778
0.0723559
0.0647656
0.0568042
0.0506891
0.0465311
0.0440797
0.0431932
0.0442554
0.0458912
0.0479941
0.0504891
0.0533166
0.0564274
0.0597803
0.0633403
0.0670669
0.0708529
0.0744665
0.0776087
0.0801906
0.0824513
0.0846806
0.0870338
0.0893009
0.0910619
0.0926249
0.0942003
0.0958758
0.0976826
0.0996313
0.101726
0.103965
0.106346
0.108866
0.111519
0.1143
0.117201
0.120219
1e+07
1e+07
1e+07
1e+07
0.124637
0.11573
0.109197
0.0694144
0.0621091
0.0544051
0.048312
0.0442647
0.041927
0.0408911
0.0419827
0.0436638
0.0458234
0.0483827
0.0512791
0.0544609
0.0578855
0.0615161
0.0653087
0.0691384
0.0727417
0.0758144
0.0783229
0.0805551
0.0827966
0.0851847
0.0877626
0.0905326
0.0934692
0.0960979
0.0982411
0.1002
0.102175
0.104251
0.106455
0.108796
0.111273
0.113882
0.116618
0.119476
0.12245
1e+07
1e+07
1e+07
1e+07
0.126372
0.117327
0.110774
0.0667194
0.0595169
0.0522451
0.0462351
0.042331
0.0401326
0.039016
0.0401201
0.041828
0.0440268
0.0466346
0.0495857
0.0528259
0.0563103
0.0600007
0.0638486
0.0677077
0.0712812
0.0742676
0.0766985
0.0789034
0.0811566
0.0835761
0.0861934
0.0890075
0.0920065
0.0951751
0.0984894
0.101676
0.104341
0.106705
0.109
0.11135
0.113803
0.116376
0.119072
0.121887
0.124817
1e+07
1e+07
1e+07
1e+07
0.128237
0.11908
0.112497
0.0643091
0.0570793
0.0503698
0.0445115
0.0408219
0.0387207
0.0376576
0.0387439
0.0404501
0.0426637
0.0452993
0.0482874
0.0515702
0.0551003
0.0588373
0.062727
0.0665978
0.0701179
0.0729976
0.075343
0.0775185
0.0797807
0.082227
0.0848789
0.0877309
0.0907685
0.0939767
0.0973396
0.100843
0.104463
0.107994
0.111046
0.113757
0.116346
0.118952
0.121635
0.12442
0.127311
1e+07
1e+07
1e+07
1e+07
0.130216
0.120978
0.114362
0.062228
0.0549339
0.0489594
0.0437523
0.0401333
0.0379017
0.0369302
0.0379459
0.0396115
0.0418115
0.0444523
0.0474576
0.0507648
0.0543234
0.0580902
0.0620048
0.0658653
0.069299
0.0720406
0.0742844
0.0764235
0.0786889
0.0811557
0.0838355
0.0867181
0.0897878
0.0930276
0.0964216
0.0999555
0.103616
0.10739
0.111254
0.11501
0.118339
0.121331
0.124176
0.127009
0.129898
1e+07
1e+07
1e+07
1e+07
0.132305
0.123014
0.116368
0.0605286
0.0531507
0.0474565
0.0429552
0.0398375
0.0381635
0.0374281
0.0383294
0.0399038
0.0420315
0.0446146
0.0475731
0.0508422
0.0543694
0.0581083
0.0619824
0.0657331
0.0689519
0.0714569
0.0735566
0.0756437
0.0779025
0.0803816
0.0830804
0.0859849
0.0890775
0.0923402
0.0957568
0.0993126
0.102995
0.106791
0.110689
0.114679
0.11873
0.122621
0.126139
0.129355
0.132423
1e+07
1e+07
1e+07
1e+07
0.134499
0.125182
0.118512
0.059314
0.0518428
0.0462571
0.0421326
0.0393256
0.0377749
0.0370757
0.0383006
0.0401255
0.0424202
0.0451075
0.0481271
0.0514288
0.0549697
0.0587084
0.0625541
0.0661589
0.0690534
0.071235
0.0731665
0.0751954
0.0774409
0.0799235
0.0826322
0.0855491
0.0886547
0.0919308
0.0953609
0.0989298
0.102624
0.106432
0.110343
0.114347
0.118435
0.122594
0.126752
0.130709
0.134363
1e+07
1e+07
1e+07
1e+07
0.136799
0.127475
0.120793
0.0607394
0.0530272
0.0471696
0.0427753
0.0399853
0.0386522
0.0380367
0.0392582
0.0410921
0.0434032
0.0461041
0.0491298
0.0524288
0.0559593
0.0596786
0.0634788
0.0669735
0.0697186
0.0717877
0.0736638
0.0756674
0.0778985
0.0803698
0.0830687
0.0859763
0.0890724
0.0923391
0.09576
0.0993201
0.103005
0.106805
0.110706
0.114702
0.118782
0.122937
0.127148
0.131363
0.135483
1e+07
1e+07
1e+07
1e+07
0.139206
0.129891
0.123208
0.0626612
0.0548662
0.0489766
0.0446192
0.0417564
0.0401135
0.0396571
0.0408483
0.0426475
0.0449236
0.047589
0.0505782
0.0538394
0.0573308
0.0610104
0.0647506
0.0681409
0.0707542
0.0727251
0.0745485
0.0765206
0.078727
0.081176
0.0838529
0.0867386
0.0898135
0.0930595
0.0964601
0.100001
0.103667
0.107447
0.111331
0.115309
0.119373
0.123513
0.127721
0.13198
0.136252
1e+07
1e+07
1e+07
1e+07
0.141723
0.132428
0.125755
0.0649658
0.0571331
0.0512748
0.0469573
0.0439112
0.0421358
0.0418204
0.0429659
0.0447063
0.0469182
0.0495179
0.0524414
0.0556382
0.0590668
0.0626849
0.0663493
0.0696343
0.0721306
0.0740164
0.0757886
0.0777237
0.0798978
0.0823146
0.0849599
0.087814
0.0908578
0.0940731
0.0974434
0.100954
0.104592
0.108345
0.112203
0.116156
0.120195
0.124314
0.128502
0.132753
0.13705
1e+07
1e+07
1e+07
1e+07
0.144349
0.135082
0.128428
0.0675939
0.0597507
0.0539451
0.0496029
0.046452
0.0446325
0.044431
0.0455234
0.0471923
0.0493237
0.0518394
0.0546786
0.0577923
0.0611404
0.0646806
0.0682563
0.0714347
0.0738236
0.0756319
0.0773536
0.0792479
0.081383
0.0837607
0.0863667
0.0891811
0.0921855
0.0953616
0.0986939
0.102167
0.105769
0.109487
0.113312
0.117233
0.121241
0.125329
0.12949
0.133717
0.138001
1e+07
1e+07
1e+07
1e+07
0.147086
0.137849
0.131224
0.0705007
0.0626675
0.0569143
0.0525101
0.0493415
0.0475204
0.0474105
0.0484474
0.0500394
0.0520824
0.054504
0.0572474
0.0602662
0.0635216
0.066972
0.0704493
0.0735184
0.0758055
0.0775421
0.0792139
0.0810647
0.0831563
0.0854895
0.0880499
0.0908181
0.0937763
0.0969072
0.100195
0.103625
0.107184
0.110861
0.114645
0.118527
0.122499
0.126552
0.13068
0.134875
0.139132
1e+07
1e+07
1e+07
1e+07
0.149928
0.140728
0.134138
0.0736495
0.0658413
0.0601142
0.0556734
0.0525296
0.0507308
0.0506949
0.051677
0.0531913
0.0551431
0.0574663
0.0601081
0.063025
0.06618
0.0695326
0.072905
0.0758623
0.0780509
0.0797195
0.0813418
0.0831475
0.0851927
0.0874779
0.0899885
0.0927058
0.0956131
0.0986932
0.10193
0.105311
0.108822
0.112453
0.116192
0.12003
0.12396
0.127972
0.132061
0.13622
0.140442
1e+07
1e+07
1e+07
1e+07
0.152875
0.143711
0.137164
0.0770085
0.0692366
0.063501
0.0590667
0.0559702
0.0542086
0.0542326
0.0551623
0.0566007
0.0584618
0.0606858
0.063224
0.066036
0.0690869
0.072337
0.0755995
0.0784426
0.0805349
0.0821386
0.0837125
0.0854721
0.0874691
0.0897036
0.0921612
0.0948245
0.0976773
0.100702
0.103885
0.107213
0.110671
0.11425
0.11794
0.12173
0.125613
0.12958
0.133626
0.137744
0.141926
1e+07
1e+07
1e+07
1e+07
0.155924
0.146798
0.140297
0.0805517
0.0728234
0.067064
0.0626608
0.0596248
0.0579093
0.057981
0.0588619
0.0602279
0.0620013
0.0641278
0.066563
0.0692696
0.072215
0.0753604
0.0785106
0.0812378
0.0832352
0.0847763
0.0863029
0.0880161
0.0899642
0.0921464
0.0945491
0.0971563
0.0999516
0.102919
0.106044
0.109315
0.112718
0.116242
0.119879
0.123617
0.12745
0.131369
0.135367
0.139439
0.143579
1e+07
1e+07
1e+07
1e+07
0.159072
0.149982
0.143528
0.084256
0.0765749
0.0707882
0.0664295
0.0634611
0.0617966
0.0619063
0.0627426
0.0640402
0.0657298
0.0677621
0.0700968
0.0726995
0.0755401
0.0785808
0.0816172
0.0842272
0.0861308
0.0876115
0.0890918
0.0907593
0.0926584
0.0947876
0.0971344
0.0996841
0.10242
0.105328
0.108394
0.111605
0.114949
0.118416
0.121996
0.12568
0.129459
0.133327
0.137276
0.141299
0.145392
1e+07
1e+07
1e+07
1e+07
0.177135
0.150847
0.141932
0.134597
0.119315
0.111468
0.105523
0.101388
0.098654
0.0965025
0.0925125
0.0871454
0.0826529
0.0795638
0.0776621
0.0765718
0.0769513
0.077558
0.0783207
0.0792172
0.0801954
0.0811564
0.0820223
0.0828574
0.0837503
0.0847721
0.0859681
0.0873587
0.088949
0.0907345
0.0927058
0.0948498
0.0971521
0.0995942
0.102156
0.104816
0.107552
0.110344
0.113177
0.116042
0.118936
1e+07
1e+07
1e+07
1e+07
0.173167
0.147225
0.138328
0.13099
0.116936
0.109065
0.103097
0.0989749
0.0962693
0.0940611
0.0898233
0.0842836
0.0797708
0.0767017
0.074795
0.0737272
0.0741143
0.0747335
0.0755097
0.0764158
0.0773931
0.0783412
0.0791985
0.0800404
0.0809475
0.0819871
0.0832038
0.0846188
0.0862355
0.0880495
0.0900502
0.0922252
0.0945587
0.0970317
0.0996242
0.102314
0.105079
0.107899
0.11076
0.113651
0.116574
1e+07
1e+07
1e+07
1e+07
0.169263
0.143694
0.13482
0.12748
0.114744
0.106858
0.100866
0.0967595
0.0940891
0.0918274
0.0873275
0.0816239
0.0770968
0.0740584
0.0721606
0.0711225
0.0715168
0.072148
0.0729348
0.0738415
0.0748029
0.0757234
0.0765644
0.0774105
0.0783293
0.0793838
0.0806185
0.082054
0.0836936
0.0855317
0.087558
0.08976
0.0921208
0.0946219
0.0972423
0.0999599
0.102752
0.105599
0.108486
0.111405
0.114356
1e+07
1e+07
1e+07
1e+07
0.165427
0.140263
0.131414
0.124076
0.11274
0.104861
0.098846
0.0947568
0.0921298
0.0898177
0.0850461
0.0791894
0.0746527
0.071657
0.0697859
0.0687877
0.0691888
0.0698312
0.0706243
0.0715144
0.0724356
0.0733077
0.0741259
0.0749739
0.0759018
0.0769686
0.0782181
0.0796704
0.0813287
0.083187
0.0852348
0.0874594
0.0898436
0.0923696
0.0950159
0.0977595
0.100578
0.103451
0.106365
0.109311
0.112289
1e+07
1e+07
1e+07
1e+07
0.161664
0.13694
0.128118
0.120784
0.110902
0.103093
0.0970558
0.0929834
0.0904068
0.0880498
0.0830031
0.0770052
0.072463
0.069523
0.067701
0.0667574
0.0671649
0.067817
0.0686062
0.0694473
0.07029
0.0710904
0.0718815
0.072731
0.0736666
0.0747429
0.0760048
0.0774709
0.0791439
0.0810183
0.0830833
0.0853267
0.0877317
0.0902798
0.0929499
0.0957186
0.0985627
0.101462
0.104403
0.107377
0.110384
1e+07
1e+07
1e+07
1e+07
0.15798
0.13373
0.124941
0.117613
0.109159
0.101567
0.0955147
0.0914582
0.0889382
0.0865429
0.0812263
0.0751013
0.0705555
0.0676831
0.065939
0.0650722
0.0654846
0.0661454
0.0669062
0.0676313
0.0683429
0.0690529
0.0698201
0.0706735
0.071617
0.0727032
0.0739763
0.0754544
0.0771394
0.0790264
0.0811058
0.0833654
0.0857891
0.0883583
0.0910513
0.0938447
0.096715
0.0996417
0.102611
0.105613
0.108648
1e+07
1e+07
1e+07
1e+07
0.154379
0.130643
0.121892
0.114573
0.107347
0.100285
0.0942466
0.090203
0.0877426
0.0853174
0.0797497
0.0735136
0.0689635
0.0661667
0.0645352
0.0637809
0.0641976
0.0648649
0.0655243
0.0660036
0.0665384
0.0671629
0.06792
0.0687845
0.0697405
0.07084
0.0721264
0.0736169
0.0753138
0.0772126
0.0793053
0.0815802
0.0840223
0.0866122
0.0893285
0.0921469
0.0950438
0.0979986
0.100996
0.104027
0.107092
1e+07
1e+07
1e+07
1e+07
0.150868
0.127689
0.118978
0.111673
0.105257
0.0991698
0.0932829
0.0892465
0.0868429
0.0843972
0.0786159
0.0722882
0.0677296
0.0650078
0.0635272
0.0629547
0.0633742
0.064042
0.0643459
0.0644195
0.0648076
0.0653889
0.0661587
0.0670459
0.0680232
0.0691439
0.0704496
0.0719561
0.0736669
0.0755794
0.077687
0.0799786
0.0824394
0.085051
0.0877908
0.0906352
0.0935594
0.0965427
0.0995689
0.102629
0.105722
1e+07
1e+07
1e+07
1e+07
0.147451
0.124876
0.11621
0.108922
0.102851
0.0979105
0.0934806
0.0897253
0.0873566
0.0850989
0.0793501
0.0729923
0.0683827
0.0656082
0.0641215
0.0634116
0.0637057
0.0638305
0.0629769
0.0627797
0.0631365
0.063729
0.0645309
0.065453
0.066464
0.0676163
0.0689489
0.0704775
0.072207
0.0741368
0.0762618
0.0785719
0.0810532
0.0836865
0.0864502
0.0893197
0.0922712
0.0952828
0.0983377
0.101426
0.104547
1e+07
1e+07
1e+07
1e+07
0.144137
0.122216
0.113598
0.106332
0.100334
0.0956555
0.092128
0.0893225
0.0871076
0.0852542
0.0805376
0.0742093
0.0695776
0.0666976
0.065037
0.0641773
0.0641743
0.0625717
0.0612833
0.0612036
0.0615928
0.0622213
0.0630612
0.064027
0.0650822
0.0662752
0.0676415
0.0691975
0.07095
0.0729003
0.0750451
0.077375
0.0798761
0.0825304
0.085316
0.0882093
0.0911863
0.0942249
0.0973078
0.100425
0.103574
1e+07
1e+07
1e+07
1e+07
0.140932
0.11972
0.111151
0.103911
0.0979437
0.0933141
0.0899239
0.0873283
0.0851788
0.08347
0.0816499
0.0757769
0.0711443
0.0681698
0.0662659
0.0652686
0.0629887
0.0608669
0.0596345
0.0598011
0.0602462
0.0609102
0.0617825
0.0627947
0.0639035
0.0651448
0.0665497
0.0681357
0.0699129
0.0718845
0.074048
0.0763954
0.0789132
0.0815843
0.0843884
0.0873021
0.0903025
0.0933675
0.0964791
0.0996257
0.102802
1e+07
1e+07
1e+07
1e+07
0.137843
0.1174
0.10888
0.101667
0.095735
0.0911389
0.0878062
0.0852724
0.0831424
0.0814704
0.080426
0.0776101
0.0730077
0.0699021
0.0677804
0.0643525
0.0612377
0.0592375
0.0581282
0.0585475
0.0590975
0.0597998
0.0606903
0.0617444
0.0629165
0.0642166
0.0656656
0.0672833
0.0690841
0.0710744
0.0732532
0.0756131
0.0781422
0.0808248
0.0836423
0.0865736
0.089597
0.0926906
0.095835
0.0990161
0.102226
1e+07
1e+07
1e+07
1e+07
0.134879
0.11527
0.106794
0.0996075
0.0937217
0.0891651
0.0858927
0.0834246
0.0813057
0.0796698
0.0786654
0.0783423
0.0751072
0.0717844
0.0669412
0.0625958
0.0595957
0.0577442
0.0567676
0.0573894
0.0581095
0.0588824
0.0597798
0.0608519
0.0620737
0.0634261
0.0649138
0.0665591
0.0683814
0.0703897
0.0725837
0.074956
0.077496
0.08019
0.0830214
0.0859732
0.0890243
0.0921545
0.0953425
0.0985707
0.101827
1e+07
1e+07
1e+07
1e+07
0.132048
0.113343
0.104899
0.0977345
0.0919092
0.087404
0.0841976
0.0818078
0.0796913
0.0780977
0.0771392
0.0769221
0.0764062
0.0711228
0.0652326
0.0609817
0.0580916
0.0564107
0.0555777
0.056311
0.0572274
0.0581513
0.0590792
0.0601348
0.0613462
0.0627018
0.0642063
0.0658768
0.0677274
0.0697632
0.0719815
0.0743751
0.076933
0.0796432
0.0824925
0.0854668
0.0885499
0.0917242
0.0949718
0.0982739
0.101615
1e+07
1e+07
1e+07
1e+07
0.12936
0.111635
0.103199
0.0960463
0.0902954
0.0858626
0.0827304
0.0804344
0.0783077
0.0767648
0.0758681
0.075664
0.0753927
0.0696483
0.0637481
0.059533
0.0567772
0.0553075
0.0546554
0.055429
0.0564844
0.057556
0.0585358
0.0595569
0.0607342
0.0620963
0.0636391
0.0653572
0.0672498
0.0693163
0.0715551
0.0739606
0.0765257
0.0792412
0.0820961
0.0850793
0.0881785
0.0913791
0.0946662
0.0980232
0.101434
1e+07
1e+07
1e+07
1e+07
0.126823
0.110162
0.101694
0.0945362
0.0888702
0.0845422
0.0814962
0.0793136
0.0771572
0.0756764
0.074866
0.0746975
0.0743525
0.0684737
0.062577
0.0583304
0.055776
0.0546371
0.0541552
0.0548654
0.0559393
0.0570469
0.0580405
0.059031
0.0601936
0.0615819
0.0631845
0.0649759
0.0669358
0.069053
0.0713232
0.0737442
0.0763134
0.0790269
0.0818782
0.0848596
0.087961
0.0911719
0.09448
0.0978718
0.101333
1e+07
1e+07
1e+07
1e+07
0.124449
0.108943
0.100372
0.0931944
0.0876149
0.0834371
0.0804972
0.0784516
0.0762349
0.0748315
0.0741459
0.0740625
0.0736207
0.0678492
0.0620154
0.057925
0.0555669
0.0544464
0.0539687
0.0544925
0.0554844
0.0566239
0.0577491
0.058888
0.060159
0.0616184
0.0632692
0.0650967
0.067086
0.0692267
0.0715126
0.0739398
0.0765049
0.0792036
0.0820307
0.0849801
0.0880452
0.0912193
0.0944948
0.0978658
0.101324
1e+07
1e+07
1e+07
1e+07
0.122248
0.107995
0.0992115
0.0920215
0.08652
0.0825376
0.0797846
0.0783761
0.0757449
0.0742582
0.0737235
0.073843
0.073243
0.0681101
0.0623654
0.0582798
0.0559083
0.0546808
0.0541204
0.0545279
0.0554659
0.0565863
0.0577575
0.0589881
0.0603407
0.0618534
0.063534
0.0653778
0.0673758
0.069518
0.0717961
0.0742034
0.0767359
0.0793904
0.0821648
0.085057
0.0880654
0.0911886
0.0944236
0.0977661
0.10121
1e+07
1e+07
1e+07
1e+07
0.120234
0.107403
0.0981851
0.0910427
0.085611
0.0821249
0.0798402
0.0780022
0.0755088
0.0741114
0.0736047
0.0739327
0.0734358
0.0687829
0.0632547
0.0592971
0.0568769
0.0554519
0.0547411
0.05511
0.0559752
0.0570339
0.0581764
0.0594224
0.0608065
0.0623458
0.064043
0.0658939
0.0678911
0.0700254
0.0722892
0.0746766
0.0771847
0.0798133
0.0825623
0.0854317
0.0884207
0.091527
0.0947478
0.0980772
0.10151
1e+07
1e+07
1e+07
1e+07
0.118418
0.107569
0.0972933
0.0904645
0.0856937
0.0822867
0.0791395
0.0761966
0.0739855
0.0733719
0.0732188
0.0736467
0.0735931
0.0698189
0.064651
0.0607439
0.0582477
0.0565973
0.0557688
0.0560917
0.0568752
0.0578574
0.0589592
0.0601965
0.061584
0.0631275
0.0648252
0.0666715
0.0686586
0.0707779
0.0730226
0.0753882
0.0778732
0.080478
0.0832039
0.0860514
0.0890197
0.0921063
0.0953079
0.0986196
0.102036
1e+07
1e+07
1e+07
1e+07
0.116814
0.107788
0.0980489
0.0912765
0.0863487
0.0813247
0.0765915
0.0729218
0.0707244
0.0708415
0.0713227
0.0720465
0.0727948
0.0711161
0.0663756
0.0625431
0.0598898
0.0581035
0.0571761
0.0574449
0.0581496
0.059057
0.0601121
0.0613251
0.0626977
0.0642272
0.0659083
0.0677336
0.0696956
0.0717868
0.0740019
0.0763378
0.0787937
0.0813712
0.0840711
0.0868933
0.0898375
0.092901
0.0960803
0.0993707
0.102767
1e+07
1e+07
1e+07
1e+07
0.11544
0.107455
0.0990573
0.092325
0.0851994
0.0783217
0.0729768
0.0690684
0.0667838
0.067058
0.0678317
0.0689507
0.0702729
0.0713922
0.0683142
0.06459
0.0618016
0.0599312
0.05893
0.0591373
0.0597693
0.0606079
0.0616145
0.0627936
0.0641384
0.0656392
0.0672876
0.0690756
0.0709958
0.0730436
0.0752157
0.0775102
0.0799284
0.0824716
0.0851395
0.0879325
0.0908487
0.0938857
0.0970393
0.100305
0.103678
1e+07
1e+07
1e+07
1e+07
0.114313
0.106388
0.0997995
0.0924151
0.0820556
0.074678
0.0691675
0.0651511
0.0627769
0.0630252
0.063881
0.0651668
0.0668033
0.068701
0.0698676
0.0668032
0.0639601
0.0620448
0.0609932
0.0611331
0.0617005
0.0624767
0.0634339
0.0645723
0.0658787
0.0673385
0.0689402
0.0706755
0.0725396
0.0745298
0.0766459
0.0788883
0.081259
0.0837593
0.086389
0.0891475
0.092032
0.095039
0.0981645
0.101403
0.104749
1e+07
1e+07
1e+07
1e+07
0.113456
0.105514
0.0992612
0.0896558
0.078553
0.0710267
0.0654221
0.0613215
0.0588664
0.0590408
0.0599326
0.0612916
0.0630446
0.0651353
0.067485
0.068867
0.0663302
0.064406
0.0633259
0.0633965
0.0639071
0.0646265
0.0655335
0.0666252
0.0678843
0.0692926
0.0708358
0.0725066
0.0743029
0.0762249
0.0782755
0.0804578
0.082774
0.0852253
0.0878111
0.0905293
0.0933777
0.0963513
0.0994451
0.102654
0.105971
1e+07
1e+07
1e+07
1e+07
0.113264
0.105193
0.0987701
0.0859953
0.07513
0.0674909
0.0617937
0.0576186
0.0550947
0.0551667
0.0560932
0.0575153
0.0593522
0.061547
0.0640518
0.0667937
0.0687217
0.0669762
0.0658896
0.0658938
0.0663548
0.0670201
0.0678752
0.0689145
0.0701184
0.0714656
0.0729418
0.0745406
0.0762623
0.0781109
0.0800918
0.0822093
0.0844664
0.0868646
0.0894027
0.0920775
0.0948853
0.0978214
0.10088
0.104055
0.107341
1e+07
1e+07
1e+07
1e+07
0.113474
0.105391
0.0988766
0.082202
0.0718561
0.0640957
0.0583002
0.0540633
0.0514875
0.0514285
0.0523959
0.0538853
0.0558067
0.0580978
0.0607081
0.0635945
0.0666953