<VTKFile type="ImageData" version="1.0" byte_order="LittleEndian" header_type="UInt64">
	<ImageData WholeExtent="0 44 0 44 0 44" Origin="-0.13467 -0.00697991 -0.101969" Spacing="0.0053577 0.0053577 0.0053577">
		<Piece Extent="0 44 0 44 0 44">
			<PointData Scalars="Scalars_">
				<DataArray type="Float32" Name="Scalars_" format="ascii" RangeMin="0" RangeMax="100">
0.124094
0.120901
0.117764
0.114677
0.111637
0.108645
0.105706
0.102831
0.100039
0.0973511
0.0947905
0.0923819
0.0901494
0.0881141
0.0862959
0.0847133
0.0833828
0.0823187
0.081536
0.0810553
0.0814237
0.0820133
0.0827589
0.0836352
0.0845927
0.0855439
0.0864171
0.0872597
0.0881499
0.089156
0.090323
0.0916732
0.0932138
0.0949423
0.096851
0.0989299
0.101166
0.103543
0.106045
0.108653
0.111347
0.114108
0.11692
0.119771
0.122656
0.122255
0.119018
0.115834
0.112701
0.109612
0.10657
0.103579
0.100651
0.0978033
0.095059
0.0924422
0.0899776
0.0876899
0.0856019
0.0837345
0.0821071
0.080738
0.0796428
0.0788381
0.0783456
0.0787211
0.0793218
0.0800779
0.0809596
0.0819108
0.0828441
0.0837038
0.0845483
0.0854495
0.0864704
0.0876554
0.0890268
0.0905904
0.0923438
0.0942783
0.0963846
0.0986488
0.101055
0.103585
0.106221
0.108943
0.11173
0.114568
0.117445
0.120357
0.120609
0.117331
0.114106
0.110928
0.107794
0.104705
0.101665
0.0986863
0.0957872
0.0929896
0.0903188
0.0878006
0.0854601
0.0833215
0.0814062
0.0797357
0.0783286
0.077203
0.0763767
0.0758729
0.0762545
0.0768661
0.0776303
0.0785071
0.0794351
0.0803343
0.081173
0.0820168
0.0829267
0.0839602
0.0851609
0.0865501
0.0881336
0.0899081
0.0918656
0.0939955
0.0962842
0.0987155
0.101272
0.103934
0.106681
0.109495
0.112358
0.115261
0.1182
0.119169
0.115853
0.11259
0.109373
0.106198
0.103065
0.0999808
0.0969561
0.0940083
0.0911615
0.088441
0.0858727
0.0834829
0.0812963
0.0793359
0.0776239
0.0761805
0.075026
0.0741792
0.0736645
0.0740522
0.0746732
0.0754392
0.0762923
0.077172
0.0780166
0.0788267
0.0796686
0.0805855
0.0816298
0.0828438
0.0842477
0.0858476
0.0876402
0.0896168
0.0917674
0.094077
0.0965309
0.0991108
0.101797
0.10457
0.107408
0.110297
0.113227
0.116191
0.117947
0.114599
0.111302
0.108049
0.104838
0.101668
0.0985435
0.0954771
0.0924869
0.0895964
0.0868308
0.084217
0.0817825
0.0795521
0.0775503
0.0758
0.0743236
0.0731419
0.0722761
0.0717515
0.0721449
0.0727736
0.0735276
0.0743214
0.0751145
0.0758826
0.0766612
0.0775015
0.0784253
0.079479
0.0807043
0.0821212
0.0837349
0.0855421
0.0875344
0.0897021
0.0920307
0.0945053
0.0971073
0.099817
0.102613
0.105477
0.108392
0.111348
0.11434
0.116956
0.113582
0.110256
0.106975
0.103733
0.10053
0.0973728
0.0942716
0.0912451
0.0883168
0.0855126
0.0828601
0.0803868
0.0781187
0.0760808
0.0742972
0.0727913
0.0715855
0.0707029
0.0701698
0.0705676
0.0712002
0.0719105
0.0725749
0.0732325
0.0739108
0.0746632
0.0755061
0.0764386
0.077503
0.0787402
0.0801695
0.0817951
0.0836144
0.0856207
0.0878037
0.0901497
0.0926437
0.095267
0.0979998
0.100821
0.10371
0.106652
0.109634
0.112653
0.116215
0.11282
0.109473
0.106169
0.102904
0.099677
0.0964929
0.0933645
0.0903095
0.0873517
0.0845172
0.0818339
0.0793299
0.0770316
0.0749647
0.0731542
0.0716245
0.0703992
0.0695025
0.0689628
0.0693641
0.0699886
0.070564
0.0709783
0.07147
0.0720708
0.0728129
0.0736673
0.0746142
0.075694
0.076946
0.0783888
0.0800273
0.0818593
0.0838786
0.0860762
0.0884397
0.0909531
0.0935979
0.0963538
0.0991996
0.102115
0.105083
0.108093
0.11114
0.115746
0.112343
0.108983
0.105664
0.102384
0.0991405
0.0959399
0.0927937
0.0897201
0.086743
0.0838887
0.0811856
0.078661
0.0763425
0.0742564
0.072428
0.0708821
0.0696436
0.0687376
0.0681933
0.0685972
0.0691476
0.0693321
0.0694005
0.0697728
0.0703403
0.0710948
0.0719723
0.0729428
0.0740455
0.0753183
0.0767789
0.0784325
0.0802791
0.0823135
0.0845274
0.0869086
0.0894422
0.0921089
0.0948885
0.097759
0.100701
0.103696
0.106733
0.109806
0.115474
0.112374
0.109238
0.106031
0.102765
0.0995329
0.0963424
0.0932062
0.0901418
0.087172
0.0843238
0.0816252
0.079104
0.0767875
0.0747018
0.0728724
0.0713248
0.0700841
0.0691764
0.0686318
0.068775
0.068379
0.0678841
0.0677894
0.0681446
0.0687262
0.0695102
0.0704221
0.0714268
0.0725617
0.0738623
0.0753461
0.0770196
0.0788841
0.0809358
0.0831675
0.0855679
0.0881212
0.0908096
0.093612
0.0965073
0.0994748
0.102497
0.105561
0.108661
0.114028
0.111156
0.108371
0.10564
0.102897
0.100043
0.0969976
0.0938857
0.0908356
0.0878798
0.0850443
0.0823571
0.0798454
0.0775362
0.0754554
0.0736272
0.0720745
0.0708113
0.0698085
0.0688216
0.0677855
0.0668501
0.066235
0.0662587
0.0666501
0.0672656
0.0680842
0.0690363
0.0700841
0.0712593
0.0725941
0.0741054
0.0758023
0.0776871
0.0797581
0.0820084
0.0844271
0.0869997
0.0897079
0.0925316
0.0954499
0.0984419
0.101489
0.10458
0.107707
0.112298
0.10944
0.106706
0.104098
0.101609
0.0992149
0.0968544
0.0944059
0.0917124
0.0888387
0.086029
0.0833575
0.0808557
0.0785462
0.0764414
0.0745283
0.0727214
0.0708891
0.0691256
0.0675493
0.0662436
0.0652622
0.0646533
0.0648838
0.0653408
0.0659941
0.0668418
0.0678346
0.0689325
0.0701549
0.0715287
0.0730706
0.0747923
0.0766981
0.0787877
0.0810547
0.0834892
0.0860775
0.0888022
0.0916438
0.094582
0.0975974
0.100671
0.10379
0.106944
0.110682
0.107803
0.105052
0.102437
0.0999628
0.0976297
0.0954321
0.0933465
0.091316
0.0892338
0.0869648
0.0844475
0.081851
0.0792646
0.0766773
0.0741577
0.0717837
0.0696181
0.0677037
0.0660744
0.0647599
0.0637891
0.0631969
0.0636382
0.06421
0.0649119
0.0657801
0.0668071
0.0679586
0.0692354
0.0706524
0.0722268
0.0739728
0.0758982
0.0780036
0.0802839
0.08273
0.0853292
0.0880667
0.0909236
0.0938817
0.0969216
0.100025
0.103175
0.106362
0.109245
0.106344
0.103574
0.100939
0.0984478
0.0961026
0.0939022
0.0918334
0.0898597
0.0879026
0.085834
0.0835269
0.0809596
0.0782384
0.0755131
0.0729012
0.0704767
0.0682843
0.0663573
0.064724
0.0634138
0.0624551
0.0618812
0.0624859
0.0632202
0.0640085
0.0648961
0.0659379
0.0671261
0.0684457
0.0698988
0.0715012
0.07327
0.0752147
0.0773363
0.0796307
0.0820886
0.0846993
0.0874495
0.0903236
0.0933048
0.0963754
0.0995163
0.10271
0.105941
0.107999
0.105081
0.102294
0.0996442
0.0971383
0.0947807
0.0925707
0.0904975
0.0885302
0.0865982
0.0845777
0.0823329
0.0798159
0.0771186
0.0743938
0.0717707
0.0693316
0.067126
0.0651894
0.0635519
0.0622446
0.0612975
0.0607434
0.0614347
0.0623352
0.0632698
0.0642045
0.0652388
0.0664158
0.0677361
0.0692035
0.0708295
0.0726251
0.0745961
0.0767418
0.0790566
0.0815325
0.0841588
0.0869246
0.0898172
0.0928236
0.095929
0.0991165
0.10237
0.105674
0.106948
0.104019
0.101222
0.0985623
0.0960483
0.0936837
0.0914686
0.0893943
0.0874332
0.0855213
0.0835425
0.081354
0.0788876
0.0762178
0.0734987
0.070869
0.0684193
0.0662039
0.0642605
0.0626222
0.0613217
0.060393
0.0598719
0.06059
0.0615974
0.0626605
0.0636559
0.0646715
0.0658197
0.0671412
0.0686389
0.0703077
0.0721448
0.0741485
0.0763178
0.0786476
0.0811327
0.0837654
0.0865368
0.0894369
0.0924549
0.095579
0.0987957
0.102091
0.105451
0.106097
0.103163
0.100361
0.0976991
0.0951838
0.0928193
0.0906058
0.0885362
0.0865851
0.0846947
0.0827551
0.0806222
0.0782111
0.0755781
0.072875
0.0702488
0.0677985
0.0655833
0.0636433
0.0620144
0.0607333
0.0598415
0.0593906
0.0600509
0.0610621
0.0621542
0.0631707
0.0641704
0.0653071
0.0666464
0.0681904
0.0699206
0.0718185
0.0738724
0.0760759
0.0784261
0.0809203
0.0835549
0.0863248
0.0892234
0.0922423
0.0953726
0.0986035
0.101923
0.10532
0.105445
0.10251
0.0997107
0.0970526
0.094543
0.0921866
0.0899845
0.0879292
0.0859978
0.0841362
0.08224
0.0801657
0.0778154
0.0752311
0.0725596
0.0699543
0.067522
0.0653258
0.0634074
0.0618014
0.0605423
0.059665
0.0592073
0.0597072
0.0606393
0.0617445
0.0628662
0.0640019
0.0652472
0.0666623
0.0682581
0.0700264
0.0719546
0.0740327
0.0762537
0.0786131
0.0811071
0.0837328
0.0864848
0.0893581
0.0923464
0.0954434
0.0986426
0.101938
0.105322
0.104963
0.102027
0.0992263
0.0965704
0.0940663
0.0917204
0.0895361
0.0875096
0.0856241
0.0838355
0.0820466
0.0801049
0.0778909
0.0754134
0.0727993
0.0702164
0.0677904
0.0655934
0.0636686
0.0620508
0.0607726
0.0598647
0.0593568
0.0597514
0.0606302
0.061712
0.0628671
0.0640828
0.0654066
0.0668768
0.0685063
0.0702945
0.0722339
0.0743164
0.0765335
0.0788796
0.0813493
0.0839389
0.0866461
0.0894685
0.092404
0.0954504
0.0986056
0.101866
0.105228
0.104415
0.101419
0.0985556
0.0958363
0.0932719
0.0908739
0.0886542
0.0866206
0.0847763
0.0831111
0.0815788
0.0800429
0.0782222
0.0759046
0.0733618
0.0708157
0.0684113
0.0662294
0.0643142
0.0626993
0.0614153
0.0604896
0.0599465
0.0603066
0.0611256
0.0621521
0.0632765
0.0644991
0.0658488
0.0673444
0.068992
0.0707893
0.072731
0.074809
0.0770157
0.0793453
0.0817943
0.0843607
0.0870437
0.0898435
0.0927587
0.0957878
0.098928
0.102175
0.105526
0.103043
0.0998847
0.0968601
0.0939838
0.0912714
0.0887386
0.0864026
0.0842808
0.0823914
0.0807507
0.0793727
0.0782567
0.077341
0.0763255
0.0742055
0.071722
0.0693541
0.0671988
0.0653022
0.0636983
0.0624159
0.0614804
0.0609167
0.061237
0.0619876
0.0629461
0.0640291
0.0652394
0.0665906
0.0680909
0.0697407
0.071536
0.0734704
0.0755367
0.0777275
0.0800384
0.0824663
0.0850108
0.0876723
0.0904506
0.0933459
0.0963558
0.0994781
0.102709
0.106043
0.100605
0.0972968
0.0941284
0.0911148
0.0882718
0.0856173
0.0831698
0.0809501
0.0789805
0.077285
0.075891
0.0748299
0.0741501
0.0743022
0.0743162
0.072909
0.0705968
0.0684794
0.0666107
0.0650256
0.0637522
0.0628162
0.0622439
0.0625172
0.0632
0.0640908
0.065128
0.0663134
0.0676505
0.069139
0.0707758
0.0725546
0.0744687
0.0765114
0.0786765
0.0809608
0.0833624
0.0858814
0.0885181
0.0912728
0.0941451
0.0971332
0.100234
0.103444
0.106759
0.0977734
0.0943566
0.0910793
0.0879567
0.0850064
0.0822457
0.0796956
0.0773781
0.075318
0.0735423
0.0720821
0.070974
0.0702714
0.0705014
0.0712507
0.072225
0.0720148
0.0700447
0.0682146
0.0666566
0.0654004
0.0644719
0.0638994
0.0641198
0.0647386
0.065566
0.0665563
0.0677093
0.069021
0.0704855
0.0720951
0.0738427
0.0757223
0.0777278
0.0798552
0.0821026
0.0844691
0.0869556
0.0895621
0.0922884
0.0951344
0.098097
0.101174
0.104361
0.107653
0.0949693
0.0914556
0.0880791
0.0848553
0.0818015
0.0789369
0.0762835
0.073865
0.0717084
0.0698435
0.0683046
0.0671328
0.0663871
0.0665694
0.0673718
0.0685955
0.0701477
0.0713871
0.0700838
0.0685621
0.0673308
0.0664173
0.0658511
0.0660143
0.0665746
0.0673438
0.0682873
0.0694025
0.0706802
0.0721096
0.0736799
0.0753836
0.0772151
0.0791707
0.0812484
0.0834482
0.0857707
0.0882166
0.0907868
0.0934798
0.0962947
0.099229
0.102278
0.105439
0.108706
0.092305
0.0886986
0.0852253
0.0819012
0.0787441
0.0757744
0.0730152
0.0704919
0.068234
0.066274
0.0646497
0.0634072
0.062612
0.0627179
0.0635495
0.0648317
0.066497
0.0684902
0.0705928
0.0707107
0.0695126
0.0686204
0.0680656
0.0681698
0.068678
0.0693936
0.0702903
0.0713632
0.0725994
0.073984
0.0755049
0.0771533
0.0789261
0.0808212
0.08284
0.084984
0.0872552
0.0896545
0.0921821
0.0948369
0.0976167
0.100518
0.103537
0.106669
0.109908
0.0898093
0.0861133
0.0825458
0.0791226
0.0758624
0.0727867
0.0699195
0.0672882
0.0649246
0.0628643
0.0611491
0.0598298
0.058979
0.058989
0.0598524
0.0611893
0.0629262
0.0650118
0.0674015
0.0700008
0.0717449
0.0710488
0.0705095
0.0705566
0.0710186
0.0716841
0.0725327
0.0735586
0.0747465
0.0760787
0.0775414
0.0791269
0.0808331
0.0826617
0.0846159
0.0866991
0.0889145
0.0912627
0.0937437
0.0963563
0.0990973
0.101962
0.104947
0.108047
0.111256
0.0874943
0.0837137
0.0800556
0.0765363
0.0731747
0.0699933
0.0670173
0.0642758
0.0618029
0.0596376
0.0578256
0.0564229
0.055509
0.0554078
0.0563075
0.0577025
0.0595127
0.0616819
0.0641647
0.0669213
0.0698981
0.0726462
0.0731352
0.0731468
0.0735676
0.0741842
0.0749829
0.0759572
0.0770902
0.0783634
0.0797622
0.08128
0.0829167
0.0846762
0.086564
0.0885848
0.0907423
0.0930374
0.0954696
0.0980372
0.100736
0.103562
0.106511
0.109576
0.112751
0.0853654
0.081508
0.0777657
0.0741557
0.0706969
0.0674122
0.0643284
0.0614763
0.058892
0.056618
0.0547039
0.0532111
0.052224
0.0520011
0.052941
0.0543972
0.0562827
0.0585366
0.0611098
0.0639609
0.0670538
0.0703498
0.0736628
0.0755946
0.076273
0.0768628
0.0776102
0.0785281
0.0796011
0.0808106
0.0821425
0.0835914
0.085159
0.0868504
0.0886737
0.0906336
0.092734
0.0949758
0.0973586
0.0998796
0.102535
0.105319
0.108228
0.111255
0.114395
0.0834243
0.0795006
0.0756844
0.0719923
0.0684439
0.065062
0.0618743
0.0589134
0.0562179
0.0538329
0.0518126
0.0502228
0.0491516
0.0488019
0.049784
0.0513026
0.053264
0.0556024
0.0582649
0.0612074
0.0643923
0.067787
0.0713531
0.0749807
0.0780918
0.0795344
0.0803681
0.0812417
0.0822528
0.0833967
0.0846618
0.0860437
0.0875455
0.0891737
0.0909359
0.0928379
0.0948837
0.0970736
0.0994071
0.101881
0.104491
0.107233
0.1101
0.113087
0.116188
0.0816647
0.0776893
0.0738138
0.0700536
0.0664275
0.0629591
0.059676
0.0566125
0.0538089
0.0513137
0.0491848
0.0474923
0.0463268
0.0458498
0.0468737
0.0484536
0.0504886
0.0529085
0.0556569
0.0586869
0.0619591
0.0654395
0.0690892
0.0728197
0.076429
0.0796266
0.0822687
0.0838431
0.0849734
0.0860909
0.0873005
0.0886221
0.0900643
0.091635
0.0933419
0.095191
0.0971852
0.0993257
0.101611
0.104039
0.106603
0.109301
0.112125
0.11507
0.11813
0.0800713
0.0760631
0.0721473
0.0683385
0.0646539
0.0611158
0.0577524
0.0545981
0.0516952
0.0490949
0.0468586
0.0450607
0.0437939
0.0431932
0.0442554
0.0458912
0.0479941
0.0504891
0.0533166
0.0564274
0.0597803
0.0633397
0.067064
0.0708492
0.0744654
0.0776087
0.0801906
0.0824513
0.0846806
0.0870338
0.0892996
0.0910606
0.0926244
0.0942002
0.0958755
0.0976822
0.0996308
0.101725
0.103964
0.106346
0.108866
0.111519
0.1143
0.117201
0.120219
0.0786233
0.0746008
0.0706679
0.0668352
0.0631182
0.0595366
0.0561168
0.0528927
0.0499075
0.0472145
0.0448784
0.0429778
0.041608
0.0408911
0.0419827
0.0436638
0.0458234
0.0483827
0.0512791
0.0544609
0.0578855
0.0615154
0.0653053
0.0691339
0.0727402
0.0758144
0.0783229
0.0805551
0.0827966
0.0851847
0.0877626
0.0905326
0.0934674
0.0960863
0.0982323
0.100196
0.102173
0.10425
0.106455
0.108796
0.111273
0.113881
0.116618
0.119476
0.12245
0.0773036
0.0732804
0.0693493
0.065519
0.061801
0.058211
0.0547711
0.0515119
0.0484747
0.0457134
0.0432954
0.0413035
0.0398372
0.039016
0.0401201
0.041828
0.0440268
0.0466346
0.0495857
0.0528259
0.0563103
0.0599999
0.0638444
0.0677019
0.0712794
0.0742676
0.0766985
0.0789034
0.0811566
0.0835761
0.0861934
0.0890075
0.0920065
0.095175
0.0984864
0.101638
0.104306
0.106686
0.108991
0.111346
0.113802
0.116375
0.119071
0.121886
0.124816
0.0761151
0.0720937
0.068173
0.0643617
0.0606698
0.0571092
0.0536959
0.0504535
0.0474154
0.0446313
0.0421677
0.0401107
0.0385655
0.0376576
0.0387439
0.0404501
0.0426637
0.0452993
0.0482874
0.0515702
0.0551003
0.0588362
0.0627221
0.0665916
0.0701159
0.0729976
0.075343
0.0775185
0.0797807
0.082227
0.0848789
0.0877309
0.0907685
0.0939767
0.0973396
0.100842
0.104457
0.107924
0.110974
0.113714
0.116327
0.118943
0.121631
0.124417
0.12731
0.0750864
0.0710593
0.0671429
0.063349
0.05969
0.0561797
0.0528334
0.0496691
0.04671
0.0439894
0.0415577
0.0394913
0.0379017
0.0369302
0.0379459
0.0396115
0.0418115
0.0444523
0.0474576
0.0507648
0.0543234
0.0580893
0.0619995
0.0658585
0.0692965
0.0720406
0.0742844
0.0764235
0.0786889
0.0811557
0.0838355
0.0867181
0.0897878
0.0930276
0.0964216
0.0999552
0.103615
0.107389
0.11124
0.114917
0.118241
0.121268
0.124145
0.126995
0.129891
0.0742644
0.0702204
0.0662932
0.0624973
0.058849
0.0553673
0.0520734
0.0489921
0.0461528
0.0435919
0.0413573
0.0395161
0.0381635
0.0374281
0.0383294
0.0399038
0.0420315
0.0446146
0.047573
0.0508421
0.0543693
0.058107
0.0619773
0.0657272
0.0689499
0.0714569
0.0735566
0.0756437
0.0779025
0.0803816
0.0830804
0.0859849
0.0890775
0.0923402
0.0957568
0.0993126
0.102995
0.106791
0.110689
0.114677
0.118693
0.122524
0.126049
0.129299
0.132394
0.0737223
0.0696593
0.0657141
0.0619023
0.0582416
0.0547527
0.051459
0.0483881
0.0455717
0.0430479
0.0408633
0.0390781
0.0377749
0.0370757
0.0383006
0.0401255
0.0424202
0.0451075
0.0481271
0.0514287
0.0549695
0.0587057
0.0625434
0.0661432
0.0690463
0.0712335
0.0731665
0.0751954
0.0774409
0.0799235
0.0826322
0.0855491
0.0886547
0.0919308
0.0953609
0.0989298
0.102624
0.106432
0.110343
0.114347
0.118435
0.122587
0.126712
0.130652
0.134317
0.0742994
0.0702502
0.0663167
0.062514
0.0588593
0.0553725
0.0520771
0.0490012
0.0461795
0.0436552
0.0414843
0.0397408
0.0385281
0.0380367
0.0392582
0.0410921
0.0434032
0.0461041
0.0491298
0.0524288
0.0559588
0.0596745
0.0634648
0.0669542
0.0697056
0.0717822
0.0736617
0.0756667
0.0778982
0.0803696
0.0830684
0.0859759
0.0890722
0.0923391
0.09576
0.09932
0.103005
0.106805
0.110706
0.114702
0.118782
0.122936
0.127144
0.131353
0.135471
0.075252
0.0712341
0.0673327
0.0635623
0.0599405
0.0564873
0.053227
0.050189
0.0474093
0.044933
0.0428178
0.0411391
0.0400035
0.039657
0.0408483
0.0426475
0.0449236
0.047589
0.0505782
0.0538394
0.05733
0.0610025
0.0647305
0.0681208
0.0707432
0.0727208
0.0745469
0.0765199
0.0787268
0.0811759
0.0838528
0.0867386
0.0898134
0.0930595
0.0964601
0.1
0.103666
0.107447
0.111331
0.115309
0.119372
0.123513
0.12772
0.131978
0.13625
0.0765456
0.072575
0.068723
0.0650048
0.0614374
0.0580419
0.0548428
0.0518698
0.0491596
0.0467571
0.0447188
0.0431172
0.0420549
0.0418203
0.0429659
0.0447063
0.0469182
0.0495179
0.0524414
0.0556382
0.0590656
0.0626746
0.066329
0.0696187
0.0721239
0.0740138
0.0757876
0.0777237
0.0798975
0.0823145
0.0849599
0.0878139
0.0908576
0.0940731
0.0974434
0.100954
0.104592
0.108345
0.112203
0.116156
0.120195
0.124314
0.128502
0.132753
0.137049
0.0781525
0.0742427
0.0704546
0.0668035
0.0633071
0.0599864
0.0568662
0.053976
0.0513521
0.049038
0.0470873
0.0455681
0.0445752
0.0444309
0.0455234
0.0471923
0.0493237
0.0518394
0.0546786
0.0577923
0.061139
0.0646688
0.0682376
0.0714228
0.073819
0.0756303
0.077353
0.0792478
0.0813827
0.0837607
0.0863667
0.0891809
0.0921852
0.0953614
0.0986937
0.102167
0.105769
0.109487
0.113312
0.117232
0.121241
0.125329
0.12949
0.133717
0.138001
0.0800476
0.076209
0.0724958
0.0689234
0.0655099
0.0622759
0.0592461
0.0564497
0.0539215
0.0517031
0.0498445
0.048408
0.0474799
0.0474104
0.0484474
0.0500394
0.0520824
0.054504
0.0572474
0.0602662
0.0635199
0.0669587
0.0704322
0.0735093
0.0758024
0.0775411
0.0792134
0.0810647
0.0831563
0.0854895
0.0880499
0.0908181
0.0937762
0.096907
0.100195
0.103624
0.107184
0.110861
0.114645
0.118527
0.122499
0.126552
0.130679
0.134875
0.139132
0.0822073
0.0784477
0.0748176
0.0713323
0.0680094
0.0648696
0.0619373
0.0592405
0.0568127
0.0546926
0.0529263
0.0515701
0.050702
0.0506949
0.051677
0.0531913
0.0551431
0.0574663
0.0601081
0.063025
0.0661783
0.0695181
0.0728887
0.0758547
0.0780485
0.0797187
0.0813416
0.0831471
0.0851925
0.0874774
0.0899881
0.0927057
0.0956126
0.0986928
0.10193
0.105311
0.108822
0.112453
0.116192
0.12003
0.12396
0.127972
0.132061
0.13622
0.140441
0.0846091
0.0809344
0.077393
0.0739997
0.0707726
0.0677316
0.0649001
0.0623055
0.0599789
0.0579564
0.0562802
0.0550008
0.0541878
0.0542324
0.0551623
0.0566007
0.0584618
0.0606858
0.063224
0.066036
0.0690849
0.0723211
0.0755839
0.0784361
0.0805329
0.082138
0.083712
0.0854717
0.0874689
0.0897032
0.0921608
0.0948245
0.0976768
0.100702
0.103885
0.107212
0.110671
0.11425
0.11794
0.12173
0.125613
0.12958
0.133626
0.137743
0.141926
0.0872318
0.0836459
0.0801967
0.0768989
0.0737699
0.0708297
0.0681003
0.0656074
0.0633806
0.0614532
0.0598633
0.0586562
0.0578938
0.0579807
0.0588619
0.0602279
0.0620013
0.0641278
0.066563
0.0692696
0.0722127
0.0753429
0.0784949
0.081232
0.0832334
0.0847756
0.0863026
0.0880158
0.0899638
0.0921461
0.0945488
0.0971561
0.099951
0.102919
0.106044
0.109315
0.112717
0.116242
0.119878
0.123617
0.12745
0.131368
0.135367
0.139439
0.143578
0.0900559
0.0865612
0.0832063
0.0800054
0.0769756
0.0741359
0.0715075
0.0691148
0.0669849
0.0651485
0.0636403
0.0625007
0.0617848
0.061906
0.0627426
0.0640402
0.0657298
0.0677621
0.0700968
0.0726995
0.0755374
0.0785611
0.0816014
0.0842224
0.0861295
0.087611
0.0890915
0.090759
0.0926577
0.0947873
0.0971344
0.0996838
0.10242
0.105327
0.108394
0.111605
0.114949
0.118416
0.121996
0.12568
0.129459
0.133327
0.137276
0.141299
0.145392
0.120371
0.117152
0.113996
0.110895
0.107843
0.104837
0.101877
0.0989721
0.0961381
0.0933969
0.0907745
0.0882983
0.0859957
0.0838917
0.082009
0.0803683
0.0789877
0.0778836
0.0770712
0.0765718
0.0769513
0.0775578
0.07832
0.0792171
0.0801954
0.0811564
0.0820222
0.0828573
0.0837502
0.0847721
0.0859681
0.0873587
0.088949
0.0907345
0.0927058
0.0948498
0.0971521
0.0995937
0.102155
0.104815
0.107552
0.110344
0.113177
0.116042
0.118936
0.118479
0.115214
0.112009
0.108858
0.105754
0.102694
0.0996788
0.0967162
0.0938225
0.0910201
0.0883357
0.0857975
0.0834336
0.0812707
0.0793327
0.0776413
0.0762169
0.0750772
0.07424
0.0737272
0.0741143
0.0747333
0.0755087
0.0764152
0.0773928
0.0783411
0.0791984
0.0800404
0.0809475
0.0819871
0.0832038
0.0846188
0.0862355
0.0880495
0.0900502
0.0922252
0.0945587
0.0970316
0.0996241
0.102314
0.105079
0.107899
0.110759
0.113651
0.116574
0.116785
0.113476
0.110226
0.107029
0.103876
0.100766
0.0976981
0.0946808
0.0917308
0.0888702
0.0861263
0.0835285
0.0811059
0.0788856
0.0768933
0.0751526
0.0736848
0.0725104
0.0716481
0.0711225
0.0715168
0.0721476
0.0729334
0.073841
0.0748026
0.0757229
0.0765644
0.0774105
0.0783293
0.0793838
0.0806185
0.082054
0.0836936
0.0855317
0.087558
0.08976
0.0921208
0.0946216
0.097242
0.0999599
0.102752
0.105599
0.108486
0.111405
0.114355
0.115301
0.111952
0.108662
0.105421
0.102225
0.0990685
0.0959525
0.0928852
0.0898823
0.0869675
0.0841683
0.0815147
0.0790363
0.0767618
0.074718
0.0729296
0.0714201
0.0702117
0.0693257
0.0687877
0.0691888
0.0698306
0.0706221
0.0715136
0.0724354
0.0733072
0.0741259
0.0749739
0.0759018
0.0769686
0.0782181
0.0796704
0.0813287
0.083187
0.0852348
0.0874594
0.0898436
0.0923692
0.0950153
0.0977591
0.100578
0.103451
0.106365
0.109311
0.112289
0.114041
0.110657
0.10733
0.104052
0.100817
0.0976193
0.0944604
0.0913482
0.0882984
0.085335
0.0824857
0.0797813
0.0772523
0.074928
0.0728363
0.0710038
0.0694555
0.0682154
0.0673068
0.0667574
0.0671649
0.0678164
0.0686022
0.069446
0.0702899
0.0710902
0.0718815
0.072731
0.0736666
0.0747429
0.0760048
0.0774709
0.0791439
0.0810183
0.0830833
0.0853267
0.0877317
0.0902798
0.0929495
0.0957181
0.0985623
0.101462
0.104403
0.107377
0.110384
0.113019
0.109606
0.106248
0.102939
0.0996711
0.0964388
0.0932438
0.0900929
0.0870034
0.0839984
0.081106
0.0783576
0.0757844
0.0734166
0.0712832
0.0694118
0.0678286
0.06656
0.0656315
0.0650722
0.0654846
0.0661429
0.0668975
0.0676286
0.0683429
0.0690529
0.0698201
0.0706735
0.071617
0.0727032
0.0739763
0.0754544
0.0771394
0.0790264
0.0811058
0.0833654
0.0857891
0.0883582
0.0910512
0.0938445
0.0967148
0.0996417
0.10261
0.105613
0.108648
0.112253
0.108818
0.105438
0.102104
0.0988101
0.0955513
0.0923277
0.0891473
0.0860262
0.0829882
0.0800617
0.0772785
0.07467
0.0722672
0.0701
0.0681968
0.0665856
0.0652934
0.0643482
0.0637809
0.0641976
0.064856
0.0655042
0.0659995
0.0665382
0.0671629
0.06792
0.0687845
0.0697405
0.07084
0.0721264
0.0736169
0.0753138
0.0772126
0.0793053
0.0815802
0.0840223
0.0866122
0.0893285
0.0921469
0.0950438
0.0979986
0.100996
0.104027
0.107092
0.111769
0.108325
0.104929
0.10158
0.0982696
0.0949931
0.0917509
0.0885511
0.0854097
0.0823501
0.0794017
0.0765953
0.0739633
0.0715372
0.0693471
0.0674225
0.065792
0.064484
0.0635272
0.0629547
0.0633742
0.063995
0.064301
0.0644162
0.0648073
0.0653889
0.0661587
0.0670459
0.0680232
0.0691439
0.0704496
0.0719561
0.0736669
0.0755794
0.077687
0.0799786
0.0824394
0.085051
0.0877908
0.0906352
0.0935594
0.0965427
0.0995686
0.102628
0.105721
0.111495
0.108343
0.105172
0.101945
0.0986594
0.0953953
0.0921656
0.0889772
0.0858463
0.0827958
0.0798547
0.0770543
0.0744264
0.0720026
0.0698131
0.0678872
0.0662546
0.0649437
0.0639846
0.0634116
0.063646
0.063393
0.0629126
0.0627795
0.0631364
0.063729
0.0645309
0.065453
0.066464
0.0676163
0.0689489
0.0704775
0.072207
0.0741368
0.0762618
0.0785719
0.0810532
0.0836865
0.0864502
0.0893197
0.0922712
0.0952828
0.0983373
0.101426
0.104547
0.110002
0.107062
0.104218
0.101443
0.0986853
0.0958501
0.0928342
0.0896808
0.0865666
0.0835319
0.0806054
0.0778183
0.0752017
0.0727871
0.0706043
0.0686812
0.067046
0.0657214
0.0647089
0.0638465
0.0628668
0.0618959
0.061241
0.0612035
0.0615928
0.0622213
0.0630612
0.0640269
0.0650821
0.0662752
0.0676415
0.0691975
0.07095
0.0729003
0.0750451
0.077375
0.0798761
0.0825304
0.085316
0.0882093
0.0911861
0.0942249
0.0973078
0.100425
0.103574
0.108215
0.105281
0.102474
0.0997978
0.0972492
0.0948132
0.0924436
0.0900355
0.0874205
0.0845226
0.0816319
0.0788648
0.0762635
0.0738565
0.0716652
0.0696946
0.0679039
0.0661221
0.0643362
0.0626954
0.0613161
0.0602721
0.0596212
0.0598003
0.0602461
0.0609102
0.0617824
0.0627946
0.0639035
0.0651448
0.0665497
0.0681357
0.0699129
0.0718845
0.074048
0.0763954
0.0789132
0.0815843
0.0843884
0.0873018
0.090302
0.0933672
0.0964789
0.0996257
0.102802
0.106548
0.103589
0.100761
0.0980698
0.0955236
0.0931261
0.0908766
0.0887604
0.0867348
0.0847039
0.0825118
0.0800301
0.0774053
0.0748262
0.0722346
0.06966
0.0671963
0.0649278
0.0629103
0.0611865
0.0597911
0.058758
0.0581262
0.0585469
0.0590975
0.0597998
0.0606903
0.0617443
0.0629164
0.0642166
0.0656656
0.0672833
0.0690841
0.0710744
0.0732532
0.0756131
0.0781422
0.0808248
0.0836423
0.0865736
0.089597
0.0926906
0.0958347
0.0990157
0.102226
0.105065
0.102082
0.0992296
0.0965167
0.0939498
0.0915358
0.0892771
0.0871681
0.0851856
0.0832698
0.0813015
0.0791195
0.0766316
0.0739068
0.0711122
0.0683974
0.0658589
0.063553
0.0615186
0.0597893
0.0583981
0.0573785
0.0567676
0.0573894
0.0581095
0.0588824
0.0597797
0.0608517
0.0620736
0.0634261
0.0649138
0.0665591
0.0683814
0.0703897
0.0725837
0.074956
0.077496
0.08019
0.0830214
0.085973
0.0890241
0.092154
0.0953424
0.0985707
0.101827
0.103776
0.100774
0.0979036
0.0951726
0.0925892
0.0901599
0.0878873
0.0857693
0.0837859
0.0818858
0.079959
0.0778439
0.075422
0.0727357
0.0699483
0.067223
0.0646682
0.0623469
0.0603006
0.0585652
0.0571756
0.0561674
0.0555777
0.056311
0.0572274
0.0581513
0.0590791
0.0601347
0.0613461
0.0627018
0.0642063
0.0658768
0.0677274
0.0697632
0.0719815
0.0743751
0.076933
0.0796432
0.0824925
0.0854664
0.0885494
0.091724
0.0949717
0.0982738
0.101614
0.102689
0.0996736
0.0967906
0.0940483
0.0914545
0.0890159
0.086736
0.0846128
0.08263
0.0807418
0.0788481
0.0767903
0.0744312
0.0717862
0.0690112
0.06628
0.0637126
0.0613787
0.059323
0.057584
0.0561996
0.0552095
0.0546554
0.055429
0.0564844
0.057556
0.0585356
0.0595567
0.0607342
0.0620963
0.0636391
0.0653572
0.0672498
0.0693163
0.0715551
0.0739606
0.0765257
0.0792412
0.0820961
0.0850793
0.0881782
0.0913789
0.0946659
0.0980228
0.101433
0.101807
0.0987849
0.0958965
0.0931498
0.0905534
0.0881134
0.0858336
0.0837122
0.0817348
0.0798604
0.0779977
0.0759935
0.0736993
0.0711042
0.0683533
0.0656277
0.0630591
0.0607237
0.0586701
0.0569394
0.0555747
0.0546253
0.0541552
0.0548654
0.0559393
0.0570469
0.0580405
0.0590308
0.0601936
0.0615819
0.0631845
0.0649759
0.0669358
0.069053
0.0713232
0.0737442
0.0763134
0.0790269
0.0818782
0.0848596
0.087961
0.0911717
0.0944798
0.0978713
0.101332
0.101132
0.098109
0.0952221
0.0924794
0.0898886
0.0874566
0.0851868
0.0830772
0.0811151
0.0792613
0.0774332
0.075484
0.0732584
0.0707247
0.0680147
0.0653145
0.0627659
0.0604511
0.0584209
0.0567164
0.0553777
0.0544464
0.0539687
0.0544925
0.0554844
0.0566239
0.057749
0.0588878
0.0601588
0.0616183
0.0632689
0.0650964
0.0670856
0.0692266
0.0715126
0.0739397
0.0765043
0.0792028
0.08203
0.0849795
0.0880446
0.0912188
0.0944946
0.0978658
0.101323
0.10066
0.0976414
0.0947613
0.0920278
0.08945
0.0870344
0.0847857
0.0827027
0.0807731
0.078964
0.0772023
0.0753575
0.0732755
0.070877
0.0682482
0.0655807
0.0630424
0.0607286
0.058693
0.0569768
0.0556183
0.0546546
0.0541204
0.0545279
0.0554659
0.0565863
0.0577575
0.0589879
0.0603406
0.0618531
0.0635338
0.0653777
0.0673757
0.0695179
0.0717958
0.0742029
0.0767355
0.0793898
0.0821637
0.0850561
0.088065
0.0911885
0.0944236
0.0977661
0.101209
0.100339
0.0973061
0.0944087
0.0916573
0.0890625
0.0866341
0.084381
0.0823091
0.0804171
0.0786888
0.0770765
0.075459
0.0736065
0.0713509
0.0688181
0.0662002
0.0636894
0.0613953
0.0593726
0.057662
0.0562995
0.0553168
0.0547411
0.05511
0.0559752
0.0570339
0.0581764
0.0594224
0.0608064
0.0623457
0.064043
0.0658938
0.067891
0.0700254
0.0722891
0.0746762
0.0771847
0.079813
0.0825618
0.0854316
0.0884205
0.0915268
0.0947473
0.0980768
0.101509
0.0996361
0.0964672
0.093428
0.0905325
0.0877958
0.0852337
0.0828635
0.0807024
0.0787663
0.0770691
0.075618
0.0743976
0.0733059
0.0719681
0.0696708
0.067138
0.0646735
0.0624126
0.060414
0.0587182
0.0573594
0.0563673
0.0557688
0.0560917
0.0568752
0.0578574
0.0589592
0.0601964
0.0615839
0.0631274
0.0648252
0.0666713
0.0686584
0.0707779
0.0730226
0.0753881
0.0778732
0.080478
0.0832038
0.0860513
0.0890194
0.0921063
0.0953076
0.0986195
0.102036
0.0976857
0.0943321
0.0911143
0.0880475
0.0851497
0.0824391
0.0799357
0.0776614
0.0756391
0.073894
0.0724535
0.0713488
0.0706284
0.0706973
0.070303
0.0683606
0.0659688
0.0637558
0.0617922
0.0601204
0.0587742
0.0577832
0.0571761
0.0574449
0.0581496
0.059057
0.0601121
0.0613251
0.0626977
0.0642272
0.0659082
0.0677336
0.0696956
0.0717868
0.0740016
0.0763374
0.0787937
0.0813711
0.0840711
0.0868933
0.0898374
0.092901
0.0960802
0.0993705
0.102766
0.0949615
0.091477
0.0881299
0.084937
0.0819155
0.0790844
0.0764656
0.0740826
0.0719616
0.0701317
0.0686255
0.0674818
0.066756
0.0670455
0.0678095
0.0685741
0.067534
0.0653925
0.0634772
0.0618393
0.0605151
0.0595348
0.0589292
0.0591372
0.0597693
0.0606079
0.0616144
0.0627935
0.0641381
0.0656391
0.0672876
0.0690753
0.0709957
0.0730435
0.0752153
0.0775101
0.0799284
0.082471
0.0851392
0.0879321
0.0908482
0.0938856
0.0970393
0.100305
0.103678
0.0921413
0.0885502
0.0850947
0.0817907
0.0786563
0.0757118
0.0729801
0.0704866
0.0682596
0.0663318
0.0647393
0.0635263
0.062755
0.0630223
0.0638797
0.0651634
0.0667252
0.0672171
0.0654326
0.0638401
0.0625474
0.0615864
0.0609896
0.0611329
0.0617004
0.0624766
0.0634339
0.0645722
0.0658787
0.0673385
0.0689402