<VTKFile type="ImageData" version="1.0" byte_order="LittleEndian" header_type="UInt64">
	<ImageData WholeExtent="0 44 0 44 0 44" Origin="-0.13467 -0.00697991 -0.101969" Spacing="0.0053577 0.0053577 0.0053577">
		<Piece Extent="0 44 0 44 0 44">
			<PointData Scalars="Scalars_">
				<DataArray type="Float32" Name="Scalars_" format="ascii" RangeMin="0" RangeMax="100">
1e+07
1e+07
1e+07
1e+07
1e+07
1e+07
1e+07
1e+07
1e+07
1e+07
1e+07
1e+07
1e+07
1e+07
1e+07
1e+07
1e+07
1e+07
1e+07
1e+07
1e+07
1e+07
1e+07
1e+07
1e+07
1e+07
1e+07
1e+07
1e+07
1e+07
1e+07
1e+07
1e+07
1e+07
1e+07
1e+07
1e+07
1e+07
1e+07
1e+07
1e+07
1e+07
1e+07
1e+07
1e+07
1e+07
1e+07
1e+07
1e+07
1e+07
1e+07
1e+07
1e+07
1e+07
1e+07
1e+07
1e+07
1e+07
1e+07
1e+07
1e+07
1e+07
1e+07
1e+07
1e+07
1e+07
1e+07
1e+07
1e+07
1e+07
1e+07
1e+07
1e+07
1e+07
1e+07
1e+07
1e+07
1e+07
1e+07
1e+07
1e+07
1e+07
1e+07
1e+07
1e+07
1e+07
1e+07
1e+07
1e+07
1e+07
1e+07
1e+07
1e+07
1e+07
1e+07
1e+07
1e+07
1e+07
1e+07
1e+07
1e+07
1e+07
1e+07
1e+07
1e+07
1e+07
1e+07
1e+07
1e+07
1e+07
1e+07
1e+07
1e+07
1e+07
1e+07
1e+07
1e+07
1e+07
1e+07
1e+07
1e+07
1e+07
1e+07
1e+07
1e+07
1e+07
1e+07
1e+07
1e+07
1e+07
1e+07
1e+07
1e+07
1e+07
1e+07
1e+07
1e+07
1e+07
1e+07
1e+07
1e+07
1e+07
1e+07
1e+07
1e+07
1e+07
1e+07
1e+07
1e+07
1e+07
1e+07
1e+07
1e+07
1e+07
1e+07
1e+07
1e+07
1e+07
1e+07
1e+07
1e+07
1e+07
1e+07
1e+07
1e+07
1e+07
1e+07
1e+07
1e+07
1e+07
1e+07
1e+07
1e+07
1e+07
1e+07
1e+07
1e+07
1e+07
1e+07
1e+07
1e+07
1e+07
1e+07
1e+07
1e+07
1e+07
1e+07
1e+07
1e+07
1e+07
1e+07
1e+07
1e+07
1e+07
1e+07
1e+07
1e+07
1e+07
1e+07
1e+07
1e+07
1e+07
1e+07
1e+07
1e+07
1e+07
1e+07
1e+07
1e+07
1e+07
1e+07
1e+07
1e+07
1e+07
1e+07
1e+07
1e+07
1e+07
1e+07
1e+07
1e+07
1e+07
1e+07
1e+07
1e+07
1e+07
1e+07
1e+07
1e+07
1e+07
1e+07
1e+07
1e+07
1e+07
1e+07
1e+07
0.112193
0.105414
0.10207
0.100281
0.100195
0.0916586
0.0843154
0.0801168
0.0786706
0.0790465
0.0796457
0.0803841
0.081329
0.0824794
0.0837505
0.0849741
0.0861276
0.0873156
0.0886318
0.0901235
0.0918099
0.0936965
0.0957811
0.098057
0.100516
0.103146
0.105938
0.10888
0.11196
0.115167
0.118491
0.121921
0.125449
0.129064
1e+07
1e+07
1e+07
1e+07
1e+07
1e+07
1e+07
1e+07
1e+07
1e+07
0.11067
0.103255
0.0982145
0.0952965
0.0935074
0.0898136
0.0823676
0.0767459
0.0732802
0.0718976
0.0722909
0.0729201
0.0737103
0.0747165
0.0759197
0.0772163
0.0784305
0.0795708
0.0807503
0.0820606
0.0835507
0.0852425
0.0871427
0.0892482
0.0915515
0.0940411
0.0967042
0.0995267
0.102494
0.10559
0.108801
0.112111
0.115507
0.118975
0.122505
1e+07
1e+07
1e+07
1e+07
1e+07
1e+07
1e+07
1e+07
1e+07
0.112193
0.104041
0.0979075
0.0938734
0.0915135
0.0890584
0.0831267
0.076734
0.0721629
0.0694985
0.0681933
0.0685972
0.0692461
0.0700751
0.0711045
0.072302
0.0735624
0.0747427
0.075847
0.076963
0.0781919
0.0796012
0.0812235
0.0830671
0.0851287
0.0873974
0.0898592
0.0924978
0.095295
0.0982318
0.101289
0.104447
0.107688
0.110993
0.11435
0.117748
1e+07
1e+07
1e+07
1e+07
1e+07
1e+07
1e+07
1e+07
1e+07
0.112515
0.104387
0.0982713
0.0942424
0.0918925
0.0895395
0.0836422
0.0772428
0.0726445
0.0699432
0.0686318
0.0689257
0.0694258
0.0700659
0.0708814
0.0717715
0.0726218
0.0734838
0.0743916
0.0753269
0.0763739
0.0776157
0.0790878
0.080797
0.0827364
0.0848924
0.0872483
0.0897847
0.0924808
0.0953135
0.0982597
0.101297
0.104404
0.107565
0.110768
0.114006
1e+07
1e+07
1e+07
1e+07
1e+07
1e+07
1e+07
1e+07
1e+07
0.113126
0.105027
0.0989366
0.0949163
0.0925688
0.0903026
0.0844938
0.0781103
0.0734941
0.0707319
0.0693652
0.069542
0.0699518
0.0704116
0.0698409
0.0700377
0.0704527
0.0711095
0.0719184
0.0728661
0.0739756
0.0752679
0.0767573
0.0784514
0.0803514
0.0824523
0.0847434
0.0872103
0.0898339
0.0925921
0.0954616
0.0984183
0.101442
0.104516
0.10763
0.11078
1e+07
1e+07
1e+07
1e+07
1e+07
1e+07
1e+07
1e+07
1e+07
0.11401
0.105942
0.0998853
0.0958758
0.0935222
0.0913161
0.0856475
0.0793052
0.0746806
0.071853
0.0704139
0.0704539
0.070266
0.0680519
0.0671649
0.0674597
0.0679916
0.0687135
0.0695508
0.0705085
0.0716318
0.0729418
0.0744433
0.0761392
0.0780309
0.0801159
0.0823867
0.0848316
0.0874343
0.0901738
0.0930272
0.0959701
0.0989813
0.102043
0.105143
0.108278
1e+07
1e+07
1e+07
1e+07
1e+07
1e+07
1e+07
1e+07
1e+07
0.11515
0.107118
0.101099
0.0971004
0.0947269
0.0925309
0.0870611
0.0807971
0.0761754
0.0732863
0.0717553
0.07122
0.0677619
0.0656735
0.0649377
0.0653882
0.0661267
0.0670724
0.0680657
0.0690447
0.0701329
0.0714106
0.0728993
0.0745993
0.0765057
0.0786109
0.0809043
0.083372
0.0859973
0.0887588
0.0916334
0.0945963
0.0976239
0.100698
0.103805
0.10694
1e+07
1e+07
1e+07
1e+07
1e+07
1e+07
1e+07
1e+07
1e+07
0.116532
0.10844
0.102009
0.0982184
0.0946979
0.0930001
0.0885981
0.0825406
0.0779488
0.0749888
0.0730187
0.068808
0.0657376
0.0639027
0.0639339
0.0641987
0.0647455
0.0655952
0.0666664
0.0678778
0.0692121
0.070675
0.0722788
0.0740369
0.0759613
0.0780577
0.0803257
0.0827596
0.0853482
0.088076
0.0909242
0.0938719
0.0968983
0.0999838
0.103113
0.106277
1e+07
1e+07
1e+07
1e+07
1e+07
1e+07
1e+07
1e+07
1e+07
0.109696
0.10057
0.0954259
0.0926091
0.0897086
0.0881399
0.0876377
0.0843376
0.0799451
0.0768194
0.0720719
0.0670084
0.063988
0.0623452
0.0628066
0.0632309
0.0637999
0.0645765
0.0655941
0.0668023
0.0681433
0.0696059
0.0712126
0.0729883
0.0749453
0.0770848
0.0794002
0.0818818
0.0845167
0.0872907
0.0901887
0.0931939
0.0962886
0.0994555
0.102678
0.105943
1e+07
1e+07
1e+07
1e+07
1e+07
1e+07
1e+07
1e+07
0.110341
0.100509
0.0944619
0.0905226
0.0880677
0.0858727
0.0840889
0.084045
0.0840508
0.0817259
0.0750983
0.0689139
0.0647984
0.0617629
0.0602154
0.0609749
0.061953
0.0629792
0.0639896
0.0650933
0.0663214
0.0676535
0.0690956
0.0706785
0.0724305
0.0743655
0.0764852
0.0787843
0.0812522
0.0838779
0.0866489
0.089552
0.0925733
0.0956989
0.0989139
0.102203
0.105553
1e+07
1e+07
1e+07
1e+07
1e+07
1e+07
1e+07
0.112494
0.102241
0.0954166
0.090604
0.0873407
0.0849734
0.0828369
0.0815324
0.0813511
0.0815947
0.0794993
0.0730542
0.0670397
0.0627128
0.0601878
0.0594287
0.0602069
0.0613225
0.0624193
0.0633406
0.0642525
0.0653443
0.0666641
0.0681992
0.0699251
0.0718208
0.0738735
0.0760766
0.0784269
0.0809218
0.0835577
0.0863297
0.0892311
0.092254
0.095389
0.098625
0.101949
0.10535
1e+07
1e+07
1e+07
1e+07
1e+07
1e+07
0.118838
0.10706
0.0996065
0.093522
0.0887499
0.0854819
0.0831064
0.0809816
0.0798563
0.0793744
0.0796518
0.0784548
0.0722444
0.0663427
0.0622484
0.0599902
0.0592073
0.0597082
0.0606414
0.0617471
0.0628682
0.0640031
0.0652478
0.0666628
0.0682587
0.070027
0.0719549
0.0740332
0.0762542
0.0786143
0.0811102
0.0837384
0.0864948
0.0893753
0.0923732
0.0954827
0.0986961
0.102005
0.105401
1e+07
1e+07
1e+07
1e+07
1e+07
1e+07
0.11295
0.104808
0.09793
0.091923
0.0872152
0.0843902
0.0831407
0.0803188
0.0789779
0.0790826
0.0791047
0.078003
0.0724904
0.0666452
0.0625525
0.0602802
0.0593568
0.0597514
0.0606302
0.061712
0.0628672
0.064083
0.0654068
0.0668769
0.0685067
0.0702945
0.0722342
0.0743164
0.0765341
0.0788799
0.0813499
0.0839398
0.0866473
0.0894693
0.0924047
0.0954508
0.0986062
0.101867
0.105228
1e+07
1e+07
1e+07
1e+07
1e+07
1e+07
0.112073
0.103919
0.0958522
0.0901777
0.0867048
0.0845217
0.0831171
0.0803164
0.0788578
0.0791689
0.0793015
0.0781569
0.073029
0.0673146
0.0632867
0.0609868
0.0599465
0.0603067
0.0611257
0.0621521
0.0632766
0.0644993
0.0658491
0.0673445
0.068992
0.0707896
0.0727311
0.074809
0.077016
0.0793457
0.0817943
0.0843609
0.0870442
0.0898437
0.0927587
0.0957879
0.0989286
0.102176
0.105526
1e+07
1e+07
1e+07
1e+07
1e+07
1e+07
0.112221
0.10191
0.0950509
0.090261
0.0869226
0.0847143
0.0831512
0.0805328
0.0788886
0.0792144
0.0794702
0.0783653
0.0738499
0.0683487
0.064382
0.0620536
0.0609167
0.0612372
0.0619877
0.0629461
0.0640291
0.0652394
0.0665908
0.068091
0.0697407
0.0715361
0.0734705
0.0755367
0.0777277
0.0800385
0.0824664
0.0850108
0.0876726
0.0904508
0.093346
0.0963561
0.0994784
0.102709
0.106043
1e+07
1e+07
1e+07
1e+07
1e+07
1e+07
0.11244
0.102413
0.0955856
0.0907875
0.0874032
0.0850833
0.0833205
0.0809573
0.0792838
0.0791559
0.0793385
0.0788145
0.0749241
0.0697115
0.0658076
0.0634554
0.0622441
0.0625176
0.0632
0.0640908
0.0651281
0.0663137
0.0676507
0.0691391
0.0707761
0.0725547
0.0744688
0.0765114
0.0786769
0.0809611
0.0833627
0.0858816
0.0885183
0.0912731
0.0941452
0.0971332
0.100234
0.103445
0.106759
1e+07
1e+07
1e+07
1e+07
1e+07
1e+07
0.112966
0.103185
0.0963992
0.0915731
0.0881067
0.085691
0.083842
0.0816272
0.0798807
0.0793896
0.0787334
0.078583
0.076186
0.0713558
0.0675315
0.0651662
0.0639006
0.0641201
0.0647387
0.0655661
0.0665563
0.0677095
0.0690213
0.0704855
0.0720952
0.0738431
0.0757225
0.0777279
0.0798556
0.0821029
0.0844694
0.0869557
0.0895622
0.0922886
0.0951346
0.0980971
0.101174
0.104361
0.107653
1e+07
1e+07
1e+07
1e+07
1e+07
0.123129
0.112937
0.104135
0.0974186
0.0925617
0.0890218
0.0865235
0.0846057
0.0824664
0.0806371
0.0799245
0.0792742
0.0791049
0.0775415
0.0732266
0.0695161
0.0671547
0.0658545
0.0660145
0.0665748
0.0673439
0.0682876
0.0694027
0.0706809
0.0721098
0.0736802
0.0753839
0.0772153
0.0791707
0.0812486
0.0834484
0.0857707
0.0882169
0.0907868
0.0934801
0.0962951
0.099229
0.102278
0.105439
0.108706
1e+07
1e+07
1e+07
1e+07
1e+07
0.118179
0.110258
0.104089
0.0985013
0.0937077
0.0901377
0.0875801
0.0856009
0.0834895
0.0816073
0.0807729
0.0801493
0.0799622
0.0789538
0.0752687
0.0717205
0.069387
0.0680725
0.0681703
0.0686781
0.0693939
0.0702904
0.0713634
0.0725998
0.0739844
0.075505
0.0771536
0.0789261
0.0808215
0.0828403
0.0849842
0.0872553
0.0896549
0.0921826
0.0948373
0.097617
0.100518
0.103537
0.106669
0.109908
1e+07
1e+07
1e+07
1e+07
1e+07
0.117962
0.109867
0.103424
0.0987842
0.094863
0.0914144
0.0888478
0.0868136
0.0847214
0.0828226
0.0819189
0.0813233
0.0811208
0.0804566
0.0774379
0.0741049
0.0718288
0.0705218
0.070557
0.0710188
0.0716844
0.0725329
0.073559
0.0747469
0.0760788
0.0775415
0.0791272
0.0808334
0.0826619
0.0846161
0.0866991
0.0889145
0.0912631
0.0937441
0.0963564
0.0990974
0.101963
0.104947
0.108047
0.111256
1e+07
1e+07
1e+07
1e+07
1e+07
0.118145
0.110041
0.103522
0.0987296
0.0955646
0.0926585
0.0901946
0.0881974
0.0861602
0.0842853
0.0833406
0.0827695
0.0825551
0.082102
0.0797081
0.076636
0.0744483
0.0731704
0.0731471
0.0735681
0.0741847
0.0749833
0.0759576
0.0770906
0.0783634
0.0797624
0.0812804
0.0829171
0.0846764
0.0865644
0.0885851
0.0907425
0.0930377
0.09547
0.0980375
0.100736
0.103563
0.106511
0.109576
0.112751
1e+07
1e+07
1e+07
1e+07
1e+07
0.118643
0.110482
0.103936
0.0991523
0.0960948
0.0936845
0.0911476
0.0894241
0.0877591
0.0859782
0.0850141
0.0844635
0.0842406
0.0839237
0.0820714
0.0792882
0.0772176
0.0759898
0.0759149
0.0762985
0.0768654
0.0776108
0.0785284
0.0796014
0.0808109
0.0821429
0.0835916
0.085159
0.0868508
0.0886738
0.0906338
0.0927342
0.094976
0.0973586
0.0998796
0.102535
0.105319
0.108228
0.111255
0.114395
1e+07
1e+07
1e+07
1e+07
1e+07
0.119405
0.111136
0.104584
0.0998305
0.0967461
0.089917
0.0706289
0.070264
0.0710649
0.0723173
0.0739535
0.0759262
0.0781958
0.0807208
0.0831069
0.0820459
0.0801143
0.0789541
0.0788366
0.0791845
0.0796998
0.0803876
0.0812445
0.0822537
0.083397
0.0846621
0.0860439
0.0875456
0.0891738
0.090936
0.0928384
0.0948837
0.0970736
0.0994074
0.101881
0.104491
0.107233
0.1101
0.113087
0.116188
1e+07
1e+07
1e+07
1e+07
1e+07
0.120408
0.111995
0.10545
0.100722
0.0900802
0.0691159
0.0629324
0.0588634
0.059551
0.0607492
0.0623968
0.0644388
0.0668262
0.0695154
0.0724684
0.0756513
0.0790142
0.0812813
0.0818575
0.0822014
0.0826629
0.0832894
0.0840819
0.0850255
0.086103
0.0873037
0.0886233
0.0900647
0.0916351
0.0933423
0.0951912
0.0971852
0.0993257
0.101611
0.104039
0.106603
0.109301
0.112125
0.11507
0.11813
1e+07
1e+07
1e+07
1e+07
1e+07
0.121631
0.113052
0.10652
0.0924955
0.0706291
0.062385
0.0562984
0.0514007
0.0520174
0.0532277
0.0549393
0.0570785
0.0595837
0.0624026
0.0654909
0.0688111
0.0723314
0.0760236
0.0798462
0.0833269
0.0853053
0.0862397
0.0870155
0.0879004
0.0889156
0.0900568
0.0913199
0.0927079
0.0942273
0.095885
0.0976854
0.0996324
0.101726
0.103965
0.106346
0.108866
0.111519
0.1143
0.117201
0.120219
1e+07
1e+07
1e+07
1e+07
1e+07
0.123049
0.114301
0.107774
0.0918184
0.0649416
0.0572155
0.0506024
0.0458045
0.0459845
0.0471458
0.0489042
0.0511391
0.0537664
0.0567203
0.0599486
0.0634084
0.0670646
0.0708878
0.0748499
0.0789187
0.08304
0.0868772
0.0893681
0.0907373
0.0918005
0.0929073
0.0941247
0.0954671
0.0969427
0.0985568
0.100314
0.102217
0.104267
0.106462
0.108799
0.111274
0.113882
0.116618
0.119476
0.12245
1e+07
1e+07
1e+07
1e+07
1e+07
0.124637
0.11573
0.109196
0.0861189
0.0651575
0.0533854
0.046327
0.0420006
0.041107
0.0423404
0.0441998
0.0465473
0.0492905
0.0523599
0.0557012
0.0592709
0.0630334
0.0669575
0.0710064
0.0751206
0.0791949
0.0830745
0.0866127
0.0897799
0.0926161
0.094854
0.0966154
0.0981692
0.0997072
0.101323
0.103057
0.104927
0.106939
0.109093
0.111388
0.11382
0.116383
0.119075
0.121888
0.124818
1e+07
1e+07
1e+07
1e+07
1e+07
0.126372
0.117327
0.110773
0.0756124
0.0632388
0.0497771
0.0433391
0.0396889
0.0381164
0.0393045
0.0411288
0.0434571
0.0461949
0.0492691
0.0526218
0.0562065
0.0599859
0.0639253
0.0679648
0.071984
0.0757846
0.0791703
0.0821143
0.0847893
0.0874059
0.0900984
0.0929264
0.0959082
0.0990431
0.102185
0.104937
0.107326
0.10955
0.111772
0.114071
0.11648
0.119009
0.12166
0.124431
0.127317
1e+07
1e+07
1e+07
1e+07
1e+07
0.128237
0.11908
0.112497
0.0660023
0.0574811
0.0486801
0.0426377
0.0388876
0.0369302
0.0379459
0.0396116
0.0418115
0.0444524
0.0474578
0.0507654
0.0543243
0.0580932
0.06203
0.0660231
0.0698463
0.0732202
0.0760521
0.0785445
0.080971
0.0834968
0.0861864
0.0890548
0.0920978
0.0953044
0.0986613
0.102155
0.105773
0.109481
0.112986
0.116085
0.118893
0.121588
0.124291
0.12706
0.129921
1e+07
1e+07
1e+07
1e+07
1e+07
0.130216
0.120979
0.114363
0.0601942
0.0528106
0.0468307
0.04193
0.0387215
0.0374281
0.0383294
0.0399038
0.0420315
0.0446146
0.0475731
0.0508422
0.0543694
0.0581112
0.0620106
0.0658365
0.0692045
0.0718916
0.0741228
0.0762743
0.0785586
0.0810449
0.0837431
0.0866422
0.0897271
0.0929811
0.096388
0.0999333
0.103604
0.107389
0.111276
0.115251
0.119239
0.122963
0.126331
0.129451
0.132467
1e+07
1e+07
1e+07
1e+07
1e+07
0.132305
0.123015
0.116368
0.0582554
0.0507098
0.0450698
0.0409209
0.0381907
0.0370757
0.0383006
0.0401255
0.0424202
0.0451075
0.0481271
0.0514288
0.0549698
0.0587115
0.0625709
0.0661885
0.0690823
0.0712525
0.0731753
0.0751997
0.0774431
0.0799246
0.0826327
0.0855493
0.0886547
0.0919308
0.0953609
0.0989301
0.102625
0.106433
0.110343
0.114347
0.118435
0.122594
0.126752
0.130709
0.134363
1e+07
1e+07
1e+07
1e+07
1e+07
0.134499
0.125181
0.118512
0.0592237
0.0515769
0.045776
0.0414382
0.0387561
0.0380367
0.0392582
0.0410921
0.0434032
0.0461041
0.0491298
0.0524288
0.0559594
0.0596827
0.0634898
0.0669878
0.0697294
0.0717931
0.0736664
0.0756687
0.0778993
0.0803704
0.0830693
0.0859767
0.0890727
0.0923396
0.0957601
0.0993201
0.103005
0.106805
0.110706
0.114702
0.118782
0.122937
0.127148
0.131363
0.135483
1e+07
1e+07
1e+07
1e+07
1e+07
0.136799
0.127475
0.120793
0.0607214
0.0529859
0.0471177
0.0427731
0.0401463
0.0396571
0.0408483
0.0426475
0.0449236
0.047589
0.0505782
0.0538394
0.057331
0.0610126
0.0647555
0.0681463
0.0707576
0.0727266
0.0745489
0.0765206
0.078727
0.081176
0.0838529
0.0867386
0.0898135
0.0930595
0.0964601
0.100001
0.103667
0.107447
0.111331
0.115309
0.119373
0.123513
0.127721
0.13198
0.136252
1e+07
1e+07
1e+07
1e+07
1e+07
0.139207
0.129891
0.123208
0.0626564
0.0548591
0.048988
0.0447035
0.0421475
0.0418204
0.0429659
0.0447063
0.0469182
0.0495179
0.0524414
0.0556382
0.0590668
0.0626863
0.0663519
0.0696372
0.0721323
0.074017
0.0757888
0.0777239
0.0798979
0.0823148
0.0849601
0.0878143
0.0908581
0.0940732
0.0974434
0.100954
0.104592
0.108345
0.112203
0.116156
0.120195
0.124314
0.128502
0.132753
0.13705
1e+07
1e+07
1e+07
1e+07
1e+07
0.141724
0.132429
0.125755
0.0649642
0.057133
0.051301
0.0471093
0.0446363
0.044431
0.0455234
0.0471923
0.0493237
0.0518394
0.0546786
0.0577923
0.0611404
0.0646814
0.0682579
0.0714363
0.0738243
0.0756321
0.0773539
0.0792481
0.0813831
0.0837607
0.0863667
0.0891811
0.0921857
0.0953616
0.0986939
0.102168
0.10577
0.109488
0.113312
0.117233
0.121241
0.125329
0.12949
0.133717
0.138001
1e+07
1e+07
1e+07
1e+07
1e+07
0.14435
0.135082
0.128429
0.0675932
0.0597526
0.0539858
0.0499033
0.0475213
0.0474105
0.0484474
0.0500394
0.0520824
0.054504
0.0572474
0.0602662
0.0635216
0.0669727
0.0704506
0.0735197
0.0758063
0.0775423
0.0792139
0.0810648
0.0831563
0.0854898
0.0880499
0.0908183
0.0937766
0.0969074
0.100195
0.103625
0.107184
0.110861
0.114645
0.118527
0.122499
0.126552
0.13068
0.134875
0.139132
1e+07
1e+07
1e+07
1e+07
1e+07
0.147084
0.13785
0.131225
0.0705005
0.0626703
0.0569837
0.0530179
0.0507309
0.0506949
0.051677
0.0531913
0.0551431
0.0574663
0.0601081
0.063025
0.0661801
0.0695332
0.0729059
0.0758631
0.0780513
0.0797198
0.0813419
0.0831475
0.0851927
0.0874779
0.0899885
0.0927058
0.0956131
0.0986932
0.10193
0.105311
0.108822
0.112453
0.116192
0.12003
0.12396
0.127972
0.132061
0.13622
0.140442
1e+07
1e+07
1e+07
1e+07
1e+07
0.149927
0.140727
0.13414
0.0736492
0.0658451
0.0602462
0.0563998
0.0542086
0.0542326
0.0551623
0.0566007
0.0584618
0.0606858
0.063224
0.066036
0.0690869
0.0723373
0.0756002
0.0784432
0.0805352
0.0821388
0.0837126
0.0854722
0.0874691
0.0897036
0.0921612
0.0948245
0.0976773
0.100702
0.103885
0.107213
0.110671
0.11425
0.11794
0.12173
0.125613
0.12958
0.133626
0.137744
0.141926
1e+07
1e+07
1e+07
1e+07
1e+07
0.152875
0.143711
0.137168
0.0770086
0.0692422
0.0637331
0.0600059
0.0579093
0.057981
0.0588619
0.0602279
0.0620013
0.0641278
0.066563
0.0692696
0.072215
0.0753609
0.0785112
0.0812381
0.0832353
0.0847764
0.0863029
0.0880162
0.0899642
0.0921465
0.0945492
0.0971563
0.0999516
0.102919
0.106044
0.109315
0.112718
0.116242
0.119879
0.123617
0.12745
0.131369
0.135367
0.139439
0.143579
1e+07
1e+07
1e+07
1e+07
1e+07
0.155924
0.146798
0.140302
0.0805517
0.0728315
0.0674113
0.0638013
0.0617966
0.0619063
0.0627426
0.0640402
0.0657298
0.0677621
0.0700968
0.0726995
0.0755401
0.0785811
0.0816175
0.0842274
0.0861308
0.0876115
0.0890918
0.0907593
0.0926584
0.0947876
0.0971344
0.0996841
0.10242
0.105328
0.108394
0.111605
0.114949
0.118416
0.121996
0.12568
0.129459
0.133327
0.137276
0.141299
0.145392
1e+07
1e+07
1e+07
1e+07
1e+07
1e+07
1e+07
1e+07
1e+07
1e+07
1e+07
1e+07
1e+07
1e+07
1e+07
1e+07
1e+07
1e+07
1e+07
1e+07
1e+07
1e+07
1e+07
1e+07
1e+07
1e+07
1e+07
1e+07
1e+07
1e+07
1e+07
1e+07
1e+07
1e+07
1e+07
1e+07
1e+07
1e+07
1e+07
1e+07
1e+07
1e+07
1e+07
1e+07
1e+07
1e+07
1e+07
1e+07
1e+07
1e+07
1e+07
1e+07
1e+07
1e+07
1e+07
1e+07
1e+07
1e+07
1e+07
1e+07
1e+07
1e+07
1e+07
1e+07
1e+07
1e+07
1e+07
1e+07
1e+07
1e+07
1e+07
1e+07
1e+07
1e+07
1e+07
1e+07
1e+07
1e+07
1e+07
1e+07
1e+07
1e+07
1e+07
1e+07
1e+07
1e+07
1e+07
1e+07
1e+07
1e+07
1e+07
1e+07
1e+07
1e+07
1e+07
1e+07
1e+07
1e+07
1e+07
1e+07
1e+07
1e+07
1e+07
1e+07
1e+07
1e+07
1e+07
1e+07
1e+07
1e+07
1e+07
1e+07
1e+07
1e+07
1e+07
1e+07
1e+07
1e+07
1e+07
1e+07
1e+07
1e+07
1e+07
1e+07
1e+07
1e+07
1e+07
1e+07
1e+07
1e+07
1e+07
1e+07
1e+07
1e+07
1e+07
1e+07
1e+07
1e+07
1e+07
1e+07
1e+07
1e+07
1e+07
1e+07
1e+07
1e+07
1e+07
1e+07
1e+07
1e+07
1e+07
1e+07
1e+07
1e+07
1e+07
1e+07
1e+07
1e+07
1e+07
1e+07
1e+07
1e+07
1e+07
1e+07
1e+07
1e+07
1e+07
1e+07
1e+07
1e+07
1e+07
1e+07
1e+07
1e+07
1e+07
1e+07
1e+07
1e+07
1e+07
1e+07
1e+07
1e+07
1e+07
1e+07
1e+07
1e+07
1e+07
1e+07
1e+07
1e+07
1e+07
1e+07
1e+07
1e+07
1e+07
1e+07
1e+07
1e+07
1e+07
1e+07
1e+07
1e+07
1e+07
1e+07
1e+07
1e+07
1e+07
1e+07
1e+07
1e+07
1e+07
1e+07
1e+07
1e+07
1e+07
1e+07
1e+07
1e+07
1e+07
1e+07
1e+07
1e+07
1e+07
1e+07
1e+07
1e+07
1e+07
1e+07
1e+07
1e+07
1e+07
1e+07
1e+07
1e+07
1e+07
1e+07
0.106954
0.100175
0.0968313
0.0950421
0.0949561
0.0864199
0.0790768
0.0748782
0.073432
0.0738213
0.0744414
0.0751978
0.0761762
0.0773686
0.0786685
0.0798804
0.0810174
0.0822134
0.0835612
0.0851016
0.0868502
0.0888093
0.0909749
0.0933387
0.0958899
0.0986163
0.101505
0.104545
0.107722
0.111025
0.114442
0.117962
0.121576
0.125274
1e+07
1e+07
1e+07
1e+07
1e+07
1e+07
1e+07
1e+07
1e+07
1e+07
0.105431
0.0980164
0.0929759
0.0900579
0.0882688
0.084575
0.077129
0.0715072
0.0680416
0.066659
0.067067
0.0677193
0.0685316
0.0695754
0.0708209
0.0721406
0.0733347
0.0744576
0.0756463
0.0769885
0.0785285
0.0802845
0.0822607
0.0844514
0.0868463
0.0894319
0.0921931
0.0951135
0.0981766
0.101365
0.104662
0.108051
0.111518
0.115049
0.118634
1e+07
1e+07
1e+07
1e+07
1e+07
1e+07
1e+07
1e+07
1e+07
0.106954
0.0988024
0.0926689
0.0886348
0.0862749
0.0838198
0.077888
0.0714954
0.0669243
0.0642599
0.0629547
0.0633742
0.0640478
0.0649025
0.0659681
0.0672021
0.0684776
0.0696387
0.0707259
0.0718448
0.0730994
0.0745558
0.0762424
0.0781639
0.0803129
0.0826756
0.085235
0.0879718
0.0908653
0.0938937
0.097035
0.100268
0.103571
0.106929
0.110328
0.11376
1e+07
1e+07
1e+07
1e+07
1e+07
1e+07
1e+07
1e+07
1e+07
0.107286
0.0991601
0.093045
0.0890167
0.0866676
0.0843231
0.0784292
0.072029
0.0674281
0.0647236
0.0634116
0.0637057
0.0642142
0.0648665
0.0657066
0.0666091
0.0674525
0.0683166
0.0692324
0.0701723
0.0712409
0.0725263
0.0740603
0.075845
0.0778698
0.0801179
0.0825692
0.0852012
0.087989
0.0909066
0.0939279
0.0970283
0.100187
0.103388
0.106622
0.109888
1e+07
1e+07
1e+07
1e+07
1e+07
1e+07
1e+07
1e+07
1e+07
0.107923
0.0998272
0.0937403
0.0897213
0.0873739
0.0851199
0.0793249
0.0729441
0.0683248
0.065553
0.0641782
0.0643427
0.0647557
0.0652046
0.0646023
0.0648027
0.0652305
0.0659122
0.0667426
0.0677138
0.0688558
0.0701912
0.0717349
0.0734943
0.0754694
0.0776533
0.0800326
0.0825891
0.0852997
0.0881384
0.0910784
0.0940939
0.0971641
0.100274
0.103417
0.106594
1e+07
1e+07
1e+07
1e+07
1e+07
1e+07
1e+07
1e+07
1e+07
0.108846
0.100784
0.0947332
0.0907257
0.0883709
0.0861765
0.0805375
0.0742046
0.069578
0.0667357
0.0652813
0.0652956
0.065037
0.0628133
0.0619263
0.0622294
0.06278
0.0635248
0.0643795
0.065358
0.0665153
0.0678696
0.0694245
0.0711828
0.0731458
0.0753099
0.0776658
0.0801987
0.0828879
0.0857087
0.0886336
0.0916363
0.0946942
0.0977914
0.10092
0.104081
1e+07
1e+07
1e+07
1e+07
1e+07
1e+07
1e+07
1e+07
1e+07
0.110037
0.102013
0.0960027
0.0920071
0.0896288
0.0874348
0.0820169
0.0757754
0.0711546
0.0682475
0.0666913
0.0660379
0.0625232
0.0604348
0.0596991
0.0601691
0.0609404
0.0619198
0.0629223
0.0638984
0.0650085
0.0663302
0.0678765
0.0696443
0.0716263
0.0738139
0.0761943
0.0787513
0.0814639
0.0843073
0.0872538
0.0902757
0.093349
0.0964557
0.0995869
0.102743
1e+07
1e+07
1e+07
1e+07
1e+07
1e+07
1e+07
1e+07
1e+07
0.111479
0.10337
0.0968501
0.0931007
0.0894593
0.0877827
0.0835898
0.0776006
0.0730197
0.0700347
0.0679347
0.0635693
0.0604989
0.0586641
0.0586954
0.0589668
0.0595355
0.0604261
0.0615384
0.0627812
0.0641462
0.0656448
0.0672916
0.0691022
0.0710889
0.0732568
0.0756037
0.0781209
0.0807939
0.0836035
0.0865275
0.0895413
0.0926221
0.09575
0.0989121
0.102102
1e+07
1e+07
1e+07
1e+07
1e+07
1e+07
1e+07
1e+07
1e+07
0.104457
0.0953316
0.0901872
0.0873704
0.0844699
0.0829013
0.0823991
0.0794168
0.0751018
0.071911
0.0668332
0.0617698
0.0587494
0.0571066
0.0575883
0.0580095
0.0585922
0.0593958
0.0604553
0.061705
0.0630792
0.0645755
0.0662265
0.0680598
0.070086
0.0723028
0.0747012
0.0772682
0.079989
0.0828469
0.0858247
0.0889028
0.0920617
0.0952822
0.0985478
0.101846
1e+07
1e+07
1e+07
1e+07
1e+07
1e+07
1e+07
1e+07
0.105103
0.0952706
0.0892233
0.0852839
0.0828291
0.080634
0.0788502
0.0788063
0.0788122
0.0767993
0.0698597
0.0636753
0.0595597
0.0565243
0.0549768
0.0557916
0.0568065
0.057842
0.0588494
0.0599723
0.0612287
0.062587
0.0640595
0.0656849
0.0674934
0.0694972
0.0716946
0.0740769
0.0766315
0.0793451
0.0822032
0.0851912
0.0882937
0.0914946
0.0947775
0.0981257
0.101524
1e+07
1e+07
1e+07
1e+07
1e+07
1e+07
1e+07
0.107255
0.0970019
0.0901779
0.0853654
0.0821021
0.0797347
0.0775982
0.0762938
0.0761125
0.0763618
0.0742607
0.0678156
0.061801
0.0574742
0.0549491
0.05419
0.0550264
0.056204
0.0572967
0.0581836
0.0590938
0.0602207
0.0615943
0.0631905
0.064979
0.0669373
0.0690538
0.0713238
0.0737451
0.0763153
0.0790304
0.0818844
0.0848694
0.0879757
0.0911918
0.0945051
0.0979011
0.101365
1e+07
1e+07
1e+07
1e+07
1e+07
1e+07
0.1136
0.101822
0.0943679
0.0882834
0.0835113
0.0802433
0.0778678
0.0757429
0.0746176
0.0741358
0.0744204
0.0732162
0.0670058
0.0611041
0.0570098
0.0547515
0.0539687
0.0544935
0.0554866
0.0566265
0.0577509
0.0588889
0.0601593
0.0616188
0.0632693
0.065097
0.0670861
0.0692269
0.0715131
0.073941
0.076508
0.0792103
0.0820434
0.0850018
0.0880787
0.0912672
0.0945587
0.0979443
0.101413
1e+07
1e+07
1e+07
1e+07
1e+07
1e+07
0.107712
0.0995695
0.0926913
0.0866844
0.0819765
0.0791516
0.0779022
0.0750802
0.0737393
0.0738451
0.0738662
0.0727643
0.0672575
0.0614152
0.0573227
0.0550496
0.0541204
0.0545279
0.0554659
0.0565863
0.0577575
0.0589881
0.0603407
0.0618534
0.063534
0.0653778
0.0673758
0.069518
0.0717961
0.0742034
0.0767359
0.0793904
0.0821648
0.085057
0.0880655
0.0911889
0.0944241
0.0977664
0.10121
1e+07
1e+07
1e+07
1e+07
1e+07
1e+07
0.106834
0.0986807
0.0906136
0.0849391
0.0814662
0.0792847
0.0778785
0.0750778
0.0736192
0.0739402
0.0740683
0.0729205
0.0678182
0.0621188
0.0580998
0.055796
0.0547411
0.05511
0.0559752
0.0570339
0.0581764
0.0594224
0.0608065
0.0623458
0.064043
0.0658939
0.0678911
0.0700254
0.0722892
0.0746766
0.0771847
0.0798133
0.0825623
0.0854317
0.0884207
0.091527
0.0947478
0.0980772
0.10151
1e+07
1e+07
1e+07
1e+07
1e+07
1e+07
0.106984
0.0966716
0.0898122
0.0850232
0.0816887
0.0794793
0.0779126
0.0752985
0.0736501
0.073986
0.0742405
0.0731307
0.0686759
0.0632131
0.059259
0.0569247
0.0557688
0.0560917
0.0568752
0.0578574
0.0589592
0.0601965
0.061584
0.0631275
0.0648252
0.0666715
0.0686586
0.0707779
0.0730226
0.0753882
0.0778732
0.080478
0.0832039
0.0860514
0.0890197
0.0921063
0.0953079
0.0986196
0.102036
1e+07
1e+07
1e+07
1e+07
1e+07
1e+07
0.107206
0.0971982
0.0903743
0.0855751
0.0821868
0.0798579
0.0780844
0.0757359
0.0740599
0.0739173
0.074103
0.0735952
0.0697968
0.0646531
0.0607666
0.0584079
0.0571765
0.0574451
0.0581496
0.059057
0.0601122
0.0613251
0.0626977
0.0642272
0.0659083
0.0677336
0.0696956
0.0717868
0.0740019
0.0763378
0.0787939
0.0813715
0.0840712
0.0868935
0.0898376
0.0929011
0.0960803
0.0993707
0.102767
1e+07
1e+07
1e+07
1e+07
1e+07
1e+07
0.107753
0.0980038
0.0912238
0.0863935
0.0829156
0.0804876
0.0786294
0.0764316
0.074676
0.0741561
0.0734948
0.0733444
0.0711015
0.0663819
0.0625848
0.0602148
0.0589308
0.0591375
0.0597696
0.060608
0.0616145
0.0627936
0.0641384
0.0656392
0.0672876
0.0690756
0.0709958
0.0730436
0.0752157
0.0775102
0.0799284
0.0824716
0.0851395
0.0879325
0.0908487
0.0938857
0.0970393
0.100305
0.103678
1e+07
1e+07
1e+07
1e+07
1e+07
0.117891
0.107699
0.0989834
0.0922801
0.087417
0.0838639
0.0813514
0.079423
0.0772954
0.0754533
0.0747133
0.0740635
0.0738923
0.0724813
0.0683334
0.0646681
0.0623081
0.0609939
0.0611332
0.0617005
0.0624767
0.0634341
0.0645725
0.065879
0.0673386
0.0689403
0.0706756
0.0725396
0.0745298
0.0766459
0.0788883
0.081259
0.0837593
0.086389
0.0891475
0.092032
0.095039
0.0981645
0.101403
0.104749
1e+07
1e+07
1e+07
1e+07
1e+07
0.112941
0.105019
0.0988507
0.0933754
0.0885959
0.0850194
0.0824491
0.0804578
0.0783519
0.0764593
0.0756033
0.0749841
0.0747939
0.0739091
0.0704445
0.0669682
0.0646477
0.0633268
0.0633968
0.0639071
0.0646265
0.0655335
0.0666253
0.0678847
0.0692926
0.0708359
0.0725067
0.0743029
0.0762249
0.0782757
0.0804578
0.0827741
0.0852253
0.0878112
0.0905296
0.093378
0.0963514
0.0994452
0.102654
0.105971
1e+07
1e+07
1e+07
1e+07
1e+07
0.112723
0.104629
0.0981853
0.0935533
0.0897533
0.0863338
0.0837648
0.0817171
0.0796297
0.0777267
0.0768072
0.0762178
0.0760121
0.0754381
0.0726695
0.0694406
0.0671941
0.065891
0.0658938
0.0663551
0.0670202
0.0678752
0.0689146
0.0701184
0.0714657
0.0729419
0.0745407
0.0762623
0.0781109
0.0800918
0.0822093
0.0844664
0.0868646
0.0894027
0.0920775
0.0948853
0.0978214
0.10088
0.104055
0.107341
1e+07
1e+07
1e+07
1e+07
1e+07
0.11291
0.104805
0.0982845
0.093491
0.0903728
0.0875696
0.085132
0.083145
0.0811229
0.079255
0.0782986
0.0777344
0.0775166
0.0771285
0.074987
0.0720493
0.0699116
0.0686508
0.0685935
0.0690109
0.0696225
0.0704222
0.0714033
0.0725447
0.0738244
0.0752286
0.0767521
0.0783975
0.080172
0.0820828
0.084135
0.0863325
0.0886759
0.0911634
0.0937915
0.0965562
0.0994518
0.102472
0.105611
0.108862
1e+07
1e+07
1e+07
1e+07
1e+07
0.113427
0.105262
0.0987133
0.0939306
0.0908832
0.0885471
0.0859963
0.0843311
0.0827704
0.0810206
0.0800501
0.0795065
0.0792804
0.0790119
0.0773961
0.0747707
0.0727707
0.0715744
0.0714671
0.0718439
0.0724004
0.0731402
0.0740572
0.0751308
0.0763396
0.0776705
0.0791191
0.0806914
0.0823952
0.0842387
0.0862286
0.0883676
0.0906563
0.0930924
0.0956728
0.0983922
0.101245
0.104224
0.107324
0.110536
1e+07
1e+07
1e+07
1e+07
1e+07
0.114222
0.105939
0.099385
0.094636
0.0915482
0.0846784
0.0653903
0.0650254
0.0658879
0.0672306
0.068977
0.0710731
0.0734744
0.0761308
0.0785597
0.0775918
0.0757495
0.0746347
0.0744883
0.0748263
0.0753243
0.0759991
0.0768475
0.0778499
0.0789871
0.0802464
0.0816256
0.0831304
0.0847696
0.0865517
0.0884831
0.0905664
0.0928021
0.0951878
0.0977195
0.100392
0.1032
0.106136
0.109193
0.112365
1e+07
1e+07
1e+07
1e+07
1e+07
0.115267
0.106827
0.100284
0.0955591
0.0848416
0.0638772
0.0576938
0.0536247
0.0543577
0.0556494
0.0574239
0.0596145
0.0621631
0.0650198
0.0681414
0.0714904
0.0749974
0.0771716
0.0776163
0.0779325
0.0783677
0.078973
0.0797502
0.0806814
0.0817491
0.0829423
0.0842587
0.0857038
0.0872857
0.089013
0.0908912
0.0929227
0.0951078
0.0974442
0.0999278
0.102553
0.105314
0.108205
0.111218
0.114348
1e+07
1e+07
1e+07
1e+07
1e+07
0.116537
0.107921
0.101392
0.0872569
0.0653905
0.0571463
0.0510598
0.0461621
0.0468151
0.0481308
0.0499881
0.0522965
0.0549828
0.057987
0.0612594
0.0647591
0.0684517
0.0723075
0.0762638
0.079577
0.0812371
0.0820129
0.0827454
0.083611
0.0846146
0.0857483
0.0870099
0.0884033
0.089936
0.091615
0.0934451
0.095429
0.0975663
0.0998551
0.102291
0.104869
0.107584
0.110428
0.113396
0.116481
1e+07
1e+07
1e+07
1e+07
1e+07
0.118005
0.109213
0.102688
0.0865798
0.0597029
0.0519768
0.0453638