<VTKFile type="ImageData" version="1.0" byte_order="LittleEndian" header_type="UInt64">
	<ImageData WholeExtent="0 44 0 44 0 44" Origin="-0.13467 -0.00697991 -0.101969" Spacing="0.0053577 0.0053577 0.0053577">
		<Piece Extent="0 44 0 44 0 44">
			<PointData Scalars="Scalars_">
				<DataArray type="Float32" Name="Scalars_" format="ascii" RangeMin="0" RangeMax="100">
0.124094
0.120901
0.117764
0.114677
0.111637
0.108645
0.105706
0.102831
0.100039
0.0973511
0.0947905
0.0923819
0.0901494
0.0881141
0.0862959
0.0847133
0.0833828
0.0823187
0.081536
0.0810553
0.0814237
0.0820133
0.0827588
0.0836346
0.0845923
0.0855436
0.0864171
0.0872597
0.0881499
0.089156
0.090323
0.0916732
0.0932138
0.0949423
0.096851
0.0989299
0.101166
0.103543
0.106045
0.108653
0.111347
0.114107
0.116919
0.119771
0.122655
0.122255
0.119018
0.115834
0.112701
0.109612
0.10657
0.103579
0.100651
0.0978033
0.095059
0.0924422
0.0899776
0.0876899
0.0856019
0.0837345
0.0821071
0.080738
0.0796428
0.0788381
0.0783456
0.0787211
0.0793218
0.0800779
0.0809594
0.0819106
0.0828437
0.0837037
0.0845482
0.0854494
0.0864704
0.0876554
0.0890268
0.0905904
0.0923438
0.0942783
0.0963846
0.0986488
0.101055
0.103585
0.106221
0.108942
0.11173
0.114568
0.117445
0.120356
0.120609
0.117331
0.114106
0.110928
0.107794
0.104705
0.101665
0.0986863
0.0957872
0.0929896
0.0903188
0.0878006
0.0854601
0.0833215
0.0814062
0.0797357
0.0783286
0.077203
0.0763767
0.0758729
0.0762545
0.0768661
0.0776301
0.0785064
0.0794351
0.0803341
0.0811727
0.0820168
0.0829267
0.0839602
0.0851609
0.0865501
0.0881336
0.0899081
0.0918656
0.0939955
0.0962842
0.0987155
0.101272
0.103934
0.106681
0.109495
0.112358
0.115261
0.118199
0.119169
0.115853
0.11259
0.109373
0.106198
0.103065
0.0999808
0.0969561
0.0940083
0.0911615
0.088441
0.0858727
0.0834829
0.0812963
0.0793359
0.0776239
0.0761805
0.075026
0.0741792
0.0736645
0.0740522
0.0746732
0.0754389
0.0762915
0.0771718
0.0780164
0.0788267
0.0796686
0.0805855
0.0816298
0.0828438
0.0842477
0.0858476
0.0876402
0.0896168
0.0917674
0.094077
0.0965309
0.0991107
0.101797
0.104569
0.107408
0.110297
0.113226
0.116191
0.117947
0.114599
0.111302
0.108049
0.104838
0.101668
0.0985435
0.0954771
0.0924869
0.0895964
0.0868308
0.084217
0.0817825
0.0795521
0.0775503
0.0758
0.0743236
0.0731419
0.0722761
0.0717515
0.0721449
0.0727736
0.0735273
0.0743203
0.0751142
0.0758823
0.0766612
0.0775015
0.0784253
0.079479
0.0807043
0.0821212
0.0837349
0.0855421
0.0875344
0.0897021
0.0920307
0.0945053
0.0971073
0.099817
0.102613
0.105477
0.108392
0.111348
0.11434
0.116956
0.113582
0.110256
0.106975
0.103733
0.10053
0.0973728
0.0942716
0.0912451
0.0883168
0.0855126
0.0828601
0.0803868
0.0781187
0.0760808
0.0742972
0.0727913
0.0715855
0.0707029
0.0701698
0.0705676
0.0712002
0.07191
0.0725731
0.073232
0.0739107
0.0746628
0.0755061
0.0764385
0.077503
0.0787402
0.0801695
0.0817951
0.0836144
0.0856207
0.0878037
0.0901497
0.0926437
0.095267
0.0979995
0.10082
0.10371
0.106652
0.109634
0.112653
0.116215
0.11282
0.109473
0.106169
0.102904
0.099677
0.0964929
0.0933645
0.0903095
0.0873517
0.0845172
0.0818339
0.0793299
0.0770316
0.0749647
0.0731542
0.0716245
0.0703992
0.0695025
0.0689628
0.0693641
0.0699886
0.0705634
0.0709773
0.0714697
0.0720706
0.0728128
0.0736673
0.0746142
0.075694
0.076946
0.0783888
0.0800273
0.0818593
0.0838786
0.0860762
0.0884397
0.0909531
0.0935979
0.0963538
0.0991996
0.102115
0.105083
0.108093
0.111139
0.115743
0.112343
0.108983
0.105664
0.102384
0.0991405
0.0959399
0.0927937
0.0897201
0.086743
0.0838887
0.0811856
0.078661
0.0763425
0.0742564
0.072428
0.0708821
0.0696436
0.0687376
0.0681933
0.0685972
0.0691476
0.0693319
0.0694005
0.0697725
0.0703402
0.0710947
0.0719723
0.0729428
0.0740455
0.0753183
0.0767789
0.0784325
0.0802791
0.0823135
0.0845274
0.0869086
0.0894419
0.0921087
0.0948884
0.097759
0.1007
0.103696
0.106733
0.109806
0.11546
0.112357
0.109223
0.106022
0.102765
0.0995329
0.0963424
0.0932062
0.0901418
0.087172
0.0843238
0.0816252
0.079104
0.0767875
0.0747018
0.0728724
0.0713248
0.0700841
0.0691764
0.0686318
0.068775
0.068379
0.0678841
0.0677894
0.0681446
0.068726
0.0695102
0.0704221
0.0714267
0.0725617
0.0738623
0.0753461
0.0770196
0.078884
0.0809356
0.0831674
0.0855677
0.0881209
0.0908093
0.093612
0.0965073
0.0994743
0.102497
0.105561
0.108661
0.114026
0.111153
0.108365
0.105631
0.102886
0.100034
0.0969976
0.0938857
0.0908356
0.0878798
0.0850443
0.0823571
0.0798454
0.0775362
0.0754554
0.0736272
0.0720745
0.0708112
0.0698083
0.0688216
0.0677855
0.0668501
0.066235
0.0662584
0.06665
0.0672656
0.0680842
0.0690362
0.070084
0.0712593
0.0725941
0.0741054
0.0758022
0.077687
0.0797581
0.0820084
0.0844271
0.0869997
0.0897079
0.0925316
0.0954498
0.0984415
0.101489
0.10458
0.107707
0.112298
0.10944
0.106706
0.104097
0.101608
0.0992121
0.0968504
0.0944015
0.0917101
0.0888387
0.086029
0.0833575
0.0808557
0.0785461
0.0764413
0.0745283
0.0727212
0.0708885
0.0691255
0.0675493
0.0662436
0.0652622
0.0646533
0.0648835
0.0653407
0.065994
0.0668417
0.0678346
0.0689324
0.0701549
0.0715287
0.0730706
0.0747923
0.0766981
0.0787874
0.0810547
0.0834892
0.0860775
0.0888022
0.0916438
0.094582
0.0975974
0.100671
0.10379
0.106944
0.110682
0.107803
0.105052
0.102437
0.0999625
0.0976297
0.0954321
0.0933465
0.091316
0.0892338
0.0869647
0.0844475
0.081851
0.0792646
0.0766773
0.0741577
0.0717837
0.0696181
0.0677037
0.0660744
0.0647599
0.0637891
0.0631969
0.0636382
0.0642098
0.0649119
0.0657801
0.0668071
0.0679585
0.0692354
0.0706524
0.0722267
0.0739728
0.0758982
0.0780035
0.0802839
0.08273
0.0853292
0.0880667
0.0909236
0.0938817
0.0969216
0.100025
0.103175
0.106362
0.109245
0.106344
0.103574
0.100939
0.0984475
0.0961026
0.0939021
0.0918334
0.0898597
0.0879026
0.0858339
0.0835269
0.0809596
0.0782384
0.0755131
0.0729012
0.0704767
0.0682843
0.0663573
0.064724
0.0634138
0.0624551
0.0618812
0.0624859
0.0632202
0.0640085
0.0648961
0.0659378
0.0671261
0.0684457
0.0698986
0.0715011
0.0732699
0.0752144
0.0773363
0.0796304
0.0820886
0.0846993
0.0874495
0.0903236
0.0933048
0.0963751
0.0995162
0.10271
0.105941
0.107998
0.105081
0.102294
0.0996442
0.0971383
0.0947807
0.0925706
0.0904975
0.0885299
0.0865981
0.0845776
0.0823329
0.0798159
0.0771186
0.0743938
0.0717707
0.0693316
0.067126
0.0651894
0.0635519
0.0622446
0.0612975
0.0607434
0.0614347
0.0623352
0.0632698
0.0642045
0.0652388
0.0664158
0.0677361
0.0692035
0.0708294
0.0726251
0.0745961
0.0767418
0.0790566
0.0815324
0.0841588
0.0869246
0.0898172
0.0928236
0.0959287
0.0991165
0.10237
0.105674
0.106948
0.104019
0.101222
0.0985623
0.0960483
0.0936837
0.0914685
0.0893943
0.087433
0.0855212
0.0835423
0.0813538
0.0788875
0.0762178
0.0734987
0.070869
0.0684193
0.0662039
0.0642605
0.0626222
0.0613217
0.060393
0.0598719
0.06059
0.0615974
0.0626605
0.0636559
0.0646715
0.0658197
0.0671412
0.0686389
0.0703077
0.0721448
0.0741485
0.0763177
0.0786474
0.0811325
0.0837654
0.0865366
0.0894369
0.0924549
0.095579
0.0987957
0.102091
0.105451
0.106097
0.103163
0.100361
0.0976991
0.0951838
0.0928193
0.0906054
0.088536
0.0865851
0.0846947
0.0827548
0.0806217
0.0782109
0.0755781
0.072875
0.0702488
0.0677985
0.0655833
0.0636433
0.0620144
0.0607333
0.0598415
0.0593906
0.0600509
0.0610621
0.0621542
0.0631707
0.0641704
0.0653071
0.0666464
0.0681904
0.0699206
0.0718185
0.0738722
0.0760759
0.078426
0.0809202
0.0835547
0.0863247
0.0892233
0.0922423
0.0953726
0.0986035
0.101923
0.10532
0.105445
0.10251
0.0997103
0.0970522
0.094543
0.0921866
0.0899842
0.0879289
0.0859971
0.0841355
0.0822396
0.0801652
0.0778151
0.0752311
0.0725596
0.0699543
0.067522
0.0653258
0.0634074
0.0618014
0.0605423
0.059665
0.0592073
0.0597072
0.0606393
0.0617445
0.0628662
0.0640019
0.0652472
0.0666621
0.068258
0.0700264
0.0719546
0.0740327
0.0762537
0.0786131
0.0811071
0.0837325
0.0864846
0.0893578
0.0923463
0.0954432
0.0986426
0.101937
0.105322
0.104963
0.102026
0.0992254
0.0965694
0.0940653
0.0917194
0.0895349
0.0875082
0.0856228
0.0838337
0.0820452
0.0801048
0.0778909
0.0754134
0.0727993
0.0702164
0.0677904
0.0655934
0.0636686
0.0620508
0.0607726
0.0598647
0.0593568
0.0597514
0.0606302
0.061712
0.0628671
0.0640828
0.0654065
0.0668767
0.0685063
0.0702945
0.0722339
0.0743163
0.0765335
0.0788793
0.0813491
0.0839389
0.086646
0.0894684
0.0924036
0.0954503
0.0986056
0.101866
0.105228
0.104408
0.101412
0.0985491
0.0958299
0.093266
0.0908691
0.0886493
0.0866164
0.084772
0.0831058
0.081572
0.0800357
0.0782209
0.0759046
0.0733618
0.0708157
0.0684113
0.0662294
0.0643142
0.0626993
0.0614153
0.0604896
0.0599465
0.0603066
0.0611256
0.0621521
0.0632765
0.0644991
0.0658488
0.0673444
0.068992
0.0707893
0.072731
0.0748088
0.0770157
0.0793453
0.081794
0.0843606
0.0870437
0.0898432
0.0927585
0.0957875
0.098928
0.102175
0.105526
0.103029
0.0998725
0.0968493
0.093975
0.0912637
0.0887323
0.0863973
0.0842767
0.0823876
0.0807476
0.0793693
0.0782524
0.0773348
0.0763163
0.0742055
0.071722
0.0693541
0.0671988
0.0653022
0.0636983
0.0624159
0.0614804
0.0609167
0.061237
0.0619876
0.0629461
0.0640291
0.0652393
0.0665906
0.0680907
0.0697405
0.0715359
0.0734704
0.0755366
0.0777275
0.0800383
0.0824663
0.0850107
0.0876721
0.0904506
0.0933456
0.0963558
0.0994781
0.102709
0.106043
0.1006
0.0972929
0.0941253
0.0911123
0.0882696
0.0856152
0.083168
0.080949
0.0789793
0.0772842
0.07589
0.0748291
0.0741493
0.0742986
0.0743113
0.072909
0.0705968
0.0684794
0.0666107
0.0650256
0.0637522
0.0628162
0.0622439
0.0625172
0.0632
0.0640908
0.065128
0.0663134
0.0676505
0.069139
0.0707758
0.0725544
0.0744687
0.0765113
0.0786765
0.0809607
0.0833624
0.0858812
0.0885181
0.0912727
0.0941449
0.097133
0.100234
0.103444
0.106759
0.097773
0.0943559
0.0910787
0.0879565
0.0850062
0.0822454
0.0796954
0.0773777
0.0753177
0.073542
0.0720818
0.0709739
0.0702712
0.0704995
0.0712494
0.0722238
0.0720146
0.0700447
0.0682146
0.0666566
0.0654004
0.0644719
0.0638994
0.0641198
0.0647386
0.0655659
0.0665562
0.0677093
0.069021
0.0704853
0.0720949
0.0738426
0.0757222
0.0777277
0.0798552
0.0821023
0.0844691
0.0869552
0.0895619
0.0922884
0.0951338
0.098097
0.101174
0.104361
0.107653
0.0949693
0.0914555
0.0880791
0.0848553
0.0818013
0.0789369
0.0762834
0.073865
0.0717083
0.0698435
0.0683045
0.0671327
0.0663871
0.0665684
0.0673712
0.0685954
0.070147
0.0713848
0.0700838
0.0685621
0.0673308
0.0664173
0.0658511
0.0660142
0.0665745
0.0673438
0.0682873
0.0694025
0.0706802
0.0721096
0.0736799
0.0753836
0.0772149
0.0791705
0.0812484
0.0834481
0.0857705
0.0882164
0.0907864
0.0934796
0.0962945
0.0992285
0.102278
0.105439
0.108706
0.092305
0.0886985
0.0852253
0.0819011
0.0787438
0.0757744
0.073015
0.0704919
0.0682339
0.066274
0.0646497
0.0634071
0.062612
0.0627172
0.0635493
0.0648316
0.0664967
0.06849
0.0705908
0.0707107
0.0695126
0.0686204
0.0680656
0.0681697
0.0686777
0.0693936
0.0702903
0.0713631
0.0725993
0.073984
0.0755049
0.0771533
0.0789258
0.0808211
0.0828399
0.084984
0.0872551
0.0896544
0.0921819
0.0948367
0.0976165
0.100518
0.103537
0.106669
0.109908
0.0898093
0.0861133
0.0825457
0.0791226
0.0758624
0.0727867
0.0699194
0.0672882
0.0649246
0.0628643
0.061149
0.0598296
0.058979
0.0589887
0.0598521
0.0611893
0.0629262
0.0650118
0.0674015
0.0699996
0.0717443
0.0710488
0.0705095
0.0705565
0.0710186
0.0716841
0.0725326
0.0735586
0.0747463
0.0760786
0.0775414
0.0791267
0.0808331
0.0826616
0.0846158
0.086699
0.0889145
0.0912627
0.0937436
0.0963559
0.0990967
0.101962
0.104947
0.108047
0.111256
0.0874939
0.0837137
0.0800555
0.0765363
0.0731747
0.0699933
0.0670171
0.0642756
0.0618027
0.0596375
0.0578255
0.0564228
0.055509
0.0554076
0.0563074
0.0577025
0.0595126
0.0616818
0.0641646
0.0669213
0.0698977
0.0726401
0.0731344
0.0731467
0.0735675
0.0741842
0.0749829
0.0759572
0.0770902
0.0783634
0.0797622
0.0812799
0.0829167
0.084676
0.0865638
0.0885848
0.0907423
0.0930374
0.0954695
0.0980369
0.100736
0.103562
0.106511
0.109575
0.112751
0.0853654
0.081508
0.0777657
0.0741557
0.0706969
0.0674122
0.0643284
0.0614762
0.0588919
0.0566179
0.0547039
0.053211
0.052224
0.052001
0.0529409
0.0543972
0.0562826
0.0585366
0.0611098
0.0639609
0.0670538
0.0703498
0.0736611
0.0755927
0.0762727
0.0768627
0.0776102
0.0785281
0.0796011
0.0808103
0.0821425
0.0835914
0.0851588
0.0868504
0.0886737
0.0906335
0.0927339
0.0949758
0.0973584
0.0998793
0.102534
0.105319
0.108228
0.111255
0.114395
0.0834243
0.0795006
0.0756844
0.0719923
0.0684439
0.065062
0.0618743
0.0589134
0.0562178
0.0538329
0.0518126
0.0502228
0.0491516
0.0488019
0.049784
0.0513026
0.053264
0.0556024
0.0582649
0.0612074
0.0643923
0.0677869
0.0713526
0.0749783
0.0780904
0.0795338
0.0803679
0.0812416
0.0822528
0.0833966
0.0846617
0.0860436
0.0875454
0.0891733
0.0909358
0.0928379
0.0948837
0.0970736
0.0994068
0.101881
0.104491
0.107233
0.1101
0.113087
0.116188
0.0816647
0.0776893
0.0738138
0.0700536
0.0664275
0.0629591
0.059676
0.0566125
0.0538089
0.0513137
0.0491848
0.0474923
0.0463268
0.0458498
0.0468737
0.0484536
0.0504886
0.0529085
0.0556569
0.0586869
0.0619591
0.0654394
0.0690886
0.0728169
0.0764245
0.0796237
0.0822676
0.0838429
0.0849732
0.0860908
0.0873005
0.0886219
0.0900643
0.091635
0.0933419
0.0951909
0.0971852
0.0993257
0.101611
0.104038
0.106603
0.109301
0.112125
0.11507
0.11813
0.0800713
0.0760631
0.0721473
0.0683385
0.0646539
0.0611158
0.0577524
0.0545981
0.0516952
0.0490949
0.0468586
0.0450607
0.0437939
0.0431932
0.0442554
0.0458912
0.0479941
0.0504891
0.0533166
0.0564274
0.0597803
0.0633397
0.0670632
0.0708463
0.0744601
0.0776052
0.0801894
0.0824508
0.0846805
0.0870336
0.0892994
0.0910606
0.0926239
0.0942002
0.0958752
0.097682
0.0996307
0.101725
0.103964
0.106346
0.108866
0.111519
0.1143
0.117201
0.120219
0.0786233
0.0746008
0.0706679
0.0668352
0.0631182
0.0595366
0.0561168
0.0528927
0.0499075
0.0472145
0.0448784
0.0429778
0.041608
0.0408911
0.0419827
0.0436638
0.0458234
0.0483827
0.0512791
0.0544609
0.0578855
0.0615154
0.0653046
0.0691305
0.0727343
0.0758104
0.0783214
0.0805546
0.0827965
0.0851847
0.0877624
0.0905326
0.0934674
0.0960858
0.0982315
0.100195
0.102173
0.10425
0.106455
0.108796
0.111273
0.113881
0.116618
0.119475
0.12245
0.0773036
0.0732804
0.0693493
0.065519
0.061801
0.058211
0.0547711
0.0515119
0.0484747
0.0457134
0.0432954
0.0413035
0.0398372
0.039016
0.0401201
0.041828
0.0440268
0.0466346
0.0495857
0.0528259
0.0563103
0.0599999
0.0638439
0.0676987
0.0712731
0.0742635
0.076697
0.078903
0.0811565
0.0835758
0.0861933
0.0890075
0.0920064
0.095175
0.0984864
0.101638
0.104304
0.106682
0.108988
0.111344
0.1138
0.116375
0.119071
0.121886
0.124816
0.0761151
0.0720937
0.068173
0.0643617
0.0606698
0.0571092
0.0536959
0.0504535
0.0474154
0.0446313
0.0421677
0.0401107
0.0385655
0.0376576
0.0387439
0.0404501
0.0426637
0.0452993
0.0482874
0.0515702
0.0551003
0.0588362
0.0627218
0.0665885
0.0701096
0.0729936
0.0753416
0.0775182
0.0797805
0.0822268
0.0848789
0.0877309
0.0907685
0.0939767
0.0973396
0.100842
0.104457
0.107923
0.110969
0.113704
0.116317
0.118937
0.121628
0.124416
0.127309
0.0750864
0.0710593
0.0671429
0.063349
0.05969
0.0561797
0.0528334
0.0496691
0.04671
0.0439894
0.0415577
0.0394913
0.0379017
0.0369302
0.0379459
0.0396115
0.0418115
0.0444523
0.0474576
0.0507648
0.0543234
0.0580893
0.0619994
0.0658559
0.0692909
0.0720368
0.0742833
0.0764233
0.0786888
0.0811557
0.0838355
0.0867181
0.0897878
0.0930276
0.0964216
0.0999552
0.103615
0.107388
0.111239
0.114913
0.118229
0.121251
0.124129
0.126985
0.129886
0.0742644
0.0702204
0.0662932
0.0624973
0.058849
0.0553673
0.0520734
0.0489921
0.0461528
0.0435919
0.0413573
0.0395161
0.0381635
0.0374281
0.0383294
0.0399038
0.0420315
0.0446146
0.047573
0.0508421
0.0543692
0.058107
0.0619772
0.0657247
0.0689451
0.071454
0.0735554
0.0756435
0.0779022
0.0803812
0.0830801
0.0859849
0.0890775
0.0923402
0.0957568
0.0993126
0.102995
0.106791
0.110689
0.114677
0.118691
0.122514
0.126029
0.129276
0.132376
0.0737223
0.0696593
0.0657141
0.0619023
0.0582416
0.0547527
0.051459
0.0483881
0.0455717
0.0430479
0.0408633
0.0390781
0.0377749
0.0370757
0.0383006
0.0401255
0.0424202
0.0451074
0.0481271
0.0514287
0.0549695
0.0587057
0.0625427
0.0661397
0.0690416
0.0712305
0.0731654
0.0751951
0.0774409
0.0799235
0.0826322
0.0855491
0.0886547
0.0919308
0.0953609
0.0989298
0.102624
0.106432
0.110343
0.114347
0.118435
0.122587
0.126708
0.13064
0.1343
0.0742994
0.0702502
0.0663167
0.062514
0.0588593
0.0553725
0.0520771
0.0490012
0.0461795
0.0436552
0.0414843
0.0397408
0.0385281
0.0380367
0.0392582
0.0410921
0.0434032
0.0461041
0.0491297
0.0524287
0.0559588
0.0596744
0.0634631
0.0669498
0.0696993
0.0717776
0.0736596
0.0756655
0.0778975
0.0803695
0.0830682
0.0859757
0.0890722
0.0923391
0.09576
0.09932
0.103005
0.106805
0.110706
0.114702
0.118782
0.122935
0.127142
0.13135
0.135463
0.075252
0.0712341
0.0673327
0.0635623
0.0599405
0.0564873
0.053227
0.050189
0.0474093
0.044933
0.0428178
0.0411391
0.0400035
0.039657
0.0408483
0.0426475
0.0449236
0.047589
0.0505782
0.0538394
0.05733
0.0610021
0.0647283
0.0681123
0.0707344
0.0727162
0.0745451
0.076519
0.0787262
0.0811757
0.0838526
0.0867385
0.0898134
0.0930594
0.0964601
0.1
0.103666
0.107447
0.111331
0.115309
0.119372
0.123513
0.12772
0.131978
0.136249
0.0765456
0.072575
0.068723
0.0650048
0.0614374
0.0580419
0.0548428
0.0518698
0.0491596
0.0467571
0.0447188
0.0431172
0.0420549
0.0418203
0.0429659
0.0447063
0.0469181
0.0495179
0.0524414
0.0556382
0.0590656
0.0626741
0.0663245
0.0696071
0.0721146
0.07401
0.0757864
0.077723
0.0798975
0.0823145
0.0849597
0.0878139
0.0908576
0.0940729
0.0974434
0.100954
0.104592
0.108345
0.112203
0.116156
0.120195
0.124313
0.128501
0.132752
0.137049
0.0781525
0.0742427
0.0704546
0.0668035
0.0633071
0.0599864
0.0568662
0.053976
0.0513521
0.049038
0.0470873
0.0455681
0.0445752
0.0444309
0.0455234
0.0471923
0.0493237
0.0518394
0.0546786
0.0577923
0.061139
0.0646677
0.0682307
0.0714105
0.0738111
0.0756274
0.0773519
0.0792475
0.0813827
0.0837605
0.0863664
0.0891807
0.0921848
0.0953611
0.0986935
0.102167
0.105769
0.109487
0.113312
0.117232
0.12124
0.125329
0.12949
0.133717
0.138001
0.0800476
0.076209
0.0724958
0.0689234
0.0655099
0.0622759
0.0592461
0.0564497
0.0539215
0.0517031
0.0498445
0.048408
0.0474799
0.0474104
0.0484474
0.0500394
0.0520824
0.054504
0.0572474
0.0602662
0.0635199
0.0669575
0.070424
0.0734971
0.0757957
0.0775389
0.0792126
0.0810644
0.083156
0.0854892
0.0880497
0.0908181
0.0937761
0.0969068
0.100195
0.103624
0.107184
0.110861
0.114645
0.118527
0.122498
0.126551
0.130679
0.134874
0.139131
0.0822073
0.0784477
0.0748176
0.0713323
0.0680094
0.0648696
0.0619373
0.0592405
0.0568127
0.0546926
0.0529263
0.0515701
0.050702
0.0506948
0.051677
0.0531913
0.0551431
0.0574662
0.0601081
0.063025
0.0661783
0.0695168
0.0728794
0.0758429
0.0780427
0.079717
0.0813411
0.0831471
0.0851924
0.0874774
0.0899879
0.0927057
0.0956126
0.0986927
0.10193
0.105311
0.108822
0.112453
0.116192
0.12003
0.123959
0.127972
0.13206
0.136219
0.140441
0.0846091
0.0809344
0.077393
0.0739997
0.0707726
0.0677316
0.0649001
0.0623055
0.0599789
0.0579564
0.0562802
0.0550008
0.0541878
0.0542322
0.0551621
0.0566006
0.0584618
0.0606858
0.063224
0.066036
0.0690849
0.0723197
0.0755735
0.0784247
0.0805281
0.0821366
0.0837119
0.0854717
0.0874689
0.0897032
0.0921607
0.0948244
0.0976768
0.100702
0.103885
0.107212
0.110671
0.11425
0.117939
0.12173
0.125613
0.12958
0.133626
0.137743
0.141926
0.0872318
0.0836459
0.0801967
0.0768989
0.0737699
0.0708297
0.0681003
0.0656074
0.0633806
0.0614532
0.0598633
0.0586562
0.0578938
0.0579805
0.0588618
0.0602279
0.0620013
0.0641278
0.066563
0.0692696
0.0722127
0.0753414
0.0784839
0.0812208
0.0832289
0.0847745
0.0863021
0.0880156
0.0899638
0.092146
0.0945488
0.0971559
0.099951
0.102919
0.106044
0.109314
0.112717
0.116242
0.119878
0.123616
0.127449
0.131368
0.135367
0.139438
0.143578
0.0900559
0.0865612
0.0832063
0.0800054
0.0769756
0.0741359
0.0715075
0.0691148
0.0669849
0.0651485
0.0636403
0.0625007
0.0617848
0.0619056
0.0627425
0.0640402
0.0657298
0.0677621
0.0700968
0.0726995
0.0755374
0.0785597
0.0815896
0.0842109
0.0861255
0.0876102
0.0890913
0.0907588
0.0926577
0.0947871
0.0971341
0.0996836
0.10242
0.105327
0.108393
0.111604
0.114949
0.118416
0.121996
0.12568
0.129459
0.133327
0.137275
0.141299
0.145392
0.120371
0.117152
0.113996
0.110895
0.107843
0.104837
0.101877
0.0989721
0.0961381
0.0933969
0.0907745
0.0882983
0.0859957
0.0838917
0.082009
0.0803683
0.0789877
0.0778836
0.0770712
0.0765718
0.0769513
0.0775578
0.07832
0.0792167
0.0801951
0.0811562
0.082022
0.0828573
0.0837502
0.0847721
0.085968
0.0873585
0.0889487
0.0907342
0.0927058
0.0948498
0.0971521
0.0995937
0.102155
0.104815
0.107551
0.110344
0.113177
0.116041
0.118936
0.118479
0.115214
0.112009
0.108858
0.105754
0.102694
0.0996788
0.0967162
0.0938225
0.0910201
0.0883357
0.0857975
0.0834336
0.0812707
0.0793327
0.0776413
0.0762169
0.0750772
0.07424
0.0737272
0.0741143
0.0747333
0.0755085
0.0764149
0.0773926
0.078341
0.0791983
0.0800402
0.0809475
0.0819871
0.0832038
0.0846187
0.0862353
0.0880494
0.09005
0.092225
0.0945585
0.0970315
0.0996237
0.102314
0.105079
0.107899
0.110759
0.113651
0.116573
0.116785
0.113476
0.110226
0.107029
0.103876
0.100766
0.0976981
0.0946808
0.0917308
0.0888702
0.0861263
0.0835285
0.0811059
0.0788856
0.0768933
0.0751526
0.0736848
0.0725104
0.0716481
0.0711225
0.0715168
0.0721476
0.0729334
0.0738403
0.0748024
0.0757228
0.0765642
0.0774104
0.0783293
0.0793838
0.0806185
0.082054
0.0836934
0.0855317
0.087558
0.08976
0.0921208
0.0946216
0.097242
0.0999598
0.102752
0.105599
0.108486
0.111405
0.114355
0.115301
0.111952
0.108662
0.105421
0.102225
0.0990685
0.0959525
0.0928852
0.0898823
0.0869675
0.0841683
0.0815147
0.0790363
0.0767618
0.074718
0.0729296
0.0714201
0.0702117
0.0693257
0.0687877
0.0691888
0.0698306
0.070622
0.071513
0.0724351
0.0733072
0.0741257
0.0749738
0.0759018
0.0769684
0.078218
0.0796704
0.0813284
0.0831869
0.0852346
0.0874593
0.0898436
0.0923692
0.0950153
0.0977591
0.100577
0.103451
0.106364
0.109311
0.112289
0.114041
0.110657
0.10733
0.104052
0.100817
0.0976193
0.0944604
0.0913482
0.0882984
0.085335
0.0824857
0.0797813
0.0772523
0.074928
0.0728363
0.0710038
0.0694555
0.0682154
0.0673068
0.0667574
0.0671649
0.0678164
0.0686019
0.0694446
0.0702894
0.07109
0.0718815
0.0727309
0.0736664
0.0747429
0.0760046
0.0774709
0.0791438
0.081018
0.0830831
0.0853266
0.0877316
0.0902796
0.0929494
0.0957181
0.0985623
0.101462
0.104403
0.107377
0.110383
0.113018
0.109606
0.106248
0.102939
0.0996711
0.0964388
0.0932438
0.0900929
0.0870034
0.0839984
0.081106
0.0783576
0.0757844
0.0734166
0.0712832
0.0694118
0.0678286
0.06656
0.0656315
0.0650722
0.0654846
0.0661429
0.0668972
0.067627
0.068342
0.0690527
0.06982
0.0706734
0.0716169
0.072703
0.0739761
0.0754544
0.0771394
0.0790263
0.0811058
0.0833654
0.0857891
0.0883582
0.091051
0.0938444
0.0967147
0.0996416
0.10261
0.105612
0.108648
0.112253
0.108818
0.105438
0.102104
0.0988101
0.0955513
0.0923277
0.0891473
0.0860262
0.0829882
0.0800617
0.0772785
0.07467
0.0722672
0.0701
0.0681968
0.0665856
0.0652934
0.0643482
0.0637809
0.0641976
0.0648559
0.065504
0.0659982
0.0665374
0.0671629
0.0679199
0.0687845
0.0697404
0.07084
0.0721264
0.0736169
0.0753136
0.0772123
0.0793053
0.0815801
0.0840221
0.0866122
0.0893282
0.0921469
0.0950438
0.0979986
0.100996
0.104027
0.107091
0.111765
0.108325
0.104929
0.10158
0.0982696
0.0949931
0.0917509
0.0885511
0.0854097
0.0823501
0.0794017
0.0765953
0.0739633
0.0715372
0.0693471
0.0674225
0.065792
0.064484
0.0635272
0.0629547
0.0633742
0.0639949
0.0643009
0.0644161
0.064807
0.0653889
0.0661587
0.0670459
0.0680232
0.0691439
0.0704495
0.0719561
0.0736668
0.0755793
0.0776869
0.0799785
0.0824394
0.085051
0.0877908
0.0906351
0.0935593
0.0965425
0.0995685
0.102628
0.105721
0.111481
0.108326
0.105157
0.101936
0.0986594
0.0953953
0.0921656
0.0889772
0.0858463
0.0827958
0.0798547
0.0770543
0.0744264
0.0720026
0.0698131
0.0678872
0.0662546
0.0649437
0.0639846
0.0634116
0.063646
0.0633929
0.0629126
0.0627794
0.0631364
0.0637288
0.0645308
0.065453
0.0664638
0.0676162
0.0689488
0.0704774
0.0722068
0.0741366
0.0762616
0.0785717
0.0810532
0.0836865
0.0864501
0.0893195
0.0922712
0.0952827
0.0983373
0.101426
0.104547
0.110001
0.107059
0.104213
0.101436
0.0986753
0.0958404
0.092831
0.0896808
0.0865666
0.0835319
0.0806054
0.0778183
0.0752017
0.0727871
0.0706043
0.0686812
0.067046
0.0657214
0.0647089
0.0638465
0.0628668
0.0618958
0.0612409
0.0612032
0.0615928
0.0622212
0.0630612
0.0640269
0.0650821
0.0662752
0.0676415
0.0691975
0.0709498
0.0729002
0.0750451
0.077375
0.0798761
0.0825304
0.085316
0.0882093
0.091186
0.0942247
0.0973078
0.100425
0.103574
0.108215
0.105281
0.102474
0.099797
0.0972476
0.0948108
0.0924391
0.09003
0.0874156
0.0845226
0.0816319
0.0788648
0.0762635
0.0738565
0.071665
0.0696945
0.0679037
0.0661216
0.0643362
0.0626954
0.0613161
0.0602721
0.0596212
0.0598002
0.060246
0.0609102
0.0617824
0.0627946
0.0639035
0.0651447
0.0665497
0.0681357
0.0699128
0.0718844
0.074048
0.0763954
0.0789132
0.0815843
0.0843884
0.0873018
0.090302
0.0933672
0.0964789
0.0996253
0.102802
0.106548
0.103589
0.100761
0.0980697
0.0955236
0.0931261
0.0908766
0.0887604
0.0867348
0.0847039
0.0825118
0.0800301
0.0774053
0.0748262
0.0722346
0.06966
0.0671963
0.0649278
0.0629103
0.0611865
0.0597911
0.058758
0.0581262
0.0585469
0.0590975
0.0597996
0.0606903
0.0617443
0.0629163
0.0642165
0.0656655
0.067283
0.0690837
0.0710741
0.073253
0.0756131
0.0781422
0.0808248
0.0836423
0.0865736
0.0895969
0.0926906
0.0958347
0.0990155
0.102225
0.105065
0.102082
0.0992296
0.0965167
0.0939497
0.0915357
0.0892771
0.0871679
0.0851856
0.0832698
0.0813015
0.0791195
0.0766316
0.0739068
0.0711122
0.0683974
0.0658589
0.063553
0.0615186
0.0597893
0.0583981
0.0573785
0.0567676
0.0573894
0.0581095
0.0588824
0.0597797
0.0608516
0.0620736
0.0634261
0.0649138
0.0665591
0.0683814
0.0703896
0.0725836
0.074956
0.077496
0.08019
0.0830214
0.0859728
0.0890237
0.0921539
0.0953423
0.0985704
0.101827
0.103776
0.100774
0.0979036
0.0951726
0.0925889
0.0901597
0.0878873
0.0857693
0.0837859
0.0818858
0.079959
0.0778439
0.075422
0.0727357
0.0699483
0.067223
0.0646682
0.0623469
0.0603006
0.0585652
0.0571756
0.0561674
0.0555777
0.056311
0.0572274
0.0581513
0.0590791
0.0601347
0.0613461
0.0627018
0.0642063
0.0658768
0.0677272
0.069763
0.0719815
0.074375
0.076933
0.0796432
0.0824925
0.0854664
0.0885493
0.0917239
0.0949712
0.0982736
0.101614
0.102689
0.0996735
0.0967906
0.0940483
0.0914542
0.0890157
0.0867359
0.0846127
0.0826297
0.0807417
0.0788481
0.0767903
0.0744312
0.0717862
0.0690112
0.06628
0.0637126
0.0613787
0.059323
0.057584
0.0561996
0.0552095
0.0546554
0.055429
0.0564844
0.057556
0.0585356
0.0595567
0.0607342
0.0620963
0.0636391
0.0653572
0.0672497
0.0693163
0.0715551
0.0739606
0.0765256
0.0792412
0.0820961
0.0850793
0.0881782
0.0913789
0.0946656
0.0980227
0.101433
0.101807
0.0987848
0.095896
0.0931495
0.0905531
0.088113
0.0858333
0.083712
0.0817347
0.0798602
0.0779975
0.0759934
0.0736992
0.0711042
0.0683533
0.0656277
0.0630591
0.0607237
0.0586701
0.0569394
0.0555747
0.0546253
0.0541552
0.0548654
0.0559393
0.0570469
0.0580405
0.0590308
0.0601936
0.0615819
0.0631845
0.0649759
0.0669358
0.0690529
0.0713231
0.0737441
0.0763134
0.0790269
0.0818782
0.0848595
0.087961
0.0911717
0.0944796
0.0978711
0.101331
0.101131
0.0981085
0.0952215
0.0924789
0.0898882
0.0874561
0.0851864
0.0830771
0.0811147
0.0792609
0.0774324
0.0754833
0.0732581
0.0707247
0.0680147
0.0653145
0.0627659
0.0604511
0.0584209
0.0567164
0.0553777
0.0544464
0.0539687
0.0544925
0.0554844
0.0566239
0.057749
0.0588878
0.0601587
0.0616181
0.0632688
0.0650963
0.0670856
0.0692265
0.0715124
0.0739396
0.0765041
0.0792027
0.0820296
0.0849793
0.0880445
0.0912187
0.0944945
0.0978654
0.101323
0.10066
0.0976412
0.0947605
0.0920272
0.0894497
0.0870342
0.0847852
0.0827021
0.0807724
0.0789637
0.0772021
0.0753575
0.0732755
0.070877
0.0682482
0.0655807
0.0630424
0.0607286
0.058693
0.0569768
0.0556183
0.0546546
0.0541204
0.0545279
0.0554659
0.0565863
0.0577575
0.0589879
0.0603405
0.0618531
0.0635337
0.0653776
0.0673756
0.0695178
0.0717956
0.0742029
0.0767354
0.0793895
0.0821635
0.0850558
0.0880648
0.0911882
0.0944236
0.0977661
0.101209
0.100334
0.0973
0.0944023
0.091651
0.0890565
0.0866281
0.0843757
0.0823045
0.0804122
0.0786842
0.077072
0.0754553
0.0736065
0.0713509
0.0688181
0.0662002
0.0636894
0.0613953
0.0593726
0.057662
0.0562995
0.0553168
0.0547411
0.05511
0.0559752
0.0570339
0.0581764
0.0594223
0.0608063
0.0623457
0.064043
0.0658938
0.067891
0.0700253
0.0722889
0.0746762
0.0771844
0.0798129
0.0825618
0.0854312
0.0884203
0.0915268
0.0947469
0.0980765
0.101509
0.0996143
0.0964469
0.0934097
0.0905164
0.0877817
0.0852217
0.0828535
0.0806941
0.0787594
0.0770629
0.0756122
0.0743915
0.0732997
0.0719669
0.0696708
0.067138
0.0646735
0.0624126
0.060414
0.0587182
0.0573594
0.0563673
0.0557688
0.0560917
0.0568752
0.0578574
0.0589592
0.0601964
0.0615839
0.0631273
0.0648252
0.0666713
0.0686584
0.0707778
0.0730225
0.075388
0.0778731
0.0804779
0.0832038
0.0860511
0.0890192
0.0921059
0.0953076
0.0986194
0.102035
0.0976758
0.0943234
0.091107
0.0880415
0.0851447
0.0824348
0.0799322
0.0776583
0.0756367
0.0738919
0.0724515
0.0713473
0.0706268
0.0706932
0.0702985
0.0683606
0.0659688
0.0637558
0.0617922
0.0601204
0.0587742
0.0577832
0.0571761
0.0574449
0.0581496
0.059057
0.0601121
0.0613251
0.0626977
0.0642272
0.0659082
0.0677334
0.0696955
0.0717867
0.0740016
0.0763374
0.0787935
0.0813711
0.0840711
0.0868933
0.0898374
0.0929009
0.0960801
0.0993705
0.102766
0.09496
0.0914753
0.088129
0.0849363
0.0819146
0.0790837
0.0764652
0.0740821
0.0719611
0.0701315
0.0686252
0.0674814
0.0667557
0.0670437
0.0678078
0.0685721
0.067534
0.0653925
0.0634772
0.0618393
0.0605151
0.0595348
0.0589292
0.0591372
0.0597693
0.0606078
0.0616144
0.0627935
0.0641381
0.065639
0.0672874
0.0690753
0.0709956
0.0730433
0.0752153
0.0775101
0.0799281
0.082471
0.085139
0.0879319
0.0908482
0.0938855
0.0970393
0.100305
0.103677
0.092141
0.08855
0.0850946
0.0817905
0.0786561
0.0757118
0.07298
0.0704864
0.0682596
0.0663318
0.0647392
0.0635261
0.062755
0.0630211
0.0638791
0.065163
0.0667244
0.067217
0.0654326
0.0638401
0.0625474
0.0615864
0.0609896
0.0611328
0.0617003
0.0624766
0.0634339
0.0645722
0.0658785
0.0673385
0.0689401