<VTKFile type="ImageData" version="1.0" byte_order="LittleEndian" header_type="UInt64">
	<ImageData WholeExtent="0 73 0 85 0 77" Origin="-426.824 -548.445 -403.403" Spacing="12.5321 12.4786 12.6154">
		<Piece Extent="0 73 0 85 0 77">
			<PointData Scalars="Scalars_">
				<DataArray type="Float32" Name="Scalars_" format="ascii" RangeMin="0" RangeMax="100">
748.174
741.075
734.11
727.283
720.596
714.055
707.663
701.423
695.34
689.418
683.661
678.073
672.659
667.422
662.368
657.499
652.822
648.339
644.056
639.977
636.106
632.447
629.006
625.786
622.791
620.027
617.497
615.206
613.159
611.361
609.818
608.536
607.526
606.801
606.343
606.05
606.069
606.072
606.059
606.011
606.508
607.314
608.405
609.772
611.405
613.299
615.448
617.847
620.489
623.372
626.488
629.834
633.405
637.195
641.2
645.415
649.834
654.454
659.269
664.274
669.465
674.837
680.386
686.106
691.993
698.043
704.252
710.614
717.127
723.785
730.585
737.523
744.595
751.798
741.397
734.233
727.202
720.309
713.556
706.949
700.49
694.184
688.035
682.047
676.224
670.57
665.091
659.789
654.67
649.738
644.998
640.453
636.109
631.969
628.039
624.323
620.825
617.549
614.501
611.685
609.105
606.766
604.672
602.829
601.242
599.918
598.866
598.095
597.583
597.256
597.268
597.27
597.263
597.224
597.731
598.553
599.665
601.057
602.719
604.646
606.831
609.269
611.954
614.881
618.046
621.442
625.066
628.911
632.973
637.246
641.726
646.407
651.285
656.354
661.61
667.048
672.663
678.45
684.405
690.523
696.799
703.23
709.811
716.538
723.406
730.412
737.551
744.821
734.728
727.497
720.4
713.44
706.62
699.945
693.419
687.045
680.829
674.773
668.883
663.162
657.616
652.248
647.063
642.066
637.261
632.652
628.245
624.043
620.052
616.275
612.719
609.386
606.282
603.412
600.779
598.389
596.247
594.357
592.724
591.356
590.259
589.441
588.879
588.52
588.526
588.527
588.525
588.494
589.012
589.849
590.982
592.399
594.091
596.051
598.272
600.75
603.478
606.452
609.665
613.113
616.79
620.691
624.81
629.143
633.684
638.427
643.369
648.503
653.825
659.329
665.011
670.867
676.89
683.076
689.422
695.921
702.571
709.367
716.304
723.378
730.586
737.923
728.163
720.866
713.701
706.673
699.785
693.042
686.447
680.005
673.719
667.595
661.636
655.847
650.233
644.797
639.544
634.48
629.608
624.934
620.461
616.196
612.141
608.303
604.686
601.294
598.133
595.206
592.519
590.077
587.883
585.944
584.264
582.85
581.707
580.842
580.232
579.844
579.845
579.845
579.847
579.824
580.352
581.205
582.359
583.801
585.522
587.516
589.774
592.293
595.065
598.085
601.348
604.847
608.579
612.536
616.714
621.107
625.709
630.516
635.522
640.722
646.111
651.682
657.432
663.356
669.448
675.704
682.119
688.688
695.408
702.272
709.279
716.422
723.698
731.104
721.7
714.335
707.102
700.005
693.049
686.236
679.572
673.06
666.704
660.51
654.481
648.622
642.938
637.433
632.111
626.978
622.038
617.296
612.757
608.426
604.307
600.405
596.725
593.273
590.052
587.067
584.324
581.827
579.582
577.592
575.863
574.402
573.212
572.3
571.645
571.231
571.228
571.228
571.233
571.216
571.755
572.624
573.799
575.266
577.017
579.044
581.34
583.9
586.716
589.783
593.096
596.648
600.434
604.449
608.686
613.14
617.805
622.676
627.747
633.013
638.469
644.108
649.927
655.92
662.081
668.407
674.892
681.531
688.32
695.255
702.331
709.543
716.889
724.363
715.337
707.903
700.601
693.435
686.408
679.525
672.79
666.207
659.781
653.516
647.415
641.485
635.73
630.154
624.761
619.558
614.549
609.738
605.13
600.732
596.546
592.579
588.836
585.321
582.039
578.995
576.195
573.643
571.343
569.302
567.524
566.015
564.779
563.82
563.125
562.687
562.681
562.681
562.688
562.677
563.225
564.11
565.306
566.799
568.58
570.641
572.975
575.576
578.436
581.551
584.914
588.52
592.361
596.433
600.73
605.245
609.973
614.909
620.046
625.379
630.902
636.61
642.498
648.56
654.792
661.188
667.743
674.452
681.312
688.316
695.462
702.744
710.158
717.701
709.069
701.566
694.194
686.958
679.861
672.906
666.1
659.445
652.947
646.609
640.436
634.434
628.606
622.958
617.494
612.219
607.139
602.257
597.581
593.113
588.86
584.827
581.018
577.44
574.096
570.992
568.134
565.525
563.172
561.079
559.251
557.694
556.413
555.41
554.678
554.217
554.209
554.209
554.218
554.211
554.769
555.67
556.887
558.406
560.217
562.312
564.684
567.326
570.232
573.395
576.808
580.467
584.365
588.495
592.851
597.428
602.22
607.22
612.423
617.823
623.415
629.192
635.149
641.281
647.583
654.049
660.675
667.455
674.385
681.459
688.675
696.026
703.51
711.121
702.894
695.321
687.879
680.572
673.403
666.377
659.498
652.771
646.199
639.789
633.543
627.467
621.566
615.844
610.308
604.96
599.808
594.856
590.108
585.571
581.25
577.149
573.275
569.632
566.226
563.061
560.144
557.479
555.072
552.927
551.05
549.446
548.121
547.077
546.31
545.829
545.82
545.82
545.83
545.827
546.395
547.312
548.55
550.094
551.936
554.065
556.475
559.159
562.109
565.32
568.785
572.498
576.451
580.64
585.057
589.696
594.551
599.617
604.886
610.354
616.013
621.859
627.886
634.088
640.46
646.997
653.693
660.543
667.543
674.688
681.973
689.394
696.946
704.626
696.808
689.166
681.653
674.274
667.034
659.935
652.984
646.183
639.538
633.053
626.734
620.584
614.609
608.814
603.203
597.783
592.558
587.534
582.716
578.109
573.718
569.55
565.61
561.902
558.433
555.208
552.232
549.511
547.05
544.854
542.929
541.28
539.911
538.829
538.031
537.532
537.522
537.522
537.532
537.532
538.111
539.043
540.302
541.873
543.744
545.908
548.356
551.081
554.077
557.337
560.853
564.62
568.63
572.877
577.354
582.056
586.975
592.106
597.442
602.977
608.704
614.62
620.716
626.988
633.43
640.037
646.804
653.724
660.794
668.009
675.364
682.854
690.474
698.222
690.811
683.098
675.515
668.064
660.751
653.58
646.556
639.682
632.963
626.404
620.01
613.786
607.737
601.868
596.184
590.69
585.393
580.296
575.407
570.729
566.27
562.034
558.028
554.256
550.724
547.439
544.405
541.628
539.114
536.869
534.896
533.203
531.795
530.676
529.85
529.335
529.324
529.324
529.335
529.337
529.926
530.874
532.154
533.75
535.652
537.85
540.337
543.104
546.146
549.454
553.021
556.842
560.908
565.214
569.752
574.516
579.5
584.696
590.098
595.701
601.497
607.481
613.647
619.988
626.501
633.178
640.014
647.005
654.145
661.429
668.852
676.411
684.1
691.915
684.901
677.118
669.464
661.942
654.557
647.314
640.216
633.268
626.475
619.843
613.375
607.076
600.953
595.01
589.252
583.686
578.315
573.147
568.187
563.44
558.912
554.609
550.537
546.701
543.108
539.763
536.672
533.841
531.275
528.981
526.963
525.228
523.782
522.63
521.779
521.248
521.237
521.237
521.248
521.252
521.851
522.815
524.116
525.738
527.67
529.903
532.428
535.237
538.324
541.681
545.3
549.175
553.298
557.663
562.262
567.088
572.135
577.397
582.865
588.535
594.399
600.452
606.687
613.098
619.68
626.427
633.333
640.393
647.602
654.956
662.448
670.074
677.831
685.712
679.081
671.228
663.503
655.91
648.453
641.137
633.967
626.946
620.08
613.374
606.832
600.46
594.263
588.246
582.415
576.776
571.334
566.094
561.064
556.247
551.652
547.282
543.145
539.247
535.593
532.19
529.043
526.159
523.543
521.202
519.14
517.366
515.884
514.701
513.827
513.283
513.271
513.271
513.283
513.288
513.896
514.877
516.199
517.847
519.809
522.076
524.64
527.492
530.625
534.03
537.701
541.63
545.81
550.233
554.893
559.781
564.892
570.219
575.754
581.49
587.423
593.544
599.847
606.328
612.979
619.795
626.77
633.899
641.177
648.598
656.158
663.852
671.675
679.623
673.352
665.43
657.635
649.972
642.444
635.057
627.814
620.721
613.782
607.003
600.388
593.943
587.673
581.584
575.681
569.97
564.456
559.146
554.046
549.162
544.5
540.065
535.865
531.905
528.192
524.731
521.53
518.594
515.93
513.543
511.441
509.628
508.113
506.903
506.007
505.451
505.438
505.438
505.45
505.457
506.075
507.071
508.414
510.088
512.081
514.383
516.985
519.88
523.058
526.512
530.235
534.218
538.454
542.936
547.656
552.607
557.782
563.173
568.774
574.578
580.577
586.766
593.138
599.687
606.406
613.291
620.335
627.532
634.878
642.367
649.993
657.754
665.643
673.656
667.721
659.731
651.867
644.134
636.537
629.079
621.765
614.6
607.59
600.739
594.052
587.535
581.193
575.032
569.058
563.276
557.693
552.314
547.146
542.195
537.467
532.968
528.706
524.686
520.915
517.399
514.145
511.16
508.449
506.019
503.876
502.028
500.482
499.246
498.331
497.763
497.749
497.749
497.762
497.77
498.398
499.41
500.774
502.474
504.498
506.835
509.476
512.412
515.636
519.139
522.914
526.951
531.244
535.784
540.565
545.578
550.816
556.271
561.937
567.807
573.874
580.13
586.569
593.186
599.974
606.926
614.037
621.302
628.715
636.27
643.963
651.789
659.743
667.82
662.195
654.138
646.207
638.406
630.739
623.212
615.828
608.593
601.513
594.591
587.833
581.246
574.833
568.602
562.558
556.707
551.056
545.609
540.374
535.358
530.566
526.005
521.682
517.604
513.776
510.207
506.902
503.868
501.112
498.641
496.46
494.579
493.003
491.743
490.81
490.231
490.217
490.217
490.23
490.239
490.878
491.905
493.291
495.017
497.071
499.443
502.123
505.102
508.371
511.923
515.749
519.84
524.19
528.788
533.629
538.703
544.004
549.524
555.255
561.191
567.323
573.646
580.153
586.836
593.691
600.71
607.888
615.219
622.698
630.319
638.077
645.967
653.985
662.125
656.784
648.661
640.663
632.795
625.061
617.466
610.014
602.711
595.561
588.57
581.744
575.087
568.606
562.306
556.194
550.275
544.556
539.044
533.744
528.663
523.809
519.187
514.806
510.67
506.788
503.167
499.812
496.732
493.933
491.422
489.206
487.292
485.689
484.406
483.457
482.868
482.852
482.852
482.867
482.877
483.526
484.569
485.976
487.729
489.813
492.22
494.939
497.96
501.275
504.876
508.753
512.898
517.304
521.96
526.861
531.996
537.36
542.943
548.738
554.739
560.937
567.326
573.898
580.648
587.569
594.654
601.898
609.294
616.838
624.523
632.345
640.298
648.379
656.581
651.497
643.31
635.248
627.315
619.515
611.853
604.335
596.964
589.747
582.689
575.795
569.071
562.522
556.155
549.977
543.992
538.208
532.631
527.267
522.125
517.21
512.529
508.09
503.899
499.964
496.292
492.89
489.765
486.925
484.375
482.125
480.181
478.552
477.248
476.283
475.685
475.666
475.666
475.683
475.696
476.355
477.414
478.843
480.621
482.737
485.178
487.936
490.999
494.36
498.009
501.937
506.136
510.597
515.312
520.271
525.468
530.893
536.539
542.398
548.463
554.726
561.179
567.817
574.632
581.618
588.768
596.076
603.536
611.143
618.892
626.776
634.791
642.933
651.195
646.347
638.098
629.972
621.975
614.111
606.385
598.802
591.366
584.083
576.959
570
563.21
556.596
550.164
543.92
537.871
532.023
526.383
520.958
515.755
510.781
506.043
501.548
497.304
493.318
489.597
486.149
482.98
480.1
477.514
475.231
473.258
471.605
470.281
469.302
468.694
468.672
468.672
468.692
468.708
469.376
470.452
471.902
473.707
475.853
478.329
481.125
484.231
487.637
491.335
495.314
499.566
504.082
508.854
513.872
519.128
524.615
530.323
536.245
542.373
548.699
555.217
561.919
568.797
575.847
583.06
590.432
597.955
605.624
613.434
621.38
629.455
637.656
645.978
641.345
633.035
624.848
616.79
608.863
601.074
593.428
585.929
578.582
571.394
564.371
557.517
550.839
544.343
538.037
531.925
526.015
520.315
514.83
509.568
504.536
499.742
495.194
490.897
486.861
483.093
479.6
476.391
473.471
470.851
468.536
466.536
464.859
463.517
462.523
461.907
461.881
461.881
461.905
461.924
462.603
463.695
465.166
466.997
469.174
471.685
474.519
477.667
481.119
484.864
488.894
493.199
497.77
502.598
507.674
512.99
518.536
524.305
530.289
536.479
542.868
549.449
556.213
563.154
570.266
577.542
584.975
592.559
600.289
608.159
616.164
624.298
632.557
640.936
636.502
628.134
619.888
611.769
603.782
595.933
588.225
580.664
573.256
566.006
558.92
552.004
545.265
538.707
532.339
526.167
520.197
514.437
508.894
503.575
498.488
493.64
489.039
484.692
480.608
476.794
473.258
470.008
467.051
464.397
462.052
460.026
458.327
456.967
455.96
455.335
455.304
455.304
455.332
455.356
456.046
457.154
458.646
460.504
462.711
465.257
468.13
471.319
474.815
478.608
482.688
487.045
491.67
496.554
501.688
507.062
512.667
518.497
524.541
530.792
537.242
543.884
550.71
557.712
564.885
572.221
579.714
587.357
595.146
603.075
611.137
619.329
627.644
636.078
631.831
623.405
615.102
606.925
598.88
590.971
583.204
575.584
568.116
560.806
553.66
546.684
539.884
533.267
526.84
520.609
514.581
508.763
503.164
497.789
492.648
487.747
483.095
478.7
474.569
470.711
467.133
463.844
460.852
458.165
455.791
453.74
452.02
450.642
449.622
448.99
448.951
448.951
448.986
449.017
449.717
450.842
452.355
454.239
456.477
459.057
461.968
465.199
468.739
472.579
476.708
481.117
485.795
490.734
495.923
501.355
507.019
512.907
519.01
525.321
531.831
538.532
545.417
552.479
559.711
567.105
574.657
582.358
590.204
598.189
606.307
614.553
622.923
631.41
627.34
618.86
610.502
602.269
594.168
586.202
578.378
570.7
563.174
555.806
548.602
541.568
534.71
528.035
521.55
515.262
509.177
503.304
497.65
492.222
487.028
482.077
477.376
472.933
468.757
464.855
461.238
457.911
454.884
452.166
449.765
447.689
445.948
444.554
443.522
442.882
442.833
442.833
442.877
442.917
443.628
444.769
446.304
448.214
450.482
453.096
456.045
459.317
462.901
466.787
470.965
475.424
480.155
485.147
490.392
495.879
501.6
507.545
513.706
520.075
526.643
533.402
540.345
547.464
554.753
562.204
569.812
577.569
585.469
593.509
601.68
609.979
618.401
626.94
623.041
614.509
606.097
597.81
589.655
581.634
573.755
566.021
558.44
551.016
543.756
536.666
529.752
523.021
516.481
510.137
503.998
498.072
492.364
486.884
481.64
476.639
471.891
467.402
463.182
459.24
455.583
452.22
449.16
446.412
443.983
441.884
440.124
438.714
437.67
437.021
436.96
436.96
437.015
437.067
437.789
438.947
440.504
442.44
444.738
447.386
450.372
453.684
457.312
461.244
465.469
469.978
474.76
479.805
485.103
490.645
496.42
502.421
508.638
515.063
521.687
528.502
535.501
542.675
550.019
557.525
565.186
572.996
580.95
589.041
597.263
605.613
614.084
622.672
618.942
610.359
601.896
593.558
585.351
577.278
569.345
561.559
553.924
546.446
539.132
531.988
525.02
518.236
511.642
505.246
499.054
493.075
487.317
481.787
476.494
471.446
466.651
462.119
457.857
453.874
450.18
446.782
443.69
440.912
438.458
436.336
434.556
433.13
432.074
431.416
431.339
431.339
431.408
431.477
432.211
433.386
434.966
436.927
439.256
441.938
444.961
448.313
451.982
455.959
460.231
464.788
469.62
474.716
480.066
485.66
491.49
497.544
503.815
510.294
516.971
523.84
530.892
538.12
545.516
553.074
560.786
568.648
576.651
584.792
593.063
601.461
609.979
618.614
615.051
606.42
597.909
589.522
581.264
573.141
565.158
557.321
549.634
542.105
534.74
527.544
520.525
513.689
507.044
500.596
494.355
488.326
482.519
476.941
471.601
466.507
461.668
457.093
452.79
448.769
445.038
441.606
438.483
435.677
433.197
431.053
429.254
427.812
426.743
426.075
425.976
425.976
426.065
426.156
426.904
428.098
429.699
431.687
434.046
436.761
439.821
443.212
446.923
450.943
455.261
459.865
464.745
469.89
475.291
480.936
486.816
492.923
499.245
505.775
512.505
519.425
526.528
533.806
541.252
548.859
556.62
564.529
572.58
580.767
589.085
597.527
606.09
614.769
611.376
602.699
594.141
585.707
577.403
569.232
561.201
553.315
545.58
538.002
530.587
523.342
516.274
509.389
502.695
496.199
489.909
483.833
477.978
472.354
466.969
461.832
456.95
452.334
447.992
443.933
440.167
436.703
433.549
430.715
428.21
426.043
424.224
422.766
421.682
421.002
420.875
420.875
420.989
421.111
421.875
423.089
424.714
426.729
429.118
431.866
434.962
438.391
442.143
446.206
450.568
455.218
460.144
465.337
470.786
476.48
482.41
488.565
494.937
501.516
508.294
515.262
522.413
529.739
537.232
544.885
552.692
560.646
568.742
576.973
585.333
593.818
602.423
611.142
607.922
599.202
590.601
582.123
573.774
565.558
557.482
549.55
541.769
534.144
526.683
519.391
512.276
505.344
498.604
492.062
485.726
479.604
473.705
468.037
462.609
457.429
452.507
447.851
443.471
439.376
435.576
432.079
428.895
426.032
423.502
421.312
419.472
417.995
416.894
416.197
416.034
416.034
416.181
416.346
417.13
418.366
420.016
422.06
424.48
427.262
430.393
433.861
437.653
441.757
446.162
450.855
455.827
461.066
466.56
472.301
478.277
484.479
490.897
497.522
504.346
511.36
518.556
525.926
533.463
541.159
549.009
557.005
565.142
573.413
581.814
590.338
598.981
607.738
604.696
595.936
587.294
578.775
570.384
562.126
554.007
546.032
538.207
530.539
523.034
515.698
508.539
501.564
494.779
488.193
481.813
475.649
469.707
463.997
458.527
453.307
448.346
443.652
439.235
435.104
431.27
427.74
424.525
421.634
419.076
416.86
414.997
413.497
412.374
411.655
411.444
411.444
411.633
411.857
412.668
413.931
415.61
417.684
420.137
422.954
426.121
429.627
433.458
437.603
442.05
446.786
451.801
457.083
462.621
468.406
474.426
480.671
487.133
493.802
500.668
507.724
514.962
522.373
529.95
537.686
545.575
553.61
561.784
570.093
578.53
587.09
595.768
604.56
601.703
592.906
584.226
575.668
567.238
558.941
550.782
542.768
534.903
527.194
519.648
512.271
505.07
498.053
491.227
484.6
478.18
471.974
465.992
460.242
454.733
449.474
444.474
439.742
435.289
431.123
427.253
423.69
420.442
417.52
414.931
412.685
410.792
409.263
408.11
407.358
407.086
407.086
407.33
407.633
408.483
409.78
411.493
413.602
416.091
418.944
422.15
425.694
429.565
433.75
438.237
443.015
448.071
453.395
458.975
464.801
470.862
477.148
483.65
490.359
497.265
504.36
511.635
519.084
526.698
534.47
542.395
550.464
558.673
567.015
575.485
584.078
592.788
601.611
598.948
590.117
581.402
572.809
564.344
556.01
547.815
539.763
531.861
524.114
516.53
509.115
501.876
494.821
487.956
481.29
474.831
468.587
462.566
456.778
451.23
445.933
440.896
436.127
431.636
427.433
423.526
419.926
416.641
413.681
411.055
408.771
406.84
405.27
404.075
403.275
402.928
402.928
403.24
403.647
404.552
405.896
407.654
409.805
412.335
415.229
418.476
422.061
425.973
430.198
434.726
439.544
444.641
450.005
455.624
461.489
467.589
473.913
480.453
487.198
494.14
501.27
508.58
516.062
523.709
531.514
539.47
547.571
555.81
564.182
572.681
581.303
590.041
598.892
596.436
587.573
578.827
570.203
561.705
553.338
545.11
537.024
529.088
521.307
513.688
506.238
498.963
491.872
484.971
478.269
471.773
465.492
459.434
453.609
448.024
442.689
437.612
432.804
428.274
424.03
420.081
416.438
413.108
410.101
407.426
405.091
403.106
401.479
400.224
399.358
398.921
398.921
399.313
399.851
400.836
402.246
404.062
406.267
408.848
411.791
415.084
418.715
422.671
426.941
431.511
436.37
441.507
446.91
452.568
458.47
464.606
470.966
477.54
484.318
491.293
498.455
505.796
513.308
520.985
528.818
536.802
544.93
553.196
561.594
570.119
578.766
587.529
596.404
594.171
585.28
576.506
567.853
559.326
550.93
542.672
534.556
526.588
518.776
511.126
503.643
496.336
489.212
482.277
475.541
469.01
462.694
456.6
450.736
445.113
439.738
434.62
429.769
425.193
420.9
416.9
413.202
409.814
406.744
404.002
401.597
399.537
397.832
396.496
395.545
395.01
395.01
395.488
396.177
397.27
398.769
400.664
402.94
405.587
408.592
411.943
415.628
419.636
423.954
428.571
433.475
438.654
444.097
449.794
455.733
461.905
468.299
474.905
481.715
488.719
495.91
503.279
510.818
518.521
526.38
534.388
542.54
550.829
559.25
567.797
576.466
585.25
594.146
592.155
583.241
574.443
565.765
557.212
548.791
540.505
532.362
524.368
516.527
508.848
501.336
493.999
486.844
479.877
473.108
466.543
460.191
454.06
448.157
442.492
437.073
431.907
427.004
422.371
418.017
413.95
410.178
406.711
403.556
400.724
398.223
396.065
394.261
392.825
391.777
391.148
391.148
391.707
392.548
393.77
395.382
397.377
399.747
402.479
405.562
408.987
412.741
416.812
421.19
425.863
430.818
436.046
441.535
447.274
453.253
459.462
465.891
472.53
479.371
486.404
493.622
501.017
508.582
516.308
524.19
532.22
540.393
548.702
557.143
565.709
574.396
583.199
592.112
590.394
581.459
572.64
563.941
555.367
546.923
538.614
530.448
522.429
514.563
506.858
499.319
491.953
484.769
477.771
470.969
464.369
457.979
451.806
445.859
440.145
434.671
429.445
424.475
419.768
415.332
411.175
407.306
403.734
400.469
397.522
394.904
392.63
390.714
389.172
388.029
387.321
387.321
387.945
388.917
390.268
392.001
394.11
396.587
399.421
402.602
406.117
409.957
414.109
418.562
423.304
428.325
433.613
439.158
444.949
450.975
457.228
463.697
470.373
477.248
484.314
491.562
498.984
506.574
514.324
522.228
530.279
538.472
546.801
555.26
563.843
572.547
581.365
590.294
588.887
579.937
571.101
562.384
553.791
545.329
537.001
528.813
520.773
512.884
505.155
497.59
490.197
482.982
475.952
469.114
462.474
456.04
449.818
443.815
438.038
432.493
427.187
422.128
417.323
412.779
408.507
404.516
400.817
397.423
394.347
391.605
389.213
387.189
385.553
384.331
383.566
383.566
384.232
385.296
386.75
388.589
390.805
393.388
396.326
399.61
403.226
407.162
411.408
415.951
420.779
425.881
431.245
436.862
442.719
448.807
455.117
461.638
468.363
475.282
482.388
489.672
497.128
504.749
512.528
520.458
528.533
536.748
545.097
553.575
562.176
570.896
579.73
588.674
587.635
578.673
569.824
561.093
552.486
544.007
535.662
527.457
519.396
511.486
503.732
496.141
488.718
481.47
474.402
467.52
460.831
454.339
448.052
441.975
436.114
430.475
425.065
419.892
414.964
410.292
405.886
401.76
397.928
394.405
391.207
388.352
385.859
383.746
382.037
380.759
379.959
379.959
380.645
381.759
383.279
385.192
387.487
390.154
393.18
396.553
400.261
404.291
408.63
413.265
418.185
423.377
428.829
434.53
440.469
446.634
453.017
459.607
466.396
473.375
480.536
487.871
495.374
503.037
510.855
518.82
526.928
535.172
543.547
552.049
560.672
569.411
578.262
587.221
586.632
577.661
568.803
560.061
551.442
542.95
534.589
526.366
518.285
510.351
502.57
494.947
487.487
480.196
473.077
466.137
459.381
452.813
446.439
440.264
434.295
428.54
423.006
417.703
412.643
407.838
403.302
399.051
395.1
391.467
388.17
385.227
382.657
380.481
378.722
377.407
376.585
376.585
377.276
378.41
379.961
381.915
384.259
386.98
390.066
393.504
397.282
401.385
405.801
410.517
415.519
420.795
426.332
432.118
438.142
444.391
450.856
457.526
464.392
471.444
478.675
486.076
493.64
501.36
509.23
517.244
525.396
533.68
542.091
550.625
559.276
568.041
576.914
585.892
585.853
576.878
568.013
559.263
550.633
542.127
533.749
525.505
517.398
509.433
501.615
493.949
486.437
479.086
471.899
464.881
458.036
451.371
444.89
438.602
432.515
426.637
420.979
415.554
410.374
405.455
400.812
396.46
392.419
388.704
385.335
382.329
379.707
377.488
375.695
374.357
373.522
373.522
374.207
375.341
376.902
378.872
381.239
383.99
387.113
390.593
394.417
398.573
403.045
407.821
412.888
418.231
423.839
429.698
435.796
442.122
448.663
455.411
462.353
469.481
476.785
484.258
491.89
499.676
507.607
515.678
523.883
532.216
540.672
549.246
557.934
566.73
575.632
584.634
585.23
576.253
567.383
558.624
549.98
541.455
533.054
524.779
516.636
508.629
500.76
493.034
485.456
478.03
470.76
463.652
456.712
449.946
443.361
436.967
430.773
424.791
419.032
413.51
408.239
403.235
398.513
394.091
389.985
386.213
382.794
379.746
377.087
374.839
373.024
371.67
370.825
370.825
371.494
372.618
374.174
376.147
378.523
381.289
384.431
387.937
391.792
395.982
400.494
405.314
410.428
415.822
421.483
427.398
433.556
439.943
446.547
453.359
460.366
467.559
474.929
482.466
490.162
498.009
506
514.128
522.386
530.769
539.272
547.889
556.615
565.447
574.38
583.41
584.631
575.649
566.771
557.999
549.338
540.79
532.36
524.052
515.868
507.813
499.892
492.107
484.465
476.969
469.625
462.44
455.42
448.573
441.907
435.432
429.16
423.101
417.27
411.679
406.344
401.28
396.504
392.032
387.882
384.07
380.616
377.537
374.853
372.583
370.751
369.386
368.534
368.534
369.179
370.283
371.825
373.79
376.165
378.936
382.089
385.61
389.484
393.699
398.238
403.088
408.236
413.667
419.368
425.326
431.528
437.961
444.614
451.475
458.533
465.778
473.199
480.788
488.535
496.433
504.474
512.649
520.954
529.381
537.925
546.581
555.344
564.208
573.171
582.228
584.02
575.032
566.144
557.361
548.684
540.118
531.665
523.329
515.115
507.024
499.063
491.235
483.545
475.998
468.601
461.36
454.282
447.377
440.653
434.121
427.793
421.681
415.798
410.158
404.778
399.671
394.856
390.349
386.166
382.326
378.846
375.745
373.042
370.756
368.912
367.537
366.679
366.679
367.287
368.361
369.881
371.831
374.198
376.966
380.122
383.65
387.536
391.766
396.324
401.196
406.368
411.827
417.557
423.546
429.78
436.248
442.937
449.835
456.932
464.215
471.676
479.305
487.092
495.029
503.108
511.322
519.664
528.126
536.704
545.392
554.184
563.077
572.065
581.145
583.519
574.526
565.631
556.839
548.151
539.571
531.102
522.746
514.509
506.393
498.403
490.543
482.819
475.236
467.8
460.519
453.401
446.455
439.69
433.118
426.751
420.6
414.682
409.008
403.596
398.461
393.618
389.086
384.881
381.02
377.522
374.405
371.688
369.392
367.538
366.156
365.295
365.295
365.845
366.875
368.363
370.29
372.642
375.402
378.554
382.084
385.975
390.214
394.784
399.671
404.86
410.337
416.089
422.1
428.359
434.853
441.568
448.494
455.619
462.932
470.422
478.081
485.898
493.864
501.973
510.215
518.584
527.074
535.677
544.389
553.204
562.117
571.124
580.222
583.184
574.188
565.291
556.494
547.8
539.212
530.733
522.366
514.116
505.984
497.977
490.098
482.352
474.747
467.288
459.982
452.839
445.868
439.079
432.483
426.092
419.919
413.979
408.286
402.855
397.702
392.843
388.296
384.077
380.204
376.695
373.569
370.843
368.54
366.68
365.295
364.43
364.43
364.879
365.845
367.289
369.186
371.517
374.263
377.407
380.933
384.825
389.067
393.644
398.539
403.74
409.229
414.995
421.022
427.298
433.809
440.543
447.488
454.633
461.966
469.477
477.156
484.993
492.98
501.108
509.37
517.758
526.265
534.885
543.612
552.441
561.367
570.386
579.494
583.344
574.354
565.46
556.667
547.977
539.391
530.915
522.549
514.299
506.167
498.157
490.275
482.526
474.915
467.448
460.135
452.983
446.001
439.201
432.593
426.19
420.006
414.054
408.349
402.906
397.743
392.875
388.32
384.095
380.216
376.703
373.573
370.846
368.541
366.681
365.295
364.43
364.43
364.43
365.295
366.681
368.541
370.847
373.576
376.71
380.23
384.119
388.361
392.94
397.84
403.045
408.542
414.315
420.351
426.636
433.157
439.902
446.858
454.014
461.358
468.881
476.571
484.42
492.418
500.556
508.828
517.224
525.739
534.366
543.099
551.933
560.863
569.885
578.994
583.427
574.44
565.549
556.758
548.069
539.485
531.009
522.643
514.392
506.258
498.246
490.36
482.606
474.99
467.518
460.198
453.04
446.051
439.244
432.63
426.221
420.031
414.073
408.364
402.918
397.752
392.882
388.324
384.097
380.218
376.704
373.574
370.846
368.541
366.681
365.295
364.43
364.43
364.43
365.295
366.681
368.541
370.847
373.576
376.71
380.23
384.119
388.361
392.94
397.839
403.044
408.54
414.312
420.347
426.63
433.149
439.89
446.842
453.993
461.332
468.847
476.529
484.368
492.355
500.482
508.741
517.124
525.625
534.237
542.956
551.775
560.691
569.698
578.794
583.857
574.882
566.004
557.227
548.551
539.981
531.519
523.167
514.929
506.809
498.811
490.94
483.2
475.597
468.139
460.833
453.688
446.713
439.919
433.317
426.921
420.743
414.798
409.1
403.666
398.511
393.651
389.104
384.887
381.016
377.511
374.388
371.668
369.368
367.513
366.131
365.269
365.269
365.269
366.131
367.513
369.369
371.668
374.391
377.517
381.029
384.909
389.142
393.71
398.599
403.794
409.278
415.039
421.063
427.334
433.841
440.57
447.51
454.648
461.974
469.477
477.146
484.972
492.946
501.059
509.304
517.674
526.161
534.76
543.464
552.27
561.171
570.164
579.246
584.453
575.505
566.655
557.905
549.257
540.714
532.279
523.954
515.744
507.651
499.68
491.835
484.121
476.544
469.111
461.83
454.709
447.757
440.986
434.406
428.031
421.874
415.949
410.271
404.855
399.717
394.875
390.344
386.142
382.286
378.794
375.683
372.973
370.683
368.836
367.459
366.601
366.601
366.609
367.468
368.844
370.692
372.983
375.695
378.809
382.307
386.174
390.391
394.944
399.817
404.994
410.461
416.204
422.209
428.462
434.949
441.659
448.579
455.698
463.003
470.485
478.134
485.939
493.892
501.984
510.208
518.556
527.022
535.599
544.282
553.066
561.946
570.918
579.979
584.845
575.961
567.175
558.488
549.905
541.426
533.054
524.791
516.642
508.608
500.694
492.904
485.243
477.717
470.333
463.097
456.019
449.109
442.376
435.833
429.492
423.367
417.472
411.822
406.433
401.321
396.502
391.993
387.812
383.975
380.501
377.406
374.711
372.433
370.595
369.226
368.373
368.372
368.4
369.254
370.623
372.462
374.741
377.439
380.538
384.019
387.867
392.065
396.597
401.448
406.602
412.046
417.765
423.745
429.972
436.434
443.118
450.011
457.102
464.38
471.834
479.454
487.23
495.154
503.218
511.412
519.731
528.167
536.715
545.369
554.125
562.976
571.921
580.954
585.185
576.353
567.625
559.003
550.488
542.083
533.789
525.607
517.541
509.591
501.762
494.056
486.477
479.031
471.722
464.56
457.55
450.704
444.031
437.544
431.254
425.177
419.325
413.716
408.364
403.286
398.499
394.02
389.866
386.053
382.601
379.526
376.848
374.585
372.759
371.4
370.552
370.547
370.607
371.457
372.819
374.647
376.912
379.594
382.674
386.135
389.96
394.134
398.64
403.464
408.59
414.005
419.693
425.641
431.836
438.265
444.914
451.772
458.827
466.068
473.485
481.066
488.804
496.689
504.712
512.867
521.145
529.542
538.05
546.664
555.381
564.195
573.102
582.099
585.769
576.969
568.277
559.696
551.229
542.878
534.645
526.532
518.539
510.67
502.926
495.309
487.823
480.469
473.255
466.184
459.263
452.502
445.911
439.499
433.28
427.267
421.476
415.921
410.619
405.586
400.84
396.398
392.277
388.495
385.069
382.018
379.36
377.115
375.303
373.954
373.113
373.101
373.203
374.051
375.406
377.221
379.471
382.135
385.193
388.63
392.429
396.574
401.049
405.84
410.932
416.31
421.96
427.869
434.022
440.407
447.012
453.823
460.83
468.022
475.387
482.916
490.599
498.428
506.395
514.492
522.713
531.051
539.501
548.058
556.717
565.476
574.329
583.274
586.605
577.831
569.168
560.621
552.193
543.885
535.701
527.642
519.712
511.912
504.244
496.71
489.312
482.053
474.935
467.964
461.144
454.483
447.987
441.668
435.537
429.607
423.891
418.406
413.167
408.192
403.498
399.102
395.022
391.277
387.884
384.861
382.227
380.001
378.206
376.868
376.035
376.011
376.162
377.011
378.359
380.162
382.395
385.038
388.072
391.481
395.248
399.359
403.798
408.549
413.598
418.932
424.534
430.392
436.492
442.822
449.368
456.118