<VTKFile type="ImageData" version="1.0" byte_order="LittleEndian" header_type="UInt64">
	<ImageData WholeExtent="0 47 0 54 0 50" Origin="-423.43 -544.928 -400.063" Spacing="19.3203 19.5119 19.2942">
		<Piece Extent="0 47 0 54 0 50">
			<PointData Scalars="Scalars_">
				<DataArray type="Float32" Name="Scalars_" format="ascii" RangeMin="0" RangeMax="100">
743.438
732.244
721.359
710.797
700.572
690.698
681.192
672.069
663.344
655.035
647.16
639.734
632.777
626.305
620.338
614.894
609.992
605.651
601.891
598.733
596.201
594.328
593.168
593.484
593.871
594.949
596.595
598.788
601.529
604.818
608.649
613.015
617.908
623.313
629.22
635.612
642.475
649.793
657.552
665.734
674.326
683.311
692.675
702.402
712.479
722.89
733.623
744.664
733.175
721.834
710.801
700.089
689.715
679.693
670.038
660.767
651.896
643.444
635.428
627.865
620.774
614.175
608.086
602.527
597.518
593.079
589.23
585.996
583.4
581.477
580.285
580.552
580.903
581.976
583.642
585.88
588.684
592.049
595.969
600.436
605.437
610.958
616.987
623.507
630.502
637.956
645.854
654.179
662.914
672.044
681.554
691.427
701.65
712.207
723.086
734.272
723.191
711.703
700.521
689.66
679.136
668.964
659.159
649.74
640.722
632.124
623.965
616.263
609.037
602.307
596.094
590.417
585.298
580.757
576.818
573.505
570.843
568.869
567.644
567.857
568.174
569.237
570.921
573.199
576.063
579.505
583.515
588.082
593.192
598.832
604.984
611.634
618.764
626.357
634.395
642.864
651.744
661.021
670.677
680.698
691.068
701.772
712.797
724.128
713.486
701.851
690.521
679.511
668.837
658.514
648.559
638.989
629.823
621.078
612.774
604.93
597.566
590.704
584.363
578.566
573.334
568.69
564.658
561.263
558.533
556.506
555.246
555.4
555.687
556.735
558.432
560.748
563.67
567.187
571.286
575.954
581.175
586.934
593.213
599.994
607.26
614.993
623.175
631.788
640.815
650.24
660.045
670.214
680.732
691.584
702.755
714.231
704.059
692.278
680.8
669.641
658.816
648.343
638.237
628.516
619.2
610.306
601.856
593.868
586.365
579.367
572.896
566.976
561.629
556.879
552.751
549.272
546.471
544.39
543.094
543.184
543.442
544.471
546.176
548.526
551.504
555.095
559.283
564.053
569.386
575.265
581.671
588.586
595.99
603.864
612.191
620.951
630.126
639.7
649.654
659.972
670.639
681.638
692.956
704.577
694.907
682.98
671.356
660.048
649.074
638.449
628.192
618.32
608.852
599.809
591.21
583.077
575.432
568.296
561.693
555.647
550.182
545.323
541.097
537.531
534.659
532.52
531.187
531.208
531.441
532.444
534.153
536.534
539.566
543.231
547.508
552.379
557.825
563.825
570.36
577.409
584.953
592.971
601.443
610.351
619.675
629.399
639.503
649.971
660.786
671.934
683.398
695.164
686.025
673.955
662.185
650.73
639.606
628.83
618.421
608.398
598.778
589.584
580.836
572.556
564.767
557.491
550.754
544.58
538.994
534.024
529.696
526.042
523.094
520.897
519.523
519.472
519.682
520.654
522.363
524.773
527.859
531.596
535.961
540.935
546.494
552.617
559.281
566.466
574.15
582.312
590.931
599.988
609.462
619.336
629.59
640.208
651.172
662.468
674.078
685.989
677.41
665.198
653.283
641.681
630.409
619.483
608.923
598.747
588.976
579.63
570.732
562.303
554.369
546.952
540.078
533.773
528.065
522.98
518.549
514.803
511.778
509.519
508.102
507.976
508.164
509.099
510.807
513.247
516.385
520.194
524.649
529.725
535.398
541.644
548.439
555.76
563.585
571.892
580.658
589.864
599.488
609.512
619.917
630.684
641.798
653.24
664.996
677.051
669.057
656.704
644.647
632.9
621.48
610.406
599.695
589.368
579.444
569.947
560.897
552.32
544.238
536.678
529.665
523.228
517.394
512.193
507.656
503.816
500.71
498.387
496.924
496.719
496.887
497.783
499.49
501.959
505.151
509.034
513.579
518.758
524.546
530.915
537.841
545.3
553.266
561.717
570.631
579.985
589.76
599.933
610.488
621.404
632.666
644.255
656.156
668.354
660.964
648.474
636.276
624.385
612.82
601.598
590.738
580.26
570.185
560.535
551.335
542.607
534.377
526.673
519.52
512.949
506.987
501.668
497.022
493.085
489.896
487.505
485.99
485.705
485.853
486.709
488.42
490.922
494.17
498.128
502.764
508.048
513.951
520.445
527.502
535.097
543.205
551.801
560.861
570.364
580.287
590.61
601.313
612.378
623.786
635.52
647.564
659.904
653.134
640.509
628.173
616.141
604.432
593.064
582.056
571.429
561.203
551.403
542.051
533.173
524.795
516.945
509.652
502.944
496.853
491.412
486.654
482.617
479.342
476.879
475.308
474.939
475.066
475.89
477.61
480.149
483.458
487.495
492.225
497.615
503.634
510.252
517.441
525.173
533.421
542.161
551.367
561.017
571.087
581.558
592.408
603.619
615.172
627.049
639.235
651.714
645.577
632.82
620.348
608.178
596.328
584.816
573.662
562.887
552.512
542.562
533.059
524.032
515.506
507.51
500.074
493.228
487.006
481.441
476.569
472.428
469.062
466.522
464.889
464.43
464.536
465.339
467.079
469.664
473.038
477.158
481.985
487.483
493.62
500.363
507.683
515.551
523.94
532.821
542.172
551.967
562.183
572.799
583.794
595.149
606.844
618.863
631.188
643.804
638.31
625.423
612.819
600.513
588.525
576.872
565.575
554.654
544.131
534.032
524.381
515.204
506.53
498.387
490.808
483.823
477.467
471.776
466.786
462.537
459.075
456.452
454.748
454.192
454.277
455.079
456.852
459.492
462.94
467.147
472.074
477.683
483.939
490.808
498.259
506.263
514.789
523.812
533.304
543.242
553.602
564.36
575.498
586.993
598.828
610.985
623.446
636.196
631.355
618.342
605.609
593.172
581.049
569.258
557.819
546.755
536.088
525.842
516.043
506.718
497.896
489.606
481.882
474.757
468.265
462.443
457.33
452.969
449.404
446.691
444.906
444.242
444.307
445.134
446.955
449.662
453.192
457.494
462.526
468.248
474.625
481.62
489.202
497.34
506.004
515.165
524.797
534.875
545.374
556.273
567.549
579.182
591.153
603.444
616.037
628.917
624.742
611.608
598.75
586.185
573.93
562.005
550.429
539.225
528.415
518.024
508.079
498.606
489.636
481.2
473.33
466.061
459.429
453.472
448.232
443.75
440.074
437.26
435.382
434.599
434.645
435.526
437.415
440.203
443.825
448.23
453.372
459.212
465.711
472.834
480.547
488.818
497.616
506.914
516.683
526.898
537.534
548.568
559.979
571.746
583.848
596.269
608.991
621.996
618.504
605.253
592.275
579.586
567.205
555.149
543.439
532.098
521.148
510.615
500.524
490.905
481.787
473.202
465.184
457.768
450.992
444.894
439.518
434.907
431.11
428.182
426.194
425.278
425.309
426.275
428.253
431.138
434.865
439.381
444.641
450.603
457.228
464.48
472.324
480.728
489.66
499.091
508.994
519.343
530.112
541.278
552.819
564.715
576.945
589.49
602.335
615.461
612.675
599.312
586.219
573.411
560.906
548.724
536.884
525.409
514.322
503.648
493.413
483.647
474.38
465.644
457.474
449.906
442.979
436.733
431.211
426.459
422.526
419.469
417.355
416.292
416.31
417.392
419.481
422.481
426.327
430.967
436.353
442.444
449.199
456.583
464.559
473.095
482.16
491.724
501.759
512.237
523.136
534.429
546.097
558.116
570.468
583.134
596.096
609.338
607.283
593.814
580.611
567.689
555.066
542.761
530.795
519.189
507.966
497.151
486.773
476.859
467.44
458.549
450.221
442.494
435.407
429.001
423.321
418.413
414.329
411.124
408.865
407.645
407.654
408.876
411.098
414.233
418.215
422.992
428.516
434.744
441.637
449.157
457.268
465.939
475.137
484.832
494.996
505.602
516.626
528.044
539.833
551.971
564.44
577.221
590.295
603.646
602.352
588.782
575.474
562.442
549.705
537.282
525.191
513.455
502.097
491.143
480.618
470.552
460.976
451.924
443.431
435.534
428.275
421.696
415.843
410.763
406.51
403.14
400.72
399.337
399.341
400.716
403.092
406.381
410.517
415.447
421.122
427.499
434.539
442.202
450.455
459.263
468.596
478.423
488.716
499.449
510.597
522.135
534.042
546.295
558.876
571.765
584.946
598.4
597.896
584.229
570.82
557.683
544.834
532.293
520.079
508.213
496.719
485.62
474.945
464.721
454.98
445.757
437.087
429.009
421.564
414.797
408.756
403.49
399.053
395.505
392.914
391.371
391.373
392.902
395.444
398.903
403.21
408.309
414.151
420.691
427.889
435.707
444.109
453.062
462.534
472.496
482.921
493.78
505.05
516.707
528.728
541.093
553.782
566.775
580.056
593.608
593.914
580.155
566.647
553.405
540.445
527.786
515.446
503.447
491.811
480.562
469.728
459.337
449.422
440.016
431.157
422.884
415.242
408.276
402.035
396.573
391.945
388.216
385.456
383.768
383.769
385.441
388.149
391.784
396.271
401.552
407.575
414.292
421.662
429.647
438.209
447.315
456.935
467.038
477.598
488.586
499.98
511.755
523.889
536.363
549.155
562.248
575.624
589.268
590.396
576.544
562.936
549.587
536.513
523.731
511.26
499.121
487.334
475.927
464.924
454.356
444.256
434.658
425.601
417.127
409.281
402.112
395.671
390.014
385.202
381.301
378.388
376.579
376.579
378.372
381.232
385.036
389.704
395.172
401.382
408.286
415.839
424.001
432.734
442.004
451.78
462.031
472.73
483.852
495.371
507.265
519.512
532.092
544.985
558.174
571.641
585.37
587.315
573.366
559.654
546.193
532.999
520.087
507.476
495.188
483.243
471.669
460.491
449.74
439.45
429.658
420.404
411.732
403.689
396.327
389.699
383.865
378.887
374.837
371.797
369.893
369.893
371.78
374.767
378.722
383.557
389.202
395.597
402.688
410.427
418.771
427.681
437.121
447.058
457.462
468.306
479.564
491.21
503.224
515.583
528.267
541.258
554.538
568.091
581.9
584.637
570.587
556.765
543.185
529.862
516.814
504.059
491.617
479.512
467.77
456.419
445.49
435.019
425.045
415.608
406.756
398.537
391.005
384.215
378.23
373.116
368.946
365.809
363.836
363.836
365.79
368.876
372.956
377.934
383.738
390.301
397.566
405.481
414.001
423.083
432.69
442.787
453.344
464.331
475.723
487.495
499.625
512.092
524.877
537.96
551.326
564.958
578.841
582.34
568.183
554.248
540.548
527.097
513.914
501.018
488.43
476.174
464.277
452.768
441.68
431.051
420.919
411.327
402.324
393.959
386.287
379.368
373.264
368.042
363.781
360.571
358.55
358.55
360.551
363.712
367.888
372.982
378.916
385.621
393.036
401.106
409.783
419.02
428.779
439.023
449.72
460.84
472.356
484.244
496.482
509.049
521.925
535.093
548.537
562.239
576.187
580.426
566.17
552.129
538.317
524.75
511.448
498.428
485.714
473.33
461.304
449.666
438.45
427.693
417.436
407.723
398.601
390.123
382.345
375.325
369.13
363.828
359.498
356.235
354.179
354.179
356.213
359.428
363.676
368.857
374.892
381.707
389.241
397.435
406.238
415.603
425.487
435.853
446.668
457.9
469.522
481.509
493.839
506.49
519.445
532.684
546.193
559.956
573.958
578.934
564.598
550.472
536.573
522.917
509.522
496.409
483.601
471.122
459.001
447.269
435.96
425.111
414.763
404.962
395.755
387.196
379.34
372.248
365.986
360.625
356.246
352.944
350.862
350.862
352.92
356.173
360.47
365.711
371.814
378.706
386.321
394.602
403.495
412.951
422.927
433.384
444.287
455.603
467.306
479.368
491.769
504.486
517.501
530.797
544.357
558.167
572.212
577.926
563.545
549.372
535.424
521.716
508.267
495.1
482.236
469.701
457.524
445.736
434.371
423.466
413.064
403.209
393.951
385.341
377.437
370.3
363.997
358.6
354.189
350.862
348.765
348.765
350.837
354.11
358.431
363.701
369.836
376.763
384.42
392.745
401.686
411.194
421.225
431.738
442.696
454.069
465.825
477.94
490.389
503.152
516.21
529.545
543.142
556.985
571.061
577.83
563.47
549.315
535.381
521.685
508.245
495.085
482.226
469.695
457.52
445.733
434.369
423.466
413.064
403.209
393.95
385.341
377.437
370.3
363.997
358.6
354.189
350.862
348.765
348.765
350.768
353.95
358.177
363.356
369.412
376.276
383.884
392.178
401.104
410.611
420.653
431.188
442.177
453.586
465.384
477.542
490.035
502.84
515.937
529.306
542.932
556.799
570.893
578.757
564.466
550.376
536.503
522.865
509.483
496.377
483.571
471.093
458.97
447.234
435.92
425.065
414.712
404.905
395.692
387.127
379.266
372.169
365.903
360.538
356.155
352.85
350.768
350.768
352.756
355.918
360.117
365.266
371.287
378.113
385.682
393.935
402.819
412.284
422.283
432.776
443.723
455.091
466.848
478.966
491.42
504.187
517.246
530.579
544.169
558.001
572.062
580.077
565.906
551.93
538.166
524.632
511.349
498.34
485.627
473.238
461.202
449.55
438.319
427.545
417.269
407.537
398.397
389.902
382.106
375.07
368.86
363.545
359.204
355.931
353.87
353.87
355.838
358.969
363.129
368.23
374.198
380.967
388.475
396.665
405.483
414.88
424.812
435.236
446.115
457.415
469.104
481.154
493.541
506.242
519.236
532.504
546.032
559.802
573.801
581.683
567.66
553.831
540.213
526.823
513.68
500.807
488.227
475.966
464.054
452.523
441.407
430.745
420.577
410.949
401.907
393.504
385.796
378.84
372.702
367.45
363.162
359.93
357.895
357.895
359.838
362.928
367.036
372.075
377.973
384.663
392.085
400.183
408.904
418.2
428.025
438.339
449.103
460.285
471.854
483.782
496.043
508.616
521.481
534.62
548.015
561.654
575.521
583.069
569.245
555.621
542.211
529.029
516.094
503.424
491.042
478.974
467.249
455.896
444.951
434.452
424.438
414.955
406.05
397.774
390.183
383.334
377.291
372.121
367.901
364.722
362.72
362.72
364.629
367.667
371.708
376.665
382.468
389.05
396.353
404.319
412.898
422.041
431.703
441.845
452.43
463.425
474.801
486.533
498.595
510.969
523.636
536.58
549.786
563.242
576.936
584.612
570.949
557.501
544.282
531.304
518.582
506.133
493.978
482.138
470.64
459.512
448.785
438.497
428.686
419.395
410.671
402.563
395.127
388.418
382.5
377.439
373.309
370.199
368.241
368.241
370.104
373.074
377.027
381.878
387.555
393.995
401.138
408.929
417.317
426.255
435.703
445.622
455.979
466.744
477.891
489.398
501.243
513.41
525.882
538.645
551.686
564.991
578.55
586.521
572.987
559.685
546.625
533.823
521.291
509.048
497.11
485.498
474.235
463.346
452.862
442.814
433.238
424.175
415.669
407.767
400.522
393.989
388.228
383.303
379.288
376.267
374.368
374.365
376.167
379.049
382.889
387.604
393.125
399.387
406.332
413.909
422.069
430.769
439.972
449.645
459.758
470.285
481.205
492.495
504.14
516.121
528.424
541.033
553.934
567.115
580.561
588.867
575.448
562.272
549.353
536.704
524.342
512.283
500.544
489.144
478.106
467.453
457.211
447.411
438.084
429.268
421.003
413.333
406.306
399.976
394.399
389.638
385.76
382.848
381.023
381.005
382.73
385.5
389.203
393.755
399.089
405.143
411.863
419.201
427.112
435.56
444.511
453.937
463.813
474.115
484.822
495.917
507.38
519.196
531.347
543.818
556.594
569.659
583
591.675
578.365
565.308
552.518
540.012
527.805
515.915
504.358
493.155
482.328
471.897
461.89
452.331
443.253
434.687
426.671
419.245
412.453
406.343
400.969
396.389
392.667
389.88
388.139
388.085
389.712
392.351
395.893
400.26
405.386
411.213
417.692
424.779
432.437
440.634
449.341
458.533
468.186
478.28
488.794
499.709
511.007
522.67
534.68
547.021
559.676
572.63
585.867
594.959
581.756
568.814
556.15
543.78
531.719
519.987
508.602
497.583
486.952
476.732
466.945
457.618
448.779
440.459
432.689
425.508
418.954
413.072
407.91
403.521
399.964
397.31
395.66
395.54
397.052
399.542
402.908
407.075
411.98
417.572
423.806
430.646
438.059
446.016
454.493
463.466
472.914
482.816
493.151
503.899
515.042
526.561
538.437
550.652
563.189
576.031
589.163
598.726
585.63
572.803
560.263
548.024
536.106
524.526
513.303
502.459
492.014
481.991
472.412
463.305
454.693
446.607
439.076
432.133
425.814
420.158
415.208
411.012
407.622
405.101
403.536
403.322
404.704
407.036
410.219
414.181
418.865
424.224
430.22
436.823
444.003
451.737
460
468.772
478.029
487.753
497.92
508.512
519.508
530.887
542.632
554.723
567.143
579.874
592.899
602.977
589.99
577.279
564.862
552.754
540.975
529.543
518.478
507.8
497.532
487.695
478.314
469.412
461.016
453.15
445.845
439.13
433.036
427.598
422.855
418.846
415.618
413.224
411.733
411.404
412.646
414.819
417.821
421.583
426.051
431.188
436.96
443.341
450.306
457.832
465.899
474.483
483.564
493.119
503.128
513.569
524.422
535.666
547.282
559.249
571.551
584.169
597.086
607.711
594.836
582.243
569.95
557.973
546.332
535.045
524.132
513.616
503.517
493.858
484.663
475.955
467.76
460.102
453.009
446.507
440.625
435.394
430.845
427.015
423.94
421.66
420.226
419.775
420.876
422.896
425.725
429.297
433.565
438.494
444.058
450.234
457.001
464.336
472.219
480.628
489.542
498.938
508.795
519.09
529.803
540.913
552.399
564.242
576.424
588.926
601.732
612.925
600.164
587.692
575.524
563.679
552.174
541.031
530.268
519.908
509.973
500.484
491.465
482.94
474.933
467.469
460.572
454.269
448.584
443.545
439.178
435.513
432.578
430.401
429.008
428.44
429.403
431.281
433.952
437.348
441.431
446.17
451.544
457.532
464.116
471.274
478.985
487.229
495.983
505.226
514.934
525.086
535.66
546.636
557.992
569.709
581.769
594.153
606.844
618.61
605.968
593.619
581.578
569.865
558.498
547.497
536.882
526.675
516.897
507.571
498.72
490.368
482.538
475.254
468.54
462.419
456.916
452.053
447.853
444.339
441.531
439.444
438.078
437.409
438.242
439.993
442.52
445.758
449.672
454.238
459.438
465.255
471.668
478.661
486.211
494.297
502.898
511.991
521.553
531.563
541.999
552.84
564.064
575.654
587.588
599.85
612.423
624.759
612.239
600.015
588.104
576.524
565.295
554.436
543.967
533.909
524.285
515.116
506.426
498.237
490.573
483.457
476.912
470.959
465.621
460.918
456.87
453.493
450.799
448.791
447.446
446.694
447.409
449.048
451.447
454.543
458.305
462.714
467.755
473.413
479.669
486.505
493.902
501.837
510.289
519.235
528.653
538.522
548.819
559.523
570.614
582.072
593.879
606.016
618.465
631.361
618.965
606.869
595.09
583.646
572.555
561.837
551.512
541.601
532.127
523.11
514.574
506.541
499.033
492.074
485.684
479.886
474.699
470.141
466.229
462.975
460.384
458.446
457.119
456.308
456.916
458.459
460.744
463.713
467.338
471.605
476.5
482.01
488.118
494.807
502.056
509.845
518.151
526.953
536.229
545.956
556.114
566.68
577.635
588.96
600.635
612.643
624.967
638.404
626.136
614.171
602.525
591.217
580.264
569.688
559.506
549.741
540.412
531.543
523.155
515.271
507.911
501.098
494.853
489.197
484.147
479.72
475.93
472.786
470.287
468.414
467.107
466.255
466.771
468.23
470.415
473.27
476.772
480.909
485.671
491.043
497.013
503.561
510.668
518.315
526.479
535.138
544.272
553.857
563.874
574.301
585.119
596.307
607.849
619.724
631.917
645.876
633.738
621.906
610.395
599.224
588.411
577.975
567.936
558.313
549.129
540.403
532.158
524.415
517.196
510.521
504.411
498.885
493.96
489.652
485.972
482.926
480.51
478.698
477.415
476.54
476.976
478.362
480.46
483.213
486.604
490.623
495.26
500.505
506.343
512.756
519.727
527.234
535.258
543.777
552.769
562.213
572.089
582.375
593.053
604.103
615.507
627.248
639.308
653.764
641.758
630.06
618.686
607.653
596.98
586.684
576.786
567.305
558.261
549.676
541.569
533.963
526.877
520.332
514.348
508.943
504.132
499.931
496.35
493.393
491.052
489.298
488.046
487.162
487.529
488.853
490.872
493.535
496.825
500.736
505.258
510.383
516.096
522.38
529.218
536.59
544.476
552.855
561.706
571.009
580.743
590.888
601.424
612.334
623.599
635.201
647.125
662.053
650.182
638.62
627.383
616.489
605.955
595.8
586.042
576.7
567.795
559.346
551.374
543.899
536.941
530.52
524.654
519.36
514.656
510.553
507.06
504.183
501.911
500.213
498.996
498.116
498.424
499.694
501.645
504.226
507.425
511.236
515.652
520.663
526.257
532.417
539.126
546.366
554.117
562.358
571.069
580.23
589.822
599.825
610.219
620.987
632.11
643.572
655.357
670.729
658.994
647.57
636.472
625.717
615.323
605.307
595.687
586.484
577.714
569.399
561.558
554.21
547.375
541.071
535.317
530.128
525.521
521.507
518.097
515.291
513.083
511.439
510.264
509.395
509.654
510.877
512.766
515.275
518.392
522.111
526.427
531.331
536.81
542.851
549.435
556.546
564.163
572.268
580.84
589.861
599.31
609.17
619.421
630.045
641.026
652.346
663.99
679.78
668.182
656.896
645.937
635.322
625.067
615.189
605.707
596.64
588.004
579.82
572.106
564.881
558.164
551.972
546.324
541.234
536.718
532.787
529.451
526.712
524.563
522.971
521.841
520.991
521.209
522.39
524.226
526.669
529.71
533.344
537.566
542.369
547.739
553.664
560.127
567.111
574.598
582.568
591.003
599.883
609.191
618.908
629.015
639.496
650.332
661.509
673.01
689.19
677.731
666.583
655.764
645.287
635.171
625.432
616.086
607.152
598.649
590.593
583.003
575.898
569.294
563.21
557.663
552.666
548.235
544.382
541.115
538.437
536.343
534.803
533.721
532.894
533.077
534.223
536.009
538.394
541.365
544.921
549.055
553.761
559.027
564.84
571.186
578.046
585.404
593.241
601.54
610.282
619.448
629.022
638.986
649.322
660.014
671.046
682.404
698.947
687.626
676.618
665.937
655.6
645.621
636.018
626.808
618.007
609.632
601.702
594.233
587.244
580.751
574.771
569.32
564.412
560.062
556.281
553.078
550.458
548.415
546.925
545.894
545.094
545.248
546.361
548.104
550.435
553.343
556.825
560.877
565.49
570.656
576.362
582.592
589.332
596.564
604.271
612.435
621.039
630.066
639.497
649.317
659.509
670.056
680.944
692.156
709.036
697.854
686.985
676.443
666.244
656.403
646.935
637.858
629.187
620.94
613.133
605.783
598.907
592.521
586.641
581.283
576.46
572.187
568.475
565.332
562.765
560.771
559.328
558.349
557.58
557.709
558.793
560.498
562.779
565.628
569.042
573.015
577.541
582.611
588.212
594.331
600.953
608.061
615.64
623.671
632.139
641.027
650.318
659.995
670.042
680.444
691.186
702.254
719.446
708.402
697.672
687.268
677.206
667.501
658.167
649.222
640.68
632.558
624.871
617.637
610.871
604.589
598.807
593.538
588.798
584.598
580.951
577.866
575.349
573.401
572.004
571.077
570.339
570.448
571.507
573.175
575.412
578.206
581.555
585.454
589.897
594.874
600.375
606.385
612.892
619.88
627.332
635.233
643.567
652.317
661.467
671.002
680.906
691.164
701.761
712.683
731.494
720.144
709.102
698.385
688.005
677.979
668.323
659.052
650.184
641.736
633.725
626.17
619.089
612.502
606.427
600.883
595.891
591.471
587.642
584.428
581.852
579.948
578.771
579.134
579.555
580.674
582.354
584.581
587.361
590.696
594.583
599.017
603.986
609.479
615.481
621.978
628.953
636.391
644.276
652.59
661.318
670.443
679.951
689.825
700.05
710.612
721.497
732.691
721.135
709.632
698.437
687.564
677.03
666.849
657.038
647.614
638.594
629.996
621.838
614.14
606.92
600.199
593.996
588.332
583.227
578.703
574.782
571.486
568.843
566.886
565.675
565.991
566.374
567.49
569.197
571.476
574.326
577.745
581.729
586.269
591.353
596.968
603.099
609.73
616.843
624.423
632.453
640.914
649.791
659.067
668.726
678.751
689.128
699.841
710.876
722.219
711.062
699.407
688.058
677.031
666.341
656.004
646.038
636.458
627.285
618.535
610.228
602.383
595.022
588.164
581.83
576.042
570.822
566.192
562.175
558.797
556.084
554.073
552.826
553.09
553.435
554.546
556.276
558.603
561.521
565.024
569.105
573.752
578.953
584.693
590.954
597.721
604.976
612.7
620.877
629.488
638.516
647.944
657.755
667.933
678.462
689.327
700.513
712.006
701.279
689.471
677.968
666.786
655.941
645.448
635.324
625.589
616.26
607.356
598.898
590.905
583.399
576.402
569.935
564.02
558.682
553.942
549.827
546.362
543.577
541.51
540.227
540.433
540.745
541.844
543.593
545.965
548.948
552.534
556.712
561.468
566.787
572.653
579.048
585.953
593.351
601.222
609.548
618.311
627.492
637.073
647.038
657.37
668.052
679.07
690.407
702.049
691.783
679.824
668.168
656.831
645.83
635.18
624.899
615.007
605.521
596.462
587.85
579.707
572.055
564.915
558.311
552.267
546.807
541.956
537.739
534.185
531.326
529.201
527.879
528.023
528.303
529.386
531.148
533.561
536.608
540.276
544.55
549.416
554.854
560.848
567.378
574.424
581.967
589.987
598.464
607.38
616.715
626.452
636.572
647.058
657.895
669.065
680.553
692.346
682.572
670.463
658.655
647.164
636.007
625.2
614.762
604.711
595.068
585.852
577.086
568.79
560.988
553.704
546.961
540.784
535.199
530.233
525.912
522.267
519.33
517.145
515.784
515.861
516.113
517.172
518.942
521.392
524.5
528.248
532.62
537.595
543.154
549.278
555.944
563.133
570.822
578.993
587.623
596.693
606.184
616.077
626.353
636.995
647.985
659.308
670.948
682.891
673.641
661.384
649.425
637.781
626.469
615.505
604.909
594.7
584.898
575.525
566.602
558.152
550.199
542.767
535.882
529.57
523.858
518.773
514.346
510.606
507.59
505.343
503.94
503.944
504.171
505.2
506.974
509.457
512.624
516.452
520.92
526.006
531.687
537.941
544.745
552.078
559.916
568.238
577.022
586.249
595.896
605.946
616.378
627.176
638.321
649.797
661.588
673.68
664.986
652.582
640.473
628.677
617.211
606.091
595.338
584.97
575.009
565.477
556.396
547.79
539.684
532.103
525.074
518.624
512.782
507.576
503.038
499.202
496.103
493.791
492.345
492.273
492.477
493.468
495.242
497.757
500.982
504.89
509.454
514.651
520.454
526.84
533.783
541.261
549.248
557.723
566.663
576.045
585.85
596.057
606.646
617.599
628.899
640.528
652.47
664.71
656.598
644.05
631.794
619.847
608.228
596.953
586.043
575.517
565.397
555.706
546.466
537.704
529.443
521.711
514.535
507.945
501.969
496.64
491.99
488.053
484.87
482.49
480.996
480.846
481.029
481.976
483.748
486.296
489.579
493.566
498.227
503.535
509.461
515.979
523.063
530.686
538.824
547.452
556.547
566.086
576.048
586.412
597.157
608.266
619.719
631.501
643.593
655.981
648.475
635.783
623.382
611.287
599.516
588.088
577.022
566.339
556.061
546.21
536.812
527.891
519.475
511.59
504.266
497.533
491.423
485.967
481.201
477.161
473.89
471.44
469.894
469.663
469.825
470.726
472.499
475.079
478.422
482.49
487.25
492.67
498.72
505.371
512.595
520.363
528.651
537.432
546.683
556.378
566.497
577.017
587.919
599.182
610.788
622.72
634.961
647.496
640.613
627.783
615.238
602.997
591.077
579.497
568.277
557.438
547.001
536.992
527.435
518.357
509.784
501.745
494.272
487.395
481.146
475.562
470.678
466.532
463.17
460.645
459.042
458.727
458.868
459.725
461.504
464.122
467.528
471.679
476.539
482.072
488.247
495.031
502.395
510.31
518.747
527.681
537.085
546.936
557.211
567.886
578.942
590.358
602.116
614.197
626.586
639.265
633.02
620.052
607.368
594.984
582.917
571.187
559.815
548.821
538.229
528.062
518.347
509.11
500.381
492.188
484.564
477.54
471.153
465.437
460.432
456.177
452.719
450.115
448.45
448.045
448.165
448.988
450.78
453.443
456.917
461.155
466.118
471.766
478.067
484.985
492.489
500.548
509.135
518.22
527.777
537.781
548.209
559.038
570.246
581.813
593.72
605.949
618.482
631.304
625.707
612.606
599.785
587.26
575.05
563.173
551.651
540.505
529.758
519.436
509.564
500.17
491.284
482.937
475.161
467.99
461.461
455.612
450.482
446.114
442.556
439.867
438.132
437.631
437.728
438.535
440.354
443.07
446.619
450.949
456.017
461.783
468.21
475.262
482.906
491.11
499.843
509.078
518.786
528.942
539.521
550.5
561.858
573.573
585.626
597.999
610.675
623.636
618.697
605.466
592.512
579.85
567.5
555.48
543.811
532.515
521.617
511.141
501.113
491.564
482.522
474.02
466.091
458.772
452.099
446.113
440.854
436.368
432.704
429.923
428.109
427.5
427.577
428.392
430.254
433.035
436.667
441.095
446.273
452.159
458.714
465.9
473.683
482.029
490.908
500.29
510.146
520.45
531.177
542.304
553.807
565.667
577.863
590.377
603.191
616.288
612.019
598.663
585.579
572.785
560.298
548.139
536.327
524.885
513.838
503.21
493.03
483.325
474.128
465.472
457.39
449.92
443.101
436.973
431.581
426.97
423.193
420.31
418.404
417.675
417.731
418.587
420.51
423.371
427.096
431.629
436.922
442.931
449.615
456.936
464.857
473.345
482.367
491.893
501.894
512.343
523.214
534.484
546.13
558.13
570.464
583.114
596.062
609.291
605.709
592.233
579.024
566.102
553.484
541.188
529.238
517.654
506.46
495.684
485.352
475.495
466.144
457.332
449.095
441.472
434.502
428.228
422.695
417.952
414.05
411.052
409.039
408.175
408.212
409.146
411.153
414.108
417.939
422.586
428
434.136
440.952
448.408
456.467
465.094
474.257
483.924
494.067
504.656
515.668
527.077
538.859
550.995
563.463
576.244
589.321
602.676
599.805
586.212
572.885
559.84
547.095
534.669
522.584
510.861
499.526
488.603
478.122
468.113
458.607
449.638
441.244
433.464
426.338
419.91
414.228
409.34
405.3
402.172
400.032
399.015
399.038
400.084
402.2
405.269
409.219
413.992
419.535
425.803
432.754
440.347
448.544
457.31
466.611
476.417
486.697
497.424
508.571
520.113
532.029
544.294
556.89
569.797
582.996
596.472
594.339
580.638
567.198
554.035
541.169
528.617
516.402
504.544
493.07
482.004
471.375
461.213
451.551
442.423
433.867
425.923
418.633
412.041
406.196
401.149
396.955
393.676
391.388
390.202
390.214
391.406
393.656
396.861
400.948
405.859
411.542
417.951
425.042
432.775
441.111
450.016
459.455
469.397
479.812
490.672
501.95
513.622
525.664
538.054
550.771
563.798
577.114
590.703
589.342
575.537
561.99
548.717
535.734
523.062
510.72
498.731
487.12
475.911
465.133
454.817
444.996
435.703
426.978
418.861
411.394
404.625
398.602
393.377
389.009
385.559
383.101
381.735
381.74
383.099
385.51
388.873
393.117
398.183
404.02
410.58
417.82
425.699
434.18
443.225
452.803
462.88
473.428
484.418
495.824
507.62
519.784
532.293
545.127
558.266
571.693
585.389
584.832
570.931
557.282
543.902
530.808
518.018
505.553
493.434
481.685
470.332
459.403
448.928
438.94
429.474
420.569
412.265
404.608
397.644
391.425
386.004
381.442
377.801
375.158
373.61
373.612
375.147
377.736
381.278
385.7
390.941
396.949
403.675
411.076
419.111
427.742
436.934
446.653
456.868
467.549
478.669
490.199
502.117
514.399
527.022
539.966
553.212
566.742
580.539
580.816
566.823
553.077
539.594
526.39
513.483
500.894
488.643
476.754
465.252
454.164
443.521
433.356
423.704
414.604
406.1
398.236
391.061
384.63
378.998
374.228
370.387
367.554
365.836
365.836
367.539
370.314
374.049
378.664
384.098
390.293
397.202
404.779
412.984
421.778
431.125
440.993
451.35
462.167
473.417
485.073
497.11
509.506
522.24
535.29
548.637
562.265
576.155
577.286
563.202
549.36
535.773
522.458
509.432
496.715
484.325
472.288
460.627
449.37
438.547
428.192
418.341
409.034
400.316
392.234
384.84
378.189
372.343
367.365
363.328
360.317
358.452
358.452
360.3
363.251
367.177
371.993
377.629
384.026
391.132
398.9
407.288
416.257
425.772
435.798
446.305
457.263
468.647
480.429
492.586
505.096
517.936
531.088
544.532
558.25
572.227
574.218
560.042
546.1
532.405
518.973
505.82
492.965
480.427
468.231
456.4
444.963
433.95
423.395
413.338
403.819
394.885
386.586
378.977
372.116
366.067
360.899
356.689
353.527
351.547
351.547
353.508
356.611
360.711
365.717
371.552
378.152
385.461
393.429
402.011
411.165
420.856
431.049
441.713
452.818
464.339
476.25
488.527
501.148
514.094
527.343
540.878
554.682
568.738
571.577
557.303
543.254
529.443
515.885
502.596
489.594
476.901
464.538
452.531
440.91
429.706
418.956
408.698
398.978
389.842
381.345
373.542