<VTKFile type="ImageData" version="1.0" byte_order="LittleEndian" header_type="UInt64">
	<ImageData WholeExtent="0 45 0 49 0 54" Origin="-660.63 -728.566 -801.187" Spacing="29.3613 29.7374 29.6736">
		<Piece Extent="0 45 0 49 0 54">
			<PointData Scalars="Scalars_">
				<DataArray type="Float32" Name="Scalars_" format="ascii" RangeMin="0" RangeMax="100">
1067.13
1050.61
1034.61
1019.15
1004.25
989.93
976.227
963.163
950.766
939.064
928.085
917.859
908.415
899.785
892
885.091
879.092
874.04
869.977
866.959
865.082
865.07
865.053
865.052
865.06
866.833
869.642
873.384
878.01
883.492
889.809
896.944
904.879
913.597
923.078
933.302
944.246
955.889
968.207
981.177
994.775
1008.98
1023.76
1039.1
1054.98
1071.37
1048.43
1031.66
1015.4
999.679
984.523
969.958
956.01
942.706
930.075
918.147
906.951
896.518
886.88
878.068
870.115
863.056
856.924
851.759
847.604
844.516
842.596
842.588
842.575
842.575
842.581
844.396
847.266
851.085
855.803
861.391
867.83
875.102
883.19
892.074
901.735
912.151
923.299
935.155
947.695
960.895
974.729
989.172
1004.2
1019.79
1035.92
1052.56
1030.18
1013.14
996.626
980.648
965.237
950.419
936.222
922.675
909.807
897.649
886.232
875.589
865.752
856.754
848.631
841.416
835.149
829.867
825.618
822.46
820.496
820.49
820.481
820.48
820.484
822.343
825.275
829.171
833.982
839.678
846.24
853.651
861.893
870.946
880.79
891.401
902.756
914.829
927.595
941.028
955.102
969.791
985.069
1000.91
1017.29
1034.19
1012.39
995.097
978.318
962.081
946.412
931.339
916.89
903.096
889.988
877.597
865.955
855.098
845.058
835.871
827.573
820.201
813.795
808.394
804.048
800.818
798.809
798.805
798.799
798.798
798.801
800.704
803.698
807.672
812.575
818.379
825.065
832.616
841.014
850.239
860.268
871.078
882.643
894.937
907.933
921.602
935.919
950.856
966.386
982.484
999.124
1016.28
995.097
977.541
960.5
944.002
928.073
912.742
898.04
883.997
870.645
858.018
846.149
835.073
824.828
815.448
806.973
799.441
792.892
787.371
782.927
779.623
777.567
777.565
777.561
777.561
777.562
779.51
782.568
786.619
791.613
797.524
804.334
812.026
820.582
829.98
840.198
851.21
862.988
875.505
888.733
902.643
917.206
932.393
948.178
964.532
981.431
998.847
978.318
960.5
943.197
926.437
910.247
894.658
879.7
865.406
851.809
838.943
826.843
815.547
805.093
795.518
786.863
779.168
772.475
766.831
762.287
758.908
756.806
756.805
756.802
756.802
756.803
758.796
761.916
766.044
771.128
777.146
784.079
791.913
800.627
810.201
820.609
831.825
843.819
856.563
870.026
884.178
898.989
914.429
930.47
947.083
964.241
981.917
962.081
944.002
926.437
909.415
892.964
877.116
861.901
847.355
833.51
820.403
808.071
796.553
785.888
776.115
767.278
759.418
752.58
746.811
742.166
738.711
736.563
736.562
736.56
736.56
736.561
738.6
741.782
745.983
751.155
757.277
764.334
772.308
781.182
790.933
801.533
812.954
825.167
838.139
851.839
866.236
881.297
896.991
913.289
930.162
947.58
965.517
946.412
928.073
910.247
892.964
876.253
860.145
844.674
829.875
815.782
802.434
789.868
778.126
767.248
757.276
748.255
740.229
733.244
727.35
722.603
719.072
716.877
716.876
716.875
716.875
716.876
718.961
722.203
726.474
731.732
737.956
745.133
753.248
762.282
772.209
783.003
794.632
807.064
820.267
834.206
848.848
864.16
880.11
896.666
913.798
931.476
949.673
931.339
912.742
894.658
877.116
860.145
843.78
828.053
813.001
798.66
785.07
772.271
760.304
749.213
739.041
729.835
721.642
714.509
708.49
703.641
700.035
697.793
697.793
697.792
697.792
697.792
699.924
703.222
707.561
712.898
719.22
726.515
734.77
743.962
754.067
765.055
776.892
789.546
802.979
817.158
832.047
847.611
863.816
880.63
898.021
915.958
934.413
916.89
898.04
879.701
861.901
844.674
828.053
812.072
796.769
782.181
768.351
755.318
743.127
731.823
721.452
712.062
703.701
696.421
690.277
685.327
681.647
679.359
679.359
679.358
679.358
679.359
681.536
684.887
689.285
694.697
701.112
708.522
716.913
726.263
736.545
747.727
759.773
772.648
786.314
800.733
815.868
831.683
848.143
865.213
882.861
901.056
919.767
903.096
883.997
865.406
847.355
829.875
813.001
796.769
781.217
766.386
752.316
739.052
726.639
715.123
704.553
694.98
686.454
679.029
672.76
667.711
663.958
661.626
661.626
661.626
661.626
661.626
663.847
667.246
671.697
677.174
683.676
691.196
699.721
709.227
719.685
731.06
743.315
756.411
770.308
784.966
800.347
816.412
833.124
850.449
868.352
886.801
905.765
889.988
870.645
851.809
833.51
815.782
798.66
782.181
766.386
751.314
737.009
723.516
710.884
699.159
688.394
678.64
669.951
662.383
655.994
650.848
647.025
644.651
644.651
644.651
644.651
644.651
646.915
650.352
654.845
660.379
666.96
674.585
683.239
692.899
703.531
715.098
727.56
740.876
755.003
769.898
785.522
801.835
818.797
836.373
854.527
873.226
892.439
877.597
858.018
838.943
820.403
802.434
785.07
768.351
752.316
737.009
722.474
708.758
695.91
683.981
673.024
663.094
654.246
646.539
640.034
634.796
630.907
628.495
628.495
628.495
628.495
628.495
630.797
634.263
638.785
644.364
651.014
658.737
667.517
677.326
688.129
699.887
712.554
726.087
740.441
755.572
771.436
787.992
805.2
823.022
841.422
860.366
879.822
865.956
846.149
826.843
808.071
789.868
772.271
755.318
739.052
723.516
708.758
694.825
681.768
669.641
658.499
648.398
639.397
631.557
624.941
619.617
615.668
613.223
613.223
613.223
613.223
613.223
615.559
619.04
623.574
629.184
635.893
643.706
652.605
662.56
673.531
685.475
698.345
712.092
726.669
742.03
758.129
774.924
792.372
810.435
829.074
848.256
867.948
855.098
835.074
815.548
796.553
778.126
760.304
743.127
726.639
710.884
695.91
681.768
668.511
656.193
644.873
634.61
625.464
617.499
610.781
605.379
601.378
598.906
598.906
598.906
598.906
598.906
601.271
604.747
609.272
614.896
621.653
629.547
638.559
648.655
659.79
671.916
684.982
698.939
713.734
729.319
745.648
762.674
780.355
798.651
817.522
836.934
856.852
845.058
824.828
805.093
785.888
767.248
749.213
731.823
715.123
699.159
683.981
669.641
656.193
643.696
632.208
621.792
612.512
604.432
597.622
592.153
588.11
585.62
585.62
585.62
585.62
585.62
588.005
591.452
595.943
601.562
608.353
616.32
625.438
635.669
646.961
659.264
672.522
686.681
701.687
717.49
734.039
751.289
769.194
787.713
806.806
826.437
846.572
835.871
815.448
795.518
776.115
757.277
739.041
721.452
704.553
688.394
673.024
658.499
644.873
632.208
620.565
610.009
600.607
592.426
585.537
580.015
575.943
573.448
573.448
573.448
573.448
573.448
575.841
579.226
583.653
589.245
596.057
604.087
613.304
623.662
635.106
647.579
661.02
675.374
690.583
706.593
723.353
740.815
758.933
777.664
796.968
816.806
837.145
827.574
806.973
786.863
767.278
748.255
729.835
712.062
694.98
678.64
663.094
648.398
634.61
621.792
610.009
599.329
589.82
581.553
574.603
569.044
564.962
562.478
562.478
562.478
562.478
562.478
564.865
568.141
572.468
578.013
584.832
592.915
602.223
612.702
624.289
636.922
650.538
665.076
680.476
696.682
713.642
731.304
749.621
768.55
788.05
808.082
828.611
820.202
799.441
779.168
759.418
740.229
721.642
703.701
686.454
669.951
654.246
639.397
625.464
612.512
600.607
589.82
580.223
571.89
564.898
559.325
555.256
552.806
552.806
552.806
552.806
552.806
555.164
558.271
562.458
567.934
574.747
582.875
592.266
602.857
614.578
627.361
641.14
655.85
671.428
687.816
704.96
722.806
741.308
760.419
780.099
800.309
821.011
813.796
792.893
772.476
752.58
733.244
714.509
696.421
679.029
662.383
646.539
631.557
617.499
604.432
592.426
581.553
571.89
563.514
556.506
550.945
546.92
544.537
544.537
544.537
544.537
544.537
546.835
549.688
553.691
559.08
565.879
574.044
583.51
594.203
606.047
618.968
632.896
647.762
663.503
680.056
697.366
715.379
734.046
753.322
773.164
793.532
814.39
808.396
787.372
766.832
746.811
727.35
708.49
690.277
672.76
655.994
640.034
624.941
610.781
597.622
585.537
574.603
564.898
556.506
549.509
543.996
540.054
537.789
537.789
537.789
537.789
537.789
539.98
542.459
546.241
551.532
558.311
566.507
576.039
586.823
598.777
611.821
625.882
640.886
656.769
673.468
690.923
709.083
727.895
747.313
767.295
787.801
808.794
804.05
782.928
762.287
742.166
722.603
703.641
685.327
667.711
650.848
634.796
619.617
605.379
592.153
580.015
569.044
559.325
550.945
543.996
538.571
534.769
532.705
532.705
532.705
532.705
532.705
534.709
536.643
540.182
545.377
552.137
560.361
569.951
580.814
592.861
606.01
620.182
635.304
651.307
668.127
685.705
703.986
722.918
742.456
762.554
783.174
804.278
800.82
779.624
758.909
738.712
719.073
700.035
681.647
663.958
647.025
630.907
615.668
601.378
588.11
575.943
564.962
555.256
546.92
540.054
534.769
531.191
529.504
529.504
529.504
529.504
529.504
531.153
532.293
535.613
540.733
547.481
555.729
565.367
576.293
588.415
601.647
615.906
631.119
647.216
664.13
681.802
700.176
719.201
738.829
759.016
779.722
800.911
798.81
777.568
756.807
736.563
716.877
697.793
679.359
661.626
644.651
628.495
613.223
598.906
585.62
573.448
562.478
552.806
544.537
537.789
532.705
529.504
529.504
529.504
529.504
529.504
529.504
529.504
529.504
532.705
537.789
544.537
552.806
562.478
573.448
585.62
598.906
613.223
628.495
644.651
661.626
679.359
697.793
716.877
736.563
756.807
777.568
798.81
798.81
777.568
756.807
736.563
716.877
697.793
679.359
661.626
644.651
628.495
613.223
598.906
585.62
573.448
562.478
552.806
544.537
537.789
532.705
529.504
529.504
529.504
529.504
529.504
529.504
529.504
529.504
532.705
537.789
544.537
552.806
562.478
573.448
585.62
598.906
613.223
628.495
644.651
661.626
679.359
697.793
716.877
736.563
756.807
777.568
798.81
798.81
777.568
756.807
736.563
716.877
697.793
679.359
661.626
644.651
628.495
613.223
598.906
585.62
573.448
562.478
552.806
544.537
537.789
532.705
529.504
529.504
529.504
529.504
529.504
529.504
529.504
529.504
532.705
537.789
544.537
552.806
562.478
573.448
585.62
598.906
613.223
628.495
644.651
661.626
679.359
697.793
716.877
736.563
756.807
777.568
798.81
798.81
777.568
756.807
736.563
716.877
697.793
679.359
661.626
644.651
628.495
613.223
598.906
585.62
573.448
562.478
552.806
544.537
537.789
532.705
529.504
529.504
529.504
529.504
529.504
529.504
529.504
529.504
532.705
537.789
544.537
552.806
562.478
573.448
585.62
598.906
613.223
628.495
644.651
661.626
679.359
697.793
716.877
736.563
756.807
777.568
798.81
800.713
779.516
758.8
738.602
718.962
699.925
681.536
663.847
646.915
630.797
615.559
601.271
588.005
575.841
564.865
555.164
546.835
539.98
534.709
531.153
529.504
529.504
529.504
529.504
529.504
529.504
529.504
532.705
537.789
544.537
552.806
562.478
573.448
585.62
598.906
613.223
628.495
644.651
661.626
679.359
697.793
716.877
736.563
756.807
777.568
798.81
803.793
782.67
762.028
741.906
722.342
703.38
685.067
667.453
650.593
634.544
619.37
605.139
591.921
579.793
568.836
559.135
550.777
543.855
538.465
534.709
532.705
532.705
532.705
532.705
532.705
532.705
532.705
535.884
540.934
547.639
555.859
565.476
576.386
588.496
601.718
615.969
631.176
647.266
664.175
681.843
700.214
719.236
738.861
759.046
779.75
800.936
807.964
786.939
766.398
746.377
726.917
708.059
689.849
672.338
655.578
639.626
624.545
610.399
597.258
585.195
574.287
564.614
556.261
549.312
543.855
539.98
537.789
537.789
537.789
537.789
537.789
537.789
537.789
540.934
545.932
552.572
560.716
570.248
581.067
593.08
606.202
620.352
635.456
651.444
668.251
685.817
704.088
723.012
742.542
762.634
783.248
804.346
813.173
792.27
771.853
751.959
732.627
713.898
695.818
678.435
661.802
645.974
631.011
616.978
603.94
591.968
581.136
571.522
563.203
556.261
550.777
546.835
544.537
544.537
544.537
544.537
544.537
544.537
544.537
547.639
552.572
559.13
567.175
576.599
587.301
599.19
612.183
626.202
641.172
657.026
673.7
691.135
709.275
728.072
747.476
767.446
787.941
808.923
819.381
798.622
778.352
758.607
739.425
720.848
702.92
685.689
669.207
653.526
638.707
624.809
611.898
600.042
589.311
579.78
571.522
564.614
559.135
555.164
552.806
552.806
552.806
552.806
552.806
552.806
552.806
555.859
560.716
567.175
575.107
584.402
594.965
606.708
619.548
633.41
648.221
663.914
680.428
697.704
715.688
734.33
753.583
773.405
793.755
814.598
826.551
805.955
785.852
766.276
747.266
728.862
711.107
694.049
677.738
662.226
647.57
633.83
621.067
609.347
598.739
589.311
581.136
574.287
568.836
564.865
562.478
562.478
562.478
562.478
562.478
562.478
562.478
565.476
570.248
576.599
584.402
593.553
603.96
615.536
628.204
641.887
656.518
672.029
688.36
705.454
723.258
741.722
760.801
780.452
800.636
821.315
834.65
814.235
794.316
774.927
756.106
737.893
720.331
703.464
687.343
672.018
657.544
643.978
631.381
619.816
609.347
600.042
591.968
585.195
579.793
575.841
573.448
573.448
573.448
573.448
573.448
573.448
573.448
576.386
581.067
587.301
594.965
603.96
614.196
625.591
638.069
651.557
665.988
681.298
697.427
714.319
731.923
750.19
769.075
788.535
808.532
829.029
843.641
823.423
803.705
784.519
765.904
747.898
730.543
713.884
697.968
682.846
668.569
655.193
642.778
631.381
621.067
611.898
603.94
597.258
591.921
588.005
585.62
585.62
585.62
585.62
585.62
585.62
585.62
588.496
593.08
599.19
606.708
615.536
625.591
636.793
649.068
662.347
676.563
691.656
707.566
724.241
741.628
759.68
778.353
797.605
817.397
837.695
853.492
833.485
813.981
795.013
776.617
758.832
741.699
725.261
709.563
694.656
680.589
667.416
655.193
643.978
633.83
624.809
616.978
610.399
605.139
601.271
598.906
598.906
598.906
598.906
598.906
598.906
598.906
601.718
606.202
612.183
619.548
628.204
638.069
649.068
661.13
674.188
688.178
703.04
718.719
735.161
752.317
770.14
788.586
807.615
827.188
847.271
864.169
844.385
825.107
806.369
788.204
770.652
753.751
737.545
722.078
707.396
693.549
680.589
668.569
657.544
647.57
638.707
631.011
624.545
619.37
615.559
613.223
613.223
613.223
613.223
613.223
613.223
613.223
615.969
620.352
626.202
633.41
641.887
651.557
662.347
674.188
687.016
700.77
715.392
730.829
747.028
763.941
781.522
799.729
818.521
837.862
857.717
875.639
856.088
837.047
818.548
800.625
783.314
766.656
750.691
735.462
721.014
707.396
694.656
682.846
672.018
662.226
653.526
645.974
639.626
634.544
630.797
628.495
628.495
628.495
628.495
628.495
628.495
628.495
631.176
635.456
641.172
648.221
656.518
665.988
676.563
688.178
700.77
714.281
728.656
743.842
759.788
776.449
793.778
811.736
830.281
849.379
868.995
887.867
868.56
849.764
831.512
813.838
796.778
780.37
764.653
749.669
735.462
722.078
709.563
697.968
687.343
677.738
669.207
661.802
655.578
650.593
646.915
644.651
644.651
644.651
644.651
644.651
644.651
644.651
647.266
651.444
657.026
663.914
672.029
681.298
691.656
703.04
715.392
728.656
742.778
757.706
773.393
789.794
806.864
824.564
842.854
861.699
881.066
900.823
881.765
863.222
845.225
827.807
811.003
794.85
779.386
764.653
750.691
737.545
725.261
713.884
703.464
694.049
685.689
678.435
672.338
667.453
663.847
661.626
661.626
661.626
661.626
661.626
661.626
661.626
664.175
668.251
673.7
680.428
688.36
697.427
707.566
718.719
730.829
743.842
757.706
772.373
787.796
803.931
820.736
838.171
856.199
874.785
893.895
914.475
895.672
877.387
859.65
842.493
825.95
810.056
794.85
780.37
766.656
753.751
741.699
730.543
720.331
711.107
702.92
695.818
689.849
685.067
681.536
679.359
679.359
679.359
679.359
679.359
679.359
679.359
681.843
685.817
691.135
697.704
705.454
714.319
724.241
735.161
747.028
759.788
773.393
787.796
802.952
818.817
835.352
852.518
870.278
888.599
907.447
928.79
910.248
892.226
874.753
857.86
841.581
825.95
811.003
796.778
783.314
770.652
758.832
747.898
737.893
728.862
720.848
713.898
708.059
703.38
699.925
697.793
697.793
697.793
697.793
697.793
697.793
697.793
700.214
704.088
709.275
715.688
723.258
731.923
741.628
752.317
763.941
776.449
789.794
803.931
818.817
834.411
850.673
867.566
885.055
903.105
921.686
943.741
925.463
907.706
890.499
873.873
857.86
842.493
827.807
813.838
800.625
788.204
776.617
765.904
756.106
747.266
739.425
732.627
726.917
722.342
718.962
716.877
716.877
716.877
716.877
716.877
716.877
716.877
719.236
723.012
728.072
734.33
741.722
750.19
759.68
770.14
781.522
793.778
806.864
820.736
835.352
850.673
866.661
883.279
900.493
918.271
936.581
959.297
941.285
923.796
906.857
890.499
874.753
859.65
845.225
831.512
818.548
806.369
795.013
784.519
774.927
766.276
758.607
751.959
746.377
741.906
738.602
736.563
736.563
736.563
736.563
736.563
736.563
736.563
738.861
742.542
747.476
753.583
760.801
769.075
778.353
788.586
799.729
811.736
824.564
838.171
852.518
867.566
883.279
899.622
916.56
934.063
952.1
975.43
957.686
940.465
923.796
907.706
892.226
877.387
863.222
849.764
837.047
825.107
813.981
803.705
794.316
785.852
778.352
771.853
766.398
762.028
758.8
756.807
756.807
756.807
756.807
756.807
756.807
756.807
759.046
762.634
767.446
773.405
780.452
788.535
797.605
807.615
818.521
830.281
842.854
856.199
870.278
885.055
900.493
916.56
933.222
950.45
968.213
992.113
974.638
957.686
941.285
925.463
910.248
895.672
881.765
868.56
856.088
844.385
833.485
823.423
814.235
805.955
798.622
792.27
786.939
782.67
779.516
777.568
777.568
777.568
777.568
777.568
777.568
777.568
779.75
783.248
787.941
793.755
800.636
808.532
817.397
827.188
837.862
849.379
861.699
874.785
888.599
903.105
918.271
934.063
950.45
967.401
984.89
1009.32
992.113
975.43
959.297
943.741
928.79
914.475
900.823
887.867
875.639
864.169
853.492
843.641
834.65
826.551
819.381
813.173
807.964
803.793
800.713
798.81
798.81
798.81
798.81
798.81
798.81
798.81
800.936
804.346
808.923
814.598
821.315
829.029
837.695
847.271
857.717
868.995
881.066
893.895
907.447
921.686
936.581
952.1
968.213
984.89
1002.1
1027.03
1010.09
993.671
977.804
962.512
947.823
933.765
920.367
907.657
895.667
884.428
873.97
864.326
855.528
847.607
840.596
834.529
829.44
825.366
822.357
820.499
820.499
820.499
820.499
820.499
820.499
820.499
822.571
825.896
830.36
835.898
842.457
849.993
858.464
867.829
878.052
889.095
900.922
913.499
926.792
940.767
955.395
970.643
986.483
1002.89
1019.83
1045.21
1028.54
1012.38
996.781
981.751
967.321
953.517
940.368
927.901
916.146
905.133
894.89
885.449
876.839
869.092
862.238
856.308
851.335
847.355
844.416
842.601
842.601
842.601
842.601
842.601
842.601
842.601
844.621
847.864
852.22
857.625
864.03
871.393
879.673
888.834
898.838
909.651
921.239
933.568
946.605
960.321
974.683
989.664
1005.23
1021.37
1038.04
1063.85
1047.44
1031.55
1016.2
1001.43
987.257
973.704
960.8
948.572
937.048
926.256
916.224
906.981
898.556
890.978
884.276
878.48
873.621
869.733
866.863
865.09
865.09
865.09
865.09
865.09
865.09
865.09
867.06
870.222
874.473
879.75
886.005
893.2
901.295
910.256
920.047
930.635
941.987
954.073
966.86
980.32
994.422
1009.14
1024.44
1040.31
1056.71
1051.65
1034.91
1018.68
1002.99
987.87
973.334
959.413
946.137
933.531
921.627
910.453
900.04
890.42
881.624
873.685
866.636
860.514
855.355
851.205
848.12
846.201
846.184
846.162
846.161
846.172
847.978
850.84
854.653
859.368
864.955
871.394
878.665
886.75
895.629
905.283
915.689
926.825
938.667
951.189
964.369
978.181
992.601
1007.6
1023.17
1039.27
1055.88
1032.7
1015.69
999.195
983.24
967.85
953.053
938.876
925.347
912.497
900.354
888.952
878.321
868.495
859.506
851.39
844.181
837.918
832.638
828.39
825.232
823.267
823.255
823.238
823.238
823.245
825.096
828.024
831.919
836.733
842.434
849.003
856.42
864.667
873.723
883.568
894.177
905.528
917.594
930.351
943.772
957.832
972.505
987.765
1003.59
1019.95
1036.83
1014.19
996.91
980.145
963.92
948.263
933.201
918.763
904.978
891.878
879.493
867.857
857.004
846.966
837.781
829.483
822.11
815.702
810.298
805.949
802.715
800.702
800.694
800.683
800.682
800.688
802.585
805.579
809.557
814.47
820.287
826.988
834.554
842.965
852.202
862.241
873.058
884.627
896.923
909.918
923.585
937.896
952.826
968.348
984.435
1001.06
1018.21
996.147
978.594
961.557
945.06
929.133
913.803
899.1
885.055
871.701
859.07
847.196
836.115
825.863
816.476
807.993
800.452
793.894
788.364
783.911
780.599
778.538
778.533
778.524
778.524
778.528
780.472
783.534
787.597
792.609
798.542
805.376
813.093
821.672
831.092
841.329
852.357
864.15
876.679
889.916
903.833
918.4
933.591
949.376
965.73
982.626
1000.04
978.594
960.768
943.456
926.686
910.485
894.885
879.914
865.607
851.995
839.114
826.999
815.686
805.215
795.622
786.949
779.237
772.527
766.866
762.307
758.916
756.805
756.802
756.796
756.796
756.799
758.792
761.921
766.068
771.18
777.23
784.198
792.067
800.816
810.422
820.86
832.103
844.123
856.889
870.372
884.542
899.369
914.823
930.876
947.499
964.666
982.35
961.557
943.456
925.869
908.824
892.349
876.476
861.236
846.662
832.79
819.656
807.295
795.748
785.054
775.252
766.386
758.498
751.633
745.84
741.173
737.701
735.539
735.537
735.534
735.534
735.535
737.578
740.776
745.005
750.216
756.382
763.485
771.507
780.427
790.222
800.864
812.326
824.575
837.582
851.315
865.742
880.831
896.551
912.874
929.768
947.208
965.164
945.06
926.686
908.824
891.503
874.753
858.605
843.094
828.253
814.119
800.728
788.12
776.335
765.414
755.401
746.339
738.273
731.25
725.322
720.545
716.991
714.778
714.777
714.775
714.775
714.776
716.869
720.134
724.445
729.753
736.034
743.271
751.447
760.54
770.525
781.374
793.057
805.539
818.79
832.775
847.461
862.815
878.804
895.397
912.565
930.278
948.507
929.133
910.485
892.349
874.753
857.728
841.306
825.523
810.413
796.014
782.366
769.508
757.483
746.334
736.106
726.845
718.599
711.417
705.353
700.465
696.827
694.563
694.562
694.561
694.561
694.562
696.705
700.037
704.427
709.829
716.223
723.593
731.923
741.19
751.367
762.425
774.33
787.049
800.545
814.785
829.732
845.352
861.611
878.477
895.918
913.905
932.407
913.803
894.885
876.476
858.605
841.306
824.611
808.556
793.177
778.514
764.607
751.498
739.232
727.853
717.409
707.948
699.52
692.178
685.976
680.976
677.255
674.94
674.939
674.939
674.938
674.939
677.133
680.528
684.993
690.485
696.989
704.49
712.973
722.414
732.784
744.052
756.182
769.138
782.883
797.379
812.588
828.476
845.006
862.144
879.859
898.118
916.893
899.1
879.915
861.236
843.094
825.523
808.556
792.23
776.583
761.656
747.491
734.131
721.623
710.014
699.353
689.692
681.082
673.578
667.238
662.127
658.324
655.957
655.957
655.956
655.956
655.957
658.202
661.657
666.19
671.767
678.375
686.005
694.639
704.253
714.817
726.296
738.652
751.847
765.841
780.593
796.066
812.221
829.022
846.432
864.419
882.949
901.994
885.056
865.607
846.662
828.253
810.413
793.177
776.583
760.671
745.482
731.06
717.45
704.701
692.862
681.986
672.124
663.332
655.668
649.192
643.97
640.085
637.669
637.669
637.669
637.669
637.669
639.964
643.473
648.068
653.722
660.429
668.183
676.966
686.752
697.509
709.199
721.782
735.216
749.458
764.468
780.203
796.625
813.694
831.375
849.632
868.431
887.742
871.701
851.995
832.79
814.119
796.014
778.514
761.656
745.482
730.034
715.358
701.501
688.514
676.447
665.357
655.297
646.325
638.503
631.892
626.563
622.599
620.135
620.135
620.135
620.135
620.135
622.477
626.033
630.679
636.401
643.2
651.073
660.001
669.958
680.907
692.807
705.615
719.287
733.778
749.043
765.04
781.726
799.062
817.01
835.533
854.597
874.17
859.07
839.114
819.656
800.728
782.366
764.607
747.491
731.06
715.358
700.432
686.332
673.111
660.821
649.52
639.265
630.118
622.14
615.399
609.965
605.926
603.418
603.418
603.418
603.418
603.418
605.805
609.397
614.081
619.859
626.741
634.726
643.796
653.92
665.059
677.167
690.2
704.109
718.845
734.364
750.618
767.566
785.164
803.375
822.159
841.483
861.313
847.197
826.999
807.296
788.12
769.508
751.498
734.131
717.45
701.501
686.332
671.996
658.546
646.038
634.532
624.088
614.77
606.643
599.777
594.245
590.136
587.589
587.589
587.589
587.589
587.589
590.016
593.63
598.335
604.154
611.109
619.199
628.405
638.693
650.018
662.333
675.587
689.729
704.708
720.476
736.984
754.188
772.043
790.51
809.55
829.127
849.206
836.116
815.687
795.748
776.335
757.483
739.232
721.623
704.701
688.514
673.111
658.546
644.875
632.157
620.453
609.828
600.347
592.078
585.095
579.473
575.302
572.722
572.722
572.722
572.722
572.722
575.184
578.8
583.505
589.348
596.363
604.551
613.887
624.334
635.841
648.358
661.829
676.2
691.417
707.428
724.184
741.637
759.742
778.459
797.746
817.567
837.887
825.864
805.215
785.054
765.414
746.334
727.853
710.014
692.862
676.447
660.821
646.038
632.157
619.239
607.348
596.551
586.917
578.518
571.428
565.726
561.504
558.9
558.9
558.9
558.9
558.9
561.388
564.98
569.659
575.508
582.57
590.845
600.305
610.904
622.589
635.302
648.984
663.578
679.025
695.272
712.268
729.962
748.308
767.264
786.788
806.842
827.393
816.477
795.623
775.253
755.401
736.106
717.409
699.353
681.986
665.357
649.52
634.532
620.453
607.348
595.283
584.327
574.553
566.036
558.853
553.086
548.827
546.213
546.213
546.213
546.213
546.213
548.715
552.248
556.869
562.7
569.795
578.149
587.724
598.47
610.325
623.228
637.114
651.921
667.59
684.064
701.288
719.212
737.788
756.971
776.72
796.997
817.764
807.994
786.95
766.386
746.339
726.845
707.948
689.692
672.124
655.297
639.265
624.088
609.828
596.551
584.327
573.228
563.331
554.713
547.455
541.64
537.363
534.755
534.755
534.755
534.755
534.755
537.255
540.683
545.207
550.999
558.113
566.534
576.217
587.102
599.119
612.202
626.282
641.293
657.172
673.861
691.301
709.442
728.233
747.63
767.589
788.073
809.043
800.453
779.237
758.498
738.273
718.599
699.52
681.082
663.332
646.325
630.118
614.77
600.347
586.917
574.553
563.331
553.33
544.631
537.319
531.481
527.21
524.633
524.633
524.633
524.633
524.633
527.108
530.365
534.75
540.479
547.599
556.079
565.861
576.875
589.045
602.297
616.559
631.76
647.836
664.723
682.365
700.706
719.696
739.29
759.443
780.116
801.272
793.896
772.528
751.634
731.251
711.418
692.178
673.578
655.668
638.503
622.14
606.643
592.078
578.518
566.036
554.713
544.631
535.876
528.537
522.704
518.472
515.961
515.961
515.961
515.961
515.961
518.378
521.374
525.575
531.222
538.337
546.867
556.739
567.872
580.182
593.59
608.019
623.394
639.649
656.718
674.541
693.064
712.234
732.005
752.332
773.175
794.497
788.366
766.867
745.841
725.323
705.353
685.976
667.238
649.192
631.892
615.399
599.777
585.095
571.428
558.853
547.455
537.319
528.537
521.202
515.411
511.262
508.871
508.871
508.871
508.871
508.871
511.179
513.787
517.761
523.314
530.418
538.991
548.944
560.183
572.62
586.167
600.743
616.274
632.686
649.915
667.898
686.58
705.908
725.833
746.312
767.303
788.769
783.913
762.308
741.174
720.546
700.465
680.976
662.127
643.97
626.563
609.965
594.245
579.473
565.726
553.086
541.64
531.481
522.704
515.411
509.706
505.7
503.519
503.519
503.519
503.519
503.519
505.633
507.67
511.395
516.855
523.947
532.558
542.581
553.913
566.457
580.123
594.826
610.487
627.033
644.396
662.513
681.328
700.786
720.84
741.444
762.558
784.143
780.601
758.917
737.701
716.991
696.827
677.255
658.324
640.085
622.599
605.926
590.136
575.302
561.504
548.827
537.363
527.21
518.472
511.262
505.7
501.927
500.143
500.143
500.143
500.143
500.143
501.884
503.086
506.585
511.971
519.057
527.702
537.783
549.189
561.82
575.579
590.381
606.144
622.794
640.261
658.482
677.399
696.958
717.11
737.81
759.017
780.694
778.541
756.807
735.54
714.779
694.563
674.94
655.957
637.669
620.135
603.418
587.589
572.722
558.9
546.213
534.755
524.633
515.961
508.871
503.519
500.143
500.143
500.143
500.143
500.143
500.143
500.143
500.143
503.519
508.871
515.961
524.633
534.755
546.213
558.9
572.722
587.589
603.418
620.135
637.669
655.957
674.94
694.563
714.779
735.54
756.807
778.541
778.541
756.807
735.54
714.779
694.563
674.94
655.957
637.669
620.135
603.418
587.589
572.722
558.9
546.213
534.755
524.633
515.961
508.871
503.519
500.143
500.143
500.143
500.143
500.143
500.143
500.143
500.143
503.519
508.871
515.961
524.633
534.755
546.213
558.9
572.722
587.589
603.418
620.135
637.669
655.957
674.94
694.563
714.779
735.54
756.807
778.541
778.541
756.807
735.54
714.779
694.563
674.94
655.957
637.669
620.135
603.418
587.589
572.722
558.9
546.213
534.755
524.633
515.961
508.871
503.519
500.143
500.143
500.143
500.143
500.143
500.143
500.143
500.143
503.519
508.871
515.961
524.633
534.755
546.213
558.9
572.722
587.589
603.418
620.135
637.669
655.957
674.94
694.563
714.779
735.54
756.807
778.541
778.541
756.807
735.54
714.779
694.563
674.94
655.957
637.669
620.135
603.418
587.589
572.722
558.9
546.213
534.755
524.633
515.961
508.871
503.519
500.143
500.143
500.143
500.143
500.143
500.143
500.143
500.143
503.519
508.871
515.961
524.633
534.755
546.213
558.9
572.722
587.589
603.418
620.135
637.669
655.957
674.94
694.563
714.779
735.54
756.807
778.541
780.485
758.8
737.583
716.872
696.707
677.134
658.202
639.964
622.477
605.805
590.016
575.184
561.388
548.715
537.255
527.108
518.378
511.179
505.633
501.884
500.143
500.143
500.143
500.143
500.143
500.143
500.143
503.519
508.871
515.961
524.633
534.755
546.213
558.9
572.722
587.589
603.418
620.135
637.669
655.957
674.94
694.563
714.779
735.54
756.807
778.541
783.635
762.028
740.892
720.262
700.181
680.692
661.843
643.688
626.282
609.688
593.973
579.208
565.469
552.841
541.41
531.269
522.516
515.254
509.588
505.633
503.519
503.519
503.519
503.519
503.519
503.519
503.519
506.869
512.182
519.223
527.837
537.896
549.286
561.904
575.653
590.446
606.202
622.846
640.308
658.525
677.438
696.994
717.143
737.841
759.046
780.72
787.898
766.398
745.37
724.851
704.882
685.506
666.772
648.73
631.437
614.952
599.342
584.675
571.026
558.475
547.105
537.005
528.266
520.983
515.254
511.179
508.871
508.871
508.871
508.871
508.871
508.871
508.871
512.182
517.434
524.4
532.927
542.89
554.176
566.685
580.322
595.002
610.644
627.173
644.523
662.629
681.433
700.883
720.929
741.527
762.634
784.214
793.223
771.853
750.959
730.578
710.748
691.513
672.92
655.02
637.868
621.522
606.045
591.506
577.976
565.531
554.253
544.224
535.532
528.266
522.516
518.378
515.961
515.961
515.961
515.961
515.961
515.961
515.961
519.223
524.4
531.271
539.687
549.526
560.679
573.048
586.542
601.075
616.569
632.952
650.155
668.116
686.779
706.09
726
746.466
767.446
788.902
799.567
778.352
757.615
737.394
717.727
698.658
680.232
662.499
645.513
629.331
614.014
599.628
586.243
573.931
562.771
552.841
544.224
537.005
531.269
527.108
524.633
524.633
524.633
524.633
524.633
524.633
524.633
527.837
532.927
539.687