<VTKFile type="ImageData" version="1.0" byte_order="LittleEndian" header_type="UInt64">
	<ImageData WholeExtent="0 71 0 78 0 86" Origin="-665.932 -734.024 -806.644" Spacing="18.7586 18.8211 18.7592">
		<Piece Extent="0 71 0 78 0 86">
			<PointData Scalars="Scalars_">
				<DataArray type="Float32" Name="Scalars_" format="ascii" RangeMin="0" RangeMax="100">
1075.26
1064.66
1054.27
1044.1
1034.15
1024.44
1014.96
1005.72
996.74
988.014
979.552
971.361
963.448
955.82
948.484
941.447
934.716
928.298
922.198
916.424
910.982
905.876
901.113
896.696
892.628
888.91
885.542
882.518
879.829
877.455
875.371
873.54
871.935
870.556
869.461
868.757
868.756
869.46
870.555
871.933
873.412
874.936
876.602
878.524
880.766
883.358
886.312
889.628
893.306
897.34
901.725
906.455
911.522
916.921
922.644
928.685
935.037
941.692
948.645
955.889
963.416
971.221
979.296
987.635
996.232
1005.08
1014.17
1023.51
1033.07
1042.87
1052.88
1063.11
1063.43
1052.72
1042.23
1031.95
1021.89
1012.07
1002.48
993.143
984.055
975.225
966.66
958.369
950.358
942.633
935.203
928.075
921.256
914.752
908.571
902.719
897.203
892.029
887.202
882.727
878.607
874.845
871.439
868.387
865.678
863.296
861.212
859.39
857.792
856.415
855.314
854.604
854.603
855.314
856.414
857.791
859.245
860.734
862.38
864.299
866.555
869.172
872.16
875.518
879.244
883.331
887.774
892.565
897.699
903.168
908.965
915.083
921.514
928.253
935.291
942.623
950.24
958.137
966.307
974.742
983.436
992.384
1001.58
1011.01
1020.68
1030.57
1040.69
1051.02
1051.8
1040.98
1030.37
1019.98
1009.82
999.885
990.192
980.745
971.55
962.616
953.948
945.555
937.444
929.622
922.097
914.876
907.967
901.376
895.112
889.181
883.59
878.346
873.454
868.919
864.746
860.938
857.494
854.411
851.682
849.29
847.208
845.395
843.809
842.435
841.329
840.612
840.612
841.328
842.435
843.808
845.231
846.683
848.309
850.229
852.5
855.144
858.167
861.568
865.342
869.483
873.985
878.84
884.041
889.581
895.452
901.648
908.161
914.983
922.108
929.528
937.237
945.227
953.491
962.023
970.816
979.862
989.157
998.692
1008.46
1018.46
1028.68
1039.12
1040.35
1029.42
1018.71
1008.21
997.933
987.892
978.091
968.536
959.234
950.194
941.422
932.926
924.714
916.794
909.172
901.857
894.857
888.178
881.83
875.819
870.151
864.835
859.877
855.281
851.054
847.197
843.713
840.599
837.849
835.447
833.366
831.564
829.991
828.623
827.513
826.791
826.791
827.513
828.623
829.99
831.377
832.791
834.398
836.32
838.608
841.281
844.34
847.785
851.609
855.805
860.366
865.285
870.555
876.166
882.113
888.388
894.982
901.889
909.102
916.611
924.412
932.496
940.856
949.485
958.377
967.524
976.92
986.557
996.431
1006.53
1016.86
1027.4
1029.11
1018.07
1007.24
996.63
986.247
976.096
966.185
956.522
947.113
937.966
929.089
920.49
912.176
904.155
896.436
889.026
881.933
875.166
868.732
862.638
856.894
851.505
846.478
841.82
837.536
833.631
830.105
826.959
824.186
821.773
819.693
817.902
816.346
814.987
813.874
813.146
813.146
813.873
814.987
816.345
817.691
819.064
820.654
822.581
824.888
827.59
830.688
834.177
838.051
842.303
846.925
851.909
857.248
862.932
868.956
875.31
881.987
888.979
896.279
903.88
911.773
919.952
928.408
937.136
946.127
955.375
964.873
974.613
984.59
994.797
1005.23
1015.87
1018.07
1006.92
995.98
985.259
974.765
964.504
954.484
944.711
935.194
925.939
916.956
908.252
899.835
891.714
883.896
876.39
869.203
862.346
855.825
849.649
843.825
838.362
833.266
828.545
824.203
820.247
816.678
813.498
810.701
808.276
806.196
804.419
802.881
801.535
800.42
799.688
799.688
800.419
801.535
802.881
804.18
805.511
807.087
809.02
811.348
814.081
817.218
820.753
824.678
828.987
833.67
838.72
844.128
849.886
855.986
862.421
869.181
876.26
883.649
891.34
899.327
907.601
916.155
924.981
934.072
943.422
953.022
962.866
972.947
983.259
993.794
1004.55
1007.24
995.982
984.932
974.1
963.495
953.123
942.992
933.11
923.484
914.122
905.032
896.222
887.702
879.478
871.56
863.957
856.677
849.727
843.119
836.858
830.954
825.416
820.249
815.463
811.063
807.055
803.442
800.226
797.403
794.964
792.885
791.122
789.606
788.275
787.159
786.424
786.423
787.159
788.275
789.606
790.852
792.142
793.705
795.646
797.997
800.762
803.939
807.521
811.498
815.864
820.609
825.725
831.204
837.036
843.214
849.729
856.573
863.739
871.217
879
887.081
895.451
904.102
913.028
922.22
931.671
941.375
951.322
961.508
971.925
982.565
993.423
996.637
985.264
974.102
963.16
952.444
941.961
931.719
921.727
911.991
902.52
893.323
884.407
875.782
867.456
859.438
851.736
844.36
837.319
830.621
824.275
818.29
812.675
807.437
802.584
798.124
794.063
790.404
787.151
784.302
781.848
779.769
778.02
776.528
775.216
774.102
773.363
773.363
774.102
775.216
776.528
777.716
778.964
780.517
782.469
784.844
787.643
790.861
794.49
798.52
802.944
807.751
812.934
818.483
824.39
830.646
837.243
844.172
851.424
858.993
866.868
875.043
883.509
892.259
901.284
910.578
920.131
929.938
939.99
950.28
960.802
971.548
982.512
986.256
974.772
963.499
952.446
941.618
931.024
920.672
910.569
900.723
891.143
881.838
872.816
864.086
855.656
847.537
839.736
832.264
825.129
818.341
811.909
805.842
800.149
794.838
789.918
785.397
781.281
777.575
774.284
771.407
768.937
766.855
765.121
763.657
762.368
761.257
760.515
760.515
761.257
762.368
763.656
764.779
765.988
767.534
769.499
771.9
774.733
777.993
781.669
785.753
790.235
795.106
800.356
805.976
811.958
818.292
824.971
831.984
839.325
846.983
854.952
863.221
871.784
880.633
889.758
899.152
908.808
918.718
928.875
939.27
949.897
960.749
971.819
976.108
964.513
953.13
941.965
931.026
920.321
909.858
899.644
889.689
880
870.586
861.457
852.621
844.088
835.866
827.966
820.397
813.168
806.289
799.77
793.619
787.847
782.463
777.475
772.891
768.719
764.965
761.634
758.727
756.24
754.155
752.435
751.001
749.74
748.635
747.891
747.891
748.635
749.74
751.001
752.053
753.224
754.767
756.747
759.174
762.043
765.345
769.069
773.207
777.747
782.681
787.999
793.691
799.748
806.161
812.922
820.021
827.449
835.198
843.259
851.624
860.284
869.231
878.456
887.952
897.711
907.724
917.985
928.485
939.218
950.175
961.351
966.199
954.495
943.001
931.726
920.676
909.86
899.286
888.961
878.896
869.097
859.575
850.339
841.397
832.759
824.435
816.435
808.768
801.444
794.474
787.866
781.632
775.781
770.321
765.264
760.616
756.388
752.585
749.213
746.275
743.768
741.679
739.973
738.57
737.343
736.245
735.501
735.501
736.245
737.343
738.57
739.547
740.684
742.225
744.222
746.678
749.583
752.927
756.701
760.892
765.491
770.488
775.874
781.637
787.77
794.262
801.105
808.289
815.805
823.645
831.799
840.259
849.016
858.062
867.388
876.985
886.846
896.963
907.328
917.933
928.771
939.834
951.115
956.539
944.725
933.121
921.735
910.575
899.648
888.963
878.529
868.353
858.445
848.815
839.471
830.423
821.68
813.254
805.153
797.388
789.969
782.906
776.21
769.891
763.959
758.424
753.297
748.585
744.298
740.445
737.031
734.06
731.533
729.439
727.746
726.376
725.187
724.1
723.356
723.356
724.1
725.187
726.376
727.272
728.379
729.922
731.938
734.422
737.364
740.751
744.573
748.819
753.477
758.537
763.99
769.825
776.033
782.604
789.529
796.799
804.403
812.334
820.581
829.136
837.99
847.134
856.56
866.259
876.223
886.443
896.912
907.622
918.564
929.732
941.118
947.132
935.21
923.497
912.002
900.731
889.695
878.9
868.355
858.07
848.053
838.314
828.863
819.708
810.861
802.332
794.13
786.266
778.751
771.596
764.811
758.407
752.394
746.783
741.584
736.808
732.463
728.558
725.1
722.096
719.547
717.445
715.763
714.429
713.283
712.21
711.467
711.467
712.21
713.283
714.429
715.24
716.321
717.87
719.906
722.419
725.398
728.829
732.7
736.999
741.715
746.839
752.359
758.266
764.549
771.199
778.206
785.56
793.253
801.273
809.614
818.264
827.215
836.457
845.983
855.783
865.849
876.172
886.745
897.558
908.605
919.877
931.368
937.989
925.959
914.138
902.533
891.154
880.008
869.103
858.449
848.055
837.929
828.082
818.524
809.263
800.312
791.679
783.377
775.414
767.804
760.556
753.681
747.191
741.097
735.409
730.139
725.297
720.892
716.935
713.434
710.395
707.821
705.71
704.039
702.74
701.644
700.587
699.848
699.848
700.587
701.644
702.74
703.465
704.525
706.081
708.138
710.682
713.698
717.171
721.09
725.443
730.218
735.404
740.991
746.969
753.327
760.055
767.144
774.583
782.363
790.474
798.907
807.651
816.699
826.04
835.665
845.566
855.733
866.159
876.834
887.751
898.901
910.278
921.872
929.116
916.979
905.051
893.339
881.851
870.596
859.583
848.82
838.318
828.084
818.13
808.464
799.098
790.042
781.307
772.904
764.843
757.136
749.795
742.831
736.255
730.08
724.315
718.973
714.065
709.6
705.59
702.044
698.969
696.371
694.248
692.586
691.322
690.281
689.245
688.511
688.511
689.245
690.281
691.322
691.959
693.003
694.57
696.649
699.222
702.275
705.791
709.759
714.164
718.997
724.245
729.898
735.946
742.378
749.185
756.354
763.878
771.745
779.946
788.47
797.309
806.452
815.891
825.615
835.616
845.884
856.412
867.189
878.209
889.462
900.941
912.638
920.52
908.278
896.244
884.426
872.831
861.469
850.349
839.478
828.868
818.527
808.466
798.694
789.224
780.064
771.227
762.723
754.564
746.762
739.328
732.274
725.612
719.355
713.513
708.099
703.124
698.6
694.536
690.944
687.832
685.208
683.073
681.416
680.187
679.207
678.197
677.469
677.469
678.197
679.207
680.187
680.737
681.771
683.349
685.451
688.055
691.144
694.702
698.717
703.174
708.063
713.373
719.092
725.209
731.715
738.598
745.848
753.455
761.409
769.698
778.314
787.246
796.485
806.02
815.842
825.942
836.311
846.939
857.818
868.939
880.294
891.875
903.673
912.211
899.866
887.727
875.804
864.104
852.636
841.409
830.432
819.715
809.268
799.102
789.225
779.65
770.387
761.448
752.845
744.588
736.691
729.165
722.022
715.275
708.936
703.017
697.531
692.489
687.904
683.787
680.149
677
674.348
672.199
670.546
669.35
668.437
667.455
666.736
666.736
667.455
668.437
669.35
669.816
670.843
672.434
674.559
677.193
680.318
683.917
687.978
692.486
697.431
702.801
708.584
714.77
721.348
728.307
735.637
743.326
751.365
759.743
768.449
777.474
786.806
796.437
806.357
816.555
827.023
837.75
848.729
859.951
871.406
883.088
894.986
904.196
891.749
879.508
867.482
855.678
844.105
832.774
821.692
810.87
800.319
790.047
780.067
770.389
761.024
751.985
743.282
734.929
726.937
719.319
712.087
705.255
698.835
692.84
687.282
682.174
677.529
673.358
669.674
666.486
663.807
661.641
659.99
658.824
657.983
657.035
656.328
656.328
657.035
657.983
658.824
659.21
660.235
661.841
663.988
666.652
669.811
673.451
677.556
682.114
687.113
692.542
698.388
704.641
711.29
718.324
725.731
733.502
741.625
750.09
758.885
768.001
777.427
787.153
797.168
807.463
818.028
828.855
839.932
851.253
862.808
874.588
886.586
896.483
883.936
871.595
859.468
847.562
835.887
824.453
813.268
802.343
791.688
781.314
771.231
761.451
751.986
742.847
734.047
725.598
717.513
709.804
702.484
695.568
689.067
682.996
677.366
672.193
667.488
663.263
659.533
656.307
653.599
651.416
649.764
648.626
647.861
646.952
646.258
646.258
646.952
647.861
648.626
648.938
649.964
651.585
653.755
656.446
659.639
663.317
667.465
672.071
677.123
682.608
688.516
694.834
701.553
708.66
716.144
723.995
732.201
740.751
749.634
758.84
768.357
778.176
788.286
798.677
809.338
820.261
831.436
842.854
854.506
866.384
878.479
889.08
876.437
863.998
851.771
839.766
827.991
816.455
805.17
794.143
783.387
772.912
762.729
752.849
743.285
734.049
725.152
716.609
708.431
700.632
693.226
686.226
679.646
673.499
667.8
662.561
657.796
653.519
649.743
646.479
643.741
641.541
639.886
638.772
638.087
637.222
636.544
636.544
637.222
638.087
638.772
639.017
640.047
641.683
643.874
646.592
649.816
653.531
657.72
662.372
667.474
673.014
678.981
685.363
692.149
699.328
706.887
714.816
723.103
731.737
740.707
750
759.608
769.518
779.721
790.205
800.961
811.979
823.25
834.763
846.511
858.484
870.674
881.996
869.258
856.724
844.401
832.298
820.426
808.792
797.408
786.282
775.427
764.853
754.572
744.594
734.933
725.601
716.61
707.973
699.705
691.818
684.327
677.245
670.587
664.366
658.597
653.294
648.471
644.142
640.32
637.019
634.252
632.033
630.373
629.279
628.675
627.86
627.202
627.202
627.86
628.675
629.279
629.465
630.501
632.151
634.363
637.106
640.36
644.108
648.336
653.031
658.181
663.774
669.798
676.241
683.093
690.341
697.973
705.978
714.344
723.06
732.114
741.494
751.19
761.19
771.483
782.059
792.908
804.019
815.383
826.99
838.831
850.897
863.18
875.24
862.41
849.783
837.366
825.17
813.202
801.473
789.992
778.771
767.819
757.149
746.771
736.698
726.942
717.516
708.433
699.706
691.349
683.376
675.802
668.64
661.904
655.611
649.774
644.409
639.528
635.148
631.281
627.943
625.148
622.91
621.244
620.165
619.644
618.883
618.249
618.249
618.883
619.644
620.165
620.303
621.346
623.009
625.239
628.004
631.285
635.064
639.328
644.063
649.258
654.901
660.979
667.482
674.396
681.711
689.414
697.493
705.936
714.732
723.868
733.332
743.114
753.201
763.583
774.249
785.188
796.39
807.844
819.543
831.475
843.632
856.005
868.818
855.9
843.184
830.677
818.389
806.329
794.507
782.934
771.619
760.574
749.81
739.339
729.174
719.326
709.809
700.636
691.82
683.377
675.32
667.664
660.424
653.614
647.251
641.348
635.921
630.985
626.555
622.645
619.271
616.448
614.191
612.518
611.451
611.011
610.31
609.703
609.703
610.31
611.011
611.451
611.549
612.598
614.274
616.519
619.305
622.609
626.416
630.712
635.484
640.721
646.41
652.54
659.098
666.073
673.452
681.223
689.374
697.892
706.764
715.98
725.526
735.391
745.563
756.031
766.784
777.811
789.101
800.644
812.431
824.451
836.697
849.157
862.74
849.738
836.935
824.341
811.965
799.817
787.906
776.243
764.839
753.703
742.849
732.288
722.033
712.096
702.491
693.231
684.33
675.803
667.665
659.93
652.614
645.733
639.3
633.333
627.847
622.858
618.38
614.429
611.021
608.171
605.896
604.215
603.157
602.795
602.158
601.582
601.582
602.158
602.795
603.157
603.223
604.279
605.965
608.223
611.025
614.348
618.179
622.504
627.309
632.584
638.316
644.494
651.105
658.137
665.577
673.414
681.633
690.222
699.169
708.462
718.087
728.033
738.287
748.839
759.676
770.787
782.163
793.792
805.664
817.77
830.1
842.646
857.015
843.931
831.046
818.369
805.909
793.676
781.68
769.931
758.44
747.218
736.277
725.63
715.288
705.266
695.576
686.232
677.249
668.642
660.426
652.615
645.226
638.275
631.777
625.749
620.206
615.165
610.642
606.652
603.212
600.337
598.044
596.356
595.304
595.014
594.446
593.906
593.906
594.446
595.014
595.304
595.347
596.408
598.101
600.369
603.182
606.521
610.371
614.719
619.554
624.862
630.634
636.856
643.516
650.602
658.1
665.998
674.283
682.941
691.96
701.326
711.027
721.051
731.384
742.016
752.934
764.128
775.586
787.297
799.252
811.44
823.852
836.48
851.649
838.488
825.525
812.769
800.229
787.916
775.838
764.007
752.434
741.129
730.106
719.376
708.952
698.848
689.077
679.653
670.592
661.908
653.617
645.734
638.276
631.258
624.698
618.611
613.015
607.925
603.359
599.333
595.863
592.965
590.657
588.962
587.915
587.691
587.193
586.693
586.693
587.193
587.691
587.915
587.941
589.005
590.703
592.976
595.796
599.145
603.009
607.376
612.234
617.572
623.378
629.64
636.345
643.481
651.034
658.99
667.337
676.06
685.147
694.584
704.358
714.456
724.865
735.574
746.57
757.842
769.379
781.169
793.203
805.47
817.961
830.666
846.652
833.418
820.381
807.55
794.935
782.545
770.391
758.482
746.831
735.449
724.347
713.539
703.037
692.855
683.008
673.508
664.373
655.616
647.254
639.302
631.778
624.698
618.079
611.937
606.291
601.156
596.551
592.491
588.994
586.076
583.756
582.055
581.012
580.845
580.421
579.965
579.965
580.421
580.845
581.012
581.027
582.092
583.79
586.062
588.884
592.237
596.108
600.488
605.365
610.727
616.563
622.86
629.607
636.788
644.391
652.403
660.808
669.593
678.745
688.248
698.091
708.26
718.742
729.524
740.594
751.941
763.553
775.418
787.527
799.869
812.435
825.215
842.031
828.729
815.623
802.723
790.037
777.575
765.349
753.368
741.643
730.187
719.012
708.13
697.556
687.301
677.381
667.811
658.605
649.78
641.352
633.336
625.75
618.612
611.938
605.745
600.052
594.877
590.235
586.145
582.625
579.69
577.361
575.658
574.619
574.501
574.149
573.741
573.741
574.149
574.501
574.619
574.627
575.691
577.383
579.649
582.464
585.814
589.687
594.073
598.962
604.342
610.203
616.531
623.314
630.537
638.187
646.249
654.709
663.552
672.764
682.331
692.239
702.475
713.025
723.876
735.017
746.434
758.117
770.054
782.234
794.647
807.284
820.133
837.795
824.43
811.26
798.294
785.543
773.015
760.722
748.673
736.881
725.357
714.113
703.163
692.52
682.198
672.211
662.575
653.304
644.416
635.926
627.851
620.208
613.016
606.292
600.053
594.318
589.105
584.432
580.317
576.776
573.829
571.494
569.792
568.761
568.681
568.399
568.044
568.044
568.399
568.681
568.761
568.765
569.822
571.503
573.754
576.555
579.893
583.759
588.145
593.039
598.433
604.313
610.667
617.482
624.742
632.434
640.542
649.052
657.949
667.217
676.843
686.813
697.111
707.725
718.642
729.848
741.332
753.082
765.086
777.333
789.813
802.515
815.431
833.952
820.529
807.3
794.275
781.463
768.875
756.52
744.409
732.554
720.968
709.661
698.649
687.943
677.559
667.511
657.814
648.484
639.537
630.991
622.862
615.168
607.927
601.157
594.877
589.105
583.86
579.16
575.024
571.469
568.514
566.178
564.482
563.461
563.41
563.195
562.896
562.896
563.195
563.41
563.461
563.463
564.51
566.171
568.398
571.174
574.491
578.342
582.719
587.612
593.013
598.907
605.281
612.123
619.415
627.145
635.295
643.851
652.797
662.118
671.798
681.824
692.181
702.855
713.832
725.1
736.645
748.457
760.523
772.833
785.375
798.139
811.116
830.509
817.034
803.752
790.673
777.807
765.163
752.753
740.586
728.675
717.032
705.669
694.599
683.837
673.397
663.293
653.542
644.158
635.16
626.563
618.386
610.646
603.362
596.552
590.236
584.432
579.16
574.439
570.287
566.723
563.766
561.435
559.75
558.745
558.716
558.56
558.319
558.319
558.56
558.716
558.745
558.746
559.776
561.407
563.597
566.337
569.622
573.448
577.808
582.694
588.094
593.997
600.387
607.25
614.571
622.333
630.521
639.118
648.109
657.477
667.208
677.285
687.696
698.424
709.457
720.781
732.384
744.253
756.377
768.743
781.342
794.164
807.197
827.476
813.954
800.625
787.499
774.584
761.891
749.431
737.215
725.254
713.56
702.147
691.027
680.215
669.725
659.572
649.772
640.342
631.297
622.656
614.437
606.657
599.336
592.493
586.147
580.317
575.024
570.287
566.125
562.559
559.606
557.286
555.621
554.64
554.624
554.52
554.337
554.337
554.52
554.624
554.64
554.64
555.645
557.231
559.37
562.059
565.3
569.091
573.426
578.296
583.691
589.596
595.996
602.877
610.22
618.011
626.232
634.866
643.896
653.308
663.083
673.208
683.667
694.445
705.529
716.905
728.559
740.48
752.656
765.075
777.725
790.598
803.683
824.861
811.298
797.929
784.76
771.804
759.069
746.566
734.306
722.301
710.564
699.107
687.944
677.089
666.556
656.361
646.519
637.048
627.965
619.286
611.031
603.218
595.867
588.996
582.626
576.777
571.469
566.723
562.559
558.996
556.055
553.755
552.119
551.174
551.167
551.104
550.978
550.978
551.104
551.167
551.174
551.174
552.141
553.663
555.729
558.351
561.535
565.28
569.582
574.431
579.814
585.716
592.122
599.015
606.378
614.192
622.441
631.107
640.173
649.622
659.438
669.605
680.107
690.93
702.059
713.48
725.181
737.149
749.371
761.836
774.533
787.452
800.582
822.673
809.077
795.673
782.47
769.478
756.707
744.168
731.872
719.831
708.057
696.564
685.364
674.472
663.904
653.674
643.798
634.294
625.178
616.469
608.185
600.346
592.971
586.079
579.692
573.831
568.515
563.766
559.606
556.055
553.134
550.865
549.271
548.379
548.377
548.345
548.271
548.271
548.345
548.377
548.379
548.379
549.29
550.719
552.688
555.222
558.334
562.024
566.285
571.107
576.473
582.369
588.777
595.679
603.056
610.89
619.163
627.856
636.953
646.435
656.285
666.489
677.028
687.89
699.058
710.52
722.261
734.27
746.532
759.038
771.776
784.735
797.905
820.926
807.302
793.87
780.639
767.619
754.82
742.252
729.927
717.857
706.054
694.531
683.303
672.382
661.786
651.528
641.625
632.095
622.954
614.222
605.917
598.058
590.666
583.761
577.363
571.496
566.179
561.435
557.286
553.756
550.866
548.64
547.107
546.298
546.297
546.286
546.256
546.256
546.286
546.297
546.298
546.298
547.122
548.411
550.248
552.673
555.7
559.327
563.543
568.333
573.681
579.567
585.974
592.881
600.269
608.119
616.411
625.128
634.25
643.759
653.639
663.873
674.445
685.34
696.542
708.037
719.813
731.856
744.153
756.693
769.465
782.458
795.662
819.636
805.992
792.54
779.288
766.247
753.426
740.837
728.491
716.399
704.575
693.031
681.782
670.84
660.223
649.945
640.023
630.475
621.317
612.569
604.249
596.378
588.975
582.063
575.662
569.794
564.483
559.751
555.621
552.119
549.271
547.107
545.662
545
545
545
545
545
545
545
545
545
545.672
546.739
548.399
550.696
553.631
557.192
561.361
566.12
571.448
577.324
583.728
590.638
598.035
605.897
614.205
622.939
632.082
641.614
651.518
661.777
672.375
683.296
694.525
706.048
717.852
729.922
742.248
754.816
767.616
780.636
793.867
818.839
805.182
791.718
778.453
765.399
752.566
739.963
727.604
715.499
703.662
692.105
680.842
669.889
659.259
648.969
639.036
629.477
620.309
611.552
603.225
595.348
587.941
581.027
574.627
568.765
563.463
558.746
554.64
551.174
548.379
546.298
545
545
545
545
545
545
545
545
545
545
545
545.662
547.107
549.271
552.119
555.621
559.751
564.483
569.794
575.662
582.063
588.975
596.378
604.249
612.569
621.317
630.475
640.023
649.945
660.223
670.84
681.782
693.031
704.575
716.399
728.491
740.837
753.426
766.247
779.288
792.54
818.839
805.182
791.718
778.453
765.399
752.566
739.963
727.604
715.499
703.662
692.105
680.842
669.889
659.259
648.969
639.036
629.477
620.309
611.552
603.225
595.348
587.941
581.027
574.627
568.765
563.463
558.746
554.64
551.174
548.379
546.298
545
545
545
545
545
545
545
545
545
545
545
545
546.298
548.379
551.174
554.64
558.746
563.463
568.765
574.627
581.027
587.941
595.348
603.225
611.552
620.309
629.477
639.036
648.969
659.259
669.889
680.842
692.105
703.662
715.499
727.604
739.963
752.566
765.399
778.453
791.718
818.839
805.182
791.718
778.453
765.399
752.566
739.963
727.604
715.499
703.662
692.105
680.842
669.889
659.259
648.969
639.036
629.477
620.309
611.552
603.225
595.348
587.941
581.027
574.627
568.765
563.463
558.746
554.64
551.174
548.379
546.298
545
545
545
545
545
545
545
545
545
545
545
545
546.298
548.379
551.174
554.64
558.746
563.463
568.765
574.627
581.027
587.941
595.348
603.225
611.552
620.309
629.477
639.036
648.969
659.259
669.889
680.842
692.105
703.662
715.499
727.604
739.963
752.566
765.399
778.453
791.718
818.839
805.182
791.718
778.453
765.399
752.566
739.963
727.604
715.499
703.662
692.105
680.842
669.889
659.259
648.969
639.036
629.477
620.309
611.552
603.225
595.348
587.941
581.027
574.627
568.765
563.463
558.746
554.64
551.174
548.379
546.298
545
545
545
545
545
545
545
545
545
545
545
545
546.298
548.379
551.174
554.64
558.746
563.463
568.765
574.627
581.027
587.941
595.348
603.225
611.552
620.309
629.477
639.036
648.969
659.259
669.889
680.842
692.105
703.662
715.499
727.604
739.963
752.566
765.399
778.453
791.718
818.839
805.182
791.718
778.453
765.399
752.566
739.963
727.604
715.499
703.662
692.105
680.842
669.889
659.259
648.969
639.036
629.477
620.309
611.552
603.225
595.348
587.941
581.027
574.627
568.765
563.463
558.746
554.64
551.174
548.379
546.298
545
545
545
545
545
545
545
545
545
545
545
545.672
547.122
549.29
552.141
555.645
559.776
564.51
569.822
575.691
582.092
589.005
596.408
604.28
612.6
621.348
630.506
640.055
649.977
660.255
670.872
681.813
693.063
704.607
716.431
728.522
740.868
753.457
766.278
779.319
792.57
819.636
805.992
792.54
779.288
766.247
753.426
740.837
728.491
716.399
704.575
693.031
681.782
670.84
660.223
649.945
640.023
630.475
621.317
612.569
604.249
596.378
588.975
582.063
575.662
569.794
564.483
559.751
555.621
552.119
549.271
547.107
545.662
545
545
545
545
545
545
545
545
545
545
546.136
547.919
550.326
553.347
556.976
561.198
565.998
571.359
577.261
583.686
590.614
598.025
605.899
614.217
622.96
632.109
641.647
651.556
661.82
672.421
683.346
694.578
706.103
717.908
729.981
742.307
754.877
767.678
780.699
793.931
820.911
807.286
793.853
780.621
767.599
754.798
742.228
729.901
717.828
706.022
694.497
683.265
672.34
661.739
651.476
641.567
632.029
622.881
614.138
605.821
597.949
590.539
583.614
577.191
571.291
565.934
561.139
556.923
553.302
550.289
547.894
546.124
545
545
545
545
545
545
545
545
545
545
546.286
548.317
551
554.288
558.151
562.571
567.534
573.024
579.03
585.535
592.524
599.981
607.888
616.228
624.985
634.141
643.68
653.585
663.84
674.431
685.341
696.557
708.064
719.85
731.902
744.207
756.754
769.532
782.53
795.739
822.621
809.021
795.613
782.405
769.408
756.631
744.086
731.783
719.734
707.951
696.447
685.236
674.332
663.749
653.502
643.608
634.082
624.941
616.204
607.887
600.008
592.587
585.641
579.19
573.251
567.843
562.982
558.687
554.971
551.851
549.345
547.475
546.298
546.298
546.298
546.298
546.298
546.298
546.298
546.298
546.298
546.298
547.585
549.636
552.369
555.736
559.7
564.232
569.31
574.912
581.019
587.615
594.681
602.203
610.163
618.545
627.333
636.512
646.066
655.979
666.236
676.824
687.727
698.932
710.425
722.195
734.228
746.512
759.037
771.792
784.766
797.95
824.746
811.175
797.796
784.618
771.65
758.903
746.387
734.112
722.091
710.336
698.858
687.672
676.792
666.23
656.003
646.125
636.613
627.483
618.751
610.436
602.554
595.123
588.161
581.686
575.716
570.268
565.361
561.011
557.236
554.056
551.493
549.58
548.379
548.379
548.379
548.379
548.379
548.379
548.379
548.379
548.379
548.379
549.663
551.715
554.459
557.848
561.847
566.426
571.559
577.22
583.39
590.047
597.171
604.746
612.753
621.176
629.998
639.204
648.778
658.705
668.97
679.561
690.462
701.661
713.144
724.9
736.917
749.183
761.688
774.42
787.37
800.529
827.271
813.734
800.39
787.246
774.313
761.599
749.117
736.876
724.887
713.163
701.717
690.56
679.707
669.171
658.968
649.111
639.618
630.503
621.782
613.474
605.594
598.161
591.192
584.704
578.716
573.245
568.31
563.929
560.121
556.91
554.319
552.385
551.174
551.174
551.174
551.174
551.174
551.174
551.174
551.174
551.174
551.174
552.452
554.497
557.237
560.626
564.631
569.221
574.371
580.055
586.251
592.936
600.09
607.694
615.729
624.177
633.021
642.246
651.834
661.771
672.043
682.635
693.534
704.727
716.202
727.946
739.948
752.196
764.681
777.391
790.318
803.451
830.186
816.689
803.384
790.279
777.385
764.711
752.267
740.064
728.113
716.426
705.015
693.893
683.073
672.568
662.394
652.564
643.095
634.001
625.299
617.006
609.137
601.711
594.745
588.256
582.263
576.784
571.838
567.444
563.623
560.398
557.796
555.854
554.64
554.64
554.64
554.64
554.64
554.64
554.64
554.64
554.64
554.64
555.91
557.944
560.671
564.049
568.044
572.626
577.771
583.453
589.649
596.337
603.496
611.105
619.146
627.6
636.45
645.678
655.268
665.206
675.475
686.062
696.954
708.137
719.6
731.329
743.313
755.543
768.006
780.693
793.595
806.702
833.486
820.033
806.771
793.711
780.861
768.231
755.83
743.671
731.762
720.117
708.747
697.665
686.884
676.417
666.278
656.482
647.044
637.979
629.303
621.032
613.184
605.775
598.823
592.345
586.359
580.885
575.942
571.549
567.727
564.501
561.899
559.958
558.746
558.746
558.746
558.746
558.746
558.746
558.746
558.746
558.746
558.746
560.006
562.025
564.735
568.093
572.068
576.63
581.756
587.419
593.598
600.27
607.414
615.01
623.038
631.48
640.318
649.534
659.112
669.036
679.291
689.864
700.739
711.905
723.348
735.056
747.018
759.224
771.662
784.323
797.197
810.275
837.163
823.758
810.546
797.535
784.734
772.153
759.801
747.69
735.83
724.233
712.91
701.873
691.137
680.713
670.616
660.86
651.461
642.432
633.79
625.551
617.732
610.35
603.421
596.964
590.997
585.539
580.61
576.228
572.417
569.199
566.605
564.67
563.463
563.463
563.463
563.463
563.463
563.463
563.463
563.463
563.463
563.463
564.711
566.714
569.402
572.736
576.683
581.217
586.312
591.946
598.094
604.737
611.851
619.419
627.419
635.833
644.644
653.833
663.385
673.283
683.512
694.058
704.907
716.045
727.46
739.139
751.073
763.248
775.655
788.285
801.126
814.172
841.212
827.861
814.702
801.745
788.998
776.471
764.174
752.117
740.311
728.766
717.496
706.512
695.826
685.452
675.404
665.695
656.341
647.356
638.756
630.557
622.776
615.428
608.532
602.105
596.166
590.733
585.826
581.465
577.672
574.47
571.889
569.965
568.765
568.765
568.765
568.765
568.765
568.765
568.765
568.765
568.765
568.765
570.001
571.985
574.649
577.953
581.868
586.367
591.425
597.02
603.128
609.73
616.804
624.331
632.291
640.665
649.436
658.586
668.099
677.959
688.15
698.658
709.469
720.57
731.947
743.59
755.485
767.623
779.993
792.584
805.388
818.394
845.628
832.335
819.235
806.337
793.649
781.181
768.943
756.945
745.198
733.713
722.501
711.574
700.945
690.628
680.634
670.98
661.678
652.744
644.193
636.041
628.304
621
614.144
607.756
601.852
596.452
591.575
587.241
583.472
580.292
577.728
575.818
574.627
574.627
574.627
574.627
574.627
574.627
574.627
574.627
574.627
574.627
575.85
577.813
580.45
583.723
587.601
592.06
597.075
602.624
608.685
615.239
622.263
629.74
637.649
645.973
654.694
663.794
673.257
683.068
693.21
703.67
714.434
725.487
736.818
748.414
760.264
772.357
784.681
797.227
809.986
822.948
850.405
837.175
824.138
811.303
798.68
786.276
774.102
762.169
750.486
739.065
727.917
717.053
706.487
696.232
686.3
676.705
667.462
658.585
650.09
641.992
634.307
627.053
620.245
613.901
608.04
602.679
597.838
593.537
589.798
586.643
584.1
582.207
581.027
581.027
581.027
581.027
581.027
581.027
581.027
581.027
581.027
581.027
582.236
584.177
586.785
590.023
593.861
598.276
603.243
608.741
614.749
621.247
628.215
635.634
643.485
651.75
660.411
669.453
678.857
688.609
698.694
709.097
719.803
730.801
742.076
753.618
765.414
777.453
789.724
802.218
814.925
827.836
855.538
842.375
829.406
816.639
804.084
791.749
779.645
767.781
756.167
744.815
733.736
722.942
712.444
702.256
692.391
682.862
673.684
664.87
656.437
648.399
640.772
633.573
626.819
620.526
614.712
609.397
604.597
600.334
596.628
593.502
590.984
589.109
587.941
587.941
587.941
587.941
587.941
587.941
587.941
587.941
587.941
587.941
589.135
591.053
593.63
596.831
600.627
604.994
609.91