<VTKFile type="ImageData" version="1.0" byte_order="LittleEndian" header_type="UInt64">
	<ImageData WholeExtent="0 57 0 58 0 58" Origin="-1.90079 -1.99542 -1.72672" Spacing="0.0666944 0.0665168 0.0664322">
		<Piece Extent="0 57 0 58 0 58">
			<PointData Scalars="Scalars_">
				<DataArray type="Float32" Name="Scalars_" format="ascii" RangeMin="0" RangeMax="100">
3.84372
3.80761
3.77254
3.73857
3.70573
3.67406
3.64361
3.61444
3.58657
3.56006
3.53497
3.51133
3.4892
3.46864
3.44968
3.43239
3.41682
3.40302
3.39106
3.381
3.37292
3.36692
3.36319
3.36673
3.37248
3.38026
3.38998
3.40157
3.41414
3.4004
3.38845
3.3784
3.37032
3.36432
3.3606
3.36432
3.37032
3.37839
3.38844
3.40039
3.41416
3.4297
3.44696
3.46586
3.48637
3.50843
3.53199
3.55699
3.58338
3.61112
3.64016
3.67044
3.70193
3.73457
3.76833
3.80315
3.83901
3.87585
3.8041
3.76752
3.73198
3.69754
3.66424
3.63212
3.60122
3.5716
3.5433
3.51638
3.49088
3.46685
3.44434
3.42342
3.40413
3.38653
3.37067
3.35662
3.34443
3.33417
3.32593
3.31981
3.31601
3.3196
3.32543
3.33332
3.34319
3.35497
3.36778
3.3538
3.34162
3.33138
3.32314
3.31703
3.31323
3.31703
3.32314
3.33137
3.34161
3.35378
3.36781
3.38363
3.40119
3.42043
3.44129
3.46371
3.48765
3.51304
3.53984
3.568
3.59746
3.62817
3.66009
3.69317
3.72737
3.76263
3.79893
3.83621
3.7654
3.72835
3.69235
3.65744
3.62367
3.59109
3.55974
3.52968
3.50094
3.47359
3.44768
3.42325
3.40037
3.37908
3.35945
3.34153
3.32539
3.31107
3.29865
3.2882
3.27979
3.27355
3.26967
3.2733
3.27921
3.28722
3.29724
3.30919
3.32226
3.30804
3.29563
3.28518
3.27679
3.27055
3.26668
3.27055
3.27679
3.28518
3.29561
3.30801
3.3223
3.3384
3.35627
3.37584
3.39705
3.41985
3.44417
3.46996
3.49717
3.52574
3.55563
3.58677
3.61913
3.65264
3.68728
3.72298
3.75971
3.79743
3.72767
3.69014
3.65367
3.61829
3.58406
3.55102
3.51922
3.4887
3.45953
3.43175
3.40542
3.38059
3.35732
3.33567
3.3157
3.29745
3.28101
3.26643
3.25377
3.24311
3.23454
3.22818
3.22422
3.22788
3.23386
3.24198
3.25214
3.26427
3.27761
3.26315
3.2505
3.23986
3.2313
3.22494
3.22099
3.22494
3.2313
3.23985
3.25049
3.26311
3.27766
3.29406
3.31225
3.33215
3.35372
3.37689
3.4016
3.42779
3.45541
3.4844
3.51471
3.54628
3.57907
3.61302
3.64808
3.68422
3.72139
3.75954
3.69093
3.65294
3.61599
3.58015
3.54545
3.51195
3.47969
3.44873
3.41911
3.3909
3.36415
3.33891
3.31526
3.29323
3.27291
3.25434
3.23759
3.22273
3.20984
3.19897
3.19024
3.18374
3.1797
3.18339
3.18943
3.19765
3.20795
3.22026
3.23387
3.21918
3.20629
3.19545
3.18672
3.18024
3.1762
3.18024
3.18672
3.19544
3.20628
3.21914
3.23396
3.25065
3.26915
3.2894
3.31132
3.33487
3.35996
3.38656
3.41459
3.444
3.47473
3.50673
3.53994
3.57433
3.60983
3.6464
3.68399
3.72256
3.65522
3.61676
3.57936
3.54305
3.50789
3.47392
3.4412
3.40979
3.37973
3.35108
3.32391
3.29827
3.27421
3.25182
3.23113
3.21223
3.19518
3.18005
3.1669
3.15583
3.14692
3.14029
3.13617
3.13987
3.14596
3.15428
3.16471
3.17719
3.19108
3.17618
3.16305
3.152
3.1431
3.13649
3.13238
3.13649
3.1431
3.15199
3.16303
3.17614
3.19122
3.20821
3.22704
3.24763
3.26991
3.29383
3.31932
3.34631
3.37475
3.40458
3.43573
3.46815
3.5018
3.53661
3.57253
3.60952
3.64754
3.68653
3.62059
3.58167
3.5438
3.50703
3.4714
3.43698
3.4038
3.37194
3.34143
3.31235
3.28475
3.2587
3.23425
3.21147
3.19043
3.17119
3.15383
3.13842
3.12502
3.11373
3.10465
3.09789
3.09368
3.09738
3.10351
3.1119
3.12246
3.1351
3.1493
3.1342
3.12083
3.10957
3.1005
3.09376
3.08956
3.09376
3.1005
3.10956
3.12081
3.13416
3.14951
3.1668
3.18595
3.20688
3.22953
3.25383
3.2797
3.3071
3.33594
3.36618
3.39775
3.43059
3.46466
3.49988
3.53623
3.57364
3.61206
3.65146
3.58706
3.54769
3.50936
3.47213
3.43604
3.40116
3.36753
3.33522
3.30427
3.27475
3.24673
3.22026
3.19541
3.17225
3.15085
3.13128
3.1136
3.0979
3.08425
3.07274
3.06347
3.05658
3.05228
3.05595
3.06211
3.07058
3.08125
3.09404
3.10854
3.09329
3.07968
3.0682
3.05896
3.05208
3.04781
3.05208
3.05896
3.06819
3.07965
3.09325
3.10888
3.12647
3.14594
3.16722
3.19023
3.2149
3.24116
3.26895
3.2982
3.32885
3.36083
3.39408
3.42856
3.4642
3.50095
3.53876
3.57759
3.61738
3.55468
3.51486
3.47608
3.43839
3.40186
3.36652
3.33244
3.29968
3.26829
3.23834
3.20989
3.18301
3.15776
3.13422
3.11245
3.09253
3.07454
3.05855
3.04464
3.03291
3.02346
3.01642
3.01203
3.01565
3.02181
3.03034
3.04111
3.05404
3.06885
3.0535
3.03964
3.02795
3.01854
3.01153
3.00717
3.01153
3.01853
3.02794
3.03962
3.05346
3.06937
3.08726
3.10706
3.12868
3.15205
3.17709
3.20374
3.23192
3.26157
3.29261
3.32499
3.35865
3.39353
3.42957
3.46672
3.50492
3.54414
3.58432
3.52347
3.48321
3.44399
3.40587
3.36888
3.3331
3.29858
3.26537
3.23354
3.20316
3.17429
3.14699
3.12135
3.09742
3.07528
3.05502
3.03671
3.02042
3.00626
2.9943
2.98466
2.97748
2.97299
2.97653
2.98267
2.99123
3.00209
3.01515
3.03023
3.01488
3.00078
2.98888
2.97929
2.97215
2.9677
2.97215
2.97929
2.98888
3.00077
3.01486
3.03104
3.04924
3.06935
3.09132
3.11504
3.14045
3.16748
3.19604
3.22608
3.25751
3.29029
3.32434
3.35961
3.39603
3.43357
3.47215
3.51175
3.5523
3.49347
3.45279
3.41314
3.37458
3.33716
3.30094
3.26598
3.23234
3.20008
3.16927
3.13998
3.11227
3.08623
3.06191
3.03941
3.01881
3.00017
2.98359
2.96915
2.95696
2.94713
2.9398
2.93522
2.93862
2.94471
2.9533
2.96423
2.9774
2.99269
2.97748
2.96316
2.95105
2.94128
2.934
2.92947
2.93401
2.94128
2.95105
2.96315
2.97749
2.99395
3.01244
3.03288
3.05518
3.07926
3.10503
3.13243
3.16136
3.19178
3.22359
3.25675
3.29118
3.32682
3.36362
3.40152
3.44047
3.48043
3.52133
3.46471
3.42362
3.38356
3.34458
3.30674
3.27009
3.23471
3.20064
3.16795
3.13672
3.10701
3.0789
3.05246
3.02777
3.0049
2.98394
2.96498
2.9481
2.9334
2.92097
2.91094
2.90346
2.89877
2.90196
2.90799
2.91658
2.92756
2.94081
2.95622
2.94136
2.92681
2.9145
2.90456
2.89715
2.89253
2.89716
2.90457
2.91451
2.92683
2.94141
2.95815
2.97694
2.99769
3.02032
3.04474
3.07087
3.09862
3.12792
3.1587
3.19088
3.2244
3.25919
3.29519
3.33235
3.3706
3.4099
3.4502
3.49145
3.4372
3.39572
3.35527
3.31589
3.27764
3.24059
3.20479
3.1703
3.13721
3.10556
3.07545
3.04694
3.0201
2.99503
2.9718
2.95049
2.9312
2.91402
2.89905
2.88638
2.87614
2.8685
2.86371
2.86661
2.87253
2.8811
2.89211
2.90542
2.92091
2.90654
2.8918
2.8793
2.86919
2.86165
2.85695
2.86166
2.86921
2.87933
2.89186
2.90669
2.92369
2.94278
2.96384
2.98679
3.01155
3.03801
3.06611
3.09576
3.12689
3.15942
3.19328
3.22841
3.26476
3.30225
3.34083
3.38046
3.42108
3.46265
3.41095
3.36912
3.32829
3.28854
3.24991
3.21246
3.17627
3.14138
3.10789
3.07585
3.04533
3.01643
2.98921
2.96376
2.94017
2.91852
2.8989
2.88141
2.86616
2.85325
2.8428
2.83499
2.83008
2.83258
2.83837
2.84689
2.8579
2.87123
2.88672
2.87305
2.85817
2.84551
2.83524
2.82757
2.82278
2.82758
2.83526
2.84556
2.85831
2.87338
2.89065
2.91001
2.93138
2.95464
2.97972
3.00651
3.03494
3.06492
3.09637
3.12923
3.16342
3.19887
3.23553
3.27334
3.31224
3.35218
3.3931
3.43498
3.38595
3.3438
3.30264
3.26254
3.22355
3.18574
3.14917
3.11391
3.08004
3.04761
3.01672
2.98743
2.95984
2.93402
2.91007
2.88807
2.86813
2.85033
2.83479
2.82162
2.81096
2.80296
2.79792
2.79988
2.80552
2.81397
2.82493
2.8382
2.85362
2.84087
2.82594
2.81316
2.80275
2.79496
2.7901
2.79498
2.8028
2.81327
2.82623
2.84153
2.85906
2.8787
2.90036
2.92392
2.9493
2.9764
3.00513
3.03542
3.06718
3.10035
3.13484
3.17059
3.20755
3.24565
3.28483
3.32506
3.36627
3.40843
3.36218
3.31975
3.2783
3.23789
3.19858
3.16044
3.12353
3.08792
3.05368
3.0209
2.98964
2.95999
2.93203
2.90585
2.88155
2.85922
2.83894
2.82084
2.805
2.79157
2.78066
2.77247
2.76727
2.76853
2.774
2.78234
2.79316
2.80627
2.82145
2.80991
2.79509
2.78228
2.77177
2.76389
2.75895
2.76392
2.77187
2.78252
2.79568
2.81121
2.82899
2.84889
2.87082
2.89467
2.92033
2.94772
2.97674
3.00731
3.03935
3.07279
3.10756
3.14359
3.18081
3.21918
3.25864
3.29913
3.34061
3.38303
3.33957
3.29691
3.25522
3.21456
3.17497
3.13655
3.09933
3.06341
3.02885
2.99573
2.96413
2.93413
2.90583
2.87931
2.85466
2.83199
2.81139
2.79296
2.77683
2.76311
2.75195
2.74352
2.73813
2.7385
2.74381
2.75196
2.76252
2.77528
2.78998
2.77995
2.76553
2.75288
2.74235
2.73439
2.72939
2.73445
2.74254
2.75336
2.76672
2.78247
2.80048
2.82064
2.84283
2.86693
2.89285
2.9205
2.94978
2.98061
3.01291
3.0466
3.08161
3.11789
3.15536
3.19397
3.23367
3.2744
3.31613
3.3588
3.31799
3.27519
3.23333
3.19247
3.15268
3.11402
3.07656
3.04037
3.00553
2.97211
2.94021
2.90989
2.88127
2.85442
2.82944
2.80643
2.7855
2.76676
2.75031
2.73628
2.72483
2.71613
2.71049
2.70981
2.7149
2.72275
2.73279
2.74491
2.75876
2.7505
2.73698
2.72484
2.71445
2.7065
2.70148
2.70663
2.71486
2.72584
2.7394
2.75536
2.7736
2.79399
2.81641
2.84075
2.86691
2.89479
2.9243
2.95535
2.98787
3.02178
3.05701
3.0935
3.13119
3.17002
3.20994
3.2509
3.29285
3.33575
3.29728
3.25442
3.21248
3.17152
3.1316
3.09278
3.05514
3.01875
2.98369
2.95003
2.91786
2.88727
2.85835
2.83119
2.8059
2.78257
2.76131
2.74223
2.72544
2.71108
2.69928
2.69025
2.68425
2.68242
2.6872
2.69448
2.70358
2.71463
2.72718
2.72076
2.70886
2.69789
2.688
2.68022
2.67523
2.68049
2.68886
2.70002
2.71376
2.72993
2.74838
2.76898
2.79161
2.81616
2.84253
2.8706
2.90031
2.93155
2.96426
2.99835
3.03377
3.07045
3.10833
3.14735
3.18747
3.22863
3.27079
3.3139
3.27718
3.23436
3.19244
3.15148
3.11153
3.07266
3.03494
2.99844
2.96323
2.9294
2.89703
2.86621
2.83704
2.80961
2.78402
2.76038
2.73879
2.71936
2.70221
2.68746
2.67525
2.66577
2.65926
2.65629
2.6605
2.66675
2.67423
2.68373
2.69451
2.68963
2.68008
2.67136
2.66268
2.65543
2.65065
2.65604
2.66457
2.67591
2.68985
2.70622
2.72486
2.74565
2.76847
2.7932
2.81973
2.84797
2.87783
2.90923
2.94209
2.97633
3.0119
3.04874
3.08678
3.12597
3.16626
3.20761
3.24995
3.29326
3.25743
3.21474
3.17294
3.13208
3.09222
3.05342
3.01573
2.97922
2.94398
2.91008
2.8776
2.84663
2.81727
2.78962
2.76377
2.73983
2.7179
2.6981
2.68053
2.66531
2.65259
2.64251
2.63528
2.6312
2.63435
2.63881
2.64385
2.65147
2.66027
2.65627
2.64924
2.644
2.63776
2.63182
2.62761
2.6332
2.64196
2.65352
2.66767
2.68424
2.70307
2.72404
2.74701
2.77188
2.79855
2.82691
2.85689
2.8884
2.92137
2.95573
2.99142
3.02838
3.06656
3.10589
3.14633
3.18784
3.23035
3.27382
3.23778
3.19527
3.15366
3.113
3.07333
3.03471
2.99718
2.9608
2.92566
2.89181
2.85933
2.82832
2.79886
2.77105
2.74498
2.72076
2.69848
2.67826
2.6602
2.6444
2.63099
2.62011
2.61192
2.60669
2.60793
2.60968
2.61168
2.61755
2.62452
2.62077
2.6156
2.61428
2.61191
2.60862
2.60581
2.61177
2.62088
2.63276
2.64718
2.66398
2.683
2.70413
2.72724
2.75222
2.77898
2.80742
2.83747
2.86905
2.9021
2.93654
2.97231
3.00937
3.04765
3.0871
3.12767
3.1693
3.21195
3.25558
3.21811
3.17578
3.13437
3.09395
3.05453
3.01616
2.97889
2.94277
2.90785
2.87419
2.84186
2.81093
2.78148
2.7536
2.72737
2.70288
2.68023
2.65952
2.64083
2.62425
2.60991
2.59793
2.58848
2.58187
2.58019
2.57865
2.5777
2.58232
2.58789
2.58413
2.57997
2.58171
2.58356
2.5844
2.58446
2.5912
2.60098
2.61338
2.62822
2.64533
2.66459
2.68589
2.70912
2.73419
2.761
2.78948
2.81956
2.85117
2.88424
2.91872
2.95455
2.99167
3.03002
3.06955
3.11022
3.15195
3.19472
3.23847
3.19851
3.15629
3.11504
3.07481
3.03562
2.99752
2.96054
2.92473
2.89012
2.85676
2.82469
2.79396
2.76463
2.73676
2.71041
2.68566
2.66257
2.64121
2.62168
2.60405
2.58845
2.57501
2.56394
2.55551
2.55041
2.54587
2.5428
2.54665
2.55123
2.54751
2.5439
2.54743
2.55245
2.55762
2.56201
2.57038
2.58143
2.59482
2.61038
2.62802
2.64764
2.66917
2.69254
2.71768
2.74452
2.773
2.80307
2.83466
2.86773
2.90221
2.93804
2.97519
3.01358
3.05316
3.09389
3.1357
3.17855
3.22238
3.17922
3.13703
3.09585
3.05572
3.01668
2.97877
2.94202
2.90647
2.87215
2.83909
2.8073
2.77681
2.74764
2.71981
2.69334
2.66824
2.64457
2.62237
2.60172
2.58274
2.56556
2.5504
2.53745
2.52693
2.51891
2.51234
2.50805
2.51145
2.51534
2.51179
2.5085
2.51296
2.51982
2.52815
2.53687
2.54784
2.56095
2.57598
2.59282
2.61139
2.63165
2.65359
2.67719
2.70244
2.72932
2.75779
2.78781
2.81936
2.85238
2.88683
2.92264
2.95978
2.99818
3.03778
3.07854
3.12039
3.16328
3.20716
3.16056
3.11832
3.07711
3.03699
2.99799
2.96015
2.92352
2.88811
2.85397
2.82108
2.78947
2.75913
2.73002
2.70211
2.67537
2.64978
2.62532
2.60205
2.58008
2.55958
2.54076
2.52389
2.50919
2.49684
2.4869
2.47921
2.47432
2.47741
2.48078
2.47753
2.47447
2.47941
2.48724
2.49737
2.50911
2.52278
2.53833
2.55555
2.57426
2.59432
2.61568
2.63837
2.66244
2.68795
2.71494
2.74344
2.77345
2.80495
2.83792
2.87233
2.90811
2.94522
2.9836
3.0232
3.06395
3.10581
3.14872
3.19262
3.14284
3.10048
3.05918
3.01899
2.97994
2.94207
2.90543
2.87004
2.8359
2.80304
2.77142
2.741
2.71173
2.68352
2.65628
2.62995
2.60452
2.58006
2.55674
2.53483
2.5146
2.49635
2.48032
2.46673
2.45571
2.44739
2.44218
2.44503
2.44793
2.44506
2.44222
2.44745
2.45581
2.46691
2.48034
2.49596
2.51358
2.53293
2.55371
2.57564
2.59856
2.62244
2.64735
2.67341
2.70073
2.7294
2.7595
2.79104
2.82401
2.8584
2.89416
2.93125
2.96961
3.00919
3.04994
3.09179
3.1347
3.17861
3.12631
3.08381
3.04238
3.00206
2.9629
2.92494
2.8882
2.85271
2.81847
2.78547
2.75366
2.72298
2.69332
2.66457
2.6366
2.60934
2.58283
2.5572
2.53269
2.50962
2.48831
2.46907
2.45216
2.4378
2.42616
2.41744
2.41201
2.4146
2.41706
2.41461
2.41202
2.41745
2.42618
2.43784
2.45217
2.46896
2.48797
2.50891
2.53141
2.55512
2.57974
2.60511
2.63122
2.65818
2.68613
2.71524
2.74561
2.77731
2.81039
2.84483
2.88061
2.91771
2.95608
2.99565
3.0364
3.07825
3.12116
3.16508
3.11116
3.06851
3.02693
2.98647
2.94718
2.90908
2.8722
2.83655
2.80213
2.7689
2.7368
2.70572
2.67553
2.64608
2.61725
2.58901
2.56143
2.53473
2.50921
2.48522
2.46311
2.44316
2.42564
2.41075
2.39869
2.38968
2.38405
2.38637
2.38839
2.38637
2.38406
2.38968
2.39869
2.41076
2.42565
2.44314
2.46302
2.48501
2.50875
2.53386
2.55998
2.58684
2.61431
2.64239
2.67123
2.70098
2.73181
2.76383
2.7971
2.83167
2.86754
2.90468
2.94307
2.98266
3.02341
3.06528
3.10821
3.15215
3.09754
3.05473
3.013
2.9724
2.93296
2.89471
2.85768
2.82186
2.78724
2.75375
2.7213
2.68976
2.65898
2.62879
2.59909
2.56988
2.54132
2.51368
2.48731
2.46258
2.43982
2.41932
2.40131
2.386
2.37359
2.36431
2.35851
2.36053
2.36211
2.36053
2.35851
2.36431
2.37359
2.386
2.40131
2.41932
2.43981
2.46252
2.48715
2.51333
2.54068
2.56885
2.5976
2.62685
2.65665
2.68716
2.71854
2.75093
2.78447
2.8192
2.85517
2.89237
2.9308
2.97042
3.0112
3.0531
3.09606
3.14005
3.08555
3.04259
3.00072
2.95998
2.9204
2.88201
2.84482
2.80883
2.77399
2.74024
2.70744
2.67545
2.64408
2.61316
2.58264
2.55255
2.52311
2.49466
2.46756
2.4422
2.41889
2.39791
2.37948
2.36379
2.35107
2.34154
2.33557
2.33724
2.33842
2.33724
2.33557
2.34154
2.35107
2.3638
2.37948
2.39791
2.41889
2.44219
2.46751
2.49453
2.52287
2.55213
2.58201
2.61233
2.64306
2.6743
2.70622
2.739
2.77278
2.80768
2.84375
2.88103
2.9195
2.95917
3
3.04194
3.08497
3.12903
3.07529
3.0322
2.99019
2.94932
2.90961
2.87108
2.83375
2.79759
2.76255
2.72854
2.69541
2.66299
2.63107
2.59949
2.56821
2.53734
2.50715
2.47799
2.45028
2.42437
2.40058
2.37917
2.36036
2.34433
2.33131
2.32154
2.31541
2.31672
2.31752
2.31672
2.31541
2.32154
2.33131
2.34433
2.36036
2.37918
2.40059
2.42437
2.45027
2.47796
2.50708
2.53723
2.56804
2.59926
2.63078
2.66267
2.69508
2.72821
2.76223
2.79729
2.83347
2.87083
2.90938
2.94912
2.99002
3.03204
3.07515
3.1193
3.06689
3.02367
2.98155
2.94055
2.90071
2.86206
2.82459
2.78827
2.75305
2.7188
2.68538
2.65256
2.62015
2.58799
2.55606
2.52452
2.49367
2.46392
2.43568
2.4093
2.3851
2.3633
2.34414
2.3278
2.3145
2.30451
2.29824
2.29917
2.29965
2.29917
2.29824
2.30451
2.3145
2.3278
2.34414
2.36331
2.3851
2.4093
2.43568
2.46391
2.49365
2.52449
2.55603
2.58795
2.62012
2.65253
2.68535
2.71879
2.75303
2.78826
2.82458
2.86205
2.90071
2.94055
2.98154
3.02367
3.06689
3.11115
3.06052
3.0172
2.97497
2.93386
2.89392
2.85515
2.81755
2.7811
2.74571
2.71127
2.67758
2.64444
2.61161
2.57895
2.54645
2.51432
2.48291
2.45265
2.42396
2.39719
2.37262
2.35049
2.33101
2.31439
2.30086
2.29067
2.28427
2.28483
2.28508
2.28483
2.28427
2.29067
2.30086
2.31439
2.33101
2.35049
2.37262
2.39719
2.42396
2.45264
2.48288
2.51427
2.54639
2.57888
2.61154
2.64438
2.67754
2.71123
2.74569
2.78108
2.81754
2.85514
2.89391
2.93386
2.97497
3.0172
3.06052
3.10489
3.05648
3.01309
2.97078
2.92959
2.88956
2.85071
2.81302
2.77646
2.74095
2.70636
2.67248
2.63909
2.60592
2.57279
2.53974
2.50704
2.47511
2.44441
2.41533
2.38823
2.36336
2.34096
2.32122
2.30437
2.29064
2.28029
2.27378
2.27402
2.2741
2.27402
2.27378
2.28029
2.29064
2.30437
2.32122
2.34095
2.36336
2.38823
2.41533
2.44439
2.47508
2.50698
2.53965
2.57268
2.6058
2.63899
2.67241
2.70631
2.74092
2.77644
2.81301
2.8507
2.88956
2.92959
2.97077
3.01308
3.05648
3.10092
3.06065
3.0173
2.97503
2.93386
2.89381
2.85488
2.81704
2.78022
2.74429
2.70906
2.67428
2.63972
2.60521
2.57079
2.53665
2.50312
2.4706
2.43947
2.41008
2.38272
2.35763
2.33503
2.31512
2.29811
2.28423
2.27378
2.26719
2.26719
2.26719
2.26719
2.26719
2.27378
2.28423
2.29811
2.31512
2.33503
2.35763
2.38272
2.41008
2.43947
2.47059
2.50312
2.53666
2.57082
2.60528
2.63984
2.67445
2.70924
2.74447
2.78039
2.81718
2.85499
2.8939
2.93393
2.97508
3.01734
3.06068
3.10505
3.06738
3.02413
2.98194
2.94083
2.90082
2.86189
2.82401
2.78708
2.75097
2.7155
2.68046
2.64565
2.61096
2.57643
2.54225
2.50874
2.47628
2.44524
2.41596
2.38871
2.36374
2.34125
2.32144
2.30452
2.29072
2.28033
2.27378
2.27378
2.27378
2.27378
2.27378
2.28033
2.29072
2.30452
2.32144
2.34125
2.36374
2.38871
2.41596
2.44524
2.47628
2.50874
2.54225
2.57645
2.611
2.64572
2.68055
2.71561
2.75108
2.78718
2.8241
2.86197
2.90089
2.94089
2.98198
3.02416
3.06741
3.11167
3.07646
3.03335
2.99129
2.95029
2.91037
2.8715
2.83362
2.79666
2.76048
2.72488
2.68969
2.65472
2.61991
2.58531
2.55114
2.5177
2.48536
2.45447
2.42536
2.39829
2.37349
2.35116
2.33151
2.31473
2.30105
2.29075
2.28427
2.28427
2.28427
2.28427
2.28427
2.29075
2.30105
2.31473
2.33151
2.35116
2.37349
2.39828
2.42535
2.45447
2.48535
2.51769
2.55114
2.58532
2.61993
2.65475
2.68973
2.72493
2.76053
2.79672
2.83368
2.87154
2.91041
2.95033
2.99132
3.03337
3.07648
3.1206
3.08776
3.04483
3.00294
2.9621
2.9223
2.88353
2.84572
2.80878
2.77257
2.73691
2.70162
2.66656
2.63169
2.59709
2.56297
2.52965
2.49748
2.4668
2.43792
2.41108
2.3865
2.3644
2.34494
2.32834
2.31482
2.30464
2.29824
2.29823
2.29823
2.29823
2.29824
2.30464
2.31482
2.32834
2.34494
2.3644
2.3865
2.41107
2.43791
2.4668
2.49748
2.52964
2.56296
2.59708
2.63169
2.66657
2.70164
2.73693
2.7726
2.80882
2.84576
2.88356
2.92233
2.96212
3.00296
3.04485
3.08777
3.13171
3.10119
3.05848
3.01679
2.97614
2.93651
2.89787
2.86017
2.82328
2.78709
2.75141
2.71607
2.68098
2.6461
2.61154
2.57754
2.54439
2.51245
2.48203
2.45342
2.42685
2.40255
2.3807
2.36149
2.3451
2.33175
2.32172
2.31541
2.31538
2.31538
2.31538
2.31541
2.32172
2.33175
2.3451
2.36148
2.3807
2.40255
2.42685
2.45341
2.48203
2.51244
2.54439
2.57753
2.61153
2.64609
2.68098
2.71608
2.75142
2.7871
2.8233
2.86018
2.89789
2.93652
2.97615
3.0168
3.05849
3.1012
3.14491
3.11666
3.0742
3.03274
2.99231
2.95288
2.91441
2.87684
2.84005
2.8039
2.76823
2.7329
2.69782
2.66298
2.62852
2.59468
2.56177
2.5301
2.49998
2.47168
2.44543
2.42144
2.39988
2.38093
2.36478
2.35164
2.34177
2.33556
2.33551
2.33551
2.33551
2.33556
2.34177
2.35164
2.36478
2.38093
2.39988
2.42144
2.44543
2.47167
2.49997
2.53009
2.56176
2.59467
2.62851
2.66297
2.69781
2.7329
2.76823
2.8039
2.84005
2.87684
2.91442
2.95289
2.99232
3.03275
3.0742
3.11666
3.16012
3.13409
3.0919
3.05072
3.01053
2.97132
2.93304
2.89563
2.85896
2.82289
2.78728
2.75198
2.71695
2.6822
2.6479
2.61427
2.58163
2.55027
2.52049
2.49254
2.46665
2.44299
2.42175
2.4031
2.38721
2.37429
2.36458
2.35849
2.35841
2.35841
2.35841
2.35849
2.36458
2.37429
2.38721
2.40309
2.42175
2.44299
2.46664
2.49254
2.52048
2.55026
2.58161
2.61426
2.64788
2.68219
2.71693
2.75197
2.78726
2.82288
2.85895
2.89563
2.93304
2.97132
3.01053
3.05072
3.09191
3.13409
3.17726
3.15341
3.11152
3.07062
3.0307
2.99174
2.95368
2.91644
2.87991
2.84395
2.80842
2.7732
2.73826
2.70365
2.66954
2.63617
2.60384
2.57283
2.54343
2.51586
2.49034
2.46705
2.44615
2.42781
2.4122
2.39951
2.38999
2.38401
2.38389
2.38389
2.38389
2.38401
2.38999
2.39951
2.4122
2.42781
2.44615
2.46704
2.49034
2.51585
2.54342
2.57282
2.60382
2.63615
2.66952
2.70363
2.73824
2.77318
2.8084
2.84393
2.8799
2.91643
2.95367
2.99173
3.0307
3.07062
3.11152
3.15341
3.19627
3.17454
3.13298
3.09238
3.05275
3.01405
2.97623
2.93918
2.90281
2.86698
2.83156
2.79645
2.76165
2.72722
2.69334
2.66027
2.62828
2.59766
2.56865
2.54149
2.51637
2.49346
2.47292
2.45491
2.43959
2.42715
2.41781
2.41196
2.41178
2.41178
2.41178
2.41196
2.41781
2.42714
2.43959
2.4549
2.47292
2.49346
2.51636
2.54148
2.56864
2.59764
2.62826
2.66025
2.69331
2.72719
2.76161
2.79642
2.83153
2.86696
2.90279
2.93917
2.97621
3.01404
3.05274
3.09238
3.13297
3.17454
3.21707
3.19742
3.15619
3.11592
3.0766
3.03817
3.00059
2.96377
2.92757
2.89189
2.8566
2.82164
2.787
2.75279
2.71919
2.68645
2.65484
2.62462
2.59604
2.56931
2.5446
2.52209
2.50192
2.48424
2.46922
2.45703
2.44789
2.44216
2.44192
2.44192
2.44192
2.44216
2.44789
2.45703
2.46922
2.48424
2.50191
2.52208
2.54459
2.56929
2.59602
2.6246
2.65481
2.68642
2.71915
2.75275
2.78696
2.8216
2.85657
2.89186
2.92754
2.96374
3.00057
3.03816
3.07658
3.11591
3.15618
3.19741
3.2396
3.22197
3.1811
3.14117
3.10216
3.06402
3.0267
2.9901
2.9541
2.91859
2.88346
2.84866
2.81423
2.78027
2.74698
2.7146
2.68339
2.6536
2.62546
2.59917
2.5749
2.55279
2.533
2.51567
2.50096
2.48902
2.48008
2.47447
2.47415
2.47415
2.47415
2.47447
2.48008
2.48902
2.50095
2.51567
2.53299
2.55278
2.57488
2.59915
2.62544
2.65357
2.68336
2.71456
2.74693
2.78022
2.81418
2.84861
2.88341
2.91854
2.95406
2.99006
3.02667
3.064
3.10213
3.14115
3.18108
3.22196
3.26378
3.24813
3.20762
3.16804
3.12935
3.09152
3.05447
3.0181
2.98231
2.94698
2.91203
2.87744
2.84324
2.80956
2.77661
2.74462
2.71383
2.68449
2.65681
2.63097
2.60713
2.58544
2.56604
2.54906
2.53465
2.52297
2.51422
2.50874
2.50834
2.50834
2.50834
2.50874
2.51422
2.52297
2.53464
2.54905
2.56603
2.58543
2.60711
2.63094
2.65678
2.68445
2.71379
2.74457
2.77655
2.8095
2.84317
2.87737
2.91197
2.94692
2.98225
3.01805
3.05443
3.09149
3.12932
3.16801
3.2076
3.24811
3.28956
3.27583
3.23569
3.19647
3.15812
3.12059
3.08381
3.04769
3.01211
2.97699
2.94225
2.90787
2.87393
2.84057
2.80798
2.7764
2.74606
2.71718
2.68996
2.66458
2.64119
2.61992
2.6009
2.58428
2.57017
2.55875
2.55019
2.54483
2.54435
2.54435
2.54435
2.54483
2.55019
2.55874
2.57017
2.58427
2.60089
2.6199
2.64116
2.66455
2.68992
2.71713
2.746
2.77634
2.80791
2.8405
2.87386
2.90779
2.94217
2.97692
3.01205
3.04763
3.08376
3.12054
3.15808
3.19643
3.23567
3.2758
3.31686
3.305
3.26525
3.22638
3.18837
3.15116
3.11466
3.07879
3.04344
3.00854
2.97402
2.93989
2.90624
2.87321
2.84101
2.80985
2.77996
2.75156
2.72481
2.69989
2.67695
2.6561
2.63748
2.6212
2.6074
2.59623
2.58787
2.58262
2.58205
2.58205
2.58205
2.58262
2.58787
2.59623
2.60739
2.62119
2.63746
2.65608
2.67692
2.69985
2.72476
2.7515
2.7799
2.80978
2.84093
2.87312
2.90614
2.93979
2.97392
3.00844
3.04336
3.07871
3.11459
3.1511
3.18832
3.22634
3.26521
3.30497
3.34563
3.33558
3.29622
3.25772
3.22005
3.18315
3.14694
3.11132
3.07622
3.04154
3.00726
2.97341
2.94007
2.9074
2.8756
2.84488
2.81546
2.78753
2.76126
2.73681
2.71431
2.69388
2.67565
2.65972
2.64622
2.6353
2.62713
2.62199
2.62132
2.62132
2.62132
2.62199
2.62713
2.63529
2.64621
2.6597
2.67562
2.69385
2.71427
2.73676
2.7612
2.78746
2.81538
2.84479
2.8755
2.90729
2.93995
2.97329
3.00715
3.04143
3.07611
3.11123
3.14685
3.18307
3.21998
3.25766
3.29617
3.33554
3.3758
3.36752
3.32854
3.29041
3.25309
3.2165
3.18057
3.14523
3.11037
3.07594
3.04192
3.00835
2.97535
2.94305
2.91167
2.88141
2.85245
2.825
2.79921
2.77523
2.75317
2.73316
2.71531
2.69973
2.68653
2.67585
2.66786
2.66284
2.66207
2.66207
2.66207
2.66284
2.66786
2.67584
2.68651
2.6997
2.71528
2.73312
2.75312
2.77517
2.79914
2.82492
2.85236
2.88129
2.91155
2.94292
2.9752
3.00821
3.04177
3.0758
3.11023
3.1451
3.18047
3.2164
3.253
3.29034
3.32848
3.36746
3.40732
3.40074
3.36216
3.3244
3.28741
3.25114
3.21551
3.18043
3.14582
3.11165
3.07791
3.04465
3.01199
2.98009
2.94914
2.91933
2.89086
2.86389
2.83858
2.81505
2.79344
2.77384
2.75637
2.74112
2.72822
2.71778
2.70997
2.70505
2.70418
2.70418
2.70418
2.70505
2.70996
2.71777
2.7282
2.74109
2.75633
2.77379
2.79338
2.81498
2.83849
2.86379
2.89074
2.9192
2.94899
2.97993
3.01182
3.04448
3.07773
3.11148
3.14566
3.18028
3.21537
3.25102
3.2873
3.3243
3.36208
3.40067
3.44012
3.4352
3.397
3.35961
3.32297
3.28701
3.25167
3.21686
3.18252
3.14862
3.11517
3.08223
3.04994
3.01844
2.98793
2.95859
2.93059
2.9041
2.87926
2.8562
2.83502
2.81583
2.79873
2.78381
2.77119
2.76099
2.75335
2.74853
2.74757
2.74757
2.74757
2.74853
2.75335
2.76098
2.77117
2.78378
2.79868
2.81577
2.83494
2.85611
2.87916
2.90398
2.93045
2.95843
2.98775
3.01825
3.04974
3.08203
3.11496
3.14841
3.18232
3.21668
3.2515
3.28686
3.32283
3.35949
3.3969
3.43511
3.47416
3.47084
3.43302
3.39599
3.35969
3.32405
3.289
3.25446
3.2204
3.18678
3.15363
3.12103
3.08912
3.05803
3.02797
2.99909
2.97157
2.94556
2.92119
2.89858
2.87783
2.85904
2.8423
2.82771
2.81537
2.80539
2.79792
2.79319
2.79214
2.79214
2.79214
2.79319
2.79792
2.80538
2.81534
2.82767
2.84225
2.85897
2.87774
2.89847
2.92107
2.94542
2.97141
2.9989
3.02776
3.05781
3.08888
3.12079
3.15338
3.18653
3.22016
3.25424
3.28879
3.32386
3.35953
3.39585
3.4329
3.47073
3.50937
3.50759
3.47016
3.43349
3.39752
3.36219
3.32743
3.29318
3.2594
3.22607
3.19324
3.16099
3.12946
3.0988
3.06918
3.04078
3.01373
2.9882
2.96429
2.94212
2.92179
2.90339
2.88701
2.87274
2.86067
2.85091
2.8436
2.83896
2.83781
2.83781
2.83781
2.83896
2.84359
2.85089
2.86064
2.87269
2.88695
2.90331
2.92169
2.942
2.96414
2.98802
3.01354
3.04056
3.06894
3.09854
3.12918
3.1607
3.19294
3.22578
3.25911
3.29292
3.32719
3.36197
3.39732
3.43332
3.47001
3.50746
3.5457
3.54542
3.50837
3.47205
3.43642
3.40139
3.36693
3.33296
3.29946
3.26643
3.23393
3.20204
3.17091
3.14068
3.11151
3.08357
3.057
3.03193
3.00848
2.98675
2.96683
2.94881
2.93278
2.91881
2.90701
2.89746
2.89031
2.88575
2.88452
2.88452
2.88452
2.88575
2.8903
2.89744
2.90697
2.91876
2.9327
2.94872
2.96671
2.9866
3.00831
3.03173
3.05677
3.08332
3.11123
3.14037
3.17059
3.20171
3.23359
3.26609
3.29913
3.33264
3.36663
3.40113
3.43617
3.47184
3.50818
3.54525
3.5831
3.58427
3.54759
3.51162
3.47631
3.4416
3.40742
3.37374
3.34053
3.30781
3.27565
3.24413
3.2134
3.1836
3.15489
3.12741
3.10131
3.0767
3.0537
3.0324
3.01288
2.99524
2.97954
2.96587
2.95432
2.94498
2.93798
2.93349
2.93218
2.93218
2.93218
2.93349
2.93797
2.94496
2.95428
2.96581
2.97945
2.99512
3.01274
3.03223
3.0535
3.07647
3.10105
3.12712
3.15457
3.18325
3.21303
3.24375
3.27525
3.30742
3.34014
3.37337
3.40707
3.44128
3.47602
3.51136
3.54736
3.58407
3.62152
3.62409
3.58777
3.55215
3.51716
3.48275
3.44887
3.41548
3.38257
3.35017
3.31835
3.28721
3.25688
3.22751
3.19925
3.17224
3.1466
3.12244
3.09988
3.079
3.05988
3.04259
3.02723
3.01385
3.00254
2.9934
2.98654
2.98213
2.98074
2.98074
2.98074
2.98213
2.98653
2.99338
3.0025
3.01378
3.02713
3.04246
3.05971
3.0788
3.09965
3.12218
3.1463
3.17191
3.19889
3.22712
3.25646
3.28677
3.31789
3.34971
3.38212
3.41504
3.44846
3.48237
3.51682
3.55184
3.5875
3.62384
3.66092
3.66483
3.62888
3.59359
3.55892
3.52481
3.49122
3.45812
3.42552
3.39344
3.36197
3.33122
3.3013
3.27237
3.24455
3.21799
3.19281
3.1691
3.14697
3.12649
3.10775
3.09083
3.07578
3.06268
3.05162
3.04266
3.03594
3.0316
3.03014
3.03014
3.03014
3.0316
3.03593
3.04263
3.05156
3.0626
3.07566
3.09068
3.10757
3.12627
3.14671
3.1688
3.19247
3.21762
3.24414
3.27192
3.30082
3.33071
3.36146
3.39292
3.425
3.45762
3.49075
3.52437
3.55851
3.59322
3.62855
3.66454
3.70124
3.80405
3.76747
3.73194
3.6975
3.6642
3.63208
3.60119
3.57158
3.54328
3.51636
3.49086
3.46684
3.44434
3.42342
3.40414
3.38654
3.37069
3.35664
3.34445
3.3342
3.32596
3.31985
3.31604
3.31968
3.32556
3.33352
3.34345
3.35529
3.3682
3.35421
3.34203
3.33179
3.32356
3.31745
3.31365
3.31745
3.32356
3.33179
3.34203
3.3542
3.36823
3.38405
3.40161
3.42085
3.44171
3.46414
3.48809
3.51349
3.5403
3.56847
3.59795
3.62868
3.66062
3.69372
3.72794
3.76323
3.79956
3.83687
3.76395
3.72688
3.69086
3.65594
3.62216
3.58957
3.55821
3.52813
3.49939
3.47203
3.4461
3.42167
3.39877
3.37748
3.35785
3.33992
3.32377
3.30945
3.29702
3.28657
3.27816
3.27192
3.26804
3.27173
3.2777
3.28579
3.29588
3.30792
3.32109
3.30684
3.29443
3.28398
3.27558
3.26935
3.26547
3.26935
3.27558
3.28398
3.29442
3.30682
3.32112
3.33724
3.35512
3.37471
3.39594
3.41875
3.4431
3.46891
3.49615
3.52475
3.55467
3.58585
3.61824
3.6518
3.68648
3.72223
3.75901
3.79678
3.72477
3.68721
3.65071
3.6153
3.58104
3.54796
3.51613
3.48559
3.45639
3.42858
3.40223
3.37737
3.35408
3.33241
3.31242
3.29416
3.2777
3.2631
3.25043
3.23977
3.23119
3.22482
3.22086
3.2246
3.23066
3.23887
3.24913
3.26136
3.2748
3.2603
3.24764
3.23698
3.22841
3.22205
3.21809
3.22205
3.22841
3.23698
3.24763
3.26027
3.27484
3.29126
3.30947
3.32941
3.35101
3.37421
3.39896
3.42519
3.45286
3.4819
3.51226
3.54389
3.57674
3.61075
3.64589
3.6821
3.71933
3.75756
3.68655
3.64851
3.61151
3.57562
3.54087
3.50731
3.47501
3.44399
3.41433
3.38608
3.35929
3.33401
3.31032
3.28826
3.2679
3.2493
3.23253
3.21765
3.20473
3.19385
3.1851
3.1786
3.17455
3.17833
3.18448
3.19281
3.20323
3.21566
3.22938
3.21462
3.20171
3.19084
3.1821
3.1756
3.17156
3.1756
3.1821
3.19083
3.20169
3.21459
3.22943
3.24616
3.2647
3.28499
3.30697
3.33056
3.35572
3.38238
3.41047
3.43995
3.47076
3.50284
3.53614
3.57061
3.6062
3.64286
3.68055
3.71922
3.64934
3.6108
3.57332
3.53694
3.5017
3.46766
3.43488
3.40339
3.37327
3.34456
3.31733
3.29163
3.26752
3.24507
3.22434
3.2054
3.18831
3.17314
3.15997
3.14887
3.13994
3.1333
3.12917
3.13298
3.1392
3.14765
3.15823
3.17085
3.18486
3.16985
3.15669
3.1456
3.13668
3.13005
3.12593
3.13005
3.13668
3.14559
3.15667
3.16981
3.18494
3.20198
3.22086
3.24151
3.26386
3.28785
3.31342
3.3405
3.36903
3.39895
3.4302
3.46272
3.49648
3.5314
3.56744
3.60455
3.64268
3.6818
3.61316
3.57414
3.53617
3.4993
3.46358
3.42905
3.39579
3.36383
3.33324
3.30408
3.2764
3.25027
3.22575
3.2029
3.1818
3.1625
3.14509
3.12963
3.11619
3.10487
3.09576
3.08898
3.08476
3.0886
3.09489
3.10345
3.11417
3.12698
3.14129
3.12604
3.11263
3.10132
3.09222
3.08545
3.08124
3.08545
3.09222
3.10131
3.1126
3.126
3.14142
3.15877
3.17799
3.199
3.22174
3.24613