<VTKFile type="ImageData" version="1.0" byte_order="LittleEndian" header_type="UInt64">
	<ImageData WholeExtent="0 45 0 53 0 53" Origin="-2.35928 -2.66203 -2.59525" Spacing="0.104857 0.104546 0.105106">
		<Piece Extent="0 45 0 53 0 53">
			<PointData Scalars="Scalars_">
				<DataArray type="Float32" Name="Scalars_" format="ascii" RangeMin="0" RangeMax="100">
5.01581
4.95881
4.90361
4.85029
4.79893
4.74961
4.70241
4.65744
4.61476
4.57449
4.53671
4.50152
4.46902
4.43932
4.41251
4.38871
4.36803
4.35059
4.33655
4.32609
4.31956
4.31902
4.31837
4.32481
4.32481
4.31837
4.31902
4.31956
4.32616
4.33673
4.35093
4.36857
4.38949
4.41357
4.4407
4.47076
4.50365
4.53927
4.57751
4.61827
4.66147
4.707
4.75478
4.8047
4.8567
4.91067
4.96167
4.90398
4.8481
4.7941
4.74206
4.69208
4.64423
4.59862
4.55532
4.51444
4.47608
4.44033
4.4073
4.3771
4.34984
4.32561
4.30456
4.2868
4.27248
4.26181
4.25513
4.25443
4.25364
4.26017
4.26017
4.25364
4.25443
4.25513
4.26189
4.27268
4.28717
4.30515
4.32646
4.35098
4.3786
4.40918
4.44263
4.47884
4.51769
4.5591
4.60296
4.64917
4.69763
4.74826
4.80097
4.85566
4.90929
4.85092
4.79436
4.73969
4.68699
4.63634
4.58784
4.54158
4.49766
4.45618
4.41723
4.38092
4.34736
4.31666
4.28893
4.26428
4.24284
4.22474
4.21014
4.19924
4.19239
4.19148
4.19051
4.19711
4.19711
4.19051
4.19148
4.19239
4.19932
4.21036
4.22514
4.24347
4.2652
4.29017
4.31828
4.34939
4.38341
4.42021
4.45969
4.50174
4.54626
4.59315
4.6423
4.69363
4.74705
4.80245
4.85872
4.79968
4.74245
4.6871
4.63373
4.58243
4.53328
4.48638
4.44184
4.39975
4.36021
4.32334
4.28924
4.25803
4.22982
4.20474
4.1829
4.16445
4.14955
4.1384
4.13135
4.13016
4.12896
4.1356
4.1356
4.12896
4.13016
4.13135
4.13849
4.14978
4.16489
4.18359
4.20573
4.23117
4.25978
4.29143
4.32602
4.36342
4.40353
4.44623
4.49141
4.53898
4.58882
4.64086
4.69498
4.75109
4.80998
4.75027
4.69237
4.63636
4.58233
4.53037
4.48058
4.43304
4.38787
4.34517
4.30505
4.2676
4.23296
4.20123
4.17254
4.147
4.12475
4.10593
4.0907
4.07927
4.07199
4.07041
4.06892
4.07556
4.07556
4.06892
4.07041
4.07199
4.07936
4.09095
4.1064
4.12549
4.14807
4.17399
4.20311
4.23532
4.27049
4.3085
4.34923
4.39258
4.43843
4.48668
4.53722
4.58995
4.64477
4.7016
4.76308
4.70272
4.64415
4.58748
4.53279
4.48018
4.42974
4.38156
4.33577
4.29245
4.25172
4.2137
4.1785
4.14624
4.11705
4.09104
4.06835
4.04913
4.03353
4.02177
4.01419
4.01209
4.01023
4.0168
4.0168
4.01023
4.01209
4.01419
4.02187
4.0338
4.04962
4.06914
4.09218
4.1186
4.14826
4.18103
4.21679
4.25542
4.2968
4.3408
4.38732
4.43625
4.48748
4.5409
4.59643
4.65395
4.718
4.65698
4.59776
4.54043
4.48508
4.43181
4.38071
4.33189
4.28546
4.24152
4.20018
4.16157
4.12579
4.09298
4.06325
4.03674
4.01357
3.9939
3.97788
3.96572
3.95774
3.95496
3.95263
3.95903
3.95903
3.95263
3.95496
3.95774
3.96582
3.97816
3.99442
4.01441
4.03795
4.0649
4.09512
4.12848
4.16485
4.20411
4.24613
4.2908
4.338
4.38761
4.43953
4.49366
4.54988
4.6081
4.67467
4.61298
4.5531
4.4951
4.43909
4.38515
4.33339
4.28391
4.23683
4.19224
4.15027
4.11104
4.07466
4.04125
4.01095
3.98388
3.96019
3.94
3.92347
3.91081
3.90229
3.89862
3.8957
3.90181
3.90181
3.8957
3.89862
3.90229
3.91091
3.92376
3.94054
3.96106
3.98515
4.01268
4.0435
4.07748
4.11449
4.1544
4.19709
4.24243
4.29032
4.34062
4.39324
4.44806
4.50498
4.56391
4.63293
4.57057
4.51
4.45132
4.39462
4.34
4.28755
4.23739
4.18962
4.14436
4.10172
4.06182
4.02479
3.99074
3.95981
3.93212
3.9078
3.88699
3.86984
3.85653
3.84729
3.84251
3.8389
3.84453
3.84453
3.8389
3.84251
3.84729
3.85663
3.87013
3.88754
3.90868
3.93341
3.96158
3.99305
4.02769
4.06538
4.10597
4.14935
4.1954
4.24399
4.295
4.34833
4.40386
4.46148
4.52111
4.5925
4.52944
4.46817
4.40878
4.35136
4.29601
4.24284
4.19194
4.14345
4.09745
4.05409
4.01346
3.9757
3.94093
3.90928
3.88086
3.85582
3.83427
3.81635
3.80221
3.79203
3.78596
3.78157
3.78652
3.78652
3.78157
3.78596
3.79203
3.80231
3.81662
3.83479
3.85668
3.88214
3.91103
3.94322
3.97859
4.017
4.05833
4.10244
4.14922
4.19854
4.25029
4.30434
4.3606
4.41894
4.47928
4.55297
4.48916
4.42713
4.36697
4.30877
4.25264
4.19868
4.14699
4.09769
4.0509
4.00672
3.96528
3.92671
3.89112
3.85864
3.82939
3.80349
3.78105
3.76221
3.74708
3.73577
3.7283
3.7231
3.72721
3.72721
3.7231
3.7283
3.73577
3.74715
3.76245
3.78153
3.80428
3.83057
3.86028
3.89328
3.92945
3.96865
4.01076
4.05566
4.10321
4.15331
4.20582
4.26064
4.31765
4.37674
4.43781
4.51374
4.44912
4.38626
4.32525
4.2662
4.20921
4.15437
4.1018
4.05162
4.00392
3.95885
3.9165
3.87701
3.8405
3.80709
3.77689
3.75001
3.72658
3.70669
3.69044
3.67792
3.66908
3.66313
3.6663
3.6663
3.66313
3.66908
3.67792
3.6905
3.70688
3.72698
3.7507
3.77791
3.80852
3.84241
3.87944
3.9195
3.96246
4.00819
4.05658
4.10749
4.16081
4.21643
4.27423
4.3341
4.39594
4.47413
4.40861
4.34484
4.28291
4.22292
4.16498
4.10918
4.05564
4.00448
3.9558
3.90974
3.8664
3.82592
3.7884
3.75398
3.72276
3.69485
3.67036
3.64938
3.63201
3.61831
3.60828
3.60168
3.60395
3.60395
3.60168
3.60828
3.61831
3.63206
3.64953
3.67067
3.69539
3.72358
3.75513
3.78995
3.82789
3.86886
3.91271
3.95933
4.00858
4.06036
4.11454
4.171
4.22962
4.29031
4.35296
4.43357
4.36708
4.30232
4.2394
4.1784
4.11944
4.06262
4.00805
3.95584
3.90613
3.85902
3.81465
3.77312
3.73457
3.69912
3.66687
3.63794
3.61243
3.59043
3.57203
3.5573
3.54633
3.53922
3.54072
3.54072
3.53922
3.54633
3.5573
3.57206
3.59053
3.61265
3.63833
3.66747
3.69997
3.73571
3.77459
3.81647
3.86124
3.90877
3.95893
4.0116
4.06667
4.124
4.1835
4.24504
4.30853
4.39184
4.32435
4.25857
4.19461
4.13258
4.07257
4.01469
3.95906
3.9058
3.85503
3.80688
3.76146
3.71891
3.67935
3.6429
3.60968
3.5798
3.55336
3.53046
3.51119
3.49564
3.48398
3.47649
3.47739
3.47739
3.47649
3.48398
3.49564
3.5112
3.53052
3.5535
3.58005
3.61007
3.64347
3.68011
3.7199
3.76269
3.80838
3.85682
3.9079
3.96148
4.01745
4.07569
4.13607
4.19849
4.26285
4.34927
4.28076
4.21397
4.14899
4.08591
4.02486
3.96594
3.90927
3.85498
3.80318
3.754
3.70758
3.66405
3.62353
3.58615
3.55203
3.52129
3.49404
3.47038
3.4504
3.43423
3.42206
3.41429
3.41479
3.41479
3.41429
3.42206
3.43423
3.45041
3.47041
3.49412
3.52144
3.55227
3.58649
3.62399
3.66465
3.70833
3.75492
3.80427
3.85626
3.91076
3.96765
4.02679
4.08808
4.15139
4.21663
4.30654
4.23706
4.16929
4.10331
4.03923
3.97718
3.91725
3.85958
3.80428
3.75149
3.70134
3.65396
3.60949
3.56807
3.52983
3.49489
3.46338
3.43542
3.4111
3.39055
3.3739
3.36135
3.35337
3.35363
3.35363
3.35337
3.36135
3.3739
3.39056
3.41112
3.43546
3.46346
3.49502
3.53001
3.56833
3.60982
3.65438
3.70185
3.7521
3.805
3.86041
3.9182
3.97826
4.04045
4.10466
4.17078
4.26452
4.19411
4.1254
4.05847
3.99344
3.93042
3.86953
3.81089
3.75464
3.7009
3.64981
3.60152
3.55617
3.51389
3.47484
3.43914
3.40692
3.37832
3.35344
3.3324
3.31535
3.30252
3.29437
3.29448
3.29448
3.29437
3.30252
3.31535
3.3324
3.35345
3.37834
3.40696
3.4392
3.47493
3.51402
3.55633
3.60173
3.65007
3.70121
3.755
3.81131
3.87001
3.93097
3.99406
4.05916
4.12616
4.22398
4.15269
4.08308
4.01525
3.94931
3.88537
3.82356
3.764
3.70682
3.65217
3.60019
3.55102
3.50481
3.46172
3.42189
3.38546
3.35259
3.32339
3.298
3.27653
3.25915
3.24607
3.23778
3.23783
3.23783
3.23778
3.24607
3.25915
3.27653
3.298
3.3234
3.35261
3.38549
3.42193
3.46177
3.50489
3.55111
3.6003
3.65231
3.70699
3.76419
3.82378
3.88562
3.94959
4.01557
4.08343
4.18551
4.11339
4.04294
3.97425
3.90743
3.84262
3.77992
3.71947
3.66141
3.60588
3.55303
3.50302
3.45599
3.4121
3.37153
3.33441
3.3009
3.27114
3.24526
3.22341
3.20573
3.19244
3.18403
3.18405
3.18405
3.18403
3.19244
3.20573
3.22341
3.24527
3.27114
3.3009
3.33442
3.37154
3.41213
3.45602
3.50305
3.55308
3.60594
3.66148
3.71955
3.78001
3.84272
3.90755
3.97438
4.04308
4.14956
4.07665
4.00539
3.93588
3.86824
3.80259
3.73904
3.67775
3.61884
3.56246
3.50878
3.45794
3.41012
3.36547
3.32417
3.28637
3.25225
3.22196
3.19563
3.17341
3.15546
3.142
3.1335
3.1335
3.1335
3.1335
3.142
3.15546
3.17341
3.19563
3.22196
3.25226
3.28638
3.32417
3.36548
3.41013
3.45795
3.5088
3.56248
3.61886
3.67778
3.73908
3.80263
3.86829
3.93593
4.00545
4.1164
4.04275
3.97074
3.90046
3.83203
3.76558
3.70124
3.63913
3.57941
3.52222
3.46774
3.41611
3.36752
3.32214
3.28014
3.24169
3.20699
3.17617
3.14941
3.12686
3.10867
3.09507
3.0865
3.08651
3.08651
3.0865
3.09507
3.10867
3.12686
3.14941
3.17617
3.20699
3.2417
3.28014
3.32214
3.36752
3.41612
3.46774
3.52223
3.57942
3.63914
3.70125
3.7656
3.83205
3.90048
3.97076
4.08626
4.01192
3.9392
3.8682
3.79904
3.73184
3.66673
3.60386
3.54337
3.48542
3.43017
3.37779
3.32847
3.28238
3.23971
3.20065
3.16539
3.13409
3.10693
3.08407
3.06569
3.05199
3.0434
3.0434
3.0434
3.0434
3.05199
3.06569
3.08407
3.10693
3.13409
3.16539
3.20065
3.23972
3.28238
3.32847
3.37779
3.43017
3.48542
3.54337
3.60386
3.66674
3.73184
3.79904
3.8682
3.93921
4.0593
3.98432
3.91095
3.83928
3.76943
3.70154
3.63573
3.57215
3.51094
3.45227
3.3963
3.34322
3.29321
3.24646
3.20316
3.16352
3.12773
3.09598
3.06846
3.04535
3.02681
3.01306
3.00451
3.00451
3.00451
3.00451
3.01306
3.02681
3.04535
3.06846
3.09598
3.12773
3.16352
3.20316
3.24646
3.29321
3.34322
3.3963
3.45227
3.51094
3.57215
3.63573
3.70154
3.76944
3.83928
3.91095
4.03564
3.96009
3.88613
3.81385
3.74339
3.67486
3.60841
3.54417
3.4823
3.42297
3.36635
3.31262
3.26197
3.21461
3.17073
3.13055
3.09429
3.06214
3.03431
3.01098
2.99236
2.97864
2.97019
2.97019
2.97019
2.97019
2.97864
2.99236
3.01098
3.03431
3.06214
3.09429
3.13055
3.17073
3.21461
3.26197
3.31262
3.36635
3.42297
3.4823
3.54417
3.60841
3.67486
3.74339
3.81385
3.88613
4.01543
3.93937
3.86488
3.79207
3.72106
3.65197
3.58494
3.52011
3.45766
3.39773
3.34051
3.2862
3.23498
3.18706
3.14267
3.10201
3.06533
3.03283
3.00475
2.98129
2.96266
2.94907
2.94084
2.94084
2.94084
2.94084
2.94907
2.96266
2.98129
3.00475
3.03283
3.06533
3.10201
3.14267
3.18706
3.23498
3.2862
3.34051
3.39773
3.45766
3.52011
3.58494
3.65197
3.72106
3.79207
3.86489
3.99879
3.9223
3.84736
3.77408
3.70259
3.63301
3.56548
3.50015
3.43718
3.37674
3.31901
3.26418
3.21246
3.16406
3.11922
3.07815
3.04112
3.00835
2.98009
2.95658
2.93804
2.92471
2.91687
2.91687
2.91687
2.91687
2.92471
2.93804
2.95658
2.98009
3.00835
3.04112
3.07815
3.11922
3.16406
3.21246
3.26418
3.31901
3.37674
3.43718
3.50015
3.56548
3.63301
3.70259
3.77408
3.84736
3.98584
3.90899
3.83368
3.76002
3.68814
3.61816
3.55021
3.48446
3.42106
3.36019
3.30203
3.24677
3.19464
3.14584
3.10063
3.05924
3.02193
2.98897
2.96063
2.93716
2.91886
2.90597
2.8988
2.8988
2.8988
2.8988
2.90597
2.91886
2.93716
2.96063
2.98897
3.02193
3.05924
3.10063
3.14584
3.19464
3.24677
3.30203
3.36019
3.42106
3.48446
3.55021
3.61816
3.68814
3.76002
3.83368
3.97671
3.89958
3.82399
3.75004
3.67786
3.60756
3.5393
3.47322
3.40949
3.34828
3.28979
3.2342
3.18175
3.13265
3.08717
3.04554
3.00806
2.975
2.94666
2.92338
2.90547
2.89331
2.88742
2.88742
2.88742
2.88742
2.89331
2.90547
2.92338
2.94666
2.975
3.00806
3.04554
3.08717
3.13265
3.18175
3.2342
3.28979
3.34828
3.40949
3.47322
3.5393
3.60756
3.67786
3.75004
3.82399
3.97155
3.89425
3.81847
3.74433
3.67194
3.60144
3.53296
3.46667
3.40271
3.34128
3.28256
3.22676
3.1741
3.12481
3.07915
3.0374
2.99983
2.96677
2.93856
2.91557
2.89829
2.88742
2.88742
2.88742
2.88742
2.88742
2.88742
2.89829
2.91557
2.93856
2.96677
2.99983
3.0374
3.07915
3.12481
3.1741
3.22676
3.28256
3.34128
3.40271
3.46667
3.53296
3.60144
3.67194
3.74433
3.81847
3.97153
3.89423
3.81846
3.74432
3.67193
3.60143
3.53296
3.46666
3.40271
3.34128
3.28256
3.22676
3.1741
3.12481
3.07915
3.0374
2.99983
2.96677
2.93856
2.91557
2.89829
2.88742
2.88742
2.88742
2.88742
2.88742
2.88742
2.89829
2.91557
2.93856
2.96677
2.99983
3.0374
3.07915
3.12481
3.1741
3.22676
3.28256
3.34128
3.40271
3.46667
3.53296
3.60144
3.67194
3.74433
3.81847
3.97834
3.90123
3.82565
3.75171
3.67953
3.60923
3.54097
3.47489
3.41116
3.34995
3.29145
3.23587
3.18343
3.13437
3.08893
3.04738
3.01001
2.97714
2.94909
2.92625
2.90908
2.89829
2.89829
2.89829
2.89829
2.89829
2.89829
2.90908
2.92625
2.94909
2.97714
3.01001
3.04738
3.08893
3.13437
3.18343
3.23587
3.29145
3.34995
3.41116
3.4749
3.54098
3.60925
3.67955
3.75174
3.8257
3.98904
3.91226
3.837
3.76339
3.69154
3.62158
3.55365
3.48792
3.42453
3.36367
3.30553
3.25031
3.19822
3.14951
3.10441
3.06319
3.02614
2.99356
2.96578
2.94316
2.92617
2.9155
2.91538
2.91513
2.91513
2.91538
2.9155
2.92617
2.94316
2.96578
2.99356
3.02614
3.06319
3.10441
3.14951
3.19823
3.25031
3.30554
3.36369
3.42455
3.48795
3.5537
3.62164
3.69162
3.76351
3.83716
4.00301
3.92669
3.85189
3.77874
3.70735
3.63785
3.57039
3.50512
3.44221
3.38182
3.32415
3.2694
3.21778
3.16953
3.12488
3.0841
3.04746
3.01526
2.98782
2.9655
2.94873
2.9382
2.93777
2.93697
2.93697
2.93777
2.9382
2.94873
2.9655
2.98782
3.01526
3.04747
3.08411
3.1249
3.16955
3.21782
3.26944
3.32421
3.3819
3.44231
3.50526
3.57057
3.63809
3.70765
3.77913
3.85239
4.0198
3.94408
3.86988
3.79732
3.72652
3.65761
3.59074
3.52605
3.46373
3.40392
3.34684
3.29266
3.24162
3.19392
3.14981
3.10955
3.0734
3.04165
3.01461
2.99262
2.97611
2.96572
2.96471
2.96316
2.96316
2.96471
2.96572
2.97611
2.99263
3.01462
3.04167
3.07344
3.1096
3.14988
3.19401
3.24173
3.29282
3.34704
3.40418
3.46405
3.52646
3.59125
3.65825
3.72731
3.7983
3.87108
4.03913
3.96414
3.89065
3.8188
3.7487
3.6805
3.61432
3.55034
3.4887
3.42959
3.37318
3.31968
3.26929
3.22223
3.17874
3.13906
3.10346
3.0722
3.04559
3.02395
3.00769
2.99738
2.99552
2.99313
2.99313
2.99552
2.99738
3.00769
3.02397
3.04563
3.07226
3.10355
3.13919
3.17891
3.22245
3.26958
3.32005
3.37365
3.43018
3.48944
3.55124
3.61543
3.68185
3.75033
3.82076
3.89299
4.06083
3.98664
3.91397
3.84292
3.77363
3.70622
3.64085
3.57765
3.5168
3.45846
3.40281
3.35005
3.30039
3.25403
3.21121
3.17216
3.13714
3.10639
3.08022
3.05891
3.04284
3.03252
3.02958
3.02639
3.02639
3.02958
3.03252
3.04286
3.05895
3.08029
3.10651
3.13731
3.17241
3.21155
3.25448
3.30096
3.35078
3.40372
3.45958
3.51817
3.57932
3.64285
3.70862
3.77648
3.84628
3.91792
4.08481
4.01149
3.93968
3.86951
3.8011
3.73457
3.67006
3.60773
3.54773
3.49023
3.4354
3.38345
3.33456
3.28894
3.24682
3.20842
3.17397
3.14374
3.11797
3.09695
3.081
3.07053
3.06642
3.06258
3.06258
3.06642
3.07053
3.08102
3.09701
3.11809
3.14393
3.17427
3.20884
3.24739
3.28969
3.33552
3.38466
3.43691
3.49207
3.54996
3.61041
3.67325
3.73833
3.80551
3.87466
3.94564
4.11104
4.03862
3.96772
3.89847
3.83098
3.76537
3.70178
3.64036
3.58125
3.52463
3.47067
3.41955
3.37146
3.32661
3.28519
3.24743
3.21356
3.1838
3.15839
3.13759
3.12167
3.11094
3.10572
3.10143
3.10143
3.10572
3.11094
3.1217
3.13768
3.15856
3.18408
3.21399
3.24805
3.28604
3.32773
3.3729
3.42136
3.47291
3.52736
3.58453
3.64426
3.70638
3.77076
3.83723
3.90568
3.97598
4.13951
4.06801
3.99804
3.92973
3.86317
3.79851
3.73586
3.67537
3.61719
3.56148
3.50839
3.45812
3.41083
3.36673
3.32601
3.28887
3.25554
3.22621
3.20111
3.18047
3.16451
3.15344
3.1473
3.14278
3.14278
3.1473
3.15344
3.16454
3.18057
3.20133
3.22658
3.25612
3.28972
3.32717
3.36826
3.41281
3.4606
3.51145
3.56519
3.62164
3.68064
3.74203
3.80568
3.87143
3.93917
4.00876
4.17025
4.09965
4.03061
3.96324
3.89763
3.83392
3.77222
3.71267
3.65541
3.6006
3.54839
3.49895
3.45246
3.40909
3.36904
3.33249
3.29965
3.27071
3.24588
3.22535
3.20931
3.19792
3.19108
3.18655
3.18655
3.19108
3.19792
3.20935
3.22547
3.24614
3.27117
3.30037
3.33355
3.3705
3.41104
3.45497
3.50212
3.55229
3.60533
3.66106
3.71933
3.78
3.8429
3.90793
3.97494
4.04382
4.20324
4.13355
4.06543
3.99898
3.93431
3.87154
3.81077
3.75215
3.6958
3.64188
3.59053
3.54191
3.49618
3.45352
3.41411
3.37812
3.34574
3.31716
3.29255
3.27211
3.256
3.24435
3.23705
3.2327
3.2327
3.23705
3.24434
3.25604
3.27224
3.29284
3.31768
3.34657
3.37936
3.41584
3.45585
3.4992
3.54572
3.59523
3.64758
3.70261
3.76016
3.8201
3.88227
3.94656
4.01284
4.081
4.23848
4.16968
4.10246
4.03693
3.97318
3.91133
3.85148
3.79376
3.73831
3.68525
3.63472
3.58689
3.5419
3.49992
3.46112
3.42565
3.39371
3.36546
3.34108
3.32073
3.30459
3.29276
3.28523
3.28122
3.28122
3.28522
3.29276
3.30462
3.32087
3.34138
3.36602
3.39463
3.42703
3.46307
3.50256
3.54535
3.59126
3.64013
3.69181
3.74614
3.80299
3.8622
3.92365
3.9872
4.05275
4.12018
4.27596
4.20803
4.1417
4.07706
4.01421
3.95325
3.8943
3.83746
3.78287
3.73064
3.68092
3.63385
3.58957
3.54823
3.51001
3.47505
3.44353
3.41561
3.39145
3.37124
3.35511
3.34321
3.3356
3.33207
3.33207
3.33559
3.3432
3.35514
3.37137
3.39176
3.41619
3.4445
3.47653
3.51212
3.55111
3.59334
3.63865
3.68689
3.73791
3.79156
3.8477
3.9062
3.96692
4.02975
4.09457
4.16126
4.31565
4.24858
4.18311
4.11935
4.05737
3.99729
3.9392
3.88321
3.82945
3.77803
3.72908
3.68273
3.63914
3.59843
3.56077
3.52631
3.4952
3.46762
3.44372
3.42366
3.40762
3.39574
3.38817
3.38522
3.38522
3.38815
3.39573
3.40765
3.42379
3.44402
3.4682
3.49619
3.52783
3.56297
3.60145
3.64313
3.68785
3.73546
3.78582
3.83879
3.89423
3.95202
4.01202
4.07412
4.13821
4.20418
4.35751
4.29128
4.22666
4.16375
4.10262
4.04339
3.98614
3.93098
3.87802
3.82738
3.77917
3.73354
3.6906
3.6505
3.6134
3.57942
3.54874
3.52151
3.4979
3.47805
3.46215
3.45036
3.4429
3.44062
3.44063
3.44288
3.45035
3.46218
3.47817
3.49819
3.52209
3.54973
3.58095
3.61563
3.65359
3.69471
3.73883
3.78581
3.83552
3.8878
3.94255
3.99962
4.0589
4.12027
4.18363
4.24886
4.40149
4.33609
4.2723
4.21022
4.14993
4.09152
4.03509
3.98073
3.92855
3.87866
3.83118
3.78623
3.74394
3.70445
3.66789
3.63441
3.60417
3.57732
3.55401
3.53442
3.51871
3.50706
3.49976
3.4982
3.49821
3.49973
3.50705
3.51873
3.53453
3.55429
3.57787
3.60513
3.63592
3.6701
3.70754
3.74808
3.79159
3.83793
3.88697
3.93857
3.99261
4.04897
4.10752
4.16817
4.23079
4.29528
4.44755
4.38295
4.31999
4.25872
4.19925
4.14164
4.086
4.03242
3.981
3.93185
3.88508
3.8408
3.79915
3.76025
3.72425
3.69127
3.66148
3.63503
3.61207
3.59276
3.57728
3.56582
3.55868
3.55787
3.55789
3.55865
3.56581
3.5773
3.59287
3.61233
3.63556
3.6624
3.69273
3.72641
3.76329
3.80324
3.84613
3.89182
3.94018
3.99109
4.04442
4.10006
4.15788
4.21778
4.27966
4.34341
4.49562
4.43183
4.36966
4.3092
4.25052
4.19371
4.13884
4.08603
4.03535
3.98692
3.94084
3.89723
3.85621
3.81791
3.78245
3.75
3.72067
3.69464
3.67205
3.65306
3.63784
3.62659
3.61961
3.61956
3.61959
3.61959
3.62658
3.63786
3.65315
3.67229
3.69513
3.72154
3.75139
3.78453
3.82085
3.86019
3.90245
3.94747
3.99515
4.04535
4.09796
4.15286
4.20995
4.2691
4.33023
4.39323
4.54564
4.48264
4.42127
4.3616
4.3037
4.24766
4.19356
4.14149
4.09155
4.04382
3.99843
3.95548
3.91509
3.87738
3.84249
3.81055
3.78171
3.75612
3.73392
3.71527
3.70034
3.68931
3.68251
3.68316
3.6832
3.68249
3.6893
3.70035
3.71536
3.73414
3.75658
3.78253
3.81187
3.84447
3.8802
3.91892
3.96052
4.00488
4.05185
4.10134
4.15322
4.20738
4.26372
4.32212
4.38249
4.44473
4.59756
4.53535
4.47475
4.41586
4.35873
4.30345
4.2501
4.19877
4.14954
4.10252
4.05781
4.01551
3.97575
3.93864
3.90432
3.87292
3.84457
3.81943
3.79763
3.77934
3.7647
3.75392
3.74729
3.7486
3.74865
3.74728
3.75391
3.76472
3.77942
3.79784
3.81985
3.84533
3.87415
3.90619
3.94132
3.97941
4.02035
4.06401
4.11028
4.15905
4.21019
4.2636
4.31917
4.37681
4.43641
4.49789
4.65131
4.58987
4.53005
4.47192
4.41556
4.36103
4.30842
4.25781
4.2093
4.16297
4.11893
4.07729
4.03815
4.00165
3.9679
3.93703
3.90919
3.88451
3.86313
3.8452
3.83088
3.82035
3.81389
3.81577
3.81583
3.81388
3.82034
3.8309
3.84527
3.86332
3.8849
3.9099
3.93819
3.96965
4.00417
4.04162
4.08189
4.12486
4.17041
4.21844
4.26883
4.32148
4.37629
4.43316
4.49198
4.55268
4.70683
4.64616
4.5871
4.52973
4.47412
4.42033
4.36845
4.31857
4.27076
4.22512
4.18175
4.14076
4.10225
4.06635
4.03317
4.00285
3.97552
3.9513
3.93035
3.9128
3.89879
3.88851
3.88222
3.88461
3.88468
3.88222
3.8885
3.89881
3.91286
3.93053
3.95167
3.97618
4.00393
4.03481
4.06872
4.10552
4.14511
4.18738
4.23221
4.27949
4.32913
4.38102
4.43505
4.49114
4.54918
4.6091
4.76406
4.70414
4.64584
4.58922
4.53435
4.4813
4.43015
4.38097
4.33386
4.28891
4.24621
4.20587
4.16799
4.13269
4.10009
4.07032
4.04349
4.01975
3.99922
3.98205
3.96836
3.95833
3.95222
3.95502
3.9551
3.95221
3.95833
3.96837
3.98211
3.99938
4.02009
4.0441
4.07132
4.10162
4.1349
4.17105
4.20996
4.25152
4.29563
4.34217
4.39105
4.44217
4.49542
4.55072
4.60798
4.6671
4.94642
4.88851
4.83241
4.77818
4.72593
4.67573
4.62767
4.58184
4.53835
4.49728
4.45873
4.42282
4.38963
4.35928
4.33188
4.30755
4.2864
4.26857
4.2542
4.24351
4.23684
4.23642
4.23588
4.24251
4.24251
4.23588
4.23642
4.23684
4.24358
4.25439
4.26891
4.28695
4.30834
4.33296
4.36068
4.39139
4.42497
4.46132
4.50034
4.54191
4.58594
4.63232
4.68097
4.73179
4.78468
4.83957
4.8915
4.83287
4.77605
4.72111
4.66815
4.61726
4.56851
4.52201
4.47786
4.43615
4.39699
4.36049
4.32675
4.29587
4.26799
4.24322
4.22167
4.2035
4.18885
4.17793
4.17111
4.17057
4.16991
4.17665
4.17665
4.16991
4.17057
4.17111
4.17801
4.18905
4.20387
4.22227
4.24408
4.26916
4.29739
4.32865
4.36283
4.3998
4.43946
4.48171
4.52643
4.57353
4.6229
4.67446
4.7281
4.78373
4.83836
4.77902
4.72149
4.66585
4.61219
4.5606
4.51117
4.464
4.41919
4.37685
4.33707
4.29997
4.26567
4.23427
4.2059
4.18067
4.15873
4.1402
4.12526
4.11411
4.10713
4.10642
4.10561
4.11244
4.11244
4.10561
4.10642
4.10713
4.1142
4.12548
4.14061
4.15938
4.18161
4.20717
4.23592
4.26774
4.30251
4.34011
4.38043
4.42335
4.46877
4.51658
4.56668
4.61897
4.67336
4.72974
4.78707
4.72703
4.66879
4.61245
4.55809
4.50581
4.4557
4.40786
4.3624
4.31941
4.27902
4.24133
4.20646
4.17453
4.14566
4.11998
4.09762
4.07873
4.06348
4.05209
4.04493
4.044
4.04299
4.04989
4.04989
4.04299
4.044
4.04493
4.05218
4.06372
4.07918
4.09833
4.12099
4.14704
4.17632
4.2087
4.24408
4.28231
4.32328
4.36689
4.41301
4.46153
4.51236
4.56538
4.62051
4.67764
4.73765
4.67692
4.61799
4.56096
4.50591
4.45294
4.40215
4.35364
4.30752
4.2639
4.22289
4.1846
4.14916
4.11669
4.08731
4.06117
4.03839
4.01912
4.00355
3.99189
3.98452
3.98328
3.98202
3.98897
3.98897
3.98202
3.98328
3.98452
3.99199
4.00381
4.01961
4.03915
4.06227
4.08881
4.11863
4.15159
4.18757
4.22644
4.26808
4.31237
4.35919
4.40843
4.45998
4.51373
4.56959
4.62746
4.69015
4.62873
4.56912
4.51139
4.45566
4.40201
4.35055
4.30137
4.2546
4.21034
4.1687
4.12981
4.09379
4.06077
4.03088
4.00425
3.98103
3.96137
3.94544
3.93348
3.92585
3.92418
3.92261
3.92954
3.92954
3.92261
3.92418
3.92585
3.93358
3.94572
3.96189
3.98186
4.00545
4.0325
4.06287
4.09642
4.13302
4.17253
4.21484
4.25981
4.30733
4.35728
4.40955
4.46404
4.52063
4.57923
4.64457
4.58247
4.52217
4.46376
4.40735
4.35302
4.30088
4.25104
4.20361
4.1587
4.11644
4.07694
4.04033
4.00675
3.97632
3.94918
3.92549
3.9054
3.88907
3.87675
3.86879
3.86655
3.86456
3.8714
3.8714
3.86456
3.86655
3.86879
3.87686
3.88937
3.90596
3.92638
3.95047
3.97806
4.009
4.04315
4.08038
4.12055
4.16353
4.20919
4.25742
4.30808
4.36107
4.41628
4.4736
4.53293
4.60086
4.53809
4.47711
4.41803
4.36093
4.30592
4.2531
4.20259
4.15449
4.10893
4.06602
4.02589
3.98868
3.9545
3.92351
3.89583
3.87163
3.85104
3.83426
3.82149
3.81309
3.81008
3.80756
3.81419
3.81419
3.80756
3.81008
3.81309
3.82161
3.83457
3.85163
3.87257
3.89719
3.92536
3.9569
3.99168
4.02956
4.0704
4.11406
4.16042
4.20935
4.26073
4.31444
4.37038
4.42842
4.48847
4.55895
4.4955
4.43383
4.37406
4.31627
4.26057
4.20706
4.15586
4.10708
4.06084
4.01726
3.97648
3.93861
3.90381
3.8722
3.84393
3.81914
3.79799
3.78065
3.76731
3.7583
3.75428
3.75111
3.75736
3.75736
3.75111
3.75428
3.7583
3.76743
3.78097
3.7986
3.82012
3.84535
3.87413
3.90632
3.94176
3.98032
4.02185
4.06621
4.11329
4.16294
4.21504
4.26948
4.32614
4.3849
4.44567
4.51864
4.45449
4.39212
4.33164
4.27314
4.21672
4.16249
4.11057
4.06107
4.01411
3.96982
3.92832
3.88976
3.85426
3.82197
3.79301
3.76755
3.74571
3.72767
3.71361
3.70376
3.69849
3.69453
3.7002
3.7002
3.69453
3.69849
3.70376
3.71372
3.72799
3.74632
3.76853
3.79445
3.82393
3.85682
3.89298
3.93226
3.97451
4.01961
4.06742
4.11782
4.17066
4.22584
4.28323
4.34273
4.40422
4.47959
4.41471
4.3516
4.29037
4.23111
4.17393
4.11893
4.06623
4.01595
3.96821
3.92314
3.88086
3.84151
3.80523
3.77214
3.7424
3.71612
3.69346
3.67455
3.65956
3.64864
3.64192
3.6371
3.64196
3.64196
3.6371
3.64192
3.64864
3.65966
3.67485
3.69404
3.71707
3.74379
3.77406
3.80774
3.84467
3.88473
3.92777
3.97365
4.02223
4.0734
4.12701
4.18295
4.2411
4.30134
4.36357
4.44128
4.37561
4.3117
4.24966
4.18957
4.13155
4.0757
4.02215
3.971
3.92239
3.87644
3.83328
3.79304
3.75586
3.72187
3.6912
3.66397
3.64033
3.62039
3.60428
3.5921
3.58386
3.57816
3.58205
3.58205
3.57816
3.58386
3.5921
3.60436
3.62064
3.64084
3.66483
3.69247
3.72363
3.75818
3.79597
3.83688
3.88076
3.92747
3.97688
4.02886
4.08328
4.14002
4.19896
4.25998
4.32298
4.40302
4.33647
4.27168
4.20873
4.14772
4.08877
4.03198
3.97747
3.92536
3.87577
3.82884
3.78469
3.74345
3.70526
3.67024
3.63853
3.61025
3.58551
3.56443
3.5471
3.53362
3.52394
3.51745
3.52033
3.52033
3.51745
3.52394
3.53362
3.54717
3.56463
3.58593
3.61096
3.6396
3.67173
3.70723
3.74596
3.78778
3.83256
3.88017
3.93046
3.98331
4.03859
4.09617
4.15594
4.21778
4.28158
4.36404
4.29654
4.23076
4.16681
4.10479
4.04481
3.98699
3.93143
3.87826
3.82761
3.77961
3.73438
3.69207
3.65279
3.61669
3.58388
3.5545
3.52864
3.50641
3.4879
3.4732
3.46233
3.4552
3.45715
3.45715
3.4552
3.46233
3.4732
3.48795
3.50655
3.52894
3.55503
3.58469
3.61783
3.65431
3.69401
3.7368
3.78253
3.83107
3.88229
3.93605
3.99223
4.0507
4.11134
4.17404
4.23868
4.32383
4.25529
4.18846
4.12345
4.06036
3.99929
3.94036
3.8837
3.82942
3.77766
3.72854
3.68221
3.63879
3.59842
3.56123
3.52735
3.4969
3.46999
3.44671
3.42717
3.41146
3.39969
3.39207
3.39328
3.39328
3.39207
3.39969
3.41146
3.4272
3.44681
3.47019
3.49726
3.5279
3.56202
3.59948
3.64015
3.6839
3.7306
3.7801
3.83227
3.88698
3.94409
4.00349
4.06504
4.12864
4.19416
4.28236
4.21276
4.14487
4.07877
4.01458
3.95241
3.89237
3.83459
3.7792
3.72633
3.67611
3.62869
3.58419
3.54277
3.50455
3.46966
3.43824
3.41039
3.38622
3.36583
3.34934
3.33691
3.32894
3.32962
3.32962
3.32894
3.33691
3.34934
3.36584
3.38627
3.41051
3.43846
3.47
3.50503
3.54343
3.58504
3.62975
3.67741
3.72787
3.78101
3.83668
3.89475
3.95509
4.01757
4.08209
4.14853
4.24019
4.16956
4.10062
4.03346
3.9682
3.90494
3.84383
3.78497
3.72849
3.67455
3.62327
3.57479
3.52927
3.48685
3.44767
3.41187
3.37957
3.3509
3.32597
3.3049
3.28782
3.27493
3.26669
3.26704
3.26704
3.26669
3.27493
3.28782
3.30491
3.326
3.35097
3.37969
3.41205
3.44794
3.48722
3.52975
3.57539
3.624
3.67542
3.72952
3.78615
3.84518
3.90648
3.96991
4.03536
4.10272
4.19823
4.12661
4.05666
3.98848
3.92219
3.85791
3.79575
3.73585
3.67834
3.62337
3.57107
3.5216
3.47511
3.43175
3.39167
3.35501
3.32192
3.29253
3.26696
3.24532
3.22777
3.21453
3.20609
3.20625
3.20625
3.20609
3.21453
3.22777
3.24533
3.26697
3.29257
3.32198
3.35511
3.3918
3.43193
3.47535
3.52191
3.57144
3.62381
3.67887
3.73646
3.79645
3.8587
3.92308
3.98947
4.05775
4.15739
4.08483
4.01392
3.94478
3.87752
3.81225
3.7491
3.68821
3.62971
3.57375
3.52047
3.47005
3.42263
3.37837
3.33743
3.29998
3.26615
3.2361
3.20994
3.18782
3.16987
3.15635
3.14774
3.14781
3.14781
3.14774
3.15635
3.16987
3.18782
3.20995
3.23611
3.26618
3.30002
3.3375
3.37845
3.42274
3.47019
3.52064
3.57395
3.62995
3.68849
3.74942
3.81262
3.87793
3.94524
4.01443
4.11842
4.04498
3.97317
3.90312
3.83492
3.76871
3.70462
3.64277
3.58332
3.52641
3.4722
3.42085
3.37253
3.32741
3.28565
3.24743
3.2129
3.18222
3.15552
3.13295
3.11467
3.1009
3.09216
3.09218
3.09218
3.09216
3.1009
3.11467
3.13295
3.15552
3.18222
3.21291
3.24745
3.28568
3.32744
3.37258
3.42091
3.47227
3.52649
3.58342
3.64289
3.70475
3.76887
3.83509
3.90331
3.97339
4.08188
4.0076
3.93494
3.86402
3.79494
3.72783
3.66283
3.60007
3.5397
3.48188
3.42676
3.37453
3.32534
3.27938
3.23683
3.19786
3.16266
3.13137
3.10416
3.08118
3.06259
3.04861
3.03976
3.03976
3.03976
3.03976
3.04861
3.06259
3.08118
3.10416
3.13137
3.16266
3.19787
3.23684
3.27939
3.32535
3.37455
3.42679
3.48191
3.53974
3.60012
3.66288
3.72789
3.795
3.86409
3.93502
4.04812
3.97306
3.8996
3.82785
3.75794
3.68998
3.62412
3.56049
3.49924
3.44054
3.38456
3.33146
3.28144
3.23467
3.19135
3.15166
3.1158
3.08394
3.05624
3.03287
3.014
2.99986
2.99092
2.99092
2.99092
2.99092
2.99986
3.014
3.03287
3.05624
3.08394
3.1158
3.15166
3.19135
3.23467
3.28144
3.33147
3.38457
3.44055
3.49926
3.5605
3.62413
3.69
3.75796
3.82787
3.89962
4.0174
3.94161
3.8674
3.79488
3.72419
3.65543
3.58875
3.5243
3.46222
3.40269
3.34588
3.29196
3.24113
3.19359
3.14953
3.10915
3.07266
3.04025
3.0121
2.98838
2.96927
2.955
2.94602
2.94602
2.94602
2.94602
2.955
2.96927
2.98838
3.0121
3.04025
3.07266
3.10916
3.14953
3.19359
3.24114
3.29196
3.34588
3.4027
3.46223
3.5243
3.58876
3.65543
3.72419
3.79489
3.8674
3.98991
3.91344
3.83854
3.76532
3.69389
3.62439
3.55696
3.49173
3.42888
3.36857
3.31098
3.25629
3.2047
3.15643
3.11167
3.07064
3.03356
3.00063
2.97206
2.94803
2.92873
2.91439
2.90542
2.90542
2.90542
2.90542
2.91439
2.92873
2.94803
2.97206
3.00063
3.03356
3.07064
3.11167
3.15643
3.2047
3.25629
3.31098
3.36857
3.42888
3.49174
3.55696
3.62439
3.69389
3.76532
3.83854
3.96579
3.88872
3.81319
3.73932
3.66723
3.59705
3.52892
3.463
3.39943
3.3384
3.28009
3.22469
3.1724
3.12344
3.07803
3.0364
2.99877
2.96538
2.93644
2.91216
2.89274
2.8784
2.86953
2.86953
2.86953
2.86953
2.8784
2.89274
2.91216
2.93644
2.96538
2.99877
3.0364
3.07803
3.12344
3.1724
3.22469
3.28009
3.3384
3.39943
3.463
3.52893
3.59705
3.66723
3.73932
3.81319
3.9452
3.86758
3.79149
3.71705
3.64437
3.57359
3.50485
3.43829
3.37408
3.3124
3.25344
3.19739
3.14447
3.09489
3.0489
3.00672
2.96861
2.93482
2.90557
2.8811
2.86164
2.84741
2.83876
2.83876
2.83876
2.83876
2.84741
2.86164
2.8811
2.90557
2.93482
2.96861
3.00672
3.0489
3.09489
3.14447
3.19739
3.25344
3.3124
3.37408
3.43829
3.50485
3.57359
3.64437
3.71705
3.79149
3.92825
3.85017
3.77361
3.69867
3.62549
3.55418
3.4849
3.41779
3.35303
3.29078
3.23125
3.17464
3.12116
3.07105
3.02454
2.9819
2.94338
2.90925
2.87977
2.85521
2.83582
2.82184
2.81358
2.81358
2.81358
2.81358
2.82184
2.83582
2.85521
2.87977
2.90925
2.94338
2.9819
3.02454
3.07105
3.12116
3.17464
3.23125
3.29078
3.35303
3.41779
3.4849
3.55418
3.62549
3.69867
3.77361
3.91509
3.83663
3.75968
3.68434
3.61073
3.53899
3.46926
3.4017
3.33647
3.27376
3.21375
3.15667
3.10272
3.05216
3.00523
2.96221
2.92336
2.88899
2.85939
2.83484
2.81566
2.80213
2.79457
2.79457
2.79457
2.79457
2.80213
2.81566
2.83484
2.85939
2.88899
2.92336
2.96221