# vtk DataFile Version 4.2
vtk output
ASCII
DATASET POLYDATA
POINTS 642 float
0.106243 1.00913 0.437816
0.84726 1.10479 0.495122
0.125445 -0.133698 0.482961
0.871723 -0.0456895 0.531868
0.439715 0.108039 1.00909
0.495147 0.847311 1.10483
0.482956 0.125541 -0.134246
0.531731 0.871828 -0.0457568
1.00906 0.439663 0.10806
1.10492 0.495125 0.847319
-0.133664 0.483057 0.125435
-0.0456673 0.531865 0.871707
-0.114494 0.828179 0.692788
0.0613877 0.709626 1.19588
0.297533 0.932945 0.805915
0.780578 1.03466 0.866302
0.52214 1.12689 0.429571
0.709529 1.19601 0.0613616
0.282286 1.08739 0.133626
0.16434 0.67696 0.031586
-0.224921 0.901691 0.259394
-0.1612 0.541189 0.45138
0.866433 0.780546 1.03465
1.03472 0.866464 0.780657
0.13371 0.282263 1.08737
0.429554 0.522257 1.12708
-0.065727 0.107157 0.197525
0.0319332 0.16426 0.676898
0.541188 0.451392 -0.161509
0.107322 0.197587 -0.0658217
0.932917 0.806012 0.297513
0.828115 0.692862 -0.114498
1.19602 0.0613392 0.709628
0.806039 0.29749 0.933021
0.692871 -0.114516 0.828137
0.259449 -0.225016 0.901632
0.451397 -0.161211 0.541141
0.19755 -0.065735 0.107171
0.676893 0.0319294 0.164239
0.901627 0.259433 -0.224966
1.08736 0.133703 0.282258
1.12698 0.429553 0.522256
-0.0348323 0.923672 0.561481
0.0750243 0.879942 0.776044
0.2055 0.971558 0.626051
-0.0107937 0.634579 1.07231
-0.0115797 0.768456 0.944335
-0.116841 0.702502 0.805159
0.390456 0.894223 0.970482
0.170384 0.824734 0.988921
0.255929 0.764398 1.15676
0.422341 1.03284 0.626949
0.327593 1.07494 0.431997
0.65983 0.949312 0.99362
0.535797 0.987921 0.821115
0.698307 1.15312 0.444498
0.639646 1.07875 0.65118
0.841356 1.10034 0.703562
0.417085 1.15834 0.234565
0.173407 1.08368 0.265487
0.764343 1.15683 0.255932
0.629704 1.22619 0.210128
0.412496 1.01254 0.0377966
0.533818 1.20363 0.0681145
0.634466 1.07234 -0.0108117
0.0307909 0.98131 0.194093
-0.0888608 0.974214 0.336755
0.344979 0.770897 -0.00867851
0.195918 0.899041 0.0826777
-0.193166 0.719639 0.203711
-0.0207474 0.801805 0.139653
-0.00200389 0.58548 0.0714036
-0.231334 0.895385 0.443504
-0.186175 0.530016 0.276168
-0.261091 0.763618 0.340887
-0.193033 0.732737 0.557489
-0.110903 0.53809 0.648723
0.978352 1.02786 0.906968
0.949278 0.993582 0.659846
0.703495 0.841347 1.10028
0.907068 0.978301 1.02761
1.10025 0.703565 0.841362
1.02774 0.907059 0.97841
0.993641 0.659745 0.94936
0.210067 0.629836 1.22628
0.444557 0.698302 1.15313
0.0381674 0.412346 1.01189
0.0684587 0.534377 1.20367
0.431576 0.327478 1.07513
0.234386 0.417355 1.15851
0.265813 0.173109 1.08325
-0.0678597 0.343813 0.553246
-0.00840767 0.345058 0.770781
-0.129114 0.271583 0.135187
-0.113006 0.321537 0.336245
0.0715735 -0.00205603 0.585356
-0.0220912 0.149182 0.440551
0.0183134 -0.0224963 0.317212
0.149192 0.440607 -0.0223119
-0.022138 0.317343 0.0182523
0.538139 0.64871 -0.111195
0.343723 0.553349 -0.068098
0.271676 0.135066 -0.129281
0.321565 0.336207 -0.113191
0.529818 0.275646 -0.186712
0.768355 0.944502 -0.0115991
0.702405 0.805213 -0.116826
0.894218 0.970525 0.390432
0.824647 0.989087 0.170341
0.923775 0.560857 -0.0350137
0.879841 0.776249 0.0749463
0.971507 0.625967 0.205197
1.07238 -0.0107871 0.634559
0.944518 -0.0116181 0.768396
0.805194 -0.116843 0.702486
0.970592 0.390397 0.894237
0.989179 0.170336 0.824712
1.15683 0.255923 0.764415
0.560887 -0.0350269 0.923872
0.776274 0.0749459 0.879911
0.626035 0.205147 0.971621
0.557548 -0.193039 0.732713
0.648737 -0.110916 0.53807
0.336971 -0.088701 0.974159
0.443459 -0.231415 0.895276
0.276165 -0.186182 0.529944
0.340891 -0.26109 0.763498
0.203736 -0.193201 0.719578
0.553251 -0.0678693 0.343794
0.770785 -0.00842009 0.345048
0.135 -0.129255 0.271574
0.336233 -0.113016 0.321504
0.585337 0.071585 -0.00211118
0.440564 -0.0220898 0.149161
0.317266 0.0183285 -0.0225094
0.899055 0.0829053 0.195829
1.01189 0.0381553 0.412328
0.71951 0.203696 -0.193191
0.801727 0.139761 -0.0206579
1.08324 0.265797 0.173109
0.981383 0.19428 0.0307971
0.974147 0.336966 -0.0886927
1.20369 0.0684454 0.534339
1.07506 0.431598 0.327504
1.15849 0.234331 0.417414
1.22633 0.210055 0.629851
1.15319 0.444579 0.698358
0.627118 0.4224 1.03292
0.821246 0.535775 0.987972
0.651257 0.639738 1.07883
0.139767 -0.0206464 0.801757
0.194289 0.0307959 0.9814
0.0829127 0.195842 0.899068
0.0714916 -0.00319658 -0.054104
-0.0032096 -0.0541086 0.0714242
-0.0540905 0.0714234 -0.00325681
0.895269 0.443491 -0.231416
0.76343 0.340895 -0.261381
0.732396 0.557603 -0.193208
1.0788 0.65127 0.639769
1.03286 0.62708 0.422474
0.987926 0.821223 0.53586
0.0276332 0.962261 0.504499
0.0848423 0.947455 0.597986
0.161282 0.989126 0.53866
-0.0222104 0.855942 0.742763
0.02245 0.904257 0.670737
-0.0850006 0.879895 0.626194
0.253518 0.950914 0.721755
0.135316 0.925893 0.700878
0.180182 0.905094 0.794837
-0.0313733 0.586408 0.976956
-0.0613772 0.667959 0.938428
-0.0848724 0.626688 0.837968
0.0269378 0.739027 1.07188
-0.026537 0.708428 1.02247
0.0184338 0.676487 1.16
-0.128946 0.774805 0.754371
-0.0764833 0.741748 0.884463
-0.065535 0.804686 0.825397
0.436993 0.874119 1.03868
0.324024 0.833803 1.06522
0.361463 0.80249 1.12941
0.230633 0.87966 0.896758
0.275041 0.856364 0.980856
0.340821 0.915239 0.886909
0.143358 0.73333 1.18633
0.209435 0.795827 1.08
0.114867 0.763846 1.08738
0.0261525 0.829411 0.861701
0.0743384 0.798815 0.97376
0.123743 0.851053 0.883673
0.264535 1.02387 0.529131
0.227355 1.04542 0.436702
0.364812 0.983522 0.71331
0.315791 1.00337 0.625635
0.432762 1.10623 0.42885
0.375068 1.05386 0.53005
0.47239 1.07887 0.535052
0.590174 0.908746 1.04704
0.524155 0.923027 0.980564
0.651353 1.01161 0.837568
0.596425 0.969203 0.906914
0.732045 0.996621 0.92529
0.467584 0.943241 0.895288
0.418858 0.962428 0.81193
0.773236 1.14145 0.465617
0.765987 1.11953 0.578611
0.847333 1.10457 0.614581
0.577896 1.10295 0.545004
0.668955 1.11666 0.557051
0.609271 1.14435 0.43138
0.816192 1.06617 0.792782
0.741721 1.09527 0.676938
0.702462 1.05579 0.75436
0.478842 1.01203 0.724398
0.588105 1.03506 0.737322
0.530551 1.05595 0.638799
0.250974 1.08323 0.34384
0.139639 1.04819 0.344028
0.4699 1.14743 0.322571
0.368123 1.1177 0.334786
0.223564 1.09662 0.191084
0.296689 1.11721 0.252199
0.350726 1.14346 0.174319
0.802448 1.12946 0.361443
0.738597 1.17794 0.343037
0.671589 1.24475 0.120285
0.70469 1.22379 0.221891
0.733255 1.18642 0.143359
0.662764 1.19092 0.318732
0.576617 1.17414 0.314425
0.465882 0.952221 0.000701712
0.529967 1.05481 0.00742368
0.586251 0.977018 -0.0314296
0.416598 1.14714 0.102008
0.473342 1.11794 0.0484765
0.346664 1.06195 0.0806524
0.676402 1.16008 0.0183995
0.587738 1.16814 0.0178817
0.634766 1.23729 0.0464642
0.525371 1.19859 0.215437
0.58485 1.23593 0.122111
0.473497 1.19885 0.145717
0.0420253 1.0268 0.300265
0.00567088 0.993737 0.385185
0.149122 1.03555 0.159176
0.0927643 1.04459 0.223927
-0.177653 0.94367 0.292725
-0.043865 0.993586 0.258683
-0.0964913 0.938968 0.226502
0.428524 0.813493 -0.0255911
0.374569 0.892436 0.0140528
0.175973 0.793602 0.0584874
0.270183 0.839946 0.0368817
0.248833 0.721654 0.0129967
0.30158 0.953106 0.0575379
0.230546 0.995845 0.10562
-0.164252 0.615703 0.166087
-0.0992868 0.651144 0.134102
-0.069062 0.539764 0.0938488
-0.120096 0.854255 0.20094
-0.114775 0.763262 0.171877
-0.225794 0.829615 0.233173
0.0824215 0.634413 0.050192
-0.0133497 0.699138 0.108995
0.0722056 0.742542 0.0852836
0.11061 0.945233 0.134024
0.0867869 0.848276 0.112684
-0.00233948 0.895726 0.164109
-0.0730701 0.952857 0.443852
-0.258794 0.911605 0.337539
-0.183675 0.938007 0.387118
-0.140869 0.911528 0.500748
-0.174187 0.860973 0.555749
-0.173182 0.509852 0.201301
-0.212538 0.633992 0.232213
-0.209325 0.656496 0.395789
-0.22628 0.654903 0.309323
-0.179509 0.541435 0.364556
-0.261618 0.755219 0.264582
-0.287662 0.850182 0.294604
-0.118288 0.625234 0.726823
-0.0826946 0.532817 0.745727
-0.173626 0.789819 0.624284
-0.1521 0.715025 0.680155
-0.141861 0.541019 0.542188
-0.15345 0.634316 0.607059
-0.182713 0.646986 0.503881
-0.268939 0.844196 0.388112
-0.233245 0.753462 0.447636
-0.228981 0.820994 0.498852
0.914494 1.07671 0.691975
0.908692 1.04702 0.590153
0.900599 1.04695 0.899012
0.908974 1.06607 0.802831
0.996655 0.925351 0.732159
0.963552 1.01255 0.782674
1.01576 0.966993 0.860567
0.614571 0.84736 1.10453
0.691971 0.914576 1.0767
0.899095 0.900491 1.04689
0.802697 0.908991 1.066
0.792781 0.816046 1.06611
0.782509 0.963616 1.01259
0.860489 1.01575 0.966873
1.1046 0.614579 0.847339
1.07665 0.691932 0.914451
1.0471 0.590108 0.908739
1.04697 0.899078 0.900588
1.066 0.802908 0.909004
1.06621 0.7929 0.816223
0.925346 0.73207 0.996657
1.0126 0.78262 0.963642
0.967025 0.860602 1.01579
0.972146 1.03127 0.994206
0.994289 0.972189 1.03132
1.03118 0.994206 0.972171
0.34307 0.738637 1.1779
0.465688 0.773302 1.14151
0.120213 0.671722 1.24475
0.221881 0.704767 1.22373
0.431428 0.609254 1.14461
0.318734 0.662762 1.19094
0.31442 0.576728 1.17438
0.0011139 0.466039 0.951935
0.00759284 0.530572 1.05435
0.102667 0.416635 1.14713
0.0506155 0.474407 1.11657
0.0809198 0.34634 1.06175
0.0178938 0.588168 1.16818
0.0464061 0.63494 1.23729
0.436623 0.230722 1.04638
0.343542 0.250559 1.08314
0.342378 0.141081 1.0489
0.32249 0.47011 1.1476
0.334413 0.368603 1.11804
0.428862 0.4331 1.1064
0.19106 0.223588 1.09654
0.251925 0.297058 1.11746
0.174255 0.350941 1.14344
0.121952 0.58511 1.23596
0.145547 0.473767 1.19902
0.215284 0.525636 1.19874
-0.0605449 0.441577 0.712228
-0.0254467 0.428532 0.813338
-0.114083 0.435437 0.502433
-0.0895023 0.439817 0.599843
0.0134907 0.248886 0.721566
-0.0393033 0.34442 0.659327
-0.0186593 0.257084 0.61008
-0.134983 0.361624 0.126243
-0.153815 0.395719 0.209026
-0.0890394 0.217932 0.273885
-0.128375 0.297063 0.235108
-0.0977703 0.180613 0.16084
-0.151444 0.41623 0.305318
-0.137937 0.426611 0.396329
0.0939184 -0.0691279 0.539645
0.0443284 -0.0108329 0.45221
0.0619065 -0.0754725 0.385691
0.00301111 0.15798 0.556086
0.0224932 0.0740985 0.508409
0.0503939 0.0824207 0.634339
-0.0282155 0.0461948 0.245499
-0.00254467 0.0633777 0.380249
[...]
POINT_DATA 642
SCALARS Normal_Velocity float 1
LOOKUP_TABLE default
0.647839
8.97335
7.5649
0.55724
0.652399
8.98335
7.48072
0.541594
0.657359
8.98801
7.55587
0.557509
5.32844
12.9046
0.209936
1.22048
0.434692
12.9229
6.27755
0.161705
12.3982
0.0911984
1.23078
1.24018
6.29601
0.43287
1.19103
0.186158
0.06493
1.18724
0.209861
5.31982
12.9041
0.208658
5.32078
12.4194
0.0924152
1.19063
0.186216
12.4192
6.30025
0.437096
0.541394
0.728709
0.0255136
2.21203
3.38458
6.15801
0.838127
0.881026
3.467
0.412442
0.0971051
0.762278
0.217414
2.76957
0.173247
7.82843
1.06158
5.96927
3.46925
3.9114
0.282054
10.8399
2.17044
4.40426
2.11025
0.0620063
0.817961
3.80851
1.11532
1.20796
12.3653
2.45114
2.9921
1.81103
0.133009
8.74299
0.755212
7.79245
8.63103
7.78848
8.69008
0.783012
3.93945
2.73421
0.35957
10.9463
0.107413
1.0699
5.95928
0.370665
0.087022
6.8953
0.213907
1.22059
0.136125
1.57674
0.147211
1.5947
0.117179
0.353977
6.83658
0.208069
2.40891
3.39158
6.12985
0.843492
0.880843
0.531338
0.725246
0.0243914
2.19306
3.38639
6.1488
0.838026
0.863658
3.43865
0.549414
0.718826
0.0265997
1.81037
0.132429
2.10888
12.3636
2.4525
2.98961
3.82192
0.370589
0.0871553
6.84577
0.213838
1.21778
0.136315
1.5772
0.839558
0.360108
3.80905
1.13638
5.96912
4.4283
2.11292
10.9494
0.110493
1.06629
3.93378
2.76506
0.41325
0.211493
0.180348
1.13714
4.42859
0.839295
7.9884
7.99654
8.00011
12.3637
3.04431
1.78009
0.17808
0.414421
0.214097
0.102351
0.222261
0.266039
0.581471
1.39356
2.37964
0.00934812
0.244744
0.66232
1.07313
4.25352
0.496647
6.36795
11.2476
9.93778
10.4027
9.09002
7.27088
1.28002
1.84684
6.13771
0.488568
0.124902
0.758525
5.26239
1.1226
0.0793684
1.78061
1.31926
0.152734
0.343695
0.365108
0.344794
0.189861
0.884174
0.00431105
0.224313
4.60176
0.710285
0.221764
0.116223
0.484609
0.275029
0.0897481
6.36888
2.60961
7.5941
1.02525
1.28421
0.52622
1.28951
2.53501
0.0140092
0.475242
0.464082
0.0703674
0.991578
0.209805
0.258628
0.71033
8.9579
1.54831
7.69261
6.14688
9.63909
14.0306
13.6332
5.2704
2.84345
0.410616
0.0624123
1.15279
1.04358
7.26492
3.62656
3.4352
9.94299
7.54317
19.2915
1.73266
7.01392
8.74241
3.72138
0.610325
7.80466
8.55357
8.53425
10.7629
6.65439
0.325399
0.439107
0.652655
0.275246
0.0568615
1.39469
0.955481
6.71278
1.71407
1.40728
0.50649
0.778471
6.64678
0.671242
0.0754851
0.372689
1.82293
0.157462
1.64639
0.839008
15.6311
4.41709
2.86638
7.03763
5.3756
8.78169
0.333018
2.96406
0.84451
13.1526
17.8827
0.980535
0.38866
7.91198
2.29461
1.05003
0.797575
0.291695
8.18215
2.29069
8.65483
11.4675
4.59135
5.357
9.89083
0.493176
2.64325
4.22608
7.57031
11.4889
5.37091
9.85271
1.28099
2.69334
4.23064
7.59103
11.4373
4.60243
5.38081
9.85552
1.31743
0.484505
2.68462
4.242
17.9789
18.0261
17.9438
9.62545
6.38719
14.0514
13.614
0.588585
2.82283
0.368434
0.00294969
1.32763
7.52788
2.7136
3.48797
7.6535
19.339
0.338453
0.998452
0.163316
0.252811
0.721905
0.876907
8.97271
1.60291
7.71254
7.04318
8.84914
1.71953
0.475156
0.305852
0.280828
0.0305335
0.0724109
0.234292
0.38463
7.08503
3.38427
0.0862948
2.69963
1.84787
1.39914
1.09283
1.42251
0.992584
4.01814
0.0500165
0.438648
0.694007
0.670969
0.039889
0.408312
0.132604
0.421285
0.522892
0.98926
4.02788
0.0343822
0.461142
0.675821
0.00520178
0.417847
0.377494
0.455248
0.25622
0.047565
1.01655
0.212788
0.207547
7.01862
3.35963
5.78691
0.103806
2.67548
1.82361
0.793353
1.37347
1.08064
0.506328
0.143476
0.413301
4.24606
0.490925
6.36767
11.2458
10.3869
9.07808
7.27803
1.28462
1.85449
0.488408
0.128864
0.755328
1.1197
0.0651678
0.108435
0.228699
0.264697
0.582751
1.39132
2.38744
0.0108897
0.255271
0.662559
1.31707
0.150149
1.78796
1.07166
4.25587
0.497381
6.33324
11.2562
9.95442
10.4122
9.08055
7.27582
1.27501
1.85759
6.13828
0.478842
0.130516
0.754506
5.23402
1.15491
0.0350518
0.104363
0.224044
0.250563
0.579593
1.38353
2.38447
0.0138652
0.291668
0.656053
1.30557
0.15276
1.78491
0.980499
0.389062
7.91461
2.29471
1.05023
0.796733
0.291
0.627903
0.829127
15.6437
4.46688
8.57765
2.87104
7.03996
5.37654
8.78596
6.725
0.330952
2.95929
0.843774
6.66531
13.1626
17.8715
8.64619
8.1883
2.28849
0.474995
0.30578
0.28064
0.0304212
0.0724559
0.234263
0.384448
7.04945
3.37721
0.0862214
2.69225
1.83989
1.3991
1.09303
1.40032
0.991332
4.00848
0.0501486
0.438032
0.693897
0.670797
0.0396036
0.407963
0.132226
0.421255
0.52234
0.464816
0.00291981
0.682542
0.132054
3.488
1.42773
0.990777
6.66123
1.71657
0.439454
0.806363
6.67221
0.028749
0.392947
0.164178
3.64691
0.629426
7.81046
8.56334
8.98335
8.57686
10.801
6.55708
0.139885
1.67226
1.83927
1.32795
7.53042
2.71333
7.65213
19.3278
0.341622
1.0034
0.259627
0.710515
0.884966
1.5629
7.72303
9.62025
6.39402
14.051
13.6345
0.532311
2.84829
0.415008
8.84517
1.75048
7.03129
0.340839
0.309743
0.189789
0.00164113
0.219039
0.70565
0.224835
0.10968
0.269319
0.0896992
2.61828
1.01845
1.26633
2.56458
0.0129164
0.466615
0.457051
0.0747946
1.72894
0.441736
0.806836
0.0284094
0.392992
3.64512
7.80958
8.5617
10.8014
6.55757
0.46505
0.682664
0.132078
1.42797
0.990431
1.67198
1.83995
0.140136
10.1414
4.0084
2.95046
9.18555
4.97481
10.157
4.01249
2.94958
9.18517
4.96811
9.87522
4.00876
2.95826
9.23258
4.9751
17.2561
17.2655
17.2577
0.827342
15.6536
4.4569
2.88406
7.02995
8.72495
0.124601
2.89044
13.1103
17.8305
0.96421
7.88147
2.27066
0.959166
0.33759
8.15357
2.23389
8.60365
2.61461
1.02366
1.27693
2.54654
0.0117926
0.344812
0.340759
0.189473
0.00097127
0.221669
0.711853
0.217999
0.114188
0.276859
0.0879164
0.0699817
0.473964
0.462497
SCALARS Mean_Curvature float 1
LOOKUP_TABLE default
0.647839
8.97174
7.56193
0.55724
0.652399
8.98178
7.47813
0.541593
0.657359
8.98644
7.55291
0.557509
5.32698
12.8977
0.209934
1.22047
0.434684
12.9159
6.27731
0.161701
12.3948
0.0911523
1.23077
1.24018
6.29578
0.432863
1.19103
0.186154
0.0648682
1.18724
0.209858
5.31838
12.897
0.208656
5.31933
12.4159
0.0923697
1.19063
0.186212
12.4157
6.30002
0.437088
0.541385
0.728692
-0.0255105
2.21153
3.38432
6.15785
0.838127
0.881026
3.4655
0.412442
0.0971021
0.762275
-0.217414
2.76952
0.173232
7.82787
1.0615
5.96912
3.46775
3.9113
0.282045
10.8384
2.16995
4.40401
2.11016
0.0620041
0.817943
3.80658
1.11532
1.20796
12.3639
2.45097
2.99207
1.81088
0.133006
8.73648
0.755208
7.7919
8.62419
7.78793
8.68355
0.783009
3.93934
2.73416
0.35957
10.9452
0.107411
1.06981
5.95913
0.370665
0.0870202
6.89483
0.213891
1.22059
-0.136124
1.57674
-0.147209
1.5947
0.117178
0.353977
6.83618
0.208053
2.40882
3.39131
6.12969
0.843492
0.880842
0.531329
0.72523
-0.0243885
2.19255
3.38613
6.14864
0.838025
0.863658
3.43712
0.549405
0.71881
-0.0265976
1.81021
0.132427
2.10879
12.3621
2.45233
2.98958
3.81998
0.370588
0.0871536
6.84536
0.213822
1.21778
-0.136313
1.5772
0.839537
0.360108
3.80709
1.13638
5.96896
4.42802
2.11284
10.9483
0.110491
1.06621
3.93368
2.76502
0.413249
-0.211493
0.180332
1.13714
4.42832
0.839274
7.9825
7.99065
7.99427
12.3623
3.04426
1.77995
0.178065
0.414421
-0.214097
0.102335
0.22226
-0.266039
0.581119
1.39356
2.37952
0.00931466
0.244744
0.662319
1.07311
4.25279
0.496598
6.36619
11.2476
9.93663
10.4006
9.08434
7.27074
1.28001
1.84684
6.1339
0.488568
-0.124902
0.758523
5.2617
1.12232
-0.0783528
1.78054
1.31916
-0.152733
0.343695
0.365106
-0.344794
0.189861
0.884173
-0.00430766
0.22431
4.60071
0.710284
0.221759
-0.116223
0.484186
0.275029
0.0897381
6.36682
2.60885
7.58728
1.02525
1.28392
0.526217
1.28902
2.53499
0.0132825
0.475242
0.464082
-0.070367
0.99157
0.20978
0.258387
0.710317
8.95567
1.54768
7.6925
6.14306
9.63112
14.0304
13.6327
5.26969
2.84335
-0.410613
0.0623937
1.15227
1.04357
7.2647
3.62649
3.43496
9.94185
7.54048
19.2851
1.73266
7.01384
8.74199
3.72065
0.610313
7.80459
8.54858
8.53209
10.7629
6.65161
-0.325399
0.439107
0.652655
0.275245
-0.0568598
1.39469
0.955015
6.71113
1.71407
1.40723
0.50645
0.7774
6.6457
0.671241
0.0754849
0.372688
1.82282
-0.157462
1.64627
0.838937
15.6253
4.41677
2.86632
7.037
5.37448
8.77318
-0.333017
2.96398
0.844508
13.1504
17.8797
0.980531
0.388659
7.91146
2.29442
1.05003
0.797568
0.291521
8.18143
2.29069
8.654
11.4672
4.59031
5.35126
9.89055
0.492751
2.64002
4.22466
7.56352
11.4886
5.36501
9.85243
1.2805
2.6902
4.22916
7.58427
11.437
4.6014
5.37508
9.85524
1.31695
0.48407
2.68154
4.24052
17.9373
17.9841
17.9025
9.61755
6.38507
14.0513
13.6136
0.588584
2.82273
-0.368431
-0.00264164
1.32693
7.52731
2.71347
3.48787
7.65061
19.3327
0.33845
0.998445
0.163272
0.252576
0.721893
0.876907
8.97061
1.60233
7.71245
7.0431
8.84875
1.71953
0.475156
-0.305852
0.28081
-0.0305321
-0.0724073
0.234292
-0.38463
7.0819
3.38407
0.0862503
2.69962
1.84771
1.39899
1.09283
1.42246
0.992583
4.01735
0.0499964
0.438648
0.694005
0.670746
-0.0398844
0.408311
-0.132604
0.421285
0.522892
0.989259
4.02716
0.0343654
0.461142
0.675594
-0.0051601
0.417847
0.377493
0.455248
0.256201
-0.0475638
1.01655
0.212788
-0.207547
7.0151
3.35935
5.78585
0.103769
2.67548
1.82345
0.793352
1.37332
1.08064
0.506328
-0.143476
0.413301
4.24532
0.490875
6.36593
11.2458
10.3848
9.07241
7.27789
1.28461
1.85449
0.488408
-0.128864
0.755327
1.11943
-0.0639171
0.108418
0.228699
-0.264696
0.582398
1.39132
2.38732
0.0108614
0.25527
0.662559
1.31696
-0.150148
1.78789
1.07164
4.25513
0.497333
6.33156
11.2562
9.95327
10.41
9.07486
7.27569
1.275
1.85759
6.13448
0.478842
-0.130516
0.754505
5.23333
1.15467
0.032505
0.104346
0.224044
-0.250562
0.579237
1.38353
2.38435
0.013846
0.291668
0.656053
1.30545
-0.15276
1.78484
0.980496
0.389061
7.91408
2.29453
1.05023
0.796726
0.290826
0.627891
0.82905
15.6379
4.46654
8.57536
2.87098
7.03932
5.37542
8.77743
6.72335
-0.330951
2.95921
0.843772
6.66422
13.1604
17.8685
8.64537
8.18758
2.28848
0.474995
-0.30578
0.280622
-0.0304197
-0.0724522
0.234263
-0.384448
7.04616
3.37701
0.0861773
2.69224
1.83973
1.39895
1.09303
1.40028
0.991331
4.00768
0.0501285
0.438032
0.693895
0.670576
-0.0395991
0.407963
-0.132226
0.421254
0.52234
0.464815
-0.00260971
0.682542
0.132053
3.48789
1.42773
0.990345
6.6599
1.71657
0.439402
0.805299
6.67112
-0.0287485
0.392947
0.164134
3.64615
0.629414
7.81039
8.55824
8.9812
8.57458
10.801
6.5542
-0.139884
1.67215
1.83917
1.32725
7.52986
2.71321
7.64925
19.3214
0.341619
1.00339
0.259377
0.710502
0.884965
1.5623
7.72294
9.61225
6.39193
14.0509
13.6341
0.532309
2.84818
-0.415006
8.84477
1.75048
7.03121
0.340839
-0.309743
0.189788
-0.00163087
0.219036
0.70565
0.224829
-0.10968
0.269319
0.0896908
2.61755
1.01845
1.26603
2.56456
0.0120653
0.466615
0.457051
-0.0747943
1.72894
0.441684
0.805771
-0.0284089
0.392992
3.64436
7.8095
8.55661
10.8014
6.5547
0.46505
0.682663
0.132077
1.42797
0.989999
1.67187
1.83985
-0.140135
10.1413
4.00667
2.9493
9.18534
4.96844
10.1568
4.01076
2.9484
9.18495
4.96176
9.87506
4.00704
2.95724
9.23237
4.96876
17.2184
17.2278
17.22
0.827267
15.6479
4.45656
2.884
7.02931
8.7167
-0.124596
2.89035
13.1081
17.8275
0.964204
7.88094
2.27045
0.95916
0.337473
8.15286
2.23389
8.60283
2.61388
1.02366
1.27664
2.54652
0.0108837
0.344812
-0.340759
0.189473
0.00095569
0.221665
0.711852
0.217992
-0.114188
0.276859
0.0879063
-0.0699814
0.473964
0.462497
SCALARS CoVolArea float 1
LOOKUP_TABLE default
0.0104628
0.00893104
0.00923694
0.0109974
0.0109653
0.00893221
0.00923735
0.0109943
0.0109653
0.00893198
0.00923985
0.0109978
0.00952959
0.00773157
0.0111784
0.0109309
0.0111969
0.00772943
0.00938539
0.0111999
0.00771809
0.0112197
0.0109275
0.0109261
0.0093663
0.0111881
0.0109677
0.0111988
0.0112216
0.0109655
0.0111744
0.00952581
0.00773123
0.0111731
0.00952319
0.00771375
0.0112192
0.0109682
0.0111987
0.00771707
0.00936452
0.0111899
0.0109101
0.010807
0.0112221
0.00965017
0.00957776
0.00941907
0.0110127
0.0109383
0.00952282
0.0109216
0.0111045
0.0105821
0.0109891
0.010209
0.0108527
0.00887251
0.010384
0.00964582
0.00952077
0.00922669
0.0108069
0.00816344
0.00966805
0.00957989
0.0100675
0.0111427
0.0108017
0.00949013
0.0109178
0.0110196
0.00820069
0.0102834
0.00930217
0.0102556
0.0110376
0.00791515
0.010587
0.0088731
0.00792519
0.00886805
0.00791394
0.0105856
0.00921949
0.0102119
0.0108194
0.00815771
0.0110543
0.0103702
0.00957577
0.0109101
0.0111396
0.00914212
0.0108388
0.0110219
0.0109613
0.0105575
0.0109578
0.0105639
0.0110366
0.0109082
0.00915343
0.0108375
0.0102837
0.00957649
0.00942586
0.0110123
0.0109361
0.0108479
0.0107909
0.0111764
0.00965058
0.00957654
0.00942006
0.0110142
0.0109333
0.00952249
0.0108457
0.0107924
0.0111737
0.010255
0.0110373
0.00998442
0.00818967
0.0102839
0.00930307
0.00948404
0.0109102
0.0111394
0.00914369
0.0108388
0.0110203
0.0109613
0.0105566
0.0108026
0.0108191
0.00949747
0.0109206
0.00957465
0.00956448
0.00998372
0.00815956
0.0110541
0.010371
0.00921884
0.0102114
0.0109042
0.0109864
0.0108511
0.0109203
0.00956406
0.0108025
0.00816638
0.00816519
0.00816457
0.00819481
0.00929064
0.0102533
0.0108538
0.0109026
0.0109876
0.0113857
0.0111437
0.0115594
0.0106915
0.0110091
0.0103885
0.0110316
0.0111617
0.0112101
0.0112555
0.00957276
0.0110998
0.00952866
0.00870805
0.00762088
0.00859382
0.0086712
0.00962847
0.0107699
0.0106037
0.00959872
0.0112527
0.0111403
0.0109176
0.00907037
0.0110037
0.010688
0.0107873
0.0109784
0.0112404
0.0111483
0.0114175
0.0113674
0.0112958
0.0108695
0.0112356
0.0111623
0.00982904
0.0108717
0.0113413
0.0113402
0.0110243
0.0112096
0.0113627
0.00931359
0.00990216
0.00878666
0.0112495
0.0109353
0.010979
0.0101826
0.0106163
0.0113506
0.0113186
0.0112631
0.0112435
0.0108751
0.0110432
0.0112931
0.011235
0.0087075
0.0102974
0.00914903
0.00959518
0.00875068
0.00714834
0.0083821
0.00906838
0.00974494
0.011293
0.0114459
0.0108783
0.011268
0.00915127
0.0100779
0.0102784
0.00762845
0.00903276
0.00670491
0.0106585
0.00824657
0.0090855
0.00985251
0.0111967
0.00959428
0.00886612
0.00812566
0.00899259
0.00961327
0.0115669
0.0110346
0.0112448
0.011206
0.0110525
0.011049
0.010609
0.0097562
0.010606
0.0108007
0.0105708
0.0110103
0.00886656
0.0109181
0.0111757
0.0112547
0.010683
0.0112273
0.0108889
0.0110479
0.00700649
0.00950457
0.010191
0.00919142
0.00966059
0.00901334
0.0113305
0.00990835
0.0109299
0.00843898
0.00707351
0.010751
0.0114625
0.00909072
0.0101973
0.0109307
0.0112479
0.0113027
0.00812828
0.0105431
0.00889413
0.00869075
0.00983174
0.00910796
0.00888555
0.01102
0.0100116
0.00963683
0.00878529
0.00868353
0.00911696
0.00889898
0.0101899
0.0100113
0.00964391
0.00878211
0.00868962
0.00983015
0.00910596
0.00888972
0.0101806
0.0110229
0.0100151
0.00963584
0.00688694
0.00688412
0.00688558
0.00875694
0.00931747
0.00714485
0.00838404
0.0109739
0.0097422
0.0112833
0.0114499
0.0108782
0.00914589
0.0101331
0.0102886
0.00903437
0.00668725
0.0114217
0.0107749
0.0111387
0.0112834
0.01126
0.0108909
0.00871648
0.0103151
0.00911768
0.00822164
0.00905525
0.0106561
0.0110264
0.0115695
0.0111798
0.0112868
0.0110629
0.0113454
0.0113769
0.00918469
0.0100277
0.0113497
0.0106425
0.0102891
0.0109115
0.0112525
0.0107979
0.0108515
0.00999045
0.0113518
0.0112056
0.0109151
0.0110118
0.011299
0.0113216
0.0112524
0.0112685
0.0113157
0.0108511
0.0100004
0.0113489
0.0112007
0.0110121
0.0112914
0.0113151
0.0114666
0.0110367
0.0111917
0.0112984
0.0109281
0.0113416
0.0113601
0.00916889
0.0100297
0.00961926
0.0113368
0.010654
0.010291
0.0109435
0.0109227
0.0112535
0.0113169
0.0112591
0.01127
0.00957415
0.0111054
0.00952473
0.00870777
0.00860074
0.00867355
0.0096278
0.0107695
0.0106032
0.0112538
0.0111403
0.0109185
0.011002
0.0106842
0.011421
0.0110505
0.0115398
0.0106802
0.0110463
0.010406
0.0110486
0.0112001
0.0112001
0.0109766
0.0112422
0.0107881
0.0112554
0.00957318
0.0110989
0.00952863
0.00870791
0.0076197
0.00859158
0.00867053
0.00962702
0.0107704
0.0106011
0.00959674
0.0112572
0.0111397
0.0109199
0.00906897
0.0109957
0.0106825
0.011418
0.0110488
0.011538
0.0106818
0.0110467
0.0104078
0.0110437
0.0111983
0.011201
0.0109768
0.0112435
0.0107897
0.0107519
0.0114625
0.0090881
0.0101972
0.0109303
0.0112487
0.0113025
0.0113199
0.010951
0.00699326
0.00951699
0.00813067
0.0102205
0.00918469
0.00966134
0.00901063
0.00975012
0.01133
0.00990848
0.0109302
0.00886403
0.00843576
0.00706785
0.0088954
0.00812907
0.0105436
0.0110265
0.0115696
0.0111797
0.0112866
0.011063
0.0113456
0.011377
0.00917924
0.010029
0.0113496
0.0106456
0.0102939
0.0109112
0.0112526
0.0108147
0.0108493
0.0100025
0.0113516
0.0112058
0.0109152
0.0110119
0.0112993
0.0113214
0.0112524
0.0112685
0.0113157
0.0110287
0.0114503
0.0112423
0.0112112
0.0102883
0.0110387
0.0105959
0.00975199
0.0106099
0.0105832
0.0110106
0.00886839
0.0111818
0.0112468
0.0111361
0.00978134
0.0113197
0.00958165
0.00889094
0.00871433
0.00813031
0.00901722
0.00961255
0.0112192
0.0108927
0.0106787
0.0108791
0.00914513
0.0101328
0.00903409
0.00668829
0.0114207
0.0107767
0.0112856
0.0112668
0.0108891
0.0103183
0.00911549
0.00875429
0.00931311
0.00714509
0.00838433
0.0109805
0.0097432
0.0112898
0.00905299
0.0106534
0.00822175
0.0110672
0.0113501
0.0113379
0.0112844
0.0111535
0.0108726
0.0113401
0.0113373
0.0112083
0.0113592
0.0098979
0.0112501
0.0109317
0.0106092
0.0113493
0.0113211
0.0112644
0.0112489
0.010603
0.0105832
0.0110124
0.0111818
0.0112469
0.00978203
0.00958263
0.0088913
0.00901735
0.00961294
0.0110292
0.0112424
0.0112112
0.0110386
0.010596
0.0108926
0.0106788
0.0112194
0.00888924
0.00986175
0.0100752
0.00913091
0.00940984
0.00888367
0.00986061
0.0100753
0.00912865
0.00940739
0.00889622
0.00986071
0.0100825
0.00913048
0.00940329
0.00727637
0.00727563
0.00727655
0.010952
0.00699813
0.00951616
0.0102195
0.00918712
0.0090097
0.011318
0.00991998
0.00844912
0.00706786
0.010751
0.00910316
0.0101975
0.0112211
0.011278
0.00813492
0.0105408
0.00891485
0.00989544
0.0112515
0.0109352
0.0106117
0.0113518
0.0110653
0.0113547
0.0113397
0.0112812
0.01115
0.0108715
0.0113401
0.0113367
0.0112061
0.0113637
0.0112468
0.0113214
0.0112643
SCALARS SignedDistance float 1
LOOKUP_TABLE default
0.0472069
0.0205078
0.00933695
0.0501887
0.0470982
0.0205383
0.00959682
0.050341
0.0470295
0.0205994
0.00937223
0.0501667
0.0230598
0.0466461
0.0600128
0.0498676
0.0550671
0.0466433
0.0182953
0.0567203
0.0341682
0.0559883
0.0501499
0.050005
0.0182533
0.0551624
0.038607
0.0564585
0.056242
0.038719
0.0601044
0.0230827
0.0467274
0.0601654
0.0231438
0.0341244
0.0560188
0.0386178
0.0564674
0.0341263
0.0182419
0.0550766
0.0560657
0.0462494
0.0637102
0.0405307
0.0343885
0.0169754
0.0440063
0.0469835
0.0498962
0.0564814
0.0604982
0.0498657
0.0653076
0.0438194
0.0607796
0.0306854
0.0476527
0.0165424
0.049881
0.0353279
0.0543571
0.028131
0.040659
0.0251307
0.0368824
0.0603711
0.0417309
0.0426779
0.0395142
0.0300819
0.0273514
0.0338306
0.0273209
0.0424151
0.0565243
0.0470581
0.0497131
0.030426
0.0463867
0.0304565
0.0466309
0.0498734
0.0354881
0.0438843
0.0539007
0.027822
0.0604277
0.0477462
0.0163126
0.0497503
0.0601043
0.0143297
0.0538254
0.0298446
0.0587792
0.0367969
0.0590066
0.03677
0.0568027
0.0500765
0.0145016
0.054028
0.0345478
0.0343761
0.0171356
0.0439911
0.04686
0.0561007
0.0463676
0.0637174
0.0405788
0.034441
0.0170441
0.0440865
0.0469899
0.0498352
0.0561568
0.0464668
0.0638108
0.0424247
0.0565548
0.0368061
0.0272274
0.0338411
0.0273361
0.0426598
0.0497723
0.0601181
0.0144384
0.0538468
0.0298672
0.0587955
0.0367779
0.0415812
0.0539072
0.0426502
0.0393401
0.0162649
0.0249319
0.0367546
0.0278544
0.0603666
0.0477302
0.0355186
0.0439491
0.0564871
0.0654297
0.0606384
0.0393306
0.0249295
0.0415792
0.0253775
0.0253815
0.0253798
0.0272198
0.0277252
0.0425129
0.0607491
0.0564823
0.0653381
0.0568588
0.0554323
0.0677109
0.0556426
0.0428562
0.0426837
0.0618086
0.0591393
0.0480957
0.0481977
0.0341921
0.0573393
0.0365629
0.0236816
0.0452056
0.0114365
0.0156403
0.0156498
0.0506363
0.0516472
0.0281868
0.051033
0.0597382
0.053793
0.0336621
0.0470119
0.0573039
0.0463239
0.0397568
0.0619829
0.0533905
0.0554142
0.0715179
0.0608213
0.0444946
0.06423
0.0616226
0.0431213
0.0550404
0.0583248
0.0624914
0.053077
0.0545349
0.0610352
0.030426
0.0481262
0.034729
0.0415192
0.0494518
0.051712
0.0502319
0.036377
0.0599251
0.0538483
0.0555611
0.0646706
0.0509921
0.0584059
0.0520477
0.0508337
0.0233319
0.050148
0.0307884
0.0281601
0.0249634
0.0422325
0.0296879
0.0335429
0.0519562
0.0598516
0.0574486
0.0474051
0.0483394