# vtk DataFile Version 4.2
vtk output
ASCII
DATASET POLYDATA
POINTS 642 float
0.0777901 0.975452 0.390947
0.837538 1.11148 0.504572
0.146079 -0.143064 0.486002
0.921587 -0.00589343 0.590958
0.391199 0.0778559 0.97532
0.504736 0.837471 1.11125
0.485998 0.146192 -0.143221
0.590482 0.921438 -0.00577616
0.975444 0.390956 0.0777942
1.11144 0.504513 0.837538
-0.143028 0.486091 0.146122
-0.00588484 0.590936 0.921596
-0.121911 0.814953 0.67495
0.0768315 0.675395 1.19484
0.304948 0.877921 0.831203
0.841874 0.999923 0.882559
0.569882 1.1236 0.369914
0.675394 1.19481 0.0768024
0.315092 1.10301 0.14293
0.142664 0.694417 0.0804712
-0.235386 0.895762 0.286446
-0.16398 0.618544 0.414921
0.882526 0.841793 0.999875
0.999919 0.882653 0.841932
0.143177 0.314949 1.10302
0.369884 0.569832 1.12359
-0.0434432 0.0859965 0.129849
0.0805387 0.142311 0.694552
0.618526 0.415201 -0.164353
0.0860442 0.129907 -0.0434469
0.877912 0.831222 0.304864
0.814902 0.674935 -0.121926
1.19478 0.0768261 0.675401
0.831106 0.304938 0.877982
0.674958 -0.121894 0.814907
0.286452 -0.235488 0.89583
0.414931 -0.163985 0.618551
0.129849 -0.0434436 0.0860006
0.694561 0.0805391 0.142291
0.895811 0.286448 -0.235441
1.10301 0.143164 0.314958
1.12363 0.36984 0.569829
-0.0742379 0.880252 0.522754
0.0488081 0.8384 0.771835
0.187709 0.920961 0.59684
0.0373807 0.651717 1.1055
-0.000673034 0.721443 0.974917
-0.0866939 0.724225 0.819029
0.412903 0.837102 1.00661
0.172776 0.757236 1.03887
0.237814 0.716463 1.15807
0.450867 1.00179 0.592079
0.340568 1.05295 0.368011
0.717683 0.918266 1.00516
0.60346 0.934489 0.852361
0.719687 1.12473 0.410095
0.715594 1.07201 0.643108
0.86391 1.08024 0.723708
0.452456 1.13429 0.194551
0.168133 1.08003 0.248758
0.716431 1.15808 0.237799
0.647864 1.20313 0.186948
0.464371 1.06919 0.0761513
0.572853 1.20068 0.0715206
0.651586 1.10549 0.0373805
0.0125641 0.978635 0.237867
-0.114769 0.92907 0.323644
0.385886 0.813786 0.0377836
0.217787 0.938852 0.144376
-0.209346 0.756296 0.245485
-0.0767844 0.816629 0.204789
-0.0434013 0.583767 0.128537
-0.216657 0.884699 0.406985
-0.167921 0.584575 0.257896
-0.245559 0.799923 0.323454
-0.168464 0.780009 0.537058
-0.109554 0.607391 0.662208
0.959958 0.998249 0.907058
0.918266 1.00507 0.717724
0.723387 0.863838 1.08005
0.90706 0.960192 0.998414
1.08027 0.723602 0.86398
0.998383 0.907152 0.960133
1.00499 0.717762 0.918158
0.186996 0.647873 1.20312
0.410194 0.719698 1.12476
0.076174 0.464362 1.06861
0.0717893 0.573221 1.20085
0.367924 0.340626 1.05303
0.194813 0.452446 1.13412
0.248851 0.16815 1.08005
-0.0436473 0.389981 0.544571
0.0377957 0.385798 0.813601
-0.12221 0.257973 0.106636
-0.116869 0.342017 0.265073
0.128649 -0.0435408 0.583615
0.0236602 0.116502 0.388489
0.0452021 -0.0469199 0.265874
0.116505 0.388842 0.0228106
-0.0468132 0.265899 0.0451849
0.607412 0.662156 -0.109619
0.389613 0.544801 -0.0438107
0.258087 0.10673 -0.122089
0.342294 0.265258 -0.116804
0.584445 0.257866 -0.167884
0.721384 0.975013 -0.000645123
0.724115 0.819064 -0.0866768
0.837079 1.00665 0.412743
0.757221 1.0389 0.172727
0.880251 0.522747 -0.0742289
0.838422 0.77185 0.0488381
0.920968 0.596824 0.187679
1.1055 0.0373819 0.651744
0.974981 -0.000624376 0.721422
0.819046 -0.0866852 0.724238
1.0065 0.412654 0.837086
1.03897 0.17275 0.757247
1.15795 0.237645 0.716563
0.522339 -0.0737638 0.878584
0.77191 0.048876 0.838464
0.596842 0.187674 0.92101
0.537091 -0.16844 0.780016
0.662236 -0.109595 0.607407
0.323736 -0.114762 0.929041
0.407001 -0.216625 0.884693
0.257892 -0.167898 0.584535
0.323477 -0.245565 0.799925
0.245508 -0.209472 0.756193
0.54458 -0.0436462 0.389971
0.813601 0.0377968 0.385794
0.106677 -0.12209 0.258015
0.265054 -0.116881 0.342002
0.583582 0.128684 -0.0435861
0.388487 0.023681 0.11648
0.265905 0.0452105 -0.0469351
0.938843 0.14446 0.217722
1.06861 0.0761742 0.464365
0.75617 0.245476 -0.209522
0.816463 0.204811 -0.0768106
1.08004 0.248816 0.168134
0.978739 0.237984 0.0125803
0.929074 0.323687 -0.114751
1.20085 0.0717811 0.573222
1.05291 0.367994 0.34057
1.13428 0.194617 0.452473
1.20315 0.186941 0.647884
1.12479 0.409962 0.719645
0.592119 0.450739 1.00179
0.852412 0.603093 0.935015
0.643079 0.715676 1.0721
0.204805 -0.0768051 0.816482
0.23799 0.0125736 0.978744
0.144459 0.217734 0.93885
0.059471 0.00247361 -0.0400465
0.00246455 -0.0400459 0.0594604
-0.0400442 0.0594564 0.00245262
0.884708 0.406972 -0.216674
0.800053 0.323352 -0.245044
0.77916 0.536782 -0.168461
1.07204 0.643054 0.71554
1.00181 0.592019 0.450785
0.934524 0.852364 0.603362
-0.0111564 0.919809 0.455229
0.0412474 0.914479 0.568478
0.133322 0.939571 0.483731
-0.0429084 0.812269 0.720889
-0.019311 0.877632 0.649603
-0.113294 0.862583 0.596616
0.244005 0.901842 0.717024
0.105558 0.878746 0.686722
0.167374 0.854582 0.805641
-0.00246726 0.624139 1.02512
-0.0404082 0.678808 0.980309
-0.0471157 0.673245 0.878785
0.0379876 0.698422 1.11604
0.000725342 0.690125 1.05997
0.0416721 0.662697 1.17469
-0.122529 0.77618 0.758769
-0.0469239 0.724846 0.900697
-0.078507 0.78557 0.837312
0.460169 0.838254 1.07029
0.320814 0.795375 1.10012
0.359427 0.775203 1.12906
0.241374 0.807532 0.934612
0.284575 0.795775 1.02843
0.35752 0.869653 0.933677
0.137198 0.71096 1.20018
0.206244 0.722696 1.11208
0.117148 0.712816 1.13607
0.00707974 0.784777 0.880884
0.071294 0.741225 1.02623
0.112383 0.795709 0.917224
0.2586 1.00102 0.481683
0.217175 1.00847 0.374359
0.380605 0.925088 0.707793
0.317105 0.969846 0.596326
0.466685 1.08514 0.365671
0.395641 1.02916 0.474359
0.513057 1.0704 0.480877
0.621374 0.877871 1.04878
0.569764 0.879705 1.0075
0.73338 0.988043 0.871925
0.668093 0.921653 0.936176
0.795568 0.966861 0.940558
0.51083 0.891041 0.935383
0.449175 0.915786 0.849737
0.778097 1.12297 0.45824
0.791454 1.08788 0.575019
0.843499 1.08119 0.624543
0.642245 1.08436 0.49767
0.72036 1.08934 0.531837
0.655093 1.12351 0.377153
0.862012 1.02791 0.802207
0.79935 1.07153 0.68216
0.787298 1.02262 0.764422
0.52791 0.972958 0.730937
0.674839 1.00172 0.7472
0.597477 1.03022 0.609011
0.248551 1.07813 0.296566
0.123357 1.00947 0.295553
0.513094 1.12739 0.262279
0.390885 1.09657 0.278463
0.238735 1.08099 0.192705
0.313399 1.09333 0.223217
0.386243 1.12228 0.163363
0.775155 1.1291 0.35936
0.725005 1.16429 0.316536
0.666542 1.21063 0.121586
0.689265 1.20243 0.199168
0.710958 1.20019 0.137173
0.676579 1.17437 0.27872
0.62279 1.15887 0.260454
0.527859 1.01161 0.0397844
0.574375 1.10411 0.0406095
0.623878 1.02515 -0.00245246
0.458727 1.16653 0.097567
0.52513 1.14699 0.0796137
0.392983 1.10165 0.101585
0.662646 1.17463 0.0416587
0.614933 1.18482 0.0420613
0.64027 1.21545 0.0588559
0.563383 1.1984 0.182277
0.613157 1.20446 0.111714
0.510099 1.20572 0.128703
0.0215859 0.997826 0.288807
-0.0255828 0.961163 0.351803
0.153026 1.05667 0.179791
0.0847994 1.03809 0.234779
-0.190626 0.915014 0.305899
-0.0662011 0.958832 0.278852
-0.136503 0.929358 0.269722
0.493474 0.872285 0.00450039
0.425804 0.950801 0.0701937
0.176113 0.826009 0.116453
0.296374 0.891193 0.0800884
0.266287 0.753229 0.0688456
0.342087 1.0094 0.0956138
0.266482 1.03211 0.152239
-0.179204 0.639963 0.196979
-0.148543 0.677742 0.17125
-0.101516 0.532145 0.146584
-0.176295 0.867189 0.246014
-0.158976 0.783597 0.242079
-0.238275 0.847206 0.272185
0.0387357 0.636757 0.105121
-0.0703696 0.714201 0.163921
0.0352149 0.754246 0.158625
0.0968726 0.985394 0.163536
0.0571296 0.881443 0.163195
-0.049186 0.909273 0.223558
-0.110014 0.918391 0.405484
-0.248156 0.910927 0.330312
-0.197582 0.917268 0.363553
-0.160445 0.881215 0.459569
-0.177187 0.854702 0.521971
-0.164941 0.535075 0.203088
-0.208933 0.680708 0.251832
-0.211707 0.724358 0.356174
-0.243193 0.705505 0.299592
-0.167376 0.616962 0.320936
-0.244972 0.793639 0.284279
-0.281904 0.860938 0.295031
-0.0998513 0.680883 0.743601
-0.0448307 0.605412 0.781546
-0.163619 0.800992 0.609905
-0.125136 0.751314 0.680796
-0.126016 0.617586 0.526935
-0.134673 0.697792 0.603809
-0.171098 0.719457 0.473991
-0.245506 0.856172 0.35946
-0.246379 0.794234 0.42002
-0.231743 0.839795 0.472656
0.918027 1.07498 0.725517
0.877881 1.04883 0.621243
0.915207 1.00516 0.898373
0.913283 1.03827 0.823104
0.966983 0.940568 0.795644
0.944966 1.00019 0.820909
0.994027 0.966965 0.886542
0.624538 0.843562 1.08115
0.725308 0.918039 1.07487
0.89837 0.915224 1.00487
0.822866 0.913289 1.03822
0.802114 0.861802 1.028
0.820705 0.944869 1.00009
0.886436 0.994047 0.966965
1.08112 0.624459 0.843531
1.07491 0.725415 0.918059
1.04882 0.621233 0.877928
1.00508 0.898469 0.915309
1.03832 0.823182 0.913409
1.02787 0.80228 0.862041
0.940542 0.795594 0.967012
1.00025 0.82081 0.945184
0.966954 0.886487 0.99404
0.957865 0.996331 0.971935
0.971959 0.957926 0.996316
0.996476 0.972 0.957964
0.316555 0.725021 1.16427
0.45841 0.778143 1.12303
0.121598 0.666555 1.21062
0.199167 0.68927 1.20244
0.377187 0.654991 1.12353
0.278696 0.676468 1.17432
0.260681 0.622555 1.15941
0.0392173 0.528279 1.01138
0.0406004 0.575169 1.10384
0.0982015 0.458791 1.16657
0.0783067 0.525038 1.14725
0.102067 0.392613 1.10166
0.0420812 0.615245 1.18492
0.0588593 0.640337 1.21555
0.37447 0.217217 1.00827
0.296628 0.248662 1.07816
0.295647 0.12337 1.00946
0.262185 0.513191 1.12681
0.278561 0.390821 1.09671
0.365531 0.466583 1.0851
0.192893 0.238739 1.08097
0.223465 0.313461 1.09327
0.163604 0.386192 1.12227
0.111736 0.61324 1.20446
0.128885 0.510224 1.20571
0.182381 0.563439 1.19831
-0.042962 0.501151 0.743392
0.00448899 0.493534 0.872153
-0.123691 0.500462 0.48159
-0.0720193 0.510087 0.602912
0.0689794 0.266292 0.753545
-0.00563537 0.387446 0.682581
0.0353992 0.270003 0.617397
-0.123105 0.359422 0.132068
-0.147151 0.410339 0.186282
-0.0679617 0.21201 0.188887
-0.123119 0.300565 0.176565
-0.0803905 0.16811 0.110024
-0.15905 0.453115 0.257079
-0.127887 0.490744 0.339617
0.146563 -0.101614 0.532016
0.0825143 -0.0482849 0.419692
0.0809284 -0.096559 0.366109
0.047831 0.12317 0.546094
0.0741486 0.0299976 0.481143
0.105225 0.038567 0.636664
-0.00269093 0.0238853 0.180647
0.0386447 0.0254999 0.319976
[...]
POINT_DATA 642
SCALARS CoVolArea float 1
LOOKUP_TABLE default
0.0110518
0.00574554
0.00627163
0.0102326
0.0110364
0.00573052
0.00625662
0.0102372
0.0110495
0.0057459
0.00627844
0.0102322
0.00725958
0.00328193
0.0166471
0.00778579
0.0125227
0.00328215
0.00662922
0.0174374
0.00333704
0.0135443
0.00778304
0.0077829
0.00661577
0.0125178
0.00911279
0.0174496
0.0135072
0.00912773
0.0166414
0.00727106
0.00328537
0.0166278
0.00726582
0.00334571
0.0135448
0.00911312
0.0174489
0.00334616
0.00661011
0.0125186
0.0104468
0.0137296
0.016563
0.00520495
0.00723452
0.00636529
0.0116066
0.0117022
0.00545737
0.0186682
0.0137757
0.00822757
0.0160174
0.00726367
0.0125438
0.00568489
0.00896206
0.0076251
0.00545741
0.00484415
0.00944677
0.00412087
0.00522915
0.00707605
0.00613998
0.0164843
0.0137968
0.0053088
0.0118492
0.0125201
0.0045168
0.00732886
0.00505108
0.00851903
0.0134203
0.00357561
0.00824725
0.00567938
0.0035835
0.00569232
0.00357864
0.00825303
0.00483934
0.0072781
0.00951917
0.00411688
0.013769
0.00895466
0.00762289
0.0200081
0.0164649
0.00635314
0.014456
0.0124967
0.017783
0.00932459
0.0176963
0.00936271
0.0134193
0.020019
0.0063553
0.0144437
0.00735458
0.00723529
0.00638718
0.0116075
0.0116944
0.010442
0.0137317
0.0165624
0.00520577
0.00723621
0.00636222
0.0116233
0.0116909
0.00546529
0.0104604
0.013738
0.0165432
0.00851701
0.0134223
0.00614867
0.00451946
0.00732981
0.00505163
0.00530435
0.0200113
0.0164655
0.00635103
0.014454
0.0124984
0.0177857
0.00932533
0.0137974
0.00952038
0.00529324
0.011879
0.00762029
0.00708939
0.00614332
0.00411668
0.0137688
0.00895507
0.0048393
0.00726646
0.0186813
0.015998
0.0125402
0.0118768
0.00708914
0.0137984
0.00421715
0.00421685
0.0042172
0.00452696
0.0050164
0.0085095
0.0125597
0.0186666
0.0160267
0.0122268
0.0142006
0.0153582
0.0110336
0.0118387
0.00844093
0.0164889
0.0146787
0.0159959
0.00851335
0.0058247
0.00922075
0.00575609
0.00434155
0.00288393
0.0057572
0.00521521
0.00834873
0.00869181
0.00875995
0.00629088
0.0150421
0.0114546
0.0135747
0.00435306
0.00803477
0.0074844
0.0124297
0.0110602
0.015178
0.0162663
0.0140025
0.0191942
0.0174401
0.0131702
0.0158963
0.0159744
0.00697315
0.0101604
0.0122721
0.01149
0.00795456
0.0132375
0.0174051
0.00625975
0.00666527
0.00560827
0.013386
0.00898159
0.00907233
0.00634237
0.0078608
0.0107823
0.0204498
0.0169315
0.0184642
0.0109213
0.0105411
0.0113933
0.0112673
0.00613206
0.00816567
0.00674477
0.00629077
0.00515057
0.00291136
0.00374334
0.00435418
0.00554175
0.00880774
0.0112095
0.00766821
0.00855539
0.00606497
0.00603863
0.0075568
0.00288904
0.00402777
0.00243622
0.00830481
0.00461688
0.00677949
0.00679992
0.0095819
0.0076978
0.00587584
0.00351426
0.00463355
0.00545839
0.0147471
0.0136319
0.0163846
0.0146976
0.0168625
0.0114237
0.010035
0.0068872
0.00927596
0.00945881
0.00711351
0.00800504
0.003944
0.0145389
0.0120638
0.0156902
0.0119151
0.0153038
0.0106251
0.00878679
0.00330322
0.00504106
0.00676782
0.00613174
0.00643797
0.00552665
0.00945587
0.00609701
0.0100543
0.00372136
0.0032583
0.00991956
0.0131824
0.00622951
0.0077126
0.0136176
0.0110375
0.0116371
0.00484512
0.00811809
0.00637297
0.00611021
0.00699534
0.00471362
0.00473365
0.00795475
0.00568763
0.00520253
0.00559126
0.00609206
0.00472798
0.0047475
0.00634275
0.00568002
0.00520616
0.00560256
0.00610994
0.00699511
0.00471639
0.00474687
0.0063552
0.007956
0.0056921
0.00520549
0.00320175
0.00320216
0.00320183
0.00516
0.00625658
0.00290961
0.00374612
0.00907383
0.00554538
0.00879472
0.0112263
0.00767079
0.00605759
0.00608833
0.00759434
0.00402433
0.00242939
0.0139935
0.0109148
0.0105552
0.011378
0.0112335
0.0131606
0.0061297
0.008152
0.00673605
0.00460773
0.00676613
0.0083
0.0162608
0.0147902
0.0173195
0.0166134
0.0168702
0.0181819
0.0203923
0.00639412
0.00694848
0.0125778
0.0087918
0.00717035
0.0100226
0.015302
0.00944201
0.0111974
0.00803873
0.0187992
0.0145216
0.0145243
0.0092886
0.0128491
0.0141247
0.0202495
0.0190957
0.0221865
0.0112406
0.00805664
0.0187381
0.0145204
0.00930992
0.01286
0.0141099
0.0131542
0.0162752
0.0173395
0.0166743
0.0136018
0.0181966
0.0203132
0.00638677
0.0069608
0.00641308
0.012602
0.0087992
0.00717692
0.010061
0.0100174
0.0152454
0.0221329
0.0202546
0.019078
0.00584198
0.00924486
0.00575327
0.00434513
0.00576998
0.00521855
0.00835589
0.00870121
0.00876074
0.0150357
0.0114505
0.0135711
0.00803366
0.00747979
0.0122227
0.0141957
0.0153551
0.011043
0.0118364
0.00844352
0.0164874
0.0146769
0.0159923
0.0110534
0.0151741
0.0124342
0.00851494
0.00582382
0.00921884
0.00575883
0.00434151
0.00288448
0.0057538
0.00521184
0.00835258
0.00871148
0.00876928
0.00629526
0.0150367
0.0114575
0.0135709
0.00436081
0.00804836
0.00748829
0.0122033
0.0141865
0.0152986
0.0110445
0.0118541
0.00845586
0.0164673
0.0146816
0.0159929
0.0110505
0.0151694
0.0124332
0.00991719
0.0131825
0.0062277
0.00770977
0.0136194
0.0110368
0.0116366
0.00958716
0.008787
0.00330352
0.00504333
0.00353956
0.0067753
0.00613662
0.00643722
0.00552364
0.00688062
0.00945561
0.00609751
0.0100541
0.00394303
0.00371783
0.00325685
0.00637265
0.00484567
0.00811759
0.0162629
0.0147914
0.0173229
0.0166167
0.0168697
0.0181826
0.0203937
0.00639079
0.00694602
0.0125763
0.00878606
0.00716683
0.0100205
0.0153026
0.00944635
0.0111979
0.00804266
0.0188014
0.0145225
0.0145254
0.00928944
0.01285
0.0141261
0.020252
0.0190971
0.02219
0.0136597
0.0112281
0.0163696
0.0146803
0.00759414
0.0114429
0.010024
0.00687014
0.00927487
0.00715042
0.00801731
0.0039303
0.0120679
0.0156816
0.0105376
0.00680035
0.00957855
0.00768286
0.00586825
0.0061219
0.00353799
0.00465832
0.0055182
0.0153205
0.0106747
0.01192
0.0076728
0.00605466
0.0060886
0.00402461
0.00243029
0.0139979
0.0109168
0.0113879
0.0112622
0.013162
0.00815902
0.00672341
0.00515701
0.00625979
0.00291073
0.00374853
0.00907412
0.00553949
0.00880131
0.0067563
0.00829657
0.00460525
0.0162603
0.0191655
0.0174381
0.0159085
0.0159795
0.0101925
0.0122718
0.011503
0.0132421
0.0173669
0.00666427
0.0133806
0.00898396
0.00784338
0.010776
0.0204465
0.0169452
0.0184838
0.00926982
0.00714931
0.00801538
0.0120646
0.0156817
0.00680735
0.00768611
0.00587075
0.00466132
0.00551836
0.0136587
0.0163715
0.01468
0.011442
0.0100246
0.0106736
0.0119208
0.0153214
0.00705282
0.00617614
0.00660532
0.00538675
0.0054499
0.00705009
0.00617565
0.00660482
0.00538533
0.00544822
0.0070535
0.00617811
0.00661041
0.00538404
0.00544887
0.00378097
0.00378095
0.00378107
0.00878408
0.00330751
0.00504304
0.00676749
0.00614265
0.00551471
0.00944213
0.00610397
0.00367253
0.0032356
0.00992807
0.00627193
0.00773169
0.0109815
0.0115466
0.00485003
0.00809974
0.0064114
0.00666818
0.0133943
0.00899233
0.00787487
0.0107904
0.016262
0.0191929
0.0174392
0.015889
0.0159691
0.01017
0.0122721
0.0114946
0.0132438
0.017407
0.0184721
0.0204562
0.0169425
SCALARS SignedDistance float 1
LOOKUP_TABLE default
0.00546646
0.00125122
0.00242519
0.00508872
0.0055027
0.001297
0.00244141
0.0051195
0.00546741
0.00126648
0.00242329
0.00508533
0.00224304
0.00275421
0.00688934
0.00274658
0.00234962
0.00276947
0.002285
0.00537491
0.00273895
0.00287521
0.0027771
0.00274658
0.00230789
0.00235415
0.00181508
0.00528443
0.00326866
0.0018166
0.00689697
0.0022583
0.00276184
0.00692749
0.00224304
0.00275803
0.00287342
0.0018154
0.00528395
0.00275803
0.00231171
0.00234318
0.00463808
0.00161695
0.00763431
0.00427532
0.00489324
0.00308228
0.00511169
0.004776
0.0027504
0.00662994
0.00691986
0.00366211
0.00682068
0.00375366
0.00283813
0.000823975
0.00593567
0.000567436
0.0027504
0.00149918
0.00358295
0.000740051
0.00427723
0.00381422
0.00409126
0.00597095
0.00900841
0.00333881
0.00319862
0.00321788
0.00296497
0.00510359
0.00143433
0.00518799
0.00354958
0.00177002
0.0038147
0.000823975
0.00164795
0.000793457
0.00170898
0.00375366
0.00149918
0.00370789
0.00355721
0.000759125
0.00692749
0.00597382
0.000566959
0.00562
0.00593281
0.000935674
0.00188255
0.00323391
0.00609386
0.00324351
0.00660598
0.0032506
0.00353622
0.00581932
0.000985384
0.00190401
0.00512874
0.0048959
0.003088
0.00512695
0.00477982
0.00463927
0.00161409
0.00762826
0.00427437
0.00490054
0.00309181
0.00512695
0.00478363
0.00284576
0.00671577
0.00164032
0.00768331
0.00521088
0.00353432
0.00410652
0.0029726
0.00511014
0.00143433
0.00331402
0.00561857
0.00593424
0.000984311
0.00188208
0.00324017
0.00609553
0.00324079
0.0089817
0.00355911
0.00336647
0.00320339
0.000567913
0.00381136
0.00411415
0.000747681
0.00695038
0.00592041
0.00150299
0.00372314
0.00662231
0.00775146
0.00280762
0.00320053
0.00380969
0.00897789
0.00103136
0.00103123
0.00103133
0.00297451
0.0017271
0.00527954
0.00271606
0.00661469
0.0067749
0.00615072
0.00169516
0.0092392
0.00546455
0.00189972
0.00281906
0.0058136
0.00498891
0.00563049
0.00122076
0.000776291
0.00430202
0.00148964
0.00135805
0.000776291
0.00097847
0.00361633
0.000484467
0.00134277
0.00193405
0.00202179
0.00688171
0.00585938
0.00164795
8.01086e-05
0.00476837
0.00235176
0.00326562
0.00312805
0.00463676
0.00327301
0.00555992
0.0074501
0.00537109
0.00559998
0.00636673
0.00463867
0.00286865
0.00406647
0.00311279
0.00631714
0.00405884
0.00569916
0.00219727
0.00119019
0.00255585
0.00144958
0.00466919
0.00521851
0.00508118
0.00457764
0.00323486
0.00543213
0.00646973
0.00683594
0.00646973
0.000911713
0.00742006
0.00509071
0.00548935
0.00271916
0.00415802
0.00312805
0.00203323
0.00114441
0.00146818
0.00115967
7.62939e-05
0.00393677
0.00601959
0.00528431
0.00184345
0.00118887
0.000533104
0.00448227
0.0034523
0.00078392
0.000874013
0.00371552
0.000684738
0.00144768
0.00062418
0.0031662
0.00285327
0.00213528
0.000407875
0.00219059
0.00307882
0.00271511
0.00141442
0.00974846
0.00626564
0.00438404
0.00777173
0.00475502
0.00614929
0.0028286
0.000714302
0.00529194
0.00161656
0.0053997
0.00267839
0.00628889
0.00380898
0.00755811
0.00121188
0.00292856
0.00370598
0.00350857
0.000148773
0.00146961
0.00267792
0.00415802
0.00186968
0.0043087
0.00435257
0.000869751
0.00610924
0.00121307
0.000473022
0.00548553
0.00792497
0.000938416
0.00497627
0.00447798
0.0055275
0.00490952
0.00148773
0.000488281
0.00199986
6.10352e-05
0.00286865
0.00274658
0.000671387
0.00405884
0.00268555
0.000549316
0.00143433
6.48499e-05
0.00280762
0.000701904
0.00448608
0.00274658
0.000549316
0.00149536
7.24792e-05
0.00286865
0.00268555
0.000656128
0.00457764
0.00405884
0.00262451
0.000610352
0.00152588
0.00152588
0.00151062
0.00117493
0.00115204
0.00146675
0.00115204
0.00507355
0.00390625
0.00595093
0.0046607
0.00184155
0.000558376
0.00344658
0.00346756
0.000877023
0.00372982
0.00606537
0.000915527
0.00742483
0.00640869
0.00615692
0.00566101
0.00273085
0.0045166
0.00312996
0.0014472
0.000637531
0.000682831
0.00190747
0.00134873
0.00154114
0.00482941
0.00767326
0.00481915
0.00683808
0.00399471
0.00636721
0.00511426
0.00151229
0.00125134
0.00084877
0.00539017
0.00529099
0.00527194
0.00213277
0.00185001
0.00640595
0.00628555
0.00463106
0.00521753
0.00589457
0.00296652
0.0059323
0.00517678
0.00529103
0.00212494
0.00184584
0.00639641
0.00465007
0.00651994
0.00590128
0.00910759
0.00193381
0.00159359
0.00483894
0.00459814
0.00482023
0.00988436
0.00400686
0.0063796
0.00200832
0.00521636
0.001513
0.00124997
0.00607109
0.000865936
0.00626254
0.00530314
0.00297058
0.00592421
0.000777245
0.00430393
0.00149345
0.00135439
0.000976563
0.00361526
0.00050354
0.001297
0.00193405
0.00688171
0.00583649
0.00170898
0.00476456
0.00234413
0.00614882
0.00169659
0.00923157
0.00545883
0.0019027
0.00279427
0.00579834
0.00498796
0.00563812
0.00315857
0.00462818
0.00329924
0.00122559
0.000775337
0.00430584
0.00147629
0.00135824
0.000772476
0.000976563
0.00361478
0.000497818
0.00131226
0.00193405
0.00202751
0.0068512
0.0058136
0.00170898
7.82013e-05
0.00782013
0.00248146
0.00617743
0.00168848
0.0108986
0.00546074
0.00190556
0.00281334
0.00603485
0.00572395
0.00563431
0.00310516
0.00462341
0.00331044
0.00547028
0.00793052
0.000923157
0.00497055
0.00447512
0.00552368
0.00490189
0.00284505
0.00351715
0.000160217
0.00147057
0.00220752
0.00268269
0.00416946
0.00186491
0.00430822
0.00283194
0.00435066
0.000873566
0.00610161
0.00270319
0.00120926
0.000469208
0.00200653
0.00148392
0.000495911
0.00190926
0.00135016
0.00154114
0.00483894
0.00767326
0.0048182
0.00683498
0.00398849
0.00636911
0.00510967
0.00151205
0.00125089
0.000847816
0.00538921
0.00530434
0.00526674
0.00212851
0.0018518
0.00640547
0.0062871
0.00463084
0.00521596
0.00589508
0.00296783
0.00593398
0.00517941
0.0095911
0.00466132
0.00623703
0.00435352
0.00346375
0.00475502
0.0061264
0.00283384
0.000711441
0.00139809
0.00540638
0.00266552
0.00356936
0.00754428
0.00742245
0.00316453
0.00285077
0.00211048
0.000409186
0.00271988
0.00221038
0.00310874
0.00203514
0.00292334
0.00373268
0.00120211
0.00184345
0.000558853
0.00345039
0.000877053
0.00373697
0.00555229
0.000911713
0.00508881
0.00548172
0.00556946
0.00413513
0.0031271
0.00114441
0.00119019
0.00146675
0.00114441
0.00507736
0.00393677
0.00597382
0.000638485
0.000679016
0.00144672
0.00324249
0.00804138
0.00536346
0.00641632
0.00463867
0.00403595
0.00306702
0.0067749
0.0067749
0.00222778
0.00254059
0.00506592
0.00579834
0.00320435
0.00543213
0.00650024
0.00679016
0.00646973
0.000710487
0.00139713
0.00540352
0.0035665
0.00754333
0.00316572
0.00211143
0.000409126
0.00310957
0.00203514
0.00959206
0.00623322
0.00435066
0.00475311
0.00613785
0.00373459
0.00120091
0.00292248
0.000116646
0.000599739
0.00531732
0.00126293
0.00322695
0.000116348
0.000599826
0.00531629
0.00126173
0.00322393
0.000118852
0.000599853
0.00531464
0.00126044
0.00322315
0.0016771
0.00167694
0.00167726
0.00350928
0.000144958
0.00147152
0.00267601
0.00416183
0.00431681
0.00438118
0.000919342
0.00195694
0.000453949
0.00551605
0.00094223
0.00502968
0.00601196
0.00594711
0.00149918
0.00050354
0.00201225
0.00255585
0.00460815
0.00521851
0.00326538
0.00561523
0.00327301
0.00744629
0.00535583
0.00637436
0.00465393
0.00404358
0.00306702
0.00622559
0.00570679
0.00216675
0.00643921
0.00648499
0.00683594
