# vtk DataFile Version 4.2
vtk output
ASCII
DATASET POLYDATA
POINTS 642 float
-0.71033 0.787385 -0.0279006
0.674439 0.78965 -0.0253279
-0.742293 -0.922631 -0.0138505
0.702949 -0.921648 -0.0147008
-0.0140106 -0.56228 0.79241
-0.0172447 0.493089 0.785657
-0.0141815 -0.578348 -0.922937
-0.0165324 0.520535 -0.897242
1.21123 -0.0192371 -0.626524
1.16417 -0.0278718 0.523716
-1.27202 -0.0194035 -0.64217
-1.22485 -0.0265145 0.538981
-1.0316 0.448854 0.268994
-0.614611 0.26197 0.721169
-0.379115 0.663213 0.40901
0.352057 0.667645 0.401156
-0.00547289 0.788447 -0.0264473
0.365083 0.714307 -0.464638
-0.392493 0.721677 -0.478769
-0.610476 0.260286 -0.734642
-1.03799 0.467145 -0.314933
-1.337 -0.0157587 -0.00922609
0.5911 0.25163 0.708704
0.987173 0.442706 0.275722
-0.625615 -0.304517 0.719064
-0.012758 -0.0131298 0.788733
-1.05832 -0.522213 -0.325993
-1.0598 -0.509396 0.286364
-0.0155596 -0.0106358 -0.934179
-0.630674 -0.298245 -0.726433
0.985857 0.4519 -0.315333
0.595041 0.248026 -0.724885
1.00097 -0.486827 0.281573
0.607234 -0.297878 0.721082
0.35169 -0.727639 0.41817
-0.380724 -0.727443 0.431168
-0.00560062 -0.927132 -0.00823474
-0.39108 -0.725435 -0.468301
0.363212 -0.726474 -0.459591
0.613746 -0.287823 -0.721078
1.00033 -0.499275 -0.321624
1.26643 -0.0162521 -0.00956717
-0.86414 0.702999 0.0941836
-0.704063 0.620397 0.309011
-0.574281 0.748337 0.178998
-0.944263 0.0914477 0.584331
-0.865872 0.300835 0.498003
-1.16344 0.152162 0.436832
-0.170656 0.577597 0.663125
-0.459801 0.47433 0.597871
-0.286654 0.406148 0.787513
-0.239533 0.740968 0.191262
-0.399296 0.787907 -0.0265828
0.143089 0.578319 0.655303
-0.0105133 0.654249 0.466079
0.381505 0.787799 -0.0259872
0.224453 0.742907 0.188877
0.546798 0.754613 0.171767
-0.243546 0.7915 -0.244471
-0.589025 0.790291 -0.235309
0.560694 0.789862 -0.230608
0.228261 0.791315 -0.242025
-0.170221 0.579935 -0.723004
-0.00965137 0.695521 -0.51957
0.141919 0.578105 -0.708986
-0.723307 0.654239 -0.355625
-0.882063 0.733254 -0.149018
-0.277929 0.41986 -0.858128
-0.475406 0.505266 -0.656566
-1.19939 0.167961 -0.514156
-0.893488 0.315191 -0.560845
-0.987011 0.0897434 -0.65371
-1.03294 0.524286 -0.0178491
-1.33691 -0.0156284 -0.41546
-1.20856 0.175411 -0.242491
-1.20851 0.172538 0.210545
-1.33624 -0.0164553 0.373549
0.671228 0.603739 0.297092
0.81983 0.691368 0.0930307
0.259454 0.392041 0.763812
0.438757 0.468943 0.586472
1.11452 0.151869 0.434985
0.842573 0.303917 0.497984
0.914672 0.0850351 0.580326
-0.304103 0.170718 0.789852
-0.0146711 0.286548 0.787625
-0.956207 -0.140969 0.582787
-0.684873 -0.0175424 0.720839
-0.0118374 -0.326754 0.787894
-0.30708 -0.202829 0.790064
-0.2917 -0.462275 0.793132
-1.255 -0.23378 0.221356
-1.18542 -0.200337 0.451959
-1.20913 -0.210708 -0.521892
-1.25132 -0.235665 -0.250915
-0.885348 -0.780948 0.0838689
-1.06787 -0.593408 -0.0187264
-0.922973 -0.821124 -0.151844
-0.709623 -0.0181869 -0.722711
-0.99791 -0.140116 -0.652096
-0.0168433 0.31106 -0.933924
-0.293581 0.183075 -0.859991
-0.281862 -0.466045 -0.862085
-0.295573 -0.210044 -0.860161
-0.0160292 -0.344738 -0.933985
0.456905 0.503313 -0.649227
0.259736 0.415074 -0.862398
0.836571 0.718122 -0.14793
0.678675 0.626098 -0.329222
0.954678 0.0852772 -0.650012
0.858353 0.300454 -0.547364
1.14064 0.158833 -0.505318
0.841462 -0.763536 0.091635
0.690863 -0.663436 0.307336
0.563153 -0.859111 0.172899
0.929751 -0.137678 0.582567
0.857171 -0.338635 0.508047
1.13479 -0.197369 0.450675
0.146746 -0.653723 0.685194
0.446634 -0.529829 0.608406
0.266778 -0.453424 0.792376
0.232944 -0.86055 0.188506
0.400775 -0.925933 -0.00963316
-0.175673 -0.65202 0.693402
-0.0106814 -0.720106 0.492899
-0.420344 -0.92614 -0.0093936
-0.249005 -0.860761 0.191091
-0.593423 -0.8592 0.177519
0.238155 -0.859333 -0.222226
0.581764 -0.857343 -0.215503
-0.61504 -0.85859 -0.221437
-0.253634 -0.859561 -0.224188
0.147343 -0.652302 -0.733354
-0.00903483 -0.721723 -0.542161
-0.172793 -0.654746 -0.745383
0.722857 -0.697612 -0.362425
0.860482 -0.785184 -0.145357
0.261066 -0.459401 -0.859591
0.465794 -0.553153 -0.66329
1.16004 -0.2095 -0.519807
0.87927 -0.342856 -0.567322
0.96575 -0.135532 -0.649014
0.996702 -0.56312 -0.0176347
1.26707 -0.0151656 -0.403913
1.19628 -0.226984 -0.245263
1.19799 -0.225077 0.216267
1.26556 -0.0167104 0.363113
0.286015 -0.200783 0.788631
0.657268 -0.0178614 0.700883
0.283671 0.1663 0.790016
-0.731736 -0.691132 0.329603
-0.46822 -0.53946 0.622986
-0.893649 -0.355225 0.524497
-0.488483 -0.555339 -0.668304
-0.760326 -0.712069 -0.370083
-0.921804 -0.367938 -0.587673
0.689585 -0.01828 -0.721398
0.276825 -0.206987 -0.858313
0.274175 0.177934 -0.858262
1.14127 0.157376 0.20606
1.14118 0.160158 -0.237905
0.983692 0.511408 -0.017379
-0.801822 0.783037 0.033927
-0.734676 0.759736 0.132479
-0.653166 0.789867 0.0763846
-0.864827 0.528962 0.261003
-0.798632 0.664793 0.197713
-0.939797 0.577977 0.170954
-0.483464 0.72025 0.302595
-0.64525 0.719569 0.256
-0.550366 0.679488 0.372793
-1.10739 0.0279431 0.57842
-1.09015 0.115916 0.536369
-1.21884 0.0469592 0.498256
-0.740215 0.271809 0.614791
-0.923119 0.200686 0.574033
-0.771134 0.172548 0.653203
-1.10598 0.30288 0.362889
-1.03782 0.241012 0.47311
-0.966883 0.360592 0.378052
-0.0924666 0.541147 0.733013
-0.216277 0.4958 0.726901
-0.148518 0.457126 0.789715
-0.413435 0.58788 0.51284
-0.311274 0.54294 0.638228
-0.264853 0.602091 0.538054
-0.433382 0.331653 0.724368
-0.370386 0.437498 0.703615
-0.53929 0.375083 0.679762
-0.776512 0.456436 0.40174
-0.665375 0.409424 0.560519
-0.586353 0.544625 0.450865
-0.505111 0.790345 0.0764683
-0.563307 0.7872 -0.0266264
-0.324733 0.720327 0.310108
-0.41739 0.740108 0.190761
-0.210101 0.788309 -0.0264931
-0.322842 0.790665 0.0803717
-0.130932 0.79082 0.0806141
0.0619151 0.543481 0.730752
-0.0143287 0.575383 0.678095
0.172713 0.656129 0.445176
0.0738081 0.586237 0.56508
0.239369 0.609349 0.528814
-0.0986235 0.585837 0.569883
-0.193924 0.655493 0.451264
0.538298 0.78703 -0.0248773
0.48375 0.790261 0.074719
0.621799 0.789984 0.0736773
0.119125 0.790803 0.0801456
0.307401 0.790616 0.0790865
0.1974 0.788254 -0.0263172
0.455896 0.720486 0.291116
0.396961 0.744541 0.185379
0.303812 0.720874 0.303812
-0.118301 0.718105 0.335226
0.101651 0.718345 0.33276
-0.00639967 0.737157 0.196473
-0.509746 0.787302 -0.13282
-0.657391 0.785667 -0.128933
-0.131894 0.788206 -0.136651
-0.325639 0.787906 -0.13628
-0.49649 0.729774 -0.337537
-0.426171 0.791172 -0.242624
-0.33182 0.726478 -0.347993
0.625059 0.785974 -0.125494
0.486435 0.787161 -0.130305
0.311307 0.728549 -0.341614
0.405602 0.790858 -0.238687
0.469474 0.734842 -0.326982
0.309555 0.787828 -0.134732
0.119767 0.788176 -0.136064
-0.0899719 0.581601 -0.841013
-0.0146745 0.577506 -0.752761
0.0601865 0.583242 -0.838911
-0.203126 0.708032 -0.512424
-0.100863 0.60709 -0.610654
-0.277496 0.63163 -0.584999
0.251539 0.640062 -0.578131
0.0766846 0.611517 -0.605706
0.182657 0.711056 -0.508808
-0.00644511 0.79197 -0.250612
0.104848 0.724111 -0.3702
-0.120834 0.724035 -0.371786
-0.743034 0.773385 -0.181454
-0.807085 0.78945 -0.0856863
-0.571553 0.717163 -0.426483
-0.66776 0.763497 -0.308938
-0.947272 0.602135 -0.219918
-0.81662 0.696315 -0.250795
-0.885649 0.564725 -0.317465
-0.129395 0.473933 -0.873054
-0.215759 0.526237 -0.816101
-0.551363 0.397997 -0.741011
-0.370803 0.451401 -0.767433
-0.444666 0.354057 -0.830956
-0.325832 0.580303 -0.710319
-0.432753 0.635331 -0.579988
-1.25961 0.0621319 -0.5899
-1.12477 0.110051 -0.600065
-1.15156 0.024063 -0.647137
-0.980458 0.373943 -0.427103
-1.06019 0.242055 -0.532153
-1.11634 0.309212 -0.414871
-0.8244 0.177479 -0.719291
-0.966813 0.212185 -0.654586
-0.774786 0.281038 -0.666694
-0.609954 0.578416 -0.511771
-0.697285 0.444244 -0.62779
-0.790398 0.473517 -0.447742
-0.880856 0.74256 -0.0262332
-1.04336 0.517719 -0.176754
-0.938016 0.624091 -0.0918197
-0.941903 0.617144 0.0449891
-1.05016 0.512416 0.138463
-1.33611 -0.0162516 -0.547356
-1.29109 0.0495916 -0.49153
-1.29007 0.0543117 -0.142473
-1.29057 0.0524332 -0.335875
-1.33689 -0.0158218 -0.228739
-1.20797 0.169781 -0.396428
-1.13764 0.329978 -0.296553
-1.28789 0.0464739 0.432066
-1.33463 -0.0178335 0.490218
-1.13798 0.323471 0.256276
-1.20744 0.168269 0.344017
-1.3368 -0.0158999 0.204136
-1.29139 0.0503535 0.299456
-1.29039 0.0534864 0.120306
-1.12547 0.361382 -0.117719
-1.20839 0.186146 -0.0116405
-1.12741 0.358713 0.0884278
0.693337 0.742355 0.119308
0.756407 0.765045 0.0322348
0.521165 0.669457 0.358171
0.610541 0.706045 0.23958
0.891375 0.564498 0.171951
0.750982 0.636273 0.177777
0.834296 0.525342 0.269184
0.116196 0.450345 0.778046
0.191823 0.498866 0.722566
0.514792 0.3629 0.665113
0.354424 0.43765 0.701939
0.414106 0.321519 0.720064
0.279672 0.526757 0.616023
0.386928 0.584142 0.498375
1.16081 0.0442526 0.487727
1.03853 0.102504 0.517819
1.06173 0.0238623 0.571227
0.926785 0.35303 0.37565
0.994766 0.236048 0.466325
1.05191 0.291531 0.360026
0.745999 0.163986 0.639084
0.884855 0.18731 0.553073
0.71153 0.256743 0.592655
0.564678 0.538282 0.443078
0.636109 0.39105 0.537212
0.743895 0.437346 0.384887
-0.152902 0.361415 0.792224
-0.0171065 0.397334 0.78639
-0.448067 0.225715 0.724671
-0.299766 0.299679 0.789174
-0.0134451 0.147948 0.788398
-0.160206 0.232651 0.792095
-0.162239 0.0883309 0.792236
-1.11415 -0.0777319 0.577189
-0.983667 -0.0230195 0.579382
-0.672174 -0.16765 0.720213
-0.817159 -0.0891498 0.652368
-0.78409 -0.218247 0.654245
-0.812281 0.0470732 0.652376
-0.664791 0.128506 0.719853
-0.0125076 -0.451532 0.786838
-0.154848 -0.409741 0.792241
-0.149802 -0.520213 0.790514
-0.162709 -0.11567 0.792247
-0.161339 -0.267748 0.792118
-0.0123566 -0.178221 0.788541
-0.442103 -0.383558 0.724667
-0.30375 -0.34226 0.789508
-0.455811 -0.264657 0.724661
-0.486147 0.0711619 0.724297
-0.488939 -0.103203 0.724371
-0.315641 -0.0137005 0.790579
-1.27943 -0.0877779 0.438051
-1.23882 -0.107629 0.525211
-1.27962 -0.0936431 0.122182
-1.2789 -0.0919527 0.303209
-1.12414 -0.334827 0.376712
-1.25308 -0.233695 0.365903
-1.14361 -0.350418 0.264867
[...]
POINT_DATA 642
SCALARS CoVolArea float 1
LOOKUP_TABLE default
0.0112355
0.0102114
0.010618
0.00988498
0.0118552
0.0101281
0.0115551
0.0104484
0.00822083
0.00796668
0.00917567
0.00901327
0.022492
0.0199943
0.0205687
0.019902
0.0237875
0.0216609
0.0230486
0.0233348
0.0230526
0.0210168
0.0195849
0.0210451
0.0212995
0.0263156
0.0252153
0.0250142
0.0260602
0.0246497
0.0213565
0.0228093
0.0227038
0.0205071
0.0237467
0.0246888
0.0227956
0.0265385
0.0257268
0.0237391
0.0230528
0.0194889
0.0155216
0.0261626
0.0167613
0.0179202
0.0283604
0.0170335
0.0148512
0.0253913
0.0146281
0.025948
0.0190799
0.0151991
0.025178
0.0181107
0.0250488
0.0152164
0.0250867
0.0161738
0.0149563
0.0242608
0.0187611
0.0270963
0.0190359
0.0271362
0.0151797
0.016491
0.0282254
0.0182339
0.0305251
0.0176282
0.0263709
0.013885
0.0316435
0.029071
0.0121062
0.0254292
0.0144169
0.0152941
0.0258884
0.0154497
0.0262331
0.0159729
0.0246251
0.01785
0.0182547
0.0259085
0.0200662
0.0261791
0.0162924
0.0299416
0.0165872
0.0177195
0.0321477
0.0176627
0.0295796
0.017765
0.0300998
0.0174411
0.0173808
0.0278196
0.0180226
0.0292776
0.0189182
0.0277448
0.0173504
0.014801
0.0267545
0.0158601
0.0280133
0.0167732
0.0167806
0.0283394
0.016961
0.0163043
0.0266312
0.0151626
0.0166382
0.0270566
0.0164316
0.0275605
0.0172407
0.0159768
0.0279138
0.0182521
0.0285959
0.0182269
0.0291687
0.0175079
0.0191933
0.030216
0.0179872
0.029717
0.0180221
0.0281345
0.0159645
0.0177966
0.0286609
0.0161387
0.0279302
0.0160426
0.0285715
0.0131096
0.0304751
0.0283944
0.0112806
0.0262166
0.0250071
0.0246261
0.0295874
0.0270723
0.0288804
0.0288721
0.0296173
0.0292147
0.0281374
0.0288378
0.027254
0.0274195
0.0297446
0.0264552
0.0121976
0.0154431
0.0144386
0.0270429
0.0196023
0.0190574
0.0174616
0.0178249
0.0218994
0.0136658
0.0172119
0.0121217
0.0237131
0.0206393
0.0189721
0.0199077
0.0216721
0.0276769
0.0111846
0.014111
0.012338
0.0233812
0.0183511
0.0191141
0.0164389
0.0174309
0.0221232
0.0350374
0.0324245
0.0318426
0.0180998
0.0158775
0.0229962
0.0201838
0.0212209
0.0212245
0.0255744
0.0116077
0.0138378
0.0229046
0.0193545
0.0188647
0.019559
0.0238186
0.0145598
0.0165407
0.0126923
0.0251921
0.0201888
0.0206572
0.0166804
0.0187542
0.0218474
0.0295662
0.0290496
0.0309713
0.0175847
0.0138791
0.0245838
0.0204201
0.0191883
0.019575
0.0250707
0.0128745
0.0165033
0.0235906
0.0181707
0.0174018
0.0195832
0.0242495
0.0136619
0.0186552
0.0144352
0.0260703
0.0229849
0.0217119
0.0207824
0.02236
0.0248778
0.0297724
0.0306237
0.0310901
0.0145536
0.0117611
0.0241373
0.0180354
0.0188014
0.0188291
0.0270073
0.0130827
0.016707
0.026129
0.0207989
0.0192907
0.0216543
0.0257256
0.0124671
0.0176861
0.0130401
0.0289525
0.0231897
0.0214341
0.021082
0.0219721
0.0264982
0.0342125
0.0354997
0.037281
0.0138707
0.0245047
0.0182662
0.0179649
0.0234396
0.0106368
0.0145204
0.0267682
0.0195699
0.0180508
0.0214945
0.0263819
0.0129668
0.00986478
0.0240207
0.0189673
0.016706
0.0173004
0.0257893
0.0364832
0.0396077
0.0350691
0.0141144
0.0109745
0.0219294
0.0173439
0.0179014
0.0186999
0.0248524
0.013047
0.0150042
0.0224028
0.0182986
0.01659
0.0192306
0.023778
0.0108425
0.0156371
0.0119435
0.0247738
0.0195378
0.0180687
0.0180415
0.019059
0.0231021
0.0314426
0.031527
0.0327893
0.0154455
0.0136738
0.0225451
0.0174297
0.0218001
0.0195617
0.0258244
0.0134945
0.0183481
0.0244683
0.0213524
0.0193296
0.0206877
0.0233177
0.0159147
0.0178911
0.0143225
0.0265887
0.0214545
0.0230955
0.018965
0.0197124
0.0245529
0.0307799
0.0317626
0.0314967
0.0136275
0.0118129
0.0273167
0.0187399
0.020674
0.0194354
0.0258408
0.0124221
0.0153729
0.0280273
0.0216014
0.0223498
0.0209429
0.028252
0.0124661
0.0158493
0.0128968
0.0262677
0.0204998
0.0212593
0.0204808
0.0210853
0.027137
0.0405433
0.0388426
0.0375086
0.0169468
0.0128702
0.0272734
0.0213526
0.0207863
0.0217839
0.0283674
0.0132095
0.0158932
0.0276176
0.0205843
0.0216099
0.0193351
0.0251983
0.0143804
0.0175213
0.0145355
0.0272283
0.0212526
0.0209496
0.0226744
0.0221015
0.0282655
0.0358195
0.0359512
0.03679
0.0179028
0.0140835
0.025389
0.0217299
0.0192154
0.021227
0.0254699
0.0113243
0.0137915
0.0247947
0.0180028
0.0177616
0.0175656
0.0234135
0.0117324
0.0160138
0.011396
0.0250716
0.0200172
0.0195358
0.0197267
0.0209013
0.0259539
0.0334622
0.0350623
0.0336875
0.0119559
0.0167767
0.0129019
0.0268993
0.0214876
0.0200233
0.0198036
0.020449
0.0259764
0.0117132
0.0147578
0.0105019
0.0229758
0.0182936
0.0183281
0.0189784
0.0192127
0.0261949
0.0138781
0.0160631
0.0142405
0.0260151
0.0199685
0.0200932
0.0181794
0.0195077
0.0232853
0.0347304
0.032653
0.0343301
0.0164493
0.0136402
0.0258753
0.0203068
0.0198276
0.0201619
0.0252897
0.0132846
0.0159659
0.027079
0.0200287
0.019916
0.0198503
0.0263106
0.0148256
0.0177683
0.0138926
0.0256852
0.0211674
0.0204199
0.0210824
0.0217617
0.0274145
0.0342887
0.0348507
0.0343134
0.0183497
0.0144877
0.0273074
0.0220358
0.0207373
0.0215666
0.0276665
0.0160176
0.0198746
0.0291323
0.0231519
0.0217965
0.0230679
0.0277044
0.0150862
0.0175963
0.0146152
0.028006
0.0207465
0.0209914
0.0216907
0.0211793
0.028978
0.0363754
0.0373856
0.0367282
0.016194
0.0119566
0.0270892
0.019785
0.0188923
0.0198319
0.0258406
0.0148695
0.0179042
0.0267698
0.0218404
0.0207525
0.0213535
0.0270527
0.0111002
0.0149898
0.0114744
0.0271327
0.020379
0.020304
0.0192661
0.0187748
0.0245247
0.035148
0.0345936
0.035617
0.0146334
0.0262926
0.0197853
0.0195499
0.0252602
0.00984268
0.0145724
0.0262357
0.0198356
0.0168131
0.0205809
0.0270585
0.0126221
0.00876759
0.0249191
0.0185423
0.0156204
0.0177377
0.0254108
0.0376776
0.0379605
0.0362928
0.0174747
0.0236488
0.0194736
0.0214064
0.0267757
0.0161508
0.022381
0.0194539
0.0203626
0.0237309
0.0157503
0.0260453
0.0196576
0.0176288
0.0217662
0.0305736
0.0296393
0.0315187
0.0176067
0.0265041
0.0213777
0.0227937
0.0296211
0.0150641
0.0242248
0.0187605
0.0188856
0.025711
0.0164976
0.0296727
0.0213272
0.0200172
0.0239332
0.0348992
0.0341895
0.0373335
0.0176832
0.0274467
0.0216464
0.0217525
0.0270717
0.0176649
0.0284842
0.0217531
0.0207431
0.0274667
0.0166303
0.0257272
0.0198122
0.0222505
0.0299181
0.0358813
0.0376787
0.035654
0.0154628
0.0268122
0.0203448
0.019757
0.0256869
0.0181946
0.0292313
0.022947
0.0209007
0.0263392
0.0168805
0.0243564
0.0193242
0.0213598
0.0285226
0.0349865
0.0354302
0.0338848
0.011778
0.023599
0.0159999
0.0176736
0.0233154
0.0134263
0.0255
0.0201823
0.0180501
0.0244778
0.0135657
0.0232286
0.0177411
0.0183701
0.024237
0.0371459
0.0355302
0.0342144
SCALARS SignedDistance float 1
LOOKUP_TABLE default
0.00434256
0.00288785
0.00101664
0.00111622
0.001831
0.00229776
0.00042668
0.00333041
0.00144792
0.00441891
0.000220716
0.00426769
0.00469398
0.00241709
0.00835848
0.00812006
0.00778732
0.00262642
0.00204706
0.00890827
0.00486469
0.00129835
0.00146103
0.000984192
0.0040102
0.00895406
0.00109863
0.000249863
0.0018129
0.00971985
0.00299263
0.00683975
0.00256443
0.0019722
0.00824165
0.0073061
0.00174173
0.00924397
0.00858116
0.0091064
0.00279617
0.00139003
0.00571442
0.00558472
0.00824451
0.00439239
0.00699425
0.00653839
0.00487137
0.0079422
0.0015831
0.0123531
0.00715702
0.00393152
0.00676155
0.00703025
0.0121481
0.00607634
0.00293825
0.0024272
0.00250575
0.00300096
0.00657582
0.00653808
0.0112133
0.0050993
0.00527573
0.00325447
0.00642395
0.00159764
0.00498199
0.00794736
0.00667824
0.00100583
0.00701511
0.0070884
0.000988712
0.00771856
0.00576788
0.00490761
0.00569916
0.00302315
0.00194883
0.00483322
0.00417711
0.00758703
0.0057497
0.002601
0.00805534
0.00416429
0.0016098
0.0037443
0.00876617
0.0113291
0.00448359
0.00571442
0.0046649
0.000649869
0.00731991
0.00845599
0.00136707
0.00631104
0.00240397
0.00638064
0.00147344
0.00241852
0.00192833
0.00225067
0.00891495
0.00692391
0.00759125
0.00277519
0.00338793
0.00898361
0.00448751
0.00348759
0.00629425
0.0088768
0.00341153
0.00731468
0.00155926
0.00461474
0.00153519
0.00333118
0.0109791
0.00156981
0.00451568
0.00427592
0.00586696
0.00531578
0.00443077
0.00571491
0.00477791
0.00950633
0.00441647
0.00165558
0.00278217
0.00314474
0.00471687
0.0068965
0.0106733
0.00779471
0.00857352
0.0010542
0.000937226
0.000841909
0.00104541
0.00266647
0.00589883
0.00236942
0.00575876
0.00688934
0.00198364
0.00778198
0.00131035
0.0039587
0.00647734
0.00751317
0.00736155
0.00987653
0.00974594
0.00198784
0.00104606
0.00479507
0.00271589
0.00989819
0.00827694
0.00568771
0.00473893
0.00192833
0.00694466
0.00216901
0.00679779
0.0030489
0.00621986
0.0024147
0.004807
0.00315094
0.00540352
0.00497818
0.00570655
0.012207
0.00167352
0.00846386
0.00493622
0.00586772
0.00665092
0.0060029
0.00732517
0.00577927
0.00509644
0.00925589
0.00345685
0.00632686
0.00572114
0.0113686
0.0076257
0.00384506
0.00406818
0.00432929
0.00511579
0.00835968
0.0140474
0.00570107
0.0137325
0.00784492
0.00613138
0.00337061
0.00276989
0.00405212
0.00379991
0.00756263
0.00521564
0.0108115
0.00552389
0.0068418
0.00673048
0.0127336
0.00650276
0.00554836
0.00756886
0.00721825
0.00957993
0.0026882
0.0110817
0.00493949
0.00633597
0.0108833
0.00277885
0.00919473
0.00712229
0.00753205
0.00120306
0.00657192
0.00103509
0.00148249
0.0142763
0.00649929
0.00431311
0.0132028
0.00133459
0.00281065
0.0109841
0.0109782
0.00349808
0.00178599
0.000232697
0.00308609
0.00455475
0.00352097
0.00517273
0.00462198
0.00268936
0.00300407
0.00839806
0.00400543
0.000499964
0.00115967
0.00180626
0.00492477
0.00261879
0.0149441
0.00327301
0.00263596
0.00297165
0.00060463
0.00645447
0.00510406
0.00268579
0.00688553
0.00321582
0.00465552
0.010659
0.00904047
0.00275946
0.000902569
0.002782
0.00377283
0.00350008
0.00120765
0.0065583
0.00438309
0.00317526
0.000867456
0.00424361
0.00599462
0.00116397
0.00343828
0.00376534
0.0043188
0.00628499
0.00413831
0.00669336
0.00472164
0.00424194
0.00333595
0.0050807
0.0104437
0.00594449
0.00186515
0.00290966
0.00536346
0.00258827
0.00530815
0.00736427
0.00532722
0.00394964
0.00979376
0.00297761
0.00630951
0.00282288
0.00253487
0.00441742
0.00676346
0.00837803
0.00725937
0.00683784
0.0105419
0.00282463
0.0060259
0.00798354
0.00369464
0.00853594
0.00405145
0.00466374
0.00260496
0.00618267
0.00288048
0.00454664
0.0070138
0.0047766
0.00308202
0.00682058
0.00322312
0.00254583
0.00477248
0.00431045
0.00875916
0.0064106
0.00373198
0.00762861
0.00575323
0.00573896
0.00402005
0.00724947
0.00198841
0.00868822
0.00803214
0.00380516
0.00273943
0.00982133
0.000946045
0.00825774
0.00958174
0.00340152
0.000846863
0.00814775
0.00872723
0.00351447
0.000268519
0.00464916
0.00730896
0.0081234
0.00251389
0.00745916
0.0086087
0.00647736
0.00576334
0.00467191
0.00496172
0.0057311
0.00431919
0.00813812
0.00423317
0.00482464
0.00405933
0.00739772
0.00101143
0.0115986
0.0144944
0.0135556
0.00165087
0.00527252
0.00895953
0.00765657
0.0121344
0.00111823
0.0105039
0.00548548
0.00537777
0.00170932
0.0138619
0.0146114
0.0112745
0.00641083
0.0115033
0.00378799
0.00321674
0.00650787
0.00232315
0.00485277
0.00283813
0.00486755
0.00253797
0.00817871
0.00748825
0.00404358
0.00776577
0.00145721
0.00913239
0.00203466
0.00517562
0.000774384
0.00461388
0.00106621
0.00208282
0.00188446
0.0054512
0.00943375
0.00226974
0.015728
0.00922966
0.0038538
0.00776672
0.00669414
0.00582981
0.00224876
0.00115585
0.00981039
0.0119877
0.00719452
0.00331497
0.00441551
0.00238276
0.00652885
0.00454521
0.00299644
0.00326729
0.00528717
0.00851059
8.22544e-05
0.00533485
0.00362301
0.00592041
0.00426483
0.000832319
0.00628614
0.000480652
0.0112114
0.0016098
0.00956535
0.0157728
0.00906473
0.0013557
0.00945996
0.00432048
0.00164815
0.0106004
0.0114161
0.000165939
0.00250467
0.0102173
0.00936548
0.0036068
0.0088614
0.0100093
0.00141956
0.0093522
0.00719946
0.0115504
0.0108862
0.00166592
0.00880551
0.00416477
0.0085922
0.00517111
0.00495915
0.00424613
0.00894008
0.006495
0.0102683
0.00977011
0.00492954
0.00532233
0.00693406
0.00704027
0.00899977
0.00685609
0.00509215
0.00601149
0.0097557
0.0102602
0.000240266
0.00652542
0.00018096
0.00798343
0.00567312
0.00276995
0.00274372
0.0072998
0.00836965
0.00526762
0.0073679
0.00711061
0.000715256
0.00368953
0.00280929
0.00317001
0.00705767
0.00874496
0.0056926
0.00589657
0.00403595
0.00134659
0.00102234
0.00482178
0.00278282
0.00604248
0.00176334
0.00526237
0.00321627
0.00477791
0.00603867
0.0039841
0.00290251
0.00280738
0.00625801
0.00544357
0.00361633
0.0110669
0.00473286
0.00746468
0.0148339
0.013667
0.00736284
0.000841651
0.00849271
0.0111292
0.0104149
0.00129214
0.000627279
0.00995922
0.00410843
0.0011392
0.01038
0.000545263
0.00125062
0.0101472
0.0110395
0.0101437
0.00317602
0.0108487
0.00392559
0.00563113
0.00180535
0.00480643
0.00518489
0.00415896
0.00145755
0.00224803
0.00353581
0.00196934
0.00315825
0.00507476
0.0044969
0.00200155
0.00535232
0.00645447
0.0063086
0.00357704
0.00437164
0.00219727
0.0161842
0.00384903
0.00440216
0.00338268
0.000333786
0.0032196
0.00258636
0.00269699
0.00320053
0.00984192
0.000411987
0.00348043
0.00584412
0.0109329
0.00453568
0.00314009
0.00312424
0.00502396
0.00119781
0.00487518
0.00883102
0.000602722
0.000732422
0.0131581
0.00503159
0.00625229
0.00392532
0.00413895
0.00411987
0.00293732
0.00687027
0.00544739
0.0111156
0.00139618
0.00635295
0.00713778
0.00198708
0.00168646
0.00767053
0.00940365
0.01065
0.0101544
0.00661588
0.0102943
0.00923866
0.01064
0.00634492
0.0100547
0.0106207
0.00684221
0.00735189
0.00708529
0.00373466
0.00606386
0.00546872
0.00835848
0.00572133
0.00503922
0.00623512
0.00903996
0.00568895
0.00612521
0.00377476
0.00131777
0.00828493
0.0110709
0.00159024
0.00881608
0.00613564
0.00617737
