# vtk DataFile Version 4.2
vtk output
ASCII
DATASET POLYDATA
POINTS 642 float
0.0635054 1.01104 0.397953
0.853657 1.13851 0.504181
0.119452 -0.179666 0.487228
0.941127 -0.0482897 0.583462
0.39827 0.0614098 1.01674
0.503807 0.856106 1.13667
0.486888 0.120923 -0.180562
0.580863 0.941575 -0.0446086
1.01579 0.399923 0.0602372
1.13944 0.505637 0.856815
-0.174973 0.490773 0.125575
-0.0477544 0.585937 0.938575
-0.140967 0.836538 0.679594
0.0591759 0.698179 1.22183
0.284527 0.929159 0.84514
0.843126 1.03344 0.896757
0.560368 1.15735 0.373378
0.696976 1.22338 0.0594933
0.298442 1.12991 0.131537
0.117529 0.718683 0.0389749
-0.255204 0.920182 0.270962
-0.203614 0.622267 0.417849
0.897615 0.846049 1.03409
1.03351 0.899432 0.845058
0.121779 0.302348 1.13633
0.371876 0.569948 1.1607
-0.0744932 0.0718455 0.126071
0.0319215 0.122706 0.712379
0.615043 0.420498 -0.203556
0.0691595 0.127512 -0.0742432
0.928928 0.859554 0.288171
0.829545 0.686845 -0.143335
1.226 0.0575353 0.70013
0.855982 0.289891 0.931709
0.684739 -0.144201 0.830912
0.26519 -0.262798 0.923071
0.417218 -0.204724 0.616705
0.124921 -0.0748537 0.0689403
0.712774 0.0321893 0.117263
0.923007 0.265596 -0.263423
1.13748 0.122523 0.299622
1.16032 0.374276 0.568119
-0.0822718 0.924406 0.520379
0.0332957 0.868659 0.774099
0.158857 0.974016 0.590078
0.0129815 0.654019 1.12011
-0.0273153 0.750907 0.994901
-0.129044 0.729807 0.834409
0.403093 0.872726 1.0255
0.159125 0.790331 1.05797
0.23005 0.751162 1.192
0.427622 1.05159 0.600914
0.308949 1.0962 0.379294
0.714001 0.952649 1.02339
0.593156 0.979955 0.871528
0.719603 1.1644 0.416265
0.711653 1.10937 0.652024
0.869973 1.10968 0.731355
0.436154 1.16899 0.200375
0.153306 1.09315 0.259841
0.749424 1.19438 0.230485
0.647915 1.22793 0.185729
0.451604 1.09151 0.0398039
0.567073 1.22137 0.0604648
0.651543 1.12256 0.0134504
-0.00748658 1.00667 0.226516
-0.119254 0.963009 0.330214
0.367947 0.838672 -0.0047659
0.195541 0.967832 0.105702
-0.243729 0.768571 0.217356
-0.09814 0.836613 0.183406
-0.0668478 0.596428 0.0999338
-0.239639 0.910094 0.414915
-0.221842 0.580877 0.254482
-0.267228 0.804926 0.323066
-0.203719 0.784625 0.544378
-0.146178 0.610442 0.671962
0.977612 1.02354 0.916577
0.952681 1.02658 0.714984
0.731513 0.872662 1.11033
0.916325 0.978948 1.02335
1.11102 0.733792 0.872461
1.02384 0.917871 0.979204
1.02532 0.716942 0.95414
0.184144 0.650573 1.22846
0.416292 0.723855 1.16594
0.0400467 0.458369 1.08871
0.0576891 0.570119 1.22396
0.377178 0.329204 1.10653
0.195279 0.444568 1.17512
0.244671 0.157249 1.11082
-0.092342 0.383462 0.556227
-0.00874547 0.37632 0.832878
-0.157021 0.250929 0.0974039
-0.158594 0.334684 0.265565
0.0971131 -0.0649694 0.590898
-0.0157472 0.0987208 0.391367
0.0085049 -0.067916 0.266325
0.0923781 0.397451 -0.0154593
-0.0687403 0.26947 0.0112652
0.603473 0.676368 -0.14378
0.373717 0.562189 -0.088679
0.24733 0.0971516 -0.158525
0.328395 0.267885 -0.157658
0.575809 0.254029 -0.224276
0.749263 1.00306 -0.0283001
0.726893 0.839147 -0.129358
0.870168 1.03135 0.404814
0.786193 1.065 0.159692
0.92154 0.534338 -0.0973075
0.861847 0.788263 0.0319471
0.969962 0.615382 0.168713
1.12234 0.014497 0.654489
1.00243 -0.0302449 0.752326
0.838984 -0.13563 0.729057
1.02909 0.406453 0.871781
1.063 0.159736 0.78829
1.19597 0.230599 0.752801
0.532302 -0.0969639 0.922643
0.785072 0.0325987 0.863004
0.611839 0.170584 0.971334
0.543539 -0.200372 0.785931
0.673658 -0.147061 0.605961
0.32103 -0.133125 0.959921
0.41631 -0.249617 0.911175
0.252317 -0.227073 0.575996
0.32184 -0.267883 0.803447
0.211211 -0.24914 0.765901
0.555716 -0.0913321 0.376369
0.834087 -0.00706484 0.371499
0.0952167 -0.159835 0.247129
0.264046 -0.160602 0.328297
0.590418 0.0984981 -0.067711
0.389935 -0.0135435 0.0940304
0.265871 0.00835045 -0.0704144
0.962877 0.106757 0.200041
1.09075 0.0396579 0.455851
0.765577 0.212473 -0.249628
0.830455 0.183261 -0.0987542
1.11107 0.245859 0.1554
1.00535 0.218526 -0.0111784
0.959436 0.321949 -0.13393
1.22537 0.0579412 0.568868
1.1055 0.379717 0.327104
1.17402 0.195341 0.443337
1.22912 0.18439 0.650283
1.16708 0.417976 0.723518
0.607022 0.442878 1.0543
0.875145 0.600424 0.980778
0.654116 0.718675 1.11238
0.181488 -0.0963256 0.830598
0.217975 -0.00858542 1.00507
0.103779 0.203144 0.962359
0.0468587 -0.0202084 -0.0687664
-0.021519 -0.0688337 0.0470787
-0.0681438 0.0486164 -0.0196926
0.910218 0.417264 -0.248954
0.802594 0.322588 -0.26913
0.78284 0.545608 -0.19983
1.11193 0.657475 0.716882
1.05272 0.611422 0.440132
0.978032 0.878579 0.598258
-0.00732629 0.971223 0.445031
0.0321384 0.949657 0.551346
0.0990422 0.999531 0.467096
-0.0616797 0.848987 0.728224
-0.0318196 0.909255 0.646524
-0.126303 0.88855 0.596978
0.222912 0.946137 0.719786
0.0872594 0.926729 0.686476
0.149736 0.896005 0.81322
-0.0227111 0.626548 1.03798
-0.0726613 0.684246 0.997022
-0.0793982 0.674798 0.891195
0.0271425 0.705917 1.12674
-0.0319358 0.704073 1.07872
0.0173663 0.673448 1.19457
-0.152739 0.790561 0.769328
-0.073801 0.737566 0.914303
-0.0986105 0.805738 0.845998
0.455906 0.858014 1.0855
0.311638 0.820174 1.12124
0.353764 0.795795 1.15855
0.222919 0.853634 0.95316
0.267643 0.837238 1.04999
0.345574 0.901334 0.948061
0.130473 0.717241 1.21267
0.195131 0.757804 1.13534
0.103688 0.74017 1.15351
-0.0117385 0.816847 0.892419
0.0548141 0.768629 1.04104
0.094699 0.835331 0.931779
0.221003 1.03757 0.477431
0.167079 1.04664 0.386515
0.357063 0.979891 0.71925
0.289556 1.01395 0.598086
0.44559 1.13101 0.373938
0.368188 1.07267 0.479437
0.495122 1.11402 0.487671
0.617479 0.909418 1.07503
0.561453 0.924503 1.03165
0.730746 1.02216 0.887588
0.660591 0.963597 0.957616
0.795116 0.995311 0.956299
0.501514 0.934028 0.956183
0.436891 0.951506 0.861833
0.78361 1.15015 0.460257
0.795611 1.12611 0.58083
0.857776 1.11739 0.627419
0.63356 1.13072 0.505856
0.718557 1.13668 0.539843
0.651325 1.16448 0.383449
0.863084 1.06043 0.816003
0.800022 1.10545 0.691305
0.785289 1.06212 0.779393
0.511254 1.02251 0.744638
0.665668 1.04919 0.763544
0.582853 1.07783 0.619359
0.223261 1.09483 0.307476
0.09973 1.04092 0.335583
0.497921 1.16861 0.270481
0.370868 1.13502 0.287154
0.221232 1.1153 0.191178
0.295165 1.12546 0.226706
0.368384 1.15777 0.163042
0.792805 1.16056 0.354418
0.733757 1.19414 0.31577
0.672993 1.24464 0.115663
0.698486 1.23291 0.19842
0.715739 1.21413 0.130925
0.675869 1.21593 0.284799
0.614573 1.20317 0.269265
0.51509 1.03408 0.00225204
0.567931 1.12174 0.0150505
0.622688 1.04088 -0.0200344
0.449698 1.18785 0.0868604
0.513509 1.1682 0.0486218
0.382388 1.11965 0.0838057
0.672034 1.19591 0.0175302
0.613406 1.20027 0.0239154
0.643884 1.25029 0.0409365
0.557783 1.22366 0.182685
0.612029 1.22916 0.108163
0.501221 1.23253 0.125092
0.0131059 1.02429 0.306493
-0.0161272 0.992804 0.369875
0.136767 1.08216 0.172963
0.0748282 1.05182 0.239338
-0.201483 0.94064 0.303034
-0.0796537 0.990533 0.279265
-0.148877 0.952101 0.26216
0.483955 0.892715 -0.0256027
0.408143 0.977487 0.0233008
0.152091 0.853156 0.0771472
0.276257 0.917166 0.0409346
0.242912 0.779333 0.0190008
0.325273 1.03252 0.0660123
0.243724 1.06037 0.11588
-0.211759 0.64822 0.178507
-0.167997 0.689613 0.157824
-0.127209 0.543108 0.117199
-0.192609 0.883405 0.230245
-0.18498 0.802052 0.209381
-0.254664 0.857567 0.260045
0.014137 0.655319 0.071313
-0.0920602 0.733805 0.137702
0.00605949 0.781642 0.114343
0.0786479 1.00985 0.150313
0.0335346 0.906295 0.137287
-0.0712546 0.936497 0.20206
-0.107595 0.951244 0.409022
-0.259619 0.923566 0.329801
-0.203672 0.938748 0.365947
-0.171146 0.912352 0.464391
-0.198731 0.879943 0.527585
-0.198359 0.536809 0.195886
-0.248878 0.683569 0.237861
-0.251717 0.724672 0.360963
-0.272331 0.709013 0.297187
-0.210866 0.615177 0.321767
-0.268868 0.797637 0.276506
-0.306216 0.870787 0.290694
-0.145158 0.682568 0.758416
-0.0916488 0.602175 0.799132
-0.19483 0.815127 0.617864
-0.163244 0.755732 0.690233
-0.170717 0.619974 0.534855
-0.181545 0.701042 0.613375
-0.21275 0.721554 0.481603
-0.267954 0.866923 0.362687
-0.267997 0.803565 0.421236
-0.265599 0.857024 0.480962
0.932665 1.09616 0.729165
0.907908 1.07756 0.618132
0.922499 1.03246 0.91021
0.923181 1.06017 0.831922
0.99457 0.958539 0.796685
0.964647 1.01782 0.826074
1.0176 0.984662 0.891572
0.627422 0.861153 1.11816
0.728537 0.934412 1.09438
0.910669 0.924115 1.03262
0.831655 0.924632 1.05938
0.81654 0.865286 1.06119
0.82533 0.965724 1.01649
0.890684 1.01741 0.982707
1.12008 0.629659 0.861354
1.09576 0.731109 0.934765
1.07667 0.620169 0.909706
1.03225 0.9119 0.923747
1.05976 0.833745 0.924574
1.06039 0.818218 0.865007
0.95727 0.79826 0.995948
1.01706 0.827727 0.966091
0.983568 0.892814 1.01833
0.973143 1.03196 0.994546
0.994872 0.975003 1.03249
1.03153 0.995885 0.974136
0.315372 0.737064 1.19482
0.4603 0.786959 1.14996
0.114561 0.674839 1.24593
0.197773 0.701288 1.23444
0.382323 0.657109 1.16529
0.284101 0.679199 1.2184
0.267836 0.619922 1.20794
-0.00124739 0.52155 1.0309
0.0123215 0.572239 1.12038
0.0812227 0.454273 1.19268
0.0493118 0.518939 1.16771
0.0795825 0.386987 1.12129
0.0228142 0.615828 1.20011
0.0391786 0.645812 1.25175
0.383352 0.201529 1.05618
0.29685 0.240404 1.11039
0.302255 0.108239 1.04765
0.266101 0.507615 1.17244
0.281173 0.383238 1.14316
0.371445 0.459105 1.13456
0.181711 0.226469 1.12184
0.219545 0.304349 1.1355
0.157028 0.375924 1.16175
0.105925 0.615041 1.2302
0.120917 0.507303 1.23551
0.179382 0.563659 1.22745
-0.0843524 0.499212 0.758406
-0.0292488 0.491681 0.888023
-0.165742 0.501805 0.487407
-0.116683 0.508056 0.614283
0.0155843 0.250652 0.773043
-0.0539215 0.37869 0.698434
-0.0164754 0.255885 0.633688
-0.16349 0.360472 0.114965
-0.193443 0.408086 0.176
-0.108458 0.197337 0.187982
-0.149595 0.296143 0.170768
-0.108701 0.15775 0.104525
-0.186373 0.45533 0.253032
-0.176781 0.488687 0.343739
0.115679 -0.126689 0.537778
0.0353942 -0.076309 0.427713
0.0528135 -0.123197 0.368275
0.0133237 0.107732 0.554078
0.0282779 0.00529526 0.489206
0.0660082 0.017005 0.649511
-0.0356878 0.00541761 0.178457
-0.000761399 0.00383065 0.322327
[...]
POINT_DATA 642
SCALARS Normal_Velocity float 1
LOOKUP_TABLE default
0.047965
0.0129178
0.0104187
0.0484489
0.0488126
0.012114
0.00884369
0.0513008
0.0487364
0.0177505
0.0063283
0.0492146
0.0323461
0.0133392
0.0560722
0.0442917
0.053424
0.0119874
0.011205
0.0541596
0.0016144
0.0535117
0.0443954
0.0440883
0.00119473
0.0546588
0.0513323
0.0539302
0.0544477
0.0498114
0.0546318
0.0417428
0.01036
0.0554499
0.0431678
0.00898558
0.0542668
0.0501097
0.0536812
0.00904981
0.00191289
0.0547492
0.0557946
0.0596914
0.0700829
0.0546694
0.0332802
0.0141378
0.0595313
0.0529439
0.0199991
0.0630539
0.0532341
0.0493556
0.073051
0.0442665
0.045653
0.0196347
0.0514572
0.022436
0.0166886
0.0348726
0.0444502
0.0181161
0.0532507
0.0267489
0.0443782
0.0655995
0.06552
0.0107077
0.0511583
0.0595686
0.0181264
0.0184859
0.0347025
0.0608087
0.0475033
0.0233602
0.0475649
0.0181685
0.0227559
0.0181611
0.0224998
0.0483592
0.0371058
0.0421875
0.0512625
0.0157191
0.0554591
0.0489485
0.00405699
0.0680194
0.0673175
0.0156104
0.0466471
0.0605521
0.0701911
0.0499458
0.0703047
0.04956
0.0500512
0.0659696
0.0121526
0.0463649
0.0137891
0.0271915
0.0189016
0.0603855
0.0547897
0.0553399
0.061157
0.0705082
0.0540869
0.0283745
0.00941195
0.0611537
0.0553611
0.0176315
0.0558418
0.0620041
0.072263
0.0663136
0.0507837
0.0480871
0.0160308
0.00444747
0.0388636
0.00123724
0.0673545
0.0677174
0.0076722
0.0443579
0.0612689
0.0727117
0.0484733
0.0696478
0.0519478
0.0021503
0.0546937
0.00350581
0.0394814
0.0485748
0.0168625
0.055812
0.0509387
0.039349
0.0437255
0.066942
0.0715259
0.0448831
0.0538605
0.0408035
0.0685071
0.0232928
0.0220773
0.0242791
0.016225
0.038973
0.0664848
0.044772
0.0660553
0.0736865
0.0610914
0.0624479
0.0578816
0.0591498
0.043155
0.0348545
0.0702168
0.0581253
0.0579521
0.0450307
0.00379223
0.0609184
0.0289781
0.00951276
0.00595886
0.0081907
0.0498669
0.0155699
0.05003
0.0339352
0.0260669
0.0736772
0.0490659
0.0527306
0.0223242
0.064491
0.0337608
0.045784
0.0485234
0.0521075
0.0566408
0.0603157
0.0784114
0.0622194
0.0574973
0.070306
0.0544744
0.0377513
0.0411214
0.0444166
0.0620491
0.04971
0.0592102
0.0671251
0.0392032
0.0472246
0.0274474
0.0581383
0.0447269
0.0594211
0.0504302
0.0444555
0.0593108
0.0610155
0.0609834
0.0684602
0.0446814
0.0567496
0.0588837
0.0498142
0.032098
0.0530808
0.0329508
0.0248496
0.0295988
0.0090346
0.0135638
0.0212734
0.0212275
0.0477947
0.0519131
0.0383776
0.0438298
0.0160708
0.0357829
0.0369919
0.00496387
0.0219913
0.00522573
0.0321892
0.0378563
0.00997401
0.0311118
0.049124
0.0117017
0.0308495
0.0261893
0.0208502
0.0222804
0.0647951
0.0611708
0.0608697
0.0496209
0.0676022
0.048839
0.0466771
0.0222182
0.0354692
0.0568224
0.0283837
0.052363
0.0263177
0.0566928
0.0467461
0.060645
0.031351
0.0485405
0.0379915
0.0459421
0.0135431
0.0259137
0.0461764
0.028454
0.0518456
0.0281523
0.0426466
0.011868
0.0707497
0.0250919
0.0105509
0.0377694
0.0685914
0.00574611
0.051317
0.0691588
0.0412456
0.0519175
0.0281757
0.0289468
0.00095643
0.0024498
0.0367646
0.0401853
0.0151426
0.0504706
0.0351579
0.0231973
0.0249016
0.00300662
0.0400129
0.0157521
0.050093
0.0351393
0.0241283
0.0226913
0.00146884
0.0398006
0.0408037
0.0151897
0.0518672
0.0502368
0.0352101
0.0237672
0.00207842
0.00172018
0.00182808
0.0286392
0.0389303
0.00656429
0.0107974
0.0631568
0.0202804
0.0445858
0.0521366
0.0383104
0.00768332
0.0435062
0.038654
0.0231268
0.00811377
0.0713329
0.047141
0.0746538
0.0619401
0.0506641
0.0631742
0.0450211
0.0467285
0.0411127
0.0404028
0.0111223
0.0334298
0.0543818
0.0641188
0.0505621
0.069668
0.0703737
0.0640332
0.08081
0.0418392
0.00362295
0.0566702
0.0506446
0.0477999
0.0453762
0.060632
0.0594795
0.037516
0.0357199
0.0675315
0.0586608
0.0564368
0.0495032
0.0628601
0.0472414
0.066288
0.063855
0.0596763
0.0386296
0.033777
0.0685826
0.0566854
0.0501496
0.0615052
0.048253
0.0654099
0.0554207
0.0518668
0.0715936
0.0691994
0.066714
0.0719694
0.047419
0.0112255
0.0598938
0.0573175
0.0511237
0.0494464
0.0734741
0.0482846
0.0594863
0.0614439
0.0689145
0.0620546
0.00810696
0.0648372
0.0299935
0.00558498
0.0133422
0.0553527
0.0135939
0.049119
0.0336834
0.0712653
0.0468215
0.0531717
0.0636637
0.0324826
0.0535592
0.0614944
0.0685763
0.0630885
0.042317
0.0380967
0.0730098
0.0532243
0.0619888
0.0481142
0.0512898
0.0489536
0.045907
0.0246902
0.0611269
0.0298306
0.0154738
0.0131738
0.0134448
0.0569087
0.00718722
0.0514727
0.0355505
0.0261234
0.0737251
0.0480821
0.0538194
0.0243835
0.0645895
0.0334093
0.0536164
0.0623484
0.0662162
0.0646463
0.0430143
0.0386639
0.0719717
0.0542178
0.0618169
0.0489732
0.053209
0.0504875
0.0384068
0.0696951
0.029614
0.0606066
0.0700043
0.0412709
0.0545859
0.0564144
0.0474596
0.0112979
0.0294615
0.017574
0.0462978
0.0357884
0.0652467
0.0381535
0.0159518
0.0470615
0.00325597
0.0744516
0.03146
0.0267679
0.0230002
0.0227062
0.0354448
0.0337527
0.0547074
0.0657922
0.0509351
0.0718023
0.0705791
0.0658038
0.0794653
0.0505306
0.0236076
0.0566973
0.0516737
0.0499816
0.0492393
0.0614715
0.0592404
0.0352432
0.0365372
0.0680183
0.0582044
0.057233
0.0502367
0.0626236
0.0475168
0.0689121
0.0633479
0.060654
0.0633859
0.0520647
0.062038
0.0488637
0.0409377
0.0514488
0.0510542
0.0172458
0.0382567
0.0308995
0.0580864
0.0314183
0.048353
0.0663401
0.0748595
0.00594758
0.05693
0.00474007
0.0419922
0.0431795
0.0175671
0.00289814
0.0367684
0.0558799
0.0352402
0.029192
0.0393682
0.00722087
0.0435011
0.0245925
0.0117712
0.0707214
0.0476153
0.0628455
0.0517072
0.0623663
0.0507721
0.0376136
0.0295163
0.0402675
0.00352506
0.00735532
0.0642982
0.0202477
0.0467091
0.00534979
0.0351601
0.04308
0.0596604
0.0787181
0.0637262
0.0708441
0.0551609
0.0386599
0.0442825
0.0634823
0.0604712
0.0664131
0.0478695
0.0577547
0.045366
0.0451805
0.0578687
0.0619134
0.0620818
0.0697613
0.0385724
0.0310592
0.05964
0.0485306
0.0676047
0.0084766
0.00370705
0.0414875
0.0044223
0.0357505
0.0625838
0.0609253
0.0495671
0.0503854
0.0522042
0.0363479
0.0311185
0.0550728
0.00635698
0.0243309
0.04052
0.0131311
0.0431708
0.00559776
0.0258236
0.0405591
0.0130567
0.0441255
0.0062231
0.025029
0.0404787
0.0142807
0.0406984
0.00262877
0.00246204
0.00208587
0.0467074
0.0120556
0.0287895
0.0450119
0.0348867
0.0359628
0.0481688
0.00693726
0.0254524
0.0218134
0.0377698
0.0211196
0.0614295
0.0428988
0.0525681
0.0350425
0.0332519
0.0182792
0.0518527
0.0585038
0.0466144
0.0463695
0.0599776
0.0595642
0.0774028
0.0648325
0.0725914
0.0552059
0.0383407
0.0446321
0.0619518
0.0587378
0.0668521
0.0709915
0.0623588
0.0612355
SCALARS Mean_Curvature float 1
LOOKUP_TABLE default
0.85356
23.2931
19.161
2.70961
2.2413
22.6274
18.9354
1.63405
2.36867
23.0702
15.7951
1.85604
4.79334
15.6974
2.06117
1.93826
0.870832
16.7466
16.0895
2.23169
23.9162
0.883583
1.90522
2.05788
17.8511
0.919905
0.540334
2.70743
1.18638
1.06703
2.65308
0.0816581
16.5727
2.68363
0.399417
23.332
1.28744
1.0054
2.95644
23.6438
17.3081
0.992092
0.0904756
0.647449
0.52585
9.71473
6.43881
13.9437
1.27785
0.317077
10.9861
0.62684
1.20172
0.732586
1.4037
2.72291
3.26722
12.1213
2.08486
8.93736
12.1987
0.377911
2.44752
13.7449
8.73579
7.34909
1.19806
0.485663
2.14999
14.8628
1.28703
0.944042
12.1276
10.061
1.53121
4.92265
2.08918
9.44589
1.43975
12.6566
9.80459
12.5316
10.1339
1.41521
0.791489
3.71884
0.931769
15.2645
1.5339
1.49572
16.4233
0.0957071
0.710544
13.1026
3.64913
1.1904
2.0169
1.06392
1.42783
0.688452
2.00116
0.174748
14.0297
3.93817
11.747
8.71154
12.1681
1.53827
0.993764
0.336029
1.60291
0.567477
10.857
8.40052
15.4848
1.81734
1.10239
11.8415
0.239023
1.91596
0.744764
9.18792
2.1826
5.31918
12.1885
14.4458
3.8335
16.5319
0.0201166
0.832535
15.3302
4.62577
1.27965
2.24949
1.67045
4.57992
1.03909
16.1511
2.98207
16.4223
3.48706
5.1652
14.2912
1.5932
2.51425
1.7346
3.63852
0.469468
1.52259
3.9098
2.65076
2.9006
3.92737
10.5878
11.1954
10.0605
12.2554
3.0135
8.83651
4.00094
0.631743
1.69219
0.220328
0.517219
0.17827
1.91514
3.41614
3.25016
0.592421
1.29264
0.570341
2.79883
21.0194
6.39784
2.78897
24.5897
25.1444
16.836
5.33299
13.5603
2.37324
5.68044
9.48429
1.61814
2.08529
1.65522
7.49669
4.43463
4.52625
1.97037
1.98247
1.47701
1.00065
0.582431
1.13331
0.751664
0.530979
0.885821
1.96447
3.63314
4.42762
3.18946
1.57624
0.443647
0.659741
0.423183
2.36087
0.956383
8.89029
0.637392
2.58797
1.69869
1.59986
1.1982
1.14129
1.29503
0.405664
0.910459
1.43926
1.691
0.825404
0.879987
5.66406
0.563277
5.81616
9.93867
7.50952
17.9037
16.321
8.52254
9.92742
0.477766
1.01638
2.41134
3.10955
13.9618
3.69665
1.07082
25.7238
9.07829
28.4117
3.95352
1.96498
15.0559
5.61094
0.22131
16.0896
1.07334
5.39214
11.5989
9.87955
0.761536
0.338834
0.0661404
2.47596
0.190364
1.9672
2.32158
10.9832
3.51899
1.69276
5.68546
1.85122
3.12565
0.929936
1.56889
0.281054
7.07875
1.18973
4.88574
0.927692
17.9534
5.30708
0.0961555
5.83299
2.13241
6.25225
0.546219
14.565
4.31665
8.18734
29.3417
4.63689
1.79735
17.5787
3.06368
1.40145
2.95585
0.344693
3.51452
6.13539
19.9822
18.6885
3.87189
0.754708
14.0477
0.690483
1.95783
10.2557
9.87694
18.3671
0.898131
13.718
1.21275
1.96424
9.60648
10.6797
18.4213
2.98731
0.551614
13.8837
1.66259
0.588453
1.92438
9.95133
21.495
21.8952
21.6666
8.11427
2.55629
19.0905
17.6019
2.58868
10.5219
1.39745
1.31199
3.23399
16.3066
0.955571
0.369744
8.45531
29.0183
1.51948
2.30777
6.94694
1.29172
0.866226
0.110609
2.11982
0.673755
3.6689
2.78565
14.5537
4.53648
2.15474
0.778542
3.27508
1.26693
0.143366
0.67932
1.49085
1.31142
17.2505
0.483433
3.59078
0.292986
1.7824
0.217661
3.29644
5.5651
5.08915
0.811678
1.10467
1.21366
0.213138
1.72645
3.11475
0.388314
0.0347572
1.86113
5.04648
5.49228
0.787992
1.12949
0.370199
1.54319
2.7748
1.46854
2.16941
3.30853
1.70629
1.45626
0.143538
0.795308
0.181993
18.29
5.10852
0.705139
4.43599
0.96194
5.87095
3.23224
0.644535
1.36948
0.82245
0.303945
22.0102
6.88867
2.91276
22.3067
21.4767
8.78263
13.5206
2.13228
5.76488
1.53278
2.65863
1.38852
4.08123
4.66673
0.820331
1.19682
0.574268
0.720531
4.08025
4.25543
0.829039
2.38162
0.180405
2.47201
1.82601
1.86009
4.54915
23.8681
9.19746
6.2618
23.4738
26.8214
20.0685
12.7402
14.4477
2.4034
5.70957
9.54656
1.8956
2.75019
1.54979
5.61209
4.74974
5.53924
0.913067
1.44417
0.284415
1.09941
4.33624
4.25844
0.764971
2.43424
0.274155
2.98322
1.70054
1.93779
5.3251
2.16191
22.7953
8.4768
1.63418
3.99266
0.402771
2.04616
0.881506
17.942
5.80507
13.0828
1.89053
2.97086
7.79631
2.28946
12.7673
0.129958
16.4855
6.48668
1.4116
8.96975
28.4046
21.111
2.3624
5.82174
2.64629
1.21852
3.79346
1.89449
0.0479238
0.575312
1.58214
1.50358
20.7338
0.360892
5.83534
1.03679
4.12677
0.0855279
3.24456
6.10298
4.69256
0.896388
1.23117
1.10039
0.49139
1.84294
3.22077
0.78533
0.0545696
1.98504
0.623333
1.67704
0.11416
3.40128
0.0426013
2.12288
2.21814
12.4356
3.50001
6.66377
2.59169
1.24606
2.27381
0.906973
7.22946
15.9038
2.29766
17.0057
7.05116
3.26866
13.0774
18.8214
2.58965
0.330902
6.95744
8.4826
3.48476
15.5977
1.86622
8.21097
28.2019
1.45065
2.34144
1.3811
0.78939
0.0552617
0.37606
5.13851
8.01207
2.91136
19.5005
18.2821
3.03771
10.5229
1.1215
15.3978
4.3964
2.90901
1.47888
1.45189
0.938579
1.03056
2.43631
5.25632
3.48525
2.0591
0.58753
0.307978
1.03794
0.944161
2.33849
0.859277
1.06487
1.50808
0.279709
1.1787
3.30397
6.62074
3.13414
2.22582
1.03571
15.1305
17.1982
5.44612
19.7211
2.64458
0.538862
0.262723
3.0179
2.04203
1.38491
6.64669
8.0136
0.419676
17.6899
10.0338
0.699979
14.8319
1.39362
17.4404
9.36089
0.676428
14.8172
1.72977
18.0294
9.66818
0.808846
14.5847
0.590046
20.065
19.9774
19.8442
0.92774
17.6296
6.05354
2.20006
3.27652
3.44148
0.428959
15.5712
9.65717
28.3138
5.01864
21.9748
7.68355
3.62574
0.598541
2.21456
5.51722
20.7044
0.10998
0.898983
2.31924
0.633779
1.23302
1.57067
1.27475
0.767997
1.2764
2.55023
5.05548
3.4029
1.70685
0.822293
0.433932
1.40288
1.4314
0.476661
SCALARS Redistribution_Potential float 1
LOOKUP_TABLE default
-3.31014e-17
-0.753926
-0.858976
-0.877428
-0.851566
-0.770148
-0.853589
-0.739777
-0.852021
-0.845459
-0.742687
-0.744873
-0.617157
-0.746597
-0.693499
-0.771317
-0.675722
-0.707901
-0.60849
-0.726451
-0.559595
-0.695464
-0.799928
-0.801694
-0.808032
-0.802533
-0.825876
-0.849963
-0.830736
-0.827983
-0.820891
-0.808282
-0.855608
-0.875911
-0.868261
-0.847023
-0.878503
-0.852567
-0.902243
-0.835588
-0.870357
-0.861915
-0.489086
-0.63672
-0.522392
-0.74197
-0.713259
-0.691168
-0.745821
-0.728855
-0.753455
-0.662965
-0.549969
-0.772908
-0.749888
-0.72054
-0.741009
-0.766491
-0.638686
-0.462894
-0.721723
-0.695301
-0.679909
-0.688696
-0.713978
-0.49106
-0.465825
-0.734912
-0.628349
-0.627537
-0.607619
-0.725261
-0.548578
-0.705109
-0.604621
-0.625742
-0.718965
-0.782822
-0.784811
-0.788737
-0.783997
-0.824655
-0.794419
-0.822802
-0.76274
-0.78118
-0.778357
-0.760946
-0.836345
-0.795395
-0.831978
-0.80087
-0.802706
-0.800062
-0.790579
-0.857201
-0.846415
-0.847615
-0.806822
-0.803438
-0.799836
-0.813752
-0.844597
-0.842282
-0.842157
-0.754798
-0.778772
-0.777509
-0.753875
-0.83016
-0.81037
-0.849337
-0.859817
-0.867236
-0.873097
-0.857604
-0.86461
-0.856709
-0.861259
-0.87554
-0.872387
-0.865322
-0.889635
-0.847425
-0.852546
-0.865342
-0.853169
-0.852744
-0.913296
-0.901018
-0.858426
-0.883098
-0.873506
-0.890181
-0.856956
-0.884202
-0.871685
-0.843037
-0.861568
-0.863647
-0.859835
-0.840816
-0.858613
-0.867113
-0.863381
-0.855671
-0.854049
-0.857053
-0.843548
-0.811205
-0.850886
-0.842821
-0.827976
-0.834446
-0.83529
-0.824167
-0.828711
-0.8316
-0.815229
-0.843528
-0.863528
-0.818088
-0.338827
-0.461161
-0.310636
-0.621618
-0.561732
-0.561917
-0.63149
-0.584948
-0.661612
-0.740799
-0.723137
-0.716406
-0.73556
-0.730122
-0.744852
-0.660134
-0.701485
-0.673896
-0.759046
-0.75106
-0.761905
-0.713763
-0.736027
-0.726914
-0.74837
-0.742263
-0.739614
-0.684238
-0.721853
-0.698336
-0.481962
-0.381593
-0.672597
-0.59601
-0.632204
-0.601453
-0.666041
-0.773005
-0.762931
-0.763686
-0.763361
-0.772101
-0.748349
-0.726291
-0.737657
-0.747625
-0.761252
-0.709356
-0.730519
-0.701339
-0.768851
-0.755491
-0.759889
-0.721264
-0.748002
-0.714434
-0.490413
-0.297602
-0.653437
-0.598743
-0.548587
-0.570743
-0.623356
-0.737768
-0.719513
-0.701625
-0.70647
-0.712158
-0.70344
-0.687672
-0.707776
-0.701276
-0.72485
-0.663403
-0.68328
-0.649921
-0.708414
-0.699506
-0.699611
-0.676728
-0.690938
-0.670663
-0.376892
-0.311245
-0.530493
-0.45964
-0.528814
-0.466023
-0.519125
-0.738165
-0.698133
-0.673577
-0.685043
-0.730122
-0.655324
-0.607058
-0.68365
-0.672994
-0.732004
-0.571438
-0.61439
-0.584467
-0.723357
-0.66604
-0.665737
-0.555538
-0.60581
-0.547249
-0.449103
-0.552739
-0.521796
-0.52035
-0.563538
-0.722974
-0.662627
-0.642813
-0.647645
-0.693673
-0.608752
-0.57773
-0.69721
-0.732716
-0.616925
-0.658359
-0.705176
-0.673362
-0.652156
-0.57532
-0.60582
-0.581662
-0.774245
-0.773586
-0.777729
-0.775905
-0.793968
-0.783416
-0.789066
-0.782324
-0.780845
-0.789292
-0.786108
-0.793984
-0.779279
-0.779046
-0.836148
-0.822244
-0.836079
-0.796714
-0.808121
-0.812265
-0.809119
-0.80653
-0.795422
-0.783049
-0.787131
-0.787055
-0.766126
-0.775926
-0.753023
-0.757542
-0.788411
-0.770417
-0.77793
-0.764384
-0.755879
-0.780596
-0.767545
-0.792382
-0.751949
-0.750636
-0.846516
-0.832224
-0.840232
-0.796356
-0.815806
-0.820077
-0.821645
-0.816668
-0.800418
-0.759452
-0.775618
-0.774755
-0.766668
-0.771339
-0.752352
-0.758537
-0.830814
-0.804176
-0.834189
-0.778523
-0.763973
-0.814428
-0.793401
-0.814707
-0.752345
-0.747334
-0.857536
-0.856082
-0.856353
-0.852857
-0.855728
-0.856254
-0.83602
-0.846903
-0.835111
-0.796387
-0.825025
-0.836207
-0.775028
-0.781943
-0.77389
-0.772087
-0.818749
-0.803195
-0.822644
-0.772778
-0.775893
-0.828703
-0.807033
-0.819039
-0.778163
-0.77798
-0.850078
-0.846432
-0.846976
-0.835923
-0.842505
-0.836437
-0.836001
-0.843148
-0.839537
-0.816529
-0.836308
-0.832999
-0.743916
-0.75943
-0.724223
-0.731849
-0.793869
-0.765568
-0.785865
-0.763224
-0.748274
-0.787684
-0.765471
-0.797935
-0.733303
-0.72537
-0.841157
-0.838734
-0.852664
-0.807842
-0.823822
-0.820375
-0.838547
-0.831267
-0.816001
-0.751189
-0.784706
-0.783459
-0.866588
-0.866216
-0.872909
-0.859115
-0.862083
-0.85643
-0.871371
-0.869009
-0.871738
-0.850509
-0.858738
-0.855628
-0.871438
-0.864134
-0.867067
-0.855952
-0.858448
-0.858638
-0.858062
-0.867704
-0.862393
-0.87155
-0.870745
-0.8647
-0.877321
-0.87646
-0.878505
-0.866249
-0.874463
-0.87328
-0.879597
-0.885979
-0.865115
-0.871983
-0.88605
-0.877955
-0.870604
-0.848681
-0.852541
-0.848572
-0.849641
-0.847548
-0.855551
-0.859372
-0.862067
-0.858476
-0.858445
-0.862222
-0.858944
-0.869129
-0.848484
-0.852064
-0.847617
-0.856995
-0.85178
-0.858826
-0.899844
-0.889544
-0.899212
-0.902215
-0.906141
-0.911134
-0.914019
-0.860305
-0.865346
-0.869246
-0.867752
-0.855151
-0.874017
-0.885199
-0.861951
-0.869156
-0.858559
-0.901847
-0.884476
-0.88846
-0.853834
-0.870712
-0.871137
-0.90288
-0.891579
-0.912149
-0.885133
-0.87424
-0.894947
-0.89435
-0.870731
-0.880846
-0.87652
-0.850658
-0.857301
-0.845184
-0.849072
-0.837361
-0.868674
-0.882843
-0.857111
-0.85352
-0.846038
-0.869387
-0.861696
-0.868068
-0.837652
-0.849215
-0.845592
-0.878759
-0.86041
-0.873816
-0.864149
-0.864507
-0.863349
-0.85788
-0.855155
-0.861977
-0.865106
-0.862254
-0.865894
-0.865989
-0.866449
-0.866405
-0.856155
-0.850082
-0.855094
-0.855632
-0.856967
-0.856592
-0.857942
-0.860728
-0.858837
-0.856011
-0.858718
-0.872014
-0.868765
-0.84701
-0.831753
-0.843155
-0.819365
-0.830828
-0.853018
-0.864564
-0.787791
-0.809798
-0.797436
-0.797354
-0.805869
-0.857228
-0.829663
-0.835083
-0.856544
-0.848493
-0.850778
-0.855425
-0.853248
-0.843272
-0.830121
-0.837161
-0.845475
-0.847049
-0.789585
-0.840552
-0.818696
-0.804611
-0.817261
-0.847994
-0.838832
-0.847234
-0.848732
-0.840239
-0.844207
-0.839449
-0.83135
-0.852133
-0.831404
-0.840395
-0.84671
-0.841184
-0.800829
-0.824922
-0.81632
-0.814986
-0.823519
-0.832352
-0.828647
-0.82855
-0.836051
-0.832697
-0.833335
-0.828349
-0.821953
-0.842454
-0.8311
-0.83613
-0.835776
-0.832067
-0.787991
-0.810781
-0.799866
-0.80914
-0.822467
-0.829597
-0.826432
-0.82291
-0.842337
-0.857311
-0.849887
-0.832425
-0.822134
-0.8634
-0.84762
-0.859596
-0.867203
-0.866165
-0.783184
-0.809974
-0.797825
-0.80017
-0.822315
-0.856497
-0.847223
-0.835003
SCALARS CoVolArea float 1
LOOKUP_TABLE default
0.0059014
0.00720074
0.00835137
0.0107816
0.0113823
0.00728713
0.0082338
0.0106425
0.0114415
0.00730987
0.0080024
0.0104996
0.00900255
0.00459707
0.0177043
0.00832887
0.0133036
0.0044644
0.00819767
0.0184563
0.00453809
0.0138759
0.00817157
0.00821666
0.00864021
0.0130775
0.00977668
0.0187559
0.0142277
0.00985634
0.0175942
0.00920736
0.00469695
0.0177309
0.00932689
0.00485864
0.014214
0.00971921
0.0187139
0.00482385
0.00866594
0.0132663
0.0111055
0.0147025
0.0165007
0.00618262
0.00908871
0.00772617
0.0123429
0.0123647
0.00681443
0.019831
0.0140316
0.00889404
0.0170384
0.00809005
0.0135932
0.00682406
0.00971135
0.00842121
0.00664666
0.00569604
0.0097309
0.00538807
0.0061538
0.00826868
0.00699748
0.0171966
0.0142043
0.00662907
0.0121321
0.0132772
0.00589439
0.00826747
0.00560941
0.00924009
0.0140269
0.00496005
0.00875449
0.00676755
0.00497843
0.00683253
0.00496979
0.008819
0.00555372
0.00798153
0.00996763
0.00532564
0.0143976
0.00957332
0.0087528
0.0214415
0.0173312
0.00779154
0.0153158
0.0134952
0.0192901
0.0102479
0.0189538
0.010237
0.0143512
0.021619
0.00788953
0.0157027
0.00861331
0.00886244
0.00809933
0.012101
0.0119841
0.0109885
0.0147927
0.017361
0.00640685
0.00923468
0.00837616
0.0122826
0.0122073
0.00687783
0.0110422
0.0149041
0.0173953
0.010118
0.0143689
0.00719041
0.00606867
0.00860677
0.00587481
0.00698602
0.0217201
0.0174459
0.00791535
0.0154811
0.013393
0.0191201
0.0101429
0.0148516
0.00998816
0.00692027
0.0125202
0.0088548
0.00896176
0.00719203
0.00542573
0.0145127
0.00974983
0.00569798
0.0081104
0.0200227
0.016796
0.0131283
0.0126315
0.0090071
0.0147451
0.00585371
0.00587609
0.00586357
0.00606296
0.00590376
0.0100136
0.0133802
0.0200939
0.0166666
0.00941537
0.0137996
0.0116187
0.0119016
0.012685
0.00955086
0.0172792
0.0154338
0.0170175
0.00912441
0.00730063