# vtk DataFile Version 4.2
vtk output
ASCII
DATASET POLYDATA
POINTS 642 float
0.0831605 0.959612 0.387898
0.787072 1.0358 0.504094
0.185843 -0.0855703 0.485647
0.914786 0.0100858 0.591422
0.388251 0.0831718 0.959698
0.504251 0.787095 1.03573
0.485673 0.185954 -0.0855828
0.590955 0.914683 0.0101022
0.959637 0.387912 0.0831506
1.03578 0.504056 0.787042
-0.0855801 0.485735 0.185864
0.0100871 0.591401 0.914798
-0.0684864 0.780015 0.647773
0.13512 0.629341 1.10061
0.3056 0.87525 0.830222
0.834684 0.956119 0.863532
0.572694 1.10118 0.364007
0.629331 1.10057 0.135117
0.346565 1.04227 0.180644
0.145597 0.691893 0.0887564
-0.143105 0.82376 0.332579
-0.147263 0.622362 0.412781
0.863544 0.834599 0.956139
0.956081 0.863612 0.834741
0.180836 0.346404 1.04224
0.363979 0.57266 1.10118
-0.00266988 0.103287 0.134369
0.0889011 0.145276 0.692004
0.622447 0.412992 -0.147267
0.103319 0.134409 -0.00270435
0.875225 0.830236 0.30552
0.779973 0.647756 -0.0685055
1.10055 0.135096 0.629269
0.830142 0.305572 0.875384
0.647778 -0.0684576 0.77992
0.332441 -0.14304 0.823951
0.412788 -0.147265 0.62237
0.134367 -0.00267079 0.103291
0.69201 0.0889124 0.14526
0.824052 0.332535 -0.142919
1.04225 0.180827 0.346411
1.10119 0.363928 0.572641
-0.061351 0.864174 0.515354
0.0571647 0.821478 0.763563
0.186209 0.9264 0.598526
0.0930833 0.628919 1.06158
0.0450575 0.693973 0.947008
-0.0304868 0.708949 0.794981
0.415031 0.823137 0.994087
0.179766 0.740354 1.0269
0.238377 0.681554 1.0991
0.45105 1.00095 0.591809
0.341874 1.04753 0.367099
0.718166 0.883397 0.965594
0.602417 0.938144 0.853409
0.70513 1.08125 0.404378
0.718522 1.03789 0.633657
0.83489 0.997244 0.712105
0.465141 1.09776 0.202234
0.197989 1.00582 0.256674
0.681548 1.09909 0.23836
0.628149 1.11691 0.188845
0.476983 1.04718 0.103678
0.587762 1.10359 0.132679
0.628868 1.06157 0.0930832
0.0408789 0.929037 0.264272
-0.0830172 0.879966 0.335542
0.385337 0.814154 0.0365192
0.221816 0.932392 0.149133
-0.143731 0.750121 0.288136
-0.0621913 0.805467 0.226462
-0.0327036 0.580951 0.143444
-0.14084 0.828843 0.387741
-0.132268 0.589679 0.271176
-0.157352 0.788626 0.339156
-0.128975 0.766767 0.520965
-0.0857069 0.612979 0.655494
0.899466 0.918439 0.874418
0.883472 0.965565 0.718194
0.711871 0.834779 0.9973
0.874453 0.899504 0.918391
0.997232 0.712034 0.834923
0.918426 0.874454 0.899481
0.965547 0.718212 0.883509
0.188881 0.628167 1.11693
0.404446 0.705142 1.08121
0.103474 0.476856 1.04678
0.132711 0.588074 1.10364
0.367016 0.341928 1.04761
0.202462 0.465092 1.09771
0.256753 0.197963 1.00585
-0.0442382 0.389643 0.544786
0.0365357 0.385252 0.813971
-0.0472912 0.268531 0.134236
-0.0891729 0.350016 0.262903
0.143527 -0.0328399 0.580809
0.0217183 0.115956 0.389011
0.0788424 -0.0111462 0.264436
0.116215 0.389207 0.0215137
-0.0111188 0.26443 0.0788476
0.613009 0.655431 -0.0857553
0.38937 0.544942 -0.0441617
0.268616 0.13427 -0.0473172
0.350252 0.263101 -0.0891966
0.589535 0.27109 -0.132148
0.693915 0.9471 0.045095
0.708881 0.795026 -0.0304681
0.823117 0.994128 0.414874
0.740324 1.02691 0.179727
0.864195 0.515346 -0.0613489
0.821478 0.76357 0.0572015
0.9264 0.59851 0.186182
1.06155 0.0930955 0.628907
0.947069 0.0451037 0.69395
0.794991 -0.0304633 0.708938
0.994002 0.414794 0.823145
1.02694 0.179767 0.740225
1.09903 0.238293 0.681471
0.515351 -0.0613686 0.864004
0.763619 0.057251 0.821483
0.59859 0.186152 0.926544
0.520975 -0.128925 0.766736
0.65551 -0.0857074 0.613003
0.335564 -0.0830789 0.880084
0.387666 -0.140836 0.828878
0.271166 -0.132269 0.589635
0.339109 -0.157375 0.788677
0.288137 -0.143789 0.750074
0.544795 -0.0442334 0.389634
0.813972 0.0365374 0.385247
0.134236 -0.0473054 0.268554
0.262881 -0.0891716 0.350006
0.580773 0.143573 -0.0328632
0.38901 0.0217328 0.115933
0.264466 0.0788563 -0.0111514
0.932388 0.149203 0.221741
1.04678 0.103473 0.476856
0.750044 0.288227 -0.143711
0.805357 0.22642 -0.0622427
1.00581 0.256725 0.197961
0.929085 0.264375 0.0407473
0.880091 0.335565 -0.0830293
1.10361 0.132714 0.588042
1.04753 0.367097 0.341868
1.09773 0.202298 0.46516
1.11686 0.188824 0.628076
1.08125 0.404246 0.705059
0.591857 0.450918 1.00097
0.853305 0.602155 0.938241
0.63363 0.718594 1.03789
0.226388 -0.0622678 0.805382
0.264376 0.0407297 0.929106
0.1492 0.221751 0.932396
0.0885056 0.0603445 0.038307
0.0603417 0.0383144 0.0885009
0.0383177 0.088498 0.0603386
0.828936 0.387717 -0.14079
0.78879 0.339 -0.157242
0.766147 0.520815 -0.129204
1.0379 0.63359 0.718469
1.00096 0.59175 0.45097
0.938142 0.853399 0.602329
-0.00688041 0.912147 0.453801
0.0460063 0.898508 0.563557
0.131174 0.948099 0.486834
-0.0214506 0.795585 0.70869
-0.00443153 0.847779 0.636325
-0.0760737 0.821911 0.574131
0.244429 0.900512 0.716411
0.107392 0.87408 0.68479
0.169508 0.847731 0.802832
0.04964 0.621229 0.999987
0.0312957 0.662919 0.94767
-0.0100738 0.666664 0.862668
0.104321 0.651257 1.06241
0.072612 0.6569 1.01799
0.121565 0.626114 1.09331
-0.0492259 0.745087 0.724969
0.00606439 0.701251 0.873908
-0.0141043 0.739001 0.799454
0.463828 0.797999 1.0275
0.329252 0.750825 1.05774
0.360792 0.736468 1.06974
0.240289 0.811422 0.935555
0.288458 0.780099 1.01663
0.362509 0.851499 0.925466
0.160315 0.645803 1.10461
0.211745 0.701016 1.08255
0.145767 0.666029 1.08718
0.0343365 0.75306 0.860673
0.0973261 0.708604 1.00288
0.119237 0.781385 0.909757
0.261767 0.991055 0.478372
0.217346 1.00761 0.375884
0.377817 0.935685 0.711606
0.318337 0.96506 0.594444
0.46741 1.08114 0.36488
0.395714 1.02894 0.474334
0.515849 1.05854 0.476736
0.623607 0.83899 0.999976
0.573139 0.854173 0.984596
0.737781 0.961982 0.860335
0.668421 0.91264 0.927538
0.794575 0.931043 0.913854
0.51247 0.88226 0.929956
0.451194 0.90716 0.846523
0.749728 1.05881 0.452879
0.77401 1.03799 0.570548
0.812111 1.01633 0.621196
0.642624 1.07119 0.494695
0.715635 1.05991 0.526811
0.650799 1.09825 0.372672
0.844115 0.978388 0.790594
0.789877 1.01964 0.672646
0.784086 1.00098 0.758703
0.528605 0.969816 0.729868
0.675119 0.99737 0.745863
0.597122 1.02967 0.609027
0.261738 1.03519 0.290659
0.133922 0.985999 0.302
0.51568 1.11262 0.261947
0.395829 1.07886 0.277616
0.265119 1.02221 0.217389
0.328547 1.05334 0.23092
0.409919 1.07206 0.184136
0.73645 1.06978 0.360749
0.694058 1.09385 0.309518
0.62946 1.10731 0.151345
0.648681 1.11141 0.199698
0.645792 1.10458 0.160307
0.658363 1.10982 0.27018
0.617749 1.12105 0.25656
0.531598 1.00257 0.0570139
0.580967 1.06855 0.0912368
0.621047 1.00005 0.0496404
0.496593 1.08872 0.145329
0.544651 1.09001 0.122664
0.420883 1.0552 0.143791
0.626094 1.09326 0.121549
0.610255 1.09813 0.123572
0.617391 1.10127 0.130902
0.573639 1.12154 0.18281
0.607073 1.10986 0.145549
0.541874 1.108 0.156126
0.047598 0.945265 0.297119
-0.00924793 0.92533 0.350757
0.189195 0.987891 0.222706
0.120014 0.969552 0.257962
-0.127855 0.842652 0.333671
-0.0329493 0.900716 0.300819
-0.0904257 0.862983 0.307759
0.496699 0.868738 0.0144043
0.425719 0.949619 0.0688534
0.177456 0.824627 0.119426
0.301381 0.886892 0.0924027
0.264799 0.754247 0.0645584
0.355121 0.993231 0.122085
0.282005 1.00272 0.173616
-0.120285 0.640039 0.237122
-0.105373 0.670005 0.219689
-0.0728984 0.530584 0.171006
-0.124377 0.824826 0.299696
-0.126098 0.773436 0.268386
-0.146119 0.811381 0.324682
0.0428922 0.634381 0.114376
-0.0568326 0.707961 0.186646
0.0344331 0.755163 0.154494
0.125628 0.944476 0.211534
0.0683668 0.870006 0.185517
-0.0248761 0.878146 0.254389
-0.0877646 0.880979 0.398779
-0.142854 0.826795 0.343306
-0.133654 0.842136 0.359624
-0.118852 0.841671 0.442099
-0.118517 0.815576 0.493465
-0.110863 0.539685 0.227664
-0.143608 0.686615 0.280047
-0.166823 0.727887 0.358179
-0.157777 0.719142 0.316519
-0.147877 0.618892 0.325051
-0.153461 0.784595 0.322312
-0.147662 0.814309 0.334775
-0.0639698 0.680256 0.730223
-0.0414191 0.604072 0.780391
-0.100841 0.777745 0.58136
-0.0810181 0.737601 0.661534
-0.122549 0.617693 0.526282
-0.112093 0.696972 0.596058
-0.151114 0.718561 0.469075
-0.15063 0.814762 0.3577
-0.158749 0.786267 0.40133
-0.143051 0.805073 0.439011
0.85666 0.9846 0.721862
0.838974 1.00003 0.623477
0.881187 0.933666 0.868832
0.874234 0.960239 0.804356
0.931076 0.913828 0.794665
0.897678 0.943201 0.810411
0.916332 0.906764 0.866945
0.621208 0.81215 1.01627
0.721701 0.85665 0.984589
0.868924 0.881189 0.933621
0.804209 0.874225 0.960257
0.790488 0.843971 0.978455
0.810252 0.897678 0.943208
0.866892 0.916338 0.906772
1.01631 0.621137 0.812115
0.984583 0.721829 0.85669
1.00002 0.623497 0.838957
0.933619 0.868911 0.881236
0.960185 0.804436 0.874316
0.978353 0.790683 0.84415
0.913816 0.794609 0.931124
0.943181 0.810355 0.89775
0.906819 0.866877 0.916323
0.894576 0.904144 0.898449
0.89849 0.894554 0.904131
0.904184 0.898417 0.89457
0.309539 0.694046 1.09385
0.453005 0.749762 1.05874
0.151335 0.629476 1.10733
0.199696 0.648673 1.11144
0.372698 0.650702 1.09826
0.270181 0.658234 1.10988
0.256589 0.617629 1.12107
0.0567432 0.532108 1.00226
0.0910387 0.581558 1.06839
0.145536 0.496582 1.08875
0.122543 0.544964 1.08997
0.144129 0.420478 1.05516
0.123608 0.610449 1.09818
0.130903 0.617435 1.1013
0.376052 0.217329 1.00765
0.290719 0.261839 1.03524
0.302104 0.133893 0.986073
0.262012 0.515617 1.11255
0.27767 0.395799 1.07883
0.364749 0.4673 1.08114
0.217524 0.265083 1.02222
0.231135 0.328566 1.05336
0.184301 0.409862 1.07203
0.145524 0.607162 1.10987
0.156189 0.541993 1.108
0.182897 0.573727 1.12154
-0.030584 0.505466 0.739488
0.0143721 0.496753 0.86862
-0.105052 0.5066 0.477005
-0.0719384 0.509943 0.602672
0.0646697 0.264796 0.754571
-0.00403099 0.388146 0.682119
0.0257723 0.266588 0.620385
-0.0668002 0.361017 0.159062
-0.0903195 0.415807 0.202566
-0.0493868 0.217099 0.191318
-0.0711803 0.311205 0.184506
-0.026561 0.182249 0.124274
-0.111542 0.461666 0.259645
-0.121438 0.491834 0.340577
0.171036 -0.0729332 0.530457
0.108738 -0.0269167 0.414763
0.124919 -0.046146 0.359544
0.0546571 0.126008 0.544309
0.0809011 0.0341755 0.479664
0.114454 0.0427163 0.6343
0.027448 0.0454713 0.180435
0.0484237 0.0332496 0.318761
-0.00398501 0.107463 0.244201
[...]
POINT_DATA 642
SCALARS CoVolArea float 1
LOOKUP_TABLE default
0.0101897
0.00320892
0.0042204
0.00906926
0.0101889
0.00320519
0.00420707
0.00907601
0.0101884
0.00320858
0.00422654
0.00906952
0.00442613
0.000740435
0.0164277
0.00547433
0.0116662
0.000740602
0.00372629
0.017222
0.000667256
0.0125933
0.00547489
0.00547166
0.00371886
0.0116619
0.00681081
0.0172342
0.0125556
0.00682562
0.0164222
0.0044363
0.000740504
0.0164075
0.00442631
0.000665523
0.012594
0.00681152
0.0172333
0.000664555
0.00371534
0.0116603
0.0088147
0.0125401
0.0163468
0.00234741
0.00457722
0.00411405
0.00997727
0.0100929
0.00305242
0.0185566
0.0132312
0.00537437
0.0155663
0.00526456
0.0112555
0.00283593
0.00634091
0.00466173
0.00305138
0.00213911
0.00729576
0.0010999
0.00236083
0.00434436
0.00379363
0.0162904
0.0119834
0.00282468
0.00988854
0.0112597
0.001626
0.00535496
0.00185369
0.00572597
0.0126108
0.00112732
0.00538598
0.0028405
0.00113009
0.00283897
0.00112624
0.00539105
0.00213818
0.00527356
0.00735791
0.0011028
0.0132235
0.00633709
0.00466302
0.0198126
0.0162707
0.00340187
0.0131174
0.0112342
0.0174805
0.00634751
0.0174048
0.00638035
0.0126092
0.0198258
0.00340671
0.0131104
0.00538339
0.00457782
0.00413187
0.00997637
0.0100848
0.00881057
0.012543
0.0163465
0.00234631
0.00457815
0.00411045
0.00999391
0.0100746
0.0030467
0.00881485
0.0125486
0.0163346
0.00572212
0.0126107
0.00379418
0.00162894
0.0053561
0.00185654
0.00282209
0.0198159
0.0162712
0.00340382
0.013116
0.011232
0.0174829
0.00634698
0.0119817
0.00735869
0.00282423
0.00990826
0.00465968
0.00434336
0.00378879
0.00110206
0.0132244
0.00633698
0.0021332
0.00526386
0.0185711
0.015556
0.0112494
0.00990786
0.00434433
0.0119827
0.00144334
0.00144302
0.00144292
0.00163075
0.00185905
0.00572146
0.0112691
0.0185549
0.015578
0.0113229
0.0135186
0.0149188
0.00815375
0.0104058
0.00610717
0.0163888
0.0142492
0.0157111
0.00602821
0.0032853
0.00707494
0.00269217
0.00205117
0.000703722
0.00312157
0.00290197
0.00489021
0.0059307
0.00637735
0.00382764
0.014494
0.0101011
0.0129811
0.00149007
0.00546503
0.00403965
0.00959316
0.00822525
0.0139449
0.0160098
0.0130401
0.0190095
0.0173064
0.0127983
0.0157709
0.0156891
0.00422774
0.00833758
0.0110201
0.0100866
0.00577012
0.0125062
0.0171343
0.00378781
0.00462755
0.00311288
0.0126106
0.00743428
0.00762255
0.00388928
0.00562228
0.00910773
0.0203001
0.0162351
0.0180396
0.00900917
0.00826962
0.00978896
0.0101489
0.00351826
0.0060639
0.00391355
0.00382582
0.00305076
0.000603135
0.00151078
0.00148993
0.00347985
0.00660639
0.00978019
0.0046761
0.0060619
0.00273395
0.00292715
0.00488382
0.000705481
0.00121517
0.000313294
0.00474012
0.00132654
0.00284617
0.00439408
0.00791301
0.00426741
0.00323517
0.00121777
0.00266758
0.00273385
0.0142572
0.0128161
0.015902
0.0141575
0.0167211
0.00976682
0.00696655
0.00445485
0.00678471
0.00721895
0.00376001
0.00517819
0.0011594
0.0141515
0.0105805
0.0149686
0.00841259
0.0134029
0.00761874
0.00665036
0.000482281
0.00224365
0.00427142
0.00342181
0.00437272
0.00325073
0.00662454
0.00342806
0.00826866
0.00128956
0.000357702
0.00828709
0.0121108
0.00357383
0.00546167
0.0129839
0.00959814
0.00959921
0.00125748
0.00430622
0.00283868
0.00266892
0.00423925
0.00205887
0.0020859
0.00576938
0.00283943
0.00229036
0.00310658
0.00266304
0.00206633
0.00209626
0.00389455
0.00283681
0.00229395
0.0031089
0.0026678
0.00423878
0.00205669
0.0020895
0.00389569
0.00577016
0.00283867
0.00229253
0.000597869
0.00059731
0.000596262
0.00305774
0.0037866
0.000602167
0.00151354
0.00762577
0.0034862
0.00660009
0.00979798
0.00468287
0.0027409
0.00296562
0.00491533
0.00121261
0.000310628
0.0130378
0.00900267
0.00828655
0.00977414
0.010118
0.0127883
0.00352035
0.00605578
0.00391618
0.00132473
0.00284864
0.00473988
0.0158961
0.0142984
0.0168371
0.0162781
0.016729
0.018075
0.0201803
0.00390357
0.00491378
0.0109691
0.00647829
0.00470282
0.00820085
0.0142708
0.00720224
0.0095344
0.00526262
0.0186023
0.0139735
0.014137
0.00723181
0.0116487
0.013193
0.01981
0.018562
0.0219966
0.00957616
0.00527662
0.0185437
0.0139766
0.00725211
0.0116626
0.0131825
0.012085
0.0159085
0.0168558
0.0163378
0.0129648
0.0180883
0.0201001
0.00389741
0.004926
0.0043573
0.0109944
0.00648888
0.00471107
0.0082751
0.00819762
0.014215
0.0219492
0.0198179
0.0185506
0.00329737
0.00709797
0.0026906
0.00205257
0.00313114
0.00290408
0.00489692
0.00593209
0.00637644
0.0144867
0.0100962
0.0129778
0.00546285
0.00403587
0.01132
0.0135147
0.0149165
0.0081637
0.0104046
0.00610994
0.0163874
0.0142479
0.0157072
0.00821989
0.0139411
0.00959837
0.00602823
0.00328392
0.00707219
0.00269185
0.00204976
0.000702885
0.00311781
0.00289979
0.004895
0.00594015
0.00637733
0.00382898
0.014489
0.0100991
0.0129789
0.00148656
0.00545398
0.00403328
0.0113105
0.0135138
0.0148879
0.00816451
0.0104182
0.00610675
0.0163651
0.0142506
0.0157074
0.00821608
0.0139372
0.00959736
0.00828259
0.0121097
0.00356867
0.00545636
0.0129847
0.0095948
0.00959795
0.00792241
0.00664998
0.000483301
0.00224444
0.0012188
0.00427126
0.00342016
0.00437161
0.00325009
0.00444907
0.00662619
0.0034309
0.00826961
0.00115942
0.00129013
0.000358994
0.00283784
0.00126001
0.00430714
0.0158976
0.0142993
0.0168403
0.0162807
0.0167283
0.0180757
0.0201818
0.00390244
0.0049132
0.0109686
0.00647647
0.00470256
0.00819957
0.0142715
0.0072
0.00953143
0.00526176
0.0186044
0.013973
0.0141372
0.00723258
0.0116485
0.0131944
0.0198123
0.0185633
0.0220002
0.0128405
0.009799
0.0158865
0.0141385
0.0049156
0.00978243
0.00695999
0.00443975
0.00677561
0.00376332
0.00518373
0.00116057
0.0105788
0.0149592
0.00826714
0.00439169
0.00791021
0.00426094
0.00323269
0.00351365
0.00121656
0.00266745
0.00273069
0.0134142
0.00762912
0.00841577
0.00468272
0.00273919
0.00296502
0.00121154
0.000310161
0.0130362
0.00900545
0.00978258
0.010144
0.0127899
0.00605973
0.00390599
0.00305196
0.00378731
0.000601159
0.00151016
0.00762044
0.00347353
0.00659724
0.00284108
0.00473441
0.00132191
0.0160125
0.0189813
0.0173064
0.0157853
0.0156955
0.00836621
0.0110255
0.0101032
0.0125139
0.0170967
0.00462753
0.0126058
0.00743491
0.00561215
0.00910473
0.0202983
0.0162507
0.0180567
0.00677552
0.00376308
0.00518197
0.0105789
0.0149602
0.0043993
0.00426406
0.00323539
0.00267041
0.00273201
0.0128397
0.0158885
0.0141382
0.00978163
0.00696076
0.00763027
0.00841748
0.0134158
0.00331716
0.00299714
0.00360585
0.0026059
0.00255508
0.0033155
0.00299666
0.00360506
0.00260466
0.00255384
0.00331621
0.00299857
0.00360852
0.0026026
0.00255381
0.00077641
0.000776329
0.000776514
0.00664705
0.000482098
0.00224134
0.0042714
0.00343064
0.00324967
0.0066216
0.00345067
0.00128922
0.000356572
0.00829774
0.00360816
0.00548023
0.0095516
0.00952211
0.00126331
0.00429858
0.00286603
0.00462883
0.0126169
0.0074419
0.0056323
0.00911648
0.0160058
0.0190082
0.0173055
0.015764
0.0156842
0.00834543
0.0110243
0.0100933
0.012513
0.0171369
0.0180463
0.0203062
0.0162474
SCALARS SignedDistance float 1
LOOKUP_TABLE default
-0.00457954
-0.0293827
-0.0246031
-0.00718595
-0.00445271
-0.0294037
-0.0241662
-0.00713973
-0.00456238
-0.0293865
-0.0245885
-0.00719003
-0.0269724
-0.0582504
0.00396729
-0.0305367
-0.011734
-0.0582542
-0.031729
-0.00550699
-0.0590239
-0.00970602
-0.0306034
-0.0304928
-0.0317101
-0.011734
-0.0292556
-0.00570953
-0.00969744
-0.02923
0.00395203
-0.0269931
-0.0572968
0.00409698
-0.0270053
-0.0612268
-0.00970507
-0.0292563
-0.00572526
-0.0613451
-0.0317047
-0.0117683
-0.0126623
-0.0133162
0.0142156
-0.0401039
-0.0159712
-0.0164819
-0.00509644
-0.00827789
-0.0239987
0.00551605
0.00325012
-0.0219116
0.0110321
-0.0286674
-0.00750732
-0.0258179
-0.0183983
-0.0202293
-0.0240188
-0.0390739
-0.0184698
-0.0526066
-0.0401068
-0.022129
-0.0323191
0.00799608
0.00231171
-0.0327143
-0.00985646
-0.0107248
-0.0471089
-0.0266581
-0.0448362
-0.0248699
-0.00576019
-0.0497074
-0.0219574
-0.0258484
-0.0494814
-0.0259399
-0.0494165
-0.021801
-0.0390511
-0.0286522
-0.0183172
-0.0526924
0.00328827
-0.0184364
-0.020184
0.00653505
0.00795174
-0.0239334
-0.00736189
-0.0106046
0.00819832
-0.0186197
0.00795352
-0.0186355
-0.00577545
0.00637388
-0.023935
-0.00729799
-0.0267506
-0.0159712
-0.0164561
-0.00509644
-0.00827217
-0.0126487
-0.0133038
0.0142025
-0.0401187
-0.0159693
-0.0164862
-0.00508118
-0.00831604
-0.021244
-0.00646937
-0.0126433
0.0143898
-0.024899
-0.00577545
-0.0322144
-0.0471075
-0.0266562
-0.0449531
-0.0327526
0.0065279
0.00795221
-0.0239303
-0.00736904
-0.0105844
0.00820661
-0.0186226
0.00230026
-0.0183229
-0.0327922
-0.0098238
-0.0202074
-0.0220984
-0.0321965
-0.0526333
0.0032959
-0.0184078
-0.0388622
-0.0287399
0.00553131
0.0108948
-0.00747681
-0.00981188
-0.0220826
0.00230026
-0.0467021
-0.0467051
-0.046706
-0.0470669
-0.045147
-0.0246234
-0.00750732
0.00551605
0.0109253
-0.00235975
-0.0100355
0.0202541
-0.00835371
-0.0128163
-0.0186003
0.00431824
-0.000776947
-6.86646e-05
-0.0131721
-0.0229319
-0.025268
-0.0414214
-0.0282065
-0.0551758
-0.0419842
-0.0277722
-0.0330418
-0.0154572
-0.0311852
-0.040554
0.0119934
-0.0113983
-0.00686646
-0.049408
-0.0149899
-0.0412583
-0.0148225
-0.0124583
-0.00874412
-0.0093441
0.00554848
0.0224113
0.000900269
0.00164795
0.00632477
-0.00245667
-0.0325928
-0.0244637
-0.00805664
-0.0043335
-0.00986481
-0.00240326
-0.00897217
-0.0353956
-0.0380249
-0.0417786
-0.00925446
-0.0182991
-0.0149956
-0.0184021
-0.0181427
-0.00436401
0.00372314
0.00257874
0.00671387
-0.00706828
-0.0173031
-0.0120773
-0.00676727
-0.0375957
-0.0255938
-0.0338116
-0.0404739
-0.025013
-0.0540695
-0.0411034
-0.0494232
-0.0159187
-0.00947571
-0.00994158
-0.0374906
-0.0131264
-0.0348339
-0.0357714
-0.0318117
-0.0551987
-0.0543709
-0.0600643
-0.0266933
-0.0532439
-0.0364389
-0.0167143
-0.0130268
-0.0345562
-0.0289052
-0.0557938
-0.0291635
-0.0405535
-0.0114827
0.0109806
0.00316238
-0.0111808
0.0120921
-0.0131378
-0.0113449
-0.0301383
-0.018441
-0.0106788
-0.0423002
-0.0190458
-0.0521441
0.00077796
-0.0108683
0.0134764
-0.0258222
-0.0148956
-0.0122153
-0.0220709
-0.0599957
-0.0489632
-0.0296764
-0.0356402
-0.0371358
-0.0178379
-0.0142362
-0.0203037
-0.0138405
-0.04704
-0.0571289
-0.0113678
0.00510937
-0.0371246
-0.0295525
0.000946045
-0.00758028
-0.0120773
-0.0522127
-0.029912
-0.033432
-0.0265045
-0.0325012
-0.047143
-0.0253792
-0.00990295
-0.0206184
-0.0432158
-0.0418472
-0.0265503
-0.0468998
-0.0253944
-0.0183258
-0.0205402
-0.0433187
-0.0418091
-0.0264893
-0.0325165
-0.0468378
-0.025322
-0.0185242
-0.00987244
-0.020565
-0.0432873
-0.0573883
-0.0574036
-0.057373
-0.0250397
-0.0354576
-0.054081
-0.0411072
-0.0149765
-0.015255
-0.00891113
-0.0119396
-0.0377886
-0.0347948
-0.0358095
-0.031889
-0.0544415
-0.0600719
0.00637817
-0.0070852
-0.0172241
-0.0078125
-0.00395966
0.00169373
-0.0375485
-0.0221748
-0.0338058
-0.0532564
-0.0364718
-0.0266552
-0.0145334
-0.0116782
-0.0122994
0.00485229
0.012018
0.00283861
0.020473
-0.042648
-0.0245923
-0.000501871
-0.0180975
-0.00901684
-0.00423932
-0.00117302
-0.0106888
-0.0162232
-0.0345424
-0.00549853
0.000536442
0.000785947
-0.00795165
-0.00707139
-0.00217156
-0.00222158
0.00423047
-0.00136256
-0.0161486
-0.0345615
-0.00582397
0.000627637
-0.00794715
-0.00239692
-0.00215917
0.00690508
-0.0144836
-0.0123219
0.00487709
0.0012145
0.00280529
0.0206099
-0.0426733
-0.024626
-0.0367643
-0.000411272
-0.0181484
-0.00900395
-0.0139511
-0.00435781
0.000560999
-0.00114799
-0.00233686
0.00414458
-0.0229539
-0.0252794
-0.0414231
-0.028199
-0.0420283
-0.0277663
-0.033008
-0.0153275
-0.0311012
0.0120544
-0.0113831
-0.00692749
-0.0149784
-0.0412575
-0.00233054
-0.0100088
0.0202675
-0.00835514
-0.0128175
-0.0186048
0.00439453
-0.000790298
-5.34058e-05
-0.0124559
-0.00876999
-0.0147982
-0.013195
-0.0229346
-0.0252709
-0.0398319
-0.0282261
-0.0540886
-0.0420269
-0.0277752
-0.0330189
-0.0153122
-0.0311089
-0.0404739
0.0120239
-0.0114136
-0.0067749
-0.0490761
-0.011183
-0.0372868
-0.00239074
-0.0101166
0.0181694
-0.0083456
-0.0128303
-0.0187306
0.00431061
0.00111103
-6.10352e-05
-0.0124831
-0.00878012
-0.0147766
-0.0113745
0.00511497
-0.0371289
-0.0295978
0.000944614
-0.0076046
-0.012084
-0.0129851
-0.0220423
-0.0614575
-0.0492946
-0.056531
-0.0297222
-0.0356722
-0.0371237
-0.0178274
-0.0301507
-0.0142296
-0.0202942
-0.0138354
-0.0542517
-0.0472889
-0.0587969
-0.0334415
-0.0529792
-0.0299144
-0.0145301
-0.0116858
-0.012301
0.00486946
0.0120234
0.00283593
0.0204661
-0.0426423
-0.0245926
-0.00050962
-0.0181029
-0.00901783
-0.00423336
-0.00117397
-0.0106955
-0.0162487
-0.0345742
-0.00546587
0.000524163
0.000784039
-0.00795239
-0.0070941
-0.00217118
-0.00221646
0.00423119
-0.0013566
0.0109081
-0.0119402
0.00316238
-0.0112357
-0.0318928
-0.0132122
-0.0113525
-0.0302529
-0.0185449
-0.0449104
-0.0191235
-0.0542822
-0.0129752
0.0134776
-0.0172818
-0.0166627
-0.0130056
-0.0362623
-0.0288724
-0.0375767
-0.0565586
-0.029066
-0.0405473
-0.014889
-0.0121553
-0.0258337
-0.0377953
-0.0348005
-0.0358133
-0.0539465
-0.0595121
0.00553513
-0.00705707
-0.0120831
-0.00679398
0.00163269
-0.0256248
-0.033802
-0.0250702
-0.0354652
-0.0539589
-0.0388069
-0.015007
-0.0159645
-0.00949097
-0.0364861
-0.0267239
-0.0533013
-0.00937843
0.0221863
0.00104523
0.00639343
-0.00244141
-0.0244331
-0.00823975
-0.00360107
0.000854492
-0.00927734
-0.0381317
-0.00843716
-0.0150604
-0.0182648
-0.00439453
0.0037384
0.00253296
0.00668335
-0.0184672
-0.0448465
-0.0191028
-0.0129617
0.0134885
-0.0166218
-0.0362568
-0.0288531
-0.0290539
-0.0405338
0.0109062
0.00315857
-0.0112346
-0.0132141
-0.0113602
-0.0121387
-0.0258271
-0.0148854
-0.0222888
-0.0373779
-0.0218406
-0.025892
-0.0442938
-0.0222853
-0.0373786
-0.0218406
-0.0258948
-0.0443022
-0.0223047
-0.0373722
-0.0218498
-0.0258993
-0.0443043
-0.0580797
-0.0580798
-0.0580792
-0.0220242
-0.0614444
-0.0492955
-0.0296307
-0.0356379
-0.0179006
-0.0141831
-0.0202808
-0.0470924
-0.0589476
-0.0113134
-0.0370564
-0.0294957
-0.00640535
-0.0096209
-0.0530288
-0.0298734
-0.0334034
-0.038002
-0.00918484
-0.0183105
-0.0182495
-0.00454712
-0.00932503
0.0224152
0.00087738
0.00629425
-0.00245667
-0.0244484
-0.00823975
-0.00445557
-0.00238037
-0.0088501
0.00671387
0.00364685
0.00265503
