# vtk DataFile Version 4.2
vtk output
ASCII
DATASET POLYDATA
POINTS 642 float
-0.384637 0.195083 6.31029e-09
0.383205 0.195965 -3.19126e-09
-0.383078 -0.19624 1.89286e-08
0.383142 -0.19618 -1.49595e-08
5.37185e-05 -0.142129 0.229179
0.000119049 0.141856 0.229139
5.37541e-05 -0.142129 -0.229179
0.000119025 0.141856 -0.229139
0.518133 -5.50645e-05 -0.0755838
0.518133 -5.50461e-05 0.0755838
-0.51796 -0.000239734 -0.0755541
-0.51796 -0.000239717 0.0755541
-0.508292 0.0805892 0.0493266
-0.36308 0.0734107 0.193135
-0.231909 0.210902 0.130381
0.232073 0.21097 0.130484
-1.38718e-05 0.270009 1.62059e-08
0.232073 0.21097 -0.130484
-0.231909 0.210902 -0.130381
-0.36308 0.0734106 -0.193135
-0.508293 0.0805892 -0.0493266
-0.536517 -0.000255372 1.40888e-08
0.363278 0.0735082 0.193153
0.50851 0.0807496 0.049303
-0.363128 -0.0737656 0.193147
8.70704e-05 -0.000128814 0.270746
-0.508359 -0.0810042 -0.0492896
-0.508359 -0.0810041 0.0492896
8.70805e-05 -0.000128822 -0.270746
-0.363128 -0.0737656 -0.193147
0.50851 0.0807496 -0.049303
0.363278 0.0735082 -0.193153
0.508509 -0.080887 0.049317
0.36325 -0.0736737 0.193175
0.232006 -0.211207 0.130519
-0.23194 -0.211251 0.130511
2.67462e-05 -0.270348 6.31632e-09
-0.23194 -0.211251 -0.130511
0.232006 -0.211207 -0.130519
0.36325 -0.0736737 -0.193176
0.508509 -0.080887 -0.0493169
0.536704 -5.03588e-05 1.40291e-08
-0.471153 0.134863 0.0321595
-0.415993 0.150183 0.0978612
-0.318742 0.213352 0.0669469
-0.469995 0.0324647 0.135265
-0.462942 0.0866446 0.117149
-0.519834 0.039211 0.0614619
-0.12506 0.187577 0.185986
-0.318904 0.145385 0.170246
-0.201598 0.112714 0.227012
-0.116943 0.25511 0.0713497
-0.1999 0.253531 1.20419e-08
0.125279 0.187612 0.186014
6.87645e-05 0.23268 0.137449
0.199944 0.25365 2.58193e-10
0.116949 0.25516 0.0714332
0.31855 0.213517 0.0673953
-0.116943 0.25511 -0.0713497
-0.318742 0.213352 -0.0669469
0.31855 0.213517 -0.0673953
0.116949 0.25516 -0.0714332
-0.12506 0.187577 -0.185986
6.87228e-05 0.23268 -0.137449
0.125279 0.187612 -0.186014
-0.415993 0.150183 -0.0978612
-0.471153 0.134863 -0.0321595
-0.201598 0.112714 -0.227012
-0.318904 0.145385 -0.170246
-0.519834 0.0392109 -0.0614618
-0.462942 0.0866446 -0.11715
-0.469995 0.0324647 -0.135265
-0.518573 0.0758245 5.48063e-09
-0.533681 -0.000252266 -0.0303287
-0.532269 0.0326797 -0.0177625
-0.532269 0.0326797 0.0177625
-0.533681 -0.000252268 0.0303287
0.416292 0.150175 0.0979486
0.471604 0.13484 0.0321514
0.201818 0.112769 0.227031
0.319134 0.145442 0.170292
0.520016 0.0394101 0.0614691
0.463164 0.0867631 0.117147
0.470171 0.0326188 0.135283
-0.202925 0.039412 0.250209
0.000103034 0.07068 0.260982
-0.470019 -0.0328866 0.135255
-0.374716 -0.000185758 0.201701
7.12635e-05 -0.0709408 0.261002
-0.202946 -0.0397257 0.25022
-0.201656 -0.113029 0.227047
-0.532275 -0.0331712 0.0177576
-0.51985 -0.0396816 0.061445
-0.51985 -0.0396817 -0.0614451
-0.532275 -0.0331713 -0.0177576
-0.471473 -0.135094 0.0321491
-0.518622 -0.0762465 2.21914e-09
-0.471474 -0.135094 -0.0321491
-0.374716 -0.000185766 -0.201701
-0.470019 -0.0328866 -0.135255
0.000103025 0.07068 -0.260982
-0.202926 0.039412 -0.250209
-0.201656 -0.113029 -0.227047
-0.202946 -0.0397257 -0.25022
7.1269e-05 -0.0709408 -0.261002
0.319134 0.145442 -0.170292
0.201818 0.112769 -0.227031
0.471604 0.13484 -0.0321514
0.416292 0.150174 -0.0979486
0.470171 0.0326188 -0.135283
0.463164 0.0867631 -0.117147
0.520016 0.0394101 -0.0614691
0.471581 -0.135014 0.0321625
0.41625 -0.15036 0.0979758
0.31848 -0.213745 0.0674147
0.470165 -0.0327486 0.135295
0.463148 -0.086911 0.117172
0.520019 -0.0395257 0.0614788
0.125214 -0.187863 0.186059
0.319082 -0.145638 0.170325
0.201771 -0.112982 0.227061
0.116907 -0.255445 0.0714632
0.199876 -0.253918 1.42645e-08
-0.125129 -0.187889 0.186054
3.39385e-05 -0.232978 0.137517
-0.199825 -0.253954 6.83192e-09
-0.116851 -0.255467 0.071462
-0.318421 -0.213799 0.0674073
0.116907 -0.255445 -0.0714631
0.31848 -0.213745 -0.0674147
-0.318421 -0.213799 -0.0674072
-0.116851 -0.255467 -0.071462
0.125214 -0.187863 -0.186059
3.39878e-05 -0.232978 -0.137517
-0.125129 -0.187889 -0.186054
0.41625 -0.15036 -0.0979758
0.471581 -0.135014 -0.0321625
0.201771 -0.112982 -0.227061
0.319082 -0.145638 -0.170325
0.520019 -0.0395258 -0.0614788
0.463148 -0.086911 -0.117172
0.470164 -0.0327486 -0.135295
0.518783 -0.0761249 -5.90141e-09
0.533866 -5.12602e-05 -0.0303437
0.532458 -0.0330019 -0.0177688
0.532458 -0.0330019 0.0177689
0.533866 -5.12645e-05 0.0303438
0.203095 -0.0396714 0.250235
0.374875 -7.72808e-05 0.201725
0.203112 0.0394704 0.250224
-0.416163 -0.150435 0.0979516
-0.318994 -0.145704 0.170305
-0.463024 -0.0870188 0.117132
-0.318994 -0.145704 -0.170305
-0.416163 -0.150435 -0.0979515
-0.463025 -0.0870188 -0.117132
0.374875 -7.72654e-05 -0.201726
0.203095 -0.0396714 -0.250235
0.203112 0.0394704 -0.250224
0.532452 0.0328936 0.0177662
0.532452 0.0328935 -0.0177662
0.518778 0.0759923 2.97213e-09
-0.435479 0.165801 0.0183425
-0.408196 0.176503 0.0507563
-0.352519 0.207535 0.0340826
-0.472347 0.115304 0.0740473
-0.448759 0.143458 0.0643493
-0.495028 0.104683 0.0420779
-0.278574 0.214053 0.10004
-0.37515 0.182069 0.0851355
-0.335499 0.183436 0.11737
-0.498251 0.0153132 0.106593
-0.50195 0.0376615 0.0957614
-0.520349 0.0210494 0.0682211
-0.421796 0.0837745 0.154748
-0.469969 0.06002 0.125683
-0.424344 0.052992 0.166087
-0.516166 0.0588955 0.054939
-0.499266 0.0611419 0.0876451
-0.490533 0.0847644 0.0821212
-0.0670038 0.168671 0.208666
-0.165279 0.15179 0.210192
-0.107716 0.128976 0.232258
-0.280348 0.178946 0.153572
-0.227996 0.169086 0.182039
-0.181872 0.202134 0.158582
-0.291246 0.092972 0.213314
-0.265497 0.131882 0.200235
-0.34502 0.110942 0.18328
-0.442295 0.118833 0.110087
-0.400199 0.118257 0.146853
-0.372039 0.151109 0.135014
-0.263228 0.237587 0.0346652
-0.293876 0.231501 9.44453e-09
-0.17476 0.236987 0.101806
-0.221155 0.239538 0.0705816
-0.098917 0.266415 9.19079e-09
-0.15972 0.25731 0.0367513
-0.0598518 0.266156 0.0379645
0.0672339 0.16869 0.208677
0.00010588 0.193252 0.188675
0.114941 0.227445 0.136191
0.0616332 0.213629 0.163203
0.182077 0.202185 0.158636
-0.0614446 0.213611 0.163183
-0.114803 0.227411 0.136137
0.29079 0.232645 -3.41372e-09
0.262525 0.237948 0.0347595
0.350866 0.208187 0.0355741
0.0598069 0.266192 0.0379875
0.159708 0.257396 0.0368463
0.0988374 0.266481 1.527e-10
0.278664 0.214148 0.100225
0.221042 0.239686 0.0707064
0.17481 0.237062 0.101905
-0.0578289 0.247409 0.105548
0.0578838 0.247427 0.105589
-8.86937e-06 0.2601 0.0734648
-0.263228 0.237587 -0.0346652
-0.352519 0.207535 -0.0340825
-0.0598518 0.266156 -0.0379645
-0.15972 0.25731 -0.0367513
-0.278574 0.214053 -0.10004
-0.221155 0.239538 -0.0705816
-0.17476 0.236987 -0.101806
0.350866 0.208187 -0.0355741
0.262525 0.237948 -0.0347595
0.17481 0.237062 -0.101905
0.221042 0.239686 -0.0707064
0.278664 0.214148 -0.100225
0.159708 0.257396 -0.0368463
0.0598069 0.266192 -0.0379875
-0.0670038 0.168671 -0.208666
0.000105777 0.193252 -0.188675
0.067234 0.168691 -0.208677
-0.114803 0.22741 -0.136138
-0.0614445 0.213611 -0.163183
-0.181872 0.202134 -0.158581
0.182077 0.202185 -0.158636
0.0616334 0.213629 -0.163203
0.114941 0.227445 -0.136191
-8.84194e-06 0.2601 -0.0734648
0.0578839 0.247427 -0.105589
-0.0578288 0.247409 -0.105548
-0.408196 0.176503 -0.0507563
-0.435479 0.165801 -0.0183425
-0.335499 0.183436 -0.11737
-0.37515 0.182069 -0.0851354
-0.495029 0.104683 -0.0420779
-0.448759 0.143458 -0.0643493
-0.472347 0.115304 -0.0740473
-0.107716 0.128976 -0.232258
-0.165279 0.15179 -0.210192
-0.34502 0.110942 -0.18328
-0.265497 0.131882 -0.200235
-0.291246 0.092972 -0.213314
-0.227996 0.169086 -0.182039
-0.280348 0.178946 -0.153571
-0.520349 0.0210494 -0.068221
-0.50195 0.0376615 -0.0957614
-0.498251 0.0153132 -0.106593
-0.490533 0.0847644 -0.0821211
-0.499266 0.0611419 -0.087645
-0.516166 0.0588955 -0.054939
-0.424344 0.052992 -0.166087
-0.469969 0.06002 -0.125683
-0.421796 0.0837745 -0.154748
-0.372039 0.151109 -0.135014
-0.400199 0.118257 -0.146853
-0.442295 0.118833 -0.110087
-0.474877 0.134933 1.70306e-08
-0.516147 0.077408 -0.0225653
-0.502245 0.102299 -0.013674
-0.502245 0.102299 0.013674
-0.516147 0.077408 0.0225653
-0.528871 -0.000247457 -0.0495018
-0.529651 0.0174499 -0.0435878
-0.535502 0.0158836 -0.00843855
-0.533973 0.0161476 -0.0237222
-0.535913 -0.0002549 -0.0139246
-0.528545 0.0351743 -0.0367339
-0.524952 0.053047 -0.0305946
-0.529651 0.0174499 0.0435878
-0.528871 -0.000247456 0.0495018
-0.524952 0.053047 0.0305946
-0.528545 0.0351743 0.0367339
-0.535913 -0.000254915 0.0139246
-0.533973 0.0161476 0.0237221
-0.535502 0.0158836 0.00843856
-0.527842 0.0523043 -0.0096462
-0.533228 0.0327758 7.73702e-09
-0.527842 0.0523042 0.0096462
0.408536 0.176343 0.0512389
0.436345 0.165454 0.0190282
0.335723 0.183455 0.117516
0.37542 0.18202 0.0853828
0.495306 0.104791 0.0420392
0.449134 0.143418 0.0644149
0.472637 0.115369 0.074038
0.107943 0.129007 0.23227
0.165507 0.151833 0.210217
0.34524 0.111019 0.183304
0.265719 0.131946 0.200264
0.291453 0.0930501 0.213334
0.228221 0.16914 0.182082
0.280567 0.178994 0.153651
0.520527 0.0212455 0.0682396
0.502131 0.0378401 0.0957726
0.498422 0.0154866 0.106618
0.49076 0.0848993 0.0821038
0.499463 0.0613112 0.0876402
0.516357 0.0590863 0.054932
0.424531 0.0531189 0.166101
0.470164 0.0601665 0.125689
0.422006 0.0838824 0.15476
0.372288 0.151138 0.135088
0.400438 0.118325 0.146879
0.442563 0.118889 0.110103
-0.104791 0.0939182 0.24877
0.00010938 0.104862 0.248823
-0.28731 0.0571576 0.226751
-0.204724 0.0757852 0.241356
9.50958e-05 0.0346168 0.268358
-0.105916 0.0560505 0.259923
-0.106505 0.0206969 0.265067
-0.498261 -0.0157655 0.106585
-0.473651 -0.000214315 0.135709
-0.372111 -0.0357989 0.199702
-0.42998 -0.0180114 0.169768
-0.424384 -0.0533793 0.166083
-0.429969 0.0176122 0.16977
-0.37209 0.0354321 0.199697
6.35136e-05 -0.105126 0.248854
-0.104836 -0.0942091 0.248798
-0.107776 -0.129272 0.232298
-0.106515 -0.0209849 0.265073
-0.105944 -0.0563397 0.259939
7.93435e-05 -0.0348753 0.268368
[...]
POINT_DATA 642
SCALARS Redistribution_Potential float 1
LOOKUP_TABLE default
-1.53708e-08
0.318578
0.30157
0.345893
27.5598
27.5568
27.5598
27.5568
-33.0627
-33.0627
-33.1017
-33.1017
-28.7268
3.55716
18.5507
18.5624
27.6403
18.5624
18.5507
3.55717
-28.7268
-44.6427
3.56935
-28.7123
3.55123
27.7907
-28.7491
-28.7491
27.7906
3.55121
-28.7123
3.56935
-28.6969
3.57941
18.579
18.5553
27.6438
18.5553
18.579
3.57943
-28.6969
-44.601
-16.9937
-5.12831
9.51346
-16.8726
-15.0141
-33.8668
25.2332
9.4906
20.6949
25.5052
20.7775
25.2345
27.8225
20.7754
25.5085
9.58886
25.5052
9.51345
9.58884
25.5085
25.2332
27.8225
25.2345
-5.12831
-16.9937
20.6949
9.4906
-33.8668
-15.014
-16.8726
-33.3432
-42.2675
-41.2426
-41.2426
-42.2675
-5.13037
-17.0134
20.6983
9.49584
-33.8366
-15.0025
-16.8469
20.597
27.762
-16.8783
1.91003
27.7636
20.5959
20.6921
-41.2505
-33.8759
-33.8759
-41.2505
-17.0424
-33.3659
-17.0425
1.91004
-16.8783
27.7619
20.597
20.6921
20.596
27.7636
9.49584
20.6983
-17.0134
-5.13038
-16.8469
-15.0025
-33.8366
-16.9893
-5.10737
9.61254
-16.841
-14.9873
-33.829
25.244
9.5127
20.7073
25.5179
20.7917
25.2327
27.8257
20.7697
25.5055
9.57715
25.5179
9.61254
9.57714
25.5055
25.244
27.8257
25.2327
-5.10741
-16.9893
20.7073
9.5127
-33.829
-14.9873
-16.841
-33.3122
-42.2262
-41.2028
-41.2028
-42.2262
20.6074
1.93121
20.6042
-5.15223
9.48266
-15.0319
9.48266
-5.15224
-15.0319
1.93121
20.6074
20.6042
-41.2089
-41.2089
-33.3268
-8.84455
-3.70529
4.98045
-17.428
-11.698
-24.0232
14.0696
1.78373
7.41577
-25.2028
-26.4625
-34.1163
-6.16354
-16.8365
-6.70054
-32.1352
-25.5029
-22.5802
27.0593
23.1377
25.8803
13.8683
18.7059
22.1465
12.6605
15.3175
6.12921
-10.3022
-2.24669
2.29456
15.5867
12.4285
22.5901
19.2579
26.1248
23.3726
27.2159
27.0597
27.8029
25.5906
27.2218
22.1505
27.2213
25.5876
12.8198
15.6892
5.28292
27.2195
23.3749
26.1308
14.0975
19.2906
22.6023
27.3067
27.3077
27.8767
15.5867
4.98045
27.2159
23.3726
14.0696
19.2579
22.5901
5.28292
15.6892
22.6023
19.2906
14.0975
23.3749
27.2195
27.0593
27.8029
27.0597
25.5876
27.2212
22.1465
22.1505
27.2218
25.5906
27.8767
27.3077
27.3067
-3.70529
-8.84454
7.41574
1.78373
-24.0232
-11.698
-17.428
25.8803
23.1377
6.12922
15.3175
12.6605
18.7059
13.8683
-34.1163
-26.4625
-25.2028
-22.5802
-25.5029
-32.1352
-6.70054
-16.8365
-6.16352
2.29456
-2.24669
-10.3022
-18.0334
-32.1767
-26.547
-26.547
-32.1767
-38.8749
-39.3989
-43.7551
-42.5138
-44.1283
-38.7112
-36.5748
-39.3989
-38.8749
-36.5747
-38.7111
-44.1283
-42.5138
-43.755
-38.2747
-41.9204
-38.2747
-3.70619
-8.90071
7.42524
1.78924
-24.0207
-11.7117
-17.429
25.8815
23.1395
6.13653
15.3221
12.6679
18.7094
13.8748
-34.0816
-26.4347
-25.1704
-22.5687
-25.482
-32.1112
-6.68254
-16.8171
-6.15112
2.29911
-2.24074
-10.3002
25.9465
27.7171
13.1072
20.4723
27.7671
25.8809
25.8582
-25.2062
-17.7985
2.29593
-7.80679
-6.70758
-7.80463
2.29867
27.7194
25.9462
25.8799
25.8582
25.8807
27.7679
12.6559
20.4703
13.1045
12.5695
12.5687
20.5057
-39.4029
-34.1212
-43.7586
-42.5174
-32.1497
-38.7194
-36.5888
-34.1212
-39.4029
-36.5889
-38.7194
-32.1497
-42.5174
-43.7586
-8.92407
-18.0797
-8.92406
-32.1992
-26.5785
-24.0547
-24.0547
-26.5785
-32.1992
-41.9286
-38.2893
-38.2893
-17.7985
-25.2062
2.29866
-7.80464
-6.70758
-7.8068
2.29593
27.7171
25.9465
25.8582
25.8809
27.7671
20.4723
13.1072
25.8799
25.9461
27.7194
13.1045
20.4703
12.6559
27.7679
25.8807
25.8582
12.5694
20.5057
12.5687
23.1395
25.8815
13.8748
18.7094
12.6679
15.3221
6.13653
-8.9007
-3.7062
-17.4291
-11.7117
-24.0207
1.78926
7.42523
-25.1704
-26.4347
-34.0816
-6.15111
-16.8171
-6.68254
-32.1112
-25.482
-22.5687
2.2991
-10.3002
-2.24074
-8.87386
-3.67971
5.30891
-17.4085
-11.6875
-24.001
14.118
1.81391
7.44693
-25.1674
-26.4275
-34.0775
-6.13775
-16.8063
-6.67387
-32.0998
-25.4704
-22.5529
27.0659
23.1495
25.888
13.8925
18.7236
22.1638
12.6783
15.3352
6.15084
-10.2806
-2.2233
2.31926
15.7099
12.8429
22.6156
19.3079
26.1392
23.3878
27.2251
27.0603
27.8064
25.5888
27.2225
22.1461
27.2283
25.6002
12.8103
15.6808
5.2691
27.2187
23.3705
26.1285
14.0881
19.284
22.5974
27.3136
27.3077
27.88
15.7099
5.30891
27.2251
23.3878
14.118
19.3079
22.6156
5.2691
15.6808
22.5974
19.284
14.0881
23.3705
27.2187
27.0659
27.8064
27.0603
25.6002
27.2283
22.1638
22.1461
27.2225
25.5887
27.88
27.3077
27.3136
-3.6797
-8.87387
7.44694
1.8139
-24.001
-11.6875
-17.4085
25.888
23.1495
6.15084
15.3352
12.6783
18.7236
13.8925
-34.0775
-26.4275
-25.1674
-22.5529
-25.4704
-32.0998
-6.67389
-16.8063
-6.13777
2.31927
-2.22329
-10.2806
-18.0258
-32.1459
-26.5237
-26.5237
-32.1458
-38.8343
-39.3586
-43.7139
-42.4728
-44.0867
-38.6718
-36.5384
-39.3586
-38.8343
-36.5384
-38.6718
-44.0867
-42.4728
-43.7139
-38.2385
-41.8808
-38.2385
25.9531
13.1235
20.4838
25.8867
25.8632
-17.7662
2.3157
-7.78039
-7.77741
2.32078
25.9483
25.8622
25.8838
20.4776
13.1171
12.5849
12.5828
20.5151
-3.72611
7.41148
1.77243
-11.7375
-17.459
23.1357
6.12079
15.3126
18.7026
13.8648
-26.4708
-22.6022
-25.5174
-16.8481
-6.17514
2.28153
-2.26168
-10.3259
23.1357
13.8648
18.7026
15.3126
6.12078
-3.72612
-17.459
-11.7375
1.77245
7.41148
-26.4708
-6.17514
-16.8481
-25.5174
-22.6022
2.28153
-10.326
-2.26167
-17.7662
2.32077
-7.7774
-7.78038
2.3157
25.9531
25.8632
25.8867
20.4838
13.1235
25.9483
13.1171
20.4776
25.8838
25.8622
12.5849
20.5151
12.5828
-39.3619
-43.7168
-42.4758
-38.6785
-36.5486
-39.3619
-36.5485
-38.6785
-42.4758
-43.7168
-18.0501
-32.1607
-26.5432
-26.5432
-32.1607
-41.8868
-38.2484
-38.2484
SCALARS CoVolArea float 1
LOOKUP_TABLE default
0.00278924
0.0029851
0.00298584
0.00298671
0.00415812
0.00415792
0.00415812
0.00415792
0.000956521
0.000956521
0.000955883
0.000955883
0.00125361
0.00331074
0.00405563
0.00405353
0.0044767
0.00405353
0.00405563
0.00331073
0.00125361
0.000353525
0.00330969
0.00125133
0.00330976
0.00440315
0.00125077
0.00125077
0.00440315
0.00330976
0.00125133
0.00330969
0.00125227
0.00331038
0.00405439
0.00405413
0.00447602
0.00405412
0.00405439
0.00331038
0.00125227
0.000353952
0.0020597
0.00273333
0.00361723
0.0019618
0.00214849
0.000921923
0.00432422
0.00347934
0.0041512
0.00425672
0.0040965
0.00432358
0.00432653
0.00405592
0.00425615
0.00358836
0.00425672
0.00361723
0.00358836
0.00425615
0.00432422
0.00432653
0.00432358
0.00273333
0.0020597
0.0041512
0.00347935
0.000921923
0.00214849
0.0019618
0.000899701
0.000466943
0.000498306
0.000498306
0.000466942
0.00272818
0.00204334
0.00415033
0.00347681
0.000921726
0.00214612
0.00196168
0.00401487
0.00440364
0.00196116
0.00322096
0.00440375
0.00401476
0.00415071
0.000497601
0.000921012
0.000921012
0.000497601
0.00204337
0.000896774
0.00204337
0.00322096
0.00196117
0.00440364
0.00401487
0.00415072
0.00401476
0.00440376
0.00347681
0.00415033
0.00204334
0.00272819
0.00196168
0.00214613
0.000921727
0.00204497
0.00272967
0.00358973
0.00196206
0.00214718
0.000922128
0.004324
0.00347789
0.00415089
0.00425604
0.0040568
0.00432392
0.00432593
0.00405659
0.00425603
0.00358913
0.00425604
0.00358973
0.00358913
0.00425603
0.004324
0.00432593
0.00432392
0.00272967
0.00204497
0.0041509
0.00347789
0.000922128
0.00214718
0.00196206
0.000898101
0.000467451
0.000498416
0.000498417
0.000467451
0.00401484
0.00322095
0.00401463
0.00272848
0.00347727
0.00214584
0.00347727
0.00272848
0.00214584
0.00322095
0.00401484
0.00401462
0.000498169
0.00049817
0.000897344
0.00260488
0.00293312
0.00345401
0.00197838
0.00235551
0.00152692
0.00370261
0.00314965
0.00354533
0.00146287
0.00139488
0.000959845
0.00279422
0.00196302
0.00258074
0.000993025
0.00141555
0.00169035
0.00456818
0.00426698
0.00450989
0.00380267
0.0040078
0.00405473
0.00365582
0.00385845
0.00336942
0.00252214
0.00302563
0.00329496
0.00396492
0.00382111
0.00428111
0.00401621
0.00419366
0.00416114
0.00445428
0.00456776
0.00449034
0.00437161
0.00433696
0.00405307
0.00433758
0.00437314
0.00386538
0.00392776
0.00351688
0.00445659
0.00415744
0.0042011
0.00369709
0.00401127
0.00427958
0.00454242
0.00454171
0.0045783
0.00396492
0.00345401
0.00445428
0.00416114
0.00370261
0.00401621
0.00428111
0.00351688
0.00392776
0.00427958
0.00401127
0.00369709
0.00415744
0.00445659
0.00456818
0.00449034
0.00456776
0.00437314
0.00433758
0.00405473
0.00405307
0.00433696
0.00437161
0.0045783
0.00454171
0.00454242
0.00293312
0.00260488
0.00354533
0.00314965
0.00152692
0.00235551
0.00197838
0.00450988
0.00426698
0.00336942
0.00385845
0.00365582
0.0040078
0.00380267
0.000959845
0.00139488
0.00146287
0.00169035
0.00141555
0.000993026
0.00258074
0.00196302
0.00279422
0.00329495
0.00302563
0.00252213
0.00192673
0.000984943
0.00137504
0.00137504
0.000984944
0.000683992
0.000611406
0.000389277
0.00044425
0.000364288
0.000630693
0.000769939
0.000611407
0.000683992
0.000769939
0.000630694
0.000364287
0.000444251
0.000389277
0.000673711
0.000484938
0.000673711
0.0029155
0.00268773
0.00354138
0.00313976
0.00152224
0.00234601
0.00197416
0.00450937
0.00426602
0.00336761
0.003857
0.00365484
0.00400619
0.00379983
0.000960146
0.00139463
0.00146328
0.00168776
0.00141442
0.000992003
0.00258
0.00196199
0.00279236
0.00329123
0.00302264
0.00251848
0.00440203
0.00459842
0.00377052
0.00407325
0.00423511
0.00427795
0.00436122
0.00146256
0.00198286
0.00333429
0.0025721
0.00257979
0.00257236
0.00333473
0.0045987
0.00440196
0.00450975
0.00436124
0.00427791
0.00423519
0.00365511
0.00407297
0.00377014
0.00388085
0.00388071
0.00423115
0.000611051
0.000959385
0.000389008
0.000443975
0.000991359
0.000629929
0.000768368
0.000959386
0.000611052
0.000768369
0.00062993
0.000991362
0.000443976
0.000389008
0.0026882
0.00192447
0.0026882
0.000982104
0.00136824
0.00152192
0.00152192
0.00136824
0.000982103
0.000484219
0.000672224
0.000672224
0.00198286
0.00146256
0.00333473
0.00257236
0.00257979
0.0025721
0.00333429
0.00459842
0.00440203
0.00436123
0.00427796
0.00423511
0.00407325
0.00377052
0.00450976
0.00440196
0.0045987
0.00377015
0.00407297
0.00365511
0.00423519
0.00427791
0.00436124
0.00388085
0.00423115
0.00388071
0.00426602
0.00450937
0.00379983
0.00400619
0.00365484
0.003857
0.00336761
0.00268773
0.0029155
0.00197416
0.00234602
0.00152224
0.00313976
0.00354139
0.00146328
0.00139463
0.000960145
0.00279236
0.00196199
0.00258
0.000992002
0.00141442
0.00168776
0.00329123
0.00251848
0.00302264
0.00268957
0.00291724
0.00351852
0.00197554
0.00234763
0.00152349
0.00369821
0.00314131
0.00354273
0.00146344
0.00139508
0.000960351
0.00279332
0.00196272
0.00258058
0.000992626
0.00141515
0.00168884
0.00456801
0.00426663
0.00450987
0.00380095
0.00400704
0.00405375
0.0036555
0.00385782
0.00336857
0.00251985
0.00302386
0.00329259
0.00392888
0.00386677
0.00428004
0.00401215
0.00420096
0.00415792
0.00445595
0.00456794
0.00449031
0.00437185
0.00433706
0.0040536
0.00433709
0.00437193
0.00386625
0.00392852
0.00351772
0.00445598
0.00415783
0.00420095
0.00369782
0.00401193
0.00427994
0.00454146
0.00454145
0.00457831
0.00392888
0.00351852
0.00445595
0.00415792
0.00369821
0.00401214
0.00428005
0.00351771
0.00392852
0.00427994
0.00401193
0.00369782
0.00415783
0.00445598
0.00456801
0.00449031
0.00456794
0.00437192
0.00433709
0.00405375
0.0040536
0.00433706
0.00437186
0.00457831
0.00454145
0.00454146
0.00291724
0.00268957
0.00354273
0.00314131
0.00152349
0.00234763
0.00197553
0.00450987
0.00426663
0.00336857
0.00385782
0.00365549
0.00400703
0.00380095
0.000960352
0.00139509
0.00146344
0.00168884
0.00141515
0.000992625
0.00258058
0.00196271
0.00279332
0.00329259
0.00302386
0.00251985
0.00192613
0.000983501
0.00136983
0.00136984
0.000983501
0.000684616
0.000611852
0.000389612
0.000444626
0.000364722
0.000630867
0.000769539
0.000611852
0.000684615
0.000769539
0.000630866
0.000364722
0.000444626
0.000389612
0.000673325
0.000485033
0.000673325
0.00440206
0.00377043
0.00407315
0.00427798
0.00436125
0.00198336
0.0033343
0.00257235
0.00257255
0.00333465
0.00440175
0.00436117
0.00427774
0.00407272
0.00377002
0.00388077
0.00388064
0.0042311
0.00291607
0.00354204
0.00314039
0.0023462
0.00197395
0.00426648
0.00336784
0.00385747
0.00400677
0.00380046
0.00139392
0.0016873
0.00141379
0.00196151
0.00279228
0.00329163
0.00302277
0.00251844
0.00426648
0.00380046
0.00400677
0.00385746
0.00336784
0.00291607
0.00197395
0.0023462
0.0031404
0.00354204
0.00139392
0.00279228
0.00196151
0.00141379
0.0016873
0.00329163
0.00251844
0.00302278
0.00198336
0.00333466
0.00257255
0.00257235
0.0033343
0.00440206
0.00436125
0.00427798
0.00407315
0.00377042
0.00440175
0.00377002
0.00407272
0.00427774
0.00436117
0.00388078
0.00423109
0.00388064
0.000611696
0.000389509
0.000444513
0.000630564
0.000769013
0.000611697
0.000769013
0.000630565
0.000444513
0.000389509
0.00192451
0.000982694
0.00136862
0.00136862
0.000982694
0.000484793
0.000672856
0.000672856
