# vtk DataFile Version 4.2
vtk output
ASCII
DATASET POLYDATA
POINTS 642 float
-0.773513 0.850398 -0.0180449
0.700279 0.845806 -0.0212151
-0.803355 -0.987802 -0.0206062
0.713923 -0.922485 -0.0198924
-0.0251143 -0.567624 0.847877
-0.0227429 0.506258 0.831135
-0.0293859 -0.585336 -0.92691
-0.0342091 0.522238 -0.906449
1.19301 -0.0211731 -0.613824
1.16823 -0.0202725 0.539255
-1.31984 -0.0161082 -0.64929
-1.30213 -0.0211536 0.586406
-1.20208 0.524553 0.326706
-0.735295 0.316209 0.83065
-0.466049 0.782673 0.474381
0.405442 0.783785 0.470593
-0.0218924 0.927788 -0.0183676
0.410518 0.802979 -0.535287
-0.472772 0.840796 -0.559814
-0.746937 0.307566 -0.857075
-1.22394 0.543117 -0.373311
-1.62119 -0.0130264 -0.012867
0.650805 0.297683 0.795667
1.10945 0.51873 0.320496
-0.750547 -0.361693 0.847444
-0.0223065 -0.0157268 0.9269
-1.24848 -0.610333 -0.38181
-1.23972 -0.604733 0.342172
-0.0233491 -0.0139112 -1.07405
-0.753398 -0.349809 -0.87077
1.11345 0.519703 -0.362025
0.67933 0.305055 -0.84816
1.13421 -0.583199 0.332206
0.675231 -0.349699 0.842875
0.411072 -0.847342 0.503434
-0.470746 -0.852113 0.503124
-0.0263429 -1.07827 -0.0130041
-0.465436 -0.858668 -0.555963
0.413566 -0.849586 -0.555549
0.68119 -0.343682 -0.852268
1.13835 -0.588698 -0.365215
1.44981 -0.0157612 -0.0140722
-1.00963 0.707196 0.148249
-0.872718 0.744792 0.441053
-0.64555 0.846321 0.26151
-1.01835 0.145672 0.700289
-1.02972 0.441654 0.628173
-1.32032 0.293005 0.482511
-0.25229 0.670779 0.673954
-0.615881 0.576834 0.687299
-0.399476 0.42394 0.845129
-0.256392 0.930514 0.251068
-0.418335 0.926098 -0.0189501
0.20465 0.664964 0.672081
-0.0264618 0.824855 0.512068
0.351111 0.926155 -0.0225497
0.203038 0.86606 0.235981
0.569186 0.842261 0.26091
-0.255531 0.930612 -0.292343
-0.650798 0.846365 -0.300432
0.579051 0.846035 -0.298788
0.206884 0.906375 -0.281879
-0.243517 0.684937 -0.738532
-0.0244318 0.847214 -0.578734
0.200583 0.689335 -0.732476
-0.864808 0.718515 -0.462939
-1.01072 0.709179 -0.184893
-0.390008 0.429629 -0.914502
-0.637866 0.619955 -0.770378
-1.32056 0.289523 -0.531347
-1.05867 0.455349 -0.697184
-1.06247 0.14961 -0.773927
-1.29549 0.592827 -0.0212533
-1.54258 -0.0192629 -0.351734
-1.46451 0.2793 -0.19977
-1.45442 0.278411 0.164597
-1.49547 -0.0201539 0.296661
0.775841 0.685969 0.407324
0.924245 0.683911 0.147247
0.350063 0.418505 0.836779
0.546625 0.571598 0.683127
1.17831 0.269204 0.449006
0.935948 0.42079 0.602967
0.930622 0.152909 0.683285
-0.3938 0.149794 0.923075
-0.0259128 0.259816 0.92483
-1.01346 -0.187017 0.706338
-0.783988 -0.0225878 0.852894
-0.0266617 -0.305086 0.927796
-0.397974 -0.189566 0.930123
-0.40132 -0.476144 0.845267
-1.48204 -0.32486 0.170602
-1.32121 -0.326114 0.482877
-1.34052 -0.325614 -0.538777
-1.50473 -0.327513 -0.208915
-1.05505 -0.774332 0.149788
-1.31691 -0.660651 -0.0163404
-1.06629 -0.802246 -0.18723
-0.808709 -0.018054 -0.979655
-1.07281 -0.186082 -0.795957
-0.0290366 0.276961 -1.01041
-0.399619 0.156412 -1.01129
-0.391184 -0.481214 -0.933106
-0.406021 -0.195357 -1.00976
-0.0254341 -0.320868 -1.01527
0.570321 0.612656 -0.757398
0.343059 0.43508 -0.915256
0.920816 0.687224 -0.1828
0.776935 0.689113 -0.450197
0.966526 0.143537 -0.760712
0.959825 0.432034 -0.664289
1.18861 0.276263 -0.502969
0.95873 -0.764755 0.142461
0.809879 -0.767524 0.428118
0.581998 -0.89471 0.243344
0.931591 -0.184555 0.685491
0.936381 -0.454742 0.585759
1.18165 -0.304204 0.448167
0.194345 -0.721508 0.686687
0.552561 -0.632005 0.688765
0.343467 -0.473684 0.844266
0.2033 -1.01084 0.252438
0.374606 -1.00891 -0.0216751
-0.243687 -0.731499 0.690831
-0.032224 -0.900561 0.529696
-0.424804 -1.01451 -0.0189072
-0.253393 -1.01106 0.261076
-0.648023 -0.929147 0.256922
0.208982 -1.01353 -0.293729
0.586177 -0.917895 -0.28243
-0.648465 -0.934193 -0.284499
-0.260064 -1.01193 -0.303709
0.198505 -0.753433 -0.758552
-0.0327568 -0.921868 -0.591126
-0.246491 -0.77295 -0.775705
0.819586 -0.769936 -0.483742
0.966701 -0.768691 -0.180682
0.337625 -0.473155 -0.906772
0.584746 -0.665869 -0.767928
1.21527 -0.309188 -0.513992
0.9708 -0.490766 -0.677979
0.978071 -0.183064 -0.767574
1.18269 -0.61869 -0.0228219
1.39112 -0.0235107 -0.327804
1.35846 -0.306288 -0.198254
1.31465 -0.290019 0.14524
1.35711 -0.0203429 0.278029
0.337718 -0.185186 0.919061
0.709231 -0.0165756 0.84593
0.330796 0.144914 0.871074
-0.892569 -0.784123 0.449734
-0.633126 -0.636306 0.702558
-1.02598 -0.480767 0.6184
-0.649861 -0.671691 -0.769319
-0.906744 -0.800604 -0.508862
-1.06643 -0.516369 -0.710518
0.721987 -0.0225077 -0.915973
0.351077 -0.186164 -1.01188
0.340354 0.141249 -0.982745
1.30629 0.253921 0.146949
1.31075 0.255256 -0.179427
1.16043 0.548091 -0.021089
-0.909417 0.816888 0.071066
-0.848749 0.848753 0.220064
-0.712079 0.850527 0.127474
-1.06715 0.667457 0.398178
-0.942165 0.717899 0.303917
-1.14498 0.666867 0.254682
-0.566664 0.841621 0.384583
-0.754862 0.798878 0.348219
-0.671647 0.78562 0.464696
-1.1889 0.0678051 0.684187
-1.18716 0.218755 0.612178
-1.30489 0.126362 0.523428
-0.894476 0.383719 0.753668
-1.03628 0.313593 0.683343
-0.879153 0.236253 0.776333
-1.29137 0.426864 0.416737
-1.16975 0.368572 0.543097
-1.14768 0.502434 0.490981
-0.137863 0.591787 0.76166
-0.322716 0.530503 0.747461
-0.209885 0.468032 0.84487
-0.543404 0.688083 0.58426
-0.447745 0.631497 0.683199
-0.356435 0.717515 0.563543
-0.577336 0.377022 0.841559
-0.521382 0.497518 0.770638
-0.684876 0.459295 0.788803
-0.95397 0.584148 0.521745
-0.822245 0.51573 0.667329
-0.745911 0.663657 0.566492
-0.538594 0.908758 0.112535
-0.599424 0.930652 -0.0182869
-0.367291 0.848889 0.369533
-0.45109 0.849861 0.248736
-0.223306 0.932663 -0.0165787
-0.335657 0.927747 0.116032
-0.145304 0.92828 0.122621
0.0923545 0.593396 0.762454
-0.0236405 0.671967 0.68185
0.199727 0.833892 0.516576
0.0899369 0.740027 0.571932
0.303938 0.707977 0.557517
-0.139801 0.762246 0.590568
-0.24402 0.830662 0.514895
0.524012 0.860561 -0.0219032
0.464368 0.851954 0.111665
0.639658 0.84473 0.120871
0.0924949 0.927439 0.114929
0.280049 0.913647 0.108344
0.172729 0.930308 -0.0219071
0.497363 0.843239 0.382451
0.394855 0.848076 0.260024
0.321507 0.846178 0.372549
-0.141221 0.865909 0.381341
0.0890474 0.85043 0.379895
-0.0286377 0.925577 0.25167
-0.542075 0.931274 -0.150588
-0.713616 0.852207 -0.161038
-0.144423 0.928588 -0.159234
-0.338351 0.928004 -0.151917
-0.567312 0.842902 -0.433984
-0.451389 0.855507 -0.285232
-0.366604 0.851728 -0.42251
0.643306 0.844231 -0.160923
0.466607 0.861515 -0.150307
0.318538 0.847262 -0.419825
0.394676 0.851491 -0.292903
0.504502 0.845228 -0.427459
0.281838 0.929435 -0.149735
0.0980266 0.926425 -0.154885
-0.136703 0.63385 -0.845995
-0.0278853 0.718183 -0.771311
0.0772935 0.61545 -0.812051
-0.245756 0.848616 -0.576446
-0.135325 0.772217 -0.657768
-0.359966 0.743939 -0.62717
0.307265 0.729021 -0.619366
0.0872573 0.772038 -0.653369
0.200204 0.847128 -0.574069
-0.0257853 0.927529 -0.29337
0.0904118 0.851573 -0.42903
-0.1418 0.893518 -0.439065
-0.853456 0.846865 -0.256471
-0.920743 0.837222 -0.108572
-0.672569 0.785691 -0.507727
-0.77692 0.850915 -0.404961
-1.14706 0.660849 -0.28788
-0.964594 0.751948 -0.34848
-1.07289 0.664778 -0.437557
-0.204979 0.490322 -0.936653
-0.322027 0.581454 -0.85019
-0.706523 0.489268 -0.851929
-0.526855 0.523714 -0.828393
-0.577716 0.384767 -0.916535
-0.455443 0.669944 -0.764195
-0.546361 0.698523 -0.6424
-1.32424 0.129861 -0.588358
-1.21039 0.222651 -0.679907
-1.2168 0.0726718 -0.756976
-1.15943 0.503968 -0.543402
-1.19238 0.376191 -0.612834
-1.30371 0.434358 -0.469077
-0.924968 0.2435 -0.848949
-1.08148 0.326903 -0.76796
-0.924966 0.392737 -0.802976
-0.754758 0.66595 -0.626808
-0.847298 0.539556 -0.733558
-0.974947 0.59887 -0.58971
-1.04947 0.761123 -0.0188244
-1.28454 0.589634 -0.190908
-1.18861 0.681752 -0.104566
-1.18544 0.684102 0.068249
-1.25072 0.559874 0.147032
-1.45954 -0.0164288 -0.517017
-1.41562 0.117477 -0.436055
-1.55647 0.124429 -0.107064
-1.50918 0.123516 -0.27017
-1.5578 -0.0178976 -0.165481
-1.40269 0.291044 -0.372181
-1.37105 0.43321 -0.302376
-1.39996 0.118504 0.387119
-1.42214 -0.0206237 0.45311
-1.36711 0.429785 0.269991
-1.39212 0.293806 0.331988
-1.55308 -0.0159233 0.12469
-1.48296 0.115517 0.222195
-1.55383 0.119408 0.0714084
-1.40854 0.451931 -0.107855
-1.50293 0.290671 -0.0187319
-1.39662 0.44305 0.0695404
0.748234 0.779473 0.20111
0.808004 0.762336 0.0611983
0.590435 0.757707 0.447522
0.667136 0.767644 0.337151
1.02654 0.613939 0.236177
0.858795 0.686931 0.290022
0.960381 0.618915 0.36993
0.1658 0.471776 0.849013
0.272775 0.523157 0.739211
0.602954 0.437194 0.756298
0.457508 0.494709 0.773326
0.510153 0.373908 0.842993
0.389736 0.628647 0.683561
0.475769 0.683298 0.581977
1.18496 0.121233 0.499138
1.06818 0.207735 0.578301
1.07168 0.0681922 0.640656
1.03295 0.467821 0.457839
1.05639 0.348698 0.518945
1.16001 0.402561 0.390572
0.802131 0.230247 0.759887
0.958481 0.306252 0.679615
0.796364 0.350055 0.691455
0.6636 0.629318 0.54321
0.741756 0.497066 0.642361
0.854475 0.541824 0.490653
-0.20099 0.337439 0.858701
-0.0250748 0.380532 0.866933
-0.571109 0.235203 0.850761
-0.398234 0.284529 0.851171
-0.024236 0.129468 0.929374
-0.205154 0.2067 0.928251
-0.21024 0.074788 0.928664
-1.18905 -0.105466 0.681823
-1.06011 -0.0213214 0.750855
-0.779553 -0.188873 0.844642
-0.921473 -0.110027 0.836017
-0.90073 -0.282661 0.815988
-0.912304 0.0622143 0.818958
-0.769697 0.145602 0.845055
-0.0258579 -0.438326 0.897298
-0.205019 -0.388167 0.876935
-0.215851 -0.523744 0.850475
-0.213703 -0.111712 0.931616
-0.210065 -0.247506 0.924653
-0.0239522 -0.166679 0.930544
-0.585879 -0.424695 0.842494
-0.399105 -0.328015 0.856825
-0.575738 -0.271759 0.851252
-0.595549 0.0631568 0.894876
-0.602129 -0.106441 0.921659
-0.405631 -0.0211011 0.926572
-1.41065 -0.153341 0.39415
-1.33144 -0.166293 0.545351
-1.56018 -0.156379 0.0775735
-1.49237 -0.154213 0.228424
-1.30704 -0.484448 0.425686
-1.40081 -0.329125 0.330895
-1.37718 -0.481199 0.272032
-1.3577 -0.166977 -0.609086
-1.44935 -0.158808 -0.448016
[...]
POINT_DATA 642
SCALARS CoVolArea float 1
LOOKUP_TABLE default
0.0224064
0.0199843
0.0226675
0.0206357
0.0220337
0.020846
0.0229372
0.0230085
0.0203346
0.0195248
0.0229426
0.0220155
0.0289039
0.0256125
0.0258657
0.0239329
0.0292517
0.0253658
0.0282139
0.032856
0.0298298
0.0246164
0.0234204
0.0240363
0.0269646
0.0297145
0.0317007
0.0284127
0.0297028
0.0337233
0.0257215
0.0280137
0.0255128
0.0256885
0.028329
0.0311208
0.0293951
0.0325519
0.0309073
0.0304475
0.0278932
0.0205125
0.0288091
0.0292223
0.025183
0.0288488
0.0293537
0.0272093
0.0272144
0.0278148
0.0253122
0.0291954
0.0257518
0.0266049
0.0269307
0.0245711
0.0294098
0.023132
0.0308164
0.0276247
0.0237118
0.0301215
0.0275208
0.0287595
0.0269822
0.0314002
0.0290667
0.0288621
0.028977
0.0282801
0.0297003
0.0285998
0.0279295
0.0284868
0.0318023
0.0315319
0.0252298
0.0260713
0.024534
0.0232042
0.0262148
0.0238009
0.0263281
0.0249509
0.0303428
0.0250055
0.0286503
0.0278715
0.0261323
0.030689
0.0261534
0.0335985
0.0288624
0.0311923
0.0336397
0.0289515
0.0292412
0.0294861
0.0284886
0.0291913
0.0256359
0.0309119
0.0305175
0.0318588
0.0283463
0.0263695
0.028447
0.0249478
0.028134
0.0249808
0.0270975
0.0262793
0.0248502
0.0264097
0.0281909
0.0252254
0.0280467
0.0250303
0.0265074
0.0274736
0.0249133
0.0299769
0.0243455
0.0266689
0.0293543
0.0277309
0.030216
0.030446
0.0316821
0.0287705
0.0310244
0.0321455
0.0266801
0.0293633
0.026731
0.028203
0.0249968
0.030032
0.0272317
0.027205
0.0284449
0.0246769
0.0256953
0.0241525
0.0282272
0.0296038
0.0217612
0.02902
0.0257406
0.0291042
0.0291137
0.0293097
0.0308567
0.0295336
0.0306995
0.0314242
0.0268875
0.0290537
0.0300527
0.0275618
0.0280462
0.0242994
0.026507
0.0270047
0.0261336
0.0301681
0.0275484
0.0281332
0.0227634
0.0238134
0.0264793
0.0272371
0.0289516
0.0273644
0.0278784
0.0269286
0.0260113
0.0246566
0.0259938
0.0293059
0.0259175
0.0267618
0.0248863
0.0275643
0.0258271
0.0253573
0.0229169
0.0240941
0.0262201
0.035737
0.0343612
0.0339972
0.0272645
0.0259604
0.0282671
0.0276779
0.0270315
0.0273551
0.0288166
0.0257766
0.0276543
0.0276671
0.0264322
0.0249442
0.0257857
0.0274009
0.0244476
0.0260924
0.0240709
0.0288614
0.0264383
0.024676
0.0201283
0.0248483
0.0259956
0.0320839
0.032614
0.0322478
0.0280026
0.0267485
0.0299525
0.0279242
0.0255371
0.0297833
0.0308731
0.0234324
0.0256162
0.0284789
0.0263494
0.0223365
0.025545
0.0286968
0.0262475
0.0261268
0.0277
0.0292631
0.0260574
0.0272391
0.0253881
0.0260482
0.0286227
0.0335773
0.0348346
0.0342279
0.0276045
0.0269235
0.029082
0.0260218
0.0281517
0.0278314
0.0310738
0.0267489
0.0291887
0.0308143
0.0282351
0.0291226
0.0280497
0.0298942
0.0282459
0.0282081
0.0261887
0.0303095
0.0263079
0.0266615
0.0289038
0.0272196
0.0301812
0.0352447
0.0343965
0.0367422
0.0277319
0.030033
0.0269254
0.027226
0.0306392
0.0283578
0.0302968
0.0278998
0.0292671
0.0254917
0.0300204
0.0317913
0.0279977
0.0253431
0.0304018
0.0279792
0.0231368
0.0277706
0.027445
0.0336976
0.03328
0.0339264
0.0243758
0.0237992
0.0248268
0.0219076
0.0227577
0.0233991
0.0254981
0.0251512
0.0255745
0.0247754
0.0222369
0.0201851
0.0243442
0.0260245
0.0237217
0.0244667
0.0236166
0.0251824
0.0225553
0.0214388
0.0234405
0.0239006
0.0257429
0.0314766
0.0313329
0.0316191
0.0260226
0.0242895
0.0290496
0.027167
0.0249385
0.0262805
0.0299611
0.027077
0.0275415
0.0285642
0.0256347
0.0254053
0.0260498
0.0280819
0.0254937
0.0270123
0.0259683
0.0304762
0.0270837
0.0264223
0.0252945
0.0285564
0.0308935
0.0334272
0.0339196
0.0335098
0.0276547
0.0268668
0.0295766
0.0278345
0.0266737
0.029837
0.0322291
0.0291088
0.0305782
0.0341048
0.0319044
0.0295543
0.029624
0.0299522
0.0287912
0.0272617
0.0284205
0.0307333
0.0257188
0.0262721
0.0284872
0.0259756
0.0318129
0.0367317
0.036609
0.0366032
0.0273908
0.0264723
0.0323909
0.0282254
0.0300167
0.028474
0.031971
0.0251569
0.0261306
0.0314851
0.0268052
0.0267569
0.0278412
0.032744
0.0277047
0.0280572
0.026127
0.0324851
0.0293685
0.0307525
0.0291493
0.0295877
0.0329022
0.033483
0.0358354
0.0328651
0.0289976
0.0288181
0.0267298
0.0253347
0.0268571
0.0258721
0.0271668
0.0234336
0.0240107
0.0278522
0.024599
0.02426
0.0228583
0.0265074
0.023348
0.0263851
0.0256779
0.0265609
0.0248463
0.0254278
0.0233894
0.023695
0.0266863
0.0325716
0.0339075
0.0317965
0.0249957
0.0272461
0.0260045
0.0260102
0.0242459
0.0239184
0.0266589
0.0250071
0.0269876
0.0237286
0.0255939
0.023903
0.0280769
0.0248858
0.0238094
0.022865
0.0235541
0.0258484
0.0257903
0.0255186
0.0251902
0.0267256
0.0250602
0.025646
0.0231427
0.0237514
0.0275814
0.0328377
0.033706
0.0319025
0.0262055
0.0226473
0.0309736
0.0282095
0.0270173
0.0268797
0.0302313
0.0259775
0.0258324
0.0323158
0.0263941
0.0275861
0.0264406
0.0305105
0.0248809
0.0286039
0.0288862
0.0301547
0.028628
0.0274798
0.0287533
0.0293007
0.0323685
0.0331676
0.0336083
0.0330613
0.0251216
0.0255222
0.0326303
0.0270386
0.0290313
0.0284979
0.033121
0.0275564
0.0275858
0.0330644
0.0299782
0.0310393
0.0294239
0.0327549
0.0272428
0.0257262
0.0265911
0.0319797
0.0266937
0.0262774
0.0273871
0.0260837
0.0313827
0.0363316
0.0340313
0.0347285
0.0285379
0.025005
0.029305
0.0276071
0.0244491
0.0263962
0.0283039
0.0284557
0.0292565
0.0295792
0.0280488
0.0291284
0.0255693
0.0276165
0.0252488
0.0263312
0.0228569
0.0285332
0.026039
0.0263495
0.0269068
0.0263047
0.0290697
0.0320507
0.0324132
0.0330136
0.0227331
0.0275379
0.0221155
0.0224827
0.0278118
0.0242824
0.0258279
0.0247459
0.0246105
0.0215999
0.0273836
0.0299857
0.0242958
0.0223699
0.0292389
0.0266577
0.0193207
0.0239061
0.0244385
0.0316457
0.0309574
0.032463
0.027332
0.0278839
0.0273407
0.0271784
0.0285111
0.0249594
0.0257458
0.0238368
0.0236571
0.0263267
0.0262104
0.0284659
0.0263762
0.0247595
0.0259747
0.0319902
0.0321082
0.0321253
0.0312992
0.0298197
0.0283973
0.0278079
0.0290198
0.0269257
0.0284871
0.0255366
0.027264
0.0293943
0.0296281
0.0301129
0.0278964
0.0277549
0.0290588
0.0341223
0.0353717
0.0355695
0.0301619
0.0300103
0.0279928
0.0303374
0.0325958
0.0323919
0.0315697
0.030204
0.0309415
0.0319235
0.0304413
0.0321393
0.0295196
0.0296204
0.0320353
0.0342478
0.0357026
0.0350759
0.0224928
0.0298723
0.0247096
0.0247391
0.029233
0.0280376
0.0306379
0.0283629
0.0286362
0.0309106
0.0266484
0.0305761
0.0282297
0.0272683
0.0302973
0.0308221
0.0320281
0.0312569
0.0247656
0.0231398
0.0241027
0.0253106
0.0263966
0.0270518
0.0280782
0.0276526
0.0258417
0.0236592
0.024457
0.025818
0.0230329
0.0232007
0.0260635
0.028645
0.0295709
0.0296082
