# vtk DataFile Version 4.2
vtk output
ASCII
DATASET POLYDATA
POINTS 642 float
-0.704328 0.758202 -0.0294927
0.664678 0.749337 -0.0279381
-0.728586 -0.84853 -0.0163657
0.682288 -0.840664 -0.018049
-0.0149802 -0.545013 0.750409
-0.0187777 0.462483 0.730147
-0.016853 -0.540983 -0.84405
-0.0182256 0.479849 -0.83253
1.13523 -0.023277 -0.546771
1.11921 -0.0330581 0.46909
-1.20135 -0.0241947 -0.552794
-1.18224 -0.0313671 0.477945
-1.01166 0.426157 0.252315
-0.599697 0.247583 0.680517
-0.377505 0.652363 0.402704
0.349407 0.652747 0.39227
-0.00547567 0.782042 -0.0268686
0.358516 0.683071 -0.448146
-0.38914 0.689564 -0.463913
-0.609947 0.258143 -0.729866
-1.01468 0.444068 -0.299596
-1.28044 -0.0167589 -0.0093227
0.574879 0.236277 0.670452
0.958989 0.414124 0.255422
-0.614808 -0.297288 0.688049
-0.0127582 -0.0131332 0.788601
-1.03497 -0.50236 -0.312981
-1.03261 -0.483657 0.26518
-0.0158586 -0.0106729 -0.895871
-0.630698 -0.29783 -0.727581
0.960037 0.427792 -0.300228
0.591932 0.244529 -0.715151
0.974532 -0.464328 0.264776
0.591913 -0.283921 0.677733
0.349358 -0.720976 0.415078
-0.379539 -0.724334 0.42954
-0.00562976 -0.880198 -0.00849512
-0.390847 -0.72806 -0.469572
0.362821 -0.727993 -0.460684
0.612769 -0.286067 -0.717488
0.976748 -0.481315 -0.310434
1.20896 -0.0179298 -0.00966204
-0.841188 0.673629 0.0802791
-0.699397 0.612679 0.302269
-0.572074 0.734142 0.173666
-0.940716 0.0880013 0.574848
-0.864983 0.300196 0.496596
-1.14617 0.137772 0.422027
-0.164665 0.542926 0.64164
-0.45863 0.472139 0.595181
-0.271215 0.385745 0.738256
-0.239473 0.743013 0.19197
-0.399198 0.780376 -0.0270583
0.135825 0.543698 0.633593
-0.0105725 0.647165 0.462442
0.381317 0.779417 -0.026489
0.224335 0.74362 0.189205
0.542437 0.730857 0.162303
-0.243326 0.768213 -0.239125
-0.585244 0.757159 -0.227118
0.554842 0.750969 -0.219554
0.227892 0.767457 -0.236489
-0.167419 0.566616 -0.714802
-0.00968347 0.678536 -0.511061
0.138683 0.566221 -0.70202
-0.718746 0.646559 -0.349672
-0.845572 0.688918 -0.134194
-0.266501 0.404638 -0.820106
-0.475183 0.504644 -0.655788
-1.16728 0.139055 -0.492352
-0.890633 0.312921 -0.557528
-0.983504 0.0856592 -0.642738
-1.0197 0.514146 -0.0182427
-1.2652 -0.0171959 -0.409868
-1.20741 0.175004 -0.242194
-1.20482 0.170626 0.209714
-1.25563 -0.019901 0.361871
0.667629 0.5977 0.292163
0.793048 0.658456 0.0763024
0.249696 0.37806 0.731946
0.436767 0.465628 0.582716
1.08774 0.130544 0.414487
0.8354 0.293862 0.486461
0.908213 0.0798546 0.564389
-0.300662 0.169979 0.772195
-0.0147442 0.285598 0.780889
-0.954031 -0.138923 0.577936
-0.678521 -0.0178788 0.698388
-0.0118618 -0.326539 0.785717
-0.304132 -0.202512 0.774312
-0.280857 -0.451855 0.751847
-1.22976 -0.221533 0.219539
-1.16679 -0.186492 0.435613
-1.18093 -0.188306 -0.501351
-1.23071 -0.226073 -0.250037
-0.86537 -0.756329 0.0713771
-1.04541 -0.577528 -0.0193999
-0.873276 -0.769576 -0.125782
-0.710032 -0.0181972 -0.726837
-0.994666 -0.137241 -0.644037
-0.0175162 0.308263 -0.885991
-0.291797 0.182733 -0.850706
-0.27206 -0.456082 -0.828039
-0.293759 -0.209863 -0.85109
-0.0166415 -0.343257 -0.889257
0.45184 0.495337 -0.640682
0.242513 0.39556 -0.814481
0.796399 0.674236 -0.132183
0.680978 0.627732 -0.333214
0.949273 0.0796145 -0.635257
0.856948 0.299403 -0.545413
1.10642 0.129823 -0.485477
0.816869 -0.736197 0.0785668
0.689022 -0.660357 0.304823
0.554912 -0.823894 0.156345
0.923726 -0.134147 0.569249
0.855049 -0.336197 0.504466
1.10943 -0.178932 0.429799
0.138185 -0.623883 0.662473
0.443489 -0.525247 0.6031
0.253547 -0.439439 0.747198
0.232528 -0.843958 0.183365
0.399906 -0.875234 -0.0100457
-0.169758 -0.623788 0.672248
-0.0106885 -0.721372 0.493311
-0.419676 -0.876489 -0.00979601
-0.248728 -0.844745 0.186266
-0.587334 -0.82767 0.163644
0.237958 -0.843603 -0.217691
0.578024 -0.829817 -0.205866
-0.612711 -0.83342 -0.212859
-0.253497 -0.843728 -0.219596
0.141638 -0.632919 -0.72031
-0.00904045 -0.723801 -0.542627
-0.168369 -0.634941 -0.731996
0.715692 -0.686471 -0.352663
0.822356 -0.746491 -0.130945
0.247796 -0.446284 -0.819386
0.461276 -0.546203 -0.655267
1.12266 -0.180741 -0.495038
0.877979 -0.341748 -0.564986
0.960633 -0.131142 -0.637768
0.981093 -0.553559 -0.0179819
1.19545 -0.0175389 -0.399084
1.16876 -0.21404 -0.244341
1.16751 -0.210452 0.214525
1.18636 -0.0209405 0.352401
0.282766 -0.200592 0.771882
0.65252 -0.0181537 0.686144
0.279684 0.165564 0.770035
-0.723911 -0.678775 0.318955
-0.468278 -0.539635 0.621664
-0.888318 -0.348713 0.515858
-0.486853 -0.55189 -0.664401
-0.753411 -0.699239 -0.358857
-0.914983 -0.35978 -0.577714
0.689426 -0.0183269 -0.723017
0.273779 -0.206598 -0.845077
0.270789 0.177352 -0.844029
1.1394 0.156731 0.205497
1.14139 0.160667 -0.237695
0.96627 0.498616 -0.0177473
-0.779236 0.72943 0.0213484
-0.721513 0.723157 0.115824
-0.648814 0.755812 0.0686761
-0.865022 0.529511 0.262156
-0.788557 0.649455 0.186501
-0.924833 0.560556 0.159999
-0.480752 0.697789 0.292321
-0.635028 0.690246 0.238565
-0.540673 0.651417 0.351405
-1.08856 0.0171716 0.530979
-1.07428 0.101223 0.509135
-1.18644 0.0270036 0.461389
-0.734381 0.265257 0.603727
-0.911327 0.18777 0.550689
-0.762269 0.166602 0.635169
-1.08354 0.282023 0.345357
-1.02645 0.227284 0.457236
-0.96428 0.35765 0.375439
-0.0884056 0.50529 0.696625
-0.208728 0.475269 0.701743
-0.142418 0.434058 0.740721
-0.40946 0.576103 0.503345
-0.303016 0.522354 0.621014
-0.26279 0.59378 0.533097
-0.427636 0.325093 0.706882
-0.362033 0.423226 0.683482
-0.527939 0.358777 0.655583
-0.777766 0.458213 0.40345
-0.658686 0.40009 0.550622
-0.585773 0.542937 0.449584
-0.504501 0.767701 0.072189
-0.562561 0.775588 -0.0273189
-0.324082 0.705396 0.304452
-0.417105 0.739708 0.190613
-0.210081 0.781546 -0.0269407
-0.322719 0.770575 0.0766115
-0.130916 0.771367 0.0769656
0.0559436 0.50616 0.692982
-0.0147829 0.542388 0.658282
0.172058 0.649014 0.44157
0.0731442 0.591478 0.566004
0.23597 0.595569 0.520773
-0.0981562 0.59087 0.570696
-0.193439 0.648566 0.447781
0.536802 0.771888 -0.0258258
0.482522 0.765272 0.0698849
0.613784 0.748531 0.0629796
0.119089 0.771371 0.0765368
0.307203 0.770286 0.0753674
0.197367 0.781328 -0.0267605
0.451988 0.696626 0.279537
0.396375 0.739913 0.183866
0.302863 0.705561 0.297782
-0.118084 0.703652 0.330155
0.101336 0.703796 0.327593
-0.00641622 0.74169 0.197829
-0.509262 0.776885 -0.131793
-0.654188 0.764508 -0.126544
-0.131879 0.781281 -0.136012
-0.325561 0.780193 -0.135533
-0.494794 0.729168 -0.336808
-0.425568 0.765398 -0.236346
-0.331746 0.73369 -0.350167
0.619699 0.75749 -0.122067
0.485549 0.774124 -0.128899
0.310939 0.731707 -0.342565
0.404574 0.76239 -0.231352
0.467164 0.72276 -0.321976
0.309414 0.779335 -0.133871
0.119733 0.781079 -0.135402
-0.0787753 0.522849 -0.794693
-0.0151001 0.564276 -0.743193
0.0442446 0.522652 -0.79156
-0.203032 0.683972 -0.500926
-0.100552 0.621351 -0.618066
-0.276343 0.631509 -0.585206
0.249465 0.630619 -0.57244
0.0762432 0.622457 -0.612006
0.181492 0.683265 -0.495739
-0.00649143 0.768729 -0.245293
0.104872 0.728782 -0.371647
-0.120891 0.728814 -0.373321
-0.73062 0.737427 -0.170968
-0.78484 0.733576 -0.0804902
-0.560876 0.685017 -0.405211
-0.65265 0.721352 -0.287577
-0.927354 0.582527 -0.209252
-0.801417 0.674382 -0.236841
-0.879273 0.557074 -0.311056
-0.120707 0.455439 -0.835617
-0.203259 0.499522 -0.785052
-0.539567 0.384512 -0.717637
-0.36746 0.446226 -0.758619
-0.427703 0.340332 -0.790467
-0.316121 0.553898 -0.688151
-0.425514 0.615997 -0.56491
-1.20519 0.0279787 -0.538659
-1.11016 0.09764 -0.577875
-1.13198 0.0123696 -0.597416
-0.978639 0.372494 -0.426204
-1.05086 0.231066 -0.521258
-1.09409 0.288318 -0.400673
-0.813822 0.167794 -0.684411
-0.948667 0.191492 -0.619279
-0.769869 0.275823 -0.656007
-0.608253 0.574561 -0.508751
-0.684962 0.428258 -0.610305
-0.796149 0.48089 -0.45466
-0.84437 0.699962 -0.0305636
-1.01946 0.499207 -0.171957
-0.92976 0.615417 -0.0904629
-0.93 0.605176 0.0417911
-1.01965 0.486576 0.129517
-1.2366 -0.0192328 -0.506693
-1.24272 0.0298494 -0.476808
-1.26924 0.0487316 -0.142304
-1.26311 0.0441598 -0.334152
-1.27753 -0.0169206 -0.228
-1.19434 0.160979 -0.392313
-1.11844 0.31726 -0.291796
-1.23311 0.0189908 0.406881
-1.22949 -0.0251229 0.42477
-1.1146 0.307484 0.248565
-1.18555 0.153392 0.33593
-1.2753 -0.0172566 0.202597
-1.25796 0.0390275 0.295371
-1.26847 0.0474602 0.119882
-1.11821 0.357189 -0.117308
-1.20791 0.186124 -0.0116543
-1.1181 0.353227 0.0875258
0.680343 0.712864 0.105037
0.732566 0.717138 0.0192405
0.511458 0.6455 0.3399
0.600468 0.683011 0.225307
0.875151 0.546267 0.161188
0.748673 0.632758 0.176484
0.827416 0.515573 0.261137
0.109174 0.431307 0.737318
0.181579 0.474365 0.693599
0.503572 0.348526 0.644724
0.341526 0.417254 0.675016
0.4077 0.313823 0.701052
0.27673 0.519117 0.609086
0.383379 0.574482 0.490347
1.12442 0.023719 0.450933
1.02604 0.0922851 0.498708
1.03827 0.0102482 0.521731
0.922127 0.348 0.371145
0.980069 0.220278 0.447703
1.02626 0.270489 0.343007
0.736584 0.15733 0.620984
0.877353 0.179583 0.539035
0.708958 0.254212 0.587679
0.561479 0.533149 0.43816
0.633249 0.386816 0.532562
0.748237 0.443881 0.391268
-0.15078 0.356106 0.767916
-0.0175372 0.390015 0.762385
-0.447986 0.224811 0.725505
-0.292688 0.295208 0.760015
-0.0134521 0.147878 0.787295
-0.159605 0.232031 0.782817
-0.161968 0.0882704 0.787014
-1.09677 -0.0732446 0.5328
-0.981151 -0.0235223 0.576173
-0.664951 -0.165355 0.695737
-0.81324 -0.0885382 0.643121
-0.777175 -0.214401 0.638964
-0.80765 0.0457326 0.641643
-0.656337 0.124701 0.692546
-0.0126934 -0.449153 0.776035
-0.153741 -0.408076 0.778345
-0.145745 -0.509734 0.75774
-0.162472 -0.115654 0.787532
-0.160967 -0.267578 0.785782
-0.0123582 -0.178208 0.788271
-0.439787 -0.380741 0.719097
-0.298974 -0.340625 0.76772
-0.457026 -0.264558 0.730326
-0.487027 0.0711885 0.729866
-0.490013 -0.103255 0.73077
-0.312854 -0.0137633 0.775447
-1.23293 -0.0756895 0.414787
-1.18892 -0.0836098 0.468347
-1.27265 -0.0944716 0.121955
-1.26234 -0.0903046 0.300066
-1.10628 -0.319647 0.363353
-1.20829 -0.205664 0.349172
-1.13664 -0.345469 0.261901
[...]
POINT_DATA 642
SCALARS CoVolArea float 1
LOOKUP_TABLE default
0.00970076
0.00847529
0.00725009
0.00631196
0.00854431
0.00780847
0.00710016
0.00663177
0.00338093
0.00453169
0.00374515
0.00515592
0.0205657
0.0180087
0.0198745
0.0192166
0.0233849
0.0202802
0.0211774
0.0219786
0.0212506
0.0167745
0.0176582
0.018808
0.0196494
0.026262
0.023364
0.0225122
0.0236523
0.0235042
0.0195513
0.0218809
0.0204787
0.018421
0.0229004
0.023865
0.0192412
0.0257438
0.0248774
0.0227588
0.0213761
0.0152541
0.0133966
0.025231
0.0156001
0.0168087
0.0277327
0.014937
0.0130753
0.0245764
0.012273
0.0254207
0.0186747
0.0133878
0.0247313
0.0176532
0.0245362
0.0140497
0.0241326
0.014557
0.0129081
0.0233104
0.0166339
0.0259702
0.0171964
0.0256356
0.012149
0.0143829
0.026962
0.0150986
0.0293395
0.015896
0.0251488
0.00917631
0.0306939
0.0278927
0.00688621
0.0247101
0.0123557
0.0135596
0.025194
0.013281
0.0255701
0.0150323
0.0239957
0.0172944
0.0170373
0.0249671
0.0198115
0.025687
0.014452
0.0279772
0.0134646
0.014474
0.0306972
0.0146461
0.0279366
0.0123567
0.0296643
0.0158089
0.0147845
0.027255
0.0161379
0.0288442
0.0165601
0.0269384
0.0148023
0.0116002
0.0249926
0.0139384
0.0270217
0.0136629
0.0141474
0.0277906
0.015391
0.0147242
0.0259665
0.0119747
0.013702
0.0263013
0.0144484
0.0267565
0.0142432
0.0131874
0.0277257
0.0152183
0.0278119
0.0168591
0.0284153
0.0158202
0.0174445
0.0294474
0.0157298
0.0294525
0.0155465
0.027135
0.0126686
0.0159427
0.0278267
0.0127361
0.0267815
0.0138446
0.0276694
0.00866054
0.0284182
0.0259666
0.00653705
0.0256913
0.0242308
0.0238851
0.0288002
0.0252648
0.0280008
0.0278751
0.0280749
0.0279422
0.0276154
0.0283204
0.0266723
0.0264181
0.0288834
0.0251539
0.00947348
0.0134463
0.0128967
0.0262289
0.0182837
0.0176307
0.0163984
0.0163064
0.0204738
0.0110665
0.0153716
0.00816524
0.0224686
0.0195968
0.0179612
0.0183011
0.0204525
0.0267206
0.00872362
0.0119546
0.00982194
0.0226674
0.0172477
0.0184057
0.014943
0.0159135
0.0205938
0.0347451
0.0317312
0.0311076
0.0173935
0.0151497
0.0225048
0.0195793
0.0208488
0.0206675
0.0249442
0.00913361
0.0118332
0.0224724
0.018268
0.0181906
0.0185181
0.0234402
0.0135824
0.0156811
0.0110652
0.0245738
0.0196344
0.0202857
0.0156932
0.0180943
0.0213214
0.0290961
0.0285774
0.0303422
0.0169175
0.0125901
0.0240234
0.019905
0.0173067
0.0185494
0.0236986
0.0113022
0.015659
0.0222396
0.0171132
0.0158441
0.0190286
0.0236861
0.00935783
0.0157332
0.00999304
0.0246725
0.0218154
0.0203424
0.019821
0.0212764
0.0234072
0.0287519
0.0294752
0.0300098
0.0121814
0.00897157
0.0219312
0.0156348
0.017033
0.0167811
0.0258954
0.00989093
0.0142586
0.0245251
0.0189082
0.017231
0.0200665
0.0241895
0.00707746
0.014889
0.00941942
0.02789
0.0214857
0.0196784
0.0193888
0.0198755
0.0249655
0.0329237
0.0341216
0.0364095
0.0109179
0.0229573
0.0163859
0.0163802
0.0213967
0.00434208
0.0100906
0.0241365
0.0167028
0.0141296
0.0195023
0.0248773
0.00861351
0.00369491
0.02217
0.0170324
0.0126961
0.014148
0.0231061
0.0356797
0.0388561
0.0339192
0.0124213
0.00844845
0.020809
0.0161938
0.0163766
0.0175566
0.0237821
0.010868
0.0130247
0.0210245
0.0168211
0.015175
0.0181546
0.0232076
0.00726894
0.0139295
0.00941001
0.0233894
0.0182752
0.0163448
0.0170744
0.0183386
0.0220724
0.0308799
0.0310059
0.0322359
0.0138158
0.0119197
0.0212662
0.0160675
0.0216766
0.0190071
0.0255629
0.010626
0.0172662
0.0234037
0.020742
0.0185718
0.0200433
0.0218646
0.0147742
0.0169407
0.0117608
0.0263605
0.0211395
0.0230299
0.0172168
0.0187892
0.0236335
0.0299832
0.0310364
0.0310031
0.00855457
0.00710258
0.0244248
0.0149919
0.018708
0.016308
0.0237823
0.0068451
0.0107254
0.0262999
0.0190392
0.0203689
0.0177357
0.0254823
0.00821242
0.0103945
0.00833854
0.0241582
0.0177925
0.0192513
0.0180211
0.0175177
0.0255488
0.0394927
0.0378043
0.0363732
0.015583
0.00913969
0.0264112
0.0203263
0.0194719
0.0208737
0.0277858
0.00982546
0.013749
0.0262291
0.0192019
0.019424
0.017944
0.0240403
0.0110028
0.0157179
0.0112957
0.0264075
0.0201799
0.0193675
0.0204896
0.0207933
0.0268644
0.0354068
0.035575
0.0365016
0.0155044
0.0106516
0.0244927
0.0207579
0.0178505
0.0196653
0.0245115
0.00826231
0.0110041
0.023611
0.0157185
0.0160046
0.0145323
0.0219263
0.00783788
0.0130832
0.00624116
0.0237937
0.018091
0.017854
0.0179405
0.0191845
0.0247309
0.0326672
0.0342098
0.0328959
0.00816124
0.0148045
0.0100576
0.02537
0.0200839
0.0174791
0.0189532
0.0195001
0.0252305
0.00869242
0.0118396
0.00615567
0.0216797
0.0168584
0.0170959
0.0170448
0.017632
0.0251462
0.00883674
0.013587
0.0116638
0.0250341
0.0183908
0.0181795
0.0167616
0.0178999
0.021931
0.0343228
0.0321392
0.0337976
0.0142269
0.010471
0.0254687
0.019184
0.0166702
0.0181073
0.0230113
0.00847684
0.0121638
0.0266391
0.0189053
0.0185166
0.018471
0.0255031
0.0117723
0.0156287
0.0112157
0.0233953
0.0191031
0.0172162
0.0202013
0.020761
0.0270622
0.0339514
0.0345477
0.0334756
0.0162559
0.0113885
0.0249975
0.0200244
0.0198405
0.0206915
0.0272641
0.0130545
0.0178116
0.028771
0.0223189
0.0209349
0.0210152
0.0253743
0.0102839
0.0145731
0.00979525
0.0271641
0.0196782
0.0192278
0.0199881
0.0202154
0.028296
0.035456
0.037002
0.0363383
0.0133
0.00817962
0.0262949
0.0179811
0.0165829
0.0175342
0.0243871
0.01153
0.0157578
0.0256588
0.0204604
0.0196767
0.0199589
0.0260973
0.00620754
0.0117143
0.0077151
0.0260919
0.018411
0.0184851
0.0174676
0.0164203
0.0229454
0.0346237
0.0337597
0.0349605
0.0114435
0.0249193
0.017611
0.0175949
0.0234681
0.00427704
0.0100999
0.0230727
0.0163741
0.0129185
0.0176406
0.0253945
0.00790795
0.00345902
0.0228451
0.015126
0.0116949
0.0138917
0.0221765
0.0366769
0.036252
0.0351729
0.0163884
0.0224197
0.0183351
0.0210029
0.0265725
0.0149163
0.0208293
0.018807
0.0196949
0.0223473
0.0144722
0.02579
0.0190168
0.0163476
0.0203982
0.0300263
0.0288945
0.0311227
0.0157583
0.025207
0.0203874
0.0217463
0.0282553
0.0123953
0.0216553
0.0165797
0.0169611
0.0243861
0.0138569
0.0282142
0.0195727
0.0187551
0.0227129
0.0338588
0.0328406
0.0368205
0.0149863
0.0263514
0.0197748
0.0200379
0.0257629
0.0140033
0.0264866
0.0184373
0.0185204
0.0266482
0.0136413
0.0240187
0.0180658
0.0205604
0.0284314
0.0351698
0.0363594
0.0342802
0.0136639
0.0261198
0.0190873
0.0185073
0.0249431
0.0161716
0.0277466
0.0215243
0.0198043
0.0259358
0.0143665
0.0238236
0.0178338
0.0198554
0.0270438
0.0347311
0.0349297
0.0336036
0.00783884
0.0209518
0.013056
0.0158457
0.021637
0.00930836
0.0241305
0.0183147
0.0153037
0.0218581
0.0105435
0.0212453
0.0160885
0.0163507
0.0226509
0.0363744
0.0347538
0.0332429
SCALARS SignedDistance float 1
LOOKUP_TABLE default
-0.0189712
-0.026912
-0.0163239
-0.0207949
-0.0336935
-0.0281008
-0.0127383
-0.0155195
-0.0283583
-0.0288417
-0.0244929
-0.0266349
-0.0144939
-0.0168802
-0.0021354
-0.00562644
0.000945599
-0.013649
-0.0194874
0.00557423
-0.0160608
-0.0109483
-0.0151901
-0.0234833
-0.0183897
0.00865533
-0.0214691
-0.0301757
-0.0215088
0.0112648
-0.0159246
-0.00392246
-0.0164433
-0.0249653
0.000727574
0.00377274
-0.0150127
0.0126967
0.0106921
0.00579834
-0.0179794
-0.0107026
-0.0116301
-0.00354004
-0.00258303
-0.00926852
0.00542068
-0.0080173
-0.0222912
0.00491333
-0.0248508
0.0143215
-0.000783312
-0.0199387
-0.00175977
-0.00175194
0.01293
-0.0117545
-0.0190464
-0.0250061
-0.0252011
-0.0189731
-0.00857401
-0.00298579
0.000805616
-0.00412989
-0.0107018
-0.0174389
0.0058136
-0.0298915
0.00127411
-0.00119041
-0.00485259
-0.013435
0.00606203
0.00347467
-0.0172375
0.000386238
-0.0158519
-0.0169392
-0.000114441
-0.0200367
-0.0135731
-0.0166411
-0.014169
0.000872007
0.000808239
-0.0187167
0.00590214
-0.0136569
-0.0265961
-0.0126937
-0.00760651
-0.0121613
-0.0097004
-0.0107226
-0.0154525
-0.0259988
0.0127954
0.00170708
-0.0204262
-0.00442075
-0.0207834
-0.00424906
-0.020809
-0.0174866
-0.0177522
-0.0153193
0.0146294
-0.0070765
0.00561905
-0.0268326
-0.01089
0.0051899
-0.0170054
-0.0162859
0.00177956
-0.0131626
-0.0212597
0.00201607
-0.0232935
-0.0120476
-0.0147257
-0.0207605
0.0122841
-0.0146971
-0.0123092
-0.0163175
-0.00911293
-0.0158783
-0.0135318
-0.00953763
-0.0186043
0.0119628
-0.0214586
-0.0205536
-0.0215497
-0.0164814
-0.00633812
-0.0149708
0.00889111
-0.00296131
-0.00963171
-0.013291
-0.018177
-0.0203431
-0.0166791
-0.0178753
-0.00240197
-0.019987
-0.00658965
0.00712585
-0.0117874
0.00198364
-0.0214882
-0.0144548
0.00876759
-0.0060045
-0.00694638
0.00840628
0.0102128
-0.0132512
-0.0322026
-0.0158405
-0.024189
0.0110922
-0.00357056
-0.00922203
-0.0202923
-0.0239086
-0.0150398
-0.0243441
-0.0121422
-0.0271678
-0.00385666
-0.0163224
-0.0136116
-0.0186882
-0.00800705
-0.000419617
-0.0277774
-0.00954986
-0.0289612
-0.00377655
-0.0118027
-0.0035615
-0.0128603
-0.0101995
-0.0118923
0.00930023
-0.00548553
0.00769639
-0.0210444
-0.00561117
-0.0137327
0.011237
0.000419693
-0.0190209
-0.0185038
-0.0330793
-0.0241661
0.000824667
0.0194715
-0.00799227
0.018968
0.000210285
-0.00895199
-0.0227773
-0.0259129
-0.0185025
-0.0192203
0.000198004
-0.0189714
0.0071962
-0.0150604
-0.00885277
-0.00937621
0.0171097
-0.00433164
-0.0121841
0.000232704
-0.000919553
0.00975075
-0.0195195
0.01898
-0.0145402
-0.00683416
0.0141401
-0.0201921
0.00211211
-0.00180612
2.0902e-05
-0.0305481
-0.00742283
-0.0228169
-0.0110593
0.0293335
0.0071559
-0.00676823
0.0249181
-0.0151766
-0.0196004
0.0161356
0.0162143
-0.0144386
-0.0368208
-0.0303574
-0.0171442
-0.0148382
-0.012558
-0.00359344
-0.0208392
-0.0191021
-0.0186062
0.000967979
-0.00570107
-0.0271435
-0.0223846
-0.0230627
-0.0115433
-0.0235861
0.0130749
-0.0113487
-0.0171242
-0.0160332
-0.0261908
-0.00839233
-0.00115967
-0.0210779
0.0216408
-0.0291505
-0.0150459
0.00289768
-0.00349736
-0.0186391
-0.0252057
-0.0271238
-0.0171004
-0.0220176
-0.0114023
-0.00708361
-0.015451
-0.0282136
-0.0252848
-0.0181904
-0.0104799
-0.0116625
-0.023647
-0.0177444
-0.00182815
0.00587431
-0.00497136
-0.0174069
-0.0257295
-0.0138817
-0.0156441
-0.0119328
0.00750446
-0.00521779
-0.0200047
-0.0221982
-0.0121231
-0.017046
-0.015707
-0.00162125
-0.00818253
-0.0281456
-0.00408936
-0.0217326
0.000329971
-0.0228672
-0.0190668
-0.00718975
-0.00544405
0.00285816
0.000802517
-1.28746e-05
0.0211792
-0.0260897
-0.0156662
0.00947767
-0.018682
0.00734841
-0.00859617
-0.00251791
-0.0313108
0.00316255
-0.0185724
-0.00707603
-0.00870705
-0.00837243
-0.0191073
-0.00373615
-0.0162615
-0.0241706
-0.00174456
-0.00435664
0.00835573
-0.000102997
-0.0161015
0.0150072
0.0140643
0.0152929
-0.0143814
-0.0239551
-0.0312891
0.00216473
-0.00737879
-0.0096283
-0.0190347
0.00171894
-0.0287228
-0.0160341
0.00618917
-0.0165854
-0.0256939
-0.00325897
0.00255481
-0.0250502
-0.0229996
-0.0236084
-0.0153739
0.00868893
-0.0246286
-0.00313187
0.0141201
-0.0154591
-0.00406904
0.00309311
0.00271248
-0.00237989
-0.0252091
0.0130515
-0.0151775
-0.016448
-0.0148484
0.0121251
-0.0183115
0.00619236
0.0215933
0.018099
-0.0211829
-0.012363
-0.00135895
-0.00853157
0.0103364
-0.0192418
0.00234672
-0.0103579
-0.0111732
-0.021286
0.0196423
0.0219326
0.0111018
-0.00524819
0.0115667
-0.0193691
-0.0208364
0.00176239
-0.0133438
-0.0152881
-0.0114899
-0.00990677
-0.0278294
-0.00740051
-0.00250626
-0.00855637
-0.00536728
-0.0138392
0.00114059
-0.0297397
-0.0201272
-0.0271652
-0.0121002
-0.0222855
-0.013073
-0.0177469
-0.00564575
-0.000139236
-0.0222082
0.025403
0.0028038
-0.0231317
-0.00421047
-0.0145444
0.000880241
-0.0246162
-0.023241
-0.00586689
0.000731468
-0.0111637
-0.0275509
-0.00774956
-0.0350336
-0.00478554
-0.0115681
-0.0177331
-0.0245399
-0.00743866
0.00451469
-0.0259079
-0.0128727
-0.0179343
-0.00294495
-0.0105171
-0.0180072
-0.00696683
-0.028532
0.00165367
-0.0129089
0.00348473
0.0194759
0.00244343
-0.0148153
0.00588029
-0.0138122
-0.0150358
0.0117308
0.015433
-0.0335448
-0.0294071
0.0115556
0.00525526
-0.0160007
0.00217857
0.0107537
-0.0142594
0.0055484
-0.0104113
0.0159247
0.0132476
-0.0150537
-0.000510454
-0.013595
0.00657001
-0.000691541
-0.000942621
-0.0134349
0.00735155
-0.012562
0.0148073
0.0127713
-0.0102763
-0.011012
0.000364827
-0.00476173
0.00968626
0.00147145
-0.0113627
-0.0058831
0.0132992
0.0149498
-0.0250127
-0.0105014
-0.0268373
0.0100753
-0.00469212
-0.0132828
-0.0116098
-0.000978816
0.0115943
-0.0109997
0.0128525
0.0116732
-0.0201645
-0.033136
-0.0117514
-0.0256424
-0.0207672
-0.00032711
-0.0125074
-0.0136442
-0.0114613
-0.0306473
-0.0256753
-0.0144501
-0.0105705
-0.00958633
-0.0280743
-0.0159664
-0.0312144
-0.00594139
-0.00372696
-0.0108996
-0.0206543
-0.0265408
-0.00997925
-0.0048027
-0.00859833
0.0126083
-0.0171943
-0.0125849
0.0122952
0.0049932
-0.0130816
-0.03231
-0.0140958
0.00798652
0.00301153
-0.011189
-0.0195029
0.0110426
-0.0351654
-0.0321407
0.007725
-0.0207652
-0.0114079
-0.000965314
0.00748596
0.0136189
-0.0109689
0.0140881
-0.0152571
0.00718298
-0.0201389
-0.00329805
-0.00104132
-0.0119399
-0.0213363
-0.00858317
9.14615e-06
-0.0134323
-0.0231736
-0.00169815
-0.00765979
-0.0208888
0.00108749
0.0118361
0.0104722
-0.00818825
-0.0113754
-0.0238895
0.0104103
-0.0101166
0.000732422
-0.0130844
-0.0276508
-0.0234299
-0.0200043
-0.0174141
-0.0165024
0.0153465
-0.0266043
-0.0222425
-0.00270844
0.0133629
-0.0144281
0.00189781
-0.0178194
-0.0113297
-0.0273438
-0.0210323
-0.00604248
-0.0255032
-0.029211
0.0161501
-0.0173721
-0.00107574
-0.0145607
-0.0124702
-0.0184975
-0.013176
0.00646019
-0.0022583
0.0181847
-0.0156097
-0.00549807
0.00805178
-0.0187348
-0.0190545
0.00719198
0.00885165
0.0207737
0.0181181
-0.0121528
0.00704817
0.00491268
0.00536992
-0.0134449
0.0168279
0.020511
0.00245077
-0.00503488
0.00233696
-0.0264024
-0.0109155
-0.0165292
-0.00699234
-0.0141683
-0.0240501
-0.00867081
-0.000211349
-0.013892
-0.0103648
-0.0265999
-0.0223347
-0.000472784
0.00729984
-0.0205115
0.0102634
-0.00169774
-0.00262935
