# vtk DataFile Version 4.2
vtk output
ASCII
DATASET POLYDATA
POINTS 642 float
105.963 -11.3316 54.5522
-57.5633 -105.061 13.448
953.16 1135.14 268.162
90.3728 134.033 111.658
53.3463 104.499 -15.4056
15.2026 -60.7742 -101.247
269.77 936.86 1129.19
114.608 89.5261 131.18
-14.708 51.5157 105.556
-105.29 12.141 -61.2492
1161.92 287.051 970.31
133.45 109.087 93.3805
280.473 32.9615 80.9938
131.996 10.4092 -48.683
104.467 -84.4759 -16.7301
-30.2602 -109.604 -60.5085
58.797 -107.04 39.9129
18.034 -53.2092 128.799
163.022 20.2964 185.305
621.189 -248.555 1105.88
618.31 275.406 325.326
1820.22 326.836 303.486
-62.486 -36.1238 -109.528
-100.65 -59.1834 -29.4402
196.827 151.389 13.6416
39.5007 47.3659 -110.636
-291376 -224511 -150538
1110.2 597.227 -238.449
340.238 305.21 1791.14
-224667 -151467 -292157
-83.2962 -28.0653 99.2106
40.9093 66.1971 282.766
-55.3791 130.191 11.2428
-25.8405 98.0558 -86.2704
69.1423 282.76 37.3936
332.39 606.816 268.739
298.597 1776.74 327.092
-151697 -291642 -221850
-231.688 1086.85 596.703
265.307 325.503 610.088
10.6967 194.023 154.151
-111.584 36.4873 49.2742
171.155 -8.56762 56.1686
181.05 -33.6949 17.661
120.876 -48.2572 34.8341
134.492 80.7091 61.4235
225.068 19.7279 15.0107
194.146 91.9993 135.103
53.7225 -79.0173 -64.7097
116.736 -42.1532 -40.7869
67.1062 -27.9979 -76.9
106.988 -112.289 19.8602
101.747 -59.6822 53.4036
-14.7221 -101.699 -91.6644
41.5214 -117.662 -42.8647
-4.53616 -113.203 21.1838
22.0642 -127.851 -13.8289
-48.4958 -120.274 -33.2491
103.591 -80.3677 110.687
120.947 -15.8391 96.2921
-22.7628 -80.3167 65.0155
31.2487 -87.0216 80.1552
153.997 113.931 124.637
101.45 -49.5581 179.966
88.0058 56.6103 131.279
334.218 -3.71936 307.422
177.429 -46.3969 69.9369
224.073 49.8717 351.461
666.561 518.178 67.2116
-476.114 39.3518 -611.572
-2992 1242.35 -2498.87
-1241.78 -551.018 272.305
729.473 59.5247 233.878
-263.265 430.665 -1104.42
-7920.16 1004.85 -5913.37
729.952 234.713 1554.23
411.054 198.368 35.4121
-49.5311 -63.2081 -36.6996
-97.6799 -94.2352 -16.6083
-33.9862 -54.7649 -121.067
-23.7715 -42.3741 -47.752
-118.881 -35.183 -51.4873
-57.8544 -37.6053 -50.1515
-91.7889 -17.7316 -99.3637
82.8407 22.4511 -86.808
22.1425 -10.9476 -112.126
132.026 145.672 115.37
187.998 87.3662 -53.4227
51.3027 86.0587 -69.5843
115.728 88.8519 -89.9416
109.576 113.135 -23.0701
1222.79 520.79 -303.485
357.097 216.704 52.9491
-2450.75 -476.831 -1628.87
-5706.72 14128.6 -6876.86
323.583 -1229.32 -538.978
3980.44 -16927.8 2663.98
-2208.99 -1501.54 -872.557
-16584.9 2676.26 3882.72
-1464.27 -1024.25 -2338.33
207.508 31.7901 409.115
531.972 -340.347 1206.43
-528.888 -1648.14 -2474.93
13814.3 -6826.4 -5483.29
446.226 -1101.58 -254.611
26.1094 0.110787 224.154
100.595 127.542 192.776
-76.0733 -70.4559 50.968
-37.4308 -48.9161 114.014
-2.403 42.8091 178.817
-32.1367 -0.477771 179.815
-51.2009 17.5631 113.891
51.9345 136.897 81.1137
-1.26864 226.62 17.4203
127.679 195.138 96.21
-70.0553 49.9588 -80.0481
-48.2439 113.777 -42.1651
-81.0991 64.6519 -27.4817
45.2639 177.858 -3.54582
1.86199 179.43 -36.0913
19.7596 112.843 -52.9439
1428.3 721.25 258.756
38.6042 408.572 202.599
82.1188 186.987 -35.637
204.979 720.738 28.2892
-1096.12 -268.846 433.286
-5576.65 -7520.89 1037.64
-588.033 -474.947 61.2398
-309.847 1215.95 536.922
51.5552 352.215 220.536
-1654.44 -2515.66 -563.19
-6814.64 -5718.13 13902.3
-532.477 291.004 -1246.32
2893.25 3915.62 -17402.6
-945.794 -2314.77 -1475.41
497.465 97.5048 629.654
110.042 132.434 147.87
75.132 -605.67 -486.893
1225.35 -2376.9 -2851.55
-22.7823 107.286 114.795
-25.7436 313.08 328.479
-34.6757 79.5403 188.559
-63.238 186.15 88.9891
-69.3554 48.9271 87.698
-91.9235 112.553 91.4078
-89.5499 80.1835 24.2367
-114.45 19.3912 -9.82094
12.3514 92.619 -115.612
-46.7917 34.5443 -117.587
-12.9529 15.0196 -123.19
-2401.84 -2883.02 1221.96
319.748 326.255 -26.0254
91.7898 634.923 511.539
4.85295e+06 2.03095e+06 194480
2.01957e+06 190962 4.82578e+06
179799 4.84471e+06 2.03218e+06
28.332 196.742 723.612
1059.18 -5626.37 -7542.9
267.043 1465 718.586
-123.451 -16.4478 16.9776
-114.602 8.49895 94.835
-113.987 -48.5712 36.7198
122.963 -11.155 57.8709
132.366 -18.7511 48.8439
117.285 -26.6143 55.0639
225.751 1.98647 44.2881
168.683 -9.47659 44.3507
236.249 -0.252854 60.9162
118.714 -70.9464 9.59179
139.214 -38.1302 27.0178
136.574 -59.1693 -1.00882
100.912 104.752 115.835
134.82 92.4945 104.854
130.857 105.814 130.221
172.325 10.8869 -22.2864
167.082 57.0278 41.5784
152.125 41.7876 -8.79718
267.457 63 107.639
189.554 76.2092 90.0457
245.48 43.805 65.0881
33.7075 -71.1852 -84.2694
59.5159 -54.5185 -73.8028
41.6662 -45.7549 -91.6874
109.52 -65.7208 -31.2511
80.8704 -60.5666 -53.1744
77.1071 -83.9319 -41.9658
95.1346 -10.4859 -63.4643
87.0237 -35.7381 -59.6639
125.865 -18.7341 -48.7298
245.783 -34.0506 -3.69142
189.593 -28.9622 -33.2647
166.586 -50.1234 -17.4352
112.583 -52.1207 45.0608
113.044 -28.2306 56.0163
108.801 -101.401 2.21488
113.065 -80.3075 24.9019
83.9133 -90.6009 47.7419
101.868 -86.6163 36.3194
85.0757 -112.482 29.9546
1.39159 -82.3212 -98.8992
21.6093 -91.5776 -78.7222
1.43217 -117.577 -54.4177
8.67857 -111.788 -70.5916
-26.2084 -110.268 -76.5549
45.4891 -100.211 -56.4236
78.0347 -107.165 -29.553
-30.9081 -108.91 17.1646
-26.136 -120.289 -5.43616
-52.629 -112.911 -8.47284
46.451 -118.909 16.0471
6.89948 -120.36 2.2708
25.7833 -111.366 28.3736
-37.2684 -113.391 -49.1043
-17.0595 -124.514 -26.6014
-5.028 -118.237 -38.9778
89.8908 -124.766 -6.25864
38.0351 -133.862 -28.7379
79.1443 -127.552 10.0332
108.039 -30.0402 71.0156
110.347 -10.3317 62.3799
76.6923 -91.4153 70.385
96.7573 -63.533 73.3773
140.67 -14.2772 144.728
113.26 -35.6603 103.392
132.348 -45.0452 154.692
-40.5592 -93.8844 40.0323
-16.2875 -98.4964 42.5554
23.159 -74.7089 104.907
1.31136 -84.338 68.8292
-4.23523 -67.1722 92.631
11.2897 -98.2994 47.6089
42.8592 -97.6636 58.5099
133.948 121.91 97.8768
117.439 95.7673 109.918
111.22 111.674 97.9274
142.665 3.55007 184.262
129.381 64.7819 145.136
167.792 68.4012 172.598
49.752 -13.7147 148.633
90.2628 18.9953 145.649
53.8716 -54.0869 148.803
73.9179 -95.9575 105.26
66.2117 -91.7456 142.036
111.882 -118.756 171.112
130.938 -17.9439 81.9108
119.475 -13.378 57.6346
217.247 4.43757 227.923
167.678 -32.3122 139.22
309.778 -170.243 80.3408
203.259 -61.3932 121.862
367.008 247.567 446.378
151.353 91.7334 169.165
186.977 145.749 128.562
779.31 460.043 -545.891
337.289 186.24 227.306
465.137 1.44824 1008.59
243.308 129.553 180.158
262.542 91.2148 243.213
-823.45 -379.838 -902.188
-1058.06 -185.878 -950.262
-717.938 -585.542 -612.652
-1308.79 998.165 581.235
-906.116 217.497 -224.085
1078.6 -716.609 631.696
-734.509 -434.262 2476.37
-800.02 1.41031 -809.324
-42.9276 146.057 -2011.67
696.21 848.767 520.226
1003.99 2790.97 -2643.71
-599.664 3274.72 844.48
167.756 -19.3848 58.8277
1076.17 939.913 226.564
296.022 -61.2777 70.616
279.903 -36.2083 70.2057
412.735 3.638 110.891
-304.152 -62.4314 -369.045
-1284.87 -424.786 -1389.18
-3878.8 -4816.39 773.412
-807.743 -240.424 -748.33
1334.69 1910.84 -1779.41
-280.104 428.778 -1964.87
505.277 2412.62 -2101.65
206.578 124.18 176.253
191.974 131.967 95.7065
459.29 62.2343 170.281
369.777 81.896 216.426
1278.48 492.928 -311.056
491.092 146.66 301.247
-116.398 -1012.63 2405.43
-410.639 8636.99 911.426
-5663.86 866.333 7673.55
1564.39 1457.79 1942.94
-69.661 -102.481 -23.8113
-79.0415 -102.514 -0.639233
-28.134 -67.5085 -35.6483
-64.7727 -105.605 -49.326
-103.942 -76.9599 -26.969
-79.6276 -85.6833 -36.2205
-66.9925 -54.8959 -29.8884
-7.75388 -57.9235 -111.967
-23.7968 -75.7951 -102.497
-44.0603 -41.5027 -75.2566
-46.8846 -67.6297 -101.235
-49.156 -42.3368 -111.857
-32.3185 -80.4243 -80.1292
-33.7865 -78.3946 -58.7767
-111.258 -9.70214 -55.2936
-107.079 -28.6968 -77.2978
-102.852 -2.49615 -83.1908
-72.9388 -46.016 -37.7895
-102.203 -50.4573 -66.2833
-113.628 -53.2768 -41.627
-74.9516 -28.5724 -105.748
-85.2015 -39.3626 -83.5968
-48.2412 -28.8889 -64.6872
-24.4253 -43.5279 -31.6537
-30.4491 -30.5804 -40.3683
-41.2783 -38.1628 -29.8236
44.0267 -22.6356 -97.6965
18.0375 -36.7898 -108.324
108.176 14.9048 -72.4861
71.021 -5.60959 -83.113
28.3946 16.9116 -113.729
49.0517 3.77974 -98.5355
59.9626 32.894 -100.066
102.661 127.521 124.677
115.16 109.799 98.0863
195.388 128.48 -7.14036
153.575 119.062 62.9239
182.532 156.928 67.8467
151.171 80.8683 20.5985
153.589 43.7295 -51.9097
53.8738 95.9125 -39.2521
76.9167 94.2834 -41.4788
75.6552 104.203 -19.1958
71.9625 63.7331 -97.291
75.8857 82.6238 -73.2376
46.2561 70.148 -97.7803
156.629 130.884 -19.1561
111.396 100.943 -46.4647
163.869 118.5 -59.216
147.265 53.5901 -91.718
178.757 94.1969 -129.036
109.11 60.8153 -98.7932
338.693 168.857 4.29408
172.224 145.382 95.5719
1848.84 1828.13 1167.31
917.221 291.802 -264.109
1006.03 452.612 3.98635
886.393 253.754 -279.28
1507.8 864.572 453.459
-1691.93 -2589.08 -2255.12
-1283.96 -1272.9 -2596.09
-46674.1 -3306.42 -64269.9
5083.55 6826.44 -8305.57
284106 84576.6 150096
3583.03 6107.64 -6380.3
1037.33 1443.18 1306.93
-605.443 -731.133 -582.101
-2012.28 -1909.68 -2048.02
-2204.87 -1417.55 -2461.66
964.285 119.989 -22.586
3077.7 -4863.26 -1760.83
2422.15 -756.649 -429.942
208898 249405 54770.4
6067.39 -2280.47 -2161.75
1514.52 -75751.4 -11134.5
-9700.73 26462 20841.8
-28439.5 -16706 6631.23
4689.13 -240.124 25693
-1911.59 -2085.94 -2040.76
-1417.88 -2481.02 -2216.04
144.765 -29.4562 955.011
-4867.07 -1761.52 3097.74
250066 55199.9 210158
-2225.83 -2056.29 6231.78
-75890.4 -11039 1260.81
138.397 90.8702 191.307
176.709 0.369814 335.266
1820.69 1135.77 1833.01
302.863 -267.26 906.474
503.966 -303.821 1261.55
265.164 -285.108 881.705
895.678 482.404 1507.82
-2562.36 -2244.2 -1680.06
-1244.44 -2584.47 -1268.02
-62.3618 -384.112 -307.992
-2924.05 -64096.6 -46624.1
6782.68 -8393.9 5099
84741.5 150525 284666
1925.75 -1777.37 1327.29
6044.8 -6352.44 3575.67
1484.69 1293.16 1029.3
-244.134 25858.9 4633.42
26439.3 20600.8 -9711.43
-16586.7 6514.83 -28442
99.1785 97.9287 133.569
[...]
POINT_DATA 642
SCALARS Normal_Velocity float 1
LOOKUP_TABLE default
0.559418
0.0547751
2.811
0.873479
0.558034
0.0245246
2.8126
0.876619
0.557324
0.0423282
2.79266
0.877789
0.614125
0.214987
0.235112
0.0458492
0.199854
0.215158
0.29796
3.69644
1.22764
2.95396
0.044816
0.082314
0.297901
0.203797
1.99671
3.73605
2.93485
2.0124
0.237096
0.607567
0.215113
0.237424
0.607054
1.2183
2.94926
1.96697
3.71508
1.2323
0.296308
0.201475
0.651376
0.339717
0.304517
0.0274155
0.0174659
0.363464
0.117231
0.282831
0.159358
0.335777
0.255815
0.0235786
0.201511
0.116979
0.195828
0.0734499
0.227669
0.500774
0.153506
0.261935
0.14207
0.052172
0.0265736
0.30312
1.01458
0.539124
0.691918
0.471868
2.24
2.06924
0.241741
0.758539
3.38198
0.729337
0.724447
0.161149
0.0344616
0.0585918
0.188958
0.0835442
0.166245
0.048987
0.263687
0.131662
0.14263
0.051475
0.255538
0.228004
0.500767
0.0942081
0.519985
0.0296921
0.55117
2.19744
0.501003
0.0290001
0.48553
0.0286095
0.668705
0.0856968
0.0297963
0.530588
0.771838
0.0176443
0.351998
0.118403
0.283604
0.646718
0.341573
0.304528
0.024032
0.0243511
0.355613
0.117674
0.280998
0.158301
0.649663
0.342403
0.303829
0.708967
0.657318
1.02097
0.235235
0.74795
3.39924
0.467845
0.0930855
0.514755
0.0304169
0.563604
2.11957
0.559265
0.0280305
0.690297
0.140382
0.4289
2.25862
0.49997
0.30558
1.01737
0.0479868
0.25556
0.227627
0.265869
0.130116
0.336515
0.206704
0.219333
2.25165
0.304105
0.694632
2.96912
2.98152
2.94838
0.246031
3.39879
0.724203
0.217739
0.333971
0.21633
0.549001
0.40705
0.359237
0.16307
0.425188
1.06881
0.256627
0.34185
0.297807
0.123037
0.023856
0.181986
0.181139
0.0152289
0.0850492
0.749252
0.0446429
0.0400125
0.0846009
0.136839
0.0767233
0.238648
0.161932
0.152085
0.178516
0.177825
0.238545
0.101312
0.252978
0.332247
0.308654
0.327791
0.310472
0.283673
0.200036
0.263759
0.28871
0.031531
0.106993
0.1222
0.0623494
0.00254227
0.137427
0.23793
0.107085
0.0852455
0.0625387
0.254392
0.152504
0.137078
0.0692628
0.106585
0.143596
0.323305
0.218417
0.320538
0.328381
0.482744
0.222918
0.249901
0.725242
0.29883
0.0100427
0.083596
0.135703
0.238473
0.162784
0.177726
0.165486
0.231985
0.0786661
0.0846556
0.128835
0.191368
0.118356
0.429921
0.0860071
0.0454847
0.184305
0.302906
0.291736
0.0186666
0.686967
0.713655
0.775995
1.33004
2.77856
1.49271
0.177287
0.159144
0.0296873
1.0799
0.379934
4.65794
0.884226
0.722335
0.818365
1.81337
0.706303
1.2708
0.256911
3.54338
4.32146
0.300347
1.20336
1.04518
2.17478
1.91274
0.811694
0.639095
1.77512
1.88502
0.957999
1.64934
2.19742
1.297
0.164855
1.61829
0.580248
0.616337
0.0287305
0.188889
1.0376
1.381
4.8073
0.681649
1.15062
0.297271
2.98484
0.812546
0.11636
0.0231
0.167783
0.070977
0.0240449
0.100458
0.157199
0.0564266
0.0984369
0.139284
0.0797536
0.0836517
0.113083
0.132412
0.0862826
0.0795067
0.0200641
0.145817
0.0868884
0.0718063
0.0178385
0.0900331
0.169492
0.213982
0.213386
0.213034
0.130486
0.0961229
0.239278
0.158435
0.132155
0.166507
0.228853
0.0840295
0.0883467
0.189751
0.117998
0.428923
0.045388
0.183775
0.327336
0.328163
0.4827
0.223208
0.250478
0.198004
0.723921
0.299602
0.0117025
0.292013
0.0200941
0.303197
1.27713
0.141668
0.775354
5.8823
4.61681
6.33393
0.612124
0.857921
1.35014
0.781161
0.412583
0.837563
3.75355
0.161727
0.679743
1.69521
0.840604
0.255985
4.55869
4.32954
0.890462
0.23524
1.47637
1.11606
1.21153
0.712629
1.71023
0.839796
0.258851
4.55683
0.895341
0.238357
1.46505
0.221387
1.28866
0.768172
5.87188
4.83059
6.35064
0.624817
0.863548
1.34685
1.63724
0.779635
0.415345
0.847205
1.62976
3.71824
0.169461
0.715078
1.12582
1.2284
0.0226336
0.19202
0.181829
0.0190334
0.734788
0.0414588
0.0281632
0.0968467
0.136611
0.240363
0.164238
0.143596
0.179015
0.24015
0.54688
0.407468
0.359027
0.16106
0.425885
1.06565
0.256231
0.339923
0.296878
0.251677
0.331638
0.102576
0.126764
0.0276318
0.186863
0.180818
0.0162848
0.0858391
0.744477
0.0364961
0.0353933
0.0741361
0.13701
0.0913031
0.239322
0.169374
0.144477
0.17595
0.178539
0.236988
0.548233
0.407091
0.359429
0.162295
0.422011
1.05761
0.25576
0.339755
0.295167
0.253766
0.331873
0.103165
0.0331501
0.214785
1.03342
1.37601
4.81781
0.647051
1.11348
0.709135
0.810157
0.633241
1.76993
2.76514
1.88562
0.969243
1.65117
2.19514
0.836054
1.31613
0.175817
1.63382
3.55058
0.578862
0.620071
0.824804
0.34919
3.02317
1.28343
0.158746
0.75292
5.8763
4.6126
6.31837
0.611843
0.865465
1.3425
0.787181
0.413964
0.845197
3.75676
0.167391
0.61696
1.67644
0.840836
0.268475
4.61158
4.35987
0.889132
0.232046
1.43384
1.12243
1.27908
0.726087
0.0106868
0.0779631
1.10005
0.386189
0.425224
0.883032
0.72213
0.760577
1.87335
1.25714
0.249621
3.5543
0.301548
1.1622
0.4815
0.687794
0.710393
0.776295
1.32285
0.720907
2.77099
1.48757
0.174798
2.19099
1.92444
1.03191
0.085806
0.186313
0.119607
0.0446224
0.184253
0.327144
0.328054
0.223467
0.248892
0.199076
0.298688
0.0123239
0.127927
0.104392
0.237634
0.163076
0.143694
0.157832
0.226488
0.0219179
0.303128
0.291174
0.308867
0.312113
0.282406
0.263226
0.2917
0.11677
0.100178
0.0531195
0.119718
0.247596
0.0972333
0.248649
0.141153
0.11254
0.110786
0.320686
0.232389
0.315218
1.82358
1.24376
0.282989
0.297172
1.1553
0.688332
0.775336
1.32593
1.48811
0.176032
0.0193964
1.11565
0.382398
0.887016
0.722131
1.92303
1.03982
2.18332
0.0166349
1.92735
0.304656
0.456559
3.35356
0.01576
1.89455
0.29954
0.46032
3.36214
0.0144866
1.93944
0.299066
0.455533
3.36396
1.03559
1.07544
1.10156
0.806086
0.639796
1.77618
1.88545
0.956393
2.19675
1.31855
0.152596
0.568156
0.613948
0.03641
1.04377
1.37489
0.649569
1.11879
0.320787
3.01885
0.830605
0.0754233
0.246856
0.134185
0.111494
0.106929
0.308863
0.312231
0.283333
0.263617
0.291051
0.105362
0.0759884
0.0379324
0.132195
0.24573
0.317096
0.315358
0.241421
SCALARS Mean_Curvature float 1
LOOKUP_TABLE default
0.393221
2.51432
8.01163
0.612773
0.395614
2.38516
8.02107
0.621866
0.397464
2.46422
7.99874
0.615331
0.228882
1.24558
1.10402
1.88942
1.1953
1.2451
0.802218
4.8738
0.908747
3.46199
1.89834
1.60797
0.802083
1.18386
0.376017
4.93194
3.44743
0.375452
1.09827
0.244072
1.2451
1.0972
0.248985
0.901151
3.46908
0.376646
4.9005
0.90858
0.805421
1.1906
0.201975
0.887918
1.00406
1.95511
1.71054
0.771586
1.56484
0.963201
1.50188
0.774909
1.10206
2.18836
1.11414
1.69791
1.16562
2.07045
1.09883
0.49296
1.52762
1.0635
1.25094
2.16641
1.95334
0.40926
0.656153
2.80727
1.91619
1.38274
3.90846
1.93172
0.488089
0.566476
2.19164
1.70614
3.24625
0.811026
2.12027
2.16304
0.505231
2.01128
0.759061
2.04553
1.05558
1.63378
1.24881
2.1645
1.1029
1.09848
0.49214
0.0330138
2.76101
0.168804
0.829087
2.15757
0.55057
0.245421
0.531087
0.268313
3.13061
0.0384419
0.172553
0.814951
0.556293
1.71252
0.802732
1.55921
0.961629
0.211031
0.88313
1.00398
1.94463
1.69339
0.790762
1.56411
0.969906
1.50797
0.20416
0.8804
1.00568
1.68824
3.10698
0.666041
0.500832
0.561715
2.20883
1.40381
0.0324925
2.74914
0.17478
0.839263
2.01557
0.618538
0.257784
1.91998
1.25451
1.49687
3.93134
0.493911
0.407584
0.662193
2.15352
1.1027
1.0985
1.04558
1.64093
0.774034
1.09285
1.04731
3.92314
0.409936
1.92276
0.0463556
0.0462328
0.0462902
0.481222
2.2112
1.69979
1.05492
0.781971
1.0507
0.445965
0.777521
0.885817
1.34928
0.724606
0.813928
1.0864
0.906163
0.959171
2.13316
1.66524
1.21187
1.29795
1.77296
1.68526
0.149307
1.58087
1.81607
1.77682
1.5638
1.8273
1.10479
1.41778
1.38122
1.41251
1.39267
1.13595
1.47759
1.03413
0.804047
0.982273
0.947622
0.872953
1.01029
1.22584
1.04835
0.898522
2.03633
1.68072
1.43827
1.82477
2.23885
1.478
1.04119
1.7686
1.80832
1.89866
0.985685
1.49586
1.53641
2.067
1.78305
1.35804
0.686823
0.991829
0.662677
0.936731
0.561048
1.09373
1.09632
0.178856
0.989352
1.74889
1.79794
1.62401
1.1739
1.50192
1.41594
1.49731
1.13935
1.44697
2.00399
2.14954
2.31282
2.076
0.461308
1.68297
2.12479
1.37504
0.767799
0.92483
1.83949
0.0735485
0.0320104
0.575484
1.62481
4.60826
1.87809
1.08549
1.22337
1.63604
2.50893
0.585138
8.02471
0.677748
0.581178
2.37878
3.921
0.405553
2.47738
1.43374
4.08073
5.92036
1.35518
2.32113
2.22404
3.73724
3.46584
0.171485
1.79689
2.4956
2.7241
0.865027
2.24315
4.30175
2.09527
0.424278
2.16612
1.61387
1.47892
1.671
1.17357
1.0898
1.65969
8.95521
0.318011
2.04059
2.1175
2.10327
1.69732
1.75302
2.0719
0.704591
2.04289
2.06774
1.70778
0.895293
1.93503
1.86382
0.993409
1.97497
1.96068
1.61135
1.11719
1.77829
1.98739
2.09263
0.939537
1.93348
2.04974
2.10933
1.77944
0.774692
0.400595
0.408229
0.445211
1.64587
1.82169
1.16985
1.52108
1.557
1.49444
1.15242
1.43378
2.01367
2.30888
2.07565
0.461827
2.12433
1.37731
0.948567
0.936731
0.560528
1.0941
1.09515
1.23169
0.176741
0.987225
1.744
0.923379
1.83502
0.765815
4.44055
1.26387
1.52193
11.5143
7.91675
12.3993
1.26924
3.58095
3.6883
0.900149
0.832061
1.25186
7.0148
0.158731
0.37956
4.02922
3.14329
0.249763
7.71267
5.91285
1.50767
0.585389
1.01317
1.38593
0.724828
1.27402
4.03893
3.14671
0.251166
7.67259
1.51017
0.587501
1.01335
1.09755
4.45567
1.50966
11.4587
8.98322
12.4375
1.29559
3.5871
3.6869
2.2112
0.900637
0.843337
1.25604
2.18072
6.97087
0.163968
1.28052
1.3875
0.725529
1.66837
1.18809
1.29517
1.76021
0.125139
1.59042
1.78635
1.7222
1.56459
1.09929
1.41208
1.41296
1.38877
1.1296
0.450261
0.776069
0.885941
1.35489
0.723184
0.809665
1.08761
0.911052
0.961844
1.03886
0.80614
1.47502
2.14442
1.65537
1.20032
1.29971
1.7671
1.68372
0.146522
1.60399
1.80068
1.82373
1.56442
1.76732
1.103
1.3917
1.40813
1.42422
1.39081
1.14169
0.447127
0.776873
0.885057
1.35162
0.732752
0.787115
1.08875
0.911204
0.96634
1.03124
0.805037
1.47282
1.68183
1.11241
1.07731
1.64921
8.96408
0.29814
2.00721
0.0422488
0.171313
1.79323
2.49439
4.59178
2.71229
0.890205
2.23554
4.30635
2.41083
2.12384
0.413504
2.18796
4.09822
1.61585
1.48832
1.71707
2.1359
2.12137
4.44376
1.22254
1.48543
11.4656
7.90803
12.359
1.26659
3.58701
3.67536
0.903198
0.834317
1.26471
6.99825
0.163321
0.320059
3.99557
3.14379
0.260625
7.76827
5.97445
1.51011
0.571535
1.01098
1.39352
0.729431
1.2723
1.58507
1.45075
2.54883
0.570277
0.469716
0.681638
0.578331
2.28094
4.01478
2.46873
1.40061
4.09625
1.36276
2.27581
0.563303
0.069454
0.0394408
0.574492
1.61065
0.170193
4.58984
1.86619
1.08121
3.75807
3.47523
2.21593
2.00769
2.3005
2.08178
2.12586
1.37581
0.948928
0.937357
1.09211
1.09907
1.2286
0.989098
1.74224
1.65648
1.78227
1.17727
1.50008
1.50983
1.53203
1.16184
1.83009
0.765819
0.925894
0.981809
0.867361
1.01392
1.04994
0.889502
1.63198
1.56534
1.86692
1.55406
1.00787
1.74982
1.00703
1.55009
1.74675
1.56346
0.695181
0.925393
0.682624
3.93936
2.44651
1.48591
1.3533
2.26531
0.0683041
0.573431
1.61652
1.86828
1.07701
1.60789
2.56772
0.578028
0.691183
0.579098
3.47566
2.2226
3.74883
1.91525
0.0240088
0.343322
0.152024
0.016248
1.93513
0.0253984
0.344532
0.152036
0.0169643
1.90456
0.0254961
0.341237
0.152089
0.0161613
0.0240489
0.0240471
0.0240405
0.161419
1.80492
2.50685
2.71633
0.866367
4.30477
2.13022
0.440194
1.59873
1.48163
1.68918
1.10143
1.6512
0.298797
2.01283
2.1364
2.12113
1.72249
1.86202
1.01607
1.58591
1.75382
1.59089
0.981804
0.867695
1.01142
1.04859
0.891864
1.68749
1.70186
1.94565
1.50224
1.01329
0.673352
0.714122
0.879298
SCALARS Redistribution_Potential float 1
LOOKUP_TABLE default
0.00114302
143776
-330879
-78373
32041.5
144123
-331194
-83487.2
31981.1
147740
-335354
-83672.3
-21815.8
62084
103977
164579
102585
61707.2
-18061.1
-217195
-117096
-222392
167307
167256
-9881.43
109735
-763313
-214470
-219133
-763665
110711
-13629
67202.3
112475
-11401.9
-106982
-216152
-762534
-211466
-106973
-7606.44
111324
-1289.54
50997.6
58262.4
-10770.4
22443.8
-57397.7
131214
97241
112023
103963
59206.2
159812
145871
129558
145041
159324
52080
3515.63
111588
95174.3
-56174.2
21327.5
-10861.5
-54605.9
-34524.6
-137464
-109669
-221918
-175473
-292586
-66568
-294388
-180553
-120524
-136261
170368
161093
160986
170451
162939
171939
163250
98738.1
132767
-52996.7
24967.3
73000.3
61464.6
18527.5
-190044
-136203
-456213
-313631
-289303
-340286
-464005
-340869
-466189
-134455
-189332
-453744
-311993
-290448
25725.2
-54101.4
133740
100036
13542.3
60174.8
72053.9
-5323.14
29716.4
-50315.6
136664
103625
116508
14518.7
62089.3
72781.1
-112132
-130504
-18182.4
-54574.1
-288997
-172925
-215315
-185074
-131868
-452510
-309483
-288004
-337533
-463036
-101452
-49073.3
-215602
-167765
19423.9
-41976.6
-18239
28814.9
73598.5
63248.4
102036
135386
113354
151050
149247
-168902
-42996.8
-104160
-1.4197e+06
-1.41832e+06
-1.41973e+06
-55478.1
-174207
-114789
150357
113290
149750
3701.08
28314.3
32799
15965.2
22566
-9918.12
81845.9
54169.6
79791.6
-47112.3
-34886.7
-71176.2
42976.7
3728.12
25845.6
-40319.9
-19249.9
-639.404
139064
123811
130006
103606
114848
120090
90091.3
104338
82133.8
45328.1
68862.4
81245.5
57030.9
34026.7
104014
80968.3
81706.6
81015.9
103337
153356
147737
158122
154221
163506
138962
126857
138080
146749
152833
125456
137564
118105
163225
153493
157845
130167
149074
129673
30982.3
6120.57
79293.8
55549.5
-4425.93
26048.8
18663.4
129607
122536
80717.4
102866
89659
112791
101590
-70532.5
-34734.1
-47063.9
105.169
-19050.6
-38265
25599.1
3085.65
41843.3
79962.9
67275.8
44966.8
-15535.8
-12731.6
-32471.9
-21813.8
-61991.7
-41803.2
-83455.1
-109012
-97367.4
-160087
-128077
-172310
-80397.7
-56207.6
-267716
-250571
-298553
-153916
-203337
-168578
-285712
-234167
-199824
-85068.5
-153881
-134565
-18900.7
-91258.3
-46132.7
-28346.7
-39311.8
-305799
-250574
-201009
-240874
-289602
-207126
-160551
-98366.4
-109149
-59287.1
-82727.8
-166126
-129468
-167564
-152373
-169093
-99469.3
161268
153847
168441
166245
165519
167091
169943
153876
161471
169977
167133
165447
166465
168531
156676
164162
156921
170662
168872
166473
166689
168967
170739
171843
172708
172676
124385
139787
82601.2
104798
123027
116304
106968
-69173.2
-33166
5960.24
-15531.2
-32862.4
4840.18
43664.8
53266.8
46739.2
26528.5
87795.3
67296.8
91829.5
6892.76
38333.2
27900.5
70931.6
51292.7
85988.5
-133817
-108438
-197672
-159122
-170455
-160055
-194334
-343883
-320667
-320961
-393128
-661521
-357280
-272523
-294166
-309131
-339937
-261951
-339930
-282778
-656215
-411528
-350705
-312128
-326308
-313086
-312226
-343939
-263647
-342025
-657849
-414377
-351137
-108080
-133536
-195730
-158083
-163609
-160425
-195577
-339915
-317000
-301433
-319373
-390777
-660946
-286465
-354901
-270127
-313179
-311172
-325302
-33317
-69569
44201.6
5198.34
-34854.2
-15831.1
5114.78
140066
124856
108382
117609
124422
105414
83188
23863.2
44098.1
52226.1
25114.1
34793
1303.99
91766.9
65818
87959.4
71857.5
86755.4
51319.5
-41709.9
-28658.1
-65098
49024.7
9989.16
31200.5
-31834.3
-11956.7
8152.45
143516
128756
134080
110988
120884
126789
94928.5
109709
87792.8
24362.7
44939.8
52582.6
27173.8
36189.3
2850.25
92954.7
67112.1
89783.7
75701.2
89465.1
54208.2
-91954.9
-103566
-49951.8
-75063.8
-160265
-122743
-160320
8459.14
-1335.97
-79961.1
-31590.2
-48678.9
-13995.9
-27457.4
-300669
-244542
-262149
-194000
-234685
-284234
-160331
-199953
-151977
-89832.1
-143744
-161201
-128782
-103631
-191978
-153892
-166566
-155440
-190410
-339262
-315873
-316930
-388707
-660066
-352622
-267565
-293640
-308586
-339895
-258940
-337962
-280491
-657128
-409379
-347741
-308170
-322606
-309519
-91014.6
-64525.2
-153110
-121411
-29743.7
-72744.8
-46834.5
-262729
-244659
-145213
-196235
-160402
-228027
-193410
26918.3
2276.25
8403.21
-20530.6
-7236.66
8398.74
-48743.5
-27057.1
-71726.6
-145860
-125320
-74806.7
-28476.6
9006.52
-11645
9498.8
48211.9
53501.1
47466.9
89458.8
68455.3
92877.2
39644.4
29908.5
127914
142899
86852.2
108714
125159
119269
109351
54061.8
88510.2
74531.6
72711
113296
93139.6
92829
111911
152163
161967
158474
144442
133632
149099
131010
141421
156395
161126
136886
153718
135932
-245093
-145758
-196697
-229180
-195249
1893.52
-22127.8
-8159.68
-27446.4
-72154.7
-95185.2
-155866
-125027
-76103.9
-49355.1
-126690
-76683.1
-147473
-424208
-1.27864e+06
-660040
-658101
-1.2734e+06
-424146
-1.28006e+06
-658901
-656870
-1.27353e+06
-427697
-1.28079e+06
-660743
-658951
-1.27255e+06
-1.94584e+06
-1.94588e+06
-1.94648e+06
-1816.35
-80538.9
-32046.1
-14969.6
-29111
-245242
-195498
-235728
-200612
-152562
-95851.6
-52280.3
-78230.7
-126048
-163063
-144981
-162688
-91635.5
151447
132450
143309
157906
161714
72649.3
112358
92692.9
93149.6
112711
149528
161228
156747
142299
132001
136435
136243
153647
SCALARS CoVolArea float 1
LOOKUP_TABLE default
0
0
0
0
0
0
0
0
0
0
0
0
0
0
0
0
0
0
0
0
0
0
0
0
0
0
0
0
0
0
0
0
0
0
0
0
0
0
0
0
0
0
0
0
0
0
0
0
0
0
0
0
0
0
0
0
0
0
0
0
0
0
0
0
0
0
0
0
0
0
0
0
0
0
0
0
0
0
0
0
0
0
0
0
0
0
0
0
0
0
0
0
0
0
0
0
0
0
0
0
0
0
0
0
0
0
0
0
0
0
0
0
0
0
0
0
0
0
0
0
0
0
0
0
0
0
0
0
0
0
0
0
0
0
0
0
0
0
0
0
0
0
0
0
0
0
0
0
0
0
0
0
0
0
0
0
0
0
0
0
0
0
0
0
0
0
0
0
0
0
0
0
0
0
0
0
0
0
0
0
0
0
0
0
0
0
0
0
0
0
0
0
0
0
0
0
0
0
0
0
0
0
0
0
0
0
0
0
0
0
0
0
0
0
0
0
0
0
0
0
0
0
0
0
0
0
0
0
0
0
0
0
0
0
0
0
0
0
0
0
0
0
0
0
0
0
0
0
0
0
0
0
0
0
0
0
0
0
0
0
0
0
0
0
0
0
0
0
0
0
0
0
0
0
0
0
0
0
0
0
0
0
0
0
0
0
0
0
0
0
0
0
0
0
0
0
0
0
0
0
0
0
0
0
0
0
0
0
0
0
0
0
0
0
0
0
0
0
0
0
0
0
0
0
0
0
0
0
0
0
0
0
0
0
0
0
0
0
0
0
0
0
0
0
0
0
0
0
0
0
0
0
0
0
0
0
0
0
0
0
0
0
0
0
0
0
0
0
0
0
0
0
0
0
0
0
0
0
0
0
0
0
0
0
0
0
0
0
0
0
0
0
0
0
0
0
0
0
0
0
0
0
0
0
0
0
0
0
0
0
0
0
0
0
0
0
0
0
0
0
0
0
0
0
0
0
0
0
0
0
0
0
0
0
0
0
0
0
0
0
0
0
0
0
0
0
0
0
0
0
0
0
0
0
0
0
0
0
0
0
0
0
0
0
0
0
0
0
0
0
0
0
0
0
0
0
0
0
0
0
0
0
0
0
0
0
0
0
0
0
0
0
0
0
0
0
0
0
0
0
0
0
0
0
0
0
0
0
0
0
0
0
0
0
0
0
0
0
0
0
0
0
0
0
0
0
0
0
0
0
0
0
0
0
0
0
0
0
0
0
0
0
0
0
0
0
0
0
0
0
0
0
0
0
0
0
0
0
0
0
0
0
0
0
0
0
0
0
0
0
0
0
0
0
0
0
0
0
0
0
0
0
0
0
0
0
0
0
0
0
0
0
0
0
0
0
0
0
0
0
0
0
0
0
0
0
0
0
0
0
0
0
0
0
0
0
0
0
0
0
0
0
0
0
0
0
0
0
0
0
0
0
0
0
0
0
0
0
0
0
0
0.0289283
SCALARS SignedDistance float 1
LOOKUP_TABLE default
0.724126
0.490201
0.575954
0.698673
0.723441
0.486937
0.575882
0.697769
0.723601
0.488167
0.574075
0.700803
0.753027
0.508912
0.626096
0.373894
0.57037
0.508965
0.699534
0.956636
1.00343
1.0389
0.371806
0.371391
0.699292
0.570744
2.57712
0.956661
1.03764
2.6007
0.62565
0.752307
0.508237
0.624976
0.754219
1.00099
1.03699
2.53418
0.956069
1.00104
0.698542
0.569786
0.739333
0.697422
0.714394
0.604896
0.627809
0.726969
0.535966
0.565871
0.522134
0.625537
0.681284
0.433906
0.505772
0.497268
0.467346
0.416104
0.619974
0.69937
0.521184
0.499255
0.694465
0.539708
0.604435
0.852688
0.744607
0.792601
0.941536
1.09314
1.65361
0.980101
0.892473
0.948761
2.19593
1.01883
0.790207
0.315448
0.43467
0.416351
0.313463
0.414481
0.315394
0.433043
0.499378
0.495221
0.693998
0.539297
0.680269
0.619057
0.698873
0.917254
0.793565
0.0586891
1.88206
0.973681
1.94923
0.0973782
1.95406
0.100102
0.78874
0.914123
0.0584908
1.87789
0.946578
0.627105
0.73069
0.536548
0.566466
0.73825
0.69708
0.7137
0.604203
0.625367
0.726948
0.536059
0.565698
0.520678
0.738316
0.696589
0.713358
1.01784
0.788301
0.745989
0.895021
0.94874
2.19501
1.09243
0.915659
0.793307
0.0597115
1.88055
0.978589
1.96235
0.101221
0.940129
0.693883
1.09364
1.6522
0.698671
0.851262
0.744727
0.538354
0.680162
0.618778
0.49979
0.495219
0.626674
0.50533
0.466424
1.64027
0.851855
0.942125
3.43765
3.43765
3.43765
0.894806
2.19678
1.02293
0.465672
0.626736
0.504438
0.736544
0.730779
0.726494
0.723017
0.725847
0.746345
0.680005
0.710419
0.666133
0.657431
0.665584
0.7129
0.551784
0.61002
0.547775
0.74618
0.686282
0.708641
0.50633
0.535111
0.51764
0.598537
0.562499
0.574786
0.516287
0.538052
0.536417
0.662566
0.576167
0.626002
0.704646
0.708745
0.639725
0.683009
0.633324
0.663805
0.602145
0.467193
0.491961
0.438645
0.466396
0.40966
0.526248
0.567697
0.488749
0.468164
0.455363
0.526248
0.488422
0.520993
0.388441
0.431505
0.418185
0.560643
0.473793
0.533622
0.692196
0.71181
0.599574
0.659336
0.696778
0.674213
0.646308
0.517789
0.513242
0.501497
0.506368
0.517152
0.512607
0.524223
0.694888
0.633168
0.657572
0.630569
0.628122
0.696814
0.547035
0.568858
0.507097
0.531111
0.496089
0.56182
0.726193
0.730609
0.770573
0.730162
0.782567
0.763882
0.962065
0.750013
0.755044
1.04169
0.830659
0.82445
0.766673
0.787311
0.982631
1.08448
0.885044
1.32089
1.17823
0.996425
0.938623
1.17132
1.33464
1.06213
1.63841
1.60119