# vtk DataFile Version 4.2
vtk output
ASCII
DATASET POLYDATA
POINTS 642 float
0.105873 1.01034 0.438217
0.858329 1.11651 0.493803
0.116143 -0.143653 0.483588
0.872015 -0.0466777 0.531537
0.440115 0.107669 1.01031
0.493823 0.858394 1.11656
0.483589 0.11635 -0.143971
0.531413 0.872109 -0.0467142
1.01029 0.440067 0.107688
1.11666 0.493804 0.858405
-0.143602 0.48368 0.116146
-0.0466561 0.531533 0.871999
-0.11946 0.833817 0.696032
0.051826 0.725284 1.20664
0.29746 0.93322 0.806012
0.780127 1.03648 0.866952
0.521994 1.12754 0.429769
0.725196 1.2068 0.0517874
0.278144 1.094 0.127029
0.164267 0.677013 0.0313803
-0.234888 0.913308 0.24582
-0.161111 0.541223 0.45136
0.867089 0.780091 1.03649
1.03658 0.867125 0.780198
0.127096 0.278112 1.09399
0.429749 0.522114 1.12772
-0.0674002 0.10654 0.197893
0.0316778 0.164169 0.676964
0.541237 0.451361 -0.161373
0.106707 0.197952 -0.0674895
0.933193 0.80611 0.29744
0.833746 0.696101 -0.119459
1.20679 0.0517764 0.725275
0.806136 0.297418 0.933293
0.696107 -0.119474 0.833761
0.245828 -0.234972 0.91326
0.451376 -0.161124 0.541174
0.197919 -0.0674084 0.106553
0.676959 0.0316739 0.164149
0.91325 0.245815 -0.234928
1.09399 0.127089 0.278105
1.12764 0.429752 0.522111
-0.0350126 0.924206 0.561674
0.0746694 0.881045 0.776485
0.205519 0.971492 0.626028
-0.0120828 0.63478 1.07278
-0.0138175 0.771225 0.945984
-0.126359 0.701471 0.808399
0.390117 0.895533 0.971046
0.169944 0.826183 0.989527
0.255515 0.767561 1.15936
0.422137 1.03358 0.627221
0.327594 1.07493 0.431994
0.659827 0.949344 0.993789
0.535919 0.987435 0.820921
0.698236 1.1568 0.445553
0.639656 1.07872 0.651166
0.842055 1.11324 0.706135
0.416896 1.15884 0.234554
0.170211 1.09316 0.266772
0.767506 1.15943 0.255519
0.629169 1.23088 0.211442
0.412534 1.01252 0.03794
0.525604 1.21667 0.058444
0.634676 1.0728 -0.0120495
0.0281416 0.984818 0.189791
-0.0894851 0.975922 0.336786
0.344943 0.770924 -0.00877543
0.195409 0.899441 0.0814448
-0.196202 0.720059 0.19992
-0.0215351 0.802363 0.137799
-0.00286963 0.585978 0.0694426
-0.245383 0.908506 0.452274
-0.18944 0.529117 0.27616
-0.263834 0.762899 0.341086
-0.19483 0.732466 0.558078
-0.110945 0.538077 0.648736
0.98579 1.03912 0.906296
0.949301 0.993747 0.659845
0.706058 0.842052 1.11312
0.90642 0.985618 1.03869
1.11308 0.706123 0.84207
1.03891 0.906396 0.985782
0.993826 0.659733 0.949433
0.211395 0.629294 1.23102
0.445586 0.698239 1.15672
0.0381102 0.412309 1.01193
0.0585472 0.526042 1.21677
0.43158 0.327473 1.07514
0.234377 0.417164 1.15902
0.267118 0.1699 1.09274
-0.0685318 0.343568 0.553424
-0.00855818 0.345001 0.770823
-0.140388 0.269361 0.134127
-0.113035 0.321528 0.336246
0.0695854 -0.00293159 0.585863
-0.0217359 0.149325 0.440463
0.0166761 -0.0233622 0.31755
0.149343 0.440513 -0.0219339
-0.023028 0.317687 0.0165728
0.538139 0.648712 -0.111202
0.343492 0.553517 -0.0687346
0.269458 0.134037 -0.140422
0.321559 0.336206 -0.113213
0.528954 0.275638 -0.18982
0.771135 0.946157 -0.0138456
0.701383 0.80844 -0.126296
0.895538 0.971093 0.39009
0.826096 0.989693 0.169901
0.924289 0.561043 -0.0351876
0.880936 0.776687 0.0745938
0.971444 0.625946 0.205215
1.07285 -0.0120353 0.634765
0.946169 -0.0138596 0.771168
0.808428 -0.126344 0.701456
0.971157 0.390057 0.895549
0.989768 0.169907 0.826126
1.1594 0.255516 0.767526
0.561086 -0.0352123 0.924422
0.776706 0.0745972 0.880994
0.626011 0.205167 0.97155
0.558136 -0.194835 0.732442
0.64875 -0.110957 0.538058
0.336996 -0.0893168 0.975851
0.45223 -0.245482 0.908377
0.276156 -0.189449 0.529044
0.341088 -0.263828 0.76278
0.199929 -0.196246 0.720002
0.553429 -0.0685413 0.343549
0.770826 -0.00857086 0.344991
0.13398 -0.140409 0.269361
0.336234 -0.113044 0.321495
0.585843 0.0695996 -0.00298537
0.440476 -0.0217343 0.149303
0.317604 0.0166892 -0.0233763
0.899467 0.0816286 0.195303
1.01193 0.0380972 0.412291
0.719937 0.199895 -0.196229
0.802295 0.137863 -0.0214648
1.09275 0.267106 0.169899
0.984912 0.189959 0.0281226
0.975849 0.336992 -0.0893114
1.21679 0.0585332 0.525999
1.07508 0.431603 0.327498
1.15899 0.234319 0.417225
1.23106 0.211379 0.62931
1.15685 0.44563 0.698287
0.62739 0.422196 1.03367
0.821056 0.535895 0.987498
0.651249 0.639745 1.07882
0.137869 -0.0214539 0.802325
0.189967 0.0281212 0.984929
0.0816364 0.195317 0.89948
0.0718604 -0.0100264 -0.0643276
-0.0100444 -0.0643477 0.0717922
-0.0643295 0.071797 -0.0100993
0.908372 0.452267 -0.245489
0.762679 0.341112 -0.264227
0.732145 0.558174 -0.194946
1.07878 0.65126 0.639778
1.03361 0.627353 0.422269
0.987446 0.821032 0.535981
0.027621 0.962291 0.504513
0.0847579 0.947751 0.598087
0.161457 0.988532 0.53845
-0.022182 0.855727 0.742734
0.021659 0.906597 0.671628
-0.0863743 0.88277 0.627543
0.253525 0.950881 0.721745
0.135238 0.92617 0.700977
0.179853 0.906229 0.795266
-0.0327276 0.586061 0.977374
-0.0669639 0.667493 0.94062
-0.0846798 0.626822 0.83791
0.0216773 0.7469 1.07495
-0.044388 0.715723 1.03034
0.0046868 0.681247 1.16629
-0.145028 0.78094 0.761312
-0.0901216 0.747695 0.890956
-0.072041 0.81368 0.830243
0.436824 0.874905 1.03921
0.323421 0.836192 1.06646
0.360128 0.809785 1.13634
0.230398 0.880469 0.897084
0.275209 0.855771 0.980609
0.340476 0.916524 0.887405
0.142485 0.73929 1.19018
0.209042 0.797443 1.08069
0.115281 0.762256 1.08681
0.0252562 0.831734 0.862698
0.0736828 0.800556 0.974485
0.123932 0.850436 0.883426
0.264356 1.0245 0.529352
0.227197 1.04598 0.436893
0.365009 0.982808 0.713044
0.315696 1.00371 0.625757
0.432351 1.1078 0.429371
0.3751 1.05374 0.530009
0.472323 1.07912 0.535144
0.588646 0.914931 1.05081
0.523988 0.923719 0.980872
0.651254 1.01197 0.837713
0.596499 0.968903 0.906797
0.731894 0.997076 0.92548
0.467486 0.943646 0.895444
0.41883 0.962529 0.811971
0.776104 1.15154 0.467476
0.766042 1.12263 0.579099
0.851785 1.11645 0.615042
0.577486 1.10472 0.545606
0.668621 1.11862 0.557593
0.609177 1.14489 0.431552
0.816272 1.06673 0.792857
0.74096 1.09922 0.678184
0.702543 1.05546 0.754219
0.478613 1.01289 0.724725
0.587896 1.03591 0.737642
0.530625 1.05566 0.638692
0.250601 1.08461 0.344272
0.139844 1.04755 0.343752
0.469804 1.14775 0.322692
0.367822 1.11883 0.335105
0.217531 1.11047 0.186931
0.29638 1.11835 0.252234
0.345356 1.15598 0.172704
0.809754 1.13641 0.360111
0.745219 1.19352 0.347038
0.67857 1.26634 0.119253
0.71427 1.24507 0.225646
0.739225 1.19029 0.142486
0.66264 1.19421 0.319814
0.576929 1.17285 0.313967
0.465897 0.952209 0.000750014
0.529461 1.05514 0.00602328
0.585916 0.977426 -0.0327475
0.410914 1.15516 0.095165
0.471254 1.11997 0.0441212
0.344488 1.06416 0.0761439
0.681159 1.1664 0.00462736
0.585005 1.17206 0.00721628
0.635125 1.2618 0.0283796
0.524828 1.2005 0.215954
0.582491 1.24566 0.122262
0.467782 1.21284 0.145242
0.0400867 1.03164 0.300881
0.00548631 0.994304 0.385326
0.143572 1.04324 0.149731
0.0867934 1.05753 0.219284
-0.183323 0.955753 0.289711
-0.051726 1.01074 0.253055
-0.100135 0.945126 0.21845
0.428782 0.81328 -0.0248546
0.374323 0.892638 0.0133283
0.175538 0.793923 0.0573615
0.270069 0.840034 0.0365696
0.248893 0.721609 0.0131668
0.300707 0.953849 0.0552974
0.230362 0.996035 0.105377
-0.172144 0.616688 0.157713
-0.10037 0.651634 0.132081
-0.0697673 0.539991 0.0927436
-0.119904 0.854131 0.201661
-0.115104 0.763431 0.17098
-0.230753 0.831173 0.225091
0.0820047 0.634706 0.0491062
-0.0132565 0.699073 0.109215
0.0719737 0.742707 0.0847043
0.109641 0.946143 0.131826
0.0870479 0.848078 0.113332
-0.0032535 0.896572 0.162033
-0.0733665 0.953892 0.444189
-0.276421 0.929675 0.338333
-0.185636 0.943257 0.388319
-0.142261 0.914759 0.502197
-0.181452 0.868144 0.561444
-0.181423 0.508303 0.19877
-0.226459 0.629923 0.226283
-0.208135 0.656917 0.395511
-0.230059 0.653587 0.309519
-0.18075 0.541042 0.364778
-0.281839 0.750335 0.255623
-0.31477 0.85418 0.287064
-0.119564 0.624854 0.727174
-0.0832783 0.532621 0.745891
-0.186504 0.792465 0.629592
-0.154452 0.714842 0.680834
-0.143782 0.540382 0.542662
-0.154635 0.633981 0.607374
-0.183019 0.646874 0.503969
-0.280683 0.844708 0.391611
-0.236173 0.752663 0.448453
-0.242388 0.822169 0.504632
0.927908 1.09135 0.690665
0.914858 1.05079 0.588631
0.900083 1.05477 0.90032
0.914889 1.08231 0.805245
0.997129 0.92555 0.732002
0.965901 1.01424 0.782546
1.02119 0.969843 0.858793
0.615035 0.851795 1.11636
0.690663 0.928007 1.09139
0.900401 0.899973 1.05476
0.805116 0.914889 1.08216
0.792854 0.816126 1.06666
0.782367 0.966054 1.01433
0.858701 1.0212 0.969732
1.11648 0.615055 0.85179
1.09127 0.690636 0.927817
1.05088 0.588588 0.914922
1.05485 0.900399 0.900074
1.08218 0.805307 0.914903
1.06684 0.792995 0.816291
0.925534 0.731918 0.997109
1.01434 0.782475 0.966061
0.969887 0.858813 1.02125
0.976175 1.05648 1.00656
1.00665 0.976264 1.0566
1.05634 1.00652 0.976212
0.347057 0.745254 1.19346
0.467555 0.776181 1.15164
0.119179 0.678741 1.26637
0.22563 0.714359 1.24498
0.43164 0.609136 1.14527
0.319799 0.66265 1.19418
0.313992 0.577022 1.17317
0.00131126 0.466106 0.951879
0.00575963 0.529902 1.05478
0.095308 0.410659 1.15546
0.0479321 0.473103 1.11792
0.0763275 0.344199 1.06401
0.00703535 0.585294 1.17213
0.0282707 0.635313 1.26183
0.436795 0.23058 1.04689
0.343979 0.25018 1.08453
0.342064 0.141321 1.04815
0.322605 0.470018 1.14791
0.334737 0.368296 1.11918
0.429378 0.432693 1.10795
0.186907 0.217543 1.11042
0.251979 0.296717 1.11871
0.17262 0.345561 1.15595
0.122085 0.582748 1.24572
0.145039 0.467992 1.21313
0.215787 0.525103 1.2006
-0.0614101 0.441268 0.712471
-0.0247402 0.42878 0.813133
-0.114448 0.435299 0.50253
-0.0893129 0.439883 0.599792
0.0136801 0.248953 0.721518
-0.0397128 0.344266 0.659439
-0.0178768 0.257379 0.609867
-0.146 0.36121 0.121709
-0.158727 0.394796 0.208872
-0.0887675 0.218043 0.273818
-0.132629 0.295699 0.235817
-0.0996105 0.180068 0.160956
-0.153514 0.415651 0.305638
-0.139818 0.425971 0.396755
0.0927915 -0.0698441 0.539878
0.0430956 -0.0113982 0.452495
0.0567609 -0.0789132 0.38686
0.00299513 0.157971 0.556092
0.0218363 0.0738439 0.508564
0.0492672 0.0819891 0.634643
-0.0289212 0.0458896 0.245691
-0.00225423 0.0634904 0.380177
[...]
POINT_DATA 642
SCALARS Normal_Velocity float 1
LOOKUP_TABLE default
0.0458516
0.0196887
0.0183597
0.0469845
0.0457379
0.0196946
0.0186129
0.0471518
0.0456205
0.0196828
0.0183881
0.0469602
0.0287446
0.00619767
0.0610108
0.0477054
0.0550863
0.00609846
0.0267029
0.0570079
0.0142122
0.0570963
0.0479076
0.0477869
0.0266646
0.0552378
0.0395438
0.0566202
0.0574052
0.0396054
0.0611021
0.028745
0.00613291
0.0611395
0.0288013
0.0141324
0.057124
0.0395519
0.056631
0.0141472
0.0266716
0.0550894
0.0566601
0.0462186
0.0642562
0.0418986
0.0396011
0.0236201
0.0455969
0.046165
0.0461609
0.0564087
0.0619435
0.0542128
0.0677592
0.0442068
0.0623089
0.0282451
0.050467
0.0233108
0.0461494
0.0412029
0.0569242
0.0187086
0.0419858
0.0306199
0.0405544
0.0602805
0.0416331
0.040432
0.0391791
0.0331841
0.0107787
0.0365835
0.0330492
0.044606
0.0573776
0.0317751
0.0540594
0.0283829
0.0324776
0.0283674
0.0321254
0.0541739
0.0413289
0.0445148
0.055863
0.0182025
0.0618434
0.050484
0.0232264
0.0514488
0.0598936
0.0221647
0.0556562
0.0330174
0.0602274
0.0393366
0.0605719
0.0392185
0.057792
0.051805
0.0224376
0.0558761
0.0373689
0.0395974
0.0236929
0.0455917
0.0460747
0.0567291
0.0463282
0.0642472
0.041952
0.0396612
0.0236656
0.0456598
0.0462572
0.0464541
0.0566336
0.0464366
0.0643786
0.0446189
0.0574107
0.0404784
0.0108231
0.0365985
0.0330601
0.0403975
0.0514672
0.0599059
0.0224094
0.0556769
0.0330335
0.0602462
0.0393189
0.0414369
0.0558693
0.0403642
0.0389985
0.0231942
0.0304889
0.04043
0.018173
0.061768
0.0505697
0.0413778
0.0442876
0.0564107
0.0678256
0.0621406
0.038991
0.0304871
0.0414312
0.0292992
0.0292901
0.029289
0.0108051
0.0335304
0.0448011
0.0622571
0.0563895
0.0677085
0.0570728
0.0568131
0.0692265
0.058567
0.0415062
0.042201
0.0636338
0.0601937
0.0491151
0.0489449
0.037734
0.0595063
0.0331772
0.011623
0.0243943
0.0184876
0.0210541
0.0230592
0.05308
0.0486104
0.0305196
0.0494566
0.0630662
0.0506875
0.0372076
0.0432602
0.0632673
0.044048
0.0406329
0.0650746
0.0543659
0.0551086
0.0755031
0.0602027
0.0463209
0.0653606
0.0612433
0.0363051
0.056395
0.0570997
0.063542
0.0533147
0.0558748
0.0612465
0.0313179
0.0498209
0.0289842
0.0433276
0.0488486
0.0525591
0.0544275
0.0379253
0.0624468
0.0520788
0.0545613
0.0669263
0.048046
0.0623739
0.0528388
0.0493961
0.0214929
0.0530155
0.0227986
0.0304937
0.019896
0.00196012
0.00431522
0.0371187
0.0506701
0.064535
0.0578288
0.0470987
0.0490354
0.0284253
0.0421582
0.0348721
0.0242549
0.0341348
0.0248361
0.0510071
0.0381097
0.0224897
0.0384759
0.0522109
0.0202235
0.0208337
0.0292718
0.0171453
0.0295093
0.0675441
0.0490425
0.0437277
0.0560928
0.060312
0.0396136
0.0471691
0.02198
0.0455356
0.0446267
0.0548364
0.0434038
0.0297549
0.0464132
0.0559344
0.0480516
0.0437715
0.0616854
0.0353893
0.0474217
0.00232831
0.0412767
0.0441581
0.0265714
0.023772
0.0209503
0.061499
0.0414282
0.0431579
0.0130001
0.0132088
0.0462949
0.0522331
0.0213204
0.0450904
0.0363079
0.0456288
0.0457917
0.0312716
0.0433125
0.0241142
0.0133557
0.0364219
0.0422206
0.0152984
0.053323
0.0517552
0.0436843
0.0290882
0.0132325
0.0420305
0.0154737
0.0540397
0.0516369
0.0435287
0.0289867
0.0133193
0.0363719
0.0420044
0.0154358
0.0543653
0.0531751
0.0514866
0.0434918
0.026283
0.0266711
0.0261755
0.0199295
0.0312987
0.0019614
0.00433064
0.0518389
0.0507945
0.0642268
0.0594413
0.045881
0.0266265
0.0478386
0.0348105
0.0336657
0.0248782
0.0557011
0.0480058
0.063305
0.0530588
0.0494994
0.0465518
0.021456
0.0520971
0.0228848
0.0381695
0.0222991
0.0511632
0.0478583
0.0672984
0.0552072
0.0627793
0.0607347
0.0557672
0.0729946
0.0221355
0.0354006
0.054399
0.0288356
0.0416167
0.0411402
0.0377051
0.0445123
0.047091
0.0299611
0.0582808
0.0468461
0.0461851
0.044145
0.0582562
0.0469085
0.0647297
0.0486459
0.0475492
0.0472257
0.0299108
0.0587092
0.0467402
0.0442261
0.0577016
0.0469523
0.0523528
0.0480766
0.0555745
0.0629766
0.0367952
0.0562205
0.0674846
0.0221858
0.0357016
0.0240829
0.054645
0.0289877
0.0418271
0.043608
0.041248
0.0379011
0.0478883
0.0649103
0.0489139
0.0377472
0.0594909
0.0331641
0.0116097
0.0185076
0.0210649
0.02304
0.0531308
0.0485265
0.0495126
0.0631961
0.0507386
0.0432962
0.0632174
0.0569428
0.0566007
0.0697827
0.0586701
0.0415054
0.0421268
0.0636678
0.0600683
0.0491656
0.0407094
0.065143
0.0439677
0.0489669
0.0377727
0.0595051
0.0333602
0.0115155
0.0242374
0.0184781
0.0210794
0.0230672
0.0531925
0.0485409
0.0305503
0.0496649
0.0632151
0.0508536
0.037311
0.0432399
0.0601864
0.0570705
0.0567962
0.0695945
0.0587125
0.0416322
0.0421909
0.0638266
0.059067
0.0493355
0.0407943
0.065136
0.0439988
0.0463092
0.0522448
0.021333
0.0451091
0.0363529
0.0456625
0.0458388
0.0518799
0.0475007
0.00227172
0.0411941
0.029127
0.0441872
0.026599
0.0237781
0.0209487
0.0219729
0.0615107
0.0414799
0.0432107
0.029814
0.0129831
0.0131938
0.0241559
0.031256
0.0433732
0.0478856
0.0673256
0.055235
0.0628005
0.060752
0.0557864
0.0730109
0.0222159
0.0354146
0.054416
0.0288263
0.0416163
0.0411565
0.0377214
0.0444974
0.0470851
0.0299314
0.0582891
0.0468631
0.0461914
0.0441488
0.0582588
0.0469263
0.0647423
0.0486626
0.0475714
0.0486438
0.0594582
0.0433503
0.0597749
0.0348197
0.0393629
0.0469412
0.0220866
0.0453275
0.0546573
0.0432165
0.029818
0.0574129
0.0478155
0.0633141
0.0384796
0.0518524
0.0203577
0.0207822
0.0214319
0.029126
0.0171055
0.0298852
0.0615709
0.0352538
0.0436633
0.0458884
0.0266284
0.047858
0.0336864
0.0249121
0.055645
0.0478946
0.0528395
0.0494671
0.0465363
0.0528948
0.0228221
0.0199486
0.0313507
0.00202737
0.00420301
0.0527394
0.0507093
0.0647082
0.0223313
0.0509974
0.0382234
0.0545076
0.0746725
0.0603607
0.0653131
0.061362
0.0564523
0.0572432
0.0633051
0.056148
0.0614982
0.0499255
0.0433723
0.0490498
0.0378471
0.0624807
0.0522959
0.0547214
0.067037
0.0453365
0.0546383
0.0432264
0.0574164
0.0478126
0.0385042
0.0203577
0.0207879
0.0171052
0.0298825
0.0486216
0.0433393
0.0597611
0.0393509
0.0469266
0.0352581
0.0436523
0.061572
0.015289
0.0336155
0.0422368
0.0195468
0.0313926
0.0152646
0.0336013
0.0422459
0.0195575
0.0314449
0.0161151
0.0336256
0.0422189
0.0193833
0.0314494
0.00389637
0.00387228
0.00386867
0.0474996
0.00220526
0.0411869
0.0440646
0.0265955
0.0210446
0.0575093
0.0419282
0.0131293
0.0122707
0.0465358
0.0213633
0.0453204
0.0443101
0.0461375
0.03137
0.0437284
0.0242551
0.050079
0.0433703
0.0489801
0.0380049
0.0626162
0.0544221
0.0755362
0.0602537
0.0652798
0.0613106
0.0563366
0.0573322
0.0637305
0.0560582
0.0614045
0.0669616
0.0521475
0.0546319
SCALARS Mean_Curvature float 1
LOOKUP_TABLE default
1.08966
11.1544
9.46688
0.848508
1.08128
11.1653
9.20013
0.817566
1.09089
11.1653
9.44539
0.849116
4.38864
13.4922
0.150829
1.26806
0.429745
13.5104
6.06353
0.115973
13.0241
-0.251302
1.28746
1.28936
6.07548
0.411029
1.04479
0.160933
-0.287062
1.04045
0.151377
4.38423
13.4921
0.147
4.37175
13.0445
-0.249048
1.04518
0.161034
13.0408
6.07582
0.430742
0.15681
0.786907
-0.0481462
-1.38345
0.794326
6.06228
0.978019
1.19237
1.12396
0.637649
-0.143729
-0.988517
-0.476227
1.60993
-0.282143
8.41076
-0.859445
6.32071
1.12264
1.62923
-0.613637
11.5778
-1.39552
2.69162
-0.481272
0.110526
0.895556
1.78884
1.54102
1.50486
13.8549
1.42699
-0.178853
0.138049
-0.115221
7.68154
-0.994754
8.35662
7.49981
8.34476
7.59138
-0.949747
1.67322
1.53208
-0.384475
11.776
-0.126067
-0.857786
6.35517
0.557197
0.162919
7.19839
-0.253108
1.53306
-0.385051
0.460877
-0.405893
0.506538
-0.151076
0.522141
7.0852
-0.255341
1.22652
0.806816
6.02674
0.986132
1.19135
0.138715
0.779217
-0.0433591
-1.42013
0.799357
6.04645
0.980716
1.15615
1.07589
0.174065
0.766348
-0.0544912
0.136558
-0.116245
-0.509429
13.8577
1.42974
-0.182812
1.79513
0.557061
0.163096
7.08909
-0.252598
1.53166
-0.385218
0.463097
0.936642
-0.383511
1.80181
1.58341
6.36938
2.70993
-0.501221
11.7824
-0.12257
-0.86739
1.65831
1.59422
0.636615
-0.464122
-0.271053
1.58462
2.71015
0.936166
6.89647
6.90876
6.90955
13.8659
-0.0862853
0.0837451
-0.274592
0.640279
-0.471521
-0.0816882
0.158269
-0.577254
-1.17098
1.9237
1.71905
-0.0589449
0.107955
0.902322
0.714222
2.71632
-1.05527
5.59579
15.1309
9.6204
12.8224
11.2319
7.44977
-0.512534
1.51375
6.17664
0.622683
-0.810276
1.02958
3.01973
1.10578
-2.37791
1.47945
1.08895
-0.779579
0.509917
0.400688
-0.652466
0.278809
1.22847
-0.178778
0.0984443
4.37991
0.166947
0.304016
-0.246918
0.124224
0.265886
0.0423811
6.7322
0.793884
7.99085
1.31
1.26244
0.106025
-1.1171
2.54915
-0.526216
0.703664
0.729625
-0.367094
0.824958
-1.41224
0.207302
0.825572
10.5568
-0.583585
9.49347
6.1903
12.0749
14.0689
15.8452
3.0288
1.08962
-1.40015
-0.117347
0.669957
0.70366
7.33136
2.57914
3.16096
9.65173
6.63112
18.5584
0.605282
4.88521
10.0454
2.40939
0.106068
8.64487
10.0372
8.21714
13.9961
6.47925
-0.731856
0.533396
0.89602
0.121784
-0.198465
1.7715
-0.958651
7.44802
1.06492
-0.179717
-1.80207
0.375867
4.70589
0.821319
-0.476255
0.422898
1.25095
-0.822839
1.20852
0.542824
15.6522
2.14061
1.52801
7.17736
5.19871
10.7186
-1.35308
1.72316
0.775427
15.0827
17.3809
0.675706
0.410335
9.85436
0.237496
1.52567
0.791811
0.0991635
6.6594
1.43047
9.51815
13.1744
4.36325
4.08631
11.8452
0.143914
0.528996
3.43596
7.95381
13.2072
4.1463
11.7853
-1.11873
0.619769
3.46842
7.99749
13.1496
4.37603
4.14301
11.7972
-1.06387
0.116508
0.600058
3.46194
17.3261
17.3705
17.2936
12.0654
6.77173
14.0895
15.8285
0.218748
1.04347
-1.33206
-0.27539
1.14168
7.95424
0.948831
3.18524
6.80654
18.5796
0.35096
0.84354
-1.51979
0.192774
0.837879
1.21679
10.5697
-0.506831
9.44984
4.88233
10.0984
0.561152
0.707423
-0.714048
0.207153
-0.250259
-0.205333
0.340293
-0.707127
7.47765
2.51764
-0.554738
2.78997
0.109854
1.22381
1.40906
-0.166993
0.68165
3.53624
-0.0293419
0.42239
0.854273
0.236321
-0.361322
0.572897
-0.468385
0.626197
0.820062
0.664418
3.56501
-0.0745774
0.468598
0.237613
-0.310928
0.579806
0.404156
0.688168
0.180822
-0.261291
1.46106
0.287071
-0.420892
7.4223
2.38448
5.9909
-0.51901
2.77191
0.0893012
0.699764
1.20831
1.40607
0.782299
-0.476303
0.616434
2.71311
-1.05333
5.58766
15.1362
12.8094
11.2192
7.46396
-0.506843
1.52416
0.623727
-0.817842
1.023
1.09769
-2.35471
-0.077319
0.170074
-0.580935
-1.17192
1.91482
1.73282
-0.0582209
0.123423
0.90175
1.08287
-0.775014
1.48765
0.713658
2.72018
-1.05273
5.51438
15.1574
9.65688
12.8408
11.2201
7.45545
-0.521164
1.53055
6.17704
0.611559
-0.8182
1.02476
2.95979
1.15058
-2.20441
-0.0872752
0.157291
-0.553786
-1.17228
1.89977
1.72517
-0.0565987
0.18126
0.889123
1.06568
-0.772955
1.4865
0.676807
0.410907
9.86015
0.235382
1.52624
0.790889
0.0976599
0.132013
0.526042
15.6613
2.2029
8.28175
1.52302
7.19032
5.19312
10.7217
7.45922
-1.34768
1.71383
0.773547
4.73676
15.089
17.3707
9.50547
6.66919
1.42813
0.707137
-0.713754
0.206654
-0.249987
-0.205408
0.340219
-0.706767
7.41377
2.51689
-0.553727
2.79149
0.117365
1.22463
1.40924
-0.159786
0.681972
3.54118
-0.0290016
0.421662
0.854467
0.235771
-0.360782
0.572184
-0.467803
0.626179
0.819157
0.585472
-0.275375
0.952162
-0.112913
3.18408
1.81191
-0.917764
7.31548
1.10735
-1.90464
0.435624
4.76067
-0.659796
0.462335
-1.523
2.35752
0.132459
8.63903
10.024
10.5885
8.28104
14.0372
6.32858
-0.81198
1.25545
1.2648
1.14576
7.95641
0.947035
6.80384
18.5718
0.353968
0.85633
0.208791
0.822091
1.22875
-0.571745
9.47209
12.0517
6.77689
14.0963
15.8521
0.119615
1.1004
-1.41338
10.0879
0.61946
4.86311
0.510775
-0.597233
0.273676
-0.174584
0.092641
0.159765
0.309221
-0.24255
0.257439
0.0405662
0.809753
1.29687
1.23403
2.60074
-0.533632
0.686565
0.718306
-0.370998
1.10111
-1.9
0.434865
-0.660617
0.462525
2.35454
8.64018
10.024
14.0389
6.32901
0.585841
0.952405
-0.112913
1.81232
-0.917899
1.2545
1.26598
-0.812484
11.863
3.27349
1.17336
11.0586
3.81568
11.88
3.2775
1.16982
11.056
3.80254
11.5208
3.26812
1.18913
11.1383
3.80165
16.8488
16.855
16.85
0.521355
15.6773
2.18482
1.54944
7.18666
10.6526
-1.00464
1.57162
15.0401
17.3464
0.646371
9.81847
0.18916
1.05674
0.137006
6.61928
1.31688
9.46301
0.794052
1.30806
1.2488
2.57286
-0.535888
0.518529
-0.645907
0.276192
-0.172404
0.0928542
0.168877
0.296363
-0.241771
0.269196
0.0391678
-0.366232
0.700782
0.726953
SCALARS Redistribution_Potential float 1
LOOKUP_TABLE default
-1.24043e-10
-0.392245
-0.124448
0.0143653
0.0284818
-0.392417
-0.12589
0.0139134
0.029125
-0.393858
-0.125618
0.0151019
-0.240937
-0.787232
0.159393
-0.440815
-0.0548646
-0.787279
-0.273386
0.308257
-0.618755
0.108905
-0.441854
-0.443061
-0.272634
-0.0562789
-0.0936669
0.31046
0.107094
-0.0944726
0.159265
-0.24117
-0.788983
0.157785
-0.241714
-0.618908
0.108816
-0.0929211
0.310279
-0.619135
-0.272715
-0.0556299
-0.100986
0.00236738
0.208657
-0.496021
-0.31835
-0.212937
-0.0710339
-0.167295
-0.490067
0.179641
0.0862068
-0.353001
0.0277579
-0.311068
-0.0889006
-0.507661
-0.298781
-0.201805
-0.490071
-0.628256
-0.145407
-0.687815
-0.495796
-0.219611
-0.349695
0.280097
0.0673802
-0.311896
-0.0248386
0.136071
-0.546623
-0.0899286
-0.452808
-0.207132
0.170086
-0.90158
-0.353134
-0.50851
-0.900644
-0.510609
-0.90247
-0.354441
-0.629497
-0.311639
-0.141561
-0.685966
0.0837563
-0.299821
-0.200413
0.339897
0.281829
-0.181744
0.154311
0.138043
0.260099
-0.0516001
0.257597
-0.0537148
0.168166
0.338229
-0.180097
0.153717
-0.0908972
-0.318858
-0.213261
-0.0713381
-0.167938
-0.101653
0.00178253
0.207925
-0.497084
-0.32009
-0.213871
-0.072634
-0.169982
-0.491772
-0.10243
0.000784002
0.206532
-0.207681
0.16966
-0.349461
-0.54732
-0.0895066
-0.453116
-0.311612
0.339852
0.281492
-0.180034
0.154849
0.137768
0.260245
-0.0515226
0.0684402
-0.142017
-0.311913
-0.0230269
-0.200122
-0.217917
-0.349378
-0.686609
0.0844576
-0.299663
-0.630139
-0.312126
0.178337
0.0259717
-0.0904321
-0.0227811
-0.2179
0.0686367
-0.466553
-0.466582
-0.467132
-0.547236
-0.455967
-0.209095
-0.0903957
0.178977
0.0267385
-0.00662868
0.0955771
0.167424
-0.1113
-0.00710368
-0.192866
0.200114
0.131634
0.115276
-0.214236
-0.286955
-0.0832395
-0.495426
-0.443896
-0.743517
-0.267661
-0.305779
-0.236482
-0.20921
-0.25574
-0.385463
0.0360912
-0.0885572
0.0607971
-0.659136
-0.323834
-0.423169
-0.137688
-0.234438
-0.0321401
0.19249
0.104324
0.224662
0.236428
0.0170399
0.170706
0.101496
-0.363149
-0.171893
-0.133789
-0.123542
-0.38722
0.0145199
0.144342
-0.382943
-0.352934
-0.461731
-0.0174907
-0.173299
-0.178116
-0.475796
-0.288346
-0.188452
0.151983
0.014695
0.0921343
-0.042241
-0.0742643
-0.154351
-0.0668239
-0.279281
-0.203401
-0.350712
-0.385666
-0.470494
-0.826741
-0.639367
-0.659098
-0.437971
-0.294251
-0.0329487
-0.322809
-0.214365
-0.442237
-0.427645
-0.235617
-0.743517
-0.671528
-0.865346
-0.4493
-0.748856
-0.534302
-0.208385
-0.141595
-0.198325
-0.244924
-0.566869
-0.314198
-0.346172
0.212338
0.110298
0.223442
0.199766
0.315855
0.0102445
-0.0898394
-0.169849
-0.0581258
0.0234926
-0.275234
-0.160222
-0.503365
0.237615
0.0841293
0.179764
-0.0643811
0.0766016
-0.114476
-0.218389
-0.686762
-0.503299
-0.325339
-0.355975
-0.131961
-0.26526
-0.129128
-0.248356
0.0104044
-0.464262
-0.653647
-0.00873815
0.156173
-0.2818
-0.154762
0.149788
0.0213282
-0.0273055
-0.58734
-0.315966
-0.424533
-0.534791
-0.362814
-0.775442
-0.650418
-0.388866
-0.594377
-0.755431
-0.462644
-0.535493
-0.775013
-0.649654
-0.475853
-0.593527
-0.753784
-0.464359
-0.537162
-0.364696
-0.777115
-0.652382
-0.478323
-0.388725
-0.595301
-0.755223
-1.01996
-1.02028
-1.02055
-0.470615
-0.383248
-0.827454
-0.639908
-0.179523
-0.438967
-0.296048
-0.030855
-0.320961
-0.438428
-0.420741
-0.232418
-0.67059
-0.866138
0.108562
-0.0455826
-0.0639065
-0.155671
-0.0669208
0.0172489
-0.27771
-0.202917
-0.3506
-0.749851
-0.534055
-0.450282
0.266327
0.213939
0.265614
0.297344
0.31858
0.357839
0.380567
-0.1582
-0.0785564
0.0985866
-0.000806212
-0.135756
0.0603451
0.183721
0.0249288
0.0809753
-0.0745378
0.335141
0.235713
0.239625
-0.0581963
0.142886
0.145857
0.293968
0.254661
0.349205
0.0790076
-0.0762664
0.332505
0.233122
-0.0597319
0.140332
0.143652
0.155184
0.265426
0.265037
0.296538
0.147269
0.355732
0.37724
-0.157308
-0.0784249
-0.133897
0.0970735
-0.000239351
-0.135568
0.00966095
0.0605557
0.183217
0.347227
0.293165
0.253056
-0.287304
-0.08376
-0.496126
-0.444288
-0.267996
-0.306099
-0.23687
-0.209441
-0.25601
0.0358219
-0.0888915
0.0605254
-0.324273
-0.423864
1.62941e-05
0.0930865
0.173897
-0.111674
-0.00531823
-0.191928
0.201215
0.13336
0.11507
-0.235194
-0.0325433
-0.138163
-0.215108
-0.288074
-0.0841657
-0.497671
-0.445421
-0.745036
-0.268642
-0.307047
-0.237752
-0.21078
-0.257818
-0.387151
0.0344729
-0.09062
0.0592218
-0.660993
-0.326645
-0.426105
-0.000925359
0.0919329
0.172795
-0.112429
-0.00621252
-0.192398
0.199563
0.132055
0.113789
-0.236827
-0.0338671
-0.139205
-0.00935463
0.155606
-0.282462
-0.155485
0.149513
0.020897
-0.0276266
-0.132067
-0.219442
-0.687874
-0.503359
-0.566166
-0.324788
-0.356108
-0.131217
-0.265081
-0.169328
-0.129281
-0.248365
0.0105497
-0.503218
-0.464516
-0.654494
-0.424822
-0.587963
-0.316259
0.265943
0.213477
0.265577
0.29711
0.318369
0.357629
0.380465
-0.15666
-0.0776018
0.0993154
0.000238049
-0.134546
0.060877
0.183972
0.024842
0.0808435
-0.0744091
0.335079
0.235654
0.239442
-0.0578066
0.143039
0.146253
0.294171
0.25501
0.349296
0.111432
-0.0313929
0.224896
0.201446
-0.232711
0.0110243
-0.0894762
-0.170445
-0.0573539
-0.273249
-0.159101
-0.503649
0.0859041
0.181011
-0.0635901
-0.202459
-0.131699
-0.197103
-0.241266
-0.27754
-0.566284
-0.310464
-0.344219
0.0775429
-0.112576
-0.0633852
-0.321618
-0.438789
-0.421283
-0.671551
-0.867233
0.109197
-0.0448826
-0.155102
-0.0659304
0.0177771
-0.202267
-0.350558
-0.471738
-0.384451
-0.828597
-0.640918
-0.179011
-0.439324
-0.295622
-0.534547
-0.450679
-0.750618
0.189239
0.222867
0.237328
0.172288
0.100672
-0.173483
-0.135376
-0.12532
0.0127901
0.142475
-0.354231
-0.0186902
-0.174723
-0.290049
-0.189794
0.150575
0.013299
0.0910714
-0.0570213
-0.272963
-0.158687
0.0861806
0.181237
-0.202641
-0.197093
-0.241383
-0.310447
-0.344038
0.111866
0.225116
0.20172
0.0113148
-0.0893176
-0.112417
-0.0632639
0.0777475
-0.209719
-0.341525
-0.234124
-0.28278
-0.360688
-0.209827
-0.341926
-0.234211
-0.282566
-0.360277
-0.212031
-0.342434
-0.235926
-0.284219
-0.361077
-0.558565
-0.558726
-0.558706
-0.219044
-0.688081
-0.503293
-0.324577
-0.355942
-0.265915
-0.132418
-0.24981
-0.465644
-0.65575
-0.0099509
-0.282414
-0.156102
0.0174791
-0.0313956
-0.588881
-0.318152
-0.424817
-0.355374
-0.0183836
-0.17485
-0.290968
-0.190353
0.190011
0.22435
0.238507
0.172745
0.100941
-0.172166
-0.135316
-0.124563
0.0137982
0.143863
0.091386
0.151389
0.0135271
SCALARS CoVolArea float 1
LOOKUP_TABLE default
0.0104931
0.00966635
0.00981719
0.0110349
0.0110024
0.00966875
0.00981604
0.0110318
0.0110025
0.00966947
0.00981943
0.0110354
0.0101869
0.00943775
0.0112173
0.0110319
0.01124
0.00943565
0.0100634
0.0112371
0.00937436
0.011264
0.0110292
0.0110278
0.0100492
0.011231
0.0110632
0.0112366
0.0112649
0.0110609
0.0112132
0.0101815
0.00943546
0.0112117
0.0101806
0.0093703
0.0112634
0.0110636
0.0112365
0.00937282
0.0100486
0.0112331
0.0109664
0.0108513
0.0112583
0.0102651
0.0102171
0.0100194
0.0110591
0.0109822
0.0102297
0.0109584
0.011143
0.0109366
0.0110258
0.0105217
0.0109014
0.00967667
0.0106885
0.0101586
0.0102292
0.0100256
0.0108851
0.00956457
0.0102787
0.0102218
0.0105382
0.011179
0.010847
0.0101909
0.0109655
0.0110721
0.00959802
0.0105465
0.0102674
0.010566
0.0110768
0.00936577
0.0109402
0.00967408
0.00937187
0.00966587
0.00936244
0.0109377
0.0100187
0.0105242
0.0108893
0.0095813
0.0110914
0.0106768
0.0100885
0.0109471
0.0111759
0.0098138
0.0108915
0.011075
0.010998
0.010851
0.0109944
0.0108458
0.0110762
0.0109448
0.00982766
0.0108898
0.0105545
0.010216
0.0100239
0.0110589
0.0109799
0.0109032
0.0108352
0.0112113
0.0102671
0.0102159
0.0100199
0.0110607
0.0109764
0.0102294
0.0109008
0.0108367
0.0112085
0.0105652
0.0110765
0.0104578
0.0095865
0.0105468
0.0102679
0.0101861
0.0109472
0.0111757
0.00982009
0.0108914
0.0110731
0.010998
0.0108494
0.0108484
0.010889
0.010194
0.0109694
0.0100883
0.0102066
0.0104568
0.00958276
0.0110912
0.0106778
0.0100194
0.0105245
0.0109411
0.0110229
0.0108999
0.0109692
0.0102062
0.0108483
0.00953007