# vtk DataFile Version 4.2
vtk output
ASCII
DATASET POLYDATA
POINTS 642 float
-0.771463 0.845658 -0.0183242
0.689753 0.815658 -0.0221711
-0.782771 -0.939375 -0.0258864
0.705438 -0.903888 -0.0204055
-0.0254768 -0.555322 0.824445
-0.0227002 0.49305 0.807259
-0.0301047 -0.574936 -0.910262
-0.0355192 0.514017 -0.894257
1.1745 -0.0226775 -0.597591
1.15473 -0.020807 0.52637
-1.30348 -0.0173635 -0.633713
-1.28088 -0.0224889 0.565377
-1.20197 0.524324 0.326068
-0.7285 0.3092 0.805876
-0.46403 0.774804 0.469489
0.401541 0.770377 0.462137
-0.02196 0.924568 -0.01843
0.405691 0.784232 -0.524563
-0.465248 0.802221 -0.537844
-0.749099 0.309632 -0.865135
-1.21726 0.536286 -0.369619
-1.56317 -0.0151001 -0.015021
0.645339 0.292853 0.782376
1.08668 0.497584 0.30876
-0.743851 -0.355759 0.819985
-0.0223395 -0.0157715 0.924969
-1.23704 -0.599781 -0.375772
-1.22418 -0.589791 0.333251
-0.023472 -0.0139799 -1.03316
-0.755226 -0.351385 -0.876957
1.09825 0.505099 -0.355297
0.675686 0.301419 -0.837507
1.10525 -0.558815 0.317901
0.658821 -0.33673 0.801951
0.407618 -0.831362 0.494698
-0.470027 -0.847838 0.500338
-0.026551 -1.03546 -0.0132979
-0.465565 -0.859773 -0.556365
0.412043 -0.84274 -0.552057
0.680434 -0.342839 -0.85009
1.11751 -0.572949 -0.355406
1.39188 -0.0168306 -0.0155378
-1.01525 0.719521 0.151399
-0.859087 0.713052 0.422565
-0.644064 0.83739 0.258889
-1.02351 0.148339 0.709787
-1.01788 0.429285 0.610703
-1.29476 0.282286 0.461392
-0.250586 0.658989 0.662183
-0.613678 0.5692 0.678855
-0.39665 0.412666 0.818959
-0.253331 0.901197 0.243506
-0.417728 0.917205 -0.0190571
0.202803 0.6515 0.659945
-0.0264101 0.801905 0.498741
0.345555 0.900117 -0.0236463
0.203765 0.87301 0.237866
0.562732 0.818399 0.25584
-0.252921 0.907455 -0.287897
-0.649715 0.846685 -0.299194
0.574449 0.826801 -0.295633
0.205251 0.892466 -0.27852
-0.243701 0.683432 -0.736999
-0.024946 0.821796 -0.565916
0.19917 0.677959 -0.721667
-0.864376 0.717257 -0.462822
-1.0201 0.725172 -0.18798
-0.388824 0.426499 -0.90798
-0.630375 0.598269 -0.748788
-1.30471 0.282809 -0.519939
-1.04487 0.439818 -0.678177
-1.06524 0.151281 -0.779838
-1.27609 0.574267 -0.0229012
-1.5045 -0.0238622 -0.337559
-1.45382 0.274541 -0.197209
-1.44231 0.27325 0.161013
-1.46824 -0.0212387 0.284699
0.767298 0.669806 0.397141
0.920626 0.677832 0.14585
0.346199 0.407922 0.811318
0.540126 0.557817 0.668075
1.15644 0.260586 0.434159
0.921182 0.403911 0.582935
0.928827 0.151878 0.679686
-0.390942 0.145388 0.901693
-0.0264459 0.253264 0.900006
-1.02162 -0.190073 0.717931
-0.781381 -0.0230604 0.844538
-0.0266445 -0.301629 0.908215
-0.395739 -0.185003 0.907214
-0.399795 -0.471171 0.830312
-1.46397 -0.31817 0.164031
-1.3031 -0.318548 0.467398
-1.32538 -0.318433 -0.526955
-1.48683 -0.319685 -0.204278
-1.05676 -0.77969 0.151426
-1.29588 -0.6425 -0.0183865
-1.06173 -0.793281 -0.18541
-0.792425 -0.0186012 -0.941373
-1.06956 -0.184904 -0.789848
-0.0293798 0.274411 -0.996425
-0.398107 0.153076 -0.993323
-0.389862 -0.477945 -0.926074
-0.405383 -0.194397 -1.0001
-0.0257806 -0.319302 -1.0039
0.559293 0.589005 -0.730059
0.337268 0.421396 -0.888033
0.919469 0.685017 -0.182306
0.774443 0.683053 -0.447219
0.960949 0.141724 -0.751324
0.946347 0.417054 -0.646687
1.17214 0.270043 -0.493404
0.953495 -0.756803 0.140496
0.795594 -0.742969 0.410906
0.581061 -0.891041 0.242125
0.930495 -0.183887 0.683266
0.931555 -0.450592 0.579199
1.16716 -0.298624 0.438112
0.193288 -0.717965 0.682912
0.548703 -0.624579 0.679215
0.340895 -0.466569 0.823578
0.199268 -0.983086 0.244898
0.373416 -0.996895 -0.0220582
-0.243346 -0.72881 0.688444
-0.0347137 -0.885974 0.519954
-0.424267 -1.00686 -0.0191081
-0.252279 -0.992519 0.25744
-0.645746 -0.921864 0.254846
0.20592 -0.991167 -0.288941
0.583388 -0.908824 -0.2795
-0.64891 -0.934071 -0.284569
-0.259369 -0.997401 -0.301432
0.196886 -0.745502 -0.750636
-0.0339731 -0.90728 -0.582334
-0.24421 -0.758951 -0.761177
0.810038 -0.751144 -0.473648
0.961629 -0.760452 -0.179087
0.336596 -0.471206 -0.902032
0.577314 -0.648536 -0.747485
1.1985 -0.302227 -0.503824
0.956653 -0.478802 -0.660681
0.97166 -0.181193 -0.756751
1.16412 -0.60346 -0.0242459
1.34924 -0.0272809 -0.31394
1.33411 -0.296609 -0.19254
1.3069 -0.287165 0.142675
1.3212 -0.0224804 0.264727
0.333382 -0.181616 0.895918
0.700648 -0.0171192 0.819872
0.331973 0.145912 0.876273
-0.883771 -0.76616 0.439143
-0.632671 -0.633976 0.699672
-1.02112 -0.476543 0.611345
-0.646663 -0.66198 -0.757235
-0.898145 -0.779669 -0.499395
-1.05154 -0.503845 -0.691574
0.714913 -0.0238764 -0.89895
0.348286 -0.182243 -0.988849
0.338699 0.139606 -0.974341
1.29297 0.248689 0.142679
1.30317 0.251933 -0.177914
1.14474 0.533671 -0.0221719
-0.901413 0.799493 0.0693741
-0.833353 0.808474 0.210105
-0.711777 0.850209 0.127031
-1.04642 0.637243 0.379963
-0.943136 0.720917 0.303257
-1.12487 0.639784 0.245451
-0.563331 0.814416 0.374393
-0.75272 0.787862 0.343387
-0.666352 0.760624 0.448832
-1.16891 0.0613582 0.654434
-1.17713 0.213664 0.599896
-1.2969 0.124337 0.516204
-0.880785 0.370191 0.725315
-1.02625 0.308058 0.667448
-0.876162 0.234129 0.769392
-1.26719 0.407908 0.399419
-1.16418 0.364589 0.536845
-1.13217 0.486643 0.474614
-0.136581 0.579506 0.746109
-0.323424 0.533843 0.751304
-0.207757 0.455164 0.818456
-0.542278 0.682278 0.579307
-0.445152 0.618147 0.669081
-0.357637 0.722188 0.567764
-0.573863 0.368449 0.816635
-0.519837 0.490139 0.759574
-0.677526 0.442487 0.762154
-0.95151 0.580313 0.518415
-0.818342 0.508913 0.659034
-0.742067 0.653233 0.556714
-0.536088 0.89157 0.10871
-0.592361 0.899391 -0.0196517
-0.366587 0.840971 0.366303
-0.452709 0.862673 0.252127
-0.223189 0.92567 -0.0166335
-0.334615 0.913854 0.114654
-0.145278 0.921049 0.121851
0.0905316 0.578996 0.744843
-0.0239141 0.663461 0.673604
0.194447 0.794415 0.491334
0.0907587 0.741125 0.57427
0.305042 0.715112 0.564153
-0.139508 0.748729 0.579546
-0.239753 0.799846 0.496195
0.522371 0.855956 -0.0219712
0.465192 0.857012 0.112259
0.633374 0.82297 0.118061
0.0915121 0.913786 0.113298
0.277616 0.8963 0.104926
0.172035 0.918955 -0.0222027
0.488599 0.803805 0.366653
0.39418 0.846499 0.2589
0.319872 0.82903 0.367327
-0.141144 0.859712 0.378734
0.0887976 0.84804 0.378313
-0.030401 0.902357 0.245948
-0.537833 0.90102 -0.144541
-0.714078 0.855119 -0.161336
-0.144372 0.923227 -0.158828
-0.338133 0.916286 -0.151186
-0.565615 0.826457 -0.428985
-0.453287 0.87132 -0.289452
-0.366902 0.853545 -0.421935
0.638475 0.826994 -0.15944
0.46681 0.862997 -0.150649
0.317526 0.840587 -0.417544
0.395382 0.856277 -0.29339
0.49867 0.814574 -0.4177
0.278282 0.906362 -0.146799
0.0976988 0.918679 -0.154282
-0.135289 0.615851 -0.82516
-0.0296518 0.694342 -0.749537
0.0762457 0.610523 -0.806068
-0.243722 0.819192 -0.559699
-0.135063 0.765785 -0.653422
-0.361346 0.749761 -0.633696
0.308992 0.736374 -0.625761
0.0865178 0.764051 -0.647952
0.194634 0.809674 -0.555044
-0.0266991 0.909427 -0.290011
0.0911034 0.85904 -0.430572
-0.141593 0.877756 -0.433998
-0.842706 0.816398 -0.251449
-0.90694 0.806306 -0.106935
-0.668541 0.772883 -0.499991
-0.763443 0.806246 -0.38655
-1.13526 0.643472 -0.282664
-0.954099 0.73321 -0.342238
-1.05806 0.642348 -0.425073
-0.202325 0.478861 -0.916502
-0.319429 0.571122 -0.836454
-0.697462 0.473598 -0.822773
-0.526214 0.522426 -0.827029
-0.573332 0.377521 -0.896044
-0.451743 0.64819 -0.744881
-0.547173 0.703284 -0.645572
-1.3155 0.126816 -0.580943
-1.1996 0.217625 -0.669452
-1.19425 0.0651458 -0.729184
-1.14807 0.491945 -0.532885
-1.18287 0.369759 -0.603523
-1.27837 0.41626 -0.452791
-0.918406 0.239375 -0.833687
-1.06286 0.316135 -0.739433
-0.91624 0.383329 -0.783252
-0.75168 0.658765 -0.621354
-0.841032 0.528679 -0.721418
-0.968758 0.588077 -0.581032
-1.03822 0.740503 -0.0197152
-1.26544 0.570543 -0.185484
-1.17354 0.658779 -0.101968
-1.1666 0.65778 0.0638285
-1.24874 0.557574 0.146771
-1.42274 -0.0207117 -0.492139
-1.41453 0.117764 -0.435499
-1.53185 0.116954 -0.103596
-1.49361 0.118256 -0.265076
-1.5448 -0.0188755 -0.163169
-1.38995 0.285751 -0.366364
-1.35153 0.420775 -0.295482
-1.39299 0.117034 0.383177
-1.39021 -0.0224409 0.432361
-1.34149 0.411652 0.260255
-1.37543 0.287473 0.324045
-1.53247 -0.0168388 0.118067
-1.47371 0.113294 0.218473
-1.52708 0.111441 0.0651183
-1.38705 0.437815 -0.105701
-1.47713 0.278813 -0.019701
-1.38033 0.431885 0.0666966
0.740763 0.764025 0.197331
0.804753 0.755849 0.0605011
0.582325 0.738256 0.43472
0.661632 0.755386 0.332091
1.01381 0.596786 0.230183
0.853329 0.677101 0.286175
0.943117 0.593406 0.354085
0.161952 0.455991 0.815757
0.274243 0.52931 0.746666
0.596036 0.427792 0.740605
0.45314 0.481774 0.753876
0.501032 0.360774 0.805316
0.385892 0.611324 0.665498
0.47236 0.672368 0.572971
1.16797 0.116257 0.485134
1.05885 0.204279 0.569358
1.05183 0.0638728 0.614319
1.02047 0.455571 0.446047
1.04729 0.342849 0.510355
1.13331 0.386424 0.373835
0.793079 0.224787 0.740952
0.933627 0.291696 0.643129
0.79422 0.348304 0.687988
0.659958 0.622527 0.537327
0.734696 0.486344 0.629778
0.854303 0.54181 0.490754
-0.201655 0.33854 0.863107
-0.0249883 0.377227 0.858504
-0.570855 0.23525 0.852063
-0.399067 0.286745 0.859578
-0.0244197 0.128455 0.919187
-0.203613 0.201499 0.905984
-0.209972 0.0742223 0.921632
-1.1713 -0.100431 0.654618
-1.04913 -0.0220155 0.730882
-0.77683 -0.188092 0.838513
-0.906965 -0.107944 0.803402
-0.885784 -0.275346 0.787024
-0.902475 0.0583595 0.796817
-0.765771 0.143436 0.831557
-0.0262876 -0.431497 0.875341
-0.205193 -0.387675 0.875567
-0.214281 -0.516668 0.833276
-0.213493 -0.111346 0.923676
-0.209334 -0.244817 0.910087
-0.0240224 -0.166186 0.922911
-0.584335 -0.420739 0.827839
-0.400574 -0.330738 0.86714
-0.576729 -0.273777 0.859763
-0.593303 0.0616719 0.883553
-0.596442 -0.104016 0.892902
-0.404774 -0.0213093 0.916085
-1.4017 -0.151751 0.388889
-1.30799 -0.160488 0.524251
-1.53644 -0.152062 0.0715017
-1.48232 -0.152443 0.224175
-1.27962 -0.466693 0.404733
-1.38992 -0.325265 0.325188
-1.3552 -0.46747 0.263754
-1.33493 -0.160801 -0.588886
-1.43791 -0.15635 -0.44126
-1.37675 -0.472912 -0.296957
[...]
POINT_DATA 642
SCALARS CoVolArea float 1
LOOKUP_TABLE default
0.0215724
0.0189895
0.0199138
0.0197569
0.0211754
0.0198048
0.022134
0.0217745
0.0191914
0.0178303
0.0212314
0.0201916
0.0268588
0.0242077
0.0248954
0.0223715
0.0290361
0.0239497
0.0255294
0.0315423
0.0283002
0.0211938
0.0222091
0.0222562
0.0250085
0.029508
0.0303561
0.0266311
0.0276727
0.0327554
0.024036
0.0275411
0.0233236
0.023367
0.0273394
0.0302982
0.0272521
0.0319035
0.0303086
0.0298101
0.026453
0.0177073
0.0266417
0.0268007
0.0241106
0.0274243
0.0279877
0.0255131
0.0264629
0.0270849
0.023928
0.0278722
0.0248871
0.0256009
0.0252369
0.0236273
0.0287724
0.0219326
0.0297997
0.025832
0.0226796
0.0294838
0.0264961
0.027079
0.0259039
0.0297996
0.0267815
0.0281626
0.0271826
0.0272734
0.0280584
0.0265187
0.0262133
0.0255902
0.0305713
0.0301562
0.0238038
0.0250923
0.0238493
0.0215748
0.0253076
0.022652
0.0246264
0.0236426
0.0294705
0.024013
0.0266845
0.026836
0.0254169
0.0295364
0.025422
0.0319181
0.0273924
0.0300801
0.031493
0.0272517
0.0274
0.0283797
0.0262355
0.0278355
0.0244153
0.0302395
0.0296256
0.0312177
0.0272034
0.0244331
0.0270858
0.0242638
0.0270183
0.023851
0.0251334
0.0248047
0.0237972
0.024893
0.0277227
0.0241681
0.0269787
0.0237253
0.0256951
0.0264531
0.0239548
0.028885
0.0232681
0.0254046
0.0277648
0.0273276
0.0287189
0.029777
0.030868
0.0280821
0.029914
0.0311038
0.0258701
0.0282144
0.0258212
0.027033
0.0241454
0.0294731
0.0255753
0.0258159
0.0268084
0.0236264
0.0242884
0.021692
0.0261271
0.028347
0.0197314
0.0279447
0.0243426
0.0284614
0.0273276
0.02767
0.0302626
0.0285154
0.0288921
0.0296777
0.0255472
0.0278622
0.0296758
0.0262944
0.0264988
0.0227131
0.0249959
0.0246819
0.0248436
0.0274793
0.0249133
0.025864
0.0216838
0.0220591
0.0250877
0.0252192
0.0276476
0.0258189
0.0260634
0.0257916
0.0249274
0.022624
0.0246284
0.0274936
0.0248731
0.0255989
0.0235879
0.0269336
0.0251429
0.0243107
0.0216428
0.0230513
0.024556
0.0338887
0.0330667
0.0327513
0.0263812
0.0245187
0.0270507
0.0265772
0.0268511
0.0265927
0.028082
0.0244359
0.0269903
0.0248724
0.0248817
0.0232914
0.0247431
0.0258096
0.0237546
0.0253309
0.0231624
0.0282767
0.0257282
0.0240481
0.0184214
0.0239006
0.02443
0.0306876
0.0310231
0.0311469
0.0263903
0.0253417
0.0295069
0.0271302
0.0238459
0.028552
0.0290312
0.0225876
0.0249675
0.0272278
0.0255817
0.0209861
0.0246856
0.0282172
0.0249917
0.0248761
0.0268215
0.0271173
0.0248706
0.0254063
0.0235419
0.0245283
0.0261293
0.0327075
0.0331643
0.0328525
0.0252269
0.0251825
0.0273924
0.0232993
0.0265719
0.0257654
0.0296957
0.0253534
0.0282113
0.0287948
0.026835
0.028075
0.0265907
0.0281307
0.0268946
0.026956
0.0238427
0.0288664
0.024893
0.0250245
0.0278787
0.0254328
0.0284186
0.0343974
0.0328472
0.0355798
0.0260139
0.0283553
0.0251229
0.0253127
0.0290006
0.0255861
0.0286171
0.0256933
0.0280281
0.0231156
0.028924
0.0302064
0.0266426
0.0234008
0.0286021
0.0264572
0.0212846
0.0267737
0.0251835
0.0319574
0.0315131
0.0323441
0.0236889
0.023003
0.0236769
0.0208174
0.0214354
0.0225368
0.0238529
0.0232502
0.0238699
0.0236134
0.0208006
0.0186452
0.0231654
0.0252182
0.0222509
0.02302
0.0222102
0.0235901
0.0210005
0.0198329
0.0220427
0.0216374
0.0243715
0.0307215
0.030392
0.0304067
0.0248931
0.023161
0.0282339
0.0260402
0.0242811
0.0253001
0.0294269
0.0249519
0.0256669
0.0271629
0.0238208
0.0236344
0.0249096
0.0274253
0.0245265
0.0264019
0.025107
0.0300521
0.0265171
0.0259992
0.0239333
0.0278142
0.0296322
0.0325858
0.0324877
0.0325463
0.0262097
0.0249528
0.0270793
0.0268447
0.0246055
0.0285316
0.0305811
0.0271282
0.0281552
0.0326823
0.0305021
0.0284265
0.0271826
0.027154
0.0272554
0.0247767
0.0265589
0.0293122
0.0232948
0.0247284
0.0273176
0.0239161
0.0302936
0.0338555
0.0344288
0.0347684
0.0245355
0.0242419
0.0309895
0.0267111
0.02924
0.0271143
0.0308262
0.0230314
0.0248872
0.0306823
0.0263826
0.0258131
0.0273342
0.0317804
0.0266905
0.0264115
0.0244852
0.0317076
0.0281598
0.0300123
0.0282551
0.0287742
0.0321512
0.0315554
0.0350533
0.0312061
0.0277643
0.0274422
0.0252133
0.0234111
0.0261993
0.0244715
0.0260535
0.0224063
0.023101
0.0260332
0.0237274
0.0231172
0.0216131
0.025302
0.022015
0.0247993
0.024507
0.0251987
0.0229848
0.0246591
0.0213049
0.0212362
0.0244576
0.0311754
0.0322583
0.0300857
0.0241541
0.0265938
0.0251245
0.0244133
0.0231206
0.0227174
0.0261951
0.023946
0.0257078
0.0222033
0.0241861
0.0216896
0.0265398
0.0233706
0.0224269
0.0210099
0.0221901
0.0240407
0.0246987
0.0247401
0.0242658
0.0251012
0.0241554
0.0247554
0.0217216
0.0228825
0.0260896
0.0317106
0.0329516
0.0305911
0.0252727
0.0208018
0.0302848
0.0276204
0.0263349
0.0262472
0.0289645
0.0248417
0.0239987
0.0301865
0.0244153
0.02649
0.0253971
0.0300055
0.0231882
0.0278354
0.0275934
0.0291356
0.0280478
0.0268872
0.0277152
0.0279261
0.0306885
0.0318101
0.0307196
0.0315713
0.0234773
0.0243734
0.0315256
0.0263591
0.0286574
0.0278124
0.0326668
0.0251986
0.0263005
0.0317658
0.0286268
0.0302556
0.0288227
0.0317718
0.0265212
0.0245521
0.0257878
0.0313762
0.0258903
0.0253916
0.0265786
0.0250785
0.0300316
0.0352824
0.0321578
0.0334856
0.0280971
0.0242099
0.0284206
0.0269107
0.0231756
0.0254718
0.0267536
0.0275891
0.0286522
0.0281701
0.0270101
0.0286703
0.0245023
0.0265274
0.0236332
0.0244211
0.021463
0.0272426
0.0244479
0.0254366
0.0261553
0.0248602
0.0277355
0.0305091
0.0301374
0.0313678
0.021232
0.026008
0.0208048
0.0210299
0.0264904
0.0224172
0.0239377
0.0224179
0.0226151
0.0195698
0.0261951
0.0285742
0.0223544
0.0197657
0.0279172
0.0257139
0.0176314
0.0227478
0.0224087
0.0293168
0.0281997
0.0307775
0.0264027
0.0264595
0.0263299
0.0262821
0.0278134
0.0241112
0.0241229
0.0227649
0.022696
0.0247034
0.0248436
0.0278455
0.0254633
0.0238125
0.0248897
0.030991
0.031031
0.0310821
0.0308505
0.0282201
0.0274841
0.0263277
0.0271349
0.0261173
0.0258583
0.0243824
0.0266298
0.028174
0.0283882
0.0284771
0.0268476
0.0268772
0.0274541
0.0320482
0.0336391
0.0341089
0.0296557
0.029067
0.0273114
0.0297946
0.0314188
0.0317519
0.0296056
0.0292188
0.0302881
0.0307315
0.0294072
0.0302603
0.0283016
0.0286099
0.0304894
0.0323235
0.0335784
0.0332187
0.0213593
0.0282804
0.0237973
0.023998
0.0287769
0.0269529
0.029706
0.0278086
0.0281172
0.0296153
0.0251953
0.0302283
0.0274746
0.0266814
0.0294302
0.0283733
0.0309495
0.0301104
0.0232485
0.0211235
0.0231542
0.0242928
0.0250363
0.0255731
0.0265255
0.0265085
0.0245187
0.0216172
0.0235502
0.0244772
0.0215637
0.0218739
0.0245508
0.026216
0.0273502
0.0279611
