# vtk DataFile Version 4.2
vtk output
ASCII
DATASET POLYDATA
POINTS 642 float
0.07779 0.975452 0.390947
0.837541 1.11148 0.504571
0.146079 -0.143064 0.486002
0.921587 -0.00589348 0.590958
0.3912 0.077856 0.97532
0.504736 0.837472 1.11125
0.485997 0.146192 -0.143221
0.590481 0.921439 -0.00577613
0.975445 0.390956 0.077794
1.11144 0.504513 0.837537
-0.143027 0.486091 0.146123
-0.00588477 0.590936 0.921596
-0.121912 0.814955 0.67495
0.0768308 0.675395 1.19484
0.304948 0.877921 0.831203
0.841871 0.999924 0.882561
0.569883 1.1236 0.369914
0.675395 1.19481 0.0768014
0.315094 1.10301 0.142932
0.142664 0.694417 0.0804712
-0.235386 0.895762 0.286446
-0.16398 0.618544 0.414921
0.882526 0.841794 0.999877
0.999923 0.882655 0.84193
0.143177 0.314949 1.10302
0.369885 0.569832 1.12359
-0.0434432 0.0859964 0.129849
0.0805387 0.142311 0.694552
0.618525 0.415201 -0.164353
0.0860444 0.129907 -0.0434469
0.877913 0.831222 0.304864
0.814902 0.674935 -0.121926
1.19478 0.076826 0.675401
0.831105 0.304938 0.877982
0.674958 -0.121895 0.814909
0.286453 -0.235487 0.895829
0.414931 -0.163985 0.618551
0.129849 -0.0434436 0.0860006
0.694561 0.0805392 0.142291
0.895811 0.286449 -0.235441
1.10301 0.143163 0.314957
1.12363 0.36984 0.569829
-0.0742381 0.880252 0.522755
0.0488082 0.838401 0.771835
0.187709 0.920961 0.59684
0.0373808 0.651717 1.1055
-0.00067289 0.721443 0.974917
-0.0866939 0.724225 0.819029
0.412904 0.8371 1.00661
0.172776 0.757235 1.03887
0.237814 0.716463 1.15807
0.450867 1.00179 0.592079
0.340568 1.05295 0.36801
0.717682 0.918268 1.00516
0.603461 0.934488 0.85236
0.719686 1.12474 0.410095
0.715595 1.072 0.643107
0.86391 1.08024 0.723706
0.452455 1.13429 0.194551
0.168133 1.08003 0.248758
0.716431 1.15808 0.237799
0.647863 1.20313 0.186949
0.464371 1.06918 0.0761512
0.572853 1.20068 0.0715206
0.651585 1.10549 0.0373806
0.0125643 0.978635 0.237867
-0.114769 0.929069 0.323643
0.385886 0.813786 0.0377837
0.217787 0.938851 0.144375
-0.209346 0.756296 0.245485
-0.0767846 0.816629 0.204789
-0.0434012 0.583767 0.128537
-0.216657 0.884699 0.406985
-0.167921 0.584576 0.257897
-0.245559 0.799923 0.323454
-0.168464 0.780008 0.537058
-0.109554 0.607392 0.662208
0.959969 0.998261 0.907059
0.918269 1.00507 0.717723
0.723392 0.863836 1.08007
0.907061 0.960197 0.998425
1.08027 0.723601 0.863979
0.998385 0.907153 0.960136
1.00499 0.717762 0.918153
0.186995 0.647873 1.20312
0.410192 0.719698 1.12476
0.0761741 0.464362 1.06861
0.0717892 0.573222 1.20085
0.367924 0.340626 1.05303
0.194814 0.452445 1.13413
0.248851 0.16815 1.08005
-0.0436473 0.389981 0.544571
0.0377957 0.385798 0.813601
-0.12221 0.257973 0.106636
-0.116869 0.342017 0.265073
0.128649 -0.0435408 0.583616
0.0236601 0.116501 0.388489
0.0452021 -0.04692 0.265874
0.116505 0.388842 0.0228106
-0.0468132 0.265899 0.0451849
0.607412 0.662156 -0.109619
0.389613 0.544801 -0.0438107
0.258087 0.10673 -0.122089
0.342294 0.265258 -0.116804
0.584444 0.257866 -0.167884
0.721384 0.975013 -0.000645264
0.724115 0.819063 -0.0866763
0.837077 1.00665 0.412744
0.757222 1.0389 0.172727
0.880251 0.522747 -0.0742291
0.838422 0.77185 0.048838
0.920968 0.596825 0.187679
1.1055 0.0373816 0.651744
0.974981 -0.000624633 0.721422
0.819046 -0.0866854 0.724238
1.0065 0.412654 0.837084
1.03897 0.17275 0.757248
1.15795 0.237645 0.716563
0.522339 -0.0737635 0.878584
0.77191 0.0488759 0.838464
0.596842 0.187674 0.92101
0.53709 -0.168439 0.780016
0.662236 -0.109595 0.607407
0.323736 -0.114762 0.929041
0.407002 -0.216625 0.884693
0.257892 -0.167898 0.584535
0.323477 -0.245564 0.799925
0.245508 -0.209472 0.756193
0.54458 -0.0436462 0.389971
0.813601 0.0377968 0.385794
0.106677 -0.12209 0.258015
0.265054 -0.116881 0.342002
0.583582 0.128684 -0.043586
0.388487 0.0236809 0.11648
0.265905 0.0452105 -0.046935
0.938843 0.14446 0.217722
1.06861 0.0761742 0.464365
0.75617 0.245476 -0.209522
0.816463 0.20481 -0.0768106
1.08004 0.248816 0.168135
0.978739 0.237984 0.0125805
0.929074 0.323688 -0.114752
1.20085 0.0717806 0.573222
1.05291 0.367994 0.34057
1.13427 0.194617 0.452473
1.20315 0.186941 0.647884
1.12479 0.409961 0.719644
0.592119 0.450739 1.00179
0.852409 0.603095 0.935005
0.643076 0.715678 1.07209
0.204804 -0.076805 0.816482
0.23799 0.0125736 0.978744
0.144459 0.217734 0.93885
0.0594711 0.00247363 -0.0400465
0.00246466 -0.0400458 0.0594604
-0.0400442 0.0594565 0.00245263
0.884708 0.406972 -0.216674
0.800052 0.323352 -0.245044
0.779161 0.536783 -0.168461
1.07205 0.643055 0.715539
1.00181 0.592018 0.450786
0.934524 0.852365 0.603363
-0.0111565 0.919809 0.455229
0.0412473 0.914479 0.568478
0.133322 0.93957 0.483731
-0.0429082 0.812269 0.720889
-0.019311 0.877632 0.649603
-0.113295 0.862584 0.596616
0.244006 0.901839 0.717023
0.105558 0.878746 0.686722
0.167374 0.854582 0.80564
-0.00246723 0.62414 1.02512
-0.0404081 0.678807 0.980309
-0.0471159 0.673245 0.878785
0.0379875 0.698423 1.11604
0.000725382 0.690125 1.05997
0.0416721 0.662697 1.17469
-0.122528 0.77618 0.758769
-0.0469239 0.724846 0.900697
-0.078507 0.78557 0.837312
0.460168 0.838257 1.0703
0.320814 0.795374 1.10012
0.359426 0.775204 1.12906
0.241373 0.807533 0.934613
0.284575 0.795775 1.02843
0.35752 0.869655 0.933678
0.137198 0.710961 1.20018
0.206244 0.722697 1.11208
0.117148 0.712817 1.13607
0.00707978 0.784777 0.880884
0.0712948 0.741223 1.02623
0.112383 0.795708 0.917225
0.2586 1.00102 0.481683
0.217175 1.00847 0.374359
0.380606 0.925087 0.707793
0.317105 0.969847 0.596327
0.466686 1.08513 0.36567
0.39564 1.02916 0.474359
0.513057 1.0704 0.480877
0.621373 0.877874 1.04878
0.569765 0.879705 1.0075
0.73338 0.988042 0.871924
0.668094 0.921653 0.936174
0.795567 0.966866 0.940561
0.51083 0.891042 0.935383
0.449175 0.915788 0.849738
0.778096 1.12297 0.45824
0.791452 1.08788 0.575019
0.843496 1.08119 0.624543
0.642245 1.08435 0.497669
0.720361 1.08934 0.531836
0.655094 1.12352 0.377153
0.86201 1.02792 0.802209
0.799347 1.07154 0.682166
0.787299 1.02262 0.764421
0.52791 0.972957 0.730936
0.674839 1.00172 0.747202
0.597474 1.03023 0.609013
0.248552 1.07813 0.296566
0.123357 1.00947 0.295554
0.513094 1.12739 0.262279
0.390884 1.09657 0.278463
0.238735 1.08099 0.192705
0.313399 1.09333 0.223217
0.386243 1.12228 0.163363
0.775155 1.12911 0.359359
0.725003 1.16429 0.316535
0.666542 1.21063 0.121586
0.689265 1.20243 0.199168
0.710958 1.20019 0.137173
0.676578 1.17438 0.278721
0.62279 1.15887 0.260454
0.527859 1.01161 0.0397844
0.574374 1.10411 0.0406095
0.623878 1.02515 -0.00245246
0.458727 1.16653 0.0975676
0.52513 1.14699 0.0796138
0.392983 1.10165 0.101584
0.662646 1.17463 0.0416588
0.614933 1.18482 0.0420613
0.64027 1.21545 0.0588561
0.563384 1.1984 0.182277
0.613157 1.20446 0.111714
0.510098 1.20572 0.128703
0.0215858 0.997826 0.288807
-0.0255829 0.961163 0.351803
0.153027 1.05667 0.179791
0.0847995 1.03809 0.234779
-0.190626 0.915014 0.305899
-0.0662009 0.958831 0.278852
-0.136503 0.929358 0.269722
0.493474 0.872285 0.00450052
0.425804 0.950801 0.0701934
0.176113 0.826009 0.116453
0.296373 0.891193 0.0800883
0.266288 0.753229 0.0688455
0.342087 1.0094 0.0956133
0.266482 1.03211 0.152239
-0.179204 0.639964 0.196979
-0.148542 0.677742 0.17125
-0.101516 0.532145 0.146584
-0.176295 0.867188 0.246014
-0.158975 0.783596 0.242079
-0.238275 0.847206 0.272185
0.0387357 0.636757 0.105121
-0.0703695 0.714201 0.163921
0.0352151 0.754246 0.158625
0.0968727 0.985394 0.163536
0.0571296 0.881443 0.163195
-0.0491862 0.909273 0.223558
-0.110014 0.918391 0.405484
-0.248156 0.910927 0.330312
-0.197583 0.917268 0.363554
-0.160445 0.881214 0.459569
-0.177188 0.854703 0.521972
-0.164941 0.535075 0.203088
-0.208933 0.680708 0.251832
-0.211707 0.724358 0.356174
-0.243193 0.705504 0.299593
-0.167376 0.616962 0.320936
-0.244972 0.793638 0.284279
-0.281903 0.860938 0.295031
-0.0998522 0.680883 0.743601
-0.0448307 0.605412 0.781546
-0.16362 0.800991 0.609905
-0.125136 0.751314 0.680796
-0.126016 0.617586 0.526935
-0.134673 0.697792 0.603809
-0.171099 0.719457 0.473992
-0.245506 0.856172 0.35946
-0.246379 0.794234 0.420019
-0.231743 0.839795 0.472656
0.918027 1.07498 0.725517
0.877878 1.04882 0.621243
0.915212 1.00516 0.898372
0.913285 1.03827 0.823104
0.966983 0.940568 0.795645
0.944979 1.0002 0.82091
0.994025 0.966968 0.886543
0.624538 0.843561 1.08115
0.725308 0.918039 1.07487
0.898371 0.915224 1.00488
0.822867 0.913289 1.03823
0.802118 0.8618 1.02801
0.820704 0.944874 1.00009
0.886438 0.994039 0.966961
1.08112 0.624458 0.843533
1.07491 0.725415 0.918059
1.04882 0.621235 0.877923
1.00505 0.898462 0.915312
1.03832 0.823182 0.91341
1.02786 0.80228 0.862039
0.94054 0.795596 0.967005
1.00025 0.820811 0.945184
0.966958 0.886487 0.994045
0.957869 0.996334 0.971936
0.971961 0.957927 0.996317
0.996479 0.972004 0.957965
0.316556 0.725021 1.16427
0.45841 0.778142 1.12303
0.121598 0.666555 1.21062
0.199167 0.689269 1.20244
0.377187 0.654991 1.12353
0.278695 0.676469 1.17432
0.260681 0.622555 1.15941
0.0392174 0.528279 1.01138
0.0406005 0.575169 1.10384
0.0982019 0.458791 1.16657
0.0783073 0.525038 1.14725
0.102068 0.392613 1.10166
0.0420812 0.615245 1.18492
0.0588606 0.640336 1.21554
0.37447 0.217217 1.00827
0.296628 0.248662 1.07816
0.295647 0.12337 1.00946
0.262185 0.51319 1.12681
0.27856 0.390821 1.09671
0.365528 0.466585 1.08509
0.192893 0.23874 1.08097
0.223465 0.313461 1.09327
0.163604 0.386192 1.12227
0.111736 0.61324 1.20446
0.128885 0.510224 1.20571
0.182381 0.563439 1.19831
-0.042962 0.501151 0.743391
0.00448911 0.493534 0.872153
-0.123691 0.500462 0.48159
-0.0720194 0.510087 0.602913
0.0689794 0.266292 0.753545
-0.00563536 0.387446 0.682581
0.0353992 0.270003 0.617397
-0.123105 0.359422 0.132068
-0.14715 0.410339 0.186282
-0.0679618 0.21201 0.188888
-0.123119 0.300565 0.176565
-0.0803905 0.16811 0.110024
-0.15905 0.453115 0.257079
-0.127887 0.490744 0.339617
0.146563 -0.101614 0.532016
0.0825144 -0.0482849 0.419692
0.0809284 -0.096559 0.366109
0.0478309 0.12317 0.546094
0.0741485 0.0299975 0.481143
0.105225 0.038567 0.636664
-0.00269099 0.0238853 0.180647
0.0386447 0.0254999 0.319976
[...]
POINT_DATA 642
SCALARS CoVolArea float 1
LOOKUP_TABLE default
0.0110518
0.00574571
0.00627163
0.0102325
0.0110364
0.00573061
0.00625661
0.0102372
0.0110495
0.00574584
0.00627841
0.0102322
0.00725964
0.00328193
0.0166471
0.00778587
0.0125227
0.00328215
0.00662909
0.0174374
0.003337
0.0135443
0.00778308
0.00778297
0.00661578
0.0125178
0.00911279
0.0174496
0.0135072
0.00912774
0.0166414
0.00727105
0.0032854
0.0166278
0.00726587
0.00334571
0.0135448
0.00911312
0.0174489
0.00334616
0.00661022
0.0125186
0.0104468
0.0137296
0.016563
0.00520493
0.00723449
0.0063653
0.0116067
0.0117022
0.00545741
0.0186681
0.0137757
0.00822751
0.0160173
0.00726342
0.0125438
0.0056846
0.00896202
0.0076251
0.00545739
0.00484412
0.00944677
0.00412085
0.00522916
0.00707606
0.00613998
0.0164843
0.0137968
0.00530883
0.0118491
0.0125201
0.00451678
0.00732886
0.0050511
0.00851899
0.0134203
0.00357556
0.00824742
0.00567972
0.00358387
0.00569238
0.00357858
0.00825299
0.00483932
0.00727812
0.0095192
0.00411685
0.013769
0.00895461
0.00762287
0.0200081
0.016465
0.00635314
0.014456
0.0124967
0.017783
0.00932459
0.0176964
0.0093627
0.0134193
0.020019
0.00635529
0.0144437
0.00735458
0.00723525
0.00638719
0.0116075
0.0116943
0.010442
0.0137317
0.0165624
0.00520578
0.00723616
0.0063622
0.0116233
0.0116909
0.00546536
0.0104604
0.013738
0.0165432
0.00851703
0.0134222
0.00614866
0.00451945
0.0073298
0.00505162
0.00530436
0.0200113
0.0164655
0.00635102
0.014454
0.0124984
0.0177857
0.00932533
0.0137974
0.0095204
0.00529324
0.011879
0.00762029
0.00708941
0.00614331
0.00411669
0.0137688
0.00895509
0.00483928
0.00726652
0.0186813
0.0159981
0.0125401
0.0118768
0.00708913
0.0137984
0.00421715
0.00421684
0.0042172
0.00452693
0.00501641
0.00850949
0.0125597
0.0186666
0.0160267
0.0122268
0.0142006
0.0153582
0.0110336
0.0118387
0.00844093
0.0164889
0.0146787
0.015996
0.00851334
0.00582468
0.00922076
0.00575608
0.00434156
0.00288391
0.00575721
0.00521521
0.00834875
0.00869181
0.00875992
0.00629098
0.0150422
0.0114546
0.0135747
0.00435308
0.00803468
0.00748435
0.0124297
0.0110602
0.015178
0.0162664
0.0140024
0.0191942
0.0174401
0.0131702
0.0158964
0.0159744
0.00697315
0.0101605
0.0122719
0.01149
0.00795443
0.0132376
0.0174051
0.00625987
0.00666508
0.00560832
0.013386
0.00898142
0.00907229
0.0063423
0.00786053
0.0107823
0.0204497
0.0169315
0.0184641
0.0109213
0.0105411
0.0113933
0.0112673
0.006132
0.00816562
0.00674466
0.00629077
0.0051504
0.00291139
0.00374331
0.00435419
0.00554161
0.00880773
0.0112094
0.00766822
0.00855541
0.00606492
0.00603868
0.00755681
0.00288902
0.00402776
0.00243621
0.00830481
0.00461687
0.00677945
0.00679993
0.00958189
0.00769774
0.0058758
0.00351424
0.00463353
0.00545839
0.0147471
0.0136318
0.0163846
0.0146976
0.0168626
0.0114237
0.010035
0.00688719
0.00927596
0.0094588
0.00711349
0.00800502
0.003944
0.0145389
0.0120638
0.0156902
0.011915
0.0153038
0.0106252
0.00878679
0.00330318
0.00504105
0.00676781
0.0061318
0.00643796
0.00552667
0.00945584
0.00609702
0.0100543
0.0037214
0.00325829
0.00991956
0.0131824
0.00622957
0.00771255
0.0136176
0.0110374
0.011637
0.00484513
0.00811811
0.006373
0.00611019
0.00699528
0.00471392
0.00473366
0.00795494
0.00568769
0.00520263
0.00559154
0.00609223
0.0047281
0.0047477
0.0063428
0.00568008
0.0052063
0.00560241
0.00610983
0.006995
0.00471665
0.00474701
0.00635537
0.00795616
0.00569208
0.0052056
0.00320194
0.00320233
0.00320186
0.00516006
0.00625674
0.0029096
0.00374611
0.00907379
0.00554532
0.00879473
0.0112263
0.0076708
0.00605755
0.00608836
0.00759436
0.00402432
0.00242932
0.0139935
0.0109148
0.0105552
0.011378
0.0112334
0.0131607
0.00612974
0.00815199
0.00673605
0.00460769
0.00676609
0.00830003
0.0162608
0.0147902
0.0173195
0.0166135
0.0168702
0.0181819
0.0203923
0.0063941
0.00694848
0.0125778
0.0087918
0.00717036
0.0100226
0.015302
0.00944199
0.0111974
0.00803872
0.0187992
0.0145216
0.0145243
0.00928861
0.0128491
0.0141247
0.0202495
0.0190957
0.0221865
0.0112406
0.00805662
0.0187381
0.0145204
0.00930993
0.01286
0.0141099
0.0131542
0.0162752
0.0173395
0.0166743
0.0136018
0.0181966
0.0203131
0.00638676
0.00696081
0.00641307
0.012602
0.0087992
0.00717692
0.010061
0.0100174
0.0152454
0.0221329
0.0202546
0.019078
0.00584198
0.00924484
0.00575327
0.0043451
0.00577
0.00521851
0.00835582
0.00870122
0.00876075
0.0150356
0.0114505
0.0135711
0.00803369
0.00747979
0.0122227
0.0141957
0.0153551
0.0110429
0.0118364
0.00844352
0.0164874
0.0146769
0.0159923
0.0110534
0.0151741
0.0124342
0.00851494
0.00582383
0.0092188
0.00575885
0.0043415
0.00288447
0.00575385
0.00521181
0.00835255
0.00871147
0.0087692
0.00629529
0.0150366
0.0114574
0.013571
0.00436087
0.00804841
0.00748836
0.0122033
0.0141865
0.0152986
0.0110445
0.0118541
0.00845585
0.0164673
0.0146816
0.015993
0.0110505
0.0151693
0.0124331
0.00991715
0.0131825
0.00622778
0.00770981
0.0136194
0.0110368
0.0116366
0.00958718
0.00878698
0.00330356
0.00504333
0.00353956
0.00677528
0.0061366
0.00643722
0.00552362
0.00688061
0.00945563
0.00609752
0.0100541
0.00394303
0.00371782
0.00325688
0.00637261
0.00484568
0.00811756
0.0162629
0.0147914
0.0173229
0.0166167
0.0168697
0.0181826
0.0203936
0.00639077
0.00694601
0.0125763
0.00878605
0.00716682
0.0100205
0.0153025
0.00944637
0.0111979
0.00804266
0.0188013
0.0145225
0.0145254
0.00928943
0.01285
0.0141261
0.020252
0.0190971
0.02219
0.0136597
0.0112281
0.0163696
0.0146803
0.00759422
0.0114429
0.0100241
0.00687014
0.00927487
0.00715039
0.00801729
0.0039303
0.0120679
0.0156816
0.0105376
0.00680036
0.00957855
0.00768291
0.00586825
0.00612195
0.00353797
0.00465832
0.00551821
0.0153205
0.0106747
0.01192
0.00767278
0.00605468
0.00608859
0.0040246
0.00243027
0.0139979
0.0109168
0.0113879
0.0112622
0.013162
0.00815898
0.00672348
0.00515717
0.00625983
0.00291071
0.00374852
0.00907399
0.00553945
0.00880126
0.00675633
0.0082966
0.00460524
0.0162603
0.0191653
0.017438
0.0159085
0.0159796
0.0101924
0.0122719
0.0115031
0.0132421
0.0173669
0.0066643
0.0133805
0.00898382
0.00784348
0.010776
0.0204465
0.0169452
0.0184837
0.00926982
0.00714931
0.00801538
0.0120646
0.0156817
0.00680732
0.00768611
0.00587074
0.00466129
0.00551836
0.0136587
0.0163714
0.01468
0.011442
0.0100247
0.0106736
0.0119208
0.0153214
0.00705282
0.00617615
0.00660532
0.00538676
0.0054499
0.00705008
0.00617565
0.00660482
0.00538533
0.00544822
0.00705349
0.00617812
0.0066104
0.00538404
0.00544887
0.00378097
0.00378095
0.00378106
0.00878407
0.00330748
0.00504301
0.00676748
0.00614262
0.00551469
0.00944215
0.00610394
0.00367253
0.00323563
0.00992803
0.00627192
0.00773172
0.0109815
0.0115467
0.00485005
0.00809978
0.00641135
0.00666826
0.0133943
0.00899236
0.00787492
0.0107903
0.016262
0.0191929
0.0174392
0.015889
0.0159691
0.01017
0.0122721
0.0114947
0.0132438
0.0174071
0.0184721
0.0204562
0.0169424
SCALARS SignedDistance float 1
LOOKUP_TABLE default
0.00546741
0.00126648
0.00242329
0.0050877
0.0055027
0.00126648
0.00244141
0.00512057
0.00546741
0.00128174
0.00242424
0.00508424
0.00224304
0.00275421
0.00688934
0.00273132
0.00234866
0.00276184
0.00230789
0.00537431
0.00273895
0.00287497
0.00273132
0.00270081
0.00231171
0.00235415
0.00181507
0.00528455
0.00326854
0.0018166
0.00689697
0.00225067
0.0027771
0.00692749
0.00223541
0.00275803
0.00287342
0.00181538
0.00528383
0.00276184
0.00231171
0.00234294
0.00463825
0.00161743
0.00763458
0.00427723
0.00489175
0.00308228
0.00514221
0.00477219
0.00273514
0.00663757
0.00691223
0.00378418
0.00680542
0.00375366
0.0027771
0.000854492
0.0059433
0.000567436
0.0027504
0.00149918
0.00358295
0.000747681
0.00427437
0.00381398
0.00409126
0.00597095
0.00900841
0.00333786
0.00320053
0.00321794
0.00296974
0.00510383
0.00143623
0.00519562
0.00354958
0.00164795
0.00372314
0.000732422
0.00183105
0.000732422
0.00158691
0.00378418
0.00151062
0.00375366
0.00355816
0.00075531
0.00692749
0.00598145
0.000567436
0.00562048
0.00593376
0.000935793
0.00188303
0.00323403
0.00609416
0.00324354
0.00660551
0.00325063
0.00353622
0.00581932
0.000985444
0.00190592
0.00512826
0.004897
0.00308609
0.00515747
0.00477219
0.00463927
0.00161409
0.0076281
0.00427628
0.00490075
0.00308228
0.00511169
0.00477219
0.00284576
0.00671577
0.0016408
0.0076831
0.00520325
0.00353622
0.00411415
0.00296879
0.00511014
0.00144005
0.00331593
0.0056181
0.00593376
0.000984251
0.00188065
0.00324017
0.00609571
0.00324082
0.00898552
0.00355911
0.00336838
0.00320435
0.000568151
0.00381088
0.00410652
0.000743866
0.00692749
0.00593567
0.00151062
0.00370789
0.00662994
0.00778198
0.00274658
0.00320148
0.00380945
0.0089817
0.00103135
0.00103117
0.00103131
0.00297356
0.00172615
0.00527191
0.00268555
0.0066452
0.00678253
0.00615096
0.00169468
0.00923538
0.00547028
0.0019002
0.00281715
0.0058136
0.00498867
0.00563812
0.0012213
0.000776768
0.00429821
0.00149155
0.00135795
0.000778198
0.000976563
0.00361633
0.000486374
0.00131226
0.00193405
0.00202751
0.00686646
0.005867
0.00169373
7.82013e-05
0.00476074
0.00234604
0.00326514
0.00312805
0.00463867
0.00327301
0.00555801
0.00745392
0.00535583
0.00559998
0.00636292
0.00463867
0.00286865
0.00405884
0.00311279
0.00631714
0.00408936
0.00570679
0.00219727
0.00119781
0.00254822
0.00146484
0.00469971
0.00521088
0.00506592
0.00454712
0.00323486
0.00549316
0.00648499
0.00682068
0.00650024
0.000919342
0.00742102
0.00509262
0.00548553
0.00271821
0.00415039
0.00312805
0.00203133
0.00117493
0.00146866
0.00113678
7.43866e-05
0.00395203
0.00600433
0.0052824
0.00184441
0.0011887
0.000532627
0.00448227
0.00346375
0.000782013
0.000874013
0.00371599
0.000684738
0.00144768
0.00062418
0.00316632
0.00285244
0.00213337
0.000407696
0.00219035
0.00307846
0.00271988
0.00141418
0.00974703
0.00626373
0.00438404
0.00777245
0.0047493
0.00614166
0.00282955
0.000714302
0.00529289
0.00161633
0.0053997
0.00267935
0.00628889
0.00380898
0.00755906
0.00121212
0.00292856
0.00370502
0.00350869
0.000141144
0.00147057
0.00267696
0.00416183
0.00186872
0.00430775
0.00435066
0.00087738
0.00610542
0.00120926
0.000473022
0.00547791
0.00792485
0.000926971
0.00497627
0.0044775
0.0055275
0.00490189
0.00149155
0.000495911
0.00200176
6.48499e-05
0.00288391
0.00268555
0.000701904
0.00405884
0.00274658
0.000671387
0.00143433
6.10352e-05
0.00280762
0.000671387
0.00445557
0.00268555
0.000671387
0.00146484
5.72205e-05
0.00286865
0.00262451
0.000686646
0.0045166
0.00405884
0.00256348
0.000610352
0.00154114
0.00151062
0.0014801
0.00114441
0.00118256
0.00146532
0.00115204
0.00507355
0.00389099
0.00595093
0.00466079
0.00184345
0.000561237
0.00344849
0.00345993
0.000877053
0.00372887
0.00606537
0.000896454
0.00742531
0.00639725
0.00615692
0.00567627
0.00273037
0.00452042
0.00312901
0.00144744
0.000638485
0.00069046
0.00190723
0.00134909
0.00154018
0.0048275
0.00767326
0.00481898
0.00683832
0.00399462
0.0063653
0.00511444
0.00151229
0.00125125
0.000847816
0.00539017
0.00529099
0.00527193
0.00213277
0.00184977
0.00640583
0.00628555
0.00463104
0.00521754
0.0058946
0.00296676
0.00593234
0.00517678
0.00529103
0.00212491
0.00184584
0.00639629
0.00465006
0.00651997
0.00590128
0.00910854
0.00193357
0.00159359
0.00484085
0.00459719
0.00482047
0.00988436
0.00400691
0.00638151
0.00200856
0.00521624
0.00151372
0.00124997
0.00606728
0.00086689
0.00626278
0.00530267
0.00297058
0.00592421
0.000778198
0.00430393
0.00149536
0.00135445
0.000984192
0.00361502
0.00050354
0.00131226
0.00193405
0.00689697
0.005867
0.00170898
0.00476837
0.00234604
0.00614834
0.00169659
0.00924301
0.00546455
0.00190318
0.00279617
0.00582886
0.00498801
0.00563431
0.00313568
0.00462914
0.00329995
0.00122547
0.000776768
0.00430584
0.00147629
0.00135799
0.000772476
0.000976563
0.0036149
0.000501633
0.001297
0.00193024
0.00202751
0.00686646
0.0058136
0.00167847
7.62939e-05
0.00782013
0.00248528
0.00617695
0.00168824
0.0108948
0.00546074
0.00190544
0.00281525
0.00605774
0.005723
0.00563049
0.00310516
0.00462627
0.00330901
0.00547791
0.00793093
0.000938416
0.00497246
0.00447655
0.00551605
0.00490189
0.00284493
0.00351727
0.000144958
0.00147057
0.00220942
0.00268078
0.00416946
0.00186539
0.00430822
0.00283146
0.00435448
0.00087738
0.00610161
0.0027051
0.00121689
0.000473022
0.00200748
0.00149155
0.000488281
0.00190938
0.00134981
0.00154305
0.00483704
0.00767374
0.00481832
0.00683713
0.00398829
0.00636959
0.00510955
0.00151134
0.00125083
0.00084877
0.00538921
0.00530434
0.0052667
0.00212827
0.00185204
0.00640547
0.00628722
0.00463084
0.00521607
0.00589511
0.00296831
0.00593407
0.00517964
0.00959015
0.00466123
0.00623703
0.00435448
0.00345612
0.00475693
0.00614166
0.00283384
0.00070858
0.00139904
0.00540543
0.00266361
0.0035696
0.00754499
0.00742292
0.00316477
0.00285065
0.00210953
0.000409245
0.00272036
0.00221014
0.00310886
0.00203419
0.00292325
0.00373268
0.00120187
0.00184441
0.000558376
0.0034523
0.000876963
0.0037303
0.0055542
0.000915527
0.00508499
0.00548172
0.00558472
0.00415039
0.00312233
0.00114441
0.00117493
0.00146723
0.00113678
0.00507736
0.00392151
0.00600433
0.000638485
0.000680923
0.00144744
0.00325012
0.00804138
0.00537872
0.00642395
0.00465393
0.00405121
0.00305176
0.00665283
0.0067749
0.00219727
0.00253296
0.0050354
0.00582886
0.00323486
0.00537109
0.00645447
0.00680542
0.00637817
0.00070858
0.00139713
0.00540447
0.00356674
0.00754356
0.00316548
0.00211334
0.000409305
0.00310946
0.00203228
0.00959396
0.00623703
0.00435352
0.00475502
0.0061264
0.00373173
0.00120068
0.00292245
0.000116706
0.000599717
0.00531729
0.00126304
0.00322692
0.000116408
0.000599809
0.00531629
0.00126168
0.00322394
0.000118852
0.000599836
0.00531469
0.0012604
0.00322315
0.00167692
0.00167684
0.00167724
0.00350916
0.000152588
0.00147057
0.00267315
0.00416565
0.00431633
0.00438309
0.000915527
0.00196075
0.000457764
0.00551605
0.00094223
0.00502777
0.00601959
0.00595856
0.00149536
0.000518799
0.00201035
0.00255585
0.00466919
0.00520325
0.00323486
0.00561523
0.00327301
0.0074501
0.00534821
0.00637054
0.00466919
0.00405121
0.00308228
0.00613403
0.00571442
0.00219727
0.00640869
0.00646973
0.00682068
