# vtk DataFile Version 4.2
vtk output
ASCII
DATASET POLYDATA
POINTS 642 float
0.0637836 1.01019 0.397693
0.83755 1.11668 0.50523
0.133116 -0.162943 0.486394
0.940341 -0.0456884 0.584081
0.397624 0.0621092 1.01437
0.505159 0.839728 1.11572
0.486084 0.134457 -0.163856
0.581242 0.941098 -0.0431047
1.01332 0.39924 0.0609714
1.1178 0.506871 0.840124
-0.161041 0.489944 0.13695
-0.0459036 0.586412 0.938006
-0.134338 0.829804 0.675744
0.0710618 0.68068 1.2048
0.28526 0.926452 0.844153
0.843488 1.03024 0.895681
0.560599 1.15617 0.373013
0.679104 1.20511 0.071765
0.306361 1.11464 0.141012
0.118665 0.717865 0.0419397
-0.237157 0.898093 0.287744
-0.202577 0.622557 0.417647
0.896533 0.846388 1.03082
1.03014 0.898294 0.845426
0.133151 0.310616 1.11989
0.371505 0.570175 1.15951
-0.0730265 0.0722699 0.125877
0.0355454 0.124044 0.711405
0.61543 0.420241 -0.202178
0.069779 0.127235 -0.0722683
0.925442 0.858271 0.289117
0.825974 0.684313 -0.138742
1.20807 0.0697017 0.681757
0.854688 0.290852 0.928168
0.682552 -0.140066 0.82777
0.283364 -0.243944 0.901735
0.416947 -0.203254 0.617116
0.124667 -0.0729265 0.069521
0.711711 0.0361499 0.118739
0.901395 0.2838 -0.244201
1.1212 0.133668 0.307903
1.15908 0.373884 0.568358
-0.0821188 0.924039 0.520262
0.033079 0.869234 0.774284
0.158673 0.974631 0.590297
0.0109874 0.65206 1.12008
-0.0203667 0.744294 0.989602
-0.113747 0.729176 0.828765
0.402882 0.873797 1.02598
0.159102 0.79049 1.05804
0.231637 0.739834 1.18103
0.427868 1.05073 0.600595
0.309384 1.09453 0.378762
0.714411 0.949493 1.02154
0.592725 0.981742 0.872268
0.719238 1.15977 0.414958
0.71254 1.1048 0.650524
0.86817 1.09244 0.726989
0.436111 1.16905 0.200714
0.157343 1.08212 0.258623
0.737598 1.18223 0.231938
0.647526 1.2216 0.184973
0.452959 1.09001 0.0434276
0.573107 1.20554 0.0706517
0.649811 1.12222 0.0120973
-0.0021727 0.997905 0.231166
-0.11823 0.960517 0.330209
0.367784 0.838823 -0.00530098
0.194866 0.968425 0.103956
-0.229753 0.76622 0.230835
-0.0984535 0.836851 0.182645
-0.0672529 0.596565 0.0990886
-0.227915 0.897225 0.409699
-0.211696 0.583294 0.254857
-0.263119 0.80521 0.323344
-0.204583 0.783594 0.54461
-0.143094 0.611393 0.671253
0.969398 1.00966 0.915636
0.948703 1.02428 0.715486
0.727053 0.870421 1.09253
0.915547 0.970334 1.00929
1.09327 0.729158 0.870502
1.00942 0.91693 0.970547
1.02317 0.717422 0.950294
0.183537 0.649978 1.22282
0.414742 0.723371 1.16043
0.0418224 0.458987 1.08798
0.0691403 0.576377 1.20726
0.376492 0.329696 1.10441
0.195518 0.44463 1.17476
0.243023 0.163592 1.09307
-0.0924274 0.383426 0.556244
-0.0095675 0.376057 0.83312
-0.140566 0.255181 0.0989495
-0.153885 0.336235 0.26471
0.0958472 -0.0655847 0.591106
-0.0184032 0.0976459 0.392024
0.011719 -0.0661958 0.265894
0.0916171 0.397918 -0.0173195
-0.067098 0.269078 0.0141427
0.604435 0.675696 -0.140829
0.373824 0.562096 -0.0884368
0.252027 0.0984456 -0.141275
0.330058 0.266979 -0.152654
0.578753 0.25411 -0.213015
0.741788 0.996607 -0.0198318
0.726672 0.833686 -0.115214
0.871472 1.03195 0.404558
0.787047 1.06541 0.159476
0.920433 0.533991 -0.0968636
0.863487 0.788917 0.0313558
0.970658 0.615628 0.168509
1.12287 0.0103839 0.652099
0.996033 -0.0219516 0.745105
0.832471 -0.11821 0.728855
1.02988 0.406117 0.873477
1.06348 0.159492 0.789326
1.1842 0.232354 0.740702
0.532011 -0.0965682 0.92168
0.785884 0.0318596 0.865071
0.612164 0.170309 0.97226
0.545396 -0.206345 0.783202
0.672972 -0.143829 0.607002
0.321925 -0.13302 0.96058
0.411114 -0.23708 0.898577
0.252553 -0.213518 0.579415
0.322327 -0.266616 0.803336
0.226223 -0.233834 0.763126
0.555683 -0.0912889 0.376394
0.834373 -0.00805591 0.371195
0.096729 -0.141468 0.252136
0.26305 -0.154781 0.330189
0.590643 0.0971373 -0.068378
0.390672 -0.0165179 0.092817
0.265362 0.0122779 -0.0683596
0.964425 0.101822 0.198178
1.08994 0.0415792 0.456526
0.762969 0.227151 -0.234435
0.831282 0.180422 -0.099977
1.09326 0.244076 0.161809
0.999651 0.221774 -0.00725153
0.960102 0.322801 -0.13381
1.20932 0.0687404 0.574888
1.10332 0.379001 0.327613
1.17472 0.195884 0.443067
1.22454 0.18391 0.649695
1.16166 0.416379 0.723151
0.606781 0.443063 1.05364
0.875964 0.59997 0.98273
0.652365 0.719674 1.10705
0.178997 -0.0973933 0.831318
0.221098 -0.00491431 0.999762
0.0996388 0.201608 0.963688
0.0477729 -0.0118342 -0.0543392
-0.0127039 -0.0539952 0.0478793
-0.05426 0.0493507 -0.0114421
0.897789 0.411941 -0.236288
0.802621 0.323026 -0.266969
0.780457 0.547384 -0.205324
1.10651 0.655676 0.717932
1.05186 0.611095 0.440379
0.98018 0.879479 0.597743
-0.00736932 0.97136 0.445077
0.0320035 0.950127 0.551485
0.0991262 0.999284 0.467016
-0.0617255 0.849565 0.728379
-0.0302785 0.904982 0.644863
-0.123626 0.883484 0.594771
0.222734 0.946844 0.720021
0.0877284 0.925021 0.685862
0.150005 0.895179 0.812918
-0.0225155 0.626193 1.03774
-0.0499022 0.684556 0.98774
-0.0819298 0.673254 0.891753
0.0315515 0.702521 1.12396
-0.00856794 0.69464 1.06677
0.041385 0.664362 1.18023
-0.132764 0.782709 0.76104
-0.0710792 0.736725 0.913131
-0.0865476 0.793407 0.837928
0.455899 0.856762 1.08414
0.313302 0.812473 1.11622
0.354679 0.78776 1.14773
0.222346 0.85541 0.953925
0.268579 0.834362 1.04871
0.346092 0.899236 0.947157
0.132649 0.706279 1.20181
0.194411 0.760133 1.13624
0.105929 0.733622 1.15018
-0.0099048 0.812948 0.890573
0.0562987 0.765587 1.03947
0.0953163 0.83326 0.930868
0.221399 1.03629 0.476991
0.166929 1.04709 0.386666
0.356659 0.98135 0.719803
0.289834 1.013 0.597725
0.445784 1.13017 0.373725
0.367921 1.07364 0.479764
0.495764 1.11135 0.486786
0.618539 0.902995 1.06927
0.562767 0.918886 1.02885
0.731623 1.0182 0.885912
0.660296 0.96496 0.958114
0.795251 0.994505 0.955887
0.501755 0.932936 0.95577
0.436791 0.951968 0.861975
0.781118 1.1424 0.459108
0.79506 1.12182 0.580313
0.852854 1.10433 0.626741
0.633755 1.1296 0.505571
0.718789 1.13264 0.538921
0.65117 1.16508 0.383732
0.862683 1.05807 0.815278
0.800243 1.10128 0.690157
0.785133 1.06295 0.77973
0.511688 1.02081 0.743974
0.665822 1.04852 0.763288
0.58261 1.07883 0.619712
0.224042 1.09204 0.306759
0.0997595 1.04091 0.335703
0.497704 1.16937 0.270691
0.371177 1.13377 0.286883
0.225378 1.10372 0.193028
0.295674 1.12383 0.226654
0.372321 1.14886 0.163719
0.784909 1.1492 0.355147
0.729353 1.18208 0.313854
0.666827 1.22125 0.116638
0.691129 1.21288 0.196548
0.70439 1.20234 0.133077
0.675422 1.20241 0.28109
0.614891 1.20076 0.268531
0.515557 1.03359 0.0038099
0.568899 1.1203 0.0190077
0.622235 1.04076 -0.0202617
0.457514 1.17339 0.0970094
0.516668 1.16338 0.0557751
0.384825 1.11621 0.0882597
0.662911 1.18112 0.0422386
0.616163 1.19112 0.0398157
0.642203 1.21437 0.060945
0.558989 1.21667 0.181139
0.61216 1.22334 0.109223
0.508371 1.21153 0.126873
0.0161123 1.01712 0.305453
-0.0156488 0.99145 0.369539
0.145849 1.0656 0.182239
0.0779085 1.04537 0.240556
-0.195651 0.92872 0.305384
-0.0738291 0.977531 0.281196
-0.14293 0.940271 0.26924
0.483672 0.892985 -0.026474
0.408093 0.97752 0.0231478
0.152112 0.853153 0.077169
0.277454 0.91614 0.0440572
0.243014 0.779245 0.0193212
0.326474 1.03128 0.0688998
0.245996 1.0571 0.120619
-0.20032 0.647792 0.188163
-0.164486 0.688452 0.163647
-0.126346 0.543077 0.117973
-0.188116 0.879071 0.23859
-0.184293 0.801887 0.210103
-0.245427 0.854089 0.26841
0.0146859 0.654984 0.0725225
-0.0910645 0.733112 0.139889
0.00599466 0.781701 0.114184
0.0836281 1.00388 0.159244
0.0345654 0.905496 0.139489
-0.0675821 0.932315 0.207982
-0.10707 0.949641 0.408582
-0.241045 0.904339 0.328124
-0.199453 0.928984 0.364185
-0.169814 0.909829 0.46346
-0.19134 0.871979 0.522859
-0.193162 0.537672 0.197809
-0.236082 0.685361 0.242805
-0.248888 0.725454 0.360474
-0.25417 0.713113 0.297281
-0.213674 0.61409 0.32246
-0.256393 0.799418 0.281393
-0.264851 0.863305 0.299496
-0.138174 0.68397 0.75616
-0.0935008 0.601579 0.799852
-0.177571 0.810415 0.609933
-0.160996 0.755205 0.689323
-0.172246 0.619518 0.535266
-0.17781 0.701661 0.612507
-0.212838 0.721498 0.481713
-0.257791 0.863518 0.360829
-0.257384 0.804923 0.419107
-0.240598 0.849504 0.470796
0.915713 1.0754 0.728035
0.901374 1.0713 0.619146
0.921643 1.02612 0.908974
0.917186 1.04469 0.827854
0.993914 0.958204 0.79678
0.959927 1.01353 0.825416
1.00443 0.976567 0.893925
0.626837 0.855504 1.10424
0.727641 0.917176 1.07441
0.909425 0.923157 1.02606
0.827793 0.918461 1.04424
0.815656 0.864856 1.05837
0.824709 0.960983 1.01235
0.892951 1.00475 0.97516
1.10551 0.628882 0.855738
1.07551 0.729968 0.917623
1.07108 0.62107 0.903693
1.02599 0.910641 0.922856
1.04448 0.829688 0.918566
1.05807 0.8175 0.86458
0.956902 0.798359 0.995215
1.01287 0.827044 0.961366
0.975737 0.895098 1.00525
0.965402 1.0028 0.979328
0.979321 0.966491 1.00288
1.00237 0.980004 0.966063
0.313483 0.732059 1.18234
0.45918 0.784224 1.14206
0.115701 0.668038 1.22186
0.196031 0.693053 1.21355
0.382848 0.656846 1.16658
0.280201 0.678401 1.20404
0.266731 0.620439 1.20432
0.000578772 0.522111 1.03032
0.0168449 0.573325 1.11877
0.0932629 0.462611 1.17669
0.0544509 0.521146 1.16422
0.083696 0.38903 1.11833
0.0385278 0.618287 1.1914
0.0600699 0.643187 1.21527
0.383945 0.200878 1.05798
0.295695 0.24151 1.10622
0.304637 0.106833 1.05242
0.266477 0.507244 1.17371
0.280882 0.383521 1.14185
0.371474 0.459086 1.13455
0.183729 0.229555 1.1122
0.21939 0.30499 1.13301
0.157902 0.379149 1.15442
0.107111 0.615018 1.22475
0.122848 0.514174 1.21462
0.177769 0.564912 1.21983
-0.0816356 0.500125 0.757512
-0.0301497 0.491394 0.888291
-0.16135 0.503155 0.486303
-0.118156 0.507587 0.61463
0.0154664 0.250611 0.773062
-0.053022 0.379035 0.698191
-0.018469 0.255142 0.634219
-0.155102 0.360451 0.118312
-0.176 0.410784 0.177812
-0.108804 0.197221 0.188078
-0.149497 0.296025 0.17112
-0.105345 0.158881 0.104759
-0.184845 0.455572 0.253039
-0.177029 0.488582 0.343792
0.114994 -0.126583 0.538162
0.0424194 -0.0728099 0.425865
0.059537 -0.116967 0.3668
0.0123021 0.107413 0.554298
0.0299898 0.00588593 0.488793
0.0675844 0.0177099 0.649102
-0.0350269 0.00572327 0.178302
-0.00247597 0.00327241 0.322694
-0.0605749 0.0826538 0.245958
[...]
POINT_DATA 642
SCALARS Normal_Velocity float 1
LOOKUP_TABLE default
0.500636
12.5454
9.85848
1.13698
1.12323
12.4307
9.88259
0.719895
1.15361
12.808
8.47847
0.946965
6.84607
17.4912
1.57648
2.33749
0.721091
18.0771
9.68566
1.755
18.8207
0.572239
2.41815
2.43738
10.5512
0.706933
1.36919
2.12105
0.705817
1.56682
2.01935
6.0095
18.335
2.0515
5.71931
19.6956
0.734121
1.5621
2.3183
19.9011
10.6182
0.713005
0.563103
0.145481
0.306311
3.91611
6.85781
8.0374
0.196816
0.117676
8.92599
0.534111
1.02482
3.308
0.985573
3.30534
2.73754
10.3845
1.21432
6.35849
9.35279
5.83425
2.6928
11.5849
3.99864
6.62142
3.21691
0.239645
0.435975
10.3847
0.0789633
0.211211
10.7323
4.87669
5.04715
1.93763
1.87874
10.5129
3.79132
10.6685
10.6449
10.6903
10.8068
3.63731
5.806
3.63929
1.59561
12.1136
1.25139
1.33693
8.82068
0.0149654
0.397254
9.32739
2.67726
0.49814
1.52345
3.0952
1.05051
2.99364
1.80244
0.168288
9.58736
2.78416
5.01191
7.47693
7.877
0.264837
0.207036
1.09211
0.713411
0.359747
2.9427
7.43306
9.0116
0.517007
0.340592
9.46191
0.994857
0.973472
0.486685
0.524122
1.96049
2.42495
11.0205
5.69921
3.68125
11.3104
0.0565473
0.488822
9.97225
3.1768
0.539315
1.70804
3.4909
2.27299
1.6819
11.2134
1.10548
8.86614
5.45214
2.36587
11.7259
1.28176
0.850843
5.35294
3.59371
0.411957
1.08284
3.12305
0.937914
5.32098
1.84633
10.3424
10.5401
10.1148
10.9774
4.03685
0.313095
3.15564
0.528516
1.18362
0.0540179
0.150817
0.161722
0.791133
2.60983
4.062
0.353965
1.02403
0.535257
1.9262
11.3339
1.0045
7.26871
12.515
14.8121
12.267
5.7146
10.4963
3.05488
5.5486
7.61539
0.871219
1.94037
1.22408
10.5011
0.350373
5.04077
3.39473
2.58752
1.38454
0.747043
0.0519343
0.814083
0.550995
0.54601
0.439417
1.55887
6.17508
3.64893
2.25617
0.361917
1.30269
0.762283
0.190522
6.27173
3.78017
8.32085
0.785729
2.51969
0.443856
3.17652
3.47387
0.0182167
0.986884
0.480328
0.446025
2.02307
0.91907
0.162649
0.808662
8.36344
2.1392
6.06876
7.71508
7.97443
13.8373
11.4811
10.8264
7.74865
2.25174
1.0888
3.05538
1.67126
10.6712
6.66877
5.10707
15.2265
12.7226
23.924
4.78759
6.93885
12.6842
4.41883
1.30097
11.0916
5.95053
9.94334
7.35265
8.76802
0.425302
0.0938661
0.103008
1.83455
0.239661
2.16357
4.57337
8.21613
4.51179
2.03824
6.87406
2.17512
10.8675
0.754066
1.50333
0.0536905
7.13388
1.78903
4.97259
1.29692
16.0533
7.41365
3.0004
7.98431
5.71836
9.23059
2.60845
9.60346
0.395014
8.7694
25.1907
4.39788
0.759839
8.95255
3.97634
0.654707
2.11526
0.24574
8.75998
7.02306
15.4783
14.9526
6.41006
5.91031
8.64075
1.2891
5.04333
9.25085
8.74439
14.7239
6.05179
8.54268
3.40661
4.96269
8.91681
8.90799
14.8557
6.13172
5.97114
8.56964
3.1743
1.30954
5.01285
9.20692
21.2399
21.7485
21.528
8.22528
6.36299
13.9881
11.8099
0.268163
8.21796
2.92836
1.1895
3.18411
11.5908
5.76789
4.91819
12.6456
24.5049
0.898286
2.85894
0.955585
0.404988
0.853626
0.103275
8.36393
2.35929
5.67119
7.08934
12.8312
5.06855
1.54241
0.444355
2.48978
0.690287
0.00882747
0.523129
1.13406
7.34112
7.76447
0.109601
2.01691
3.45355
2.2485
0.0178462
1.45096
4.44327
6.05656
0.517155
1.1117
0.950761
0.980774
0.614185
2.24318
0.0840654
0.188535
1.46845
4.2271
6.2541
0.489686
1.13927
0.910098
0.477831
2.00855
0.593852
1.53909
2.55307
1.04648
0.675528
0.133171
0.564787
7.16495
7.82896
5.29388
0.14964
1.53713
3.14758
1.37938
1.50808
0.446126
1.07529
0.42287
0.392788
11.2716
0.307916
7.32932
12.0009
14.8537
4.54567
10.9052
3.50485
5.78883
0.765741
2.33214
1.07403
0.817961
5.37701
0.705584
0.532032
0.349525
1.28359
3.17935
4.16579
0.527267
1.78742
0.24613
3.05847
1.64659
3.42849
1.07509
13.1537
0.806729
5.95806
13.7194
15.9191
15.0429
3.23915
11.2895
3.19006
5.68198
7.70229
1.05691
2.33452
1.16305
9.98299
0.241341
5.29541
0.753439
0.698755
0.156693
0.973197
3.30316
4.09157
0.480945
1.81261
0.298875
3.17272
1.55116
3.44423
4.61588
1.12783
11.894
1.72325
0.824605
2.22493
0.176617
0.958765
1.38571
16.4253
8.148
10.9686
3.78056
7.83473
4.81247
8.50976
8.77934
2.21487
10.3811
1.42055
9.62703
8.78993
24.4459
17.1262
7.75471
6.62817
1.8855
0.738839
2.92153
1.17626
0.0687137
0.446699
1.20619
7.18429
8.41216
0.0458138
1.23952
3.28906
1.47029
0.0240238
1.57118
4.76575
6.04296
0.578203
1.23323
0.876612
0.913671
0.611585
2.31419
0.374254
0.227188
1.5621
0.16009
1.40182
0.119616
2.41349
4.60809
2.15288
4.38379
8.75611
4.70663
6.66741
1.66997
9.64189
1.85078
0.461807
1.16869
8.36071
0.842694
11.7626
4.59142
8.71319
11.0101
9.56855
7.96253
1.16328
5.61271
7.83058
3.23066
11.5608
6.01264
12.495
24.3415
0.860637
2.81749
0.564222
0.705773
0.200687
1.99996
6.04351
8.29642
6.45273
14.1633
12.1267
0.0705901
8.23688
2.66097
13.3006
4.92071
6.67996
1.06886
1.06935
0.707653
0.527247
1.90189
4.06701
2.4375
0.579618
0.76694
0.106809
3.97069
0.994921
2.61086
3.59006
0.137634
1.14929
0.416299
0.612902
4.56714
6.5871
1.36184
1.79836
0.555248
8.18344
11.8302
5.11711
9.65236
8.02088
0.105147
0.242593
2.14239
2.05498
3.9181
5.39199
7.50069
1.19487
15.2651
8.9443
4.17009
9.36976
4.47534
15.2076
8.64141
4.06558
9.33081
4.43325
15.3186
8.65532
4.15573
9.3324
4.7752
20.5615
20.3756
20.2126
1.45329
16.3047
8.26388
3.99883
7.80449
8.55989
1.84791
9.98251
9.09697
24.3069
4.23784
11.0341
2.2082
2.0636
0.476587
7.64549
6.43477
16.4684
3.68636
0.929777
2.50033
3.35182
0.0524255
1.12382
0.929529
0.586105
0.705563
1.99006
4.10227
2.38211
0.329741
0.92858
0.192717
0.797208
1.0822
0.547889
SCALARS Mean_Curvature float 1
LOOKUP_TABLE default
0.500636
12.5454
9.85848
1.13698
1.12323
12.4307
9.88259
0.719895
1.15361
12.808
8.47847
0.946965
6.84607
17.4912
1.57648
2.33749
0.721091
18.0771
9.68566
1.755
18.8207
0.572239
2.41815
2.43738
10.5512
0.706933
1.36919
2.12105
0.705817
1.56682
2.01935
6.0095
18.335
2.0515
5.71931
19.6956
0.734121
1.5621
2.3183
19.9011
10.6182
0.713005
0.563103
0.145481
0.306311
3.91611
6.85781
8.0374
0.196816
0.117676
8.92599
0.534111
1.02482
3.308
0.985573
3.30534
2.73754
10.3845
1.21432
6.35849
9.35279
5.83425
2.6928
11.5849
3.99864
6.62142
3.21691
0.239645
0.435975
10.3847
0.0789633
0.211211
10.7323
4.87669
5.04715
1.93763
1.87874
10.5129
3.79132
10.6685
10.6449
10.6903
10.8068
3.63731
5.806
3.63929
1.59561
12.1136
1.25139
1.33693
8.82068
0.0149654
0.397254
9.32739
2.67726
0.49814
1.52345
3.0952
1.05051
2.99364
1.80244
0.168288
9.58736
2.78416
5.01191
7.47693
7.877
0.264837
0.207036
1.09211
0.713411
0.359747
2.9427
7.43306
9.0116
0.517007
0.340592
9.46191
0.994857
0.973472
0.486685
0.524122
1.96049
2.42495
11.0205
5.69921
3.68125
11.3104
0.0565473
0.488822
9.97225
3.1768
0.539315
1.70804
3.4909
2.27299
1.6819
11.2134
1.10548
8.86614
5.45214
2.36587
11.7259
1.28176
0.850843
5.35294
3.59371
0.411957
1.08284
3.12305
0.937914
5.32098
1.84633
10.3424
10.5401
10.1148
10.9774
4.03685
0.313095
3.15564
0.528516
1.18362
0.0540179
0.150817
0.161722
0.791133
2.60983
4.062
0.353965
1.02403
0.535257
1.9262
11.3339
1.0045
7.26871
12.515
14.8121
12.267
5.7146
10.4963
3.05488
5.5486
7.61539
0.871219
1.94037
1.22408
10.5011
0.350373
5.04077
3.39473
2.58752
1.38454
0.747043
0.0519343
0.814083
0.550995
0.54601
0.439417
1.55887
6.17508
3.64893
2.25617
0.361917
1.30269
0.762283
0.190522
6.27173
3.78017
8.32085
0.785729
2.51969
0.443856
3.17652
3.47387
0.0182167
0.986884
0.480328
0.446025
2.02307
0.91907
0.162649
0.808662
8.36344
2.1392
6.06876
7.71508
7.97443
13.8373
11.4811
10.8264
7.74865
2.25174
1.0888
3.05538
1.67126
10.6712
6.66877
5.10707
15.2265
12.7226
23.924
4.78759
6.93885
12.6842
4.41883
1.30097
11.0916
5.95053
9.94334
7.35265
8.76802
0.425302
0.0938661
0.103008
1.83455
0.239661
2.16357
4.57337
8.21613
4.51179
2.03824
6.87406
2.17512
10.8675
0.754066
1.50333
0.0536905
7.13388
1.78903
4.97259
1.29692
16.0533
7.41365
3.0004
7.98431
5.71836
9.23059
2.60845
9.60346
0.395014
8.7694
25.1907
4.39788
0.759839
8.95255
3.97634
0.654707
2.11526
0.24574
8.75998
7.02306
15.4783
14.9526
6.41006
5.91031
8.64075
1.2891
5.04333
9.25085
8.74439
14.7239
6.05179
8.54268
3.40661
4.96269
8.91681
8.90799
14.8557
6.13172
5.97114
8.56964
3.1743
1.30954
5.01285
9.20692
21.2399
21.7485
21.528
8.22528
6.36299
13.9881
11.8099
0.268163
8.21796
2.92836
1.1895
3.18411
11.5908
5.76789
4.91819
12.6456
24.5049
0.898286
2.85894
0.955585
0.404988
0.853626
0.103275
8.36393
2.35929
5.67119
7.08934
12.8312
5.06855
1.54241
0.444355
2.48978
0.690287
0.00882747
0.523129
1.13406
7.34112
7.76447
0.109601
2.01691
3.45355
2.2485
0.0178462
1.45096
4.44327
6.05656
0.517155
1.1117
0.950761
0.980774
0.614185
2.24318
0.0840654
0.188535
1.46845
4.2271
6.2541
0.489686
1.13927
0.910098
0.477831
2.00855
0.593852
1.53909
2.55307
1.04648
0.675528
0.133171
0.564787
7.16495
7.82896
5.29388
0.14964
1.53713
3.14758
1.37938
1.50808
0.446126
1.07529
0.42287
0.392788
11.2716
0.307916
7.32932
12.0009
14.8537
4.54567
10.9052
3.50485
5.78883
0.765741
2.33214
1.07403
0.817961
5.37701
0.705584
0.532032
0.349525
1.28359
3.17935
4.16579
0.527267
1.78742
0.24613
3.05847
1.64659
3.42849
1.07509
13.1537
0.806729
5.95806
13.7194
15.9191
15.0429
3.23915
11.2895
3.19006
5.68198
7.70229
1.05691
2.33452
1.16305
9.98299
0.241341
5.29541
0.753439
0.698755
0.156693
0.973197
3.30316
4.09157
0.480945
1.81261
0.298875
3.17272
1.55116
3.44423
4.61588
1.12783
11.894
1.72325
0.824605
2.22493
0.176617
0.958765
1.38571
16.4253
8.148
10.9686
3.78056
7.83473
4.81247
8.50976
8.77934
2.21487
10.3811
1.42055
9.62703
8.78993
24.4459
17.1262
7.75471
6.62817
1.8855
0.738839
2.92153
1.17626
0.0687137
0.446699
1.20619
7.18429
8.41216
0.0458138
1.23952
3.28906
1.47029
0.0240238
1.57118
4.76575
6.04296
0.578203
1.23323
0.876612
0.913671
0.611585
2.31419
0.374254
0.227188
1.5621
0.16009
1.40182
0.119616
2.41349
4.60809
2.15288
4.38379
8.75611
4.70663
6.66741
1.66997
9.64189
1.85078
0.461807
1.16869
8.36071
0.842694
11.7626
4.59142
8.71319
11.0101
9.56855
7.96253
1.16328
5.61271
7.83058
3.23066
11.5608
6.01264
12.495
24.3415
0.860637
2.81749
0.564222
0.705773
0.200687
1.99996
6.04351
8.29642
6.45273
14.1633
12.1267
0.0705901
8.23688
2.66097
13.3006
4.92071
6.67996
1.06886
1.06935
0.707653
0.527247
1.90189
4.06701
2.4375
0.579618
0.76694
0.106809
3.97069
0.994921
2.61086
3.59006
0.137634
1.14929
0.416299
0.612902
4.56714
6.5871
1.36184
1.79836
0.555248
8.18344
11.8302
5.11711
9.65236
8.02088
0.105147
0.242593
2.14239
2.05498
3.9181
5.39199
7.50069
1.19487
15.2651
8.9443
4.17009
9.36976
4.47534
15.2076
8.64141
4.06558
9.33081
4.43325
15.3186
8.65532
4.15573
9.3324
4.7752
20.5615
20.3756
20.2126
1.45329
16.3047
8.26388
3.99883
7.80449
8.55989
1.84791
9.98251
9.09697
24.3069
4.23784
11.0341
2.2082
2.0636
0.476587
7.64549
6.43477
16.4684
3.68636
0.929777
2.50033
3.35182
0.0524255
1.12382
0.929529
0.586105
0.705563
1.99006
4.10227
2.38211
0.329741
0.92858
0.192717
0.797208
1.0822
0.547889
SCALARS CoVolArea float 1
LOOKUP_TABLE default
0.0058336
0.00601171
0.00738653
0.0106779
0.0113228
0.0061201
0.00729757
0.0105894
0.0113779
0.00608496
0.00728266
0.0104428
0.00806323
0.00327078
0.0176583
0.00816299
0.0132764
0.00312486
0.00709614
0.0184065
0.00301809
0.0138196
0.00799487
0.00803913
0.00736225
0.0130361
0.0096135
0.0186881
0.0141632
0.00969645
0.0175293
0.00799562
0.00328296
0.0176633
0.00807068
0.00324291
0.0141342
0.00954797
0.0186351
0.00320318
0.00738438
0.0132261
0.0110361
0.0146309
0.01648
0.00520038
0.00823576
0.00673231
0.012218
0.0122937
0.00605338
0.0198064
0.013995
0.00834569
0.0170138
0.00779367
0.0134924
0.00586208
0.00931404
0.00802498
0.00587104
0.0052009
0.00957881
0.0041775
0.00523026
0.0075048
0.00672055
0.0171719
0.0139739
0.00583396
0.0119873
0.0131775
0.00487563
0.0076818
0.00485254
0.00843046
0.0139172
0.00387723
0.00817169
0.0057839
0.00389121
0.00583968
0.00386279
0.0082509
0.00501745
0.00765045
0.00985344
0.00405391
0.0143507
0.00919189
0.00784967
0.0214027
0.0172999
0.00663751
0.0152109
0.0133823
0.0192439
0.00960909
0.0189236
0.00958219
0.0142381
0.0215878
0.00669074
0.0155876
0.00795366
0.00797158
0.00696603
0.0119548
0.0118929
0.0108863
0.0146974
0.017343
0.00526564
0.00821317
0.00692776
0.0121388
0.0121102
0.00606225
0.0109409
0.0148028
0.0173758
0.00888553
0.0142328
0.0066548
0.00494243
0.00779201
0.0051109
0.00606806
0.0216717
0.0174051
0.00662913
0.0153271
0.0132703
0.0190628
0.00948223
0.0145129
0.0098677
0.00601787
0.0123328
0.00791852
0.00809668
0.00666447
0.00416898
0.0144654
0.00932832
0.00514572
0.00777694
0.019994
0.0167613
0.0130008
0.0124568
0.00815815
0.0144579
0.00463065
0.00464149
0.00466632
0.00495977
0.00515551
0.00888949
0.0132532
0.020064
0.0166293
0.00936869
0.0137514
0.0115637
0.0114598
0.0125811
0.00929505
0.0172634
0.0153926
0.016986
0.00870248
0.0059627
0.00938486
0.00614103
0.00467215
0.00276928
0.00626668
0.00597454
0.00885135
0.00923458
0.00939107
0.00711932
0.0158171
0.0119759
0.0144543
0.00436953
0.00828192
0.00769659
0.0132151
0.0118922
0.0161993
0.0157192
0.0103537
0.0202049
0.0181987
0.0138192
0.0167215
0.0170784
0.00763515
0.0106999
0.0129004
0.0118404
0.00836416
0.0139767
0.0186169
0.00677435
0.0073958
0.00626051
0.0144961
0.00976124
0.0096237
0.00649672
0.00835923
0.0113428
0.0218831
0.0181163
0.0198101
0.0104955
0.00779611
0.0118221
0.0118775
0.00661204
0.00881058
0.00716553
0.00695152
0.00595005
0.00291523
0.00411545
0.00419985
0.00604822
0.00923307
0.0114161
0.00772293
0.00883524
0.00631713
0.00614011
0.00793704
0.00269434
0.00396019
0.00230882
0.00856921
0.0047352
0.00686841
0.00756778
0.00740916
0.00778693
0.00668336
0.00370814
0.00561614
0.00574793
0.0151446
0.0139101
0.0171242
0.0152268
0.0176153
0.0116504
0.0100281
0.00778846
0.00975553
0.0102543
0.00703062
0.00801593
0.00373275
0.0153449
0.0124296
0.0161378
0.0118096
0.0156617
0.0108615
0.00876049
0.00291901
0.00546054
0.00761833
0.00690742
0.00724665
0.00611874
0.00924981
0.00603644
0.0100653
0.00382542
0.00252147
0.0102679
0.0134423
0.00672256
0.00788973
0.014039
0.0112559
0.0115687
0.00449506
0.0078983
0.0063825
0.00604135
0.00746564
0.00500986
0.00495158
0.00821962
0.00594222
0.00544856
0.00623831
0.00609251
0.00494632
0.00494727
0.00635425
0.00601715
0.00550829
0.00626252
0.00607619
0.00757526
0.0049664
0.00494603
0.00643245
0.00824683
0.0059625
0.00543139
0.00329333
0.00326121
0.00327377
0.00597063
0.00672549
0.00290092
0.00414382
0.00929999
0.00589485
0.00892886
0.0114087
0.00777723
0.00628375
0.00624349
0.00815648
0.00397836
0.00228183
0.0142276
0.011287
0.0106145
0.0116573
0.0118081
0.013794
0.00682199
0.00880863
0.0072191
0.00454425
0.00668472
0.00831891
0.0169549
0.015118
0.0181221
0.0174377
0.0178589
0.0192123
0.0218251
0.00722403
0.00759365
0.0130913
0.00948546
0.0076101
0.0105957
0.0157822
0.0103933
0.0119582
0.00896843
0.0204536
0.0155333
0.0156172
0.00984487
0.0135328
0.0149193
0.0215946
0.0203778
0.0241855
0.0118405
0.00887797
0.0200402
0.01526
0.00984092
0.0133993
0.0148785
0.0136293
0.0171236
0.0184998
0.0177909
0.0143575
0.0192066
0.0215415
0.00727031
0.00774189
0.00738142
0.0133365
0.00971514
0.0077355
0.0104645
0.0109265
0.0161845
0.0240766
0.0219619
0.0205026
0.006085
0.00960975
0.0058711
0.00461797
0.00624389
0.00596477
0.00868686
0.00895515
0.00912288
0.0155088
0.0116443
0.0141121
0.00798361
0.00736871
0.0126653
0.0148253
0.0157562
0.0113756
0.0125408
0.00915766
0.0173995
0.0156317
0.0170497
0.01147
0.0160067
0.0129859
0.00887386
0.00604699
0.00966588
0.0060933
0.00470029
0.00278371
0.00634694
0.00608445
0.00887945
0.00914517
0.00933313
0.00709235
0.0157051
0.0118471
0.0142897
0.00438681
0.00821759
0.00761185
0.0126346
0.0148793
0.0157149
0.0114794
0.0126317
0.00923183
0.0174596
0.0157077
0.0171509
0.0117041
0.0161798
0.0131539
0.0106149
0.0137621
0.00678101
0.00822876
0.0143861
0.0117171
0.0119959
0.0101541
0.00925826
0.003019
0.00538988
0.00368224
0.00742071
0.00695017
0.00738813
0.00632191
0.00796825
0.00953696
0.00622265
0.0103194
0.00399845
0.00406532
0.00276998
0.00661602
0.004736
0.00827138
0.0172258
0.015328
0.0184575
0.0177981
0.0179064
0.0194028
0.0218906
0.00728448
0.00759957
0.0130596
0.00953773
0.00761344
0.0107521
0.0160591
0.0102826
0.0118095
0.00886588
0.0203105
0.0153618
0.0154937
0.00973484
0.0133661
0.0147639
0.0217687
0.0203036
0.0241896
0.0141852
0.0115301
0.0174497
0.0155451
0.00821126
0.0120174
0.0104879
0.00787797
0.00986938
0.00735658
0.0082094
0.00395527
0.0126132
0.0163992
0.0106694
0.00731019
0.0101897
0.00837551
0.00668184
0.00684571
0.00366347
0.00542685
0.00610594
0.0161965
0.0114832
0.0125439
0.00784407
0.00636852
0.00630249
0.00404488
0.00236597
0.0142953
0.0113995
0.011831
0.0119742
0.0139275
0.00891311
0.00725738
0.00601862
0.00676849
0.00297928
0.00420686
0.0095054
0.00601452
0.00911318
0.00678671
0.00847208
0.00467107
0.0170336
0.0204075
0.0185675
0.0168877
0.0169907
0.0105911
0.0126396
0.0116951
0.01382
0.0184828
0.00727199
0.0140683
0.00945559
0.00810809
0.0109822
0.0218109
0.0176856
0.0195362
0.00995958
0.00745963
0.00830885
0.0127222
0.0164869
0.00727141
0.00839804
0.00665213
0.00542711
0.00618848
0.0141266
0.0174131
0.0154935
0.0119896
0.010483
0.0116144
0.0126082
0.0162432
0.0071005
0.00652072
0.00697011
0.00581316
0.00603729
0.00715311
0.00657843
0.00704146
0.00580483
0.00597455
0.00711658
0.00659834
0.00703724
0.00580644
0.00600322
0.00405626
0.0040832
0.00409285
0.009246
0.0030319
0.00537371
0.00737488
0.0069418
0.00631496
0.00961692
0.00631181
0.00405769
0.00277529
0.01064
0.00679741
0.00822796
0.0116899
0.0119534
0.00479489
0.00831603
0.00668006
0.00737812
0.0143333
0.00966587
0.00827681
0.0111246
0.0170953
0.0203237
0.0185788
0.0169959
0.0171642
0.0104362
0.0126136
0.0115669
0.0136367
0.0183117
0.0197462
0.0217803
0.0177739
SCALARS SignedDistance float 1
LOOKUP_TABLE default
0.0490303
0.00639343
0.0300837
0.0555916
0.0540504
0.00840378
0.029686
0.0551266
0.0544624
0.0118523
0.0284071
0.0534458
0.0247269
0.0131054
0.0628893
0.0446167
0.0537518
0.0108938
0.0163193
0.0609878
0.00250149
0.0554756
0.0452118
0.0445251
0.0238342
0.0553132
0.0513953
0.0641381
0.0562477
0.0503803
0.0635962
0.0334015
0.0150471
0.0652242
0.0345421
0.0080514
0.0571132
0.050959
0.0648043
0.00741363
0.0278931
0.0556259
0.0540204
0.0571125
0.0681982
0.0410547
0.0392075
0.0378416
0.0557699
0.0520434
0.0374641
0.0652046
0.0576026
0.0479431
0.0672865
0.0457153
0.0511475
0.019043
0.0458679
0.0217495
0.0347633
0.0268517
0.0487659
0.00896454
0.0403709
0.0260569
0.0420742
0.0650791
0.0589978
0.024334
0.0489008
0.0565225
0.0174932
0.046073
0.0272446
0.049718
0.0481834
0.0174713
0.0471191
0.0192413
0.0167389
0.0203552
0.0169373
0.0491333
0.0284386
0.0456696
0.0526603
0.00963974
0.0602875
0.0446587
0.0274813
0.0685897
0.066833
0.0297358
0.054266
0.0571259
0.0633903
0.0481935
0.0644614
0.0467819
0.0523529
0.066888
0.0311928
0.0562773
0.0492697
0.0392613
0.0406711
0.0557957
0.052063
0.0553699
0.0563908
0.068418
0.0422993
0.0431137
0.042626
0.0560942
0.0525663
0.0386276
0.055009
0.0568743
0.0692286
0.0512431
0.0531502
0.04035
0.0208092
0.0482578
0.0321331
0.0297689
0.0685292
0.0663944
0.0314136
0.0574341
0.0576089
0.0648202
0.0478046
0.0591795
0.0534261
0.0286865
0.0508623
0.0293732
0.0383281
0.040802
0.0134773
0.0610154
0.0455742
0.0306015
0.0479889
0.0689564
0.0658417
0.0517578
0.0506022
0.0384145
0.0594004
0.0231648
0.0226617
0.023022
0.0207253
0.0322523
0.0511045
0.0532532
0.0686035
0.0667906
0.0597275
0.0595249
0.0579631
0.0530891
0.0461376
0.030262
0.0666351
0.0629561
0.0579796
0.0384874
0.0170107
0.048357
0.0185566
0.0151821
0.00531387
0.0171356
0.0374508
0.0217552
0.0412292
0.0310478
0.0314293
0.0666174
0.0557688
0.0544128
-0.00300026
0.0532575
0.0334835
0.0447091
0.0494423
0.0567937
0.0579336
0.0604634
0.0723209
0.0644622
0.0584753
0.066124
0.0583611
0.0374756
0.0528393
0.0487976
0.0579939
0.0479059
0.0602741
0.064312
0.0323486
0.0483284
0.034729
0.0582123
0.0513535
0.0548553
0.04422
0.0411377
0.0570984
0.0651474
0.0616951
0.0658112
0.0471916
0.0536453
0.0568981
0.0524292
0.0313091
0.0500412
0.0386105
0.0302429
0.0276947
0.010952
0.0160599
-0.00504494
0.02911
0.049746
0.0536799
0.0365486
0.037993
0.0136418
0.0338826
0.0303068
0.00347519
0.0051868
0.00279999
0.0281563
0.0274208
0.0126333
0.0321915
0.0476811
0.0167522
0.020708
0.0194812
0.0249341
0.0167542
0.0614123
0.0592786
0.0602987
0.0567079
0.0674093
0.0504127