# vtk DataFile Version 4.2
vtk output
ASCII
DATASET POLYDATA
POINTS 59 float
0.369021 1.88208 -0.000198361
0.349261 1.97523 -0.224656
0.428002 2.15351 -0.0123286
0.227262 1.75012 0.140271
-5.86056e-05 1.65862 0.000149862
0.226081 1.75059 -0.140042
-0.00053221 1.73806 -0.233493
0.000316791 1.73768 0.234395
-0.135717 1.8919 0.359754
-0.354552 1.98289 0.219059
-0.22597 1.75004 0.139826
-0.368692 1.88286 0.000859168
-0.223335 2.15092 0.356743
0.358737 1.97451 0.216331
0.136775 1.8905 0.35981
0.225338 2.14539 0.357618
-0.00436557 2.12384 0.429749
-0.105031 2.35515 0.311324
0.0796045 2.38049 0.303003
0.136016 1.89357 -0.357641
0.212424 2.12477 -0.359376
-0.227013 1.75031 -0.140002
-0.424813 2.15574 0.0195611
-0.328348 2.26272 0.198872
-0.357873 1.97418 -0.216706
-0.136815 1.89085 -0.359152
-0.225229 2.14664 -0.358043
0.00669936 2.12116 -0.429154
0.131395 2.32915 -0.325249
-0.0835439 2.37815 -0.309299
0.23058 2.36347 0.220323
0.293428 2.28989 -0.240199
-0.230911 2.36441 -0.222659
-0.190109 2.38948 0.239077
-0.260298 2.41513 0.0686928
-0.312191 2.34643 0.118823
-0.0852716 2.48587 0.139615
-0.0577609 2.41068 0.267218
-0.325053 2.35578 -0.00358331
0.304449 2.35718 -0.121211
0.323166 2.35811 0.00600604
-0.334262 2.30735 -0.158856
-0.262971 2.40673 -0.0997481
0.334799 2.30579 0.158145
0.261903 2.40613 0.0991613
0.0289397 2.44649 0.222633
0.116203 2.41664 -0.253889
-0.0227251 2.45093 -0.219064
0.137993 2.43804 0.190589
0.191079 2.4399 0.117628
0.0659354 2.49087 0.11469
0.213547 2.44825 0.0292243
-0.140977 2.43905 -0.191026
-0.192812 2.44077 -0.117714
-0.0670257 2.49287 -0.111818
-0.215333 2.44816 -0.0270536
-0.00119984 2.50231 0.00169895
0.0747046 2.48983 -0.119803
0.255163 2.42095 -0.0582869


POLYGONS 114 456 
3 0 1 2
3 3 4 5
3 6 5 4
3 7 4 3
3 0 3 5
3 8 9 10
3 11 10 9
3 12 9 8
3 7 8 10
3 0 2 13
3 14 3 13
3 0 13 3
3 7 3 14
3 15 14 13
3 16 8 14
3 7 14 8
3 12 8 16
3 15 16 14
3 12 16 17
3 15 18 16
3 19 1 5
3 0 5 1
3 20 1 19
3 6 19 5
3 21 4 10
3 7 10 4
3 6 4 21
3 11 21 10
3 22 9 23
3 12 23 9
3 11 9 22
3 11 22 24
3 25 21 24
3 11 24 21
3 6 21 25
3 26 25 24
3 27 19 25
3 6 25 19
3 20 19 27
3 26 27 25
3 20 27 28
3 26 29 27
3 15 30 18
3 20 28 31
3 26 32 29
3 18 17 16
3 29 28 27
3 33 34 35
3 36 34 33
3 33 17 37
3 37 36 33
3 35 38 22
3 35 22 23
3 39 40 2
3 24 22 41
3 26 24 41
3 26 41 32
3 38 41 22
3 32 41 42
3 13 2 43
3 15 13 43
3 15 43 30
3 40 43 2
3 30 43 44
3 18 45 37
3 37 17 18
3 46 28 29
3 46 29 47
3 48 49 50
3 50 49 51
3 52 53 54
3 54 53 55
3 54 56 57
3 51 58 57
3 57 56 50
3 57 50 51
3 50 56 36
3 55 34 36
3 36 56 54
3 36 54 55
3 42 53 52
3 52 29 32
3 47 29 52
3 42 52 32
3 44 49 48
3 48 18 30
3 45 18 48
3 44 48 30
3 41 38 42
3 55 53 42
3 43 40 44
3 51 49 44
3 46 58 39
3 31 28 46
3 57 58 46
3 46 39 31
3 58 40 39
3 44 40 58
3 44 58 51
3 34 38 35
3 42 38 34
3 42 34 55
3 50 45 48
3 36 45 50
3 37 45 36
3 12 17 33
3 12 33 23
3 35 23 33
3 2 1 31
3 20 31 1
3 39 2 31
3 57 47 54
3 46 47 57
3 54 47 52

POINT_DATA 59
SCALARS Normal_Velocity float 1
LOOKUP_TABLE default
4.35328
4.44917
4.51229
4.43124
4.42616
4.43903
4.34981
4.34428
4.44953
4.46337
4.43723
4.35909
4.45346
4.4373
4.44097
4.43138
4.46733
4.50166
4.54715
4.45456
4.40497
4.43763
4.52199
4.44833
4.43952
4.44675
4.4401
4.46544
4.4961
4.55035
4.48232
4.52763
4.48697
4.59209
4.5089
4.50689
4.55488
4.53031
4.47314
4.53096
4.46892
4.51855
4.53328
4.51859
4.53035
4.48997
4.57791
4.48359
4.51629
4.47905
4.50316
4.42631
4.5121
4.47641
4.50084
4.43745
4.39378
4.49416
4.48151
SCALARS Mean_Curvature float 1
LOOKUP_TABLE default
4.35328
4.44917
4.51229
4.43124
4.42616
4.43903
4.34981
4.34428
4.44953
4.46337
4.43723
4.35909
4.45346
4.4373
4.44097
4.43138
4.46733
4.50166
4.54715
4.45456
4.40497
4.43763
4.52199
4.44833
4.43952
4.44675
4.4401
4.46544
4.4961
4.55035
4.48232
4.52763
4.48697
4.59209
4.5089
4.50689
4.55488
4.53031
4.47314
4.53096
4.46892
4.51855
4.53328
4.51859
4.53035
4.48997
4.57791
4.48359
4.51629
4.47905
4.50316
4.42631
4.5121
4.47641
4.50084
4.43745
4.39378
4.49416
4.48151
SCALARS CoVolArea float 1
LOOKUP_TABLE default
0.052228
0.0668092
0.0686904
0.0648432
0.0667736
0.0645895
0.0510087
0.0510829
0.0662147
0.0647259
0.0652019
0.0520375
0.0541989
0.0702014
0.0665089
0.0610389
0.0642506
0.0283212
0.0389
0.0627813
0.0443323
0.0647157
0.0631186
0.0367695
0.0707788
0.0663538
0.0608852
0.0625372
0.0341207
0.0436074
0.0233787
0.0470086
0.0232782
0.0308502
0.0193038
0.0189673
0.0327693
0.0127283
0.0195152
0.0239976
0.0198103
0.045288
0.0158407
0.0448267
0.0154609
0.0126573
0.0311677
0.015302
0.0136667
0.00649265
0.0226175
0.0153885
0.0143667
0.00664206
0.0230849
0.0164082
0.0131089
0.0286587
0.0202276
