<VTKFile type="ImageData" version="1.0" byte_order="LittleEndian" header_type="UInt64">
	<ImageData WholeExtent="0 74 0 74 0 74" Origin="-0.13467 -0.00697991 -0.101969" Spacing="0.00318566 0.00318566 0.00318566">
		<Piece Extent="0 74 0 74 0 74">
			<PointData Scalars="Scalars_">
				<DataArray type="Float32" Name="Scalars_" format="ascii" RangeMin="0" RangeMax="100">
0.201795
0.198652
0.195508
0.192365
0.189222
0.186079
0.182936
0.179792
0.176649
0.173506
0.170363
0.16722
0.164076
0.160933
0.15779
0.154647
0.151504
0.14836
0.145217
0.142074
0.138931
0.135788
0.132645
0.129501
0.126358
0.123215
0.120072
0.116929
0.113785
0.110642
0.111039
0.108566
0.110074
0.110521
0.111362
0.111722
0.110819
0.111186
0.114329
0.117472
0.120615
0.123758
0.126901
0.130045
0.133188
0.123811
0.12421
0.126525
0.127712
0.130856
0.133999
0.137039
0.140183
0.143326
0.146469
0.149122
0.149164
0.152307
0.15545
0.152888
0.156031
0.159174
0.162317
0.16546
0.168604
0.171747
0.17489
0.178033
0.181176
0.18432
0.187463
0.190606
0.193749
0.196892
0.200036
0.198652
0.195508
0.192365
0.189222
0.186079
0.182936
0.179792
0.176649
0.173506
0.170363
0.16722
0.164076
0.160933
0.15779
0.154647
0.151504
0.14836
0.145217
0.142074
0.138931
0.135788
0.132645
0.129501
0.126358
0.123215
0.120072
0.116929
0.113785
0.110642
0.107499
0.107896
0.105422
0.10693
0.107377
0.108219
0.108579
0.107676
0.108042
0.111186
0.114329
0.117472
0.120615
0.123758
0.126901
0.130045
0.120667
0.121067
0.123382
0.124569
0.127712
0.130856
0.133896
0.137039
0.140183
0.143326
0.145979
0.14602
0.149164
0.152307
0.149745
0.152888
0.156031
0.159174
0.162317
0.16546
0.168604
0.171747
0.17489
0.178033
0.181176
0.18432
0.187463
0.190606
0.193749
0.196892
0.195508
0.192365
0.189222
0.186079
0.182936
0.179792
0.176649
0.173506
0.170363
0.16722
0.164076
0.160933
0.15779
0.154647
0.151504
0.14836
0.145217
0.142074
0.138931
0.135788
0.132645
0.129501
0.126358
0.123215
0.120072
0.116929
0.113785
0.110642
0.107499
0.104356
0.104753
0.102279
0.103787
0.104234
0.105075
0.105435
0.104532
0.104899
0.108042
0.111186
0.114329
0.117472
0.120615
0.123758
0.126901
0.117524
0.117923
0.120238
0.121426
0.124569
0.127712
0.130753
0.133896
0.137039
0.140183
0.142835
0.142877
0.14602
0.149164
0.146601
0.149745
0.152888
0.156031
0.159174
0.162317
0.16546
0.168604
0.171747
0.17489
0.178033
0.181176
0.18432
0.187463
0.190606
0.193749
0.192365
0.189222
0.186079
0.182936
0.179792
0.176649
0.173506
0.170363
0.16722
0.164076
0.160933
0.15779
0.154647
0.151504
0.14836
0.145217
0.142074
0.138931
0.135788
0.132645
0.129501
0.126358
0.123215
0.120072
0.116929
0.113785
0.110642
0.107499
0.104356
0.101213
0.101609
0.099136
0.100644
0.101091
0.101932
0.102292
0.101389
0.101756
0.104899
0.108042
0.111186
0.114329
0.117472
0.120615
0.123758
0.114381
0.11478
0.117095
0.118283
0.121426
0.124569
0.12761
0.130753
0.133896
0.137039
0.139692
0.139734
0.142877
0.14602
0.143458
0.146601
0.149745
0.152888
0.156031
0.159174
0.162317
0.16546
0.168604
0.171747
0.17489
0.178033
0.181176
0.18432
0.187463
0.190606
0.189222
0.186079
0.182936
0.179792
0.176649
0.173506
0.170363
0.16722
0.164076
0.160933
0.15779
0.154647
0.151504
0.14836
0.145217
0.142074
0.138931
0.135788
0.132645
0.129501
0.126358
0.123215
0.120072
0.116929
0.113785
0.110642
0.107499
0.104356
0.101213
0.0980695
0.0984662
0.0959928
0.0975008
0.0979478
0.098789
0.099149
0.098246
0.0986128
0.101756
0.104899
0.108042
0.111186
0.114329
0.117472
0.120615
0.111238
0.111637
0.113952
0.11514
0.118283
0.121426
0.124467
0.12761
0.130753
0.133896
0.136549
0.136591
0.139734
0.142877
0.140315
0.143458
0.146601
0.149745
0.152888
0.156031
0.159174
0.162317
0.16546
0.168604
0.171747
0.17489
0.178033
0.181176
0.18432
0.187463
0.186079
0.182936
0.179792
0.176649
0.173506
0.170363
0.16722
0.164076
0.160933
0.15779
0.154647
0.151504
0.14836
0.145217
0.142074
0.138931
0.135788
0.132645
0.129501
0.126358
0.123215
0.120072
0.116929
0.113785
0.110642
0.107499
0.104356
0.101213
0.0980695
0.0949263
0.095323
0.0928496
0.0943576
0.0948046
0.0956458
0.0960058
0.0951028
0.0954696
0.0986128
0.101756
0.104899
0.108042
0.111186
0.114329
0.117472
0.108095
0.108494
0.110809
0.111996
0.11514
0.118283
0.121323
0.124467
0.12761
0.130753
0.133406
0.133448
0.136591
0.139734
0.137172
0.140315
0.143458
0.146601
0.149745
0.152888
0.156031
0.159174
0.162317
0.16546
0.168604
0.171747
0.17489
0.178033
0.181176
0.18432
0.182936
0.179792
0.176649
0.173506
0.170363
0.16722
0.164076
0.160933
0.15779
0.154647
0.151504
0.14836
0.145217
0.142074
0.138931
0.135788
0.132645
0.129501
0.126358
0.123215
0.120072
0.116929
0.113785
0.110642
0.107499
0.104356
0.101213
0.0980695
0.0949263
0.0917831
0.0921799
0.0897065
0.0912145
0.0916614
0.0925026
0.0928626
0.0919597
0.0923264
0.0954696
0.0986128
0.101756
0.104899
0.108042
0.111186
0.114329
0.104952
0.105351
0.107666
0.108853
0.111996
0.11514
0.11818
0.121323
0.124467
0.12761
0.130263
0.130304
0.133448
0.136591
0.134029
0.137172
0.140315
0.143458
0.146601
0.149745
0.152888
0.156031
0.159174
0.162317
0.16546
0.168604
0.171747
0.17489
0.178033
0.181176
0.179792
0.176649
0.173506
0.170363
0.16722
0.164076
0.160933
0.15779
0.154647
0.151504
0.14836
0.145217
0.142074
0.138931
0.135788
0.132645
0.129501
0.126358
0.123215
0.120072
0.116929
0.113785
0.110642
0.107499
0.104356
0.101213
0.0980695
0.0949263
0.0917831
0.0886399
0.0890367
0.0865633
0.0880713
0.0885183
0.0893594
0.0897194
0.0888165
0.0891832
0.0923264
0.0954696
0.0986128
0.101756
0.104899
0.108042
0.111186
0.101808
0.102207
0.104522
0.10571
0.108853
0.111996
0.115037
0.11818
0.121323
0.124467
0.127119
0.127161
0.130304
0.133448
0.130885
0.134029
0.137172
0.140315
0.143458
0.146601
0.149745
0.152888
0.156031
0.159174
0.162317
0.16546
0.168604
0.171747
0.17489
0.178033
0.176649
0.173506
0.170363
0.16722
0.164076
0.160933
0.15779
0.154647
0.151504
0.14836
0.145217
0.142074
0.138931
0.135788
0.132645
0.129501
0.126358
0.123215
0.120072
0.116929
0.113785
0.110642
0.107499
0.104356
0.101213
0.0980695
0.0949263
0.0917831
0.0886399
0.0854967
0.0858935
0.0834201
0.0849281
0.0853751
0.0862162
0.0865763
0.0856733
0.0860401
0.0891832
0.0923264
0.0954696
0.0986128
0.101756
0.104899
0.108042
0.0986652
0.0990642
0.101379
0.102567
0.10571
0.108853
0.111894
0.115037
0.11818
0.121323
0.123976
0.124018
0.127161
0.130304
0.127742
0.130885
0.134029
0.137172
0.140315
0.143458
0.146601
0.149745
0.152888
0.156031
0.159174
0.162317
0.16546
0.168604
0.171747
0.17489
0.173506
0.170363
0.16722
0.164076
0.160933
0.15779
0.154647
0.151504
0.14836
0.145217
0.142074
0.138931
0.135788
0.132645
0.129501
0.126358
0.123215
0.120072
0.116929
0.113785
0.110642
0.107499
0.104356
0.101213
0.0980695
0.0949263
0.0917831
0.0886399
0.0854967
0.0823535
0.0827503
0.0802769
0.0817849
0.0822319
0.0830731
0.0834331
0.0825301
0.0828969
0.0860401
0.0891832
0.0923264
0.0954696
0.0986128
0.101756
0.104899
0.095522
0.0959211
0.0982361
0.0994237
0.102567
0.10571
0.108751
0.111894
0.115037
0.11818
0.120833
0.120875
0.124018
0.127161
0.124599
0.127742
0.130885
0.134029
0.137172
0.140315
0.143458
0.146601
0.149745
0.152888
0.156031
0.159174
0.162317
0.16546
0.168604
0.171747
0.170363
0.16722
0.164076
0.160933
0.15779
0.154647
0.151504
0.14836
0.145217
0.142074
0.138931
0.135788
0.132645
0.129501
0.126358
0.123215
0.120072
0.116929
0.113785
0.110642
0.107499
0.104356
0.101213
0.0980695
0.0949263
0.0917831
0.0886399
0.0854967
0.0823535
0.0792104
0.0796071
0.0771337
0.0786417
0.0790887
0.0799299
0.0802899
0.0793869
0.0797537
0.0828969
0.0860401
0.0891832
0.0923264
0.0954696
0.0986128
0.101756
0.0923788
0.0927779
0.0950929
0.0962805
0.0994237
0.102567
0.105607
0.108751
0.111894
0.115037
0.11769
0.117732
0.120875
0.124018
0.121456
0.124599
0.127742
0.130885
0.134029
0.137172
0.140315
0.143458
0.146601
0.149745
0.152888
0.156031
0.159174
0.162317
0.16546
0.168604
0.16722
0.164076
0.160933
0.15779
0.154647
0.151504
0.14836
0.145217
0.142074
0.138931
0.135788
0.132645
0.129501
0.126358
0.123215
0.120072
0.116929
0.113785
0.110642
0.107499
0.104356
0.101213
0.0980695
0.0949263
0.0917831
0.0886399
0.0854967
0.0823535
0.0792104
0.0760672
0.0764639
0.0739905
0.0754985
0.0759455
0.0767867
0.0771467
0.0762437
0.0766105
0.0797537
0.0828969
0.0860401
0.0891832
0.0923264
0.0954696
0.0986128
0.0892356
0.0896347
0.0919498
0.0931373
0.0962805
0.0994237
0.102464
0.105607
0.108751
0.111894
0.114547
0.114589
0.117732
0.120875
0.118313
0.121456
0.124599
0.127742
0.130885
0.134029
0.137172
0.140315
0.143458
0.146601
0.149745
0.152888
0.156031
0.159174
0.162317
0.16546
0.164076
0.160933
0.15779
0.154647
0.151504
0.14836
0.145217
0.142074
0.138931
0.135788
0.132645
0.129501
0.126358
0.123215
0.120072
0.116929
0.113785
0.110642
0.107499
0.104356
0.101213
0.0980695
0.0949263
0.0917831
0.0886399
0.0854967
0.0823535
0.0792104
0.0760672
0.072924
0.0733208
0.0708474
0.0723554
0.0728023
0.0736435
0.0740035
0.0731006
0.0734673
0.0766105
0.0797537
0.0828969
0.0860401
0.0891832
0.0923264
0.0954696
0.0860924
0.0864915
0.0888066
0.0899941
0.0931373
0.0962805
0.0993211
0.102464
0.105607
0.108751
0.111403
0.111445
0.114589
0.117732
0.115169
0.118313
0.121456
0.124599
0.127742
0.130885
0.134029
0.137172
0.140315
0.143458
0.146601
0.149745
0.152888
0.156031
0.159174
0.162317
0.163571
0.160427
0.157284
0.154141
0.150998
0.147855
0.144711
0.141568
0.138425
0.135282
0.132139
0.128996
0.125852
0.122709
0.119566
0.116423
0.11328
0.110136
0.106993
0.10385
0.100707
0.0975637
0.0944205
0.0912773
0.0881341
0.0849909
0.0818478
0.0787046
0.0755614
0.0724182
0.0734305
0.0707104
0.0707224
0.073048
0.0727654
0.073302
0.0738559
0.0766105
0.0797537
0.0832854
0.0864286
0.0895718
0.092715
0.0958582
0.0957961
0.0829493
0.0833483
0.0856634
0.086851
0.0899941
0.0931373
0.0961779
0.0993211
0.102464
0.105607
0.10826
0.108302
0.111445
0.114589
0.112026
0.115169
0.118313
0.121456
0.124599
0.127742
0.130885
0.134029
0.137172
0.140315
0.143458
0.146601
0.149745
0.152888
0.156031
0.159174
0.164628
0.161485
0.158342
0.155199
0.152056
0.148912
0.145769
0.142626
0.139483
0.13634
0.133197
0.130053
0.12691
0.123767
0.120624
0.117481
0.114337
0.111194
0.108051
0.104908
0.101765
0.0986215
0.0954783
0.0923351
0.0891919
0.0860487
0.0829055
0.0797624
0.0766192
0.073476
0.0738684
0.0725116
0.0726952
0.0727811
0.0725957
0.0730515
0.0761947
0.0793379
0.0824811
0.0856243
0.0887675
0.0919107
0.0950538
0.098197
0.0926529
0.0798061
0.0802051
0.0825202
0.0837078
0.086851
0.0899941
0.0930348
0.0961779
0.0993211
0.102464
0.105117
0.105159
0.108302
0.111445
0.108883
0.112026
0.115169
0.118313
0.121456
0.124599
0.127742
0.130885
0.134029
0.137172
0.140315
0.143458
0.146601
0.149745
0.152888
0.156031
0.165093
0.16195
0.158806
0.155663
0.15252
0.149377
0.146234
0.14309
0.139947
0.136804
0.133661
0.130518
0.127375
0.124231
0.121088
0.117945
0.11742
0.114276
0.111133
0.10799
0.104847
0.101765
0.0986215
0.0954783
0.0923351
0.0891919
0.0860487
0.0829055
0.0797624
0.0766192
0.0736718
0.0726583
0.0723951
0.0722969
0.0726135
0.0757567
0.0788999
0.0820431
0.0851862
0.0883294
0.0914726
0.0893017
0.0924449
0.0955881
0.0895097
0.0766629
0.077062
0.079377
0.0805646
0.0837078
0.086851
0.0898916
0.0930348
0.0961779
0.0993211
0.101974
0.102016
0.105159
0.108302
0.10574
0.108883
0.112026
0.115169
0.118313
0.121456
0.124599
0.127742
0.130885
0.134029
0.137172
0.140315
0.143458
0.146601
0.149745
0.152888
0.168236
0.165093
0.16195
0.158806
0.155663
0.15252
0.149377
0.146234
0.14309
0.139947
0.136804
0.133661
0.130518
0.127375
0.124231
0.121088
0.118203
0.11506
0.111917
0.108774
0.10563
0.102487
0.0993441
0.0962009
0.0930577
0.0899145
0.0867713
0.0836281
0.080485
0.0773418
0.0741986
0.0737704
0.0730933
0.0730438
0.0757567
0.0788999
0.0820431
0.0831075
0.0861951
0.0893383
0.0893017
0.0861585
0.0893017
0.0924449
0.0863665
0.0735197
0.0739188
0.0762338
0.0774214
0.0805646
0.0837078
0.0867484
0.0898916
0.0930348
0.0961779
0.0988308
0.0988726
0.102016
0.105159
0.102597
0.10574
0.108883
0.112026
0.115169
0.118313
0.121456
0.124599
0.127742
0.130885
0.134029
0.137172
0.140315
0.143458
0.146601
0.149745
0.171379
0.168236
0.165093
0.16195
0.158806
0.155663
0.15252
0.149377
0.146234
0.14309
0.139947
0.136804
0.133661
0.130518
0.127375
0.124231
0.121346
0.118203
0.11506
0.111917
0.108774
0.10563
0.102487
0.0993441
0.0962009
0.0930577
0.0899145
0.0867713
0.0836281
0.080485
0.0773418
0.0769136
0.0762365
0.0761869
0.0788999
0.0820431
0.0831075
0.0799643
0.0830519
0.0861951
0.0861585
0.0830153
0.0861585
0.0893017
0.0832233
0.0757009
0.0725577
0.0730907
0.0742782
0.0774214
0.0805646
0.0836052
0.0867484
0.0898916
0.0930348
0.0956876
0.0985314
0.101675
0.102597
0.0994535
0.102597
0.10574
0.108883
0.112026
0.115169
0.118313
0.121456
0.124599
0.127742
0.130885
0.134029
0.137172
0.140315
0.143458
0.146601
0.171473
0.16833
0.165186
0.162043
0.1589
0.155757
0.152614
0.149471
0.146327
0.143184
0.140041
0.136898
0.133755
0.130611
0.127468
0.124325
0.121182
0.118039
0.114895
0.111752
0.108609
0.108774
0.10563
0.102487
0.0993441
0.0962009
0.0930577
0.0899145
0.0867713
0.0836281
0.080485
0.0800568
0.0793797
0.0793301
0.0820431
0.0829736
0.0799643
0.0768211
0.0799088
0.0830519
0.0830153
0.0798721
0.0830153
0.0861585
0.0800802
0.0787248
0.0755816
0.0724384
0.0732587
0.0764019
0.0795451
0.080462
0.0836052
0.0867484
0.0898916
0.0925444
0.0956876
0.0988308
0.101645
0.0985014
0.101645
0.104788
0.107931
0.111074
0.114217
0.117361
0.120504
0.123647
0.12679
0.129933
0.133076
0.13622
0.139363
0.142506
0.145649
0.16833
0.165186
0.162043
0.1589
0.155757
0.152614
0.149471
0.146327
0.143184
0.140041
0.136898
0.133755
0.130611
0.127468
0.124325
0.121182
0.118039
0.114895
0.111752
0.108609
0.105466
0.108609
0.108774
0.10563
0.102487
0.0993441
0.0962009
0.0930577
0.0899145
0.0867713
0.0836281
0.0832
0.0825229
0.0824733
0.0829736
0.0798304
0.0768211
0.0736779
0.0767656
0.0799088
0.0798721
0.076729
0.0798721
0.0830153
0.076937
0.0800802
0.0799536
0.0829918
0.0733888
0.0735894
0.0767326
0.0773188
0.080462
0.0836052
0.0867484
0.0898916
0.0930348
0.0961779
0.0993211
0.097628
0.100771
0.103914
0.107058
0.110201
0.113344
0.116487
0.11963
0.122773
0.125917
0.12906
0.132203
0.135346
0.138489
0.141633
0.144776
0.165186
0.162043
0.1589
0.155757
0.152614
0.149471
0.146327
0.143184
0.140041
0.136898
0.133755
0.130611
0.127468
0.124325
0.121182
0.118039
0.114895
0.111752
0.108609
0.105466
0.102323
0.105466
0.10846
0.107892
0.10563
0.102487
0.0993441
0.0962009
0.0930577
0.0899145
0.0867713
0.0863432
0.0856661
0.0829736
0.0798304
0.0766873
0.0736779
0.0705347
0.0736224
0.0767656
0.076729
0.0735858
0.076729
0.0798721
0.0737938
0.076937
0.0768104
0.0798486
0.0734436
0.0728772
0.0740096
0.0768544
0.0799976
0.0831408
0.0862839
0.0894271
0.0925703
0.0957135
0.0988567
0.0975568
0.1007
0.10236
0.105503
0.108646
0.111789
0.114932
0.118076
0.121219
0.124362
0.127505
0.130648
0.133792
0.136935
0.140078
0.143221
0.162043
0.1589
0.155757
0.152614
0.149471
0.146327
0.143184
0.140041
0.136898
0.133755
0.130611
0.127468
0.124325
0.121182
0.118039
0.114895
0.111752
0.108609
0.105466
0.102323
0.0991795
0.102323
0.10758
0.105022
0.102518
0.104976
0.101833
0.0986895
0.0955464
0.0924032
0.08926
0.0861168
0.0829736
0.0798304
0.0766873
0.0735441
0.0705347
0.0673916
0.0704792
0.0736224
0.0735858
0.0704426
0.0735858
0.076729
0.0706506
0.0737938
0.0736672
0.0767054
0.0734237
0.0728441
0.0759872
0.0767372
0.0798803
0.0830235
0.0861667
0.0893099
0.0924531
0.0955963
0.0987395
0.0982997
0.101443
0.102339
0.105482
0.108626
0.111769
0.114528
0.117671
0.120814
0.123957
0.127101
0.130244
0.133387
0.13653
0.139673
0.142817
0.1589
0.155757
0.152614
0.149471
0.146327
0.143184
0.140041
0.136898
0.133755
0.130611
0.127468
0.124325
0.121182
0.118039
0.114895
0.111752
0.108609
0.105466
0.102323
0.0991795
0.0960363
0.0991795
0.105394
0.102251
0.0993743
0.101833
0.0986895
0.0955464
0.0924032
0.08926
0.0861168
0.0829736
0.0798304
0.0766873
0.0735441
0.0704009
0.0673916
0.0642484
0.067336
0.0704792
0.0704426
0.0672994
0.0704426
0.0735858
0.0676848
0.070828
0.0705241
0.0735622
0.0729713
0.0728635
0.0741738
0.0769582
0.0801014
0.0825311
0.0856743
0.0888175
0.0919607
0.0951039
0.098247
0.10139
0.104533
0.104779
0.107922
0.110496
0.113639
0.114549
0.117693
0.120836
0.123979
0.127122
0.130265
0.133408
0.136552
0.139695
0.142838
0.155757
0.152614
0.149471
0.146327
0.143184
0.140041
0.136898
0.133755
0.130611
0.127468
0.124325
0.121182
0.118039
0.114895
0.111752
0.108609
0.105466
0.102323
0.0991795
0.0960363
0.0928932
0.0960363
0.102251
0.0991078
0.0962311
0.0986895
0.0955464
0.0924032
0.08926
0.0861168
0.0829736
0.0798304
0.0766873
0.0735441
0.0704009
0.0672577
0.0642484
0.0611052
0.0641928
0.067336
0.0676433
0.0645001
0.0676433
0.0707865
0.0672493
0.0703925
0.0702985
0.070419
0.072491
0.0724008
0.0737105
0.0768537
0.0799969
0.0820383
0.0851814
0.0883246
0.0914678
0.094611
0.0977542
0.100897
0.104041
0.105608
0.108751
0.111187
0.114331
0.114952
0.118095
0.121238
0.124381
0.127524
0.130668
0.133811
0.136954
0.140097
0.14324
0.152614
0.149471
0.146327
0.143184
0.140041
0.136898
0.133755
0.130611
0.127468
0.124325
0.121182
0.118039
0.114895
0.111752
0.108609
0.105466
0.102323
0.0991795
0.0960363
0.0928932
0.08975
0.0928932
0.101372
0.0982291
0.0953335
0.0955464
0.0924032
0.08926
0.0861168
0.0829736
0.0798304
0.0766873
0.0735441
0.0704009
0.0672577
0.0641145
0.0611281
0.0606577
0.0610497
0.0641928
0.0668198
0.0636766
0.0668198
0.069963
0.0665787
0.0697219
0.0693116
0.0701801
0.0726571
0.0725556
0.073326
0.0759128
0.079056
0.0819627
0.0851059
0.0882491
0.0913923
0.0945355
0.0976787
0.100822
0.103965
0.107108
0.110251
0.113395
0.116538
0.117753
0.120897
0.12404
0.127183
0.130326
0.133469
0.136613
0.139756
0.142899
0.146042
0.149471
0.146327
0.143184
0.140041
0.136898
0.133755
0.130611
0.127468
0.124325
0.121182
0.118039
0.114895
0.111752
0.108609
0.105466
0.102323
0.0991795
0.0960363
0.0928932
0.08975
0.0866068
0.08975
0.0993129
0.0961697
0.0930265
0.0924032
0.08926
0.0861168
0.0829736
0.0798304
0.0766873
0.0735441
0.0704009
0.0672577
0.0641145
0.0609713
0.0607018
0.060401
0.0608282
0.0639714
0.0663936
0.0632504
0.0643353
0.0674785
0.0660234
0.0674201
0.0695071
0.0704202
0.0723651
0.0724782
0.0732622
0.0757218
0.078865
0.0820082
0.0851514
0.0882946
0.0914377
0.0945809
0.0977241
0.100867
0.10401
0.107154
0.110297
0.11344
0.116583
0.119726
0.12287
0.126013
0.129156
0.132299
0.135442
0.138586
0.141729
0.144872
0.148015
0.146327
0.143184
0.140041
0.136898
0.133755
0.130611
0.127468
0.124325
0.121182
0.118039
0.114895
0.111752
0.108609
0.105466
0.102323
0.0991795
0.0960363
0.0928932
0.08975
0.0866068
0.0834636
0.0866068
0.0988465
0.0957033
0.0925601
0.0921901
0.089047
0.0859038
0.0827606
0.0796174
0.0764742
0.073331
0.0701879
0.0670447
0.0639015
0.0607583
0.0603468
0.0601537
0.0608188
0.0610686
0.0642118
0.0629212
0.064039
0.0671822
0.0662743
0.0670864
0.0695601
0.0706205
0.0724578
0.072313
0.0733908
0.0757023
0.0788455
0.0819887
0.0833238
0.0864669
0.0896101
0.0927533
0.0958965
0.0990397
0.102183
0.105326
0.108469
0.111612
0.114756
0.117899
0.121042
0.124185
0.127328
0.130472
0.133615
0.136758
0.139901
0.143044
0.146187
0.1455
0.142357
0.139214
0.136071
0.132927
0.129784
0.126641
0.123498
0.120355
0.117212
0.114068
0.110925
0.107782
0.104639
0.101496
0.0983524
0.0952092
0.092066
0.0889229
0.0862646
0.0866068
0.08975
0.0980823
0.0949391
0.091796
0.0913745
0.0889361
0.0857929
0.0826497
0.0795065
0.0763633
0.0732202
0.070077
0.0669338
0.0637906
0.0606474
0.0602186
0.0601795
0.0605275
0.0608408
0.0611586
0.0635356
0.0635991
0.0667422
0.0660837
0.0673925
0.0694955
0.0706011
0.0726742
0.0726305
0.0737416
0.0761811
0.0793243
0.0824675
0.0825428
0.085686
0.0888292
0.0919724
0.0951155
0.0982587
0.101402
0.104545
0.107688
0.110831
0.113975
0.117118
0.120261
0.123404
0.126547
0.129691
0.132834
0.135977
0.13912
0.142263
0.145407
0.142842
0.139699
0.136556
0.133412
0.130269
0.127126
0.123983
0.12084
0.117696
0.114553
0.11141
0.108267
0.105124
0.101981
0.0988374
0.0956942
0.092551
0.0894078
0.0862646
0.0831215
0.0862646
0.0928932
0.0976609
0.0945177
0.0913745
0.0882313
0.089117
0.0859738
0.0828306
0.0796874
0.0765443
0.0734011
0.0702579
0.0671147
0.0639715
0.0608283
0.0603407
0.060087
0.0603578
0.0606552
0.0610216
0.0636204
0.063284
0.0645279
0.0660399
0.0677703
0.0697915
0.0708733
0.0727983
0.0727518
0.0740314
0.0763747
0.0795179
0.0826611
0.0821522
0.0852954
0.0884385
0.0915817
0.0947249
0.0978681
0.101011
0.104154
0.107298
0.110441
0.113584
0.116727
0.11987
0.123014
0.126157
0.1293
0.132443
0.135586
0.13873
0.141873
0.145016
0.142562
0.139419
0.136276
0.133132
0.129989
0.126846
0.123703
0.12056
0.117417
0.114273
0.11113
0.107987
0.104844
0.101701
0.0985574
0.0954142
0.092271
0.0891278
0.0859847
0.0828415
0.0851515
0.0960363
0.0945177
0.0913745
0.0882313
0.0850881
0.0882313
0.0864971
0.083354
0.0802108
0.0770676
0.0739244
0.0707812
0.067638
0.0644948
0.0613517
0.0607713
0.0604621
0.0606571
0.0608323
0.0611085
0.0632958
0.0637394
0.0646941
0.0664238
0.069567
0.0699879
0.0731311
0.0728449
0.0731291
0.0762723
0.0766838
0.079827
0.0827125
0.0822019
0.0852771
0.0884203
0.0915634
0.0947066
0.0978498
0.100993
0.104136
0.107279
0.110423
0.113566
0.116709
0.119852
0.122995
0.126138
0.129282
0.132425
0.135568
0.138711
0.141854
0.144998
0.142725
0.139582
0.136439
0.133296
0.130152
0.127009
0.123866
0.120723
0.11758
0.114437
0.111293
0.10815
0.105007
0.101864
0.0987206
0.0955774
0.0924342
0.089291
0.0882947
0.0851515
0.0820083
0.0945177
0.0913745
0.0882313
0.0850881
0.081945
0.0850881
0.0882313
0.0864971
0.083354
0.0802108
0.0770676
0.0739244
0.0707812
0.067638
0.0644948
0.0639145
0.0611212
0.0610374
0.0614231
0.0630749
0.0630628
0.0642816
0.0674248
0.0668605
0.0700037
0.070056
0.0731992
0.0731485
0.0736356
0.0767788
0.0769916
0.0801348
0.0830481
0.0823095
0.0854527
0.0885958
0.091739
0.0948822
0.0980254
0.101169
0.104312
0.107455
0.110598
0.113741
0.116884
0.120028
0.123171
0.126314
0.129457
0.1326
0.135744
0.138887
0.14203
0.145173
0.143026
0.139883
0.13674
0.133597
0.130453
0.12731
0.124167
0.121024
0.117881
0.114737
0.111594
0.108451
0.105308
0.102165
0.0990216
0.0958784
0.0927352
0.0896712
0.0911833
0.0882947
0.0851515
0.0913745
0.0882313
0.0850881
0.081945
0.0788018
0.081945
0.0850881
0.0882313
0.0864971
0.083354
0.0802108
0.0770676
0.0739244
0.0707812
0.067638
0.0646082
0.0642644
0.064075
0.0641425
0.0643823
0.066206
0.0674248
0.070568
0.0700037
0.0731469
0.0731992
0.0763424
0.07331
0.0764532
0.0795963
0.0801348
0.0824952
0.0822238
0.0837171
0.0868602
0.0900034
0.0931466
0.0962898
0.099433
0.102576
0.105719
0.108863
0.112006
0.115149
0.118292
0.121435
0.124578
0.127722
0.130865
0.134008
0.137151
0.140294
0.143438
0.146581
0.143144
0.140001
0.136858
0.133715
0.130571
0.127428
0.124285
0.121142
0.117999
0.114856
0.111712
0.108569
0.105426
0.102283
0.0991396
0.0959965
0.0945794
0.0919573
0.0943265
0.0914379
0.0882947
0.09159
0.0884469
0.0853037
0.0821605
0.0790173
0.0820462
0.0819689
0.0851121
0.0858816
0.0858641
0.083354
0.0802108
0.0770676
0.0739244
0.0707812
0.0677514
0.0672815
0.0668272
0.0667324
0.0669223
0.0671529
0.0677897
0.0706908
0.0731469
0.0762901
0.0763424
0.0794856
0.0764532
0.0795963
0.0827395
0.083278
0.0832601
0.0834231
0.0865662
0.0897094
0.0928526
0.0959958
0.099139
0.102282
0.105425
0.108569
0.111712
0.114855
0.117998
0.121141
0.124284
0.127428
0.130571
0.133714
0.136857
0.14
0.143144
0.146287
0.14943
0.145245
0.142101
0.138958
0.135815
0.132672
0.129529
0.126385
0.123242
0.120099
0.116956
0.113813
0.11067
0.107526
0.104383
0.10124
0.0980968
0.0950203
0.0924316
0.0955748
0.0945811
0.0914379
0.0946189
0.0914757
0.0883325
0.0851894
0.0820462
0.078903
0.0788258
0.0819689
0.0827384
0.0827209
0.0858641
0.083354
0.0802108
0.0770676
0.0739244
0.0708945
0.0704247
0.0699704
0.0698756
0.0700655
0.0702961
0.0709329
0.0727678
0.0734361
0.0765792
0.0794856
0.0826288
0.0795963
0.0827395
0.0858827
0.0861555
0.0858674
0.0860035
0.0891467
0.0919783
0.09477
0.0979132
0.101056
0.1042
0.107343
0.110486
0.113629
0.116772
0.119915
0.123059
0.126202
0.129345
0.132488
0.135631
0.138775
0.141918
0.145061
0.148204
0.151347
0.146194
0.143051
0.139908
0.136765
0.133621
0.130478
0.127335
0.124192
0.121049
0.117905
0.114762
0.111619
0.108476
0.105333
0.10219
0.0990463
0.0959032
0.0947957
0.0979389
0.0977242
0.0945811
0.108438
0.105294
0.0914757
0.0883325
0.0851894
0.0820462
0.0819689
0.0795449
0.0795952
0.0795778
0.0827209
0.0858641
0.083354
0.0802108
0.0770676
0.0740377
0.0735679
0.0731135
0.0730188
0.0732087
0.0734393
0.0740761
0.075911
0.0765792
0.0797224
0.0826288
0.085772
0.0827395
0.0858827
0.0890259
0.0892987
0.0890106
0.0891467
0.0922898
0.0928586
0.0958646
0.0990078
0.102151
0.105294
0.108437
0.111581
0.114724
0.117867
0.12101
0.124153
0.127296
0.13044
0.133583
0.136726
0.139869
0.143012
0.146156
0.149299
0.152442
0.149337
0.146194
0.143051
0.139908
0.136765
0.133621
0.130478
0.127335
0.124192
0.121049
0.117905
0.114762
0.111619
0.108476
0.105333
0.10219
0.0990463
0.0979389
0.101082
0.111581
0.108438
0.105294
0.102151
0.102014
0.0914757
0.0883325
0.0851894
0.0851121
0.0826881
0.0827384
0.0827209
0.0799631
0.0831063
0.0862495
0.083354
0.0802108
0.0771809
0.0767111
0.0762567
0.076162
0.0763519
0.0765825
0.0772193
0.0790542
0.0797224
0.0828656
0.085772
0.0889151
0.0858827
0.0890259
0.0921691
0.0924419
0.0921102
0.088967
0.0921102
0.0952534
0.0983045
0.101448
0.104591
0.107734
0.110877
0.11402
0.117164
0.120307
0.12345
0.126593
0.129736
0.13288
0.136023
0.139166
0.142309
0.145452
0.148595
0.151739
0.154882
0.152481
0.149337
0.146194
0.143051
0.139908
0.136765
0.133621
0.130478
0.127335
0.124192
0.121049
0.117905
0.114762
0.111619
0.108476
0.105333
0.10219
0.101082
0.111581
0.108438
0.105294
0.102151
0.0990081
0.0988704
0.102014
0.0914757
0.0883325
0.0882553
0.0858313
0.0858816
0.0851241
0.0819809
0.0851241
0.0882673
0.0864971
0.083354
0.0803241
0.0798543
0.0793999
0.0793051
0.0794951
0.0797256
0.0803625
0.0821974
0.0828656
0.0860088
0.0889151
0.0920583
0.0890259
0.0921691
0.0953123
0.0955851
0.0952534
0.0921102
0.0952534
0.0976753
0.0994296
0.102573
0.105716
0.108859
0.112002
0.115145
0.118289
0.121432
0.124575
0.127718
0.130861
0.134005
0.137148
0.140291
0.143434
0.146577
0.149721
0.152864
0.156007
0.165015
0.161872
0.158729
0.155586
0.152442
0.149299
0.146156
0.143013
0.13987
0.136726
0.133583
0.13044
0.127297
0.124154
0.12101
0.117867
0.114724
0.111581
0.108438
0.105294
0.102151
0.0990081
0.0958649
0.0957272
0.0988704
0.102014
0.0914757
0.0913985
0.0889744
0.0890248
0.0882673
0.0851241
0.0882673
0.0914105
0.0896403
0.0864971
0.0834673
0.0829975
0.0825431
0.0824483
0.0826382
0.0828688
0.0835057
0.0853406
0.0860088
0.089152
0.0920583
0.0952015
0.0921691
0.0953123
0.0984555
0.0987283
0.0983965
0.0952534
0.0983965
0.0988853
0.102029
0.105172
0.108315
0.111291
0.114434
0.117577
0.12072
0.123863
0.127006
0.13015
0.133293
0.136436
0.139579
0.142722
0.145866
0.149009
0.152152
0.155295
0.158438
0.161872
0.158729
0.155586
0.152442
0.149299
0.146156
0.143013
0.13987
0.136726
0.133583
0.13044
0.127297
0.124154
0.12101
0.117867
0.114724
0.111581
0.108438
0.105294
0.102151
0.0990081
0.0958649
0.0927218
0.0925841
0.0957272
0.0988704
0.102014
0.105157
0.0921176
0.0921679
0.0914105
0.0882673
0.0914105
0.0945537
0.0927835
0.0896403
0.0866105
0.0861406
0.0856863
0.0855915
0.0857814
0.086012
0.0866488
0.0884838
0.089152
0.0922952
0.0952015
0.0983447
0.0953123
0.0984555
0.101599
0.101871
0.10154
0.0983965
0.10154
0.102029
0.105172
0.108315
0.111458
0.114434
0.117577
0.12072
0.123863
0.127006
0.13015
0.133293
0.136436
0.139579
0.142722
0.145866
0.149009
0.152152
0.155295
0.158438
0.161582
0.158729
0.155586
0.152442
0.149299
0.146156
0.143013
0.13987
0.136726
0.133583
0.13044
0.127297
0.124154
0.12101
0.117867
0.114724
0.111581
0.108438
0.105294
0.102151
0.0990081
0.0958649
0.0927218
0.0895786
0.0894409
0.0925841
0.0957272
0.0988704
0.102014
0.105157
0.0953111
0.0945537
0.0914105
0.0945537
0.0976968
0.0959267
0.0927835
0.0897536
0.0892838
0.0888295
0.0887347
0.0889246
0.0891552
0.089792
0.0916269
0.0922952
0.0954383
0.0983447
0.101488
0.0984555
0.101599
0.104742
0.105015
0.104683
0.10154
0.104683
0.105172
0.108315
0.111458
0.114601
0.117577
0.12072
0.123863
0.127006
0.13015
0.133293
0.136436
0.139579
0.142722
0.145866
0.149009
0.152152
0.155295
0.158438
0.161582
0.164725
0.155586
0.152442
0.149299
0.146156
0.143013
0.13987
0.136726
0.133583
0.13044
0.127297
0.124154
0.12101
0.117867
0.114724
0.111581
0.108438
0.105294
0.102151
0.0990081
0.0958649
0.0927218
0.0895786
0.0864354
0.0862977
0.0894409
0.0925841
0.0957272
0.0988704
0.102014
0.105157
0.1083
0.0945537
0.0976968
0.10084
0.0990699
0.0959267
0.0928968
0.092427
0.0919726
0.0918779
0.0920678
0.0922984
0.0929352
0.0947701
0.0954383
0.0985815
0.101488
0.104631
0.101599
0.104742
0.107885
0.108158
0.107826
0.104683
0.107826
0.108315
0.111458
0.114601
0.117744
0.12072
0.123863
0.127006
0.13015
0.133293
0.136436
0.139579
0.142722
0.145866
0.149009
0.152152
0.155295
0.158438
0.161582
0.164725
0.167868
0.152442
0.149299
0.146156
0.143013
0.13987
0.136726
0.133583
0.13044
0.127297
0.124154
0.12101
0.117867
0.114724
0.111581
0.108438
0.105294
0.102151
0.0990081
0.0958649
0.0927218
0.0895786
0.0864354
0.0832922
0.0831545
0.0862977
0.0894409
0.0925841
0.0957272
0.0988704
0.102014
0.105157
0.1083
0.111443
0.114586
0.102213
0.0990699
0.09604
0.0955702
0.0951158
0.0950211
0.095211
0.0954416
0.0960784
0.0979133
0.0985815
0.101725
0.104631
0.107774
0.104742
0.107885
0.111028
0.111301
0.110969
0.107826
0.110969
0.111458
0.114601
0.117744
0.120888
0.123863
0.127006
0.13015
0.133293
0.136436
0.139579
0.142722
0.145866
0.149009
0.152152
0.155295
0.158438
0.161582
0.164725
0.167868
0.171011
0.149299
0.146156
0.143013
0.13987
0.136726
0.133583
0.13044
0.127297
0.124154
0.12101
0.117867
0.114724
0.111581
0.108438
0.105294
0.102151
0.0990081
0.0958649
0.0927218
0.0895786
0.0864354
0.0832922
0.080149
0.0800113
0.0831545
0.0862977
0.0894409
0.0925841
0.0957272
0.0988704
0.102014
0.105157
0.1083
0.111443
0.114586
0.102213
0.0991832
0.0987134