<VTKFile type="ImageData" version="1.0" byte_order="LittleEndian" header_type="UInt64">
	<ImageData WholeExtent="0 44 0 44 0 44" Origin="-71.2453 -71.2453 -71.2453" Spacing="3.23842 3.23842 3.23842">
		<Piece Extent="0 44 0 44 0 44">
			<PointData Scalars="Scalars_">
				<DataArray type="Float32" Name="Scalars_" format="ascii" RangeMin="0" RangeMax="100">
2.46573
2.42467
2.35735
2.26051
2.13084
1.96309
1.75378
1.56124
1.41505
1.31515
1.26122
1.2535
1.29029
1.37011
1.49052
1.64781
1.83712
2.0514
2.28096
2.50805
2.60476
2.68355
2.77032
2.76707
2.68745
2.56019
2.41058
2.25015
2.08112
1.89505
1.68689
1.49366
1.31827
1.15622
0.996693
0.822769
0.617508
0.36834
0.0748062
0.195473
0.427277
0.624191
0.789803
0.926338
1.03576
2.42458
2.39587
2.34339
2.26402
2.15408
2.00904
1.8232
1.60762
1.43227
1.30601
1.22896
1.20064
1.22042
1.28651
1.39668
1.54736
1.73354
1.94746
2.17911
2.40969
2.53152
2.60983
2.69439
2.68301
2.59042
2.44672
2.27725
2.09357
1.89818
1.68967
1.50148
1.33595
1.18878
1.0562
0.927284
0.784836
0.611027
0.393372
0.123535
0.154007
0.390656
0.590927
0.757469
0.893593
1.00147
2.35712
2.34171
2.30453
2.24242
2.15234
2.03019
1.87
1.66521
1.45876
1.30377
1.20075
1.14966
1.14997
1.20007
1.29805
1.44033
1.62175
1.83473
2.06802
2.30263
2.45074
2.52766
2.60894
2.58741
2.47868
2.31454
2.12027
1.90757
1.68499
1.49342
1.33156
1.19267
1.07286
0.96896
0.870136
0.75893
0.617035
0.431423
0.192875
0.0846786
0.327576
0.531387
0.700325
0.837151
0.94474
2.26037
2.25905
2.23711
2.19347
2.12356
2.02407
1.88944
1.7135
1.49539
1.30908
1.17756
1.10095
1.07908
1.11069
1.19411
1.32598
1.5011
1.71169
1.94625
2.18538
2.35938
2.43399
2.51104
2.47692
2.34882
2.15969
1.93538
1.69236
1.48383
1.31684
1.18005
1.06682
0.973801
0.89761
0.82798
0.747829
0.638195
0.484726
0.277779
0.0153465
0.235184
0.444702
0.616951
0.755394
0.863449
2.13074
2.14454
2.13865
2.11301
2.0639
1.98746
1.87896
1.73181
1.53888
1.32253
1.15939
1.05436
1.00729
1.01758
1.08375
1.20261
1.36943
1.5761
1.81124
2.05518
2.25341
2.32541
2.39688
2.34769
2.19651
1.97763
1.7215
1.4911
1.30641
1.16287
1.05037
0.962223
0.894779
0.845528
0.804432
0.754543
0.676529
0.555141
0.380508
0.147243
0.110794
0.327049
0.503799
0.645454
0.755249
1.96292
1.99271
2.00419
1.99745
1.96945
1.9166
1.8344
1.71626
1.55521
1.34347
1.14595
1.00917
0.933495
0.919106
0.964684
1.06781
1.22381
1.42466
1.65902
1.90778
2.12743
2.19656
2.26154
2.19443
2.01613
1.76561
1.52253
1.31752
1.1561
1.03548
0.946411
0.882385
0.839897
0.816334
0.802803
0.78223
0.735241
0.645554
0.502747
0.30122
0.0483437
0.176647
0.359703
0.506035
0.618782
1.75363
1.79845
1.82822
1.8411
1.83462
1.80593
1.75014
1.66148
1.53255
1.35532
1.13577
0.963684
0.855633
0.812752
0.834209
0.918037
1.06008
1.2528
1.48459
1.73721
1.97467
2.04146
2.09855
2.01061
1.8036
1.56861
1.35469
1.17503
1.03671
0.938438
0.872147
0.831657
0.813065
0.814358
0.827019
0.834167
0.816643
0.758049
0.646763
0.476437
0.244678
0.00926971
0.182255
0.334358
0.45195
1.56091
1.589
1.61406
1.63753
1.65347
1.64906
1.62009
1.56108
1.46484
1.32299
1.12591
0.915771
0.771339
0.695442
0.68837
0.748878
0.873112
1.05431
1.28108
1.53563
1.78675
1.85208
1.90028
1.79034
1.6044
1.40556
1.22159
1.06774
0.952419
0.876129
0.832119
0.814327
0.818878
0.84362
0.88063
0.913883
0.924412
0.895351
0.814796
0.675232
0.473652
0.232666
0.0309143
0.129444
0.253174
1.41458
1.42605
1.4345
1.44048
1.44396
1.44371
1.43676
1.40749
1.34377
1.23767
1.07915
0.862217
0.67701
0.563206
0.52235
0.554192
0.656025
0.82159
1.03992
1.29337
1.5536
1.61899
1.65835
1.57948
1.44067
1.28022
1.12757
0.999947
0.907906
0.853237
0.830776
0.834789
0.861481
0.908363
0.967941
1.02543
1.06203
1.06083
1.00918
0.899242
0.727303
0.495914
0.2817
0.111492
0.0205383
1.31481
1.31204
1.30546
1.29573
1.283
1.26639
1.24317
1.20999
1.16231
1.09
0.970291
0.790043
0.568233
0.410957
0.330341
0.327415
0.400833
0.545284
0.750435
0.998814
1.2629
1.33165
1.4189
1.40369
1.31646
1.19714
1.07733
0.976894
0.908047
0.874557
0.872971
0.897884
0.945625
1.01308
1.09319
1.17226
1.23282
1.25742
1.23307
1.15126
1.00776
0.800938
0.573181
0.390533
0.248447
1.26098
1.24669
1.22739
1.20421
1.17748
1.14612
1.10786
1.05963
0.996334
0.912151
0.799564
0.649616
0.440086
0.23304
0.105663
0.0605507
0.0995827
0.221107
0.415779
0.666386
0.944664
1.04129
1.21194
1.2673
1.23655
1.16176
1.07645
1.00368
0.958046
0.94521
0.963203
1.00784
1.07518
1.16159
1.26033
1.35914
1.44111
1.4893
1.49028
1.43514
1.31266
1.10411
0.870239
0.68322
0.536922
1.25314
1.22984
1.20044
1.16641
1.12786
1.0843
1.03325
0.971817
0.895027
0.796787
0.669846
0.504768
0.290363
0.0464821
0.120014
0.195564
0.177662
0.0680504
0.124775
0.383125
0.676586
0.807446
1.04188
1.17533
1.20646
1.17953
1.13067
1.08618
1.06334
1.07007
1.10635
1.16908
1.25441
1.35835
1.47457
1.59143
1.69313
1.76248
1.76779
1.6934
1.53594
1.29639
1.06308
0.878979
0.737129
1.2902
1.26064
1.22388
1.18172
1.13435
1.0813
1.02036
0.948498
0.860687
0.751118
0.612328
0.434528
0.205975
0.0662003
0.267967
0.373688
0.37907
0.283863
0.0955563
0.16729
0.470701
0.644127
0.914587
1.13368
1.23216
1.25645
1.24564
1.22963
1.22871
1.25357
1.30654
1.38591
1.48815
1.60913
1.74259
1.86882
1.95391
1.98385
1.94707
1.83527
1.64443
1.38363
1.15471
0.976433
0.841736
1.37015
1.33721
1.2962
1.24887
1.19606
1.13669
1.06895
0.989986
0.894844
0.777672
0.630627
0.443844
0.205025
0.0893593
0.325157
0.461067
0.490442
0.411188
0.229816
0.0339127
0.339584
0.565746
0.8561
1.14848
1.31902
1.3974
1.42595
1.4384
1.45858
1.50028
1.56864
1.6639
1.78176
1.89537
1.99325
2.06773
2.10628
2.0952
2.02219
1.87837
1.65889
1.38789
1.16688
0.997902
0.873062
1.4906
1.45721
1.41516
1.36601
1.3106
1.24835
1.17767
1.09535
0.997017
0.876698
0.726379
0.535889
0.29248
0.0151787
0.281261
0.444698
0.496693
0.433325
0.260454
7.43866e-05
0.296312
0.587757
0.892408
1.22459
1.47077
1.6053
1.67415
1.71519
1.75622
1.81474
1.88643
1.95303
2.01625
2.07554
2.12693
2.16145
2.1655
2.12411
2.02387
1.85506
1.61214
1.34249
1.13268
0.975174
0.861931
1.64781
1.61713
1.57691
1.52905
1.47465
1.41299
1.34275
1.26126
1.16403
1.04541
0.897556
0.710052
0.469597
0.160351
0.129267
0.314362
0.384571
0.334599
0.170244
0.0822906
0.351273
0.723528
1.03313
1.36806
1.68687
1.87891
1.98954
2.05794
2.08715
2.09591
2.1008
2.11058
2.12779
2.15075
2.17357
2.18464
2.1679
2.10692
1.98701
1.79826
1.53542
1.27647
1.07924
0.933926
0.832146
1.83709
1.81168
1.7763
1.73291
1.68231
1.62448
1.55813
1.48092
1.38906
1.27721
1.13768
0.960308
0.731476
0.434097
0.131191
0.0665436
0.147364
0.105433
0.0523319
0.293217
0.50699
0.977432
1.27934
1.60247
1.96036
2.19185
2.28584
2.29514
2.26194
2.21711
2.17995
2.15919
2.15578
2.16506
2.17754
2.17867
2.15007
2.07414
1.9365
1.72802
1.44935
1.20219
1.01638
0.881966
0.790592
2.05135
2.03376
2.00586
1.96964
1.92564
1.87404
1.81395
1.74354
1.66006
1.55858
1.43242
1.27159
1.06277
0.788578
0.487581
0.288643
0.20751
0.249418
0.405024
0.633232
0.749685
1.33651
1.61633
1.91701
2.15793
2.30633
2.3563
2.32867
2.26858
2.2084
2.16636
2.14771
2.14923
2.16315
2.17736
2.17515
2.13725
2.04633
1.88942
1.65844
1.369
1.13134
0.954433
0.828388
0.745213
2.28062
2.2734
2.25538
2.2283
2.19301
2.14915
2.09625
2.03274
1.95701
1.86565
1.75356
1.6121
1.42904
1.18691
0.903406
0.715212
0.644854
0.696014
0.856596
1.07887
1.04412
1.76099
2.00724
2.18267
2.23857
2.23059
2.20762
2.18915
2.15173
2.12092
2.10981
2.11844
2.14133
2.17023
2.19271
2.19097
2.14606
2.04131
1.86523
1.61158
1.31818
1.08892
0.919121
0.799637
0.722645
2.50749
2.51228
2.50656
2.49132
2.46642
2.43087
2.38276
2.32024
2.24066
2.14085
2.01608
1.8596
1.66154
1.40783
1.10619
0.895391
0.813009
0.865324
1.04638
1.32793
1.64139
2.06738
2.32635
2.38058
2.31299
2.18987
2.06538
1.98573
1.98044
2.00706
2.04741
2.09689
2.14962
2.19912
2.23364
2.23552
2.18568
2.0685
1.87395
1.59778
1.30861
1.08756
0.924519
0.810413
0.737835
2.60527
2.5899
2.56666
2.53901
2.50862
2.47518
2.43671
2.38888
2.32448
2.23876
2.12556
1.97689
1.78155
1.52579
1.30256
1.18306
1.17407
1.27621
1.47832
1.76342
2.0552
2.36422
2.6651
2.63396
2.461
2.23168
2.01181
1.86242
1.81653
1.86972
1.9766
2.07564
2.16415
2.23918
2.28978
2.29817
2.24554
2.11755
1.90615
1.61064
1.33305
1.12136
0.965504
0.857117
0.789124
2.68382
2.6804
2.66462
2.63972
2.60739
2.56802
2.52004
2.46069
2.38602
2.29123
2.16982
2.01272
1.80815
1.57867
1.44126
1.41252
1.49687
1.6913
1.97833
2.31314
2.53419
2.63111
2.80605
2.63997
2.36783
2.09589
1.89424
1.79013
1.76453
1.80075
1.89116
2.02747
2.15498
2.25937
2.3296
2.34697
2.29359
2.15691
1.93082
1.62649
1.36414
1.16507
1.01967
0.919704
0.858509
2.77015
2.76093
2.73819
2.70509
2.66381
2.61477
2.55656
2.48638
2.40046
2.29313
2.15708
1.98236
1.75974
1.58573
1.51486
1.55378
1.70514
1.96359
2.30898
2.69317
2.87876
2.89772
2.92224
2.67673
2.39465
2.20666
2.07706
1.9714
1.88855
1.84434
1.85793
1.93285
2.06401
2.2067
2.30369
2.3359
2.28691
2.14635
1.91043
1.61071
1.36903
1.18807
1.05821
0.971767
0.922073
2.76717
2.75397
2.72591
2.68592
2.63596
2.57649
2.50572
2.42088
2.31751
2.18922
2.02778
1.82216
1.60407
1.47734
1.45378
1.53927
1.73523
2.03525
2.41882
2.83974
2.99456
3.00934
2.98623
2.65824
2.31344
2.05774
1.88299
1.77401
1.72231
1.72013
1.75329
1.81671
1.91372
2.03966
2.16777
2.22503
2.189
2.05241
1.81406
1.53509
1.32121
1.16479
1.05687
0.989616
0.956837
2.6875
2.67475
2.64563
2.60234
2.54663
2.47841
2.39612
2.29647
2.17418
2.0221
1.83083
1.59493
1.41143
1.32177
1.33251
1.44855
1.66997
1.98915
2.38562
2.81622
2.93691
2.95047
2.94088
2.63055
2.21921
1.90864
1.74721
1.73063
1.74849
1.75909
1.75767
1.76253
1.79821
1.86861
1.94962
2.0121
1.99934
1.87499
1.64113
1.39754
1.21678
1.08939
1.00708
0.962685
0.949799
2.5602
2.55574
2.53289
2.49347
2.43767
2.36522
2.27401
2.16058
2.01889
1.84106
1.61648
1.38502
1.23589
1.17737
1.21543
1.35344
1.58974
1.91444
2.3047
2.69969
2.78994
2.8031
2.80232
2.57221
2.19856
1.8589
1.72124
1.74506
1.70262
1.63717
1.59862
1.61537
1.68047
1.75323
1.80296
1.81007
1.76386
1.64794
1.42424
1.21862
1.07081
0.972275
0.915333
0.893368
0.900375
2.41053
2.42308
2.41475
2.38574
2.33541
2.26217
2.16348
2.03506
1.87103
1.6626
1.41
1.20835
1.08799
1.05521
1.11474
1.26847
1.51288
1.83585
2.21193
2.54168
2.60802
2.62203
2.62786
2.4687
2.20123
1.92154
1.7752
1.7759
1.67471
1.65336
1.70629
1.77093
1.81213
1.81978
1.78631
1.70319
1.56453
1.36862
1.1411
0.96999
0.85453
0.785561
0.755142
0.756695
0.784908
2.25014
2.28619
2.29802
2.28439
2.24349
2.17251
2.06822
1.92604
1.73953
1.50028
1.25786
1.08765
0.995945
0.98769
1.06615
1.23094
1.4761
1.78742
2.13892
2.38957
2.43825
2.454
2.46525
2.36475
2.19126
2.02221
1.90631
1.84514
1.69429
1.69105
1.78528
1.84477
1.86071
1.82655
1.73207
1.57292
1.3497
1.08426
0.873283
0.723053
0.625317
0.572285
0.556976
0.573257
0.615795
2.08134
2.14411
2.17939
2.18415
2.15562
2.09008
1.98307
1.82962
1.62344
1.37146
1.1666
1.03209
0.973206
0.993618
1.09447
1.27219
1.51707
1.81031
2.1205
2.28907
2.32472
2.34135
2.3559
2.29745
2.19769
2.10839
2.02749
1.93766
1.72736
1.69368
1.75409
1.74028
1.67981
1.5692
1.39934
1.1661
0.883133
0.650513
0.48209
0.369705
0.305355
0.281525
0.291626
0.329842
0.390945
1.89518
1.9846
2.04266
2.06572
2.04952
1.98951
1.88055
1.71727
1.49302
1.26708
1.10186
1.00423
0.979374
1.03006
1.15568
1.35043
1.60123
1.88422
2.14379
2.24795
2.27591
2.29388
2.31116
2.27748
2.22721
2.18698
2.0907
2.01385
1.8022
1.713
1.71262
1.62154
1.49161
1.30903
1.06106
0.752781
0.484756
0.281635
0.137005
0.0441132
0.0041275
0.0142708
0.00775909
0.056282
0.126686
1.68683
1.79338
1.87242
1.91212
1.90779
1.85428
1.74561
1.57576
1.357
1.17766
1.05497
0.995331
1.0037
1.08235
1.23013
1.44019
1.6981
1.97797
2.18493
2.24971
2.27462
2.29463
2.31488
2.29292
2.2707
2.25631
2.13589
2.05412
1.89552
1.7733
1.68419
1.5063
1.29505
1.02614
0.690639
0.382656
0.138771
0.0452995
0.17474
0.25531
0.293015
0.294106
0.264175
0.208542
0.131817
1.49335
1.57293
1.664
1.72106
1.73082
1.6873
1.58389
1.41361
1.24091
1.11407
1.03855
1.01995
1.06213
1.1669
1.3327
1.55183
1.8097
2.08086
2.23727
2.28011
2.28349
2.29816
2.3208
2.30929
2.29618
2.28867
2.15583
2.06313
1.9272
1.80687
1.65517
1.37864
1.07161
0.705715
0.35611
0.0686722
0.159237
0.331001
0.450413
0.522926
0.554081
0.54969
0.515236
0.455185
0.374493
1.31796
1.36483
1.42354
1.48872
1.51279
1.47993
1.38284
1.23779
1.12437
1.05317
1.02876
1.05499
1.13455
1.26806
1.45272
1.68016
1.93424
2.18746
2.29671
2.32708
2.28513
2.27206
2.28622
2.28156
2.26109
2.24415
2.1078
2.00202
1.86489
1.72069
1.56017
1.22421
0.81274
0.417393
0.0849953
0.189178
0.406971
0.570992
0.685062
0.753517
0.7817
0.77515
0.738735
0.67728
0.595013
1.15604
1.17061
1.19141
1.2182
1.24447
1.2207
1.1308
1.04121
0.987778
0.973972
1.00304
1.07721
1.19783
1.36369
1.57071
1.80871
2.05985
2.28445
2.34576
2.35845
2.26455
2.20108
2.18615
2.17374
2.13259
2.09351
1.95424
1.83317
1.68245
1.50507
1.32126
1.00267
0.579632
0.197609
0.123974
0.390038
0.60218
0.762798
0.875099
0.94305
0.971634
0.965969
0.930744
0.870483
0.789444
0.996464
0.976826
0.957256
0.936638
0.913555
0.881405
0.81881
0.785545
0.787697
0.82766
0.907978
1.02976
1.1929
1.39469
1.62945
1.88581
2.14392
2.33191
2.34903
2.33203
2.19267
2.07038
2.00713
1.96691
1.89491
1.82422
1.67755
1.53932
1.38427
1.20792
1.04662
0.790455
0.417328
0.0428848
0.272678
0.534588
0.744667
0.905247
1.01886
1.08952
1.12151
1.11967
1.08832
1.03196
0.954498
0.822571
0.76366
0.698574
0.625191
0.541862
0.466404
0.430546
0.437904
0.488281
0.576225
0.703083
0.869225
1.07358
1.31269
1.57927
1.86145
2.1382
2.29103
2.2694
2.21403
2.03856
1.86176
1.74099
1.6558
1.54768
1.45896
1.33658
1.23417
1.11911
0.973209
0.839256
0.634369
0.318855
0.0515251
0.364513
0.625362
0.836277
0.999504
1.1172
1.19311
1.23103
1.23545
1.2106
1.16045
1.08892
0.617401
0.513611
0.39724
0.270733
0.168003
0.0989304
0.0668755
0.0753479
0.127743
0.227554
0.377167
0.57795
0.821121
1.09652
1.39665
1.70906
2.01281
2.13434
2.0812
1.98619
1.78151
1.56612
1.41345
1.31699
1.22217
1.14997
1.06484
0.996792
0.91658
0.800747
0.691135
0.528656
0.266472
0.0911827
0.404209
0.666321
0.88018
1.04798
1.17195
1.25506
1.30117
1.3139
1.29755
1.25585
1.19214
0.368378
0.214798
0.0652809
0.0581474
0.152901
0.216125
0.244434
0.234776
0.183601
0.0877762
0.0546684
0.244877
0.482105
0.762772
1.08002
1.42152
1.75551
1.85009
1.78399
1.68282
1.50115
1.30808
1.16258
1.0672
0.980415
0.917763
0.859386
0.818718
0.768635
0.681595
0.594517
0.467262
0.251026
0.0816841
0.396786
0.661949
0.880402
1.0544
1.18601
1.27805
1.33374
1.3567
1.35041
1.31865
1.26464
0.0746078
0.0867538
0.2258
0.34037
0.427769
0.485035
0.50951
0.497784
0.44672
0.353584
0.21627
0.0341606
0.191738
0.458195
0.758556
1.08218
1.41049
1.53964
1.51248
1.43791
1.29121
1.12448
0.990459
0.896057
0.813099
0.754715
0.713612
0.693661
0.668602
0.608303
0.54253
0.444733
0.26807
0.0290871
0.347809
0.617363
0.84156
1.02275
1.16308
1.26507
1.33151
1.36586
1.37089
1.35031
1.30719
0.195732
0.346077
0.475449
0.581146
0.66106
0.712502
0.73222
0.717228
0.665073
0.572861
0.439106
0.263123
0.0461578
0.208435
0.494911
0.80286
1.11569
1.2835
1.2967
1.25143
1.13918
1.001
0.882366
0.791214
0.710686
0.653328
0.621609
0.615963
0.61087
0.574493
0.528694
0.456017
0.31321
0.0584068
0.262489
0.537342
0.768036
0.957314
1.10714
1.21969
1.2977
1.34387
1.36125
1.35287
1.32146
0.427299
0.567368
0.686874
0.784271
0.856216
0.900944
0.91507
0.896126
0.841518
0.74894
0.617146
0.445637
0.235744
0.0094223
0.284004
0.578728
0.878525
1.07383
1.12772
1.11359
1.03513
0.926384
0.826012
0.74168
0.663979
0.606007
0.577927
0.580616
0.590576
0.574932
0.547375
0.496353
0.382656
0.166187
0.145664
0.426613
0.664387
0.862144
1.02176
1.14527
1.23503
1.29371
1.32376
1.32832
1.30975
0.624428
0.75415
0.86422
0.952461
1.01625
1.05346
1.0611
1.03719
0.979134
0.885059
0.753735
0.585316
0.380928
0.143806
0.120815
0.404327
0.692818
0.903969
0.997906
1.01601
0.970703
0.891514
0.811527
0.737114
0.663872
0.605419
0.577263
0.583431
0.603706
0.60516
0.594101
0.561714
0.473095
0.290062
0.00171661
0.289276
0.534599
0.74099
0.91053
1.04498
1.14665
1.21805
1.26113
1.27861
1.27301
0.789978
0.909492
1.00932
1.08811
1.14334
1.1726
1.17332
1.14368
1.08126
0.984558
0.853081
0.686436
0.486385
0.255768
0.000240326
0.274208
0.553249
0.769169
0.900776
0.951702
0.938824
0.889042
0.830685
0.769173
0.702477
0.64447
0.614361
0.620178
0.646351
0.661556
0.664665
0.648331
0.581337
0.427837
0.165661
0.129112
0.382267
0.597267
0.776558
0.922089
1.03556
1.11951
1.17564
1.20641
1.21393
0.926308
1.03535
1.12536
1.1944
1.24036
1.26101
1.25435
1.21836
1.15109
1.05158
0.918671
0.753288
0.556526
0.331097
0.0822716
0.183208
0.454239
0.674118
0.831318
0.914864
0.933529
0.91251
0.876701
0.83036
0.772579
0.716698
0.684074
0.68729
0.715809
0.740845
0.756241
0.753536
0.705173
0.577587
0.348186
0.0509262
0.209972
0.433922
0.622818
0.779137
0.904251
1.00068
1.06953
1.11328
1.13398
1.03603
1.13432
1.21396
1.27312
1.30957
1.32172
1.30719
1.2645
1.19216
1.08894
0.954475
0.789532
0.595409
0.374641
0.131756
0.126625
0.391041
0.615902
0.784824
0.900429
0.94976
0.95694
0.944077
0.914326
0.867599
0.816074
0.781803
0.781025
0.808964
0.840736
0.865917
0.874828
0.842606
0.737522
0.537483
0.248531
0.020401
0.253204
0.451866
0.618561
0.755173
0.863205
0.944832
1.00156
1.0355
2.42464
2.39603
2.34175
2.25893
2.1442
1.99259
1.79817
1.58891
1.42626
1.31228
1.24692
1.23006
1.26057
1.33716
1.45721
1.6171
1.81182
2.03401
2.27338
2.5126
2.58947
2.68024
2.76103
2.75389
2.67462
2.55564
2.42314
2.28615
2.14417
1.9846
1.79337
1.5731
1.36492
1.17079
0.976921
0.763802
0.513855
0.215065
0.0864868
0.345985
0.567444
0.754211
0.909538
1.03543
1.13422
2.39613
2.37827
2.33662
2.26882
2.17171
2.0409
1.87078
1.65704
1.46248
1.31947
1.22829
1.18896
1.20084
1.26229
1.37132
1.52422
1.71567
1.93829
2.18058
2.42379
2.52454
2.6164
2.69622
2.68201
2.59182
2.45956
2.31177
2.15612
1.99224
1.80819
1.59749
1.4013
1.2248
1.06319
0.902855
0.723766
0.507591
0.241669
0.0604172
0.325401
0.550049
0.738205
0.893097
1.01715
1.11352
2.34364
2.33662
2.30802
2.2554
2.17629
2.06618
1.91965
1.7308
1.51086
1.33613
1.2164
1.15202
1.14238
1.18649
1.28243
1.42633
1.61328
1.835
2.07994
2.32713
2.4554
2.54717
2.62456
2.60133
2.49705
2.3475
2.17903
1.99871
1.80639
1.59784
1.4085
1.24247
1.09677
0.967316
0.840305
0.695545
0.513508
0.281441
0.00557327
0.277393
0.506252
0.696846
0.852058
0.975357
1.06947
2.26391
2.26904
2.25385
2.21671
2.15569
2.06625
1.94373
1.78191
1.57354
1.36436
1.2132
1.12067
1.08675
1.11071
1.19091
1.32386
1.50431
1.72412
1.97087
2.22269
2.3802
2.47076
2.54449
2.50981
2.3879
2.21641
2.02124
1.80965
1.58777
1.39733
1.23657
1.09986
0.984047
0.886166
0.792248
0.681709
0.534569
0.337002
0.0803146
0.198666
0.43343
0.62735
0.784317
0.907608
1.00047
2.15438
2.17225
2.17099
2.15002
2.10711
2.03874
1.94033
1.80583
1.62798
1.4057
1.21996
1.09595
1.03458
1.03523
1.09671
1.21595
1.38798
1.60424
1.85216
2.10937
2.29598
2.3844
2.4533
2.40425
2.26084
2.06202
1.83407
1.58885
1.38153
1.2182
1.0854
0.977192
0.890793
0.823246
0.761829
0.685246
0.572937
0.410034
0.187725
0.0858917
0.328125
0.527065
0.686695
0.811295
0.904572
2.00894
2.04125
2.05518
2.05125
2.02721
1.98052
1.90626
1.79924
1.65227
1.45671
1.23751
1.07869
0.986084
0.959713
0.999073
1.10156
1.26242
1.47338
1.72153
1.9845
2.19862
2.2844
2.34698
2.28046
2.11097
1.87901
1.61522
1.38262
1.20162
1.0647
0.959038
0.878765
0.82082
0.782997
0.753056
0.709854
0.631889
0.503658
0.315742
0.0643196
0.187485
0.393024
0.557266
0.684677
0.779152
1.82325
1.87109
1.9017
1.91541
1.91108
1.88644
1.83706
1.75773
1.6418
1.48075
1.26583
1.06851
0.940578
0.883217
0.896378
0.978363
1.12507
1.32829
1.57521
1.84367
2.08242
2.16556
2.22051
2.133
1.93226
1.66382
1.41218
1.20737
1.05239
0.94125
0.862289
0.809208
0.77903
0.769764
0.769871
0.758629
0.714165
0.620247
0.466728
0.248585
0.00852585
0.222858
0.393394
0.525295
0.622902
1.60736
1.65692
1.70326
1.73614
1.75263
1.7505
1.72659
1.67539
1.59089
1.46455
1.28701
1.06435
0.896851
0.803894
0.786224
0.843479
0.971924
1.16429
1.40762
1.68056
1.94006
2.02108
2.06686
1.95457
1.71941
1.4651
1.24461
1.0676
0.938522
0.852863
0.800163
0.77367
0.770336
0.788277
0.816826
0.835815
0.823486
0.762772
0.642765
0.457935
0.211643
0.0137062
0.192974
0.331329
0.433784
1.43198
1.4623
1.49001
1.5169
1.5443
1.56565
1.56752
1.54493
1.49191
1.40071
1.26156
1.0633
0.852661
0.718796
0.665066
0.69207
0.797516
0.97472
1.21143
1.48643
1.76218
1.84229
1.87741
1.73793
1.52214
1.30566
1.11716
0.968384
0.86528
0.804989
0.777912
0.777176
0.799835
0.843609
0.89856
0.945793
0.963432
0.934414
0.846745
0.694233
0.474876
0.23642
0.0463333
0.100594
0.209927
1.30585
1.31929
1.32903
1.337
1.34439
1.35155
1.35703
1.35783
1.33658
1.2804
1.17999
1.02404
0.804878
0.624397
0.52829
0.518623
0.594841
0.751392
0.976891
1.2506
1.53709
1.61848
1.64248
1.53335
1.36728
1.19109
1.03563
0.91563
0.838657
0.803234
0.801117
0.825603
0.87302
0.940765
1.01985
1.09243
1.13794
1.13835
1.08117
0.959686
0.771114
0.53083
0.327332
0.169334
0.0509872
1.22882
1.22813
1.22244
1.21393
1.20384
1.19269
1.1791
1.16091
1.13451
1.09478
1.03114
0.917652
0.73901
0.516106
0.370235
0.31617
0.355263
0.484058
0.692215
0.959381
1.25051
1.33697
1.41233
1.37214
1.26087
1.12785
1.00682
0.916054
0.865025
0.85371
0.875538
0.923836
0.99461
1.08469
1.18534
1.2809
1.35122
1.37867
1.34992
1.25769
1.09264
0.850681
0.638836
0.47332
0.3479
1.2005
1.18884
1.17066
1.14841
1.12374
1.09686
1.06671
1.03129
0.986988
0.928947
0.850601
0.7439
0.598354
0.388264
0.184349
0.0765305
0.0688705
0.162165
0.350546
0.614283
0.91725
1.04767
1.22368
1.2609
1.21008
1.12346
1.0383
0.976837
0.951057
0.962685
1.0067
1.07727
1.16969
1.2802
1.4008
1.51697
1.60994
1.66133
1.63908
1.52829
1.3274
1.06974
0.85981
0.697784
0.577282
1.2203
1.20072
1.17309
1.14063
1.10434
1.06491
1.02145
0.971771
0.912323
0.838474
0.743759
0.619793
0.455795
0.238567
0.0095253
0.163391
0.20542
0.132942
0.0480518
0.3179
0.636988
0.811792
1.08384
1.20745
1.22309
1.18617
1.13793
1.10535
1.10329
1.13589
1.20012
1.29092
1.40355
1.53363
1.67354
1.80072
1.87757
1.88863
1.82292
1.6739
1.43874
1.17668
0.971985
0.81715
0.704502
1.28641
1.26237
1.229
1.18944
1.14523
1.09696
1.0437
0.983505
0.912815
0.827007
0.719624
0.581951
0.402905
0.168743
0.113428
0.30892
0.385475
0.337055
0.167028
0.104639
0.432261
0.662727
1.00174
1.22064
1.3083
1.32384
1.31303
1.30809
1.32771
1.37891
1.46125
1.57103
1.70213
1.82588
1.92883
2.00165
2.02958
1.99797
1.89489
1.71279
1.4492
1.19376
0.998306
0.853886
0.752281
1.39667
1.37133
1.33578
1.293
1.24469
1.19153
1.13272
1.0662
0.988838
0.896088
0.781143
0.635349
0.447105
0.201891
0.105803
0.340813
0.451389
0.42799
0.271599
0.00296593
0.321173
0.621086
0.990881
1.3088
1.47271
1.54235
1.56883
1.59002
1.62935
1.69771
1.78442
1.86496
1.9393
2.0061
2.06044
2.09131
2.08325
2.02005
1.88865
1.68064
1.4006
1.15717
0.974564
0.842697
0.753536
1.54737
1.52412
1.48996
1.44769
1.39923
1.34512
1.28502
1.21706
1.13814
1.04395
0.927921
0.781277
0.591942
0.344551
0.024353
0.243505
0.383221
0.382339
0.239946
0.0204449
0.321262
0.708176
1.09211
1.47672
1.71866
1.84305
1.90696
1.95127
1.97346
1.98598
2.00024
2.02055
2.04686
2.07631
2.10129
2.10811
2.07846
1.99464
1.84256
1.61373
1.32843
1.09922
0.930279
0.811539
0.73481
1.73327
1.7156
1.68619
1.64815
1.60323
1.55228
1.495
1.42984
1.35435
1.26449
1.15425
1.01483
0.834101
0.5961
0.280722
0.00828362
0.167109
0.181498
0.0501156
0.197659
0.441828
0.937731
1.31909
1.72063
2.04014
2.19927
2.23623
2.20837
2.15717
2.10904
2.07741
2.06581
2.07121
2.08673
2.10068
2.09611
2.05267
1.9519
1.78011
1.5299
1.24628
1.03014
0.873814
0.767273
0.702106
1.94741
1.93807
1.9167
1.88613
1.84821
1.80384
1.7527
1.69382
1.6255
1.54447
1.44566
1.32097
1.15869
0.942616
0.651384
0.357651
0.19445
0.176846
0.304329
0.53816
0.670153
1.30215
1.65922
2.01385
2.2509
2.34898
2.33055
2.2573
2.17414
2.10825
2.07051
2.05953
2.06774
2.08528
2.09776
2.08607
2.02916
1.90958
1.71543
1.44024
1.16345
0.957706
0.811432
0.714439
0.658878
2.17891
2.18054
2.16993
2.14989
2.12204
2.08678
2.04377
1.9924
1.93174
1.85995
1.77375
1.66693
1.52919
1.34507
1.09305
0.815771
0.664906
0.658546
0.792871
1.02073
0.948322
1.75619
2.05144
2.20294
2.23688
2.22208
2.19775
2.13941
2.08021
2.04299
2.03297
2.04408
2.06821
2.0956
2.11145
2.09536
2.0265
1.8884
1.67097
1.37386
1.10677
0.909672
0.771236
0.681736
0.633255
2.40924
2.42328
2.42624
2.41983
2.40487
2.38072
2.34595
2.29891
2.23775
2.16017
2.06307
1.94151
1.78763
1.58872
1.32123
1.03451
0.86924
0.860254
1.01144
1.29539
1.62253
2.0981
2.34112
2.35441
2.24992
2.10928
1.99416
1.95083
1.9485
1.9661
2.00122
2.04509
2.09155
2.13319
2.15551
2.13731
2.05794
1.90208
1.66164
1.35054
1.09303
0.903751
0.771858
0.68792
0.644127
2.53173
2.525
2.50673
2.48293
2.45695
2.42995
2.40107
2.36595
2.31788
2.25311
2.1668
2.05246
1.90086
1.69832
1.43986
1.26098
1.21171
1.29938
1.51671
1.82616
2.12429
2.39092
2.68864
2.59431
2.36449
2.10346
1.88642
1.77517
1.78574
1.87861
1.97214
2.05611
2.13055
2.1917
2.22459
2.20715
2.11912
1.94685
1.68414
1.36863
1.12137
0.940037
0.81414
0.734749
0.694378
2.61009
2.61657
2.60745
2.58731
2.55964
2.526
2.48603
2.43772
2.37807
2.30323
2.20815
2.08544
1.92491
1.7119
1.50939
1.43003
1.48506
1.67758
1.99312
2.38105
2.61109
2.66313
2.8078
2.56966
2.24389
1.95755
1.7766
1.70457
1.71534
1.79212
1.92414
2.05156
2.1586
2.24355
2.29001
2.27525
2.17998
1.99282
1.70974
1.40122
1.16709
0.996353
0.879066
0.806458
0.771313
2.69431
2.6961
2.6811
2.65398
2.61811
2.57535
2.52549
2.46689
2.39644
2.30983
2.20107
2.06176
1.88016
1.6594
1.52779
1.52192
1.65007
1.91208
2.29004
2.72999
2.91099
2.92717
2.91907
2.6126
2.30058
2.12649
1.99747
1.89038
1.81685
1.79788
1.84801
1.96464
2.11413
2.23275
2.29995
2.29314
2.19529
1.99796
1.70038
1.41249
1.19707
1.04251
0.938923
0.877911
0.852551
2.68303
2.68213
2.6633
2.63049
2.58726
2.53517
2.47379
2.40142
2.31461
2.20829
2.0751
1.90536
1.68563
1.48982
1.40805
1.451
1.62524
1.92886
2.34282
2.81655
2.95949
2.97268
2.95612
2.58641
2.20173
1.93751
1.7706
1.68143
1.65468
1.67558
1.73016
1.81903
1.94785
2.10198
2.20198
2.21288
2.12133
1.92195
1.62603
1.36839
1.17953
1.04844
0.96537
0.922386
0.91254
2.59059
2.59203
2.5744
2.54103
2.49452
2.43621
2.3658
2.28121
2.17838
2.05131
1.89146
1.68685
1.44802
1.29386
1.25049
1.32691
1.52749
1.8476
2.26671
2.731
2.83794
2.85083
2.84636
2.54885
2.10842
1.78452
1.64942
1.67661
1.70753
1.71456
1.71071
1.72576
1.78623
1.88402
1.98532
2.02697
1.95253
1.7602
1.48298
1.2625
1.10617
1.00347
0.945518
0.924309
0.933586
2.44681
2.45985
2.45265
2.42725
2.38539
2.3273
2.25237
2.15824
2.0405
1.89195
1.70268
1.46039
1.24614
1.12957
1.1198
1.22387
1.44333
1.76958
2.17691
2.57601
2.65346
2.6663
2.66915
2.46013
2.11172
1.77241
1.65737
1.70653
1.64192
1.56187
1.53098
1.57158
1.65637
1.74121
1.79528
1.7996
1.73605
1.55117
1.30212
1.11866
0.994473
0.919949
0.886456
0.886856
0.915009
2.27745
2.31179
2.32425
2.3154
2.28502
2.23241
2.1558
2.0522
1.91685
1.74178
1.51699
1.26057
1.08086
0.995935
1.0138
1.13926
1.37116
1.69754
2.08872
2.40023
2.45599
2.47021
2.47896
2.34382
2.1094
1.8758
1.74082
1.74004
1.60836
1.60427
1.67652
1.74043
1.77522
1.77653
1.73452
1.6385
1.48281
1.2664
1.05349
0.906544
0.814697
0.768856
0.760788
0.783539
0.831421
2.09375
2.15628
2.19458
2.20739
2.19316
2.14968
2.07426
1.96306
1.81083
1.60986
1.35229
1.12475
0.98114
0.928848
0.973562
1.11703
1.35415
1.66924
2.0309
2.2508
2.29166
2.30806
2.32169
2.24315
2.10295
1.97445
1.89593
1.81999
1.63775
1.65132
1.76305
1.81426
1.81653
1.76458
1.64814
1.46381
1.21319
0.955044
0.769421
0.647026
0.578106
0.553577
0.565662
0.607677
0.674076
1.89814
1.99232
2.05944
2.09689
2.10167
2.07056
1.99939
1.88355
1.71744
1.49347
1.23996
1.05578
0.953773
0.939838
1.01709
1.18316
1.42774
1.72761
2.03698
2.17248
2.20255
2.21954
2.23545
2.19275
2.12018
2.06023
1.99155
1.91718
1.67844
1.64627
1.70861
1.67262
1.59295
1.46253
1.26902
1.00826
0.727276
0.520233
0.380497
0.298183
0.263863
0.26926
0.306747
0.370148
0.454189
1.68961
1.8081
1.90307
1.96434
1.98747
1.96806
1.90126
1.78148
1.60247
1.36144
1.14901
1.00834
0.947269
0.971058
1.08106
1.27231
1.53063
1.8269
2.07542
2.15559
2.18038
2.19881
2.21714
2.1924
2.16025
2.13792
2.03413
1.96272
1.76831
1.66992
1.65631
1.53481
1.38261
1.17444
0.894413
0.577126
0.328957
0.150299
0.0330162
0.0310555
0.0501099
0.0319748
0.0167465
0.0902367
0.183254
1.50136
1.59726
1.71026
1.79279
1.83321
1.82597
1.76537
1.64495
1.45725
1.23848
1.0762
0.980705
0.959526
1.01747
1.15493
1.36591
1.63519
1.93243
2.12358
2.17392
2.19751
2.2184
2.23968
2.22155
2.20958
2.20466
2.07168
1.98989
1.84601
1.74114
1.62578
1.40814
1.16545
0.859623
0.503414
0.208115
0.0175476
0.178829
0.282211
0.334919
0.344334
0.317772
0.261665
0.181644
0.0823402
1.33565
1.40117
1.48517
1.58127
1.6404
1.64851
1.5989
1.48376
1.30248
1.14314
1.03722
0.99184
1.01253
1.10325
1.26365
1.48665
1.75597
2.04164
2.18011
2.21502
2.21006
2.22288
2.2465
2.23847
2.22873
2.2238
2.08151
1.98689
1.85711
1.73848
1.59056
1.26717
0.916691
0.519142
0.174778
0.101826
0.313389
0.463783
0.558857
0.604973
0.609005
0.577927
0.517834
0.434021
0.331245
1.18852
1.22461
1.27322
1.33502
1.40364
1.42712
1.38882
1.27981
1.14145
1.04636
1.00031
1.00862
1.07538
1.20256
1.38811
1.62347
1.88993
2.15167
2.24215
2.26783
2.2081
2.18509
2.1963
2.19402
2.17034
2.14973
2.00703
1.89774
1.75854
1.60404
1.43915
1.09316
0.64122
0.243969
0.085247
0.350513
0.554047
0.69891
0.790405
0.834293
0.837044
0.805061
0.744293
0.659946
0.556393
1.05608
1.06306
1.0769
1.09775
1.1248
1.15112
1.1218
1.02938
0.957409
0.927158
0.942734
1.00747
1.12362
1.2909
1.50523
1.75576
2.02126
2.24298
2.28752
2.29358
2.17694
2.09476
2.06908
2.05349
2.00285
1.95415
1.80901
1.68224
1.52349
1.32957
1.14912
0.846813
0.429333
0.043354
0.277195
0.53653
0.736763
0.880665
0.972706
1.01844
1.02368
0.99453
0.936466
0.854568
0.753166
0.927208
0.902931
0.879379
0.855717
0.830475
0.802174
0.762878
0.713875
0.702095
0.731068
0.803715
0.922348
1.08754
1.29712
1.54514
1.81905
2.09573
2.27308
2.27372
2.24464
2.08214
1.93624
1.85432
1.80214
1.71444
1.62871
1.47684
1.35028
1.21016
1.0415
0.893116
0.654678
0.293491
0.0868759
0.403423
0.660946
0.861671
1.0083
1.10456
1.15563
1.16684
1.14372
1.09149
1.01509