<VTKFile type="ImageData" version="1.0" byte_order="LittleEndian" header_type="UInt64">
	<ImageData WholeExtent="0 74 0 74 0 74" Origin="-68.3013 -68.3013 -68.3013" Spacing="1.84598 1.84598 1.84598">
		<Piece Extent="0 74 0 74 0 74">
			<PointData Scalars="Scalars_">
				<DataArray type="Float32" Name="Scalars_" format="ascii" RangeMin="0" RangeMax="100">
68.3013
67.2524
66.2383
65.2608
64.3213
63.4217
62.5637
61.7489
60.9791
60.2561
59.5815
58.9569
58.3842
57.8646
57.3862
56.9214
56.4697
56.0313
55.6067
55.196
54.7996
54.4178
54.051
53.6994
53.3634
53.0432
52.7385
52.4382
52.138
51.8377
51.5374
51.2371
50.9368
50.6588
50.4358
50.2686
50.1579
50.1041
50.1073
50.1675
50.2845
50.4579
50.6872
50.9716
51.3101
51.7017
52.1452
52.6394
53.1827
53.7737
54.4108
55.0925
55.8171
56.5796
57.3492
58.1188
58.8884
59.658
60.4276
61.1972
61.9668
62.7364
63.5059
64.2755
65.0451
65.8147
66.5843
67.3539
68.1235
68.8931
69.6627
70.4348
71.2188
72.0151
72.8232
67.2524
66.1869
65.1563
64.1622
63.2064
62.2907
61.4169
60.5867
59.8019
59.0645
58.3761
57.7386
57.1536
56.6227
56.1256
55.6413
55.1699
54.7119
54.2675
53.8372
53.4213
53.0201
52.6339
52.2631
51.9081
51.569
51.2463
50.94
50.6398
50.3395
50.0392
49.7389
49.4387
49.1679
48.9541
48.7979
48.7
48.6607
48.6801
48.7582
48.8946
49.089
49.3405
49.6484
50.0116
50.4289
50.8989
51.4203
51.9915
52.6108
53.2766
53.9871
54.7404
55.51
56.2796
57.0492
57.8188
58.5884
59.3579
60.1275
60.8971
61.6667
62.4363
63.2059
63.9755
64.7451
65.5147
66.2843
67.0538
67.8234
68.593
69.3626
70.1353
70.9202
71.7174
66.2383
65.1563
64.1091
63.0985
62.1264
61.1945
60.3048
59.459
58.6592
57.9072
57.2049
56.5542
55.9568
55.4136
54.8963
54.3917
53.9
53.4216
52.9569
52.5063
52.07
51.6485
51.2421
50.8512
50.4762
50.1174
49.7751
49.4497
49.1416
48.8413
48.541
48.2407
47.9411
47.6783
47.4743
47.3298
47.2455
47.2216
47.2582
47.3552
47.5122
47.7286
48.0037
48.3363
48.7254
49.1695
49.6673
50.2171
50.8173
51.466
52.1614
52.9018
53.6708
54.4404
55.2099
55.9795
56.7491
57.5187
58.2883
59.0579
59.8275
60.5971
61.3667
62.1363
62.9058
63.6754
64.445
65.2146
65.9842
66.7538
67.5234
68.293
69.0626
69.8359
70.6216
65.2608
64.1622
63.0985
62.0715
61.083
60.135
59.2294
58.368
57.5531
56.7864
56.0701
55.406
54.7961
54.2383
53.7004
53.1749
52.6622
52.1628
51.677
51.2052
50.7478
50.3052
49.8777
49.4658
49.0699
48.6903
48.3275
47.9818
47.6535
47.3431
47.0428
46.7425
46.4444
46.1901
45.9965
45.8646
45.7947
45.7872
45.842
45.9591
46.1379
46.3776
46.6774
47.0362
47.4524
47.9248
48.4516
49.031
49.6613
50.3405
51.0667
51.8316
52.6011
53.3707
54.1403
54.9099
55.6795
56.4491
57.2187
57.9883
58.7579
59.5274
60.297
61.0666
61.8362
62.6058
63.3754
64.145
64.9146
65.6842
66.4538
67.2234
67.9929
68.7625
69.5365
64.3213
63.2064
62.1264
61.083
60.0783
59.1142
58.1926
57.3157
56.4856
55.7042
54.9738
54.2963
53.6738
53.0993
52.5401
51.9931
51.4589
50.9378
50.4301
49.9364
49.4571
48.9924
48.543
48.1092
47.6914
47.2901
46.9056
46.5385
46.189
45.8577
45.5449
45.2444
44.9487
44.7034
44.5211
44.4024
44.3479
44.3578
44.4322
44.5705
44.7724
45.0369
45.3629
45.749
46.1939
46.6958
47.2529
47.8633
48.5249
49.2358
49.9923
50.7619
51.5315
52.3011
53.0707
53.8403
54.6099
55.3795
56.149
56.9186
57.6882
58.4578
59.2274
59.997
60.7666
61.5362
62.3058
63.0754
63.8449
64.6145
65.3841
66.1537
66.9233
67.6929
68.4625
63.4217
62.2907
61.1945
60.135
59.1142
58.134
57.1967
56.3043
55.459
54.663
53.9185
53.2276
52.5924
51.9989
51.4179
50.8489
50.2925
49.749
49.2188
48.7024
48.2003
47.7129
47.2406
46.7838
46.3432
45.9191
45.5119
45.1222
44.7504
44.397
44.0623
43.7469
43.4541
43.2185
43.0481
42.9437
42.9056
42.9342
43.0292
43.1903
43.4166
43.7072
44.0609
44.476
44.951
45.4839
46.0727
46.7153
47.4095
48.1531
48.9227
49.6923
50.4619
51.2315
52.0011
52.7706
53.5402
54.3098
55.0794
55.849
56.6186
57.3882
58.1578
58.9274
59.6969
60.4665
61.2361
62.0057
62.7753
63.5449
64.3145
65.0841
65.8537
66.6234
67.3951
62.5637
61.4169
60.3048
59.2294
58.1926
57.1967
56.2438
55.336
54.4757
53.6651
52.9065
52.2022
51.5544
50.9396
50.3363
49.7448
49.1656
48.5991
48.0457
47.5059
46.9803
46.4691
45.973
45.4925
45.028
44.58
44.1491
43.7357
43.3403
42.9635
42.6057
42.2675
41.9635
41.7356
41.578
41.4887
41.4683
41.5167
41.6338
41.819
42.0714
42.3898
42.7727
43.2184
43.725
44.2904
44.9123
45.5885
46.3166
47.0835
47.8531
48.6226
49.3922
50.1618
50.9314
51.701
52.4706
53.2402
54.0098
54.7794
55.549
56.3185
57.0881
57.8577
58.6273
59.3969
60.1665
60.9361
61.7057
62.4753
63.2459
64.0192
64.7952
65.5737
66.3548
61.7489
60.5867
59.459
58.368
57.3157
56.3043
55.336
54.4131
53.5379
52.7129
51.9404
51.2229
50.5612
49.924
49.298
48.6835
48.081
47.4909
46.9137
46.3498
45.7999
45.2642
44.7435
44.2382
43.7488
43.2759
42.82
42.3817
41.9616
41.5601
41.1778
40.8154
40.498
40.2626
40.1109
40.038
40.0364
40.1061
40.2469
40.4578
40.738
41.0858
41.4997
41.9776
42.5174
43.1168
43.7734
44.4846
45.2442
46.0138
46.7834
47.553
48.3226
49.0922
49.8618
50.6314
51.401
52.1706
52.9401
53.7097
54.4793
55.2489
56.0185
56.7881
57.5577
58.3273
59.0971
59.8693
60.6445
61.4224
62.2029
62.9861
63.7717
64.5596
65.3499
60.9791
59.8019
58.6592
57.5531
56.4856
55.459
54.4757
53.5379
52.6482
51.8091
51.0229
50.2922
49.6146
48.9549
48.3058
47.668
47.0417
46.4275
45.8258
45.2372
44.6622
44.1013
43.5551
43.0241
42.5088
42.0099
41.528
41.0636
40.6174
40.1899
39.7817
39.394
39.0648
38.8207
38.6633
38.5937
38.6106
38.7032
38.8692
39.1077
39.4173
39.7964
40.2431
40.755
41.3298
41.965
42.6577
43.405
44.1746
44.9442
45.7138
46.4834
47.253
48.0226
48.7921
49.5617
50.3313
51.1009
51.8705
52.6401
53.4097
54.1793
54.9489
55.7199
56.494
57.2711
58.0512
58.8339
59.6193
60.4073
61.1977
61.9905
62.7855
63.5828
64.3821
60.2561
59.0645
57.9072
56.7864
55.7042
54.663
53.6651
52.7129
51.8091
50.9561
50.1565
49.4131
48.7176
48.035
47.3626
46.7011
46.0506
45.4119
44.7853
44.1714
43.5708
42.9839
42.4113
41.8537
41.3116
40.7857
40.2765
39.7848
39.3112
38.8564
38.4209
38.0088
37.6675
37.4144
37.251
37.1787
37.1981
37.3088
37.5019
37.7698
38.1109
38.5233
39.0046
39.5525
40.164
40.8365
41.5669
42.3354
43.105
43.8746
44.6441
45.4137
46.1833
46.9529
47.7225
48.4921
49.2617
50.0313
50.8009
51.5709
52.3439
53.1201
53.8994
54.6818
55.467
56.255
57.0455
57.8386
58.6342
59.432
60.2321
61.0343
61.8386
62.6448
63.453
59.5815
58.3761
57.2049
56.0701
54.9738
53.9185
52.9065
51.9404
51.0229
50.1565
49.344
48.5881
47.8727
47.1672
46.4714
45.7859
45.1111
44.4475
43.7956
43.1559
42.529
41.9154
41.3158
40.7308
40.161
39.607
39.0696
38.5494
38.0471
37.5635
37.0992
36.6643
36.3104
36.0477
35.8781
35.8031
35.8231
35.9381
36.1471
36.4455
36.8202
37.2679
37.7861
38.3718
39.022
39.7336
40.4962
41.2657
42.0353
42.8049
43.5745
44.3441
45.1137
45.8833
46.6529
47.4225
48.1941
48.9693
49.7479
50.5297
51.3147
52.1026
52.8934
53.6869
54.4829
55.2815
56.0824
56.8856
57.691
58.4985
59.308
60.1194
60.9326
61.7476
62.5643
58.9569
57.7386
56.5542
55.406
54.2963
53.2276
52.2022
51.2229
50.2922
49.4131
48.5881
47.8202
47.0829
46.3544
45.6352
44.9257
44.2263
43.5376
42.8601
42.1942
41.5406
40.8999
40.2726
39.6595
39.0611
38.4781
37.9114
37.3615
36.8293
36.3156
35.821
35.365
34.998
34.7253
34.5493
34.4714
34.4922
34.6116
34.8285
35.1413
35.5469
36.0323
36.5894
37.215
37.9058
38.6569
39.4265
40.1961
40.9657
41.7353
42.5049
43.2745
44.0448
44.8187
45.5964
46.3777
47.1624
47.9503
48.7413
49.5352
50.3319
51.1313
51.9332
52.7376
53.5442
54.3531
55.1641
55.9771
56.792
57.6088
58.4273
59.2476
60.0695
60.893
61.7179
58.3842
57.1536
55.9568
54.7961
53.6738
52.5924
51.5544
50.5625
49.6195
48.7282
47.8915
47.1104
46.3509
45.5997
44.8571
44.1236
43.3997
42.6858
41.9824
41.2902
40.6096
39.9413
39.2858
38.6439
38.0163
37.4035
36.8065
36.2259
35.6626
35.1174
34.5911
34.1162
33.7356
33.4527
33.2699
33.1889
33.2106
33.3345
33.5598
33.8842
34.305
34.8188
35.4168
36.0845
36.8179
37.5873
38.3569
39.1265
39.8961
40.6685
41.4451
42.2257
43.01
43.7979
44.5892
45.3836
46.1811
46.9815
47.7845
48.5902
49.3983
50.2088
51.0215
51.8363
52.6532
53.472
54.2927
55.1151
55.9392
56.7649
57.5922
58.4209
59.2511
60.0826
60.9155
57.8646
56.6227
55.4145
54.2422
53.1082
52.015
50.9653
49.9617
49.0071
48.1045
47.2567
46.4609
45.6796
44.9058
44.1401
43.3829
42.6345
41.8955
41.1664
40.4477
39.7399
39.0438
38.3598
37.6888
37.0312
36.388
35.7599
35.1477
34.5522
33.9742
33.4156
32.9236
32.529
32.2355
32.0458
31.9617
31.9842
32.1129
32.3466
32.6831
33.1192
33.6511
34.2742
34.9828
35.7481
36.5188
37.2941
38.0738
38.8577
39.6456
40.4372
41.2323
42.0306
42.8321
43.6366
44.4438
45.2536
46.066
46.8807
47.6977
48.5168
49.3379
50.1609
50.9858
51.8124
52.6407
53.4706
54.302
55.1348
55.969
56.8045
57.6413
58.4793
59.3185
60.1588
57.3862
56.1466
54.9289
53.746
52.6013
51.4974
50.4369
49.4226
48.4574
47.5443
46.6864
45.8743
45.0716
44.2758
43.4874
42.7067
41.9342
41.1703
40.4156
39.6706
38.9357
38.2117
37.4991
36.7986
36.1109
35.4367
34.7769
34.1322
33.5036
32.8919
32.3027
31.7934
31.3847
31.0803
30.8835
30.7963
30.8196
30.9532
31.1956
31.5444
31.996
32.5462
33.1901
33.9223
34.7055
35.4933
36.2853
37.0811
37.8806
38.6835
39.4895
40.2986
41.1105
41.9251
42.7422
43.5616
44.3833
45.2071
46.0329
46.8606
47.6901
48.5213
49.3541
50.1885
51.0243
51.8616
52.7001
53.5399
54.3809
55.2231
56.0664
56.9107
57.756
58.6023
59.4499
56.9214
55.6974
54.4929
53.3092
52.1549
51.0413
49.9711
48.9472
47.9724
47.0499
46.1828
45.353
44.5295
43.7123
42.9017
42.0982
41.302
40.5138
39.7339
38.9628
38.2012
37.4494
36.7083
35.9783
35.2603
34.5549
33.8629
33.1853
32.5228
31.8764
31.2592
30.7327
30.3096
29.9944
29.7904
29.7
29.7241
29.8626
30.1138
30.475
30.9422
31.5108
32.1754
32.9302
33.7311
34.5357
35.3437
36.1551
36.9694
37.7867
38.6066
39.429
40.2537
41.0807
41.9097
42.7407
43.5735
44.4081
45.2443
46.082
46.9213
47.7619
48.6038
49.447
50.2914
51.1369
51.9835
52.8312
53.6798
54.5293
55.3797
56.231
57.083
57.9359
58.7903
56.4697
55.2618
54.0743
52.9085
51.7658
50.6485
49.5698
48.5373
47.5542
46.6234
45.748
44.8993
44.0558
43.2179
42.386
41.5603
40.7412
39.9293
39.1248
38.3283
37.5403
36.7613
35.9919
35.2328
34.4845
33.748
33.0238
32.3129
31.6162
30.9345
30.2924
29.7488
29.3115
28.9854
28.7743
28.6807
28.7057
28.849
29.109
29.4824
29.9652
30.552
31.237
32.0138
32.8312
33.6517
34.475
35.3009
36.1293
36.96
37.7928
38.6277
39.4644
40.3028
41.1429
41.9846
42.8277
43.6722
44.5179
45.3649
46.2131
47.0624
47.9126
48.7639
49.6161
50.4692
51.3231
52.1778
53.0333
53.8895
54.7464
55.604
56.4622
57.3209
58.1819
56.0313
54.8401
53.6701
52.5228
51.3997
50.3024
49.2326
48.1948
47.2045
46.2667
45.3822
44.5151
43.6527
42.7951
41.9427
41.0958
40.2548
39.4199
38.5918
37.7706
36.957
36.1515
35.3546
34.5668
33.7889
33.0215
32.2654
31.5213
30.7903
30.0731
29.4098
28.8496
28.3985
28.0618
27.8436
27.7468
27.7727
27.9208
28.1894
28.5748
29.0726
29.6771
30.3819
31.1794
32.0122
32.8474
33.6847
34.5241
35.3653
36.2083
37.0529
37.8991
38.7466
39.5955
40.4456
41.2969
42.1492
43.0026
43.857
44.7123
45.5685
46.4254
47.2832
48.1416
49.0008
49.8606
50.7211
51.5821
52.4437
53.3058
54.1684
55.0316
55.8951
56.7592
57.6263
55.6067
54.4327
53.2808
52.1526
51.0496
49.9735
48.926
47.9091
46.9247
45.9814
45.0868
44.2025
43.3221
42.446
41.5742
40.7073
39.8453
38.9888
38.138
37.2933
36.4552
35.6241
34.8006
33.9851
33.1783
32.3808
31.5934
30.8167
30.0517
29.3005
28.6192
28.0432
27.5789
27.232
27.0072
26.9074
26.9341
27.0868
27.3635
27.7605
28.2726
28.8938
29.6172
30.4337
31.2804
32.1287
32.9785
33.8298
34.6824
35.5363
36.3913
37.2474
38.1045
38.9625
39.8213
40.681
41.5415
42.4027
43.2645
44.127
44.9901
45.8537
46.7179
47.5826
48.4478
49.3134
50.1794
51.0459
51.9127
52.7799
53.6475
54.5154
55.3836
56.2521
57.1249
55.196
54.0398
52.9067
51.7982
50.7159
49.6617
48.6371
47.6443
46.6852
45.762
44.8622
43.9628
43.0658
42.1723
41.2826
40.3968
39.5153
38.6384
37.7663
36.8994
36.0381
35.1828
34.3339
33.492
32.6576
31.8312
31.0135
30.2052
29.4071
28.6261
27.9285
27.3378
26.8613
26.5051
26.2741
26.1715
26.1989
26.3559
26.6402
27.0478
27.5731
28.2097
28.9503
29.7836
30.642
31.5014
32.3619
33.2233
34.0856
34.9486
35.8123
36.6768
37.5418
38.4075
39.2737
40.1404
41.0076
41.8752
42.7432
43.6117
44.4805
45.3497
46.2192
47.089
47.9592
48.8296
49.7002
50.5712
51.4423
52.3137
53.1853
54.0571
54.9291
55.8013
56.6792
54.7996
53.6617
52.548
51.4598
50.3989
49.3671
48.3662
47.3982
46.4651
45.5624
44.663
43.7635
42.8641
41.9647
41.0652
40.1658
39.2668
38.3709
37.4791
36.5916
35.7088
34.8309
33.9583
33.0916
32.2311
31.3773
30.5309
29.6925
28.8627
28.0572
27.345
26.7415
26.2542
25.8897
25.6531
25.548
25.5761
25.7369
26.0279
26.4449
26.982
27.6323
28.3878
29.2352
30.1029
30.9713
31.8401
32.7095
33.5793
34.4495
35.3201
36.191
37.0623
37.9339
38.8058
39.678
40.5504
41.423
42.2959
43.1689
44.0422
44.9156
45.7893
46.663
47.537
48.4111
49.2853
50.1597
51.0341
51.9087
52.7834
53.6582
54.5332
55.4082
56.2905
54.4178
53.2989
52.205
51.1378
50.099
49.0902
48.1136
47.171
46.2627
45.3632
44.4638
43.5644
42.6649
41.7655
40.866
39.9666
39.0672
38.1677
37.2683
36.3689
35.4694
34.571
33.6767
32.7871
31.9025
31.0235
30.1504
29.2838
28.4243
27.6003
26.876
26.2617
25.7653
25.3938
25.1525
25.0453
25.074
25.238
25.5347
25.9596
26.5066
27.1682
27.9363
28.7944
29.6687
30.5432
31.4178
32.2927
33.1677
34.0429
34.9182
35.7937
36.6692
37.5449
38.4207
39.2966
40.1725
41.0486
41.9247
42.801
43.6772
44.5536
45.43
46.3065
47.183
48.0596
48.9362
49.8129
50.6896
51.5664
52.4432
53.3201
54.1969
55.0739
55.9601
54.051
52.9516
51.8782
50.8325
49.8163
48.8313
47.8795
46.9629
46.0635
45.164
44.2646
43.3652
42.4657
41.5663
40.6669
39.7674
38.868
37.9686
37.0691
36.1697
35.2702
34.3708
33.4714
32.5719
31.6725
30.7731
29.8678
28.9151
28.0335
27.233
26.521
25.9049
25.4015
25.0245
24.7796
24.6709
24.6999
24.8663
25.1089
25.3778
26.1531
26.8234
27.6011
28.4663
29.3439
30.2215
31.0991
31.9768
32.8545
33.7322
34.6099
35.4876
36.3653
37.243
38.1208
38.9986
39.8763
40.7541
41.6319
42.5097
43.3875
44.2653
45.1431
46.021
46.8988
47.7766
48.6545
49.5323
50.4102
51.288
52.1659
53.0438
53.9216
54.7995
55.6889
53.6994
52.6201
51.5678
50.5443
49.5512
48.5906
47.6643
46.7637
45.8643
44.9648
44.0654
43.166
42.2665
41.3671
40.4677
39.5682
38.6688
37.7694
36.8699
35.9705
35.0711
34.1716
33.2722
32.3481
31.3773
30.4065
29.4358
28.5052
27.6512
26.8812
26.2026
25.6226
25.1481
24.7851
24.5404
24.4305
24.4599
24.6104
24.7994
25.0161
25.9264
26.6025
27.3865
28.2547
29.1322
30.0097
30.8872
31.7648
32.6423
33.5199
34.3975
35.2752
36.1528
37.0305
37.9082
38.7859
39.6636
40.5413
41.419
42.2968
43.1745
44.0523
44.93
45.8078
46.6856
47.5634
48.4412
49.319
50.1968
51.0746
51.9524
52.8303
53.7081
54.5859
55.4779
53.3634
52.3047
51.2741
50.2733
49.3041
48.3684
47.464
46.5645
45.6651
44.7657
43.8662
42.9668
42.0673
41.1679
40.2685
39.369
38.4696
37.5702
36.6707
35.7713
34.8283
33.8575
32.8868
31.916
30.9452
29.9744
29.0094
28.1047
27.2794
26.541
25.8969
25.3543
24.9198
24.5992
24.3969
24.3159
24.3571
24.4619
24.5955
24.7578
25.8301
26.5086
27.2953
28.1623
29.0361
29.9101
30.7843
31.6587
32.5333
33.4081
34.2831
35.1582
36.0334
36.9088
37.7843
38.6599
39.5356
40.4114
41.2873
42.1633
43.0394
43.9155
44.7918
45.6681
46.5444
47.4208
48.2973
49.1738
50.0504
50.927
51.8037
52.6804
53.5571
54.4339
55.3277
53.0432
52.0058
50.9974
50.0199
49.0751
48.1642
47.2648
46.3653
45.4659
44.5665
43.667
42.7676
41.8682
40.9687
40.0693
39.1699
38.2704
37.3086
36.3378
35.367
34.3962
33.4255
32.4547
31.4839
30.5131
29.5423
28.5917
27.7139
26.9184
26.2128
25.6044
25.1003
24.7068
24.4295
24.2722
24.2372
24.3125
24.4061
24.4997
24.6061
24.7415
24.9052
25.0969
25.3158
25.5613
25.8326
26.1289
26.4493
26.7931
27.1592
27.5468
27.9551
28.3831
28.8299
29.2953
29.8319
30.4711
31.2065
32.0315
32.9395
33.9236
34.9776
36.0953
37.2709
38.4974
39.7503
41.0215
42.3093
43.6122
44.9291
46.2586
47.5997
48.9514
50.3129
51.6835
52.7391
51.7235
50.738
49.7844
48.8646
47.965
47.0656
46.1661
45.2667
44.3673
43.4678
42.5684
41.669
40.7596
39.7889
38.8181
37.8473
36.8765
35.9057
34.9349
33.9642
32.9934
32.0226
31.0518
30.081
29.1106
28.183
27.3333
26.5687
25.897
25.3254
24.8609
24.5096
24.2763
24.1646
24.176
24.2679
24.3615
24.4551
24.5486
24.6422
24.7505
24.8875
25.0527
25.2457
25.4658
25.7122
25.9842
26.2811
26.602
26.9461
27.3124
27.7001
28.1083
28.5546
29.1049
29.7596
30.5122
31.3555
32.2825
33.2861
34.3596
35.4967
36.6915
37.9386
39.2257
40.5302
41.8496
43.1823
44.5272
45.8833
47.2496
48.6252
50.0093
51.4013
52.4514
51.4582
50.4961
49.567
48.6653
47.7658
46.8664
45.967
45.0675
44.1681
43.2399
42.2691
41.2983
40.3275
39.3568
38.386
37.4152
36.4444
35.4736
34.5029
33.5321
32.5613
31.5905
30.6197
29.6489
28.6851
27.7839
26.9632
26.2308
25.5941
25.0606
24.6367
24.3284
24.14
24.0744
24.1297
24.2233
24.3169
24.4105
24.504
24.5976
24.6912
24.7849
24.895
25.0336
25.2003
25.3946
25.6157
25.8631
26.1359
26.4334
26.7548
27.0991
27.4667
27.9165
28.4791
29.1479
29.9159
30.7756
31.7195
32.7403
33.8312
34.9855
36.1972
37.4606
38.7708
40.1072
41.4566
42.8176
44.1891
45.5703
46.9603
48.3583
49.7637
51.1758
52.1804
51.2101
50.272
49.3655
48.4661
47.5666
46.6672
45.7202
44.7494
43.7786
42.8078
41.837
40.8662
39.8955
38.9247
37.9539
36.9831
36.0123
35.0415
34.0708
33.1
32.1292
31.1584
30.1876
29.2169
28.2685
27.3946
26.6042
25.9051
25.3047
24.8102
24.4281
24.1637
24.0209
24.0018
24.0851
24.1787
24.2723
24.3659
24.4594
24.553
24.6466
24.7402
24.8338
24.9277
25.0396
25.1798
25.348
25.5435
25.7657
26.014
26.2876
26.5857
26.9295
27.3882
27.9614
28.6423
29.4235
30.2971
31.2555
32.291
33.3965
34.5654
35.7913
37.0686
38.3922
39.7546
41.1322
42.5197
43.9162
45.3209
46.733
48.1518
49.5769
51.0076
51.9263
50.9795
50.0658
49.1663
48.2004
47.2296
46.2589
45.2881
44.3173
43.3465
42.3757
41.4049
40.4342
39.4634
38.4926
37.5218
36.551
35.5802
34.6095
33.6387
32.6679
31.6971
30.7263
29.7556
28.7854
27.861
27.0156
26.2567
25.592
25.029
24.5748
24.2354
24.0158
23.9191
23.947
24.0405
24.1341
24.2277
24.3213
24.4148
24.5084
24.602
24.6956
24.7892
24.8828
24.9764
25.0706
25.1842
25.3261
25.4957
25.6925
25.9158
26.1667
26.5103
26.976
27.5579
28.2485
29.0403
29.9251
30.895
31.9422
33.0594
34.2397
35.4769
36.7651
38.0993
39.4747
40.8781
42.2902
43.7097
45.136
46.5684
48.0065
49.4495
50.8973
51.6554
50.6807
49.7099
48.7391
47.7683
46.7975
45.8268
44.856
43.8852
42.9144
41.9436
40.9729
40.0021
39.0313
38.0605
37.0897
36.1189
35.1482
34.1774
33.2066
32.2358
31.265
30.2942
29.3235
28.3609
27.4632
26.6474
25.9211
25.2921
24.7677
24.3548
24.0591
23.885
23.835
23.9023
23.9959
24.0895
24.1831
24.2767
24.3702
24.4638
24.5574
24.651
24.7446
24.8382
24.9318
25.0253
25.1189
25.2136
25.329
25.4725
25.6435
25.8671
26.2146
26.6855
27.2736
27.9712
28.7706
29.6635
30.6417
31.6973
32.8228
34.0113
35.2565
36.5525
37.8942
39.2768
40.6956
42.1301
43.5706
45.0165
46.4674
47.9228
49.3822
50.8454
51.2696
50.2685
49.281
48.307
47.3362
46.3655
45.3947
44.4239
43.4531
42.4823
41.5116
40.5408
39.57
38.5992
37.6284
36.6576
35.6869
34.7161
33.7453
32.7745
31.8037
30.8329
29.8622
28.8914
27.9454
27.0755
26.2904
25.5979
25.0057
24.5212
24.1506
23.8995
23.7715
23.7687
23.8577
23.9513
24.0449
24.1385
24.2321
24.3257
24.4192
24.5128
24.6064
24.7
24.7936
24.8872
24.9808
25.0743
25.1679
25.2615
25.3567
25.4765
25.697
26.0467
26.5207
27.1122
27.814
28.6177
29.5152
30.4982
31.5586
32.6889
33.8821
35.1319
36.4323
37.7782
39.1649
40.5882
42.0402
43.4995
44.9629
46.4303
47.9011
49.375
50.8519
50.9371
49.9098
48.8951
47.8937
46.9067
45.9334
44.9626
43.9918
43.021
42.0502
41.0795
40.1087
39.1379
38.1671
37.1963
36.2256
35.2548
34.284
33.3132
32.3424
31.3716
30.4009
29.4301
28.4603
27.5392
26.6982
25.945
25.2876
24.7335
24.2898
23.9627
23.7569
23.6757
23.7195
23.8131
23.9067
24.0003
24.0939
24.1875
24.2811
24.3746
24.4682
24.5618
24.6554
24.749
24.8426
24.9362
25.0297
25.1233
25.2169
25.3138
25.438
25.6588
26.0091
26.4837
27.0761
27.7787
28.5835
29.482
30.466
31.5275
32.6589
33.8532
35.104
36.4054
37.7523
39.1399
40.5641
42.0211
43.4967
44.9755
46.4571
47.9393
49.4216
50.9038
50.6588
49.6061
48.5649
47.5362
46.5205
45.519
44.5324
43.5597
42.5889
41.6182
40.6474
39.6766
38.7058
37.735
36.7642
35.7935
34.8227
33.8519
32.8811
31.9103
30.9396
29.9688
28.998
28.0369
27.1428
26.3319
25.6119
24.9907
24.4758
24.0741
23.7913
23.6317
23.5978
23.6749
23.7685
23.8621
23.9557
24.0493
24.1429
24.2365
24.33
24.4236
24.5172
24.6108
24.7044
24.798
24.8915
24.9851
25.0803
25.1989
25.3476
25.526
25.7533
26.1023
26.5753
27.1656
27.866
28.6683
29.5643
30.5457
31.6045
32.7332
33.9249
35.1731
36.4721
37.8166
39.2019
40.6239
42.0782
43.5493
45.0299
46.5122
47.9944
49.4767
50.9589
50.4358
49.3585
48.2918
47.2364
46.1931
45.1627
44.146
43.1442
42.1582
41.1861
40.2153
39.2445
38.2737
37.3029
36.3322
35.3614
34.3906
33.4198
32.449
31.4783
30.5075
29.5367
28.5659
27.6225
26.7566
25.9769
25.2913
24.7076
24.2332
23.8745
23.637
23.5241
23.5378
23.6303
23.7239
23.8175
23.9111
24.0047
24.0983
24.1919
24.2854
24.379
24.4726
24.5662
24.6598
24.7534
24.8474
24.9616
25.1063
25.2811
25.4783
25.6771
25.9142
26.2743
26.7557
27.352
28.0558
28.8593
29.7544
30.7332
31.7878
32.911
34.0965
35.3386
36.6317
37.9706
39.3505
40.7652
42.1976
43.6435
45.1015
46.5706
48.0495
49.5318
51.014
50.2686
49.1678
48.0766
46.9956
45.9256
44.8673
43.8215
42.7893
41.7716
40.7695
39.7841
38.8124
37.8416
36.8709
35.9001
34.9293
33.9585
32.9877
32.0169
31.0462
30.0754
29.1046
28.1354
27.2176
26.3811
25.6339
24.9839
24.4388
24.006
23.6914
23.4999
23.4344
23.4922
23.5857
23.6793
23.7729
23.8665
23.9601
24.0537
24.1473
24.2408
24.3344
24.428
24.5216
24.6152
24.725
24.8656
25.0365
25.2325
25.4312
25.6299
25.8287
26.0762
26.448
26.94
27.5456
28.2577
29.0683
29.9694
30.9532
32.0121
33.1388
34.3267
35.5696
36.862
38.1988
39.5754
40.9671
42.3708
43.7899
45.2227
46.6682
48.125
49.5923
51.0692
50.1579
49.0348
47.9201
46.8147
45.7191
44.634
43.5602
42.4987
41.4503
40.4161
39.3972
38.3947
37.4101
36.4388
35.468
34.4972
33.5264
32.5556
31.5849
30.6141
29.6433
28.6725
27.7129
26.8227
26.0167
25.3032
24.69
24.1849
23.7947
23.5251
23.3804
23.3628
23.4476
23.5411
23.6347
23.7283
23.8219
23.9155
24.0091
24.1027
24.1962
24.2898
24.3834
24.4889
24.6253
24.7924
24.9866
25.1854
25.3841
25.5828
25.7815
25.9803
26.2394
26.6228
27.1251
27.74
28.4601
29.2777
30.1848
31.1736
32.2366
33.3668
34.5575
35.8026
37.0968
38.4351
39.8126
41.2038
42.595
43.9879
45.3942
46.8146
48.2478
49.6929
51.1488
50.1041
48.9598
47.823
46.6943
45.5744
44.4638
43.3634
42.2738
41.196
40.1309
39.0796
38.0431
37.0228
36.02
35.0361
34.0651
33.0943
32.1236
31.1528
30.182
29.2112
28.2404
27.2997
26.4381
25.6639
24.9853
24.4102
23.9462
23.5998
23.3761
23.2788
23.3094
23.403
23.4965
23.5901
23.6837
23.7773
23.8709
23.9645
24.0581
24.1516
24.2535
24.3856
24.5488
24.7408
24.9395
25.1382
25.3369
25.5357
25.7344
25.9331
26.1322
26.4038
26.7986
27.3111
27.9351
28.6631
29.4875
30.4005
31.3942
32.4614
33.5949
34.7884
36.0358
37.3317
38.6714
40.0498
41.441
42.8322
44.2234
45.6145
47.0093
48.4177
49.8393
51.273
50.1073
48.9431
47.7855
46.635
45.4921
44.3575
43.2318
42.1157
41.0099
39.9154
38.8331
37.764
36.7094
35.6704
34.6485
33.6452
32.6623
31.6915
30.7207
29.7499
28.7791
27.8105
26.8962
26.0643
25.3231
24.6808
24.1451
23.7233
23.4216
23.2446
23.1953
23.2648
23.3584
23.4519
23.5455
23.6391
23.7327
23.8263
23.9199
24.0187
24.1465
24.3057
24.4949
24.6936
24.8924
25.0911
25.2898
25.4885
25.6873
25.886
26.0847
26.2855
26.5693
26.9753
27.498
28.1309
28.8667
29.6979
30.6165
31.6151
32.6863
33.8232
35.0194
36.269
37.5667
38.9077
40.287
41.6782
43.0694
44.4606
45.8517
47.243
48.6341
50.0312
51.4415
50.1675
48.9848
47.8078
46.6369
45.4726
44.3155
43.1661
42.025
40.8929
39.7706
38.659
37.559
36.4717
35.3982
34.3397
33.2979
32.2742
31.2704
30.2886
29.3178
28.347
27.3891
26.5027
25.7019
24.995
24.3901
23.895
23.5165
23.2605
23.131
23.1301
23.2202
23.3138
23.4073
23.5009
23.5945
23.6881
23.7846
23.9079
24.063
24.2491
24.4478
24.6465
24.8452
25.044
25.2427
25.4414
25.6401
25.8389
26.0376
26.2363
26.44
26.736
27.153
27.6856
28.3273
29.0708
29.9086
30.8329
31.8363
32.9115
34.0517
35.2505
36.5023
37.8017
39.1441
40.5242
41.9154
43.3066
44.6978
46.089
47.4802
48.8714
50.2625
51.6539
50.2845
49.0847
47.8898
46.7001
45.516
44.338
43.1665
42.0022
40.8456
39.6974
38.5584
37.4294
36.3113
35.2052
34.1122
33.0336
31.9709
30.9258
29.9
28.8957
27.915
26.9771
26.1198
25.3513
24.6799
24.1137
23.6604
23.3264
23.117
23.0355
23.082
23.1756
23.2692
23.3627
23.4563
23.5511
23.6699
23.8208
24.0032
24.2019
24.4007
24.5994
24.7981
24.9968
25.1956
25.3943
25.593
25.7917
25.9905
26.1892
26.3879
26.5957
26.9037
27.3316
27.874
28.5244
29.2755
30.1198
31.0497
32.0577
33.1368
34.2802
35.4818
36.7357
38.0368
39.3805
40.7614
42.1526
43.5438
44.935
46.3262
47.7174
49.1086
50.4998
51.8909
50.4579
49.2426
48.0312
46.8243
45.622
44.4248
43.2332
42.0475
40.8683
39.6962
38.5318
37.3759
36.2292
35.0926
33.9673
32.8543
31.7549
30.6706
29.603
28.5541
27.5331
26.5924
25.7498
25.0129
24.3784
23.8522
23.4418
23.1533
22.9913
22.9584
23.0374
23.131
23.2246
23.3184
23.4325
23.5792
23.7577
23.9561
24.1548
24.3535
24.5522
24.751
24.9497
25.1484
25.3471
25.5459
25.7446
25.9433
26.142
26.3408
26.5395
26.7527
27.0725
27.5112
28.0632
28.7221
29.4806
30.3314
31.2668
32.2794
33.3624
34.509
35.7131
36.9691
38.2719
39.6169
40.9986
42.3898
43.781
45.1722
46.5634
47.9546
49.3458
50.737
52.1282
50.6872
49.4577
48.2316
47.009
45.7903
44.5757
43.3657
42.1606
40.9608
39.7669
38.5793
37.3988
36.2259
35.0614
33.9062
32.7614
31.6279
30.5071
29.4004
28.3096
27.2708
26.3207
25.4691
24.7262
24.1021
23.6062
23.2397
22.9976
22.8837
22.8998
22.9928
23.0864
23.1958
23.338
23.5126
23.7102
23.9089
24.1077
24.3064
24.5051
24.7038
24.9026
25.1013
25.3
25.4987
25.6975
25.8962
26.0949
26.2936
26.4924
26.6911
26.911
27.2424
27.6917
28.2532
28.9205
29.6863
30.5434
31.4841
32.5014
33.5881
34.7379
35.9445
37.2026
38.5071
39.8534
41.2358
42.627
44.0182
45.4094
46.8006
48.1918
49.583
50.9742
52.3654
50.9716
49.7295
48.4901
47.2535
46.0201
44.7899
43.5635
42.3409
41.1227
39.9091
38.7007
37.498
36.3014
35.1116
33.9294
32.7556
31.591
30.4368
29.2942
28.1757
27.1318
26.1767
25.3202
24.5728
23.9447
23.4455
23.0835
22.8653
22.7945
22.8546
22.9597
23.0975
23.2679
23.4644
23.6631
23.8618
24.0605
24.2593
24.458
24.6567
24.8554
25.0542
25.2529
25.4516
25.6503
25.8491
26.0478
26.2465
26.4452
26.6439
26.8427
27.0704
27.4133
27.873
28.4439
29.1194
29.8925
30.7558
31.7018
32.7236
33.814
34.9669
36.1761
37.4362
38.7423
40.0899
41.473
42.8642
44.2554
45.6466
47.0378
48.429
49.8202
51.2114
52.6026
51.3101
50.0569
48.8058
47.5569
46.3105
45.0666
43.8256
42.5877
41.3531
40.1222
38.8953
37.6729
36.4553
35.243
34.0367
32.8369
31.6445
30.4603
29.2861
28.1625
27.1181
26.1624
25.3055
24.5577
23.9292
23.4296
23.0674
22.849
22.7786
22.8575
23.0238
23.2185
23.4172
23.616
23.8147
24.0134
24.2121
24.4109
24.6096
24.8083
25.007
25.2057
25.4045
25.6032
25.8019
26.0006
26.1994
26.3981
26.5968
26.7955
26.9943
27.2309
27.5852
28.0552
28.6353
29.319
30.0992
30.9686
31.9199
32.946
34.0402
35.196
36.4077
37.6699
38.9776
40.3264
41.7102
43.1014
44.4926
45.8838
47.275
48.6662
50.0574
51.4486
52.8398
51.7017
50.4389
49.1777
47.9181
46.6604
45.4046
44.151
42.8997
41.651
40.405
39.162
37.9224
36.6865
35.4546
34.2272
33.0049
31.7881
30.5775
29.3896
28.2701
27.2298
26.2782
25.4251
24.6809
24.0557
23.5588
23.1986
22.9814
22.9114
22.9899
23.1745
23.3701
23.5688
23.7675
23.9663
24.165
24.3637
24.5624
24.7612
24.9599
25.1586
25.3573
25.5561
25.7548
25.9535
26.1522
26.351
26.5497
26.7484
26.9471
27.1459
27.3927
27.7581
28.2383
28.8275
29.5192
30.3064
31.1818
32.1382
33.1686
34.2664
35.4253
36.6395
37.9036
39.2129
40.563
41.9474
43.3386
44.7298
46.121
47.5122
48.9034
50.2946
51.6858
53.077
52.1452
50.8743
49.6044
48.3358
47.0685
45.8026
44.5383
43.2756
42.0148
40.756
39.4994
38.2452
36.9936
35.745
34.4997
33.258
32.0203
30.7895
29.608
28.497
27.4654
26.5222
25.6773
24.9406
24.322
23.8307
23.4746
23.2601
23.1909
23.2684
23.4242
23.5878
23.759
23.9377
24.1237
24.3169
24.5153
24.714
24.9128
25.1115
25.3102
25.5089
25.7077
25.9064
26.1051
26.3038
26.5026
26.7013
26.9
27.0987
27.2974
27.5555
27.932
28.4222
29.0204
29.7199
30.514
31.3953
32.3568
33.3915
34.4929
35.6547
36.8713
38.1375
39.4483
40.7996
42.1846
43.5758
44.967
46.3582
47.7494
49.1406
50.5318
51.923
53.3142
52.6394
51.3616
50.0846
48.8085
47.5332
46.259
44.9858
43.7137
42.4429
41.1735
39.9056
38.6393
37.3748
36.1124
34.8522
33.5944
32.3394
31.1078
29.9388
28.8406
27.8217
26.891
26.0581
25.3325
24.7237
24.2405
23.8905
23.6797
23.6118
23.6849
23.8082
23.9396
24.0789
24.226
24.3808
24.5431
24.7128
24.8897
25.0737
25.2645
25.4618
25.6605
25.8592
26.058
26.2567
26.4554
26.6541
26.8529
27.0516
27.2503
27.4496
27.7195
28.1069
28.6069
29.2139
29.9213
30.7221
31.6092
32.5757
33.6146
34.7195
35.8843
37.1033
38.3713
39.6837
41.0362
42.4218
43.813
45.2042
46.5954
47.9866
49.3778
50.769
52.1602
53.5514
53.1827
51.8995
50.6168
49.3346
48.053
46.7721
45.4918
44.2122
42.9334
41.6555
40.3785
39.1026
37.8278
36.5543
35.2822
34.0117
32.7474
31.5311
30.3784
29.2967
28.2942
27.3796
26.562
25.8505
25.2542
24.7814
24.4392
24.2332
24.1668
24.2287
24.3202
24.4198
24.5275
24.6432
24.7668
24.8982
25.0372
25.1837
25.3376
25.4987
25.667
25.8422
26.0242
26.213
26.4083
26.607
26.8057
27.0045
27.2032
27.4019
27.6029
27.8845
28.2827
28.7925
29.4081
30.1231
30.9306
31.8235
32.7949
33.838
34.9463
36.114
37.3353
38.6053
39.9192
41.2729
42.659
44.0502
45.4414
46.8326
48.2238
49.615
51.0062
52.3974
53.7886
53.7737
52.4864
51.1993
49.9125
48.6261
47.34
46.0543
44.769
43.4841
42.1998
40.9159
39.6327
38.35
37.0681
35.787
34.5068
33.2524
32.0553
30.9221
29.8601
28.8772
27.9816
27.1821
26.4873
25.9057
25.445
25.1118
24.9114
24.8468
24.8916
24.9522
25.021
25.0979
25.1829
25.2758
25.3767
25.4853
25.6016
25.7254
25.8568
25.9955
26.1414
26.2945
26.4545
26.6214
26.7951
26.9754
27.1622
27.3553
27.5535
27.7575
28.0507
28.4594
28.9788
29.603
30.3255
31.1396
32.0382
33.0144
34.0615
35.1733
36.3438
37.5674
38.8393
40.1547
41.5096
42.8963
44.2874
45.6786
47.0698
48.461
49.8522
51.2434
52.6346
54.0258
54.409
53.1194
51.8298
50.5401
49.2505