<VTKFile type="ImageData" version="1.0" byte_order="LittleEndian" header_type="UInt64">
	<ImageData WholeExtent="0 74 0 74 0 74" Origin="-68.3028 -68.3028 -68.3028" Spacing="1.84602 1.84602 1.84602">
		<Piece Extent="0 74 0 74 0 74">
			<PointData Scalars="Scalars_">
				<DataArray type="Float32" Name="Scalars_" format="ascii" RangeMin="0" RangeMax="100">
64.3126
63.2453
62.1781
61.1108
60.1197
59.1629
58.2061
57.2748
56.4494
55.6241
54.7988
54.11
53.4402
52.7704
52.2154
51.7293
51.2432
50.7927
50.5209
50.2491
49.9773
49.8631
49.7766
49.69
49.6077
49.5522
49.4968
49.4209
49.1246
48.8283
48.532
48.3553
48.2222
48.0891
48.0184
48.0553
48.0922
48.1291
48.2755
48.4219
48.5684
48.7586
48.9751
49.1917
49.4526
49.8222
50.1917
50.5612
51.0178
51.4843
51.9508
52.4454
52.9722
53.499
54.046
54.6529
55.2599
55.8668
56.5563
57.2648
57.9733
58.7287
59.5449
60.3611
61.1681
62.0871
63.0061
63.9251
64.9372
65.9511
66.9651
67.6247
67.6245
67.6244
67.6243
63.2481
62.1656
61.083
60.0005
58.9939
58.0219
57.0499
56.1038
55.2639
54.4241
53.5843
52.8826
52.2001
51.5175
50.9512
50.4556
49.9599
49.5011
49.2251
48.9491
48.6731
48.5546
48.464
48.3734
48.2835
48.216
48.1485
48.061
47.757
47.453
47.149
46.9695
46.8355
46.7015
46.6356
46.6869
46.7382
46.7894
46.9501
47.1108
47.2715
47.4703
47.6923
47.9142
48.1803
48.5546
48.9288
49.303
49.7629
50.2325
50.7022
51.1996
51.7285
52.2575
52.807
53.4187
54.0303
54.642
55.3392
56.0555
56.7719
57.536
58.3624
59.1888
60.0064
60.937
61.8676
62.7982
63.822
64.8481
65.8743
66.5415
66.5414
66.5413
66.5411
62.1836
61.0858
59.988
58.8902
57.868
56.8808
55.8936
54.9328
54.0785
53.2242
52.3699
51.6552
50.9599
50.2646
49.6871
49.1819
48.6767
48.2095
47.9293
47.6491
47.3689
47.2462
47.1515
47.0568
46.9593
46.8797
46.8002
46.7011
46.3895
46.0778
45.7661
45.5838
45.4489
45.314
45.2527
45.3184
45.3841
45.4497
45.6247
45.7997
45.9746
46.1821
46.4094
46.6368
46.908
47.287
47.6659
48.0448
48.508
48.9808
49.4536
49.9537
50.4849
51.016
51.5681
52.1844
52.8008
53.4172
54.122
54.8463
55.5706
56.3432
57.1799
58.0165
58.8447
59.7869
60.7291
61.6713
62.7067
63.7451
64.7835
65.4584
65.4582
65.4581
65.458
61.1192
60.0061
58.893
57.7799
56.7421
55.7397
54.7373
53.7618
52.893
52.0242
51.1554
50.4278
49.7198
49.0117
48.4229
47.9081
47.3934
46.9179
46.6335
46.3491
46.0646
45.9377
45.839
45.7402
45.6351
45.5435
45.4519
45.3412
45.0219
44.7026
44.3832
44.198
44.0622
43.9264
43.8698
43.9499
44.03
44.11
44.2993
44.4885
44.6778
44.8938
45.1266
45.3593
45.6358
46.0194
46.403
46.7866
47.2531
47.7291
48.205
48.7079
49.2413
49.7746
50.3291
50.9502
51.5713
52.1924
52.9049
53.6371
54.3692
55.1505
55.9973
56.8442
57.6831
58.6368
59.5906
60.5444
61.5915
62.6421
63.6927
64.3752
64.3751
64.375
64.3748
60.1276
58.999
57.8704
56.7418
55.6655
54.6482
53.6309
52.6732
51.7895
50.9058
50.0221
49.2771
48.5556
47.8341
47.2177
46.6932
46.1686
45.6926
45.4035
45.1144
44.8253
44.6918
44.5885
44.4852
44.3708
44.2633
44.1558
44.0365
43.7079
43.3793
43.0507
42.8577
42.7201
42.5826
42.5299
42.625
42.7202
42.8152
43.0195
43.2237
43.4279
43.6558
43.8959
44.136
44.4123
44.8001
45.1879
45.5757
46.0512
46.5296
47.0079
47.5147
48.0499
48.5851
49.1388
49.7645
50.3903
51.0161
51.7404
52.481
53.2216
54.0146
54.872
55.7294
56.5875
57.5535
58.5195
59.4855
60.5402
61.6033
62.6663
63.3158
63.3158
63.3158
63.3158
59.1741
58.0303
56.8865
55.7428
54.6515
53.6188
52.5861
51.6128
50.7141
49.8154
48.9167
48.1581
47.423
46.688
46.0596
45.5247
44.9898
44.5042
44.2104
43.9167
43.6229
43.4847
43.3765
43.2684
43.1432
43.0176
42.8919
42.7552
42.417
42.0787
41.7405
41.5432
41.4034
41.2636
41.215
41.3257
41.4363
41.5469
41.7663
41.9858
42.2052
42.4433
42.6907
42.9382
43.2213
43.6135
44.0058
44.398
44.8758
45.3564
45.837
46.3458
46.8825
47.4193
47.975
48.6057
49.2365
49.8672
50.5992
51.3483
52.0975
52.9001
53.7684
54.6366
55.5058
56.4839
57.4619
58.44
59.5067
60.5823
61.6579
62.3161
62.3161
62.3161
62.3161
58.2206
57.0617
55.9027
54.7438
53.6375
52.5894
51.5412
50.5524
49.6387
48.7249
47.8111
47.039
46.2904
45.5418
44.9016
44.3562
43.8109
43.3158
43.0174
42.719
42.4206
42.2775
42.1646
42.0516
41.9156
41.7719
41.6281
41.4739
41.126
40.7782
40.4303
40.2287
40.0866
39.9445
39.9002
40.0263
40.1524
40.2785
40.5131
40.7478
40.9824
41.2307
41.4856
41.7405
42.0303
42.427
42.8236
43.2203
43.7004
44.1833
44.6661
45.177
45.7152
46.2534
46.8112
47.4469
48.0826
48.7183
49.458
50.2156
50.9733
51.7857
52.6647
53.5438
54.4241
55.4143
56.4044
57.3946
58.4732
59.5614
60.6495
61.3164
61.3164
61.3164
61.3164
57.2956
56.1222
54.9487
53.7752
52.6819
51.6181
50.5544
49.5141
48.5855
47.657
46.7284
45.9673
45.2049
44.4424
43.7801
43.224
42.6679
42.1615
41.8583
41.555
41.2518
41.0953
40.9776
40.8598
40.7267
40.5626
40.3985
40.2189
39.861
39.503
39.145
38.9397
38.795
38.6502
38.6101
38.7517
38.8932
39.0351
39.285
39.5348
39.7847
40.0421
40.3046
40.567
40.868
41.2692
41.6704
42.0716
42.5446
43.0292
43.5137
44.0339
44.5734
45.1128
45.6731
46.314
46.9549
47.5958
48.3347
49.1009
49.8671
50.6814
51.5715
52.4617
53.3711
54.3737
55.3763
56.3789
57.4417
58.5418
59.6419
60.3604
60.3604
60.3604
60.3604
56.4743
55.2864
54.0985
52.9106
51.8023
50.7235
49.6448
48.5897
47.6461
46.7026
45.759
44.9838
44.2074
43.431
42.7562
42.1889
41.6217
41.1053
40.7967
40.4881
40.1795
40.0173
39.8936
39.7699
39.6219
39.4327
39.2434
39.0399
38.6702
38.3005
37.9308
37.7197
37.5712
37.4227
37.3858
37.5433
37.7006
37.8583
38.1229
38.3876
38.6521
38.9212
39.1934
39.4657
39.7747
40.1793
40.5838
40.9884
41.4625
41.948
42.4335
42.9543
43.4944
44.0345
44.5963
45.2424
45.8885
46.5345
47.2819
48.0572
48.8326
49.6571
50.5586
51.4601
52.3809
53.3959
54.4109
55.4259
56.5017
57.6144
58.7272
59.4533
59.4533
59.4533
59.4533
55.6529
54.4506
53.2483
52.046
50.9227
49.8289
48.7352
47.6652
46.7067
45.7482
44.7897
44.0002
43.2099
42.4195
41.7323
41.1539
40.5755
40.049
39.7351
39.4211
39.1072
38.9393
38.8097
38.68
38.5171
38.3027
38.0884
37.8608
37.4794
37.0981
36.7167
36.4997
36.3474
36.1951
36.1616
36.3348
36.5081
36.6816
36.9609
37.2402
37.5196
37.8002
38.0823
38.3644
38.6814
39.0893
39.4973
39.9052
40.3805
40.8669
41.3533
41.8746
42.4154
42.9561
43.5196
44.1708
44.8221
45.4733
46.2292
47.0136
47.7981
48.6327
49.5456
50.4585
51.3907
52.4182
53.4456
54.473
55.5616
56.687
57.8124
58.5461
58.5461
58.5461
58.5461
54.8316
53.6148
52.3981
51.1813
50.043
48.9343
47.8256
46.7408
45.7673
44.7938
43.8203
43.0167
42.2124
41.4081
40.7084
40.1188
39.5292
38.9928
38.6735
38.3542
38.0349
37.8613
37.7257
37.5901
37.4123
37.1728
36.9333
36.6818
36.2887
35.8956
35.5025
35.2797
35.1236
34.9676
34.9374
35.1264
35.3155
35.5048
35.7989
36.093
36.387
36.6793
36.9712
37.263
37.5881
37.9994
38.4107
38.8221
39.2985
39.7858
40.2731
40.795
41.3364
41.8778
42.4428
43.0992
43.7556
44.412
45.1764
45.97
46.7635
47.6083
48.5326
49.4569
50.4006
51.4404
52.4803
53.5201
54.6215
55.7596
56.8976
57.639
57.639
57.639
57.639
54.1526
52.923
51.6934
50.4637
49.3047
48.1825
47.0603
45.978
44.9905
44.003
43.0154
42.1818
41.3641
40.5464
39.8471
39.246
38.6448
38.0897
37.764
37.4383
37.1126
36.9396
36.7964
36.6532
36.4538
36.1818
35.9099
35.6196
35.2135
34.8074
34.4013
34.1769
34.0158
33.8547
33.8267
34.0309
34.235
34.4392
34.7447
35.0502
35.3556
35.6598
35.9635
36.2673
36.6003
37.0125
37.4247
37.8369
38.3194
38.8062
39.293
39.8077
40.3488
40.8899
41.4546
42.1165
42.7784
43.4403
44.2131
45.0163
45.8195
46.6874
47.6235
48.5596
49.5047
50.557
51.6092
52.6614
53.785
54.9358
56.0867
56.8217
56.8217
56.8217
56.8217
53.4875
52.2453
51.003
49.7608
48.5886
47.453
46.3173
45.2214
44.2199
43.2185
42.217
41.3699
40.5386
39.7074
38.9957
38.383
37.7704
37.2045
36.8722
36.5399
36.2075
36.0271
35.8764
35.7257
35.5071
35.202
34.8969
34.5755
34.1559
33.7364
33.3168
33.085
32.9189
32.7529
32.7272
32.9462
33.1653
33.3844
33.7012
34.018
34.3349
34.6506
34.9662
35.2817
35.6235
36.0365
36.4496
36.8626
37.3441
37.8298
38.3156
38.8297
39.3705
39.9112
40.4767
41.1441
41.8115
42.4789
43.2605
44.0735
44.8864
45.7651
46.713
47.661
48.618
49.6829
50.7477
51.8125
52.9485
54.112
55.2754
56.0186
56.0186
56.0186
56.0186
52.8223
51.5675
50.3127
49.0579
47.8726
46.7235
45.5744
44.4647
43.4493
42.434
41.4186
40.5579
39.7132
38.8684
38.1443
37.5201
36.8959
36.3194
35.9804
35.6414
35.3024
35.1146
34.9564
34.7982
34.5605
34.2222
33.884
33.5313
33.0983
32.6653
32.2323
31.9931
31.8221
31.6511
31.6276
31.8616
32.0955
32.3295
32.6577
32.9859
33.3141
33.6415
33.9688
34.2962
34.6467
35.0606
35.4744
35.8882
36.3688
36.8535
37.3382
37.8518
38.3921
38.9325
39.4988
40.1716
40.8445
41.5174
42.308
43.1307
43.9534
44.8427
45.8026
46.7624
47.7313
48.8087
49.8862
50.9637
52.1121
53.2881
54.4642
55.2156
55.2156
55.2156
55.2156
52.27
51.0044
49.7388
48.4732
47.2718
46.111
44.9501
43.8221
42.7942
41.7664
40.7386
39.8649
39.0079
38.1509
37.415
36.7794
36.1439
35.5593
35.2121
34.8649
34.5176
34.3172
34.1505
33.9838
33.7253
33.349
32.9728
32.5896
32.1428
31.6961
31.2494
30.9982
30.8223
30.6463
30.6245
30.8717
31.1189
31.3664
31.7012
32.036
32.3707
32.7072
33.0456
33.3839
33.7429
34.1549
34.5668
34.9787
35.452
35.9341
36.4162
36.932
37.4716
38.0112
38.5789
39.2578
39.9367
40.6156
41.4149
42.2479
43.0809
43.9783
44.9504
45.9226
46.9032
47.9933
49.0834
50.1735
51.3422
52.5308
53.7195
54.468
54.468
54.468
54.468
51.7891
50.5145
49.2398
47.9652
46.754
45.5831
44.4121
43.2739
42.2351
41.1963
40.1574
39.2725
38.404
37.5355
36.7883
36.1417
35.4951
34.8998
34.5433
34.1868
33.8303
33.6203
33.4438
33.2674
32.9844
32.5662
32.148
31.7254
31.2648
30.8043
30.3437
30.0852
29.9042
29.7233
29.7026
29.9615
30.2204
30.4798
30.8167
31.1536
31.4905
31.8345
32.1835
32.5325
32.8981
33.3059
33.7137
34.1215
34.5914
35.07
35.5486
36.0622
36.6009
37.1395
37.7076
38.393
39.0784
39.7638
40.5732
41.4169
42.2607
43.1697
44.1544
45.1391
46.1322
47.2351
48.3381
49.441
50.6221
51.8232
53.0243
53.7808
53.7808
53.7808
53.7808
51.3083
50.0246
48.7408
47.4571
46.2362
45.0551
43.8741
42.7257
41.6759
40.6261
39.5763
38.68
37.8001
36.9202
36.1616
35.5039
34.8463
34.2403
33.8745
33.5087
33.1429
32.9233
32.7372
32.551
32.2435
31.7834
31.3232
30.8612
30.3868
29.9124
29.4381
29.1721
28.9862
28.8002
28.7806
29.0513
29.322
29.5931
29.9322
30.2712
30.6102
30.9618
31.3215
31.6811
32.0533
32.457
32.8606
33.2642
33.7307
34.2058
34.681
35.1924
35.7301
36.2678
36.8363
37.5282
38.2201
38.912
39.7315
40.586
41.4406
42.3612
43.3584
44.3556
45.3612
46.477
47.5928
48.7085
49.902
51.1155
52.329
53.0936
53.0936
53.0936
53.0936
50.8624
49.5708
48.2792
46.9875
45.7483
44.5585
43.3687
42.2253
41.1658
40.1062
39.0466
38.1391
37.2486
36.3582
35.5893
34.921
34.2526
33.6369
33.2607
32.8846
32.5084
32.2796
32.0827
31.8858
31.5482
31.0451
30.5418
30.0415
29.5539
29.0664
28.5789
28.3067
28.1165
27.9262
27.9071
28.1881
28.4691
28.7502
29.0873
29.4243
29.7614
30.1181
30.4863
30.8544
31.2306
31.6288
32.027
32.4252
32.8906
33.3621
33.8335
34.3385
34.8757
35.413
35.9827
36.6816
37.3804
38.0793
38.9136
39.7795
40.6453
41.581
42.5909
43.6008
44.6215
45.7504
46.8793
48.0081
49.1991
50.4248
51.6504
52.4379
52.4379
52.4379
52.4379
50.5947
49.3007
48.0068
46.7128
45.4709
44.2778
43.0847
41.9375
40.8736
39.8097
38.7458
37.8325
36.9361
36.0398
35.2634
34.5862
33.909
33.2831
32.8911
32.4991
32.1071
31.8633
31.6516
31.4399
31.0722
30.5201
29.968
29.4222
28.925
28.4279
27.9307
27.655
27.4632
27.2715
27.2527
27.537
27.8212
28.1055
28.4234
28.7413
29.0592
29.4079
29.7741
30.1404
30.5124
30.8999
31.2875
31.675
32.1341
32.5996
33.0652
33.568
34.1064
34.6448
35.2173
35.9258
36.6344
37.343
38.1899
39.0689
39.948
40.8969
41.9207
42.9444
43.979
45.1212
46.2634
47.4057
48.6096
49.8476
51.0855
51.8805
51.8805
51.8805
51.8805
50.327
49.0307
47.7343
46.438
45.1934
43.997
42.8006
41.6497
40.5814
39.5132
38.4449
37.5258
36.6236
35.7213
34.9375
34.2514
33.5653
32.9294
32.5215
32.1137
31.7058
31.447
31.2205
30.9941
30.5962
29.9952
29.3941
28.8029
28.2961
27.7893
27.2825
27.0032
26.81
26.6169
26.5984
26.8858
27.1732
27.4608
27.7596
28.0583
28.357
28.6976
29.062
29.4264
29.7941
30.1711
30.548
30.9249
31.3776
31.8372
32.2968
32.7976
33.3372
33.8767
34.4518
35.1701
35.8884
36.6068
37.4662
38.3584
39.2506
40.2128
41.2505
42.2881
43.3365
44.4921
45.6476
46.8032
48.0201
49.2704
50.5207
51.3231
51.3231
51.3231
51.3231
50.0593
48.7606
47.4619
46.1632
44.916
43.7163
42.5166
41.3618
40.2892
39.2166
38.144
37.2192
36.311
35.4028
34.6115
33.9166
33.2217
32.5756
32.1519
31.7282
31.3045
31.0307
30.7895
30.5482
30.1201
29.4702
28.8203
28.1836
27.6672
27.1508
26.6344
26.3514
26.1568
25.9623
25.944
26.2346
26.5253
26.8161
27.0957
27.3753
27.6549
27.9873
28.3499
28.7125
29.0759
29.4422
29.8084
30.1747
30.621
31.0747
31.5285
32.0272
32.5679
33.1085
33.6864
34.4144
35.1425
35.8705
36.7425
37.6479
38.5533
39.5287
40.5803
41.6318
42.6941
43.8629
45.0318
46.2007
47.4306
48.6932
49.9558
50.7657
50.7657
50.7657
50.7657
49.8997
48.6059
47.312
46.0182
44.7926
43.5964
42.4003
41.2374
40.1676
39.0978
38.028
37.1067
36.2011
35.2955
34.5058
33.8133
33.1207
32.4773
32.0477
31.6182
31.1887
30.8601
30.5559
30.2517
29.7901
29.1378
28.4855
27.8461
27.3451
26.8441
26.3431
26.1214
26.0031
25.8848
25.8836
26.0873
26.2911
26.495
26.7112
26.9273
27.1435
27.4325
27.7629
28.0934
28.4303
28.7839
29.1376
29.4912
29.9282
30.3731
30.818
31.3179
31.8666
32.4153
33.001
33.7449
34.4887
35.2326
36.1234
37.0458
37.9683
38.9562
40.0237
41.0912
42.1686
43.3515
44.5344
45.7174
46.9695
48.2447
49.5199
50.3277
50.3277
50.3277
50.3277
49.7727
48.4851
47.1976
45.9101
44.6899
43.4989
42.3079
41.1501
40.0847
39.0193
37.9539
37.037
36.136
35.2349
34.4499
33.7623
33.0746
32.4344
32.0014
31.5683
31.1352
30.7457
30.3678
29.9899
29.4917
28.8475
28.2033
27.5731
27.0931
26.613
26.133
25.985
25.9603
25.9356
25.955
26.0519
26.1489
26.2459
26.3888
26.5316
26.6745
26.912
27.2037
27.4953
27.8003
28.1409
28.4814
28.822
29.2491
29.6846
30.1201
30.6211
31.1794
31.7376
32.3343
33.0953
33.8563
34.6173
35.5258
36.4662
37.4065
38.4119
39.4959
40.5799
41.6736
42.871
44.0684
45.2658
46.5307
47.8184
49.106
49.922
49.922
49.922
49.922
49.6456
48.3644
47.0832
45.802
44.5872
43.4014
42.2155
41.0627
40.0018
38.9408
37.8798
36.9674
36.0709
35.1743
34.3941
33.7113
33.0285
32.3916
31.955
31.5184
31.0818
30.6313
30.1797
29.728
29.1933
28.5572
27.9211
27.3001
26.841
26.3819
25.9229
25.8487
25.9175
25.9864
26.0265
26.0165
26.0066
25.9968
26.0664
26.1359
26.2055
26.3916
26.6444
26.8971
27.1704
27.4978
27.8253
28.1527
28.5701
28.9961
29.4222
29.9242
30.4921
31.06
31.6676
32.4458
33.2239
34.0021
34.9283
35.8865
36.8447
37.8676
38.9681
40.0686
41.1785
42.3904
43.6023
44.8142
46.0919
47.392
48.6922
49.5163
49.5163
49.5163
49.5163
49.4883
48.215
46.9416
45.6683
44.4601
43.2815
42.1029
40.9585
39.9046
38.8506
37.7967
36.8913
36.0021
35.1128
34.3421
33.6658
32.9896
32.354
31.9091
31.4642
31.0193
30.5127
29.992
29.4713
28.9045
28.2815
27.6584
27.052
26.6169
26.1817
25.7465
25.7274
25.864
26.0005
26.0652
26.0041
25.9429
25.8818
25.896
25.9102
25.9244
26.0497
26.2384
26.427
26.646
26.9459
27.2459
27.5458
27.9453
28.3554
28.7655
29.2702
29.8525
30.4348
31.0544
31.8532
32.6521
33.4509
34.4003
35.3787
36.3572
37.3957
38.514
39.6323
40.7626
41.9899
43.2171
44.4444
45.7316
47.0446
48.3577
49.1931
49.1931
49.1931
49.1931
49.2987
48.0349
46.7711
45.5072
44.3089
43.1402
41.9715
40.8368
39.793
38.7492
37.7054
36.8107
35.9321
35.0535
34.2922
33.6246
32.957
32.3261
31.8672
31.4083
30.9494
30.3884
29.8043
29.2202
28.6275
28.0234
27.4193
26.8327
26.425
26.0174
25.6097
25.6248
25.798
25.9711
26.0648
26.019
25.9733
25.9276
25.908
25.8885
25.8689
25.9218
26.016
26.1101
26.2482
26.5033
26.7584
27.0136
27.3874
27.7737
28.16
28.6648
29.2671
29.8694
30.5101
31.3339
32.1577
32.9815
33.9539
34.9552
35.9565
37.0166
38.1544
39.2923
40.4418
41.6854
42.929
44.1726
45.4742
46.8007
48.1273
48.9713
48.9713
48.9713
48.9713
49.1092
47.8548
46.6005
45.3461
44.1578
42.9989
41.84
40.7152
39.6815
38.6478
37.6141
36.73
35.8622
34.9943
34.2423
33.5834
32.9245
32.2982
31.8253
31.3524
30.8795
30.2641
29.6167
28.9692
28.3505
27.7653
27.1802
26.6134
26.2332
25.8531
25.4729
25.5221
25.7319
25.9418
26.0643
26.034
26.0036
25.9733
25.92
25.8667
25.8134
25.7939
25.7936
25.7933
25.8505
26.0607
26.271
26.4813
26.8294
27.192
27.5546
28.0594
28.6818
29.3041
29.9657
30.8145
31.6633
32.5121
33.5076
34.5317
35.5558
36.6374
37.7949
38.9523
40.1209
41.3809
42.6409
43.9009
45.2168
46.5568
47.8969
48.7495
48.7495
48.7495
48.7495
48.927
47.6825
46.438
45.1934
44.0146
42.8661
41.7176
40.6031
39.5797
38.5562
37.5328
36.6606
35.8023
34.9439
34.1941
33.54
32.886
32.2628
31.7711
31.2793
30.7876
30.1221
29.418
28.714
28.0725
27.5073
26.9422
26.3976
26.0551
25.7126
25.3701
25.4505
25.6891
25.9278
26.0728
26.0548
26.0367
26.0186
25.9346
25.8506
25.7665
25.681
25.5948
25.5086
25.4898
25.6524
25.8149
25.9775
26.3001
26.6378
26.9756
27.4782
28.1189
28.7595
29.443
30.3154
31.1877
32.0601
33.073
34.1187
35.1643
36.2713
37.4474
38.6234
39.8067
41.0822
42.3577
43.6331
44.9648
46.3176
47.6703
48.533
48.533
48.533
48.533
48.7952
47.5646
46.3341
45.1035
43.9393
42.8065
41.6736
40.5739
39.5628
38.5517
37.5406
36.6679
35.8078
34.9477
34.1789
33.4912
32.8035
32.1404
31.5809
31.0214
30.4619
29.7938
29.1017
28.4097
27.7884
27.2531
26.7178
26.2132
26.0101
25.807
25.6039
25.6863
25.8754
26.0644
26.1711
26.1341
26.0971
26.0601
25.9756
25.891
25.8065
25.7207
25.6345
25.5483
25.5087
25.5951
25.6814
25.7677
26.0512
26.3537
26.6561
27.1438
27.7866
28.4295
29.1163
29.997
30.8777
31.7585
32.7803
33.835
34.8896
36.0052
37.1894
38.3737
39.565
40.8475
42.13
43.4126
44.7508
46.1097
47.4685
48.3348
48.3348
48.3348
48.3348
48.6633
47.4468
46.2302
45.0136
43.8641
42.7469
41.6296
40.5446
39.5459
38.5471
37.5484
36.6753
35.8134
34.9515
34.1637
33.4424
32.721
32.0181
31.3908
30.7636
30.1363
29.4655
28.7855
28.1054
27.5042
26.9989
26.4935
26.0287
25.965
25.9014
25.8377
25.9221
26.0616
26.2011
26.2694
26.2135
26.1576
26.1016
26.0165
25.9315
25.8464
25.7604
25.6742
25.588
25.5276
25.5377
25.5478
25.5579
25.8024
26.0695
26.3366
26.8094
27.4544
28.0994
28.7895
29.6786
30.5677
31.4568
32.4876
33.5513
34.6149
35.739
36.9314
38.1239
39.3232
40.6128
41.9024
43.1921
44.5369
45.9018
47.2667
48.1366
48.1366
48.1366
48.1366
48.5315
47.3289
46.1263
44.9237
43.7889
42.6873
41.5856
40.5153
39.529
38.5426
37.5562
36.6826
35.8189
34.9553
34.1485
33.3935
32.6385
31.8957
31.2007
30.5057
29.8106
29.1373
28.4692
27.8011
27.2201
26.7447
26.2692
25.8442
25.92
25.9958
26.0716
26.1579
26.2478
26.3378
26.3676
26.2928
26.218
26.1431
26.0575
25.9719
25.8863
25.8002
25.7139
25.6277
25.5465
25.4804
25.4142
25.3481
25.5536
25.7853
26.0171
26.475
27.1222
27.7694
28.4628
29.3603
30.2577
31.1552
32.1949
33.2675
34.3402
35.4729
36.6735
37.8741
39.0814
40.3781
41.6748
42.9715
44.3229
45.6939
47.0648
47.9384
47.9384
47.9384
47.9384
48.3489
47.1468
45.9448
44.7427
43.6028
42.5014
41.4
40.3287
39.3406
38.3524
37.3643
36.484
35.6138
34.7436
33.9293
33.1604
32.3916
31.6328
30.9206
30.2083
29.496
28.8277
28.1697
27.5117
26.9425
26.4801
26.0176
25.6129
25.7827
25.9524
26.1221
26.2306
26.3161
26.4016
26.4264
26.345
26.2636
26.1822
26.0917
26.0013
25.9108
25.8148
25.7157
25.6166
25.5177
25.4189
25.3201
25.2213
25.4432
25.6976
25.952
26.4259
27.0823
27.7387
28.4399
29.3431
30.2463
31.1495
32.1947
33.2715
34.3483
35.4823
36.6861
37.8898
39.1025
40.4017
41.701
43.0003
44.3537
45.7266
47.0995
47.9733
47.9733
47.9733
47.9733
48.1398
46.9334
45.7269
44.5205
43.3755
42.2685
41.1616
40.0845
39.0893
38.094
37.0987
36.2101
35.3316
34.4532
33.6314
32.8562
32.0809
31.3174
30.6069
29.8964
29.1858
28.5256
27.877
27.2284
26.6673
26.2116
25.7558
25.3642
25.6108
25.8573
26.1039
26.2424
26.3404
26.4383
26.4703
26.387
26.3037
26.2204
26.1234
26.0264
25.9294
25.8197
25.703
25.5863
25.47
25.3548
25.2397
25.1245
25.3853
25.6841
25.9829
26.4835
27.1516
27.8197
28.5314
29.4393
30.3472
31.2551
32.3031
33.3823
34.4615
35.5975
36.8027
38.0078
39.2217
40.5218
41.8219
43.122
44.4755
45.8488
47.2221
48.0964
48.0964
48.0964
48.0964
47.9308
46.7199
45.5091
44.2982
43.1482
42.0357
40.9232
39.8403
38.8379
37.8355
36.8331
35.9362
35.0494
34.1627
33.3335
32.5519
31.7703
31.0021
30.2932
29.5844
28.8756
28.2234
27.5843
26.9451
26.3922
25.9431
25.494
25.1154
25.4388
25.7623
26.0857
26.2542
26.3646
26.475
26.5142
26.429
26.3437
26.2585
26.155
26.0515
25.9479
25.8247
25.6903
25.5559
25.4223
25.2908
25.1592
25.0277
25.3274
25.6707
26.0139
26.541
27.2209
27.9008
28.6228
29.5355
30.4482
31.3608
32.4116
33.4931
34.5746
35.7128
36.9193
38.1258
39.341
40.6418
41.9427
43.2436
44.5973
45.971
47.3447
48.2195
48.2195
48.2195
48.2195
47.8102
46.5919
45.3735
44.1551
42.9987
41.8765
40.7544
39.6616
38.6475
37.6333
36.6191
35.7091
34.8094
33.9097
33.0683
32.2767
31.4851
30.7096
30.003
29.2964
28.5898
27.9542
27.3347
26.7151
26.1948
25.7932
25.3916
25.0589
25.4185
25.7781
26.1377
26.3105
26.4131
26.5158
26.5472
26.454
26.3609
26.2678
26.1533
26.0388
25.9243
25.7904
25.6453
25.5002
25.3607
25.2364
25.1122
24.9879
25.3195
25.6967
26.0739
26.6219
27.3122
28.0025
28.7337
29.6508
30.5679
31.485
32.5384
33.622
34.7057
35.8457
37.0532
38.2608
39.477
40.7783
42.0796
43.3809
44.7347
46.1084
47.482
48.3563
48.3563
48.3563
48.3563
47.8514
46.6199
45.3884
44.1569
42.9849
41.846
40.707
39.5966
38.5626
37.5285
36.4945
35.5635
34.6426
33.7217
32.8618
32.0538
31.2458
30.4573
29.7539
29.0504
28.347
27.7426
27.1605
26.5783
26.1324
25.8496
25.5668
25.3391
25.6636
25.9881
26.3126
26.4446
26.5042
26.5638
26.5611
26.4497
26.3382
26.2267
26.0935
25.9603
25.8272
25.6874
25.5437
25.4
25.2749
25.1993
25.1238
25.0482
25.3985
25.7913
26.1842
26.7437
27.4419
28.1401
28.8787
29.7997
30.7207
31.6418
32.6972
33.7826
34.8679
36.009
37.2169
38.4249
39.6414
40.9424
42.2433
43.5443
44.8976
46.2705
47.6433
48.5171
48.5171
48.5171
48.5171
47.8926
46.6479
45.4033
44.1587
42.9712
41.8155
40.6597
39.5316
38.4777
37.4238
36.37
35.4179
34.4758
33.5337
32.6554
31.831
31.0066
30.2051
29.5048
28.8045
28.1041
27.531
26.9863
26.4415
26.07
25.9061
25.7421
25.6194
25.9088
26.1982
26.4876
26.5786
26.5952
26.6117
26.5751
26.4453
26.3155
26.1857
26.0338
25.8819
25.73
25.5843
25.4421
25.2999
25.1891
25.1622
25.1354
25.1086
25.4775
25.886
26.2945
26.8654
27.5716
28.2777
29.0237
29.9486
30.8736
31.7986
32.8561
33.9431
35.0301
36.1723
37.3807
38.589
39.8058
41.1064
42.407
43.7076
45.0605
46.4325
47.8046
48.6778
48.6778
48.6778
48.6778
47.9342
46.6764
45.4187
44.161
42.9572
41.7847
40.6121
39.467
38.3933
37.3196
36.2458
35.2721
34.3088
33.3455
32.4491
31.6083
30.7675
29.9527
29.2555
28.5583
27.8612
27.3194
26.8121
26.3048
26.0076
25.9626
25.9175
25.8995
26.1539
26.4082
26.6625
26.7127
26.6862
26.6597
26.589
26.4409
26.2927
26.1446
25.974
25.8034
25.6328
25.4812
25.3404
25.1997
25.1033
25.1252
25.147
25.1689
25.5565
25.9807
26.4049
26.9871
27.7012
28.4152
29.1685
30.0974
31.0263
31.9552
33.0148
34.1035
35.1923
36.3354
37.5441
38.7529
39.9706
41.2709
42.5712
43.8715
45.2226
46.5939
47.9651
48.838
48.838
48.838
48.838
48.0962
46.827
45.5577
44.2885
43.0694
41.8792
40.689
39.5241
38.4252
37.3263
36.2273
35.2229
34.2287
33.2345
32.3077
31.4364
30.5652
29.7219
29.0048
28.2877
27.5706
27.0283
26.5247
26.021
25.7831
25.8638
25.9445
26.0374
26.2529
26.4685
26.6841
26.6989
26.6383
26.5778
26.4824
26.3264
26.1704
26.0143
25.8498
25.6853
25.5207
25.3892
25.2763
25.1635
25.0971
25.1545
25.2119
25.2693
25.6713
26.1078
26.5442
27.1352
27.8552
28.5752
29.3334
30.2628
31.1922
32.1217
33.1781
34.2629
35.3477
36.4854
37.687
38.8887
40.099
41.3908
42.6826
43.9744
45.3177
46.6811
48.0444
48.9122
48.9122
48.9122
48.9122
48.2582
46.9775
45.6968
44.416
43.1816
41.9737
40.7658
39.5813
38.4571
37.333
36.2088
35.1737
34.1486
33.1235
32.1663
31.2646
30.363
29.4911
28.7541
28.0171
27.2801
26.7372
26.2372
25.7372
25.5585
25.765
25.9716
26.1752
26.352
26.5289
26.7057
26.6852
26.5905
26.4958
26.3759
26.2119
26.048
25.884
25.7256
25.5672
25.4087
25.2971
25.2122
25.1273
25.0908
25.1838
25.2767
25.3696
25.7861
26.2349
26.6836
27.2833
28.0093
28.7352
29.4984
30.4283
31.3582
32.2881
33.3413
34.4222
35.5031
36.6354
37.8299
39.0244
40.2274
41.5107
42.7939
44.0772
45.4128
46.7683
48.1237
48.9865
48.9865
48.9865
48.9865
48.4202
47.128
45.8358
44.5436
43.2938
42.0682
40.8427
39.6384
38.4891
37.3397
36.1903
35.1245
34.0685
33.0126
32.0248
31.0928
30.1607
29.2603
28.5034
27.7465
26.9896
26.4461
25.9498
25.4535
25.334
25.6663
25.9986
26.313
26.4511
26.5892
26.7273
26.6715
26.5427
26.4139
26.2693
26.0974
25.9256
25.7537
25.6014
25.449
25.2967
25.2051
25.1481
25.0911
25.0846
25.2131
25.3415
25.47
25.901
26.3619
26.8229
27.4315
28.1633
28.8952
29.6634
30.5937
31.5241
32.4545
33.5046
34.5816
35.6586
36.7855
37.9728
39.1602
40.3558
41.6305
42.9053
44.1801
45.5079
46.8555
48.203
49.0607
49.0607
49.0607
49.0607
48.5718
47.2719
45.9719
44.6719
43.4129
42.1797
40.9464
39.7354
38.5798
37.4242
36.2686
35.2011
34.1421
33.083
32.0934
31.162
30.2305
29.3311
28.5751
27.819
27.063
26.5113
26.0062
25.5011
25.3634
25.6655
25.9676
26.2529
26.368
26.483
26.5981
26.5405
26.4181
26.2958
26.1549
25.9813
25.8077
25.6341
25.4884
25.3428
25.1972
25.137
25.1259
25.1148
25.1469
25.2936
25.4404
25.5872
26.0286
26.4997
26.9707
27.5768
28.2952
29.0136
29.7667
30.6781
31.5895
32.5009
33.5351
34.5955
35.656
36.7668
37.9421
39.1173
40.3027
41.5697
42.8366
44.1035
45.4256
46.7686
48.1116
48.965
48.965
48.965
48.965
48.7173
47.4116
46.106
44.8004
43.5381
42.3028
41.0675
39.8562
38.7052
37.5543
36.4033
35.3481
34.302
33.2558
32.2819
31.3688
30.4557
29.5736
28.8304
28.0871
27.3439
26.7814
26.2604
25.7394
25.5389
25.7215
25.9041
26.0795
26.1805
26.2815
26.3825
26.3426
26.2499
26.1572
26.0359
25.864
25.6922
25.5204
25.3818
25.2432
25.1046
25.0827
25.1278
25.1728
25.248
25.4032
25.5584
25.7136
26.1638
26.6437
27.1236
27.7203
28.4141
29.1079
29.8354
30.7167
31.5979
32.4792
33.4886
34.5252
35.5619
36.6526
37.8129
38.9732
40.1446
41.404
42.6634
43.9228
45.2408
46.5811
47.9214
48.7731
48.7731
48.7731
48.7731
48.8627
47.5514
46.2402
44.9289
43.6633
42.4259
41.1886
39.9769
38.8306
37.6843
36.538
35.4952
34.4619
33.4286
32.4703
31.5756
30.6808
29.8162
29.0857
28.3552
27.6247
27.0515
26.5146
25.9778
25.7144
25.7775
25.8406
25.9061
25.993
26.08
26.1669
26.1448
26.0817
26.0186
25.9168
25.7468
25.5767
25.4067
25.2752
25.1436
25.012
25.0284
25.1296
25.2308
25.3491
25.5128
25.6764
25.84
26.299
26.7877
27.2764
27.8638
28.5329
29.2021
29.9041
30.7553
31.6064
32.4575
33.4422
34.455
35.4678
36.5383
37.6837
38.829
39.9864
41.2383
42.4902
43.7421
45.056
46.3936
47.7312
48.5812
48.5812
48.5812
48.5812
49.0545
47.7402
46.4259
45.1116
43.846
42.6087
41.3713
40.1597
39.0189
37.8782
36.7375
35.7057
34.6846
33.6634
32.7216
31.8434
30.9652
30.1151
29.3963
28.6774
27.9585
27.379
26.8293
26.2796
25.9632
25.9309
25.8986
25.8772
25.9474
26.0177
26.088
26.0752
26.0316
25.988
25.9003
25.7354
25.5705
25.4055
25.281
25.1565
25.032
25.0712
25.2036
25.336
25.4772
25.6427
25.8083
25.9738
26.4435
26.9433
27.443
28.0256
28.6781
29.3305
30.0145
30.8431
31.6718
32.5004
33.4654
34.4596
35.4539
36.5127
37.6459
38.7792
39.9234
41.1687
42.4139
43.6592
44.9673
46.3018
47.6363
48.4847
48.4847
48.4847
48.4847
49.3706
48.0603
46.75
45.4397
44.1795
42.948
41.7164
40.5108
39.378
38.2452
37.1123
36.0906
35.0797
34.0687
33.138
32.2716
31.4051
30.566
29.8559
29.1456
28.4355
27.8537
27.2992
26.7447
26.4114
26.3478
26.2843
26.2322
26.2792
26.3261
26.3731
26.3484
26.2973
26.2462
26.1586
26.0074
25.8561
25.7048
25.5876
25.4704
25.3533
25.3727
25.4698
25.5669
25.6783
25.8283
25.9783
26.1282
26.6119
27.1285
27.6451
28.2376
28.8944
29.5512
30.2384
31.065
31.8917
32.7184
33.6795
34.6696
35.6597
36.7144
37.843
38.9716
40.1112
41.352
42.5927
43.8335
45.1371
46.4675
47.7979
48.6437
48.6437
48.6437
48.6437
49.6868
48.3805
47.0742
45.7678
44.513
43.2873
42.0615
40.862
39.7371
38.6121
37.4872
36.4755
35.4748
34.474
33.5545
32.6997
31.845
31.017
30.3154
29.6139
28.9124
28.3283
27.7691
27.2098
26.8597
26.7648
26.6699
26.5873
26.6109
26.6346
26.6582
26.6216
26.5629
26.5043
26.4169
26.2793
26.1417
26.004
25.8942
25.7844
25.6745
25.6742
25.736
25.7978
25.8793
26.0138
26.1482
26.2827
26.7803
27.3137
27.8471
28.4496
29.1108
29.772
30.4623
31.2869
32.1116
32.9363
33.8936
34.8796
35.8656
36.9161
38.04
39.164
40.2991
41.5353
42.7715
44.0077
45.307
46.6333
47.9596
48.8026
48.8026
48.8026
48.8026
50.003
48.7007
47.3983
46.096
44.8466
43.6266
42.4065
41.2132
40.0961
38.9791
37.862
36.8604
35.8699
34.8793
33.971
33.1279
32.2848
31.4679
30.775
30.0822
29.3893
28.8029
28.2389
27.6749
27.3079
27.1817
27.0555
26.9424
26.9427
26.943
26.9432
26.8948
26.8286
26.7624
26.6752
26.5512
26.4273
26.3033
26.2008
26.0983
25.9958
25.9756
26.0022
26.0288
26.0803
26.1993
26.3182
26.4372
26.9487
27.4989
28.0491
28.6616
29.3272
29.9927
30.6862
31.5089
32.3315
33.1542
34.1077
35.0896
36.0715
37.1178
38.2371
39.3564
40.4869
41.7186
42.9503
44.182
45.4769
46.7991
48.1212
48.9616
48.9616
48.9616
48.9616
50.4317
49.1351
47.8385
46.5419
45.29
44.077
42.8641
41.6845
40.5755
39.4664
38.3574
37.365
36.3834
35.4018
34.4987
33.6662
32.8337
32.03
31.3507
30.6714
29.9922
29.4216
28.876
28.3305
27.9687
27.8292
27.6897
27.5631
27.5522
27.5413
27.5305
27.4772
27.4082
27.3392
27.2525
27.1341
27.0157
26.8973
26.798
26.6987
26.5994
26.5691
26.579
26.5888
26.6283
26.7467
26.8651
26.9835
27.4827
28.0208
28.5589
29.1646
29.8246
30.4846
31.1718
31.9888
32.8058
33.6228
34.569
35.5437
36.5185
37.5586
38.6701
39.7815
40.9
42.1237
43.3474
44.5711
45.8623
47.1768
48.4913
49.3262
49.3262
49.3262
49.3262
50.8654
49.5749
48.2844
46.9939
45.7483
44.5425
43.3366
42.1649
41.0639
39.9628
38.8617
37.8783
36.9057
35.933
35.0394
34.2173
33.3953
32.6027
31.9374
31.2721
30.6069
30.0559
29.5311
29.0063
28.6506
28.4995
28.3485
28.2105
28.1897
28.1688
28.148
28.0904
28.019
27.9477
27.8612
27.7477
27.6341
27.5206
27.424
27.3273
27.2306
27.1919
27.1869
27.1818
27.2108
27.3301
27.4493
27.5685
28.0543
28.5775
29.1008
29.6961
30.3496
31.003
31.6836
32.4945
33.3054
34.1163
35.0553
36.0227
36.9901
38.0226
39.1259
40.2292
41.3393
42.5547
43.7701
44.9854
46.2689
47.5754
48.8819
49.7116
49.7116
49.7116
49.7116
51.2992
50.0148
48.7304
47.446
46.2067
45.0079
43.8091