<VTKFile type="ImageData" version="1.0" byte_order="LittleEndian" header_type="UInt64">
	<ImageData WholeExtent="0 59 0 59 0 59" Origin="-0.13467 -0.00697991 -0.101969" Spacing="0.00399557 0.00399557 0.00399557">
		<Piece Extent="0 59 0 59 0 59">
			<PointData Scalars="Scalars_">
				<DataArray type="Float32" Name="Scalars_" format="ascii" RangeMin="0" RangeMax="100">
0.201375
0.197446
0.193518
0.189589
0.18566
0.181731
0.177802
0.173873
0.169944
0.166015
0.162086
0.158157
0.154228
0.150299
0.146694
0.142863
0.138934
0.135005
0.131076
0.127147
0.123218
0.119289
0.11536
0.114968
0.111039
0.10778
0.111057
0.110987
0.111722
0.115651
0.11958
0.123509
0.127438
0.122695
0.122978
0.126907
0.130836
0.134765
0.138694
0.134877
0.138806
0.135476
0.139405
0.142903
0.146832
0.150761
0.15469
0.158619
0.162548
0.166477
0.170406
0.170403
0.174332
0.178261
0.18219
0.186119
0.190048
0.193977
0.197906
0.201835
0.197446
0.193518
0.189589
0.18566
0.181731
0.177802
0.173873
0.169944
0.166015
0.162086
0.158157
0.154228
0.150299
0.14637
0.142765
0.138934
0.135005
0.131076
0.127147
0.123218
0.119289
0.11536
0.111431
0.111039
0.10711
0.103851
0.107128
0.107058
0.107793
0.111722
0.115651
0.11958
0.123509
0.118766
0.119049
0.122978
0.126907
0.130836
0.134765
0.130948
0.134877
0.131548
0.135476
0.138974
0.142903
0.146832
0.150761
0.15469
0.158619
0.162548
0.166477
0.166474
0.170403
0.174332
0.178261
0.18219
0.186119
0.190048
0.193977
0.197906
0.193518
0.189589
0.18566
0.181731
0.177802
0.173873
0.169944
0.166015
0.162086
0.158157
0.154228
0.150299
0.14637
0.142441
0.138836
0.135005
0.131076
0.127147
0.123218
0.119289
0.11536
0.111431
0.107502
0.10711
0.103181
0.0999218
0.103199
0.103129
0.103864
0.107793
0.111722
0.115651
0.11958
0.114837
0.11512
0.119049
0.122978
0.126907
0.130836
0.127019
0.130948
0.127619
0.131548
0.135045
0.138974
0.142903
0.146832
0.150761
0.15469
0.158619
0.162548
0.162545
0.166474
0.170403
0.174332
0.178261
0.18219
0.186119
0.190048
0.193977
0.189589
0.18566
0.181731
0.177802
0.173873
0.169944
0.166015
0.162086
0.158157
0.154228
0.150299
0.14637
0.142441
0.138512
0.134907
0.131076
0.127147
0.123218
0.119289
0.11536
0.111431
0.107502
0.103573
0.103181
0.0992521
0.0959929
0.0992704
0.0991997
0.0999348
0.103864
0.107793
0.111722
0.115651
0.110908
0.111191
0.11512
0.119049
0.122978
0.126907
0.12309
0.127019
0.12369
0.127619
0.131117
0.135045
0.138974
0.142903
0.146832
0.150761
0.15469
0.158619
0.158616
0.162545
0.166474
0.170403
0.174332
0.178261
0.18219
0.186119
0.190048
0.18566
0.181731
0.177802
0.173873
0.169944
0.166015
0.162086
0.158157
0.154228
0.150299
0.14637
0.142441
0.138512
0.134583
0.130978
0.127147
0.123218
0.119289
0.11536
0.111431
0.107502
0.103573
0.099644
0.0992521
0.0953231
0.0920639
0.0953414
0.0952707
0.0960058
0.0999348
0.103864
0.107793
0.111722
0.106979
0.107262
0.111191
0.11512
0.119049
0.122978
0.119161
0.12309
0.119761
0.12369
0.127188
0.131117
0.135045
0.138974
0.142903
0.146832
0.150761
0.15469
0.154687
0.158616
0.162545
0.166474
0.170403
0.174332
0.178261
0.18219
0.186119
0.181731
0.177802
0.173873
0.169944
0.166015
0.162086
0.158157
0.154228
0.150299
0.14637
0.142441
0.138512
0.134583
0.130654
0.127049
0.123218
0.119289
0.11536
0.111431
0.107502
0.103573
0.099644
0.095715
0.0953231
0.0913941
0.0881349
0.0914124
0.0913417
0.0920768
0.0960058
0.0999348
0.103864
0.107793
0.10305
0.103333
0.107262
0.111191
0.11512
0.119049
0.115232
0.119161
0.115832
0.119761
0.123259
0.127188
0.131117
0.135045
0.138974
0.142903
0.146832
0.150761
0.150758
0.154687
0.158616
0.162545
0.166474
0.170403
0.174332
0.178261
0.18219
0.177802
0.173873
0.169944
0.166015
0.162086
0.158157
0.154228
0.150299
0.14637
0.142441
0.138512
0.134583
0.130654
0.126725
0.12312
0.119289
0.11536
0.111431
0.107502
0.103573
0.099644
0.095715
0.091786
0.0913941
0.0874651
0.0842059
0.0874835
0.0874127
0.0881479
0.0920768
0.0960058
0.0999348
0.103864
0.0991209
0.0994041
0.103333
0.107262
0.111191
0.11512
0.111303
0.115232
0.111903
0.115832
0.11933
0.123259
0.127188
0.131117
0.135045
0.138974
0.142903
0.146832
0.146829
0.150758
0.154687
0.158616
0.162545
0.166474
0.170403
0.174332
0.178261
0.173873
0.169944
0.166015
0.162086
0.158157
0.154228
0.150299
0.14637
0.142441
0.138512
0.134583
0.130654
0.126725
0.122796
0.119191
0.11536
0.111431
0.107502
0.103573
0.099644
0.095715
0.091786
0.087857
0.0874651
0.0835361
0.0802769
0.0835545
0.0834837
0.0842189
0.0881479
0.0920768
0.0960058
0.0999348
0.095192
0.0954751
0.0994041
0.103333
0.107262
0.111191
0.107374
0.111303
0.107974
0.111903
0.115401
0.11933
0.123259
0.127188
0.131117
0.135045
0.138974
0.142903
0.1429
0.146829
0.150758
0.154687
0.158616
0.162545
0.166474
0.170403
0.174332
0.169944
0.166015
0.162086
0.158157
0.154228
0.150299
0.14637
0.142441
0.138512
0.134583
0.130654
0.126725
0.122796
0.118867
0.115262
0.111431
0.107502
0.103573
0.099644
0.095715
0.091786
0.087857
0.0839281
0.0835361
0.0796071
0.0763479
0.0796255
0.0795548
0.0802899
0.0842189
0.0881479
0.0920768
0.0960058
0.091263
0.0915461
0.0954751
0.0994041
0.103333
0.107262
0.103445
0.107374
0.104045
0.107974
0.111472
0.115401
0.11933
0.123259
0.127188
0.131117
0.135045
0.138974
0.138971
0.1429
0.146829
0.150758
0.154687
0.158616
0.162545
0.166474
0.170403
0.166015
0.162086
0.158157
0.154228
0.150299
0.14637
0.142441
0.138512
0.134583
0.130654
0.126725
0.122796
0.118867
0.114938
0.111333
0.107502
0.103573
0.099644
0.095715
0.091786
0.087857
0.0839281
0.0799991
0.0796071
0.0756782
0.072419
0.0756965
0.0756258
0.0763609
0.0802899
0.0842189
0.0881479
0.0920768
0.087334
0.0876172
0.0915461
0.0954751
0.0994041
0.103333
0.099516
0.103445
0.100116
0.104045
0.107543
0.111472
0.115401
0.11933
0.123259
0.127188
0.131117
0.135045
0.135042
0.138971
0.1429
0.146829
0.150758
0.154687
0.158616
0.162545
0.166474
0.162086
0.158157
0.154228
0.150299
0.14637
0.142441
0.138512
0.134583
0.130654
0.126725
0.122796
0.118867
0.114938
0.111009
0.107404
0.103573
0.099644
0.095715
0.091786
0.087857
0.0839281
0.0799991
0.0760701
0.0756782
0.0717492
0.06849
0.0717675
0.0716968
0.0724319
0.0763609
0.0802899
0.0842189
0.0881479
0.083405
0.0836882
0.0876172
0.0915461
0.0954751
0.0994041
0.095587
0.099516
0.0961867
0.100116
0.103614
0.107543
0.111472
0.115401
0.11933
0.123259
0.127188
0.131117
0.131113
0.135042
0.138971
0.1429
0.146829
0.150758
0.154687
0.158616
0.162545
0.162815
0.158886
0.154957
0.151028
0.147099
0.14317
0.139241
0.135312
0.131383
0.127455
0.123526
0.119597
0.115668
0.111739
0.107868
0.103939
0.10001
0.0960806
0.0921516
0.0882226
0.0842936
0.0803647
0.0764357
0.0758334
0.0723198
0.0709401
0.0714213
0.0714319
0.07148
0.075409
0.0793379
0.0832669
0.0871959
0.079476
0.0797592
0.0836882
0.0876172
0.0915461
0.0954751
0.091658
0.095587
0.0922577
0.0961867
0.0996847
0.103614
0.107543
0.111472
0.115401
0.11933
0.123259
0.127188
0.127184
0.131113
0.135042
0.138971
0.1429
0.146829
0.150758
0.154687
0.158616
0.166391
0.162462
0.158533
0.154605
0.150676
0.146747
0.142818
0.138889
0.13496
0.131031
0.127102
0.123173
0.119244
0.115315
0.111386
0.107457
0.103528
0.0995988
0.0956698
0.0917409
0.0878119
0.0838829
0.0799539
0.0760249
0.072159
0.071986
0.0710179
0.0711688
0.0750978
0.0790268
0.0829558
0.0868848
0.0839863
0.075547
0.0758302
0.0797592
0.0836882
0.0876172
0.0915461
0.087729
0.091658
0.0883287
0.0922577
0.0957557
0.0996847
0.103614
0.107543
0.111472
0.115401
0.11933
0.123259
0.123255
0.127184
0.131113
0.135042
0.138971
0.1429
0.146829
0.150758
0.154687
0.17032
0.166391
0.162462
0.158533
0.154605
0.150676
0.146747
0.142818
0.138889
0.13496
0.131031
0.127102
0.123173
0.119244
0.115315
0.111386
0.107457
0.103591
0.0996618
0.0957329
0.0918039
0.0878749
0.0839459
0.0799539
0.0760879
0.0800169
0.0839459
0.0750978
0.0876884
0.0839162
0.0843671
0.0882961
0.0800574
0.0716181
0.0719012
0.0758302
0.0797592
0.0836882
0.0876172
0.0838001
0.087729
0.0843998
0.0883287
0.0918267
0.0957557
0.0996847
0.103614
0.107543
0.111472
0.115401
0.11933
0.119326
0.123255
0.127184
0.131113
0.135042
0.138971
0.1429
0.146829
0.150758
0.170901
0.166972
0.163043
0.159114
0.155185
0.151256
0.147327
0.143398
0.139469
0.13554
0.131611
0.127682
0.123753
0.119824
0.115895
0.115297
0.111386
0.10752
0.107471
0.103584
0.0957329
0.0996618
0.0878749
0.0838829
0.0800169
0.0828048
0.0788759
0.0876884
0.0837594
0.0799873
0.0804382
0.0843671
0.0761284
0.0676891
0.0679723
0.0719012
0.0758302
0.0797592
0.0836882
0.0798711
0.0838001
0.0804708
0.0843998
0.0879892
0.0919182
0.0958472
0.0997761
0.103705
0.107634
0.111563
0.115492
0.115397
0.119326
0.123255
0.127184
0.131113
0.135042
0.138971
0.1429
0.146829
0.166972
0.163043
0.159114
0.155185
0.151256
0.147327
0.143398
0.139469
0.13554
0.131611
0.127682
0.123753
0.119824
0.115895
0.111966
0.111368
0.1114
0.107471
0.103542
0.0996547
0.103584
0.107333
0.103404
0.0994754
0.0955464
0.0916174
0.0876884
0.0837594
0.0798305
0.0760583
0.0765092
0.0804382
0.0721994
0.0761284
0.0800574
0.06846
0.072389
0.0760246
0.0799536
0.0759421
0.0798711
0.0802102
0.0841392
0.0873553
0.0912843
0.0952133
0.0991423
0.103071
0.107
0.110929
0.114858
0.111468
0.115397
0.119326
0.123255
0.127184
0.131113
0.135042
0.138971
0.1429
0.163043
0.159114
0.155185
0.151256
0.147327
0.143398
0.139469
0.13554
0.131611
0.127682
0.123753
0.119824
0.115895
0.111966
0.108037
0.107439
0.107471
0.103542
0.0996134
0.0957257
0.0996547
0.103404
0.0994754
0.0955464
0.0916174
0.0876884
0.0837594
0.0798305
0.0759015
0.0721293
0.0725802
0.0765092
0.0682704
0.0721994
0.0761284
0.0680821
0.0720111
0.0720957
0.0760246
0.075801
0.0797299
0.0802959
0.0842249
0.0876267
0.0915557
0.0954847
0.0994137
0.103343
0.107272
0.111201
0.11513
0.11068
0.114609
0.118538
0.122467
0.126396
0.130325
0.134254
0.138183
0.142111
0.159114
0.155185
0.151256
0.147327
0.143398
0.139469
0.13554
0.131611
0.127682
0.123753
0.119824
0.115895
0.111966
0.108037
0.104108
0.10351
0.103542
0.0996134
0.0956844
0.0917967
0.0957257
0.0994754
0.0955464
0.0916174
0.0876884
0.0837594
0.0798305
0.0759015
0.0719725
0.0682003
0.0686512
0.0725802
0.0643414
0.0682704
0.0721994
0.0671186
0.0685168
0.0681667
0.0720957
0.0723043
0.0762332
0.0787567
0.0826857
0.0836978
0.0876267
0.0915557
0.0954847
0.0994137
0.103343
0.107272
0.111201
0.11131
0.115239
0.119168
0.123097
0.126164
0.130093
0.134022
0.137951
0.14188
0.155185
0.151256
0.147327
0.143398
0.139469
0.13554
0.131611
0.127682
0.123753
0.119824
0.115895
0.111966
0.108037
0.104108
0.100179
0.0995811
0.0996134
0.0956844
0.0917554
0.0878677
0.0917967
0.0955464
0.0916174
0.0876884
0.0837594
0.0798305
0.0759015
0.0719725
0.0680435
0.0642713
0.0647222
0.0686512
0.0725802
0.06817
0.072099
0.0680351
0.068594
0.0679411
0.0718701
0.071806
0.075735
0.079664
0.083593
0.0831519
0.0870809
0.0910099
0.0949389
0.0988678
0.102797
0.106726
0.110655
0.114584
0.118513
0.11965
0.123579
0.126747
0.130676
0.134605
0.138534
0.142463
0.151256
0.147327
0.143398
0.139469
0.13554
0.131611
0.127682
0.123753
0.119824
0.115895
0.111966
0.108037
0.104108
0.100179
0.0962505
0.0956521
0.0956844
0.0917554
0.0878265
0.0839387
0.0878677
0.0916174
0.0876884
0.0837594
0.0798305
0.0759015
0.0719725
0.0680435
0.0641145
0.0603424
0.0607933
0.0647222
0.0686512
0.064241
0.06817
0.0683383
0.0679788
0.0677723
0.0717013
0.0724132
0.0763422
0.079825
0.083754
0.0831409
0.0870698
0.0909988
0.0949278
0.0988326
0.102762
0.106691
0.11062
0.114549
0.118478
0.119847
0.123776
0.127359
0.131288
0.135217
0.139146
0.143075
0.147327
0.143398
0.139469
0.13554
0.131611
0.127682
0.123753
0.119824
0.115895
0.111966
0.108037
0.104108
0.100179
0.0962505
0.0923215
0.0917231
0.0917554
0.0878265
0.0838975
0.0800098
0.0839387
0.0876884
0.0837594
0.0798305
0.0759015
0.0719725
0.0680435
0.0641145
0.0601855
0.0599583
0.0597268
0.0636558
0.0675848
0.0646799
0.0643353
0.0679058
0.0682059
0.0674708
0.0713997
0.0716904
0.0756194
0.0764033
0.0803323
0.0840138
0.0879427
0.0918717
0.0958007
0.0992765
0.103205
0.107134
0.111063
0.114992
0.118921
0.12285
0.126779
0.130708
0.134637
0.138566
0.142495
0.146424
0.146417
0.142488
0.138559
0.13463
0.130701
0.126772
0.122843
0.118914
0.114985
0.111056
0.107127
0.103198
0.099269
0.09534
0.0914183
0.0878424
0.0913097
0.0873807
0.0834517
0.0795227
0.0834517
0.0873807
0.0839008
0.0799718
0.0760428
0.0721139
0.0681849
0.0642559
0.0603269
0.0596931
0.060142
0.0602829
0.0642118
0.063042
0.0646045
0.0676621
0.0679979
0.068306
0.072235
0.0720579
0.0759869
0.0798396
0.0837686
0.0842809
0.0882099
0.0921388
0.0960678
0.0999968
0.103926
0.107855
0.111784
0.115713
0.119642
0.123571
0.1275
0.131429
0.135358
0.139287
0.143216
0.147145
0.142848
0.138919
0.13499
0.131061
0.127132
0.123203
0.119274
0.115345
0.111416
0.107487
0.103558
0.0996294
0.0957004
0.0917714
0.0878424
0.0839135
0.0911604
0.0872314
0.0833024
0.0793734
0.0833024
0.0872314
0.0834355
0.0795065
0.0755776
0.0716486
0.0677196
0.0637906
0.0598616
0.0600554
0.0592847
0.0605468
0.0603728
0.0640405
0.0644732
0.0668695
0.0681783
0.0671382
0.0710671
0.0721735
0.0761025
0.0800314
0.0839604
0.08423
0.088159
0.0911866
0.0951156
0.0990445
0.102974
0.106903
0.110831
0.11476
0.118689
0.122618
0.126547
0.130476
0.134405
0.138334
0.142263
0.146192
0.142304
0.138375
0.134446
0.130517
0.126588
0.122659
0.11873
0.114801
0.110872
0.106943
0.103014
0.0990854
0.0951565
0.0912275
0.0872985
0.0836273
0.0916923
0.0877633
0.0838343
0.0799054
0.0794013
0.0833303
0.0842271
0.0802981
0.0763691
0.0724401
0.0685111
0.0645821
0.0606532
0.0600582
0.0597361
0.0603332
0.0603227
0.0639858
0.0643155
0.0672096
0.0669232
0.0681248
0.0720538
0.0723463
0.0762753
0.0794583
0.0833872
0.082921
0.08685
0.0907789
0.0947079
0.0986369
0.102566
0.106495
0.110424
0.114353
0.118282
0.122211
0.12614
0.130069
0.133998
0.137927
0.141856
0.145785
0.142725
0.138796
0.134867
0.130938
0.127009
0.12308
0.119151
0.115222
0.111293
0.107364
0.103435
0.0995064
0.0955774
0.0916484
0.0877195
0.0867374
0.0920518
0.0881229
0.0841939
0.0802649
0.0792101
0.0831391
0.0870681
0.0839093
0.0799803
0.0760513
0.0721224
0.0681934
0.0642644
0.0603354
0.0602399
0.0606373
0.0633167
0.063555
0.0642816
0.0680633
0.0678725
0.0680347
0.0719637
0.0755059
0.0794349
0.078946
0.0828749
0.0826187
0.0865476
0.0904766
0.0944056
0.0983346
0.102264
0.106193
0.110122
0.114051
0.117979
0.121908
0.125837
0.129766
0.133695
0.137624
0.141553
0.145482
0.143105
0.139176
0.135247
0.131318
0.127389
0.12346
0.119532
0.115603
0.111674
0.107745
0.103816
0.0998866
0.0959576
0.0920286
0.0880997
0.0872353
0.0945177
0.0905887
0.0866598
0.0827308
0.0788018
0.0827308
0.0866598
0.0878383
0.0839093
0.0799803
0.0760513
0.0721224
0.0681934
0.0642644
0.064166
0.064163
0.0643823
0.0674839
0.0682106
0.0674238
0.0680188
0.0719478
0.0758768
0.0789237
0.0828526
0.0804658
0.0843948
0.0839631
0.087892
0.091821
0.09575
0.098964
0.102893
0.106822
0.110751
0.11468
0.118609
0.122538
0.126467
0.130396
0.134325
0.138254
0.142183
0.146112
0.142455
0.138526
0.134598
0.130669
0.12674
0.122811
0.118882
0.114953
0.111024
0.107095
0.103166
0.0992367
0.0953077
0.0913787
0.0916459
0.0954093
0.0914804
0.0875514
0.0840828
0.083305
0.0827308
0.0797347
0.0830464
0.0869754
0.0878383
0.0839093
0.0799803
0.0760513
0.0721224
0.0681934
0.068095
0.0680919
0.0681142
0.068385
0.0716015
0.0713528
0.0719478
0.0758768
0.0798057
0.0828526
0.0867816
0.084286
0.088215
0.0878598
0.0917888
0.0954731
0.0994021
0.102893
0.106822
0.110751
0.11468
0.118609
0.122538
0.126467
0.130396
0.134325
0.138254
0.142183
0.146112
0.150041
0.14274
0.138811
0.134882
0.130953
0.127024
0.123095
0.119166
0.115237
0.111308
0.107379
0.10345
0.0995208
0.0955918
0.0916628
0.0948045
0.0914804
0.0875514
0.0836224
0.0801538
0.079376
0.0798113
0.079893
0.0791174
0.0830464
0.0869754
0.0878383
0.0839093
0.0799803
0.0760513
0.0721224
0.072024
0.0720209
0.0720431
0.0723139
0.0751872
0.0752818
0.0758768
0.0789237
0.0828526
0.0867816
0.0907106
0.088215
0.092144
0.0917888
0.0957178
0.0959009
0.0998299
0.103159
0.107088
0.111017
0.114946
0.118875
0.122804
0.126733
0.130662
0.134591
0.13852
0.142449
0.146378
0.150307
0.153294
0.149365
0.145436
0.141507
0.137578
0.133649
0.12972
0.125791
0.121862
0.117933
0.114004
0.110075
0.106146
0.102217
0.0982885
0.0943595
0.0904305
0.0865015
0.0825726
0.0803209
0.0795372
0.0795488
0.079318
0.083247
0.087176
0.0839588
0.0800298
0.0797698
0.0791195
0.0760513
0.0759529
0.0759499
0.0759721
0.0762429
0.0791162
0.0792108
0.0798057
0.0828526
0.0837982
0.084286
0.088215
0.092144
0.096073
0.0951472
0.0990762
0.0998299
0.103759
0.107088
0.111017
0.114853
0.118782
0.122711
0.12664
0.130569
0.134498
0.138427
0.142356
0.146285
0.150214
0.154143
0.15901
0.155081
0.151152
0.147223
0.143294
0.139365
0.135436
0.131507
0.127578
0.123649
0.11972
0.115791
0.111862
0.107933
0.104004
0.100075
0.096146
0.092217
0.0922093
0.0802466
0.0804777
0.079212
0.0789821
0.0829111
0.0868401
0.0866287
0.0826998
0.0832029
0.0830484
0.0799803
0.0798819
0.0798789
0.0799011
0.0801719
0.0830451
0.0801087
0.0789051
0.0800818
0.0801753
0.0833602
0.0872892
0.0912182
0.0951472
0.0990762
0.103005
0.103402
0.107331
0.107116
0.111045
0.114974
0.118903
0.122832
0.126761
0.13069
0.134619
0.138548
0.142477
0.146406
0.150334
0.154263
0.155081
0.151152
0.147223
0.143294
0.139365
0.135436
0.131507
0.127578
0.123649
0.11972
0.115791
0.111862
0.107933
0.104004
0.100075
0.096146
0.092217
0.088288
0.0882803
0.0922093
0.0829096
0.083141
0.0829111
0.0868401
0.090769
0.087754
0.083825
0.0804053
0.0797416
0.079319
0.0792414
0.079138
0.0802694
0.0796039
0.0795066
0.0801622
0.0797403
0.0800531
0.0835161
0.0842289
0.0876862
0.0916152
0.0955442
0.0994732
0.103402
0.107331
0.11126
0.111045
0.114974
0.118903
0.122832
0.126761
0.13069
0.134619
0.138548
0.142477
0.146406
0.150334
0.154263
0.158192
0.151152
0.147223
0.143294
0.139365
0.135436
0.131507
0.127578
0.123649
0.11972
0.115791
0.111862
0.107933
0.104004
0.100075
0.096146
0.092217
0.088288
0.084359
0.0843513
0.0882803
0.0922093
0.0961382
0.0868401
0.090769
0.094698
0.091683
0.087754
0.0843342
0.0836705
0.083248
0.0831704
0.083067
0.0837876
0.0833926
0.0830807
0.083125
0.0834112
0.0839821
0.0874451
0.0881578
0.0916152
0.0955442
0.0994732
0.103402
0.107331
0.11126
0.115189
0.114974
0.118903
0.122832
0.126761
0.13069
0.134619
0.138548
0.142477
0.146406
0.150334
0.154263
0.158192
0.162121
0.147223
0.143294
0.139365
0.135436
0.131507
0.127578
0.123649
0.11972
0.115791
0.111862
0.107933
0.104004
0.100075
0.096146
0.092217
0.088288
0.084359
0.0804301
0.0804223
0.0843513
0.0882803
0.0922093
0.0961382
0.100067
0.103996
0.0951454
0.0912164
0.0880244
0.0875995
0.0871769
0.0870994
0.086996
0.0873272
0.0873216
0.0870096
0.087054
0.0873402
0.087272
0.0876152
0.087945
0.091874
0.095803
0.0992578
0.103187
0.107116
0.111045
0.114974
0.118903
0.122832
0.126761
0.13069
0.134619
0.138548
0.142477
0.146406
0.150334
0.154263
0.158192
0.162121
0.16605
0.143294
0.139365
0.135436
0.131507
0.127578
0.123649
0.11972
0.115791
0.111862
0.107933
0.104004
0.100075
0.096146
0.092217
0.088288
0.084359
0.0804301
0.0765011
0.0764933
0.0804223
0.0843513
0.0882803
0.0922093
0.0961382
0.100067
0.0915211
0.09144
0.0919534
0.0915285
0.0911059
0.0910284
0.0909249
0.0909988
0.0911199
0.0909386
0.0909174
0.0911292
0.091201
0.0915442
0.091874
0.095803
0.099732
0.103187
0.107116
0.111045
0.114974
0.118903
0.122832
0.126761
0.13069
0.134619
0.138548
0.142477
0.146406
0.150334
0.154263
0.158192
0.162121
0.16605
0.169979
0.139365
0.135436
0.131507
0.127578
0.123649
0.11972
0.115791
0.111862
0.107933
0.104004
0.100075
0.096146
0.092217
0.088288
0.084359
0.0804301
0.0765011
0.0725721
0.0725643
0.0764933
0.0804223
0.0843513
0.0882803
0.0922093
0.0961382
0.100067
0.103996
0.0958824
0.0954575
0.0950349
0.0949574
0.0948539
0.0949278
0.0950488
0.0948676
0.0948464
0.0950582
0.09513
0.0954732
0.095803
0.099732
0.103661
0.107116
0.111045
0.114974
0.118903
0.122832
0.126761
0.13069
0.134619
0.138548
0.142477
0.146406
0.150334
0.154263
0.158192
0.162121
0.16605
0.169979
0.173908
0.135436
0.131507
0.127578
0.123649
0.11972
0.115791
0.111862
0.107933
0.104004
0.100075
0.096146
0.092217
0.088288
0.084359
0.0804301
0.0765011
0.0725721
0.0686431
0.0686354
0.0725643
0.0764933
0.0804223
0.0843513
0.0882803
0.0922093
0.0961382
0.100067
0.103996
0.107925
0.0989639
0.0988863
0.0987829
0.0988568
0.0989778
0.0987966
0.0987754
0.0989872
0.0990589
0.0994022
0.099732
0.103661
0.10759
0.111045
0.114974
0.118903
0.122832
0.126761
0.13069
0.134619
0.138548
0.142477
0.146406
0.150334
0.154263
0.158192
0.162121
0.16605
0.169979
0.173908
0.177837
0.131507
0.127578
0.123649
0.11972
0.115791
0.111862
0.107933
0.104004
0.100075
0.096146
0.092217
0.088288
0.084359
0.0804301
0.0765011
0.0725721
0.0686431
0.0647141
0.0647064
0.0686354
0.0725643
0.0764933
0.0804223
0.0843513
0.0882803
0.0922093
0.0961382
0.100067
0.103996
0.107925
0.111854
0.102712
0.102786
0.102907
0.102726
0.102704
0.102916
0.102988
0.103331
0.103661
0.10759
0.111519
0.114974
0.118903
0.122832
0.126761
0.13069
0.134619
0.138548
0.142477
0.146406
0.150334
0.154263
0.158192
0.162121
0.16605
0.169979
0.173908
0.177837
0.181766
0.127578
0.123649
0.11972
0.115791
0.111862
0.107933
0.104004
0.100075
0.096146
0.092217
0.088288
0.084359
0.0804301
0.0765011
0.0725721
0.0686431
0.0647141
0.0607852
0.0607774
0.0647064
0.0686354
0.0725643
0.0764933
0.0804223
0.0843513
0.0882803
0.0922093
0.0961382
0.100067
0.103996
0.107925
0.111854
0.115783
0.106836
0.106655
0.106633
0.106845
0.106917
0.10726
0.10759
0.111519
0.115448
0.118903
0.122832
0.126761
0.13069
0.134619
0.138548
0.142477
0.146406
0.150334
0.154263
0.158192
0.162121
0.16605
0.169979
0.173908
0.177837
0.181766
0.185695
0.123649
0.11972
0.115791
0.111862
0.107933
0.104004
0.100075
0.096146
0.092217
0.088288
0.084359
0.0804301
0.0765011
0.0725721
0.0686431
0.0647141
0.0607852
0.0568562
0.0568484
0.0607774
0.0647064
0.0686354
0.0725643
0.0764933
0.0804223
0.0843513
0.0882803
0.0922093
0.0961382
0.100067
0.103996
0.107925
0.111854
0.115783
0.119712
0.110562
0.110774
0.110846
0.111189
0.111519
0.115448
0.119377
0.122832
0.126761
0.13069
0.134619
0.138548
0.142477
0.146406
0.150334
0.154263
0.158192
0.162121
0.16605
0.169979
0.173908
0.177837
0.181766
0.185695
0.189624
0.11972
0.115791
0.111862
0.107933
0.104004
0.100075
0.096146
0.092217
0.088288
0.084359
0.0804301
0.0765011
0.0725721
0.0686431
0.0647141
0.0607852
0.0568562
0.0529272
0.0529194
0.0568484
0.0607774
0.0647064
0.0686354
0.0725643
0.0764933
0.0804223
0.0843513
0.0882803
0.0922093
0.0961382
0.100067
0.103996
0.107925
0.111854
0.115783
0.119712
0.123641
0.114775
0.115118
0.115448
0.119377
0.123306
0.126761
0.13069
0.134619
0.138548
0.142477
0.146406
0.150334
0.154263
0.158192
0.162121
0.16605
0.169979
0.173908
0.177837
0.181766
0.185695
0.189624
0.193553
0.115791
0.111862
0.107933
0.104004
0.100075
0.096146
0.092217
0.088288
0.084359
0.0804301
0.0765011
0.0725721
0.0686431
0.0647141
0.0607852
0.0568562
0.0529272
0.0489982
0.0489905
0.0529194
0.0568484
0.0607774
0.0647064
0.0686354
0.0725643
0.0764933
0.0804223
0.0843513
0.0882803
0.0922093
0.0961382
0.100067
0.103996
0.107925
0.111854
0.115783
0.119712
0.123641
0.12757
0.119377
0.123306
0.127235
0.13069
0.134619
0.138548
0.142477
0.146406
0.150334
0.154263
0.158192
0.162121
0.16605
0.169979
0.173908
0.177837
0.181766
0.185695
0.189624
0.193553
0.197482
0.111862
0.107933
0.104004
0.100075
0.096146
0.092217
0.088288
0.084359
0.0804301
0.0765011
0.0725721
0.0686431
0.0647141
0.0607852
0.0568562
0.0529272
0.0489982
0.0450692
0.0450615
0.0489905
0.0529194
0.0568484
0.0607774
0.0647064
0.0686354
0.0725643
0.0764933
0.0804223
0.0843513
0.0882803
0.0922093
0.0961382
0.100067
0.103996
0.107925
0.111854
0.115783
0.119712
0.123641
0.12757
0.131499
0.135428
0.139357
0.143286
0.147215
0.151144
0.155073
0.159002
0.162931
0.16686
0.170789
0.174718
0.178647
0.182576
0.186505
0.190434
0.194363
0.198292
0.202221
0.20615
0.107933
0.104004
0.100075
0.096146
0.092217
0.088288
0.084359
0.0804301
0.0765011
0.0725721
0.0686431
0.0647141
0.0607852
0.0568562
0.0529272
0.0489982
0.0450692
0.0411403
0.0411325
0.0450615
0.0489905
0.0529194
0.0568484
0.0607774
0.0647064
0.0686354
0.0725643
0.0764933
0.0804223
0.0843513
0.0882803
0.0922093
0.0961382
0.100067
0.103996
0.107925
0.111854
0.115783
0.119712
0.123641
0.12757
0.131499
0.135428
0.139357
0.143286
0.147215
0.151144
0.155073
0.159002
0.162931
0.16686
0.170789
0.174718
0.178647
0.182576
0.186505
0.190434
0.194363
0.198292
0.202221
0.107389
0.10346
0.0995306
0.0956016
0.0916726
0.0877437
0.0838147
0.0798857
0.0759567
0.0720277
0.0680987
0.0641698
0.0602408
0.0563118
0.0523828
0.0484538
0.0445249
0.0405959
0.0399438
0.0438728
0.0478018
0.0517308
0.0556598
0.0595888
0.0635177
0.0674467
0.0713757
0.0753047
0.0792337
0.0831626
0.0870916
0.0910206
0.0949496
0.0988786
0.102808
0.106737
0.110666
0.114594
0.118523
0.122452
0.126381
0.13031
0.134239
0.138168
0.142097
0.146026
0.149955
0.153884
0.157813
0.161742
0.165671
0.1696
0.173529
0.177458
0.181387
0.185316
0.189245
0.193174
0.197103
0.201032
0.107321
0.103392
0.0994633
0.0955343
0.0916054
0.0876764
0.0837474
0.0798184
0.0758894
0.0719604
0.0680315
0.0641025
0.0601735
0.0562445
0.0523155
0.0483866
0.0444576
0.0405286
0.0408674
0.0410363
0.0449653
0.0488943
0.0528233
0.0567523
0.0606812
0.0646102
0.0685392
0.0724682
0.0763972
0.0803261
0.0842551
0.0881841
0.0921131
0.0960421
0.099971
0.1039
0.107829
0.111758
0.115687
0.119616
0.123545
0.127474
0.131403
0.135332
0.139261
0.14319
0.147119
0.151048
0.154977
0.158906
0.162835
0.166764
0.170693
0.174622
0.178551
0.18248
0.186409
0.190338
0.194266
0.198195
0.107291
0.103362
0.0994329
0.0955039
0.0915749
0.0876459
0.083717
0.079788
0.075859
0.07193
0.068001
0.064072
0.0601431
0.0562141
0.0522851
0.0483561
0.0444271
0.0404982
0.0399753
0.0407371
0.0446661
0.0485951
0.0525241
0.0564531
0.060382
0.064311
0.06824
0.072169
0.076098
0.0800269
0.0839559
0.0724606
0.0763365
0.0802655
0.0841945
0.0881235
0.0920525
0.0959815
0.0999104
0.103839
0.107768
0.111697
0.115626
0.119555
0.123484
0.127413
0.131342
0.135271
0.1392
0.143129
0.147058
0.150987
0.154916
0.158845
0.162774
0.166703
0.170632
0.174561
0.17849
0.182419
0.10401
0.100081
0.0961524
0.0922234
0.0882944
0.0843654
0.0804364
0.0765074
0.0725785
0.0686495
0.0647205
0.0607915
0.0568625
0.0529336
0.0490046
0.0450756
0.0411466
0.0412319
0.0395739
0.0435029
0.0474319
0.0513609
0.0552899
0.0592188
0.0631478
0.0670768
0.0710058
0.0749348
0.0788637
0.0827927
0.0723145
0.0717911
0.0724076
0.0763365
0.0802655
0.0841945
0.0881235
0.0920525
0.0959815
0.0999104
0.103839
0.107768
0.111697
0.115626
0.119555
0.123484
0.127413
0.131342
0.135271
0.1392
0.143129
0.147058
0.150987
0.154916
0.158845
0.162774
0.166703
0.170632
0.174561
0.17849
0.103495
0.0995659
0.0956369
0.091708
0.087779
0.08385
0.079921
0.075992
0.0720631
0.0681341
0.0642051
0.0602761
0.0563471
0.0524181
0.0484892
0.0445602
0.0406312
0.0410427
0.0406467
0.0445757
0.0485046
0.0524336
0.0563626
0.0602916
0.0642206
0.0681495
0.0720785
0.0760075
0.0799365
0.0838655
0.0718191
0.0714037
0.07241
0.076339
0.080268
0.0841969
0.0881259
0.0920549
0.0959839
0.0999129
0.103842
0.107771
0.1117
0.115629
0.119558
0.123487
0.127416
0.131345
0.135274
0.139203
0.143132
0.147061
0.15099
0.154919
0.158848
0.162776
0.166705
0.170634
0.174563
0.178492
0.107424
0.103495
0.0995659
0.0956369
0.091708
0.087779
0.08385
0.079921
0.075992
0.0720631
0.0681341
0.0642051
0.0602761
0.0563471
0.0524181
0.0484892
0.0445602
0.0449716
0.0445757
0.0485046
0.0524336
0.0563626
0.0602916
0.0642206
0.0681495
0.0720785
0.0760075
0.0799365
0.0838655
0.0877945
0.0722065
0.0727271
0.076339
0.080268
0.0841969
0.0881259
0.0920549
0.0959839
0.0999129
0.103842
0.107771
0.1117
0.115629
0.119558
0.123487
0.127416
0.131345
0.135274
0.139203
0.143132
0.147061
0.15099
0.154919
0.158848
0.162776
0.166705
0.170634
0.174563
0.178492
0.182421
0.111353
0.107424
0.103495
0.0995659
0.0956369
0.091708
0.087779
0.08385
0.079921
0.075992
0.0720631
0.0681341
0.0642051
0.0602761
0.0563471
0.0524181
0.0484892
0.0489006
0.0485046
0.0524336
0.0563626
0.0602916
0.0642206
0.0681495
0.0720785
0.0760075
0.0799365
0.0838655
0.0877945
0.0917234
0.0761355
0.0766561
0.080268
0.0841969
0.0881259
0.0920549
0.0959839
0.0999129
0.103842
0.107771
0.1117
0.115629
0.119558
0.123487
0.127416
0.131345
0.135274
0.139203
0.143132
0.147061
0.15099
0.154919
0.158848
0.162776
0.166705
0.170634
0.174563
0.178492
0.182421
0.18635
0.115282
0.111353
0.107424
0.103495
0.0995659
0.0956369
0.091708
0.087779
0.08385
0.079921
0.075992
0.0720631
0.0681341
0.0642051
0.0602761
0.0563471
0.0524181
0.0528296
0.0524336
0.0563626
0.0602916
0.0642206
0.0681495
0.0720785
0.0760075
0.0799365
0.0838655
0.0877945
0.0917234
0.0956524
0.0800645
0.080585
0.0841969
0.0881259
0.0920549
0.0959839
0.0999129
0.103842
0.107771
0.1117
0.115629
0.119558
0.123487
0.127416
0.131345
0.135274
0.139203
0.143132
0.147061
0.15099
0.154919
0.158848
0.162776
0.166705
0.170634
0.174563
0.178492
0.182421
0.18635
0.190279
0.119211
0.115282
0.111353
0.107424
0.103495
0.0995659
0.0956369
0.091708
0.087779
0.08385
0.079921
0.075992
0.0720631
0.0681341
0.0642051
0.0602761
0.0563471
0.0567586
0.0563626
0.0602916
0.0642206
0.0681495
0.0720785
0.0760075
0.0799365
0.0838655
0.0877945
0.0917234
0.0956524
0.0995814
0.0839935
0.084514
0.0881259
0.0920549
0.0959839
0.0999129
0.103842
0.107771
0.1117
0.115629
0.119558
0.123487
0.127416
0.131345
0.135274
0.139203
0.143132
0.147061
0.15099
0.154919
0.158848
0.162776
0.166705
0.170634
0.174563
0.178492
0.182421
0.18635
0.190279
0.194208
0.12314
0.119211
0.115282
0.111353
0.107424
0.103495
0.0995659
0.0956369
0.091708
0.087779
0.08385
0.079921
0.075992
0.0720631
0.0681341
0.0642051
0.0602761
0.0606876
0.0602916
0.0642206
0.0681495
0.0720785
0.0760075
0.0799365
0.0838655
0.0877945
0.0917234
0.0956524
0.0995814
0.10351
0.0879225
0.088443
0.0920549
0.0959839
0.0999129
0.103842
0.107771
0.1117
0.115629
0.119558
0.123487
0.127416
0.131345
0.135274
0.139203
0.143132
0.147061
0.15099
0.154919
0.158848
0.162776
0.166705
0.170634
0.174563
0.178492
0.182421
0.18635
0.190279
0.194208
0.198137
0.127069
0.12314
0.119211
0.115282