<VTKFile type="ImageData" version="1.0" byte_order="LittleEndian" header_type="UInt64">
	<ImageData WholeExtent="0 74 0 74 0 74" Origin="-68.3028 -68.3028 -68.3028" Spacing="1.84602 1.84602 1.84602">
		<Piece Extent="0 74 0 74 0 74">
			<PointData Scalars="Scalars_">
				<DataArray type="Float32" Name="Scalars_" format="ascii" RangeMin="0" RangeMax="100">
69.208
68.1528
67.1248
66.1255
65.1555
64.2161
63.3084
62.4337
61.5933
60.7882
60.0194
59.2877
58.5942
57.9392
57.323
56.745
56.2038
55.6972
55.2218
54.772
54.3415
53.923
53.5097
53.0987
52.6887
52.281
51.879
51.4865
51.1083
50.75
50.4182
50.12
49.8605
49.6437
49.4682
49.3311
49.2273
49.1633
49.167
49.2736
49.4329
49.6374
49.8877
50.1837
50.5252
50.9099
51.3365
51.8026
52.3061
52.8449
53.4166
54.0188
54.6488
55.304
55.9809
56.6764
57.3873
58.111
58.8453
59.5887
60.3396
61.0977
61.8624
62.6333
63.4113
64.1968
64.9914
65.7957
66.6121
67.4419
68.2868
69.147
70.0255
70.9226
71.8383
68.159
67.0907
66.0491
65.0359
64.0523
63.0994
62.1779
61.2901
60.4361
59.6176
58.8356
58.0909
57.3848
56.7173
56.0888
55.4992
54.9468
54.4295
53.9439
53.4843
53.044
52.6151
52.1911
51.7682
51.3455
50.9247
50.5092
50.1034
49.7125
49.343
49.0011
48.6944
48.4291
48.2093
48.0349
47.9038
47.8103
47.7595
47.7807
47.8996
48.0758
48.2998
48.5699
48.8856
49.2463
49.6501
50.0948
50.5787
51.0995
51.655
52.2423
52.8592
53.5029
54.1697
54.8564
55.5596
56.2761
57.0036
57.7404
58.484
59.2342
59.9907
60.7526
61.5205
62.2951
63.0774
63.8689
64.6714
65.4862
66.3154
67.1603
68.0224
68.9039
69.8047
70.7248
67.1375
66.0558
65.0014
63.9747
62.9772
62.0104
61.0752
60.1734
59.306
58.4738
57.6785
56.9207
56.2013
55.5215
54.8805
54.2786
53.7145
53.1861
52.6895
52.219
51.7679
51.3277
50.8916
50.4559
50.0194
49.5842
49.1538
48.7337
48.3291
47.9472
47.5946
47.279
47.007
46.7834
46.6094
46.4837
46.4011
46.3653
46.4045
46.5366
46.7296
46.9725
47.2632
47.5993
47.9797
48.4027
48.8661
49.3677
49.9054
50.4768
51.0792
51.7099
52.3656
53.0425
53.7377
54.4473
55.1678
55.8979
56.6352
57.3787
58.1278
58.882
59.6415
60.4067
61.1781
61.9577
62.747
63.5483
64.3628
65.1927
66.0395
66.9044
67.7893
68.6953
69.6217
66.1445
65.0499
63.9821
62.942
61.9309
60.9505
60.0015
59.086
58.2047
57.3589
56.55
55.7785
55.0461
54.3529
53.6992
53.0848
52.5088
51.9683
51.4599
50.978
50.515
50.0626
49.6135
49.1635
48.7116
48.2608
47.8145
47.3787
46.9594
46.5641
46.2001
45.8748
45.5957
45.3675
45.193
45.0725
45.0004
44.9813
45.0393
45.1854
45.3949
45.6574
45.9686
46.3256
46.7263
47.1687
47.6507
48.1699
48.724
49.3105
49.927
50.5701
51.2365
51.922
52.6237
53.3376
54.0609
54.792
55.5287
56.2713
57.0184
57.7699
58.5268
59.2894
60.0586
60.8363
61.6249
62.4259
63.2414
64.0737
64.9234
65.7936
66.6844
67.5959
68.5296
65.1818
64.0739
62.993
61.9398
60.9151
59.9211
58.9586
58.029
57.1335
56.2742
55.4513
54.6663
53.9201
53.2138
52.5469
51.9197
51.3311
50.778
50.2572
49.7629
49.287
48.8211
48.3574
47.8919
47.4234
46.9558
46.4925
46.0401
45.6051
45.1956
44.8192
44.4837
44.1966
43.9633
43.7877
43.6713
43.6095
43.6085
43.6856
43.8465
44.0732
44.3552
44.6871
45.0652
45.4865
45.9484
46.4487
46.985
47.5549
48.1557
48.7847
49.4386
50.114
50.8065
51.5126
52.2289
52.9529
53.6831
54.4186
55.1592
55.9041
56.6532
57.4079
58.1684
58.9361
59.7134
60.5025
61.3054
62.1234
62.9596
63.815
64.6912
65.5891
66.5083
67.4509
64.2499
63.1292
62.0355
60.969
59.9313
58.9238
57.9477
57.0042
56.0952
55.2216
54.3848
53.5859
52.8262
52.1059
51.4258
50.7848
50.1831
49.6173
49.0835
48.5756
48.0857
47.6048
47.1254
46.6429
46.1571
45.6712
45.1896
44.7193
44.2678
43.8432
43.4536
43.1073
42.8116
42.5728
42.3954
42.2824
42.2302
42.2484
42.3444
42.5213
42.7653
43.0674
43.4202
43.8194
44.2611
44.7424
45.2605
45.8132
46.398
47.0119
47.6518
48.3146
48.9966
49.6936
50.4021
51.1185
51.8414
52.5696
53.3027
54.0407
54.7832
55.5304
56.2834
57.043
57.811
58.5893
59.3807
60.187
61.0104
61.8523
62.7148
63.5989
64.5054
65.4345
66.3874
63.3506
62.2176
61.1108
60.0315
58.9804
57.9596
56.9698
56.0127
55.0901
54.2026
53.3518
52.5392
51.7654
51.0313
50.3372
49.6829
49.0672
48.4878
47.94
47.4179
46.9127
46.4158
45.9192
45.4185
44.9139
44.4086
43.9078
43.4189
42.9498
42.5092
42.1057
41.7479
41.4431
41.1982
41.0182
40.9077
40.8646
40.9018
41.0167
41.2105
41.4729
41.7949
42.1687
42.589
43.051
43.5512
44.0865
44.6546
45.2524
45.8772
46.5264
47.196
47.8824
48.5814
49.2897
50.0043
50.7244
51.4494
52.1795
52.9146
53.6548
54.4007
55.1533
55.9137
56.6836
57.4651
58.2608
59.0732
59.9033
60.7535
61.6248
62.5185
63.4353
64.3754
65.3393
62.4849
61.3398
60.2207
59.1286
58.0647
57.0308
56.0277
55.0573
54.1208
53.2195
52.3546
51.5279
50.74
49.9917
49.2835
48.6153
47.9855
47.3916
46.829
46.2916
45.7702
45.2561
44.7408
44.2208
43.6959
43.1701
42.6492
42.1406
41.6531
41.1959
40.778
40.4078
40.0935
39.842
39.6591
39.5506
39.5151
39.571
39.7046
39.9162
40.1972
40.5392
40.9339
41.3749
41.8565
42.3748
42.9261
43.5077
44.1166
44.7505
45.4065
46.0806
46.7691
47.4677
48.1738
48.8847
49.6005
50.3214
51.0477
51.7804
52.5192
53.2649
54.0186
54.7818
55.5558
56.3428
57.1453
57.9656
58.8051
59.6651
60.5471
61.4521
62.3806
63.333
64.3093
61.6544
60.4978
59.3662
58.2618
57.1857
56.1391
55.1231
54.1392
53.1891
52.2738
51.3953
50.5545
49.7525
48.9898
48.2674
47.5844
46.94
46.331
45.7531
45.1992
44.6603
44.1276
43.5924
43.0516
42.5056
41.9585
41.4165
40.8874
40.3807
39.906
39.473
39.0901
38.7657
38.5071
38.3206
38.2136
38.1845
38.2582
38.4102
38.6401
38.9404
39.3022
39.7175
40.1785
40.6787
41.2135
41.779
42.3718
42.9895
43.6301
44.2903
44.9665
45.6543
46.3503
47.0517
47.7576
48.4683
49.185
49.9079
50.6387
51.377
52.1242
52.881
53.6488
54.4294
55.2245
56.0365
56.8671
57.7177
58.5895
59.4841
60.4022
61.3441
62.3094
63.2994
60.8599
59.6923
58.5496
57.4334
56.3451
55.2856
54.257
53.2602
52.2968
51.3681
50.4757
49.6209
48.8046
48.0278
47.2905
46.5928
45.9331
45.3085
44.7141
44.1428
43.5857
43.0328
42.4765
41.9137
41.3454
40.7761
40.2124
39.6622
39.1357
38.643
38.1939
37.7978
37.4628
37.1966
37.0066
36.9002
36.876
36.9663
37.1365
37.3848
37.7042
38.086
38.5211
39.0009
39.5181
40.0673
40.644
41.2455
41.8693
42.5137
43.1757
43.8511
44.536
45.2273
45.9232
46.623
47.3284
48.0404
48.7608
49.4908
50.2304
50.981
51.7432
52.5182
53.3076
54.1132
54.9369
55.7797
56.6438
57.5296
58.4384
59.3708
60.3273
61.3076
62.3123
60.1031
58.9251
57.7716
56.6442
55.5444
54.4729
53.4319
52.4225
51.4462
50.5045
49.5984
48.7296
47.8992
47.1079
46.356
45.6432
44.9676
44.3265
43.7149
43.1256
42.5484
41.9742
41.3956
40.8098
40.2182
39.6261
39.0398
38.4681
37.9213
37.4098
36.9443
36.5341
36.1881
35.9141
35.7202
35.6145
35.5937
35.6988
35.8866
36.1533
36.4918
36.8931
37.347
37.8439
38.3757
38.9361
39.5208
40.1277
40.7544
41.3997
42.0608
42.7336
43.4142
44.0994
44.7883
45.4814
46.1814
46.8897
47.6087
48.3394
49.0821
49.8381
50.6082
51.3928
52.1935
53.0123
53.8494
54.7071
55.5865
56.4879
57.4124
58.3606
59.3326
60.3288
61.349
59.3853
58.1975
57.0339
55.896
54.7853
53.7025
52.6499
51.6282
50.6395
49.685
48.7657
47.8831
47.0384
46.2325
45.4658
44.7375
44.0461
43.3882
42.7585
42.1493
41.5512
40.9546
40.3525
39.7427
39.1275
38.5118
37.9026
37.3087
36.741
36.2103
35.7278
35.3035
34.9459
34.6638
34.4656
34.3604
34.3412
34.4598
34.6645
34.9493
35.3064
35.7263
36.1973
36.7092
37.2522
37.8202
38.4089
39.0171
39.6437
40.2875
40.9457
41.6142
42.2888
42.9669
43.6485
44.3351
45.03
45.7357
46.4546
47.1876
47.9359
48.6996
49.4796
50.2762
51.0907
51.9244
52.7777
53.6522
54.5483
55.4668
56.4085
57.3736
58.3623
59.3752
60.4119
58.7068
57.5103
56.3375
55.1901
54.0693
52.9759
51.9122
50.8793
49.8787
48.9118
47.9797
47.0839
46.2255
45.4051
44.6232
43.8792
43.1713
42.4959
41.8475
41.2178
40.5975
39.9771
39.3506
38.7161
38.0766
37.4371
36.8046
36.1882
35.5991
35.0487
34.549
34.1099
33.7405
33.4498
33.2472
33.1428
33.1234
33.2542
33.4747
33.7768
34.152
34.5893
35.0756
35.5987
36.1487
36.7195
37.3079
37.9138
38.5373
39.1774
39.8312
40.4941
41.1618
41.8323
42.5064
43.1866
43.8771
44.5814
45.3018
46.0394
46.7948
47.5684
48.3609
49.1719
50.0025
50.8533
51.7246
52.6173
53.532
54.4689
55.4291
56.4124
57.4191
58.4494
59.5034
58.0691
56.865
55.6841
54.5281
53.3981
52.2953
51.2215
50.1781
49.1661
48.1871
47.2429
46.3343
45.4623
44.6277
43.8309
43.0709
42.3462
41.6528
40.9846
40.3334
39.6898
39.0449
38.3929
37.7335
37.0693
36.4058
35.7496
35.1106
34.4998
33.9298
33.4123
32.9579
32.5764
32.277
32.0697
31.9663
31.9452
32.0871
32.3224
32.6408
33.0331
33.4861
33.9845
34.5147
35.0665
35.6347
36.2181
36.8181
37.4362
38.0713
38.7197
39.3762
40.0363
40.6986
41.3649
42.0391
42.7264
43.4305
44.1539
44.8981
45.6631
46.449
47.2559
48.0834
48.9321
49.8019
50.6927
51.6053
52.54
53.4972
54.4765
55.4793
56.5047
57.5534
58.625
57.4722
56.262
55.0742
53.9108
52.7728
51.6617
50.5788
49.5257
48.5035
47.514
46.558
45.637
44.752
43.9036
43.0919
42.3163
41.5744
40.862
40.1735
39.4997
38.8319
38.1615
37.4836
36.7988
36.1099
35.4221
34.7424
34.0804
33.448
32.8578
32.3224
31.8526
31.4587
31.1503
30.9384
30.8362
30.8123
30.9642
31.213
31.5469
31.9547
32.4207
32.9272
33.459
34.0066
34.5667
35.1408
35.7324
36.3436
36.9727
37.6152
38.2644
38.9159
39.5691
40.2277
40.8963
41.5811
42.2865
43.0146
43.7672
44.5438
45.3442
46.1677
47.0139
47.8824
48.7729
49.6851
50.6191
51.575
52.553
53.5534
54.5761
55.6213
56.6892
57.779
56.9169
55.7019
54.5091
53.3398
52.1951
51.0768
49.9863
48.9245
47.8932
46.8937
45.9272
44.9949
44.0974
43.2358
42.4095
41.618
40.8585
40.127
39.417
38.7199
38.027
37.3305
36.6265
35.916
35.2024
34.4904
33.7873
33.1024
32.4482
31.8379
31.2844
30.7991
30.3926
30.0753
29.8588
29.7583
29.731
29.8918
30.1531
30.5008
30.9221
31.398
31.9072
32.4339
32.9705
33.5172
34.0787
34.6601
35.2637
35.8867
36.5222
37.1628
37.8043
38.4476
39.0977
39.7613
40.4447
41.1528
41.888
42.6509
43.441
44.2579
45.1001
45.9665
46.8566
47.7693
48.7043
49.6609
50.6394
51.6397
52.6617
53.7052
54.7708
55.8583
56.9672
56.402
55.1845
53.9883
52.8147
51.6654
50.5418
49.4451
48.3765
47.3374
46.3292
45.3532
44.4102
43.5013
42.6268
41.7864
40.979
40.202
39.4508
38.7186
37.9974
37.2788
36.5558
35.8256
35.0896
34.3513
33.6154
32.8888
32.1815
31.5057
30.8753
30.3037
29.8028
29.3839
29.0577
28.8368
28.7387
28.7078
28.8767
29.1493
29.5091
29.9415
30.4225
30.9275
31.441
31.9596
32.4885
33.0353
33.6061
34.2021
34.8182
35.4456
36.0757
36.7053
37.3372
37.9786
38.6375
39.321
40.0338
40.7775
41.5525
42.3585
43.1936
44.0559
44.9444
45.8573
46.7938
47.7525
48.7334
49.7356
50.759
51.8033
52.8691
53.9554
55.0629
56.1913
55.9259
54.7084
53.5112
52.3359
51.1841
50.0569
48.9559
47.8822
46.8371
45.822
44.8382
43.8859
42.9663
42.0797
41.2259
40.4029
39.6081
38.8367
38.082
37.3359
36.5908
35.8408
35.0848
34.3235
33.5609
32.8013
32.0518
31.322
30.6249
29.9748
29.3855
28.8695
28.4383
28.1035
27.8785
27.7838
27.7504
27.9265
28.2089
28.5786
29.0189
29.4989
29.9905
30.482
30.9766
31.4848
32.0161
32.5765
33.1649
33.7732
34.3899
35.0068
35.622
36.2412
36.8737
37.529
38.2141
38.9332
39.6872
40.4764
41.2995
42.1544
43.0386
43.9501
44.8876
45.8488
46.8327
47.8383
48.8653
49.9129
50.9807
52.069
53.1771
54.3052
55.4534
55.4846
54.2703
53.0752
51.9013
50.7496
49.6217
48.5189
47.4427
46.3938
45.3737
44.3836
43.4238
42.4952
41.5977
40.7308
39.8923
39.0797
38.2876
37.5098
36.7383
35.9664
35.1898
34.4076
33.6216
32.8352
32.0525
31.2801
30.5283
29.8104
29.1413
28.5349
28.0043
27.5614
27.2186
26.9902
26.9001
26.8663
27.0488
27.3397
27.7167
28.1604
28.6308
29.0978
29.5584
30.0248
30.5112
31.0275
31.5777
32.1579
32.7563
33.3592
33.9589
34.5569
35.1623
35.7865
36.4395
37.1279
37.8549
38.6214
39.4264
40.2682
41.1438
42.0511
42.9871
43.9498
44.9368
45.9469
46.9787
48.0308
49.1034
50.1955
51.3067
52.437
53.5866
54.7548
55.0729
53.8655
52.6764
51.507
50.3591
49.2338
48.1327
47.0567
46.007
44.9847
43.9907
43.0257
42.0896
41.1827
40.3037
39.4507
38.62
37.8069
37.0049
36.2073
35.4083
34.6051
33.7974
32.9871
32.177
31.3715
30.5767
29.8036
29.0657
28.3783
27.7559
27.2118
26.7583
26.4085
26.1774
26.0938
26.0638
26.2519
26.5497
26.9304
27.372
27.8208
28.2503
28.673
29.1095
29.5747
30.0766
30.6168
31.1873
31.7721
32.3564
32.9347
33.513
34.1042
34.7211
35.3733
36.0669
36.8039
37.5842
38.4064
39.2681
40.166
41.0971
42.0582
43.047
44.0608
45.0977
46.1563
47.235
48.3329
49.4497
50.5848
51.7379
52.9089
54.0976
54.6823
53.4858
52.3068
51.1463
50.0061
48.8875
47.792
46.7203
45.6739
44.6533
43.6591
42.6915
41.7506
40.8359
39.946
39.0788
38.2302
37.3956
36.5689
35.7444
34.9182
34.0883
33.2553
32.421
31.5879
30.7595
29.9429
29.1491
28.3922
27.6879
27.0509
26.4949
26.0325
25.6772
25.4447
25.3694
25.3507
25.544
25.8468
26.2268
26.6584
27.0692
27.4486
27.8302
28.2379
28.683
29.1708
29.7002
30.2581
30.8242
31.3837
31.9361
32.4932
33.0707
33.6819
34.3355
35.0361
35.7848
36.5806
37.4211
38.3036
39.2243
40.1801
41.167
42.1825
43.2237
44.288
45.3736
46.4791
47.6032
48.745
49.9044
51.0808
52.2738
53.4831
54.3016
53.1205
51.9553
50.808
49.6799
48.5726
47.4874
46.4251
45.3866
44.3724
43.3826
42.417
41.475
40.5556
39.657
38.7762
37.9097
37.0526
36.2002
35.3481
34.4941
33.6377
32.7796
31.9215
31.0651
30.2141
29.376
28.5625
27.7883
27.069
26.4196
25.8539
25.385
25.0262
24.7942
24.7287
24.7331
24.9324
25.2387
25.6115
26.0229
26.3745
26.6953
27.0378
27.4188
27.8448
28.3176
28.834
29.3747
29.9149
30.4427
30.9655
31.5011
32.0667
32.6746
33.3318
34.0412
34.8032
35.6154
36.4753
37.3792
38.3235
39.304
40.3172
41.3595
42.428
43.5201
44.6332
45.7656
46.9162
48.0839
49.2679
50.4675
51.6826
52.9132
53.9214
52.7581
51.6096
50.4781
49.3648
48.2719
47.2005
46.1521
45.1263
44.1241
43.1446
42.187
41.2495
40.33
39.4258
38.5334
37.649
36.769
35.8899
35.01
34.1285
33.2459
32.363
31.4807
30.6005
29.7268
28.8679
28.0363
27.2469
26.5154
25.8566
25.2844
24.8119
24.4526
24.2234
24.1677
24.2119
24.4208
24.7301
25.0872
25.4657
25.7339
25.9975
26.3066
26.6626
27.0683
27.5239
28.0237
28.5401
29.0451
29.5348
30.0265
30.5421
31.0984
31.7054
32.3684
33.0884
33.8646
34.6943
35.5741
36.4999
37.4677
38.4732
39.5122
40.5814
41.6771
42.7967
43.9373
45.0969
46.274
47.4672
48.6762
49.8996
51.1368
52.3883
53.5361
52.3914
51.2612
50.1461
49.0484
47.9703
46.9128
45.8781
44.866
43.8769
42.9103
41.9643
41.0358
40.1213
39.2165
38.3166
37.4177
36.5174
35.6143
34.7089
33.8023
32.8952
31.9882
31.0816
30.1779
29.2823
28.4044
27.5574
26.7563
26.0161
25.3514
24.7762
24.3037
23.9476
23.7238
23.675
23.7754
24.0044
24.3194
24.6506
24.983
25.1491
25.3686
25.6497
25.9792
26.3611
26.7955
27.2738
27.7562
28.2158
28.6629
29.1244
29.6232
30.1733
30.7819
31.4523
32.1843
32.9757
33.8233
34.7232
35.6709
36.662
37.692
38.7566
39.8519
40.9744
42.1209
43.2885
44.4749
45.6785
46.8978
48.1311
49.3782
50.6383
51.9108
53.1408
52.0168
50.9057
49.8084
48.7269
47.6623
46.6168
45.5924
44.5896
43.6086
42.6495
41.7097
40.7864
39.8754
38.9709
38.0679
37.1619
36.2504
35.333
34.4108
33.4857
32.5585
31.6303
30.7021
29.7775
28.8636
27.9711
27.1135
26.3052
25.5606
24.8939
24.319
23.8497
23.4999
23.2843
23.2368
23.3934
23.6573
23.9877
24.2876
24.5703
24.6342
24.8282
25.0803
25.3765
25.7292
26.137
26.5872
27.0231
27.4281
27.832
28.2672
28.753
29.2996
29.912
30.5911
31.3357
32.1426
33.0083
33.928
34.8972
35.911
36.9649
38.0542
39.1749
40.3233
41.4959
42.6899
43.9026
45.1321
46.3766
47.6342
48.9047
50.187
51.4807
52.7339
51.6297
50.5391
49.4615
48.3977
47.3484
46.3154
45.3003
44.3043
43.3281
42.3715
41.4324
40.5085
39.5954
38.6879
37.7809
36.8698
35.9518
35.0263
34.0939
33.1565
32.215
31.2713
30.328
29.39
28.4658
27.5663
26.7048
25.8949
25.1504
24.4853
23.9137
23.4503
23.1097
22.9064
22.8591
23.0384
23.3319
23.6879
23.9773
24.2298
24.2211
24.3978
24.608
24.8592
25.1766
25.5517
25.9665
26.341
26.6859
27.0509
27.4649
27.9415
28.4871
29.1042
29.7927
30.55
31.3727
32.256
33.1952
34.1849
35.2206
36.2971
37.4099
38.5547
39.7275
40.9251
42.1443
43.3821
44.6364
45.9053
47.1871
48.4805
49.7849
51.0996
52.3137
51.2268
50.1543
49.0957
48.0504
47.0184
46.0001
44.9963
44.0081
43.0362
42.0807
41.1406
40.2129
39.2945
38.3807
37.4669
36.5488
35.6239
34.6913
33.7517
32.8062
31.857
30.9063
29.9579
29.0179
28.0948
27.199
26.3428
25.539
24.8008
24.1423
23.5785
23.1254
22.8
22.6193
22.5892
22.7433
23.0279
23.3975
23.7243
23.9848
23.9531
24.0969
24.2335
24.4277
24.7059
25.0425
25.4137
25.7107
25.9979
26.3317
26.7296
27.1994
27.7448
28.3671
29.0649
29.8349
30.6725
31.5727
32.5303
33.5398
34.5958
35.6936
36.8283
37.9955
39.1914
40.4124
41.655
42.9163
44.1942
45.4862
46.7906
48.1064
49.4324
50.7675
51.8867
50.8098
49.7498
48.7048
47.6741
46.6563
45.6513
44.6592
43.6797
42.7129
41.7588
40.8166
39.8844
38.9591
38.0373
37.115
36.189
35.2573
34.3191
33.3747
32.4259
31.4748
30.5248
29.581
28.6501
27.7406
26.862
26.0246
25.2394
24.5182
23.8748
23.3258
22.8904
22.5911
22.4604
22.519
22.5882
22.8335
23.1855
23.5829
23.885
23.9138
23.9282
23.9423
24.0806
24.3211
24.6121
24.931
25.1376
25.3787
25.6893
26.074
26.5374
27.0826
27.7096
28.416
29.1977
30.0492
30.9651
31.9398
32.9673
34.0423
35.1597
36.3144
37.5023
38.719
39.9611
41.2249
42.5078
43.8071
45.1207
46.4468
47.7838
49.1299
50.4848
51.4645
50.3913
49.336
48.2971
47.2734
46.2635
45.2661
44.2804
43.3066
42.3438
41.3913
40.448
39.5124
38.5817
37.653
36.7233
35.7905
34.853
33.9106
32.9637
32.0138
31.0635
30.1174
29.182
28.2656
27.3774
26.5266
25.722
24.9717
24.2838
23.6689
23.1426
22.7268
22.453
22.4244
22.4841
22.5537
22.7272
23.0268
23.4139
23.787
23.8949
23.7888
23.7297
23.8266
24.0305
24.2642
24.5219
24.6361
24.8475
25.1395
25.5106
25.9663
26.5098
27.1402
27.8539
28.6458
29.5099
30.44
31.43
32.4737
33.5657
34.7005
35.8733
37.0793
38.3144
39.575
40.8579
42.1599
43.4784
44.8113
46.1563
47.5123
48.8775
50.2508
51.0617
49.9872
48.9312
47.892
46.8687
45.8596
44.8634
43.8791
42.9061
41.9437
40.991
40.0465
39.1082
38.1732
37.2391
36.3037
35.3651
34.4227
33.477
32.5282
31.5779
30.6288
29.6863
28.7582
27.8544
26.9854
26.1618
25.3928
24.6858
24.0459
23.4779
22.9885
22.5927
22.3236
22.3784
22.4465
22.5179
22.5899
22.8553
23.2348
23.648
23.896
23.8175
23.7499
23.6945
23.8456
24.0006
24.1925
24.2316
24.4262
24.6976
25.0508
25.4956
26.0351
26.667
27.3864
28.1869
29.0616
30.0038
31.007
32.0647
33.1714
34.3211
35.5092
36.7309
37.9818
39.2584
40.5573
41.8754
43.2101
44.5594
45.921
47.2931
48.6747
50.0641
50.6886
49.6098
48.5494
47.5067
46.4795
45.4668
44.4674
43.4802
42.5044
41.5396
40.5846
39.6372
38.6952
37.7558
36.8165
35.8751
34.9306
33.9834
33.034
32.0834
31.1328
30.1849
29.2454
28.3227
27.4277
26.5722
25.7682
25.0266
24.3566
23.7658
23.2606
22.8469
22.5331
22.3348
22.3367
22.4033
22.4751
22.5473
22.7949
23.1512
23.5609
23.8793
23.851
23.7824
23.7251
23.755
23.8198
23.9532
23.9615
24.1386
24.3771
24.7039
25.1335
25.6664
26.2979
27.0208
27.8277
28.7109
29.6628
30.6768
31.746
32.8646
34.0268
35.2274
36.4617
37.7257
39.0152
40.3271
41.658
43.0056
44.3675
45.7417
47.1265
48.5201
49.9217
50.3506
49.2655
48.1991
47.15
46.1166
45.0976
44.0923
43.0998
42.1193
41.1497
40.19
39.2379
38.2904
37.3453
36.3995
35.4514
34.5005
33.5481
32.5951
31.643
30.6928
29.7473
28.8116
27.8941
27.0061
26.1602
25.3692
24.6451
23.9982
23.4366
22.9659
22.5892
22.3108
22.1443
22.243
22.3357
22.4143
22.4876
22.6827
22.9895
23.3771
23.7672
23.9047
23.8372
23.7667
23.7024
23.758
23.8257
23.897
24.0148
24.1848
24.4741
24.885
25.4098
26.0392
26.7639
27.5751
28.4642
29.4233
30.4452
31.5229
32.6502
33.8215
35.0314
36.2754
37.549
38.8481
40.1694
41.5098
42.8667
44.2378
45.6215
47.0156
48.4189
49.8302
50.0503
48.9579
47.8836
46.8261
45.7845
44.7574
43.7444
42.7445
41.7571
40.7814
39.8152
38.8566
37.9026
36.95
35.9962
35.0404
34.0829
33.1254
32.1697
31.2174
30.27
29.3297
28.4009
27.491
26.611
25.774
24.9942
24.2856
23.6611
23.1318
22.7059
22.3879
22.1794
22.1083
22.2073
22.3001
22.3788
22.4521
22.5629
22.8166
23.1712
23.5777
23.8774
23.8729
23.7826
23.6877
23.7301
23.7933
23.8635
23.9743
24.0842
24.3489
24.7482
25.268
25.8961
26.6218
27.4354
28.3278
29.2911
30.3175
31.4001
32.5325
33.7089
34.924
36.1727
37.4506
38.7535
40.0781
41.4213
42.7802
44.1528
45.5374
46.9324
48.3368
49.7494
49.7902
48.6886
47.6046
46.5369
45.4849
44.448
43.4256
42.4168
41.4209
40.4372
39.4632
38.4966
37.5339
36.5722
35.6094
34.6451
33.6803
32.7176
31.7597
30.8094
29.8682
28.9383
28.0225
27.1264
26.2586
25.4317
24.6606
23.9614
23.3501
22.8413
22.4471
22.1754
22.0264
22.0611
22.1632
22.2573
22.3362
22.4096
22.5203
22.7024
22.9985
23.3811
23.7588
23.9032
23.8142
23.7179
23.7066
23.7642
23.833
23.9737
24.1285
24.4082
24.8144
25.3373
25.9663
26.6914
27.5032
28.3928
29.352
30.3734
31.45
32.5754
33.7437
34.9498
36.1889
37.4564
38.7489
40.0631
41.3964
42.7463
44.1109
45.4885
46.8777
48.2774
49.6867
49.5721
48.4591
47.3633
46.2836
45.2192
44.1699
43.1356
42.1158
41.1097
40.1159
39.132
38.1552
37.1819
36.2094
35.236
34.2613
33.2877
32.3183
31.3573
30.4088
29.476
28.562
27.6689
26.7993
25.9577
25.1522
24.396
23.707
23.1048
22.6087
22.2362
22.0029
21.9347
21.9932
22.1012
22.1973
22.2767
22.3502
22.4609
22.5579
22.8091
23.168
23.5781
23.8879
23.8649
23.7529
23.7094
23.8026
23.9124
24.0762
24.2543
24.5445
24.9559
25.4812
26.1107
26.8348
27.6444
28.5307
29.486
30.5027
31.574
32.6939
33.8567
35.057
36.2903
37.5524
38.8397
40.149
41.4776
42.8232
44.1837
45.5575
46.9434
48.3398
49.7461
49.3974
48.2717
47.162
46.0674
44.988
43.9238
42.875
41.8412
40.8217
39.8149
38.8181
37.8282
36.8419
35.8564
34.8702
33.8836
32.899
31.9204
30.9531
30.0027
29.0753
28.1761
27.3095
26.4784
25.684
24.9276
24.2128
23.5502
22.9598
22.469
22.1035
21.8816
21.8996
21.9588
22.0668
22.1628
22.2422
22.3157
22.4265
22.5234
22.7038
23.0097
23.4047
23.7815
23.8265
23.6835
23.7646
23.881
24.0128
24.1938
24.4177
24.7355
25.1617
25.6942
26.326
27.0493
27.8558
28.7376
29.687
30.697
31.7611
32.8732
34.0277
35.2199
36.4448
37.6986
38.9777
40.279
41.5998
42.9379
44.2913
45.6584
47.0379
48.4286
49.8295
49.2726
48.1319
47.0055
45.8936
44.7966
43.715
42.6491
41.5986
40.5626
39.5395
38.5263
37.5198
36.5171
35.5153
34.514
33.5132
32.5157
31.5253
30.5479
29.5907
28.6611
27.7668
26.9153
26.1121
25.3618
24.6669
24.0293
23.4518
22.9401
22.5029
22.1513
21.9076
21.8699
21.9263
22.0328
22.1279
22.2069
22.2803
22.3911
22.489
22.569
22.841
23.2298
23.6338
23.8121
23.7612
23.8549
23.9816
24.123
24.343
24.6207
24.9756
25.4229
25.9659
26.6018
27.3245
28.1274
29.0035
29.9456
30.9473
32.0021
33.1044
34.2487
35.4303
36.6445
37.8875
39.1559
40.4465
41.7568
43.0845
44.4283
45.7862
47.1569
48.5392
49.9325
49.2042
48.0437
46.8982
45.7674
44.6518
43.5523
42.4684
41.4
40.3457
39.3032
38.2697
37.2424
36.2186
35.1969
34.1767
33.1591
32.1463
31.1423
30.1534
29.1869
28.2514
27.3557
26.5082
25.716
24.9846
24.3175
23.717
23.1859
22.7304
22.362
22.0938
21.9344
21.878
21.9025
21.9984
22.0876
22.1648
22.2378
22.3498
22.4549
22.5375
22.8115
23.1988
23.5783
23.7408
23.8348
23.9524
24.0897
24.2366
24.4894
24.8184
25.218
25.6957
26.2569
26.9019
27.6277
28.4294
29.3012
30.2369
31.2306
32.2762
33.3685
34.502
35.6724
36.8751
38.1065
39.3631
40.6419
41.9407
43.2574
44.5904
45.9377
47.2986
48.6716
50.0558
49.1983
48.0162
46.8492
45.6983
44.5642
43.4469
42.3463
41.2601
40.186
39.121
38.0622
37.008
35.9575
34.9105
33.8674
32.8293
31.7992
30.7805
29.7796
28.8042
27.8633
26.9665
26.1231
25.3415
24.6287
23.9893
23.4251
22.9361
22.5232
22.1954
21.9764
21.9905
21.925
21.8749
21.9541
22.0321
22.1063
22.179
22.2947
22.4328
22.5737
22.8574
23.2307
23.5484
23.7496
23.9191
24.081
24.2376
24.4237
24.7023
25.0572
25.482
25.9801
26.5557
27.2094
27.9394
28.7417
29.6113
30.5428
31.5305
32.5689
33.6528
34.7773
35.9377
37.1302
38.3509
39.5967
40.8648
42.1529
43.4591
44.7814
46.119
47.4701
48.834
50.2095
49.3005
48.1077
46.928
45.7613
44.6079
43.467
42.3378
41.219
40.1092
39.007
37.9118
36.8224
35.7397
34.6636
33.5946
32.5341
31.4843
30.4493
29.4353
28.4498
27.5024
26.6031
25.7621
24.9894
24.294
23.6835
23.1636
22.7367
22.4025
22.1637
22.0478
22.032
21.9633
21.9057
21.9413
22.0029
22.0756
22.148
22.3093
22.4875
22.7078
23.024
23.3833
23.6616
23.8406
24.0246
24.2121
24.4221
24.6676
24.9701
25.3319
25.7599
26.2619
26.8419
27.5001
28.2336
29.0381
29.9086
30.8395
31.8252
32.8606
33.9402
35.0594
36.2136
37.399
38.612
39.8496
41.1091
42.3881
43.685
44.9982
46.3264
47.6683
49.0229
50.3894
49.4521
48.245
47.0486
45.8619
44.6845
43.516
42.3556
41.2035
40.0597
38.9247
37.7982
36.68
35.5699
34.4683
33.3755
32.2934
31.2239
30.1714
29.1421
28.1441
27.1872
26.2815
25.4377
24.6667
23.9785
23.3833
22.8898
22.5037
22.225
22.0455
22.1378
22.0673
21.9977
21.9377
21.9144
21.9729
22.0775
22.199
22.3811
22.6227
22.9137
23.2605
23.5783
23.7938
23.9491
24.1363
24.3704
24.6451
24.9486
25.2518
25.5892
25.9967
26.4886
27.0672
27.7291
28.4692
29.2813
30.1589
31.0961
32.0871
33.1262
34.208
35.3279
36.4813
37.6647
38.8742
40.1073
41.3612
42.6338
43.9233
45.2287
46.5488
47.8821
49.228
50.5856
49.6478
48.4267
47.2135
46.0081
44.8091
43.6167
42.4305
41.2504
40.0769
38.9109
37.7537
36.6066
35.4701
34.3449
33.231
32.1288
31.0401
29.9697
28.9239
27.9119
26.9435
26.0292
25.1797
24.406
23.7193
23.1309
22.6525
22.2955
22.0706
21.9882
22.1365
22.0989
22.0173
21.9452
21.9336
22.0263
22.1503
22.2881
22.5193
22.8227
23.1684
23.5095
23.756
23.9181
24.0618
24.2505
24.5234
24.8579
25.2053
25.4884
25.794
26.1838
26.6703
27.2509
27.919
28.6672
29.4881
30.3748
31.3205
32.3191
33.3646
34.4517
35.5755
36.7315
37.9159
39.1253
40.3564
41.6073
42.8757
44.1604
45.4598
46.773
48.0992
49.437
50.7867
49.8895
48.6566
47.4308
46.2115
44.9984
43.7919
42.5917
41.3979
40.2108
39.0302
37.8565
36.6895
35.5286
34.3744
33.2278
32.0921
30.9719
29.8734
28.8043
27.7737
26.791
25.866
25.0093
24.2311
23.5419
22.9528
22.4747
22.12
21.9061
22.0655
22.2178
22.0633
21.9458
21.8622
21.9961
22.1427
22.2903
22.4388
22.6996
23.0426
23.3978
23.6798
23.887
24.0557
24.2111
24.4258
24.7258
25.0776
25.4013
25.6591
25.9604
26.3557
26.8507
27.4405
28.1176
28.8743
29.7031
30.5969
31.5491
32.5533
33.6035
34.6946
35.8214
36.9793
38.1646
39.3735
40.6035
41.852
43.1173
44.3976
45.692
46.9996
48.3193
49.6507
50.993
50.1764
48.934
47.6982
46.4684
45.2447
44.0265
42.8143
41.6072
40.4053
39.2076
38.0136
36.8227
35.6347
34.4506
33.2727
32.1058
30.9561
29.8316
28.7412
27.6941
26.7004
25.7701
24.9141
24.1438
23.4713
22.9105
22.4767
22.1877
22.0695
22.226
22.1514
21.9779
21.8879
21.937
22.0923
22.2678
22.4347
22.6373
22.9319
23.2836
23.5955
23.8077
24.0001
24.1871
24.3959
24.6573
24.9783
25.3051
25.5615
25.7957
26.1058
26.5165
27.0267
27.6301
28.3193
29.0866
29.9246
30.8263
31.7854
32.7953
33.8504
34.9453
36.0748
37.2346
38.4204
39.6291
40.8578
42.1042
43.3664
44.643
45.9329
47.2352
48.5494
49.8748
51.2108
50.5063
49.2561
48.0118
46.7729
45.539
44.3098
43.0844
41.8621
40.6416
39.4219
38.2019
36.981
35.7601
34.5413
33.3291
32.1301
30.9522
29.8044
28.696
27.636
26.6338
25.699
24.8418
24.0733
23.4057
22.8524
22.4295
22.1595
22.2446
22.2654
22.0807
21.9242
21.9339
22.0216
22.1937
22.3852
22.611
22.882
23.206
23.5221
23.7562
23.9215
24.1102
24.3081
24.568
24.8832
25.2127
25.4911
25.6907
25.9176
26.2388
26.663
27.1855
27.799
28.496
29.2692
30.1119
31.0174
31.9796
32.9928
34.0511
35.1495
36.283
37.4467
38.6368
39.8492
41.0813
42.3303
43.5944
44.8717
46.1614
47.4626
48.775
50.0975
51.4301
50.8752
49.6188
48.3671
47.1202
45.877
44.637
43.3992
42.1627
40.9263
39.6893
38.4515
37.2136
35.9779
34.7482
33.5298
32.3291
31.1534
30.0103
28.9083
27.8555
26.861
25.9342
25.0851
24.3245
23.6644
23.1178
22.7005
22.4343
22.5432
22.5031
22.3148
22.1671
22.1726
22.2524
22.4004
22.6042
22.8684
23.1779
23.4949
23.7487
23.9267
24.0756
24.2875
24.5213
24.8103
25.1385
25.4438
25.6752
25.8473
26.082
26.4176
26.8547
27.3869
28.0068
28.7074
29.4817
30.3234
31.2267
32.1859
33.1957
34.2509
35.3465
36.4781
37.6411
38.8315
40.0453
41.2797
42.5314
43.7983
45.0789
46.3712
47.6744
48.9879
50.3111
51.6433
51.2809
50.0188
48.7608
47.5068
46.2558
45.0067
43.7588
42.5111
41.2632
40.0148
38.7668
37.5208
36.2799
35.0483
33.8315
32.6354
31.4668
30.3328
29.2411
28.1997
27.2172
26.3026
25.4655
24.7167
24.0676
23.5308
23.1215
22.8608
22.9682
22.8773
22.6883
22.5501
22.5486
22.6142
22.7345
22.9398
23.2155
23.5209
23.7667
23.9409
24.0864
24.2312
24.4736
24.7627
25.0807
25.395
25.6536
25.8457
26.0049
26.2534
26.6084
27.0635
27.6104
28.241
28.9482
29.7256
30.5675
31.4688
32.4243
33.4293
34.4792
35.5697
36.6962
37.8546
39.0414
40.2528
41.4857
42.7374
44.005
45.2865
46.5806
47.8856
49.2009
50.5253
51.8582
51.7199
50.4537
49.1909
47.9312
46.6738
45.4178
44.1626
42.9076
41.6527
40.3987
39.1465
37.8988
36.659
35.4313
34.2211
33.0341
31.8765
30.7552
29.6773
28.6505
27.683
26.7836
25.9616
25.2272
24.5913
24.0664
23.6667
23.4124
23.4962
23.3696
23.1822
23.0531
23.0438
23.0941
23.1875
23.3869
23.6563
23.9315
24.0965
24.2228
24.3245
24.4317
24.6753
24.991
25.3026
25.5761
25.7991
25.9804
26.1411
26.4022
26.7742
27.2481
27.813
28.4592
29.1787
29.9647
30.8118
31.7151
32.6703
33.6731
34.7198
35.806
36.928
38.0823
39.2652
40.4735
41.7039
42.9538
44.2207
45.5024
46.7972
48.1032
49.4197
50.7453
52.0795
52.1909
50.9215
49.6552
48.3915
47.1301
45.8697
44.6102
43.3517
42.0941
40.8387
39.5875
38.3429
37.1087
35.8892
34.6894
33.5148
32.3714
31.2655
30.204
29.1943
28.2441
27.362
26.5571
25.8388
25.2179
24.7059
24.3166
24.0692
24.1152
23.9659
23.7823
23.6612
23.6445
23.6793
23.7473
23.9364
24.1889
24.4219
24.5156
24.6126
24.6659
24.7392
24.9726
25.282
25.559
25.7729
25.9498
26.1114
26.3037
26.5895
26.9788
27.4661
28.0421
28.6977
29.4248
30.2166
31.0677
31.973
32.9283
33.9297
34.9735
36.056
37.1741
38.3241
39.5029
40.7072
41.9343
43.1816
44.4466
45.7271
47.0214
48.3278
49.6448
50.9713
52.3064
52.691
51.42
50.1519
48.8862
47.6228
46.3607
45.1002
43.8412
42.5848
41.3321
40.0856
38.848
37.623
36.4148
35.2283
34.0687
32.9416
31.8532
30.81
29.8191
28.8879
28.0247
27.2379
26.5369
25.9317
25.4333
25.0545
24.8137
24.8169
24.6542
24.476
24.3615
24.3381
24.3578
24.4024
24.5786
24.808
24.9942
25.0292
25.1047
25.1124
25.1609
25.3817
25.6736
25.9122
26.0801
26.2304
26.3785
26.5821
26.8793
27.2764
27.7681
28.3467
29.0037
29.7314
30.5232
31.3732
32.2766
33.2292
34.2269
35.2664
36.3441
37.457
38.6014
39.7746
40.9738
42.1958
43.4385
44.6995
45.9769
47.2686
48.5728
49.8884
51.2139
52.5482
53.2192
51.9479
50.6796