<VTKFile type="ImageData" version="1.0" byte_order="LittleEndian" header_type="UInt64">
	<ImageData WholeExtent="0 74 0 74 0 74" Origin="-68.3028 -68.3028 -68.3028" Spacing="1.84602 1.84602 1.84602">
		<Piece Extent="0 74 0 74 0 74">
			<PointData Scalars="Scalars_">
				<DataArray type="Float32" Name="Scalars_" format="ascii" RangeMin="0" RangeMax="100">
0.9067
0.900452
0.886505
0.864677
0.834175
0.794331
0.744717
0.684818
0.614216
0.532173
0.437973
0.330727
0.210049
0.0745964
0.0631866
0.176476
0.265934
0.334187
0.384846
0.423954
0.458138
0.494881
0.541309
0.600704
0.674694
0.762199
0.859482
0.951767
1.0297
1.08767
1.11916
1.11715
1.07629
1.01511
0.967617
0.937553
0.93063
0.940815
0.940304
0.893936
0.85157
0.820522
0.799492
0.787838
0.784882
0.791771
0.808769
0.83675
0.876556
0.928844
0.994267
1.0737
1.16829
1.27561
1.36834
1.44239
1.50107
1.54695
1.58225
1.60849
1.62714
1.63865
1.6435
1.64219
1.63386
1.61794
1.59287
1.55817
1.51135
1.45119
1.37589
1.28779
1.1933
1.09241
0.984924
0.90657
0.903854
0.892807
0.873642
0.845829
0.80862
0.761066
0.703461
0.634224
0.553116
0.459454
0.352364
0.231201
0.0946236
0.0368118
0.142097
0.223045
0.282352
0.323608
0.352928
0.377323
0.405003
0.442867
0.49498
0.562588
0.644329
0.737061
0.836624
0.927235
0.99651
1.03812
1.04451
1.00953
0.958641
0.919231
0.894127
0.889751
0.901245
0.899422
0.858547
0.818817
0.789165
0.770634
0.762802
0.765289
0.778809
0.804157
0.841564
0.891911
0.955803
1.03423
1.12789
1.23754
1.34031
1.42318
1.48963
1.54266
1.58481
1.61758
1.64354
1.66297
1.67601
1.6837
1.68544
1.68038
1.66771
1.64572
1.61285
1.5676
1.508
1.43272
1.34019
1.23138
1.11549
0.992607
0.899185
0.899567
0.892372
0.876194
0.850826
0.815872
0.770447
0.714378
0.646759
0.566544
0.473583
0.366516
0.24453
0.107922
0.0158501
0.113083
0.185497
0.235542
0.267471
0.287254
0.302128
0.32074
0.350475
0.395298
0.456768
0.533157
0.621311
0.716038
0.812515
0.894127
0.946453
0.961746
0.934067
0.894852
0.86491
0.846127
0.844391
0.856243
0.85371
0.818577
0.7826
0.756069
0.740459
0.737015
0.74564
0.766861
0.801224
0.849373
0.911877
0.989147
1.08228
1.19193
1.30521
1.39787
1.47223
1.53228
1.58135
1.62087
1.65312
1.6792
1.69967
1.71509
1.72518
1.72955
1.72775
1.71775
1.69804
1.66635
1.62136
1.56109
1.48392
1.38856
1.27327
1.12083
0.965385
0.883713
0.887726
0.883595
0.870438
0.847847
0.815502
0.772171
0.71796
0.651653
0.572483
0.479885
0.372498
0.249931
0.114567
0.00116348
0.0901184
0.153477
0.1945
0.217075
0.227264
0.232803
0.242611
0.264225
0.302338
0.358253
0.429485
0.513016
0.603077
0.694118
0.779022
0.842724
0.867771
0.848663
0.822594
0.803497
0.792065
0.794304
0.805862
0.802742
0.773724
0.742958
0.720245
0.708885
0.710548
0.726151
0.756096
0.80093
0.861164
0.937366
1.02999
1.13967
1.26143
1.36463
1.44876
1.51665
1.57236
1.61859
1.65712
1.68998
1.71701
1.73941
1.75751
1.7702
1.77719
1.77759
1.76952
1.75053
1.7191
1.67318
1.60104
1.45399
1.30079
1.15363
1.01151
0.87207
0.860497
0.867435
0.866604
0.856705
0.836746
0.806946
0.765987
0.713284
0.647907
0.569981
0.477531
0.369934
0.246292
0.114414
0.00682831
0.07341
0.127853
0.159729
0.17289
0.173485
0.170021
0.171322
0.185596
0.217278
0.26799
0.334259
0.413097
0.498409
0.583954
0.662098
0.725689
0.76067
0.752094
0.740143
0.733402
0.73111
0.738445
0.749294
0.746574
0.724033
0.699215
0.681618
0.675728
0.683823
0.707378
0.747429
0.804245
0.878269
0.969994
1.08012
1.20758
1.32329
1.41751
1.49463
1.55811
1.61135
1.65699
1.69633
1.73044
1.75945
1.78417
1.80462
1.81949
1.82862
1.83046
1.82278
1.7947
1.69448
1.57909
1.4456
1.30395
1.16882
1.03861
0.912758
0.788277
0.82822
0.838512
0.840965
0.833942
0.817097
0.789783
0.750954
0.699917
0.636181
0.558594
0.466377
0.358372
0.233753
0.106934
0.00788116
0.0640869
0.109409
0.131706
0.135349
0.126781
0.114609
0.10804
0.115105
0.140976
0.186085
0.247887
0.322292
0.402897
0.482677
0.553825
0.608776
0.639595
0.642544
0.645763
0.652744
0.661266
0.675385
0.685802
0.684822
0.668922
0.651257
0.639862
0.640663
0.656662
0.689926
0.741486
0.81221
0.902092
1.01152
1.14124
1.2709
1.37766
1.46522
1.5379
1.599
1.65214
1.69885
1.74025
1.7767
1.80833
1.8354
1.85775
1.87432
1.87661
1.81131
1.73564
1.64697
1.54332
1.42258
1.29152
1.1675
1.04927
0.935158
0.823921
0.713631
0.786945
0.800755
0.806015
0.802155
0.787762
0.762875
0.726093
0.676735
0.614429
0.537567
0.445324
0.336952
0.211052
0.0916862
0.000873566
0.0619125
0.0983849
0.111282
0.105713
0.088047
0.067543
0.0533257
0.0538406
0.0739555
0.114052
0.171463
0.241257
0.316795
0.390568
0.454285
0.500008
0.519558
0.52042
0.537315
0.559723
0.580956
0.603661
0.614922
0.61713
0.608505
0.598507
0.594963
0.604046
0.629456
0.674011
0.739178
0.82584
0.933922
1.06419
1.20629
1.32668
1.42666
1.50979
1.58043
1.64172
1.69667
1.74621
1.79076
1.83025
1.86476
1.88727
1.84404
1.79411
1.73641
1.6691
1.59027
1.4972
1.38755
1.26572
1.15114
1.04385
0.941521
0.842403
0.745377
0.648956
0.73605
0.753128
0.761677
0.760571
0.748913
0.72649
0.691757
0.644188
0.582912
0.506599
0.414207
0.305084
0.178806
0.0676689
0.0145721
0.0682755
0.0955276
0.0993576
0.0846443
0.0582848
0.0296898
0.00817108
0.00272751
0.0173264
0.0528336
0.105824
0.170849
0.241154
0.308506
0.364239
0.399876
0.407574
0.404491
0.420609
0.451775
0.487339
0.521236
0.535183
0.542259
0.541691
0.540745
0.546566
0.565758
0.60273
0.660912
0.742027
0.847275
0.976913
1.12761
1.26328
1.37688
1.47245
1.55349
1.62445
1.68803
1.74671
1.80045
1.84314
1.8195
1.78948
1.75332
1.71031
1.65926
1.59869
1.52736
1.443
1.34315
1.22915
1.1222
1.02415
0.932331
0.844807
0.759991
0.676292
0.592926
0.675339
0.695843
0.706944
0.708748
0.700108
0.680065
0.647419
0.601318
0.54089
0.464798
0.372448
0.26231
0.137886
0.0349236
0.0384789
0.0835648
0.101727
0.0964508
0.0727348
0.0380707
0.00194168
0.0262184
0.0373306
0.0275307
0.0031929
0.0514565
0.1115
0.17614
0.236633
0.283821
0.308739
0.30389
0.299103
0.313599
0.342705
0.380074
0.426086
0.44503
0.458992
0.467636
0.476963
0.494228
0.525612
0.576569
0.651123
0.751408
0.8787
1.03318
1.18512
1.31409
1.42352
1.51687
1.59871
1.67228
1.73533
1.73203
1.72404
1.70996
1.68973
1.66161
1.62597
1.58142
1.52721
1.46206
1.38418
1.29175
1.18428
1.08302
0.992195
0.909477
0.832039
0.758221
0.686501
0.616119
0.544933
0.603874
0.627819
0.642426
0.646999
0.640888
0.622604
0.591965
0.547264
0.487713
0.412045
0.319183
0.207844
0.0870819
0.0071907
0.0721054
0.108215
0.117554
0.103416
0.0711823
0.0286255
0.0149117
0.0489655
0.0651665
0.0600739
0.0338516
0.00954437
0.0641098
0.122597
0.175518
0.213333
0.226986
0.21104
0.204727
0.217773
0.244408
0.278545
0.322018
0.34248
0.365353
0.385002
0.406704
0.437298
0.483482
0.551559
0.645958
0.769184
0.922894
1.0899
1.23566
1.36082
1.46846
1.5583
1.57607
1.58741
1.5942
1.59706
1.59436
1.58495
1.5672
1.53992
1.50293
1.455
1.39548
1.32317
1.23642
1.13415
1.03632
0.950962
0.874695
0.805805
0.741955
0.681145
0.621925
0.563293
0.503765
0.521698
0.548981
0.566662
0.574097
0.570595
0.55447
0.525394
0.482086
0.423313
0.348003
0.254314
0.141434
0.026474
0.059269
0.115429
0.142704
0.143482
0.120972
0.0806427
0.0302849
0.0194283
0.0588036
0.0797539
0.078968
0.0571823
0.0190582
0.0297623
0.0812683
0.125832
0.153637
0.154964
0.130157
0.122253
0.133545
0.157932
0.188545
0.229443
0.239258
0.26049
0.292206
0.328449
0.374859
0.439041
0.527908
0.646278
0.797428
0.975311
1.13809
1.27744
1.3348
1.37636
1.40622
1.42834
1.44579
1.45954
1.46907
1.47173
1.46612
1.4497
1.42168
1.38167
1.32828
1.26085
1.17894
1.08095
0.984295
0.9021
0.830875
0.768188
0.712376
0.661018
0.612503
0.565365
0.518101
0.469761
0.428326
0.458889
0.479691
0.489998
0.48893
0.474895
0.447674
0.405376
0.347321
0.271923
0.177521
0.0628967
0.044445
0.121891
0.169415
0.188145
0.180248
0.149403
0.101585
0.0449142
0.0105782
0.0547104
0.079895
0.0832596
0.066452
0.0337219
0.00871277
0.0528259
0.0882988
0.105289
0.0932159
0.0615463
0.0520439
0.0615501
0.0837135
0.110928
0.150963
0.151756
0.164066
0.192013
0.240494
0.305958
0.392029
0.505863
0.653652
0.836758
0.948696
1.04257
1.11863
1.17747
1.22194
1.25604
1.28414
1.30864
1.32974
1.34575
1.3536
1.35052
1.3343
1.30392
1.25834
1.19723
1.11987
1.02592
0.929626
0.848103
0.779903
0.721756
0.671967
0.628338
0.588844
0.551922
0.516167
0.479828
0.442154
0.322689
0.35675
0.380669
0.393993
0.395477
0.38353
0.357834
0.316795
0.259216
0.183582
0.0881767
0.0265427
0.125443
0.194588
0.233894
0.244377
0.228321
0.189835
0.134964
0.0723381
0.0121307
0.0358009
0.0647316
0.0721703
0.0603142
0.0335617
0.00188828
0.0377579
0.0635109
0.0686722
0.0421257
0.00632095
0.00490952
0.00281906
0.0226822
0.0460968
0.0871391
0.080368
0.0850868
0.107449
0.153023
0.229504
0.341179
0.48238
0.600731
0.705784
0.800327
0.88401
0.956558
1.01798
1.06682
1.10658
1.14155
1.17366
1.20224
1.22476
1.23684
1.23524
1.2175
1.1825
1.12977
1.05886
0.969013
0.872433
0.791161
0.723873
0.66861
0.623024
0.585014
0.553013
0.524601
0.498505
0.473312
0.447567
0.420025
0.204472
0.242256
0.269558
0.285847
0.289875
0.280262
0.256191
0.216351
0.158974
0.0826683
0.013855
0.126617
0.217285
0.278103
0.309216
0.311916
0.288292
0.242729
0.181728
0.114223
0.0501633
0.00109863
0.0330963
0.0447884
0.0380974
0.0177269
0.0102921
0.0370941
0.0523186
0.044445
0.00328064
0.0342903
0.0474129
0.0415306
0.0239677
0.00457573
0.0389271
0.0257797
0.0242653
0.0422821
0.0860672
0.164978
0.284164
0.396397
0.495792
0.587154
0.671192
0.746109
0.810055
0.863731
0.910397
0.954937
0.997444
1.03783
1.07413
1.10262
1.11802
1.11657
1.09584
1.05428
0.99189
0.908653
0.812904
0.731606
0.664703
0.610573
0.567722
0.533768
0.506966
0.485352
0.467865
0.451881
0.436947
0.421089
0.403564
0.0860291
0.115383
0.145256
0.164749
0.171417
0.164322
0.141888
0.103134
0.0460892
0.0303268
0.128323
0.23735
0.319576
0.372246
0.395412
0.390408
0.359783
0.308304
0.242172
0.170841
0.103882
0.0502472
0.01548
0.000171661
0.00100708
0.0146561
0.0344505
0.0517654
0.0555115
0.0340424
0.0196686
0.0591393
0.074028
0.0699863
0.054924
0.0398865
0.00727844
0.0110435
0.0174065
0.00255775
0.0413265
0.125462
0.230419
0.320988
0.40554
0.486969
0.56319
0.630306
0.685669
0.730587
0.76923
0.807941
0.850712
0.897747
0.941837
0.97588
0.993725
0.991009
0.965508
0.915543
0.841602
0.749439
0.668777
0.602459
0.549259
0.507648
0.476246
0.453251
0.437084
0.425888
0.417904
0.411961
0.406528
0.400043
0.39217
0.00453949
0.00450134
0.0161896
0.0305824
0.0401764
0.0354614
0.0151329
0.022644
0.0792007
0.1562
0.255627
0.358147
0.432068
0.476524
0.492249
0.480202
0.443554
0.386829
0.316917
0.242905
0.174118
0.11898
0.0817451
0.0622864
0.0578384
0.0644493
0.0756683
0.0829048
0.0745659
0.0384808
0.0251961
0.066391
0.0829353
0.0808754
0.0683651
0.0582886
0.00683022
0.0292206
0.0392838
0.0258598
0.0201073
0.105503
0.184706
0.258057
0.332531
0.407284
0.477097
0.536312
0.582146
0.616959
0.647163
0.679691
0.718445
0.762199
0.805481
0.841286
0.860554
0.855091
0.822556
0.762314
0.678089
0.600201
0.53603
0.484421
0.444263
0.414612
0.394066
0.3815
0.37508
0.373337
0.374825
0.378365
0.381985
0.384609
0.385586
0.0677032
0.0772858
0.0860214
0.0937843
0.100437
0.10664
0.124702
0.160797
0.21677
0.294197
0.39484
0.489056
0.554523
0.591171
0.599552
0.58128
0.539246
0.478523
0.406178
0.330872
0.261501
0.205513
0.166306
0.143204
0.133251
0.13253
0.135021
0.131428
0.11051
0.0592594
0.0112667
0.0540314
0.0723705
0.0722466
0.0625114
0.0579967
0.00217247
0.0277061
0.0402813
0.0266552
0.0236912
0.0911217
0.148548
0.210339
0.279367
0.349705
0.413113
0.462914
0.497341
0.520954
0.542156
0.568962
0.604218
0.644547
0.682602
0.709797
0.7188
0.704636
0.663425
0.592537
0.521587
0.462242
0.414314
0.376743
0.349365
0.331055
0.32119
0.3181
0.320988
0.32822
0.338715
0.350491
0.362972
0.374409
0.383778
0.105438
0.131718
0.158947
0.186947
0.215607
0.245457
0.276756
0.312599
0.367355
0.444653
0.544003
0.629227
0.686348
0.715382
0.716805
0.692875
0.646675
0.583263
0.509785
0.434719
0.366215
0.310669
0.269794
0.243259
0.227951
0.220131
0.2136
0.199329
0.165375
0.0982838
0.0243015
0.0199223
0.0398483
0.0417347
0.0349312
0.036972
0.0223083
0.00561905
0.0195503
0.00381279
0.0442829
0.0826378
0.12463
0.181166
0.248142
0.314577
0.370037
0.40807
0.429031
0.440491
0.453327
0.475346
0.507755
0.544643
0.576057
0.592216
0.585602
0.551762
0.489403
0.425762
0.376045
0.335125
0.303059
0.279705
0.264412
0.257225
0.257267
0.263752
0.275154
0.29076
0.309311
0.329136
0.349609
0.36911
0.386623
0.12204
0.162407
0.205624
0.25135
0.300056
0.351788
0.407124
0.4664
0.530811
0.607708
0.703224
0.778698
0.826946
0.848248
0.843422
0.814915
0.765667
0.701176
0.628124
0.555042
0.488773
0.434296
0.392921
0.363464
0.343098
0.328308
0.313292
0.288429
0.241293
0.159187
0.0843811
0.038929
0.0174274
0.0134659
0.0170326
0.00729942
0.0677452
0.0380325
0.0238476
0.043787
0.0672951
0.0819645
0.116787
0.173971
0.240469
0.301416
0.345999
0.369619
0.37542
0.374672
0.380302
0.39949
0.430195
0.462784
0.485428
0.487534
0.462185
0.405727
0.324684
0.269722
0.240574
0.218388
0.202232
0.192791
0.189632
0.193321
0.202869
0.217834
0.237858
0.261116
0.287071
0.31459
0.3424
0.369122
0.394199
0.123058
0.174271
0.230236
0.291145
0.356857
0.42791
0.504478
0.587681
0.678207
0.777214
0.871429
0.93716
0.976227
0.98959
0.97887
0.946171
0.895287
0.831524
0.761421
0.692112
0.629757
0.577717
0.536526
0.504944
0.480515
0.459702
0.436728
0.401606
0.34137
0.247818
0.172556
0.126066
0.103016
0.096632
0.0966396
0.0776958
0.135082
0.104021
0.0905285
0.10535
0.0927925
0.0924149
0.129875
0.1917
0.256516
0.308529
0.338989
0.345377
0.33503
0.323265
0.324265
0.342716
0.37207
0.398918
0.409904
0.394833
0.347172
0.264488
0.181408
0.132225
0.114822
0.11134
0.111507
0.1161
0.125183
0.139172
0.158054
0.181252
0.208572
0.239296
0.272079
0.306278
0.340763
0.374378
0.406261
0.117271
0.175938
0.241138
0.313519
0.392883
0.479599
0.574169
0.677898
0.791157
0.909115
1.00388
1.07209
1.11353
1.12873
1.11926
1.08698
1.03653
0.975357
0.910267
0.847252
0.790516
0.742542
0.702991
0.670536
0.6432
0.617792
0.587957
0.54339
0.470425
0.369293
0.294096
0.246653
0.221689
0.212498
0.208323
0.178576
0.225376
0.192844
0.181068
0.166313
0.122095
0.119757
0.169252
0.235783
0.294708
0.333641
0.346687
0.333944
0.307737
0.287546
0.287498
0.307367
0.334736
0.353252
0.348881
0.312485
0.238892
0.136292
0.0595436
0.0153732
0.00161743
0.0138893
0.0305786
0.0494156
0.0706444
0.0949211
0.122814
0.15416
0.188564
0.225792
0.264977
0.305176
0.345352
0.385002
0.423069
0.116253
0.17841
0.249706
0.329823
0.419041
0.517673
0.626202
0.745857
0.876022
0.990841
1.08123
1.14738
1.18994
1.20987
1.20909
1.19037
1.15749
1.11519
1.06815
1.02078
0.97538
0.933327
0.897129
0.865595
0.837423
0.809351
0.77434
0.721222
0.635973
0.531311
0.45636
0.407797
0.380346
0.367567
0.358284
0.316587
0.340851
0.30558
0.281284
0.227026
0.158024
0.171844
0.238468
0.304457
0.352028
0.37401
0.367338
0.334663
0.2943
0.270163
0.273365
0.295799
0.318964
0.324955
0.300678
0.238708
0.135345
0.0306435
0.0405083
0.0807419
0.0916405
0.0744705
0.0408783
0.00758362
0.0261574
0.0610313
0.0976982
0.136631
0.177891
0.220932
0.265453
0.31076
0.356426
0.401279
0.444462
0.129589
0.193462
0.268635
0.354469
0.451435
0.559387
0.678982
0.810844
0.93713
1.03996
1.11998
1.17819
1.2162
1.23626
1.24104
1.23406
1.21895
1.19952
1.1792
1.15971
1.14173
1.1249
1.10835
1.09123
1.072
1.04625
0.999887
0.878792
0.786619
0.717636
0.664404
0.620508
0.589643
0.571877
0.556274
0.503128
0.488068
0.445473
0.378719
0.290548
0.206505
0.257292
0.336477
0.392971
0.424379
0.427183
0.400015
0.347815
0.297335
0.275537
0.28566
0.309452
0.324261
0.31262
0.263599
0.171467
0.0466194
0.0521126
0.118889
0.155872
0.164593
0.146458
0.103329
0.0548325
0.00841522
0.0372047
0.0827103
0.129032
0.176479
0.225063
0.274555
0.324169
0.374046
0.423538
0.471382
0.163361
0.228737
0.306648
0.398125
0.502823
0.620289
0.751472
0.885635
0.998287
1.08794
1.15508
1.20169
1.23071
1.24578
1.25118
1.25161
1.25109
1.25197
1.25566
1.26162
1.26875
1.27637
1.28403
1.26643
1.19939
1.12419
1.03149
0.947824
0.894957
0.865116
0.85117
0.846394
0.84436
0.837473
0.816559
0.755554
0.684494
0.60603
0.480009
0.365482
0.2766
0.380289
0.455765
0.494173
0.50779
0.491625
0.44475
0.37488
0.320826
0.308578
0.326977
0.348267
0.348806
0.313654
0.234825
0.108566
0.0185814
0.112492
0.17561
0.210068
0.217278
0.198578
0.155167
0.0931664
0.0334587
0.0231857
0.0777855
0.131592
0.185055
0.2384
0.291763
0.345482
0.398849
0.451477
0.503075
0.222595
0.287907
0.368469
0.464897
0.577156
0.70602
0.847122
0.972099
1.07552
1.15701
1.21669
1.25706
1.28094
1.29254
1.29758
1.30114
1.30767
1.3198
1.3377
1.36047
1.34264
1.29905
1.25647
1.21387
1.16769
1.11079
1.03828
0.991192
0.974232
0.980408
1.00299
1.03527
1.07009
1.09932
1.11258
1.07908
0.96365
0.804569
0.607847
0.47015
0.377861
0.531696
0.582289
0.600641
0.600128
0.567387
0.502993
0.418743
0.370438
0.373762
0.398003
0.409931
0.389347
0.325079
0.211466
0.0619183
0.0602417
0.150276
0.210655
0.243111
0.249268
0.230492
0.188145
0.122921
0.0493736
0.0186119
0.0826187
0.14365
0.202896
0.260811
0.317947
0.374985
0.431114
0.486439
0.540634
0.309261
0.376015
0.458286
0.558464
0.677441
0.815842
0.949329
1.06505
1.16159
1.23835
1.29557
1.33518
1.35969
1.37337
1.38134
1.38891
1.4006
1.35679
1.31154
1.27313
1.23975
1.21048
1.18336
1.15589
1.12308
1.07657
1.0254
1.00913
1.02358
1.06236
1.1191
1.18652
1.25657
1.31976
1.36579
1.37806
1.27414
1.07422
0.811754
0.628839
0.511625
0.684088
0.699064
0.707832
0.702097
0.656038
0.577194
0.482824
0.45208
0.473272
0.495979
0.490215
0.441587
0.342896
0.191092
0.0392189
0.0789604
0.166189
0.224445
0.255703
0.261242
0.242954
0.201843
0.139069
0.0573082
0.0227509
0.0963211
0.164959
0.230152
0.292656
0.353249
0.412556
0.470898
0.528038
0.583858
0.42543
0.496712
0.583694
0.688728
0.814129
0.946667
1.06548
1.16981
1.25857
1.33104
1.3871
1.42782
1.45602
1.46511
1.40819
1.35117
1.29852
1.25256
1.21438
1.18323
1.15795
1.13632
1.11629
1.09395
1.06314
1.01582
0.984074
0.990482
1.02975
1.09618
1.18312
1.28246
1.38416
1.47636
1.54525
1.58681
1.52464
1.33357
1.05761
0.824385
0.657387
0.797432
0.790602
0.819229
0.818029
0.759882
0.66971
0.570576
0.570478
0.604094
0.614365
0.582779
0.500723
0.363556
0.187449
0.0399857
0.0752144
0.16024
0.21715
0.247772
0.253689
0.236172
0.196888
0.136726
0.0569115
0.0342789
0.117863
0.194595
0.26598
0.333092
0.397106
0.458988
0.518745
0.576904
0.63382
0.564728
0.648342
0.746265
0.862144
0.991161
1.10949
1.21509
1.30778
1.38784
1.45519
1.48109
1.45252
1.41395
1.36841
1.31949
1.27098
1.22623
1.18708
1.15453
1.12815
1.10618
1.0865
1.06575
1.03876
0.998823
0.944513
0.921862
0.938616
0.9914
1.07596
1.18577
1.31093
1.43804
1.54891
1.61399
1.61073
1.63507
1.48337
1.22499
0.92112
0.712677
0.777452
0.856726
0.952635
0.953058
0.879251
0.782469
0.684769
0.725489
0.757196
0.744074
0.680727
0.561722
0.384085
0.206867
0.0630569
0.0497246
0.133316
0.189543
0.220327
0.226994
0.21117
0.174252
0.117252
0.0417061
0.051754
0.146122
0.231644
0.309761
0.38203
0.449615
0.513538
0.574562
0.633808
0.69101
0.715916
0.818768
0.93597
1.06845
1.19265
1.30315
1.40115
1.43974
1.44278
1.43482
1.41651
1.38901
1.35383
1.31371
1.27165
1.23055
1.19261
1.15929
1.13098
1.10711
1.08619
1.06574
1.04104
1.00565
0.951235
0.891102
0.867996
0.882183
0.933414
1.02092
1.14133
1.28547
1.4369
1.56789
1.57738
1.60098
1.62498
1.5451
1.33902
1.04556
0.766064
0.751759
0.951393
1.10413
1.10103
1.00908
0.915672
0.826073
0.9074
0.918203
0.874477
0.77705
0.619398
0.419704
0.247931
0.107449
0.00352478
0.0864258
0.142925
0.174536
0.182686
0.169186
0.135166
0.0819931
0.0106773
0.0777588
0.179596
0.274345
0.359848
0.43779
0.50956
0.576637
0.639549
0.699375
0.756733
0.864635
0.992329
1.1346
1.27433
1.33175
1.37002
1.39544
1.40896
1.41119
1.40278
1.38468
1.35844
1.32599
1.29022
1.25345
1.21814
1.18595
1.15751
1.1325
1.11052
1.08999
1.06827
1.03999
0.997313
0.931034
0.875616
0.8538
0.863871
0.906237
0.983139
1.09687
1.24699
1.42309
1.59549
1.56856
1.59398
1.61622
1.63778
1.46595
1.18001
0.860456
0.70603
0.87808
1.03934
1.1883
1.13078
1.06996
0.991697
1.09453
1.06952
0.99485
0.865036
0.671148
0.475182
0.309002
0.171432
0.0616341
0.021328
0.0787334
0.111963
0.122478
0.111969
0.0813942
0.0322952
0.0342598
0.117481
0.21629
0.320782
0.41478
0.499645
0.576645
0.647491
0.713306
0.774876
0.833191
0.966713
1.07084
1.16049
1.23244
1.28878
1.33078
1.35931
1.37576
1.38081
1.3748
1.35902
1.3357
1.3069
1.27547
1.24403
1.21463
1.1883
1.16473
1.14336
1.12321
1.10306
1.08018
1.04885
1.00074
0.933226
0.891014
0.879169
0.894466
0.935469
1.00194
1.09425
1.21223
1.3519
1.50017
1.56563
1.59259
1.61437
1.63578
1.4818
1.21909
0.902916
0.678141
0.799973
0.962233
1.11309
1.17677
1.20551
1.16575
1.25204
1.19044
1.09539
0.939646
0.733646
0.548178
0.387676
0.252745
0.143551
0.0597515
0.000637054
0.0351486
0.0487709
0.0417786
0.0154915
0.0291023
0.0908127
0.168476
0.261562
0.368507
0.472076
0.564999
0.649071
0.725742
0.796261
0.862049
0.923622
0.919018
1.00297
1.08192
1.15705
1.21961
1.26789
1.30235
1.32408
1.33387
1.33267
1.32158
1.30286
1.27955
1.25393
1.22896
1.20628
1.18632
1.16798
1.15019
1.13153
1.11092
1.08566
1.05053
0.997282
0.939266
0.915272
0.921192
0.952795
1.00751
1.08456
1.18473
1.31035
1.46067
1.62434
1.61468
1.61561
1.63055
1.65084
1.54936
1.33617
1.04211
0.745602
0.701719
0.862772
1.02689
1.18472
1.22273
1.24859
1.27093
1.24672
1.17186
1.00238
0.811977
0.636978
0.481489
0.348324
0.238848
0.15354
0.0919495
0.0529938
0.0356579
0.038681
0.0606079
0.10046
0.156906
0.229263
0.31686
0.41885
0.53046
0.63282
0.725182
0.808777
0.885422
0.956165
1.02167
0.886799
0.951855
1.01144
1.06762
1.12223
1.17603
1.21818
1.24734
1.26389
1.26884
1.26426
1.25203
1.2353
1.21717
1.20016
1.1852
1.17187
1.15858
1.14355
1.12501
1.10165
1.07116
1.02921
0.969288
0.928246
0.92417
0.950815
1.002
1.07238
1.15802
1.25675
1.36902
1.49632
1.61126
1.60584
1.60656
1.62151
1.64177
1.6246
1.46448
1.20348
0.890532
0.684427
0.782524
0.966364
1.15485
1.20601
1.23642
1.25986
1.24263
1.22956
1.0892
0.910625
0.741085
0.587635
0.454302
0.34337
0.255663
0.190962
0.148563
0.127462
0.126392
0.144272
0.179958
0.232738
0.301685
0.386417
0.485931
0.599812
0.716484
0.822693
0.919708
1.00691
1.08477
1.15443
0.868595
0.91745
0.960339
0.999226
1.03566
1.07099
1.10688
1.14292
1.16804
1.18092
1.18414
1.18003
1.17187
1.16288
1.15483
1.14841
1.14236
1.13435
1.12139
1.10097
1.07132
1.03051
0.975492
0.9105
0.884245
0.900154
0.951231
1.02925
1.12567
1.23284
1.34427
1.4563
1.57135
1.61383
1.60529
1.60478
1.61945
1.63967
1.62261
1.53403
1.33156
1.04254
0.758385
0.707611
0.890139
1.08009
1.18492
1.22097
1.24726
1.22514
1.21913
1.11785
0.938887
0.764994
0.608936
0.474226
0.362816
0.275528
0.212336
0.17226
0.154446
0.157745
0.181149
0.223293
0.283195
0.360161
0.453049
0.560818
0.681774
0.802959
0.919029
1.0237
1.11676
1.19926
1.27224
0.863686
0.899429
0.928471
0.952801
0.973854
0.99279
1.01048
1.02847
1.04859
1.07013
1.08328
1.08935
1.0918
1.09351
1.0962
1.10007
1.10292
1.10151
1.09173
1.06948
1.03143
0.974674
0.897026
0.823149
0.798958
0.824734
0.895267
1.00056
1.12839
1.26585
1.40074
1.52123
1.60312
1.63715
1.62269
1.6202
1.63435
1.65447
1.63733
1.63396
1.47635
1.21107
0.894518
0.678255
0.794903
1.00045
1.13802
1.15899
1.19392
1.20491
1.22401
1.1326
0.958305
0.793093
0.644983
0.517149
0.411423
0.328604
0.268475
0.230513
0.213795
0.217094
0.239784
0.28167
0.341492
0.418201
0.510834
0.616249
0.719971
0.820251
0.917782
1.01303
1.10613
1.19198
1.26789
0.871185
0.896091
0.914639
0.928177
0.937557
0.943455
0.946537
0.948074
0.949841
0.954544
0.965977
0.984215
0.999771
1.01449
1.02988
1.0457
1.05949
1.06728
1.06388
1.04343
1.00006
0.92849
0.825817
0.739225
0.697094
0.706293
0.771006
0.888592
1.04617
1.22236
1.39632
1.55278
1.59256
1.62693
1.61256
1.61006
1.62427
1.64443
1.62713
1.62383
1.537
1.32471
1.02328
0.740133
0.788734
1.04144
1.10094
1.1555
1.21968
1.23739
1.21226
1.09315
0.914524
0.753868
0.613974
0.496359
0.401892
0.330671
0.282421
0.256203
0.250973
0.265564
0.298977
0.349674
0.417133
0.500259
0.597679
0.688076
0.770988
0.852005
0.9314
1.0098
1.08709
1.16373
1.23964
0.885323
0.902893
0.914658
0.921112
0.922462
0.918976
0.911194
0.900127
0.887722
0.876587
0.870827
0.874863
0.89299
0.923492
0.954037
0.983963
1.01077
1.03034
1.03691
1.02342
0.982204
0.905676
0.79767
0.710505
0.654867
0.63629
0.660723
0.733112
0.854542
1.02228
1.22911
1.45522
1.57765
1.61482
1.60195
1.60046
1.61505
1.63522
1.61793
1.61367
1.62722
1.4488
1.15365
0.855074
0.813261
1.03128
1.13175
1.20374
1.2611
1.23976
1.16082
1.00464
0.816496
0.656843
0.52338
0.415535
0.332674
0.274204
0.239174
0.226316
0.234505
0.262375
0.308792
0.372368
0.452309
0.5476
0.656685
0.757221
0.838158
0.903393
0.965843
1.02837
1.09096
1.1537
1.21625
0.89991
0.916023
0.924793
0.926964
0.922573
0.911572
0.89502
0.873817
0.85033
0.827747
0.809898
0.800762
0.804138
0.823048
0.85939
0.905987
0.948067
0.981209
0.999342
0.995058
0.95982
0.884682
0.791512
0.722111
0.67931
0.667795
0.693216
0.760292
0.869328
1.01415
1.185
1.37501
1.52494
1.59409
1.59171
1.59612
1.61254
1.6331
1.61464
1.6032
1.61411
1.44201
1.18678
0.970509
0.999977
1.10466
1.18578
1.24723
1.29909
1.24499
1.11472
0.914272
0.708124
0.541645
0.409218
0.307392
0.233732
0.186338
0.16354
0.163639
0.185131
0.226467
0.286324
0.363338
0.456608
0.564831
0.686634
0.799057
0.891468
0.966003
1.02409
1.07159
1.11913
1.16777
1.21712
0.908958
0.926899
0.93623
0.936691
0.927963
0.910656
0.885464
0.855598
0.823879
0.794392
0.77092
0.755989
0.75185
0.759815
0.781086
0.815845
0.863136
0.910978
0.941126
0.9457
0.915819
0.844034
0.773106
0.722809
0.694401
0.691502
0.720007
0.787205
0.898361
1.04919
1.21886
1.27423
1.43333
1.57708
1.59147
1.60697
1.62636
1.64732
1.62518
1.58588
1.57283
1.44828
1.26418
1.14522
1.14277
1.17196
1.20884
1.25096
1.26353
1.18368
1.02748
0.803463
0.589182
0.419611
0.288578
0.191486
0.125017
0.0865784
0.0737534
0.0846653
0.117474
0.170372
0.242134
0.331284
0.436535
0.556812
0.690266
0.81332
0.916466
1.0015
1.07036
1.12396
1.16404
1.19718
1.23202
0.867035
0.877121
0.879742
0.875614
0.864727
0.848541
0.828281
0.805954
0.783749
0.763657
0.747261
0.736614
0.732029
0.734577
0.745125
0.763824
0.789907
0.821091
0.853334
0.86805
0.84462
0.786016
0.740557
0.712463
0.700958
0.706554
0.731382
0.779795
0.858063
0.967274
1.08228
1.18813
1.35046
1.50159
1.55967
1.59158
1.61254
1.63657
1.59864
1.57551
1.5413
1.42374
1.26324
1.18362
1.20334
1.2181
1.22929
1.21805
1.17123
1.06744
0.904366
0.680025
0.474079
0.311089
0.185532
0.0937004
0.03269
2.28882e-05
0.00659752
0.0110683
0.0508728
0.111481
0.191105
0.28867
0.402679
0.532028
0.674538
0.806297
0.918472
1.01281
1.09071
1.15377
1.20303
1.23962
1.26443
0.832382
0.83976
0.84119
0.838207
0.831539
0.821972
0.810925
0.79871
0.785877
0.77277
0.760201
0.749348
0.741375
0.73687
0.73666
0.740204
0.747
0.7544
0.757938
0.751581
0.727772
0.695576
0.682049
0.684608
0.701332
0.730425
0.770617
0.822721
0.892017
0.989988
0.944168
1.10824
1.27141
1.42503
1.54191
1.57823
1.59244
1.62181
1.62209
1.57919
1.48691
1.33886
1.21981
1.20302
1.24648
1.25795
1.22258
1.14658
1.04181
0.937387
0.79867
0.599062
0.415043
0.264433
0.144888
0.0551434
0.0057888
0.0391445
0.0464172
0.0293655
0.0106354
0.072216
0.153812
0.254353
0.372135
0.506264
0.65414
0.791401
0.909943
1.01166
1.0975
1.16861
1.22649
1.27172
1.30533
0.810101
0.815872
0.817764
0.816212
0.812935
0.808159
0.80265
0.797054
0.791428
0.785244
0.778084
0.769253
0.759052
0.747704
0.736305
0.725491
0.714746
0.700888
0.679081
0.642187
0.589638
0.563168
0.570024
0.606871
0.659025
0.721306
0.789381
0.857847
0.920647
0.970148
0.900906
1.03206
1.20724
1.37322
1.49893
1.55281
1.60742
1.668
1.63554
1.53083
1.38383
1.24149
1.19372
1.23027
1.28532
1.29536
1.22116
1.08537
0.936758
0.852343
0.745485
0.568991
0.402214
0.260279
0.144211
0.0549526
0.00743294
0.0433922
0.053791
0.0396538
0.00217819
0.0572433
0.137562
0.237606
0.356045
0.491611
0.642185
0.782532
0.905251
1.01178
1.10361
1.18161
1.2466
1.29997
1.34141
0.797756
0.801167
0.800758
0.797523
0.791912
0.783829
0.773937
0.762691
0.75
0.736671
0.722832
0.709297
0.697224
0.687019
0.678387
0.669289
0.656004
0.633722
0.596115
0.535913
0.479872
0.454672
0.459822
0.495102
0.56016
0.65346
0.765057
0.877598
0.977612
0.834263
0.774939
1.02307
1.24993
1.47579
1.51651
1.56747
1.61869
1.66886
1.60677
1.46251
1.30601
1.22274
1.21431
1.24434
1.28759
1.27162
1.17038
1.01735
0.892324
0.833218
0.730654
0.555279
0.391626
0.251162
0.135635
0.0462151
0.0167599
0.0535545
0.0649815
0.0518913
0.0154266
0.0432396
0.123146
0.223358
0.342491
0.479877
0.632256
0.774982
0.900894
1.01177
1.10854
1.19216
1.26363
1.32343
1.37236
0.795193
0.795509
0.791897
0.785076
0.775394
0.763409
0.749153
0.733707
0.717381
0.7015
0.687183
0.675228
0.666733
0.661083
0.656727
0.649799
0.634888
0.605198
0.552925
0.48159
0.431467
0.406509
0.406082
0.429037
0.473421
0.535021
0.606787
0.677633
0.724947
0.628635
0.808235
1.11959
1.38008
1.52731
1.57079
1.59402
1.62586
1.62199
1.52612
1.37306
1.25991
1.24641
1.25282
1.26447
1.25444
1.1918
1.06949
0.941422
0.883678
0.848219
0.736868
0.553879
0.386538
0.242876
0.12462
0.0328674
0.0320587
0.0705681
0.0835304
0.0717812
0.0363464
0.0216064
0.101299
0.201679
0.321903
0.460793
0.615173
0.760033
0.888958
1.00357
1.10489
1.19384
1.27076
1.33656
1.39174
0.803776
0.800785
0.794025
0.784016
0.771488
0.756878
0.741234
0.725601
0.711502
0.700329
0.693398
0.691856
0.695183
0.701694
0.707554
0.706825
0.692387
0.655912
0.590136
0.526484
0.484301
0.463438
0.463686
0.48431
0.523443
0.577168
0.637888
0.689449
0.533997
0.592031
0.943127
1.29432
1.4833
1.59434
1.62094
1.62819
1.60114
1.52888
1.40353
1.28621
1.25083
1.2842
1.29425
1.29508
1.23391
1.11744
0.98665
0.906952
0.906101
0.877983
0.75548
0.567944
0.399687
0.256266
0.139364
0.0498142
0.0127411
0.0488319
0.0597496
0.0468025
0.0109596
0.0465393
0.124779
0.223183
0.340832
0.477222
0.628956
0.771088
0.898232
1.01206
1.11357
1.20357
1.28242
1.3511
1.40963
0.826488
0.820148
0.810581
0.797966
0.783363
0.767639
0.751774
0.737011
0.724625
0.715668
0.710583
0.708824
0.708591
0.706387
0.697407
0.675735
0.634607
0.567175
0.481289
0.414577
0.368811
0.343975
0.340046
0.356388
0.39122
0.440945
0.498047