<VTKFile type="ImageData" version="1.0" byte_order="LittleEndian" header_type="UInt64">
	<ImageData WholeExtent="0 59 0 59 0 59" Origin="-35.5677 -35.5677 -35.5677" Spacing="2.18425 2.18425 2.18425">
		<Piece Extent="0 59 0 59 0 59">
			<PointData Scalars="Scalars_">
				<DataArray type="Float32" Name="Scalars_" format="ascii" RangeMin="0" RangeMax="100">
63.0144
61.7743
60.5794
59.4321
58.3357
57.2928
56.3064
55.3797
54.5164
53.7195
52.993
52.3398
51.764
51.2694
50.8594
50.5373
50.3072
50.1736
50.2737
50.4554
50.6898
50.9001
51.0044
51.1853
51.4401
51.7558
52.1112
52.4477
52.6988
52.8473
53.0012
53.2124
53.4866
53.8176
54.1803
54.5526
54.9289
55.3107
55.7031
56.1115
56.5332
56.9642
57.4054
57.8647
58.3535
58.8818
59.456
60.0794
60.7536
61.4793
62.2556
63.0808
63.9539
64.8734
65.8372
66.8439
67.8909
68.9773
70.1015
71.2615
61.7743
60.5121
59.2953
58.1262
57.008
55.9435
54.9362
53.9892
53.106
52.2904
51.546
50.8765
50.286
49.7782
49.3575
49.0268
48.7906
48.654
48.7478
48.9266
49.1549
49.3383
49.4001
49.574
49.8281
50.1437
50.4943
50.8046
51.0073
51.1095
51.2446
51.4494
51.7235
52.0561
52.4151
52.778
53.142
53.5119
53.8946
54.295
54.7091
55.1323
55.5667
56.0224
56.5122
57.0456
57.629
58.265
58.9545
59.6977
60.4932
61.3394
62.2347
63.1776
64.1656
65.1969
66.2696
67.3815
68.5319
69.7176
60.5793
59.2953
58.0563
56.8651
55.725
54.6388
53.6101
52.6424
51.739
50.904
50.1414
49.4551
48.8492
48.3282
47.8958
47.5561
47.3138
47.1733
47.2587
47.4343
47.6547
47.8037
47.8225
47.9928
48.2472
48.5624
48.9054
49.1792
49.3267
49.3858
49.5057
49.7064
49.9809
50.3158
50.6684
51.0186
51.3685
51.7254
52.0978
52.4899
52.8961
53.3105
53.7378
54.1905
54.682
55.222
55.8158
56.4653
57.1713
57.9329
58.7485
59.6166
60.5353
61.5023
62.5155
63.5724
64.6713
65.8102
66.987
68.1996
59.4323
58.1263
56.8654
55.6522
54.49
53.3817
52.3314
51.3424
50.4186
49.564
48.7828
48.0791
47.4573
46.922
46.4776
46.1284
45.8792
45.7348
45.8096
45.9811
46.1905
46.298
46.2764
46.4454
46.7004
47.0145
47.3449
47.5706
47.6594
47.68
47.7879
47.9857
48.2619
48.5985
48.9416
49.2752
49.6091
49.9521
50.3136
50.6974
51.095
51.5
51.9197
52.37
52.8645
53.4121
54.0172
54.6819
55.4054
56.1863
57.0235
57.9144
58.8575
59.8495
60.8888
61.9724
63.0983
64.2645
65.4689
66.7089
58.3359
57.0083
55.7251
54.4898
53.3054
52.1755
51.1032
50.0929
49.1484
48.2738
47.4735
46.7519
46.1137
45.5638
45.1066
44.7471
44.4904
44.3414
44.4032
44.5704
44.7655
44.823
44.767
44.9362
45.1914
45.5028
45.8141
45.9778
46.0081
45.9969
46.0942
46.2901
46.5686
46.9067
47.235
47.5482
47.865
48.1936
48.5439
48.9192
49.3073
49.7018
50.1141
50.5624
51.061
51.6176
52.2358
52.9163
53.6584
54.4603
55.3201
56.2351
57.2031
58.2214
59.2872
60.3984
61.552
62.7461
63.9785
65.247
57.2929
55.9438
54.639
53.3819
52.1755
51.0236
49.9298
48.8977
47.9321
47.0371
46.2175
45.4777
44.8227
44.2573
43.787
43.4164
43.1514
42.9971
43.0429
43.2055
43.3815
43.3821
43.2995
43.4686
43.7236
44.03
44.3128
44.4007
44.3783
44.341
44.4277
44.6228
44.904
45.2426
45.5491
45.8385
46.1373
46.451
46.7899
47.1567
47.5341
47.9171
48.3222
48.7696
49.2736
49.8404
50.473
51.1709
51.933
52.7571
53.6403
54.5804
55.5746
56.6198
57.7134
58.8525
60.0347
61.2577
62.5187
63.8158
56.3064
54.9362
53.6102
52.3315
51.1035
49.9297
48.8141
47.7607
46.7741
45.8585
45.0192
44.2606
43.5883
43.0071
42.5229
42.1405
41.8661
41.7057
41.7327
41.8906
42.0405
41.9826
41.8789
42.0473
42.3012
42.5987
42.8392
42.8418
42.7762
42.7168
42.792
42.987
43.2712
43.6084
43.8839
44.147
44.428
44.7261
45.0536
45.4117
45.7769
46.1477
46.5459
46.9937
47.5043
48.083
48.7312
49.4479
50.2312
51.0784
51.9865
52.9527
53.974
55.0472
56.1692
57.3374
58.5487
59.8008
61.0914
62.4177
55.3799
53.9893
52.6424
51.3426
50.0931
48.8978
47.7607
46.6861
45.6784
44.7422
43.883
43.1055
42.4152
41.8178
41.319
40.924
40.6393
40.4714
40.477
40.6303
40.7442
40.632
40.5103
40.6767
40.9275
41.2115
41.391
41.3081
41.2077
41.1282
41.1909
41.3861
41.6738
42.0066
42.2396
42.4756
42.7392
43.0212
43.3373
43.6861
44.0376
44.3951
44.7872
45.2366
45.7557
46.3478
47.0132
47.7499
48.5557
49.4271
50.3612
51.3546
52.4041
53.506
54.6575
55.8553
57.0965
58.3786
59.6989
61.0549
54.5166
53.1063
51.7392
50.4187
49.1486
47.9323
46.7742
45.6785
44.6499
43.6933
42.8139
42.0171
41.3087
40.6943
40.1802
39.7719
39.4758
39.2988
39.2811
39.4292
39.4931
39.3367
39.1988
39.3613
39.6072
39.8694
39.9638
39.8088
39.6781
39.5798
39.628
39.8239
40.1152
40.439
40.6162
40.8268
41.0744
41.3391
41.6432
41.9823
42.318
42.6615
43.0484
43.5015
44.0307
44.6377
45.3216
46.0799
46.9094
47.8065
48.7677
49.7892
50.8677
51.9992
53.1807
54.4089
55.6806
56.993
58.3437
59.7297
53.7198
52.2908
50.9044
49.5644
48.2741
47.0377
45.859
44.7428
43.6936
42.7166
41.8173
41.0012
40.2743
39.6424
39.1123
38.6896
38.3809
38.1929
38.1509
38.2928
38.296
38.1037
37.9505
38.1061
38.3441
38.5725
38.5606
38.3516
38.1925
38.076
38.1076
38.3051
38.5995
38.9074
39.0144
39.2046
39.4367
39.6825
39.9742
40.3027
40.6202
40.9496
41.3325
41.7912
42.3322
42.9557
43.6598
44.441
45.2955
46.2195
47.2088
48.2595
49.3678
50.5299
51.7422
53.0013
54.304
55.6472
57.0286
58.4449
52.993
51.5461
50.1418
48.7834
47.4741
46.2181
45.0198
43.8837
42.8146
41.8178
40.8988
40.0633
39.3177
38.6681
38.1211
37.6831
37.3602
37.1592
37.0938
37.2262
37.162
36.9393
36.7714
36.9158
37.1425
37.3177
37.1943
36.9431
36.7564
36.6219
36.6347
36.8346
37.1317
37.4125
37.4379
37.6138
37.8301
38.0538
38.333
38.6503
38.9468
39.2622
39.6434
40.1093
40.6639
41.3057
42.0313
42.8368
43.7178
44.6697
45.6882
46.7691
47.9081
49.1015
50.3451
51.6355
52.9697
54.3442
55.7564
57.2034
52.3402
50.8769
49.4555
48.0796
46.7527
45.4786
44.2617
43.1067
42.0185
41.0024
40.0642
39.2098
38.4455
37.7778
37.2134
36.7589
36.4207
36.2045
36.117
36.2334
36.1007
35.8506
35.6677
35.7958
36.0062
36.0979
35.8772
35.59
35.3757
35.223
35.215
35.4179
35.7163
35.9541
35.894
36.0604
36.2587
36.4566
36.7231
37.0281
37.301
37.6032
37.9848
38.4601
39.0301
39.6916
40.4405
41.2715
42.1801
43.1611
44.2097
45.3215
46.4921
47.7172
48.9928
50.3153
51.6811
53.0871
54.5302
56.0076
51.7644
50.2864
48.85
47.4583
46.1151
44.8243
43.5902
42.4172
41.3111
40.2767
39.3198
38.4469
37.6641
36.9782
36.396
35.9241
35.5693
35.3366
35.2291
35.3164
35.1206
34.8447
34.6467
34.7507
34.9378
34.9168
34.6192
34.299
34.0568
33.885
33.8549
34.0613
34.3584
34.5299
34.3932
34.5508
34.7267
34.8937
35.148
35.44
35.6864
35.9772
36.3616
36.8483
37.4354
38.1184
38.8917
39.7496
40.6869
41.6979
42.7778
43.9213
45.1241
46.3815
47.6894
49.0442
50.4419
51.8792
53.3534
54.8613
51.2697
49.7789
48.3291
46.9234
45.5657
44.2598
43.01
41.8209
40.698
39.6466
38.6724
37.7817
36.9808
36.2768
35.6764
35.1867
34.8143
34.5645
34.4393
34.4836
34.2306
33.929
33.7154
33.7855
33.9367
33.7901
33.4299
33.0773
32.8068
32.6147
32.5619
32.772
33.0628
33.1375
32.9452
33.0916
33.2381
33.3691
33.6124
33.8903
34.1076
34.3895
34.779
35.2793
35.8852
36.591
37.3902
38.2761
39.2431
40.2853
41.397
42.5729
43.8085
45.0986
46.439
47.826
49.2558
50.7246
52.2295
53.7677
50.8593
49.358
47.8969
46.4796
45.1095
43.7905
42.527
41.3238
40.1859
39.1189
38.1284
37.221
36.4029
35.6811
35.0629
34.5552
34.1649
33.898
33.7573
33.7449
33.4389
33.1113
32.8809
32.9047
32.9943
32.7317
32.3181
31.9331
31.6334
31.42
31.3444
31.5584
31.833
31.7884
31.559
31.6886
31.7967
31.8871
32.1213
32.3841
32.5702
32.8463
33.2437
33.7591
34.3855
35.1155
35.9416
36.8568
37.8545
38.9283
40.0724
41.2813
42.5497
43.8728
45.2461
46.6653
48.1267
49.6267
51.1622
52.7301
50.5374
49.0278
47.5581
46.1315
44.7513
43.4216
42.1469
40.9317
39.7809
38.7004
37.6954
36.7726
35.9385
35.2
34.5643
34.0391
33.6316
33.3486
33.1927
33.1104
32.754
32.399
32.1492
32.1139
32.1183
31.7549
31.2931
30.8752
30.5457
30.3097
30.2118
30.4292
30.6691
30.5004
30.2435
30.3479
30.4069
30.4537
30.6814
30.9277
31.0815
31.3552
31.7626
32.295
32.9431
33.6984
34.5525
35.4977
36.5268
37.6329
38.81
40.052
41.3534
42.7094
44.1151
45.5665
47.0594
48.5901
50.1554
51.7527
50.3072
48.7921
47.316
45.883
44.4954
43.1582
41.8751
40.6506
39.4897
38.3979
37.3808
36.4448
35.5965
34.843
34.1917
33.6505
33.2276
32.93
32.7562
32.5904
32.1839
31.7995
31.5239
31.4201
31.3217
30.872
30.3649
29.9133
29.5534
29.2939
29.1746
29.3946
29.5637
29.2875
29.0078
29.0739
29.0738
29.0764
29.3
29.5286
29.6501
29.9248
30.344
30.8948
31.5658
32.3473
33.2301
34.2059
35.2668
36.4056
37.6157
38.8908
40.2252
41.6138
43.0516
44.5343
46.0579
47.6187
49.2134
50.8389
50.1736
48.6557
47.1765
45.7397
44.3484
43.0065
41.718
40.4875
39.3197
38.22
37.1941
36.2481
35.3888
34.6235
33.9599
33.4063
32.9715
32.6623
32.4639
32.1937
31.7364
31.3193
31.0093
30.8307
30.6199
30.0947
29.5441
29.0584
28.6678
28.3845
28.2451
28.4652
28.5179
28.1626
27.8607
27.8703
27.8048
27.7651
27.9863
28.1957
28.2862
28.5648
28.9975
29.5675
30.2622
31.0704
31.9823
32.9889
34.0818
35.2533
36.4962
37.8042
39.1712
40.5917
42.0609
43.5742
45.1277
46.7174
48.3404
49.9932
50.273
48.7648
47.2957
45.8689
44.4874
43.1554
41.8765
40.6556
39.4971
38.4061
37.3881
36.4493
35.5957
34.8339
34.1702
33.6099
33.1532
32.7798
32.4046
31.9268
31.4186
30.9667
30.6142
30.3575
30.0282
29.4349
28.8426
28.3227
27.9015
27.5947
27.4369
27.6503
27.5535
27.1371
26.8093
26.7416
26.6102
26.5319
26.7508
26.9396
27.0017
27.2865
27.7336
28.3234
29.0418
29.8769
30.8181
31.8554
32.9799
34.1836
35.4588
36.799
38.1975
39.6491
41.1486
42.6916
44.2737
45.8912
47.5409
49.2197
50.4547
48.957
47.4989
46.0836
44.7141
43.3944
42.1281
40.9195
39.7731
38.6938
37.6866
36.7563
35.9083
35.1469
34.4747
33.8891
33.3731
32.8803
32.3475
31.7818
31.2379
30.7539
30.3565
30.0205
29.5607
28.9054
28.2731
27.7197
27.269
26.9397
26.766
26.9511
26.69
26.2217
25.8583
25.6971
25.5027
25.3903
25.6057
25.7734
25.8105
26.1029
26.5644
27.1738
27.9157
28.7773
29.7471
30.8145
31.9699
33.2048
34.5112
35.8822
37.3112
38.7924
40.3207
41.8918
43.5011
45.1448
46.8198
48.5229
50.6897
49.2054
47.7613
46.36
45.005
43.7003
42.449
41.2553
40.1236
39.0579
38.0625
37.1412
36.2972
35.5323
34.8447
34.2264
33.6575
33.1066
32.5469
31.9812
31.4315
30.9156
30.4277
29.8898
29.2294
28.5188
27.8503
27.2653
26.7876
26.4387
26.252
26.3563
25.9448
25.4259
25.0122
24.7496
24.4972
24.3557
24.565
24.7124
24.7283
25.0284
25.5037
26.1316
26.896
27.783
28.7801
29.8763
31.0612
32.3257
33.6618
35.0618
36.5194
38.0285
39.5839
41.1809
42.8153
44.4834
46.1817
47.9071
50.8986
49.4388
48.0185
46.6404
45.3078
44.025
42.7952
41.6225
40.5106
39.463
38.483
37.573
36.7337
35.9641
35.2586
34.6069
33.9936
33.4029
32.8242
32.2528
31.6845
31.107
30.489
29.7917
29.0384
28.2898
27.5929
26.9813
26.4822
26.1186
25.9226
25.8743
25.3328
24.7578
24.278
23.9151
23.6114
23.4457
23.6447
23.7748
23.7727
24.0792
24.5665
25.2111
25.996
26.9063
27.9288
29.0515
30.2637
31.5558
32.9191
34.3461
35.8298
37.3645
38.9445
40.5653
42.2225
43.9123
45.6315
47.3771
50.999
49.5741
48.1892
46.8467
45.5496
44.3013
43.1052
41.9649
40.8833
39.8637
38.9077
38.0162
37.188
36.4182
35.6986
35.0194
34.3709
33.7485
33.1493
32.5649
31.9772
31.3625
30.6992
29.979
29.2227
28.4719
27.7687
27.1501
26.6436
26.2632
25.97
25.5138
24.8639
24.2235
23.6663
23.2139
22.8664
22.6817
22.863
22.982
22.9639
23.2741
23.77
24.4282
25.2304
26.161
27.2057
28.3519
29.5884
30.9048
32.2924
33.7432
35.2502
36.8072
38.409
40.0506
41.7279
43.437
45.1745
46.9377
51.1795
49.7703
48.4038
47.0824
45.8091
44.5868
43.4186
42.3074
41.2556
40.2647
39.3355
38.4667
37.6539
36.8894
36.1627
35.4642
34.7899
34.1415
33.5201
32.9155
32.3065
31.6685
30.9867
30.2613
29.5088
28.7578
28.0431
27.3982
26.8414
26.3573
25.8618
25.2483
24.5349
23.8232
23.1915
22.6707
22.2882
22.0895
22.2402
22.3589
22.325
22.6339
23.1333
23.8
24.6149
25.5613
26.624
27.7897
29.0463
30.3832
31.791
33.2618
34.7884
36.3643
37.9843
39.6435
41.3377
43.0628
44.8158
46.5939
51.4369
50.0399
48.6871
47.3808
46.1246
44.9212
43.7734
42.6837
41.6545
40.6867
39.7799
38.9305
38.1319
37.3737
36.643
35.9306
35.235
34.5612
33.9112
33.2779
32.6449
31.9933
31.3095
30.5905
29.8449
29.0917
28.3569
27.6671
27.0323
26.426
25.7847
25.066
24.2961
23.5464
22.8746
22.32
21.9134
21.7062
21.7983
21.9357
21.8833
22.1822
22.6773
23.3454
24.1665
25.1228
26.198
27.3777
28.6492
30.0016
31.425
32.9113
34.4529
36.0435
37.6777
39.3506
41.058
42.796
44.5612
46.3512
51.7568
50.372
49.032
47.7394
46.4975
45.309
44.1769
43.1037
42.0912
41.14
40.2485
39.4123
38.6231
37.8682
37.134
36.411
35.6983
35.0015
34.3247
33.6659
33.0164
32.3617
31.6867
30.9807
30.2445
29.4919
28.7449
28.029
27.3578
26.7151
26.0541
25.3332
24.569
23.8224
23.1439
22.5688
22.1175
21.7983
21.5572
21.7522
21.6771
21.9474
22.425
23.0848
23.9041
24.863
25.9438
27.131
28.4113
29.773
31.2062
32.7023
34.2538
35.8542
37.498
39.1803
40.8968
42.6438
44.4181
46.2168
52.115
50.7456
49.4201
48.1423
46.9147
45.7406
44.6228
43.5633
42.5641
41.625
40.744
39.9159
39.1313
38.3771
37.6397
36.9095
36.1852
35.4721
34.7758
34.0989
33.4389
32.785
32.1205
31.4293
30.7056
29.9586
29.2086
28.4799
27.7869
27.1187
26.4414
25.7231
24.9732
24.2334
23.5448
22.941
22.4397
22.0427
21.7392
21.6073
21.7688
22.1112
22.6312
23.3156
24.1483
25.1134
26.1955
27.3809
28.6574
30.0139
31.4412
32.9308
34.4754
36.069
37.7061
39.3818
41.092
42.8328
44.6013
46.3944
52.4476
51.1048
49.804
48.5488
47.3423
46.1875
45.0877
44.0445
43.0598
42.1329
41.2617
40.44
39.6583
38.9038
38.1635
37.4287
36.6976
35.9744
35.2651
34.5748
33.9049
33.2491
32.593
31.9175
31.2103
30.4745
29.728
28.9938
28.2843
27.5936
26.9015
26.1881
25.4546
24.7217
24.0178
23.3738
22.8109
22.3415
21.9839
21.7973
21.9508
22.3395
22.9042
23.6236
24.481
25.4617
26.5525
27.7412
29.017
30.3701
31.7918
33.2746
34.8116
36.397
38.0255
39.6924
41.394
43.1264
44.8865
46.6717
52.6918
51.3914
50.1298
48.9108
47.7372
46.6128
45.5401
44.5215
43.5578
42.6485
41.7907
40.9779
40.2003
39.4458
38.7029
37.9639
37.2282
36.4984
35.78
35.0779
34.3963
33.7335
33.0803
32.4194
31.7331
31.0157
30.2788
29.5428
28.8199
28.1092
27.4029
26.6907
25.9681
25.2377
24.5147
23.8261
23.2002
22.6617
22.2317
21.9332
21.7576
22.1543
22.7679
23.5601
24.5028
25.5677
26.7325
27.9816
29.3038
30.6909
32.1363
33.6344
35.1806
36.7702
38.3995
40.0646
41.7621
43.4893
45.2433
47.0218
52.8339
51.5796
50.3653
49.1928
48.0642
46.9822
45.9488
44.9656
44.0332
43.1504
42.3131
41.5145
40.7441
39.9906
39.2444
38.501
37.7608
37.0265
36.3019
35.5901
34.8958
34.2214
33.5638
32.9114
32.2452
31.5509
30.83
30.0972
29.3647
28.6369
27.9139
27.1929
26.4699
25.7393
25.0029
24.2799
23.6026
23.008
22.5246
22.1804
22.0081
22.4016
23.0104
23.797
24.7345
25.8002
26.9744
28.2406
29.5849
30.9961
32.465
33.9843
35.5479
37.1513
38.7905
40.4621
42.1634
43.8916
45.6449
47.4208
52.9877
51.7608
50.5782
49.4415
48.3518
47.3101
46.3177
45.3743
44.479
43.6294
42.819
42.0396
41.2798
40.5287
39.7795
39.0315
38.2879
37.5516
36.8239
36.1059
35.4006
34.713
34.0453
33.3919
32.7365
32.0612
31.3581
30.634
29.8992
29.1604
28.4215
27.6857
26.9554
26.2274
25.4969
24.7723
24.0823
23.469
22.9698
22.6209
22.4702
22.8561
23.454
24.2277
25.1518
26.2048
27.3689
28.6285
29.97
31.382
32.8549
34.3804
35.9515
37.5627
39.2092
40.8872
42.5934
44.3249
46.08
47.8562
53.1994
51.9899
50.8276
49.7144
48.6518
47.6405
46.6806
45.7719
44.9113
44.0942
43.3126
42.5552
41.8085
41.0622
40.3127
39.5625
38.8174
38.0809
37.353
36.632
35.9192
35.2202
34.5406
33.8787
33.2224
32.5556
31.8671
31.1561
30.4277
29.6872
28.9394
28.1934
27.4592
26.7403
26.0321
25.3334
24.6632
24.06
23.5674
23.2288
23.1126
23.4882
24.0714
24.8278
25.7328
26.7667
27.9124
29.155
30.4817
31.8816
33.3449
34.8633
36.4297
38.038
39.6832
41.3608
43.0672
44.7991
46.554
48.3297
53.4741
52.2776
51.1304
50.0342
48.9906
48.0009
47.0652
46.1825
45.3497
44.5605
43.8048
43.0687
42.3372
41.5993
40.8527
40.1035
39.3592
38.6237
37.8966
37.1746
36.4579
35.7511
35.0599
34.3847
33.719
33.0524
32.375
31.6807
30.9667
30.2331
29.4852
28.7365
28.003
27.2949
26.6118
25.9502
25.3193
24.7495
24.2833
23.9681
23.9023
24.2674
24.8348
25.5717
26.455
27.4661
28.5887
29.809
31.1147
32.4952
33.941
35.4441
36.9973
38.5946
40.2304
41.9004
43.6004
45.327
47.0777
48.8496
53.8048
52.6201
51.4853
50.4024
49.3735
48.3994
47.481
46.6168
45.8039
45.0355
44.3006
43.5839
42.8685
42.1424
41.4037
40.6586
39.9165
39.1821
38.455
37.7325
37.0135
36.3007
35.5979
34.907
34.2267
33.5538
32.883
32.2055
31.5104
30.7903
30.0494
29.3039
28.5731
27.8708
27.2033
26.5731
25.988
25.4703
25.0526
24.7747
24.7864
25.1469
25.7027
26.4229
27.286
28.2745
29.3736
30.5699
31.8521
33.2099
34.6343
36.1174
37.6526
39.2333
40.8545
42.5114
44.1999
45.9165
47.6581
49.422
54.1602
52.991
51.8713
50.8028
49.7877
48.8276
47.9223
47.072
46.2727
45.5186
44.7983
44.097
43.3973
42.6861
41.959
41.2216
40.4829
39.7484
39.0195
38.2944
37.5719
36.8525
36.1378
35.43
34.7322
34.0484
33.3785
32.7144
32.0393
31.3383
30.6105
29.8722
29.1437
28.4408
27.7756
27.1608
26.6108
26.1454
25.788
25.5673
25.679
26.0542
26.6122
27.3262
28.1773
29.1496
30.2297
31.4053
32.6658
34.0017
35.4046
36.8669
38.3822
39.9443
41.5481
43.1889
44.8628
46.5661
48.2957
50.0486
54.5215
53.3718
52.2701
51.2188
50.2197
49.2737
48.3813
47.5418
46.7522
46.0064
45.295
44.604
43.9169
43.2201
42.5069
41.7796
41.0451
40.31
39.5771
38.8466
38.1173
37.3894
36.6629
35.94
35.2263
34.5294
33.8542
33.196
32.5384
31.861
31.1545
30.4295
29.706
29.0021
28.3355
27.7268
27.197
26.7679
26.4616
26.3153
26.5176
26.9263
27.5021
28.2239
29.0751
30.0418
31.1119
32.2743
33.5193
34.8382
36.2233
37.6675
39.1647
40.709
42.2958
43.9202
45.5787
47.2677
48.9836
50.7242
54.8882
53.759
52.6774
51.6451
50.6631
49.7326
48.8534
48.0242
47.2421
46.5015
45.7937
45.1069
44.4271
43.7411
43.0404
42.3236
41.595
40.8602
40.123
39.3853
38.6477
37.9113
37.1761
36.4437
35.7193
35.0117
34.3285
33.6699
33.0241
32.3699
31.6903
30.9865
30.2752
29.5782
28.918
28.3189
27.8047
27.3981
27.1244
27.056
27.3154
27.757
28.3548
29.0906
29.9494
30.9185
31.9865
33.1434
34.38
35.6884
37.0612
38.4921
39.9751
41.5051
43.0774
44.6877
46.3321
48.0074
49.7104
51.4386
55.2658
54.1573
53.0959
52.0824
51.1188
50.2046
49.339
48.5205
47.7453
47.0079
46.3005
45.6135
44.9352
44.2544
43.5626
42.8557
42.1349
41.4031
40.6641
39.9208
39.1766
38.4341
37.6944
36.9579
36.2282
35.5132
34.8217
34.1572
33.5134
32.8725
32.2159
31.5371
30.8485
30.1731
29.5358
28.9613
28.4717
28.0867
27.8325
27.8359
28.1242
28.5861
29.1983
29.9438
30.8086
31.7803
32.8481
34.0021
35.2338
36.5356
37.9003
39.3218
40.7947
42.3137
43.8747
45.4735
47.1063
48.7701
50.4619
52.1791
55.66
54.571
53.529
52.5351
51.5893
50.6913
49.8399
49.0323
48.2642
47.5294
46.8206
46.1295
45.4474
44.7664
44.0796
43.3819
42.6706
41.9454
41.2085
40.4633
39.7156
38.9697
38.2278
37.49
36.7585
36.0388
35.3391
34.6646
34.0121
33.3705
32.7253
32.0697
31.4124
30.7731
30.1755
29.6426
29.1928
28.8406
28.6095
28.6743
28.9787
29.4507
30.0684
30.8162
31.6808
32.6502
33.7141
34.8631
36.0887
37.3833
38.7403
40.1535
41.6175
43.1274
44.6788
46.2682
47.8913
49.5454
51.2274
52.9351
56.0737
55.0034
53.9799
53.0041
52.0755
51.1933
50.3553
49.5581
48.7961
48.0627
47.3506
46.6527
45.9634
45.2781
44.5924
43.9019
43.2014
42.4864
41.7559
41.0132
40.2651
39.5178
38.7747
38.0365
37.3046
36.5825
35.8754
35.1878
34.5193
33.8657
33.221
32.5837
31.9599
31.3633
30.8119
30.326
29.9244
29.6205
29.4429
29.5621
29.8826
30.3618
30.9813
31.727
32.5866
33.5493
34.6051
35.7451
36.9611
38.2458
39.5927
40.9959
42.4497
43.9496
45.4913
47.0707
48.6844
50.3293
52.0026
53.7016
56.5034
55.4506
54.4447
53.4857
52.5732
51.7053
50.8795
50.091
49.3331
48.5992
47.8815
47.1748
46.4761
45.7834
45.096
44.4105
43.7205
43.0184
42.2988
41.5631
40.8179
40.071
39.3271
38.5885
37.8563
37.1323
36.4186
35.7171
35.0298
34.3592
33.7089
33.0838
32.4898
31.9342
31.427
30.9837
30.6242
30.3682
30.2952
30.4696
30.8147
31.3064
31.9306
32.6753
33.5299
34.4846
35.5305
36.6591
37.8631
39.1353
40.4696
41.8601
43.3017
44.7895
46.3195
47.8878
49.4908
51.1256
52.7891
54.4788
56.9422
55.907
54.9177
53.975
53.0773
52.2223
51.4064
50.624
49.8681
49.1312
48.4066
47.6906
46.9821
46.2819
45.5907
44.9075
44.2264
43.5378
42.8326
42.1082
41.3693
40.6245
39.8804
39.1412
38.4086
37.6825
36.9622
36.2482
35.5444
34.8586
34.2011
33.5816
33.0067
32.4811
32.0097
31.6032
31.28
31.0632
31.12
31.3567
31.74
32.2559
32.8937
33.6442
34.4986
35.4484
36.4863
37.6046
38.7964
40.0555
41.3761
42.7526
44.1802
45.6543
47.171
48.7264
50.3171
51.9401
53.5925
55.2719
57.3902
56.3711
55.3982
54.4701
53.5858
52.7418
51.9335
51.1551
50.3992
49.6585
48.9274
48.2035
47.4871
46.7802
46.0853
45.4019
44.726
44.048
43.3568
42.6458
41.916
41.1756
40.4326
39.6927
38.958
38.2279
37.5007
36.7766
36.0608
35.3635
34.6964
34.0711
33.4969
32.9809
32.5312
32.1592
31.8822
31.7307
31.8907
32.1934
32.6258
33.1778
33.8408
34.6074
35.4701
36.4224
37.4578
38.5699
39.7528
41.0009
42.309
43.6723
45.0862
46.5461
48.0487
49.5905
51.1677
52.7776
54.4176
56.0849
57.8548
56.8505
55.8914
54.9765
54.1032
53.2681
52.466
51.6899
50.9327
50.1878
49.4514
48.7216
47.9995
47.2874
46.5882
45.9026
45.2274
44.5548
43.873
43.1735
42.4543
41.7209
40.9813
40.2411
39.5034
38.7676
38.0331
37.3021
36.58
35.8754
35.199
34.5623
33.9778
33.4587
33.0189
32.673
32.4394
32.3929
32.6172
32.9767
33.458
34.0512
34.7473
35.539
36.4194
37.3831
38.424
39.5368
40.7167
41.9586
43.2581
44.611
46.013
47.4606
48.9502
50.4783
52.0419
53.6386
55.2656
56.9203
58.3472
57.3553
56.4078
55.5036
54.6394
53.8112
53.0125
52.2369
51.477
50.7279
49.9859
49.2511
48.5247
47.8085
47.1044
46.4141
45.7352
45.0612
44.3826
43.6909
42.9824
42.2593
41.5264
40.7882
40.0474
39.3058
38.5659
37.8322
37.1096
36.4041
35.7236
35.08
34.4889
33.9686
33.5363
33.2087
33.0029
33.0623
33.3283
33.7295
34.2502
34.8796
35.6083
36.4277
37.331
38.3121
39.3653
40.4862
41.6697
42.9116
44.2081
45.5554
46.9497
48.3881
49.8672
51.3839
52.9356
54.5199
56.1346
57.7769
58.8776
57.8962
56.9584
56.0622
55.2042
54.38
53.5825
52.8046
52.0401
51.2846
50.5367
49.7962
49.0648
48.3437
47.6339
46.9363
46.249
45.5679
44.8867
44.199
43.5004
42.7894
42.0666
41.3328
40.5914
39.8468
39.105
38.3726
37.655
36.9557
36.2811
35.6422
35.056
34.5422
34.1206
33.8094
33.6262
33.7584
34.0556
34.4849
35.0327
35.6881
36.4411
37.2835
38.2075
39.2066
40.2749
41.4074
42.5993
43.8464
45.1451
46.4919
47.8834
49.3165
50.789
52.2976
53.8402
55.4144
57.0182
58.6496
59.4531
58.4801
57.5496
56.6595
55.8057
54.9823
54.1823
53.3992
52.6274
51.8641
51.1078
50.3603
49.6223
48.8948
48.177
47.4691
46.7698
46.0774
45.3888
44.7011
44.0104
43.3115
42.6004
41.8747
41.1371
40.3941
39.6548
38.9276
38.2189
37.5324
36.8733
36.2511
35.6813
35.1831
34.7771
34.4845
34.3279
34.503
34.8231
35.271
35.8351
36.5058
37.2736
38.1302
39.0679
40.0802
41.1606
42.3036
43.5044
44.7584
46.0621
47.4114
48.8039
50.2359
51.7053
53.2094
54.7463
56.3134
57.9092
59.5316
60.0774
59.1114
58.1869
57.3003
56.4475
55.6219
54.8174
54.0267
53.2453
52.4714
51.7054
50.949
50.2024
49.466
48.7383
48.0174
47.3033
46.5961
45.8964
45.204
44.5164
43.8263
43.1268
42.4126
41.6843
40.9483
40.2151
39.4953
38.7969
38.1257
37.4871
36.8884
36.3429
35.8679
35.4838
35.2147
35.0999
35.3008
35.6379
36.0984
36.6729
37.3517
38.1267
38.9901
39.9342
40.9529
42.0395
43.1886
44.3951
45.6542
46.962
48.3147
49.709
51.1418
52.6104
54.1126
55.6462
57.2092
58.7998
60.4162
60.7525
59.7924
58.8719
57.9872
57.1333
56.3034
55.4914
54.6908
53.8981
53.1126
52.3356
51.5692
50.8131
50.0661
49.3251
48.5888
47.857
47.1326
46.4186
45.7173
45.0269
44.3414
43.6521
42.9509
42.2353
41.5093
40.7838
40.0708
39.3815
38.724
38.1044
37.5297
37.0113
36.5638
36.2063
35.9649
35.9168
36.1369
36.4896
36.9617
37.5443
38.2289
39.0078
39.8735
40.8195
41.8393
42.9273
44.0776
45.2854
46.5457
47.8549
49.2087
50.6037
52.0369
53.5051
55.0065
56.5382
58.0985
59.6856
61.2976
61.4786
60.5231
59.6055
58.7207
57.8638
57.0279
56.2066
55.395
54.5902
53.7931
53.0052
52.2283
51.4614
50.7016
49.9457
49.1915
48.441
47.6981
46.9683
46.255
45.5579
44.8724
44.1893
43.4989
42.7944
42.0774
41.358
40.6509
39.9694
39.3231
38.7192
38.1655
37.6723
37.2526
36.9239
36.7095
36.7446
36.9861
37.3572
37.8437
38.4365
39.1281
39.911
40.7788
41.7251
42.7441
43.8306
44.9791
46.1849
47.4435
48.7508
50.1031
51.4964
52.9278
54.3946
55.894
57.4237
58.9815
60.5654
62.174
62.2548
61.3034
60.387
59.501
58.64
57.7967
56.9656
56.1425
55.3258
54.5171
53.719
52.9312
52.1523
51.3785
50.6061
49.8338
49.0638
48.3025
47.5567
46.8304
46.1249
45.4359
44.7547
44.0688
43.3697
42.6571
41.942
41.241
40.5682
39.9333
39.3439
38.8078
38.3359
37.9416
37.6407
37.4534
37.5617
37.8305
38.2231
38.727
39.3334
40.0349
40.8244
41.6961
42.6441
43.6631
44.748
45.8939
47.0966
48.3516
49.6553
51.0036
52.3934
53.8213
55.2847
56.7806
58.307
59.8619
61.4425
63.0475
63.0803
62.1321
61.2165
60.3283
59.4618
58.6103
57.7688
56.9345
56.1071
55.2882
54.4798
53.6811
52.8898
52.1013
51.3117
50.5207
49.7324
48.9541
48.1933
47.4554
46.741
46.0459
45.3607
44.6727
43.9722
43.26
42.5486
41.8555
41.1942
40.573
39.9984
39.4783
39.0247
38.652
38.3766
38.2169
38.3752
38.6702
39.0841
39.6057
40.2267
40.9398
41.7382
42.6159
43.5676
44.5883
45.6731
46.8176
48.0177
49.2693
50.5689
51.9127
53.2977
54.721
56.1798
57.6713
59.1933
60.7435
62.3201
63.9211
63.9538
63.0081
62.0922
61.2004
60.328
59.4685
58.6174
57.7728
56.9356
56.1073
55.2891
54.4794
53.6752
52.8711
52.0644
51.2558
50.451
49.658
48.8845
48.1359
47.4128
46.7096
46.0166
45.3211
44.6149
43.9012
43.1945
42.5116
41.8643
41.2589
40.7001
40.1955
39.758
39.4041
39.1511
39.0206
39.2077
39.5223
39.9522
40.4879
41.1209
41.8443
42.6508
43.5349
44.4911
45.5147
46.6007
47.7449
48.9435
50.1925
51.4887
52.8283
54.2089
55.6274
57.0809
58.5672
60.0839
61.6291
63.2006
64.7967
64.8735
63.9292
63.0123
62.1175
61.2385
60.371
59.5109
58.6572
57.8113
56.9745
56.147
55.3267
54.5092
53.6895
52.8663
52.0418
51.2225
50.4172
49.6333
48.8755
48.1433
47.431
46.7274
46.0215
45.3081
44.5934
43.8929
43.2223
42.5908
42.0027
41.4606
40.9714
40.5489
40.2107
39.9771
39.8777
40.0793
40.4055
40.845
41.389
42.0294
42.7587
43.5704
44.4587
45.4179
46.4435
47.5306
48.6746
49.8722
51.119
52.4124
53.7487
55.125
56.539
57.9875
59.4687
60.9803
62.5199
64.0861
65.6766
65.8375
64.8945
63.9762
63.0775
62.1928
61.3172
60.4489
59.5877
58.734
57.8893
57.0529
56.2215
55.391
54.5568
53.7183
52.8796
52.0483
51.2328
50.4405
49.6745
48.9337
48.2107
47.4954
46.779
46.0591
45.3452
44.6527
43.9955
43.3809
42.8105
42.2854
41.8115
41.4027
41.0787
40.8609
40.7942
41.0022
41.3341
41.7773
42.3241
42.9663
43.6969
44.5094
45.3982
46.3574
47.3822
48.4681
49.6108
50.8064
52.0509
53.341
54.6737
56.046
57.4553
58.8992
60.3755
61.8818
63.416
64.9769
66.5619
66.8441
65.9016
64.9822
64.0793
63.1886
62.3064
61.4312
60.5629
59.7025
58.8507
58.0055
57.1632
56.3195
55.4714
54.6194
53.769
52.9279
52.1046
51.3054
50.5322
49.7827
49.0491
48.3225
47.5964
46.8721
46.1609
45.478
44.835
44.2374
43.6848
43.1766
42.7178
42.3221
42.0102
41.8053
41.772
41.9821
42.315
42.7581
43.3034
43.9432
44.6707
45.4797
46.3647
47.3201
48.341
49.4227
50.5613
51.7526
52.993
54.2787
55.6066
56.9742
58.3785
59.8174
61.2883
62.7892
64.318
65.8727
67.4525
67.8915
66.9496
66.0283
65.1217
64.2257
63.3376
62.4564
61.582
60.7155
59.8568
59.0028
58.15
57.2939
56.4332
55.5697
54.7094
53.8607
53.0314
52.2266
51.447
50.689
49.9451
49.2081
48.4744
47.748
47.0418
46.3697
45.7412
45.1605
44.6256
44.1338
43.6898
43.3067
43.0055
42.8108
42.8101
43.0204
43.3518
43.7919
44.3327
44.9669
45.6879
46.4899
47.3677
48.3156
49.3291
50.4038
51.5354
52.7195
53.9531
55.232
56.5536
57.9149
59.313
60.7456
62.2101
63.7048
65.2275
66.7764
68.3497
68.978
68.0364
67.1127
66.203
65.3025
64.4095
63.5231
62.6435
61.7715
60.906
60.0436
59.1804
58.313
57.4408
56.5677
55.6998
54.8454
54.0113
53.2021
52.4163
51.6505
50.8974
50.1518
49.4128
48.6871
47.9876
47.3269
46.7134
46.149
45.631
45.1557
44.7258
44.3546
44.0634
43.877
43.9056
44.1157
44.4443
44.8798
45.4142
46.0405
46.7525
47.5452
48.413
49.3509
50.354
51.4186
52.54
53.7145
54.9384
56.2084
57.5213
58.8741
60.2643
61.6887
63.1458
64.6331
66.1486
67.6904
69.2574
70.1019
69.1604
68.2355
67.3221
66.4177
65.5204
64.6295
63.7456
62.8685
61.9966
61.1257
60.2528
59.3751
58.4931
57.612
56.7385
55.8801
55.0429
54.2295
53.4383
52.6649
51.9041
51.1519
50.4104
49.6878
48.9965
48.348
47.7489
47.2007
46.6988
46.2392
45.8232
45.4633
45.1817
45.0024
45.0558
45.2659
45.5913
46.0213
46.5479
47.165
47.8667
48.648
49.5038
50.4293
51.4201
52.4722
53.581
54.7434
55.9556
57.214
58.5158
59.8581
61.238
62.653
64.1006
65.5784
67.0856
68.6194
70.1783
71.2616
70.3198
69.3932
68.4779
67.57
66.6691
65.7745
64.8868
64.0048
63.1261
62.2473
61.3654
60.4783
59.5884
58.7016
57.8238
56.9628
56.123
55.3063
54.5099
53.7305
52.9634
52.207
51.4654
50.7478
50.0658
49.4299
48.8455
48.3126
47.8265
47.3819
46.9792
46.6304
46.3576
46.185
46.2583
46.4687
46.7907
47.2144
47.7327
48.3397
49.0298
49.7987
50.6411
51.5528
52.5296
53.5675
54.6621
55.8106
57.0088
58.254
59.5426
60.8721
62.2395
63.6431
65.0794
66.5468
68.0438
69.5674
71.117
61.7742
60.5122
59.2954
58.1261
57.0081
55.9435
54.936
53.9891
53.1061
52.2905
51.546
50.8769
50.2863
49.7788
49.358
49.0278
48.7923
48.6556
48.7657
48.9576
49.2056
49.4403
49.5793
49.7763
50.0438
50.3718
50.7424
51.105
51.3978
51.5921
51.775
52.0035
52.2913
52.6341
53.0109
53.4015
53.7978
54.2002
54.6132
55.0406
55.4804
55.9291
56.3867
56.8606
57.3618
57.9004
58.4832
59.1136
59.7937
60.524
61.3042
62.1325
63.0084
63.9296
64.8945
65.9016
66.9494
68.0362
69.1602
70.3202
60.5121
59.227
57.987
56.7949
55.6538
54.5665
53.5368
52.5681
51.6641
50.8285
50.0652
49.3787
48.7724
48.2509
47.8188
47.4796
47.2375
47.0981
47.2028
47.3923
47.6354
47.8461
47.9435
48.1305
48.3966
48.7248
49.0923
49.4336
49.6836
49.831
49.9906
50.2112
50.4979
50.8424
51.2171
51.5999
51.986
52.3781
52.7818
53.2019
53.635
54.0761
54.5273
54.9981
55.5006
56.0447
56.6367
57.2804
57.9763
58.7248
59.5251
60.3751
61.2741
62.2196
63.2096
64.2426
65.3167
66.4301
67.5808
68.7682
59.2952
57.9871
56.7237
55.5083
54.3439
53.2336
52.1813
51.1904
50.265
49.4087
48.626
47.9214
47.2989
46.7631
46.3188
45.9699
45.7217
45.5785
45.6758
45.8624
46.0985
46.2791
46.3317
46.513
46.7788
47.1071
47.4689
47.7808
47.9799
48.081
48.2217
48.4365
48.7231
49.0699
49.4405
49.8131
50.187
50.5669
50.9609
51.3733