<VTKFile type="ImageData" version="1.0" byte_order="LittleEndian" header_type="UInt64">
	<ImageData WholeExtent="0 44 0 44 0 44" Origin="-71.2453 -71.2453 -71.2453" Spacing="3.23842 3.23842 3.23842">
		<Piece Extent="0 44 0 44 0 44">
			<PointData Scalars="Scalars_">
				<DataArray type="Float32" Name="Scalars_" format="ascii" RangeMin="0" RangeMax="100">
76.4076
74.5377
72.6678
70.9123
69.1599
67.5308
65.903
64.4147
62.9204
61.5718
60.2147
59.0275
57.8464
56.8471
55.8455
55.0746
54.3018
53.8132
53.3253
53.5441
53.7647
54.0986
54.4325
54.8136
55.1948
55.4965
55.7996
56.0979
56.3935
56.89
57.3866
58.0492
58.703
59.601
60.5106
61.6553
62.7913
64.1666
65.5419
67.1257
68.6965
70.4632
72.2554
72.2554
72.2554
74.5377
72.64
70.7422
68.9593
67.1792
65.5226
63.8672
62.3511
60.8292
59.4523
58.0674
56.8512
55.6409
54.6125
53.5819
52.7842
51.9846
51.4759
50.9678
51.1869
51.4078
51.7506
52.0935
52.4839
52.8745
53.1942
53.5153
53.8203
54.1225
54.6385
55.1546
55.8439
56.5243
57.4547
58.3966
59.578
60.7507
62.1653
63.5805
65.2047
66.8165
68.6238
70.4552
70.4552
70.4552
72.6678
70.7422
68.8166
67.0064
65.1985
63.5144
61.8314
60.2875
58.738
57.3328
55.9201
54.675
53.4355
52.3779
51.3183
50.4938
49.6675
49.1386
48.6103
48.8297
49.051
49.4027
49.7545
50.1543
50.5542
50.8919
51.231
51.5426
51.8515
52.387
52.9225
53.6386
54.3456
55.3084
56.2827
57.5008
58.7101
60.164
61.619
63.2837
64.9365
66.7844
68.6551
68.6551
68.6551
70.9017
68.95
66.9983
65.1658
63.3321
61.6429
59.9343
58.3512
56.7766
55.3359
53.9144
52.6411
51.3635
50.2771
49.1883
48.3357
47.4875
46.9365
46.3886
46.6065
46.8211
47.185
47.549
47.9619
48.3759
48.7355
49.0928
49.4103
49.7329
50.2894
50.8459
51.5912
52.3399
53.338
54.3232
55.5796
56.8434
58.3389
59.8402
61.5459
63.2599
65.1497
67.0213
67.0211
67.0209
69.1489
67.1709
65.1928
63.3343
61.4746
59.7592
58.0252
56.4172
54.8174
53.3511
51.9034
50.6026
49.2977
48.1822
47.0641
46.1832
45.3067
44.7335
44.1634
44.3798
44.593
44.9689
45.3448
45.7715
46.1993
46.5804
46.9592
47.2827
47.6111
48.1892
48.7673
49.5425
50.3209
51.3543
52.3752
53.6707
54.9735
56.5099
58.0521
59.7992
61.5539
63.4844
65.3975
65.3974
65.3972
67.5385
65.5358
63.5331
61.6463
59.7621
57.9981
56.242
54.626
53.0048
51.5282
50.0418
48.7178
47.3957
46.2525
45.1118
44.2013
43.2906
42.6931
42.0939
42.3058
42.5199
42.9123
43.3048
43.7522
44.1987
44.6057
45.0138
45.3421
45.6713
46.2728
46.8744
47.6825
48.4884
49.5598
50.6282
51.9646
53.305
54.8826
56.4542
58.2425
60.0537
62.0229
63.9765
63.9765
63.9765
65.9105
63.8832
61.8559
59.9456
58.0378
56.2517
54.4732
52.836
51.1935
49.695
48.1876
46.8397
45.4934
44.3227
43.1544
42.2145
41.2745
40.6526
40.029
40.2365
40.4459
40.8549
41.264
41.7319
42.1989
42.6322
43.0664
43.3993
43.7329
44.3579
44.9829
45.8238
46.6626
47.772
48.8783
50.2553
51.6361
53.2552
54.8684
56.6978
58.5499
60.5588
62.5525
62.5525
62.5525
64.4037
62.354
60.3043
58.3841
56.4556
54.6478
52.8512
51.2074
49.5491
48.0305
46.5219
45.1563
43.7819
42.5877
41.3901
40.4213
39.4563
38.8073
38.1588
38.3566
38.5541
38.9866
39.4192
39.9181
40.4178
40.8856
41.3525
41.6872
42.0213
42.671
43.3206
44.1943
45.0744
46.2229
47.3712
48.7888
50.1996
51.8587
53.5271
55.3956
57.2559
59.3018
61.3587
61.3587
61.3587
62.9099
60.8377
58.7655
56.8241
54.8748
53.0489
51.2339
49.5739
47.8996
46.3665
44.8429
43.4601
42.0688
40.851
39.63
38.6318
37.6374
36.9616
36.2862
36.4742
36.6621
37.1182
37.5743
38.1042
38.6348
39.1371
39.6385
39.9752
40.3115
40.9856
41.6597
42.568
43.4827
44.6702
45.8575
47.3158
48.7674
50.4667
52.1749
54.0823
55.9822
58.0651
60.1578
60.1578
60.1578
61.5716
59.4789
57.3861
55.4154
53.4478
51.609
49.7795
48.1058
46.4219
44.8798
43.3449
41.9554
40.5698
39.3356
38.1004
37.0742
36.0473
35.3429
34.6398
34.8091
34.9779
35.468
35.958
36.5357
37.1129
37.6664
38.2191
38.5538
38.891
39.5882
40.2853
41.2299
42.1697
43.3939
44.623
46.1185
47.6136
49.3493
51.0831
53.0238
54.9699
57.084
59.1898
59.1898
59.1898
60.2169
58.1037
55.9906
54.004
52.0184
50.1782
48.334
46.6344
44.9408
43.4044
41.8638
40.4669
39.0669
37.8169
36.569
35.5149
34.4596
33.7265
32.9924
33.1429
33.2934
33.8175
34.3416
34.967
35.5931
36.198
36.8012
37.1336
37.4682
38.189
38.9098
39.8801
40.8701
42.1321
43.3892
44.9219
46.4542
48.2258
49.9943
51.9691
53.9474
56.0932
58.2303
58.2303
58.2303
59.0295
56.8976
54.7657
52.763
50.7613
48.9094
47.0538
45.3498
43.6513
42.1172
40.579
39.1869
37.792
36.5358
35.2817
34.2019
33.121
32.3608
31.5998
31.7163
31.8327
32.4037
32.9746
33.6734
34.3728
35.0673
35.7602
36.0835
36.4089
37.1469
37.8848
38.8819
39.8976
41.1881
42.474
44.0346
45.5946
47.3925
49.1873
51.1862
53.1886
55.3563
57.5156
57.5156
57.5156
57.8379
55.6873
53.5367
51.5289
49.511
47.6362
45.769
44.0678
42.3645
40.825
39.2918
37.9045
36.5201
35.2576
33.9923
32.887
31.7821
30.9951
30.2086
30.2907
30.3723
30.99
31.6077
32.3798
33.1514
33.9351
34.7193
35.0339
35.3466
36.1014
36.8562
37.8915
38.9206
40.2391
41.5575
43.1462
44.7341
46.558
48.384
50.4074
52.4265
54.616
56.8068
56.8068
56.8068
56.839
54.6718
52.5046
50.4821
48.4502
46.5663
44.6897
42.9864
41.281
39.7488
38.2228
36.8482
35.4759
34.2129
32.9472
31.813
30.6794
29.877
29.0751
29.1042
29.1328
29.8032
30.4735
31.3435
32.213
33.1778
34.1431
34.435
34.7251
35.4776
36.23
37.267
38.2983
39.622
40.9456
42.5413
44.1362
45.9681
47.8024
49.8342
51.8617
54.0597
56.2591
56.2591
56.2591
55.8478
53.6639
51.48
49.4316
47.3857
45.4968
43.6107
41.9042
40.1968
38.6777
37.155
35.7929
34.43
33.1664
31.9019
30.7388
29.5766
28.7589
27.9414
27.9175
27.8934
28.6164
29.3394
30.3072
31.2745
32.4204
33.5678
33.837
34.1056
34.856
35.6063
36.6409
37.6745
39.0033
40.3343
41.9371
43.536
45.3762
47.2182
49.2583
51.2974
53.5038
55.7116
55.7116
55.7116
55.0767
52.8803
50.6839
48.6258
46.5698
44.6751
42.7832
41.078
39.3718
37.863
36.3507
35.0027
33.6539
32.3809
31.107
29.8959
28.6855
27.8776
27.0699
26.9925
26.9149
27.662
28.4092
29.422
30.4343
31.6247
32.8166
33.2026
33.5879
34.3319
35.076
36.099
37.1208
38.4442
39.7693
41.372
42.9711
44.8146
46.6597
48.7053
50.7501
52.9634
55.1779
55.1779
55.1779
54.3009
52.092
49.8831
47.8184
45.7524
43.8562
41.9585
40.2534
38.5484
37.0467
35.5471
34.2131
32.8772
31.5948
30.3133
29.0541
27.7941
26.996
26.1981
26.0673
25.9364
26.7076
27.4788
28.5367
29.5948
30.8297
32.064
32.5666
33.07
33.8077
34.5455
35.5581
36.5694
37.8873
39.2036
40.806
42.4078
44.2547
46.1046
48.1559
50.2054
52.4257
54.6429
54.6429
54.6429
53.8124
51.5978
49.3833
47.3164
45.2483
43.356
41.4624
39.7731
38.0837
36.6198
35.1577
33.9
32.6405
31.4685
30.2975
29.1076
27.917
27.2101
26.5033
26.4247
26.3459
26.8844
27.4229
28.3498
29.277
30.4512
31.6247
32.1627
32.7016
33.4323
34.163
35.1467
36.1292
37.4276
38.7246
40.319
41.913
43.7598
45.6095
47.6653
49.7195
51.947
54.1715
54.1715
54.1715
53.3232
51.103
48.8829
46.8187
44.7483
42.8523
40.9629
39.2933
37.6197
36.1927
34.7668
33.5854
32.4039
31.3424
30.2805
29.16
28.0397
27.424
26.8086
26.7821
26.7553
27.0611
27.3669
28.163
28.959
30.0723
31.1858
31.7593
32.3332
33.0568
33.7805
34.7347
35.688
36.967
38.2462
39.8326
41.4201
43.2668
45.11
47.1704
49.2341
51.4688
53.7027
53.7027
53.7027
53.5421
51.327
49.1119
47.0513
44.985
43.0926
41.2059
39.5365
37.8637
36.434
35.0052
33.813
32.6207
31.5346
30.4482
29.2967
28.1453
27.4705
26.7959
26.802
26.8079
26.9812
27.1544
27.9017
28.6489
29.7377
30.8266
31.688
32.5497
33.109
33.6684
34.512
35.3548
36.5924
37.8302
39.4052
40.9809
42.8294
44.6748
46.7429
48.8143
51.0592
53.3034
53.3034
53.3034
53.7646
51.5544
49.3442
47.2811
45.219
43.3359
41.4519
39.7788
38.1068
36.6756
35.2435
34.0405
32.8379
31.7271
30.6165
29.4339
28.2511
27.517
26.783
26.8218
26.8606
26.9013
26.9421
27.6406
28.3389
29.4032
30.4676
31.617
32.766
33.161
33.556
34.2889
35.0216
36.2177
37.4144
38.9778
40.5408
42.3911
44.2414
46.3174
48.3927
50.648
52.9038
52.9038
52.9038
54.0983
51.8859
49.6734
47.608
45.5432
43.6572
41.7709
40.098
38.4255
36.9981
35.5702
34.3807
33.1914
32.1092
31.0271
29.8841
28.7409
28.0887
27.4364
27.4754
27.5144
27.5549
27.5955
28.1155
28.6354
29.5861
30.537
31.6436
32.7501
32.9649
33.1796
33.9015
34.6232
35.8233
37.0237
38.5946
40.1651
42.0239
43.8829
45.9679
48.0525
50.3168
52.5819
52.5819
52.5819
54.432
52.2173
50.0026
47.9349
45.8673
43.9784
42.0898
40.4173
38.7443
37.3206
35.897
34.7209
33.5448
32.4913
31.4377
30.3343
29.2307
28.6603
28.0899
28.129
28.1682
28.2085
28.2488
28.5904
28.9319
29.769
30.6063
31.6702
32.7342
32.7687
32.8033
33.514
34.2249
35.4289
36.6331
38.2114
39.7893
41.6567
43.5243
45.6184
47.7122
49.9857
52.2601
52.2601
52.2601
54.8127
52.5919
50.3711
48.2996
46.2276
44.3377
42.4485
40.782
39.1154
37.7115
36.3075
35.1783
34.0493
33.0868
32.1241
31.1022
30.0803
29.6028
29.1254
29.1581
29.1908
29.2241
29.2575
29.5219
29.7862
30.4957
31.2055
32.0932
32.9808
33.2423
33.5038
33.9551
34.4062
35.5201
36.6339
38.165
39.6959
41.538
43.3804
45.4614
47.5414
49.8088
52.0773
52.0773
52.0773
55.1941
52.9672
50.7402
48.6618
46.5855
44.6968
42.8069
41.1471
39.4868
38.1025
36.7184
35.636
34.5532
33.6817
32.8101
31.8699
30.9303
30.5458
30.1611
30.1872
30.2133
30.2397
30.2661
30.4534
30.6407
31.2225
31.8044
32.5159
33.2273
33.7159
34.2045
34.3953
34.5872
35.6107
36.635
38.1189
39.6023
41.4192
43.2371
45.305
47.3726
49.6339
51.8958
51.8958
51.8958
55.4964
53.245
50.9937
48.8848
46.7789
44.8531
42.9255
41.2159
39.506
38.0583
36.611
35.4659
34.3201
33.4699
32.6197
32.1966
31.7743
31.5006
31.2268
31.2513
31.2758
31.3002
31.3247
31.4681
31.6115
32.0756
32.5399
33.0807
33.6215
34.028
34.4344
34.4629
34.4928
35.5143
36.5369
38.0221
39.5067
41.3257
43.1454
45.2156
47.2861
49.5497
51.8133
51.8133
51.8133
55.7969
53.5213
51.2456
49.1108
46.9752
45.0099
43.0444
41.2849
39.5253
38.013
36.503
35.2951
34.0882
33.2594
32.4296
32.5237
32.6177
32.455
32.2929
32.3158
32.3383
32.3609
32.3835
32.483
32.5824
32.9289
33.2747
33.6448
34.0151
34.3393
34.6636
34.532
34.3992
35.4188
36.4376
37.924
39.4124
41.2335
43.0545
45.127
47.2
49.4661
51.73
51.73
51.73
56.0951
53.8126
51.5301
49.3907
47.2497
45.2804
43.3111
41.5492
39.7874
38.2743
36.7635
35.5552
34.3479
33.5198
32.6907
32.9311
33.1714
33.1533
33.1358
33.169
33.202
33.2316
33.2611
33.3343
33.4073
33.5216
33.6352
33.811
33.9869
34.0686
34.1504
34.2467
34.3418
35.384
36.4252
37.9271
39.431
41.2646
43.098
45.181
47.2646
49.5396
51.8126
51.8126
51.8126
56.3914
54.1021
51.8129
49.6684
47.5222
45.5476
43.5746
41.813
40.049
38.5359
37.0232
35.8145
34.6052
33.7778
32.9515
33.3384
33.7251
33.8516
33.9778
34.0215
34.0653
34.1019
34.1385
34.1852
34.2323
34.1144
33.996
33.9776
33.9592
33.7984
33.6376
33.9611
34.2831
35.3478
36.4122
37.9296
39.4471
41.293
43.1377
45.231
47.3298
49.6137
51.8958
51.8958
51.8958
56.8876
54.5963
52.305
50.1544
48.0021
46.0148
44.0295
42.2471
40.4619
38.9171
37.3725
36.121
34.8688
33.9884
33.1092
33.0927
33.076
33.138
33.1996
33.241
33.2826
33.321
33.3594
33.4342
33.5093
33.6554
33.801
34.016
34.2311
34.2578
34.2845
34.6967
35.1071
36.1761
37.245
38.748
40.2511
42.0761
43.9
45.9707
48.0469
50.3086
52.5683
52.5683
52.5683
57.3837
55.0904
52.7971
50.6403
48.4819
46.482
44.4844
42.6812
40.8749
39.2983
37.7218
36.4275
35.1324
34.199
33.2669
32.847
32.427
32.4243
32.4215
32.4605
32.4999
32.5401
32.5803
32.6831
32.7864
33.1964
33.606
34.0545
34.503
34.7172
34.9314
35.4322
35.9311
37.0044
38.0779
39.5665
41.0551
42.8592
44.6624
46.7104
48.7641
51.0035
53.2407
53.2407
53.2407
58.0522
55.7544
53.4564
51.2833
49.1147
47.1019
45.087
43.2557
41.4253
39.8207
38.2136
36.8939
35.5762
34.6355
33.6949
33.3522
33.0095
33.0265
33.0439
33.1395
33.2347
33.3323
33.43
33.5814
33.733
34.1501
34.5657
35.032
35.4994
35.7822
36.065
36.6223
37.1794
38.2526
39.3221
40.7907
42.2622
44.0382
45.8164
47.8335
49.8436
52.0515
54.2619
54.2619
54.2619
58.7163
56.4135
54.1107
51.9314
49.7525
47.7146
45.6826
43.831
41.9765
40.3411
38.7128
37.367
36.0158
35.0682
34.1242
33.8587
33.5917
33.6278
33.6643
33.8167
33.9695
34.1245
34.2794
34.4795
34.6794
35.1034
35.5263
36.0104
36.4963
36.8477
37.1992
37.8074
38.421
39.4938
40.5641
42.0127
43.461
45.2086
46.9557
48.9416
50.9311
53.1078
55.2842
55.2842
55.2842
59.6139
57.3207
55.0274
52.8579
50.6884
48.6603
46.6384
44.7988
42.9562
41.3358
39.7232
38.3967
37.0647
36.1394
35.2179
34.9857
34.7519
34.7946
34.8377
35.0158
35.1946
35.3893
35.584
35.8246
36.065
36.4975
36.9289
37.4242
37.9213
38.312
38.7027
39.3419
39.9864
41.0535
42.118
43.5432
44.9679
46.6838
48.3993
50.3499
52.3043
54.445
56.5852
56.5852
56.5852
60.5039
58.2207
55.9375
53.7758
51.6158
49.6158
47.6037
45.7636
43.9332
42.3348
40.7287
39.4219
38.1186
37.2154
36.3091
36.1104
35.9129
35.9621
36.0107
36.2147
36.4184
36.6531
36.8879
37.1689
37.4511
37.8922
38.3316
38.8378
39.347
39.7773
40.2076
40.8794
41.5471
42.6079
43.6741
45.0761
46.4831
48.1673
49.8376
51.7528
53.6764
55.7814
57.8895
57.8895
57.8895
61.6481
59.3869
57.1257
54.9881
52.852
50.8788
48.8931
47.0821
45.2809
43.7142
42.1395
40.8654
39.5951
38.721
37.8435
37.666
37.4897
37.54
37.5898
37.8046
38.0189
38.2787
38.5384
38.8479
39.1585
39.6072
40.054
40.5675
41.0843
41.5396
41.995
42.6825
43.3656
44.4164
45.4732
46.8502
48.2322
49.8832
51.52
53.3983
55.2848
57.3516
59.4221
59.4221
59.4221
62.7947
60.5555
58.3163
56.2077
54.0957
52.1371
50.1776
48.4012
46.6292
45.0922
43.549
42.3076
41.0687
40.2236
39.3785
39.2223
39.067
39.1185
39.1709
39.3961
39.6205
39.9053
40.19
40.5279
40.8661
41.3222
41.7796
42.301
42.821
43.3012
43.7814
44.4794
45.1887
46.2302
47.27
48.6217
49.9737
51.5915
53.2071
55.0484
56.8902
58.9186
60.9463
60.9463
60.9463
64.1701
61.9612
59.7523
57.6766
55.5975
53.6744
51.7502
50.0112
48.2767
46.7784
45.2734
44.069
42.8668
42.052
41.2372
41.0961
40.9561
41.0058
41.0564
41.2842
41.511
41.8102
42.1095
42.4655
42.8217
43.2832
43.746
44.2716
44.7957
45.2923
45.7889
46.4935
47.2097
48.2384
49.2652
50.5914
51.9177
53.5024
55.0853
56.8894
58.6939
60.6836
62.6725
62.6725
62.6725
65.555
63.3763
61.1975
59.1501
57.1034
55.2022
53.3139
51.6234
49.926
48.4597
47.0013
45.8334
44.6697
43.8853
43.0975
42.9712
42.843
42.8911
42.9401
43.1704
43.4
43.7141
44.0282
44.4023
44.7755
45.2421
45.7112
46.2405
46.7712
47.2843
47.7973
48.5184
49.2306
50.2463
51.2659
52.5666
53.8582
55.4095
56.9577
58.7247
60.508
62.4592
64.401
64.401
64.401
67.1393
64.996
62.8527
60.8426
58.8336
56.9716
55.123
53.4736
51.8171
50.3911
48.9733
47.8427
46.7163
45.961
45.2022
45.0873
44.9704
45.015
45.0606
45.2888
45.5163
45.8378
46.1593
46.5437
46.9271
47.3964
47.8683
48.3993
48.9318
49.4554
49.9789
50.7011
51.4142
52.4157
53.421
54.6963
55.9626
57.4817
58.9969
60.7276
62.4752
64.3881
66.2909
66.2909
66.2909
68.7097
66.602
64.4943
62.528
60.5569
58.7435
56.9346
55.3213
53.7057
52.3261
50.9427
49.8494
48.759
48.0326
47.3066
47.2032
47.0984
47.1395
47.1812
47.4077
47.6346
47.9627
48.2908
48.6856
49.0801
49.5524
50.0257
50.5588
51.0857
51.6196
52.1535
52.8775
53.6025
54.5897
55.5661
56.8165
58.0674
59.5539
61.0434
62.7372
64.4313
66.3057
68.1836
68.1836
68.1836
70.4768
68.4072
66.3377
64.411
62.48
60.7084
58.9407
57.3686
55.7946
54.4554
53.1118
52.0543
50.9997
50.3002
49.601
49.5066
49.411
49.4475
49.4845
49.7065
49.9289
50.2596
50.5902
50.9897
51.389
51.8616
52.3353
52.8679
53.3942
53.9342
54.4743
55.196
55.919
56.8911
57.8523
59.0781
60.3047
61.76
63.2178
64.8766
66.5357
68.3729
70.2141
70.2141
70.2141
72.2612
70.2297
68.1982
66.2976
64.4066
62.6893
60.9622
59.4148
57.8825
56.5881
55.2897
54.2678
53.2388
52.5662
51.8932
51.8081
51.7248
51.7565
51.7871
52.0045
52.2227
52.5562
52.8898
53.2939
53.6959
54.1688
54.6457
55.1777
55.704
56.25
56.796
57.5109
58.2348
59.1923
60.1482
61.3493
62.5481
63.9731
65.4011
67.0257
68.6362
70.436
72.2441
72.2441
72.2441
72.2612
70.2297
68.1982
66.2976
64.4066
62.6893
60.9622
59.4148
57.8825
56.5881
55.2897
54.2678
53.2388
52.5662
51.8932
51.8081
51.7248
51.7565
51.7871
52.0045
52.2227
52.5562
52.8898
53.2939
53.6959
54.1688
54.6457
55.1777
55.704
56.25
56.796
57.5109
58.2348
59.1923
60.1482
61.3493
62.5481
63.9731
65.4011
67.0257
68.6362
70.436
72.2441
72.2441
72.2441
72.2612
70.2297
68.1982
66.2976
64.4066
62.6893
60.9622
59.4148
57.8825
56.5881
55.2897
54.2678
53.2388
52.5662
51.8932
51.8081
51.7248
51.7565
51.7871
52.0045
52.2227
52.5562
52.8898
53.2939
53.6959
54.1688
54.6457
55.1777
55.704
56.25
56.796
57.5109
58.2348
59.1923
60.1482
61.3493
62.5481
63.9731
65.4011
67.0257
68.6362
70.436
72.2441
72.2441
72.2441
74.537
72.6392
70.7415
68.9609
67.182
65.5284
63.8759
62.3645
60.8477
59.4788
58.1016
56.8957
55.6955
54.6796
53.6615
52.8782
52.0929
51.5987
51.1051
51.3289
51.5545
51.8861
52.2178
52.5927
52.9679
53.2452
53.5239
53.8154
54.1043
54.5988
55.0933
55.7513
56.4006
57.3081
58.2271
59.3937
60.5519
61.9576
63.3636
64.9829
66.589
68.394
70.2239
70.2239
70.2239
72.6392
70.7117
68.7841
66.9741
65.1654
63.482
61.7998
60.2583
58.7118
57.3122
55.905
54.6678
53.4361
52.3887
51.3393
50.5269
49.7127
49.1967
48.6813
48.9062
49.1328
49.4729
49.8129
50.1958
50.5788
50.8743
51.1711
51.4691
51.7646
52.28
52.7954
53.4815
54.1588
55.1008
56.0541
57.2601
58.4576
59.9053
61.354
63.0165
64.6665
66.5147
68.3865
68.3865
68.3865
70.7415
68.7841
66.8268
64.9873
63.1488
61.4356
59.7237
58.1522
56.5758
55.1457
53.7084
52.4399
51.1766
50.0978
49.017
48.1757
47.3326
46.7947
46.2575
46.4834
46.7111
47.0596
47.4081
47.7989
48.1898
48.5033
48.8183
49.1229
49.4249
49.9612
50.4975
51.2117
51.9169
52.8935
53.8812
55.1264
56.3632
57.8531
59.3443
61.0501
62.7439
64.6354
66.549
66.549
66.549
68.9488
66.9633
64.9778
63.1122
61.2456
59.5251
57.7851
56.1723
54.5683
53.1003
51.651
50.3518
49.0483
47.938
46.8254
45.9534
45.0856
44.5237
43.9648
44.1902
44.4123
44.7725
45.1327
45.5349
45.9382
46.2738
46.6068
46.9172
47.2326
47.792
48.3513
49.0969
49.8457
50.8602
51.862
53.1488
54.4429
55.9776
57.5186
59.2685
61.0264
62.9625
64.8802
64.88
64.8798
67.1684
65.1543
63.1403
61.2465
59.3516
57.6025
55.8347
54.1945
52.5628
51.0666
49.5886
48.2594
46.9261
45.7839
44.6394
43.7366
42.8379
42.2518
41.6688
41.8936
42.1152
42.4869
42.8586
43.2729
43.6883
44.0452
44.3997
44.7159
45.0371
45.6201
46.2031
46.9805
47.7611
48.8138
49.854
51.183
52.5194
54.0982
55.6833
57.4777
59.2795
61.2592
63.2213
63.2211
63.2209
65.5302
63.4894
61.4485
59.5242
57.6024
55.8015
54.0091
52.3589
50.7033
49.1941
47.6747
46.3197
44.9668
43.7942
42.624
41.6886
40.7532
40.1402
39.5255
39.7471
39.9709
40.3588
40.7467
41.1797
41.6118
41.9941
42.3775
42.698
43.0191
43.6285
44.2378
45.0513
45.8626
46.9568
48.0478
49.4214
50.7997
52.4235
54.0411
55.8802
57.7414
59.7629
61.7694
61.7694
61.7694
63.8746
61.8069
59.7393
57.7891
55.8413
54.0158
52.1984
50.5244
48.8448
47.3112
45.7683
44.3868
43.0072
41.8042
40.6037
39.6361
38.6684
38.0285
37.3868
37.6053
37.8259
38.2299
38.634
39.0856
39.5362
39.9442
40.3531
40.6777
41.0028
41.6384
42.274
43.1235
43.9708
45.1064
46.2389
47.6569
49.0793
50.7483
52.4113
54.2948
56.2003
58.2646
60.3143
60.3143
60.3143
62.3404
60.2481
58.1558
56.1926
54.2215
52.3728
50.5346
48.8509
47.1529
45.5969
44.051
42.6497
41.2397
40.0109
38.7787
37.7791
36.7834
36.1132
35.4434
35.6539
35.8642
36.292
36.7197
37.2003
37.6817
38.1223
38.5621
38.8872
39.2113
39.8754
40.5395
41.4263
42.3189
43.4981
44.6772
46.1403
47.5966
49.3096
51.0318
52.958
54.8764
56.9807
59.0955
59.0955
59.0955
60.819
58.702
56.585
54.5979
52.6036
50.7341
48.8749
47.1724
45.456
43.8833
42.3201
40.8996
39.4706
38.2159
36.9579
35.926
34.8978
34.1974
33.4974
33.7
33.9023
34.3538
34.8053
35.3149
35.8252
36.2985
36.771
37.0967
37.4217
38.1141
38.8065
39.7321
40.6636
41.8863
43.1089
44.6169
46.1184
47.8758
49.6418
51.6104
53.572
55.7163
57.8699
57.8699
57.8699
59.4525
57.3127
55.1729
53.1541
51.1389
49.2534
47.377
45.659
43.9307
42.3473
40.7714
39.3436
37.9199
36.6481
35.3752
34.3126
33.2493
32.5158
31.7836
31.9694
32.1548
32.642
33.1293
33.6854
34.2412
34.7621
35.2821
35.6023
35.9251
36.6454
37.3658
38.3328
39.2953
40.56
41.8293
43.3792
44.929
46.7267
48.5227
50.5281
52.5387
54.717
56.8872
56.8872
56.8872
58.0697
55.9072
53.7447
51.7079
49.6721
47.7822
45.8885
44.1423
42.4018
40.8228
39.2396
37.8039
36.3651
35.0768
33.7906
32.6975
31.6033
30.8365
30.0687
30.2379
30.407
30.93
31.453
32.0558
32.6593
33.2279
33.795
34.1094
34.426
35.1748
35.9236
36.9221
37.9401
39.2477
40.5505
42.1425
43.734
45.5718
47.4065
49.4493
51.4956
53.7084
55.9126
55.9126
55.9126
56.8534
54.6698
52.4862
50.4306
48.3761
46.4719
44.564
42.8112
41.0637
39.4863
37.9048
36.476
35.0442
33.7526
32.4631
31.3432
30.2221
29.4221
28.6212
28.7577
28.8942
29.4698
30.0454
30.7249
31.405
32.0596
32.7127
33.0085
33.3065
34.0775
34.8485
35.8798
36.9295
38.2709
39.6077
41.2319
42.8555
44.723
46.5874
48.6572
50.7304
52.9672
55.1956
55.1956
55.1956
55.6327
53.4281
51.2235
49.1601
47.0868
45.1571
43.235
41.4827
39.7281
38.1447
36.5678
35.1457
33.7264
32.4314
31.1335
29.9869
28.8407
28.0076
27.175
27.2786
27.3817
28.0098
28.6379
29.3941
30.1497
30.8898
31.6305
31.9082
32.184
32.977
33.7699
34.8452
35.9144
37.289
38.6637
40.3203
41.9762
43.8732
45.7722
47.8691
49.9615
52.2222
54.4843
54.4843
54.4843
54.6046
52.3811
50.1576
48.0768
45.9867
44.045
42.1105
40.3537
38.5945
37.018
35.4479
34.0426
32.6396
31.351
30.0599
28.883
27.7066
26.8525
25.9989
26.0467
26.0939
26.7871
27.4804
28.353
29.2251
30.178
31.1315
31.3422
31.5511
32.3426
33.1342
34.213
35.2861
36.6677
38.0493
39.7146
41.3789
43.2851
45.1936
47.3
49.4018
51.6717
53.9431
53.9431
53.9431
53.5841
51.3416
49.099
46.9897
44.8829
42.9333
40.9864
39.2238
37.4602
35.8964
34.3291
32.9405
31.5511
30.269
28.9859
27.7788
26.5724
25.6974
24.8226
24.8146
24.8063
25.5646
26.3229
27.3119
28.3004
29.4663
30.6336
30.7772
30.9202
31.7105
32.5009
33.579
34.6562
36.0448
37.4356
39.1094
40.7794
42.6951
44.6126
46.7281
48.8427
51.1218
53.402
53.402
53.402
52.7863
50.5291
48.2718
46.1502
44.0308
42.0725
40.1169
38.3529
36.5878
35.0332
33.4752
32.1041
30.7323
29.4452
28.1573
26.8854
25.6141
24.7533
23.8925
23.8224
23.7522
24.5404
25.3285
26.3771
27.4252
28.6463
29.8688
30.1379
30.4062
31.1822
31.9583
33.0243
34.0893
35.4739
36.8605
38.5358
40.2077
42.1281
44.0501
46.1722
48.2935
50.5803
52.8682
52.8682
52.8682
51.9838
49.7119
47.44
45.3091
43.1772
41.2144
39.2503
37.4835
35.7168
34.1684
32.6219
31.2684
29.9129
28.6208
27.3297
25.993
24.6556
23.8089
22.9623
22.8301
22.6979
23.516
24.334
25.4422
26.5505
27.827
29.1027
29.497
29.8921
30.6538
31.4155
32.4708
33.5246
34.9053
36.2846
37.9613
39.6375
41.5628
43.491
45.6199
47.7469
50.0415
52.333
52.333
52.333
51.4751
49.1958
46.9166
44.7817
42.6456
40.6845
38.722
36.9681
35.2142
33.6999
32.1875
30.9089
29.6286
28.4571
27.2865
26.0232
24.7592
24.0163
23.2735
23.197
23.1205
23.6812
24.242
25.2174
26.1931
27.414
28.6342
29.0762
29.5191
30.2699
31.0207
32.0452
33.0684
34.4309
35.7921
37.4629
39.1334
41.0605
42.9904
45.1255
47.2588
49.5617
51.8616
51.8616
51.8616
50.9657
48.6792
46.3927
44.2586
42.1182
40.1511
38.1904
36.4532
34.7121
33.2313
31.7516
30.548
29.3444
28.2934
27.2422
26.0523
24.8627
24.2236
23.5847
23.5639
23.5429
23.8464
24.1499
24.9926
25.8353
27.0006
28.1661
28.6559
29.146
29.886
30.6259
31.6191
32.6113
33.9557
35.3003
36.9652
38.6312
40.5601
42.4856
44.6267
46.7712
49.0825
51.3931
51.3931
51.3931
51.185
48.9043
46.6235
44.4937
42.3583
40.3954
38.4383
36.7022
34.9627
33.4804
31.999
30.7864
29.5738
28.499
27.424
26.2022
24.9806
24.2725
23.5647
23.5738
23.5828
23.7548
23.9269
24.7164
25.506
26.6467
27.7874
28.6167
29.4462
29.9706
30.495
31.3739
32.2519
33.5585
34.8653
36.5227
38.181
40.115
42.0458
44.1972
46.3518
48.6751
50.9978
50.9978
50.9978
51.4078
49.1327
46.8577
44.7262
42.5957
40.6428
38.6892
36.9501
35.2123
33.7297
32.2463
31.0248
29.8036
28.7049
27.6064
26.3527
25.0987
24.3216
23.5446
23.5837
23.6228
23.6634
23.7039
24.4404
25.1767
26.2928
27.4091
28.5778
29.7462
30.055
30.3639
31.1283
31.8924
33.1612
34.4303
36.0803
37.7298
39.6689
41.6079
43.7696
45.9307
48.2661
50.6021
50.6021
50.6021
51.7504
49.4726
47.1948
45.0602
42.9262
40.9694
39.0123
37.2723
35.5327
34.0524
32.5718
31.3625
30.1533
29.0835
28.0137
26.8018
25.5897
24.9105
24.2313
24.2705
24.3098
24.3502
24.3906
24.9208
25.451
26.4474
27.4439
28.5774
29.7108
29.8376
29.9645
30.7217
31.4789
32.7536
34.0286
35.6877
37.3464
39.2958
41.2452
43.4175
45.5893
47.9351
50.2816
50.2816
50.2816
52.093
49.8125
47.532
45.3943
43.2567
41.2959
39.3354
37.5944
35.853
34.3752
32.8974
31.7002
30.503
29.462
28.4209
27.2509
26.0808
25.4994
24.918
24.9574
24.9967
25.037
25.0773
25.4013
25.7252
26.6019
27.4788
28.5771
29.6755
29.6203
29.565
30.3152
31.0654
32.3461
33.6269
35.2951
36.9631
38.9227
40.8825
43.0653
45.2478
47.6041
49.9611
49.9611
49.9611
52.4831
50.195
47.9069
45.7636
43.6198
41.6559
39.6926
37.9553
36.2178
34.7567
33.2955
32.1424
30.9895
30.0471
29.1047
28.0297
26.9547
26.48
26.0053
26.037
26.0687
26.1009
26.1331
26.3786
26.6239
27.3504
28.0772
28.977
29.8766
30.0997
30.3228
30.7678
31.2127
32.404
33.5954
35.2199
36.8443
38.782
40.7199
42.8924
45.0639
47.4161
49.7695
49.7695
49.7695
52.8738
50.5781
48.2824
46.1305
43.9806
42.0157
40.0498
38.3165
36.5828
35.1383
33.6939
32.5849
31.4753
30.6318
29.7881
28.8083
27.8291
27.461
27.0927
27.1167
27.1407
27.1648
27.1889
27.3558
27.5226
28.099
28.6756
29.3767
30.0777
30.5792
31.0807
31.2196
31.3595
32.4615
33.5641
35.145
36.7255
38.6413
40.558
42.7201
44.8819
47.2302
49.579
49.579
49.579
53.1941
50.8741
48.5542
46.3723
44.1932
42.1919
40.1888
38.4054
36.6217
35.1089
33.5964
32.4064
31.2158
30.3527
29.4895
29.0757
28.6625
28.4132
28.1636
28.1868
28.2099
28.2329
28.2559
28.3822
28.5085
28.9582
29.4081
29.9292
30.4502
30.8661
31.282
31.2704
31.26
32.3618
33.4646
35.0474
36.6298
38.548
40.4669
42.6316
44.7965
47.1474
49.4981
49.4981
49.4981
53.5126
51.1685
48.8243
46.617
44.4087
42.3686
40.3283
38.4946
36.6609
35.0784
33.4983
32.2275
30.9577
30.0749
29.1912
29.3433
29.4954
29.3649
29.2348
29.2572
29.2792
29.3011
29.323
29.4088
29.4945
29.8176
30.14
30.481
30.8221
31.1523
31.4825
31.3225
31.1613
32.263
33.364
34.9486
36.5352
38.456
40.3766
42.5438
44.7116
47.0651
49.4163
49.4163
49.4163
53.8174
51.4663
49.1153
46.9034
44.6899
42.6458
40.6017
38.7655
36.9294
35.3459
33.7646
32.4931
31.2226
30.3405
29.4575
29.7467
30.0357
30.0399
30.0447
30.0785
30.112
30.1422
30.1724
30.2356
30.2987
30.3791
30.4587
30.6159
30.7731
30.8569
30.9406
31.0268
31.1117
32.2359
33.3591
34.9596
36.562
38.4955
40.4288
42.6068
44.7855
47.148
49.5085
49.5085
49.5085
54.1203
51.7624
49.4045
47.1876
44.969
42.9198
40.8721
39.0359
37.1974
35.6136
34.0302
32.7579
31.4851
30.6038
29.7236
30.1499
30.576
30.7149
30.8536
30.8989
30.9445
30.983
31.0215
31.062
31.1029
30.9406
30.7778
30.7513
30.7247
30.5619
30.3991
30.7307
31.0609
32.2075
33.3537
34.9699
36.5862
38.5324
40.4774
42.666
44.8599
47.2315
49.6013
49.6013
49.6013
54.636
52.2774
49.9189
47.6972
45.4738
43.4128
41.3537
39.4966
37.6369
36.0192
34.4021
33.0833
31.7639
30.8272
29.8917
29.887
29.8823
29.9504
30.0183
30.0606
30.1031
30.1425
30.1818
30.2538
30.3263
30.4562
30.5857
30.8009
31.016
31.0491
31.0823
31.5171
31.9503
33.0982
34.2459
35.843
37.44
39.3607
41.2805
43.4426
45.6101
47.9563
50.3007
50.3007
50.3007
55.1516
52.7925
50.4334
48.2068
45.9787
43.9059
41.8354
39.9573
38.0763
36.4249
34.7739
33.4088
32.0427
31.0506
30.0597
29.6241
29.1885
29.1859
29.1831
29.2222
29.2617
29.3019
29.3421
29.4456
29.5496
29.9719
30.3937
30.8505
31.3073
31.5364
31.7654
32.3035
32.8396
33.9888
35.1381
36.716
38.2938
40.189
42.0835
44.2192
46.3603
48.6812
51
51
51
55.8469
53.4846
51.1222
48.8802
46.6427
44.5569
42.4692
40.5616
38.655
36.9726
35.2877
33.8923
32.4988
31.4952
30.4918
30.1446
29.7975
29.8164
29.8357
29.9382
30.0404
30.1454
30.2503
30.4097
30.5694
30.9993
31.4278
31.9033
32.38
32.6777
32.9754
33.5729
34.1701
35.3152
36.4566
38.009
39.5641
41.426
43.2901
45.3902
47.4833
49.7689
52.0569
52.0569
52.0569
56.5378
54.1718
51.8059
49.5584
47.3116
45.201
43.0961
41.167
39.2349
37.5182
35.8088
34.3825
32.9508
31.9362
30.9251
30.6664
30.406
30.446
30.4863
30.6525
30.8192
30.9887
31.1582
31.3737
31.5889
32.0264
32.4628
32.9572
33.4532
33.8196
34.1859
34.8372
35.494
36.6347
37.7728
39.2997
40.8263
42.6545
44.482
46.5462
48.6141
50.8647
53.1153
53.1153
53.1153
57.4678
55.1135
52.7592
50.5237
48.2885
46.1902
44.0979
42.1836
40.2664
38.5684
36.8784
35.4761
34.0684
33.0811
32.0975
31.8733
31.6474
31.6934
31.7397
31.9315
32.124
32.335
32.5461
32.8046
33.063
33.5093
33.9545
34.4604
34.9679
35.3731
35.7782
36.4593
37.1459
38.2765
39.4045
40.9028
42.4006
44.1919
45.9827
48.0071
50.0352
52.2458
54.4564
54.4564
54.4564
58.3906
56.0485
53.7063
51.4805
49.2569
47.1893
45.1093
43.1973
41.2952
39.6228
37.943
36.5653
35.1909
34.2306
33.2674
33.0778
32.8895
32.9414
32.9928
33.2103
33.4276
33.6804
33.9332
34.2348
34.5376
34.9928
35.4462
35.9633
36.4835
36.9277
37.3718
38.0845
38.793
39.913
41.0384
42.5081
43.983
45.7375
47.4781
49.4624
51.4553
53.6264
55.8003
55.8003
55.8003
59.5716
57.254
54.9364
52.7376
50.5411
48.5038
46.4538
44.5752
42.7066
41.0712
39.428
38.0888
36.7533
35.8277
34.8988
34.7306
34.5637
34.6158
34.6674
34.8941
35.1204
35.3979
35.6753
36.0052
36.3363
36.7987
37.2593
37.7835
38.311
38.7796
39.2483
39.9743
40.6959
41.8018
42.9136
44.3536
45.7988
47.5155
49.2178
51.161
53.1126
55.2418
57.3744
57.3744
57.3744
60.7542
58.4612
56.1681
54.002
51.8327
49.8137
47.7935
45.9539
44.1188
42.5184
40.912
39.6113
38.3129
37.422
36.5309
36.3842
36.2385
36.2909
36.3441
36.5797
36.8144
37.1164
37.4184
37.7766
38.1351
38.6046
39.0755
39.6075
40.1379
40.6307
41.1236
41.8579
42.6035
43.6959
44.7864
46.1964
47.6069
49.2857
50.9628
52.8647
54.7668
56.8539
58.9405
58.9405
58.9405
62.1688
59.909
57.6491
55.5192
53.3859
51.4064
49.4254
47.6277
45.8346
44.278
42.7151
41.4568
40.2007
39.3449
38.489
38.3573
38.2267
38.2763
38.3268
38.563
38.7983
39.1137
39.4291
39.804
40.1792
40.6532
41.1287
41.6644
42.1983
42.707
43.2156
43.9539
44.7038
45.7798
46.8535
48.2339
49.6145
51.2561
52.8964
54.7575
56.6185
58.6635
60.7079
60.7079
60.7079
63.5924
61.3655
59.1385
57.0415
54.944
52.9897
51.0484
49.3037
47.5523
46.0328
44.5215
43.3053
42.0932
41.2726
40.4486
40.3315
40.2127
40.2597
40.3076
40.5445
40.7807
41.1098
41.4389
41.8306
42.2215
42.6999
43.1808
43.7197
44.2597