<VTKFile type="ImageData" version="1.0" byte_order="LittleEndian" header_type="UInt64">
	<ImageData WholeExtent="0 59 0 59 0 59" Origin="-67.8416 -67.8416 -67.8416" Spacing="2.29971 2.29971 2.29971">
		<Piece Extent="0 59 0 59 0 59">
			<PointData Scalars="Scalars_">
				<DataArray type="Float32" Name="Scalars_" format="ascii" RangeMin="0" RangeMax="100">
98.7004
100000
100000
100000
75.5983
74.0651
72.622
71.0861
69.5664
68.0849
66.682
65.4033
64.276
63.2752
62.4124
61.6531
60.8886
60.4056
100000
88.8408
87.0485
85.5221
84.313
100000
108.721
106.663
105.243
104.479
100000
83.7223
81.461
79.411
77.4956
75.697
74.0063
72.4359
71.0683
70.0277
69.2977
68.9499
69.3204
69.3888
69.6867
80.5669
79.121
78.0839
77.6731
105.575
103.567
101.73
100.005
98.3878
96.8737
95.4161
93.972
92.5048
91.0042
89.4532
87.8314
86.6808
96.439
95.3878
122.486
120.887
74.5666
72.9053
71.5374
69.9415
68.352
66.7859
65.3143
63.9698
62.7757
61.7131
60.8156
60.0564
59.4025
58.997
100000
87.8627
85.7744
83.9597
82.3958
80.97
79.655
105.321
103.464
102.218
101.845
100000
81.3033
79.0559
77.058
75.2748
73.6828
72.2094
70.776
69.4273
68.7986
67.8868
67.984
67.7469
68.3388
69.8029
78.3946
76.9236
76.0784
104.536
102.43
100.506
98.7056
97.0289
95.4796
94.0142
92.5756
91.1012
89.5765
88.0171
86.4018
85.2541
95.2158
100000
120.887
118.625
72.7758
71.7066
70.5545
68.995
67.3308
65.6233
64.0803
62.6459
61.3791
60.2589
59.2972
58.5351
57.9393
57.8416
57.6497
100000
84.917
82.7808
81.0385
79.3757
78.0462
76.9989
102.231
100.594
99.5832
82.4894
80.2281
77.9667
75.7053
73.9987
73.0206
69.698
68.9772
68.3348
67.8568
67.0981
66.658
66.2708
100000
80.5463
77.4481
76.1031
100000
103.711
101.45
99.3954
97.5027
95.7424
94.1347
92.6474
91.2176
89.7472
88.1955
86.6148
84.9887
83.8321
100000
100000
100000
117.273
72.7043
71.605
100000
100000
100000
64.6863
63.0637
61.4731
60.1348
58.9285
57.8768
57.0729
56.4617
100000
100000
100000
103.298
100000
100000
78.3108
76.6885
75.5614
74.6361
99.5832
98.4063
100000
102.525
78.0993
75.8418
73.999
72.2325
70.5807
69.3059
68.0131
66.8592
65.8714
65.0339
64.3238
91.4784
89.6929
88.1239
86.7914
85.5558
84.5849
86.8463
98.4757
96.4352
94.554
92.8556
91.3169
89.8818
88.4191
86.833
85.219
83.5657
82.3951
108.828
106.566
104.305
100000
100000
100000
100000
58.12
57.1976
100000
100000
60.5441
59.1411
57.8382
56.6228
55.7681
55.1889
100000
47.7636
47.3078
100000
100000
45.6548
44.9691
75.7051
74.119
72.9936
100000
100000
75.4043
100000
97.2004
100000
100000
72.3737
69.6081
68.7649
67.3496
66.1813
100000
100000
100000
90.0906
88.0643
86.2969
84.7711
83.513
82.6612
100000
97.794
95.5326
93.5067
91.6802
90.0469
88.5692
87.1016
85.4673
83.7972
82.1004
80.928
100000
100000
102.044
100000
60.1644
58.6556
57.2757
56.0197
54.9362
53.996
53.1814
100000
100000
100000
55.5441
54.5699
54.0045
100000
45.5487
45.0464
44.6582
100000
43.4866
42.851
42.7319
100000
100000
100000
74.5976
73.1429
71.9685
100000
100000
67.8882
67.1954
67.6074
67.8873
66.7003
100000
76.8783
75.8024
100000
89.0864
86.825
84.8323
83.0954
81.5915
80.3998
79.7907
100000
94.9128
92.6514
90.6451
88.8623
87.2676
85.7221
83.9908
82.2213
80.4942
79.4325
83.3031
82.3953
100000
60.3262
58.5896
56.9752
55.5016
54.1519
52.9256
51.81
50.748
49.7348
48.9791
48.5643
100000
53.6547
100000
100000
43.6452
42.9452
42.3833
41.857
41.299
40.7029
40.4738
100000
76.516
74.5996
72.8093
71.1017
69.5463
68.1108
66.8153
65.7349
65.0805
65.5246
66.7905
66.8245
69.1023
74.8891
73.541
72.423
100000
86.0009
83.7395
81.7877
80.0704
78.6246
77.4958
76.9731
100000
92.1947
89.9333
87.6013
85.8084
84.0964
82.307
80.6251
79.2235
77.9356
81.2323
80.1339
100000
59.0104
57.1527
55.4304
53.8623
52.4359
51.1516
49.9807
48.8998
47.9013
47.0287
46.2702
45.556
100000
43.549
42.6607
41.7231
40.9289
40.3019
39.6655
39.0895
38.6416
38.227
38.8353
39.3566
73.2184
71.31
69.541
67.8994
66.3984
65.0461
63.8752
62.9876
63.3068
82.8649
69.0859
100000
100000
100000
100000
69.311
100000
83.0859
80.8245
78.8335
77.1663
75.78
74.6556
73.7216
73.728
75.3271
87.1217
85.3601
83.802
82.2708
80.6383
78.6698
76.4875
79.2554
78.1333
100000
57.8792
55.8504
54.0121
52.3461
50.827
49.4528
48.2086
47.0493
46.0097
45.084
44.2018
43.2719
42.2713
41.3809
40.5786
39.8336
39.0656
38.4382
37.813
37.2188
36.7106
36.3052
36.6573
37.1562
72.0442
70.0024
68.1197
66.3811
64.7588
63.2904
61.9849
60.8673
100000
81.1077
79.1804
77.5052
76.0202
74.6514
73.512
100000
100000
100000
100000
77.8634
75.9426
74.4217
73.1961
72.1917
71.4667
73.728
86.0518
84.0344
82.4144
80.7882
79.0973
77.2277
75.1567
77.2921
76.1556
100000
56.9566
54.6953
52.7275
50.9582
49.3549
47.9181
46.6224
45.4482
44.361
43.3914
42.4672
41.5614
40.6418
39.6605
38.8167
38.0083
37.2842
36.6348
35.9964
35.4288
34.9754
34.5665
34.7671
34.9506
35.2028
68.847
66.8202
64.9741
63.24
61.6574
60.2168
58.9271
57.7419
60.0033
77.6624
75.7835
74.1134
72.6041
71.2506
69.9904
69.7979
75.4787
73.8796
100000
74.9411
73.2298
71.9853
71.0775
100000
100000
84.6327
82.9812
81.471
80.0737
79.3254
75.5236
74.0652
75.4889
74.1496
73.0613
100000
53.7276
51.5998
49.7231
48.0348
46.5197
45.1503
43.9201
42.8227
41.816
40.8362
39.8829
38.9342
38.0013
37.1728
36.3573
35.603
34.939
34.2916
33.7353
33.3303
32.965
33.0675
33.0973
32.9556
32.6866
32.8876
63.682
61.8582
60.1862
58.6609
57.3177
56.2621
100000
76.5891
74.466
72.6428
71.0062
69.535
68.3353
67.5448
73.8796
71.8639
70.4883
100000
72.3169
71.1957
100000
100000
115.502
83.3459
81.9655
80.2684
78.6825
77.2492
100000
100000
73.8112
72.3865
71.1667
100000
52.9094
50.648
48.6646
46.9003
45.3097
43.8632
42.5772
41.4192
40.3835
39.378
38.3948
37.4444
36.5189
35.6537
34.8232
34.0542
33.3775
32.7387
32.1935
31.8027
31.4637
31.4397
31.457
31.2976
31.2288
31.2642
31.0225
31.24
31.1544
31.2403
31.2318
54.3631
53.1592
52.1267
73.4912
71.4451
69.6194
67.9525
66.4918
65.3186
100000
70.5976
68.8685
100000
74.5783
100000
117.355
115.093
113.241
82.7873
81.2814
79.8329
78.5322
77.3383
105.874
104.702
72.1608
70.6438
69.2462
68.9293
100000
49.8019
47.6567
45.8111
44.1319
42.6119
41.2572
40.0745
39.0234
37.9965
36.9958
36.0246
35.0895
34.1987
33.3604
32.5832
31.8771
31.2553
30.7333
30.328
30.0591
30.0869
30.1215
30.1185
30.0838
30.094
29.8807
30.0578
30.1127
30.0877
30.0492
52.7334
51.3841
50.206
49.158
70.5905
68.6256
66.7504
65.1085
63.693
62.5384
61.642
67.7949
100000
76.8362
76.7137
100000
113.796
111.535
109.933
108.593
107.424
106.361
105.401
103.611
102.441
70.5546
68.9236
67.3918
67.4352
100000
48.9097
46.7627
45.027
43.3153
41.7216
40.301
39.0765
38.004
36.9547
35.9308
34.9365
33.9798
33.0702
32.2166
31.4279
30.7138
30.0872
29.5642
29.1619
28.8978
28.9542
28.9637
28.9645
28.9639
28.9192
28.6527
28.8805
28.9581
28.9542
28.9037
51.2925
49.8466
48.5685
47.5045
46.7742
100000
65.8314
63.9753
62.3875
61.0141
59.8805
59.1384
100000
76.3781
74.7136
73.4706
72.6906
109.944
108.177
106.678
105.395
104.203
102.956
101.564
100.371
69.07
67.2218
65.749
100000
50.2085
48.1198
46.0265
44.249
42.5145
40.8573
39.3735
38.1111
37.0094
35.9354
34.8877
33.8707
32.8936
31.9672
31.1011
30.3037
29.5843
28.9554
28.4335
28.0367
27.7808
27.8437
27.8464
27.8436
27.8418
27.7719
27.4797
27.7436
27.8326
27.8502
27.8033
50.0248
48.5085
47.1305
45.9785
45.3037
52.7578
100000
63.129
61.3518
59.7482
58.5121
36.1872
76.6668
74.8468
73.1648
71.8881
71.4118
108.518
106.583
104.99
103.602
102.345
101.062
99.6234
98.396
71.3314
100000
64.2736
100000
49.2135
47.2186
45.3297
43.476
41.698
40.0225
38.5014
37.1908
36.0457
34.9447
33.8734
32.8354
31.8403
30.8999
30.0241
29.2211
28.4991
27.8696
27.3498
26.9601
26.7163
26.7663
26.7622
26.7584
26.7564
26.6759
26.3987
26.6644
26.7457
26.7867
26.7606
48.9041
47.3248
45.8743
44.6824
100000
50.4965
46.7635
100000
60.4355
58.8314
34.2414
35.3813
75.3238
73.3352
71.6676
70.304
100000
107.296
105.035
103.366
101.932
100.605
99.2513
97.7276
96.4848
100000
73.7452
100000
50.8707
48.6093
46.5506
44.5759
42.6961
40.919
39.2432
37.6917
36.301
35.1228
33.9922
32.8984
31.8421
30.8323
29.8813
28.9994
28.194
27.4719
26.8429
26.3244
25.94
25.7095
25.7365
25.7248
25.7216
25.719
25.6718
25.4429
25.6559
25.7072
25.7939
25.8007
47.8844
46.2389
44.7381
43.4042
42.3136
42.2481
44.5057
100000
62.2381
60.8724
59.899
100000
74.2466
72.1448
70.2952
68.6929
67.5295
100000
103.528
101.794
100.306
98.9146
97.4857
95.8836
94.6302
72.8639
71.4838
70.4226
100000
48.0338
45.7724
43.748
41.8568
40.0738
38.3993
36.848
35.4422
34.2328
33.0888
31.9737
30.9029
29.8821
28.9245
28.0406
27.2373
26.5188
25.8915
25.3721
24.9888
24.7673
24.7378
24.7412
24.7413
24.7369
24.713
24.6094
24.7129
24.7266
24.6636
24.785
24.6778
45.2585
43.6834
42.247
40.963
39.9884
100000
100000
100000
70.6287
68.4974
67.0262
100000
71.2684
69.2535
67.5538
66.3288
100000
102.022
100.254
98.7206
97.2665
95.7597
94.0828
92.8348
71.1405
69.6312
68.3277
67.2677
100000
44.8108
42.7642
40.6748
39.0775
37.4571
36.0029
34.6139
33.3958
32.2312
31.1097
30.0282
29.0003
28.0402
27.1593
26.3637
25.6546
25.0328
24.5126
24.1029
23.9062
23.8064
23.8135
23.8138
23.8138
23.8136
23.8135
23.8133
23.8136
23.5409
23.8744
24.0452
44.3923
42.6619
41.1504
39.7893
38.7261
100000
56.8362
55.1794
54.1067
67.0262
65.0048
63.511
100000
68.5449
66.7675
65.514
100000
100.46
98.7024
97.1303
95.6052
94.0185
92.3099
91.1028
69.5765
67.938
66.4836
65.2073
64.213
100000
42.8655
40.6064
38.642
36.9193
35.3124
33.8522
32.6534
31.4461
30.3151
29.2264
28.1947
27.2355
26.3618
25.5802
24.8884
24.2801
23.7416
23.3121
23.1324
22.9566
22.9685
22.9689
22.969
22.9685
22.9684
22.968
22.9686
23.1513
30.6018
100000
43.6039
41.5944
39.9226
38.5107
37.2674
38.9287
55.1088
53.4455
52.236
51.9679
63.8209
61.94
34.1196
100000
67.3553
100000
100.828
98.931
97.2422
95.6415
94.042
92.377
90.6337
89.4356
68.1393
66.3714
64.8074
63.3933
62.1969
61.288
100000
39.9784
37.806
35.7084
34.4581
33.2014
31.9229
30.7373
29.599
28.5057
27.4718
26.5143
25.6486
24.8825
24.2113
23.5977
23.0647
22.5887
22.3257
22.267
22.2679
22.2685
22.2688
22.268
22.2678
22.2672
22.2681
22.0723
28.3404
26.8551
26.2063
40.6582
38.7528
37.2451
24.7452
37.3946
54.1326
52.2698
50.7567
30.0482
100000
61.3052
33.1571
100000
103.873
101.546
99.5011
97.5729
95.8289
94.1432
92.43
90.66
88.9149
87.8307
66.8616
64.9416
63.2648
61.7219
60.3917
59.3524
100000
40.0931
37.8346
35.8805
34.0336
32.5185
31.3011
30.1178
28.9741
27.8775
26.8409
25.882
25.0175
24.2551
23.5809
22.9368
22.4854
24.1353
24.0009
24.155
24.1556
24.156
24.1561
24.1556
24.1556
24.1552
24.5026
27.4935
24.2795
23.1075
22.1399
22.3502
22.8585
23.448
24.2038
24.9035
25.7663
26.7263
27.7596
100000
100000
63.5666
100000
94.1927
100000
100.271
98.0099
96.0501
94.2055
92.3912
90.5839
88.8619
87.4597
86.2925
65.7801
63.6985
61.8831
60.1857
58.7117
57.5095
100000
39.2587
37.1568
35.2292
33.4562
31.9885
30.7769
29.6061
28.4564
27.3585
26.3185
25.3534
24.4785
23.6936
22.9511
22.0972
22.8856
22.6435
22.3016
22.252
22.2544
22.2549
22.2553
22.2545
22.2543
22.2537
22.2546
22.2623
22.3455
22.535
22.4429
21.8519
22.5226
23.1018
23.7286
24.4638
25.3119
26.2562
27.2763
88.0715
86.4347
84.9227
83.8094
100000
100000
100000
96.8398
94.7713
92.8293
90.8931
88.9406
87.1018
85.7036
84.8278
64.8965
62.6833
60.7418
58.7949
57.164
55.6702
54.5424
39.259
36.9976
34.7419
32.9317
31.4864
30.385
29.1958
28.0634
26.968
25.9274
24.9569
24.0716
23.2599
22.5343
100000
22.511
22.988
22.8533
22.8365
22.8377
22.838
22.8382
22.8378
22.8377
22.8373
22.8378
22.8414
22.948
22.8799
22.5379
21.8756
22.4421
22.8983
23.4547
24.1558
24.9854
25.9151
26.9209
86.5109
84.7531
83.1523
81.8294
80.6359
99.761
97.7375
95.8002
93.8377
91.94
90.0754
88.1424
86.1599
84.3945
83.4449
80.6858
61.3655
59.196
57.6611
55.9278
54.1411
52.8383
100000
36.7907
34.5389
32.6855
31.1886
30.0466
28.927
27.8105
26.7216
25.6872
24.7052
23.7952
22.9591
22.2059
24.8704
22.1952
22.8418
23.1871
23.236
23.237
23.2371
23.2371
23.237
23.237
23.2369
23.237
23.2379
23.2592
23.0887
22.6934
22.3016
22.5254
22.7931
23.3059
23.9985
24.8203
25.7339
26.7169
85.4504
83.5408
81.8982
80.5882
79.5785
98.6111
96.489
94.5252
92.5808
90.6955
88.8198
86.8946
84.9878
83.3887
82.1496
79.036
77.979
60.0935
58.8983
100000
52.7649
51.1713
49.9069
100000
35.178
33.0089
31.2991
30.1196
28.9673
27.8466
26.7667
25.7399
24.7621
23.8534
23.0215
22.2881
24.793
22.2792
22.8844
23.2544
23.3195
23.3195
23.3195
23.3195
23.3195
23.3195
23.3195
23.3195
23.3193
23.2924
23.0917
22.7115
22.364
22.5424
22.5945
23.1166
23.852
24.7223
25.6945
26.734
84.7213
82.6135
80.9287
79.6677
100000
97.6102
95.5324
93.5481
91.6395
89.8303
88.0404
86.1788
84.2136
82.338
80.9341
77.868
76.8817
82.6551
81.0891
79.9521
51.6934
49.7584
48.384
47.2265
100000
33.0654
31.3087
30.1241
28.9679
27.8454
26.7673
25.7419
24.7664
23.8609
23.0337
22.3075
24.7969
22.2962
22.8928
23.2653
23.3195
23.3195
23.3195
23.3195
23.3195
23.3195
23.3195
23.3195
23.3193
23.2924
23.0917
22.7115
22.364
22.5424
22.5945
23.1166
23.8522
24.728
25.6568
26.7089
27.8098
81.8226
80.1318
78.8397
100000
96.668
94.6074
92.5838
90.6013
88.7317
86.8706
84.9219
82.8933
81.065
79.7768
76.8707
76.0497
81.0238
79.0858
77.4287
76.0414
48.5733
47.1782
45.9473
44.8682
33.0483
31.2863
30.0865
28.9089
27.7584
26.7049
25.7416
24.7665
23.861
23.0338
22.308
24.7967
22.2965
22.893
23.2654
23.3195
23.3195
23.3195
23.3195
23.3195
23.3195
23.3195
23.3195
23.3193
23.2924
23.0917
22.7115
22.364
22.5424
22.5945
23.1101
23.8506
24.7275
25.6986
26.7379
27.8265
28.9514
30.1051
31.2844
100000
95.7371
93.6272
91.621
89.5891
87.6914
85.8095
83.8429
81.8166
80.0508
78.68
76.057
100000
79.3257
77.3794
75.6935
74.2223
73.7389
46.2317
45.2982
100000
100000
31.1711
29.901
28.6302
27.3727
26.2812
25.7347
24.7653
23.8609
23.0337
22.3077
24.7969
22.2961
22.8928
23.2653
23.3195
23.3195
23.3195
23.3195
23.3195
23.3195
23.3195
23.3195
23.3193
23.2924
23.0917
22.7115
22.364
22.5424
22.5945
22.9229
23.7983
24.7117
25.6942
26.7367
27.8262
28.9517
30.1059
31.2855
79.2912
79.4018
92.5842
90.5151
88.5834
86.6855
84.8052
82.8463
80.8283
79.0585
77.6445
100000
80.2584
77.997
76.0715
74.4806
72.9828
71.9689
100000
57.9564
56.2592
54.8554
31.2649
30.0579
28.8761
27.7358
26.674
25.7077
24.7604
23.8583
23.0337
22.3077
24.7968
22.2962
22.8928
23.2653
23.3195
23.3195
23.3195
23.3195
23.3195
23.3195
23.3195
23.3195
23.3193
23.2924
23.0917
22.7115
22.364
22.5424
22.5945
23.1093
23.8497
24.7234
25.6941
26.7339
27.8235
28.9498
30.1035
31.2801
77.3982
77.1428
91.7686
89.5727
87.5894
85.6609
83.7224
81.7202
79.7323
78.0301
76.6737
73.1686
100000
76.7729
74.5115
73.0201
71.377
70.1142
100000
56.4291
54.4108
52.7867
31.304
30.1174
28.959
27.8346
26.7528
25.7212
24.7546
23.8589
23.0338
22.3079
24.7967
22.2964
22.8929
23.2654
23.3195
23.3195
23.3195
23.3195
23.3195
23.3195
23.3195
23.3195
23.3193
23.2924
23.0917
22.7113
22.364
22.5359
22.5943
23.1155
23.8514
24.7275
25.6992
26.7383
27.8266
28.9517
30.1056
31.285
75.5827
74.8956
77.157
89.0419
86.8228
84.8814
82.9566
80.9952
79.0626
77.2585
75.7743
71.959
70.7485
100000
72.7115
71.3419
69.5897
68.2017
67.3378
100000
53.0816
51.0589
31.2507
30.0406
28.8553
27.7064
26.6139
25.6022
24.687
23.8591
23.0337
22.3076
24.797
22.2961
22.8928
23.2653
23.3195
23.3195
23.3195
23.3195
23.3195
23.3195
23.3195
23.3195
23.3193
23.2927
23.0952
22.7059
22.3254
22.5269
22.594
23.115
23.8507
24.7219
25.6902
26.7008
27.7836
28.9139
30.0849
31.2592
73.8421
73.1842
100000
88.1504
86.0289
84.0521
82.0847
80.0633
78.0851
76.3577
74.955
70.0437
68.8043
67.9462
70.9124
69.857
67.9971
66.4318
65.3108
64.2607
100000
49.6515
31.2858
30.1032
28.9452
27.819
26.7361
25.7101
24.7504
23.8591
23.0336
22.3075
24.7914
22.296
22.8927
23.2653
23.3195
23.3195
23.3195
23.3195
23.3195
23.3195
23.3195
23.3195
23.3194
23.2955
23.0986
22.6913
22.2688
22.5129
22.5931
23.1162
23.8521
24.6167
25.5211
26.4843
27.5158
28.6284
29.8084
31.0314
72.3286
71.7922
100000
87.2434
85.2327
83.3268
81.4651
79.5616
77.6246
75.7762
74.2324
69.9851
68.738
68.841
70.6761
68.5217
66.5608
64.8477
63.5429
62.195
61.0878
32.4314
31.2198
30.0444
28.9048
27.8029
26.7418
25.7262
24.7628
23.8616
23.0361
22.314
24.6598
22.2952
22.8931
23.2654
23.3194
23.3194
23.3194
23.3194
23.3194
23.3194
23.3195
23.3195
23.3194
23.3041
23.0918
22.6621
22.1973
22.4908
22.591
23.1151
23.8513
24.7123
25.6696
26.687
27.7507
28.8561
29.9968
31.1679
71.0044
100000
102.736
86.2079
84.4164
82.5096
80.6527
78.7779
76.8898
75.1364
73.6291
68.7938
67.2925
66.1686
100000
67.3657
65.3359
63.4834
62.0099
60.4562
59.0583
32.4337
31.2247
30.0475
28.9017
27.7902
26.7187
25.6948
24.7258
23.8135
22.9441
22.1036
21.4837
22.1425
22.8591
23.2504
23.2964
23.2964
23.2964
23.2964
23.2964
23.2967
23.2995
23.3076
23.3075
23.2922
23.0849
22.6535
22.1692
22.4798
22.5807
23.0902
23.8216
24.6957
25.6636
26.6966
27.7778
28.8965
30.0462
31.224
32.4311
100000
100.475
85.8008
83.5763
81.4876
79.7106
78.1945
77.7417
76.7012
72.8573
67.6146
66.1114
64.9305
100000
66.5667
64.3053
62.375
60.6794
58.9666
57.3787
32.2464
31.0013
29.8084
28.6755
27.6073
26.6074
25.69
24.9181
100000
100000
26.2763
22.9905
22.5589
22.9873
23.1026
23.1035
23.1035
23.1034
23.1035
23.1034
23.1077
23.1078
23.1085
23.1085
23.1063
22.9851
22.5935
22.0704
22.4615
22.7779
23.278
23.9456
24.7391
25.631
26.605
27.6486
28.751
29.9022
31.0945
32.3246
100.919
98.658
85.0997
82.9497
80.777
78.8219
77.0041
75.404
74.1903
73.3408
67.0729
65.5204
64.2888
100000
65.594
63.5523
61.5343
59.5476
57.7443
55.9992
32.5614
31.3342
30.1603
29.0641
28.1255
100000
218.404
216.791
215.629
214.481
100000
22.2081
22.7985
22.7783
22.7108
22.7123
22.7123
22.7123
22.7123
22.7122
22.7113
22.712
22.713
22.713
22.7109
22.674
22.4908
22.8684
22.2407
22.8327
23.4372
24.1402
24.942
25.8419
26.8298
27.8896
29.0054
30.1644
31.359
32.5859
100000
97.2161
94.9548
93.4606
79.4316
77.62
75.7745
74.0565
72.6785
71.6971
68.2197
100000
95.2261
92.9188
91.0638
89.5857
88.4625
58.5943
56.7677
54.8832
32.9959
31.7913
30.6608
29.6914
51.5286
218.668
216.815
215.025
213.679
212.583
100000
22.5454
22.5636
22.4015
22.3394
22.3411
22.3412
22.3411
22.3411
22.3412
22.3352
22.3352
22.3352
22.3352
22.3314
22.3357
22.2508
22.2268
22.5683
23.0384
23.663
24.4155
25.2644
26.1981
27.2076
28.2807
29.4039
30.5658
31.7592
32.9817
72.353
100000
93.1773
91.5011
80.2496
78.1456
75.9513
73.7037
72.4658
71.5328
112.732
111.28
100000
91.6062
89.6634
87.9768
86.6645
85.9619
56.1249
53.9567
33.5259
32.3393
31.234
30.3041
100000
217.372
215.437
213.739
212.283
210.984
23.5093
22.9964
22.7624
22.4408
22.1643
22.1708
22.1639
22.1708
22.1708
22.1708
22.1708
22.1708
22.1708
22.1708
22.1605
22.1814
22.4259
22.643
22.9797
23.467
24.1082
24.8787
25.7496
26.703
27.7262
28.8067
29.932
31.0918
32.2799
33.4946
71.2606
100000
91.5546
89.8373
80.8019
78.6106
76.4026
74.1995
73.0272
73.3302
111.324
109.437
108.078
90.8119
88.6432
86.7444
85.3237
100000
95.9155
54.758
34.1492
33.0164
32.0512
100000
83.0698
100000
100000
100000
100000
100000
24.0364
23.5136
23.1388
22.7828
22.5392
22.5438
22.5428
22.5438
22.5438
22.5438
22.5438
22.5438
22.5438
22.5438
22.5359
22.5111
22.6742
23.0415
23.487
24.0267
24.6916
25.4766
26.3611
27.3267
28.3584
29.4425
30.5668
31.7215
32.9014
34.1056
100000
100000
90.0825
88.3765
87.1606
80.2281
78.6569
100000
75.2647
75.5915
110.444
108.182
106.591
105.588
87.8111
85.5497
84.0472
100000
94.2492
92.4803
35.0577
126.746
100000
83.0698
80.8084
100000
199.454
197.503
195.771
194.287
24.7006
24.1436
23.703
23.3385
23.1072
23.1175
23.1173
23.1175
23.1175
23.1175
23.1175
23.1175
23.1175
23.1175
23.1116
23.0825
23.237
23.6263
24.1225
24.7035
25.3907
26.187
27.0792
28.0507
29.0857
30.1696
31.2897
32.4367
33.6057
34.8081
87.48
86.3197
88.1903
85.9589
84.3632
82.2848
86.0336
100000
84.1557
82.2602
109.238
107.325
105.792
100000
90.4156
84.5077
82.9481
100000
92.8204
90.841
100000
124.485
123.162
100000
100000
100000
198.311
196.05
194.181
192.507
25.4775
24.8968
24.4268
24.0623
23.8373
23.8479
23.8535
23.8538
23.8539
23.8538
23.8539
23.8539
23.8538
23.8539
23.8485
23.8123
23.9744
24.3629
24.8798
25.4878
26.1928
26.997
27.8919
28.8634
29.8962
30.9752
32.0873
33.2232
34.3788
35.5574
85.2186
84.2357
100000
84.4024
84.5751
83.3565
100000
100000
82.9225
80.6611
100000
124.381
122.12
120.297
118.846
86.4189
85.2095
100000
91.7277
89.4663
100000
122.55
121.035
100000
176.673
175.275
100000
194.98
192.856
191.043
26.3477
25.7572
25.2809
24.9185
24.6974
24.7002
24.7176
24.7186
24.7187
24.7186
24.7187
24.7187
24.7187
24.7186
24.713
24.6599
24.8354
25.2207
25.7451
26.3691
27.0863
27.8951
28.7885
29.7547
30.7794
31.8481
32.9478
34.069
35.2084
36.3683
83.3311
82.0898
81.0464
82.1683
82.8851
100000
105.515
103.254
100000
100000
100000
100000
120.679
118.522
116.889
115.579
114.578
113.581
100000
88.3334
100000
120.644
118.962
100000
174.893
173.014
171.631
100000
191.863
189.825
27.302
26.7121
26.2391
25.8784
25.6568
25.5982
25.6769
25.6809
25.6809
25.6809
25.681
25.6809
25.6726
25.6809
25.6735
25.5829
25.7838
26.1715
26.6998
27.3331
28.0579
28.8682
29.757
30.7135
31.725
32.778
33.8602
34.9634
36.0842
37.2253
81.6341
80.3643
79.354
79.8887
92.1876
90.8522
100000
100.992
99.5479
98.5914
135.599
134.288
100000
117.127
115.255
113.71
112.379
111.191
110.411
100000
121.037
118.776
116.93
100000
173.636
171.375
169.559
168.259
167.645
188.921
28.3306
27.7459
27.2769
26.9168
26.695
26.598
26.7099
26.7158
26.7157
26.7158
26.7158
26.7157
26.7129
26.7155
26.6851
26.5449
26.766
27.2157
27.727
28.3633
29.0917
29.901
30.7826
31.7264
32.7207
33.7536
34.8147
35.8967
36.9975
38.1198
80.1397
78.7986
77.7534
80.1414
100000
100000
100000
99.2525
97.4991
96.33
133.758
132.126
130.905
116.187
113.926
112.298
110.863
109.693
100000
140.845
100000
117.271
115.177
113.831
113.643
115.667
168.087
166.508
165.384
100000
29.4208
28.8422
28.3755
28.016
27.7946
27.6818
27.7979
27.8042
27.8042
27.8042
27.8042
27.8042
27.8032
27.8033
27.735
27.5353
27.808
28.242
28.7876
29.3774
30.2592
30.9957
31.8542
32.7799
33.7538
34.764
35.8017
36.8612
37.9417
39.0461
40.3171
77.4234
76.1261
100000
112.03
110.998
100000
97.8246
95.5632
94.3369
132.304
130.385
128.851
127.78
113.2
111.661
100000
100000
140.845
138.583
137.156
116.812
114.428
112.817
112.398
114.378
167.076
165.4
164.251
100000
30.5585
29.9863
29.5212
29.1628
28.9403
28.8206
28.9263
28.9322
28.9321
28.9321
28.9321
28.9321
28.9317
28.926
28.8187
28.5818
28.7794
29.3824
29.7161
30.6181
31.0419
32.1604
33.1033
33.9021
34.8252
35.8033
36.8148
37.8518
38.9128
40.0008
41.1522
100000
100000
100000
110.019
108.737
108.012
100000
94.1105
92.5116
131.158
128.896
127.106
125.705
124.638
135.418
133.809
132.625
100000
137.231
135.362
133.831
39.1006
38.1823
37.438
113.287
100000
100000
100000
152.573
31.732
31.1666
30.7037
30.3469
30.1196
29.9933
30.0845
30.045
29.702
30.4218
100000
58.743
56.4816
54.8686
53.631
100000
100000
100000
31.9242
32.4125
100000
34.3695
34.8525
100000
103.38
101.118
99.4968
97.8813
96.3806
94.9962
93.4728
92.962
111.809
109.942
108.155
106.761
105.751
105.113
100000
91.1063
100000
127.65
125.689
124.247
123.401
133.831
131.862
130.316
129.155
100000
100000
132.186
39.9387
39.036
38.2994
100000
155.676
153.995
152.377
150.843
32.9457
32.4251
100000
168.357
166.239
164.377
162.672
161.08
159.603
158.306
157.106
100000
56.5921
54.3334
100000
64.1384
62.2945
60.4
58.3689
56.921
100000
79.8262
77.5648
76.0968
100000
99.6144
97.8749
96.0748
94.4178
92.9778
91.7499
90.5887
89.4326
91.1411
106.763
105.07
103.84
102.852
102.509
100000
128.785
126.523
124.443
122.916
100000
132.636
130.375
128.573
127.139
125.972
138.637
132.073
129.815
132.077
100000
155.637
154.14
152.574
150.968
149.321
147.758
146.374
144.974
143.798
165.354
163.29
161.485
159.791
158.223
156.781
155.524
154.595
100000
100000
64.9071
62.8049
61.0596
59.4059
57.941
100000
67.6029
100000
75.8758
74.1704
100000
98.1515
96.6826
94.7646
92.9317
91.3204
90.0271
89.0439
87.9412
100000
100000
103.773
102.345
100.97
100.247
95.3596
100000
125.582
123.32
121.475
120.096
100000
129.161
127.2
125.767
124.808
136.376
134.265
100000
100000
100000
153.921
152.51
151.251
149.77
148.024
146.277
144.687
143.292
142.233
141.358
162.662
160.689
158.93
157.353
155.941
154.798
100000
144.681
143.878
64.0734
61.9828
60.3666
59.0239
100000
67.0607
65.3415
100000
74.1995
72.3718
71.1884
96.4323
95.8249
93.8111
91.5831
89.7916
88.6235
87.8767
87.3541
114.634
113.605
100000
100000
99.5331
98.5656
93.0982
114.83
100000
122.778
120.638
119.126
100000
127.969
125.974
124.58
100000
134.562
132.96
132.145
155.125
153.511
152.154
150.889
149.91
148.806
147.045
145.176
143.423
141.73
140.596
139.744
141.616
100000
100000
100000
100000
100000
143.838
142.695
141.716
141.002
61.6524
60.3612
100000
67.8528
65.5914
64.1706
100000
72.8392
71.16
100000
94.2544
100000
100000
89.212
88.0346
86.9289
86.7917
100000
112.622
111.344
110.311
109.476
100000
100000
91.4993
100000
100000
121.969
119.917
118.448
100000
126.863
124.995
123.696
100000
132.95
131.448
100000
153.54
151.703
150.278
149.191
148.457
147.831
146.411
144.812
100000
140.335
139.219
138.294
140.35
100000
148.625
146.722
145.037
143.487
142.071
140.804
139.712
138.852
100000
94.3243
93.0253
100000
65.0426
100000
100000
71.3251
69.9349
100000
91.8523
89.5909
88.0969
86.9394
86.4458
85.4826
100000
112.354
110.756
109.395
108.209
107.215
106.44
105.74
100000
125.039
123.089
121.019
119.545
100000
127.5
125.589
124.266
100000
132.953
131.213
130.058
100000
152.222
150.213
148.65
147.542
147.158
100000
151.891
150.822
150.059
138.955
138.064
137.048
139.381
100000
147.369
145.395
143.584
141.915
140.394
139.017
137.825
136.88
100000
92.4733
90.7639
89.1124
87.5837
86.1936
85.0317
100000
100000
80.2404
100000
87.8924
86.1343
85.0059
84.6897
100000
112.626
110.754
109.118
107.65
106.345
105.199
104.221
103.332
102.612
123.893
122.182
120.667
100000
128.23
126.291
124.904
100000
133.323
131.509
130.285
100000
100000
151.182
148.921
147.225
146.093
100000
151.286
149.455
148.619
147.512
138.457
100000
100000
100000
148.506
146.245
144.174
142.24
140.459
138.834
137.332
136.01
134.953
100000
91.065
89.2207
87.4467
85.7995
84.2534
82.7703
81.2581
79.6617
77.979
100000
86.4276
84.5342
83.2239
82.4615
113.423
111.358
109.394
107.65
106.074
104.646
103.377
102.259
101.213
100.35
123.318
121.964
100000
129.047
127.066
125.724
100000
133.864
131.973
130.672
100000
139.647
138.05
100000
147.722
145.93
144.915
100000
149.904
148.138
146.664
145.474
140.295
145.148
145.106
143.9
100000
145.385
143.124
141.044
139.134
137.407
135.761
134.281
133.082
100000
90.0468
88.0346
86.1369
84.3893
82.755
81.193
79.6559
78.1501
76.7799
100000
85.1909
83.3589
82.145
100000
112.501
110.239
108.2
106.345
104.646
103.109
101.726
100.481
99.3087
98.3855
123.403
100000
129.93
127.728
126.411
100000
134.601
132.625
131.246
100000
139.928
138.047
136.784
100000
146.343
144.695
100000
150.363
148.26
146.44
144.772
143.414
142.16
142.921
143.133
141.504
140.317
100000
142.316
140.055
137.947
136.152
134.358
132.702
131.303
100000
89.4189
87.1575
85.1392
83.3122
81.6489
80.125
78.7342
77.5484
100000
85.8172
83.8646
82.5057
100000
103.463
100000
109.46
107.199
105.194
103.385
101.74
100.239
98.8711
97.5843
96.6234
100000
130.345
128.132
126.747
100000
135.573
133.502
132.036
100000
140.689
138.671
137.263
100000
146.768
144.796
143.447
100000
149.183
146.995
145.097
143.417
142.156
141.373
143.678
141.746
139.881
138.374
137.027
100000
139.426
136.898
135.08
133.138
131.275
129.521
127.877
100000
86.6817
84.4542
82.558
80.8916
79.4477
78.2949
100000
86.7203
84.6766
83.2412
100000
103.463
101.202
99.5858
100000
106.426
104.236
102.305
100.541
98.9174
97.4211
96.0213
95.0505
132.918
130.695
129.052
100000
136.833
134.663
133.118
100000
141.817
139.67
138.145
100000
147.792
145.663
144.153
100000
150.288
148.029
146.035
144.219
142.593
141.269
140.612
142.141
139.918
137.978
136.255
134.862
100000
138.853
136.009
134.263
132.326
130.345
128.597
126.36
100000
86.2898
84.0284
82.1576
80.5357
79.2779
100000
87.9091
85.752
84.2167
100000
94.7368
100000
101.392
99.1304
100000
105.699
103.438
101.384
99.453
97.5949
95.7454
93.849
91.8057
132.503
130.904
100000
138.455
136.193
134.595
100000
143.368
141.107
139.508
100000
149.292
147.03
145.431
100000
151.832
149.57
147.503
145.603
143.822
142.218
140.904
100000
142.493
140.258
138.362
136.755
132.646
131.754
100000
136.86
134.766
132.941
131.47
100000
75.2386
72.9772
100000
84.4478
82.2254
80.6263
100000
89.4916
87.2302
85.6311
100000
94.7368
92.4754
90.8764
100000
98.2917
96.0303
100000
102.128
99.8668
97.6106
95.354
95.9804
90.7684
89.2884
100000
100000
77.3736
75.8784
74.2835
72.7498
71.3135
69.8341
68.3339
66.8449
65.3939
64.0659
62.8881
61.8571
60.9615
60.1795
59.4268
58.704
99.3229
87.8078
85.926
84.3262
82.8904
81.7043
80.5933
105.522
104.074
100000
90.644
100000
80.5129
78.2515
76.1827
74.237
72.3912
70.6347
69.0623
67.8873
67.109
66.9887
67.4944
67.7856
67.8951
78.9434
77.2476
76.0447
75.7282
74.6424
76.4623
100.935
99.0699
97.3736
95.802
94.2919
92.7855
91.2302
89.6136
87.9381
86.1917
84.9265
94.8247
93.4952
76.3644
74.813
73.0327
71.5613
70.1347
68.5805
67.0268
65.4776
63.9644
62.5787
61.3299
60.2325
59.291
58.4985
57.7902
57.0955
100000
86.994
84.7327
82.7465
81.1459
79.8001
78.6676
104.032
102.035
100.688
100000
86.9265
100000
78.0256
75.7642
73.7946
72.1004
70.5863
69.055
67.536
66.9382
65.7678
66.1577
66.034
66.1435
68.0792
76.4002
74.8486
73.817
72.5118
74.8845
99.7023
97.7466
95.9771
94.359
92.844
91.3586
89.8093
88.1683
86.4872
84.755
83.4957
92.9544
91.6086
75.1173
73.3986
71.9012
70.4514
68.9164
67.464
65.8482
64.2172
62.6471
61.1852
59.8592
58.6844
57.6952
56.8742
56.1711
55.5822
55.3964
100000
100000
81.3397
79.5058
77.8881
76.4924
75.2528
100.673
98.843
97.6526
100000
100000
100000
74.2213
71.9599
69.8991
67.9415
66.8947
66.129
65.8921
65.0655
64.7603
64.3762
64.4461
78.3804
75.6302
73.8417
72.3995
71.2926
73.554
98.5689
96.5309
94.6622
92.9661
91.4235
89.9673
88.4491
86.7808
85.0846
83.3512
82.0855
91.7608
90.514
100000
115.817
70.7293
69.3456
67.9325
66.4271
64.7647
63.1113
61.4563
59.9053
58.5002
57.2381
56.175
55.3111
54.5543
53.8009
53.1427
53.1416