<VTKFile type="ImageData" version="1.0" byte_order="LittleEndian" header_type="UInt64">
	<ImageData WholeExtent="0 44 0 44 0 44" Origin="-68.3028 -68.3028 -68.3028" Spacing="3.10467 3.10467 3.10467">
		<Piece Extent="0 44 0 44 0 44">
			<PointData Scalars="Scalars_">
				<DataArray type="Float32" Name="Scalars_" format="ascii" RangeMin="0" RangeMax="100">
0.36911
0.352562
0.307503
0.232204
0.122585
0.0243111
0.212597
0.446892
0.732746
1.00211
1.21925
1.39612
1.54793
1.68906
1.82859
1.97198
2.11503
2.23129
2.31476
2.34964
2.37423
2.45002
2.54741
2.38882
2.22831
2.08529
1.97107
1.89468
1.86429
1.88617
1.96518
2.10435
2.2766
2.40798
2.50145
2.56264
2.59501
2.60024
2.57837
2.52731
2.44419
2.32484
2.16631
1.98703
1.79471
0.36924
0.364159
0.329941
0.263569
0.161797
0.0207634
0.16412
0.397991
0.680172
0.927361
1.12144
1.27493
1.40313
1.52042
1.6352
1.75185
1.87765
2.01121
2.11322
2.16287
2.2189
2.32741
2.45564
2.30161
2.14756
2.01451
1.91558
1.8615
1.86077
1.9202
2.04487
2.2262
2.38083
2.49797
2.58399
2.64314
2.67754
2.68674
2.66883
2.6205
2.53706
2.41427
2.24763
2.034
1.79443
0.342461
0.349125
0.32534
0.26823
0.174019
0.0383987
0.143303
0.377441
0.650898
0.875118
1.04525
1.17454
1.27884
1.37191
1.46145
1.55103
1.64783
1.75911
1.87666
1.94655
2.03966
2.18556
2.34632
2.20439
2.06267
1.94482
1.86657
1.84007
1.87502
1.97876
2.15481
2.32933
2.4663
2.57357
2.65611
2.71624
2.75385
2.76684
2.75111
2.70191
2.61417
2.40363
2.12492
1.86359
1.62066
0.285759
0.304371
0.291443
0.243408
0.156582
0.0262489
0.153145
0.388153
0.647636
0.848068
0.993755
1.09845
1.17835
1.24683
1.31061
1.3726
1.43974
1.5191
1.60879
1.69493
1.83133
2.02025
2.21507
2.09382
1.97161
1.87594
1.82548
1.83421
1.913
2.06956
2.26109
2.41482
2.53972
2.64207
2.72479
2.78804
2.82909
2.84365
2.74855
2.58103
2.37046
2.12005
1.88527
1.67193
1.47306
0.196083
0.226898
0.224812
0.186108
0.106396
0.0193329
0.196938
0.4338
0.673389
0.849579
0.970608
1.05023
1.10524
1.14883
1.18641
1.22018
1.257
1.30334
1.35751
1.42071
1.58746
1.82629
2.05684
1.96544
1.87152
1.80703
1.79366
1.8475
1.98064
2.17892
2.34847
2.48844
2.60775
2.71043
2.79669
2.78735
2.71702
2.61646
2.479
2.29902
2.07538
1.86414
1.67772
1.50916
1.35233
0.0707397
0.11396
0.122932
0.0933533
0.0204659
0.100952
0.277889
0.515724
0.731464
0.882915
0.979073
1.03376
1.0639
1.0822
1.09318
1.09827
1.10382
1.11606
1.13281
1.17696
1.34374
1.60215
1.86585
1.81438
1.75908
1.73668
1.77192
1.88335
2.07841
2.26496
2.41989
2.55474
2.60115
2.59646
2.57545
2.53186
2.45875
2.34938
2.1974
1.99863
1.80654
1.64386
1.50291
1.37647
1.25888
0.0940094
0.0376816
0.0173721
0.0376549
0.103828
0.221962
0.398952
0.632824
0.824539
0.951416
1.02293
1.05317
1.05879
1.05187
1.03601
1.01185
0.98547
0.96236
0.939682
0.973026
1.1422
1.40517
1.6529
1.63509
1.63042
1.66319
1.76135
1.94573
2.15471
2.25327
2.29189
2.31877
2.33626
2.34055
2.3244
2.27964
2.19785
2.0723
1.8975
1.72037
1.57738
1.46011
1.36124
1.27411
1.19335
0.302597
0.232079
0.199677
0.210258
0.269897
0.384834
0.56284
0.787247
0.955055
1.05807
1.10567
1.11235
1.0942
1.06253
1.02022
0.966976
0.908318
0.848881
0.785625
0.816872
0.991295
1.26276
1.48363
1.46148
1.48373
1.58493
1.74437
1.83646
1.89967
1.95417
2.001
2.04203
2.07431
2.08918
2.07579
2.02438
1.92657
1.77663
1.61204
1.48513
1.38793
1.31292
1.25322
1.2026
1.15634
0.559685
0.474205
0.428024
0.428089
0.480354
0.592159
0.77166
0.980679
1.12465
1.20467
1.22984
1.21458
1.17424
1.11927
1.05137
0.970028
0.879421
0.783188
0.685349
0.71825
0.901077
1.18552
1.37552
1.35168
1.38108
1.4969
1.57158
1.60454
1.62657
1.65616
1.70144
1.7601
1.81102
1.83563
1.82071
1.75602
1.63449
1.48388
1.37187
1.2925
1.23835
1.20248
1.17905
1.16235
1.14782
0.795773
0.750759
0.70829
0.695404
0.738876
0.846363
1.02708
1.21414
1.33447
1.39249
1.39722
1.36224
1.30212
1.22594
1.13474
1.02721
0.906452
0.773844
0.650818
0.688541
0.883154
1.18525
1.3422
1.31927
1.36209
1.42924
1.43216
1.41434
1.40429
1.4152
1.44921
1.49802
1.54443
1.56888
1.54664
1.4613
1.33127
1.23615
1.17542
1.14151
1.12797
1.12887
1.13916
1.15359
1.16826
0.97485
0.975224
0.985779
1.00884
1.05025
1.15099
1.32803
1.48795
1.58427
1.6213
1.6076
1.5559
1.47921
1.38524
1.27423
1.14434
0.996744
0.829838
0.693556
0.739761
0.949587
1.27321
1.39856
1.37878
1.41869
1.39812
1.33696
1.27868
1.24533
1.24223
1.26567
1.3004
1.32283
1.31037
1.24722
1.14006
1.06906
1.03196
1.02155
1.03147
1.05657
1.09202
1.1335
1.17662
1.21777
1.10831
1.14618
1.20133
1.27706
1.3779
1.50912
1.6746
1.80357
1.87397
1.88997
1.85955
1.79424
1.7049
1.59766
1.47216
1.32553
1.15643
0.959105
0.824247
0.882992
1.11089
1.45855
1.55792
1.54425
1.51717
1.41446
1.30078
1.21292
1.1622
1.1455
1.15488
1.1684
1.15628
1.09391
0.967182
0.858276
0.84874
0.869793
0.909092
0.961834
1.02393
1.09169
1.16184
1.23103
1.29604
1.21257
1.28118
1.37183
1.48994
1.6419
1.8344
2.01297
2.13172
2.1916
2.19616
2.15203
2.07512
1.97723
1.86244
1.7292
1.57341
1.38972
1.16925
1.05045
1.12529
1.37263
1.74447
1.82796
1.79419
1.66345
1.49241
1.34129
1.2326
1.16531
1.1306
1.11934
1.10195
1.04236
0.915588
0.734188
0.647598
0.669422
0.748905
0.837498
0.931812
1.02918
1.12729
1.22366
1.31602
1.40189
1.30518
1.40097
1.52184
1.67471
1.86697
2.07381
2.22929
2.33339
2.39
2.40453
2.38411
2.33566
2.26415
2.17009
2.04879
1.89301
1.65843
1.44279
1.37372
1.46586
1.73004
2.12151
2.20552
2.08109
1.8657
1.64872
1.476
1.34975
1.26112
1.20059
1.16072
1.10119
0.979464
0.77272
0.583557
0.514477
0.549252
0.66898
0.806213
0.940758
1.07168
1.19778
1.31773
1.43038
1.53429
1.40115
1.52492
1.67654
1.86311
2.0789
2.2518
2.37293
2.44772
2.48377
2.49039
2.47696
2.45078
2.41465
2.29494
2.10443
1.87941
1.65055
1.55675
1.61296
1.81609
2.14622
2.5579
2.63121
2.39322
2.13442
1.89863
1.71579
1.56797
1.45025
1.35589
1.28046
1.16667
0.966959
0.694448
0.522362
0.46479
0.506706
0.63419
0.815239
0.988224
1.15006
1.3013
1.44199
1.57204
1.6908
1.51536
1.67016
1.85654
2.07948
2.27565
2.41878
2.51399
2.56952
2.59584
2.60426
2.50113
2.3749
2.24105
2.09182
1.91562
1.69735
1.52909
1.50878
1.64253
1.92736
2.34006
2.83505
2.98825
2.7174
2.48196
2.24423
2.05578
1.87848
1.72729
1.59436
1.47929
1.29874
1.00406
0.719732
0.557583
0.504162
0.546024
0.66991
0.863304
1.07211
1.26224
1.43548
1.5937
1.73793
1.86844
1.66908
1.86221
2.09122
2.31778
2.49213
2.61884
2.69084
2.62637
2.54251
2.44855
2.34909
2.24276
2.12318
1.9798
1.79866
1.57654
1.4517
1.47043
1.63659
1.94582
2.37535
2.8643
2.98326
2.92088
2.87507
2.65215
2.46795
2.25809
2.0799
1.90902
1.75513
1.49524
1.12853
0.85453
0.693727
0.636036
0.669571
0.78183
0.96117
1.18959
1.40454
1.59654
1.76905
1.92413
2.06334
1.87919
2.12462
2.38689
2.55593
2.603
2.6087
2.58123
2.52975
2.46235
2.38409
2.29561
2.19272
2.06795
1.91031
1.7047
1.48633
1.39483
1.44674
1.64417
1.97698
2.41088
2.73315
2.97014
2.91101
2.88981
2.89578
2.87601
2.66649
2.48631
2.28342
2.09909
1.74822
1.37102
1.09823
0.929441
0.858398
0.874784
0.967316
1.12477
1.33735
1.57215
1.77972
1.96334
2.12627
2.27111
2.05512
2.24755
2.39652
2.49529
2.54977
2.56714
2.55505
2.52009
2.46644
2.39495
2.30377
2.18827
2.04209
1.85549
1.61371
1.41568
1.35171
1.42482
1.62688
1.93314
2.29948
2.6008
2.87876
2.87278
2.8772
2.88871
2.90158
2.91466
2.88738
2.68303
2.49015
2.08572
1.71823
1.43753
1.2521
1.1594
1.15116
1.21701
1.34649
1.53008
1.75845
1.9795
2.17217
2.34103
2.48966
2.08519
2.2176
2.33389
2.4408
2.51538
2.55467
2.56514
2.55056
2.51162
2.44584
2.34934
2.21708
2.04349
1.82054
1.55234
1.38231
1.35183
1.46335
1.70265
2.02387
2.15994
2.45853
2.73969
2.83608
2.86588
2.88174
2.89521
2.90806
2.92105
2.93006
2.881
2.49583
2.12944
1.83431
1.62688
1.50833
1.47216
1.50895
1.60878
1.76255
1.9625
2.19141
2.39549
2.57045
2.71671
2.1876
2.27063
2.33518
2.38983
2.44551
2.50907
2.55204
2.56782
2.55369
2.5043
2.41274
2.27183
2.07463
1.81316
1.53616
1.38479
1.37194
1.50109
1.76424
2.1371
2.06399
2.31566
2.60136
2.82527
2.85885
2.8751
2.88852
2.8975
2.91522
2.92251
2.91691
2.56125
2.19627
1.90219
1.6932
1.5707
1.53086
1.56432
1.66114
1.81209
2.00848
2.21155
2.40553
2.58523
2.73682
2.32698
2.36934
2.39114
2.40139
2.41071
2.42962
2.46643
2.51837
2.54304
2.52513
2.45484
2.32191
2.11639
1.82918
1.57627
1.44902
1.45182
1.57883
1.79451
1.73249
1.87838
2.17724
2.48917
2.8141
2.85072
2.86436
2.87915
2.88697
2.93629
2.99373
2.95453
2.60048
2.25989
1.99097
1.80602
1.70499
1.68153
1.7268
1.83143
1.98689
2.15227
2.28935
2.42503
2.56055
2.6969
2.4687
2.47533
2.45963
2.43216
2.40517
2.38863
2.38745
2.40124
2.42656
2.44839
2.41393
2.30555
2.10976
1.83346
1.63024
1.54519
1.58586
1.7513
2.02093
1.72991
1.7312
2.03949
2.37549
2.74932
2.82861
2.85023
2.89475
2.95578
3.00136
3.03848
2.86661
2.48002
2.1499
1.90503
1.74953
1.67967
1.6871
1.7621
1.89499
2.07726
2.26575
2.40329
2.49812
2.58408
2.67566
2.35139
2.35457
2.34798
2.33856
2.32946
2.32132
2.31349
2.30436
2.29039
2.26613
2.2264
2.14977
1.97484
1.74638
1.60384
1.56383
1.63437
1.79861
1.51456
1.35339
1.53454
1.85763
2.21134
2.57257
2.6792
2.77787
2.83815
2.88186
2.7731
2.70037
2.48804
2.12287
1.8337
1.63321
1.52199
1.49457
1.54204
1.65451
1.8223
2.0369
2.25382
2.41815
2.53802
2.62019
2.67357
2.22979
2.22206
2.20967
2.1995
2.19513
2.19566
2.19549
2.18446
2.15273
2.09151
1.99436
1.85279
1.65659
1.50073
1.4128
1.3827
1.38729
1.35565
1.0909
1.11669
1.51245
1.96658
2.44459
2.60581
2.69819
2.75695
2.79815
2.8318
2.57943
2.3352
2.05498
1.70958
1.46043
1.30338
1.23484
1.24779
1.33284
1.48024
1.68067
1.92591
2.16974
2.36035
2.50584
2.61308
2.68778
2.12959
2.11033
2.08877
2.07004
2.05588
2.0451
2.03308
2.01284
1.97609
1.91169
1.80394
1.63336
1.42769
1.30474
1.2756
1.33599
1.43281
0.942892
0.771648
1.22102
1.76898
2.345
2.81661
2.79177
2.76673
2.77626
2.80072
2.65883
2.3304
2.13554
1.8428
1.50154
1.25855
1.11116
1.05493
1.08182
1.18193
1.34504
1.56186
1.82408
2.08368
2.29152
2.45557
2.5826
2.67797
2.0642
2.03294
1.99893
1.96519
1.93145
1.89419
1.84747
1.78294
1.6905
1.55798
1.37044
1.11792
0.911263
0.801304
0.796961
0.895584
1.06394
0.847301
0.997309
1.58073
2.19811
2.76106
2.92354
2.86845
2.81169
2.80193
2.6436
2.3659
2.10941
2.41399
2.13797
1.75407
1.44844
1.24161
1.13586
1.12418
1.19552
1.33851
1.5422
1.79729
2.05273
2.26138
2.43078
2.5665
2.67346
2.04509
2.00198
1.95465
1.9038
1.84752
1.78141
1.69838
1.58959
1.44423
1.24972
0.990854
0.713514
0.521606
0.429369
0.445616
0.566656
0.757412
0.789248
1.11567
1.61457
2.15449
2.67015
2.93113
2.89082
2.83591
2.64948
2.34922
2.07111
2.20477
2.43515
2.15454
1.79467
1.50561
1.30583
1.19892
1.18036
1.24185
1.37405
1.56758
1.81408
2.06106
2.26493
2.43278
2.57004
2.68139
2.08084
2.02647
1.96544
1.89696
1.81791
1.72321
1.60498
1.45417
1.25951
1.00794
0.698198
0.439266
0.267488
0.195005
0.229656
0.367472
0.577869
0.730459
1.01921
1.41154
1.84105
2.2702
2.53481
2.57449
2.65787
2.44237
2.11677
2.09956
2.5251
2.52872
2.19368
1.82906
1.5423
1.34594
1.24124
1.22296
1.28286
1.41183
1.60112
1.84303
2.08361
2.28238
2.44666
2.58242
2.69392
2.17605
2.11076
2.03599
1.94979
1.84815
1.72546
1.57365
1.3833
1.14294
0.839211
0.531166
0.297926
0.15086
0.100876
0.154142
0.306314
0.531338
0.743984
0.964174
1.25923
1.5868
1.91757
2.13667
2.20234
2.3103
2.0674
1.7743
1.89484
2.33534
2.35442
2.03457
1.70006
1.43753
1.26008
1.16946
1.16129
1.22802
1.36132
1.55315
1.79623
2.03556
2.23359
2.3978
2.53409
2.64717
2.31987
2.24607
2.1594
2.05725
1.9352
1.78692
1.60451
1.37817
1.09637
0.767303
0.489914
0.286901
0.168354
0.143084
0.215389
0.380043
0.614302
0.840544
0.989319
1.19614
1.4324
1.67423
1.84594
1.92772
2.0286
1.76433
1.49677
1.66212
2.03579
1.9827
1.64952
1.33758
1.09942
0.946617
0.880053
0.894886
0.983662
1.13605
1.34359
1.5995
1.84756
2.05358
2.22531
2.36893
2.4891
2.41909
2.33633
2.238
2.12091
1.98069
1.81076
1.60308
1.35542
1.092
0.812408
0.569252
0.399433
0.311441
0.311764
0.402613
0.577591
0.816051
1.02331
1.10558
1.23418
1.39053
1.55385
1.67987
1.7641
1.83868
1.56243
1.32781
1.50932
1.80677
1.66484
1.31502
1.00932
0.776814
0.627634
0.562565
0.576916
0.663548
0.814613
1.02267
1.28101
1.54016
1.75669
1.9383
2.09147
2.22092
2.45768
2.36066
2.24523
2.10825
1.94463
1.75689
1.56743
1.37511
1.17574
0.939823
0.742493
0.615166
0.564064
0.592968
0.701778
0.884464
1.12291
1.2889
1.31211
1.37256
1.46008
1.55536
1.63939
1.71227
1.75161
1.47264
1.27827
1.45184
1.66034
1.42865
1.07339
0.769306
0.537666
0.387207
0.318577
0.327549
0.407425
0.550842
0.750751
1.00082
1.26438
1.48654
1.6736
1.83215
1.96672
2.43913
2.32375
2.18708
2.03637
1.89228
1.75401
1.61948
1.47023
1.25833
1.04507
0.895542
0.815224
0.808506
0.877293
1.01941
1.22568
1.47746
1.61691
1.60213
1.60456
1.63317
1.67027
1.71621
1.7684
1.77095
1.50031
1.354
1.49849
1.60145
1.29457
0.933649
0.625986
0.389511
0.231899
0.1539
0.151623
0.219196
0.349777
0.536766
0.773998
1.03582
1.25996
1.44953
1.61058
1.748
2.36658
2.24152
2.12617
2.02107
1.92589
1.83515
1.70621
1.521
1.29785
1.12642
1.01833
0.977768
1.00743
1.10793
1.2754
1.49997
1.76356
1.89088
1.88141
1.87916
1.88669
1.88715
1.90001
1.92795
1.89734
1.64829
1.55047
1.64939
1.63159
1.26797
0.897223
0.580761
0.333874
0.163414
0.0703163
0.0512695
0.101074
0.21368
0.382797
0.602764
0.856144
1.07846
1.2669
1.42776
1.56526
2.30108
2.21867
2.14826
2.09016
2.01627
1.90082
1.73589
1.51747
1.3251
1.19108
1.11905
1.11216
1.17192
1.29762
1.48422
1.72161
1.99006
2.10214
2.09746
2.0963
2.10641
2.1142
2.14298
2.1755
2.13082
1.91626
1.85168
1.89608
1.75087
1.34556
0.960903
0.630672
0.368141
0.179714
0.0663948
0.0255852
0.0529785
0.142811
0.289604
0.487968
0.72686
0.943291
1.1273
1.2845
1.41947
2.31385
2.2754
2.23833
2.17082
2.0658
1.91665
1.71509
1.50355
1.34554
1.24488
1.20443
1.22628
1.31097
1.45652
1.65745
1.90366
2.17114
2.26713
2.26657
2.26711
2.28153
2.30074
2.35236
2.40976
2.39362
2.26114
2.23232
2.20599
1.88581
1.50261
1.11869
0.770226
0.487625
0.276806
0.139061
0.0723114
0.072998
0.136116
0.25671
0.429642
0.64806
0.854836
1.031
1.18162
1.3113
2.3974
2.36555
2.30384
2.20786
2.07188
1.8891
1.6691
1.4897
1.3633
1.2926
1.27991
1.32618
1.4314
1.59271
1.80444
2.05608
2.31807
2.3984
2.4018
2.40574
2.42783
2.46517
2.54292
2.62571
2.64159
2.58304
2.50208
2.27709
1.97024
1.62827
1.29005
0.972454
0.686333
0.449909
0.284054
0.18803
0.158623
0.191612
0.282574
0.426838
0.619774
0.813221
0.97813
1.11921
1.2408
2.4723
2.41678
2.32929
2.2055
2.03904
1.82551
1.62701
1.47807
1.38078
1.33718
1.34874
1.41615
1.53833
1.71204
1.93147
2.18646
2.43956
2.50588
2.51371
2.52418
2.5597
2.62317
2.73116
2.84007
2.8882
2.7533
2.51281
2.31388
2.0237
1.71563
1.41502
1.13534
0.885632
0.671654
0.496258
0.369041
0.306801
0.30685
0.365292
0.478016
0.640869
0.817665
0.968414
1.09731
1.20827
2.50764
2.42932
2.31709
2.16636
1.97033
1.75739
1.58909
1.4688
1.39829
1.37918
1.41247
1.49798
1.63419
1.81774
2.04249
2.29925
2.54119
2.59642
2.61034
2.63213
2.68885
2.78616
2.92693
3.06136
2.9598
2.73743
2.50916
2.32314
2.05312
1.77398
1.5046
1.25632
1.03695
0.851105
0.701176
0.588554
0.512959
0.479286
0.503117
0.581932
0.712063
0.867775
1.00148
1.1156
1.21358
2.504
2.40405
2.26788
2.09072
1.8765
1.69231
1.55284
1.45947
1.41391
1.41716
1.46973
1.57098
1.71908
1.91053
2.1391
2.39673
2.62617
2.67394
2.69665
2.73582
2.8217
2.95842
3.1321
3.06358
2.91105
2.70353
2.49684
2.31252
2.06364
1.80979
1.56695
1.34506
1.15077
0.988335
0.859703
0.766109
0.707226
0.682823
0.691692
0.736752
0.83213
0.962524
1.07666
1.17353
1.25611
2.46117
2.34013
2.18097
1.97858
1.78143
1.62619
1.51386
1.446
1.4237
1.44749
1.51744
1.63241
1.79066
1.98843
2.22025
2.47842
2.69487
2.73949
2.77453
2.83713
2.95879
3.11201
3.06665
2.99261
2.85275
2.65969
2.47367
2.2882
2.05928
1.82768
1.60791
1.40848
1.23541
1.09236
0.981449
0.903366
0.858578
0.846333
0.866009
0.916561
0.997036
1.10098
1.19309
1.27038
1.33563
2.37791
2.23621
2.05419
1.85005
1.68177
1.55386
1.46731
1.42327
1.42234
1.46492
1.55052
1.67797
1.84525
2.04863
2.28294
2.54197
2.74546
2.79132
2.84217
2.93335
3.02192
2.98909
2.96895
2.90752
2.77375
2.61559
2.43736
2.25281
2.04163
1.83033
1.63104
1.45128
1.29631
1.16978
1.07357
1.0086
0.975117
0.972607
1.00098
1.05904
1.14613
1.26162
1.35032
1.40591
1.45158
2.25259
2.09013
1.89092
1.71225
1.57146
1.46946
1.40702
1.3851
1.40416
1.46385
1.56381
1.70256
1.87794
2.08632
2.32327
2.58372
2.77503
2.82602
2.89555
2.89818
2.84954
2.85021
2.84896
2.7951
2.66404
2.56027
2.38514
2.2052
2.01071
1.81824
1.63783
1.47586
1.33727
1.2251
1.14157
1.08744
1.06317
1.06872
1.10367
1.1675
1.25962
1.37925
1.52589
1.57932
1.60326
2.08308
1.89986
1.71254
1.56074
1.44562
1.3677
1.32775
1.32621
1.36337
1.43892
1.55174
1.70085
1.88383
2.09716
2.33701
2.59856
2.77915
2.83852
2.76047
2.66741
2.65542
2.68332
2.69496
2.64433
2.53188
2.48308
2.31332
2.14222
1.96437
1.79026
1.62783
1.48293
1.35958
1.26085
1.18874
1.14405
1.12779
1.13978
1.17989
1.24799
1.34327
1.46579
1.61516
1.79017
1.79125
0.359444
0.353462
0.319416
0.254913
0.156544
0.020977
0.155441
0.37719
0.650135
0.962402
1.22868
1.44855
1.63865
1.81681
1.99477
2.15477
2.28072
2.38148
2.45664
2.49349
2.48161
2.50958
2.56911
2.39753
2.22107
2.06392
1.9362
1.84772
1.80661
1.81903
1.88987
2.02223
2.18638
2.3062
2.38514
2.42876
2.44165
2.42616
2.38243
2.30914
2.20366
2.0675
1.92446
1.77248
1.60639
0.370949
0.378143
0.356915
0.30368
0.215221
0.0878792
0.0828285
0.301414
0.574764
0.872589
1.11471
1.30971
1.47454
1.6274
1.77921
1.93515
2.08296
2.20227
2.29356
2.34297
2.34999
2.4077
2.49766
2.32058
2.14514
1.994
1.8801
1.81348
1.80305
1.85481
1.9737
2.14991
2.29597
2.40143
2.47286
2.51518
2.53106
2.52101
2.48343
2.41515
2.31198
2.16901
1.98809
1.79333
1.58315
0.353764
0.375042
0.366459
0.324875
0.246544
0.127331
0.03759
0.253819
0.528233
0.8055
1.02236
1.19144
1.33046
1.45728
1.58243
1.70988
1.84738
1.98901
2.10061
2.16669
2.19917
2.2911
2.41397
2.23868
2.0685
1.92791
1.8318
1.79189
1.81744
1.91484
2.08692
2.25509
2.38244
2.4775
2.54539
2.58966
2.61064
2.60667
2.57392
2.50796
2.40302
2.25411
2.0562
1.81389
1.53095
0.305283
0.340836
0.345398
0.315567
0.247402
0.136116
0.0235291
0.237762
0.51202
0.764263
0.954819
1.09717
1.20969
1.31018
1.40802
1.50611
1.61227
1.73754
1.87135
1.95839
2.02459
2.15634
2.31392
2.14923
1.99096
1.86693
1.79499
1.78857
1.85764
2.0089
2.19489
2.34029
2.45402
2.54331
2.61161
2.65992
2.68633
2.68676
2.65566
2.58715
2.42765
2.15482
1.87785
1.62377
1.38544
0.222473
0.272503
0.290359
0.272434
0.214233
0.110641
0.0442085
0.257191
0.526184
0.752495
0.9161
1.03101
1.11631
1.18984
1.25977
1.32787
1.4017
1.49242
1.60348
1.71081
1.82011
1.99855
2.19277
2.04856
1.91076
1.81189
1.77306
1.80957
1.93225
2.1237
2.28411
2.41279
2.51899
2.60738
2.67931
2.73266
2.76272
2.71724
2.56972
2.37976
2.14142
1.89038
1.66582
1.46042
1.26732
0.101685
0.166645
0.198204
0.192062
0.143726
0.0473251
0.103458
0.316429
0.574631
0.774139
0.910339
0.997509
1.05521
1.10124
1.14255
1.1798
1.22027
1.27511
1.34782
1.4251
1.57859
1.81225
2.04498
1.93242
1.82571
1.76293
1.7687
1.86054
2.04358
2.21817
2.35964
2.47979
2.5852
2.67763
2.71005
2.65432
2.57138
2.45405
2.29514
2.08828
1.85978
1.66174
1.48687
1.3275
1.17711
0.061142
0.0192795
0.064888
0.0710182
0.0322151
0.0574532
0.205044
0.419121
0.660568
0.833191
0.941917
1.00135
1.03159
1.04988
1.06202
1.0675
1.07368
1.09104
1.12333
1.16451
1.31927
1.59084
1.86426
1.79573
1.73291
1.71991
1.785
1.94778
2.13924
2.29351
2.42646
2.5039
2.50294
2.49032
2.45988
2.40416
2.31443
2.18332
2.00414
1.79499
1.6188
1.47058
1.34197
1.22552
1.11551
0.271084
0.173859
0.113308
0.0948067
0.123882
0.207176
0.352482
0.569073
0.7873
0.933258
1.01499
1.04762
1.05103
1.04163
1.02439
0.997856
0.968861
0.947468
0.93685
0.94886
1.10565
1.38412
1.65068
1.63267
1.62904
1.68264
1.82519
2.03414
2.16287
2.19705
2.22087
2.23935
2.25044
2.24675
2.21883
2.15688
2.05232
1.89811
1.70548
1.54577
1.41947
1.31752
1.23185
1.15577
1.08341
0.526741
0.418583
0.341656
0.309498
0.328278
0.405136
0.548721
0.76556
0.957397
1.0773
1.13336
1.14066
1.11861
1.08265
1.03658
0.978405
0.914232
0.853165
0.797443
0.78911
0.951357
1.24197
1.47782
1.462
1.51099
1.65145
1.75499
1.81347
1.8608
1.90245
1.94212
1.97927
2.00631
2.01053
1.98004
1.90428
1.7756
1.59874
1.45145
1.3425
1.26264
1.20342
1.15745
1.11857
1.08111
0.743729
0.683651
0.624302
0.578484
0.58522
0.654747
0.796383
1.00705
1.17252
1.26728
1.29951
1.28381
1.2387
1.17827
1.10523
1.01703
0.919064
0.818584
0.716152
0.698711
0.870386
1.17922
1.37994
1.36514
1.42949
1.51768
1.54153
1.54688
1.5618
1.59808
1.65702
1.71946
1.7633
1.77193
1.73201
1.63375
1.47644
1.34031
1.24629
1.18511
1.1485
1.12883
1.11948
1.11457
1.10926
0.903633
0.887878
0.880871
0.884258
0.900936
0.960281
1.09816
1.29444
1.43269
1.50321
1.51388
1.4784
1.41377
1.33224
1.23563
1.12113
0.992865
0.855286
0.707939
0.693497
0.878975
1.21202
1.37638
1.36606
1.4242
1.41808
1.37422
1.33751
1.32877
1.35135
1.40047
1.46065
1.50927
1.51669
1.45922
1.33097
1.20913
1.13182
1.08937
1.07349
1.07728
1.09418
1.11835
1.14437
1.16808
1.01841
1.0392
1.07532
1.13058
1.20902
1.31569
1.45881
1.62954
1.7381
1.78405
1.77489
1.72298
1.64309
1.54531
1.43061
1.29619
1.14398
0.974302
0.795158
0.790041
0.993776
1.35573
1.48755
1.48505
1.46492
1.37034
1.27082
1.20337
1.17689
1.18597
1.22141
1.26085
1.27514
1.24078
1.1441
1.04526
0.991329
0.972218
0.979816
1.0074
1.04918
1.09976
1.15432
1.20819
1.25751
1.10445
1.15511
1.22593
1.32218
1.45039
1.61791
1.82243
1.98173
2.07592
2.10661
2.07999
2.01385
1.92303
1.8149
1.68979
1.54463
1.37798
1.18435
0.99155
1.00209
1.22764
1.62071
1.72943
1.69864
1.56289
1.39354
1.25347
1.16358
1.11916
1.10915
1.12324
1.13105
1.0966
0.996046
0.848007
0.807144
0.822014
0.860813
0.917381
0.986542
1.0639
1.14518
1.22688
1.30503
1.37661
1.17856
1.25603
1.35661
1.48664
1.65417
1.86728
2.06317
2.20241
2.28778
2.32409
2.3182
2.27876
2.21326
2.12511
2.0118
1.8688
1.69877
1.47338
1.30371
1.3347
1.582
2.00308
2.10549
1.96415
1.73226
1.51121
1.34561
1.23445
1.16482
1.12579
1.10894
1.07182
0.971834
0.78713
0.637932
0.622337
0.701252
0.797791
0.902081
1.01059
1.12074
1.22976
1.33495
1.43386
1.52411
1.25291
1.35825
1.48933
1.65296
1.85758
2.07028
2.22602
2.32798
2.38319
2.4011
2.39287
2.36875
2.33572
2.29461
2.20099
2.00184
1.76213
1.56638
1.54414
1.70131
2.02312
2.46876
2.54469
2.27272
1.99089
1.74618
1.5641
1.42403
1.31811
1.2394
1.18224
1.08535
0.900761
0.65093
0.522533
0.522295
0.630348
0.783733
0.933624
1.07885
1.21846
1.35151
1.47655
1.59245
1.69752
1.33936
1.47462
1.63923
1.84072
2.06895
2.24696
2.36913
2.44231
2.47744
2.48744
2.48517
2.40833
2.27995
2.1447
1.99294
1.81096
1.58992
1.48104
1.55273
1.81005
2.23114
2.7683
2.9234
2.61148
2.35814
2.10504
1.90782
1.72728
1.57752
1.45167
1.34747
1.17458
0.884882
0.627417
0.511663
0.518408
0.628902
0.818916
1.01138
1.18961
1.35483
1.50764
1.64857
1.77744
1.8934
1.45774
1.62851
1.83263
2.07409
2.28253
2.43571
2.53943
2.60372
2.53951
2.44481
2.34655
2.24736
2.14311
2.02505
1.88036
1.69169
1.48492
1.42607
1.54082
1.83222
2.27842
2.80027
2.91833
2.8482
2.80289
2.54925
2.34822
2.1224
1.93441
1.75986
1.60694
1.34099
0.974115
0.727428
0.613956
0.617249
0.71983
0.904919
1.13281
1.33947
1.52562
1.69392
1.84642
1.98409
2.10736
1.62701
1.84636
2.10317
2.35059
2.52965
2.55379
2.53745
2.49126
2.42656
2.35281
2.27386
2.18779
2.0882
1.9653
1.80472
1.58717
1.40625
1.39019
1.54919
1.87787
2.33895
2.66755
2.90612
2.83902
2.81989
2.82724
2.80512
2.5652
2.36789
2.1498
1.95562
1.58134
1.20319
0.9554
0.83197
0.819881
0.903059
1.06574
1.29324
1.52332
1.7257
1.90497
2.0649
2.20752
2.3345
1.8443
2.08221
2.26395
2.38914
2.46328
2.49393
2.49015
2.46109
2.41409
2.35323
2.27838
2.1863
2.07135
1.9252
1.73361
1.48784
1.34219
1.3573
1.53195
1.843
2.23194
2.53381
2.81468
2.80408
2.80866
2.82038
2.83331
2.84641
2.81579
2.58298
2.3732
1.9363
1.56264
1.30139
1.1558
1.11673
1.16995
1.30072
1.4957
1.73366
1.94844
2.13519
2.2992
2.44375
2.57133
1.90909
2.06917
2.20859
2.3349
2.42587
2.47599
2.49397
2.48632
2.45669
2.40505
2.32861
2.2232
2.08428
1.9057
1.67516
1.42507
1.32105
1.38593
1.6114
1.94952
2.09191
2.39121
2.67497
2.77076
2.79839
2.81364
2.82699
2.83987
2.85291
2.86238
2.81097
2.38929
2.00951
1.72561
1.54989
1.47718
1.4951
1.58988
1.74886
1.96141
2.18939
2.38475
2.54761
2.68269
2.79443
2.04118
2.14796
2.23073
2.29813
2.36156
2.43172
2.48231
2.50644
2.50418
2.47194
2.40369
2.29271
2.13295
1.91836
1.63871
1.40039
1.32178
1.41396
1.67351
2.07118
1.99158
2.24816
2.53593
2.76055
2.79156
2.80709
2.82043
2.82987
2.84869
2.86204
2.85778
2.46104
2.08819
1.80905
1.63397
1.55774
1.57039
1.66032
1.81481
2.01262
2.20624
2.39322
2.56137
2.70195
2.81987
2.21376
2.27738
2.31434
2.3333
2.3457
2.36462
2.40203
2.4619
2.50261
2.50677
2.46483
2.36661
2.20252
1.96389
1.65565
1.44588
1.39026
1.48999
1.71023
1.64946
1.80904
2.10861
2.42028
2.75006
2.78382
2.79693
2.81205
2.82536
2.88331
2.9364
2.88322
2.4962
2.15178
1.90061
1.75146
1.69866
1.73068
1.83458
1.99863
2.15771
2.27887
2.40172
2.52802
2.65845
2.78598
2.38946
2.41655
2.41448
2.39232
2.3632
2.34166
2.33813
2.35639
2.39546
2.44374
2.44533
2.37931
2.23247
1.99099
1.7014
1.53886
1.52693
1.67186
1.95493
1.63735
1.66227
1.96951
2.30349
2.6853
2.76364
2.78839
2.84267
2.8991
2.94131
2.97622
2.76406
2.35017
2.02305
1.80294
1.68942
1.67279
1.73972
1.87676
2.07174
2.25738
2.38837
2.47466
2.54692
2.62891
2.71947
2.27102
2.28447
2.28227
2.27425
2.26768
2.26525
2.26665
2.27074
2.27564
2.27801
2.2739
2.24725
2.13234
1.90287
1.67484
1.5677
1.59599
1.74754
1.41409
1.25752
1.46352
1.78312
2.13806
2.51142
2.62413
2.71473
2.76931
2.80965
2.66111
2.57354
2.33012
1.95586
1.68163
1.51531
1.45316
1.48434
1.59532
1.7728
2.00482
2.22249
2.38401
2.49919
2.57601
2.62172
2.66795
2.15491
2.15204
2.13961
2.12704
2.12112
2.12476
2.13552
2.14528
2.14256
2.11702
2.06085
1.96827
1.82907
1.62697
1.46503
1.37844
1.34612
1.2827
0.987553
1.03892
1.42889
1.89414
2.40011
2.55586
2.63903
2.69149
2.72921
2.76109
2.44789
2.17398
1.87146
1.53354
1.3082
1.19103
1.175
1.24844
1.39799
1.61079
1.87542
2.12164
2.31118
2.45385
2.55756
2.6284
2.6713
2.06578
2.0483
2.02478
2.00271
1.98697
1.97887
1.97567
1.97158
1.95931
1.92963
1.86934
1.75879
1.57393
1.38112
1.29569
1.32019
1.39412
0.843285
0.681501
1.14073
1.7089
2.29728
2.77627
2.72931
2.69926
2.70929
2.73396
2.5502
2.17363
2.01395
1.70393
1.36741
1.14419
1.03289
1.02555
1.10947
1.27081
1.49664
1.77512
2.03444
2.23964
2.40005
2.52317
2.61483
2.67951
2.0192
1.9889
1.95332
1.91819
1.88552
1.85416
1.81973
1.77488
1.71044
1.61503
1.47434
1.27024
1.00568
0.82309
0.762976
0.831968
1.0009
0.778719
0.938795
1.52715
2.14915
2.72073
2.87471
2.79775
2.73872
2.73326
2.53451
2.21232
1.97272
2.37349
2.04401
1.64701
1.35219
1.17699
1.11781
1.16178
1.29366
1.49881
1.76361
2.01398
2.21632
2.37914
2.50912
2.61117
2.68888
2.02738
1.98611
1.93925
1.88993
1.83861
1.78217
1.71527
1.62967
1.51533
1.36006
1.1488
0.863333
0.592598
0.430784
0.395212
0.491325
0.688105
0.747128
1.07874
1.5626
2.09394
2.61003
2.87978
2.81829
2.76166
2.53627
2.19055
1.91711
2.15359
2.38398
2.0535
1.68242
1.4052
1.2373
1.17694
1.21431
1.3368
1.53185
1.787
2.02773
2.22406
2.38418
2.51464
2.62022
2.70398
2.09959
2.04907
1.99164
1.92844
1.85837
1.77772
1.67967
1.5559
1.39568
1.18616
0.911587
0.587858
0.343376
0.207796
0.196714
0.314056
0.53274
0.714567
0.98387
1.34891
1.75481
2.16782
2.43177
2.47256
2.57656
2.31587
1.96346
2.03027
2.48476
2.46604
2.08558
1.71228
1.43888
1.27506
1.21697
1.25435
1.3749
1.56668
1.81716
2.05146
2.24264
2.39909
2.5275
2.6325
2.71756
2.24009
2.18179
2.1141
2.03715
1.94886
1.84444
1.71719
1.55795
1.35581
1.09752
0.769733
0.467804
0.256939
0.152966
0.168549
0.305367
0.539562
0.768244
0.954624
1.21168
1.50437
1.80738
2.01641
2.09216
2.21347
1.92533
1.62645
1.82026
2.26383
2.26702
1.91052
1.57153
1.32455
1.18026
1.13597
1.18258
1.30896
1.50407
1.75583
1.98911
2.1798
2.33645
2.46578
2.57254
2.66038
2.37614
2.31458
2.24126
2.15543
2.05396
1.93177
1.78176
1.59481
1.35985
1.07098
0.759359
0.49728
0.325344
0.256525
0.300024
0.454639
0.698227
0.923035
1.02932
1.19038
1.38385
1.58927
1.74309
1.83401
1.93506
1.63217
1.37272
1.58837
1.95098
1.86646
1.50121
1.18589
0.963919
0.844208
0.823309
0.891973
1.03915
1.25375
1.52102
1.76557
1.96651
2.13252
2.27078
2.38611
2.48239
2.4537
2.38275
2.29774
2.19696
2.07687
1.9322
1.75581
1.54766
1.33422
1.11411
0.872183
0.660069
0.533583
0.501976
0.57238
0.742043
0.989464
1.17812
1.2129
1.29127
1.40036
1.52159
1.62411
1.70948
1.7718
1.46494
1.24698
1.45371
1.72861
1.54025
1.16659
0.857775
0.640779
0.523163
0.501635
0.567471
0.710217
0.919819
1.18643
1.44173
1.65269
1.82824
1.97543
2.09981
2.20507
2.47594
2.39051
2.2882
2.16708
2.02326
1.86206
1.70743
1.55855
1.41026
1.21029
0.98243
0.828753
0.759565
0.781202
0.895372
1.09473
1.35757
1.5156
1.49808
1.50657
1.5451
1.59511
1.65127
1.7154
1.73301
1.43267
1.26143
1.43649
1.6077
1.32196
0.945421
0.636505
0.417345
0.294548
0.265114
0.321102
0.453045
0.651314
0.907349
1.16737
1.38312
1.56342
1.71531
1.84436
1.95445
2.44524
2.34114
2.21759
2.08469
1.96426
1.8563
1.75987
1.64684
1.47471
1.24634
1.06665
0.962688
0.940741
1.00459
1.15326
1.37758
1.65608
1.80338
1.79175
1.78834
1.79532
1.79369
1.80833
1.84359
1.81879
1.53754
1.41759
1.5435
1.59069
1.22961
0.844763
0.528706
0.299856
0.164133
0.119137
0.157967
0.271992
0.452446
0.6912
0.948696
1.16451
1.34555
1.49858
1.62933
1.74148
2.3639
2.2523
2.15376
2.06997
2.00177
1.93937
1.83873
1.68673
1.47283
1.2687
1.13322
1.07179
1.08887
1.18629
1.36099
1.60262
1.88976
2.01961
2.01347
2.01107
2.02051
2.02396
2.04718
2.07888
2.0268
1.7788
1.69998
1.76903
1.67676
1.26061
0.862165
0.532404
0.287008
0.13139
0.0640144
0.0788956
0.168533
0.324905
0.540657
0.787697
0.99868
1.17608
1.32673
1.45568
1.56684
2.29722
2.2314
2.18095
2.14582
2.09176
1.99997
1.86308
1.67143
1.44946
1.28537
1.18881
1.16397
1.21353
1.3377
1.53201
1.78544
2.07404
2.18464
2.18333
2.1822
2.19448
2.20618
2.25026
2.30673
2.28251
2.12025
2.08464
2.09654
1.82026
1.40175
0.990482
0.641203
0.373318
0.192085
0.0964775
0.0818329
0.14164
0.268749
0.456165
0.685219
0.886436
1.05621
1.20059
1.32442
1.43155
2.31454
2.29572
2.27451
2.22393
2.13944
2.01445
1.84093
1.61788
1.42866
1.30112
1.23909
1.24568
1.32227
1.46762
1.67651
1.93763
2.22212
2.31377
2.31647
2.31731
2.33467
2.36043
2.42878
2.51005
2.51845
2.44334
2.45069
2.2308
1.90351
1.53339