<VTKFile type="ImageData" version="1.0" byte_order="LittleEndian" header_type="UInt64">
	<ImageData WholeExtent="0 74 0 74 0 74" Origin="-73.0703 -73.0703 -73.0703" Spacing="1.97487 1.97487 1.97487">
		<Piece Extent="0 74 0 74 0 74">
			<PointData Scalars="Scalars_">
				<DataArray type="Float32" Name="Scalars_" format="ascii" RangeMin="0" RangeMax="100">
72.8755
71.7178
70.5601
69.4025
68.3116
67.2543
66.1969
65.1456
64.2011
63.2566
62.3121
61.4959
60.6742
59.8525
59.1032
58.4116
57.7199
57.0507
56.4917
55.9326
55.3735
54.9192
54.49
54.0607
53.7015
53.4166
53.1317
52.885
53.0951
53.3051
53.5152
53.5553
53.5287
53.502
53.5049
53.5587
53.6125
53.6666
53.6845
53.7024
53.7203
53.6174
53.4431
53.2689
53.2276
53.5509
53.8741
54.1973
54.6373
55.0855
55.5337
56.0458
56.6073
57.1688
57.7532
58.4375
59.1219
59.8063
60.5984
61.4092
62.22
63.0631
63.9945
64.9259
65.8837
66.9272
67.9708
69.0144
70.1156
71.259
72.4023
73.144
73.144
73.144
73.144
71.7223
70.5506
69.379
68.2073
67.1025
66.0315
64.9606
63.8962
62.939
61.9818
61.0245
60.1968
59.3638
58.5308
57.7712
57.0703
56.3694
55.6913
55.1249
54.5586
53.9922
53.5318
53.0966
52.6615
52.2969
52.0074
51.7179
51.4674
51.6791
51.8908
52.1025
52.1429
52.116
52.0891
52.0908
52.1416
52.1924
52.2436
52.2616
52.2796
52.2975
52.1945
52.0201
51.8457
51.806
52.135
52.464
52.793
53.2383
53.6921
54.1458
54.664
55.2321
55.8002
56.3915
57.0848
57.7781
58.4715
59.2746
60.0965
60.9185
61.7738
62.7179
63.662
64.6324
65.6897
66.747
67.8042
68.92
70.0774
71.2348
71.985
71.985
71.985
71.985
70.569
69.3834
68.1978
67.0122
65.8934
64.8088
63.7243
62.6469
61.6769
60.7069
59.7369
58.8977
58.0535
57.2092
56.4393
55.7291
55.0188
54.3318
53.7582
53.1846
52.611
52.1444
51.7033
51.2622
50.8922
50.5982
50.3042
50.0498
50.2632
50.4765
50.6899
50.7305
50.7033
50.6762
50.6766
50.7245
50.7724
50.8206
50.8386
50.8567
50.8747
50.7716
50.5971
50.4225
50.3844
50.7191
51.0539
51.3886
51.8394
52.2986
52.7579
53.2822
53.857
54.4317
55.0298
55.7321
56.4344
57.1367
57.9507
58.7839
59.617
60.4844
61.4413
62.3982
63.3812
64.4522
65.5231
66.5941
67.7243
68.8958
70.0673
70.8261
70.8261
70.8261
70.8261
69.4158
68.2162
67.0166
65.8171
64.6842
63.5861
62.4879
61.3975
60.4148
59.4321
58.4494
57.5986
56.7431
55.8875
55.1074
54.3879
53.6683
52.9723
52.3914
51.8105
51.2297
50.7569
50.3099
49.8629
49.4876
49.1891
48.8905
48.6322
48.8472
49.0622
49.2772
49.3181
49.2907
49.2633
49.2625
49.3074
49.3523
49.3975
49.4157
49.4338
49.4519
49.3488
49.1741
48.9994
48.9628
49.3033
49.6438
49.9843
50.4405
50.9052
51.3699
51.9004
52.4818
53.0632
53.6681
54.3793
55.0906
55.8019
56.6268
57.4712
58.3155
59.1951
60.1647
61.1344
62.13
63.2147
64.2993
65.3839
66.5286
67.7142
68.8998
69.6672
69.6672
69.6672
69.6672
68.3128
67.0999
65.887
64.6741
63.5566
62.4447
61.3328
60.2232
59.2276
58.2319
57.2363
56.3669
55.4999
54.633
53.848
53.1199
52.3918
51.6791
51.0916
50.5042
49.9167
49.4414
48.9885
48.5356
48.1544
47.8508
47.5472
47.2861
47.4996
47.7131
47.9266
47.9637
47.9343
47.905
47.9009
47.9417
47.9826
48.0252
48.0457
48.0663
48.0868
47.9837
47.8122
47.6407
47.6132
47.96
48.3068
48.6535
49.1068
49.5769
50.0469
50.586
51.1733
51.7605
52.3703
53.0902
53.81
54.5299
55.3533
56.2085
57.0638
57.9794
58.9622
59.9451
60.9368
62.0347
63.1325
64.2304
65.4104
66.6101
67.8098
68.5666
68.5666
68.5666
68.5666
67.2604
66.034
64.8075
63.5811
62.4499
61.3248
60.1997
59.0775
58.0696
57.0616
56.0536
55.1732
54.2956
53.418
52.6234
51.8867
51.15
50.4293
49.8353
49.2413
48.6474
48.1661
47.7074
47.2487
46.862
46.5532
46.2444
45.9783
46.1887
46.3991
46.6095
46.6435
46.611
46.5785
46.5707
46.6067
46.6427
46.6803
46.705
46.7296
46.7542
46.6561
46.49
46.3239
46.3019
46.6548
47.0077
47.3607
47.8191
48.2941
48.7691
49.3133
49.9065
50.4996
51.1157
51.8441
52.5724
53.3008
54.1349
55.0011
55.8672
56.7944
57.7899
58.7854
59.7896
60.9011
62.0125
63.1239
64.3174
65.5309
66.7444
67.5105
67.5105
67.5105
67.5105
66.208
64.968
63.728
62.488
61.3432
60.2049
59.0665
57.9318
56.9115
55.8913
54.871
53.9796
53.0912
52.2029
51.3987
50.6535
49.9083
49.1794
48.579
47.9785
47.3781
46.8907
46.4263
45.9618
45.5696
45.2556
44.9415
44.6705
44.8778
45.0851
45.2924
45.3232
45.2876
45.252
45.2405
45.2716
45.3027
45.3355
45.3642
45.3929
45.4216
45.3284
45.1677
45.007
44.9905
45.3496
45.7087
46.0678
46.5314
47.0113
47.4911
48.0407
48.6396
49.2386
49.8612
50.598
51.3348
52.0716
52.9164
53.7935
54.6707
55.6094
56.6176
57.6257
58.6425
59.7675
60.8925
62.0175
63.2244
64.4518
65.6792
66.4544
66.4544
66.4544
66.4544
65.2005
63.9467
62.6929
61.4392
60.2403
59.0894
57.9385
56.8374
55.805
54.7726
53.7402
52.818
51.9194
51.0209
50.196
49.4428
48.6895
47.9719
47.3652
46.7585
46.1518
45.6531
45.1833
44.7135
44.3152
43.9957
43.6762
43.4026
43.6045
43.8063
44.0081
44.0352
43.9956
43.956
43.9389
43.9645
43.99
44.0152
44.0493
44.0835
44.1176
44.0338
43.8811
43.7284
43.714
44.0791
44.4442
44.8093
45.2855
45.7698
46.2542
46.802
47.4061
48.0103
48.6458
49.391
50.1362
50.8814
51.7354
52.6234
53.5114
54.4625
55.4829
56.5033
57.5351
58.6736
59.8122
60.9508
62.1491
63.3902
64.6312
65.4266
65.4265
65.4264
65.4263
64.2607
62.9944
61.728
60.4617
59.2506
58.0874
56.9243
55.8112
54.7676
53.724
52.6804
51.7487
50.841
49.9331
49.1005
48.3406
47.5808
46.8568
46.2457
45.6346
45.0235
44.5199
44.0451
43.5703
43.1663
42.8405
42.5147
42.2343
42.4246
42.6149
42.8052
42.8247
42.7789
42.7331
42.7093
42.7275
42.7457
42.7634
42.8062
42.849
42.8918
42.8204
42.6822
42.5441
42.5421
42.9139
43.2856
43.6573
44.1372
44.625
45.1129
45.6647
46.273
46.8813
47.5215
48.2739
49.0264
49.7789
50.6426
51.5406
52.4387
53.4006
54.4329
55.4653
56.5093
57.6608
58.8123
59.9638
61.1755
62.4298
63.6841
64.4876
64.4875
64.4874
64.4873
63.321
62.0421
60.7631
59.4842
58.2608
57.0854
55.9101
54.7849
53.7301
52.6754
51.6206
50.6795
49.7625
48.8454
48.005
47.2385
46.472
45.7416
45.1261
44.5107
43.8952
43.3868
42.9069
42.427
42.0174
41.6853
41.3532
41.066
41.2447
41.4234
41.6022
41.6142
41.5622
41.5101
41.4797
41.4905
41.5013
41.5117
41.5631
41.6145
41.666
41.607
41.4833
41.3597
41.3703
41.7486
42.1269
42.5052
42.9889
43.4803
43.9717
44.5274
45.1398
45.7523
46.3971
47.1569
47.9166
48.6763
49.5497
50.4578
51.366
52.3386
53.3829
54.4273
55.4836
56.648
57.8124
58.9768
60.2019
61.4694
62.7369
63.5486
63.5485
63.5484
63.5483
62.3813
61.0897
59.7982
58.5067
57.2711
56.0835
54.8959
53.7586
52.6927
51.6267
50.5608
49.6103
48.6839
47.7576
46.9096
46.1364
45.3632
44.6264
44.0066
43.3867
42.7669
42.2536
41.7687
41.2838
40.8685
40.5301
40.1917
39.8977
40.0649
40.232
40.3992
40.4036
40.3454
40.2872
40.2502
40.2536
40.257
40.26
40.32
40.3801
40.4402
40.3935
40.2845
40.1754
40.1984
40.5833
40.9683
41.3532
41.8405
42.3355
42.8304
43.3901
44.0067
44.6233
45.2728
46.0398
46.8068
47.5738
48.4568
49.3751
50.2934
51.2767
52.3329
53.3892
54.4578
55.6352
56.8125
57.9898
59.2283
60.509
61.7898
62.6096
62.6095
62.6094
62.6093
61.5528
60.2503
58.9478
57.6453
56.4068
55.2087
54.0105
52.85
51.7746
50.6992
49.6238
48.6639
47.7309
46.798
45.9642
45.1874
44.4105
43.6541
43.0344
42.4147
41.795
41.2863
40.7975
40.3088
39.8828
39.5365
39.1901
38.8898
39.032
39.1741
39.3163
39.3062
39.2402
39.1742
39.1297
39.1231
39.1165
39.1096
39.1815
39.2533
39.3251
39.3005
39.2195
39.1385
39.1858
39.5782
39.9705
40.3629
40.8531
41.3495
41.8459
42.4046
43.0227
43.6409
44.2807
45.0527
45.8248
46.5969
47.5056
48.4324
49.3593
50.3447
51.4118
52.4789
53.5623
54.7515
55.9406
57.1298
58.3868
59.6798
60.9729
61.8019
61.8019
61.8019
61.8019
60.7366
59.423
58.1095
56.7959
55.5469
54.3383
53.1297
51.9589
50.8744
49.7898
48.7053
47.7389
46.7993
45.8597
45.021
44.2412
43.4614
42.7027
42.0831
41.4634
40.8437
40.3324
39.8404
39.3484
38.9169
38.5621
38.2072
37.8968
38.0128
38.1288
38.2448
38.2216
38.1475
38.0734
38.02
38.0033
37.9865
37.9695
38.0534
38.1373
38.2212
38.2196
38.168
38.1163
38.1869
38.5866
38.9863
39.386
39.8779
40.3755
40.873
41.433
42.0523
42.6716
43.3134
44.0906
44.8678
45.645
46.5612
47.4966
48.4319
49.4273
50.505
51.5828
52.6769
53.8778
55.0787
56.2796
57.5486
58.8537
60.1588
60.9955
60.9955
60.9955
60.9955
59.9204
58.5958
57.2712
55.9466
54.6871
53.4679
52.2488
51.0678
49.9741
48.8805
47.7868
46.8138
45.8676
44.9214
44.0778
43.2951
42.5123
41.7514
41.1317
40.5121
39.8924
39.3784
38.8832
38.388
37.9509
37.5877
37.2244
36.9038
36.9936
37.0834
37.1732
37.137
37.0548
36.9725
36.9103
36.8834
36.8566
36.8293
36.9253
37.0213
37.1173
37.1388
37.1165
37.0942
37.1881
37.5951
38.0021
38.4092
38.9027
39.4014
39.9001
40.4614
41.0819
41.7024
42.3462
43.1285
43.9108
44.6931
45.6168
46.5607
47.5046
48.5098
49.5983
50.6868
51.7915
53.0041
54.2168
55.4294
56.7104
58.0276
59.3447
60.1891
60.1891
60.1891
60.1891
59.1719
57.8374
56.503
55.1685
53.9083
52.6797
51.4511
50.2475
49.1465
48.0456
46.9446
45.9907
45.0397
44.0887
43.2184
42.4364
41.6544
40.9095
40.294
39.6785
39.063
38.5443
38.0477
37.5509
37.1066
36.7317
36.3568
36.0218
36.0739
36.1261
36.1782
36.1274
36.0377
35.9481
35.8766
35.8386
35.8007
35.7631
35.8716
35.9802
36.0887
36.1378
36.1541
36.1703
36.299
36.7146
37.1303
37.5459
38.0346
38.5331
39.0316
39.5968
40.2164
40.8359
41.4895
42.2756
43.0616
43.8477
44.7633
45.7147
46.6662
47.6848
48.7829
49.8811
50.9902
52.2136
53.437
54.6604
55.9596
57.2878
58.616
59.4509
59.4509
59.4509
59.4509
58.4869
57.1435
55.8001
54.4568
53.1879
51.9512
50.7145
49.5033
48.3961
47.2889
46.1817
45.2245
44.2709
43.3172
42.4477
41.6688
40.8899
40.1489
39.5416
38.9344
38.3271
37.8095
37.3122
36.8149
36.3639
35.9753
35.5866
35.2348
35.2394
35.244
35.2486
35.1798
35.0833
34.9868
34.9067
34.857
34.8072
34.7579
34.8795
35.0011
35.1227
35.2063
35.2692
35.3321
35.4973
35.9225
36.3477
36.7729
37.2615
37.7588
38.256
38.8192
39.4361
40.053
40.7047
41.493
42.2813
43.0697
43.9912
44.949
45.9069
46.9328
48.0398
49.1468
50.265
51.4983
52.7317
53.9651
55.2744
56.6129
57.9514
58.7932
58.7932
58.7932
58.7932
57.8018
56.4495
55.0973
53.745
52.4676
51.2227
49.9778
48.7591
47.6456
46.5322
45.4187
44.4584
43.5021
42.5458
41.6771
40.9012
40.1254
39.3882
38.7892
38.1902
37.5912
37.0746
36.5767
36.0788
35.6213
35.2189
34.8164
34.4478
34.4048
34.3619
34.3189
34.2322
34.1288
34.0254
33.9367
33.8753
33.8138
33.7527
33.8873
34.022
34.1566
34.2747
34.3843
34.494
34.6957
35.1304
35.5652
35.9999
36.4883
36.9844
37.4805
38.0417
38.6559
39.2701
39.9199
40.7105
41.5011
42.2916
43.2191
44.1833
45.1476
46.1809
47.2967
48.4125
49.5398
50.7831
52.0265
53.2698
54.5892
55.938
57.2868
58.1356
58.1356
58.1356
58.1356
57.1422
55.7812
54.4202
53.0592
51.7645
50.5121
49.2597
48.0458
46.9264
45.8071
44.6878
43.7172
42.7591
41.801
40.9457
40.174
39.4022
38.6599
38.0711
37.4823
36.8935
36.3779
35.8786
35.3792
34.9172
34.4989
34.0806
33.6902
33.5985
33.5069
33.4152
33.3113
33.2014
33.0916
32.9957
32.9231
32.8506
32.7777
32.9246
33.0716
33.2186
33.3728
33.5295
33.6862
33.9192
34.3638
34.8085
35.2531
35.7463
36.2427
36.7391
37.2961
37.9078
38.5195
39.1634
39.9559
40.7483
41.5407
42.4832
43.4535
44.4237
45.4647
46.5891
47.7136
48.8511
50.104
51.3568
52.6097
53.9307
55.2895
56.6482
57.5218
57.5218
57.5218
57.5218
56.5899
55.2222
53.8545
52.4868
51.1861
49.9279
48.6697
47.4502
46.3273
45.2043
44.0813
43.1114
42.1542
41.197
40.3471
39.5845
38.8219
38.0905
37.5201
36.9497
36.3793
35.863
35.3587
34.8544
34.3781
33.9344
33.4907
33.0724
32.9268
32.7813
32.6357
32.5136
32.3991
32.2845
32.1824
32.1013
32.0202
31.9387
32.0951
32.2516
32.408
32.5954
32.7989
33.0024
33.2729
33.73
34.1871
34.6442
35.1437
35.646
36.1484
36.7073
37.3173
37.9273
38.5701
39.3641
40.1581
40.952
41.8986
42.8738
43.8491
44.8961
46.0275
47.159
48.3036
49.5644
50.8252
52.086
53.4155
54.7824
56.1492
57.0276
57.0276
57.0276
57.0276
56.0376
54.6632
53.2888
51.9144
50.6078
49.3437
48.0796
46.8547
45.7281
44.6015
43.4749
42.5056
41.5493
40.593
39.7484
38.995
38.2416
37.5211
36.9692
36.4172
35.8652
35.3481
34.8388
34.3296
33.8391
33.37
32.9009
32.4546
32.2551
32.0557
31.8562
31.716
31.5967
31.4774
31.3692
31.2795
31.1898
31.0998
31.2657
31.4315
31.5974
31.818
32.0683
32.3186
32.6267
33.0962
33.5657
34.0352
34.5412
35.0494
35.5577
36.1185
36.7268
37.335
37.9769
38.7724
39.5678
40.3633
41.3139
42.2942
43.2744
44.3274
45.4659
46.6045
47.756
49.0248
50.2936
51.5624
52.9002
54.2752
55.6503
56.5335
56.5335
56.5335
56.5335
55.4854
54.1042
52.7231
51.3421
50.0294
48.7595
47.4895
46.2592
45.1289
43.9987
42.8684
41.8997
40.9444
39.989
39.1498
38.4055
37.6612
36.9517
36.4182
35.8846
35.351
34.8333
34.319
33.8048
33.3
32.8055
32.311
31.8368
31.5835
31.3301
31.0767
30.9183
30.7943
30.6703
30.556
30.4577
30.3594
30.2609
30.4362
30.6115
30.7868
31.0406
31.3377
31.6349
31.9804
32.4624
32.9443
33.4263
33.9386
34.4528
34.967
35.5297
36.1363
36.7428
37.3836
38.1806
38.9776
39.7746
40.7293
41.7145
42.6998
43.7588
44.9043
46.0499
47.2085
48.4852
49.762
51.0387
52.3849
53.7681
55.1513
56.0393
56.0393
56.0393
56.0393
55.0399
53.6534
52.267
50.8806
49.5704
48.2952
47.0199
45.7755
44.6413
43.5071
42.3729
41.403
40.4461
39.4892
38.6464
37.9049
37.1633
36.4611
35.928
35.3948
34.8617
34.3109
33.7554
33.1998
32.669
32.1679
31.6668
31.1882
30.9312
30.6741
30.4171
30.2554
30.129
30.0025
29.8872
29.7926
29.6979
29.6035
29.7749
29.9464
30.1178
30.3676
30.6625
30.9574
31.3049
31.7883
32.2717
32.7551
33.2973
33.8482
34.399
34.9929
35.6189
36.245
36.9055
37.7138
38.5222
39.3305
40.2882
41.2821
42.2759
43.3424
44.4956
45.6488
46.8159
48.0998
49.3836
50.6674
52.0249
53.4146
54.8043
55.6925
55.6925
55.6925
55.6925
54.6191
53.2275
51.8358
50.4442
49.1289
47.8487
46.5685
45.3195
44.1812
43.043
41.9047
40.9325
39.9736
39.0147
38.1716
37.431
36.6905
35.9885
35.4519
34.9152
34.3785
33.7868
33.1819
32.5771
32.0182
31.5147
31.0111
30.5308
30.2815
30.0322
29.7828
29.6218
29.4935
29.3652
29.251
29.1627
29.0745
28.9864
29.1509
29.3154
29.4799
29.719
30.0011
30.2832
30.621
31.1032
31.5854
32.0676
32.6495
33.244
33.8386
34.4654
35.1158
35.7662
36.4489
37.2705
38.0922
38.9138
39.8818
40.8851
41.8883
42.9633
44.1243
45.2853
46.4603
47.7509
49.0416
50.3322
51.6959
53.0918
54.4876
55.3796
55.3796
55.3796
55.3796
54.1983
52.8015
51.4046
50.0078
48.6874
47.4022
46.117
44.8636
43.7212
42.5789
41.4365
40.4621
39.5012
38.5402
37.6967
36.9572
36.2177
35.516
34.9758
34.4355
33.8953
33.2626
32.6085
31.9544
31.3675
30.8614
30.3553
29.8735
29.6318
29.3902
29.1486
28.9883
28.858
28.7278
28.6148
28.5329
28.451
28.3693
28.5268
28.6844
28.8419
29.0704
29.3396
29.6089
29.9371
30.4181
30.8991
31.38
32.0016
32.6398
33.2781
33.9379
34.6127
35.2874
35.9924
36.8273
37.6622
38.497
39.4753
40.488
41.5008
42.5843
43.753
44.9217
46.1046
47.4021
48.6996
49.9971
51.367
52.7689
54.1709
55.0668
55.0668
55.0668
55.0668
53.8498
52.4484
51.0471
49.6457
48.3092
47.0195
45.7298
44.4834
43.3363
42.1893
41.0422
40.0591
39.0938
38.1286
37.282
36.5371
35.7923
35.0821
34.529
33.9759
33.4227
32.7643
32.0819
31.3995
30.7993
30.2957
29.792
29.3125
29.0818
28.851
28.6203
28.4691
28.3463
28.2236
28.1251
28.0701
28.0151
27.9599
28.0808
28.2016
28.3225
28.5253
28.7748
29.0242
29.3356
29.814
30.2924
30.7707
31.4168
32.0799
32.7431
33.4271
34.1302
34.8334
35.5654
36.4226
37.2799
38.1372
39.1389
40.1686
41.1983
42.2936
43.4747
44.6558
45.846
47.1523
48.4586
49.7648
51.1478
52.5557
53.9636
54.8582
54.8582
54.8582
54.8582
53.5788
52.1738
50.7689
49.364
48.0236
46.7298
45.4359
44.1848
43.0327
41.8805
40.7284
39.7384
38.766
37.7935
36.9368
36.1793
35.4218
34.6969
34.1197
33.5424
32.9652
32.2996
31.6138
30.9281
30.3298
29.8345
29.3392
28.8688
28.6527
28.4366
28.2206
28.087
27.983
27.879
27.8111
27.8074
27.8038
27.8
27.8485
27.8971
27.9456
28.104
28.3249
28.5459
28.8355
29.3099
29.7844
30.2589
30.9066
31.5719
32.2373
32.9405
33.6768
34.4132
35.1784
36.0692
36.96
37.8508
38.8796
39.935
40.9904
42.108
43.3069
44.5057
45.7132
47.0305
48.3477
49.665
51.0548
52.4683
53.8817
54.7799
54.7799
54.7799
54.7799
53.3077
51.8992
50.4908
49.0823
47.738
46.4401
45.1421
43.8863
42.7291
41.5718
40.4146
39.4178
38.4381
37.4585
36.5917
35.8216
35.0514
34.3117
33.7104
33.109
32.5076
31.8349
31.1458
30.4567
29.8603
29.3734
28.8865
28.425
28.2237
28.0223
27.8209
27.7049
27.6196
27.5343
27.4971
27.5448
27.5925
27.6401
27.6163
27.5925
27.5687
27.6827
27.8751
28.0675
28.3353
28.8059
29.2764
29.747
30.3964
31.064
31.7315
32.4539
33.2234
33.993
34.7913
35.7157
36.64
37.5644
38.6203
39.7014
40.7826
41.9224
43.1391
44.3557
45.5804
46.9086
48.2369
49.5652
50.9619
52.3809
53.7999
54.7017
54.7017
54.7017
54.7017
53.0771
51.6656
50.2542
48.8427
47.4967
46.1949
44.8931
43.627
42.4643
41.3015
40.1388
39.1366
38.148
37.1594
36.2829
35.4971
34.7114
33.9555
33.3275
32.6995
32.0715
31.3902
30.6991
30.0079
29.4137
28.9373
28.4609
28.0117
27.8282
27.6448
27.4613
27.3663
27.3053
27.2444
27.2399
27.3339
27.4279
27.5219
27.4289
27.3358
27.2428
27.3078
27.4638
27.6197
27.8602
28.3256
28.7909
29.2563
29.907
30.5755
31.244
31.9845
32.7841
33.5836
34.4101
35.3652
36.3202
37.2753
38.3525
39.4573
40.562
41.7266
42.9597
44.1928
45.4368
46.7754
48.114
49.4526
50.8511
52.2753
53.6995
54.6045
54.6045
54.6045
54.6045
53.2544
51.8454
50.4364
49.0274
47.6812
46.3773
45.0735
43.8034
42.6303
41.4572
40.2841
39.2573
38.2431
37.2289
36.3156
35.484
34.6523
33.8495
33.1703
32.4911
31.8119
31.131
30.4517
29.7724
29.1988
28.7536
28.3083
27.8921
27.7588
27.6256
27.4923
27.4691
27.4879
27.5068
27.5515
27.6411
27.7307
27.8204
27.6881
27.5559
27.4236
27.4005
27.4403
27.4801
27.6311
28.0783
28.5255
28.9727
29.6119
30.2696
30.9274
31.6615
32.4584
33.2554
34.0803
35.0371
35.9939
36.9507
38.0308
39.1386
40.2465
41.4143
42.6507
43.8872
45.1345
46.4763
47.8181
49.1598
50.5615
51.9888
53.416
54.3229
54.3229
54.3229
54.3229
53.4317
52.0252
50.6187
49.2122
47.8656
46.5597
45.2539
43.9799
42.7964
41.6129
40.4294
39.378
38.3382
37.2984
36.3484
35.4708
34.5932
33.7435
33.0131
32.2827
31.5522
30.8718
30.2043
29.5368
28.9839
28.5698
28.1557
27.7724
27.6894
27.6064
27.5234
27.5719
27.6705
27.7691
27.863
27.9483
28.0336
28.1189
27.9474
27.7759
27.6043
27.4932
27.4168
27.3405
27.402
27.8311
28.2601
28.6891
29.3168
29.9637
30.6107
31.3384
32.1328
32.9272
33.7504
34.709
35.6676
36.6262
37.7091
38.8201
39.9311
41.102
42.3417
43.5815
44.8322
46.1771
47.5221
48.8671
50.272
51.7023
53.1325
54.0414
54.0414
54.0414
54.0414
53.6091
52.205
50.8009
49.3969
48.05
46.7421
45.4342
44.1563
42.9624
41.7685
40.5747
39.4988
38.4333
37.3679
36.3811
35.4576
34.5341
33.6376
32.8559
32.0743
31.2927
30.6127
29.957
29.3013
28.769
28.3861
28.0032
27.6528
27.62
27.5872
27.5544
27.6747
27.8531
28.0315
28.1746
28.2555
28.3364
28.4174
28.2067
27.9959
27.7851
27.5858
27.3933
27.2008
27.173
27.5838
27.9947
28.4055
29.0217
29.6579
30.294
31.0153
31.8072
32.599
33.4205
34.3809
35.3412
36.3016
37.3873
38.5015
39.6156
40.7896
42.0327
43.2758
44.5298
45.878
47.2262
48.5744
49.9824
51.4157
52.8491
53.7599
53.7599
53.7599
53.7599
53.6127
52.2064
50.8002
49.394
48.0473
46.7335
45.4198
44.1356
42.9313
41.727
40.5228
39.4293
38.3485
37.2678
36.2633
35.3197
34.3762
33.4582
32.6582
31.8583
31.0583
30.3805
29.7302
29.0798
28.562
28.2033
27.8445
27.5209
27.5528
27.5847
27.6166
27.7893
28.015
28.2406
28.4123
28.4892
28.5662
28.6431
28.4255
28.2079
27.9903
27.7659
27.5373
27.3087
27.2412
27.6049
27.9686
28.3323
28.9173
29.5241
30.1309
30.8314
31.6099
32.3884
33.1995
34.1548
35.1101
36.0654
37.1483
38.2611
39.3739
40.5455
41.789
43.0326
44.2879
45.6375
46.9871
48.3368
49.7463
51.1817
52.6171
53.5326
53.5326
53.5326
53.5326
53.5555
52.1452
50.7349
49.3246
47.9715
46.6505
45.3295
44.0374
42.8227
41.608
40.3933
39.2887
38.1965
37.1043
36.0887
35.1348
34.1809
33.2534
32.4473
31.6412
30.8352
30.1587
29.5113
28.8638
28.3574
28.0201
27.6828
27.3852
27.4871
27.5891
27.691
27.9083
28.169
28.4296
28.6222
28.6954
28.7685
28.8417
28.6294
28.4171
28.2048
27.9784
27.7437
27.509
27.4214
27.7269
28.0325
28.3381
28.8849
29.4554
30.0259
30.7005
31.4617
32.2228
33.0182
33.9659
34.9135
35.8612
36.9406
38.0504
39.1602
40.3299
41.5728
42.8157
44.0702
45.4206
46.771
48.1215
49.5326
50.9697
52.4068
53.3232
53.3232
53.3232
53.3232
53.4983
52.084
50.6696
49.2553
47.8957
46.5675
45.2393
43.9391
42.7141
41.489
40.264
39.1481
38.0444
36.9407
35.9142
34.9499
33.9856
33.0486
32.2364
31.4242
30.612
29.9369
29.2924
28.6478
28.1527
27.837
27.5212
27.2495
27.4215
27.5935
27.7655
28.0273
28.323
28.6186
28.8321
28.9015
28.9709
29.0402
28.8332
28.6263
28.4193
28.191
27.9502
27.7094
27.6015
27.849
28.0965
28.344
28.8524
29.3866
29.9208
30.5696
31.3134
32.0572
32.8369
33.7769
34.717
35.6571
36.7329
37.8397
38.9465
40.1142
41.3565
42.5988
43.8525
45.2037
46.555
47.9062
49.3189
50.7577
52.1965
53.1139
53.1139
53.1139
53.1139
53.4541
52.0383
50.6224
49.2066
47.8434
46.5118
45.1803
43.8768
42.6465
41.4162
40.1859
39.0651
37.9554
36.8457
35.8118
34.8421
33.8724
32.9312
32.1157
31.3002
30.4846
29.8094
29.1654
28.5214
28.0292
27.7192
27.4092
27.148
27.375
27.6021
27.8291
28.1227
28.4411
28.7595
28.9824
29.0384
29.0944
29.1503
28.9453
28.7403
28.5353
28.3021
28.0527
27.8033
27.6811
27.8982
28.1153
28.3325
28.8188
29.3323
29.8457
30.4806
31.2163
31.952
32.7247
33.6622
34.5997
35.5372
36.6129
37.7192
38.8255
39.9932
41.2357
42.4783
43.731
45.0829
46.4348
47.7867
49.2026
50.6424
52.0822
52.9978
52.9978
52.9978
52.9978
53.433
52.0203
50.6076
49.1949
47.8352
46.5071
45.1791
43.879
42.6523
41.4257
40.199
39.0819
37.9758
36.8698
35.8394
34.8728
33.9062
32.9678
32.1537
31.3396
30.5256
29.8475
29.1998
28.552
28.0479
27.7163
27.3847
27.1064
27.3622
27.618
27.8738
28.1762
28.4959
28.8156
29.0284
29.0541
29.0798
29.1055
28.8966
28.6878
28.4789
28.2359
27.9734
27.7108
27.584
27.8193
28.0547
28.29
28.7839
29.3037
29.8235
30.4656
31.2093
31.953
32.7332
33.677
34.6207
35.5644
36.6444
37.7545
38.8645
40.0353
41.2797
42.5242
43.7789
45.1313
46.4837
47.8361
49.2517
50.6912
52.1306
53.046
53.046
53.046
53.046
53.4118
52.0023
50.5927
49.1832
47.8271
46.5025
45.1779
43.8811
42.6581
41.4351
40.2121
39.0987
37.9963
36.8938
35.8669
34.9035
33.94
33.0043
32.1917
31.3791
30.5665
29.8857
29.2341
28.5826
28.0666
27.7134
27.3601
27.0648
27.3494
27.634
27.9186
28.2297
28.5507
28.8717
29.0743
29.0698
29.0652
29.0606
28.8479
28.6352
28.4225
28.1697
27.894
27.6183
27.4869
27.7405
27.9941
28.2476
28.749
29.2752
29.8013
30.4507
31.2023
31.954
32.7418
33.6917
34.6417
35.5916
36.6758
37.7897
38.9036
40.0774
41.3237
42.5701
43.8267
45.1797
46.5326
47.8855
49.3009
50.7399
52.179
53.0942
53.0942
53.0942
53.0942
53.3908
51.9844
50.578
49.1716
47.8194
46.4982
45.1771
43.8835
42.6642
41.4449
40.2255
39.1155
38.0167
36.9179
35.8952
34.9349
33.9746
33.0409
32.2297
31.4186
30.6074
29.9236
29.2683
28.613
28.0853
27.7104
27.3356
27.0232
27.3365
27.6499
27.9632
28.2832
28.6056
28.9279
29.1203
29.0855
29.0506
29.0157
28.7992
28.5826
28.366
28.1034
27.8146
27.5258
27.39
27.6617
27.9335
28.2053
28.7141
29.2466
29.7792
30.4353
31.1949
31.9545
32.7502
33.7064
34.6625
35.6187
36.7071
37.8248
38.9426
40.1199
41.3681
42.6164
43.8741
45.2275
46.581
47.9344
49.3498
50.7884
52.2271
53.1421
53.1421
53.1421
53.1421
53.4783
52.075
50.6716
49.2683
47.9212
46.6065
45.2918
44.0058
42.7966
41.5875
40.3783
39.2804
38.1938
37.1073
36.0973
35.1505
34.2036
33.2833
32.4842
31.6851
30.8859
30.209
29.5595
28.9099
28.3826
28.0017
27.6208
27.2913
27.477
27.6628
27.8485
28.1046
28.3869
28.6692
28.8432
28.828
28.8127
28.7975
28.6157
28.4339
28.2521
28.0125
27.7399
27.4673
27.3541
27.6659
27.9778
28.2897
28.8277
29.3884
29.9491
30.6232
31.3923
32.1615
32.9654
33.9237
34.8821
35.8404
36.929
38.0465
39.1639
40.3406
41.5876
42.8346
44.091
45.4427
46.7943
48.146
49.5595
50.9961
52.4326
53.3465
53.3465
53.3465
53.3465
53.5658
52.1655
50.7653
49.3651
48.0231
46.7148
45.4066
44.1281
42.9291
41.7301
40.531
39.4452
38.371
37.2967
36.2994
35.366
34.4327
33.5258
32.7387
31.9515
31.1644
30.4943
29.8506
29.2068
28.68
28.293
27.9061
27.5594
27.6175
27.6757
27.7338
27.926
28.1682
28.4104
28.5661
28.5705
28.5749
28.5793
28.4323
28.2853
28.1382
27.9215
27.6651
27.4087
27.3182
27.6702
28.0221
28.374
28.9414
29.5302
30.1191
30.8111
31.5898
32.3685
33.1806
34.1411
35.1016
36.0621
37.151
38.2682
39.3853
40.5613
41.8071
43.0529
44.3079
45.6578
47.0077
48.3576
49.7692
51.2037
52.6381
53.5509
53.5509
53.5509
53.5509
53.6533
52.2561
50.8589
49.4618
48.1249
46.8231
45.5213
44.2505
43.0616
41.8727
40.6838
39.6101
38.5481
37.4861
36.5015
35.5816
34.6617
33.7682
32.9931
32.218
31.4429
30.7797
30.1417
29.5037
28.9773
28.5843
28.1914
27.8275
27.758
27.6886
27.6191
27.7474
27.9495
28.1517
28.289
28.313
28.337
28.3611
28.2488
28.1366
28.0243
27.8306
27.5904
27.3502
27.2824
27.6744
28.0664
28.4584
29.055
29.672
30.2891
30.999
31.7872
32.5755
33.3957
34.3584
35.3211
36.2838
37.3729
38.4898
39.6067
40.782
42.0265
43.2711
44.5247
45.8729
47.2211
48.5693
49.979
51.4113
52.8436
53.7553
53.7553
53.7553
53.7553
53.5682
52.1702
50.7722
49.3742
48.0407
46.7424
45.4441
44.1796
43.0014
41.8233
40.6452
39.5926
38.5537
37.5147
36.5638
35.6845
34.8052
33.9536
33.232
32.5103
31.7886
31.139
30.5042
29.8695
29.3325
28.9138
28.495
28.0996
27.9407
27.7818
27.623
27.6703
27.7947
27.9192
28.0082
28.0353
28.0623
28.0894
28.0104
27.9314
27.8525
27.7316
27.5868
27.442
27.448
27.8559
28.2638
28.6717
29.2822
29.913
30.5439
31.263
32.0562
32.8494
33.6743
34.6369
35.5996
36.5622
37.6483
38.7633
39.8782
41.0514
42.2934
43.5354
44.7867
46.1323
47.4779
48.8234
50.2307
51.6605
53.0903
53.9981
53.9981
53.9981
53.9981
53.3882
51.987
50.5858
49.1847
47.8513
46.5547
45.2581
43.9977
42.8307
41.6638
40.4968
39.4719
38.4622
37.4525
36.5454
35.7223
34.8991
34.1073
33.4628
32.8182
32.1736
31.5396
30.9066
30.2736
29.7206
29.2649
28.8091
28.3738
28.1474
27.9209
27.6945
27.6513
27.6765
27.7017
27.7253
27.7459
27.7665
27.7871
27.7406
27.6941
27.6476
27.6282
27.624
27.6199
27.7288
28.1387
28.5486
28.9585
29.5742
30.2107
30.8471
31.5701
32.3655
33.161
33.9876
34.9489
35.9102
36.8714
37.9549
39.0669
40.1788
41.3488
42.5876
43.8263
45.0743
46.4168
47.7593
49.1017
50.5063
51.9333
53.3603
54.2658
54.2658
54.2658
54.2658
53.2081
51.8038
50.3995
48.9951
47.6618
46.367
45.0721
43.8158
42.66
41.5043
40.3485
39.3512
38.3707
37.3902
36.5271
35.76
34.993
34.2611
33.6936
33.1261
32.5587
31.9403
31.309
30.6777
30.1088
29.6159
29.1231
28.648
28.354
28.06
27.7661
27.6323
27.5583
27.4843
27.4424
27.4565
27.4707
27.4849
27.4709
27.4568
27.4428
27.5247
27.6612
27.7978
28.0096
28.4216
28.8335
29.2454
29.8663
30.5083
31.1504
31.8771
32.6748
33.4726
34.301
35.2609
36.2208
37.1807
38.2615
39.3705
40.4795
41.6463
42.8817
44.1172
45.3619
46.7013
48.0407
49.38
50.7818
52.206
53.6302
54.5335
54.5335
54.5335
54.5335
53.1639
51.7587
50.3535
48.9483
47.6148
46.3226
45.0305
43.7808
42.6346
41.4884
40.3422
39.3659
38.4081
37.4503
36.6204
35.896
35.1716
34.4866
33.9783
33.47
32.9617
32.351
31.7189
31.0868
30.5042
29.9803
29.4564
28.9483
28.6026
28.2568
27.911
27.7144
27.5735
27.4325
27.3462
27.3558
27.3653
27.3749
27.3855
27.3961
27.4068
27.566
27.8099
28.0539
28.3446
28.7611
29.1776
29.5941
30.2191
30.8653
31.5114
32.2374
33.0274
33.8174
34.6343
35.5833
36.5323
37.4813
38.5539
39.6532
40.7525
41.91
43.1378
44.3656
45.6033
46.9372
48.2711
49.6049
51.0021
52.4227
53.8433
54.7486
54.7486
54.7486
54.7486
53.48
52.0799
50.6797
49.2795
47.9514
46.6645
45.3776
44.1331
42.9924
41.8516
40.7108
39.74
38.7878
37.8356
37.0121
36.2946
35.577
34.8996
34.4026
33.9057
33.4087
32.7934
32.1533
31.5131
30.9195
30.3804
29.8413
29.3186
28.9631
28.6075
28.252
28.0666
27.9447
27.8228
27.7486
27.7581
27.7676
27.7772
27.7917
27.8062
27.8207
27.993
28.2552
28.5174
28.8246
29.2524
29.6803
30.1082
30.7346
31.3811
32.0276
32.735
33.4903
34.2457
35.0274
35.9407
36.8539
37.7672
38.8106
39.8821
40.9537
42.0872
43.2957
44.5041
45.7234
47.0452
48.3671
49.689
51.0782
52.4927
53.9072
54.8087
54.8087
54.8087
54.8087
53.7962
52.4011
51.0059
49.6108
48.288
47.0063
45.7247
44.4855
43.3501
42.2147
41.0793
40.1142
39.1675
38.2209
37.4038
36.6931
35.9824
35.3126
34.827
34.3413
33.8557
33.2358
32.5876
31.9395
31.3347
30.7805
30.2263
29.6888
29.3235
28.9583
28.5931
28.4188
28.3159
28.213
28.151
28.1605
28.17
28.1796
28.1979
28.2163
28.2346
28.42
28.7005
28.981
29.3046
29.7438
30.1831
30.6224
31.2501
31.8969
32.5437
33.2325
33.9532
34.6739
35.4205
36.298
37.1755
38.0531
39.0673
40.1111
41.1548
42.2645
43.4536
44.6427
45.8435
47.1533
48.4632
49.773
51.1542
52.5627
53.9711
54.8689
54.8689
54.8689
54.8689
54.1124
52.7223
51.3322
49.9421
48.6245
47.3482
46.0718
44.8378
43.7078
42.5779
41.4479
40.4883
39.5473
38.6062
37.7956
37.0917
36.3878
35.7255
35.2513
34.777
34.3027
33.6781
33.022
32.3659
31.75
31.1806
30.6112
30.059
29.684
29.309
28.9341
28.7711
28.6872
28.6033
28.5533
28.5628
28.5723
28.5819
28.6041
28.6263
28.6485
28.8469
29.1457
29.4446
29.7846
30.2352
30.6859
31.1366
31.7656
32.4128
33.0599
33.73
34.416
35.1021
35.8137
36.6554
37.4972
38.3389
39.324
40.34
41.356
42.4417
43.6115
44.7813
45.9635
47.2614
48.5592
49.857
51.2303
52.6326
54.035
54.9291
54.9291
54.9291
54.9291
54.5459
53.1607
51.7756
50.3904
49.077
47.805
46.533
45.3035
44.1764
43.0493
41.9222
40.9624
40.0209
39.0795
38.2648
37.5551
36.8455
36.1779
35.6975
35.217
34.7366
34.1535
33.5455
32.9374
32.3463
31.7778
31.2093
30.6587
30.284
29.9093
29.5346
29.3761
29.299
29.2219
29.1767
29.1877
29.1987
29.21
29.2317
29.2534
29.2751
29.4755
29.7781
30.0806
30.4247
30.8788
31.3328
31.7868
32.3726
32.9731
33.5736
34.2093
34.8714
35.5336
36.2274
37.0572
37.8869
38.7166
39.691
40.6988
41.7065
42.7868
43.9501
45.1134
46.2834
47.5755
48.8677
50.1598
51.5331
52.9305
54.3279
55.2159
55.2159
55.2159
55.2159
54.9922
53.6121
52.2319
50.8518
49.5427
48.275
47.0073
45.7818
44.6572
43.5326
42.4079
41.4474
40.505
39.5625
38.7431
38.0264
37.3096
36.6351
36.1468
35.6584
35.17
34.6296
34.0754
33.5213
32.9606
32.3947
31.8288
31.2807
30.9072
30.5338
30.1604
30.0062
29.9347
29.8632
29.8221
29.8349
29.8476
29.8605
29.8813
29.9021
29.9229
30.1244
30.4292
30.7341
31.0806
31.5372
31.9937
32.4503
32.9895
33.5388
34.088
34.6881
35.3276
35.9671
36.6407
37.4606
38.2806
39.1005
40.0678
41.0693
42.0708
43.1453
44.3034
45.4614
46.6258
47.9129
49.2
50.4871
51.856
53.2485
54.641
55.5259
55.5259
55.5259
55.5259
55.4386
54.0634
52.6883
51.3132
50.0085