<VTKFile type="ImageData" version="1.0" byte_order="LittleEndian" header_type="UInt64">
	<ImageData WholeExtent="0 44 0 44 0 44" Origin="-0.13467 -0.00697991 -0.101969" Spacing="0.0053577 0.0053577 0.0053577">
		<Piece Extent="0 44 0 44 0 44">
			<PointData Scalars="Scalars_">
				<DataArray type="Float32" Name="Scalars_" format="ascii" RangeMin="0" RangeMax="100">
0.124094
0.120901
0.117764
0.114677
0.111637
0.108645
0.105705
0.102831
0.100039
0.0973511
0.0947904
0.0923822
0.0901493
0.088114
0.0862962
0.0847133
0.0833827
0.0823189
0.0815361
0.0810551
0.0814238
0.0820134
0.0827588
0.0836348
0.0845925
0.0855436
0.0864171
0.0872597
0.0881499
0.0891561
0.0903228
0.0916732
0.0932136
0.094942
0.096851
0.0989299
0.101166
0.103543
0.106046
0.108653
0.111347
0.114108
0.11692
0.119771
0.122656
0.122255
0.119017
0.115835
0.112701
0.109612
0.106569
0.103578
0.10065
0.0978033
0.0950589
0.0924419
0.0899774
0.0876897
0.0856017
0.0837343
0.0821072
0.0807376
0.0796428
0.0788381
0.0783455
0.078721
0.0793217
0.0800781
0.0809595
0.0819108
0.0828436
0.0837037
0.0845481
0.0854492
0.0864703
0.0876552
0.0890264
0.0905901
0.0923434
0.0942785
0.0963844
0.0986481
0.101054
0.103585
0.106221
0.108942
0.11173
0.114568
0.117445
0.120357
0.120609
0.117331
0.114106
0.110928
0.107795
0.104705
0.101665
0.0986861
0.095787
0.0929892
0.0903186
0.0878006
0.0854599
0.0833213
0.0814062
0.0797357
0.0783283
0.0772029
0.0763767
0.0758728
0.0762547
0.076866
0.0776298
0.0785065
0.0794352
0.0803344
0.0811729
0.0820164
0.0829265
0.08396
0.0851607
0.08655
0.0881331
0.0899076
0.0918655
0.093995
0.0962836
0.0987152
0.101272
0.103934
0.106681
0.109495
0.112359
0.115262
0.1182
0.119169
0.115854
0.11259
0.109373
0.106198
0.103065
0.0999804
0.0969553
0.0940084
0.0911615
0.088441
0.0858728
0.0834828
0.081296
0.0793359
0.0776236
0.0761807
0.0750261
0.0741791
0.0736645
0.0740523
0.0746733
0.0754387
0.0762914
0.0771718
0.0780167
0.0788266
0.0796683
0.0805854
0.0816295
0.0828434
0.0842478
0.0858475
0.08764
0.0896166
0.0917664
0.0940764
0.0965309
0.0991109
0.101798
0.10457
0.107409
0.110298
0.113227
0.116191
0.117946
0.114599
0.111302
0.10805
0.104838
0.101668
0.0985433
0.0954772
0.092487
0.0895963
0.0868307
0.0842171
0.0817824
0.0795522
0.0775506
0.0758003
0.0743237
0.073142
0.072276
0.0717516
0.0721446
0.0727737
0.0735275
0.07432
0.075114
0.0758826
0.0766613
0.0775012
0.0784248
0.0794786
0.0807042
0.0821213
0.083735
0.085542
0.0875342
0.0897017
0.0920306
0.0945054
0.0971074
0.099817
0.102614
0.105477
0.108392
0.111348
0.11434
0.116956
0.113582
0.110256
0.106975
0.103733
0.100531
0.097373
0.0942716
0.0912451
0.0883167
0.0855126
0.0828602
0.0803868
0.0781188
0.0760809
0.0742974
0.0727916
0.0715858
0.0707028
0.0701698
0.0705677
0.0712004
0.0719099
0.0725731
0.0732318
0.0739106
0.0746631
0.0755059
0.0764383
0.077503
0.07874
0.0801693
0.081795
0.0836148
0.0856208
0.0878034
0.0901497
0.0926437
0.0952673
0.0980001
0.100821
0.10371
0.106652
0.109634
0.112653
0.116215
0.11282
0.109474
0.106169
0.102904
0.0996771
0.0964926
0.0933643
0.0903093
0.0873518
0.0845175
0.0818344
0.0793302
0.0770319
0.0749649
0.0731544
0.0716244
0.0703992
0.0695023
0.0689627
0.0693644
0.0699887
0.0705634
0.0709773
0.0714695
0.0720707
0.0728131
0.0736675
0.0746144
0.0756939
0.0769458
0.0783886
0.0800269
0.0818592
0.0838789
0.0860766
0.0884398
0.090953
0.093598
0.0963542
0.0991997
0.102115
0.105083
0.108093
0.111139
0.115743
0.112343
0.108982
0.105664
0.102384
0.0991405
0.0959398
0.0927937
0.0897203
0.0867431
0.0838889
0.0811856
0.0786611
0.0763427
0.0742565
0.0724282
0.0708822
0.0696437
0.0687374
0.0681933
0.068597
0.0691475
0.0693317
0.0694002
0.0697724
0.0703401
0.0710946
0.0719724
0.072943
0.0740455
0.0753183
0.0767788
0.0784326
0.0802792
0.0823137
0.0845276
0.0869089
0.089442
0.0921088
0.0948883
0.0977589
0.1007
0.103696
0.106733
0.109806
0.11546
0.112357
0.109223
0.106023
0.102765
0.099533
0.0963429
0.0932062
0.0901415
0.0871721
0.0843238
0.0816253
0.079104
0.0767873
0.0747017
0.0728723
0.0713248
0.070084
0.0691762
0.0686318
0.0687749
0.0683787
0.0678839
0.0677893
0.0681445
0.0687261
0.0695103
0.070422
0.0714267
0.0725617
0.0738624
0.075346
0.0770195
0.078884
0.0809356
0.0831675
0.0855677
0.0881211
0.0908094
0.0936119
0.0965069
0.0994744
0.102496
0.105561
0.108661
0.114026
0.111152
0.108365
0.105631
0.102886
0.100034
0.0969977
0.0938854
0.0908355
0.0878797
0.0850443
0.0823568
0.0798454
0.0775362
0.0754554
0.0736271
0.0720741
0.070811
0.0698084
0.0688216
0.0677853
0.0668499
0.0662349
0.0662582
0.0666499
0.0672657
0.0680842
0.0690363
0.0700841
0.0712595
0.072594
0.0741052
0.0758023
0.0776872
0.0797581
0.0820084
0.0844271
0.0869994
0.0897076
0.0925315
0.0954494
0.0984414
0.101489
0.10458
0.107707
0.112297
0.109439
0.106706
0.104097
0.101607
0.0992122
0.0968505
0.0944016
0.0917103
0.0888388
0.0860291
0.0833574
0.0808559
0.0785463
0.0764413
0.0745282
0.0727211
0.0708885
0.0691257
0.0675495
0.0662434
0.0652623
0.0646533
0.0648835
0.0653407
0.0659941
0.0668417
0.0678347
0.0689324
0.070155
0.0715286
0.0730707
0.0747922
0.0766981
0.0787877
0.0810548
0.0834891
0.0860772
0.0888016
0.0916433
0.0945821
0.0975973
0.100671
0.10379
0.106944
0.110682
0.107802
0.105052
0.102437
0.0999624
0.0976294
0.0954319
0.0933462
0.0913158
0.0892341
0.0869648
0.0844475
0.0818508
0.0792644
0.0766774
0.0741576
0.0717838
0.0696181
0.0677037
0.0660743
0.0647598
0.0637891
0.063197
0.0636382
0.06421
0.0649119
0.0657803
0.0668071
0.0679587
0.0692353
0.0706525
0.0722266
0.0739727
0.0758981
0.0780034
0.0802841
0.0827302
0.0853293
0.0880661
0.0909233
0.0938817
0.0969217
0.100025
0.103175
0.106362
0.109245
0.106344
0.103573
0.100939
0.0984473
0.0961024
0.0939018
0.091833
0.0898592
0.0879028
0.085834
0.0835269
0.0809593
0.0782384
0.0755133
0.0729013
0.0704766
0.0682845
0.0663571
0.0647242
0.0634138
0.0624552
0.0618812
0.0624857
0.0632204
0.0640085
0.0648963
0.065938
0.0671262
0.0684459
0.0698986
0.0715014
0.0732699
0.0752144
0.0773363
0.0796308
0.082089
0.0846995
0.0874494
0.0903234
0.0933049
0.0963754
0.0995161
0.10271
0.105942
0.107999
0.105081
0.102294
0.099644
0.0971382
0.0947806
0.0925706
0.0904976
0.0885302
0.0865979
0.0845776
0.0823328
0.079816
0.0771185
0.0743937
0.0717706
0.0693316
0.0671261
0.0651892
0.0635521
0.0622446
0.0612976
0.0607435
0.0614346
0.062335
0.0632696
0.0642045
0.0652389
0.0664159
0.0677364
0.0692036
0.0708296
0.0726252
0.0745961
0.0767417
0.0790569
0.0815324
0.0841587
0.0869243
0.0898172
0.0928238
0.0959288
0.099116
0.10237
0.105674
0.106948
0.104019
0.101222
0.0985622
0.0960479
0.0936834
0.0914683
0.0893942
0.087433
0.0855214
0.0835423
0.0813538
0.0788875
0.0762179
0.0734987
0.0708688
0.0684189
0.0662038
0.0642602
0.0626219
0.0613214
0.0603928
0.059872
0.0605899
0.0615971
0.0626605
0.063656
0.0646717
0.0658197
0.0671414
0.0686392
0.070308
0.072145
0.074149
0.0763177
0.0786476
0.0811327
0.0837651
0.0865362
0.0894363
0.0924545
0.0955786
0.0987956
0.102091
0.105451
0.106097
0.103163
0.100361
0.0976991
0.0951834
0.0928186
0.0906055
0.0885359
0.0865852
0.0846946
0.0827549
0.0806219
0.0782107
0.0755781
0.072875
0.0702485
0.0677985
0.0655831
0.0636433
0.0620143
0.0607334
0.0598417
0.0593906
0.0600511
0.0610621
0.0621542
0.0631707
0.0641707
0.0653072
0.0666465
0.0681907
0.0699206
0.0718185
0.0738724
0.076076
0.0784262
0.0809204
0.0835551
0.0863247
0.0892232
0.0922423
0.0953724
0.0986034
0.101924
0.10532
0.105444
0.10251
0.0997105
0.0970524
0.0945429
0.0921867
0.0899841
0.0879289
0.0859974
0.0841355
0.0822395
0.0801653
0.0778153
0.0752309
0.0725595
0.0699542
0.0675221
0.0653258
0.0634073
0.0618015
0.0605423
0.059665
0.0592073
0.0597073
0.0606394
0.0617446
0.0628663
0.064002
0.0652473
0.0666622
0.068258
0.0700263
0.0719546
0.0740328
0.0762536
0.0786128
0.0811074
0.0837327
0.0864846
0.0893575
0.0923458
0.0954428
0.0986427
0.101938
0.105322
0.104963
0.102027
0.0992257
0.0965692
0.0940654
0.0917195
0.089535
0.0875081
0.0856227
0.0838335
0.0820452
0.0801046
0.0778908
0.0754133
0.0727994
0.0702163
0.0677904
0.0655936
0.063669
0.0620511
0.0607726
0.0598647
0.0593568
0.0597514
0.0606303
0.0617121
0.0628674
0.0640829
0.0654065
0.0668766
0.0685062
0.0702944
0.0722337
0.0743163
0.0765337
0.0788795
0.081349
0.0839387
0.0866457
0.0894681
0.0924035
0.0954502
0.0986055
0.101866
0.105228
0.104408
0.101412
0.0985487
0.0958298
0.0932658
0.0908689
0.0886494
0.0866163
0.0847721
0.0831058
0.0815722
0.0800357
0.0782208
0.0759045
0.0733615
0.0708156
0.0684113
0.0662296
0.0643143
0.0626993
0.0614154
0.0604895
0.0599465
0.0603066
0.0611258
0.0621521
0.0632765
0.0644993
0.0658488
0.0673445
0.0689918
0.0707893
0.072731
0.0748089
0.0770157
0.0793452
0.0817942
0.0843605
0.0870436
0.089843
0.0927585
0.0957875
0.0989279
0.102176
0.105526
0.103029
0.0998722
0.0968498
0.0939755
0.0912639
0.0887323
0.0863973
0.0842766
0.0823876
0.0807473
0.0793692
0.0782524
0.0773348
0.0763164
0.0742052
0.0717221
0.0693541
0.0671988
0.0653023
0.0636981
0.0624157
0.0614805
0.0609169
0.0612373
0.0619878
0.0629459
0.064029
0.0652394
0.0665905
0.0680907
0.0697403
0.0715357
0.07347
0.0755365
0.0777273
0.080038
0.082466
0.0850106
0.0876721
0.0904507
0.0933457
0.0963558
0.099478
0.102709
0.106043
0.1006
0.0972928
0.0941253
0.0911124
0.0882697
0.0856152
0.083168
0.0809485
0.0789792
0.077284
0.0758901
0.0748292
0.0741492
0.0742988
0.0743116
0.0729092
0.0705967
0.0684792
0.0666109
0.0650256
0.0637523
0.0628163
0.062244
0.0625174
0.0632002
0.0640909
0.0651279
0.0663136
0.0676506
0.0691394
0.0707756
0.0725544
0.0744686
0.0765114
0.0786766
0.0809606
0.0833623
0.0858811
0.0885178
0.0912726
0.0941449
0.0971331
0.100234
0.103444
0.106759
0.0977731
0.0943561
0.091079
0.0879567
0.0850061
0.0822455
0.0796954
0.0773778
0.0753177
0.0735419
0.0720819
0.0709738
0.0702711
0.0704996
0.0712494
0.0722237
0.0720144
0.0700447
0.0682147
0.0666566
0.0654003
0.0644718
0.0638994
0.0641198
0.0647387
0.0655659
0.0665562
0.0677094
0.0690212
0.0704853
0.0720949
0.0738427
0.0757222
0.0777279
0.0798552
0.0821024
0.0844692
0.0869553
0.0895616
0.0922882
0.095134
0.0980968
0.101174
0.104361
0.107653
0.0949693
0.0914555
0.0880791
0.0848553
0.0818014
0.078937
0.0762835
0.073865
0.0717083
0.0698434
0.0683046
0.0671329
0.066387
0.0665685
0.0673712
0.0685952
0.0701468
0.0713849
0.0700838
0.0685621
0.0673309
0.0664175
0.0658511
0.0660144
0.0665746
0.0673439
0.0682873
0.0694026
0.0706804
0.0721095
0.0736798
0.0753836
0.0772148
0.0791704
0.0812484
0.0834482
0.0857707
0.0882169
0.0907866
0.0934797
0.0962942
0.0992286
0.102278
0.105439
0.108706
0.092305
0.0886985
0.0852252
0.0819013
0.0787442
0.0757747
0.0730152
0.0704919
0.0682339
0.0662738
0.0646498
0.0634072
0.0626119
0.0627173
0.0635493
0.0648315
0.0664966
0.06849
0.0705907
0.0707107
0.0695126
0.0686205
0.0680655
0.0681697
0.0686779
0.0693939
0.0702902
0.0713632
0.0725994
0.073984
0.0755048
0.0771535
0.0789258
0.0808212
0.0828401
0.0849843
0.0872554
0.0896545
0.0921821
0.0948368
0.0976166
0.100518
0.103536
0.106668
0.109908
0.0898093
0.0861134
0.0825459
0.0791227
0.0758626
0.0727867
0.0699195
0.0672883
0.0649245
0.0628642
0.061149
0.0598297
0.058979
0.0589887
0.0598522
0.0611893
0.0629262
0.0650117
0.0674016
0.0699996
0.0717445
0.0710487
0.0705095
0.0705564
0.0710184
0.071684
0.0725327
0.0735588
0.0747466
0.0760786
0.0775414
0.0791268
0.0808331
0.0826617
0.0846159
0.0866993
0.0889142
0.0912625
0.0937437
0.0963562
0.0990971
0.101962
0.104947
0.108047
0.111256
0.0874938
0.0837136
0.0800557
0.0765362
0.0731748
0.0699933
0.0670172
0.0642756
0.0618027
0.0596374
0.0578255
0.0564228
0.0555091
0.0554076
0.0563074
0.0577025
0.0595126
0.0616818
0.0641645
0.0669213
0.0698978
0.0726401
0.0731346
0.0731468
0.0735675
0.0741844
0.074983
0.0759574
0.0770904
0.0783632
0.0797621
0.0812799
0.0829166
0.084676
0.0865641
0.0885849
0.0907423
0.0930374
0.0954698
0.0980372
0.100736
0.103562
0.10651
0.109575
0.112751
0.0853654
0.0815077
0.0777657
0.0741555
0.070697
0.0674123
0.0643284
0.0614761
0.0588918
0.0566178
0.0547039
0.0532111
0.0522241
0.052001
0.052941
0.0543972
0.0562827
0.0585366
0.0611097
0.0639608
0.0670538
0.0703497
0.073661
0.0755929
0.0762725
0.0768629
0.0776101
0.0785282
0.0796011
0.0808106
0.0821425
0.0835913
0.0851587
0.0868505
0.0886738
0.0906338
0.092734
0.0949757
0.0973584
0.0998794
0.102535
0.105319
0.108228
0.111255
0.114395
0.0834242
0.0795006
0.0756845
0.0719923
0.0684439
0.065062
0.0618744
0.0589135
0.0562178
0.0538329
0.0518127
0.0502229
0.0491516
0.0488019
0.049784
0.0513026
0.053264
0.0556023
0.0582648
0.0612073
0.0643924
0.0677868
0.0713527
0.0749784
0.0780906
0.0795342
0.0803679
0.0812417
0.0822529
0.0833965
0.0846615
0.0860434
0.0875451
0.0891735
0.0909357
0.092838
0.0948833
0.0970736
0.0994072
0.101881
0.104491
0.107233
0.1101
0.113087
0.116188
0.0816644
0.0776893
0.0738138
0.0700535
0.0664275
0.062959
0.0596761
0.0566125
0.0538089
0.0513137
0.0491848
0.0474924
0.0463268
0.0458498
0.0468738
0.0484536
0.0504887
0.0529086
0.0556569
0.0586868
0.0619591
0.0654394
0.0690887
0.0728171
0.0764244
0.0796238
0.0822676
0.083843
0.0849731
0.0860906
0.0873002
0.0886219
0.090064
0.0916347
0.0933421
0.0951909
0.0971853
0.0993256
0.101611
0.104038
0.106603
0.1093
0.112125
0.11507
0.11813
0.080071
0.0760628
0.0721474
0.0683386
0.0646539
0.0611158
0.0577523
0.0545981
0.0516952
0.0490949
0.0468586
0.0450607
0.0437939
0.0431932
0.0442554
0.0458912
0.0479941
0.050489
0.0533165
0.0564272
0.0597803
0.0633397
0.0670634
0.0708463
0.0744601
0.0776052
0.0801896
0.0824509
0.0846802
0.0870335
0.0892994
0.0910604
0.0926239
0.0942002
0.0958754
0.097682
0.0996307
0.101725
0.103964
0.106346
0.108866
0.111519
0.114299
0.117201
0.120219
0.0786231
0.0746008
0.0706678
0.0668352
0.0631182
0.0595366
0.0561167
0.0528927
0.0499076
0.0472145
0.0448784
0.0429778
0.041608
0.0408912
0.0419827
0.0436638
0.0458234
0.0483827
0.0512791
0.054461
0.0578855
0.0615154
0.0653047
0.0691307
0.0727345
0.0758105
0.0783215
0.0805546
0.0827963
0.0851846
0.0877627
0.0905328
0.0934675
0.0960856
0.0982314
0.100195
0.102173
0.104249
0.106454
0.108795
0.111272
0.113881
0.116617
0.119476
0.122449
0.0773034
0.0732805
0.0693494
0.0655192
0.061801
0.0582111
0.0547712
0.0515119
0.0484747
0.0457133
0.0432953
0.0413035
0.0398371
0.039016
0.04012
0.041828
0.0440269
0.0466346
0.0495857
0.0528259
0.0563103
0.0599999
0.0638438
0.0676988
0.0712733
0.0742637
0.076697
0.0789029
0.0811562
0.0835759
0.0861933
0.0890075
0.0920066
0.0951752
0.0984865
0.101638
0.104304
0.106682
0.108988
0.111344
0.1138
0.116375
0.119071
0.121887
0.124817
0.076115
0.0720937
0.0681731
0.0643618
0.0606698
0.0571091
0.053696
0.0504533
0.0474154
0.0446312
0.0421675
0.0401106
0.0385654
0.0376576
0.0387439
0.0404501
0.0426637
0.0452993
0.0482873
0.0515701
0.0551003
0.0588363
0.0627217
0.0665883
0.0701094
0.0729935
0.0753414
0.0775182
0.0797804
0.0822272
0.0848792
0.0877311
0.090769
0.0939769
0.0973396
0.100842
0.104456
0.107923
0.110968
0.113704
0.116317
0.118937
0.121628
0.124416
0.127309
0.0750864
0.0710593
0.0671429
0.063349
0.05969
0.0561797
0.0528334
0.0496691
0.04671
0.0439894
0.0415578
0.0394913
0.0379018
0.0369302
0.0379459
0.0396116
0.0418115
0.0444522
0.0474575
0.0507647
0.0543234
0.0580892
0.0619993
0.0658558
0.0692908
0.0720367
0.0742833
0.0764237
0.0786887
0.0811559
0.0838359
0.0867181
0.0897877
0.0930276
0.0964214
0.099955
0.103615
0.107388
0.111239
0.114913
0.118228
0.121251
0.12413
0.126985
0.129886
0.0742643
0.0702204
0.0662932
0.0624972
0.0588491
0.0553672
0.0520734
0.0489922
0.0461528
0.0435918
0.0413573
0.0395161
0.0381635
0.0374281
0.0383294
0.0399038
0.0420316
0.0446145
0.047573
0.0508421
0.0543691
0.0581069
0.0619771
0.0657247
0.068945
0.0714539
0.0735554
0.0756432
0.0779022
0.0803814
0.0830805
0.0859848
0.0890774
0.0923406
0.0957572
0.0993128
0.102994
0.10679
0.110689
0.114677
0.118691
0.122515
0.126029
0.129277
0.132377
0.0737223
0.0696594
0.0657141
0.0619022
0.0582416
0.0547526
0.0514591
0.0483881
0.0455717
0.0430479
0.0408633
0.0390781
0.0377749
0.0370757
0.0383006
0.0401255
0.0424202
0.0451074
0.048127
0.0514286
0.0549695
0.0587057
0.0625427
0.0661396
0.0690416
0.0712306
0.0731654
0.075195
0.077441
0.0799235
0.0826322
0.0855491
0.0886547
0.0919309
0.095361
0.0989304
0.102625
0.106433
0.110344
0.114347
0.118435
0.122586
0.126707
0.13064
0.1343
0.0742994
0.0702501
0.0663168
0.0625141
0.0588594
0.0553725
0.0520771
0.0490013
0.0461794
0.0436552
0.0414842
0.0397408
0.038528
0.0380367
0.0392582
0.0410921
0.0434032
0.0461041
0.0491297
0.0524286
0.0559586
0.0596743
0.063463
0.0669496
0.069699
0.0717777
0.0736594
0.0756656
0.0778977
0.0803695
0.0830687
0.0859761
0.0890726
0.0923393
0.0957599
0.0993198
0.103005
0.106804
0.110706
0.114702
0.118781
0.122936
0.127143
0.131351
0.135464
0.0752521
0.0712342
0.0673326
0.0635624
0.0599405
0.0564874
0.0532271
0.0501891
0.0474093
0.0449329
0.0428177
0.0411391
0.0400035
0.039657
0.0408483
0.0426476
0.0449236
0.0475891
0.0505782
0.0538394
0.0573301
0.0610022
0.0647282
0.0681122
0.0707344
0.072716
0.0745449
0.0765191
0.0787263
0.0811755
0.0838525
0.0867386
0.0898136
0.0930595
0.0964601
0.0999998
0.103666
0.107447
0.111331
0.115309
0.119372
0.123512
0.12772
0.131977
0.136248
0.0765452
0.0725749
0.0687232
0.0650048
0.0614375
0.0580419
0.0548427
0.0518698
0.0491595
0.046757
0.0447187
0.0431173
0.042055
0.0418203
0.0429659
0.0447063
0.0469181
0.0495179
0.0524415
0.0556382
0.0590657
0.062674
0.0663244
0.069607
0.0721144
0.0740099
0.0757862
0.0777231
0.0798975
0.0823147
0.0849597
0.0878141
0.0908578
0.0940729
0.0974433
0.100954
0.104592
0.108345
0.112203
0.116156
0.120195
0.124313
0.128501
0.132752
0.137049
0.0781525
0.0742427
0.0704548
0.0668038
0.0633073
0.0599865
0.0568661
0.0539761
0.0513521
0.049038
0.0470874
0.0455681
0.0445752
0.0444309
0.0455234
0.0471923
0.0493238
0.0518395
0.0546786
0.0577923
0.0611389
0.0646676
0.0682306
0.0714106
0.0738109
0.0756274
0.0773521
0.0792475
0.0813828
0.0837609
0.0863665
0.0891807
0.092185
0.0953613
0.0986933
0.102167
0.105769
0.109488
0.113312
0.117232
0.121241
0.125329
0.12949
0.133717
0.138001
0.0800476
0.0762092
0.072496
0.0689236
0.06551
0.0622759
0.059246
0.0564497
0.0539216
0.0517031
0.0498445
0.0484079
0.0474799
0.0474105
0.0484473
0.0500395
0.0520824
0.0545041
0.0572475
0.0602662
0.0635199
0.0669574
0.0704239
0.0734972
0.0757957
0.0775389
0.0792126
0.0810643
0.083156
0.0854898
0.0880497
0.0908181
0.0937764
0.0969072
0.100194
0.103624
0.107183
0.110861
0.114645
0.118527
0.122498
0.126552
0.130679
0.134875
0.139131
0.0822073
0.0784479
0.0748178
0.0713323
0.0680094
0.0648697
0.0619374
0.0592406
0.0568127
0.0546925
0.0529262
0.0515702
0.050702
0.0506949
0.051677
0.0531914
0.0551431
0.0574662
0.060108
0.063025
0.0661782
0.0695166
0.0728792
0.0758429
0.0780427
0.0797171
0.0813411
0.0831473
0.0851927
0.087478
0.0899883
0.092706
0.0956133
0.0986931
0.10193
0.105311
0.108822
0.112452
0.116191
0.12003
0.123959
0.127972
0.13206
0.136219
0.140441
0.0846089
0.0809344
0.0773929
0.0739999
0.0707726
0.0677316
0.0649003
0.0623056
0.0599788
0.0579562
0.0562801
0.0550008
0.0541877
0.0542321
0.0551621
0.0566006
0.0584618
0.0606857
0.0632239
0.0660358
0.0690847
0.0723195
0.0755735
0.0784244
0.0805279
0.0821366
0.083712
0.0854718
0.087469
0.0897035
0.0921611
0.0948247
0.097677
0.100702
0.103885
0.107212
0.110671
0.11425
0.117939
0.121729
0.125613
0.12958
0.133625
0.137743
0.141925
0.0872315
0.0836458
0.0801966
0.0768991
0.0737701
0.0708297
0.0681003
0.0656075
0.0633807
0.061453
0.0598632
0.0586561
0.0578938
0.0579804
0.0588619
0.0602279
0.0620012
0.0641277
0.0665629
0.0692695
0.0722125
0.0753413
0.078484
0.0812209
0.083229
0.0847747
0.0863022
0.0880158
0.0899642
0.0921462
0.0945491
0.0971561
0.0999511
0.102918
0.106044
0.109314
0.112717
0.116242
0.119878
0.123616
0.127449
0.131368
0.135366
0.139438
0.143577
0.0900555
0.0865612
0.0832063
0.0800054
0.0769757
0.0741359
0.0715076
0.0691148
0.0669849
0.0651485
0.0636403
0.0625007
0.0617848
0.0619057
0.0627426
0.0640402
0.0657297
0.0677619
0.0700967
0.0726994
0.0755373
0.0785596
0.0815895
0.0842109
0.0861255
0.0876101
0.0890914
0.0907592
0.0926582
0.0947876
0.0971346
0.0996835
0.102419
0.105327
0.108393
0.111604
0.114949
0.118416
0.121996
0.125679
0.129459
0.133326
0.137274
0.141298
0.14539
0.120371
0.117152
0.113996
0.110895
0.107843
0.104837
0.101877
0.0989722
0.0961379
0.0933968
0.0907745
0.0882985
0.0859958
0.0838918
0.0820092
0.0803681
0.0789876
0.0778837
0.0770714
0.0765716
0.0769514
0.077558
0.07832
0.0792167
0.0801951
0.081156
0.0820222
0.0828571
0.0837501
0.0847719
0.0859677
0.0873585
0.088949
0.0907346
0.0927055
0.09485
0.0971519
0.0995938
0.102155
0.104815
0.107551
0.110344
0.113177
0.116042
0.118936
0.118479
0.115213
0.112009
0.108858
0.105754
0.102694
0.0996785
0.0967159
0.0938222
0.0910199
0.0883354
0.0857976
0.0834339
0.0812709
0.0793328
0.0776413
0.0762166
0.0750773
0.0742401
0.0737272
0.0741142
0.0747335
0.0755086
0.076415
0.0773927
0.078341
0.0791984
0.08004
0.0809472
0.0819868
0.0832037
0.0846184
0.0862352
0.0880492
0.09005
0.0922249
0.094558
0.0970311
0.0996237
0.102314
0.105079
0.107899
0.110759
0.113651
0.116574
0.116785
0.113476
0.110226
0.107029
0.103877
0.100766
0.0976977
0.0946806
0.0917303
0.0888698
0.0861262
0.0835285
0.0811058
0.0788857
0.0768935
0.0751526
0.0736847
0.0725102
0.0716482
0.0711224
0.0715168
0.0721477
0.0729334
0.0738404
0.0748023
0.075723
0.0765644
0.0774101
0.0783291
0.0793836
0.0806184
0.082054
0.0836933
0.0855314
0.0875582
0.0897595
0.0921202
0.0946212
0.0972421
0.0999596
0.102752
0.105599
0.108486
0.111405
0.114355
0.115301
0.111952
0.108661
0.105421
0.102225
0.0990683
0.095952
0.0928843
0.0898819
0.0869675
0.0841685
0.0815148
0.0790365
0.0767617
0.074718
0.0729296
0.0714202
0.0702118
0.0693257
0.0687876
0.0691889
0.0698308
0.0706218
0.0715128
0.072435
0.0733074
0.0741256
0.0749737
0.0759017
0.0769683
0.078218
0.0796707
0.0813285
0.0831868
0.0852346
0.0874588
0.0898434
0.0923695
0.0950155
0.0977591
0.100578
0.103451
0.106365
0.109311
0.112289
0.114041
0.110657
0.10733
0.104053
0.100817
0.0976195
0.0944601
0.0913479
0.0882983
0.0853348
0.0824858
0.0797815
0.0772524
0.0749281
0.0728366
0.071004
0.0694557
0.0682155
0.0673069
0.0667574
0.0671647
0.0678165
0.0686019
0.0694447
0.0702896
0.0710902
0.0718814
0.0727308
0.0736664
0.0747427
0.0760048
0.077471
0.079144
0.0810181
0.0830832
0.0853264
0.0877314
0.0902798
0.0929498
0.0957182
0.0985624
0.101462
0.104403
0.107377
0.110384
0.113018
0.109606
0.106249
0.10294
0.0996711
0.0964391
0.0932437
0.0900931
0.0870033
0.0839981
0.081106
0.0783578
0.0757845
0.0734166
0.0712833
0.0694118
0.0678288
0.0665601
0.0656313
0.0650722
0.0654846
0.0661431
0.0668971
0.0676271
0.0683422
0.0690528
0.0698203
0.0706735
0.0716171
0.0727031
0.0739762
0.0754542
0.0771394
0.0790265
0.0811059
0.0833654
0.085789
0.0883582
0.0910512
0.0938448
0.0967149
0.099642
0.10261
0.105613
0.108648
0.112252
0.108818
0.105438
0.102104
0.0988105
0.0955514
0.0923275
0.0891469
0.0860258
0.0829884
0.0800622
0.0772788
0.0746703
0.0722675
0.0701003
0.0681969
0.0665856
0.0652936
0.0643481
0.0637809
0.0641976
0.0648559
0.0655039
0.0659982
0.0665374
0.0671628
0.06792
0.0687848
0.0697405
0.0708398
0.0721262
0.0736168
0.0753134
0.0772124
0.0793055
0.0815805
0.0840222
0.0866121
0.0893282
0.0921465
0.0950437
0.0979985
0.100996
0.104027
0.107091
0.111765
0.108324
0.104929
0.10158
0.0982696
0.0949931
0.091751
0.0885511
0.0854097
0.0823503
0.0794017
0.0765953
0.0739634
0.0715373
0.0693474
0.0674227
0.0657922
0.064484
0.0635272
0.0629547
0.063374
0.0639951
0.0643009
0.0644159
0.0648069
0.0653887
0.0661585
0.0670461
0.0680232
0.0691439
0.0704495
0.071956
0.073667
0.0755795
0.077687
0.0799787
0.0824395
0.0850509
0.0877909
0.0906349
0.0935593
0.0965421
0.0995683
0.102629
0.105721
0.111482
0.108327
0.105157
0.101936
0.0986595
0.0953956
0.0921658
0.0889774
0.0858462
0.0827958
0.0798546
0.0770541
0.0744262
0.0720023
0.0698131
0.0678874
0.0662545
0.0649435
0.0639844
0.0634116
0.0636459
0.0633928
0.0629126
0.0627794
0.0631364
0.0637289
0.0645307
0.0654529
0.0664638
0.0676161
0.0689488
0.0704774
0.0722067
0.0741366
0.0762614
0.0785719
0.081053
0.0836864
0.0864501
0.0893198
0.0922712
0.0952822
0.0983373
0.101426
0.104547
0.11
0.107059
0.104213
0.101437
0.0986757
0.0958407
0.0928313
0.0896808
0.0865666
0.0835321
0.0806054
0.0778182
0.0752019
0.0727872
0.0706043
0.0686812
0.0670457
0.0657211
0.0647089
0.0638466
0.0628668
0.0618958
0.0612408
0.0612033
0.0615926
0.0622211
0.0630612
0.0640268
0.0650823
0.0662752
0.0676415
0.0691973
0.0709499
0.0729001
0.0750448
0.0773749
0.0798759
0.0825299
0.0853156
0.0882091
0.0911861
0.0942246
0.097308
0.100425
0.103574
0.108215
0.105281
0.102474
0.099797
0.0972474
0.0948107
0.0924392
0.0900298
0.0874153
0.0845226
0.0816319
0.0788647
0.0762636
0.0738567
0.0716651
0.0696946
0.0679037
0.0661216
0.0643363
0.0626955
0.0613161
0.060272
0.0596212
0.0598002
0.0602459
0.0609101
0.0617823
0.0627947
0.0639035
0.0651448
0.0665496
0.0681357
0.0699128
0.0718844
0.074048
0.0763952
0.0789131
0.0815839
0.0843878
0.0873016
0.090302
0.0933669
0.0964788
0.0996257
0.102802
0.106548
0.103589
0.10076
0.0980695
0.0955235
0.0931261
0.0908764
0.0887601
0.0867346
0.0847039
0.082512
0.08003
0.0774049
0.0748261
0.0722346
0.0696598
0.0671963
0.0649277
0.0629105
0.0611864
0.059791
0.0587579
0.0581263
0.058547
0.0590973
0.0597997
0.0606903
0.0617442
0.0629165
0.0642166
0.0656655
0.0672831
0.0690838
0.0710741
0.073253
0.0756131
0.0781422
0.0808247
0.0836421
0.0865735
0.0895971
0.0926907
0.0958348
0.0990156
0.102225
0.105065
0.102082
0.0992294
0.0965161
0.0939496
0.0915354
0.0892768
0.0871678
0.0851852
0.0832699
0.0813015
0.0791195
0.0766314
0.0739068
0.0711122
0.0683974
0.0658589
0.0635529
0.0615184
0.0597893
0.0583981
0.0573785
0.0567676
0.0573894
0.0581096
0.0588826
0.0597799
0.0608517
0.0620737
0.063426
0.0649139
0.0665592
0.0683812
0.0703894
0.0725835
0.0749564
0.0774962
0.08019
0.0830215
0.0859729
0.0890241
0.0921542
0.0953423
0.0985707
0.101827
0.103777
0.100774
0.0979036
0.0951722
0.0925886
0.0901592
0.0878873
0.0857691
0.0837861
0.0818857
0.0799588
0.0778436
0.075422
0.0727357
0.0699483
0.0672229
0.0646682
0.0623468
0.0603004
0.0585651
0.0571756
0.0561675
0.0555778
0.0563109
0.0572274
0.0581512
0.0590791
0.0601347
0.0613462
0.062702
0.0642064
0.0658767
0.0677272
0.0697631
0.0719815
0.0743751
0.076933
0.079643
0.0824923
0.0854665
0.0885494
0.091724
0.0949711
0.0982731
0.101614
0.102689
0.099674
0.096791
0.0940483
0.091454
0.0890153
0.0867357
0.0846126
0.08263
0.0807417
0.0788481
0.0767902
0.0744313
0.0717862
0.0690112
0.0662797
0.0637126
0.0613787
0.0593229
0.0575838
0.0561995
0.0552094
0.0546555
0.0554289
0.0564843
0.0575559
0.0585356
0.0595569
0.0607343
0.0620963
0.0636392
0.0653575
0.0672499
0.0693164
0.071555
0.0739607
0.0765258
0.0792409
0.0820956
0.0850787
0.0881778
0.0913784
0.0946655
0.0980226
0.101433
0.101807
0.098785
0.0958963
0.0931497
0.0905527
0.0881127
0.0858331
0.0837119
0.0817349
0.0798606
0.0779976
0.0759933
0.0736991
0.0711041
0.0683531
0.0656276
0.0630592
0.0607238
0.05867
0.0569392
0.0555748
0.0546255
0.0541552
0.0548656
0.0559394
0.0570469
0.0580407
0.0590311
0.0601938
0.0615819
0.0631846
0.0649759
0.0669358
0.0690531
0.0713233
0.0737443
0.0763136
0.079027
0.0818782
0.0848593
0.0879608
0.0911717
0.0944797
0.0978712
0.101331
0.101131
0.0981085
0.0952218
0.0924793
0.0898882
0.0874563
0.0851866
0.0830771
0.0811146
0.0792611
0.0774327
0.0754835
0.0732582
0.0707245
0.0680147
0.0653145
0.0627659
0.0604511
0.0584209
0.0567164
0.0553777
0.0544464
0.0539687
0.0544926
0.0554844
0.056624
0.0577492
0.0588879
0.0601588
0.0616183
0.063269
0.0650963
0.0670858
0.0692265
0.0715124
0.0739393
0.0765046
0.0792029
0.0820295
0.0849789
0.0880441
0.0912183
0.0944948
0.0978661
0.101324
0.10066
0.0976413
0.0947609
0.0920277
0.0894494
0.087034
0.0847851
0.0827021
0.0807725
0.0789635
0.0772018
0.0753573
0.0732755
0.0708769
0.0682483
0.0655807
0.0630423
0.0607287
0.0586932
0.056977
0.0556183
0.0546546
0.0541204
0.0545278
0.0554659
0.0565863
0.0577577
0.058988
0.0603406
0.0618531
0.0635338
0.0653776
0.0673754
0.0695177
0.0717956
0.0742029
0.0767351
0.0793893
0.0821635
0.0850558
0.0880646
0.0911882
0.0944236
0.097766
0.101209
0.100334
0.0972997
0.0944019
0.091651
0.0890562
0.0866284
0.084376
0.0823044
0.0804123
0.0786843
0.0770722
0.0754553
0.0736066
0.0713506
0.0688178
0.0662002
0.0636895
0.0613954
0.0593726
0.057662
0.0562994
0.0553167
0.0547412
0.0551101
0.0559753
0.0570339
0.0581763
0.0594224
0.0608063
0.0623457
0.0640428
0.0658938
0.0678907
0.0700252
0.0722889
0.0746762
0.0771843
0.0798128
0.0825615
0.0854309
0.0884201
0.0915266
0.0947467
0.0980765
0.101509
0.0996145
0.0964473
0.0934099
0.0905162
0.0877818
0.0852218
0.0828536
0.080694
0.0787595
0.077063
0.0756121
0.0743911
0.0732997
0.0719668
0.0696706
0.0671378
0.0646736
0.0624127
0.060414
0.0587182
0.0573594
0.0563674
0.0557689
0.0560919
0.0568754
0.0578574
0.0589591
0.0601964
0.061584
0.0631274
0.0648251
0.0666713
0.0686583
0.0707776
0.0730222
0.0753878
0.0778728
0.0804779
0.0832038
0.0860511
0.0890193
0.0921059
0.0953071
0.0986193
0.102035
0.0976757
0.0943236
0.0911072
0.0880416
0.0851446
0.0824349
0.0799322
0.0776583
0.0756368
0.0738918
0.0724515
0.0713471
0.0706267
0.0706933
0.0702986
0.0683606
0.065969
0.0637559
0.0617923
0.0601204
0.0587743
0.0577834
0.0571762
0.057445
0.0581498
0.059057
0.0601121
0.0613251
0.0626977
0.0642272
0.065908
0.0677334
0.0696954
0.0717869
0.0740015
0.0763374
0.0787936
0.081371
0.0840707
0.086893
0.0898372
0.0929007
0.09608
0.0993704
0.102766
0.0949603
0.0914756
0.0881291
0.0849363
0.0819146
0.0790837
0.076465
0.0740822
0.0719613
0.0701315
0.0686252
0.0674815
0.0667557
0.0670436
0.0678077
0.0685722
0.067534
0.0653925
0.0634771
0.0618393
0.0605151
0.0595349
0.0589292
0.0591371
0.0597694
0.0606079
0.0616144
0.0627936
0.0641382
0.0656391
0.0672874
0.0690751
0.0709956
0.0730437
0.0752153
0.0775099
0.0799283
0.082471
0.0851389
0.0879317
0.090848
0.0938853
0.0970393
0.100305
0.103677
0.0921411
0.0885502
0.0850947
0.0817906
0.0786562
0.0757117
0.0729801
0.0704864
0.0682596
0.0663317
0.0647392
0.0635262
0.062755
0.0630211
0.063879
0.0651631
0.0667244
0.0672171
0.0654326
0.0638403
0.0625476
0.0615865
0.0609897
0.0611328
0.0617003
0.0624767
0.0634338