<VTKFile type="ImageData" version="1.0" byte_order="LittleEndian" header_type="UInt64">
	<ImageData WholeExtent="0 74 0 74 0 74" Origin="-73.0703 -73.0703 -73.0703" Spacing="1.97487 1.97487 1.97487">
		<Piece Extent="0 74 0 74 0 74">
			<PointData Scalars="Scalars_">
				<DataArray type="Float32" Name="Scalars_" format="ascii" RangeMin="0" RangeMax="100">
77.8288
76.6833
75.5582
74.4532
73.3699
72.3078
71.2691
70.2541
69.2638
68.2989
67.3617
66.4519
65.5709
64.7203
63.9019
63.1158
62.3636
61.6457
60.9629
60.3154
59.7023
59.1222
58.573
58.0525
57.5582
57.0897
56.6486
56.2384
55.864
55.5303
55.2421
55.0034
54.8204
54.7013
54.6875
54.6882
54.7485
54.7762
54.7156
54.7982
54.9162
55.0549
55.2221
55.4126
55.6212
55.8558
56.129
56.449
56.8174
57.2345
57.6987
58.2076
58.7577
59.3467
59.9721
60.6312
61.3223
62.044
62.7939
63.5715
64.3761
65.2068
66.0629
66.9441
67.8497
68.7797
69.7336
70.7105
71.7094
72.731
73.7738
74.8384
75.9233
77.0279
78.1524
76.6966
75.5414
74.4064
73.2918
72.1985
71.1265
70.0779
69.053
68.0522
67.077
66.1286
65.2076
64.3161
63.4541
62.6249
61.828
61.0648
60.3362
59.6433
58.9858
58.3637
57.7751
57.2186
56.6913
56.191
55.7166
55.2702
54.8548
54.4759
54.1384
53.8467
53.605
53.419
53.298
53.2882
53.293
53.3523
53.3734
53.3118
53.3944
53.5103
53.6459
53.8118
54.0016
54.2104
54.4478
54.7265
55.0537
55.431
55.8582
56.3329
56.8526
57.4134
58.0132
58.6487
59.3175
60.0176
60.7474
61.5053
62.29
63.1017
63.9391
64.8027
65.6912
66.6046
67.5422
68.504
69.4888
70.4964
71.5268
72.5787
73.6515
74.7459
75.8599
76.9939
75.5847
74.4196
73.2752
72.1511
71.0483
69.9665
68.908
67.8731
66.8626
65.877
64.9178
63.9865
63.0838
62.2115
61.3711
60.5632
59.7891
59.0503
58.347
57.6795
57.0479
56.4507
55.8863
55.3519
54.8453
54.3656
53.9138
53.494
53.111
52.7698
52.4751
52.2304
52.0417
51.9183
51.9118
51.9194
51.9769
51.9911
51.9293
52.0112
52.1246
52.2569
52.4212
52.6103
52.8192
53.0598
53.3444
53.6794
54.066
54.5035
54.9886
55.5192
56.0906
56.7009
57.3461
58.0238
58.732
59.4693
60.2346
61.0264
61.8449
62.6891
63.5597
64.4558
65.3764
66.322
67.2918
68.2856
69.3018
70.3413
71.4016
72.4841
73.5879
74.7114
75.8558
74.4924
73.3181
72.1639
71.0303
69.9182
68.8274
67.7594
66.7147
65.6942
64.6987
63.7296
62.7879
61.8752
60.9924
60.1412
59.3226
58.538
57.7884
57.0746
56.3972
55.7559
55.1495
54.5772
54.0355
53.5227
53.0372
52.5804
52.1567
51.7699
51.4259
51.1283
50.881
50.6898
50.5641
50.5594
50.5688
50.6234
50.6308
50.5695
50.6504
50.7605
50.8888
51.0515
51.2394
51.449
51.6931
51.9837
52.3269
52.7232
53.1709
53.6671
54.2082
54.79
55.4099
56.0641
56.75
57.4661
58.2102
58.9819
59.78
60.6051
61.4563
62.3339
63.2375
64.1662
65.1199
66.0982
67.1004
68.1261
69.1743
70.2447
71.3369
72.4496
73.5834
74.7377
73.4205
72.2369
71.0736
69.9306
68.8096
67.7096
66.632
65.5779
64.5481
63.5435
62.5647
61.6134
60.6903
59.7975
58.9359
58.107
57.3117
56.5515
55.8273
55.1396
54.4884
53.8731
53.2923
52.743
52.2236
51.7327
51.2713
50.8435
50.4536
50.1073
49.8077
49.5584
49.3649
49.2366
49.2325
49.2424
49.2932
49.2933
49.2336
49.3126
49.4192
49.5428
49.7034
49.8902
50.1005
50.3486
50.6458
50.9977
51.4039
51.8619
52.3687
52.92
53.512
54.1409
54.8032
55.4965
56.2193
56.9694
57.7471
58.5515
59.383
60.2409
61.1256
62.0365
62.9734
63.9357
64.9232
65.9346
66.97
68.0276
69.1078
70.2095
71.3332
72.4768
73.6408
72.3691
71.1761
70.0039
68.8519
67.7216
66.6131
65.5267
64.4635
63.4248
62.4112
61.4233
60.4626
59.5302
58.6277
57.7557
56.9167
56.111
55.3405
54.606
53.9079
53.2468
52.6221
52.0325
51.4757
50.9494
50.4526
49.9865
49.5555
49.163
48.815
48.5143
48.2636
48.0678
47.937
47.9318
47.9409
47.9867
47.9801
47.9229
47.9999
48.1012
48.2195
48.3781
48.5637
48.7753
49.0276
49.3319
49.6927
50.1089
50.5775
51.0944
51.6559
52.2572
52.8939
53.5634
54.2632
54.9916
55.7474
56.5305
57.3407
58.1784
59.0432
59.9353
60.8544
61.7998
62.7712
63.7683
64.7897
65.8349
66.9025
67.9927
69.1047
70.2385
71.3923
72.5667
71.3399
70.1372
68.956
67.7948
66.6555
65.5383
64.4434
63.3717
62.3243
61.302
60.3056
59.336
58.3945
57.4827
56.6015
55.7526
54.937
54.1564
53.4114
52.7031
52.032
51.3975
50.799
50.2338
49.7005
49.1979
48.7272
48.2926
47.8982
47.5497
47.2491
46.9981
46.8004
46.6667
46.6584
46.6652
46.7045
46.6918
46.6383
46.7124
46.8073
46.9199
47.0766
47.2609
47.4742
47.7316
48.0433
48.413
48.8393
49.3183
49.8455
50.416
51.0254
51.6693
52.3448
53.0495
53.7827
54.5434
55.3316
56.1476
56.9918
57.8638
58.7637
59.6915
60.6461
61.6274
62.6343
63.6661
64.7213
65.7992
66.9002
68.0229
69.1665
70.3308
71.5163
70.3328
69.1207
67.9299
66.7596
65.6115
64.4851
63.3821
62.3023
61.2468
60.2162
59.2116
58.2338
57.2838
56.3635
55.4736
54.6153
53.7903
52.9995
52.2444
51.5262
50.8449
50.2006
49.5924
49.0188
48.4779
47.9693
47.4939
47.0561
46.6605
46.3119
46.0125
45.7626
45.5635
45.4266
45.4129
45.4156
45.4469
45.4291
45.3809
45.4514
45.5382
45.6451
45.7999
45.9832
46.1985
46.4612
46.7806
47.1597
47.5963
48.0854
48.622
49.2008
49.8172
50.4667
51.1469
51.8557
52.5927
53.3576
54.1507
54.9726
55.8237
56.7035
57.6124
58.5493
59.5137
60.5052
61.5225
62.5646
63.6305
64.7199
65.8311
66.9639
68.1183
69.2935
70.4887
69.3485
68.1272
66.9264
65.7468
64.5899
63.4555
62.344
61.2561
60.1926
59.1543
58.1419
57.1562
56.1985
55.2702
54.3718
53.5049
52.6711
51.8711
51.1063
50.3779
49.6864
49.0318
48.4139
47.8309
47.282
46.767
46.2868
45.8458
45.4494
45.102
44.8052
44.5574
44.3576
44.217
44.1961
44.1926
44.2149
44.1926
44.1507
44.2168
44.2941
44.3953
44.5487
44.7314
44.9495
45.2179
45.5457
45.9343
46.3807
46.8794
47.4244
48.0106
48.6324
49.2862
49.9697
50.6816
51.4217
52.1905
52.9887
53.817
54.6752
55.5636
56.4816
57.4286
58.4038
59.4058
60.4342
61.4872
62.564
63.6643
64.7864
65.9299
67.0948
68.2806
69.486
68.3885
67.1572
65.947
64.7587
63.5927
62.4497
61.3297
60.2337
59.1622
58.1164
57.0966
56.1037
55.1387
54.2029
53.2967
52.4221
51.5798
50.7714
49.9973
49.2591
48.5572
47.8923
47.2639
46.6715
46.1141
45.5919
45.1064
44.6625
44.2654
43.9199
43.6269
43.3828
43.1833
43.0385
43.0079
42.9961
43.0079
42.9819
42.9479
43.0087
43.0751
43.171
43.3235
43.5066
43.7279
44.0031
44.3394
44.7375
45.1933
45.7009
46.2536
46.8453
47.4711
48.1276
48.8129
49.527
50.2701
51.043
51.8466
52.6815
53.548
54.4458
55.3738
56.3315
57.3178
58.3311
59.3708
60.4352
61.523
62.6344
63.7673
64.9218
66.0973
67.2929
68.5087
67.4533
66.212
64.9924
63.7948
62.6199
61.468
60.3396
59.2356
58.1568
57.1034
56.0764
55.0766
54.1048
53.1622
52.2491
51.3672
50.5174
49.7005
48.9177
48.17
47.4581
46.7828
46.144
45.5415
44.9749
44.4449
43.9536
43.5061
43.1087
42.7656
42.4775
42.2388
42.0405
41.8906
41.8479
41.8259
41.8259
41.7964
41.7718
41.8266
41.8808
41.9724
42.125
42.3093
42.5351
42.8175
43.1628
43.5702
44.0351
44.5507
45.1094
45.7053
46.3332
46.9907
47.6768
48.3924
49.1382
49.9157
50.7255
51.5681
52.4436
53.3513
54.2903
55.2595
56.2572
57.2826
58.3337
59.4093
60.5085
61.6306
62.7743
63.9395
65.1255
66.3314
67.5574
66.5452
65.2941
64.0644
62.8573
61.6728
60.5121
59.3752
58.2633
57.1768
56.1159
55.0821
54.0755
53.0973
52.1483
51.2289
50.3405
49.4835
48.6591
47.8683
47.1116
46.39
45.7043
45.0549
44.442
43.8658
43.3272
42.8294
42.3781
41.9798
41.6392
41.357
41.125
40.9283
40.7727
40.7156
40.6811
40.6685
40.6354
40.6214
40.6695
40.7104
40.7995
40.9536
41.1407
41.3723
41.6625
42.0166
42.4332
42.9066
43.4291
43.9927
44.5907
45.2189
45.876
46.5622
47.2789
48.028
48.8105
49.6274
50.4786
51.364
52.2827
53.2334
54.2146
55.2242
56.2612
57.324
58.4111
59.5217
60.6546
61.8092
62.9848
64.1808
65.3967
66.6328
65.6651
64.404
63.1644
61.9476
60.7536
59.5837
58.438
57.3177
56.223
55.1549
54.1141
53.1009
52.1166
51.1615
50.2365
49.3421
48.479
47.6477
46.8493
46.0842
45.3535
44.6577
43.9978
43.3743
42.7881
42.2405
41.7358
41.2796
40.8796
40.5414
40.2655
40.0409
39.8461
39.6832
39.6101
39.5611
39.5353
39.4973
39.4947
39.5364
39.5638
39.6526
39.8096
40.0017
40.2403
40.539
40.9022
41.3276
41.8089
42.337
42.9037
43.5018
44.1288
44.784
45.4698
46.1881
46.9408
47.7295
48.5545
49.4155
50.3119
51.2422
52.205
53.1983
54.2203
55.2694
56.3434
57.4419
58.5631
59.7068
60.8715
62.0571
63.2634
64.4896
65.7357
64.8146
63.5433
62.294
61.0672
59.8638
58.6846
57.5299
56.401
55.2982
54.2224
53.1742
52.1549
51.164
50.203
49.2723
48.3723
47.5036
46.6664
45.8612
45.0884
44.349
43.6437
42.9737
42.3397
41.7434
41.1867
40.6744
40.2128
39.8103
39.4736
39.203
38.986
38.7929
38.6211
38.5302
38.4648
38.425
38.3812
38.3898
38.4259
38.4408
38.5314
38.6936
38.8928
39.14
39.4482
39.8206
40.2547
40.743
41.2755
41.8431
42.4395
43.0636
43.7164
44.4014
45.1219
45.8795
46.6754
47.5097
48.3814
49.2893
50.232
51.2071
52.2126
53.2467
54.3074
55.3931
56.5024
57.634
58.7879
59.9627
61.158
62.3743
63.6104
64.8662
63.9951
62.714
61.4547
60.2183
59.0049
57.8163
56.6522
55.5146
54.4033
53.3198
52.2642
51.2377
50.2407
49.2737
48.3372
47.4319
46.5578
45.7151
44.9039
44.1244
43.3774
42.6632
41.9837
41.3398
40.7336
40.168
39.6478
39.1802
38.7745
38.4377
38.1715
37.9606
37.7673
37.5849
37.4745
37.3912
37.3368
37.2854
37.3043
37.3368
37.3412
37.4365
37.6059
37.8148
38.0728
38.3914
38.7732
39.2156
39.7099
40.2455
40.812
41.4048
42.0246
42.6747
43.36
44.0836
44.8471
45.6514
46.4957
47.379
48.2989
49.2541
50.2417
51.2595
52.3055
53.3774
54.4738
55.5935
56.7352
57.8987
59.0831
60.2883
61.5136
62.7595
64.0251
63.2083
61.9174
60.6485
59.4022
58.1792
56.9811
55.8081
54.6613
53.5413
52.4493
51.3859
50.3519
49.3481
48.3749
47.4327
46.5219
45.6425
44.7946
43.9781
43.1925
42.4385
41.7168
41.0287
40.376
39.7609
39.1869
38.6591
38.1853
37.7753
37.4373
37.1728
36.965
36.7683
36.5734
36.442
36.3394
36.2699
36.2093
36.2365
36.2679
36.2658
36.3681
36.547
36.7688
37.0395
37.3695
37.7611
38.2113
38.7109
39.2478
39.8115
40.3993
41.0143
41.6622
42.3483
43.0761
43.8471
44.6606
45.5159
46.411
47.3435
48.311
49.3108
50.3404
51.3975
52.4799
53.5863
54.7157
55.8668
57.0395
58.2331
59.4477
60.6826
61.9377
63.2127
62.4552
61.1552
59.8771
58.6214
57.389
56.1814
54.999
53.843
52.7142
51.6137
50.5419
49.5001
48.4888
47.5087
46.5602
45.6435
44.7587
43.9058
43.0839
42.2932
41.5332
40.8051
40.1099
39.4496
38.8268
38.2454
37.7107
37.2309
36.816
36.475
36.21
36.0009
35.7958
35.5856
35.4324
35.3097
35.2241
35.1529
35.1857
35.2193
35.2158
35.3271
35.5178
35.7551
36.0411
36.3835
36.7851
37.243
37.7471
38.2835
38.8428
39.4245
40.035
40.6817
41.3702
42.1035
42.8829
43.7069
44.5735
45.4806
46.4254
47.4047
48.4161
49.4564
50.5237
51.6158
52.7313
53.8694
55.0292
56.2107
57.4132
58.6366
59.8805
61.1452
62.4301
61.7374
60.4287
59.1416
57.877
56.6358
55.4188
54.2274
53.0621
51.9246
50.8151
49.7348
48.6845
47.6649
46.6772
45.7217
44.7986
43.9077
43.0493
42.2224
41.4266
40.6618
39.9282
39.2272
38.5609
37.9322
37.3449
36.8044
36.3191
35.8991
35.554
35.2851
35.0692
34.8496
34.6221
34.4462
34.303
34.2001
34.1174
34.1524
34.1917
34.1934
34.3151
34.5194
34.7745
35.0776
35.434
35.8455
36.3108
36.8185
37.3535
37.9075
38.4831
39.0899
39.7368
40.4295
41.1699
41.9585
42.7932
43.6715
44.5904
45.5466
46.5371
47.5587
48.6088
49.685
50.7855
51.9093
53.0553
54.2232
55.4128
56.6239
57.8562
59.1091
60.383
61.6772
61.0552
59.7388
58.4437
57.1708
55.9212
54.6956
53.4956
52.3213
51.1747
50.0563
48.967
47.9081
46.8799
45.884
44.9201
43.9894
43.0919
42.2271
41.3946
40.5939
39.8245
39.0864
38.3808
37.7098
37.0766
36.4851
35.9402
35.4503
35.0253
34.6748
34.3988
34.1704
33.9302
33.6833
33.4841
33.3204
33.1999
33.105
33.1386
33.1865
33.2009
33.3342
33.5529
33.8275
34.1493
34.52
34.942
35.4141
35.9247
36.4575
37.0064
37.5774
38.1828
38.8321
39.5305
40.2794
41.0777
41.9233
42.8125
43.7423
44.7091
45.7093
46.7398
47.7978
48.8817
49.9896
51.1206
52.2739
53.4494
54.6469
55.8661
57.107
58.3691
59.6524
60.956
60.4088
59.0858
57.7838
56.5036
55.2463
54.013
52.8047
51.6223
50.467
49.3399
48.2417
47.1734
46.1364
45.1312
44.1585
43.2191
42.3134
41.4413
40.6022
39.7959
39.0217
38.2793
37.5699
36.8952
36.2587
35.664
35.1159
34.6221
34.1922
33.8352
33.5494
33.3025
33.0376
32.7703
32.5483
32.3647
32.2261
32.1191
32.1472
32.2064
32.2407
32.3869
32.6208
32.9153
33.2558
33.6406
34.0722
34.551
35.0643
35.5955
36.1408
36.7101
37.3172
37.9714
38.6775
39.4356
40.244
41.0999
41.9994
42.9387
43.9141
44.922
45.9596
47.0243
48.1142
49.2282
50.3653
51.5256
52.7081
53.9132
55.1405
56.3898
57.6611
58.9537
60.2671
59.7976
58.4692
57.1613
55.875
54.6114
53.3715
52.1562
50.9665
49.8033
48.6678
47.5608
46.4836
45.4371
44.4222
43.4399
42.491
41.5759
40.695
39.8482
39.035
38.2549
37.5078
36.7941
36.1159
35.476
34.878
34.3267
33.8291
33.3941
33.0293
32.7309
32.4627
32.1717
31.884
31.6407
31.4386
31.2822
31.1639
31.182
31.2548
31.3159
31.4767
31.7258
32.0388
32.3963
32.793
33.2328
33.7175
34.2338
34.7655
35.3113
35.8835
36.4964
37.1589
37.8742
38.6422
39.4604
40.3257
41.2336
42.1805
43.1623
44.176
45.2189
46.2883
47.3829
48.5019
49.6447
50.8108
52
53.2125
54.448
55.7061
56.9863
58.288
59.6115
59.22
57.8872
56.5752
55.2844
54.0158
52.7706
51.5496
50.3538
49.1841
48.0414
46.9267
45.8408
44.785
43.7603
42.7678
41.8082
40.8825
39.9915
39.1351
38.3135
37.5262
36.7726
36.0535
35.3701
34.7254
34.1227
33.5669
33.0644
32.6227
32.2486
31.9358
31.6458
31.3316
31.0255
30.7632
30.5447
30.3716
30.2433
30.2479
30.336
30.4291
30.6072
30.8714
31.2003
31.5702
31.9748
32.4196
32.9088
33.4293
33.9657
34.5185
35.1
35.7237
36.3975
37.1237
37.9018
38.7289
39.6017
40.5158
41.4677
42.4537
43.471
44.5166
45.5895
46.6879
47.8112
48.959
50.131
51.3271
52.5471
53.7907
55.0573
56.3464
57.6579
58.9908
58.6731
57.3374
56.0225
54.7287
53.457
52.2084
50.9836
49.7836
48.6089
47.4606
46.3392
45.2458
44.1816
43.1474
42.1445
41.1738
40.2367
39.3341
38.4667
37.6348
36.8381
36.0762
35.3493
34.6584
34.0062
33.396
32.8328
32.3224
31.8719
31.4863
31.1578
30.8486
30.517
30.195
29.917
29.6849
29.4969
29.3606
29.3501
29.4549
29.5835
29.7821
30.0612
30.4024
30.7779
31.1837
31.6292
32.1214
32.6482
33.1951
33.7625
34.3606
35.0006
35.6891
36.4276
37.2155
38.0499
38.9276
39.8452
40.7995
41.7869
42.8054
43.8527
44.9278
46.0292
47.1566
48.3094
49.4876
50.6905
51.9182
53.1701
54.4454
55.7437
57.0641
58.4063
58.1545
56.8168
55.4996
54.2044
52.9311
51.6808
50.4541
49.2521
48.0745
46.9226
45.7965
44.6976
43.6264
42.5838
41.5708
40.5892
39.6403
38.7255
37.846
37.0019
36.1939
35.4213
34.6841
33.9831
33.3202
32.6992
32.1252
31.6041
31.1419
30.7422
30.3967
30.0714
29.7279
29.3927
29.1022
28.8595
28.6593
28.518
28.4943
28.6168
28.7813
29.0035
29.298
29.6468
30.0198
30.4192
30.861
31.355
31.8905
32.4541
33.0437
33.6655
34.3271
35.033
35.7846
36.5809
37.4202
38.3003
39.2185
40.1723
41.1593
42.1776
43.2257
44.3026
45.4071
46.5387
47.697
48.8814
50.0918
51.3273
52.5874
53.8716
55.1788
56.5082
57.8593
57.6618
56.3218
55.0033
53.7067
52.4329
51.1824
49.9555
48.7529
47.5752
46.4221
45.2942
44.192
43.1156
42.0664
41.0454
40.0536
39.0935
38.1664
37.2738
36.4168
35.5958
34.8106
34.0611
33.3476
32.6717
32.0377
31.4507
30.9167
30.4405
30.0244
29.66
29.3187
28.9657
28.6187
28.3178
28.0674
27.8586
27.717
27.6859
27.826
28.0237
28.2713
28.5814
28.9337
29.2964
29.6832
30.1189
30.6142
31.1606
31.745
32.3619
33.0124
33.6992
34.4243
35.1885
35.9918
36.8337
37.7133
38.6298
39.5816
40.5672
41.5853
42.6348
43.714
44.8225
45.9593
47.1234
48.315
49.5329
50.7763
52.0447
53.3373
54.6534
55.9916
57.3512
57.1941
55.8516
54.5307
53.2327
51.9583
50.7076
49.4813
48.2798
47.1029
45.9509
44.8233
43.7205
42.6421
41.5888
40.5618
39.5623
38.5925
37.6541
36.7493
35.8792
35.0446
34.2461
33.4829
32.7557
32.0665
31.4191
30.8188
30.2711
29.78
29.3451
28.9587
28.5982
28.2336
27.8745
27.564
27.3084
27.0957
26.959
26.9301
27.0865
27.3108
27.5816
27.9069
28.2598
28.6073
28.9799
29.41
29.908
30.466
31.0718
31.7167
32.3964
33.1088
33.8527
34.6284
35.4368
36.2795
37.1577
38.0722
39.0225
40.008
41.0275
42.0796
43.1629
44.2766
45.4194
46.5905
47.7895
49.0152
50.2669
51.5436
52.8448
54.1692
55.5157
56.8836
56.7545
55.4075
54.0835
52.7824
51.506
50.2543
49.0276
47.8266
46.6508
45.5003
44.3745
43.2728
42.1948
41.1407
40.1109
39.1065
38.1298
37.1827
36.2675
35.386
34.5394
33.7277
32.9515
32.2113
31.5096
30.8503
30.2382
29.6778
29.1707
28.7148
28.3026
27.9182
27.5372
27.1648
26.8455
26.5869
26.3751
26.2487
26.2325
26.402
26.6425
26.93
27.2674
27.6193
27.9522
28.3143
28.7426
29.2454
29.8149
30.439
31.1073
31.8115
32.5455
33.3053
34.0906
34.9035
35.7477
36.6261
37.5412
38.4931
39.4815
40.505
41.5622
42.6516
43.772
44.9221
46.101
47.3078
48.5415
49.8011
51.0861
52.3951
53.7273
55.0816
56.4568
56.3464
54.9942
53.6652
52.36
51.0796
49.8247
48.596
47.3935
46.2174
45.0672
43.9422
42.8417
41.765
40.7116
39.6815
38.6754
37.6955
36.7435
35.8219
34.9327
34.0768
33.2553
32.4686
31.7184
31.0071
30.3388
29.7173
29.1451
28.621
28.1412
27.6999
27.2878
26.8867
26.5009
26.1743
25.9155
25.7085
25.5961
25.5996
25.777
26.0214
26.3148
26.6589
27.009
27.3327
27.6918
28.1235
28.6335
29.2136
29.851
30.5346
31.2548
32.0034
32.775
33.5688
34.3878
35.2366
36.1198
37.0399
37.9976
38.9924
40.0229
41.0874
42.1844
43.3126
44.4706
45.6574
46.8718
48.1133
49.3806
50.6732
51.9896
53.329
54.6906
56.0731
55.9765
54.6178
53.2825
51.9715
50.6855
49.4257
48.1926
46.9865
45.8073
44.6549
43.5289
42.4279
41.3513
40.2985
39.2689
38.2632
37.2827
36.3297
35.406
34.514
33.6542
32.8281
32.0365
31.2816
30.5659
29.893
29.2651
28.682
28.1398
27.6337
27.161
26.719
26.2969
25.8999
25.5694
25.3141
25.1153
25.0181
25.0403
25.2181
25.4548
25.7435
26.0871
26.4336
26.7541
27.1166
27.5562
28.0757
28.6649
29.3106
30.0023
30.7307
31.4881
32.2687
33.0716
33.8995
34.7574
35.6497
36.5789
37.5457
38.5493
39.5884
40.6613
41.7667
42.9026
44.0683
45.2624
46.4841
47.7325
49.007
50.3064
51.6297
52.9759
54.344
55.7328
55.6482
54.2826
52.9402
51.6223
50.3298
49.0633
47.8242
46.6122
45.4278
44.2708
43.1411
42.0374
40.9591
39.9053
38.8757
37.8706
36.8913
35.9394
35.017
34.1259
33.2676
32.4431
31.6537
30.9016
30.189
29.5178
28.8877
28.2954
27.7348
27.2016
26.6974
26.2263
25.7847
25.3808
25.0513
24.8043
24.6173
24.5368
24.5661
24.7348
24.9549
25.2309
25.5661
25.9036
26.222
26.5903
27.039
27.5681
28.1654
28.8169
29.513
30.2466
31.0109
31.8009
32.6151
33.4554
34.3259
35.2301
36.1705
37.1477
38.1609
39.2085
40.2894
41.4021
42.545
43.7171
44.9178
46.1456
47.4003
48.681
49.9864
51.3158
52.668
54.0424
55.4373
55.3636
53.9908
52.6409
51.3157
50.0157
48.742
47.4953
46.276
45.0845
43.9209
42.785
41.6762
40.5937
39.537
38.5057
37.5004
36.5218
35.5716
34.6515
33.7635
32.9094
32.0908
31.3097
30.5682
29.8675
29.2068
28.5816
27.9843
27.408
26.8512
26.3202
25.8243
25.3673
24.9619
24.6378
24.4024
24.2313
24.1745
24.191
24.339
24.5364
24.7907
25.1078
25.4266
25.7367
26.1068
26.5622
27.0994
27.7037
28.3609
29.0624
29.8025
30.5761
31.3787
32.2077
33.0638
33.9498
34.8681
35.8209
36.8087
37.8308
38.8861
39.9736
41.0918
42.24
43.4173
44.6228
45.8557
47.1158
48.4016
49.7126
51.0475
52.4056
53.7854
55.186
55.1236
53.7432
52.3862
51.0532
49.7454
48.4636
47.2085
45.9809
44.7812
43.6092
42.4652
41.3488
40.2596
39.1974
38.1622
37.1542
36.1744
35.2242
34.3051
33.4195
32.5694
31.7574
30.9866
30.2603
29.5788
28.938
28.3271
27.733
27.1485
26.5777
26.0306
25.5196
25.0558
24.6572
24.3435
24.1175
23.9627
23.9535
23.9255
24.0431
24.213
24.433
24.7196
25.0049
25.2941
25.658
26.1148
26.6567
27.2675
27.9323
28.6424
29.3934
30.1808
31.0004
31.8485
32.7243
33.6288
34.5632
35.5292
36.5275
37.5578
38.6194
39.7119
40.8343
41.9861
43.1669
44.3762
45.6132
46.8776
48.168
49.4839
50.8239
52.1874
53.5729
54.9792
54.9282
53.5408
52.1764
50.836
49.5203
48.2303
46.967
45.7307
44.5223
43.3415
42.1886
41.0636
39.9665
38.897
37.8554
36.8417
35.8575
34.9037
33.9822
33.0951
32.2453
31.4366
30.6735
29.9601
29.2971
28.6774
28.0837
27.4966
26.9113
26.3403
25.7969
25.2916
24.8403
24.4661
24.1759
23.9461
23.789
23.8742
23.7482
23.8395
23.9855
24.1614
24.4042
24.6423
24.8988
25.249
25.7022
26.2461
26.8631
27.5374
28.2599
29.0259
29.831
30.6709
31.5413
32.4393
33.3639
34.3156
35.2951
36.3036
37.341
38.4074
39.5032
40.6282
41.7822
42.9654
44.1772
45.4172
46.6848
47.9792
49.2994
50.6442
52.0124
53.403
54.8146
54.7784
53.385
52.0142
50.6672
49.3449
48.0479
46.7774
45.5339
44.3178
43.1296
41.9692
40.8367
39.7319
38.6551
37.6061
36.5854
35.5941
34.6335
33.7057
32.8131
31.9599
31.1509
30.3921
29.6889
29.0422
28.4426
27.866
27.2859
26.6998
26.1286
25.5879
25.0866
24.6433
24.2918
24.0414
23.8447
23.7345
23.9035
23.8177
23.7179
23.8204
23.9577
24.1541
24.3537
24.5781
24.9126
25.3592
25.9027
26.5244
27.2082
27.9435
28.725
29.548
30.4085
31.3014
32.2223
33.1681
34.1371
35.13
36.1474
37.1902
38.2592
39.3556
40.4801
41.6335
42.8161
44.0279
45.2685
46.5378
47.8344
49.157
50.5052
51.8769
53.2713
54.6869
54.68
53.2825
51.9078
50.5565
49.2294
47.928
46.6532
45.4049
44.1842
42.9911
41.826
40.6885
39.5788
38.4967
37.4421
36.4152
35.4167
34.4482
33.5121
32.6119
31.7529
30.9415
30.1853
29.4908
28.8596
28.2812
27.726
27.1579
26.574
26.0038
25.4646
24.9633
24.5155
24.1576
23.9074
23.7387
23.844
24.0049
23.8643
23.7684
23.7318
23.8197
23.9781
24.1686
24.3624
24.6801
25.1187
25.66
26.2841
26.9742
27.7191
28.5119
29.349
30.2267
31.1405
32.0849
33.054
34.0435
35.0504
36.0747
37.1175
38.1824
39.272
40.3892
41.5358
42.7128
43.9204
45.1583
46.4258
47.722
49.0452
50.3942
51.7674
53.1636
54.5813
54.6565
53.2594
51.8844
50.5331
49.2062
47.9048
46.6296
45.3815
44.1608
42.9679
41.8022
40.6637
39.5512
38.464
37.4018
36.3646
35.3539
34.3719
33.4229
32.5117
31.6447
30.8298
30.0747
29.3858
28.7639
28.1973
27.6557
27.1019
26.5279
25.9618
25.4271
24.9338
24.4913
24.1257
23.8778
23.7873
23.9438
24.03
23.8706
23.7771
23.731
23.8189
23.9773
24.137
24.275
24.5731
25.0039
25.5428
26.1675
26.8598
27.6069
28.4016
29.2399
30.1181
31.0319
31.976
32.9446
33.9333
34.939
35.9621
37.0041
38.0678
39.1565
40.273
41.4195
42.5967
43.8052
45.0446
46.3139
47.6121
48.938
50.2902
51.6669
53.0668
54.4884
54.7113
53.3158
51.9425
50.5921
49.265
47.9626
46.6848
45.4322
44.2049
43.0031
41.8263
40.6742
39.5467
38.444
37.3667
36.3162
35.2951
34.3066
33.3547
32.444
31.5793
30.7654
30.0066
29.3052
28.659
28.0573
27.4799
26.9053
26.3299
25.7711
25.2479
24.7731
24.3622
24.0272
23.7937
23.8721
24.0495
24.0312
23.8713
23.7777
23.7302
23.8181
23.9764
24.1434
24.3027
24.6047
25.0309
25.5604
26.1731
26.8521
27.5859
28.3678
29.1938
30.0602
30.9629
31.8971
32.8581
33.8421
34.8465
35.8705
36.9153
37.9827
39.0755
40.1959
41.3455
42.5258
43.7371
44.9792
46.2513
47.5525
48.8814
50.2366
51.6168
53.0203
54.4459
54.7709
53.3808
52.0116
50.6644
49.3396
48.0377
46.759
45.5034
44.2707
43.0604
41.8722
40.7054
39.5606
38.4383
37.3406
36.2699
35.2299
34.2246
33.2584
32.336
31.4621
30.6411
29.8764
29.1689
28.5142
27.9003
27.3086
26.7242
26.1487
25.5963
25.0812
24.6211
24.2434
23.9478
23.7193
23.8894
24.1009
24.0313
23.8704
23.775
23.7293
23.8172
23.9909
24.1802
24.3565
24.6648
25.094
25.6251
26.2369
26.9107
27.6337
28.3988
29.2034
30.0467
30.9279
31.8445
32.7934
33.7711
34.7749
35.8033
36.8564
37.9349
39.0403
40.1736
41.3359
42.5278
43.7491
45
46.2793
47.5864
48.9199
50.2789
51.6617
53.0674
54.4945
54.7157
53.3266
51.9595
50.6147
49.2926
47.9938
46.7181
45.4655
44.2356
43.0277
41.8416
40.6773
39.5355
38.4175
37.3255
36.2626
35.2318
34.2371
33.2813
32.3668
31.4962
30.6717
29.8951
29.1671
28.4859
27.8447
27.2314
26.6366
26.0624
25.5171
25.0082
24.561
24.2216
24.0182
23.872
24.0442
24.1812
24.0173
23.8462
23.7442
23.7876
23.893
24.0781
24.2788
24.5185
24.8595
25.3017
25.833
26.436
27.0951
27.8007
28.5493
29.3408
30.1752
31.0507
31.9643
32.9116
33.8889
34.8924
35.9207
36.9737
38.0518
39.1564
40.289
41.4504
42.6413
43.8619
45.1119
46.3903
47.6963
49.029
50.3868
51.7685
53.1732
54.5993
54.7991
53.4127
52.0479
50.7055
49.3863
48.0903
46.8174
45.5677
44.3404
43.1358
41.953
40.7924
39.6545
38.5412
37.4542
36.3969
35.3723
34.3845
33.4356
32.528
31.6627
30.8404
30.0613
29.325
28.6284
27.9635
27.3181
26.6837
26.0635
25.4722
24.9325
24.476
24.142
23.9674
24.0256
24.1962
24.1612
23.9732
23.7981
23.7243
23.8268
23.9596
24.1572
24.3667
24.6652
25.0576
25.5343
26.0834
26.6893
27.3398
28.0302
28.7619
29.538
30.3596
31.2251
32.1312
33.0734
34.047
35.0481
36.0743
37.1245
38.1989
39.2987
40.425
41.5788
42.7612
43.9722
45.212
46.4804
47.7759
49.0981
50.4458
51.818
53.2136
54.6307
54.9162
53.5341
52.1738
50.8355
49.5204
48.2283
46.9593
45.7138
44.4912
43.2911
42.1136
40.9587
39.8272
38.721
37.6422
36.594
35.5799
34.6029
33.6652
32.7678
31.9102
31.0914
30.3095
29.5624
28.8463
28.1541
27.4762
26.8077
26.1568
25.5432
24.9927
24.533
24.1913
23.9902
24.1201
24.2466
24.1059
23.9161
23.7524
23.7814
23.8902
24.0295
24.2309
24.5032
24.8568
25.2874
25.7892
26.3521
26.9606
27.6039
28.2812
28.9975
29.7563
30.5582
31.4007
32.2808
33.1956
34.1433
35.1232
36.1349
37.1777
38.251
39.3536
40.4848
41.6441
42.8312
44.0462
45.288
46.5566
47.8517
49.172
50.5171
51.8858
53.2767
54.6884
55.0543
53.6775
52.3219
50.9887
49.6781
48.3906
47.1269
45.8862
44.6688
43.4746
42.3033
41.1554
40.0318
38.9346
37.8662
36.8297
35.8287
34.8656
33.9424
33.0585
32.2116
31.3979
30.6131
29.8538
29.117
28.3993
27.6974
27.012
26.354
25.7415
25.1945
24.7325
24.3739
24.1388
24.0572
24.1323
24.0493
23.8693
23.7116
23.8149
23.949
24.0981
24.3027
24.623
25.0246
25.4861
26.0028
26.5708
27.1814
27.8273
28.5081
29.2262
29.9827
30.7762
31.6048
32.4674
33.3637
34.2943
35.2599
36.2603
37.2947
38.3623
39.4616
40.5911
41.7498
42.9372
44.1523
45.3945
46.6631
47.9576
49.2766
50.6197
51.9857
53.3735
54.782
55.2221
53.8495
52.4987
51.1696
49.8631
48.5797
47.3195
46.0826
44.8688
43.6781
42.5108
41.3674
40.2496
39.1593
38.0994
37.0736
36.0858
35.1384
34.2332
33.3685
32.5402
31.7411
30.9634
30.2013
29.4531
28.7195
28.0026
27.3067
26.6423
26.0244
25.4687
24.9895
24.6021
24.3284
24.1991
24.249
24.2058
24.0721
23.9384
24.0299
24.1427
24.2553
24.4835
24.8305
25.245
25.7087
26.2235
26.7899
27.4022
28.0543
28.7445
29.4722
30.235
31.0294
31.8533
32.7068
33.592
34.5111
35.4658
36.4566
37.4829
38.5435
39.6368
40.7616
41.9164
43.1003
44.3124
45.5519
46.8177
48.1092
49.4254
50.7657
52.1286
53.5131
54.918
55.4117
54.0436
52.6964
51.3711
50.0682
48.7881
47.531
46.2972
45.0867
43.8992
42.7356
41.5966
40.4838
39.3999
38.3479
37.3316
36.3555
35.423
34.5357
33.6927
32.8887
32.1141
31.3564
30.6053
29.8577
29.1174
28.3915
27.688
27.0173
26.393
25.8294
25.3395
24.9395
24.6532
24.5117
24.55
24.5243
24.4222
24.3104
24.389
24.4822
24.5698
24.8029
25.1394
25.5239
25.9574
26.4534
27.014
27.6309
28.2945
28.9985
29.7379
30.5079
31.3038
32.1245
32.9716
33.849
34.7603
35.7075
36.6914
37.7114
38.7661
39.8541
40.9736
42.1237
43.3031
44.5107
45.746
47.0081
48.2961
49.6088
50.9454
52.305
53.6864
55.0884
55.6172
54.2514
52.9067
51.5838
50.2827
49.0046
47.7499
46.518
45.3098
44.1254
42.9653
41.8307
40.7234
39.6458
38.6015
37.5946
36.6298
35.7114
34.8418
34.0212
33.245
32.5022
31.7761
31.0498
30.3147
29.5759
28.8459
28.1379
27.4642
26.8379
26.2721
25.7799
25.3772
25.0877
24.9399
24.9695
24.9552
24.8795
24.7894
24.8546
24.9292
24.996
25.2175
25.5201
25.859
26.2576
26.733
27.2839
27.8993
28.567
29.2774
30.0221
30.7933
31.586
32.4002
33.2396
34.1098
35.0148
35.9573
36.9379
37.9551
39.0073
40.0929
41.2103
42.3578
43.5345
44.7395
45.9718
47.2307
48.5154
49.8249
51.1585
52.5149
53.8934
55.2923
55.8483
54.4842
53.1409
51.819
50.5196
49.2429
47.9893
46.7594
45.5532
44.3714
43.2149
42.0847
40.9828
39.912
38.8755
37.878
36.924
36.0186
35.1653
34.3655
33.616
32.9058
32.2157
31.5221
30.8089
30.0794
29.3512
28.6437
27.9721
27.3494
26.7879
26.2999
25.9004
25.6115
25.4591
25.4822
25.4751
25.4213
25.3517
25.4041
25.462
25.5119
25.7105
25.9736
26.2737
26.6468
27.1062
27.6467
28.2552
28.9185
29.6257
30.3662
31.1311
31.9155
32.7201
33.5503
34.4121
35.3107
36.248
37.2246
38.2389
39.2889
40.3728
41.4881
42.6336
43.8081
45.0107
46.2401
47.4959
48.7774
50.0838
51.414
52.767
54.142
55.5377
56.118
54.7558
53.4143
52.0942
50.7965
49.5214
48.2692
47.0409
45.8368
44.6578
43.5046
42.3785
41.2817
40.2171
39.188
38.1991
37.2555
36.3618
35.5227
34.7402
34.0123
33.3296
32.6721
32.012
31.3262
30.6143
29.8963
29.196
28.5317
27.9173
27.3649
26.8858
26.4936
26.2086
26.0542
26.0719
26.0695
26.0328
25.9817
26.0225
26.0662
26.103
26.2742
26.5031
26.7768
27.1332
27.5805
28.1107
28.7099
29.3644
30.0622
30.7925
31.5462
32.3188
33.1121
33.9318
34.7845
35.6751
36.6059
37.5768
38.5863
39.632
40.7121
41.8241
42.9663
44.1373
45.3362
46.5622
47.8144
49.092
50.394
51.72
53.0688
54.4396
55.831
56.4334
55.0737
53.7349
52.4172
51.1214
49.8484
48.5984
47.3722
46.1702
44.9937
43.8434
42.721
41.6287
40.5693
39.5466
38.5649
37.6293
36.7448
35.9156
35.1442
34.4294
33.7629
33.1268
32.4942
31.8403
31.159
30.4652
29.7815
29.1294
28.5264
27.9865
27.5197
27.1383
26.8607
26.7085
26.7221
26.7227
26.6992
26.6639
26.6948
26.7273
26.754
26.9006
27.1053
27.364
27.7101
28.1481
28.6686
29.2572
29.8991
30.5827
31.2977
32.0362
32.7948
33.5759
34.3853
35.229
36.1115
37.035
37.9991
39.0023
40.0425
41.1171
42.2241
43.3614
44.5277
45.7218
46.9429
48.1899
49.4623
50.7593
52.0801
53.4236
54.7891
56.1754
56.797
55.4407
54.105
52.7898
51.4969
50.226
48.9784
47.7543
46.5546
45.3806
44.2332
43.1138
42.0252
40.9703
39.9526
38.9764
38.0466
37.1673
36.3428
35.5746
34.8619
34.1972
33.5668
32.95
32.3269
31.6867
31.033
30.379
29.7466
29.1589
28.6338
28.1819
27.8146
27.5484
27.4045
27.4152
27.4177
27.4038
27.3817
27.4047
27.4285
27.448
27.5785
27.7706
28.0233
28.3643
28.795
29.306
29.8813
30.5059
31.1692
31.8633
32.583
33.3268
34.0967
34.8976
35.7344
36.6106
37.5277
38.4854
39.4824
40.5162
41.5847
42.6855
43.8168
44.9775
46.1658
47.3807
48.622
49.8885
51.1795
52.494
53.8315
55.1908
56.571
57.2082
55.8557
54.523
53.2115
51.9217
50.6536
49.4086
48.1869
46.9896
45.8179
44.673
43.557
42.4721
41.4211
40.4078
39.4359
38.5097
37.633
36.8086
36.038
35.3195
34.6475
34.0122
33.4008
32.8005
32.2001
31.5919
30.9769
30.3717
29.8036
29.2957
28.8613
28.5108
28.2598
28.1301
28.1386
28.142
28.1351
28.1236
28.1409
28.1582
28.1726
28.2977
28.4872
28.7409
29.08
29.5049
30.0049
30.5629
31.1641
31.8005
32.4688
33.1673
33.8963
34.6573
35.4528
36.286
37.1589
38.0722
39.0252
40.0171
41.0453
42.1078
43.2025
44.3278
45.482
46.664
47.8727
49.1075
50.3672
51.6517
52.9596
54.2903
55.6429
57.0163
57.6647
56.3166
54.988
53.6802
52.3937
51.1289