<VTKFile type="ImageData" version="1.0" byte_order="LittleEndian" header_type="UInt64">
	<ImageData WholeExtent="0 43 0 43 0 43" Origin="-75.0015 -75.0015 -75.0015" Spacing="3.48844 3.48844 3.48844">
		<Piece Extent="0 43 0 43 0 43">
			<PointData Scalars="Scalars_">
				<DataArray type="Float32" Name="Scalars_" format="ascii" RangeMin="0" RangeMax="100">
83.4224
80.0132
77.1374
74.9091
73.0709
71.7167
70.5927
69.6788
68.7078
68.4934
71.9026
100000
146.951
100000
106.534
104.251
102.122
100.314
100000
97.1575
100000
121.447
118.054
114.79
111.381
100000
96.4223
100000
100000
123.302
119.957
117.513
115.394
113.684
113.8
112.773
116.085
119.494
124.741
121.694
118.433
115.644
114.178
112.848
100000
78.5137
75.1045
72.8334
70.7358
69.3075
68.0737
66.9231
65.7109
65.0843
100000
146.951
143.542
140.965
107.715
105.491
100000
100000
145.766
100000
123.92
121.119
119.038
100000
107.972
105.918
100000
103.161
101.418
100000
117.694
114.842
112.444
110.976
110.549
100000
116.896
100000
123.094
119.685
116.669
114.192
111.83
110.435
100000
100000
73.5201
70.8115
68.45
66.8728
65.3966
63.8531
62.5889
61.6751
61.5458
100000
141.964
138.555
100000
150.511
147.474
144.658
142.357
100000
121.9
118.491
115.511
113.74
100000
102.251
102.762
100.175
97.887
95.6948
94.6243
100000
110.422
109.032
108.205
100000
113.487
111.019
100000
117.934
114.896
112.575
110.454
108.448
78.4178
75.0087
71.5995
68.6624
66.1801
64.387
62.7074
61.1644
59.7973
58.6666
58.0661
57.756
100000
141.964
100000
148.961
145.552
142.142
139.373
137.568
100000
100000
111.796
109.326
107.059
103.65
100.541
97.6461
95.2761
93.1417
92.689
103.929
100000
109.62
106.262
100000
111.135
107.726
105.165
100000
112.983
110.572
108.782
106.785
81.827
100000
69.9121
66.9313
64.2784
62.4174
60.6474
59.0027
57.4864
56.1083
54.8346
53.6489
53.5949
100000
53.3817
100000
100000
140.768
137.359
135.158
100000
105.868
100000
100000
110.468
100000
98.7395
95.3304
92.6004
90.8876
100000
100.52
97.1112
100000
103.307
99.8983
100000
105.708
102.299
100.244
100000
100000
107.952
105.541
85.2362
100000
67.8521
64.6512
62.4799
60.5345
58.6855
56.973
55.3504
53.8184
52.3475
51.0388
49.8933
48.8552
49.8488
166.334
100000
144.099
100000
100000
100000
102.459
100.186
98.3997
100000
83.2982
100000
94.5758
91.1666
100000
100000
100000
94.5918
53.9469
100000
99.3105
96.8998
100000
100.52
98.1089
100000
137.322
111.361
100000
100000
69.8107
66.4016
63.1725
60.816
58.7271
56.8453
55.0769
53.4014
51.8198
50.3505
49.0241
47.8814
46.9366
48.8993
162.925
150.918
147.508
100000
106.041
102.911
99.9343
97.283
94.9905
93.2339
100000
43.1696
100000
100000
102.124
98.7149
95.9742
93.7159
50.0763
100000
96.8998
93.4906
57.0877
58.8333
100000
136.107
134.189
132.568
133.106
128.11
100000
64.9517
61.9119
59.0853
57.0227
55.0744
53.286
51.5832
49.9735
48.4387
47.0465
45.8225
44.8504
46.1118
100000
100000
150.838
100000
104.659
101.249
97.8403
94.832
92.1376
89.8247
88.3105
100000
94.5635
41.8544
42.8201
43.9716
45.1508
46.7274
47.8109
49.6296
51.3659
53.1314
54.9925
56.9625
100000
133.289
130.995
129.008
129.74
100000
100000
64.0224
60.8137
57.5654
55.4074
53.3921
51.5653
49.83
48.1664
46.5872
45.096
43.6866
42.3224
40.9843
40.2311
39.1348
38.6426
38.0033
37.8619
37.3596
37.1334
37.1677
37.427
37.8309
38.0619
38.5778
39.2184
39.9487
40.9844
42.137
43.4334
44.8443
46.3631
47.9723
49.6638
51.439
53.3721
55.3397
133.192
130.421
127.869
125.682
124.03
68.5782
65.2496
61.8646
58.4826
56.1457
53.8422
51.7783
49.9052
48.1546
46.4803
44.8526
43.3186
41.8666
40.5044
39.2686
38.3282
37.3128
36.7783
36.0728
35.9555
35.4449
35.1981
35.266
35.5536
35.9534
36.2059
36.7334
37.392
38.2041
39.2005
40.3677
41.6825
43.1215
44.6637
46.2953
48.0131
49.8274
51.7481
53.3705
130.974
127.94
125.287
122.826
121.095
66.2471
62.838
59.4288
56.8149
54.6636
52.3364
50.2752
48.3395
46.5625
44.8625
43.2401
41.7034
40.2687
38.9242
37.7174
36.6026
35.6394
35.0373
34.3417
34.1459
33.6408
33.3308
33.4244
33.7378
34.1658
34.4
34.9446
35.6202
36.4574
37.4795
38.6741
40.0155
41.4807
43.0466
44.7026
46.4541
48.3282
50.2516
52.4358
128.822
125.834
122.85
119.876
118.034
113.305
100000
60.0904
56.7461
53.77
51.0195
48.819
46.8718
45.0619
43.3391
41.6947
40.1332
38.6685
37.2949
36.0677
34.9998
34.1103
33.3821
32.7505
32.4406
31.9398
31.54
31.6596
31.9957
32.455
32.6775
33.2407
33.9321
34.7903
35.839
37.064
38.434
39.9312
41.5245
43.2103
45.0116
46.9874
48.9554
50.9565
127.356
123.358
120.292
117.316
115.165
110.23
108.349
100000
55.0667
52.0999
49.46
47.3759
45.5246
43.6636
41.914
40.246
38.6592
37.164
35.7785
34.5283
33.4404
32.5337
31.8026
31.2257
30.8162
30.2978
29.8385
29.9839
30.3312
30.8254
31.0602
31.6365
32.3322
33.21
34.2876
35.55
36.9516
38.5007
40.1297
41.8541
43.7351
45.5987
47.8119
49.8386
125.268
121.497
118.255
115.183
112.588
108.065
105.738
103.63
100000
50.5712
47.524
46.174
44.2601
42.3897
40.6049
38.9119
37.2998
35.778
34.3645
33.0855
31.9715
31.0448
30.2995
29.7064
29.2846
28.7342
28.2447
28.4172
28.7564
29.2892
29.5753
30.1458
30.8342
31.7322
32.841
34.1615
35.595
37.0943
38.7377
40.6093
42.3645
44.0393
45.6525
100000
123.141
119.457
116.284
112.915
110.295
106.289
103.679
101.143
99.1751
100000
48.4722
45.1975
43.1026
41.2193
39.4324
37.7127
36.0732
34.5222
33.077
31.765
30.6197
29.6694
28.9122
28.3116
27.8862
27.3151
26.7786
26.9879
27.3093
27.8745
28.2439
28.7724
29.4504
30.3743
31.518
32.81
34.3508
35.7956
37.3219
39.1653
41.026
42.0968
44.156
123.471
120.238
116.996
113.664
110.277
108.106
104.817
101.834
98.974
96.8068
100000
46.7891
44.065
42.0292
40.2144
38.4165
36.67
35.0031
33.4217
31.9425
30.5932
29.4103
28.4298
27.6605
27.0665
26.6563
26.102
25.5578
25.7393
26.0913
26.6289
27.0706
27.5081
28.1878
29.157
30.3447
31.5666
33.1635
34.796
36.4813
38.1281
39.728
100000
100000
121.208
117.799
114.55
111.365
108.34
105.862
100000
100.45
97.0408
94.194
92.092
46.3089
42.9337
41.0615
39.3366
37.5699
35.7972
34.1052
32.4942
30.9807
29.5923
28.3687
27.3543
26.573
25.9992
25.6318
25.1543
24.6813
24.8876
25.0531
25.5685
26.0087
26.3567
27.048
28.0351
29.2947
30.7283
32.2637
33.88
35.5664
37.3542
39.2702
46.8707
100000
120.255
116.982
113.593
110.208
106.807
103.647
138.669
100000
95.5822
92.1733
89.473
88.4104
42.6101
40.6068
38.6829
36.8722
35.0915
33.3796
31.7412
30.1943
28.7691
27.5105
26.4736
25.6943
25.1476
24.8379
24.4785
24.2338
24.2148
24.428
24.7967
25.1823
25.4648
26.1481
27.101
28.3736
29.86
31.5076
33.1752
34.9046
36.6433
38.3637
43.4616
114.134
100000
116.649
113.24
110.409
107.985
101.507
135.26
133.189
93.6223
90.2131
87.4076
86.709
42.0179
40.0452
38.1462
36.3139
34.5375
32.8251
31.1729
29.6028
28.1517
26.8734
25.8425
25.0987
24.5854
24.3033
23.9363
23.7092
23.7012
23.7885
24.2277
24.637
25.035
25.5882
26.5908
27.9052
29.3973
31.0299
32.6923
34.4246
36.1908
37.9731
100000
110.725
100000
100000
111.771
108.81
106.369
99.5836
100000
100000
100000
89.387
86.0793
100000
41.7849
39.7411
37.7685
35.8776
34.1004
32.4679
30.9095
29.4002
28.0151
26.7534
25.6648
24.8378
24.304
23.98
23.654
24.0072
24.0211
23.7181
23.9807
24.3264
24.554
25.239
26.3064
27.63
29.1204
30.7169
32.3945
34.1319
35.9643
37.0722
40.4606
100000
116.779
113.37
110.082
107.228
104.695
98.1946
114.623
111.214
108.067
105.593
103.217
101.539
41.4166
39.3886
37.4193
35.499
33.6201
31.8268
30.4746
28.9562
27.5595
26.2893
25.2494
24.4862
23.9403
23.6308
23.9122
24.3569
24.3465
23.9925
23.6899
24.0248
24.4673
25.2336
26.2378
27.4804
28.889
30.4251
32.074
33.7827
35.5654
37.4272
39.3047
42.3399
100000
112.47
109.061
106.058
99.9134
96.6059
118.032
100000
105.181
103.067
100.625
98.13
41.1968
39.1539
37.1829
35.287
33.4689
31.7218
30.0603
28.49
27.0527
25.8085
24.8568
24.2109
23.6534
23.9914
24.3449
24.7418
24.7492
24.3814
24.0436
23.8263
24.0735
24.7741
25.7288
26.9348
28.3523
29.9259
31.6152
33.3923
35.241
37.1572
38.4371
40.4758
104.878
100000
108.669
105.26
98.4904
95.0819
100000
118.589
103.101
101.841
48.0027
44.5935
41.1844
39.1326
37.1491
35.2358
33.3959
31.6382
29.9793
28.4433
27.0463
25.845
24.9676
24.2713
23.7921
24.0413
24.3514
24.7401
24.7368
24.3659
24.0385
23.8223
23.5625
24.3977
25.4514
26.7307
28.1765
29.762
31.4648
33.2278
35.0979
37.0517
39.0346
41.0955
101.132
99.1224
100000
104.609
98.5448
93.2645
118.589
115.18
102.116
100.607
105.717
44.8123
41.4101
39.3714
37.4072
35.524
33.7284
32.0242
30.4079
28.8871
27.4969
26.2771
25.276
24.4878
23.954
23.7221
23.9858
24.3644
24.3735
24.0037
23.6724
23.9513
24.2377
24.9045
25.9553
27.2396
28.6834
30.2454
31.897
33.6191
35.4308
37.3292
39.305
41.3547
98.3779
95.7133
93.9573
100000
98.9961
91.8373
100000
100000
103.594
102.11
103.307
45.1089
41.7127
39.7099
37.781
35.9254
34.1417
32.4261
30.7721
29.1808
27.684
26.3784
25.6198
24.8282
24.3036
24.0321
23.6503
23.9991
24.0639
23.7303
24.0109
24.1823
24.6605
25.4524
26.5257
27.8024
29.2302
30.7717
32.4012
34.1061
35.8899
37.7541
39.697
41.7158
97.6175
93.6465
87.7558
100000
110.944
100000
111.399
107.99
105.369
103.895
103.125
100000
42.0413
40.0463
38.127
36.2837
34.515
32.8173
31.1874
29.6408
28.2095
26.9543
25.9866
25.1978
24.669
24.336
23.981
23.6499
23.8219
23.9391
24.2692
24.6003
24.778
25.6
26.7063
27.9845
29.3792
30.8854
32.4893
34.1711
35.9707
37.8773
39.87
41.9337
95.17
92.2941
90.1556
109.836
107.535
105.451
112.792
109.681
107.374
105.852
104.544
141.131
42.4021
40.4176
38.5316
36.7398
35.0157
33.3326
31.7384
30.2449
28.8688
27.6311
26.5858
25.7446
25.1085
24.5133
24.3442
24.1066
23.9929
24.3625
24.6997
25.1324
25.461
26.2447
27.3055
28.5594
29.9402
31.4338
33.0348
34.7267
36.4993
38.364
40.322
42.3656
93.3388
100000
110.286
107.038
104.168
102.042
100000
112.349
110.225
100000
141.131
137.722
43.0006
41.0338
39.1665
37.3907
35.6822
34.0238
32.4492
30.9721
29.61
28.3852
27.3418
26.513
25.9012
25.4623
25.0703
24.4066
24.6699
24.8807
25.4808
25.9092
26.3553
27.1108
28.1252
29.3441
30.7066
32.1821
33.756
35.4164
37.16
38.9974
40.9323
42.9582
90.8558
100000
108.607
105.198
101.931
99.2657
100000
133.34
131.044
129.112
100000
46.55
43.8028
41.8552
40.0013
38.233
36.5331
34.8926
33.3314
31.8669
30.5214
29.3223
28.3075
27.5028
26.9058
26.5988
26.147
25.5903
25.6887
26.0075
26.5567
26.9354
27.4323
28.1692
29.1458
30.3286
31.6612
33.1135
34.6641
36.2993
38.0193
39.8324
41.7421
43.7484
45.8342
54.6299
100000
104.694
101.285
91.0765
133.716
130.699
127.924
125.429
123.663
47.4137
44.7789
42.8517
41.012
39.2529
37.5635
35.9399
34.3965
32.9526
31.6333
30.4679
29.4906
28.7224
28.161
27.8845
27.4119
26.912
26.8684
27.2544
27.8819
28.1402
28.603
29.4279
29.8698
31.7676
32.8846
34.2564
35.7673
37.376
39.0729
40.8609
42.7421
44.7139
46.7583
100000
128.859
100000
100.087
91.845
130.351
126.942
123.787
120.378
117.983
100000
45.9068
44.0014
42.178
40.4317
38.756
37.1509
35.6285
34.2089
32.9171
31.784
30.8444
30.1235
29.5931
29.3008
28.8267
28.3633
28.2487
28.6632
29.349
29.5124
29.9423
30.8455
100000
33.1951
34.2318
35.5527
37.0306
38.6153
40.2904
42.0538
43.9062
45.8449
47.8604
128.859
125.45
123.475
100.69
93.4697
100000
128.04
126.954
100000
100000
191.617
47.1678
45.2847
43.4794
41.7483
40.0887
38.5031
37.0034
35.6095
34.3467
33.2456
32.3405
31.6555
31.1456
30.824
30.3589
29.9391
29.7962
30.2195
30.8726
30.5726
100000
74.0799
71.5412
34.6788
35.68
36.9694
38.4221
39.9863
41.6415
43.3823
45.2073
47.1147
49.1015
100000
122.886
120.066
117.008
95.1271
100000
124.808
100000
139.079
137.195
100000
48.5444
46.6835
44.8966
43.182
41.5396
39.974
38.4977
37.1305
35.8974
34.8278
33.9522
33.2884
32.7865
32.4373
31.988
31.6218
31.4809
31.8714
32.5069
100000
75.2139
71.8048
68.2061
35.7448
37.3585
38.5336
39.9343
41.4697
43.1034
44.8227
46.6228
48.5015
50.4583
52.3388
100000
100000
114.15
98.5363
124.808
121.399
100000
136.238
133.786
118.575
50.0213
48.1815
46.4128
44.7148
43.0898
41.5443
40.0917
38.7516
37.5481
36.5086
35.6579
35.0055
34.5033
34.133
33.7034
33.3941
33.2736
33.5978
34.2277
34.203
100000
100000
37.0218
36.8775
39.0331
39.9379
41.7435
43.0973
44.6724
46.361
48.1359
49.9879
51.9244
53.8793
56.3443
132.089
100000
108.33
128.218
100000
136.767
133.87
131.054
100000
51.5857
49.7656
48.0141
46.3327
44.7252
43.2
41.7713
40.4585
39.2845
38.2731
37.4438
36.7981
36.2927
35.9093
35.5008
35.2435
35.1504
35.3959
36.0284
100000
100000
141.831
38.3782
38.5099
40.8569
100000
117.004
113.595
110.186
106.898
103.647
100.24
53.8802
55.5511
57.6575
128.68
127.3
100000
100000
138.032
134.971
131.948
100000
145.554
53.2268
51.4251
49.6906
48.0258
46.4364
44.9323
43.528
42.2424
41.0969
40.1119
39.3016
38.6619
38.1545
37.7668
37.3802
37.1633
37.0993
176.227
100000
144.242
140.833
138.422
100000
91.3213
87.9122
84.503
100000
100000
109.282
105.873
103.52
101.561
55.6551
57.233
59.2015
125.537
123.891
123.712
100000
136.531
133.394
100000
145.779
142.85
54.9371
53.1534
51.4359
49.7886
48.2183
46.7361
45.3569
44.0985
42.9805
42.0201
41.2273
40.5943
40.0884
39.7052
39.3404
39.1508
39.107
100000
100000
100000
138.422
135.013
132.436
100000
100000
46.5974
100000
49.3986
50.5872
52.0844
53.7416
55.5018
57.1058
58.8621
60.8131
122.52
120.825
120.303
138.104
135.196
100000
147.167
143.586
140.279
56.7116
54.946
53.2464
51.6179
50.0683
48.6094
47.2559
46.0248
44.9333
43.9961
43.2198
42.5957
42.1085
100000
172.385
168.976
166
163.312
161.392
159.761
100000
43.6209
44.4347
100000
154.748
100000
94.2869
49.9603
52.4104
53.6847
55.2496
56.963
58.7108
60.534
62.4934
119.513
117.994
116.893
134.32
100000
148.922
145.822
142.758
100000
58.547
56.8005
55.1202
53.5122
51.9851
50.5509
49.224
48.0202
46.9554
46.0447
45.3187
100000
228.286
226.186
100000
167.314
163.904
160.495
158.399
156.357
154.392
100000
100000
153.92
151.339
100000
90.8778
54.4285
54.3777
55.5488
57.0399
58.7038
60.4596
62.2917
64.2444
116.503
115.841
100000
153.904
150.704
147.508
134.216
100000
166.159
60.4418
58.7155
57.0562
55.4705
53.9679
52.5599
51.2606
50.0855
49.0534
48.2106
100000
229.009
225.6
222.776
220.459
100000
100000
158.258
155.91
153.525
151.291
100000
154.685
151.276
147.867
145.136
93.7356
55.3234
56.1506
57.4889
58.961
60.5924
62.3356
113.058
112.156
100000
100000
134.721
152.714
149.52
136.543
100000
163.699
162.75
100000
100000
192.899
189.49
186.081
183.384
54.6698
100000
195.767
193.025
190.941
100000
223.685
220.276
218.048
100000
159.043
156.06
153.371
150.865
148.293
145.609
100000
100000
146.428
143.019
146.428
100000
122.326
119.991
117.44
114.897
112.702
109.991
100000
137.131
133.722
131.311
151.369
148.451
100000
162.399
160.425
159.341
160.594
164.003
100000
100000
183.996
180.587
178.119
100000
193.738
190.329
187.532
185.154
100000
100000
100000
100000
157.324
153.915
150.986
148.454
146.193
144.154
143.695
145.881
147.751
146.428
100000
123.306
120.516
117.817
115.035
112.207
109.753
107.352
100000
100000
131.311
127.902
149.608
100000
162.485
159.62
157.194
156.494
157.423
100000
173.441
163.218
164.526
166.242
168.097
170.36
100000
188.532
185.518
182.743
100000
200.68
183.481
185.483
100000
152.305
149.021
146.142
143.414
140.777
137.688
143.265
145.397
146.77
100000
121.324
118.392
115.579
112.963
110.499
108.527
100000
125.453
123.042
100000
125.492
100000
142.704
144.456
145.221
146.082
147.473
100000
174.44
171.031
153.16
154.627
156.441
158.406
100000
190.351
186.942
174.853
100000
201.679
198.269
181.006
100000
152.606
149.197
145.788
142.624
139.569
136.716
134.31
100000
148.806
100000
123.527
120.118
116.709
113.721
111.006
108.744
100000
126.451
123.042
119.633
112.823
100000
100000
78.5471
75.1379
72.7987
70.8857
69.5074
68.4165
67.7404
66.9837
70.0669
100000
112.482
100000
100000
104.002
101.589
99.2312
96.9051
95.4187
93.7483
93.1942
100000
121.463
100000
100000
96.3332
93.0131
89.604
100000
122.645
119.236
100000
100000
111.616
100000
109.364
100000
100000
104.01
106.034
117.328
112.821
111.996
110.44
116.933
100000
73.0066
70.9027
68.6038
67.209
66.1035
65.3656
64.309
100000
132.17
100000
141.964
138.555
105.417
102.315
98.9839
95.5747
100000
92.0452
100000
120.243
100000
102.402
99.9274
96.9248
94.5345
100000
104.827
100000
115.827
112.417
110.127
108.207
108.074
105.955
100000
113.547
100000
100000
114.953
112.082
108.937
107.664
113.524
110.115
72.1257
69.2223
66.339
64.8398
63.5521
62.0909
60.793
59.8732
100000
126.247
100000
135.146
132.288
100000
100000
100000
140.71
100000
100000
116.834
114.423
103.756
101.318
98.8416
100000
100000
100000
93.6782
92.1614
109.893
107.309
105.787
105.403
102.546
100000
110.138
100000
116.387
112.978
110.464
108.212
105.472
100000
100000
70.3796
67.0249
63.9918
62.1688
60.4507
58.8661
57.4623
56.3202
56.2476
100000
60.7669
100000
129.878
100000
100000
140.71
137.301
135.158
100000
112.855
109.446
106.779
100000
100000
100000
96.8426
100000
90.6248
89.3126
100000
100000
100000
103.544
100.135
100000
106.729
103.32
100000
110.572
107.67
106.146
103.611
100000
122.353
68.8778
65.4687
62.0595
60.1755
58.3681
56.6822
55.1245
53.7101
52.4009
51.0851
100000
114.835
100000
152.054
148.644
100000
134.756
131.749
130.738
100000
109.659
106.25
100000
83.2982
100000
93.4334
90.0243
87.4784
85.9035
100000
94.8143
53.989
100000
96.5401
93.131
100000
100.244
97.5852
100000
105.661
105.541
102.132
100000
118.943
100000
62.4219
60.2284
58.2657
56.3828
54.631
52.9664
51.3896
49.8559
48.4919
47.3312
46.3535
46.7287
100000
145.235
143.376
100000
129.188
127.329
102.166
100.089
100000
83.2982
79.889
77.8509
100000
87.7575
84.9014
82.4943
47.1155
48.7859
50.5378
84.5869
100000
100000
100000
98.1089
94.6997
92.3599
100000
100000
101.4
128.11
100000
67.3484
60.9266
58.5433
56.4323
54.5122
52.7088
50.99
49.3594
47.8338
46.4463
45.2606
44.2403
100000
159.71
100000
100000
40.6605
100000
100000
99.4806
96.6813
94.3605
100000
39.1537
39.7605
40.417
41.202
42.1789
43.3217
44.6055
46.0139
47.5286
49.1346
50.8223
52.5731
54.3983
56.3673
58.5046
100000
100000
131.193
100000
124.7
125.003
63.558
60.1489
56.7397
54.7028
52.7093
50.8856
49.1425
47.4892
45.9002
44.4434
43.1315
42.0193
100000
156.281
154.911
151.502
100000
37.6773
100000
97.593
94.1838
91.2014
36.9865
37.1891
37.7431
38.394
39.1977
40.1883
41.3513
42.6633
44.1002
45.6411
47.27
48.9762
50.7562
52.6166
54.7027
56.5266
59.252
100000
127.442
100000
122.801
121.607
100000
100000
55.1813
53.0644
50.9924
49.1324
47.3576
45.6594
44.0335
42.4921
41.0185
39.5508
38.081
37.4397
36.2666
35.8139
35.197
35.0217
34.5481
34.327
34.3503
34.6075
34.9947
35.249
35.7832
36.4339
37.2558
38.2702
39.4604
40.7999
42.263
43.8276
45.4783
47.2071
49.0155
50.9254
53.1548
54.6215
100000
126.28
123.904
122.295
100000
100000
63.6254
56.0061
53.8199
51.4583
49.3432
47.434
45.6476
43.9348
42.2702
40.6907
39.1807
37.7268
36.3285
35.5108
34.3911
33.9209
33.2405
33.0907
32.615
32.3564
32.3979
32.6826
33.0781
33.3255
33.8797
34.5482
35.3913
36.4313
37.6488
39.0151
40.5025
42.089
43.7608
45.5146
47.3609
49.362
50.9517
100000
126.627
123.564
120.95
119.593
100000
100000
57.6144
54.2052
52.2141
49.8699
47.8068
45.8273
44.0168
42.2799
40.6184
39.0391
37.5569
36.1664
34.9108
33.7404
32.6687
32.1392
31.426
31.2374
30.7487
30.4464
30.509
30.8241
31.2481
31.4672
32.0424
32.7362
33.6041
34.6712
35.9167
37.3094
38.8209
40.4287
42.1231
43.9097
45.8157
47.8431
49.9908
128.083
124.674
121.375
117.857
116.194
111.214
109.567
100000
55.0842
51.7903
48.5175
46.2825
44.316
42.4733
40.7148
39.0328
37.4306
35.9206
34.4991
33.2195
32.1017
31.1609
30.4276
29.7675
29.4854
28.9905
28.613
28.6932
29.0396
29.496
29.6846
30.2858
31.002
31.8941
32.9903
34.2657
35.6866
37.2231
38.8526
40.5757
42.4138
44.4283
46.4369
48.6264
100000
122.072
118.662
115.367
112.796
108.387
106.158
104.119
100000
50.1797
46.7705
44.7407
42.9282
41.0295
39.2444
37.5396
35.9135
34.3743
32.9397
31.6374
30.5007
29.5552
28.7976
28.2013
27.811
27.3034
26.8636
26.9596
27.3276
27.8223
28.0003
28.6252
29.3499
30.2659
31.3946
32.7037
34.1555
35.7185
37.371
39.1382
41.0713
42.9472
45.2267
47.3355
100000
100000
116.829
113.472
110.066
106.316
104.023
101.297
99.1558
100000
44.7739
43.4254
41.6044
39.7086
37.8881
36.1578
34.5066
32.9413
31.4784
30.1465
28.9822
28.0157
27.2424
26.6243
26.2245
25.6734
25.1669
25.3269
25.6883
26.2335
26.4499
27.0782
27.7956
28.7368
29.9012
31.2462
32.7305
34.3214
35.9985
37.8509
39.6913
41.5568
43.2599
102.145
102.418
100000
116.236
113.621
107.681
104.649
102.32
99.3541
96.706
95.7315
100000
42.5344
40.4004
38.4954
36.6697
34.9114
33.2321
31.6373
30.1421
28.7754
27.5773
26.5853
25.7986
25.1666
24.7584
24.1747
23.605
23.8225
24.1415
24.7518
25.0644
25.6508
26.357
27.3269
28.5283
29.9105
31.429
33.05
34.754
36.4915
38.5269
39.975
41.8882
100000
100000
116.766
114.049
108.411
105.54
103.165
100.583
97.1743
94.5943
100000
44.7395
41.3304
39.3103
37.4399
35.6137
33.827
32.1193
30.4935
28.9632
27.5565
26.3158
25.2875
24.4846
23.8549
23.4524
22.8728
22.2765
22.4432
22.8632
23.4338
23.8613
24.3293
25.0476
26.0513
27.2942
28.7184
30.2757
31.93
33.6626
35.3757
36.7175
102.9
100.229
100000
116.768
113.359
109.959
106.573
103.27
106.574
100000
95.5592
92.1501
89.4036
100000
40.3186
38.3316
36.4953
34.7358
32.923
31.1896
29.5337
27.968
26.5186
25.2292
24.1549
23.3294
22.7186
22.351
21.8464
21.3017
21.5519
21.7059
22.288
22.7306
23.0847
23.8333
24.9087
26.2228
27.7056
29.3093
30.9973
32.7543
34.5564
36.4878
100000
103.638
100000
116.812
113.403
110.281
107.301
100.993
100000
133.189
100000
90.0937
86.9775
85.4564
39.8706
37.8292
35.8801
34.0154
32.1957
30.4418
28.7568
27.1544
25.6616
24.3259
23.2153
22.3823
21.7995
21.4902
21.1216
20.8653
20.8447
21.0861
21.4557
21.8392
22.0947
22.8555
23.9965
25.3796
26.9174
28.5615
30.2728
32.0422
33.7984
35.5635
100000
100000
107.316
100000
112.034
108.625
105.611
98.6915
132.552
129.78
100000
88.2767
84.8675
83.4636
39.3011
37.2701
35.3087
33.437
31.6185
29.8645
28.1583
26.5237
24.9924
23.6247
22.5155
21.7373
21.1996
20.9294
20.5465
20.3167
20.3082
20.4085
20.8571
21.2667
21.6835
22.2424
23.3726
24.7947
26.3671
28.037
29.7554
31.5278
33.3102
35.2099
110.725
107.316
103.907
101.496
100000
107.031
104.112
96.47
130.568
127.159
125.481
100000
82.9396
82.0136
39.0663
36.9772
34.957
33.0044
31.1464
29.5044
27.8725
26.305
24.8519
23.5228
22.3837
21.4891
20.9298
20.6045
20.2773
20.6295
20.641
20.3302
20.5839
20.9482
21.1536
21.8994
23.0811
24.5004
26.0667
27.7211
29.4415
31.2196
33.0907
34.9971
100000
79.8166
81.3404
83.317
85.6135
105.271
102.075
94.9465
100000
109.902
100000
100000
82.4982
100000
38.701
36.6281
34.6243
32.6797
30.7652
28.8187
27.4372
25.8534
24.397
23.076
21.9555
21.1323
20.5574
20.2615
20.573
20.9913
20.9869
20.6257
20.3045
20.638
21.11
21.9397
23.0199
24.3319
25.8069
27.4011
29.0921
30.8549
32.687
34.5933
36.5947
39.2803
79.4873
81.5892
83.8872
86.5321
100.729
93.3691
100000
106.908
103.499
101.029
98.3605
41.8855
38.4764
36.3821
34.3594
32.4109
30.5413
28.745
27.0356
25.4029
23.8995
22.5703
21.5324
20.8483
20.2724
20.6183
20.9818
21.3728
21.3786
21.007
20.6598
20.4172
20.7119
21.459
22.4964
23.803
25.3065
26.948
28.6898
30.5093
32.395
34.3505
36.3809
38.4779
78.1268
80.2767
82.4343
85.0027
100.087
91.807
92.1724
100000
101.112
98.8605
100000
98.9645
38.4618
36.3598
34.3278
32.3662
30.4758
28.6611
26.9368
25.3339
23.8558
22.551
21.6321
20.896
20.3959
20.6613
20.9922
21.3741
21.3674
20.992
20.6559
20.4131
20.2441
21.1175
22.221
23.5773
25.0941
26.7485
28.5152
30.3145
32.2511
34.2599
36.3266
38.4513
100000
100000
81.9864
84.0322
86.5056
90.1683
100000
113.027
99.2217
97.4287
96.4146
100000
38.687
36.5952
34.5772
32.6404
30.7945
29.0474
27.387
25.8062
24.3454
23.047
21.9736
21.1277
20.5528
20.3373
20.6219
20.9961
20.9986
20.6217
20.2884
20.556
20.9084
21.5999
22.7515
24.1228
25.637
27.254
28.9461
30.703
32.5622
34.5112
36.54
38.6427
42.0317
93.6471
81.3989
83.3711
85.8095
88.4281
113.027
109.618
100.903
99.0497
97.7983
100000
38.9705
36.9194
34.9457
33.048
31.2248
29.4723
27.7793
26.1318
24.5404
23.0562
22.3217
21.4768
20.9234
20.6444
20.2667
20.6259
20.6711
20.3397
20.6302
20.7731
21.3117
22.1821
23.3406
24.6918
26.1832
27.7768
29.4495
31.1945
33.0213
34.9317
36.9232
38.9925
42.3835
90.9621
84.3466
83.9203
85.7095
88.0055
100000
105.81
102.859
101.094
99.8641
98.7125
39.2964
37.2487
35.2802
33.3913
31.5822
29.8487
28.1777
26.5811
25.0836
23.7366
22.6903
21.8503
21.2959
20.9575
20.6042
20.2842
20.4257
20.5383
20.881
21.2331
21.3756
22.2948
23.4867
24.8293
26.272
27.8291
29.4824
31.2064
33.0763
35.0539
37.1092
39.2288
100000
89.6394
87.7339
100000
85.3441
87.4096
100000
107.826
105.076
103.387
102.053
100.541
39.6537
37.6018
35.6597
33.8343
32.0937
30.3636
28.7238
27.1848
25.7614
24.4574
23.3368
22.4402
21.7806
21.1701
20.9587
20.7366
20.59
21.0004
21.3347
21.793
22.1372
22.99
24.1215
25.4418
26.8742
28.4187
30.0748
31.8195
33.6358
35.5518
37.568
39.6712
91.0024
86.8127
100000
100000
102.717
88.1493
105.961
100000
108.357
109.19
100000
100000
40.281
38.2489
36.3265
34.5133
32.7791
31.0801
29.4599
27.9327
26.5161
25.2284
24.1225
23.2484
22.6146
22.2115
21.8062
21.0209
21.3385
21.5178
22.2171
22.6174
23.0959
23.9013
24.9755
26.2585
27.677
29.2012
30.8191
32.5199
34.3059
36.1965
38.1924
40.2809
88.2745
83.4578
84.0278
84.4513
86.3786
88.9348
102.552
100000
130.558
100000
100000
44.5314
41.1222
39.1145
37.2086
35.4005
33.6682
31.9891
30.3821
28.8651
27.4631
26.2055
25.1385
24.2956
23.6626
23.4165
22.9605
22.3947
22.4374
22.8059
23.3687
23.7065
24.2362
25.0134
26.0431
27.2865
28.6719
30.173
31.767
33.4413
35.204
37.0688
39.0364
41.0971
43.1376
51.2207
81.5035
82.3975
85.1513
87.7768
100000
100000
127.148
100000
100000
45.4302
42.1416
40.1601
38.2722
36.473
34.7483
33.0862
31.4977
30.0025
28.6286
27.4094
26.3869
25.5888
25.0034
24.7626
24.2858
23.7699
23.6933
24.1441
24.7515
24.9848
25.5092
26.2906
27.1318
28.6771
29.9051
31.3522
32.9172
34.5697
36.31
38.1466
40.0807
42.1056
44.1913
46.4545
100000
84.0287
86.0501
88.5236
100000
127.148
123.739
117.953
114.574
113.216
43.3145
41.3601
39.4923
37.7068
35.9949
34.3511
32.7845
31.3147
29.9693
28.7828
27.7997
27.0612
26.5132
26.2362
25.7597
25.2806
25.1592
25.6355
26.2759
26.4214
26.9402
27.745
28.441
30.0993
31.2767
32.6896
34.2302
35.863
37.5822
39.3912
41.2914
43.2788
45.3415
47.5461
124.378
100000
98.6741
90.4724
113.192
100000
100000
114.856
111.446
113.108
44.6208
42.693
40.8463
39.0772
37.3808
35.7562
34.2126
32.7695
31.4542
30.3017
29.3548
28.6531
28.1275
27.8097
27.3426
26.9193
26.7882
27.2575
27.8377
27.3324
28.4589
29.3075
29.9074
31.6094
32.7607
34.1494
35.6697
37.2851
38.9849
40.7692
42.6384
44.5903
46.6244
48.7519
50.9064
118.558
100000
92.131
109.354
100000
118.402
100000
111.988
113.878
46.0415
44.1392
42.3131
40.5611
38.8813
37.2759
35.7555
34.3397
33.0559
31.9377
31.0224
30.3382
29.8186
29.4678
29.0158
28.6603
28.5429
28.9578
29.515
28.9696
30.1975
30.9583
31.6582
32.9373
34.4824
35.7416
37.2189
38.8118
40.4927
42.2551
44.0971
46.0174
48.0185
50.1057
52.3058
55.9453
111.74
100000
100000
117.99
109.614
111.181
113.05
115.166
47.5606
45.6817
43.8748
42.1396
40.4762
38.8898
37.3926
36.0046
34.7524
33.6672
32.7793
32.1035
31.5813
31.2069
30.7736
30.4842
30.3921
30.7264
31.2848
30.7938
31.9335
32.5408
33.6157
34.4915
36.2046
37.41
38.8542
40.4251
42.0878
43.8304
45.6492
47.5419
49.5085
51.5495
53.7433
100000
108.33
104.921
100000
111.253
111.659
100000
127.645
117.92
49.1646
47.3067
45.5179
43.7987
42.1519
40.5847
39.1109
37.751
36.5304
35.4765
34.6125
33.9428
33.4165
33.0283
32.6154
32.381
32.3149
32.5694
33.1337
32.7424
33.7756
34.3089
35.2532
36.6525
37.9766
39.1567
40.5693
42.1162
43.7595
45.4834
47.2812
49.1498
51.0878
53.0945
55.2587
100000
100000
98.4277
126.746
100000
100000
128.539
120.796
121.25
50.843
49.0046
47.2329
45.5299
43.9004
42.3535
40.9042
39.5726
38.3825
37.3578
36.5156
35.8526
35.325
34.9343
34.5441
34.3468
34.3021
34.4937
35.055
34.7759
35.6994
36.2188
37.0573
38.2544
39.7793
41.1594
42.4103
43.8965
45.5078
47.2086
48.9851
50.8314
52.7444
54.7224
56.8599
100000
122.41
100.017
124.336
100000
129.985
121.169
122.35
123.86
52.5886
50.7689
49.0146
47.3289
45.7183
44.1933
42.7695
41.4666
40.3061
39.3086
38.4862
37.8316
37.307
36.9246
36.5575
36.3812
36.3517
36.5012
37.0469
36.874
37.6985
38.2246
38.9989
40.0886
41.2833
43.1882
44.0957
45.9894
47.3919
49.0215
50.7622
52.5823
54.4705
56.4225
58.5286
122.41
119.001
100000
100000
131.787
127.493
128.226
100000
138.201
54.3973
52.5965
50.8605
49.1939
47.6042
46.1032
44.7064
43.4322
42.3007
41.3286
40.5248
39.8793
39.3623
38.9961
38.6501
38.4842
38.4645
38.5898
39.1098
39.0293
39.77
40.3102
41.0255
42.1056
42.9884
44.8624
46.31
47.6572
49.5297
50.9574
52.6231
54.4035
56.2629
58.1885
60.2664
100000
115.592
113.484
130.911
127.502
128.694
129.365
139.349
132.367
56.2663
54.4856
52.7697
51.1241
49.5578
48.0827
46.7141
45.4694
44.3661
43.4184
42.6321
41.9968
41.4908
41.1443
40.816
40.6548
40.6398
40.7556
41.2431
100000
152.753
100000
127.343
100000
46.3975
100000
48.2871
50.0442
51.5941
52.9457
54.5514
56.2905
58.1184
60.0165
62.0669
113.656
112.432
107.265
132.246
100000
130.777
130.807
132.996
133.967
58.1944
56.4351
54.7411
53.1192
51.5785
50.1312
48.7921
47.5772
46.5019
45.5777
44.8084
44.1839
43.6912
43.3641
43.0521
100000
162.79
159.38
156.162
152.753
149.344
145.935
100000
100000
146.418
142.463
50.4703
52.1397
53.777
55.0253
56.5603
58.2492
60.0851
111.248
108.868
107.513
108.274
109.162
133.271
100000
133.134
133.482
135.037
136.126
136.947
138.229
139.792
141.657
144.293
182.787
100000
175.969
100000
156.56
100000
186.152
100000
217.696
214.639
211.781
100000
100000
100000
100000
100000
142.525
139.149
124.51
100000
139.609
52.8224
54.5911
55.6631
57.3745
58.3004
60.5936
62.2478
107.698
105.134
107.696
110.521
111.52
100000
145.042
135.681
136.195
137.5
138.603
139.683
140.995
142.52
144.269
146.411
149.041
151.469
172.56
100000
189.561
186.152
182.743
100000
216.188
212.779
209.37
100000
153.044
149.635
146.96
144.631
142.992
100000
100000
146.145
100000
151.308
100000
100000
59.9763
100000
110.391
107.667
103.943
101.725
105.134
100000
114.296
146.199
137.449
138.389
139.051
140.175
141.271
142.456
143.796
145.302
146.977
148.897
151.109
153.33
167.809
159.571
100000
100000
179.334
170.922
100000
182.258
182.074
185.642