<VTKFile type="ImageData" version="1.0" byte_order="LittleEndian" header_type="UInt64">
	<ImageData WholeExtent="0 44 0 44 0 44" Origin="-72.4106 -72.4106 -72.4106" Spacing="3.29139 3.29139 3.29139">
		<Piece Extent="0 44 0 44 0 44">
			<PointData Scalars="Scalars_">
				<DataArray type="Float32" Name="Scalars_" format="ascii" RangeMin="0" RangeMax="100">
78.2692
76.3752
74.5851
72.9066
71.3474
69.9157
68.6194
67.4663
66.4639
65.619
64.9378
64.4255
64.0861
63.9225
59.6427
57.8452
56.9147
56.1599
55.599
55.2379
55.0805
55.1286
55.3511
55.6212
55.9245
56.2605
56.6282
57.0069
57.4697
58.0829
58.8416
59.7405
60.7732
61.9331
63.2132
64.5927
65.986
67.3796
68.794
70.2405
71.7174
73.2239
74.8181
76.5273
78.3439
76.3752
74.433
72.595
70.8694
69.2644
67.7887
66.4509
65.2595
64.2226
63.3479
62.642
62.1107
61.7587
61.5889
57.357
55.5884
54.6666
53.8803
53.2954
52.9186
52.7543
52.8045
52.986
53.2034
53.4561
53.7436
54.0654
54.4384
54.9721
55.6617
56.5011
57.484
58.6029
59.8504
61.2138
62.6072
64.0005
65.3938
66.7872
68.1961
69.6378
71.1534
72.7929
74.5486
76.4122
74.5851
72.595
70.7093
68.9365
67.2854
65.7653
64.3855
63.1551
62.0831
61.1777
60.4465
59.8958
59.5307
59.3545
55.0713
53.4108
52.529
51.7195
51.1099
50.7168
50.5453
50.5876
50.7094
50.8689
51.0658
51.2997
51.57
51.9367
52.5141
53.2852
54.2117
55.2845
56.4952
57.835
59.2283
60.6216
62.015
63.4083
64.8016
66.195
67.6252
69.1847
70.8698
72.6719
74.5825
72.9066
70.8694
68.9365
67.1168
65.4198
63.8554
62.4333
61.1637
60.0561
59.1197
58.3627
57.7922
57.4137
57.231
52.7858
51.301
50.4242
49.6318
49.0367
48.6465
48.4697
48.4772
48.5335
48.6295
48.7649
48.9396
49.1561
49.5375
50.1425
50.9631
51.9802
53.1492
54.4575
55.8494
57.2428
58.6361
60.0294
61.4281
62.8364
64.2538
65.7233
67.3268
69.0573
70.9055
72.8624
71.3213
69.2644
67.2854
65.4198
63.6777
62.0693
60.6054
59.2966
58.1535
57.186
56.403
55.8124
55.4204
55.2311
50.5667
49.1962
48.3195
47.5474
46.9824
46.6319
46.5008
46.4836
46.4726
46.499
46.5668
46.676
46.8565
47.2565
47.8903
48.7488
49.8205
51.0862
52.4705
53.8651
55.2693
56.6838
58.1081
59.5413
60.9829
62.4323
63.9421
65.5892
67.3644
69.2578
71.2599
69.7705
67.7482
65.7651
63.8554
62.0693
60.4181
58.9132
57.566
56.3878
55.3894
54.5807
53.9702
53.5647
53.3688
48.4799
47.0914
46.2158
45.4663
44.9342
44.6271
44.5431
44.5259
44.5088
44.4916
44.4866
44.5237
44.6924
45.1115
45.775
46.6725
47.7907
49.1145
50.5367
51.9694
53.4116
54.8626
56.3217
57.7884
59.262
60.7421
62.2921
63.9817
65.8002
67.7373
69.7831
68.2534
66.2686
64.3263
62.4304
60.6054
58.9132
57.3688
55.9845
54.7723
53.7439
52.91
52.28
51.8612
51.6589
46.5433
44.99
44.1137
43.3892
42.8931
42.6336
42.5854
42.5682
42.5511
42.5339
42.5167
42.5084
42.6842
43.1229
43.8165
44.7533
45.9182
47.2937
48.7561
50.227
51.7057
53.1914
54.6836
56.1819
57.6856
59.1945
60.7838
62.5142
64.3742
66.353
68.4401
66.7722
64.8278
62.9294
61.0812
59.2879
57.566
55.9845
54.565
53.3205
52.2636
51.4057
50.757
50.3256
50.1171
44.7762
42.9934
42.051
41.3234
40.8602
40.6529
40.6277
40.6106
40.6027
40.6101
40.633
40.6714
40.8551
41.3132
42.0367
43.0122
44.2231
45.6478
47.148
48.6546
50.167
51.6848
53.2075
54.7346
56.2658
57.8016
59.4282
61.1969
63.0957
65.1133
67.239
65.3475
63.4285
61.5772
59.7802
58.0425
56.3696
54.7723
53.3205
52.0463
50.963
50.0828
49.4168
48.9735
48.7592
43.1996
41.1652
40.1561
39.3935
38.9081
38.7105
38.7189
38.7496
38.7964
38.8593
38.9382
39.033
39.2301
39.7069
40.4592
41.4718
42.7263
44.1964
45.7304
47.2689
48.8114
50.3575
51.907
53.4595
55.0148
56.5749
58.2358
60.0396
61.9739
64.0269
66.1875
64.0598
62.1041
60.2727
58.5306
56.8525
55.2443
53.7121
52.2636
50.963
49.856
48.956
48.2744
47.8206
47.6011
41.835
39.5286
38.463
37.6661
37.1582
36.9512
36.9998
37.0896
37.1961
37.319
37.4583
37.6138
37.8354
38.3296
39.1084
40.1551
41.4495
42.9592
44.5217
46.0869
47.6545
49.2242
50.7958
52.3693
53.9443
55.5254
57.2168
59.0518
61.0174
63.1015
65.2927
62.9259
60.9339
59.0666
57.3363
55.7216
54.1824
52.7248
51.3558
50.0827
48.956
48.0391
47.3443
46.8815
46.6576
40.7037
38.1089
36.9994
36.1703
35.641
35.4251
35.5054
35.659
35.8294
36.0165
36.2199
36.4393
36.6975
37.2068
38.0086
39.0847
40.4134
41.9552
43.5393
45.1246
46.711
48.2983
49.8865
51.4755
53.0653
54.6635
56.3807
58.242
60.2341
62.3444
64.5613
61.9545
59.9301
58.0306
56.2684
54.657
53.1878
51.8096
50.5259
49.3441
48.2716
47.3443
46.6392
46.1693
45.9419
39.8256
36.9391
35.7934
34.9357
34.3875
34.1636
34.265
34.4862
34.724
34.9782
35.2483
35.534
35.8406
36.362
37.1819
38.2814
39.637
41.2014
42.7987
44.3963
45.9941
47.5921
49.1903
50.7887
52.3873
53.9979
55.7357
57.6178
59.6308
61.7617
63.9988
61.1531
59.1013
57.1742
55.3848
53.7469
52.2747
50.9703
49.7766
48.6909
47.7203
46.8722
46.1693
45.6946
45.4648
39.2177
36.0469
34.8718
33.9909
33.4271
33.1968
33.3069
33.5981
33.9053
34.2281
34.566
34.9186
35.2854
35.8148
36.6471
37.7621
39.1357
40.7117
42.3126
43.9135
45.5145
47.1154
48.7163
50.3173
51.9182
53.5362
55.2884
57.1853
59.2129
61.3584
63.6096
60.5286
58.4549
56.5057
54.6945
53.0352
51.5427
50.2317
49.1118
48.1266
47.2622
46.5253
45.922
45.4648
45.2339
38.8926
35.453
34.2576
33.3604
32.7858
32.551
32.6633
30.9041
30.4343
30.2605
30.4601
31.0258
31.9146
32.8711
35.4421
35.8176
36.275
36.8535
37.7085
38.8374
40.2171
41.8229
43.6297
45.6138
47.7381
49.8839
52.0298
54.1757
56.3216
58.4675
60.6135
59.3324
57.0137
54.7062
52.4114
50.162
48.0401
46.0668
44.2618
42.6465
41.2432
40.0742
39.1606
36.1024
34.5866
33.2957
32.3052
31.6436
31.2958
30.8489
30.4907
30.157
30.1211
29.5808
29.402
29.6073
30.189
31.1049
32.0941
35.0621
35.2987
35.6272
36.1992
37.0693
38.2171
39.6184
41.2475
43.0785
45.0868
47.2195
49.3616
51.504
53.6467
55.7897
57.9328
60.0762
58.7596
56.4831
54.2215
51.9768
49.7514
47.6113
45.6194
43.7959
42.1628
40.7429
39.5591
38.6333
35.222
33.6343
32.3052
31.2834
30.5997
30.277
29.9415
29.6737
29.4329
28.4287
28.1226
28.1722
28.566
29.0353
29.5046
29.974
30.4627
31.227
32.3254
33.6545
35.0408
36.473
37.946
39.5297
41.2185
42.9796
44.8044
46.6857
48.6532
50.7661
53.0087
55.3652
57.8218
58.3313
56.1037
53.8951
51.708
49.5453
47.4181
45.4177
43.5858
41.9445
40.517
39.3264
38.395
34.6169
32.9993
31.6436
30.5997
29.9004
29.57
29.3644
29.1943
29.0532
27.2443
27.0195
27.1788
27.6294
28.0987
28.5868
29.1259
29.7139
30.4971
31.5997
32.8152
34.0928
35.4259
36.8429
38.4844
40.2949
42.1709
44.1023
46.082
48.1067
50.2426
52.5076
54.8856
57.3627
56.1599
53.8803
51.7195
49.6921
47.7814
45.9832
44.2738
42.5329
40.7731
39.0134
37.2536
35.494
33.8364
32.3865
31.1731
30.2249
29.4568
28.6976
27.9808
27.3162
26.7074
26.1755
25.9844
26.2275
26.7418
27.2983
27.9318
28.5998
29.3121
30.1278
31.1291
32.2113
33.3662
34.5912
36.0213
37.6987
39.5881
41.5735
43.6051
45.6768
47.7834
49.941
52.219
54.6097
57.0987
55.599
53.2954
51.1099
49.0581
47.1558
45.3316
43.5439
41.7833
40.0235
38.2637
36.5039
34.767
33.2002
31.8539
30.7568
29.9365
29.1574
28.3923
27.6272
26.8621
26.1127
25.4998
25.3035
25.5529
26.0422
26.5886
27.1474
27.7063
28.3014
29.2102
30.9197
31.8563
32.8756
34.0492
35.5012
37.202
39.1191
41.1963
43.3199
45.4754
47.6584
49.8653
52.1467
54.5405
57.0326
55.2379
52.9186
50.7168
48.6485
46.706
44.8002
42.9243
41.0824
39.2793
37.5141
35.7543
34.0797
32.6094
31.3723
30.3968
29.7088
28.858
28.0929
27.3278
26.5674
25.8559
25.2242
25.0575
25.271
25.6049
26.0059
26.4709
27.0337
27.6199
28.5891
30.9765
31.6755
36.9107
37.1956
37.7737
38.6319
39.7521
41.1129
42.6913
44.4641
46.4091
48.5084
50.7444
53.0998
55.559
55.0805
52.7543
50.5453
48.4695
46.4692
44.4894
42.5331
40.6036
38.7049
36.8418
35.0351
33.4347
32.0665
30.9441
30.0951
29.3237
28.5586
27.7935
27.0284
26.2633
25.5128
25.055
25.0095
25.2577
25.5169
25.7785
26.0898
26.4679
27.0725
28.0706
30.7954
31.3361
36.5497
36.796
37.344
38.182
39.2914
40.6501
42.234
44.0188
45.981
48.0991
50.3533
52.7261
55.2023
55.1286
52.8045
50.5977
48.5083
46.4485
44.4039
42.3766
40.3694
38.3852
36.4279
34.569
32.9478
31.6032
30.5716
29.8535
29.0243
28.2592
27.4941
26.729
25.9639
25.2605
24.9207
24.9966
25.2559
25.5151
25.7743
26.0336
26.3218
26.9297
27.9329
30.4451
30.9972
36.3193
36.5658
37.1172
37.9602
39.076
40.4419
42.0337
43.8266
45.7971
47.9233
50.1853
52.5658
55.0492
55.3511
53.0589
50.873
48.7541
46.6443
44.5449
42.4575
40.384
38.3265
36.2954
34.4273
32.799
31.448
30.4112
29.7216
28.7348
27.9598
27.1947
26.4296
25.6645
25.0415
24.822
24.9948
25.2541
25.5133
25.7844
26.1224
26.4821
27.135
28.1464
30.1706
30.7295
36.3988
36.6448
37.195
38.0363
39.1499
40.5133
42.1024
43.8925
45.8602
47.9835
50.2429
52.6207
55.1017
55.6212
53.3877
51.2512
49.1304
47.0096
44.8887
42.7679
40.6471
38.5301
36.4725
34.6138
32.9948
31.6522
30.6223
29.9375
28.6936
27.7969
26.9423
26.1338
25.3687
24.8567
24.7592
24.993
25.2584
25.5906
25.936
26.2813
26.6656
27.3849
28.4318
30.2459
30.8035
36.7241
36.9752
37.5273
38.3675
39.4773
40.8348
42.4162
44.1975
46.1555
48.2687
50.5177
52.8851
55.3558
55.9245
53.7505
51.6297
49.5088
47.388
45.2672
43.1464
41.0256
38.9098
36.9152
35.1113
33.529
32.2088
31.1973
30.0415
29.0017
27.9923
27.0167
26.0789
25.2274
24.7575
24.7407
25.0588
25.4041
25.7495
26.0949
26.4402
26.8609
27.6453
28.7173
30.6173
31.1946
32.1105
33.3373
34.842
36.59
38.5033
40.5003
42.5006
44.501
46.5048
48.6117
50.854
53.2146
55.6784
56.2605
54.1289
52.0081
49.8873
47.7665
45.6457
43.5249
41.404
39.3324
37.4277
35.7204
34.2398
33.0166
32.0803
30.77
29.6482
28.5413
27.4603
26.4082
25.5233
25.0589
25.0424
25.2908
25.5801
25.9084
26.2537
26.5991
27.0678
27.9157
29.0027
31.0162
31.6307
32.5776
33.829
35.3526
37.1131
38.9562
40.8589
42.8513
44.8517
46.8543
48.955
51.1907
53.5445
56.0015
56.6282
54.5074
52.3866
50.2658
48.145
46.0241
43.9033
41.7906
39.7992
37.9843
36.3724
34.9915
33.87
33.0342
31.5915
30.4694
29.3473
28.2253
27.1116
26.2511
25.7998
25.7704
25.8918
26.0548
26.2585
26.5021
26.7843
27.2925
28.1961
29.3486
31.4195
32.0701
33.0471
34.3224
35.8643
37.6363
39.4795
41.3226
43.2159
45.2023
47.2041
49.2986
51.5278
53.8748
56.3251
57.0069
54.8923
52.7969
50.723
48.6733
46.6511
44.6602
42.7383
40.9967
39.466
38.1714
37.1378
36.3872
35.9376
32.4129
31.2908
30.1687
29.0467
27.9823
27.24
26.8763
26.8505
26.8682
26.9095
26.9913
27.1133
27.2925
27.7913
28.6792
29.8457
31.8395
32.5394
33.5639
34.8843
36.4687
38.2672
40.1051
41.9434
43.7821
45.6218
47.5591
49.6493
51.8739
54.2164
56.6621
57.4697
55.3051
53.1556
51.0229
48.9093
46.8174
44.7578
42.8342
41.0966
39.5697
38.2787
37.248
36.4998
36.0515
33.2343
32.1122
30.9901
29.8681
28.8938
28.2647
28.0044
28.0117
28.0293
28.0469
28.0645
28.083
28.1961
28.6792
29.5404
30.6113
32.3304
33.0199
34.0299
35.333
36.898
38.6853
40.5284
42.3715
44.2146
46.0577
47.9776
50.0503
52.2578
54.5838
57.0137
58.0829
55.8751
53.6786
51.4949
49.3256
47.1728
45.1013
43.1929
41.4704
39.9578
38.6797
37.66
36.9201
36.4771
34.0557
32.9336
31.8115
30.705
29.8423
29.3196
29.1552
29.1729
29.1905
29.2081
29.2257
29.2433
29.3949
29.9007
30.7402
31.699
33.1574
33.8301
34.8166
36.0913
37.6248
39.3845
41.2202
43.0565
44.8933
46.7307
48.626
50.6722
52.8538
55.1546
57.5605
59.7845
57.1844
54.6649
52.2409
49.9262
47.7368
45.6908
43.8082
42.1109
40.6221
39.3656
38.3641
37.6381
37.2036
35.0247
33.9952
32.9922
32.0867
31.5017
31.2702
31.3715
30.4966
30.38
30.3693
30.3869
30.406
32.2773
32.5387
32.9416
33.481
34.2953
34.9471
35.9029
37.1403
38.6323
40.3504
42.1673
43.9863
45.8073
47.6301
49.4953
51.507
53.6547
55.9226
58.2967
60.4047
57.8468
55.3574
52.965
50.6835
48.5283
46.5171
44.6693
43.006
41.5493
40.3217
39.3446
38.6369
38.2138
35.6988
34.59
33.5025
32.5969
32.0212
31.7935
31.8654
31.4992
31.5128
31.5305
31.5481
31.5838
32.838
33.2629
33.8223
34.5097
37.1271
38.0326
39.2072
40.6275
42.2687
44.1062
46.1137
48.1765
50.2435
52.3141
54.3878
56.4832
58.6854
60.9939
63.3971
61.1929
58.694
56.2432
53.8901
51.6495
49.5363
47.5677
45.7624
44.1403
42.7223
41.5294
40.5813
39.8957
39.486
36.9567
35.505
34.3232
33.4398
32.8789
32.6571
32.6909
32.6564
32.674
32.6917
32.7093
32.7782
37.0012
36.6947
36.6958
37.0043
37.6127
38.5069
39.6674
41.0718
42.6959
44.5158
46.4999
48.5256
50.5585
52.5976
54.6423
56.7217
58.9149
61.2147
63.6096
62.1426
59.7098
57.3132
55.006
52.8127
50.748
48.8283
47.0713
45.4959
44.1215
42.9675
42.0519
41.3906
40.9959
38.0016
36.5914
35.4459
34.5912
34.0492
33.8351
33.8237
35.4257
34.5965
34.081
33.8935
34.0396
37.7894
37.4895
37.4905
37.7925
38.3885
39.265
40.4038
41.7834
43.3809
45.1732
47.1208
49.1005
51.0909
53.0907
55.0989
57.1577
59.3348
61.619
63.9988
63.2466
60.8837
58.5574
56.3013
54.1605
52.1492
50.283
48.5787
47.0538
45.7262
44.6137
43.7326
43.097
42.7181
44.5451
43.5772
42.8524
42.3834
42.1631
42.0024
41.8444
36.5588
35.7687
35.2703
35.0892
35.2303
38.8041
38.5627
38.5637
38.8574
39.4373
40.291
41.4015
42.749
44.3117
46.0678
47.9674
49.8935
51.834
53.7876
55.7527
57.7868
59.9411
62.203
64.5613
64.497
62.2068
59.9564
57.7584
55.6757
53.7229
51.9146
50.2663
48.7944
47.5155
46.4459
45.6002
44.9911
44.6282
44.9857
44.0274
43.3102
42.8462
42.6177
42.4319
42.2484
37.91
37.2094
36.7306
36.5568
36.6922
39.9903
39.8745
39.8929
40.1769
40.738
41.565
42.6424
43.9518
45.4732
47.1861
49.028
50.8942
52.779
54.6805
56.5981
58.6029
60.7282
62.9619
65.2927
65.8854
63.6464
61.418
59.2806
57.2609
55.3719
53.6274
52.0418
50.6302
49.4074
48.3877
47.5842
47.008
46.6676
45.6707
44.7271
44.0213
43.5649
43.3272
43.118
42.9108
39.4547
38.8771
38.431
38.2649
38.3943
41.3333
41.3409
41.4535
41.7269
42.2674
43.065
44.1058
45.373
46.8483
48.5126
50.289
52.0908
53.9153
55.76
57.628
59.5982
61.6892
63.8893
66.1875
67.3364
65.0976
62.9125
60.8348
58.8759
57.0481
55.3643
53.838
52.483
51.3129
50.3405
49.5775
49.0336
48.7163
46.5895
45.6649
44.9738
44.5272
44.2792
44.0486
43.8198
41.1712
40.7109
40.3412
40.183
40.3062
42.8182
42.9408
43.2204
43.4827
44.0016
44.7683
45.7704
46.9928
48.4187
50.0305
51.7358
53.4702
55.2309
57.0155
58.8327
60.7638
62.8161
64.978
67.239
68.7875
66.567
64.4385
62.4186
60.5183
58.749
57.123
55.6528
54.3511
53.2303
52.3019
51.5764
51.0624
50.7663
47.7285
46.8264
46.1527
45.7176
45.4586
45.2087
44.9605
43.0388
42.6873
42.3875
42.2709
42.3996
44.4308
44.6598
45.1592
45.4204
45.9175
46.6527
47.6152
48.7913
50.1661
51.7207
53.3533
55.0185
56.7135
58.4357
60.2018
62.0904
64.1002
66.2202
68.4401
70.2405
68.0673
65.9938
64.0299
62.1858
60.4726
58.9016
57.4845
56.233
55.1584
54.271
53.5803
53.094
52.8176
49.0725
48.1955
47.5412
47.1189
46.8481
46.5812
46.3157
45.037
44.7267
44.457
44.4008
44.578
46.1578
46.4847
47.145
47.458
47.9932
48.6972
49.6199
50.7497
52.0728
53.5667
55.1264
56.7219
58.3503
60.0089
61.7243
63.5676
65.5321
67.6072
69.7831
71.7174
69.5965
67.5765
65.6666
63.8766
62.217
60.6983
59.3316
58.1274
57.096
56.247
55.5887
55.128
54.8698
50.605
49.755
49.1215
48.7129
48.4297
48.1479
47.8672
47.0764
46.7661
46.5436
46.5422
46.7634
47.9867
48.4035
49.145
49.5059
50.209
50.8823
51.7662
52.85
54.1218
55.5528
57.0407
58.567
60.1287
61.7233
63.3891
65.1854
67.1025
69.1305
71.2599
73.2239
71.1534
69.1847
67.3268
65.5888
63.9804
62.5117
61.1925
60.033
59.0423
58.2292
57.6012
57.1643
56.923
52.3095
51.4876
50.8757
50.4813
50.1853
49.8905
49.5967
49.1159
48.8093
48.6449
48.6937
48.955
49.9065
50.4055
51.1575
51.5625
52.5472
53.1909
54.037
55.0762
56.2977
57.6646
59.0824
60.5407
62.0366
63.5676
65.1854
66.9335
68.8019
70.7813
72.8624
74.8181
72.7929
70.8698
69.0573
67.3644
65.8002
64.3742
63.0957
61.9739
61.0174
60.2341
59.6308
59.2129
58.9846
54.1697
53.3766
52.7865
52.4065
52.0972
51.7912
51.4861
51.1553
50.869
50.7593
50.854
51.1519
51.907
52.4723
53.1813
53.6269
54.9921
55.6075
56.4174
57.4127
58.5809
59.8888
61.2388
62.6309
64.0624
65.5321
67.1025
68.8019
70.621
72.5507
74.5825
76.5273
74.5486
72.6719
70.9055
69.2578
67.7373
66.353
65.1133
64.0269
63.1015
62.3444
61.7617
61.3584
61.138
56.1703
55.4058
54.8376
54.4719
54.1489
53.8334
53.5185
53.2043
52.9449
52.8851
53.022
53.3534
53.9722
54.5475
55.2221
55.6981
57.5234
58.1022
58.8639
59.8014
60.9066
62.1698
63.4945
64.8263
66.1952
67.6072
69.1305
70.7813
72.5507
74.4304
76.4122
78.3439
76.4122
74.5825
72.8624
71.2599
69.7831
68.4401
67.239
66.1875
65.2927
64.5613
63.9988
63.6096
63.3971
58.2967
57.5605
57.0137
56.6621
56.3251
56.0015
55.6784
55.3558
55.1017
55.0492
55.2023
55.559
56.0994
56.6732
57.3627
57.8218
60.0762
60.6135
61.3269
62.2105
63.2571
64.4589
65.7756
67.1002
68.4251
69.7831
71.2599
72.8624
74.5825
76.4122
78.3439
76.3752
74.433
72.595
70.8694
69.2644
67.7887
66.4509
65.2595
64.2226
63.3478
62.642
62.1107
61.7587
61.5889
57.2083
55.6371
54.6666
53.8803
53.2954
52.9186
52.7543
52.8045
53.0589
53.3877
53.7505
54.1289
54.5074
54.8859
55.3051
55.8751
56.5973
57.4661
58.475
59.6168
60.884
62.2587
63.6612
65.0976
66.567
68.0673
69.5965
71.1534
72.7929
74.5486
76.4122
74.433
72.4388
70.5489
68.7719
67.1168
65.5928
64.2093
62.9755
61.9003
60.9922
60.2588
59.7063
59.34
59.1633
54.9222
53.2902
52.322
51.4999
50.8877
50.4929
50.3207
50.3733
50.605
50.8821
51.1954
51.5444
51.9209
52.3009
52.7856
53.4333
54.2383
55.1936
56.2915
57.524
58.8798
60.2732
61.6665
63.0653
64.4962
65.9607
67.4566
69.0207
70.7098
72.5158
74.4304
72.595
70.5489
68.6069
66.7783
65.0725
63.4995
62.0693
60.7921
59.6776
58.7352
57.9731
57.3987
57.0176
56.8336
52.6361
51.018
50.0881
49.2347
48.5939
48.1804
47.9999
48.0546
48.2351
48.4548
48.7132
49.0097
49.3436
49.7403
50.3038
51.0364
51.9309
52.9792
54.1723
55.501
56.8943
58.2876
59.681
61.0743
62.4703
63.8956
65.3776
66.9894
68.7284
70.5852
72.5507
70.8694
68.7719
66.7783
64.8981
63.1416
61.5192
60.0419
58.7206
57.566
56.5884
55.7971
55.2
54.8036
54.6121
50.3499
48.8311
47.9479
47.0975
46.4311
45.9981
45.809
45.8479
45.9622
46.1182
46.3154
46.5534
46.8314
47.2323
47.8656
48.6908
49.6824
50.8307
52.1252
53.5154
54.9088
56.3021
57.6954
59.0888
60.4821
61.8864
63.4083
65.0689
66.8579
68.7652
70.7813
69.2314
67.1168
65.0725
63.1416
61.3347
59.6632
58.1388
56.7732
55.5782
54.565
53.7439
53.1237
52.7117
52.5126
48.0651
46.7199
45.8431
45.0039
44.3639
43.9496
43.7673
43.7603
43.8016
43.8869
44.016
44.1886
44.4124
44.8341
45.5017
46.4044
47.5011
48.7566
50.1366
51.5299
52.9232
54.3167
55.7171
57.1281
58.5488
59.9914
61.5602
63.2693
65.1077
67.0648
69.1305
67.6248
65.5431
63.4982
61.5192
59.6632
57.9435
56.3726
54.9631
53.7279
52.6791
51.8281
51.1848
50.757
50.5503
45.8647
44.615
43.7383
42.9129
42.304
41.9327
41.8048
41.7876
41.7705
41.7777
41.8312
41.9307
42.1228
42.5673
43.2698
44.2181
45.3968
46.7577
48.1531
49.5599
50.9781
52.4068
53.8452
55.2926
56.7482
58.2295
59.8445
61.6012
63.488
65.4935
67.6072
66.0503
64.0042
61.9983
60.0364
58.1388
56.3726
54.7566
53.3044
52.0298
50.9461
50.0657
49.3994
48.956
48.7416
43.8125
42.5102
41.6334
40.8251
40.2505
39.9265
39.8471
39.8299
39.8127
39.7956
39.7797
39.7981
39.9858
40.4538
41.1924
42.1874
43.4213
44.835
46.2736
47.7226
49.181
50.648
52.1229
53.605
55.0938
56.6131
58.2729
60.0756
62.0088
64.0607
66.2202
64.5103
62.5027
60.5388
58.623
56.76
54.9631
53.3044
51.8116
50.4993
49.382
48.4732
47.7847
47.3262
47.1044
41.9306
40.4317
39.5286
38.7408
38.2044
37.9329
37.8894
37.8722
37.855
37.8379
37.8246
37.8297
38.0271
38.5189
39.2939
40.3358
41.6246
43.0875
44.5684
46.0574
47.5536
49.0565
50.5654
52.0797
53.5992
55.155
56.8574
58.7036
60.6805
62.7758
64.978
63.0314
61.0414
59.123
57.2568
55.4481
53.7028
52.0298
50.4993
49.152
48.0034
47.0679
46.3586
45.8858
45.657
40.2427
38.5089
37.5095
36.6919
36.1703
35.9538
35.9317
35.9241
35.934
35.9612
36.0059
36.0679
36.2756
36.7908
37.6014
38.6889
40.0308
41.5386
43.0582
44.5835
46.1139
47.649
49.1883
50.7314
52.2779
53.8681
55.6099
57.4962
59.5132
61.6482
63.8893
61.6953
59.6622
57.7538
55.9414
54.1914
52.5102
50.9046
49.382
48.0034
46.8266
45.8671
45.1389
44.6533
44.4181
38.7741
36.7825
35.691
34.8308
34.2808
34.0563
34.0809
34.1356
34.2085
34.2996
34.4086
34.5355
34.7627
35.2999
36.144
37.2741
38.665
40.2113
41.7642
43.3205
44.88
46.4423
48.0072
49.5743
51.1436
52.7649
54.5419
56.4639
58.5165
60.6866
62.9619
60.5172
58.4431
56.4936
54.6819
52.9937
51.3815
49.8511
48.4101
47.0669
45.8671
44.8872
44.1428
43.6461
43.4054
37.5507
35.2814
34.1087
33.2074
32.6302
32.3942
32.4613
32.5844
32.7262
32.8865
33.0649
33.2613
33.5205
34.0774
34.951
36.1184
37.5522
39.1283
40.707
42.2873
43.8692
45.4524
47.0368
48.6223
50.2088
51.857
53.6641
55.6165
57.6992
59.8989
62.203
59.5064
57.3958
55.4094
53.5611
51.8657
50.321
48.8711
47.5175
46.2686
45.133
44.1428
43.3857
42.8802
42.6352
36.597
34.0352
32.7966
31.8582
31.2561
31.0097
31.1091
31.3059
31.5214
31.7552
32.0068
32.2759
32.5803
33.1529
34.0503
35.2475
36.7153
38.3101
39.9054
41.5011
43.0972
44.6937
46.2905
47.8876
49.4849
51.155
52.9861
54.9625
57.0691
59.2922
61.619
58.6716
56.5298
54.5119
52.6321
50.9057
49.3488
47.9693
46.7086
45.5596
44.5309
43.6311
42.8802
42.3686
42.1207
35.9345
33.0728
31.7882
30.8192
30.1963
29.9412
30.0603
30.3345
30.6268
30.9365
31.2632
31.6064
31.9685
32.5519
33.4653
34.6828
36.173
37.7741
39.3751
40.9761
42.5771
44.1781
45.7791
47.3801
48.9812
50.6674
52.5154
54.5089
56.6324
58.8719
61.2147
58.0204
55.8537
53.8104
51.9052
50.1537
48.5727
47.1793
45.9878
44.9442
44.0275
43.2459
42.6067
42.1207
41.8713
35.5795
32.4247
31.1132
30.1224
29.4848
29.2235
29.3485
27.72
27.2707
27.0767
27.2996
27.9293
28.8521
29.797
32.1346
32.546
33.0465
33.6797
34.6132
35.8397
37.3304
39.055
40.984
43.0846
45.2298
47.3751
49.5204
51.6658
53.8112
55.9567
58.1022
57.0048
54.6654
52.3359
50.0177
47.7124
45.4765
43.3867
41.4652
39.7363
38.2264
36.9622
35.9695
33.2963
31.7867
30.3884
29.2999
28.5614
28.1259
27.6996
27.3079
26.9428
26.8786
26.3148
26.1137
26.3447
26.9967
27.957
28.9405
31.7136
31.9726
32.3332
32.9624
33.9156
35.1665
36.6846
38.4382
40.3967
42.5153
44.6587
46.8024
48.9463
51.0904
53.2346
55.3789
57.5234
56.3557
54.057
51.7719
49.5022
47.2504
45.0232
42.9113
40.9675
39.2168
37.686
36.403
35.3947
32.3833
30.759
29.2999
28.1693
27.408
27.0472
26.683
26.3902
26.1274
25.3037
24.9539
24.9701
25.367
25.8363
26.3056
26.775
27.3021
28.1523
29.3657
30.763
32.2113
33.7041
35.2337
36.8313
38.5175
40.2811
42.1123
44.031
46.11
48.3342
50.6845
53.1442
55.6988
55.856
53.6051
51.3722
49.1597
46.9705
44.808
42.6969
40.7429
38.982
37.4417
36.15
35.1344
31.7584
30.0634
28.5687
27.408
26.625
26.2534
26.0314
25.8477
25.6964
24.1193
23.8369
23.9761
24.4304
24.8997
25.3711
25.8852
26.4642
27.3405
28.5266
29.7999
31.1367
32.5291
34.0492
35.7828
37.6017
39.4877
41.4318
43.4264
45.533
47.784
50.1601
52.6443
55.2221
53.8803
51.4999
49.2347
47.1014
45.0937
43.1971
41.4269
39.7215
38.0032
36.2434
34.4837
32.7239
30.9724
29.3833
28.0423
26.9862
26.1924
25.4343
24.7249
24.0749
23.4893
22.9735
22.7555
23.0245
23.5112
24.0556
24.6642
25.3244
26.0349
26.9279
27.9591
29.0901
30.2976
31.599
33.1585
34.9727
36.9188
38.9206
40.9701
43.0605
45.2
47.4668
49.858
52.3566
54.9478
53.2954
50.8877
48.5939
46.4311
44.4184
42.5644
40.7741
39.0134
37.2536
35.4938
33.734
31.9742
30.2721
28.791
27.5743
26.6583
25.893
25.1279
24.3628
23.5977
22.8512
22.2005
21.9748
22.2592
22.7871
23.3459
23.9047
24.4635
25.0946
26.1048
27.6799
28.6522
29.7149
31.0049
32.5928
34.4375
36.4818
38.5898
40.7349
42.9117
45.1155
47.3872
49.7822
52.2844
54.879
52.9186
50.4929
48.1804
45.9981
43.9655
42.049
40.1652
38.3171
36.5101
34.7442
32.9844
31.2285
29.6189
28.253
27.1677
26.3977
25.5936
24.8285
24.0634
23.2983
22.5632
21.8878
21.6922
21.9204
22.2718
22.6995
23.1994
23.7727
24.4266
25.4965
27.6977
28.4098
33.5675
33.8851
34.5233
35.4647
36.6861
38.1606
39.86
41.757
43.8258
46.0438
48.3939
50.854
53.3534
52.7543
50.3207
47.9999
45.809
43.7613
41.7691
39.8008
37.86
35.9512
34.0797
32.2522
30.5194
29.0158
27.7724
26.8252
26.0593
25.2942
24.5291
23.764
22.9989
22.2339
21.7037
21.6479
21.9015
22.1607
22.4245
22.7497
23.1509
23.8398
24.9671
27.4694
28.0736
33.2043
33.4795
34.0814
34.9976
36.2048
37.6749
39.3787
41.2871
43.3731
45.6124
47.9835
50.4679
53.022
52.8045
50.3733
48.055
45.8668
43.7884
41.7295
39.6877
37.6657
35.667
33.6956
31.7575
29.9847
28.5006
27.3523
26.5493
25.7599
24.9948
24.2297
23.4646
22.6995
21.9548
21.5598
21.6404
21.8997
22.1589
22.4181
22.6774
22.9837
23.6775
24.7895
27.1202
27.7379
32.9554
33.2269
33.8328
34.7555
35.9708
37.4502
39.1637
41.0821
43.178
45.427
47.8073
50.3004
52.8851
52.986
50.605
48.3272
46.1654
44.0447
41.9307
39.828
37.7383
35.6641
33.6081
31.6032
29.8211
28.3285
27.1729
26.3988
25.4712
24.6954
23.9303
23.1652
22.4001
21.7136
21.4568
21.6386
21.8979
22.1571
22.4346
22.7778
23.1562
23.9026
24.9751
26.8303
27.4573
33.043
33.3138
33.9181
34.8386
36.0511
37.5273
39.2374
41.1524
43.2449
45.4905
47.8677
50.3578
52.9449
53.2034
50.8821
48.669
46.5438
44.423
42.3022
40.1814
38.0606
35.9397
33.8195
31.8063
30.0363
28.5549
27.4089
26.6416
25.4608
24.5487
23.6832
22.8695
22.1007
21.5114
21.3954
21.6368
21.9065
22.2459
22.5913
22.9367
23.3521
24.1726
25.2605
26.9149
27.5401
33.3773
33.6546
34.2616
35.1811
36.3894
37.859
39.5606
41.4658
43.5478
45.7825
48.1487
50.6279
53.1879
53.4561
51.1954
49.0431
46.9223
44.8015
42.6807
40.5598
38.439
36.3182
34.221
32.2954
30.5978
29.1679
28.0498
26.9116
25.8433
24.8069
23.8066
22.8472
21.9445
21.4026
21.3832
21.7141
22.0595
22.4048
22.7502
23.0956
23.5613
24.4539
25.546
27.3023
27.9533
28.977
30.3356
31.9864
33.8416
35.8154
37.8157
39.8161
41.8164
43.8918
46.1192
48.4779
50.9495
53.5063
53.7436
51.5444
49.4216
47.3008
45.18
43.0591
40.9383
38.8175
36.6969
34.6742
32.852
31.2653
29.9515
28.948
27.7045
26.5824
25.4604
24.3466
23.262
22.2841
21.7506
21.7303
21.9618
22.2402
22.5637
22.9091
23.2545
23.7833
24.7393
25.8318
27.7074
28.3987
29.4547
30.8379
32.5065
34.3453
36.2031
38.1664
40.1667
42.1671
44.2362
46.4564
48.8076
51.2717
53.8247
54.0654
51.9209
49.8001
47.6792
45.5584
43.4376
41.3168
39.196
37.1041
35.1766
33.4571
31.9793
30.7781
29.8868
28.5259
27.4038
26.2818
25.1597
24.0377
23.1007
22.6002
22.5495
22.6351
22.7684
22.9488
23.1752
23.4491
24.0279
25.0403
26.2499
28.1173
28.8477
29.9348
31.3417
33.0275
34.8686
36.7118
38.5655
40.5174
42.5178
44.5809
46.794
49.1378
51.5945
54.1431
54.4384
52.3009
50.1819
48.0836
46.0087
43.9606
41.9432
39.9612
38.0929
36.4403
35.0341
33.905
33.0812
32.586
29.3473
28.2253
27.1032
25.9811
24.8782
24.0785
23.7052
23.691
23.7086
23.7262
23.7683
23.8563
24.0279
24.593
25.5884
26.7569
28.537
29.3159
30.449
31.8987
33.6237
35.4627
37.302
39.1417
40.9817
42.8712
44.9273
47.1344
49.4722
51.9231
54.4672
54.9721
52.7856
50.6129
48.456
46.317
44.1986
42.1037
40.0637
38.2004
36.5527
35.151
34.0257
33.2049
32.7116
30.1687
29.0467
27.9246
26.8025
25.766
25.0952
24.8388
24.8521
24.8698
24.8874
24.905
24.9226
25.0495
25.5921
26.5265
27.5719
29.0837
29.8483
30.9619
32.3887
34.0892
35.9309
37.7735
39.6161
41.4587
43.335
45.3701
47.5566
49.8746
52.3067
54.8375
55.6617
53.4333
51.2151
49.0083
46.8146
44.6359
42.4789
40.4471
38.6022
36.9725
35.5873
34.4763
33.6665
33.18
30.9901
29.8681
28.746
27.6244
26.6967
26.1464
25.9957
26.0133
26.031
26.0486
26.0662
26.0838
26.2852
26.8839
27.7958
28.7398
30.0004
30.7422
31.8246
33.2143
34.8746
36.6999
38.5312
40.3635
42.1968
44.0518
46.0552
48.2107
50.4987
52.9021
55.4058
57.7441
55.1235
52.5222
49.9944
47.5706
45.2674
43.1044
41.1034
39.2894
37.6894
36.3316
35.244
34.4523
33.977
31.8801
30.8273
29.8021
28.8359
28.1835
27.9244
28.0265
27.2603
27.1941
27.2098
27.2274
27.2517
28.9523
29.2571
29.718
30.3279
31.2236
31.9622
33.0095
34.3513
35.9591
37.7512
39.5586
41.3692
43.1825
45.0095
46.9721
49.0874
51.3363
53.7022
56.1703
58.3484
55.7843
53.2419
50.7507
48.3648
46.1013
43.9792
42.02
40.2473
38.6869
37.3654
36.3088
35.5408
35.0803
32.6475
31.5113
30.3962
29.4026
28.763
28.5092
28.5741
28.3357
28.3533
28.3709
28.3886
28.4391
29.5648
30.0493
30.6804
31.4492
33.8763
34.8664
36.1441
37.68
39.444
41.4071
43.4653
45.5285
47.596
49.6673
51.75
53.9353
56.2373
58.6423
61.138
59.1269
56.6258
54.1519
51.7154
49.3761
47.1612
45.0891
43.1802
41.4572
39.9441
38.6656
37.6455
36.9053
36.462
34.1723
32.5969
31.3055
30.3344
29.7149
29.4693
29.4877
29.4969
29.5145
29.5321
29.5497
29.6442
33.7383
33.4019
33.403
33.7417
34.4079
35.3831
36.6427
38.1586
39.9015
41.8416
43.8566
45.8804
47.9118
49.95
52.0101
54.1849
56.4768
58.8719
61.3584
60.0728
57.6399
55.2399
52.8772
50.5917
48.4324
46.417
44.5651
42.8977
41.4372
40.2062
39.2262
38.5164
38.0919
35.2997
33.777
32.5325
31.599
31.0049
30.7695
30.7348
32.382
31.4872
30.9199
30.7132
30.8743
34.5861
34.2731
34.2742
34.6043
35.2542
36.2067
37.4386
38.9235
40.6336
42.5355
44.4966
46.4709
48.4569
50.4532
52.4853
54.6412
56.9147
59.2922
61.7617
61.1783
58.8179
56.4957
54.2167
51.997
49.8986
47.9449
46.1543
44.5465
43.1419
41.9609
41.0228
40.3446
39.9396
41.3896
40.3459
39.5621
39.0536
38.8179
38.6545
38.4939
33.5641
32.7708
32.2261
32.0278
32.1823
35.645
35.4432
35.445
35.7643
36.3935
37.3168
38.5133
39.9582
41.6258
43.4762
45.3746
47.2911
49.2237
51.1705
53.1698
55.299
57.5465
59.8989
62.3444
62.4349
60.15
57.9039
55.667
53.5093
51.4809
49.5977
47.8769
46.3364
44.9948
43.8705
42.9803
42.3392
41.9585
41.8633
40.8318
40.0574
39.5553
39.3124
39.1219
38.9339
34.9771
34.3242
33.8181
33.6292
33.7764
36.8874
36.8269
36.8867
37.1937
37.7991
38.6889
39.8442
41.2425
42.8602
44.6483
46.4773
48.3293
50.202
52.093
54.0556
56.1512
58.3659
60.6866
63.1015
63.8329
61.5939
59.355
57.1492
55.0575
53.0966
51.2812
49.6276
48.1522
46.872
45.8033
44.9612
44.3585
44.0052
42.5986
41.5854
40.8253
40.3327
40.0815
39.8661
39.6528
36.594
36.0754
35.6577
35.4786
35.6181
38.2955
38.3662
38.5691
38.8628
39.4426
40.2961
41.4066
42.7539
44.3164
46.034
47.789
49.5719
51.3798
53.2105
55.133
57.1892
59.3651
61.6482
64.0269
65.284
63.045
60.8128
58.6666
56.6387
54.7424
52.9918
51.4017
49.9874
48.7644
47.7472
46.9492
46.3819
46.0536
43.5822
42.5924
41.8506
41.3702
41.1098
40.8719
40.6358
38.3893
37.9948
37.6791
37.5357
37.6712
39.8516
40.0431
40.4617
40.7422
41.2956
42.1116
43.1754
44.4691
45.9734
47.6146
49.2931
51.0038
52.7436
54.5129
56.3911
58.403
60.5353
62.7758
65.1133
66.735
64.496
62.3024
60.2166
58.2502
56.4158
54.7267
53.1967
51.8399
50.6702
49.7008
48.9437
48.4087
48.1034
44.7978
43.8354
43.115
42.6489
42.3785
42.1207
41.8644