<VTKFile type="ImageData" version="1.0" byte_order="LittleEndian" header_type="UInt64">
	<ImageData WholeExtent="0 44 0 44 0 44" Origin="-71.2438 -71.2438 -71.2438" Spacing="3.23835 3.23835 3.23835">
		<Piece Extent="0 44 0 44 0 44">
			<PointData Scalars="Scalars_">
				<DataArray type="Float32" Name="Scalars_" format="ascii" RangeMin="0" RangeMax="100">
83.6652
81.7955
79.9258
78.0562
76.1865
74.3168
72.4492
70.6483
68.9508
67.3643
65.8969
64.5567
63.3519
62.2903
61.3793
60.6256
60.0353
59.6131
59.3627
59.2862
59.3843
59.6561
60.0091
60.3622
60.7152
61.0682
61.4212
61.7743
62.1273
62.4803
62.8406
63.2513
63.7184
64.2409
64.8173
65.4462
66.1262
66.8556
67.6398
68.5489
69.5969
70.7777
72.0847
73.5113
75.0505
81.7955
79.9258
78.0562
76.1865
74.3168
72.4472
70.5775
68.7252
66.9677
65.3217
63.7956
62.3984
61.1389
60.0257
59.0671
58.2708
57.6434
57.1905
56.9163
56.8234
56.9127
57.1831
57.5361
57.8892
58.2422
58.5952
58.9482
59.3012
59.6543
60.0137
60.4246
60.8946
61.4224
62.0065
62.6453
63.3372
64.0804
64.8733
65.7139
66.6493
67.7267
68.9395
70.2807
71.7432
73.3196
79.9258
78.0562
76.1865
74.3168
72.4472
70.5775
68.7078
66.8382
65.0183
63.3098
61.722
60.2644
58.9466
57.7783
56.7686
55.9262
55.2587
54.7725
54.4724
54.3616
54.4412
54.7101
55.0631
55.4161
55.7692
56.1222
56.4752
56.8282
57.1868
57.5979
58.071
58.6047
59.1972
59.8468
60.5517
61.31
62.1197
62.9789
63.8855
64.8558
65.9625
67.2072
68.5823
70.0802
71.6932
78.0562
76.1865
74.3168
72.4472
70.5775
68.7078
66.8382
64.9685
63.1056
61.3317
59.6788
58.1572
56.7774
55.55
54.4854
53.5932
52.8821
52.3596
52.0313
51.9009
51.9699
52.2371
52.5901
52.9431
53.2961
53.6492
54.0022
54.36
54.7713
55.2479
55.7879
56.3897
57.0511
57.7703
58.545
59.3731
60.2524
61.1807
62.1557
63.1775
64.3131
65.5891
66.9975
68.53
70.1786
76.1865
74.3168
72.4472
70.5775
68.7078
66.8382
64.9685
63.0989
61.2292
59.3908
57.6693
56.0799
54.634
53.3434
52.2195
51.2733
50.5149
49.9527
49.5934
49.4415
49.4988
49.7641
50.1171
50.4701
50.8231
51.1761
51.5332
51.9448
52.4251
52.9723
53.5842
54.2588
54.9936
55.7863
56.6344
57.5356
58.4874
59.4873
60.5329
61.622
62.7876
64.0939
65.5344
67.1004
68.7833
74.3168
72.4472
70.5775
68.7078
66.8382
64.9685
63.0989
61.2292
59.3595
57.4907
55.6971
54.0359
52.5196
51.1611
49.9733
48.9685
48.1583
47.5525
47.1591
46.9835
47.028
47.291
47.6441
47.9971
48.3501
48.7064
49.1183
49.6029
50.158
50.7812
51.4702
52.2222
53.0347
53.9049
54.83
55.8073
56.8342
57.9079
59.026
60.1859
61.3951
62.7304
64.2015
65.7992
67.5145
72.4492
70.5775
68.7078
66.8382
64.9685
63.0989
61.2292
59.3595
57.4899
55.6202
53.7664
52.0293
50.4379
49.0065
47.7495
46.6809
45.814
45.1603
44.7292
44.5272
44.5574
44.818
45.171
45.5241
45.8796
46.292
46.7813
47.3452
47.981
48.686
49.4572
50.2915
51.1859
52.1373
53.1425
54.1987
55.3028
56.4522
57.644
58.8757
60.1448
61.5074
63.007
64.6342
66.3797
70.6483
68.7419
66.8483
64.9687
63.0989
61.2292
59.3595
57.4899
55.6202
53.7505
51.8809
50.0644
48.3931
46.8834
45.5515
44.4132
43.484
42.7773
42.3043
42.0729
42.0871
42.345
42.698
43.053
43.4657
43.9603
44.5342
45.1842
45.9071
46.6996
47.5582
48.4794
49.4596
50.4954
51.5835
52.7207
53.9038
55.1298
56.3961
57.6999
59.0387
60.4332
61.9589
63.6129
65.3856
68.9508
67.009
65.0785
63.1601
61.255
59.3646
57.4899
55.6202
53.7505
51.8809
50.0112
48.1465
46.39
44.7962
43.3831
42.1687
41.1707
40.4051
39.8853
39.621
39.6172
39.872
40.2263
40.6395
41.1402
41.7254
42.3914
43.1345
43.9509
44.8365
45.7873
46.7994
47.8689
48.9919
50.1649
51.3845
52.6475
53.9507
55.2914
56.6669
58.0747
59.5162
61.0647
62.7423
64.5389
67.3643
65.3888
63.4227
61.4669
59.5223
57.5902
55.6719
53.7687
51.8824
50.0112
48.1415
46.2719
44.4343
42.7503
41.249
39.9512
38.8771
38.0458
37.4734
37.1719
37.1478
37.3998
37.8135
38.3212
38.9192
39.6034
40.3695
41.2128
42.1287
43.1126
44.16
45.2665
46.4278
47.6398
48.899
50.2016
51.5444
52.9244
54.3387
55.7847
57.26
58.7624
60.3313
62.0288
63.8455
65.8969
63.8897
61.8901
59.8989
57.9168
55.9449
53.9843
52.0362
50.1021
48.1837
46.283
44.4022
42.5326
40.7518
39.1549
37.7655
36.6085
35.7086
35.0857
34.7545
34.7235
34.9934
35.5034
36.1163
36.8214
37.6136
38.4875
39.4376
40.4587
41.5454
42.6927
43.8959
45.1506
46.4525
47.7978
49.1829
50.6046
52.0599
53.546
55.0605
56.5949
58.1306
59.7257
61.4487
63.2895
64.5568
62.5206
60.4902
58.4662
56.4493
54.4403
52.4401
50.4497
48.4704
46.5035
44.5508
42.614
40.6957
38.8314
37.1468
35.6771
34.4501
33.4922
32.8272
32.473
32.4398
32.7286
33.3175
34.0469
34.8692
35.7781
36.767
37.8298
38.9604
40.153
41.4023
42.7034
44.0516
45.4427
46.873
48.3389
49.8373
51.3647
52.9004
54.436
55.9717
57.5092
59.1348
60.8883
62.7588
63.3519
61.29
59.2322
57.1789
55.1308
53.0884
51.0524
49.0235
47.0027
44.9911
42.99
41.0009
39.0257
37.0875
35.3197
33.7706
32.4716
31.4536
30.7445
30.3661
30.3306
30.6392
31.2819
32.1392
33.0883
34.1216
35.2317
36.4114
37.6543
38.9544
40.306
41.7042
43.1444
44.6227
46.1352
47.6701
49.2058
50.7415
52.2771
53.8128
55.3485
56.8945
58.5515
60.3357
62.2362
62.2903
60.2065
58.1254
56.0472
53.9723
51.9012
49.8341
47.7718
45.7149
43.664
41.6201
39.5843
37.5579
35.5535
33.7054
32.0785
30.708
29.6294
28.8756
28.4723
28.4344
28.7634
29.447
30.4235
31.5078
32.6715
33.9066
35.2053
36.5611
37.9677
39.4198
40.9124
42.4398
43.9755
45.5112
47.0469
48.5826
50.1182
51.6539
53.1896
54.7253
56.2871
57.9758
59.7912
61.722
61.3792
59.2782
57.1785
55.0805
52.9843
50.8901
48.7982
46.7088
44.6225
42.5395
40.4604
38.3858
36.3166
34.2578
32.3357
30.6362
29.198
28.0615
27.2644
26.8369
26.7967
27.1455
27.8689
28.9341
30.1592
31.4564
32.8172
34.2341
35.7003
37.21
38.7453
40.2809
41.8166
43.3523
44.888
46.4237
47.9593
49.495
51.0307
52.5664
54.1021
55.6872
57.4081
59.2549
61.2163
60.6256
58.5124
56.3997
54.2877
52.1764
50.0659
47.9562
45.8476
43.7401
41.634
39.5294
37.4266
35.3259
33.2283
31.2429
29.4804
27.983
26.795
25.9589
25.5096
25.4673
25.8341
26.5931
27.7121
29.0747
30.5043
31.9877
33.515
35.0507
36.5863
38.122
39.6577
41.1934
42.7291
44.2648
45.8004
47.3361
48.8718
50.4075
51.9432
53.479
55.0951
56.8486
58.7272
60.7193
60.0353
57.9156
55.796
53.6765
51.5571
49.4378
47.3186
45.1996
43.0807
40.962
38.8435
36.7253
34.6073
32.4897
30.4568
28.646
27.1024
25.874
25.0072
24.5404
24.4965
24.8776
25.6649
26.8227
28.2849
29.8204
31.3561
32.8918
34.4274
35.9631
37.4988
39.0345
40.5702
42.1059
43.6415
45.1772
46.7129
48.2486
49.7843
51.3199
52.8612
54.5109
56.2974
58.2081
60.2313
59.6131
57.4931
55.3731
53.2532
51.1333
49.0135
46.8938
44.7742
42.6547
40.5352
38.416
36.2968
34.1779
32.0592
30.0014
28.1613
26.5896
25.3364
24.4505
23.9729
23.9279
24.318
25.1228
26.3034
27.6969
29.1972
30.7329
32.2685
33.8042
35.3399
36.8756
38.4113
39.9469
41.4826
43.0183
44.554
46.0897
47.6254
49.161
50.6967
52.2512
53.935
55.7549
57.6981
59.7524
59.3627
57.2486
55.1351
53.0222
50.9099
48.7983
46.6875
44.5777
42.4689
40.3614
38.2553
36.151
34.0486
31.9487
29.8919
28.0446
26.466
25.2066
24.3161
23.8357
23.7905
24.1828
24.992
26.0749
27.3015
28.6533
30.1135
31.6453
33.181
34.7167
36.2524
37.788
39.3237
40.8594
42.3951
43.9308
45.4665
47.0021
48.5378
50.0735
51.6492
53.3676
55.2213
57.1972
59.283
59.2862
57.1846
55.0845
52.9861
50.8894
48.7949
46.7026
44.6131
42.5267
40.4438
38.365
36.2911
34.2229
32.1609
30.1321
28.3005
26.737
25.491
24.6107
24.1362
24.0916
24.479
25.19
26.0779
27.1247
28.3127
29.625
31.0457
32.5578
34.0935
35.6291
37.1648
38.7005
40.2362
41.7719
43.3075
44.8432
46.3789
47.9146
49.4503
51.0555
52.809
54.6969
56.7058
58.8232
59.3843
57.3016
55.2218
53.1452
51.0722
49.0033
46.939
44.8782
42.8175
40.7568
38.6961
36.6354
34.5747
32.5154
30.5705
28.8373
27.3559
26.1693
25.3195
24.8586
24.8152
25.12
25.624
26.3123
27.1707
28.1838
29.3356
30.6104
31.9935
33.4715
35.0059
36.5416
38.0773
39.613
41.1486
42.6843
44.22
45.7557
47.2914
48.8292
50.4703
52.2595
54.1819
56.224
58.3732
59.6561
57.5954
55.5347
53.474
51.4133
49.3526
47.2919
45.2312
43.1705
41.1098
39.0491
36.9884
34.9277
32.9057
31.0605
29.4355
28.0689
27.0002
26.2655
25.8934
25.869
25.9803
26.2826
26.7719
27.4385
28.2696
29.2514
30.3691
31.6084
32.9555
34.3979
35.9184
37.4541
38.9897
40.5254
42.0611
43.5968
45.1325
46.6682
48.2161
49.8941
51.7193
53.6767
55.7523
57.9333
60.0091
57.9484
55.8877
53.827
51.7663
49.7056
47.6449
45.5842
43.5235
41.4628
39.4021
37.3414
35.2845
33.3452
31.5995
30.0813
28.8264
27.8705
27.2451
26.9731
26.9923
27.0362
27.1492
27.4456
27.9216
28.5681
29.374
30.3264
31.4121
32.6177
33.9306
35.3386
36.831
38.3665
39.9022
41.4379
42.9736
44.5092
46.0449
47.6116
49.3271
51.1889
53.1814
55.2907
57.5038
60.3622
58.3015
56.2408
54.1801
52.1194
50.0587
47.9979
45.9372
43.8765
41.8158
39.7551
37.6944
35.6795
33.8318
32.1851
30.7717
29.6249
28.7768
28.2541
28.075
28.1157
28.1596
28.2035
28.318
28.6092
29.0728
29.7008
30.4831
31.4081
32.4636
33.6374
34.9175
36.2926
37.7525
39.279
40.8147
42.3503
43.886
45.4217
47.0161
48.7697
50.6684
52.6964
54.8395
57.0848
60.7152
58.6545
56.5938
54.5331
52.4724
50.4117
48.351
46.2903
44.2296
42.1689
40.1082
38.0544
36.1198
34.3637
32.8149
31.5038
30.4613
29.7156
29.2894
29.1951
29.2391
29.283
29.3269
29.3708
29.4869
29.7732
30.2254
30.8363
31.5966
32.4959
33.523
34.6665
35.9154
37.2589
38.6873
40.1914
41.7271
43.2628
44.7987
46.4299
48.2221
50.1581
52.222
54.3991
56.6765
61.0682
59.0075
56.9468
54.8861
52.8254
50.7647
48.704
46.6433
44.5826
42.5219
40.4612
38.4534
36.6037
34.9388
33.4862
32.2748
31.3325
30.6841
30.3484
30.3185
30.3624
30.4063
30.4503
30.4942
30.5381
30.6558
30.9375
31.3792
31.9741
32.7139
33.5891
34.5894
35.7042
36.9233
38.2365
39.6346
41.1089
42.6396
44.182
45.8533
47.6847
49.6585
51.7584
53.9697
56.2793
61.4212
59.3605
57.2998
55.2391
53.1784
51.1177
49.057
46.9963
44.9356
42.8749
40.825
38.8944
37.1295
35.5549
34.1968
33.082
32.2357
31.6795
31.4287
31.4419
31.4858
31.5297
31.5736
31.6175
31.6615
31.7054
31.8247
32.1022
32.534
33.1141
33.8348
34.6873
35.6623
36.7499
37.9404
39.2246
40.5935
42.0388
43.5774
45.2873
47.1578
49.1698
51.3059
53.5515
55.8933
61.7743
59.7136
57.6529
55.5922
53.5315
51.4707
49.41
47.3493
45.2886
43.2279
41.2275
39.376
37.6955
36.2099
34.9441
33.9227
33.1683
32.6993
32.5281
32.5652
32.6092
32.6531
32.697
32.7409
32.7848
32.8287
32.8727
32.9936
33.2672
33.6899
34.2561
34.9588
35.79
36.741
37.8027
38.9661
40.2224
41.5815
43.1277
44.8548
46.7427
48.7727
50.9279
53.1931
55.5547
62.1273
60.0666
58.0059
55.9452
53.8845
51.8238
49.7631
47.7024
45.6417
43.5961
41.6691
39.8965
38.2998
36.9019
35.7259
34.7946
34.1278
33.7413
33.6447
33.6886
33.7325
33.7764
33.8204
33.8643
33.9082
33.9521
33.996
34.04
34.1625
34.4325
34.8466
35.3998
36.0856
36.8967
37.8251
38.8622
40.0126
41.3644
42.9184
44.6536
46.5496
48.5877
50.7508
53.0235
55.3923
62.4803
60.4196
58.3589
56.2982
54.2375
52.1768
50.1161
48.0554
45.9947
44.0017
42.1486
40.4547
38.9408
37.6287
36.54
35.6953
35.1121
34.8036
34.7681
34.812
34.8559
34.8998
34.9437
34.9876
35.0316
35.0755
35.1194
35.1633
35.2074
35.3314
35.598
36.0041
36.5451
37.2151
38.0072
38.9222
40.0496
41.4002
42.9529
44.6867
46.5814
48.6182
50.78
53.0514
55.4191
62.8406
60.7726
58.7119
56.6512
54.5905
52.5298
50.4691
48.4084
46.3677
44.4438
42.6646
41.0488
39.6166
38.3883
37.3842
36.6227
36.1191
35.8843
35.8914
35.9353
35.9793
36.0232
36.0671
36.111
36.1549
36.1988
36.2428
36.2867
36.3306
36.375
36.5003
36.7637
37.1624
37.6919
38.3512
39.2285
40.3473
41.6883
43.2307
44.9538
46.8377
48.8638
51.0151
53.2765
55.6346
63.2513
61.1338
59.065
57.0042
54.9435
52.8828
50.8221
48.7622
46.7759
44.9214
43.2159
41.6775
40.3254
39.179
38.2566
37.5749
37.147
36.9818
37.0148
37.0587
37.1026
37.1465
37.1905
37.2344
37.2783
37.3222
37.3661
37.41
37.454
37.4979
37.5426
37.6692
37.9297
38.3229
38.9324
39.7968
40.9001
42.2235
43.747
45.4505
47.3147
49.3212
51.4534
53.6964
56.0368
63.7184
61.5472
59.427
57.3573
55.2966
53.2359
51.1752
49.1396
47.2185
45.4334
43.8011
42.3391
41.0656
39.9987
39.1553
38.55
38.1941
38.0946
38.1382
38.1821
38.226
38.2699
38.3138
38.3577
38.4017
38.4456
38.4895
38.5334
38.5773
38.6212
38.6652
38.7104
38.8384
39.1731
39.7695
40.6161
41.6977
42.9966
44.4936
46.1696
48.0059
49.9846
52.0897
54.3064
56.6216
64.2409
62.0187
59.8434
57.7203
55.6496
53.5889
51.5305
49.5502
47.6945
45.9787
44.4189
43.0321
41.8355
40.8459
40.0785
39.5463
39.2588
39.2176
39.2615
39.3055
39.3494
39.3933
39.4372
39.4811
39.525
39.5689
39.6129
39.6568
39.7007
39.7446
39.7885
39.8418
39.9409
40.2665
40.8469
41.6717
42.7266
43.995
45.4592
47.1009
48.9021
50.846
52.9169
55.1003
57.3835
64.8173
62.547
60.3195
58.1399
56.0137
53.9419
51.9118
49.9932
48.203
46.556
45.068
43.7551
42.6335
41.7187
41.0245
40.5622
40.3399
40.341
40.3849
40.4288
40.4727
40.5166
40.5606
40.6045
40.6484
40.6923
40.7362
40.7808
40.8395
40.9173
41.0141
41.1299
41.2688
41.5839
42.1462
42.946
43.9703
45.2039
46.6302
48.232
49.9925
51.8956
53.9261
56.0703
58.3155
65.4462
63.1305
60.8538
58.6208
56.4367
54.3273
52.3331
50.468
48.7429
47.1642
45.747
44.5065
43.458
42.6157
41.9919
41.5964
41.4359
41.4643
41.5083
41.5522
41.5961
41.64
41.6839
41.7278
41.7747
41.8385
41.921
42.0221
42.1415
42.2793
42.4351
42.6088
42.8002
43.1048
43.6476
44.4203
45.4114
46.6069
47.9915
49.5493
51.2646
53.1221
55.1075
57.2073
59.4096
66.1262
63.7678
61.4449
59.1664
56.9738
54.8848
52.9116
51.0677
49.3675
47.8265
46.4604
45.285
44.3076
43.5353
42.9791
42.6475
42.5457
42.5877
42.6316
42.6755
42.7195
42.7701
42.8388
42.9258
43.0308
43.1538
43.2947
43.4532
43.6291
43.8223
44.0325
44.2595
44.503
44.8085
45.3309
46.0754
47.0317
48.1869
49.5274
51.0383
52.7052
54.5136
56.4501
58.5018
60.6571
66.8556
64.4573
62.1139
59.8541
57.6877
55.6255
53.6795
51.8629
50.1898
48.6747
47.3331
46.18
45.2298
44.4955
43.988
43.7142
43.6672
43.7113
43.7668
43.8402
43.9314
44.0403
44.1667
44.3105
44.4715
44.6496
44.8445
45.056
45.2839
45.5279
45.7878
46.0634
46.3542
46.675
47.1767
47.8926
48.8132
49.9273
51.2222
52.6846
54.3009
56.0579
57.9428
59.9434
62.0487
67.6398
65.2501
62.9363
60.7071
58.5722
56.5422
54.629
52.845
51.2039
49.7198
48.4072
47.2803
46.3526
45.6364
45.1417
44.8758
44.8428
44.938
45.0505
45.1802
45.3268
45.4902
45.6703
45.8669
46.0796
46.3084
46.5529
46.813
47.0883
47.3787
47.6837
48.0032
48.3369
48.6856
49.1668
49.8541
50.7391
51.8118
53.0607
54.4738
56.0386
57.7427
59.5743
61.5219
63.5749
68.5489
66.192
63.9123
61.7183
59.6197
57.6266
55.7506
54.0037
52.3989
50.9497
49.6695
48.5719
47.6694
46.9733
46.4928
46.2346
46.2026
46.3434
46.5092
46.6912
46.8893
47.1033
47.3329
47.5779
47.8381
48.1133
48.4031
48.7074
49.0258
49.3581
49.704
50.0633
50.4355
50.8206
51.2842
51.9435
52.7935
53.8253
55.0286
56.3923
57.9053
59.556
61.3335
63.2269
65.2263
69.5969
67.2767
65.035
62.8803
60.8217
58.8694
57.0343
55.3279
53.7627
52.3512
51.1062
50.0401
49.1645
48.4899
48.0245
47.7747
47.7437
47.9119
48.127
48.3574
48.6029
48.8633
49.1383
49.4276
49.7311
50.0485
50.3795
50.7239
51.0813
51.4515
51.8343
52.2293
52.6363
53.0549
53.514
54.1461
54.9621
55.9539
57.1123
58.4275
59.889
61.4865
63.2097
65.0486
66.9936
70.7777
68.4975
66.2971
64.1848
62.1694
60.2608
58.4693
56.8061
55.2827
53.911
52.7029
51.6697
50.8223
50.1699
49.7203
49.479
49.4491
49.6279
49.8884
50.1632
50.4522
50.755
51.0713
51.4011
51.7439
52.0996
52.4678
52.8484
53.241
53.6455
54.0614
54.4886
54.9268
55.3757
55.8426
56.4487
57.2318
58.1849
59.2998
60.5675
61.9786
63.5236
65.1929
66.9774
68.8679
72.0847
69.8472
67.6907
65.6233
63.6535
61.7907
60.0449
58.4265
56.9465
55.6159
54.4456
53.4461
52.6273
51.9976
51.5639
51.3313
51.3024
51.4776
51.7788
52.0942
52.4228
52.7641
53.1181
53.4845
53.863
54.2533
54.6553
55.0685
55.4929
55.9281
56.374
56.8301
57.2964
57.7725
58.2582
58.8394
59.5912
60.5071
61.5799
62.8016
64.1636
65.6572
67.2736
69.0043
70.8408
73.5113
71.3185
69.2079
67.1872
65.2646
63.4491
61.7502
60.1777
58.7419
57.4528
56.3207
55.3551
54.5649
53.9578
53.54
53.316
53.2882
53.457
53.7846
54.137
54.5015
54.878
55.2661
55.6656
56.0763
56.498
56.9303
57.3731
57.8261
58.2891
58.7619
59.2441
59.7356
60.2361
60.7455
61.308
62.0299
62.9103
63.9428
65.1202
66.4347
67.8783
69.4431
71.1209
72.9041
75.0505
72.9041
70.8408
68.8679
66.9936
65.2263
63.5749
62.0487
60.6571
59.4096
58.3155
57.3835
56.6216
56.0368
55.6346
55.4191
55.3923
55.5547
55.8933
56.2793
56.6765
57.0847
57.5038
57.9333
58.3732
58.8232
59.283
59.7524
60.2313
60.7193
61.2163
61.722
62.2362
62.7588
63.2895
63.8455
64.5389
65.3856
66.3797
67.5145
68.7833
70.1786
71.6932
73.3196
75.0505
81.7955
79.9258
78.0562
76.1865
74.3168
72.4472
70.5775
68.7419
67.009
65.3888
63.8897
62.5206
61.29
60.2065
59.2782
58.5124
57.9156
57.4931
57.2486
57.1846
57.3016
57.5954
57.9484
58.3015
58.6545
59.0075
59.3605
59.7136
60.0666
60.4196
60.7726
61.1338
61.5472
62.0187
62.547
63.1305
63.7678
64.4573
65.2501
66.192
67.2767
68.4975
69.8472
71.3185
72.9041
79.9258
78.0562
76.1865
74.3168
72.4472
70.5775
68.7078
66.8404
65.0454
63.3633
61.803
60.3742
59.0863
57.9488
56.9706
56.1601
55.5246
55.0701
54.8013
54.7208
54.8294
55.1224
55.4754
55.8284
56.1815
56.5345
56.8875
57.2405
57.5936
57.9466
58.3068
58.7206
59.1953
59.7292
60.321
60.9688
61.671
62.4256
63.2515
64.2227
65.3401
66.5964
67.9839
69.4947
71.1209
78.0562
76.1865
74.3168
72.4472
70.5775
68.7078
66.8382
64.9685
63.1177
61.3706
59.7458
58.2538
56.9048
55.7094
54.6775
53.8186
53.141
52.6519
52.3564
52.2578
52.3573
52.6494
53.0024
53.3554
53.7085
54.0615
54.4145
54.7675
55.1205
55.4799
55.8941
56.3722
56.9125
57.5132
58.1726
58.8886
59.6592
60.4823
61.3588
62.3595
63.5097
64.8015
66.2266
67.7766
69.4431
76.1865
74.3168
72.4472
70.5775
68.7078
66.8382
64.9685
63.0989
61.2292
59.414
57.7213
56.1622
54.7481
53.4906
52.4008
51.4894
50.7661
50.239
49.9143
49.7959
49.8853
50.1764
50.5294
50.8824
51.2354
51.5885
51.9415
52.2945
52.653
53.0677
53.5495
54.0968
54.7075
55.3795
56.1107
56.8988
57.7413
58.6361
59.5807
60.6121
61.7949
63.1218
64.584
66.1724
67.8783
74.3168
72.4472
70.5775
68.7078
66.8382
64.9685
63.0989
61.2292
59.3595
57.4973
55.733
54.1029
52.6193
51.2951
50.1427
49.1744
48.4011
47.8323
47.4754
47.3351
47.4135
47.7034
48.0564
48.4094
48.7624
49.1154
49.4685
49.8261
50.2413
50.7273
51.2823
51.904
52.5901
53.338
54.1452
55.0091
55.927
56.8964
57.9147
58.9909
60.2056
61.5667
63.065
64.6907
66.4347
72.4472
70.5775
68.7078
66.8382
64.9685
63.0989
61.2292
59.3595
57.4899
55.6202
53.785
52.0796
50.5219
49.126
47.9059
46.8755
46.0474
45.4327
45.0403
44.8758
44.9418
45.2303
45.5834
45.9364
46.2894
46.6424
46.9993
47.415
47.9058
48.4694
49.1033
49.8049
50.5713
51.3996
52.2869
53.2303
54.2267
55.2734
56.3675
57.5066
58.7519
60.146
61.6787
63.3401
65.1202
70.5775
68.7078
66.8382
64.9685
63.0989
61.2292
59.3595
57.4899
55.6202
53.7505
51.8818
50.0967
48.46
46.9869
45.6935
44.5952
43.7069
43.0416
42.6095
42.418
42.4703
42.7573
43.1103
43.4634
43.8164
44.1725
44.5888
45.0849
45.6582
46.3058
47.0247
47.8117
48.6634
49.5765
50.5477
51.5738
52.6514
53.7775
54.9491
56.1634
57.4442
58.8692
60.4344
62.129
63.9428
68.7252
66.8404
64.9685
63.0989
61.2292
59.3595
57.4899
55.6202
53.7505
51.8809
50.0112
48.1593
46.4382
44.8823
43.5092
42.3367
41.3819
40.6602
40.184
39.9622
39.999
40.2843
40.6373
40.9903
41.3458
41.7627
42.2648
42.8491
43.5121
44.2505
45.0604
45.9382
46.8799
47.8819
48.9403
50.0517
51.2126
52.4197
53.6698
54.9601
56.2926
57.746
59.3408
61.0658
62.9103
66.9677
65.0454
63.1359
61.2402
59.3597
57.4899
55.6202
53.7505
51.8809
50.0112
48.1415
46.2719
44.4621
42.8171
41.3574
40.1035
39.0751
38.2905
37.7647
37.5087
37.528
37.8113
38.1643
38.5191
38.9368
39.4458
40.0425
40.7231
41.4834
42.3192
43.226
44.1996
45.2355
46.3297
47.478
48.6767
49.9221
51.2109
52.5397
53.9057
55.3061
56.7856
58.4066
60.1584
62.0299
65.3217
63.3633
61.4156
59.4798
57.5571
55.6487
53.7562
51.8809
50.0112
48.1415
46.2719
44.4022
42.5381
40.7973
39.2436
37.9002
36.79
35.9347
35.3529
35.058
35.0574
35.3383
35.6924
36.1111
36.628
37.239
37.9397
38.725
39.59
40.5296
41.5388
42.6125
43.746
44.9349
46.1747
47.4616
48.7918
50.1619
51.5686
53.0092
54.4808
55.9962
57.6394
59.4138
61.308
63.7956
61.803
59.8192
57.8451
55.8817
53.9303
51.9921
50.0687
48.1618
46.2736
44.4022
42.5325
40.6629
38.83
37.1742
35.7322
34.5308
33.5959
32.9501
32.6107
32.5872
32.8659
33.2856
33.8118
34.4394
35.1632
35.9773
36.8756
37.8523
38.9014
40.0172
41.1943
42.4276
43.7124
45.0442
46.4189
47.833
49.2829
50.7657
52.2785
53.8128
55.3626
57.0309
58.829
60.7455
62.3984
60.3742
58.3568
56.347
54.3456
52.3536
50.3721
48.4024
46.4459
44.5046
42.5803
40.6755
38.7932
36.9236
35.157
33.6064
32.303
31.2795
30.5664
30.1857
30.15
30.4605
30.9975
31.6448
32.3955
33.2428
34.1795
35.1984
36.2926
37.4555
38.681
39.9631
41.2968
42.6771
44.0996
45.5605
47.0561
48.5826
50.1182
51.6539
53.1896
54.7576
56.4585
58.2886
60.2361
61.1389
59.0863
57.0387
54.9966
52.9607
50.9317
48.9105
46.898
44.8955
42.9044
40.9263
38.9631
37.0174
35.0919
33.2289
31.5774
30.1842
29.0862
28.3179
27.9066
27.8679
28.2035
28.8564
29.6391
30.5253
31.5064
32.5737
33.7191
34.9348
36.2139
37.5498
38.9366
40.3692
41.8428
43.3533
44.888
46.4236
47.9593
49.495
51.0307
52.5664
54.1603
55.8943
57.7567
59.7356
60.0257
57.9488
55.8751
53.8051
51.7392
49.6779
47.6218
45.5717
43.5283
41.4926
39.4659
37.4496
35.4455
33.4557
31.5077
29.7608
28.2782
27.1031
26.2769
25.8331
25.7913
26.1536
26.8973
27.8297
28.8626
29.9858
31.1895
32.4646
33.8032
35.1981
36.6426
38.1313
39.6577
41.1934
42.7291
44.2648
45.8004
47.3361
48.8718
50.4075
51.944
53.571
55.3386
57.2337
59.2441
59.0671
56.9706
54.8759
52.7833
50.693
48.6053
46.5206
44.4393
42.3619
40.289
38.2214
36.1599
34.1056
32.06
30.038
28.2003
26.6309
25.3797
24.4954
24.0186
23.9737
24.3631
25.1665
26.2571
27.4451
28.7154
30.0574
31.462
32.9212
34.4281
35.9631
37.4988
39.0345
40.5702
42.1058
43.6415
45.1772
46.7129
48.2486
49.7843
51.3284
52.9901
54.7916
56.7197
58.7619
58.2708
56.1601
54.0501
51.9411
49.833
47.726
45.6203
43.516
41.4134
39.3128
37.2144
35.1187
33.0261
30.9374
28.8583
26.9402
25.2928
23.9718
23.0336
22.5259
22.478
22.8928
23.746
24.9661
26.3126
27.7296
29.2069
30.7329
32.2685
33.8042
35.3399
36.8756
38.4113
39.9469
41.4826
43.0183
44.554
46.0897
47.6254
49.161
50.7209
52.4177
54.2536
56.215
58.2891
57.6434
55.5246
53.4059
51.2874
49.169
47.0509
44.933
42.8154
40.6981
38.5811
36.4646
34.3486
32.2332
30.1185
28.0052
26.0244
24.315
22.9378
21.9554
21.4222
21.3718
21.8077
22.7017
24.0024
25.5029
27.0383
28.5739
30.1096
31.6453
33.181
34.7167
36.2524
37.788
39.3237
40.8594
42.3951
43.9308
45.4664
47.0021
48.5378
50.1216
51.8541
53.7248
55.7198
57.8261
57.1905
55.0701
52.9498
50.8294
48.7091
46.5888
44.4686
42.3484
40.2282
38.1081
35.988
33.8681
31.7482
29.6284
27.5087
25.49
23.7421
22.3296
21.3192
20.7697
20.7177
21.167
22.087
23.3989
24.8794
26.4151
27.9507
29.4864
31.0221
32.5578
34.0935
35.6291
37.1648
38.7005
40.2362
41.7719
43.3075
44.8432
46.3789
47.9146
49.531
51.2997
53.2056
55.2344
57.3731
56.9163
54.8013
52.6867
50.5726
48.4591
46.3462
44.2341
42.1229
40.0126
37.9035
35.7957
33.6896
31.5853
29.4835
27.3845
25.361
23.6036
22.1823
21.1648
20.6112
20.5588
21.0115
21.9225
23.0678
24.3685
25.801
27.3275
28.8632
30.3989
31.9346
33.4702
35.0059
36.5416
38.0773
39.613
41.1486
42.6843
44.22
45.7557
47.2954
48.9493
50.7548
52.6962
54.7591
56.9303
56.8234
54.7208
52.6196
50.52
48.4222
46.3265
44.2332
42.1426
40.0552
37.9715
35.8921
33.8178
31.7497
29.6879
27.6272
25.6419
23.907
22.5049
21.5027
20.958
20.9065
21.3433
22.0707
22.9971
24.0995
25.3549
26.7418
28.24
29.7757
31.3113
32.847
34.3827
35.9184
37.4541
38.9897
40.5254
42.0611
43.5968
45.1325
46.6849
48.3769
50.2196
52.1969
54.2941
56.498
56.9127
54.8294
52.7491
50.6721
48.5989
46.53
44.4659
42.4052
40.3445
38.2837
36.223
34.1623
32.1016
30.0409
27.9942
26.1231
24.5128
23.2178
22.293
21.7857
21.733
21.999
22.4891
23.189
24.0804
25.1431
26.3563
27.7001
29.1567
30.6881
32.2238
33.7595
35.2952
36.8308
38.3665
39.9022
41.4379
42.9736
44.5092
46.0833
47.8141
49.6944
51.7079
53.8397
56.0763
57.1831
55.1224
53.0617
51.001
48.9403
46.8796
44.8189
42.7582
40.6975
38.6368
36.5761
34.5154
32.4547
30.394
28.4166
26.6628
25.1799
24.0183
23.2261
22.8419
22.832
22.902
23.163
23.6372
24.312
25.1715
26.1973
27.3709
28.674
30.0899
31.6006
33.1363
34.6719
36.2076
37.7433
39.279
40.8147
42.3503
43.886
45.4911
47.2612
49.1796
51.2297
53.3962
55.6656
57.5361
55.4754
53.4147
51.354
49.2933
47.2326
45.1719
43.1112
41.0505
38.9898
36.9291
34.8684
32.8077
30.7665
28.8949
27.2575
25.899
24.865
24.1972
23.9262
23.9554
23.9993
24.071
24.3275
24.7872
25.4392
26.2692
27.2609
28.3974
29.6621
31.0392
32.5145
34.0487
35.5844
37.1201
38.6558
40.1914
41.7271
43.2639
44.9086
46.7186
48.6756
50.7624
52.9638
55.2661
57.8892
55.8284
53.7677
51.707
49.6463
47.5856
45.5249
43.4642
41.4035
39.3428
37.2821
35.2214
33.1607
31.1914
29.4262
27.9038
26.6658
25.7534
25.2019
25.0351
25.0787
25.1227
25.1666
25.24
25.4923
25.9389
26.57
27.3729
28.3328
29.4346
30.6628
32.003
33.4416
34.9612
36.4969
38.0325
39.5682
41.1039
42.6498
44.3362
46.1867
48.1826
50.3065
52.5428
54.878
58.2422
56.1815
54.1208
52.0601
49.9994
47.9387
45.878
43.8172
41.7565
39.6958
37.6351
35.5744
33.5392
31.6672
30.0078
28.598
27.4764
26.6793
26.2363
26.1582
26.2021
26.246
26.2899
26.3339
26.409
26.6576
27.0922
27.704
28.4817
29.4121
30.4813
31.6751
32.98
34.3835
35.8738
37.4093
38.945
40.4807
42.0455
43.7742
45.6658
47.701
49.8621
52.1335
54.5015
58.5952
56.5345
54.4738
52.4131
50.3524
48.2917
46.231
44.1703
42.1096
40.0489
37.9882
35.9282
33.9662
32.1915
30.6368
29.3369
28.3271
27.639
27.2971
27.2816
27.3255
27.3694
27.4133
27.4572
27.5011
27.578
27.8231
28.2467
28.8408
29.5952
30.4981
31.5366
32.6978
33.9692
35.3389
36.7959
38.3218
39.8575
41.4514
43.2232
45.1563
47.2311
49.4297
51.7362
54.137
58.9482
56.8875
54.8268
52.7661
50.7054
48.6447
46.584
44.5233
42.4626
40.4019
38.3412
36.3122
34.4399
32.7621
31.3103
30.1171
29.2142
28.6291
28.3814
28.4049
28.4488
28.4928
28.5367
28.5806
28.6245
28.6684
28.747
28.9889
29.4023
29.9801
30.7128
31.5899
32.5996
33.7301
34.9695
36.3068
37.7316
39.2342
40.8679
42.6834
44.6586
46.7733
49.0094
51.3511
53.7846
59.3012
57.2405
55.1798
53.1191
51.0584
48.9977
46.937
44.8763
42.8156
40.7549
38.6967
36.741
34.9584
33.3767
32.0256
30.9355
30.1346
29.6464
29.4864
29.5283
29.5722
29.6161
29.66
29.704
29.7479
29.7918
29.8357
29.916
30.155
30.559
31.1215
31.8342
32.6871
33.6697
34.771
35.98
37.2863
38.7343
40.3897
42.2289
44.229
46.3692
48.6311
50.9983
53.457
59.6543
57.5936
55.5329
53.4722
51.4115
49.3507
47.29
45.2293
43.1686
41.1079
39.0855
37.2129
35.5197
34.0327
32.7799
31.7892
31.0854
30.6884
30.6077
30.6517
30.6956
30.7395
30.7834
30.8273
30.8712
30.9152
30.9591
31.003
31.085
31.3213
31.7166
32.265
32.9588
33.7891
34.7462
35.8198
37.045
38.5011
40.1661
42.0151
44.0249
46.1746
48.4455
50.8214
53.2882
60.0137
57.9466
55.8859
53.8252
51.7645
49.7038
47.6431
45.5824
43.5217
41.466
39.5157
37.7264
36.1219
34.7279
33.5706
32.6753
32.0638
31.7525
31.7311
31.775
31.8189
31.8629
31.9068
31.9507
31.9946
32.0385
32.0824
32.1264
32.1703
32.254
32.4878
32.875
33.4102
34.0864
34.8955
35.8645
37.085
38.5396
40.203
42.0503
44.0585
46.2067
48.4761
50.8505
53.316
60.4246
58.3068
56.2389
54.1782
52.1175
50.0568
47.9961
45.9354
43.8747
41.8589
39.9862
38.2798
36.7629
35.46
34.3952
33.5913
33.0674
32.8367
32.8545
32.8984
32.9423
32.9862
33.0301
33.0741
33.118
33.1619
33.2058
33.2497
33.2936
33.3376
33.423
33.6545
34.0341
34.557
35.2441
36.1967
37.4063
38.8489
40.4996
42.334
44.3294
46.465
48.7223
51.0854
53.54
60.8946
58.7206
56.6
54.5312
52.4705
50.4098
48.3491
46.2884
44.2361
42.2905
40.4953
38.8713
37.4408
36.2266
35.2513
34.5349
34.0939
33.9389
33.9778
34.0218
34.0657
34.1096
34.1535
34.1974
34.2413
34.2853
34.3292
34.3731
34.417
34.4609
34.5048
34.592
34.8213
35.2132
35.8755
36.8118
38.0019
39.4227
41.0503
42.8611
44.8331
46.9457
49.1811
51.5231
53.9578
61.4224
59.1953
57.017
54.8933
52.8235
50.7628
48.7021
46.6414
44.6326
42.7596
41.0418
39.4993
38.1535
37.0258
36.1366
35.5038
35.1414
35.0573
35.1012
35.1451
35.189
35.233
35.2769
35.3208
35.3647
35.4086
35.4525
35.4965
35.5404
35.5843
35.6282
35.6721
35.7735
36.1366
36.7823
37.6961
38.859
40.2496
41.8451
43.6229
45.5619
47.6423
49.8464
52.1585
54.5649
62.0065
59.7292
57.4965
55.3136
53.1866
51.1159
49.0552
47.0067
45.0653
43.265
41.6241
40.1621
38.8992
37.8554
37.0491
36.4961
36.208
36.1807
36.2246
36.2685
36.3124
36.3563
36.4002
36.4442
36.4881
36.532
36.5759
36.6198
36.6637
36.7081
36.7671
36.8474
36.9676
37.3191
37.9446
38.8311
39.961
41.3145
42.8704
44.6074
46.5053
48.5453
50.7102
52.9846
55.3551
62.6453
60.321
58.037
55.7983
53.6105
51.4801
49.4082
47.4063
45.5332
43.8054
42.2407
40.8579
39.676
38.7134
37.9867
37.5098
37.2921
37.304
37.3479
37.3919
37.4358
37.4797
37.5236
37.5675
37.6114
37.6554
37.7019
37.7666
37.852
37.9579
38.0841
38.2306
38.3984
38.7369
39.3399
40.1956
41.2882
42.5995
44.1101
45.8001
47.6506
49.6435
51.7625
53.9926
56.3207
63.3372
60.9688
58.6369
56.3457
54.1007
51.9098
49.819
47.8561
46.0375
44.3796
42.8903
41.5852
40.4821
39.598
38.9478
38.5433
38.3922
38.4274
38.4713
38.5152
38.5591
38.6031
38.647
38.6973
38.7674
38.8576
38.9678
39.0978
39.2475
39.4165
39.6046
39.8117
40.0373
40.3652
40.9443
41.7671
42.8196
44.0854
45.5467
47.1853
48.9835
50.9243
52.9921
55.1725
57.4528
64.0804
61.671
59.2942
56.9541
54.6735
52.493
50.4263
48.488
46.694
45.0616
43.609
42.3546
41.3165
40.5076
39.9306
39.595
39.507
39.5508
39.5947
39.6387
39.6942
39.7694
39.8643
39.9785
40.1121
40.2648
40.4363
40.6265
40.835
41.0617
41.3061
41.5681
41.8472
42.1797
42.7342
43.5232
44.5343
45.7527
47.1623
48.7467
50.4892
52.3743
54.3869
56.5136
58.7419
64.8733
62.4256
60.011
57.6688
55.417
53.267
51.2315
49.3249
47.5625
45.961
44.5377
43.3102
42.2955
41.5094
40.9648
40.6716
40.6316
40.6925
40.7726
40.8718
40.99
41.1269
41.2825
41.4564
41.6485
41.8585
42.0861
42.3311
42.5932
42.872
43.1672
43.4785
43.8056
44.1575
44.6874
45.4425
46.4118
47.5821
48.9391
50.4677
52.1528
53.9798
55.9347
58.0046
60.1777
65.7139
63.2515
60.8617
58.5536
56.3372
54.2236
52.2255
50.3565
48.6315
47.0663
45.6775
44.4815
43.4942
42.7301
42.2013
41.9167
41.8814
42.0021
42.1422
42.3005
42.4767