<VTKFile type="ImageData" version="1.0" byte_order="LittleEndian" header_type="UInt64">
	<ImageData WholeExtent="0 44 0 44 0 44" Origin="-68.3013 -68.3013 -68.3013" Spacing="3.1046 3.1046 3.1046">
		<Piece Extent="0 44 0 44 0 44">
			<PointData Scalars="Scalars_">
				<DataArray type="Float32" Name="Scalars_" format="ascii" RangeMin="0" RangeMax="100">
68.3013
66.5571
64.9147
63.3818
61.9667
60.6776
59.5226
58.5097
57.6451
56.8591
56.11
55.3995
54.7291
54.1002
53.5142
52.9726
52.4655
51.9605
51.4555
50.9505
50.5105
50.2273
50.1041
50.1422
50.3411
50.6989
51.2124
51.877
52.6868
53.6353
54.7153
55.9192
57.2093
58.5036
59.7979
61.0922
62.3865
63.6808
64.9752
66.2695
67.5638
68.8581
70.1529
71.4708
72.8232
66.5571
64.766
63.0769
61.4983
60.0388
58.7073
57.5128
56.4639
55.561
54.7189
53.9136
53.1469
52.4204
51.7357
51.0947
50.4989
49.9499
49.4408
48.9358
48.4309
48.0135
47.762
47.679
47.7655
48.0205
48.4414
49.0239
49.7623
50.6498
51.6787
52.8408
54.1161
55.4104
56.7047
57.999
59.2933
60.5876
61.8819
63.1762
64.4705
65.7648
67.0592
68.3535
69.6487
70.9689
64.9147
63.0769
61.3414
59.7169
58.2127
56.8385
55.6038
54.5182
53.5703
52.6692
51.8045
50.978
50.1916
49.4473
48.7468
48.0922
47.4854
46.9281
46.4161
45.9132
45.5215
45.3052
45.2668
45.4068
45.7236
46.2135
46.8711
47.6894
48.6605
49.7752
51.0228
52.3171
53.6114
54.9057
56.2001
57.4944
58.7887
60.083
61.3773
62.6716
63.9659
65.1812
66.376
67.6401
68.9762
63.3818
61.4983
59.7169
58.0469
56.4983
55.0814
53.8064
52.6837
51.6838
50.7211
49.7939
48.9042
48.0541
47.2458
46.4814
45.7632
45.0933
44.474
43.9073
43.3984
43.0354
42.8583
42.8696
43.069
43.454
44.0196
44.7592
45.6641
46.7248
47.9309
49.2239
50.5182
51.8125
53.1068
54.4011
55.6954
56.9897
58.2841
59.5007
60.6825
61.8642
63.0541
64.3116
65.645
67.0498
61.9667
60.0388
58.2127
56.4983
54.9061
53.4469
52.132
50.9725
49.9134
48.8866
47.894
46.9379
46.0204
45.1441
44.3112
43.5244
42.7861
42.0988
41.4653
40.9072
40.5563
40.4233
40.4901
40.7557
41.2162
41.8652
42.6942
43.6927
44.8497
46.1306
47.4249
48.7193
50.0136
51.3079
52.6022
53.8203
55.002
56.1838
57.3655
58.5473
59.7331
60.9833
62.3138
63.7196
65.1957
60.6776
58.7073
56.8385
55.0814
53.4469
51.9468
50.5929
49.395
48.2718
47.1789
46.1186
45.0932
44.105
43.1566
42.2508
41.3903
40.578
39.8168
39.1097
38.502
38.1289
38.0067
38.1317
38.4713
39.0158
39.7567
40.6833
41.7832
43.0374
44.3317
45.626
46.9203
48.1399
49.3216
50.5033
51.6851
52.8668
54.0486
55.2303
56.4134
57.6555
58.9827
60.3894
61.8702
63.42
59.5226
57.5128
55.6038
53.8064
52.132
50.5929
49.2017
47.9607
46.7725
45.6124
44.4827
43.3856
42.3238
41.3
40.3171
39.378
38.4862
37.6447
36.8573
36.2033
35.8064
35.6762
35.8156
36.2213
36.8594
37.7017
38.7349
39.9442
41.2385
42.4594
43.6412
44.8229
46.0047
47.1864
48.3681
49.5499
50.7316
51.9134
53.0952
54.328
55.6515
57.0593
58.5455
60.1041
61.7297
58.5097
56.4639
54.5182
52.6837
50.9725
49.3973
47.9715
46.6828
45.4297
44.2021
43.0021
41.832
40.6946
39.5926
38.5291
37.5072
36.5306
35.6029
34.729
34.0329
33.6103
33.4715
33.6201
34.0523
34.7575
35.7095
36.8401
37.9833
39.1456
40.3242
41.506
42.6877
43.8694
45.0512
46.2329
47.4147
48.5964
49.7782
51.001
52.3204
53.7295
55.2215
56.79
58.4287
60.1319
57.6451
55.5689
53.5907
51.7233
49.9792
48.3716
46.9147
45.5744
44.2576
42.9632
41.6933
40.4502
39.2363
38.0545
36.908
35.8
34.7343
33.7149
32.7557
32.0168
31.5672
31.4194
31.5776
32.0374
32.7859
33.7869
34.8585
35.9552
37.075
38.2157
39.3756
40.5525
41.7342
42.916
44.0977
45.2795
46.4612
47.6747
48.9892
50.3998
51.8985
53.478
55.1313
56.852
58.6341
56.8591
54.8153
52.8296
50.9343
49.1622
47.527
46.0434
44.6481
43.2701
41.9112
40.5731
39.2581
37.9685
36.7071
35.4767
34.2809
33.1232
32.0079
30.9685
30.1858
29.7086
29.5515
29.7197
30.2077
31.0005
31.9772
32.9883
34.0297
35.0987
36.193
37.3103
38.4485
39.6059
40.7808
41.9625
43.1443
44.3491
45.6581
47.0703
48.5766
50.1686
51.8383
53.5784
55.3824
57.2443
56.11
54.1135
52.1792
50.3146
48.5304
46.8732
45.3648
43.9155
42.4801
41.0602
39.6574
38.2736
36.9109
35.5718
34.2591
32.9758
31.7255
30.5124
29.4013
28.5757
28.0711
27.9048
28.0829
28.5988
29.4112
30.3104
31.2494
32.225
33.2337
34.2727
35.3393
36.431
37.5458
38.6816
39.8365
41.0244
42.3271
43.7411
45.2561
46.8622
48.5504
50.3125
52.1409
54.0288
55.9704
55.3996
53.4528
51.573
49.7677
48.0453
46.415
44.8846
43.3863
41.8987
40.423
38.9606
37.513
36.082
34.6697
33.2785
31.911
30.5706
29.2608
28.0909
27.2257
26.6955
26.5206
26.7079
27.2499
28.0046
28.8112
29.6651
30.5625
31.4995
32.4729
33.4793
34.5159
35.58
36.6693
37.7816
39.0027
40.4123
41.9373
43.5597
45.269
47.0557
48.9113
50.8283
52.8001
54.8206
54.7291
52.8349
51.0124
49.2695
47.6148
46.0577
44.545
43.0323
41.5196
40.0069
38.4946
36.9901
35.4978
34.0193
32.5564
31.1113
29.6866
28.2875
27.0748
26.1759
25.6241
25.4418
25.637
26.1695
26.8083
27.5071
28.2613
29.0667
29.9192
30.8147
31.7498
32.7209
33.725
34.7593
35.8442
37.1288
38.6208
40.2619
41.9954
43.8101
45.6964
47.6458
49.6508
51.705
53.8028
54.1002
52.2614
50.499
48.8214
47.2375
45.7227
44.21
42.6973
41.1846
39.6719
38.1593
36.6466
35.1339
33.6212
32.1085
30.5974
29.0559
27.6008
26.3862
25.4637
24.8961
24.7084
24.9093
25.3443
25.8516
26.427
27.0661
27.7646
28.5181
29.3223
30.1732
31.067
32.0001
32.9691
34.0797
35.4283
36.9889
38.7316
40.5784
42.4994
44.485
46.5269
48.6181
50.7524
52.9246
53.5142
51.7335
50.0342
48.4248
46.9004
45.3877
43.875
42.3623
40.8496
39.3369
37.8242
36.3116
34.7989
33.2155
31.5829
29.9502
28.3658
26.9914
25.8714
25.0399
24.5263
24.3517
24.5159
24.7995
25.1618
25.5992
26.1082
26.6845
27.3239
28.0221
28.7749
29.5779
30.4274
31.3505
32.5164
33.9272
35.5538
37.368
39.3247
41.351
43.4339
45.5655
47.7395
49.9502
52.1931
52.9726
51.2528
49.6194
48.0781
46.5654
45.0527
43.54
42.0273
40.5146
39.0019
37.3869
35.7542
34.1215
32.4889
30.8562
29.2236
27.7024
26.414
25.394
24.6756
24.2855
24.2398
24.3959
24.5538
24.7611
25.0489
25.4143
25.8542
26.3647
26.942
27.5817
28.2796
29.0317
29.9671
31.1847
32.6531
34.3401
36.2151
38.2504
40.3787
42.5549
44.7718
47.0238
49.306
51.6144
52.4769
50.8207
49.2558
47.7431
46.2304
44.7177
43.1909
41.5582
39.9256
38.2929
36.6602
35.0275
33.3948
31.7622
30.1295
28.5114
27.0678
25.8709
24.9563
24.3558
24.093
24.1635
24.3209
24.4783
24.6357
24.7944
25.0066
25.2983
25.667
26.1092
26.6213
27.1995
27.8799
28.8526
30.1153
31.6334
33.372
35.2985
37.3838
39.5956
41.8588
44.1547
46.4784
48.8259
51.1939
52.0282
50.4382
48.9207
47.3623
45.7296
44.0969
42.4642
40.8316
39.1989
37.5662
35.9335
34.3008
32.6682
31.0355
29.4028
27.8247
26.4639
25.3641
24.5604
24.0824
23.9497
24.0885
24.2459
24.4033
24.5607
24.7181
24.8755
25.0352
25.2523
25.548
25.9197
26.3648
27.0372
28.0392
29.337
30.8933
32.6713
34.6368
36.7597
39.0144
41.3551
43.7218
46.1094
48.5148
50.9354
51.5449
49.9009
48.2683
46.6356
45.0029
43.3702
41.7375
40.1049
38.4722
36.8395
35.2068
33.5741
31.9415
30.3088
28.6766
27.1654
25.893
24.8959
24.2083
23.8569
23.8561
24.0135
24.1709
24.3283
24.4857
24.6431
24.8005
24.9579
25.1153
25.2765
25.4982
25.8477
26.5332
27.5535
28.8732
30.4532
32.2554
34.2448
36.3906
38.6668
41.0506
43.4786
45.9211
48.376
50.8413
50.951
49.2325
47.5512
45.9089
44.2762
42.6435
41.0109
39.3782
37.7455
36.1128
34.4801
32.8475
31.2148
29.5821
27.9673
26.5356
25.3572
24.4685
23.902
23.6807
23.7811
23.9385
24.0959
24.2533
24.4107
24.5681
24.7255
24.8829
25.0403
25.1977
25.3657
25.6979
26.3873
27.4131
28.7391
30.3262
32.1355
34.1319
36.2844
38.5668
40.9576
43.4282
45.9157
48.4084
50.9013
50.5105
48.7197
46.9614
45.2392
43.5575
41.9168
40.2842
38.6515
37.0188
35.3861
33.7534
32.1208
30.4881
28.8554
27.2841
25.9375
24.8588
24.0841
23.6432
23.5549
23.7061
23.8635
24.0209
24.1783
24.3357
24.4931
24.6505
24.8079
24.9706
25.2014
25.5135
25.8967
26.5933
27.6191
28.9392
30.5161
32.3148
34.3007
36.4432
38.7164
41.0975
43.5367
46.0089
48.5011
50.994
50.2273
48.369
46.5381
44.738
42.9725
41.2461
39.5639
37.9248
36.2921
34.6594
33.0268
31.3941
29.7614
28.1299
26.6291
25.3733
24.4002
23.7448
23.4336
23.4737
23.6311
23.7885
23.9459
24.1033
24.2607
24.4181
24.5772
24.7961
25.1001
25.4343
25.7685
26.172
26.9001
27.9519
29.2925
30.8844
32.6907
34.6781
36.8172
39.0832
41.4214
43.7829
46.1853
48.6225
51.0896
50.1041
48.1838
46.286
44.4136
42.5698
40.7587
38.9847
37.2532
35.5703
33.9327
32.3001
30.6674
29.0347
27.4235
26.0044
24.8452
23.9836
23.4525
23.2744
23.3987
23.5561
23.7135
23.8709
24.0283
24.1858
24.3924
24.6866
25.0208
25.355
25.6892
26.0234
26.4505
27.2095
28.2866
29.6472
31.2542
33.0719
35.0673
37.212
39.4817
41.8204
44.1601
46.5007
48.8687
51.273
50.1422
48.1661
46.2079
44.2698
42.3547
40.4657
38.6069
36.7826
34.9983
33.2605
31.5768
29.9407
28.308
26.7441
25.4123
24.3557
23.6113
23.209
23.1667
23.3237
23.4811
23.6385
23.7959
23.9902
24.2734
24.6073
24.9415
25.2757
25.61
25.9442
26.2784
26.7322
27.5212
28.623
30.003
31.6249
33.4535
35.4568
37.607
39.8803
42.2193
44.5591
46.8988
49.2385
51.5815
50.3411
48.316
46.3045
44.3084
42.3298
40.3714
38.4362
36.5279
34.651
32.8108
31.0138
29.2682
27.5863
26.0936
24.8551
23.9071
23.2852
23.0158
23.0913
23.2487
23.4061
23.5896
23.8614
24.1938
24.528
24.8623
25.1965
25.5307
25.8649
26.1991
26.5333
27.0169
27.8353
28.961
30.36
31.9963
33.8356
35.8466
38.0021
40.2789
42.6183
44.958
47.2977
49.6375
51.9772
50.6989
48.632
46.5749
44.5289
42.4957
40.4771
38.4755
36.4937
34.535
32.6037
30.7049
28.8451
27.0821
25.5694
24.3604
23.5018
23.0075
22.8743
23.0163
23.1908
23.4507
23.7803
24.1146
24.4488
24.783
25.1172
25.4514
25.7856
26.1199
26.4541
26.7884
27.3046
28.1516
29.3007
30.7181
32.3685
34.2182
36.2367
38.3974
40.6777
43.0172
45.3569
47.6967
50.0364
52.3761
51.2125
49.1109
47.0161
44.9287
42.85
40.7813
38.7242
36.6806
34.6529
32.644
30.6578
28.7067
26.9287
25.4068
24.1897
23.3248
22.8524
22.7968
23.0414
23.3669
23.7011
24.0353
24.3695
24.7037
25.0379
25.3722
25.7064
26.0406
26.3748
26.709
27.0461
27.5952
28.4701
29.642
31.0773
32.7414
34.6012
36.627
38.7928
41.0765
43.4161
45.7559
48.0956
50.4353
52.7751
51.877
49.748
47.6232
45.503
43.3883
41.2796
39.1782
37.0852
35.0021
32.9308
30.8736
28.8975
27.132
25.6222
24.4157
23.5592
23.0916
23.0366
23.3091
23.6238
23.956
24.2902
24.6245
24.9587
25.2929
25.6271
25.9613
26.2955
26.6298
26.964
27.3073
27.8886
28.7907
29.9848
31.4376
33.1149
34.9847
37.0176
39.1884
41.4753
43.8151
46.1548
48.4945
50.8343
53.174
52.6868
50.5373
48.3901
46.2454
44.1036
41.9651
39.8306
37.7005
35.5759
33.4576
31.3613
29.4165
27.6841
26.2062
25.0279
24.193
23.7379
23.6844
23.8838
24.1081
24.3545
24.6224
24.9112
25.22
25.5478
25.8821
26.2163
26.5505
26.8847
27.2189
27.5718
28.1846
29.1134
30.3291
31.7988
33.4892
35.3686
37.4085
39.5841
41.8743
44.214
46.5537
48.8935
51.2332
53.573
53.6353
51.4718
49.3093
47.1478
44.9876
42.8288
40.6717
38.5165
36.3636
34.2134
32.1415
30.2469
28.5649
27.135
25.9988
25.1962
24.7595
24.7057
24.8183
24.954
25.1125
25.2933
25.496
25.72
25.9648
26.2298
26.5144
26.818
27.14
27.4739
27.8397
28.4833
29.438
30.6747
32.1611
33.8641
35.7529
37.7996
39.9799
42.2732
44.613
46.9527
49.2924
51.6322
53.9719
54.7031
52.5342
50.3653
48.1963
46.0274
43.8585
41.6895
39.5206
37.3517
35.2048
33.1948
31.3639
29.7452
28.3748
27.2903
26.5267
26.1123
26.0438
26.0739
26.1265
26.2016
26.2988
26.4181
26.559
26.7212
26.9044
27.1082
27.332
27.5753
27.8378
28.1799
28.8308
29.7927
31.0366
32.5302
34.2408
36.1376
38.1909
40.3759
42.6722
45.0119
47.3516
49.6914
52.0311
54.3708
55.7913
53.6224
51.4534
49.2845
47.1156
44.9466
42.7777
40.616
38.4972
36.4345
34.4963
32.7383
31.1909
29.8869
28.8593
28.1383
27.748
27.651
27.6068
27.584
27.5825
27.6024
27.6437
27.7061
27.7897
27.8942
28.0193
28.1648
28.3304
28.5157
28.8308
29.4674
30.4091
31.6288
33.0956
34.7785
36.6475
38.6757
40.8395
43.1183
45.4512
47.7849
50.1195
52.4547
54.7904
56.8795
54.7105
52.5416
50.3726
48.2037
46.0435
43.9227
41.8493
39.8308
37.8509
36.0002
34.3282
32.8624
31.6313
30.6632
29.9857
29.6197
29.4833
29.3738
29.2839
29.214
29.1642
29.1345
29.1251
29.1359
29.1669
29.2181
29.2893
29.3805
29.4919
29.7927
30.4091
31.3226
32.508
33.9368
35.5799
37.4089
39.3979
41.5241
43.7673
46.0795
48.3957
50.7144
53.035
55.3575
57.9676
55.7987
53.6297
51.4711
49.3486
47.268
45.2351
43.2411
41.249
39.3335
37.5747
35.9957
34.6209
33.4756
32.5841
31.9675
31.6419
31.4878
31.3346
31.1867
31.0566
30.9451
30.8522
30.7782
30.7233
30.6875
30.6709
30.6735
30.6953
30.7479
31.0366
31.6288
32.508
33.6516
35.0339
36.6278
38.4069
40.3468
42.4254
44.6233
46.9033
49.1934
51.4881
53.7869
56.0893
59.0558
56.8987
54.7749
52.6885
50.6443
48.6434
46.6513
44.6592
42.6966
40.8663
39.1944
37.702
36.4111
35.3439
34.5211
33.9605
33.675
33.5218
33.3686
33.2154
33.0622
32.909
32.761
32.63
32.5167
32.4211
32.3434
32.2839
32.2425
32.2549
32.5302
33.0956
33.9368
35.0339
36.3637
37.9017
39.6236
41.5067
43.5299
45.6748
47.9125
50.1689
52.4328
54.7032
56.9795
60.2014
58.1104
56.0571
54.0457
52.0536
50.0615
48.0694
46.0829
44.1929
42.4438
40.8538
39.4421
38.2286
37.2325
36.4717
35.9612
35.7091
35.5559
35.4027
35.2495
35.0963
34.9431
34.7899
34.6367
34.4835
34.3354
34.2036
34.0885
33.9905
33.9794
34.2408
34.7785
35.5799
36.6278
37.9017
39.3796
41.0396
42.8605
44.8227
46.9084
49.0958
51.3122
53.5393
55.7758
58.0207
61.4725
59.4495
57.456
55.4639
53.4717
51.4796
49.4875
47.5471
45.733
44.0612
42.5483
41.2118
40.0696
39.1384
38.4338
37.9682
37.7431
37.5899
37.4367
37.2835
37.1303
36.9771
36.8239
36.6707
36.5175
36.3643
36.2111
36.0399
35.8384
35.8712
36.1376
36.6475
37.4089
38.4069
39.6236
41.0396
42.635
44.3905
46.2879
48.3104
50.4408
52.6124
54.7979
56.9959
59.205
62.8583
60.8662
58.8741
56.882
54.8899
52.8978
50.9235
49.0541
47.3128
45.7142
44.2738
43.0075
41.931
41.0593
40.4056
39.9807
39.7772
39.624
39.4708
39.3176
39.1644
39.0112
38.858
38.7048
38.5516
38.3983
38.1636
37.8248
37.7008
37.7996
38.1195
38.6552
39.3976
40.3468
41.5067
42.8605
44.3905
46.0792
47.9098
49.8665
51.935
54.058
56.1984
58.3543
60.524
64.2764
62.2843
60.2922
58.3001
56.308
54.318
52.401
50.6002
48.9284
47.3992
46.0269
44.8259
43.8103
42.9931
42.3859
41.9979
41.8112
41.658
41.5048
41.3516
41.1984
41.0452
40.892
40.7388
40.5856
40.3028
39.903
39.6379
39.5841
39.7426
40.1108
40.683
41.4508
42.4036
43.5292
44.8227
46.2879
47.9098
49.6729
51.5628
53.5661
55.6379
57.7304
59.8415
61.9692
65.6946
63.7024
61.7103
59.7182
57.7261
55.7691
53.9168
52.1819
50.5763
49.1129
47.8046
46.6645
45.7052
44.9382
44.3736
44.0191
43.8453
43.6921
43.5389
43.3857
43.2325
43.0793
42.9261
42.7729
42.4421
42.0397
41.6676
41.4753
41.4856
41.6981
42.1099
42.7152
43.5059
44.4721
45.6027
46.8858
48.3092
49.8665
51.5628
53.3859
55.3232
57.3408
59.3838
61.4482
63.5318
67.1127
65.1206
63.1284
61.1363
59.1547
57.2575
55.4677
53.796
52.2536
50.8523
49.6041
48.5209
47.6138
46.8931
46.3676
46.0438
45.8793
45.7261
45.5729
45.4197
45.2665
45.1133
44.9601
44.5813
44.179
43.7766
43.4594
43.3341
43.4028
43.6646
44.116
44.7513
45.5627
46.5411
47.6762
48.9571
50.3727
51.912
53.5642
55.3232
57.1949
59.1562
61.1487
63.1652
65.2034
68.5308
66.5387
64.5466
62.5549
60.6184
58.7805
57.0509
55.4397
53.9574
52.6149
51.4233
50.3932
49.5347
48.8568
48.3671
48.0715
47.9134
47.7602
47.607
47.4538
47.3006
47.123
46.7206
46.3183
45.9159
45.5241
45.2753
45.2116
45.3339
45.6406
46.128
46.7906
47.621
48.6105
49.7498
51.0287
52.4371
53.9648
55.602
57.3393
59.1679
61.074
63.0157
64.9838
66.976
69.9489
67.9568
65.9647
63.9962
62.116
60.3355
58.6638
57.1104
55.6853
54.3985
53.26
52.2796
51.4663
50.8281
50.3716
50.1019
49.9474
49.7942
49.641
49.4878
49.2622
48.8599
48.4575
48.0552
47.6528
47.2976
47.1124
47.1055
47.277
47.6248
48.1453
48.8328
49.6805
50.6802
51.8233
53.1004
54.5022
56.0192
57.6423
59.363
61.1728
63.0643
64.9761
66.8958
68.8416
71.367
69.3749
67.3884
65.4706
63.6451
61.92
60.3039
58.8059
57.4351
56.201
55.1126
54.1788
53.4076
52.8062
52.3805
52.1347
51.9815
51.8283
51.6751
51.4015
50.9991
50.5968
50.1944
49.7921
49.3911
49.0946
48.9685
49.014
49.2307
49.6164
50.1671
50.8776
51.7411
52.7503
53.8968
55.1723
56.5678
58.0749
59.685
61.39
63.1822
65.0545
67.0001
68.8933
70.793
72.7851
70.793
68.8416
66.976
65.2034
63.5318
61.9692
60.524
59.205
58.0207
56.9795
56.0893
55.3575
54.7904
54.3932
54.1687
54.0155
53.8623
53.5408
53.1384
52.736
52.3337
51.9313
51.529
51.1487
50.9127
50.8413
50.9354
51.1939
51.6144
52.1931
52.9246
53.8028
54.8206
55.9704
57.2443
58.6341
60.1319
61.7297
63.42
65.1957
67.0498
68.9762
70.9689
72.8232
66.5571
64.766
63.0769
61.4983
60.0388
58.7073
57.5128
56.4639
55.5689
54.8153
54.1135
53.4528
52.8349
52.2614
51.7335
51.2285
50.7235
50.2185
49.7134
49.2084
48.7197
48.369
48.1838
48.1661
48.316
48.632
49.1109
49.748
50.5373
51.4718
52.5437
53.7449
55.0351
56.3294
57.6237
58.918
60.2123
61.5066
62.8009
64.0953
65.3896
66.6892
68.0223
69.3909
70.793
64.766
62.9239
61.184
59.5552
58.0469
56.6687
55.4302
54.3411
53.4105
52.608
51.8487
51.1309
50.4563
49.8266
49.2436
48.709
48.2038
47.6988
47.1938
46.6887
46.2114
45.8899
45.7432
45.7731
45.9792
46.359
46.9085
47.6218
48.4915
49.5095
50.6668
51.9418
53.2362
54.5305
55.8248
57.1191
58.4134
59.7077
61.002
62.2963
63.5906
64.8849
66.1861
67.5218
68.8933
63.0769
61.184
59.3932
57.7139
56.1561
54.7303
53.4469
52.3166
51.3493
50.4894
49.669
48.8899
48.1542
47.4639
46.821
46.2275
45.6852
45.1791
44.6741
44.1691
43.707
43.4181
43.3144
43.3971
43.6653
44.1155
44.7422
45.5382
46.4947
47.6022
48.8486
50.1429
51.4372
52.7315
54.0258
55.3202
56.6145
57.9088
59.2031
60.4974
61.7917
63.086
64.3803
65.6831
67.0001
61.4983
59.5552
57.7139
55.9842
54.3769
52.9031
51.5744
50.402
49.395
48.471
47.5858
46.7414
45.9402
45.1845
44.4765
43.8186
43.2131
42.6622
42.1544
41.6494
41.2073
40.955
40.8993
41.0411
41.3782
41.906
42.6174
43.5034
44.5536
45.7566
47.0497
48.344
49.6383
50.9326
52.2269
53.5212
54.8155
56.1098
57.4042
58.6985
59.9451
61.1273
62.3587
63.6693
65.0545
60.0388
58.0469
56.1561
54.3769
52.7206
51.1992
49.825
48.6105
47.5571
46.566
45.6124
44.6988
43.8277
43.0016
42.2232
41.4952
40.8202
40.201
39.6402
39.1297
38.7131
38.5022
38.5006
38.7086
39.1226
39.7364
40.5407
41.5246
42.6756
43.9564
45.2507
46.5451
47.8394
49.1337
50.428
51.7223
53.0166
54.2647
55.4464
56.6282
57.8099
59.0323
60.3386
61.7237
63.1822
58.7073
56.6687
54.7303
52.9031
51.1992
49.6312
48.2123
46.9561
45.8495
44.7887
43.7638
42.7773
41.8321
40.9308
40.0766
39.2724
38.5214
37.8268
37.1918
36.6202
36.2257
36.0617
36.1216
36.4042
36.9044
37.6135
38.5199
39.6102
40.8632
42.1575
43.4518
44.7461
46.0404
47.3347
48.5842
49.766
50.9477
52.1295
53.3112
54.493
55.7064
57.0079
58.3928
59.8554
61.39
57.5128
55.4302
53.4469
51.5744
49.825
48.2123
46.7504
45.4538
44.2873
43.155
42.0563
40.9939
39.9707
38.9899
38.0545
37.1682
36.3345
35.557
34.8396
34.1953
33.7748
33.6367
33.7664
34.1337
34.7306
35.5457
36.5643
37.7699
39.0643
40.3586
41.6529
42.9038
44.0855
45.2673
46.449
47.6308
48.8125
49.9943
51.176
52.3813
53.6773
55.0621
56.529
58.0719
59.685
56.4639
54.3411
52.3166
50.402
48.6105
46.9561
45.4538
44.1191
42.8863
41.6817
40.5078
39.3674
38.2634
37.1991
36.1781
35.204
34.2808
33.4129
32.6046
31.8885
31.4371
31.2887
31.4476
31.9041
32.6101
33.5431
34.6848
35.971
37.2234
38.4051
39.5869
40.7686
41.9503
43.1321
44.3138
45.4956
46.6773
47.8591
49.057
50.3468
51.7314
53.2033
54.7555
56.3814
58.0749
55.561
53.4105
51.3493
49.3973
47.5679
45.8759
44.337
42.9641
41.6629
40.3864
39.1372
37.9179
36.7315
35.5813
34.4709
33.4044
32.3859
31.4202
30.5124
29.7273
29.2425
29.0829
29.2538
29.7495
30.5541
31.6183
32.7557
33.912
35.0882
36.2699
37.4517
38.6334
39.8151
40.9969
42.1786
43.3604
44.5421
45.7338
47.0164
48.4007
49.8783
51.441
53.0814
54.7925
56.5678
54.7189
52.608
50.5522
48.5705
46.7088
44.9845
43.414
42.0003
40.633
39.2868
37.9637
36.6665
35.3978
34.161
32.9595
31.7973
30.679
29.6096
28.5944
27.7457
27.2257
27.0542
27.2378
27.7695
28.6298
29.6756
30.753
31.8584
32.9891
34.1426
35.3164
36.4982
37.6799
38.8617
40.0434
41.2252
42.4118
43.6862
45.0702
46.5542
48.1288
49.7855
51.5163
53.3141
55.1723
53.9136
51.8487
49.8436
47.9056
46.0433
44.2932
42.6973
41.2411
39.8118
38.3995
37.0062
35.634
34.2855
32.9636
31.6717
30.4134
29.1933
28.0163
26.89
25.9848
25.4288
25.2451
25.4418
26.0102
26.896
27.8661
28.8747
29.918
30.9925
32.0951
33.2229
34.3736
35.5447
36.7265
37.9082
39.0914
40.3561
41.7398
43.2312
44.8195
46.4947
48.2478
50.0706
51.9558
53.8969
53.1469
51.1309
49.1795
47.3007
45.5034
43.7978
42.1973
40.6978
39.2123
37.7397
36.2817
34.84
33.4167
32.0143
30.6357
29.2843
27.9639
26.6792
25.4507
24.4924
23.9017
23.7062
23.9155
24.5193
25.3443
26.2218
27.1466
28.1141
29.1201
30.1607
31.2324
32.3321
33.4571
34.6049
35.7734
37.0262
38.4096
39.9096
41.5136
43.21
44.9884
46.8394
48.7548
50.7272
52.7503
52.4204
50.4563
48.5618
46.7456
45.0169
43.3863
41.8546
40.3419
38.8292
37.3166
35.8043
34.3009
32.8107
31.3356
29.8779
28.4403
27.0259
25.6387
24.3245
23.3199
22.6988
22.4928
22.7133
23.3066
24.0096
24.7757
25.5992
26.4748
27.3973
28.3624
29.3657
30.4036
31.4725
32.5694
33.7205
35.0796
36.5898
38.2122
39.9331
41.7404
43.6233
45.5724
47.5796
49.6379
51.7411
51.7357
49.8266
47.9924
46.2421
44.5855
43.0323
41.5196
40.0069
38.4942
36.9816
35.4689
33.9562
32.4435
30.9308
29.4181
27.9074
26.4104
24.9147
23.5563
22.5175
21.8736
21.6598
21.8886
22.3694
22.9299
23.5644
24.2671
25.0322
25.8542
26.7278
27.6482
28.6108
29.6116
30.6468
31.8385
33.278
34.9164
36.666
38.5066
40.4258
42.4129
44.4588
46.5558
48.6973
50.8776
51.0947
49.2436
47.473
45.792
44.211
42.6973
41.1846
39.6719
38.1592
36.6466
35.1339
33.6212
32.1085
30.5958
29.0442
27.4115
25.7788
24.253
22.994
22.048
21.4565
21.2519
21.4328
21.7433
22.1425
22.6256
23.1873
23.8222
24.5245
25.2887
26.1092
26.981
27.8992
28.8984
30.1593
31.6752
33.4116
35.291
37.2518
39.2818
41.3709
43.5105
45.6935
47.9141
50.1671
50.4989
48.709
47.0051
45.3968
43.875
42.3623
40.8496
39.3369
37.8242
36.3116
34.7989
33.2155
31.5829
29.9502
28.3175
26.6848
25.062
23.6242
22.4718
21.6503
21.1982
21.1392
21.2962
21.4556
21.6792
21.9941
22.3965
22.8817
23.4447
24.08
24.782
25.5452
26.3648
27.3914
28.7185
30.3066
32.117
34.1078
36.1865
38.3237
40.5102
42.7384
45.0021
47.2961
49.6164
49.9499
48.2244
46.5905
45.0527
43.54
42.0273
40.5146
39.0019
37.3869
35.7542
34.1215
32.4889
30.8562
29.2235
27.5908
25.9581
24.3736
23.0312
21.9926
21.3023
20.9947
21.0638
21.2212
21.3786
21.536
21.6969
21.9258
22.245
22.6506
23.138
23.7021
24.3378
25.0909
26.1675
27.5535
29.2051
31.0798
33.1398
35.3279
37.5658
39.8426
42.1522
44.4893
46.85
49.2307
49.4494
47.7913
46.2304
44.7177
43.1909
41.5582
39.9256
38.2929
36.6602
35.0275
33.3948
31.7622
30.1295
28.4968
26.8641
25.2314
23.7166
22.4767
21.5592
21.0066
20.8477
20.9888
21.1462
21.3036
21.461
21.6184
21.7758
21.9385
22.1728
22.4961
22.9047
23.3959
24.1511
25.2678
26.7006
28.4018
30.3262
32.4341
34.6914
37.0202
39.378
41.7597
44.1616
46.5806
49.014
48.9988
47.3623
45.7296
44.0969
42.4642
40.8316
39.1989
37.5662
35.9335
34.3008
32.6682
31.0355
29.4028
27.7701
26.1374
24.5174
23.0936
21.9636
21.1745
20.7653
20.7564
20.9138
21.0712
21.2286
21.386
21.5434
21.7008
21.8582
22.0156
22.1805
22.4199
22.8116
23.5855
24.7277
26.1901
27.9224
29.8777
32.0151
34.3007
36.6965
39.1234
41.5665
44.0231
46.4909
48.9685
48.4309
46.7041
45.0162
43.3702
41.7375
40.1049
38.4722
36.8395
35.2068
33.5741
31.9415
30.3088
28.6761
27.0434
25.4107
23.8331
22.5075
21.495
20.8412
20.5804
20.6814
20.8388
20.9962
21.1536
21.311
21.4684
21.6258
21.7832
21.9406
22.098
22.2678
22.6417
23.4212
24.5711
26.0423
27.7838
29.7482
31.8943
34.188
36.6014
39.0832
41.5746
44.0674
46.5603
49.0532
48.0135
46.2114
44.4427
42.7114
41.0223
39.3782
37.7455
36.1128
34.4801
32.8475
31.2148
29.5821
27.9494
26.3167
24.6841
23.1811
21.9612
21.0737
20.5617
20.4533
20.6064
20.7638
20.9212
21.0786
21.236
21.3934
21.5508
21.7082
21.8718
22.1135
22.4375
22.8551
23.6446
24.7957
26.2609
27.991
29.9418
32.075
34.3566
36.7486
39.1898
41.6672
44.1601
46.653
49.1459
47.762
45.8899
44.0456
42.2328
40.4556
38.7189
37.0285
35.3861
33.7534
32.1208
30.4881
28.8554
27.2227
25.59
23.9734
22.5641
21.4577
20.7027
20.3382
20.374
20.5314
20.6888
20.8462
21.0036
21.161
21.3184
21.4779
21.7062
22.024
22.3583
22.6925
23.1375
23.9612
25.1392
26.6246
28.3691
30.3281
32.4628
34.7407
37.0804
39.436
41.8363
44.2752
46.7465
49.2385
47.679
45.7432
43.8299
41.9419
40.083
38.2574
36.47
34.7268
33.0347
31.3941
29.7614
28.1287
26.496
24.8634
23.2932
21.9853
21.0002
20.3847
20.1727
20.299
20.4564
20.6138
20.7712
20.9286
21.0861
21.3005
21.6106
21.9448
22.279
22.6132
22.9474
23.4234
24.2802
25.4844
26.9894
28.748
30.7167
32.8578
35.1396
37.4794
39.8191
42.1589
44.5213
46.924
49.361
47.7655
45.7731
43.798
41.8427
39.9101
38.0036
36.1273
34.2863
32.4864
30.7351
29.041
27.402
25.7693
24.137
22.6464
21.4476
20.5916
20.1222
20.0666
20.224
20.3814
20.5388
20.6962
20.8965
21.1971
21.5313
21.8655
22.1997
22.5339
22.8682
23.2024
23.7127
24.6018
25.8312
27.3552
29.1274
31.1056
33.2529
35.5386
37.8783
40.2181
42.5578
44.8975
47.2383
49.6072
48.0205
45.9792
43.9506
41.9366
39.9394
37.9616
36.0066
34.0781
32.181
30.3211
28.5058
26.7441
25.0473
23.4298
22.0359
20.9543
20.235
19.9175
19.9916
20.149
20.3064
20.4943
20.7836
21.1178
21.452
21.7862
22.1205
22.4547
22.7889
23.1231
23.4577
24.0052
24.9257
26.1797
27.722
29.5075
31.4948
33.6483
35.9375
38.2773
40.617
42.9567
45.2965
47.6362
49.9759
48.4414
46.359
44.2855
42.2221
40.1704
38.1323
36.1101
34.1066
32.1253
30.1707
28.2481
26.3647
24.5295
22.8488
21.4872
20.5084
19.9332
19.7723
19.9166
20.0941
20.3703
20.7043
21.0385
21.3728
21.707
22.0412
22.3754
22.7096
23.0438
23.3781
23.7164
24.3009
25.2518
26.5296
28.0898
29.8882
31.8844
34.0438
36.3365
38.6762
41.0159
43.3557
45.6954
48.0351
50.3749
49.0239
46.9085
44.7988
42.6956
40.5998
38.5128
36.4359
34.3711
32.3207
30.2876
28.2755
26.2892
24.3604
22.6667
21.2935
20.3057
19.7612
19.6969
19.9582
20.2908
20.6251
20.9593
21.2935
21.6277
21.9619
22.2961
22.6304
22.9646
23.2988
23.633
23.979
24.5997
25.5802
26.8811
28.4586
30.2694
32.2743
34.4394
36.7354
39.0751
41.4149
43.7546
46.0943
48.4341
50.7738
49.7623
47.6218
45.4844
43.3508
41.2213
39.0969
36.9782
34.8664
32.7627
30.6689
28.5871
26.5205
24.5849
22.9079
21.55
20.5745
20.0373
19.9739
20.2458
20.5515
20.88
21.2142
21.5484
21.8827
22.2169
22.5511
22.8853
23.2195
23.5537
23.888
24.2455
24.9013
25.9106
27.234
28.8282
30.6512
32.6645
34.8353
37.1343
39.4741
41.8138
44.1535
46.4933
48.833
51.1728
50.6498
48.4915
46.3347
44.1796
42.0265
39.8757
37.7275
35.5826
33.4414
31.3049
29.1739
27.0852
25.1929
23.5592
22.2411
21.2973
20.7789
20.7176
20.8927
21.0943
21.3217
21.574
21.8504
22.15
22.4719
22.806
23.1403
23.4745
23.8087
24.1429
24.5157
25.2058
26.243
27.5882
29.1988
31.0335
33.055
35.2312
37.5333
39.873
42.2128
44.5525
46.8922
49.232
51.5717
51.6784
49.5095
47.3408
45.1725
43.0049
40.838
38.672
36.5069
34.343
32.1804
30.0225
27.9848
26.1577
24.5882
23.3283
22.4303
21.9387
21.8685
21.9433
22.0446
22.1721
22.3252
22.5036
22.7065
22.9334
23.1835
23.4561
23.7504
24.0656
24.3979
24.7894
25.513
26.5774
27.9437
29.5701
31.4163
33.4458
35.6273
37.9322
40.272
42.6117
44.9514
47.2912
49.6309
51.9706
52.7666
50.5977
48.4287
46.2598
44.0909
41.9219
39.753
37.584
35.4151
33.2538
31.1476
29.1885
27.4417
25.95
24.7595
23.9153
23.4548
23.3587
23.3431
23.3527
23.3875
23.4475
23.5323
23.6419
23.7757
23.9335
24.1146
24.3187
24.5452
24.7933
25.1622
25.8891
26.9562
28.3249
29.954
31.8035
33.8372
36.0236
38.3312
40.6709
43.0106
45.3504
47.6901
50.0298
52.3696
53.8548
51.6858
49.5169
47.3479
45.179
43.0101
40.8411
38.6814
36.5684
34.5139
32.5191
30.6551
29.0012
27.5953
26.4789
25.6912
25.2631
25.128
25.0336
24.9624
24.9147
24.8906
24.8902
24.9134
24.9603
25.0307
25.1244
25.2411
25.3804
25.5422
25.8891
26.5962
27.636
28.9726
30.5672
32.3817
34.3812
36.5355
38.818
41.1463
43.4762
45.8072
48.1393
50.4724
52.8062
54.9429
52.774
50.605
48.4361
46.2672
44.1091
41.993
39.9273
37.918
35.9258
33.9909
32.2341
30.6885
29.3875
28.3647
27.651
27.2708
27.1133
26.9602
26.8195
26.7001
26.6024
26.5266
26.4728
26.4413
26.432
26.4451
26.4804
26.5379
26.6233
26.9562
27.636
28.638
29.9299
31.476
33.2409
35.1917
37.2992
39.5383
41.8414
44.1486
46.4592
48.7729
51.0891
53.4076
56.0311
53.8621
51.6932
49.5367
47.4184
45.3442
43.3205
41.3282
39.3361
37.3603
35.5213
33.8649
32.4189
31.2128
30.2751
29.6314
29.3009
29.1473
28.9941
28.8409
28.6877
28.5346
28.3935
28.2724
28.1719
28.0919
28.0328
27.9946
27.9775
28.0083
28.3249
28.9726
29.9299
31.1683
32.6559
34.3602
36.2508
38.3001
40.4839
42.749
45.0234
47.3045
49.5912
51.8828
54.1788
57.1192
54.9643
52.8442
50.7634
48.7268
46.7305
44.7384
42.7463
40.7549
38.8491
37.1031
35.5403
34.186
33.0658
32.2041
31.622
31.3346
31.1814
31.0282
30.875
30.7218
30.5686
30.4154
30.2621
30.1091
29.9675
29.845
29.7418
29.6582
29.6548
29.954
30.5672
31.476
32.6559
34.0786
35.7151
37.5375
39.5201
41.64
43.8559
46.0892
48.3327
50.5852
52.8455
55.1126
58.2704
56.1842
54.1374
52.1329
50.1408
48.1487
46.1566
44.1644
42.2079
40.3882
38.7299
37.2544
35.9844
34.9421
34.1484
33.621
33.3686
33.2154
33.0622
32.909
32.7558
32.6026
32.4494
32.2962
32.143
31.9898
31.8366
31.6835
31.4983
31.516
31.8035
32.3817
33.2409
34.3602
35.7151
37.2798
39.0292
40.9397
42.9896
45.1475
47.333
49.5327
51.745
53.9681
56.201
59.5511
57.5353
55.5431
53.551
51.5589
49.5668
47.5747
45.5908
43.7097
41.9721
40.3963
39.0021
37.8094
36.838
36.1056
35.627
35.4027
35.2495
35.0963
34.9431
34.7899
34.6367
34.4835
34.3302
34.177
34.0238
33.8706
33.5111
33.3525
33.4458
33.7888
34.374
35.1917
36.2508
37.5375
39.0292
40.7035
42.5388
44.5152
46.6085
48.7411
50.8922
53.0595
55.241
57.4351
60.9455
58.9534
56.9612
54.9691
52.977
50.9849
48.9928
47.0599
45.2556
43.5958
42.0977
40.779
39.6576
38.7508
38.0738
37.639
37.4367
37.2835
37.1303
36.9771
36.8239
36.6707
36.5175
36.3643
36.2111
36.0243
35.6219
35.3091
35.2312
35.3918
35.7876
36.4109
37.2503
38.2916
39.5201
40.9397
42.5388
44.2981
46.1993
48.2234
50.2999
52.3989
54.5176
56.6539
58.8059
62.3636
60.3715
58.3794
56.3872
54.3951
52.403
50.433
48.572
46.8411
45.2551
43.8298
42.5814
41.5258
40.678
40.0512
39.6559
39.4708
39.3176
39.1644
39.0112
38.858