<VTKFile type="ImageData" version="1.0" byte_order="LittleEndian" header_type="UInt64">
	<ImageData WholeExtent="0 44 0 44 0 44" Origin="-68.3028 -68.3028 -68.3028" Spacing="3.10467 3.10467 3.10467">
		<Piece Extent="0 44 0 44 0 44">
			<PointData Scalars="Scalars_">
				<DataArray type="Float32" Name="Scalars_" format="ascii" RangeMin="0" RangeMax="100">
68.6704
66.9097
65.2222
63.614
62.0893
60.6532
59.31
58.0628
56.9124
55.8569
54.8908
54.0034
53.1812
52.4111
51.6856
51.0007
50.3505
49.7292
49.1407
48.6008
48.1362
47.7772
47.5567
47.7533
48.1128
48.6137
49.2414
49.9823
50.8225
51.7491
52.7501
53.8148
54.9327
56.0956
57.2965
58.5296
59.7915
61.0806
62.3968
63.7422
65.1196
66.5333
67.9865
69.4838
71.0285
66.9264
65.1302
63.4069
61.7619
60.2006
58.7281
57.3487
56.0659
54.8808
53.7915
52.7922
51.872
51.0172
50.2153
49.4595
48.747
48.0723
47.4296
46.8226
46.268
45.7946
45.4345
45.2234
45.4639
45.873
46.4269
47.1083
47.9008
48.789
49.7585
50.7959
51.8898
53.0295
54.2067
55.415
56.6502
57.9101
59.1952
60.5074
61.85
63.2278
64.6449
66.1058
67.6147
69.1745
65.2571
63.4261
61.6667
59.9851
58.3867
56.8769
55.4605
54.1408
52.9194
51.7941
50.7593
49.8035
48.9128
48.0753
47.2854
46.5412
45.8375
45.169
44.5395
43.9667
43.4818
43.1196
42.9205
43.2024
43.6609
44.2687
45.0045
45.8494
46.7854
47.7964
48.868
49.9878
51.1451
52.3322
53.5439
54.7781
56.0348
57.3161
58.6262
59.9697
61.3517
62.7775
64.2511
65.7765
67.3556
63.6676
61.8027
60.0083
58.2903
56.6549
55.1076
53.6532
52.2956
51.0362
49.873
48.8001
47.8057
46.8758
45.999
45.1708
44.3906
43.6536
42.9549
42.2985
41.7035
41.2041
40.8381
40.6545
40.9752
41.4824
42.1437
42.9337
43.8298
44.8118
45.8614
46.9628
48.1034
49.2728
50.4647
51.6763
52.9074
54.1606
55.4404
56.7522
58.1014
59.4937
60.934
62.4263
63.9731
65.5768
62.1628
60.2657
58.4375
56.6844
55.0125
53.4276
51.9351
50.5387
49.24
48.037
46.9234
45.8876
44.9152
43.9952
43.1248
42.3042
41.5291
40.7955
40.1077
39.4865
38.9688
38.597
38.4333
38.7903
39.3447
40.0582
40.9005
41.8452
42.869
43.9517
45.0765
46.2308
47.4058
48.5974
49.8055
51.0329
52.285
53.5673
54.8865
56.2482
57.6577
59.1192
60.6361
62.2104
63.8433
60.7483
58.8213
56.9614
55.1747
53.4674
51.8458
50.315
48.8793
47.5403
46.296
45.1396
44.0594
43.0411
42.0744
41.1576
40.292
39.4741
38.7007
37.9769
37.325
36.7852
36.4045
36.2658
36.6569
37.2567
38.02
38.9113
39.8998
40.959
42.0667
43.2061
44.3656
45.5387
46.7251
47.9279
49.1532
50.4081
51.6992
53.0329
54.4148
55.8489
57.3388
58.8865
60.4938
62.1611
59.4286
57.4751
55.5865
53.7687
52.0282
50.3709
48.8028
47.3279
45.948
44.661
43.4597
42.3325
41.2651
40.2482
39.2811
38.3662
37.5007
36.6824
35.9176
35.2303
34.6642
34.271
34.1627
34.5862
35.229
36.0385
36.9735
37.9984
39.0838
40.2062
41.3493
42.5041
43.6684
44.8458
46.0437
47.2702
48.5338
49.8411
51.1977
52.6076
54.0741
55.5992
57.1842
58.83
60.5363
58.2071
56.2318
54.3185
52.4735
50.7026
49.0124
47.4086
45.8956
44.4747
43.144
41.8964
40.7197
39.6004
38.5301
37.5089
36.5402
35.6223
34.754
33.9433
33.216
32.619
32.2088
32.1365
32.5908
33.2738
34.1245
35.0957
36.1468
37.246
38.37
39.505
40.6457
41.7951
42.962
44.1571
45.3903
46.6698
48.0015
49.389
50.8352
52.3415
53.9086
55.5368
57.2261
58.9755
57.0854
55.0947
53.1627
51.2952
49.4988
47.7795
46.143
44.5937
43.133
41.7586
40.4635
39.2356
38.0621
36.9353
35.8566
34.83
33.8549
32.9317
32.0703
31.2985
30.6661
30.2339
30.2021
30.6857
31.4048
32.29
33.2869
34.3507
35.4484
36.5596
37.6742
38.7924
39.9232
41.0804
42.277
43.5234
44.8267
46.1908
47.6174
49.1073
50.6602
52.2755
53.9522
55.6896
57.4863
56.0633
54.0645
52.1213
50.2389
48.4233
46.6807
45.0163
43.4339
41.9357
40.5187
39.1759
37.8958
36.6664
35.4811
34.342
33.2536
32.2167
31.234
30.3176
29.4973
28.8254
28.3662
28.3775
28.8884
29.6384
30.548
31.5561
32.6153
33.6945
34.7778
35.861
36.9505
38.0615
39.2119
40.4159
41.683
43.0178
44.422
45.8949
47.4351
49.0406
50.7094
52.4393
54.2288
56.076
55.1352
53.1382
51.1935
49.3057
47.4802
45.7222
44.0368
42.4275
40.8958
39.4389
38.0498
36.7177
35.4317
34.1866
32.9848
31.8314
30.7288
29.6826
28.7077
27.836
27.1215
26.6316
26.6843
27.2201
27.9925
28.9122
29.9125
30.9463
31.9883
33.0304
34.0736
35.1306
36.223
37.3712
38.5893
39.8843
41.258
42.7092
44.2346
45.8308
47.4939
49.2205
51.0074
52.8522
54.7526
54.2912
52.3066
50.3717
48.4906
46.6674
44.9059
43.21
41.5827
40.0247
38.533
37.101
35.7187
34.3771
33.0721
31.8063
30.5855
29.4141
28.3017
27.2667
26.3427
25.5847
25.0621
25.15
25.7057
26.4874
27.3967
28.3643
29.3496
30.3373
31.3273
32.3244
33.3474
34.4237
35.5754
36.8144
38.1444
39.5636
41.0675
42.6506
44.3072
46.0317
47.8196
49.6665
51.569
53.5246
53.5165
51.5538
49.6406
47.7795
45.9729
44.2233
42.532
40.9006
39.328
37.8108
36.3425
34.915
33.5206
32.1568
30.8272
29.5379
28.2969
27.1182
26.0243
25.0507
24.2515
23.6974
23.809
24.3753
25.1449
26.0147
26.92
27.8341
28.7539
29.6841
30.6304
31.619
32.6827
33.8437
35.1101
36.4812
37.9513
39.513
41.1579
42.8783
44.6672
46.5185
48.4271
50.389
52.4009
52.795
50.8604
48.9772
47.1467
45.3705
43.6489
41.9807
40.3639
38.7946
37.2674
35.7751
34.3109
32.8697
31.4511
30.0597
28.7044
27.3975
26.158
25.0125
23.9978
23.166
22.5869
22.7038
23.2632
23.9859
24.7783
25.5901
26.4148
27.257
28.1217
29.0125
29.9658
31.0206
32.1964
33.4961
34.9138
36.4397
38.0626
39.7722
41.5586
43.4133
45.3291
47.3003
49.322
51.3903
52.113
50.2086
48.3577
46.5617
44.8215
43.1359
41.5021
39.9146
38.3659
36.8465
35.3473
33.8608
32.3842
30.9206
29.4784
28.0708
26.7152
25.4346
24.2584
23.2238
22.3801
21.7938
21.8847
22.4063
23.0273
23.7006
24.3924
25.1165
25.8736
26.6662
27.4944
28.4113
29.4604
30.6561
31.9941
33.4624
35.0471
36.7338
38.5095
40.3628
42.2838
44.2642
46.2975
48.3782
50.5023
51.4573
49.5827
47.7628
45.9986
44.2897
42.6339
41.026
39.4578
37.9188
36.3977
34.8858
33.3793
31.8805
30.397
28.9406
27.5263
26.1733
24.9053
23.7515
22.7482
21.9455
21.4047
21.4077
21.8364
22.2792
22.8046
23.3585
23.9757
24.6374
25.3476
26.1024
26.9809
28.0277
29.2473
30.6271
32.149
33.7941
35.5452
37.3871
39.3066
41.2926
43.3363
45.4301
47.5681
49.746
50.8078
48.9585
47.1646
45.4253
43.7382
42.0989
40.5001
38.9319
37.3831
35.8443
34.3111
32.7848
31.2717
29.7824
28.3308
26.9348
25.6161
24.4005
23.3197
22.41
21.7176
21.2992
21.3377
21.5574
21.7607
22.1422
22.5386
23.0403
23.5871
24.2002
24.8662
25.7042
26.7514
27.9981
29.4216
30.9974
32.7024
34.5166
36.4227
38.406
40.4543
42.5582
44.7094
46.9018
49.1306
50.149
48.3136
46.5339
44.8063
43.1266
41.4882
39.883
38.3018
36.7365
35.1821
33.6379
32.1081
30.6002
29.1252
27.6981
26.3383
25.0691
23.9174
22.9162
22.1054
21.5388
21.3554
21.2758
21.4923
21.6709
21.8223
21.9995
22.3688
22.766
23.2646
23.8206
24.6166
25.6662
26.941
28.4075
30.0349
31.7965
33.6694
35.6349
37.677
39.7829
41.9421
44.1461
46.3885
48.6643
49.4898
47.6534
45.8717
44.1403
42.4531
40.8031
39.1825
37.5848
36.0057
34.4446
32.9031
31.3859
29.8994
28.4533
27.0629
25.7497
24.5412
23.4711
22.5814
21.9238
21.5567
21.4127
21.2922
21.4555
21.6085
21.7544
21.8989
22.0432
22.2279
22.5934
23.0081
23.762
24.815
26.116
27.6211
29.2938
31.1043
33.0278
35.0441
37.1367
39.2921
41.4991
43.7489
46.0349
48.3517
48.8658
47.0149
45.2173
43.4681
41.7608
40.0889
38.4457
36.8276
35.2339
33.667
32.1308
30.6304
29.1713
27.7616
26.4149
25.1533
24.0053
23.0052
22.1994
21.6569
21.6212
21.48
21.3562
21.4172
21.5448
21.6863
21.8303
21.9748
22.1192
22.2676
22.4847
23.2021
24.2579
25.5787
27.1122
28.8178
30.6634
32.6229
34.6756
36.8043
38.9951
41.2368
43.5202
45.838
48.1846
48.3229
46.4491
44.6262
42.8494
41.112
39.4078
37.7321
36.0837
34.4651
32.8818
31.3407
29.8489
28.4135
27.0422
25.7479
24.5527
23.4869
22.583
21.879
21.4178
21.6421
21.5478
21.4195
21.353
21.4768
21.618
21.762
21.9104
22.0553
22.2789
22.5966
23.3354
24.397
25.7169
27.246
28.9454
30.784
32.7364
34.7821
36.9043
39.0891
41.3252
43.6034
45.9159
48.2572
47.9003
45.9997
44.147
42.3366
40.5618
38.8165
37.0975
35.4064
33.7491
32.1343
30.5719
29.0722
27.645
26.3007
25.0528
23.9242
22.9484
22.166
21.6391
21.7412
21.7527
21.6113
21.4567
21.2892
21.41
21.5537
21.6981
21.9092
22.1638
22.4406
22.814
23.5715
24.6402
25.961
27.4865
29.1794
31.0092
32.9513
34.9858
37.0963
39.2692
41.4935
43.7602
46.0619
48.3927
47.6354
45.7085
43.8264
41.9814
40.1647
38.3701
36.5973
34.8519
33.1437
31.4844
29.8861
28.3618
26.9249
25.5901
24.3742
23.3
22.3978
21.7012
21.2535
21.6688
21.8249
21.674
21.4954
21.279
21.3572
21.5422
21.7918
22.065
22.3537
22.6508
23.1568
23.9705
25.0596
26.3815
27.8976
29.5746
31.3848
33.3052
35.3171
37.4044
39.5546
41.7568
44.0025
46.2846
48.5973
47.7908
45.8115
43.8599
41.9312
40.0252
38.1444
36.2934
34.4782
32.7079
30.9944
29.3504
27.7909
26.3332
24.9977
23.8085
22.7919
21.9769
21.4104
21.6522
21.9703
21.9465
21.7809
21.5845
21.4176
21.5942
21.8294
22.1034
22.3939
22.8369
23.2438
23.7904
24.6093
25.6875
26.9898
28.481
30.1303
31.9115
33.8023
35.7847
37.8434
39.9655
42.1409
44.3608
46.6183
48.908
48.1113
46.094
44.0949
42.1089
40.1347
38.1758
36.2407
34.3435
32.4982
30.7193
29.0195
27.4154
25.9298
24.5928
23.4423
22.5244
21.898
21.6602
22.0004
22.132
21.8936
21.623
21.4168
21.588
21.8299
22.1053
22.3983
22.6989
23.2855
23.8639
24.4784
25.3073
26.3749
27.6577
29.1251
30.7485
32.5028
34.3664
36.3215
38.353
40.4485
42.5976
44.7919
47.0244
49.2894
48.5694
46.5217
44.4862
42.4589
40.4398
38.432
36.4424
34.4809
32.559
30.692
28.901
27.2117
25.6544
24.2647
23.0848
22.1658
21.5747
21.9314
22.2446
21.9697
21.6817
21.4353
21.2979
21.657
22.0163
22.341
22.6507
23.1268
23.7895
24.3185
24.9456
25.8031
26.8931
28.1896
29.6632
31.2867
33.0363
34.8917
36.8355
38.8536
40.9335
43.0654
45.2411
47.4538
49.6982
49.1483
47.078
45.0171
42.9635
40.9186
38.8871
36.8767
34.8976
32.9624
31.0861
29.2873
27.5888
26.0174
24.6055
23.3927
22.4292
21.7885
21.9495
22.0441
21.7861
21.503
21.2742
21.446
21.8353
22.2263
22.5702
23.0628
23.6747
24.2654
24.295
24.9081
25.8411
27.0217
28.4004
29.9414
31.6172
33.4057
35.2885
37.2506
39.2792
41.3634
43.4945
45.6648
47.8688
50.1016
49.8319
47.746
45.6686
43.5992
41.5407
39.4982
37.4798
35.4956
33.5578
31.681
29.8827
28.184
26.6104
25.1928
23.9701
22.9926
22.3342
22.2474
22.1934
22.0093
21.8015
21.6201
21.6933
22.0679
22.457
22.9776
23.6121
24.2244
24.425
24.5288
25.1527
26.0939
27.2851
28.679
30.2386
31.9346
33.7428
35.6436
37.6208
39.6613
41.754
43.8899
46.0618
48.2642
50.4926
50.6059
48.5108
46.4246
44.3484
42.2857
40.2419
38.2256
36.2464
34.3163
32.4496
30.6631
28.9773
27.4166
26.0112
24.7982
23.8256
23.1601
22.954
22.8646
22.6965
22.5135
22.3522
22.3764
22.6455
22.89
23.4397
24.0995
24.4509
24.3596
24.6902
25.3781
26.3556
27.5711
28.9831
30.5576
32.2662
34.0857
35.9966
37.983
40.0312
42.1304
44.2714
46.4468
48.6508
50.879
51.4592
49.361
47.2733
45.198
43.1395
41.1034
39.098
37.1332
35.2206
33.3741
31.6103
29.949
28.414
27.0341
25.8447
24.8899
24.2282
23.9617
23.8541
23.6948
23.5257
23.3757
23.3593
23.5177
23.6545
24.1624
24.7401
24.9232
24.8046
25.1195
25.8051
26.7832
28.0004
29.4147
30.9916
32.7028
34.5248
36.4382
38.4268
40.477
42.5774
44.7191
46.8946
49.0981
51.3247
52.3833
50.2881
48.2059
46.1391
44.0922
42.0715
40.085
38.1424
36.2553
34.4375
32.7049
31.077
29.5768
28.2317
27.0749
26.1467
25.498
25.2033
25.0846
24.9304
24.7692
24.6246
24.5721
24.6313
24.6926
25.1401
25.6114
25.6699
25.5396
25.8551
26.5304
27.4932
28.6933
30.09
31.6501
33.3459
35.1539
37.0548
39.0323
41.0727
43.1643
45.298
47.4661
49.6622
51.8817
53.3722
51.286
49.2154
47.1636
45.1349
43.1359
41.1746
39.2606
37.4052
35.6221
33.9271
32.3388
30.8795
29.5751
28.4567
27.5607
26.9319
26.6277
26.5013
26.3498
26.192
26.0486
25.9638
25.942
25.951
26.3317
26.6915
26.6555
26.5236
26.8509
27.5158
28.4581
29.6323
31.0011
32.5331
34.2015
35.9839
37.8611
39.8168
41.8373
43.911
46.0282
48.1812
50.3632
52.5695
54.4218
52.3499
50.2964
48.2644
46.2591
44.2867
42.3552
40.4742
38.6551
36.9111
35.2577
33.7131
32.2983
31.0383
29.9614
29.1012
28.4968
28.1944
28.0617
27.9114
27.754
27.6088
27.4951
27.4128
27.3843
27.6943
27.9398
27.8375
27.7201
28.0632
28.7193
29.6398
30.7849
32.1208
33.6183
35.2523
37.0015
38.8471
40.7733
42.7665
44.8151
46.9092
49.0408
51.2029
53.3908
55.5285
53.4749
51.4427
49.4348
47.4563
45.514
43.6157
41.7708
39.9907
38.2885
36.6792
35.1804
33.8124
32.5984
31.5647
30.7418
30.1644
29.8709
29.7325
29.5821
29.4235
29.2748
29.136
29.0098
28.9524
29.1872
29.3169
29.175
29.0939
29.4534
30.1029
31.0028
32.1185
33.4197
34.88
36.4761
38.1877
39.997
41.8886
43.8493
45.8675
47.9334
50.0386
52.1763
54.3413
56.6892
54.6572
52.6487
50.6675
48.7185
46.8082
44.9451
43.1382
41.3988
39.7399
38.1761
36.7242
35.4037
34.236
33.2457
32.4605
31.9115
31.631
31.4872
31.3363
31.1755
31.0219
30.861
30.7021
30.6193
30.7728
30.793
30.6345
30.611
30.9869
31.6329
32.5149
33.603
34.8705
36.2934
37.8504
39.5225
41.293
43.1471
45.072
47.0564
49.0904
51.1659
53.2755
55.4142
57.9003
55.8917
53.9089
51.9556
50.0374
48.1607
46.3335
44.5655
42.8678
41.2527
39.7347
38.33
37.0566
35.9349
34.9875
34.2395
33.719
33.4537
33.3052
33.1532
32.9899
32.8289
32.6469
32.4612
32.3526
32.4191
32.3519
32.1924
32.2396
32.6338
33.2799
34.1478
35.2118
36.4481
37.8353
39.354
40.9866
42.7177
44.5331
46.4205
48.3689
50.3689
52.412
54.4913
56.6012
59.1587
57.1741
55.2176
53.293
51.4059
49.563
47.7724
46.0435
44.3875
42.8163
41.3438
39.9856
38.7586
37.6819
36.7763
36.0645
35.572
35.3228
35.1702
35.0164
34.8488
34.6764
34.4715
34.261
34.1239
34.1032
33.9788
33.8339
33.9526
34.3686
35.0189
35.8772
36.9213
38.1301
39.4846
40.9673
42.562
44.2544
46.0312
47.8808
49.7928
51.7575
53.7669
55.8143
57.8937
60.4609
58.5007
56.5702
54.6741
52.818
51.0087
49.2544
47.5644
45.9495
44.4216
42.9939
41.6813
40.4996
39.4666
38.6012
37.9246
37.4591
37.2256
37.069
36.9118
36.7365
36.546
36.315
36.079
35.91
35.8153
35.6615
35.5477
35.7305
36.1713
36.8295
37.6827
38.7113
39.8969
41.2226
42.6725
44.2319
45.8876
47.6272
49.4397
51.3152
53.2448
55.2203
57.2351
59.2832
61.8041
59.8675
57.9629
56.0946
54.2689
52.4925
50.774
49.1221
47.5476
46.062
44.6782
43.4098
42.2719
41.2811
40.4545
39.8114
39.3717
39.1521
38.9911
38.8274
38.6387
38.422
38.1608
37.8987
37.6974
37.5495
37.3902
37.324
37.5604
38.0269
38.6957
39.5476
40.5652
41.7319
43.0329
44.4537
45.9811
47.6029
49.3076
51.0848
52.9252
54.8202
56.762
58.7442
60.7609
63.1869
61.2731
59.3932
57.5519
55.7558
54.0117
52.3277
50.7131
49.178
47.7337
46.3921
45.1665
44.071
43.1205
42.3311
41.7198
41.3041
41.0957
40.9285
40.7535
40.5436
40.2931
39.9991
39.7115
39.4823
39.3023
39.1584
39.1522
39.4325
39.9242
40.6053
41.4589
42.469
43.621
44.9015
46.2972
47.7962
49.3873
51.0597
52.8039
54.6111
56.473
58.3823
60.3326
62.3182
64.6087
62.7165
60.8606
59.0456
57.2781
55.5652
53.9149
52.3365
50.8396
49.4351
48.1344
46.9499
45.8947
44.9826
44.2285
43.647
43.2532
43.0522
42.8763
42.6839
42.4448
42.1549
41.828
41.5178
41.2679
41.0731
40.9625
41.0216
41.3392
41.8548
42.5491
43.4062
44.4119
45.5528
46.8165
48.191
49.6655
51.2291
52.8725
54.5864
56.3628
58.1936
60.072
61.9916
63.9473
66.0696
64.1985
62.3656
60.5763
58.837
57.1544
55.5371
53.9937
52.5337
51.1674
49.9058
48.7608
47.744
46.8684
46.1469
45.5931
45.2185
45.0207
44.8324
44.6166
44.3418
44.011
43.654
43.3257
43.0632
42.8644
42.8016
42.9234
43.2746
43.8129
44.5201
45.3821
46.3855
47.5182
48.7683
50.1253
51.5785
53.1185
54.736
56.4227
58.1708
59.973
61.8226
63.7134
65.6404
67.571
65.7206
63.9105
62.1462
60.4342
58.7816
57.1965
55.6871
54.2629
52.9335
51.7095
50.6017
49.6211
48.7795
48.0887
47.5599
47.202
47.0029
46.7988
46.5545
46.2403
45.8708
45.4886
45.1476
44.8791
44.682
44.6751
44.8527
45.2353
45.7945
46.5142
47.3815
48.3842
49.5105
50.7497
52.0918
53.527
55.0466
56.6414
58.3039
60.0267
61.8027
63.6258
65.4899
67.3901
69.1144
67.2848
65.4975
63.7584
62.0736
60.4505
58.8969
57.4208
56.031
54.7371
53.5488
52.4762
51.5297
50.7199
50.0572
49.551
49.2064
49.0022
48.7795
48.5033
48.1496
47.7466
47.3455
46.997
46.7271
46.5343
46.5833
46.8088
47.22
47.7982
48.5293
49.4017
50.4039
51.5252
52.7553
54.0848
55.5047
57.0062
58.5813
60.2225
61.9226
63.6753
65.4742
67.314
69.1898
70.702
68.8932
67.1291
65.4153
63.7578
62.1641
60.6414
59.1978
57.8416
56.5818
55.4277
54.3885
53.4737
52.6933
52.0562
51.5702
51.2364
51.0238
50.7803
50.471
50.0806
49.6504
49.2364
48.8847
48.6168
48.4296
48.528
48.7932
49.2295
49.8242
50.5652
51.4416
52.4432
53.5597
54.7817
56.1002
57.5063
58.9921
60.5498
62.172
63.8524
65.5841
67.3611
69.1787
71.032
66.9166
65.1195
63.3963
61.7532
60.1953
58.7283
57.3574
56.0867
54.9187
53.8529
52.8848
52.0043
51.1963
50.4445
49.7387
49.0737
48.4428
47.837
47.2568
46.7149
46.2381
45.8594
45.6147
45.7686
46.095
46.5681
47.1747
47.9003
48.7307
49.6528
50.6538
51.7226
52.8487
54.0232
55.2386
56.4893
57.7707
59.0805
60.4185
61.7861
63.1859
64.6217
66.0978
67.6184
69.1866
65.137
63.3021
61.5409
59.8589
58.2621
56.7565
55.3474
54.0397
52.8358
51.7354
50.734
49.8212
48.9817
48.1992
47.4644
46.7739
46.1208
45.4965
44.9002
44.3458
43.8614
43.4822
43.2456
43.4525
43.834
44.365
45.0284
45.8083
46.6884
47.6547
48.6931
49.7919
50.9402
52.129
53.3519
54.6039
55.8823
57.1867
58.5186
59.8812
61.2787
62.7159
64.198
65.7285
67.3102
63.4307
61.5591
59.7596
58.0387
56.4026
54.8576
53.4093
52.0627
50.821
49.6839
48.6466
47.6984
46.8237
46.0066
45.2385
44.5176
43.8379
43.1901
42.5735
42.0024
41.5079
41.127
40.9004
41.1584
41.5968
42.1875
42.9104
43.7463
44.6773
45.6873
46.7617
47.8878
49.0548
50.254
51.4805
52.7305
54.0038
55.3021
56.6292
57.9894
59.3887
60.8319
62.3241
63.8692
65.4692
61.8036
59.8961
58.0593
56.2998
54.6243
53.0393
51.5508
50.1642
48.883
47.7068
46.6309
45.6442
44.7305
43.8743
43.0685
42.3125
41.6008
40.9247
40.2831
39.691
39.1827
38.7987
38.5854
38.8918
39.3872
40.0391
40.8224
41.7148
42.6959
43.7477
44.8548
46.0037
47.1843
48.3893
49.6153
50.8613
52.1292
53.4231
54.7485
56.1113
57.5175
58.9725
60.4808
62.0456
63.6691
60.2613
58.3194
56.4465
54.6493
52.9349
51.3099
49.7808
48.3533
47.0309
45.8135
44.6963
43.6678
42.7114
41.8118
40.9635
40.1673
39.4185
38.7086
38.0367
37.4189
36.893
36.5036
36.3079
36.66
37.2119
37.9245
38.7677
39.715
40.7434
41.8327
42.9666
44.1323
45.3204
46.5263
47.7487
48.9896
50.2539
51.5474
52.8767
54.2484
55.6685
57.1419
58.6728
60.2632
61.9149
58.809
56.8353
54.9285
53.0952
51.3429
49.6785
48.1088
46.6397
45.2749
44.0146
42.8534
41.7798
40.7768
39.8296
38.934
38.0926
37.3012
36.5517
35.8439
35.1951
34.6471
34.2495
34.0766
34.4718
35.0787
35.8505
36.7512
37.7497
38.8196
39.9393
41.0922
42.2663
43.4552
44.6571
45.8742
47.1117
48.3763
49.6754
51.0161
52.4047
53.8467
55.3462
56.906
58.5279
60.2129
57.4517
55.4495
53.5118
51.6454
49.8572
48.1549
46.5453
45.0347
43.6267
42.3218
41.1144
39.9926
38.9392
37.94
36.9925
36.1007
35.2608
34.466
33.7163
33.0308
32.4555
32.0458
31.9022
32.3379
32.9977
33.8257
34.7793
35.8222
36.925
38.0651
39.2264
40.3999
41.5826
42.777
43.9892
45.2266
46.4981
47.8109
49.1719
50.5863
52.0585
53.5915
55.187
56.8464
58.5695
56.1928
54.1673
52.2033
50.3072
48.4866
46.7489
45.1013
43.55
42.099
40.7484
39.4928
38.3198
37.2124
36.1575
35.1537
34.2061
33.312
32.4655
31.6677
30.9397
30.3315
29.9046
29.7969
30.2714
30.9811
31.8605
32.8596
33.9369
35.0605
36.2081
37.366
38.5292
39.6999
40.8853
42.095
43.3387
44.625
45.9609
47.3516
48.801
50.3119
51.8857
53.5237
55.2257
56.9915
55.0343
52.9919
51.0076
49.0878
47.2396
45.4708
43.7883
42.1986
40.7055
39.3091
38.0038
36.7772
35.6129
34.4987
33.4344
32.426
31.4717
30.5671
29.715
28.9382
28.2912
27.841
27.776
28.2875
29.0431
29.9668
31.0007
32.0985
33.2274
34.3675
35.5095
36.6541
37.8088
38.9864
40.1986
41.4561
42.7665
44.1351
45.565
47.0582
48.6156
50.2376
51.924
53.6739
55.4867
53.9752
51.9244
49.9279
47.992
46.1236
44.3297
42.6176
40.9933
39.4605
38.0195
36.6642
35.3827
34.1591
32.9827
31.8542
30.7803
29.76
28.791
27.8783
27.047
26.3553
25.875
25.8579
26.4043
27.2003
28.1579
29.2115
30.3115
31.4273
32.5445
33.6594
34.7787
35.9166
37.0897
38.3114
39.5914
40.9354
42.3459
43.8239
45.3691
46.9803
48.6567
50.3969
52.1996
54.063
53.01
50.9609
48.9627
47.0213
45.1424
43.3329
41.5991
39.9466
38.3791
36.8963
35.4923
34.1556
32.8718
31.6314
30.436
29.2923
28.2004
27.161
26.1821
25.2913
24.5499
24.0331
24.0654
24.6442
25.4718
26.448
27.5005
28.5805
29.6638
30.7438
31.8225
32.9129
34.0355
35.2098
36.449
37.7604
39.147
40.608
42.1418
43.746
45.4174
47.1536
48.9523
50.8114
52.7288
52.1285
50.0917
48.1042
46.1701
44.2944
42.4821
40.7385
39.0683
37.4742
35.9557
34.5068
33.117
31.7736
30.469
29.2051
27.9881
26.8199
25.7049
24.6556
23.7023
22.9079
22.3504
22.428
23.0343
23.8794
24.8514
25.8758
26.9108
27.9432
28.9747
30.011
31.0712
32.182
33.3641
34.6293
35.981
37.4183
38.9374
40.5338
42.2026
43.9392
45.7396
47.6004
49.519
51.4928
51.3159
49.3012
47.3359
45.4234
43.5665
41.7684
40.0322
38.3602
36.7533
35.21
33.7243
32.287
30.8876
29.5207
28.1882
26.8957
25.648
24.4543
23.333
22.3178
21.4711
20.8721
20.9839
21.608
22.4468
23.3822
24.3457
25.3112
26.2782
27.2533
28.2425
29.2725
30.3759
31.5734
32.8725
34.2724
35.7678
37.3514
39.0157
40.7538
42.5594
44.4272
46.3527
48.3329
50.3645
50.5572
48.5706
46.6358
44.7555
42.9314
41.165
39.4564
37.8045
36.2065
34.6575
33.1507
31.6774
30.2302
28.8057
27.4063
26.0386
24.7116
23.4413
22.2526
21.1828
20.2916
19.6567
19.7831
20.4053
21.1977
22.0532
22.9215
23.7977
24.6894
25.602
26.5393
27.539
28.6398
29.8597
31.2005
32.6557
34.2152
35.8682
37.6045
39.4152
41.2922
43.2291
45.2209
47.2634
49.3535
49.8418
47.8854
45.9836
44.139
42.3534
40.627
38.9586
37.344
35.7761
34.2455
32.741
31.2524
29.7728
28.3012
26.8432
25.4097
24.0167
22.6866
21.4499
20.3467
19.4334
18.7831
18.8881
19.4706
20.1516
20.8794
21.6232
22.3982
23.2064
24.0492
24.9269
25.8956
26.9984
28.2475
29.6367
31.1529
32.7812
34.5072
36.3182
38.203
40.1524
42.159
44.217
46.3216
48.4696
49.1595
47.2344
45.3659
43.5561
41.806
40.1154
38.4805
36.8946
35.3468
33.8241
32.3137
30.8072
29.3029
27.8055
26.3246
24.8739
23.472
22.1432
20.9191
19.8402
18.967
18.3709
18.3728
18.8441
19.3211
19.889
20.4887
21.1545
21.8672
22.6283
23.4345
24.3706
25.48
26.764
28.2068
29.7882
31.4881
33.2889
35.1751
37.1341
39.1554
41.2307
43.3535
45.5187
47.723
48.4922
46.5959
44.7579
42.9786
41.2575
39.5916
37.9752
36.3982
34.8474
33.3094
31.775
30.2415
28.7131
27.1984
25.7105
24.2664
22.8887
21.6051
20.4518
19.4701
18.7163
18.2636
18.3029
18.5304
18.7331
19.1476
19.5776
20.1226
20.7162
21.3781
22.0952
22.9968
24.1168
25.44
26.9396
28.5878
30.3599
32.2349
34.1951
36.2263
38.317
40.4583
42.6429
44.8659
47.1234
47.8224
45.945
44.1272
42.3671
40.6613
39.0045
37.3881
35.8016
34.2336
32.6747
31.121
29.5744
28.0413
26.5315
25.0594
23.6443
22.3104
21.0865
20.0101
19.1287
18.5087
18.3213
18.2401
18.4646
18.6411
18.7912
18.9707
19.3733
19.8049
20.3463
20.9491
21.8146
22.9479
24.3124
25.8686
27.5819
29.4231
31.3683
33.3981
35.4969
37.6523
39.8548
42.0967
44.373
46.6795
47.1545
45.28
43.4656
41.7078
40.0009
38.3376
36.7087
35.1051
33.5194
31.9476
30.3898
28.8492
27.3314
25.8449
24.4038
23.0296
21.7514
20.6063
19.6426
18.9223
18.5245
18.38
18.2565
18.4245
18.5773
18.723
18.8675
19.0118
19.1998
19.5975
20.0467
20.8753
22.0229
23.4263
25.0343
26.8057
28.7077
30.7144
32.805
34.9629
37.175
39.4313
41.7239
44.0472
46.3971
46.5218
44.635
42.8076
41.0353
39.3117
37.6289
35.9782
34.3532
32.7501
31.1691
29.6129
28.0856
26.5918
25.1377
23.7356
22.408
21.1865
20.109
19.2298
18.6308
18.5895
18.4476
18.3212
18.3828
18.5126
18.6547
18.7988
18.9433
19.0877
19.2356
19.4568
20.2524
21.4117
22.8455
24.4924
26.3066
28.2531
30.3044
32.4391
34.64
36.8938
39.1898
41.5198
43.8776
46.2588
45.9723
44.0634
42.212
40.4133
38.6608
36.9465
35.2632
33.6064
31.976
30.3755
28.8111
27.2894
25.8165
24.3984
23.0454
21.7807
20.6394
19.6597
18.8882
18.3822
18.6148
18.5156
18.3853
18.318
18.4444
18.5863
18.7303
18.8783
19.0231
19.2515
19.5797
20.3941
21.5564
22.9867
24.627
26.4332
28.3714
30.4146
32.5417
34.736
36.9836
39.274
41.5987
43.951
46.326
45.5482
43.6125
41.7313
39.8995
38.1099
36.3543
34.6265
32.9242
31.2508
29.614
28.0233
26.4888
25.0202
23.6262
22.3177
21.1183
20.0675
19.2127
18.628
18.7245
18.7224
18.5802
18.4259
18.2535
18.3771
18.5214
18.6659
18.8808
19.1407
19.4219
19.8093
20.6413
21.8094
23.2386
24.8731
26.6705
28.5975
30.6282
32.7421
34.9227
37.1571
39.4346
41.7472
44.0881
46.4525
45.2895
43.3267
41.4154
39.5496
37.7198
35.9157
34.1319
32.3704
30.6393
28.9503
27.3161
25.7494
24.2636
22.8724
21.5918
20.4464
19.4732
18.7128
18.2178
18.6616
18.7941
18.6443
18.4677
18.2433
18.3225
18.5121
18.7679
19.0457
19.3377
19.637
20.1834
21.0732
22.2572
23.6814
25.2999
27.0752
28.977
30.981
33.0679
35.222
37.4307
39.6842
41.9744
44.2951
46.6416
45.4945
43.4887
41.5158
39.5685
37.6424
35.7383
33.8606
32.0155
30.2108
28.4571
26.7671
25.1548
23.637
22.2342
20.9716
19.8799
18.9956
18.3747
18.6525
18.9665
18.9179
18.7557
18.5581
18.3851
18.5729
18.8166
19.0962
19.3901
19.8728
20.2946
20.8723
21.7568
22.9202
24.3159
25.902
27.6431
29.5103
31.4801
33.5338
35.6558
37.834
40.0586
42.3215
44.6166
46.9393
45.8656
43.8271
41.811
39.8095
37.8182
35.8369
33.8711
31.9328
30.0385
28.2041
26.445
24.7758
23.2182
21.8028
20.5709
19.5758
18.8889
18.6348
19.004
19.1101
18.8775
18.6002
18.3835
18.562
18.813
19.0947
19.3913
19.6936
20.341
20.9491
21.5862
22.4717
23.6175
24.9886
26.547
28.2591
30.0969
32.0375
34.0621
36.1556
38.3058
40.5029
42.7389
45.0078
47.3046
46.3756
44.3107
42.2607
40.2194
38.1834
36.1534
34.1344
32.135
30.166
28.241
26.3788
24.6059
22.9556
21.4677
20.1915
19.1882
18.5391
18.929
19.2351
18.9534
18.6614
18.407
18.2623
18.6434
19.0077
19.3319
19.6415
20.1594
20.8702
21.3641
22.0124
22.9335
24.1076
25.4968
27.0643
28.7787
30.6136
32.5471
34.5613
36.6418
38.7763
40.9556
43.1722
45.4203
47.6954
47.0047
44.9196
42.8455
40.7774
38.7143
36.6586
34.6162
32.5963
30.6103
28.6726
26.8011
25.019
23.3547
21.8436
20.5305
19.4737
18.7603
18.9182
19.0194
18.7637
18.4759
18.2385
18.4188
18.83
19.2232
19.5629
20.0958
20.7523
21.3261
21.2595
21.935
22.9527
24.228
25.7041
27.3408
29.1076
30.9806
32.9406
34.9718
37.0612
39.1986
41.3755
43.5852
45.8229
48.0849
47.7349
45.6356
43.5452
41.4608
39.3827
37.3147
35.2629
33.2367
31.2474
29.3088
27.4383
25.6572
23.9923
22.4771
21.1548
20.0832
19.3492
19.2268
19.1671
18.9889
18.7861
18.6042
18.6687
19.0644
19.4552
20.0148
20.6948
21.3024
21.4002
21.504
22.192
23.2189
24.5054
25.9967
27.6513
29.4369
31.3277
33.3034
35.3473
37.4464
39.5897
41.7694
43.9786
46.2128
48.4688
48.5502
46.4424
44.3431
42.2512
40.1681
38.0979
36.0479
34.0267
32.0458
30.1187
28.2623
26.4973
24.8495
23.3514
22.0444
20.9833
20.2461
20.0031
19.9088
19.7454
19.5669
19.4062
19.4186
19.6775
19.8953
20.4902
21.1768
21.4442
21.3239
21.6769
22.4301
23.4935
24.8041
26.3131
27.9818
29.7791
31.6801
33.6645
35.7161
37.8216
39.9701
42.1534
44.3647
46.5995
48.8541
49.4384
47.3277
45.2267
43.1354
41.0561
38.9936
36.9548
34.9489
32.9872
31.0829
29.2528
27.517
25.9008
24.4353
23.1598
22.125
21.3991
21.1002
20.9886
20.8329
20.6677
20.5178
20.4872
20.6143
20.7199
21.2582
21.8296
21.9301
21.8018
22.1308
22.8789
23.9414
25.2528
26.7634
28.4341
30.2337
32.1368
34.1233
36.1764
38.2828
40.4319
42.615
44.8254
47.0584
49.3103
50.3905
48.2831
46.1875
44.1044
42.0369
39.9901
37.9712
35.9892
34.0552
32.1828
30.3882
28.6912
27.1164
25.6935
24.4595
23.4606
22.7565
22.4357
22.3137
22.1623
22.0037
21.8582
21.7893
21.8079
21.8406
22.3013
22.7419
22.7304
22.5942
22.9269
23.661
24.7033
25.9923
27.4807
29.1307
30.9115
32.7981
34.7699
36.8101
38.9053
41.0441
43.2178
45.4193
47.6437
49.8872
51.4011
49.3031
47.2191
45.151
43.1021
41.0779
39.0853
37.1338
35.2341
33.3998
31.6469
29.995
28.4676
27.0933
25.9065
24.9492
24.2736
23.9499
23.8207
23.6711
23.5143
23.369
23.2661
23.204
23.1885
23.5658
23.8774
23.7873
23.6518
24.0019
24.7226
25.7384
26.9952
28.4494
30.0656
31.8142
33.671
35.6157
37.6315
39.7046
41.8235
43.979
46.1639
48.3726
50.6012
52.467
50.3835
48.3168
46.269
44.2439
42.247
40.2856
38.3688
36.5077
34.7156
33.0085
31.4053
29.9289
28.6062
27.4693
26.5563
25.9132
25.5977
25.4621
25.3129
25.155
25.0073
24.8753
24.7574
24.7083
24.9993
25.1836
25.0439
24.9302
25.3014
26.0108
26.9995
28.2206
29.6354
31.2109
32.9198
34.7387
36.6479
38.631
40.674
42.7654
44.8958
47.0576
49.2448
51.4532
53.5858
51.521
49.4756
47.452
45.4541
43.4879
41.5606
39.6814
37.8614
36.1139
34.4547
32.9022
31.4782
30.2082
29.1218
28.2538
27.6449
27.344
27.2024
27.0526
26.8924
26.7409
26.5851
26.4289
26.3531
26.5544
26.6152
26.4511
26.3868
26.7787
27.4801
28.4439
29.63
31.0042
32.5367
34.2023
35.9788
37.8476
39.7927
41.8003
43.8589
45.9589
48.0926
50.2535
52.4373
54.7553
52.712
50.6905
48.6934
46.725
44.7912
42.8997
41.0596
39.2821
37.5804
35.9699
34.4685
33.0972
31.8795
30.8431
30.0193
29.4448
29.1618
29.0147
28.8639
28.7013
28.5446
28.3682
28.1833
28.0823
28.1887
28.145
27.9728
27.9815
28.3942
29.0918
30.0348
31.189
32.5245
34.0145
35.6362
37.369
39.1952
41.0993
43.0682
45.0905
47.1567
49.2585
51.3898
53.5457
55.9732
53.9528
51.9564
49.9871
48.049
46.1487
44.2935
42.493
40.7584
39.1029
37.5411
36.0905
34.7708
33.6044
32.6164
31.8355
31.2946
31.0308
30.8789
30.7268
30.5613
30.3964
30.1991
29.9895
29.8605
29.8695
29.7519
29.587
29.678
30.1143
30.813
31.7405
32.8676
34.1681
35.6186
37.198
38.8876
40.6709
42.5334
44.4623
46.4465
48.4765
50.5444
52.6437
54.7694
57.2365
55.2396
53.2686
51.3271
49.4194
47.5523
45.7337
43.9729
42.2811
40.671
39.1572
37.7564
36.4872
35.3704
34.4291
33.6894
33.1806
32.9357
32.7798
32.6258
32.4552
32.2762
32.0547
31.8202
31.6586
31.5805
31.4199
31.2803
31.449
31.9124
32.6171
33.5347
34.6402
35.9109
37.3257
38.8662
40.5149
42.2569
44.0784
45.9674
47.913
49.9062
51.9391
54.0051
56.0992
58.5431
56.5691
54.6231
52.7086
50.831
48.9967
47.2139
45.4921
43.8422
42.2768
40.8101
39.4577
38.2374
37.1683
36.2716
35.5711
35.0928
34.8654
34.7056
34.5471
34.367
34.1656
33.9147
33.6539
33.4571
33.3133
33.1373
33.0422
33.2767
33.769
34.4835
35.3964
36.4859
37.7318
39.116
40.6216
42.2331
43.9364
45.7188
47.5691
49.477
51.4336
53.4313
55.4635
57.5252
59.8908
57.9389
56.017
54.1288
52.2801
50.4777
48.7298
47.046
45.437
43.9152
42.4941
41.1887
40.0153
38.992
38.1379
37.4744
37.0246
36.8117
36.6472
36.4801
36.2828
36.0497
35.7651