<VTKFile type="ImageData" version="1.0" byte_order="LittleEndian" header_type="UInt64">
	<ImageData WholeExtent="0 59 0 59 0 59" Origin="-35.5677 -35.5677 -35.5677" Spacing="2.18425 2.18425 2.18425">
		<Piece Extent="0 59 0 59 0 59">
			<PointData Scalars="Scalars_">
				<DataArray type="Float32" Name="Scalars_" format="ascii" RangeMin="0" RangeMax="100">
119.137
117.721
116.371
115.095
113.914
112.836
111.842
110.987
110.511
119.694
100000
129.633
128.179
127.207
129.355
100000
100.397
99.1644
98.3603
100.508
100000
84.2059
82.3302
80.7526
79.3364
78.0647
76.9853
76.1683
75.7335
100000
74.4101
100000
80.0317
77.8839
76.426
75.1388
74.1236
73.3609
77.8301
75.778
74.0925
73.623
100000
77.7638
74.1688
74.4337
95.3033
93.7477
92.4328
91.2757
90.3304
100000
95.3176
93.457
91.8214
90.2282
88.5611
86.6409
84.5653
82.7461
118.034
116.581
115.188
113.861
112.621
111.478
110.44
109.508
100000
117.953
109.099
100000
100000
100000
100000
76.1098
100000
100000
100000
100000
69.3532
68.3973
81.5418
79.7365
78.2496
76.9331
75.8484
75.1089
100000
91.8094
73.9233
71.7755
100000
76.2916
74.8298
73.4958
72.4935
71.8599
76.4638
74.4041
72.7327
71.5295
70.352
70.6314
72.3644
100000
93.8221
92.1374
90.67
89.3217
88.1228
87.1064
86.25
92.7781
90.8645
89.2185
87.5173
85.6055
83.6739
81.5261
117.005
115.515
114.08
112.715
111.42
110.212
109.089
108.017
106.922
105.803
107.598
100000
79.8921
77.7443
75.7994
73.962
72.5354
71.0783
69.727
68.4896
67.3982
66.482
65.71
79.0238
77.3603
75.9641
74.9458
100000
91.8094
89.6615
88.5212
100000
100000
74.6906
73.2048
71.7927
70.7373
70.1807
75.2369
72.9532
71.3314
69.846
68.5377
69.188
100000
94.6378
92.49
90.7436
89.1748
87.7542
86.4683
85.3813
84.4876
100000
90.3312
88.7567
87.4537
86.3521
100000
100000
116.05
114.519
113.034
111.616
110.278
109.025
107.829
106.681
105.524
104.352
100000
100000
100000
76.705
74.601
72.7072
71.0295
69.477
68.0392
66.7148
65.5118
64.4764
63.6099
100000
100000
75.3486
100000
100000
100000
88.374
87.0024
100000
74.8106
73.1392
71.5693
70.0985
68.9436
68.2099
74.1394
71.687
69.9505
68.504
67.3927
100000
80.1015
100000
91.485
89.5245
87.8368
86.3214
84.9644
83.7531
82.6542
81.6333
93.4298
90.9045
100000
100000
90.5074
89.1828
115.171
113.581
112.028
110.539
109.132
107.792
106.515
105.244
103.887
102.255
100.2
98.9027
97.9253
100000
73.4958
71.4441
69.6115
67.9628
66.4132
64.9916
63.6832
62.5042
61.4458
60.4417
59.384
95.6839
94.128
92.9287
92.0211
100000
100000
100000
73.4269
71.6234
69.987
68.4886
67.1498
66.0459
65.1464
71.4034
69.7223
67.7843
100000
79.6098
77.9279
76.7178
76.0324
88.6214
86.7402
85.1288
83.6917
82.4231
81.3074
80.3312
91.5322
89.0439
87.0395
87.5043
88.6137
87.035
114.354
112.67
111.006
109.405
107.888
106.439
104.996
103.46
101.797
100.098
98.4989
97.0081
95.7775
94.8242
100000
70.3975
68.3374
66.5517
64.9143
63.3972
61.9704
60.6848
59.5381
58.5124
57.6047
94.203
92.3462
90.9825
89.8733
88.8459
87.9703
100000
72.3089
70.3773
68.6453
67.054
65.6121
64.3363
63.2181
62.2231
61.4206
62.1667
62.8846
78.2423
76.4327
75.0057
73.9405
73.2998
85.9281
84.1595
82.6516
81.3435
80.2517
79.3743
89.7904
88.2333
86.9886
85.8306
85.131
85.1194
113.565
111.766
109.961
108.243
106.646
105.144
103.684
102.149
100.475
98.6875
96.9305
95.2973
93.8878
92.6763
91.7302
100000
67.2752
65.2645
63.5214
61.8939
60.3823
58.975
57.7224
56.6451
55.8014
100000
90.9421
89.2354
87.9867
86.8849
85.8225
100000
71.3783
69.2304
67.4818
65.8553
64.3623
63.0164
61.8559
60.8667
60.0153
60.2341
61.0581
77.0851
75.2314
73.7288
72.5452
71.6571
71.1118
83.4648
81.8907
80.5543
79.5771
100000
88.1819
86.6212
85.3395
84.2381
83.3183
83.34
112.724
110.872
108.92
107.062
105.362
103.815
102.364
100.852
99.1891
97.3574
95.4753
93.8024
92.2279
90.8186
89.5823
88.569
100000
64.1179
62.2324
60.5339
58.9074
57.3894
56.0151
54.8174
53.841
53.1776
100000
87.8454
86.2866
85.0181
83.8717
82.9229
100000
67.9618
66.2906
64.7058
63.186
61.771
60.5525
59.5128
58.5519
58.0874
59.5011
76.0003
74.2399
72.7267
71.5243
70.5477
69.705
69.9799
100000
80.1029
100000
88.4083
86.686
85.2003
83.8869
82.6767
81.5871
81.6583
114.872
100000
107.875
105.881
104.05
102.44
100.998
99.5485
97.9842
96.2105
94.3343
92.5297
90.8153
89.2472
87.8328
86.5464
85.5315
63.1774
61.0802
59.31
57.5626
55.9167
54.4202
53.0731
51.9271
51.0297
50.4749
100000
85.001
83.52
82.2871
81.2403
100000
66.7259
65.04
63.485
62.0271
60.5867
59.2926
58.1285
57.0036
56.0436
57.884
59.7997
73.6063
71.8552
70.615
69.4637
68.7405
100000
91.8539
90.2183
88.6417
87.0665
85.4098
83.9055
82.5442
81.2989
80.3907
80.0523
127.232
125.828
100000
104.797
102.796
101.123
99.7022
98.3489
97.0073
95.4174
93.4499
91.456
89.5576
87.8651
86.3193
84.9062
83.6547
82.6186
60.0008
58.2308
56.3959
54.6234
52.9942
51.4935
50.1871
49.1161
48.3271
47.8875
100000
82.334
80.9364
79.768
100000
65.3474
63.666
62.1708
60.8029
59.5112
58.3695
57.2899
56.2452
55.4084
57.5005
59.2604
100000
71.3161
100000
71.3919
70.4458
92.2731
90.4623
88.7303
87.1545
85.6484
84.1612
82.6814
81.2926
80.0118
79.0928
78.545
125.607
124.222
100000
103.811
101.663
99.8342
98.3868
97.0378
95.8312
94.5739
92.8954
90.7509
88.6486
86.8414
85.2506
83.7327
82.2938
80.8397
79.7148
57.3512
55.4522
53.5351
51.78
50.1163
48.6447
47.4082
46.4028
45.6557
45.1683
100000
80.0166
78.6978
100000
63.9532
62.3258
60.8401
59.5156
58.3136
57.2415
56.2747
55.2804
100000
57.0139
58.0291
59.1207
86.8691
85.462
84.211
83.7669
91.1173
89.1765
87.4177
85.82
84.3459
82.9406
81.5758
80.2587
79.0484
77.9814
77.181
123.965
122.496
121.374
100000
100.809
98.6615
97.1427
95.7215
94.4287
93.1263
91.5774
89.6756
87.7268
86.1295
84.7591
100000
100000
79.5622
77.9396
76.6533
54.8535
52.7056
50.8362
48.9718
47.3047
45.8767
44.6912
43.7163
43.0204
43.3046
42.8384
77.9743
100000
62.7233
60.9574
59.4027
58.0009
56.7869
55.7985
54.9226
53.9816
52.8956
54.8661
56.1495
57.271
85.2345
83.7156
82.5192
100000
90.1971
88.0492
86.1704
84.5405
83.0737
81.7295
80.4556
79.2339
78.0756
76.9604
76.2036
122.499
120.979
119.759
118.906
100000
97.7165
96.1128
94.6737
93.4165
92.3103
91.4107
90.7402
90.1478
85.2632
85.089
93.0114
92.3143
100000
76.6365
74.7788
57.0013
100000
50.1752
48.0274
46.1527
44.5358
43.1464
41.986
41.2728
41.1702
40.6408
100000
63.834
61.6862
59.777
58.0832
56.5633
55.2763
54.2471
53.4422
52.7506
52.108
54.011
54.4988
56.6466
83.8368
82.137
80.6944
79.3785
78.1347
80.2826
84.9382
83.2335
81.7512
80.4293
79.1941
78.0134
76.8802
75.8123
75.0727
120.982
119.332
117.918
116.758
115.963
96.9393
95.2075
93.733
92.3835
91.1838
90.1871
89.4478
88.5558
87.1152
90.2613
90.9798
90.1664
89.6111
100000
100000
70.7796
68.898
100000
47.4563
45.3085
43.5001
42.0017
40.7877
39.8384
39.4024
39.0495
57.4211
100000
61.0061
58.8583
56.9417
55.2675
53.8497
52.7271
51.8467
51.1491
50.6698
53.015
52.6404
100000
82.5209
80.7508
79.28
78.0495
77.1317
100000
83.7136
81.9388
80.4342
79.1143
77.9146
76.8089
75.7965
74.903
74.229
119.608
117.811
116.235
114.871
113.783
96.615
94.4922
92.9603
91.5646
90.3174
89.1741
88.6546
100000
100000
90.9809
89.3663
88.5574
87.4481
100000
78.0004
100000
67.1426
65.871
100000
45.0193
43.0006
41.4068
39.926
38.6592
37.849
37.8773
55.2732
53.3938
52.0709
54.2188
56.0224
54.1533
52.5608
51.2929
50.2897
49.5339
50.1133
51.8924
50.8123
100000
81.3037
79.3928
77.8066
76.5756
76.008
100000
82.504
80.7066
79.1878
77.8517
76.6624
75.6061
74.6771
73.862
73.2431
118.366
116.438
114.685
113.155
111.884
110.72
93.9831
92.5098
91.3051
100000
91.2707
90.8025
92.9862
104.653
100000
100000
100000
84.8663
100000
75.8029
74.7677
66.1433
64.604
63.7532
44.1217
42.1175
40.3818
38.8286
37.4718
36.3251
38.2769
53.7937
52.2761
51.3245
100000
55.4777
53.3299
51.4952
49.9923
48.8995
48.3005
49.3732
50.2764
49.0894
47.9507
48.8513
50.4269
76.3324
74.909
100000
83.3406
81.3286
79.588
78.0404
76.6594
75.4364
74.3709
73.4588
72.6622
72.0385
117.401
115.253
113.302
111.502
110.181
108.826
107.556
105.673
103.525
101.355
99.2067
98.305
100000
102.505
101.049
99.8789
99.038
100000
75.3838
73.844
72.6199
71.7515
100000
100000
43.2359
41.088
39.2342
37.6265
36.311
35.3708
37.3802
100000
100000
100000
39.3239
100000
52.9099
50.7621
48.9644
47.6697
47.3764
48.8952
49.0251
47.8851
47.0396
48.5408
50.6744
75.133
73.3045
72.2259
72.2181
80.5098
78.6964
77.0726
75.6219
74.343
73.2382
72.307
71.52
70.8748
100000
114.473
112.325
109.481
108.713
107.388
106.616
106.296
100000
100000
100000
100000
100000
100.926
99.2474
97.9024
96.8902
100000
74.4254
72.6171
71.1957
70.0874
63.5499
71.2124
42.8249
40.7166
38.5688
36.7364
35.3853
34.291
100000
41.4321
39.749
38.3038
37.0165
35.905
34.8897
33.921
47.9004
46.1367
47.3791
49.4533
48.2746
100000
100000
50.6886
52.2074
74.2103
72.0624
100000
82.0464
79.8986
78.0178
76.3162
74.7845
73.4227
72.2392
71.2452
70.4381
69.7627
104.948
104.328
104.743
108.108
107.416
105.898
104.988
104.185
106.333
105.974
104.992
103.18
101.396
99.5848
97.7699
96.1939
94.9226
93.9672
73.729
71.5897
70.0934
68.9677
100000
70.0353
68.5695
67.4405
37.2895
35.8845
34.6113
33.3981
100000
40.0535
38.2669
36.7567
35.4224
34.234
33.1564
32.0553
30.8653
31.3078
31.7928
100000
67.4946
65.9422
64.5561
63.3152
62.2226
61.4805
70.676
69.3235
100000
79.458
77.5042
75.7191
74.1094
72.6587
71.3797
70.2939
69.3946
68.7008
103.88
103.215
105.501
107.634
106.399
104.646
103.585
102.629
100000
104.034
103.75
101.848
100.224
98.4117
96.587
94.7503
93.2821
92.1421
91.3636
69.9151
68.3963
100000
100000
68.4652
66.9787
65.7495
64.8163
36.0909
34.7587
100000
40.9567
38.8089
36.8883
35.2921
33.8956
32.6535
31.5347
30.4977
29.4952
29.7658
30.1123
67.8222
66.0101
64.3015
62.7864
61.4216
60.2118
59.2179
100000
100000
100000
78.5652
76.7755
75.0099
73.3948
71.8986
70.5558
69.3735
68.4079
67.6854
103.159
100000
147.91
107.601
105.453
103.895
102.474
101.28
100.188
100000
102.555
101.002
99.9716
100000
100000
93.5768
91.8782
90.6084
89.7105
100000
71.3637
70.1445
68.5032
66.8851
65.5147
64.2615
63.2689
100000
49.5016
47.99
100000
37.7725
35.6247
33.9257
32.4494
31.1253
29.9363
28.9164
28.1125
28.3108
28.7314
66.6693
64.7087
62.9529
61.3479
59.9184
58.6433
57.4919
56.474
80.6711
78.9512
77.3778
75.8346
74.2043
72.6849
71.1951
69.7852
68.5287
67.4515
66.7026
102.637
100000
145.762
144.676
104.838
103.59
100000
100000
99.0957
100000
112.762
111.224
109.929
108.823
107.954
92.8559
90.708
89.2762
88.3074
100000
69.9017
68.4626
67.0366
65.5028
64.1685
62.9594
61.974
100000
48.004
46.1568
44.988
100000
34.4965
32.6438
31.0819
29.6545
28.3679
27.3401
26.6255
26.7162
25.984
65.7918
63.6439
61.7466
60.0794
58.5838
57.2701
56.1294
55.1909
79.3855
77.4887
75.8842
74.4361
73.0911
71.7411
70.3079
68.9085
67.6419
66.5243
65.7432
100000
145.528
143.908
142.761
100000
107.025
105.591
104.323
100000
100000
111.261
109.511
108.087
106.858
105.806
104.992
89.8768
88.2722
87.2352
100000
69.4654
67.5735
65.8505
64.3286
62.991
61.8334
60.8977
100000
46.9084
44.7605
43.3177
41.9085
33.5814
31.4336
29.7908
28.247
26.8671
25.8496
25.2733
25.0051
24.2906
100000
62.787
60.6392
58.882
57.3632
56.0322
54.9409
54.1908
78.3782
76.3498
74.6387
73.1577
71.918
70.7228
69.4613
68.0208
66.714
65.5703
64.8155
100000
144.118
142.307
140.983
100000
104.618
103.455
102.111
100.988
103.136
110.017
108.135
106.6
105.291
104.152
103.197
102.475
100000
100000
100000
68.8926
66.7447
64.8655
63.279
61.901
60.7616
59.8122
59.7436
100000
43.985
100000
40.2385
38.7027
30.4465
28.5773
26.9417
25.4852
24.5949
24.2431
24.6214
100000
50.3854
100000
59.5438
57.7054
56.1525
54.8196
53.7416
100000
77.6712
75.5233
73.6812
72.0614
70.7567
69.547
68.725
67.21
65.8381
64.6605
63.7784
100000
142.962
140.814
139.204
100000
104.007
101.859
100.434
99.4207
100000
108.985
106.98
105.357
103.996
102.837
101.876
101.148
100000
139.235
138.425
100000
65.8908
63.9216
62.2009
60.842
59.6354
58.4495
57.6033
65.7339
64.5786
63.7661
100000
37.0703
35.701
27.5878
25.8235
24.4147
23.5826
100000
77.1063
74.9585
100000
100000
58.433
56.5153
54.9006
53.5465
52.3471
51.3319
50.879
100000
75.829
100000
100000
68.1822
67.6625
66.0368
64.2391
63.2443
62.8062
101.211
100000
139.514
137.366
135.935
100000
99.6623
98.0342
96.9488
100000
108.175
106.027
104.288
102.909
101.812
100.998
100000
100000
137.245
136.277
66.8734
64.7255
62.8782
61.246
59.7755
58.3579
57.5787
100000
63.9236
62.5904
61.6183
60.9349
36.3676
34.2209
33.1383
25.2885
23.7961
100000
121.74
100000
72.8106
71.547
100000
57.437
55.2892
53.5991
52.2258
51.0441
49.9637
50.2963
100000
100000
80.3029
78.7842
100000
69.8103
71.9768
70.7099
69.828
64.9541
100000
132.911
100000
136.018
134.076
132.766
100.093
98.0324
96.6118
95.5705
100000
105.515
103.367
102.057
101.083
100000
138.146
136.71
135.329
134.409
100000
72.8548
71.0593
69.3661
67.7705
66.2656
64.8491
63.5168
62.2397
60.9242
59.8854
59.1033
58.5835
100000
100000
100000
121.602
120.434
119.593
100000
71.0737
69.3991
68.4527
100000
54.0635
52.2662
50.8589
49.6869
48.7775
48.1743
62.6648
100000
78.7842
76.6363
73.1445
70.9967
69.2063
68.6872
67.6958
66.8474
132.325
130.763
129.501
100000
132.792
130.493
128.619
97.4113
96.0217
100000
163.035
161.473
102.632
101.486
100000
138.294
136.549
135.064
133.738
132.731
100000
71.6757
69.7379
67.9283
66.2379
64.6511
63.1646
61.7899
60.5419
59.4178
58.4129
57.5957
57.0648
100000
123.005
121.313
119.798
118.459
117.445
100000
69.7284
67.5806
66.3048
100000
52.848
51.0347
49.5619
48.3586
47.5215
47.1358
60.5169
62.6648
100000
74.2644
72.2074
70.4086
68.6339
67.1202
66.1121
65.4065
130.832
128.999
127.498
126.248
125.353
129.851
126.498
126.846
100000
100000
161.559
159.954
100000
140.991
138.985
137.042
135.335
133.781
132.391
131.252
100000
70.967
68.8192
66.8755
65.0921
63.4139
61.8566
60.439
59.1692
58.0851
57.2602
56.4929
100000
100000
121.68
119.791
118.119
116.624
115.353
114.394
100000
66.1515
64.4037
63.3012
52.1562
50.0084
48.3371
47.2026
46.5354
100000
58.9982
100000
86.1749
85.0079
84.1344
83.4694
67.5686
66.169
64.9014
64.1215
129.662
127.769
126.038
124.477
123.349
122.569
124.513
125.774
100000
100000
160.134
100000
100000
140.222
138.074
136.149
134.403
132.782
131.283
129.948
128.867
100000
68.2654
66.1176
64.2323
62.4695
60.8953
59.4608
58.1877
57.1544
100000
100000
100.893
100.528
102.676
118.51
116.65
114.973
113.51
112.298
111.399
100000
63.0464
61.5508
60.6394
48.9025
47.2738
46.1558
100000
89.5652
100000
100000
84.3714
83.0456
82.0921
81.3216
69.3244
100000
100000
100000
131.809
100000
100000
123.286
122.005
121.168
100000
100000
154.394
152.246
100000
125.535
123.387
100000
137.621
135.473
133.763
132.171
130.914
100000
100000
100000
67.4631
65.4707
63.5211
61.8181
60.2984
59.074
100000
100000
101.855
100.23
98.7761
98.4173
100000
117.52
115.398
113.513
111.847
110.417
109.251
108.403
100000
60.2065
58.9435
100000
92.864
90.9808
89.1706
87.4173
85.7407
84.1571
82.682
81.3097
80.3095
79.4776
78.6708
77.5786
77.9773
78.4633
100000
152.317
151.137
100000
100000
100000
100000
193.808
100000
100000
169.414
100000
121.191
119.043
100000
136.167
134.135
132.67
100000
141.817
140.124
138.918
68.3186
66.3482
64.3876
62.4222
61.0748
100000
102.798
102.598
100.45
98.6496
97.2715
100000
108.347
100000
114.433
112.285
110.4
108.757
107.37
106.255
105.411
100000
57.5864
56.4343
56.4314
89.8251
87.9303
86.0763
84.2903
82.596
81.0297
79.6785
78.6399
77.8568
77.0743
76.0769
75.867
76.3717
100000
150.521
148.865
100000
195.935
194.282
192.862
191.66
191.029
100000
167.267
165.119
100000
118.006
115.858
100000
132.827
131.298
130.029
129.775
138.347
136.753
135.347
100000
65.5729
63.7817
62.6646
100000
100.661
100000
99.8963
97.7485
96.2297
100000
106.2
104.755
100000
111.345
109.197
107.319
105.703
104.336
103.221
102.364
100000
100000
90.9954
89.0025
87.0714
85.1499
83.2291
81.4068
79.7031
78.212
77.1496
76.4434
75.9136
75.0075
100000
75.0353
100000
149.017
147.072
145.986
194.562
192.671
191.083
189.784
188.881
188.703
100000
100000
100000
100000
100000
133.385
131.237
129.708
128.516
127.644
127.316
100000
133.912
100000
158.716
157.096
155.879
154.994
100000
100000
100000
99.8963
100000
100000
104.596
102.888
101.618
100000
108.274
106.126
104.256
102.666
101.313
100.216
99.5382
100000
90.1503
88.2307
86.3985
84.5774
82.5914
80.524
78.7438
77.0689
75.923
75.2348
100000
100000
100000
100000
100000
147.75
145.602
100000
193.544
191.396
189.622
188.176
187.107
186.478
185.445
184.024
182.836
181.529
180.503
100000
130.061
128.35
127.069
126.114
125.802
154.138
100000
100000
157.307
155.544
154.172
153.103
100000
107.246
105.098
100000
107.383
105.235
103.28
101.426
99.8673
98.6484
100000
105.319
103.171
101.288
99.6675
98.3255
97.3904
96.4542
89.1867
87.1642
85.3477
83.7628
82.4857
81.4694
80.524
100000
100000
100000
86.2201
84.0722
82.9389
82.4699
134.448
100000
143.705
142.064
100000
190.34
188.357
186.717
185.468
184.678
183.704
182.238
181.106
179.643
178.355
177.353
129.498
127.376
125.99
125.076
100000
151.99
100000
158.04
156.069
154.198
152.683
151.378
150.317
100000
102.843
101.324
100000
104.287
102.14
100.236
98.4863
96.9608
95.6907
100000
102.481
100.334
98.363
96.6805
95.6354
94.4365
93.3284
86.282
84.2186
82.4757
81.1008
79.9586
78.9854
98.1879
97.0451
96.2615
100000
82.2476
80.8426
80.3221
133.345
100000
142.293
140.584
100000
189.486
187.338
185.411
183.919
182.828
181.564
180.719
179.745
178.121
176.643
175.449
174.574
125.978
124.625
100000
195.293
100000
100000
157.062
154.914
153.045
151.507
150.041
148.571
147.676
100000
100000
100000
100000
101.39
99.2439
97.3724
95.6922
94.2324
93.1751
100000
99.706
97.5581
95.3242
94.1816
92.8129
91.4038
90.3161
83.6065
81.4587
79.949
78.7962
77.8929
96.3686
95.0456
94.1136
93.6147
100000
79.3691
78.8033
132.979
100000
140.936
139.137
137.894
100000
100000
184.125
182.279
180.652
179.488
179.428
178.689
176.912
175.16
173.812
172.686
100000
196.496
194.687
193.145
191.823
100000
100000
154.468
152.366
151.07
100000
147.16
146.16
145.355
168.983
167.264
165.948
100.545
98.5704
96.5305
95.0118
100000
100000
100000
100000
96.9514
94.8706
93.0394
91.4861
89.8923
88.5215
87.5008
80.7221
79.0945
78.0047
100000
94.6773
93.2676
92.184
91.4669
91.2589
100000
100000
143.351
141.629
139.763
138.459
100000
147.067
145.745
100000
100000
179.677
178.332
100000
178.65
100000
173.828
172.329
170.972
169.821
168.839
168.267
168.996
189.675
188.02
186.588
100000
182.22
180.759
179.748
146.032
145.238
100000
167.696
165.506
163.977
162.87
162.057
100000
100000
131.44
129.292
127.144
125.704
96.3735
94.2256
92.1993
90.3202
88.503
86.7205
84.8918
82.8382
100000
100000
94.9309
93.0567
91.6488
90.4359
89.5633
89.111
88.9376
88.2663
142.052
140.565
139.197
100000
147.095
145.372
144.227
100000
153.682
100000
100000
100000
203.215
202.133
172.778
171.173
169.585
168.385
167.272
166.198
166.976
188.369
186.419
184.44
182.536
180.611
178.843
177.6
148.012
147.181
100000
100000
164.363
162.612
161.424
160.538
100.826
201.92
100000
100000
125.503
123.51
122.242
93.4015
91.2536
89.2697
87.3898
85.5504
83.8513
82.64
100000
100000
93.8563
91.7084
90.2173
88.8854
87.8525
87.2897
86.8976
86.1184
141.241
140.141
100000
147.656
145.812
144.548
100000
153.039
151.534
150.549
204.815
202.974
201.358
199.986
174.926
100000
168.423
167.302
166.353
100000
100000
187.605
185.498
183.496
181.532
179.389
177.241
175.737
174.594
100000
161.389
159.241
100000
161.893
100000
100000
100000
199.772
100000
197.33
100000
122.064
120.417
119.359
90.1128
88.2932
86.8005
85.4445
100000
100000
127.638
126.572
100000
90.625
89.0732
87.6296
86.356
85.752
85.4822
84.5997
140.723
100000
100000
146.553
145.169
100000
153.181
151.506
150.404
100000
203.696
201.548
199.683
198.088
196.817
195.86
167.264
166.414
165.433
100000
183.084
100000
184.477
182.84
181.435
100000
175.897
174.179
172.749
171.762
100000
157.225
100000
203.863
202.11
200.498
199.009
197.624
196.366
195.182
194.121
121.229
119.244
118.001
100000
133.692
132.012
130.409
128.826
127.274
125.774
124.424
123.285
100000
100000
100000
85.1687
84.5392
100000
100000
162.202
160.882
159.747
100000
100000
153.611
151.838
150.628
100000
212.639
100000
200.451
198.303
196.485
195.038
193.854
167.932
100000
100000
182.368
180.923
180.111
228.641
227.14
225.868
224.864
174.969
172.994
171.3
170.148
169.657
100000
204.771
202.623
200.691
198.951
197.367
195.918
194.557
193.275
192.073
191.091
100000
100000
100000
132.352
130.585
128.954
127.342
125.737
124.153
122.615
121.137
119.721
118.437
117.407
100000
100000
113.87
113.223
160.509
159.059
157.578
156.006
154.262
152.398
151.111
100000
212.479
210.491
208.867
100000
197.221
195.073
193.465
192.094
191.089
100000
182.892
180.745
179.535
100000
227.106
225.408
223.973
222.716
221.718
172.406
170.259
168.996
100000
182.468
100000
201.687
199.539
197.639
195.951
194.439
193.024
191.694
190.425
189.375
100000
134.68
132.794
131.103
129.358
127.713
126.088
124.446
122.792
121.15
119.543
117.988
116.552
115.259
114.063
112.869
111.709
111.075
159.166
157.664
156.189
154.726
153.197
151.799
100000
100000
211.666
209.518
207.37
205.938
100000
193.784
192.062
190.495
189.249
188.333
100000
179.593
178.284
100000
225.789
224.016
222.474
221.076
219.845
218.92
100000
100000
100000
180.282
178.613
100000
198.619
196.471
194.648
193.057
191.598
190.216
188.911
187.876
100000
133.47
131.469
129.853
128.236
126.615
125.014
123.381
121.704
119.982
118.264
116.609
115.048
113.582
112.246
111.02
109.989
109.351
158.106
156.535
155.266
154.214
100000
100000
160.756
159.262
158.177
100000
205.889
204.249
203.076
192.598
190.912
189.113
187.701
186.593
185.726
100000
100000
100000
224.576
222.808
221.244
219.78
218.434
217.342
100000
182.796
180.778
178.935
177.123
175.799
100000
195.399
193.457
191.805
190.306
188.902
187.58
186.558
185.9
100000
130.231
128.748
127.177
125.61
124.062
122.487
120.836
119.077
117.227
115.534
113.891
112.357
110.984
109.708
108.705
108.043
157.019
155.682
154.606
100000
162.469
160.866
159.135
157.929
157.02
206.445
204.501
202.667
201.156
200.064
189.839
187.692
186.039
184.422
182.833
181.35
226.792
225.016
223.361
221.685
220.192
218.768
217.355
216.197
100000
181.751
179.603
177.779
176.228
174.976
100000
194.404
192.382
190.681
189.173
187.832
186.656
185.693
100000
100000
129.849
127.736
126.242
124.675
123.107
121.552
119.851
118.03
116.385
114.739
113.208
111.8
100000
100000
100000
100000
156.759
166.22
164.521
162.83
161.04
159.593
158.281
100000
100000
205.535
203.316
201.383
199.571
198.155
197.187
186.615
184.738
183.046
182.208
100000
225.586
223.648
222.007
220.519
219.183
217.989
216.754
100000
100000
100000
178.949
176.93
175.551
174.319
100000
193.51
191.534
189.796
188.276
187.022
186.068
100000
159.589
157.923
156.551
127.069
125.348
123.754
122.262
120.818
119.417
118.008
116.62
115.401
100000
100000
123.128
121.613
120.574
119.999
166.859
164.782
163.074
161.641
160.19
159.046
100000
178.471
177.031
176.844
100000
100000
198.412
196.756
195.567
194.778
211.889
210.73
209.611
208.606
208.225
222.52
220.751
219.211
217.995
217.318
100000
227.92
226.735
225.905
178.887
176.742
175.024
173.725
100000
192.665
190.774
188.979
187.428
186.209
185.334
100000
158.418
156.421
154.77
127.899
125.917
100000
167.01
120.407
119.154
118.073
117.093
116.267
100000
123.572
121.606
119.732
118.504
117.852
165.964
163.816
161.908
160.912
159.814
100000
178.917
176.769
175.321
174.725
100000
212.164
197.92
195.772
194.584
100000
210.085
208.767
207.695
206.786
206.111
221.638
219.744
217.989
216.71
100000
227.927
226.13
224.757
223.757
181.035
100000
100000
219.278
218.402
100000
190.394
188.281
186.763
100000
100000
213.441
100000
155.288
153.417
151.655
149.892
148.555
100000
163.44
161.629
160.135
158.834
157.814
100000
122.618
120.556
118.486
117.058
116.333
165.606
163.487
162.045
100000
100000
171.269
100000
100000
174.189
100000
211.349
210.016
209.111
100000
100000
100000
208.387
207.009
205.877
204.866
204.033
203.639
205.223
216.992
215.491
100000
226.752
224.759
223.179
221.971
221.073
219.947
218.568
217.312
216.254
100000
220.136
217.989
216.247
214.884
100000
211.205
210.015
155.253
153.105
100000
148.596
147.038
100000
162.286
160.316
158.702
157.317
156.143
155.265
122.018
119.983
100000
100000
100000
167.223
100000
174.079
172.28
170.691
169.121
100000
178.635
100000
211.811
209.663
208.166
207.085
207.435
207.633
207.124
206.726
205.326
204.155
203.142
202.302
202.241
204.174
100000
100000
100000
225.953
223.805
222.045
220.632
219.472
218.302
216.83
215.408
214.122
213.114
100000
216.735
214.587
212.736
210.711
209.201
207.837
206.86
215.564
214.438
147.977
145.829
100000
161.131
159.175
157.493
156.013
154.702
153.573
152.601
171.201
169.951
168.85
167.868
166.707
100000
172.906
170.832
169.225
167.883
100000
176.488
175.26
100000
208.127
206.39
205.105
100000
205.547
205.01
205.099
203.699
202.479
201.431
200.596
201.089
203.237
219.173
218
220.147
100000
223.589
221.765
220.046
218.378
216.752
215.175
213.648
212.202
210.852
209.606
208.513
208.129
208.134
208.968
207.584
206.172
205.285
213.734
212.291
211.328
100000
100000
160.14
158.177
156.483
154.936
153.575
152.446
151.572
169.342
167.942
166.731
165.721
176.517
174.359
172.211
170.2
168.741
100000
176.354
174.724
173.781
100000
206.867
204.719
203.104
201.879
100000
203.485
203.708
202.165
200.839
199.759
198.914
200.757
100000
216.466
214.868
214.2
216.478
222.455
220.566
218.782
217.044
215.359
213.719
212.122
210.596
209.173
207.854
206.823
206.018
205.986
207.405
206.098
204.643
203.989
212.143
210.481
209.197
208.075
207.127
159.273
157.361
155.673
154.123
152.737
151.641
100000
167.51
166.119
164.843
163.78
175.807
174.375
171.455
170.075
100000
176.807
174.957
173.686
100000
184.702
100000
203.31
201.437
199.854
198.636
100000
202.651
200.78
199.323
198.155
197.221
199.578
100000
215.291
213.478
212.17
100000
221.453
219.456
217.589
215.795
214.046
212.331
210.649
209.064
207.589
206.198
205.071
204.219
203.651
205.82
204.674
203.039
202.673
210.705
208.926
207.51
206.321
205.225
205.474
215.414
155.14
153.778
100000
100000
167.164
165.754
164.31
163.015
161.954
174.939
100000
171.444
179.682
177.686
175.715
174.327
100000
183.297
182.486
100000
202.247
200.099
198.224
196.618
195.317
194.383
199.878
198.113
196.853
195.86
100000
100000
214.557
212.409
210.88
100000
220.601
218.453
216.487
214.607
212.773
210.972
209.207
207.599
206.121
204.689
203.472
202.528
202.036
206.639
203.131
201.47
201.316
209.435
207.578
206.068
204.824
203.856
100000
100000
100000
170.757
168.956
167.175
165.454
163.989
162.598
161.258
160.232
100000
182.566
180.474
178.569
176.802
175.311
100000
182.702
181.253
100000
191.56
100000
199.175
197.027
195.172
193.638
192.534
100000
197.485
100000
100000
100000
223.062
100000
211.22
209.369
208.183
100000
217.494
215.382
213.404
211.49
209.62
207.812
206.283
204.881
203.369
202.049
200.976
100000
205.694
201.794
199.981
200.144
208.329
206.385
204.775
203.423
202.346
100000
172.143
171.705
169.557
167.636
165.793
164.085
162.53
161.074
159.663
158.659
100000
182.078
179.93
178.211
176.916
100000
182.853
181.073
179.839
100000
189.413
187.687
100000
196.256
194.109
192.338
191.029
100000
210.353
208.604
207.104
205.907
100000
212.249
210.102
208.311
206.937
100000
216.353
214.205
212.243
210.347
208.504
206.724
205.194
203.892
202.308
200.861
199.594
198.443
204.98
202.587
201.071
100000
207.359
205.365
203.679
202.243
201.064
100000
169.149
167.407
168.761
166.613
164.668
162.852
161.148
159.556
158.096
157.269
171.235
100000
180.367
178.263
100000
183.602
181.611
180.029
178.835
100000
188.095
186.167
184.801
100000
193.532
191.448
189.986
100000
209.106
207.068
205.325
203.759
202.469
100000
209.461
207.371
205.705
204.46
100000
213.577
211.523
209.551
207.623
205.793
204.052
202.743
201.533
200.083
198.925
100000
204.825
202.744
100000
208.428
206.295
204.373
202.708
201.237
200.025
100000
167.811
165.898
100000
166.523
164.375
160.863
159.607
158.245
157.083
156.153
100000
183.307
181.159
100000
184.943
182.795
181.074
179.778
100000
189.299
187.151
185.43
184.133
100000
193.015
190.867
189.349
100000
208.42
206.272
204.425
202.792
201.457
100000
208.972
206.824
205.105
203.809
100000
213.891
211.765
209.676
207.586
205.484
203.36
201.973
200.999
199.509
198.317
100000
204.08
201.932
100000
207.803
205.655
203.783
202.096
200.606
199.446
100000
166.835
164.687
163.168
100000
163.913
161.765
160.146
158.588
157.096
155.47
117.96
116.5
115.101
113.781
112.542
111.412
110.365
109.366
108.421
107.819
108.641
110.075
126.263
125.059
100000
100.5
98.6388
97.1727
96.2124
100000
84.8688
82.9695
81.1043
79.4564
77.9421
76.5487
75.3123
74.3032
73.5856
73.1019
72.2655
71.124
100000
77.9048
75.757
74.1477
72.9031
71.9836
71.277
75.2539
72.3281
72.4784
100000
76.0291
72.9853
72.2957
72.3172
93.211
92.0254
100000
100000
100000
94.1459
92.2428
90.5823
89.0599
87.6542
86.4083
85.4018
80.8763
116.834
115.341
113.902
112.536
111.242
110.051
108.959
107.898
106.828
106.36
107.563
109.238
125.143
123.628
122.597
100000
97.8535
96.2225
94.8569
94.1239
100000
100000
80.1428
78.3597
76.7649
75.305
74.0052
72.9611
72.4332
100000
100000
69.6276
68.5886
100000
74.3435
72.5961
71.3617
70.6559
70.2208
73.6982
71.2448
70.3931
69.19
69.0302
71.0488
70.805
100000
91.4202
89.8776
88.475
87.1769
86.0691
85.2387
91.3917
89.5909
87.9917
86.5379
85.2772
84.2514
79.3783
115.789
114.267
112.793
111.384
110.062
108.819
107.699
106.699
105.736
105.011
106.419
111.842
100000
77.6582
75.7373
73.8046
72.0632
70.6083
69.2456
67.9669
66.8761
66.1075
100000
77.4641
75.7283
74.1757
72.798
71.7139
100000
88.374
87.0024
68.675
67.4632
100000
73.0942
70.9464
69.6954
69.4817
100000
71.8405
69.9877
68.5439
67.1932
67.1409
100000
100000
91.7469
89.926
88.2772
86.764
85.3366
84.1608
83.2097
82.436
88.8708
87.1713
85.6098
84.3381
80.4591
78.3679
114.83
113.282
111.774
110.327
108.962
107.702
106.544
105.525
104.66
103.887
105.553
110.604
100000
76.2714
74.2328
72.196
70.4835
68.9235
67.4754
66.1475
64.9649
63.9597
63.1567
100000
74.8217
73.189
71.7513
70.596
100000
86.7212
84.8546
67.4669
100000
100000
100000
69.215
67.8753
100000
73.1213