<VTKFile type="ImageData" version="1.0" byte_order="LittleEndian" header_type="UInt64">
	<ImageData WholeExtent="0 44 0 44 0 44" Origin="-71.2453 -71.2453 -71.2453" Spacing="3.23842 3.23842 3.23842">
		<Piece Extent="0 44 0 44 0 44">
			<PointData Scalars="Scalars_">
				<DataArray type="Float32" Name="Scalars_" format="ascii" RangeMin="0" RangeMax="100">
81.1994
79.3708
77.5685
75.7957
74.0557
72.3538
70.6954
69.0871
67.5357
66.0491
64.6357
63.3032
62.0616
60.9202
59.8887
58.9778
58.1981
57.5617
57.0817
56.7781
56.7796
56.9726
57.2388
57.5951
58.0277
58.508
59.0107
59.5241
60.0462
60.5853
61.1537
61.7576
62.4002
63.0847
63.8206
64.6234
65.5087
66.4872
67.565
68.7443
70.0241
71.4019
72.8745
74.4376
76.0863
79.3709
77.53
75.7128
73.9225
72.1628
70.4381
68.7543
67.1176
65.5354
64.0157
62.5667
61.1978
59.9185
58.7392
57.6704
56.7234
55.9098
55.2431
54.7372
54.4137
54.3812
54.5733
54.8417
55.2061
55.6518
56.1485
56.671
57.2077
57.7561
58.324
58.9231
59.5586
60.2336
60.9503
61.718
62.5523
63.4694
64.4799
65.5904
66.8033
68.1173
69.5304
71.0382
72.6368
74.321
77.5687
75.7145
73.882
72.0744
70.2948
68.5473
66.8379
65.173
63.5596
62.006
60.5212
59.1147
57.7966
56.5782
55.4706
54.4859
53.6369
52.9378
52.4044
52.059
51.9905
52.1824
52.4542
52.8287
53.2905
53.8076
54.3549
54.9207
55.5018
56.1045
56.7395
57.412
58.1243
58.8778
59.6816
60.5511
61.5027
62.5475
63.6926
64.9405
66.2901
67.7386
69.2826
70.9174
72.6379
75.7958
73.9275
72.0797
70.2537
68.454
66.6838
64.9487
63.255
61.6102
60.0226
58.5012
57.0562
55.6983
54.4393
53.2913
52.2672
51.381
50.6479
50.0851
49.7155
49.6105
49.8031
50.0791
50.4662
50.9473
51.4895
52.0668
52.6676
53.2875
53.931
54.6079
55.3228
56.0773
56.8727
57.717
58.6253
59.6142
60.6959
61.8779
63.1622
64.5483
66.0338
67.6144
69.2854
71.0421
74.0558
72.1723
70.3085
68.4645
66.6439
64.8507
63.0896
61.3671
59.6903
58.0682
56.5099
55.0255
53.6267
52.3258
51.1357
50.0707
49.1454
48.3766
47.7821
47.3863
47.2454
47.4386
47.7202
48.1224
48.6266
49.1985
49.8117
50.4537
51.1187
51.8094
52.5339
53.2965
54.0988
54.9407
55.83
56.7811
57.8108
58.9321
60.1524
61.4747
62.8984
64.421
66.0382
67.7458
69.5385
72.3539
70.4545
68.5733
66.7104
64.8687
63.0519
61.2645
59.5129
57.8043
56.1472
54.5512
53.0268
51.5861
50.242
49.0086
47.9007
46.9345
46.1279
45.5001
45.0757
44.9005
45.0945
45.3825
45.8027
46.334
46.9408
47.5958
48.2854
49.0019
49.7457
50.5238
51.3398
52.1948
53.0886
54.0272
55.0251
56.0989
57.2624
58.5232
59.8847
61.3467
62.9071
64.5612
66.3052
68.1333
70.6956
68.7791
66.8796
64.9971
63.1339
61.2929
59.479
57.698
55.9573
54.2649
52.6307
51.0656
49.5823
48.1938
46.9153
45.7629
44.7539
43.9075
43.2446
42.79
42.5827
42.7766
43.0725
43.5135
44.076
44.7233
45.4266
46.1701
46.9443
47.7476
48.5851
49.4599
50.3729
51.3229
52.3155
53.3645
54.4862
55.6941
56.9972
58.3992
59.9002
61.4981
63.1893
64.9686
66.8316
69.0874
67.1529
65.2342
63.3312
61.4454
59.5801
57.7394
55.9288
54.1553
52.4275
50.755
49.1487
47.6217
46.188
44.8631
43.6644
42.6109
41.723
41.0232
40.5373
40.3003
40.4929
40.7977
41.2626
41.8613
42.5548
43.3126
44.1164
44.9547
45.8235
46.7261
47.665
48.6407
49.6518
50.7029
51.8068
52.9794
54.2345
55.5813
57.0246
58.5651
60.2006
61.928
63.7424
65.6388
67.5362
65.583
63.644
61.7196
59.8111
57.9209
56.0531
54.2127
52.4068
50.6432
48.9321
47.2842
45.713
44.233
42.8607
41.6145
40.5147
39.5835
38.8454
38.3276
38.0636
38.253
38.568
39.06
39.6996
40.4451
41.2638
42.1346
43.043
43.9833
44.9566
45.9646
47.0074
48.0835
49.197
50.3591
51.5854
52.8899
54.2822
55.7677
57.3474
59.0202
60.783
62.6308
64.5595
66.0494
64.0767
62.1172
60.1711
58.2393
56.3239
54.4287
52.5587
50.7201
48.9212
47.1712
45.4818
43.8661
42.3393
40.9187
39.6238
38.4763
37.5005
36.723
36.1731
35.8849
36.0681
36.3946
36.9175
37.6027
38.4063
39.2921
40.2359
41.2207
42.2381
43.2871
44.3686
45.4821
46.6268
47.8058
49.0293
50.3116
51.667
53.1056
54.6334
56.2522
57.9614
59.7581
61.6382
63.597
64.6359
62.643
60.6627
58.6947
56.7393
54.7988
52.8764
50.9765
49.1058
47.2716
45.4834
43.7526
42.0925
40.5187
39.0493
37.7049
36.5089
35.4875
34.6699
34.0881
33.7788
33.9521
34.2915
34.849
35.5849
36.4519
37.411
38.434
39.5006
40.6002
41.7295
42.8881
44.0754
45.2909
46.5375
47.8238
49.1635
50.5706
52.0557
53.6253
55.2823
57.0265
58.8554
60.7655
62.7525
63.3036
61.2907
59.2897
57.2998
55.3214
53.356
51.4068
49.4779
47.5754
45.7067
43.8809
42.1093
40.4053
38.785
37.2668
35.8727
34.6277
33.5603
32.7025
32.0899
31.7633
31.9212
32.2756
32.8716
33.6628
34.5985
35.6363
36.7436
37.897
39.0829
40.296
41.5343
42.7972
44.0844
45.3984
46.7475
48.1442
49.6022
51.1326
52.7426
54.4358
56.2128
58.0718
60.0093
62.0217
62.0617
60.0293
58.0083
55.9972
53.9965
52.0071
50.032
48.075
46.142
44.24
42.3777
40.5664
38.8197
37.1537
35.5877
34.1443
32.8507
31.7375
30.8401
30.1988
29.8599
29.9951
30.3673
31.0055
31.8562
32.8652
33.986
35.1818
36.4256
37.7008
38.9994
40.3183
41.6563
43.0135
44.3926
45.8013
47.2519
48.7576
50.3301
51.9776
53.7041
55.5109
57.3968
59.3593
61.3945
60.9201
58.8693
56.8292
54.7983
52.7763
50.7645
48.7652
46.7819
44.82
42.8863
40.9895
39.1404
37.3528
35.6429
34.0306
32.5396
31.1984
30.0406
29.1054
28.4384
28.0948
28.1977
28.5909
29.275
30.1888
31.2741
32.4806
33.7669
35.1025
36.4675
37.8512
39.2485
40.6581
42.0801
43.5179
44.9792
46.4763
48.023
49.6317
51.3112
53.0664
54.8993
56.809
58.7933
60.8489
59.8886
57.821
55.7634
53.7145
51.6737
49.6417
47.6205
45.6135
43.6254
41.6628
39.734
37.85
36.0242
34.273
32.617
31.0809
29.6947
28.4948
27.5248
26.8369
26.5004
26.5578
26.9765
27.7095
28.6884
29.8511
31.1431
32.5189
33.9441
35.3953
36.8588
38.3279
39.8004
41.2768
42.761
44.2622
45.7938
47.3709
49.0068
50.7113
52.4899
54.3447
56.2754
58.2798
60.3543
58.9778
56.8953
54.8228
52.7587
50.7018
48.6529
46.6135
44.5863
42.5761
40.5886
38.6318
36.7165
34.8563
33.0679
31.3722
29.7948
28.3675
27.1295
26.1292
25.4273
25.116
25.1106
25.56
26.344
27.3879
28.6254
29.9982
31.457
32.9635
34.4904
36.0212
37.5471
39.0656
40.5783
42.0912
43.6158
45.1682
46.7649
48.4205
50.1449
51.9436
53.8186
55.7693
57.7932
59.8871
58.1982
56.1039
54.0197
51.9436
49.8748
47.8134
45.7605
43.7187
41.6917
39.6848
37.7058
35.765
33.8758
32.0556
30.3256
28.7125
27.2498
25.9794
24.9549
24.2472
23.9895
23.9002
24.3856
25.2202
26.3245
27.6286
29.0702
30.5966
32.1655
33.746
35.3189
36.8753
38.4144
39.9408
41.464
42.9985
44.5628
46.1744
47.8478
49.5919
51.4119
53.3087
55.281
57.3262
59.4407
57.5617
55.4593
53.3672
51.2835
49.2077
47.1395
45.0799
43.0306
40.9946
38.9767
36.9835
35.0252
33.1151
31.2706
29.5138
27.8727
26.3821
25.087
24.0455
23.3397
23.1782
22.9815
23.5065
24.3864
25.539
26.8909
28.3766
29.9399
31.5356
33.1315
34.7092
36.2636
37.7977
39.3195
40.8409
42.3788
43.9524
45.579
47.2716
49.0383
50.8822
52.8036
54.8005
56.8697
59.0072
57.0821
54.9753
52.8798
50.7939
48.7169
46.6491
44.5913
42.5449
40.5119
38.4958
36.5018
34.5389
32.6196
30.7618
28.9885
27.3294
25.8212
24.5106
23.4595
22.7569
22.7464
22.4218
22.9847
23.8923
25.0629
26.4227
27.9058
29.4562
31.0293
32.5958
34.1426
35.6696
37.1824
38.6892
40.2024
41.7398
43.3204
44.9608
46.6726
48.4619
50.331
52.2787
54.3022
56.3976
58.5604
56.7787
54.6724
52.578
50.4947
48.423
46.364
44.3199
42.2929
40.286
38.3029
36.3489
34.4315
32.5614
30.7531
29.0259
27.4051
25.924
24.6257
23.5643
22.8083
22.4502
22.4116
22.8636
23.6973
24.8117
26.1228
27.5596
29.06
30.5773
32.0864
33.5817
35.0679
36.5509
38.0371
39.5382
41.072
42.6576
44.3104
46.0406
47.8525
49.7469
51.7214
53.7724
55.8954
58.0854
56.7791
54.7117
52.6551
50.6062
48.5636
46.5281
44.5023
42.4893
40.493
38.518
36.5705
34.6585
32.7931
30.9896
29.268
27.6543
26.1819
24.8931
23.8412
23.0951
22.76
22.7558
22.9589
23.6783
24.7097
25.9522
27.3238
28.748
30.177
31.6018
33.0293
34.466
35.9131
37.3738
38.8589
40.3862
41.9745
43.6381
45.3852
47.2185
49.1373
51.1381
53.2164
55.3669
57.5841
56.9723
54.915
52.8701
50.8343
48.8059
46.7846
44.7719
42.7705
40.7845
38.8186
36.8793
34.9757
33.1195
31.327
29.6192
28.0229
26.5721
25.3089
24.2872
23.5803
23.3348
23.3492
23.4765
24.132
25.0707
26.1738
27.3571
28.579
29.8439
31.1548
32.5067
33.8909
35.2991
36.7304
38.1958
39.7141
41.3032
42.9756
44.7373
46.5896
48.53
50.5543
52.657
54.8326
57.0748
57.239
55.1875
53.1496
51.1219
49.1025
47.0909
45.0884
43.0978
41.1231
39.1697
37.245
35.359
33.5247
31.7594
30.0846
28.5275
27.1213
25.9069
24.9361
24.2799
24.1136
24.1385
24.2269
24.7689
25.527
26.3615
27.2969
28.355
29.5235
30.7734
32.0726
33.4058
34.767
36.1598
37.5985
39.102
40.6866
42.3629
44.1345
46.0009
47.9581
50.0008
52.1232
54.3189
56.5817
57.595
55.5475
53.5149
51.4941
49.4834
47.4822
45.4922
43.5164
41.559
39.6266
37.7274
35.8723
34.0754
32.3545
30.7313
29.2324
27.8897
26.7415
25.8352
25.2353
25.1211
25.1503
25.2173
25.6598
26.2957
27.0151
27.8179
28.7091
29.6858
30.7435
31.8841
33.1008
34.3789
35.7128
37.1112
38.5896
40.1613
41.8336
43.6076
45.481
47.4485
49.5036
51.6396
53.8499
56.1279
58.0277
55.9797
53.9482
51.9307
49.9257
47.9333
45.9548
43.9938
42.0554
40.1468
38.2773
36.4595
34.7083
33.0419
31.4824
30.0553
28.7914
27.7265
26.9038
26.3789
26.3021
26.3325
26.386
26.7403
27.2677
27.8645
28.4782
29.1056
29.8481
30.7368
31.7653
32.904
34.1171
35.3903
36.7377
38.1793
39.7278
41.3878
43.1576
45.0323
47.0053
49.0687
51.2149
53.4365
55.7267
58.508
56.4518
54.4139
52.3926
50.3877
48.3995
46.43
44.4827
42.5637
40.6808
38.8447
37.0684
35.3678
33.7614
32.2708
30.9214
29.7428
28.7697
28.0437
27.6188
27.5725
27.6032
27.6479
27.922
28.3395
28.7969
29.2163
29.6341
30.2715
31.0768
31.9905
32.974
34.0238
35.17
36.4335
37.8245
39.3451
40.9916
42.7578
44.6347
46.6139
48.6862
50.8431
53.0763
55.3789
59.0107
56.9375
54.8851
52.8534
50.843
48.8556
46.8935
44.9613
43.0646
41.2123
39.415
37.6861
36.0415
34.4996
33.082
31.8135
30.7228
29.8436
29.2167
28.9002
28.8778
28.9077
28.9458
29.1488
29.4602
29.7838
30.0495
30.3263
30.8593
31.4607
32.1285
32.9164
33.8501
34.9301
36.1541
37.5214
39.0289
40.6702
42.4363
44.3173
46.3033
48.3842
50.5508
52.7948
55.1084
59.5241
57.4274
55.3548
53.3078
51.288
49.2982
47.3418
45.4233
43.5491
41.7276
39.9697
38.2883
36.6995
35.2222
33.878
32.6918
31.6922
30.9118
30.3892
30.1757
30.1709
30.1991
30.2317
30.3762
30.5936
30.8065
30.9663
31.1484
31.5729
31.9988
32.4708
33.114
33.9293
34.9144
36.0706
37.3932
38.8727
40.4973
42.2544
44.1318
46.1174
48.2004
50.371
52.6198
54.9389
60.0459
57.9225
55.8265
53.761
51.7289
49.7337
47.78
45.8727
44.0182
42.2246
40.5025
38.8645
37.3266
35.9082
34.6315
33.5224
32.6107
31.931
31.5242
31.3995
31.4078
31.4351
31.4645
31.5668
31.7105
31.8437
31.9685
32.1023
32.4351
32.7388
33.0925
33.6595
34.4058
35.3275
36.4257
37.6961
39.1295
40.7139
42.4363
44.2839
46.2443
48.3062
50.4592
52.6936
55.0014
60.5851
58.435
56.3162
54.2325
52.188
50.1873
48.2355
46.3381
44.5017
42.7346
41.0467
39.4505
37.9614
36.5986
35.3843
34.3448
33.5108
32.9193
32.6243
32.564
32.58
32.6059
32.6326
32.7102
32.8043
32.8885
33.0287
33.1494
33.4052
33.6184
33.8854
34.3826
35.0535
35.9061
36.9462
38.1694
39.5648
41.1185
42.8159
44.6426
46.5856
48.6325
50.7722
52.9951
55.2924
61.1538
58.9792
56.8395
54.7391
52.6827
50.6755
48.7235
46.8327
45.0107
43.2661
41.6096
40.0535
38.6129
37.306
36.1541
35.1825
34.421
33.9063
33.7065
33.6856
33.7046
33.7285
33.7522
33.8181
33.8842
33.9425
34.1069
34.2326
34.4351
34.6017
34.8161
35.2574
35.8673
36.6658
37.6606
38.8458
40.2085
41.7336
43.4054
45.2091
47.1307
49.1579
51.2793
53.4851
55.7664
61.7579
59.5608
57.401
55.2832
53.2127
51.1955
49.2382
47.3486
45.535
43.8074
42.1773
40.6575
39.2633
38.0121
36.9239
36.023
35.3373
34.9009
34.7775
34.7786
34.8191
34.8484
34.8697
34.9251
34.9821
35.0335
35.2103
35.3469
35.5268
35.691
35.8875
36.2906
36.8581
37.6172
38.5763
39.7281
41.0593
42.5545
44.1974
45.9735
47.8687
49.8709
51.9686
54.1516
56.4113
62.4005
60.1824
58.0034
55.8685
53.7838
51.7559
49.7923
47.9018
46.0941
44.3803
42.7723
41.2841
39.9311
38.7307
37.7026
36.8698
36.2598
35.9072
35.8414
35.855
35.9409
35.9979
36.0276
36.0762
36.1406
36.2014
36.3817
36.5314
36.7124
36.9006
37.105
37.4861
38.0257
38.7557
39.6845
40.8053
42.1047
43.5676
45.1787
46.9232
48.7876
50.7598
52.8284
54.9837
57.2166
63.0848
60.8481
58.652
56.5021
54.4051
52.3682
50.3997
48.509
46.7067
45.0047
43.4159
41.9549
40.6377
39.4822
38.5078
37.7376
37.199
36.9332
36.9158
36.947
37.0848
37.1922
37.251
37.3074
37.3924
37.4754
37.6586
37.8236
38.0182
38.2395
38.4673
38.8391
39.3613
40.0689
40.9709
42.0617
43.3287
44.7578
46.3343
48.0439
49.8738
51.812
53.8476
55.9708
58.1729
63.8208
61.5701
59.3623
57.2033
55.1001
53.0605
51.093
49.2076
47.4153
45.7284
44.16
42.7253
41.4406
40.324
39.3951
38.6764
38.1959
38.0091
38.0359
38.0968
38.2801
38.4463
38.5534
38.6376
38.7535
38.8681
39.0587
39.2415
39.4552
39.7094
39.9675
40.3394
40.8514
41.541
42.4189
43.4806
44.715
46.1092
47.649
49.3215
51.114
53.0153
55.0144
57.1022
59.27
64.6236
62.3668
60.1553
57.9956
55.8948
53.8609
51.9025
50.0301
48.2546
46.588
45.0439
43.6373
42.3844
41.303
40.4126
39.735
39.2977
39.1733
39.2389
39.3382
39.5575
39.7783
39.9429
40.072
40.227
40.3796
40.5844
40.7879
41.0224
41.3061
41.5959
41.9745
42.4814
43.1564
44.0121
45.0457
46.2477
47.6064
49.1087
50.7424
52.4956
54.3576
56.3181
58.3678
60.4985
65.5088
63.2542
61.0476
58.8956
56.8058
54.7858
52.8447
50.9923
49.2398
47.5989
46.0832
44.7071
43.4865
42.4388
41.5824
40.9384
40.5329
40.4534
40.5504
40.6894
40.938
41.204
41.4254
41.6088
41.8086
42.0039
42.2298
42.4564
42.7125
43.0215
43.3414
43.7308
44.2365
44.8997
45.7351
46.7418
47.9118
49.2349
50.6993
52.2934
54.0064
55.8275
57.7476
59.7576
61.8492
66.4872
64.2425
62.0487
59.9123
57.8406
55.8416
53.924
52.0977
50.3734
48.7625
47.2785
45.9351
44.7477
43.7327
42.9079
42.2927
41.9117
41.8612
41.9828
42.1574
42.4303
42.7322
43.0041
43.2433
43.4911
43.7318
43.9851
44.2373
44.5153
44.8463
45.1933
45.5961
46.1032
46.7567
47.5735
48.5545
49.6936
50.9817
52.4082
53.9626
55.6347
57.4146
59.2932
61.2621
63.3133
67.5652
65.3368
63.1621
61.0475
59
57.0273
55.1385
53.3428
51.6507
50.0734
48.6235
47.3144
46.1609
45.1782
44.3831
43.7936
43.4323
43.3984
43.538
43.7423
44.0356
44.3658
44.6799
44.9708
45.2665
45.5537
45.8393
46.1193
46.4197
46.7704
47.1412
47.5585
48.0688
48.7147
49.5146
50.4714
51.5807
52.8345
54.2238
55.7388
57.3701
59.1086
60.9452
62.8722
64.882
68.7446
66.538
64.3877
62.2995
60.2807
58.3391
56.4828
54.7209
53.064
51.5225
50.1086
48.835
47.7156
46.7648
45.9978
45.4318
45.0869
45.0599
45.2125
45.4398
45.7501
46.1023
46.4505
46.7867
47.1274
47.46
47.7815
48.0914
48.415
48.7836
49.1754
49.6073
50.1223
50.7621
51.5467
52.4809
53.5616
54.7826
56.1357
57.612
59.203
60.8999
62.6947
64.5798
66.5477
70.0242
67.8441
65.7219
63.6646
61.678
59.7704
57.9493
56.2241
54.6042
53.1001
51.7233
50.4857
49.4003
48.4804
47.7405
47.1959
46.8651
46.8381
46.9993
47.2438
47.5678
47.9369
48.3123
48.686
49.0672
49.4425
49.8016
50.1433
50.4907
50.8766
51.2869
51.7329
52.2536
52.8888
53.6596
54.5727
55.6265
56.816
58.1341
59.5727
61.1241
62.7803
64.5335
66.3769
68.3033
71.4021
69.2516
67.1614
65.1372
63.1857
61.3142
59.5304
57.8433
56.2619
54.7961
53.4566
52.2551
51.2032
50.3137
49.5995
49.0747
48.7562
48.7239
48.8905
49.1472
49.4815
49.8634
50.2598
50.664
51.08
51.4942
51.8906
52.265
52.6373
53.0403
53.4673
53.9269
54.4537
55.0857
55.8443
56.7379
57.7664
58.9259
60.2103
61.6125
63.1252
64.7416
66.4541
68.256
70.1409
72.8747
70.7567
68.7001
66.7114
64.7968
62.9633
61.2182
59.5702
58.0278
56.6004
55.2987
54.1326
53.1137
52.2533
51.5637
51.0571
50.7492
50.7085
50.878
51.1425
51.4839
51.8751
52.2875
52.7153
53.1605
53.6089
54.0409
54.4484
54.8466
55.2666
55.7093
56.1818
56.715
57.3446
58.0925
58.9685
59.9734
61.1044
62.3565
63.7237
65.1992
66.7767
68.4493
70.2107
72.0547
74.4376
72.3539
70.3333
68.3816
66.5049
64.7101
63.0046
61.3961
59.893
58.5044
57.2394
56.1084
55.1215
54.2889
53.6223
53.1328
52.834
52.7829
52.9533
53.2221
53.568
53.9654
54.3894
54.8353
55.3038
55.7813
56.2463
56.6859
57.1103
57.5483
58.0056
58.4905
59.0304
59.6585
60.3973
61.2571
62.2398
63.3442
64.5657
65.8993
67.3389
68.879
70.5126
72.2342
74.0381
76.0866
74.0384
72.0547
70.141
68.3032
66.548
64.8821
63.3132
61.8492
60.4986
59.27
58.173
57.217
56.4114
55.7664
55.2925
55.0013
54.9388
55.1085
55.3788
55.7267
56.1278
56.5597
57.019
57.5056
58.0071
58.5012
58.9714
59.4223
59.8786
60.3504
60.8472
61.3936
62.0213
62.752
63.5969
64.5593
65.6388
66.8315
68.1331
69.5384
71.0418
72.638
74.3211
76.086
79.3709
77.5298
75.7144
73.9276
72.1726
70.4546
68.7793
67.1529
65.5828
64.0765
62.6428
61.2905
60.0294
58.8693
57.821
56.8953
56.1038
55.4591
54.9753
54.672
54.7121
54.9152
55.1874
55.5476
55.9799
56.4519
56.9374
57.4274
57.9224
58.435
58.9793
59.5606
60.1823
60.8479
61.57
62.3667
63.2539
64.2422
65.3365
66.5379
67.8441
69.2517
70.7568
72.354
74.0383
77.5297
75.6779
73.8499
72.048
70.2755
68.5366
66.8371
65.1833
63.583
62.0438
60.5747
59.1852
57.8855
56.6865
55.5993
54.6358
53.8089
53.1318
52.6207
52.297
52.3049
52.506
52.7792
53.1464
53.5897
54.0749
54.5757
55.0844
55.6013
56.1384
56.7093
57.3193
57.9705
58.666
59.4181
60.2451
61.1634
62.184
63.3119
64.5481
65.8902
67.3346
68.877
70.5118
72.2345
75.7125
73.8499
72.0088
70.1918
68.4012
66.6417
64.9185
63.2377
61.6069
60.0344
58.5294
57.1018
55.7624
54.5229
53.3951
52.3923
51.5278
50.8169
50.2764
49.9307
49.9019
50.1022
50.3779
50.7541
51.2114
51.714
52.2355
52.7688
53.3142
53.8821
54.4856
55.1297
55.8157
56.5459
57.3323
58.1931
59.1457
60.2009
61.3644
62.6369
64.016
65.4984
67.0787
68.7519
70.5125
73.9226
72.0478
70.1933
68.3608
66.5521
64.7719
63.0248
61.3169
59.6557
58.0497
56.5081
55.0416
53.6614
52.3799
51.2099
50.1656
49.2618
48.5149
47.9434
47.5732
47.5051
47.7056
47.9849
48.3726
48.8475
49.3721
49.9202
50.4849
51.0652
51.6703
52.3129
52.9969
53.7234
54.4934
55.3185
56.2171
57.2068
58.2991
59.5004
60.8108
62.2283
63.7492
65.3683
67.08
68.8788
72.1625
70.2749
68.4065
66.5578
64.7311
62.9298
61.1585
59.4234
57.7315
56.0916
54.5131
53.0069
51.5848
50.2598
49.046
47.9584
47.0131
46.2281
45.6232
45.2258
45.1175
45.319
45.6031
46.0051
46.5016
47.0534
47.6344
48.2373
48.8597
49.5092
50.1969
50.9269
51.6993
52.5148
53.3834
54.3238
55.3541
56.4864
57.727
59.0768
60.5337
62.0938
63.7517
65.502
67.3392
70.4382
68.5363
66.6527
64.7869
62.9413
61.1183
59.3229
57.5603
55.8376
54.1635
52.5475
51.0009
49.5358
48.1662
46.9068
45.7739
44.785
43.9594
43.3187
42.8913
42.7432
42.9459
43.2364
43.6559
44.1784
44.7634
45.3841
46.0324
46.7041
47.4047
48.1443
48.9261
49.7505
50.6166
51.5339
52.5204
53.5948
54.7697
56.0518
57.4422
58.9394
60.539
62.236
64.0247
65.8993
68.7543
66.8368
64.9365
63.0531
61.1878
59.3428
57.5225
55.7321
53.9784
52.2698
50.6159
49.0282
47.5194
46.1037
44.7971
43.6169
42.5819
41.7133
41.0343
40.5744
40.3879
40.5918
40.8898
41.3304
41.8841
42.5087
43.1766
43.8775
44.6058
45.3646
46.1624
47.0025
47.8844
48.8068
49.7779
50.8151
51.9372
53.1572
54.4824
55.9149
57.4527
59.0921
60.8277
62.6543
64.5657
67.1178
65.1835
63.2653
61.3627
59.4766
57.609
55.7633
53.9448
52.1596
50.4163
48.7242
47.0949
45.5414
44.0784
42.7229
41.4932
40.41
39.4959
38.7764
38.2817
38.059
38.2632
38.5705
39.0358
39.6263
40.2976
41.0202
41.7815
42.5736
43.3976
44.2603
45.1645
46.1096
47.0936
48.1235
49.2159
50.3891
51.6569
53.0271
54.5022
56.0809
57.7598
59.5338
61.3971
63.3441
65.5357
63.5831
61.6459
59.7233
57.8154
55.9242
54.0527
52.2056
50.389
48.6105
46.88
45.2086
43.6095
42.0983
40.6924
39.4115
38.2776
37.3158
36.5533
36.0223
35.7659
35.969
36.2869
36.7811
37.4147
38.1401
38.9253
39.7547
40.6181
41.5142
42.4481
43.4224
44.4357
45.4861
46.5795
47.7309
48.9587
50.2765
51.693
53.2115
54.8313
56.5492
58.3602
60.259
62.2398
64.0158
62.044
60.0866
58.1428
56.2127
54.2971
52.3991
50.523
48.6746
46.8611
45.0919
43.3782
41.7332
40.1729
38.7153
37.3816
36.1952
35.1834
34.376
33.8074
33.5203
33.7198
34.05
34.5778
35.2607
36.048
36.904
37.8094
38.7514
39.7264
40.7377
41.7869
42.873
43.9941
45.1549
46.3692
47.6539
49.0235
50.4875
52.0495
53.7097
55.4653
57.312
59.2445
61.257
62.5668
60.5749
58.5968
56.6312
54.6779
52.7376
50.813
48.9078
47.0273
45.1788
43.3711
41.6149
39.9239
38.3139
36.8039
35.416
34.1756
33.1119
32.2579
31.6513
31.3366
31.5289
31.8733
32.4396
33.1786
34.0354
34.9704
35.9596
36.9873
38.0477
39.1417
40.2705
41.433
42.6277
43.8588
45.138
46.4818
47.9043
49.4158
51.0208
52.7202
54.5119
56.392
58.3557
60.3976
61.1979
59.1854
57.1861
55.1986
53.2218
51.2567
49.3054
47.3711
45.4589
43.5756
41.7297
39.9316
38.1949
36.5353
34.9726
33.5298
32.2341
31.1174
30.2159
29.5714
29.2327
29.4128
29.7739
30.3839
31.1855
32.1194
33.1412
34.2216
35.3416
36.4928
37.6743
38.8859
40.1271
41.3969
42.6988
44.0435
45.4462
46.9212
48.4792
50.1256
51.8622
53.6878
55.5987
57.5908
59.6588
59.9186
57.8856
55.8656
53.856
51.8564
49.8668
47.889
45.9262
43.9832
42.0659
40.1825
38.3434
36.5616
34.8534
33.2384
31.7408
30.3896
29.2192
28.2699
27.5887
27.2309
27.3917
27.7726
28.4316
29.3022
30.3202
31.4358
32.6137
33.8315
35.078
36.3496
37.6457
38.9657
40.3092
41.6797
43.0873
44.5461
46.0707
47.6721
49.3568
51.1276
52.9836
54.9223
56.9396
59.0311
58.7393
56.6864
54.6461
52.6157
50.594
48.581
46.5781
44.5882
42.6155
40.6656
38.7463
36.8676
35.0426
33.287
31.6211
30.0698
28.6637
27.4402
26.444
25.7285
25.3591
25.4909
25.8956
26.609
27.5543
28.662
29.8764
31.1565
32.4755
33.8191
35.1814
36.5603
37.9556
39.3675
40.8002
42.2631
43.7708
45.3381
46.9769
48.6947
50.4948
52.3773
54.3403
56.3798
58.4918
57.6705
55.5992
53.5401
51.4903
49.4483
47.4138
45.3879
43.3731
41.3731
39.3929
37.4403
35.5245
33.6585
31.8581
30.1438
28.5411
27.0823
25.8076
24.767
24.0216
23.6526
23.742
24.1756
24.9483
25.9724
27.173
28.4886
29.872
31.2919
32.7303
34.1787
35.6338
37.0952
38.5641
40.0454
41.5502
43.094
44.6928
46.3599
48.1036
49.9278
51.8329
53.817
55.877
58.0083
56.7234
54.6359
52.5602
50.4934
48.4337
46.3809
44.3353
42.299
40.2753
38.2688
36.2865
34.3374
32.4342
30.5929
28.8339
27.1837
25.676
24.3542
23.2735
22.5054
22.1567
22.1846
22.6539
23.4894
24.5939
25.8865
27.3
28.7816
30.2951
31.8182
33.3397
34.855
36.3644
37.8706
39.3813
40.9102
42.4755
44.095
45.7828
47.5473
49.3924
51.3185
53.3233
55.4034
57.5543
55.9101
53.809
51.7197
49.6392
47.5658
45.4986
43.438
41.3855
39.3437
37.3166
35.3103
33.3337
31.3991
29.5224
27.7245
26.0327
24.4821
23.1193
22.0055
21.2245
20.93
20.8699
21.3826
22.2817
23.4627
24.839
26.3377
27.9013
29.4882
31.072
32.6393
34.1866
35.7168
37.237
38.7587
40.299
41.8781
43.5145
45.222
47.0079
48.8753
50.824
52.851
54.9525
57.124
55.2431
53.1321
51.0331
48.9433
46.8609
44.785
42.7159
40.6546
38.6027
36.5636
34.5424
32.5471
30.5895
28.6858
26.8573
25.1323
23.5476
22.1527
21.0149
20.2315
20.0476
19.8649
20.4278
21.385
22.6285
24.0661
25.6202
27.2291
28.848
30.4495
32.023
33.5696
35.0971
36.6152
38.1384
39.6858
41.2784
42.9336
44.6635
46.4743
48.3676
50.342
52.3942
54.52
56.7143
54.7374
52.6208
50.5168
48.4227
46.3371
44.2595
42.1903
40.1305
38.0808
36.0435
34.0219
32.0226
30.0562
28.1384
26.2915
24.5452
22.9387
21.5237
20.372
19.5904
19.6105
19.2553
19.8711
20.8649
22.1316
23.5789
25.1298
26.7238
28.3187
29.8916
31.4373
32.9618
34.4734
35.9817
37.5015
39.0533
40.6578
42.3316
44.0847
45.9216
47.8426
49.8451
51.925
54.0774
56.2971
54.4142
52.2975
50.1933
48.1001
46.0173
43.9458
41.8873
39.8437
37.8175
35.8113
33.829
31.8763
29.962
28.0992
26.306
24.6073
23.0378
21.6446
20.4912
19.6626
19.284
19.2452
19.7296
20.6427
21.8495
23.2456
24.7477
26.2891
27.8272
29.3452
30.8458
32.3376
33.8268
35.3209
36.8342
38.3881
40.0032
41.6947
43.4708
45.3344
47.2839
49.3158
51.425
53.6062
55.8539
54.381
52.3044
50.2424
48.1892
46.1419
44.1
42.0648
40.0392
38.0266
36.0306
34.0562
32.1099
30.2008
28.3426
26.5544
24.8621
23.3011
21.9184
20.7763
19.9596
19.6087
19.6081
19.8004
20.5947
21.716
23.0396
24.4698
25.925
27.3709
28.8095
30.2516
31.7034
33.1646
34.6391
36.1419
37.695
39.3188
41.0267
42.8251
44.7147
46.6927
48.7544
50.8938
53.105
55.382
54.573
52.5058
50.4543
48.4137
46.3806
44.3536
42.3329
40.3205
38.3194
36.3335
34.3679
32.4299
30.5298
28.6821
26.9072
25.2327
23.6949
22.3407
21.233
20.4608
20.2209
20.2389
20.3552
21.0675
22.0681
23.2139
24.4207
25.6663
26.9587
28.2978
29.6764
31.0847
32.5133
33.9641
35.4533
37.0037
38.6347
40.3575
42.1763
44.0899
46.0941
48.1833
50.3506
52.5898
54.8943
54.8418
52.7793
50.7336
48.7
46.6752
44.6573
42.6464
40.6443
38.6541
36.68
34.728
32.8066
30.9275
29.1071
27.3671
25.7356
24.2489
22.9529
21.9071
21.1962
21.0444
21.0721
21.1519
21.7149
22.4866
23.3127
24.2718
25.3706
26.5806
27.8642
29.1912
30.5498
31.9346
33.3516
34.8201
36.3626
37.9961
39.7292
41.5635
43.4961
45.5216
47.6331
49.8235
52.0859
54.4135
55.2061
53.1463
51.1044
49.0766
47.0591
45.0505
43.0511
41.0628
39.0889
37.1345
35.207
33.3161
31.4751
29.7016
28.0181
26.4528
25.0406
23.8246
22.859
22.2185
22.1192
22.15
22.2104
22.6536
23.2906
24.0014
24.7994
25.6914
26.6782
27.759
28.9327
30.1839
31.4938
32.8592
34.2949
35.8197
37.4469
39.1819
41.0238
42.9678
45.0072
47.1341
49.3411
51.6204
53.9654
55.6516
53.5894
51.5464
49.519
47.5048
45.5024
43.5121
41.536
39.5782
37.6445
35.7437
33.8876
32.0912
30.3733
28.7573
27.2711
25.949
24.8317
23.9696
23.4272
23.3642
23.3952
23.4436
23.785
24.3006
24.873
25.4427
26.0274
26.7742
27.6976
28.7706
29.9493
31.1938
32.4994
33.8885
35.3823
36.9925
38.7205
40.5626
42.5117
44.5596
46.6975
48.9166
51.2092
53.5679
56.1484
54.0746
52.0211
49.9858
47.967
45.9644
43.9786
42.012
40.0691
38.1569
36.2855
34.4678
32.7201
31.062
29.517
28.1131
26.8837
25.8694
25.1202
24.7055
24.672
24.7031
24.7442
24.9971
25.3894
25.8056
26.1658
26.5401
27.1989
28.0334
28.9671
29.965
31.0414
32.228
33.5436
34.9963
36.5857
38.3063
40.1493
42.1045
44.1619
46.3112
48.5432
50.8494
53.222
56.6708
54.5757
52.5026
50.4507
48.4204
46.4123
44.4282
42.4711
40.5457
38.6601
36.8242
35.0516
33.359
31.7662
30.2965
28.9779
27.843
26.9315
26.2926
26.0047
25.9928
26.0225
26.0577
26.2368
26.5151
26.7926
27.0062
27.2489
27.794
28.3758
29.0363
29.8495
30.8244
31.9535
33.235
34.6683
36.2488
37.9678
39.8144
41.7769
43.8439
46.0045
48.2487
50.5676
52.9532
57.2075
55.0843
52.9853
50.9117
48.8653
46.848
44.8628
42.9133
41.0048
39.1451
37.3444
35.6162
33.9772
32.4478
31.0521
29.8185
28.7805
27.9772
27.4555
27.2775
27.2805
27.3081
27.3384
27.4608
27.6449
27.8173
27.9398
28.096
28.5173
28.9077
29.3585
30.0199
30.8706
31.9051
33.1228
34.5162
36.0731
37.7793
39.6203
41.5819
43.6509
45.8156
48.0654
50.3906
52.7829
57.7561
55.6012
53.4734
51.3753
49.3098
47.2802
45.2907
43.3458
41.4512
39.6145
37.8455
36.1571
34.5659
33.0929
31.7629
30.606
29.6576
28.9608
28.5708
28.4792
28.493
28.52
28.548
28.6346
28.7511
28.8549
28.9675
29.0858
29.4066
29.6751
30.008
30.5923
31.3658
32.3266
33.4771
34.8115
36.3177
37.9809
39.7856
41.7169
43.7611
45.9053
48.1388
50.4513
52.8341
58.3241
56.1385
53.9828
51.8608
49.777
47.7357
45.7418
43.8009
41.9192
40.1046
38.3667
36.718
35.1746
33.7568
32.4896
31.403
30.5331
29.9256
29.6557
29.6194
29.6386
29.664
29.6896
29.7583
29.8344
29.9006
30.0483
30.1636
30.402
30.5841
30.8315
31.3402
32.0275
32.912
34.0011
35.2874
36.756
38.3893
40.1699
42.0814
44.1087
46.2386
48.4593
50.7603
53.1328
58.9232
56.7095
54.5287
52.3854
50.2843
48.2308
46.2307
44.2904
42.4174
40.6205
38.91
37.299
35.8034
34.4425
33.2403
32.2254
31.4322
30.9042
30.7309
30.7245
30.7448
30.7678
30.7905
30.8525
30.9084
30.9572
31.1341
31.2598
31.4476
31.5964
31.7972
32.2463
32.8686
33.6973
34.7406
35.9886
37.4238
39.0277
40.7818
42.6689
44.6737
46.7827
48.984
51.267
53.6224
59.5589
57.3195
55.1148
52.95
50.8301
48.7613
46.7502
44.8047
42.9336
41.1474
39.4581
37.8795
36.4282
35.1234
33.9876
33.0483
32.3379
31.8973
31.7977
31.8067
31.8556
31.8867
31.907
31.959
32.0126
32.0615
32.2477
32.3862
32.5599
32.7224
32.9143
33.3248
33.9046
34.6941
35.7008
36.9137
38.3153
39.8864
41.6091
43.4661
45.4421
47.5237
49.6989
51.9571
54.2891
60.2338
57.9707
55.7438
53.5583
51.4199
49.3357
47.3133
45.3616
43.4911
41.7132
40.0415
38.4907
37.0781
35.8232
34.7485
33.8804
33.2514
32.9056
32.8591
32.8773
32.981
33.0479
33.0806
33.1268
33.1944
33.2589
33.4455
33.5987
33.7818
33.9803
34.1891
34.579
35.1323
35.8927
36.8676
38.0466
39.4131
40.9485
42.6355
44.4572
46.3989
48.4473
50.5907
52.8185
55.1213
60.9504
58.6662
56.4196
54.2158
52.0618
49.9647
47.9334
45.9773
44.1079
42.3378
40.6814
39.1546
37.7756
36.5645
35.5438
34.7403
34.1867
33.9377
33.9371
33.9749
34.1355
34.2616
34.3312
34.3907
34.4852
34.5778
34.7669
34.9376
35.1402
35.3785
35.618
36.0006
36.5383
37.2757
38.2218
39.3676
40.6978
42.1952
43.8431
45.6258
47.529
49.5398
51.6466
53.8392
56.1083
61.7181
59.4181
57.1576
54.9426
52.78
50.6779
48.6453
46.6924
44.8311
43.0744
41.437
39.9356
38.5885
37.4163
36.4416
35.6907
35.1963
35.031
35.0742
35.1472
35.3536
35.5435
35.6693
35.7654
35.897
36.0266
36.225
36.4163
36.6418
36.9164
37.191
37.5759
38.1049
38.8237
39.7433
40.8565
42.1499
43.6078
45.2146
46.9558
48.8174
50.7872
52.8539
55.0077
57.2394
62.5526
60.2451
57.9796
55.7629
53.6016
51.5047
49.4809
47.5409
45.6963
43.9606
42.3482
40.876
39.562
38.4264
37.4916
36.7828
36.3316
36.2287
36.3105
36.4269
36.6686
36.9141
37.1024
37.2521
37.4287
37.6014
37.8175
38.0322
38.2811
38.5864
38.8956
39.2892
39.8144
40.518
41.4129
42.4946
43.7513
45.1691
46.734
48.4318
50.2499
52.1765
54.2006
56.3128
58.5042
63.4697
61.1636
58.9027
56.6937
54.5437
52.4614
50.4557
48.5371
46.7173
45.0092
43.4275
41.9882
40.7091
39.6097
38.7114
38.0377
37.6184
37.5571
37.6701
37.8291
38.0992
38.3891
38.6361
38.8462
39.0728
39.2928
39.534
39.7748
40.0471
40.378
40.7189
41.1252
41.65
42.341
43.2132
44.2645
45.4853
46.8634
48.3857
50.0397
51.8131
53.695
55.6751
57.7438
59.893
64.4802
62.1843
59.9366
57.7439
55.6134
53.5535
51.5732
49.6829
47.894
46.2191
44.6723
43.2691
42.0264
40.963
40.0989
39.456
39.0616
39.0249
39.1614
39.3573
39.651
39.9755
40.2729
40.5419
40.8201
41.0894
41.362
41.6313
41.927
42.2799
42.6484
43.0694
43.5963
44.2768
45.1282
46.1509
47.3369
48.676
50.1563
51.7664
53.495
55.3314
57.2663
59.2905
61.396
65.5907
63.3122
61.0849
58.9154
56.8108
54.7795
52.8305
50.9736
49.2201
47.5822
46.0733
44.7082
43.5031
42.4755
41.6441
41.0289
40.6549
40.63
40.7834
41.0086
41.3222