<VTKFile type="ImageData" version="1.0" byte_order="LittleEndian" header_type="UInt64">
	<ImageData WholeExtent="0 44 0 44 0 44" Origin="-72.1344 -72.1344 -72.1344" Spacing="3.27884 3.27884 3.27884">
		<Piece Extent="0 44 0 44 0 44">
			<PointData Scalars="Scalars_">
				<DataArray type="Float32" Name="Scalars_" format="ascii" RangeMin="0" RangeMax="100">
75.8247
73.974
72.1673
70.4059
68.6895
67.0195
65.3977
63.8279
62.3149
60.8651
59.4861
58.1872
56.9782
55.8698
54.8736
54.0016
53.2665
52.6814
52.26
52.0172
52.0143
52.0334
52.1565
52.3812
52.6584
52.9532
53.2571
53.6326
54.126
54.7493
55.4997
56.3701
57.3513
58.4337
59.6083
60.8669
62.2016
63.6061
65.0762
66.6085
68.2002
69.8504
71.5581
73.3222
75.1424
73.9738
72.1008
70.2736
68.4927
66.7576
65.0693
63.4293
61.8404
60.3072
58.8358
57.4336
56.1099
54.8751
53.7401
52.7171
51.8189
51.0591
50.452
50.0123
49.7563
49.7483
49.7771
49.8951
50.1137
50.3805
50.6633
50.958
51.3303
51.8282
52.4627
53.2302
54.1218
55.1279
56.238
57.4424
58.7323
60.0991
61.5366
63.0401
64.6055
66.2307
67.9139
69.6541
71.4511
73.3037
72.1673
70.2729
68.4258
66.6258
64.8736
63.1687
61.5126
59.9075
58.3568
56.8664
55.4436
54.0973
52.8382
51.6777
50.6284
49.7042
48.9191
48.2889
47.8292
47.5584
47.5419
47.5766
47.6862
47.8944
48.1459
48.4128
48.697
49.0661
49.5692
50.2164
51.0024
51.9174
52.9508
54.091
55.3276
56.6509
58.0521
59.5245
61.0628
62.6627
64.3223
66.0394
67.8134
69.6434
71.5284
70.4057
68.4895
66.6224
64.8048
63.0363
61.3169
59.6472
58.0284
56.4638
54.9579
53.5175
52.1515
50.8703
49.6859
48.6115
47.6613
46.8508
46.1962
45.7151
45.4276
45.399
45.4351
45.5329
45.7263
45.9578
46.2059
46.4793
46.8455
47.3552
48.0167
48.8233
49.7641
50.8269
51.9994
53.2705
54.6293
56.0668
57.5756
59.1499
60.7856
62.4801
64.2318
66.0396
67.9022
69.8197
68.6895
66.7511
64.864
63.0288
61.2452
59.5129
57.8318
56.2027
54.6273
53.1098
51.6556
50.2735
48.9734
47.7675
46.6693
45.694
44.8575
44.1776
43.6735
43.3668
43.3226
43.3548
43.4377
43.6123
43.8199
44.0475
44.3114
44.6758
45.1936
45.8713
46.7008
47.6697
48.7643
49.9714
51.2789
52.675
54.1501
55.6963
57.3075
58.9795
60.7091
62.4951
64.3361
66.2313
68.18
67.0193
65.0583
63.151
61.2981
59.4996
57.7553
56.0649
54.428
52.8459
51.3208
49.8575
48.4635
47.1482
45.9237
44.8039
43.8042
42.9417
42.2354
41.706
41.3776
41.3145
41.3375
41.4029
41.5556
41.737
41.9441
42.2012
42.5657
43.0935
43.7899
44.6444
45.6436
46.7723
48.0159
49.3612
50.796
52.3095
53.8936
55.5417
57.2493
59.0136
60.8328
62.706
64.6323
66.6109
65.3978
63.413
61.4843
59.6129
57.7995
56.0438
54.3451
52.7029
51.117
49.5885
48.1207
46.7193
45.3932
44.1539
43.0149
41.9922
41.1038
40.3698
39.8128
39.4598
39.3744
39.3834
39.4304
39.56
39.7153
39.904
40.1583
40.5254
41.0657
41.7829
42.6652
43.6968
44.8613
46.1428
47.527
49.0008
50.5527
52.1742
53.8584
55.6003
57.3974
59.2481
61.1516
63.1068
65.1133
63.8279
61.8184
59.8669
57.976
56.1463
54.3785
52.6717
51.0254
49.4382
47.9101
46.4421
45.0382
43.7059
42.4554
41.3001
40.2559
39.3416
38.5786
37.9915
37.6108
37.4997
37.4915
37.5213
37.6295
37.762
37.9367
38.1939
38.5671
39.1226
39.8634
40.7756
41.8413
43.0428
44.3629
45.7861
47.2983
48.8876
50.5448
52.2627
54.0364
55.8637
57.7429
59.6734
61.6548
63.6864
62.315
60.2791
58.3035
56.3911
54.5435
52.7619
51.0462
49.3958
47.8085
46.283
44.8182
43.416
42.0817
40.8239
39.655
38.5906
37.6502
36.8566
36.2372
35.8257
35.6859
35.6596
35.6761
35.7687
35.8858
36.0535
36.3209
36.7048
37.2789
38.0457
38.9895
40.0906
41.3295
42.6879
44.1488
45.6973
47.3214
49.0109
50.7588
52.5605
54.4138
56.3174
58.2712
60.2748
62.328
60.8652
58.8015
56.8
54.8642
52.9965
51.199
49.4726
47.8164
46.2287
44.7063
43.2468
41.8493
40.5161
39.2538
38.0732
36.9897
36.0228
35.1973
34.5433
34.0987
33.9276
33.8849
33.8944
33.9825
34.0963
34.2674
34.5536
34.9541
35.5506
36.3458
37.3226
38.4593
39.7349
41.1295
42.6252
44.2065
45.8606
47.5772
49.3497
51.1736
53.0472
54.9699
56.9418
58.9633
61.0343
59.4864
57.3941
55.3651
53.4039
51.5138
49.6978
47.9577
46.2932
44.7029
43.1829
41.7288
40.3369
39.0063
37.7409
36.5496
35.4469
34.4531
33.5945
32.9046
32.4255
32.2213
32.1662
32.1767
32.2764
32.4042
32.5922
32.9075
33.3326
33.9557
34.7816
35.7915
36.9627
38.2721
39.699
41.2244
42.8323
44.5095
46.2458
48.0352
49.8739
51.7607
53.6962
55.6808
57.7155
59.8005
58.1874
56.0657
54.0082
52.0201
50.1056
48.2684
46.5114
44.8355
43.2394
41.7192
40.2687
38.8815
37.5532
36.2844
35.082
33.9597
32.9382
32.0464
31.3208
30.8076
30.5702
30.5064
30.5255
30.6566
30.8203
31.0424
31.3988
31.8583
32.5131
33.3708
34.4129
35.6151
36.9535
38.406
39.9531
41.5785
43.269
45.0153
46.812
48.6566
50.5489
52.4905
54.4826
56.5263
58.6222
56.9783
54.8273
52.741
50.7249
48.7842
46.9236
45.1468
43.4561
41.8505
40.3263
38.8763
37.4912
36.1631
34.889
33.6741
32.5314
31.4827
30.5589
29.7996
29.2545
28.987
28.9161
28.949
29.1317
29.3563
29.6331
30.0427
30.5483
31.2402
32.1303
33.2013
34.4286
35.7874
37.2553
38.8128
40.4435
42.1353
43.8799
45.6733
47.5147
49.4052
51.3472
53.3426
55.3926
57.4977
55.8699
53.6904
51.5755
49.5314
47.5637
45.6781
43.8795
42.1707
40.552
39.0198
37.5662
36.1794
34.848
33.5659
32.3365
31.1731
30.0986
29.1458
28.357
27.7853
27.4954
27.4159
27.4641
27.7146
28.0244
28.3777
28.8505
29.4141
30.1483
31.0696
32.1636
33.4064
34.7736
36.2434
37.7968
39.419
41.0988
42.8301
44.6108
46.4414
48.3247
50.2635
52.2599
54.315
56.4287
54.8734
52.6673
50.5253
48.4539
46.4597
44.5488
42.727
40.998
39.3632
37.8193
36.3578
34.965
33.6263
32.3327
31.0867
29.9027
28.8047
27.8275
27.0152
26.4253
26.1286
26.0362
26.0976
26.4247
26.8375
27.2859
27.8234
28.4505
29.2293
30.1783
31.2868
32.5334
33.8954
35.3527
36.8884
38.4895
40.1469
41.8564
43.6176
45.4331
47.3065
49.2409
51.2381
53.2987
55.4218
54.0014
51.7712
49.6045
47.5081
45.4888
43.5537
41.709
39.9592
38.3065
36.7481
35.2752
33.8726
32.5226
31.2142
29.9496
28.745
27.626
26.6291
25.8008
25.2046
24.9283
24.8171
24.8845
25.2872
25.8053
26.3554
26.9419
27.6167
28.4324
29.404
30.5215
31.7651
33.1147
34.5526
36.0643
37.6387
39.2689
40.9528
42.6923
44.4917
46.3552
48.2859
50.2852
52.3524
54.486
53.2666
51.0161
48.8286
46.7106
44.6697
42.713
40.8473
39.0779
37.4076
35.8337
34.3476
32.9327
31.5689
30.2433
28.9592
27.7345
26.5966
25.5842
24.7462
24.157
23.9482
23.8085
23.8682
24.3313
24.9275
25.5549
26.1591
26.8418
27.6752
28.6664
29.798
31.0465
32.3913
33.8162
35.3083
36.8583
38.4621
40.1206
41.8391
43.6235
45.4789
47.4081
49.4114
51.4873
53.6331
52.6813
50.4161
48.2132
46.0793
44.022
42.0485
40.1664
38.3811
36.6957
35.1083
33.6096
32.1821
30.8042
29.462
28.1594
26.917
25.763
24.7389
23.8963
23.3217
23.2658
23.078
23.1084
23.5979
24.1946
24.8188
25.4324
26.1173
26.9589
27.9641
29.1101
30.3691
31.7174
33.1373
34.6161
36.1459
37.7262
39.3626
41.0636
42.8371
44.6883
46.6193
48.6295
50.7163
52.8759
52.2597
49.9867
47.7753
45.633
43.5668
41.5846
39.6934
37.8993
36.2053
34.6093
33.1022
31.6658
30.2776
28.9233
27.6078
26.3532
25.1884
24.1579
23.3139
22.7499
23.0512
22.7303
22.6915
23.1368
23.6121
24.1327
24.7047
25.3942
26.2529
27.2774
28.4417
29.7163
31.0756
32.4995
33.9739
35.4922
37.0579
38.6809
40.3728
42.143
43.9964
45.9343
47.9551
50.0551
52.2297
52.0172
49.7443
47.5338
45.3928
43.3291
41.3499
39.4624
37.6718
35.9805
34.3862
32.8793
31.4435
30.0583
28.7098
27.4011
26.1512
24.9883
23.9615
23.12
22.5587
22.9448
23.083
22.8777
22.887
23.1625
23.5102
23.9844
24.6535
25.5254
26.5743
27.7648
29.0641
30.4446
31.8847
33.369
34.8921
36.4598
38.085
39.7815
41.559
43.4225
45.3726
47.4072
49.5222
51.7126
52.0144
49.7464
47.5378
45.395
43.3237
41.3302
39.4197
37.5972
35.8659
34.2269
32.6782
31.214
29.8251
28.5007
27.2335
26.0251
24.8951
23.8896
23.0696
22.5617
22.8842
23.1695
23.0135
22.5747
22.7853
23.0133
23.3332
23.9629
24.8424
25.914
27.131
28.4562
29.8602
31.322
32.8269
34.3698
35.9569
37.6011
39.3158
41.1109
42.9915
44.9582
47.0087
49.1392
51.3445
52.0332
49.7556
47.5327
45.3699
43.2726
41.2471
39.2994
37.4354
35.6604
33.9786
32.391
30.8958
29.4889
28.166
26.9245
25.7678
24.7111
23.7841
23.0569
22.6658
22.8323
23.0349
23.2286
22.9411
22.7547
22.6576
22.8347
23.4308
24.303
25.3778
26.6049
27.9443
29.3651
30.8472
32.3779
33.9525
35.5746
37.2536
39.0005
40.8236
42.728
44.7147
46.7826
48.9281
51.1465
52.1565
49.887
47.6707
45.5119
43.4146
41.383
39.4211
37.5318
35.7172
33.9792
32.3199
30.7432
29.2539
27.8615
26.5779
25.4148
24.387
23.5275
22.8928
22.534
22.6553
22.8431
23.0514
23.3231
23.0861
22.7701
22.4663
23.0496
23.9163
24.9883
26.2209
27.5731
29.0111
30.5135
32.0709
33.6812
35.3466
37.0727
38.8659
40.7315
42.6724
44.6891
46.7802
48.9431
51.1738
52.3811
50.1257
47.9212
45.7706
43.676
41.6396
39.662
37.7432
35.8828
34.0809
32.3416
30.6761
29.1038
27.6472
26.3274
25.1619
24.1653
23.3627
22.8215
22.6094
22.4428
22.6056
22.8059
23.0581
23.171
23.1743
22.9386
23.1823
23.8659
24.8485
26.056
27.4324
28.9317
30.5163
32.1571
33.8383
35.5582
37.3227
39.1412
41.0219
42.9705
44.9898
47.0799
49.239
51.4642
52.6586
50.4197
48.2289
46.0882
43.9977
41.9578
39.9677
38.0265
36.1343
34.2946
32.5149
30.8087
29.1942
27.6933
26.3301
25.1331
24.1383
23.3918
22.9545
22.7462
22.5683
22.505
22.6805
22.784
22.7506
22.7073
22.6452
23.1246
23.926
24.9766
26.2235
27.6237
29.1402
30.7415
32.4038
34.1128
35.8638
37.659
39.5046
41.407
43.3714
45.4005
47.4954
49.6549
51.877
52.9533
50.729
48.5502
46.4167
44.3276
42.2812
40.2757
38.3098
36.3843
34.5042
32.6784
30.9215
29.253
27.698
26.2879
25.0625
24.0713
23.3811
23.1113
22.9282
22.856
22.8372
22.9477
23.0358
23.0446
23.041
23.1621
23.6561
24.441
25.4669
26.6863
28.0586
29.5493
31.1298
32.7789
34.4841
36.2407
38.0493
39.9129
41.8348
43.8172
45.8613
47.9671
50.1333
52.358
53.2573
51.0437
48.8746
46.7483
44.6632
42.6175
40.6096
38.6389
36.7084
34.8244
32.9974
31.2424
29.5788
28.0304
26.6278
25.4097
24.428
23.7571
23.5707
23.4499
23.4227
23.4289
23.5083
23.5907
23.6167
23.6328
23.8977
24.4294
25.2026
26.1906
27.3589
28.6747
30.1098
31.641
33.2513
34.9311
36.6757
38.4841
40.3559
42.2913
44.2893
46.3489
48.468
50.6448
52.8766
53.6327
51.4335
49.2792
47.1685
45.0995
43.0697
41.0779
39.1242
37.2117
35.3472
33.5415
31.8096
30.1708
28.649
27.2744
26.0856
25.133
24.4877
24.314
24.2499
24.2415
24.2547
24.3106
24.3754
24.4003
24.447
24.7989
25.3692
26.1383
27.0901
28.2029
29.4533
30.8196
32.2849
33.8381
35.4732
37.1874
38.9783
40.8439
42.7813
44.7869
46.8568
48.9873
51.1746
53.415
54.126
51.9456
49.8115
47.7223
45.6763
43.6711
41.705
39.7787
37.895
36.0609
34.2872
32.589
30.9857
29.5012
28.1653
27.0152
26.098
25.4773
25.281
25.2187
25.1937
25.2095
25.2492
25.3001
25.3219
25.417
25.8272
26.4309
27.2006
28.1225
29.1837
30.3672
31.6584
33.0481
34.5323
36.11
37.7799
39.5401
41.3865
43.3141
45.3172
47.3897
49.5259
51.7201
53.9677
54.7494
52.5903
50.4792
48.4149
46.3952
44.4182
42.4822
40.5877
38.7375
36.9387
35.202
33.5429
31.9806
30.5389
29.2468
28.1393
27.259
26.659
26.421
26.307
26.2208
26.219
26.3083
26.3715
26.3924
26.5126
26.9547
27.5807
28.3519
29.2511
30.2679
31.3899
32.609
33.9247
35.3402
36.8591
38.4815
40.2049
42.0242
43.9327
45.923
47.9882
50.1208
52.314
54.5622
55.4997
53.3635
51.2766
49.2378
47.2454
45.2973
43.3921
41.5302
39.7148
37.9529
36.2556
34.6378
33.1191
31.7226
30.4763
29.4124
28.5679
27.9827
27.6908
27.4964
27.3333
27.2882
27.4269
27.5145
27.5413
27.6895
28.1479
28.7869
29.5598
30.4443
31.4285
32.5023
33.6627
34.9166
36.2736
37.7402
39.3179
41.0038
42.7921
44.6754
46.6457
48.6945
50.8143
52.9975
55.2377
56.3701
54.2569
52.1939
50.18
48.2137
46.2929
44.417
42.5865
40.8048
39.0795
37.4213
35.8456
34.3713
33.0209
31.8208
30.7998
29.9879
29.4102
29.0591
28.7806
28.5455
28.4414
28.5722
28.6465
28.6914
28.8968
29.3732
30.0235
30.8014
31.6816
32.6491
33.6937
34.8152
36.025
37.337
38.7605
40.2985
41.9484
43.7044
45.5589
47.5035
49.5298
51.6298
53.7956
56.0206
57.3513
55.2603
53.22
51.229
49.2862
47.3903
45.5408
43.7391
41.9891
40.2984
38.6784
37.1442
35.7139
34.4093
33.2544
32.274
31.4907
30.9137
30.5051
30.1524
29.8553
29.6889
29.7525
29.7689
29.8316
30.1082
30.6145
31.2829
32.0731
32.9603
33.927
34.9616
36.064
37.2471
38.5276
39.9174
41.421
43.037
44.7605
46.5841
48.4998
50.4993
52.5743
54.7171
56.9208
58.4337
56.3636
54.3436
52.3731
50.4512
48.5768
46.7504
44.974
43.2525
41.5941
40.0103
38.516
37.1286
35.8685
34.7569
33.8144
33.0555
32.4741
32.0145
31.6012
31.2509
31.023
30.9829
30.9294
31.0069
31.3432
31.8849
32.5783
33.3882
34.2911
35.2686
36.3078
37.4066
38.5776
39.8381
41.2023
42.6766
44.2615
45.953
47.745
49.6296
51.599
53.6455
55.7615
57.9399
59.6084
57.5573
55.5554
53.6025
51.698
49.8417
48.0351
46.2808
44.585
42.9561
41.4062
39.9496
38.6031
37.3853
36.3148
35.4074
34.6694
34.0812
33.5798
33.1188
32.7224
32.4338
32.2895
32.1787
32.2707
32.6456
33.2175
33.9357
34.7673
35.6895
36.6837
37.7356
38.8409
40.0096
41.2589
42.6041
44.0538
45.6102
47.2711
49.0311
50.8838
52.8217
54.8372
56.9236
59.0736
60.8668
58.8324
56.8464
54.9086
53.0189
51.1779
49.3881
47.6535
45.9809
44.3794
42.8612
41.4403
40.1327
38.9551
37.9231
37.0481
36.3284
35.7338
35.2007
34.7038
34.2689
33.9256
33.6988
33.5487
33.656
34.0519
34.6431
35.3799
36.2295
37.1692
38.1802
39.2471
40.3633
41.5359
42.7802
44.1117
45.5407
47.0713
48.7031
50.432
52.2524
54.1578
56.1413
58.196
60.3155
62.2014
60.182
58.2097
56.2849
54.4082
52.5809
50.8065
49.0902
47.4395
45.8642
44.3764
42.9898
41.7191
40.5793
39.5835
38.7384
38.0357
37.4371
36.8825
36.3606
35.8959
35.5094
35.2261
35.0523
35.1751
35.5804
36.1802
36.9267
37.7875
38.7393
39.7631
40.8433
41.9709
43.1496
44.3923
45.7138
47.1254
48.633
50.2375
51.9362
53.7248
55.5976
57.5484
59.5706
61.6585
63.6061
61.6004
59.6406
57.7277
55.8631
54.0492
52.2903
50.5923
48.9637
47.4146
45.9567
44.6031
43.3679
42.2641
41.302
40.4847
39.7982
39.1991
38.6322
38.0949
37.61
37.1939
36.8763
36.6898
36.8277
37.2352
37.835
38.5828
39.4469
40.4039
41.4349
42.5236
43.6601
44.8445
46.0869
47.4008
48.7975
50.2842
51.8631
53.5331
55.2908
57.1314
59.0493
61.0388
63.0941
65.0761
63.0834
61.1359
59.235
57.383
55.5833
53.8409
52.1627
50.5572
49.0349
47.6071
46.2863
45.0851
44.0153
43.0849
42.2935
41.6228
41.0268
40.4553
39.9112
39.4149
38.9818
38.6461
38.455
38.6064
39.0119
39.606
40.3482
41.2083
42.1636
43.1951
44.2869
45.4277
46.6155
47.8569
49.164
50.5473
52.0149
53.5701
55.2128
56.9405
58.7496
60.6353
62.5921
64.6149
66.6082
64.6286
62.6938
60.8061
58.9683
57.1846
55.4607
53.8041
52.2235
50.7288
49.3316
48.0433
46.8752
45.8378
44.937
44.1697
43.5145
42.9245
42.3546
41.8104
41.3106
40.8705
40.5282
40.3381
40.5013
40.9023
41.4867
42.2182
43.0685
44.0158
45.0417
46.1305
47.2706
48.4579
49.6966
50.9963
52.3669
53.8167
55.3493
56.9661
58.6653
60.444
62.298
64.2226
66.2129
68.2001
66.2344
64.3136
62.4408
60.6193
58.854
57.1512
55.5182
53.9641
52.4987
51.1325
49.8762
48.7404
47.7337
46.8604
46.1154
45.4752
44.8935
44.3297
43.7906
43.2935
42.8541
42.5133
42.3283
42.5014
42.8964
43.4687
44.186
45.0222
45.9564
46.9711
48.0513
49.1853
50.3681
51.6011
52.8922
54.2501
55.6824
57.1935
58.7855
60.4572
62.2064
64.0298
65.9228
67.8813
69.8503
67.8999
65.9952
64.1393
62.3367
60.5923
58.9129
57.3058
55.7798
54.3444
53.0094
51.7849
50.6802
49.7025
48.8551
48.1307
47.5049
46.9329
46.3783
45.8481
45.3582
44.9251
44.591
44.4147
44.5958
44.9842
45.5429
46.2436
47.0624
47.9795
48.9786
50.0455
51.169
52.3426
53.5667
54.8471
56.1914
57.6063
59.0966
60.6644
62.3096
64.0305
65.8238
67.6865
69.6138
71.5582
69.6248
67.7381
65.9018
64.1202
62.3991
60.7452
59.1659
57.6692
56.2644
54.9608
53.7674
52.6926
51.7426
50.919
50.2136
49.6012
49.0397
48.4963
47.9776
47.498
47.0752
46.7515
46.5868
46.7744
47.1555
47.7002
48.3832
49.1822
50.0797
51.0599
52.1095
53.2179
54.3785
55.5904
56.8577
58.1867
59.5837
61.0534
62.5979
64.2171
65.9102
67.6746
69.5074
71.4047
73.3223
71.4082
69.5415
67.7271
65.969
64.2733
62.6465
61.0962
59.6299
58.2561
56.9836
55.8206
54.7744
53.8504
53.0488
52.3605
51.7609
51.2099
50.6788
50.1732
49.7061
49.2963
48.9852
48.8349
49.0274
49.4016
49.9322
50.5966
51.3748
52.2505
53.2093
54.2388
55.3287
56.4727
57.6692
58.921
60.2333
61.6115
63.0599
64.581
66.1752
67.8412
69.5776
71.3811
73.2487
75.1427
73.2489
71.4048
69.6141
67.8814
66.213
64.6149
63.0944
61.6587
60.316
59.0739
57.9405
56.9217
56.0219
55.2406
54.5677
53.9796
53.439
52.9206
52.4289
51.976
51.5806
51.2837
51.1501
51.3466
51.7138
52.2303
52.8763
53.6333
54.4862
55.4219
56.4288
57.4977
58.6224
59.8004
61.0343
62.3283
63.6864
65.1132
66.6109
68.1799
69.8198
71.5285
73.3037
75.1423
73.9741
72.1012
70.2731
68.4899
66.7514
65.0585
63.4132
61.8184
60.2791
58.8016
57.394
56.0657
54.8274
53.6904
52.6673
51.7713
51.0162
50.4163
49.9868
49.7443
49.746
49.7558
49.8872
50.1259
50.4195
50.7288
51.0438
51.4334
51.9454
52.5902
53.3635
54.2569
55.2604
56.3636
57.5572
58.8324
60.182
61.6004
63.0834
64.6285
66.2341
67.8997
69.6246
71.4078
73.2489
72.101
70.204
68.353
66.548
64.7886
63.0753
61.4093
59.7932
58.2315
56.7301
55.297
53.9416
52.6748
51.5089
50.4566
49.5321
48.7504
48.1271
47.6782
47.4222
47.4222
47.4456
47.5745
47.8103
48.0971
48.3974
48.7041
49.0913
49.6083
50.265
51.056
51.9712
53.0002
54.1316
55.3556
56.6626
58.0448
59.4964
61.013
62.592
64.2315
65.9309
67.6894
69.5064
71.3814
70.2739
68.3531
66.4796
64.6535
62.8744
61.1423
59.458
57.8233
56.2418
54.7191
53.2629
51.8824
50.5889
49.3949
48.314
47.361
46.5522
45.904
45.4343
45.1631
45.1573
45.1911
45.3137
45.5419
45.8163
46.1028
46.3992
46.7831
47.3058
47.9757
48.786
49.7256
50.7827
51.9451
53.202
54.5433
55.9608
57.4479
59.0002
60.6147
62.2897
64.024
65.8174
67.6688
69.5778
68.4928
66.5479
64.6522
62.8055
61.008
59.2589
57.5585
55.908
54.3103
52.7698
51.2936
49.891
48.5731
47.3527
46.2442
45.2631
44.4264
43.7524
43.2603
42.9719
42.9563
42.9959
43.1083
43.3239
43.5799
43.8484
44.1334
44.5137
45.0431
45.7279
46.5598
47.5264
48.6143
49.8106
51.1033
52.4815
53.9365
55.4611
57.0509
58.7023
60.4137
62.1841
64.0127
65.8986
67.8413
66.7578
64.7884
62.8705
61.0038
59.1885
57.424
55.71
54.0468
52.4362
50.8818
49.3898
47.969
46.6299
45.3858
44.2514
43.243
42.3784
41.6774
41.1608
40.8529
40.8236
40.8633
40.9615
41.1591
41.3914
41.6387
41.9125
42.2898
42.8272
43.5291
44.3853
45.3815
46.5032
47.7359
49.0669
50.4845
51.9789
53.5429
55.1711
56.8604
58.6088
60.4154
62.2789
64.1991
66.1749
65.0692
63.0751
61.1343
59.2476
57.415
55.6361
53.9105
52.2375
50.6181
49.0543
47.5514
46.1168
44.7608
43.4963
42.3384
41.3039
40.4116
39.6826
39.1396
38.8093
38.7622
38.7961
38.8764
39.0512
39.2555
39.4797
39.744
40.1198
40.6671
41.3886
42.2717
43.3004
44.4585
45.7305
47.1019
48.5605
50.0958
51.6998
53.3673
55.0946
56.8796
58.7216
60.6196
62.5731
64.5809
63.4292
61.4091
59.4447
57.5371
55.687
53.8944
52.1583
50.4781
48.8533
47.285
45.7762
44.3332
42.9653
41.6848
40.5065
39.4477
38.5281
37.7699
37.1981
36.8422
36.7736
36.7953
36.8553
37.0037
37.1778
37.3795
37.6375
38.0138
38.5735
39.3173
40.2303
41.2943
42.4914
43.8045
45.2179
46.7185
48.2952
49.9396
51.6457
53.4099
55.2304
57.1063
59.037
61.0217
63.0599
61.8404
59.7931
57.8037
55.8741
54.0054
52.1984
50.4524
48.7663
47.139
45.5701
44.0607
42.615
41.2408
39.9491
38.7543
37.6735
36.7271
35.9387
35.3352
34.9501
34.8562
34.8606
34.8999
35.0211
35.1658
35.3478
35.6048
35.9843
36.5594
37.3286
38.2743
39.376
40.6138
41.9693
43.4255
44.9681
46.5855
48.2688
50.0117
51.8109
53.6645
55.5716
57.5322
59.5457
61.6113
60.3072
58.2315
56.2154
54.2619
52.3729
50.5499
48.7929
47.1012
45.4731
43.9065
42.4008
40.9577
39.5826
38.2848
37.0774
35.9769
35.0043
34.1842
33.5465
33.1282
33.0053
32.9896
33.0108
33.108
33.2283
33.3965
33.6594
34.0465
34.6403
35.4379
36.4187
37.5598
38.8394
40.2375
41.7357
43.3189
44.9746
46.6938
48.4703
50.3005
52.1831
54.1178
56.1045
58.1432
60.2331
58.8358
56.7302
54.6856
52.7061
50.7945
48.9533
47.1835
45.4847
43.8552
42.2923
40.7932
39.3567
37.9852
36.6856
35.4689
34.3508
33.3521
32.4989
31.8238
31.3693
31.2136
31.1786
31.1875
31.2697
31.3757
31.5393
31.8173
32.2176
32.8342
33.6628
34.6806
35.862
37.1831
38.6221
40.1596
41.7798
43.4695
45.2195
47.0239
48.8798
50.7861
52.743
54.751
56.8102
58.9208
57.4337
55.297
53.2225
51.2149
49.2783
47.416
45.6303
43.9217
42.2891
40.729
39.2369
37.809
36.444
35.1452
33.9213
32.7865
31.7612
30.8731
30.1587
29.6654
29.4737
29.4233
29.4287
29.5115
29.6197
29.7919
30.0964
30.5176
31.1614
32.0236
33.0789
34.2997
35.6597
37.1358
38.7075
40.3583
42.075
43.8482
45.6729
47.5468
49.4696
51.4425
53.4664
55.5419
57.6693
56.11
53.9416
51.836
49.7986
47.8345
45.9483
44.1433
42.4213
40.7821
39.2222
37.7359
36.3162
34.9579
33.6604
32.4293
31.2774
30.2246
29.3007
28.5459
28.013
27.7831
27.7227
27.734
27.8396
27.9728
28.1714
28.5157
28.9684
29.6444
30.5417
31.6335
32.8902
34.2838
35.7898
37.3871
39.0589
40.7921
42.5783
44.4133
46.296
48.2275
50.2097
52.2441
54.3318
56.4728
54.8751
52.6749
50.5376
48.4693
46.4761
44.5634
42.7358
40.9967
39.3467
37.783
36.2988
34.8848
33.5313
32.2335
30.9938
29.8233
28.7425
27.783
26.9889
26.4177
26.15
26.0829
26.1078
26.2617
26.4487
26.6962
27.0949
27.5926
28.3063
29.2387
30.3632
31.6488
33.0664
34.5909
36.2011
37.8805
39.6169
41.4034
43.2376
45.1198
47.0523
49.038
51.0789
53.1758
55.3287
53.7401
51.5089
49.3402
47.2409
45.2175
43.2766
41.4239
39.6642
37.9991
36.4269
34.9404
33.5278
32.1755
30.874
29.623
28.4327
27.3244
26.3319
25.502
24.8965
24.5965
24.5219
24.5644
24.7902
25.0624
25.3842
25.8505
26.4088
27.1659
28.1311
29.2803
30.5829
32.0101
33.537
35.1435
36.8145
38.5395
40.3138
42.1366
44.0103
45.9384
47.924
49.9691
52.0743
54.2387
52.717
50.4566
48.2581
46.1286
44.0753
42.1057
40.2264
38.4434
36.7598
35.1746
33.6807
32.2645
30.9084
29.5987
28.3329
27.1219
25.9879
24.967
24.1075
23.4756
23.1572
23.0711
23.1307
23.4452
23.8304
24.2509
24.7883
25.419
26.2231
27.2155
28.3776
29.6814
31.1001
32.6114
34.1975
35.8454
37.5468
39.299
41.1035
42.9642
44.8851
46.8694
48.9185
51.0324
53.2092
51.8188
49.5322
47.3065
45.1491
43.0676
41.0701
39.1644
37.3572
35.6529
34.0512
32.5456
31.1207
29.7556
28.4327
27.1485
25.9156
24.758
23.7137
22.8324
22.1873
21.8777
21.7739
21.8446
22.2536
22.7657
23.3001
23.8887
24.5798
25.4258
26.4392
27.605
28.8989
30.2979
31.7833
33.3401
34.9572
36.6289
38.3546
40.138
41.9843
43.8979
45.8816
47.9361
50.0599
52.2504
51.0593
48.7505
46.5017
44.3202
42.2141
40.1919
38.2619
36.4317
34.7065
33.0872
31.5672
30.13
28.7516
27.4116
26.1063
24.8509
23.6711
22.6073
21.7117
21.0688
20.8189
20.6869
20.7541
21.245
21.8639
22.4982
23.0956
23.7943
24.6634
25.6995
26.8782
28.1724
29.5601
31.0256
32.5564
34.1438
35.7852
37.4838
39.2461
41.0789
42.9868
44.9719
47.0334
49.1689
51.3746
50.452
48.1269
45.8609
43.6614
41.5365
39.495
37.5457
35.6967
33.9538
32.3185
30.7842
29.3337
27.9408
26.5825
25.256
23.9795
22.7798
21.7007
20.7965
20.1677
20.0725
19.8909
19.9298
20.4633
21.099
21.7499
22.371
23.07
23.947
24.9982
26.1916
27.4938
28.8804
30.3347
31.845
33.4055
35.0181
36.6914
38.4353
40.2581
42.1639
44.1535
46.2248
48.3739
50.5961
50.0121
47.6781
45.4027
43.1934
41.0584
39.0065
37.0466
35.187
33.4338
31.7886
30.2448
28.7845
27.3801
26.0074
24.6648
23.3732
22.1591
21.0713
20.1639
19.5496
19.8632
19.5246
19.4856
19.9717
20.4735
21.0311
21.6335
22.3521
23.2509
24.3221
25.5324
26.8479
28.2414
29.6937
31.192
32.7331
34.3249
35.981
37.7147
39.5346
41.4442
43.4428
45.527
47.6918
49.9313
49.7561
47.4221
45.1473
42.9394
40.8068
38.7586
36.8034
34.9492
33.2015
31.5608
30.0199
28.5613
27.159
25.7906
24.4535
23.1662
21.9527
20.8687
19.9639
19.3527
19.7627
19.9031
19.6771
19.6963
19.9907
20.3621
20.8813
21.5952
22.5168
23.6175
24.8563
26.197
27.6106
29.0762
30.5796
32.1198
33.7088
35.3643
37.1014
38.9288
40.8495
42.8619
44.9618
47.1435
49.4005
49.7482
47.4222
45.1532
42.9479
40.8135
38.7569
36.7849
34.9038
33.1182
31.4308
29.8406
28.3421
26.9248
25.5749
24.28
23.036
21.8564
20.792
19.9041
19.3557
19.6949
19.9791
19.8405
19.3687
19.5864
19.8353
20.1824
20.8648
21.8069
22.9404
24.2121
25.5822
27.0209
28.5084
30.0318
31.5907
33.1977
34.8709
36.6254
38.4703
40.4084
42.438
44.5547
46.7527
49.0256
49.777
47.4455
45.1663
42.945
40.7875
38.7006
36.6909
34.7655
32.931
31.1932
29.556
28.0191
26.578
25.2258
23.9546
22.7617
21.6592
20.6723
19.8791
19.4625
19.6355
19.8411
20.0428
19.7616
19.5502
19.4516
19.6549
20.3039
21.2423
22.3826
23.6681
25.0552
26.5131
28.0241
29.5778
31.173
32.8187
34.5286
36.3157
38.1882
40.1495
42.1988
44.3327
46.5457
48.8321
49.895
47.5744
45.3049
43.0912
40.9383
38.8511
36.8338
34.8905
33.0239
31.2359
29.5284
27.9049
26.3701
24.9316
23.6009
22.3886
21.3064
20.3892
19.7078
19.328
19.4587
19.6514
19.8616
20.1515
19.913
19.5806
19.2603
19.8972
20.8301
21.9701
23.2659
24.6697
26.1469
27.6813
29.2686
30.9089
32.6072
34.3711
36.2084
38.1242
40.1206
42.1968
44.35
46.5763
48.871
50.1138
47.8103
45.5571
43.3571
41.2137
39.1292
37.1049
35.1409
33.2363
31.3896
29.6022
27.8821
26.2478
24.7254
23.3409
22.1149
21.0615
20.2028
19.6225
19.4086
19.2368
19.4054
19.6087
19.8738
19.9948
20.0112
19.7676
19.9884
20.7337
21.7968
23.0861
24.5369
26.098
27.7293
29.4041
31.1131
32.8606
34.6575
36.515
38.4416
40.4422
42.5179
44.6674
46.8876
49.1744
50.3808
48.0973
45.8625
43.6782
41.5455
39.4646
37.4346
35.4538
33.5209
31.6366
29.8062
28.0421
26.3627
24.7919
23.3562
22.0861
21.0212
20.2159
19.7581
19.5481
19.3653
19.299
19.4793
19.5797
19.5449
19.5019
19.4392
19.9547
20.8224
21.9503
23.2747
24.7461
26.3233
27.9733
29.6736
31.4142
33.1955
35.0241
36.9084
38.8554
40.8696
42.9527
45.1043
47.3221
49.6031
50.6633
48.3974
46.1787
44.0071
41.8819
39.8011
37.762
35.762
33.7997
31.8773
30.0017
28.1862
26.4501
24.8188
23.3253
22.0135
20.9404
20.1866
19.9144
19.7281
19.663
19.6485
19.7548
19.841
19.8522
19.8525
20.0004
20.5334
21.3756
22.4693
23.7577
25.194
26.7407
28.3677
30.0552
31.7946
33.5853
35.4312
37.3365
39.3047
41.3374
43.4349
45.5961
47.8189
50.1003
50.958
48.7042
46.4969
44.3354
42.2177
40.1411
38.1027
36.1006
34.1348
32.2095
30.3334
28.5207
26.7904
25.1668
23.6817
22.3776
21.3134
20.5787
20.4002
20.2868
20.2672
20.278
20.3527
20.4342
20.4622
20.4819
20.7885
21.3638
22.1859
23.2278
24.4501
25.8169
27.2983
28.871
30.5197
32.2373
34.0216
35.8728
37.7912
39.7764
41.827
43.9408
46.1152
48.3474
50.6342
51.3302
49.0914
46.9003
44.7561
42.6564
40.5985
38.5794
36.5972
34.6526
32.7502
30.899
29.1132
27.4118
25.8195
24.3681
23.1
22.0728
21.371
21.196
21.1453
21.1418
21.1569
21.2071
21.2676
21.2917
21.3465
21.7424
22.3576
23.1699
24.1637
25.3172
26.6057
28.0075
29.5071
31.0956
32.7695
34.5268
36.3656
38.2827
40.2743
42.3357
44.462
46.6487
48.8914
51.1861
51.8282
49.6085
47.4384
45.3171
43.2422
41.211
39.2204
37.2685
35.3559
33.4874
31.6721
29.9244
28.2634
26.7142
25.3084
24.0873
23.1045
22.4342
22.225
22.1627
22.1324
22.1491
22.184
22.2308
22.2513
22.3628
22.8185
23.4667
24.2753
25.2307
26.3218
27.5314
28.8464
30.2616
31.7767
33.3926
35.1083
36.9201
38.8224
40.8084
42.8709
45.0025
47.1967
49.4474
51.7494
52.4627
50.2652
48.119
46.0232
43.9759
41.9743
40.0154
38.0974
36.221
34.3907
32.6158
30.9109
29.2955
27.7944
26.4392
25.2688
24.3315
23.6882
23.4267
23.2926
23.1839
23.1762
23.2836
23.3504
23.3706
23.5019
23.9863
24.6541
25.4609
26.3881
27.4273
28.5662
29.8005
31.1356
32.5796
34.1369
35.8069
37.5846
39.4625
41.432
43.484
45.6099
47.8019
50.0523
52.3551
53.23
51.0559
48.9345
46.8649
44.8454
42.8734
40.9459
39.0616
37.2211
35.4295
33.6959
32.0353
30.4672
29.0163
27.7132
26.5939
25.7004
25.0773
24.7534
24.5237
24.3269
24.2657
24.4257
24.5204
24.5484
24.711
25.2078
25.886
26.6924
27.6031
28.6067
29.6937
30.8661
32.1378
33.523
35.0289
36.6552
38.3965
40.2445
42.1896
44.2219
46.3321
48.5112
50.7515
53.046
54.1217
51.9713
49.8742
47.8297
45.8364
43.8914
41.9927
40.1393
38.3325
36.5775
34.8844
33.2676
31.747
30.3466
29.0954
28.0259
27.1722
26.5611
26.1732
25.8525
25.5793
25.45
25.5807
25.648
25.6991
25.9339
26.4492
27.138
27.9498
28.8581
29.8469
30.9067
32.0417
33.2707
34.6119
36.0753
37.662
39.367
41.1821
43.0975
45.1034
47.1901
49.3486
51.5706
53.849
55.1277
53.0002
50.9259
48.9043
46.9339
45.0126
43.139
41.3127
39.5359
37.8148
36.1597
34.5855
33.1112
31.7604
30.5596
29.537
28.7182
28.1118
27.6655
27.27
26.9339
26.7357
26.7724
26.7659
26.8359
27.1528
27.7021
28.4113
29.2382
30.1574
31.1502
32.2047
33.3246
34.5295
35.8404
37.2701
38.8214
40.4912
42.272
44.1549
46.1301
48.1883
50.3202
52.5177
54.7736
56.2378
54.1317
52.0781
50.0766
48.1257
46.2242
44.3712
42.5677
40.817
39.1262
37.5061
35.972
34.5423
33.2391
32.0862
31.1071
30.3184
29.7114
29.2164
28.7628
28.3736
28.108
28.0229
27.9408
28.0252
28.4037
28.9918
29.7289
30.5787
31.5176
32.526
33.5901
34.7107
35.906
37.1977
38.6009
40.1216
41.758
43.5046
45.3532
47.295
49.3209
51.4223
53.5912
55.82
57.4424
55.3557
53.3201
51.3353
49.4006
47.5151
45.679
43.8945
42.1662
40.5023
38.9145
37.4177
36.03
34.7718
33.6638
32.7248
31.9624
31.3528
30.8201
30.3227
29.8887
29.5585
29.364
29.2262
29.3257
29.7402
30.3582
31.1216
31.9952
32.9559
33.9842
35.0648
36.1952
37.3901
38.6707
40.0539
41.5479
43.1533
44.8664
46.6804
48.5876
50.5793
52.6476
54.7846
56.9831
58.7321
56.6625
54.6427
52.6721
50.7506
48.878
47.056
45.2878
43.5797
41.9406
40.3827
38.9211
37.5731
36.3571
35.2913
34.3893
33.6502
33.0389
32.4796
31.9512
31.4815
31.0969
30.823
30.6502
30.7667
31.1982
31.833
32.614
33.5058
34.4849
35.5312
36.6288
37.7722
38.9719
40.2471
41.6151
43.086
44.663
46.3441
48.124
49.9961
51.9528
53.9864
56.0896
58.2558
60.0989
58.0448
56.0385
54.0802
52.1699
50.3089
48.4999
46.7473
45.0584
43.4435
41.9149
40.4872
39.1769
38.0009
36.9744
36.1064
35.3889
34.7783
34.2034
33.6555
33.1605
32.7364
32.4127
32.2208
32.3546
32.7916
33.4313
34.2195
35.1209
36.111
37.1701
38.2813
39.4366
40.6426
41.9153
43.2714
44.7225
46.2736
47.9245
49.6713
51.5087
53.4302
55.4287
57.4972
59.6297
61.5366
59.4963
57.5023
55.5553
53.656
51.8066
50.0112
48.2751
46.6067
45.0168
43.5174
42.1234
40.8496
39.7116
38.7218
37.8851
37.188
36.5814
35.9999
35.4426
34.9329
34.4847
34.1339
33.9336
34.0839
34.5197
35.1556
35.9416
36.8434
37.8366
38.9011
40.0199
41.1835
42.3945
43.6655
45.0119
46.4455
47.9729
49.5954
51.3106
53.1144
55.001
56.9644
58.9979
61.0959
63.0399
61.0127
59.0311
57.0958
55.2083
53.3722
51.5921
49.8747
48.2289
46.6653
45.1965
43.836
42.5981
41.4963
40.5406