<VTKFile type="ImageData" version="1.0" byte_order="LittleEndian" header_type="UInt64">
	<ImageData WholeExtent="0 44 0 44 0 44" Origin="-68.3028 -68.3028 -68.3028" Spacing="3.10467 3.10467 3.10467">
		<Piece Extent="0 44 0 44 0 44">
			<PointData Scalars="Scalars_">
				<DataArray type="Float32" Name="Scalars_" format="ascii" RangeMin="0" RangeMax="100">
3.98866
4.03946
4.18604
4.26237
4.46685
4.56577
4.80368
4.91727
5.16451
5.19605
5.2679
5.01451
4.79516
4.31177
3.88129
3.43301
3.01773
3.01105
3.00343
2.72223
2.50544
2.16018
1.97503
1.76682
1.72031
1.71399
1.86061
1.90363
2.093
2.25698
2.55717
2.87514
3.27366
3.54722
3.8213
3.92407
4.02882
3.95041
3.89063
3.63933
3.36398
2.95304
2.52812
3.84631
5.19897
4.03476
4.08181
4.22555
4.29909
4.50168
4.59928
4.83863
4.95229
5.19778
5.20023
5.24241
4.94469
4.68144
4.15385
3.67961
3.21117
2.78802
2.79896
2.81322
2.53469
2.343
1.9887
1.80302
1.6029
1.57214
1.61357
1.81398
1.91761
2.17139
2.40686
2.78
3.16311
3.55988
3.82007
4.0802
4.16065
4.24368
4.13638
4.0472
3.7631
3.45561
3.01012
2.5504
3.84584
5.16631
4.18033
4.22446
4.38949
4.45934
4.62628
4.72219
4.96651
5.07981
5.33313
5.30311
5.30368
4.95842
4.64967
4.07385
3.55121
3.05801
2.60421
2.58926
2.62303
2.34895
2.1858
1.82611
1.64439
1.45721
1.44594
1.54
1.80589
1.97676
2.29475
2.60747
3.05569
3.45153
3.84527
4.09248
4.33496
4.3928
4.45141
4.31541
4.18858
3.8712
3.53534
2.97614
2.42412
3.68821
5.02431
4.25104
4.29232
4.45382
4.52188
4.68842
4.78408
5.03042
5.14503
5.38478
5.32254
5.29023
4.89495
4.53563
3.90959
3.33656
2.83101
2.36559
2.31583
2.32216
2.04857
1.9206
1.55631
1.38037
1.20956
1.22354
1.37241
1.69902
1.9439
2.33933
2.73706
3.22397
3.61551
4.0051
4.23829
4.46708
4.50081
4.53513
4.36843
4.13307
3.66896
3.18711
2.56707
2.04096
3.37439
4.77922
4.44704
4.48609
4.61655
4.68435
4.88777
4.98339
5.20679
5.32317
5.55232
5.4557
5.38956
4.94094
4.53608
3.85501
3.21179
2.68935
2.21329
2.12278
2.08833
1.77193
1.66224
1.29842
1.13409
0.986198
1.03371
1.24583
1.63715
1.96254
2.45034
2.9167
3.39074
3.77809
4.16305
4.38188
4.60527
4.53894
4.44444
4.13437
3.81525
3.31651
2.83257
2.23844
1.70602
3.11175
4.58786
4.53928
4.5768
4.70566
4.77311
4.97644
5.07347
5.30047
5.41796
5.62253
5.49139
5.38895
4.88618
4.42548
3.68927
2.99023
2.46523
1.98637
1.85498
1.77999
1.42459
1.3035
0.90564
0.754734
0.639225
0.728996
1.00525
1.46652
1.88369
2.4592
2.93636
3.40815
3.79367
4.10186
4.19349
4.28951
4.16103
4.04072
3.69846
3.3472
2.8147
2.35139
1.79846
1.30723
2.78808
4.33786
4.76527
4.80427
4.9419
5.01121
5.20024
5.30067
5.54964
5.66318
5.82928
5.6625
5.53019
4.97077
4.4431
3.64867
2.89277
2.36045
1.88155
1.70255
1.57391
1.18325
1.04935
0.598587
0.417435
0.326767
0.468719
0.818157
1.35883
1.87608
2.4759
2.87654
3.23969
3.51086
3.7805
3.85746
3.93906
3.78485
3.62632
3.25188
2.87893
2.36139
1.93483
1.42637
0.993652
2.55226
4.17785
4.87106
4.90961
5.04612
5.11645
5.3069
5.4106
5.66418
5.76834
5.90778
5.7061
5.53619
4.92259
4.33821
3.4868
2.67154
2.15014
1.67997
1.45272
1.2759
0.857178
0.711674
0.210201
0.00396347
0.100304
0.0766335
0.502403
1.10714
1.55607
2.02174
2.38295
2.74893
3.02113
3.29163
3.35304
3.4192
3.23747
3.05138
2.64336
2.27804
1.81131
1.43493
0.975063
0.588799
2.22749
3.93069
5.1129
5.15679
5.30122
5.3769
5.57946
5.69044
5.95321
6.04371
6.15744
5.92177
5.71201
5.04433
4.40685
3.49657
2.61799
2.10424
1.63343
1.35264
1.13343
0.685835
0.527315
0.0253582
0.272429
0.373749
0.185757
0.256012
0.767735
1.1679
1.59346
1.92025
2.26371
2.53231
2.80288
2.84879
2.90047
2.69118
2.48072
2.07064
1.76402
1.35294
1.02313
0.614876
0.288429
2.00911
3.79124
5.13551
5.23757
5.40018
5.47655
5.67937
5.7938
6.06077
6.1287
6.21377
5.94481
5.69817
4.98488
4.29782
3.33534
2.40071
1.91774
1.47359
1.13605
0.875681
0.398535
0.226465
0.368801
0.639214
0.718267
0.492085
0.104679
0.316406
0.672951
1.05941
1.34954
1.66035
1.89291
2.14186
2.16254
2.19569
1.95588
1.73791
1.38808
1.14369
0.792091
0.519417
0.166248
0.108673
1.69534
3.55716
5.19898
5.37393
5.62371
5.75909
5.96402
6.08746
6.36146
6.40785
6.46778
6.16925
5.88832
5.1323
4.39669
3.38428
2.39958
1.94761
1.5273
1.13115
0.837803
0.331861
0.146975
0.490919
0.784592
0.841341
0.601658
0.322128
0.00258827
0.299953
0.635036
0.87933
1.15367
1.34219
1.55066
1.51406
1.49779
1.23347
1.07961
0.79945
0.620224
0.331844
0.133884
0.161621
0.398407
1.48957
3.43114
4.9387
5.17017
5.48057
5.68461
5.96097
6.12364
6.38792
6.40206
6.42641
6.09714
5.78161
5.00664
4.2476
3.20376
2.18219
1.7844
1.41236
0.946854
0.621916
0.0802898
0.126062
0.781693
1.07525
1.05178
0.815639
0.62351
0.383879
0.129364
0.164246
0.359566
0.590389
0.720558
0.875183
0.764618
0.67815
0.409771
0.325954
0.117512
0.00637817
0.216549
0.354347
0.59111
0.773472
1.19825
3.21878
4.72543
5.01601
5.37198
5.64779
6.01326
6.26141
6.55479
6.5713
6.58826
6.24696
5.90472
5.11779
4.34456
3.27618
2.22268
1.88569
1.57012
1.04237
0.700077
0.128935
0.0951405
0.767136
1.0618
0.993761
0.819424
0.729921
0.585028
0.392429
0.153114
0.0187588
0.156641
0.218212
0.311214
0.118023
0.0253448
0.267513
0.30159
0.433132
0.471794
0.626606
0.712093
0.890232
1.00889
1.04531
3.14308
4.31017
4.63818
5.03679
5.36335
5.78482
6.06281
6.34377
6.34753
6.35162
5.99657
5.64033
4.85518
4.07156
3.17758
2.28284
1.85694
1.40168
0.758677
0.355345
0.504171
1.00866
1.38381
1.37053
1.19263
0.942446
0.866442
0.726774
0.604027
0.426598
0.356907
0.23905
0.28199
0.287174
0.594128
0.760273
0.989025
1.00547
1.08211
1.05399
1.1435
1.17029
1.29113
1.35926
0.775036
2.94726
3.93972
4.30781
4.75254
5.13286
5.59791
5.86545
6.13422
6.12524
6.11382
5.74511
5.37789
4.60273
3.8272
3.07117
2.26528
1.69496
1.17335
0.55187
0.184467
0.848646
1.56396
1.62393
1.34511
1.11118
0.79874
0.750778
0.631317
0.593693
0.492428
0.502047
0.457811
0.618769
0.731232
1.1325
1.2947
1.51201
1.51
1.56162
1.47281
1.49805
1.46421
1.53053
1.55444
0.656284
2.89911
3.71698
4.11912
4.60248
5.02298
5.47215
5.71109
5.95116
5.91197
5.87066
5.47744
4.9831
4.12756
3.2717
2.64557
2.019
1.39517
0.88306
0.269808
0.0754204
1.09912
1.7945
1.7692
1.54204
1.33838
1.08533
0.919872
0.676733
0.648769
0.549543
0.612968
0.614525
0.937202
1.2038
1.66352
1.84427
2.06861
2.07109
2.11722
2.0051
1.97453
1.89385
1.91307
1.89714
0.385078
2.69353
3.53788
3.97686
4.50266
4.92381
5.34517
5.55564
5.75079
5.56145
5.37501
4.8372
4.29799
3.48195
2.66605
2.21921
1.77301
1.11001
0.62109
0.0215569
0.295946
1.30531
1.97685
1.87882
1.69392
1.39529
1.0965
0.792885
0.435333
0.4286
0.345728
0.476984
0.537937
1.03695
1.43434
1.92751
2.12946
2.36857
2.38929
2.4395
2.329
2.26127
2.14198
2.12025
2.07257
0.274902
2.64293
3.31096
3.77664
4.31081
4.6421
4.89927
4.95478
5.00908
4.82473
4.64298
4.20034
3.75639
3.13199
2.50791
2.02722
1.54705
0.839401
0.348759
0.548052
1.14904
1.89573
2.29696
2.07715
1.83872
1.53861
1.23834
0.935925
0.633137
0.54281
0.395954
0.573761
0.675123
1.31332
1.72492
2.21252
2.40318
2.62947
2.63613
2.67046
2.54541
2.45477
2.27848
2.20304
2.10825
0.297092
2.71769
3.04404
3.41629
3.80179
4.0147
4.22856
4.24899
4.26879
4.08944
3.90943
3.56203
3.21491
2.78224
2.35011
1.83556
1.32162
0.596275
0.109421
1.07905
1.95813
2.43807
2.56748
2.27551
1.98358
1.68197
1.38032
1.0779
0.775555
0.472052
0.168135
0.380478
0.53253
1.27249
1.67654
2.16946
2.36302
2.59111
2.59632
2.6298
2.50707
2.415
2.21618
2.09674
1.96273
0.492107
2.95749
2.8017
3.11182
3.46109
3.68007
3.90925
3.94988
3.9901
3.83416
3.67787
3.34849
3.01915
2.58161
2.14448
1.6033
1.08013
0.415501
0.00379562
1.29368
2.26909
2.65409
2.71749
2.4201
2.12273
1.80268
1.48261
1.13022
0.777908
0.428062
0.0778694
0.41963
0.751017
1.54155
1.97484
2.47571
2.67622
2.90396
2.90903
2.9394
2.81376
2.7177
2.51361
2.35264
2.17513
0.317627
2.8105
2.71518
2.96552
3.24749
3.40231
3.5976
3.65047
3.7112
3.57867
3.44695
3.13556
2.82349
2.38108
1.93887
1.37104
0.864344
0.265942
0.0643349
1.46528
2.5325
2.81972
2.86742
2.56463
2.26182
1.92333
1.58492
1.18254
0.780182
0.38397
0.0175591
0.376429
0.689133
1.46207
1.9212
2.43533
2.65536
2.89989
2.92272
2.9674
2.85567
2.77129
2.5787
2.45023
2.28901
0.203213
2.69609
2.36276
2.58268
2.82937
2.95376
3.1129
3.13615
3.20339
3.12444
3.05242
2.78742
2.52196
2.07069
1.61956
0.947079
0.405201
0.438641
0.999578
2.18199
3.02022
3.05732
2.9771
2.62245
2.26778
1.87636
1.48502
1.08678
0.686754
0.366829
0.038126
0.296751
0.631704
1.40676
1.85699
2.3563
2.56678
2.8012
2.82108
2.86547
2.75822
2.68007
2.52974
2.47675
2.38295
0.0542946
2.52143
2.16991
2.36492
2.58265
2.68223
2.81001
2.80468
2.83686
2.72542
2.66261
2.43912
2.22057
1.76043
1.30018
0.542248
0.0236874
1.10709
1.8928
2.85166
3.45748
3.28869
3.08678
2.68026
2.27373
1.8294
1.38496
0.941656
0.410742
0.113314
0.184086
0.195086
0.574171
1.34807
1.79012
2.27528
2.47683
2.70083
2.71404
2.75153
2.6404
2.55758
2.40499
2.37143
2.33732
0.0306969
2.43499
1.93551
2.10725
2.29689
2.38082
2.48715
2.47537
2.49451
2.37772
2.30054
2.06284
1.87941
1.47212
1.06811
0.34704
0.14196
1.47859
2.50287
3.22329
3.5838
3.28584
2.9874
2.5585
2.12961
1.66558
1.11268
0.621046
0.12903
0.0678959
0.264711
0.149151
0.562881
1.32683
1.75566
2.21754
2.40098
2.59907
2.59021
2.59962
2.46263
2.35216
2.17564
2.11975
2.06405
0.275684
2.61871
1.86178
2.017
2.18729
2.26311
2.35529
2.34534
2.35848
2.24506
2.16304
1.90901
1.69819
1.23765
0.841988
0.181679
0.224836
1.80869
3.06678
3.54472
3.67778
3.28293
2.88819
2.41073
1.84499
1.26014
0.673361
0.260384
0.15254
0.248941
0.345425
0.103138
0.5518
1.30278
1.71853
2.15778
2.32462
2.49724
2.4654
2.44692
2.28568
2.14766
1.94695
1.86878
1.78941
0.550327
2.89007
1.97507
2.10439
2.24495
2.27671
2.3202
2.23696
2.17018
1.94684
1.74703
1.34998
0.985245
0.37443
0.138359
0.773678
1.106
2.26252
3.05498
3.35698
3.3838
3.05566
2.64216
2.02373
1.40066
0.833904
0.26697
0.0127983
0.241268
0.313818
0.386543
0.0870113
0.560574
1.20933
1.52695
1.85763
1.92116
2.01235
1.9021
1.83385
1.62551
1.46281
1.24049
1.1547
1.06769
1.27205
3.61179
2.24424
2.35495
2.47265
2.4689
2.47443
2.32787
2.19265
1.87107
1.56411
1.03757
0.534508
0.20355
0.769604
1.36909
1.66206
2.48697
2.92093
3.10543
2.9894
2.59417
2.19016
1.57229
0.954399
0.407444
0.139353
0.234699
0.330242
0.378996
0.42737
0.0712013
0.566469
1.11265
1.33253
1.5552
1.51529
1.52525
1.34075
1.22302
0.966076
0.778793
0.533405
0.439987
0.345779
1.99395
4.3337
2.37695
2.449
2.52503
2.47214
2.42568
2.21686
2.01487
1.61507
1.22364
0.601521
0.00540161
0.793022
1.37114
1.94508
2.21378
2.94183
3.28249
3.40041
3.19042
2.78456
2.36126
1.78201
1.20273
0.676512
0.150497
0.0446472
0.240019
0.332636
0.424807
0.121313
0.657837
1.18419
1.3891
1.58393
1.52084
1.5058
1.30009
1.16206
0.887077
0.683693
0.425251
0.320141
0.214157
2.12557
4.46532
2.64934
2.68985
2.74085
2.64691
2.55125
2.29028
2.0323
1.56692
1.10951
0.407276
0.273897
1.05482
1.62263
2.15132
2.37963
2.99747
3.23676
3.28722
3.0847
2.74793
2.38927
1.91476
1.41952
0.939613
0.440311
0.145309
0.149555
0.285971
0.42317
0.170383
0.746246
1.25352
1.44352
1.61119
1.52495
1.4853
1.25964
1.10149
0.804707
0.585175
0.317352
0.200573
0.0823669
2.25737
4.59711
2.8684
2.87762
2.89671
2.766
2.63109
2.32713
2.024
1.50801
0.997391
0.233707
0.452579
1.22293
1.78008
2.31944
2.56424
3.11727
3.30559
3.32813
3.18423
2.92942
2.6521
2.27843
1.88298
1.49536
1.08661
0.818796
0.531534
0.42815
0.305603
0.857416
1.37838
1.83628
1.98164
2.11098
1.99088
1.91762
1.66194
1.47391
1.14888
0.902802
0.611984
0.472656
0.331577
2.00816
4.34791
3.21249
3.19859
3.18083
3.023
2.87378
2.53695
2.19658
1.64106
1.08315
0.293163
0.357807
1.10407
1.63893
2.17741
2.42894
2.91017
3.04312
3.05219
2.96245
2.78413
2.58348
2.30729
2.00921
1.71201
1.39311
1.16509
0.916691
0.895483
0.856382
1.43773
1.93844
2.37035
2.49223
2.5972
2.4513
2.34954
2.06164
1.84386
1.49254
1.22009
0.904415
0.742405
0.57972
1.76001
4.09975
3.4238
3.39219
3.35625
3.18081
3.01452
2.66181
2.30539
1.7454
1.2257
0.514324
0.070385
0.747524
1.21478
1.70881
1.92545
2.36778
2.48028
2.49658
2.45988
2.34928
2.21739
2.01253
1.78644
1.5663
1.32472
1.29082
1.23639
1.2875
1.32032
1.95357
2.45592
2.89448
3.02881
3.14666
3.01608
2.92301
2.64364
2.4265
2.07227
1.7903
1.45397
1.27057
1.08626
1.24893
3.58472
3.63832
3.58916
3.53857
3.34532
3.15379
2.79391
2.47214
1.98889
1.55626
0.922264
0.418705
0.176102
0.566669
1.00965
1.18787
1.5906
1.68222
1.71658
1.72323
1.67191
1.60059
1.4595
1.29823
1.14875
0.978716
1.1335
1.26859
1.38804
1.48657
2.16835
2.66062
3.11151
3.26796
3.40858
3.3052
3.23278
2.97372
2.77122
2.4304
2.15706
1.81862
1.62562
1.43079
0.889896
3.21238
3.68476
3.61392
3.54148
3.33729
3.17106
2.87149
2.6185
2.19921
1.7774
1.19789
0.776634
0.267357
0.0397911
0.41222
0.529011
0.880322
0.941135
0.971334
0.999725
0.996599
0.975601
0.886276
0.778208
0.687939
0.578344
0.89781
1.19861
1.41718
1.61532
2.34173
2.83209
3.29991
3.48333
3.65406
3.5859
3.54338
3.31462
3.13608
2.81758
2.56098
2.22646
2.02983
1.82882
0.469997
2.7724
3.73154
3.651
3.6062
3.45287
3.32942
3.09045
2.86612
2.43365
2.03166
1.52716
1.17842
0.748615
0.524426
0.21439
0.147289
0.15752
0.188046
0.195564
0.202839
0.195076
0.188141
0.130253
0.0667152
0.0279922
0.0281754
0.44894
0.908886
1.2202
1.51318
2.2659
2.75498
3.24255
3.45435
3.66019
3.62864
3.62257
3.44064
3.29409
3.00051
2.7684
2.44549
2.25234
2.05608
0.214367
2.49061
3.65247
3.61109
3.6105
3.50518
3.40657
3.15071
2.90097
2.45102
2.09827
1.65546
1.36898
1.00288
0.839149
0.58226
0.559181
0.299072
0.296406
0.309982
0.323853
0.341522
0.358368
0.423958
0.489979
0.510933
0.531727
0.0465889
0.60947
1.02367
1.42075
2.1894
2.68472
3.19006
3.43169
3.67202
3.68162
3.71455
3.57391
3.46321
3.20436
3.00164
2.69905
2.51451
2.32397
0.0874557
2.15739
3.69425
3.69386
3.72397
3.61097
3.49474
3.21325
2.92233
2.49574
2.21164
1.82611
1.5918
1.28407
1.17669
0.966938
0.982605
0.762207
0.781185
0.81572
0.850288
0.877567
0.905205
0.978348
1.05152
1.07673
1.10089
0.468582
0.162521
0.679924
1.22636
1.94355
2.42968
2.95256
3.21947
3.49483
3.55755
3.63197
3.52067
3.44829
3.23393
3.06478
2.80156
2.63128
2.43798
0.239975
1.96908
3.67299
3.6724
3.67279
3.52842
3.38076
3.06867
2.76444
2.38026
2.14105
1.80312
1.61535
1.35516
1.29126
1.12164
1.16893
0.988205
1.02779
1.08072
1.13367
1.16975
1.20618
1.28427
1.36238
1.39009
1.41676
0.767132
0.0371208
0.691265
1.20375
1.85176
2.2812
2.76659
3.04068
3.3476
3.44986
3.5637
3.4949
3.46202
3.28674
3.15288
2.92185
2.76806
2.58747
0.431591
1.73813
3.68745
3.65566
3.61415
3.43862
3.27504
2.93422
2.66074
2.31595
2.09531
1.80178
1.67104
1.45328
1.41634
1.28199
1.36128
1.21644
1.27267
1.34397
1.41657
1.46156
1.50696
1.59012
1.67284
1.70325
1.73198
0.935318
0.0266533
0.671825
1.16169
1.74677
2.12233
2.55956
2.79525
3.081
3.20346
3.35478
3.32856
3.33545
3.208
3.11105
2.88718
2.75144
2.60923
0.49818
1.62949
3.5268
3.46132
3.38584
3.1764
2.97919
2.63816
2.39614
2.08597
1.90016
1.64404
1.54898
1.36762
1.36254
1.25953
1.3625
1.25334
1.32467
1.41076
1.49813
1.55033
1.60296
1.68874
1.77407
1.80516
1.657
0.739811
0.142071
0.799438
1.25722
1.78714
2.11801
2.5098
2.71013
2.96376
3.06261
3.20058
3.19251
3.23603
3.14806
3.0873
2.89801
2.78407
2.65961
0.595261
1.48836
3.35003
3.25155
3.17564
2.93201
2.69002
2.37563
2.16794
1.88996
1.74113
1.51866
1.45139
1.3024
1.33007
1.25432
1.36855
1.29257
1.38105
1.4817
1.58031
1.64006
1.69808
1.78651
1.87597
1.68172
1.46535
0.547729
0.287853
0.910271
1.33692
1.81691
2.10676
2.45576
2.63239
2.85583
2.92139
3.03748
3.00253
3.03648
2.96106
2.93307
2.79799
2.7083
2.59175
0.575253
1.46301
3.0337
2.90036
2.78979
2.51177
2.28
1.99094
1.80951
1.56015
1.43928
1.24687
1.2076
1.0874
1.13918
1.08879
1.22142
1.17748
1.27622
1.388
1.49767
1.56297
1.62645
1.69126
1.53235
1.31369
1.09656
0.196445
0.563702
1.14445
1.5374
1.97148
2.22424
2.53354
2.67908
2.87233
2.91494
3.00901
2.95659
2.97431
2.88595
2.8492
2.72699
2.66033
2.56281
0.594696
1.39748
2.73962
2.57031
2.39306
2.1034
1.89614
1.63104
1.4822
1.25853
1.16442
0.998875
0.978943
0.884182
0.957211
0.929379
1.08155
1.06676
1.16934
1.29269
1.41264
1.48346
1.48341
1.32402
1.16518
0.946159
0.726501
0.130333
0.8181
1.36209
1.72187
2.11342
2.33601
2.60833
2.72056
2.88426
2.90219
2.97398
2.92381
2.92446
2.8236
2.77367
2.62706
2.54265
2.43204
0.512337
1.43353
4.15775
3.98843
3.81683
3.57783
3.42522
3.21552
3.12233
2.95401
2.91428
2.80138
2.83151
2.78332
2.8985
2.9075
3.09039
3.09954
3.20339
3.32673
3.44668
3.39714
3.22032
3.06092
2.90208
2.68306
2.46479
1.6667
1.03794
0.546379
0.23188
0.121857
0.314163
0.563572
0.659916
0.814224
0.828651
0.902119
0.858124
0.868732
0.780964
0.746658
0.617676
0.552399
0.407974
1.48518
3.3849
5.57586
5.40655
5.27003
5.0832
4.98359
4.82733
4.78758
4.67216
4.68416
4.62108
4.69838
4.69386
4.84842
4.89172
5.10312
5.13359
5.23744
5.36079
5.31238
5.13406
4.95723
4.79784
4.639
4.41998
4.22241
3.48478
2.91082
2.46777
2.19507
1.87618
1.71175
1.48344
1.40173
1.25608
1.2449
1.16987
1.20813
1.18824
1.26375
1.28338
1.39575
1.44292
1.56811
3.56081
5.41513
4.03652
4.0836
4.22664
4.30025
4.50352
4.60118
4.84034
4.95393
5.20749
5.29808
5.44309
5.24919
5.092
4.65375
4.27118
3.79454
3.31652
3.30956
3.30166
3.02365
2.76131
2.3928
2.18986
1.96046
1.89961
1.8582
1.97692
1.97662
2.1296
2.26176
2.53616
2.8376
3.22221
3.47843
3.73516
3.81408
3.89534
3.78775
3.69831
3.41438
3.10663
2.66682
2.24594
3.61478
5.01715
4.07897
4.12159
4.26085
4.33098
4.53155
4.62728
4.86741
4.98064
5.23892
5.31038
5.42735
5.18856
4.98717
4.50361
4.0765
3.59797
3.14727
3.16233
3.17665
2.89931
2.64899
2.26728
2.06046
1.83595
1.78852
1.79882
1.97606
2.03774
2.257
2.46318
2.81329
3.18204
3.56448
3.80581
4.04705
4.10125
4.15839
4.01924
3.89777
3.57843
3.23594
2.75381
2.26427
3.60023
4.97194
4.22094
4.25975
4.41893
4.48439
4.64847
4.74153
4.98594
5.09798
5.37556
5.41899
5.49602
5.2086
4.9609
4.42744
3.9506
3.4408
2.97408
3.0106
3.05165
2.77486
2.54082
2.14945
1.94326
1.72869
1.69878
1.76612
2.01399
2.14484
2.43096
2.71742
3.1453
3.52668
3.90598
4.13278
4.35515
4.38433
4.41409
4.24358
4.0823
3.72712
3.35365
2.83448
2.34273
3.64547
4.96255
4.28899
4.32425
4.47892
4.54185
4.70459
4.79679
5.04263
5.15555
5.43636
5.44876
5.49424
5.15501
4.85525
4.2682
3.73795
3.21075
2.72784
2.74834
2.8153
2.54372
2.33481
1.93215
1.72617
1.52334
1.51522
1.6423
1.95672
2.16405
2.53052
2.90564
3.37294
3.74958
4.12427
4.33499
4.54158
4.54377
4.54631
4.34203
4.14679
3.75454
3.29715
2.62783
2.03387
3.34455
4.72974
4.48383
4.51608
4.63865
4.70041
4.89903
4.99026
5.21192
5.32585
5.61328
5.59184
5.60431
5.20929
4.86167
4.21547
3.61139
3.06143
2.56226
2.54305
2.58468
2.31274
2.1342
1.72529
1.52551
1.34138
1.3639
1.55984
1.94558
2.23663
2.69906
3.14523
3.59909
3.97109
4.34079
4.53508
4.73401
4.70942
4.69285
4.40846
4.04848
3.50618
2.97491
2.30872
1.70777
3.09282
4.55141
4.57483
4.60496
4.72494
4.78574
4.98336
5.07552
5.30022
5.4173
5.69642
5.64131
5.61829
5.16579
4.75917
4.05093
3.38445
2.82889
2.32438
2.26612
2.26972
1.94723
1.80131
1.38838
1.19897
1.04105
1.1012
1.36628
1.82795
2.2149
2.76877
3.22537
3.67647
4.04609
4.41322
4.59033
4.72707
4.56079
4.4025
4.01624
3.62078
3.04031
2.50221
1.87675
1.31669
2.77922
4.31385
4.80249
4.83359
4.96148
5.02356
5.20559
5.3006
5.54684
5.66806
5.91915
5.82859
5.77585
5.26259
4.78505
4.01073
3.27952
2.71244
2.2042
2.09892
2.05023
1.66577
1.50483
1.06649
0.895916
0.774643
0.883327
1.22771
1.77597
2.26808
2.84644
3.29937
3.75393
4.07782
4.3311
4.37843
4.43034
4.23495
4.03499
3.61317
3.19302
2.59837
2.09473
1.51376
1.0126
2.55554
4.16858
4.90843
4.93866
5.06459
5.12727
5.30996
5.40802
5.6585
5.78577
6.01467
5.88966
5.79959
5.22736
4.68824
3.84509
3.0427
2.48738
1.989
1.83709
1.74155
1.30097
1.1248
0.62566
0.433767
0.360359
0.536713
0.962769
1.59782
2.16784
2.70166
3.0444
3.38866
3.64404
3.89785
3.92687
3.9606
3.73417
3.50314
3.04435
2.60358
2.05475
1.60127
1.06941
0.615242
2.24118
3.93463
5.14827
5.19029
5.32388
5.39185
5.5859
5.69134
5.95103
6.08398
6.28812
6.12923
5.99913
5.36742
4.76942
3.85454
2.97607
2.42782
1.92834
1.72269
1.57617
1.08216
0.888239
0.327383
0.0965939
0.0205269
0.253929
0.775229
1.36919
1.80653
2.26617
2.61176
2.9549
3.21116
3.46468
3.47548
3.49191
3.23439
2.97577
2.48974
2.09713
1.60431
1.19793
0.718613
0.324677
2.03576
3.81113
5.14174
5.25184
5.41941
5.48985
5.68342
5.79213
6.05566
6.1855
6.36148
6.16927
6.0018
5.31957
4.66663
3.68081
2.72715
2.21913
1.75556
1.49423
1.28849
0.748777
0.537518
0.0782528
0.339323
0.39558
0.12265
0.338366
0.830362
1.22997
1.65707
1.98319
2.32745
2.58714
2.84414
2.83423
2.82977
2.53851
2.251
1.80919
1.47953
1.04749
0.699516
0.276955
0.0639839
1.73379
3.59195
5.17541
5.36001
5.61675
5.76303
5.97416
6.09254
6.36705
6.49221
6.64377
6.4221
6.21976
5.48985
4.78299
3.72807
2.70438
2.23581
1.80402
1.48333
1.21425
0.63596
0.407011
0.26409
0.554949
0.590282
0.308161
0.0350113
0.41688
0.767622
1.1489
1.43263
1.74411
1.97586
2.22506
2.19461
2.16545
1.84182
1.59527
1.22446
0.961178
0.594208
0.32259
0.0403366
0.341152
1.54405
3.4851
4.87016
5.11047
5.42731
5.64233
5.92844
6.10411
6.38678
6.48615
6.59892
6.34395
6.10388
5.3561
4.62619
3.50723
2.41323
2.03272
1.6821
1.29242
0.959625
0.33769
0.0835724
0.617477
0.913801
0.864706
0.594406
0.359531
0.0771656
0.230402
0.575817
0.81172
1.0812
1.26114
1.46318
1.36947
1.29762
1.00361
0.836113
0.539799
0.347309
0.0487671
0.160011
0.461407
0.705425
1.267
3.29009
4.61217
4.91102
5.27337
5.56062
5.93678
6.20027
6.56363
6.66733
6.77137
6.50321
6.23423
5.47646
4.73357
3.55831
2.39962
2.11428
1.85318
1.39949
1.01795
0.359314
0.0841808
0.645327
0.948465
0.860949
0.663757
0.555979
0.390905
0.142797
0.15205
0.326708
0.541216
0.65836
0.80504
0.631069
0.510273
0.282394
0.206413
0.00928879
0.125946
0.352974
0.506317
0.74622
0.924461
1.13381
3.23705
4.15242
4.4869
4.8905
5.22832
5.661
5.98925
6.359
6.44958
6.54037
6.25455
5.96756
5.19009
4.41422
3.43693
2.45883
2.08325
1.72246
1.09707
0.607988
0.359755
0.93255
1.34775
1.32046
1.118
0.835871
0.748039
0.592144
0.432497
0.21627
0.112228
0.0400467
0.0512295
0.0990448
0.189962
0.323368
0.525051
0.527534
0.665096
0.711044
0.8685
0.959595
1.13861
1.26335
0.878098
3.05841
3.73804
4.11109
4.55991
4.95178
5.44345
5.79854
6.15567
6.23312
6.30832
6.00496
5.70299
4.91507
4.1268
3.38515
2.60402
2.08939
1.57521
0.85638
0.40414
0.745693
1.54116
1.6251
1.32356
1.06397
0.715851
0.667803
0.541027
0.489645
0.370291
0.354906
0.283812
0.394377
0.456367
0.834608
0.954884
1.13459
1.09043
1.14702
1.1243
1.2133
1.24073
1.36199
1.43969
0.780853
3.03392
3.49218
3.89805
4.38485
4.81932
5.34031
5.66519
5.99105
6.03417
6.07536
5.7359
5.39762
4.54074
3.63424
3.00472
2.3747
1.80791
1.2513
0.534765
0.103235
1.03144
1.79679
1.77594
1.53917
1.33442
1.06553
0.894829
0.636658
0.594381
0.473799
0.517506
0.495131
0.796606
1.03966
1.47696
1.61707
1.79818
1.75377
1.75923
1.67867
1.709
1.68774
1.75917
1.79497
0.4991
2.81938
3.29113
3.73301
4.26187
4.7367
5.23692
5.53075
5.82325
5.83212
5.74155
5.24594
4.74889
3.84426
2.93981
2.54244
2.14568
1.52672
0.955521
0.248493
0.154987
1.26771
1.99752
1.88948
1.69313
1.39411
1.09493
0.787403
0.411394
0.394604
0.292139
0.413929
0.458576
0.969877
1.36432
1.83815
2.00139
2.1925
2.16253
2.1591
2.02572
2.00393
1.94318
1.97182
1.9746
0.38604
2.76678
3.03962
3.50658
4.06668
4.51515
4.94976
5.0746
5.19814
5.07183
4.94818
4.53445
4.11936
3.45953
2.79999
2.37349
1.94749
1.24156
0.653124
0.36726
1.06545
1.88565
2.31186
2.08302
1.83792
1.5376
1.23714
0.933916
0.630323
0.54575
0.390341
0.562912
0.64979
1.32056
1.72791
2.19215
2.33916
2.51013
2.45987
2.43388
2.25656
2.16497
2.0449
2.01908
1.97454
0.444378
2.87781
2.83257
3.27892
3.73122
4.00818
4.28596
4.36171
4.43686
4.29538
4.15325
3.82147
3.48998
3.07497
2.66049
2.20487
1.74935
0.969137
0.384821
0.941547
1.92707
2.44897
2.57048
2.2766
1.98276
1.68114
1.37947
1.07713
0.774874
0.471436
0.167583
0.385288
0.52869
1.31395
1.71708
2.18622
2.33513
2.50454
2.45026
2.41997
2.24184
2.10454
1.93684
1.86755
1.78486
0.683022
3.16055
2.61857
2.98725
3.39668
3.67581
3.96866
4.06438
4.15976
4.04271
3.92531
3.61524
3.30523
2.88951
2.47421
1.99226
1.51047
0.751247
0.243818
1.19596
2.27706
2.67953
2.72015
2.4215
2.12287
1.80496
1.48702
1.13443
0.781927
0.428692
0.0751095
0.437592
0.787907
1.62109
2.04865
2.52135
2.67268
2.83847
2.78104
2.7455
2.56261
2.40968
2.18859
2.07172
1.95383
0.53904
3.03193
2.55763
2.86347
3.20184
3.41112
3.66258
3.76682
3.88242
3.78981
3.698
3.4096
3.12057
2.70415
2.28791
1.77963
1.27117
0.565237
0.142679
1.40294
2.57321
2.85219
2.86974
2.56634
2.26292
1.92871
1.59459
1.19173
0.788893
0.385841
0.0234928
0.391987
0.725222
1.54501
1.99249
2.4751
2.64378
2.82665
2.7889
2.76975
2.60236
2.47287
2.29406
2.19194
2.07456
0.418304
2.91119
2.20296
2.47411
2.77238
2.9477
3.15877
3.22989
3.34708
3.3117
3.28657
3.05639
2.82578
2.41116
1.99667
1.38367
0.786556
0.186094
0.855829
2.15513
3.06392
3.08441
2.98325
2.62982
2.27638
1.88548
1.49465
1.09256
0.688307
0.356081
0.0657196
0.307192
0.680193
1.49494
1.93091
2.3966
2.55489
2.72676
2.6842
2.66357
2.49971
2.42054
2.32572
2.29753
2.23096
0.240391
2.73237
2.01638
2.25911
2.52445
2.6723
2.84867
2.89018
2.97033
2.90108
2.88296
2.70303
2.53114
2.11831
1.70536
0.987648
0.332468
0.899401
1.80839
2.85428
3.49671
3.31231
3.09675
2.69329
2.28983
1.84225
1.3945
0.936205
0.38221
0.0857849
0.210617
0.212261
0.635046
1.44122
1.86663
2.3162
2.46477
2.62608
2.5771
2.55
2.3827
2.30154
2.21962
2.24891
2.25574
0.146938
2.58395
1.79133
2.00568
2.23745
2.364
2.51266
2.5436
2.60568
2.53298
2.5011
2.3125
2.18126
1.83602
1.49685
0.766705
0.178169
1.32047
2.47606
3.25282
3.61596
3.30809
3.00017
2.57172
2.14328
1.66871
1.09396
0.597237
0.100441
0.0924778
0.285284
0.174467
0.634089
1.42193
1.83115
2.25318
2.38051
2.51182
2.43702
2.37896
2.18298
2.07606
1.96888
1.97615
1.98362
0.357189
2.72605
1.73465
1.92823
2.13605
2.24995
2.37951
2.40952
2.46212
2.39636
2.36197
2.16691
2.01633
1.62214
1.29386
0.565722
0.0606327
1.69674
3.09196
3.59381
3.70401
3.30382
2.90375
2.4197
1.83435
1.24194
0.649408
0.234079
0.181189
0.270573
0.360037
0.136604
0.632984
1.39962
1.79298
2.18822
2.29591
2.39767
2.29611
2.20723
1.98426
1.85163
1.71883
1.70412
1.68818
0.651562
2.9913
1.8965
2.06955
2.25282
2.32962
2.41714
2.37988
2.35801
2.18146
2.02745
1.6758
1.35613
0.787176
0.267471
0.468819
0.886698
2.17727
3.0645
3.38273
3.39577
3.06451
2.63471
2.00934
1.38376
0.8123
0.240667
0.011261
0.263079
0.330399
0.39789
0.125923
0.645777
1.28519
1.55798
1.83422
1.8292
1.85136
1.67352
1.54182
1.2789
1.13064
0.982033
0.964706
0.946129
1.3936
3.73335
2.22005
2.3806
2.54728
2.59658
2.654
2.56084
2.47764
2.20395
1.94332
1.45139
0.981413
0.256535
0.411898
1.10603
1.47797
2.41367
2.90747
3.10203
2.97061
2.57336
2.1745
1.55379
0.933048
0.382439
0.168003
0.25651
0.345203
0.390524
0.435457
0.115547
0.65436
1.16742
1.32016
1.47808
1.36025
1.30302
1.05301
0.878738
0.574459
0.410595
0.244598
0.224644
0.20388
2.13585
4.4756
2.4122
2.53658
2.66417
2.66674
2.67464
2.52122
2.37322
2.02215
1.67766
1.08795
0.511358
0.325787
1.03304
1.69729
2.04053
2.86939
3.26143
3.38317
3.16923
2.77462
2.35726
1.77898
1.20066
0.673191
0.145927
0.0529594
0.252066
0.34359
0.434673
0.174152
0.759172
1.2479
1.38267
1.50926
1.36567
1.28192
1.00945
0.814461
0.492096
0.314247
0.134026
0.101665
0.068428
2.27131
4.61106
2.74793
2.84377
2.94944
2.9141
2.87609
2.67354
2.47268
2.05839
1.6506
0.980972
0.315878
0.575439
1.26948
1.87721
2.16863
2.87133
3.14984
3.19753
3.00876
2.694
2.35374
1.89962
1.42147
0.951923
0.459772
0.150494
0.158659
0.296331
0.434788
0.231737
0.860662
1.326
1.44305
1.53909
1.36974
1.25986
0.966114
0.750595
0.406376
0.214386
0.0237999
0.0209312
0.067215
2.40695
4.7467
3.03551
3.10296
3.17957
3.11044
3.03645
2.79445
2.55236
2.09212
1.63623
0.911453
0.190226
0.691776
1.36248
1.98743
2.302
2.9287
3.1503
3.17938
3.06335
2.84215
2.59507
2.25354
1.88691
1.52134
1.13151
0.864033
0.57427
0.481699
0.367386
0.979448
1.53323
1.94642
2.01743
2.07312
1.86871
1.72307
1.39736
1.14995
0.775944
0.557487
0.340916
0.271187
0.199574
2.14016
4.4799
3.38836
3.43767
3.48282
3.39269
3.3113
3.04384
2.77299
2.28273
1.78994
1.03715
0.34144
0.503603
1.13716
1.76572
2.09203
2.63464
2.79439
2.82178
2.76854
2.63232
2.47096
2.23628
1.97676
1.71175
1.42206
1.20469
0.964054
0.966835
0.94894
1.58883
2.10704
2.49807
2.54989
2.584
2.35655
2.18331
1.82589
1.54708
1.14521
0.900314
0.655708
0.560841
0.465343
1.87439
4.21413
3.58946
3.62004
3.646
3.53711
3.43749
3.15324
2.86542
2.37302
1.92448
1.2765
0.690451
0.05439
0.589882
1.1504
1.42044
1.91772
2.05623
2.10257
2.10814
2.04478
1.95803
1.79775
1.61389
1.43204
1.22621
1.24272
1.23612
1.31701
1.37694
2.07696
2.59065
2.99803
3.07369
3.12858
2.9243
2.76433
2.41922
2.14466
1.74026
1.47652
1.21093
1.09446
0.97683
1.35621
3.69005
3.79365
3.80563
3.81628
3.68842
3.56221
3.27194
3.02269
2.61298
2.25529
1.66789
1.13887
0.506372
0.0832539
0.390007
0.583292
1.0179
1.1195
1.16812
1.21154
1.20981
1.18665
1.09039
0.972252
0.864468
0.734154
0.976717
1.1974
1.35037
1.48018
2.23
2.73236
3.16345
3.27478
3.36298
3.19645
3.06432
2.7455
2.48976
2.10131
1.83258
1.56342
1.43734
1.3087
1.00754
3.32603
3.82385
3.81209
3.79883
3.65959
3.56035
3.33189
3.15287
2.79874
2.44005
1.85764
1.41359
0.874588
0.543909
0.149771
0.0260658
0.350441
0.414101
0.43574
0.4561
0.456347
0.456501
0.404398
0.340345
0.293438
0.225815
0.641987
1.03784
1.30009
1.54013
2.32983
2.83379
3.29101
3.4411
3.57024
3.44998
3.35643
3.0755
2.84942
2.48774
2.22504
1.95698
1.82769
1.69291
0.59874
2.8947
3.85473
3.83332
3.8489
3.76136
3.70596
3.53358
3.37109
2.99935
2.6293
2.10532
1.73857
1.28654
1.04682
0.722488
0.655334
0.328667
0.295763
0.297544
0.29957
0.309956
0.319536
0.383015
0.446913
0.468168
0.489391
0.0913925
0.653864
1.01698
1.36044
2.16981
2.67582
3.16188
3.35239
3.52768
3.45525
3.40737
3.18217
2.99456
2.66261
2.41707
2.15625
2.03116
1.90139
0.358879
2.62598
3.75754
3.77516
3.83493
3.7935
3.75201
3.55428
3.36261
2.96383
2.60146
2.14048
1.83818
1.45345
1.2782
1.01102
0.991127
0.713593
0.709969
0.734295
0.758904
0.779762
0.799829
0.871201
0.942984
0.96896
0.994774
0.358128
0.279322
0.744951
1.24263
2.02203
2.53083
3.0409
3.27003
3.48916
3.46782
3.46776
3.29195
3.1469
2.85522
2.63473
2.3884
2.27281
2.14928
0.0739021
2.30675
3.78479
3.84317
3.92654
3.86721
3.80432
3.57721
3.3409
2.92372