<VTKFile type="ImageData" version="1.0" byte_order="LittleEndian" header_type="UInt64">
	<ImageData WholeExtent="0 44 0 44 0 44" Origin="-0.13467 -0.00697991 -0.101969" Spacing="0.0053577 0.0053577 0.0053577">
		<Piece Extent="0 44 0 44 0 44">
			<PointData Scalars="Scalars_">
				<DataArray type="Float32" Name="Scalars_" format="ascii" RangeMin="0" RangeMax="100">
0.196573
0.191335
0.186096
0.180857
0.175619
0.17038
0.165141
0.159903
0.154664
0.149426
0.147179
0.14194
0.136702
0.131463
0.127289
0.12205
0.116811
0.111573
0.106334
0.104864
0.105637
0.106873
0.108013
0.113252
0.11849
0.123729
0.128967
0.12318
0.12789
0.133129
0.129691
0.13493
0.138183
0.143422
0.14866
0.153899
0.159137
0.164376
0.165452
0.170691
0.175547
0.180785
0.186024
0.191263
0.196501
0.191335
0.186096
0.180857
0.175619
0.17038
0.165141
0.159903
0.154664
0.149426
0.144187
0.14194
0.136702
0.131463
0.126225
0.12205
0.116811
0.111573
0.106334
0.101096
0.0996252
0.100399
0.101634
0.102774
0.108013
0.113252
0.11849
0.123729
0.117941
0.122651
0.12789
0.124452
0.129691
0.132944
0.138183
0.143422
0.14866
0.153899
0.159137
0.160213
0.165452
0.170308
0.175547
0.180785
0.186024
0.191263
0.186096
0.180857
0.175619
0.17038
0.165141
0.159903
0.154664
0.149426
0.144187
0.138948
0.136702
0.131463
0.126225
0.120986
0.116811
0.111573
0.106334
0.101096
0.0958569
0.0943865
0.0951601
0.0963958
0.0975356
0.102774
0.108013
0.113252
0.11849
0.112703
0.117413
0.122651
0.119214
0.124452
0.127706
0.132944
0.138183
0.143422
0.14866
0.153899
0.154975
0.160213
0.165069
0.170308
0.175547
0.180785
0.186024
0.180857
0.175619
0.17038
0.165141
0.159903
0.154664
0.149426
0.144187
0.138948
0.13371
0.131463
0.126225
0.120986
0.115747
0.111573
0.106334
0.101096
0.0958569
0.0906183
0.0891479
0.0899215
0.0911572
0.092297
0.0975356
0.102774
0.108013
0.113252
0.107464
0.112174
0.117413
0.113975
0.119214
0.122467
0.127706
0.132944
0.138183
0.143422
0.14866
0.149736
0.154975
0.159831
0.165069
0.170308
0.175547
0.180785
0.175619
0.17038
0.165141
0.159903
0.154664
0.149426
0.144187
0.138948
0.13371
0.128471
0.126225
0.120986
0.115747
0.110509
0.106334
0.101096
0.0958569
0.0906183
0.0853796
0.0839093
0.0846829
0.0859185
0.0870583
0.092297
0.0975356
0.102774
0.108013
0.102226
0.106935
0.112174
0.108737
0.113975
0.117228
0.122467
0.127706
0.132944
0.138183
0.143422
0.144497
0.149736
0.154592
0.159831
0.165069
0.170308
0.175547
0.17038
0.165141
0.159903
0.154664
0.149426
0.144187
0.138948
0.13371
0.128471
0.123232
0.120986
0.115747
0.110509
0.10527
0.101096
0.0958569
0.0906183
0.0853796
0.080141
0.0786706
0.0794442
0.0806799
0.0818197
0.0870583
0.092297
0.0975356
0.102774
0.0969869
0.101697
0.106935
0.103498
0.108737
0.11199
0.117228
0.122467
0.127706
0.132944
0.138183
0.139259
0.144497
0.149354
0.154592
0.159831
0.165069
0.170308
0.165141
0.159903
0.154664
0.149426
0.144187
0.138948
0.13371
0.128471
0.123232
0.117994
0.115747
0.110509
0.10527
0.100031
0.0958569
0.0906183
0.0853796
0.080141
0.0749023
0.073432
0.0742056
0.0754412
0.0765811
0.0818197
0.0870583
0.092297
0.0975356
0.0917483
0.0964581
0.101697
0.0982593
0.103498
0.106751
0.11199
0.117228
0.122467
0.127706
0.132944
0.13402
0.139259
0.144115
0.149354
0.154592
0.159831
0.165069
0.159903
0.154664
0.149426
0.144187
0.138948
0.13371
0.128471
0.123232
0.117994
0.112755
0.110509
0.10527
0.100031
0.0947927
0.0906183
0.0853796
0.080141
0.0749023
0.0696637
0.0681933
0.068967
0.0702026
0.0713424
0.0765811
0.0818197
0.0870583
0.092297
0.0865097
0.0912194
0.0964581
0.0930206
0.0982593
0.101512
0.106751
0.11199
0.117228
0.122467
0.127706
0.128781
0.13402
0.138876
0.144115
0.149354
0.154592
0.159831
0.160742
0.155503
0.150265
0.145026
0.139788
0.134549
0.12931
0.124072
0.118833
0.113594
0.112092
0.106853
0.101615
0.0963759
0.0915596
0.086321
0.0810824
0.0758437
0.0706051
0.0690999
0.0691148
0.0698465
0.0750851
0.0803238
0.0817241
0.0864137
0.0916524
0.081271
0.0859808
0.0912194
0.087782
0.0930206
0.0964038
0.101642
0.106881
0.11212
0.117358
0.122597
0.123543
0.128781
0.133638
0.138876
0.144115
0.149354
0.154592
0.165981
0.160742
0.155503
0.150265
0.145026
0.139788
0.134549
0.12931
0.124072
0.118833
0.116492
0.111254
0.106015
0.100776
0.0970349
0.0917962
0.0865576
0.081319
0.0760803
0.0708417
0.0704478
0.0756865
0.0809251
0.0755022
0.0764855
0.0811751
0.0864137
0.0760324
0.0807422
0.0859808
0.0825434
0.087782
0.0925676
0.0978062
0.103045
0.108284
0.113522
0.118761
0.118304
0.123543
0.128399
0.133638
0.138876
0.144115
0.149354
0.171219
0.165981
0.160742
0.155503
0.150265
0.145026
0.139788
0.134549
0.12931
0.124072
0.119301
0.114062
0.111254
0.106015
0.107683
0.107891
0.0917962
0.0865576
0.081319
0.0760803
0.0756865
0.0864374
0.0812287
0.0702635
0.0712468
0.0759364
0.0811751
0.0707938
0.0755035
0.0807422
0.0773047
0.0825434
0.0873886
0.0926272
0.0978658
0.103104
0.108343
0.113582
0.113066
0.118304
0.12316
0.128399
0.133638
0.138876
0.144115
0.166443
0.161205
0.155966
0.150727
0.145489
0.14025
0.135011
0.129773
0.124534
0.119296
0.114062
0.108823
0.112539
0.1073
0.102731
0.102652
0.107392
0.102153
0.0969147
0.0916761
0.0864374
0.0811988
0.0759901
0.0650249
0.0660082
0.0706978
0.0759364
0.069032
0.0702649
0.0755035
0.0756597
0.0808984
0.086137
0.0913757
0.0966143
0.101853
0.107092
0.11233
0.11167
0.116909
0.121287
0.126526
0.131764
0.137003
0.142242
0.161205
0.155966
0.150727
0.145489
0.14025
0.135011
0.129773
0.124534
0.119296
0.114057
0.108823
0.103585
0.1073
0.102062
0.0974924
0.0976272
0.102153
0.0969147
0.0916761
0.0864374
0.0811988
0.0759602
0.0707514
0.0639862
0.0643895
0.0654592
0.0706978
0.0759364
0.0701445
0.0753831
0.0748377
0.0800764
0.085315
0.0905536
0.0957923
0.101031
0.10627
0.111508
0.111811
0.117049
0.120571
0.12581
0.131048
0.136287
0.141525
0.155966
0.150727
0.145489
0.14025
0.135011
0.129773
0.124534
0.119296
0.114057
0.108818
0.103585
0.0983461
0.102062
0.0968229
0.0922538
0.0958817
0.0969147
0.0916761
0.0864374
0.0811988
0.0759602
0.0707215
0.0655128
0.0707514
0.0633859
0.0643852
0.0657534
0.070992
0.069213
0.0709983
0.0749707
0.0802093
0.085448
0.0906866
0.0959253
0.101164
0.106403
0.111641
0.11595
0.121189
0.121615
0.126854
0.131958
0.137197
0.142435
0.150727
0.145489
0.14025
0.135011
0.129773
0.124534
0.119296
0.114057
0.108818
0.10358
0.0983461
0.0931074
0.0968229
0.0915843
0.0870151
0.0919079
0.0916761
0.0864374
0.0811988
0.0759602
0.0707215
0.0654829
0.0602742
0.0655128
0.0630293
0.0642043
0.0652141
0.0704527
0.06852
0.0704013
0.0741221
0.0793607
0.0845994
0.089838
0.0950767
0.100315
0.105554
0.110793
0.116031
0.12127
0.123823
0.129062
0.13325
0.138489
0.143727
0.145489
0.14025
0.135011
0.129773
0.124534
0.119296
0.114057
0.108818
0.10358
0.098341
0.0931074
0.0878688
0.0915843
0.0863457
0.0817765
0.0870151
0.0864374
0.0811988
0.0759602
0.0707215
0.0654829
0.0602443
0.0594334
0.064672
0.063598
0.0631266
0.0640744
0.0655736
0.068824
0.0708274
0.0738761
0.0768221
0.0819287
0.0871673
0.0924059
0.0976446
0.102883
0.108122
0.11336
0.118599
0.123838
0.129076
0.134315
0.139554
0.144792
0.143613
0.138375
0.133136
0.127897
0.122659
0.11742
0.112182
0.106943
0.101704
0.0964657
0.091227
0.0859884
0.0904293
0.0851907
0.079952
0.0851907
0.0862422
0.0810035
0.0757649
0.0705262
0.0652876
0.060049
0.0592073
0.0602039
0.0643559
0.0629143
0.0642088
0.0657955
0.0689453
0.071125
0.0742526
0.0794912
0.0816639
0.0869025
0.0921412
0.0973798
0.102618
0.107857
0.113096
0.118334
0.123573
0.128812
0.13405
0.139289
0.144528
0.141957
0.136718
0.13148
0.126241
0.121002
0.115764
0.110525
0.105287
0.100048
0.0948092
0.0896556
0.0903436
0.0857316
0.080493
0.0789793
0.0842179
0.0866929
0.0814543
0.0762156
0.070977
0.0657384
0.0604997
0.0593841
0.0599945
0.0644222
0.0629237
0.0646304
0.0664489
0.0692566
0.071322
0.0748427
0.0800813
0.0810997
0.0863383
0.09116
0.0963986
0.101637
0.106876
0.112115
0.117353
0.122592
0.12783
0.133069
0.138308
0.143546
0.139531
0.134292
0.129054
0.123815
0.118576
0.113338
0.108099
0.10286
0.0976217
0.0923831
0.0871445
0.0901999
0.0945406
0.0899642
0.0847256
0.0794869
0.0847256
0.0866929
0.0814543
0.0762156
0.070977
0.0657384
0.0607084
0.0610737
0.0631694
0.0638018
0.0653304
0.070569
0.0697215
0.0749601
0.0755875
0.0808261
0.0817858
0.0870245
0.0918177
0.0970563
0.102295
0.107534
0.112772
0.118011
0.12325
0.128488
0.133727
0.138965
0.144204
0.139674
0.134435
0.129197
0.123958
0.118719
0.113481
0.108242
0.103003
0.0977648
0.0925261
0.08748
0.0945406
0.089302
0.0869179
0.0847303
0.0794916
0.0847303
0.0846629
0.081456
0.0762174
0.0709788
0.0657401
0.0641253
0.0639113
0.064328
0.0654672
0.070569
0.0758076
0.0715462
0.0767848
0.0771042
0.0823428
0.0856827
0.0909213
0.0954602
0.100699
0.105937
0.111176
0.116415
0.121653
0.126892
0.132131
0.137369
0.142608
0.147847
0.142426
0.137187
0.131949
0.12671
0.121471
0.116233
0.110994
0.105755
0.100517
0.0952781
0.0900395
0.089302
0.0840634
0.0816792
0.0861148
0.0847303
0.0846629
0.0794242
0.0841281
0.081456
0.0762174
0.0709788
0.0693639
0.0691499
0.0695666
0.070469
0.0714185
0.0747777
0.0767848
0.0820235
0.0822052
0.0874439
0.0872845
0.0925231
0.0970306
0.102269
0.107508
0.112747
0.117985
0.123224
0.128462
0.133701
0.13894
0.144178
0.149417
0.154217
0.148978
0.14374
0.138501
0.133263
0.128024
0.122785
0.117547
0.112308
0.107069
0.101831
0.0965921
0.0913534
0.0861148
0.0808762
0.0861148
0.085898
0.0841281
0.0788895
0.0841281
0.081456
0.0762174
0.0746026
0.0743885
0.0748053
0.0757076
0.0766572
0.0800163
0.0820235
0.0872621
0.0874439
0.0926825
0.0918405
0.0970792
0.0979831
0.103222
0.10846
0.113699
0.118938
0.124176
0.129415
0.134654
0.139892
0.145131
0.150369
0.155157
0.149919
0.14468
0.139442
0.134203
0.128964
0.123726
0.118487
0.113248
0.10801
0.102771
0.0975325
0.0922938
0.0872235
0.0819848
0.0809458
0.0806594
0.085898
0.0799038
0.0851424
0.0866947
0.081456
0.0798412
0.0796272
0.0800439
0.0809463
0.0818958
0.085255
0.0872621
0.0925007
0.0926825
0.0979211
0.0970792
0.102318
0.102809
0.108048
0.112578
0.117817
0.123055
0.128294
0.133533
0.138771
0.14401
0.149249
0.154487
0.149919
0.14468
0.139442
0.134203
0.128964
0.123726
0.118487
0.113248
0.10801
0.102771
0.0975325
0.0922938
0.0870552
0.0854002
0.0906389
0.0958775
0.0853657
0.0906044
0.0851424
0.090381
0.0919333
0.0866947
0.0850798
0.0848658
0.0852825
0.0861849
0.0871344
0.0904936
0.0925007
0.0977394
0.0979211
0.10316
0.102318
0.107556
0.108048
0.113286
0.117817
0.123055
0.128294
0.133533
0.138771
0.14401
0.149249
0.154487
0.159726
0.14468
0.139442
0.134203
0.128964
0.123726
0.118487
0.113248
0.10801
0.102771
0.0975325
0.0922938
0.0870552
0.0818165
0.0801616
0.0854002
0.0906389
0.0958775
0.101116
0.090381
0.0956197
0.097172
0.0919333
0.0903185
0.0901045
0.0905212
0.0914236
0.0923731
0.0957323
0.0977394
0.102978
0.10316
0.108398
0.107556
0.112795
0.113286
0.118525
0.123055
0.128294
0.133533
0.138771
0.14401
0.149249
0.154487
0.159726
0.164964
0.139442
0.134203
0.128964
0.123726
0.118487
0.113248
0.10801
0.102771
0.0975325
0.0922938
0.0870552
0.0818165
0.0765779
0.0749229
0.0801616
0.0854002
0.0906389
0.0958775
0.101116
0.106355
0.111593
0.097172
0.0955571
0.0953431
0.0957598
0.0966622
0.0976117
0.100971
0.102978
0.108217
0.108398
0.113637
0.112795
0.118034
0.118525
0.123764
0.128294
0.133533
0.138771
0.14401
0.149249
0.154487
0.159726
0.164964
0.170203
0.134203
0.128964
0.123726
0.118487
0.113248
0.10801
0.102771
0.0975325
0.0922938
0.0870552
0.0818165
0.0765779
0.0713393
0.0696843
0.0749229
0.0801616
0.0854002
0.0906389
0.0958775
0.101116
0.106355
0.111593
0.100796
0.100582
0.100998
0.101901
0.10285
0.10621
0.108217
0.113455
0.113637
0.118876
0.118034
0.123272
0.123764
0.129002
0.133533
0.138771
0.14401
0.149249
0.154487
0.159726
0.164964
0.170203
0.175442
0.128964
0.123726
0.118487
0.113248
0.10801
0.102771
0.0975325
0.0922938
0.0870552
0.0818165
0.0765779
0.0713393
0.0661006
0.0644457
0.0696843
0.0749229
0.0801616
0.0854002
0.0906389
0.0958775
0.101116
0.106355
0.111593
0.116832
0.106237
0.107139
0.108089
0.111448
0.113455
0.118694
0.118876
0.124114
0.123272
0.128511
0.129002
0.134241
0.138771
0.14401
0.149249
0.154487
0.159726
0.164964
0.170203
0.175442
0.18068
0.123726
0.118487
0.113248
0.10801
0.102771
0.0975325
0.0922938
0.0870552
0.0818165
0.0765779
0.0713393
0.0661006
0.060862
0.059207
0.0644457
0.0696843
0.0749229
0.0801616
0.0854002
0.0906389
0.0958775
0.101116
0.106355
0.111593
0.116832
0.122071
0.113328
0.116687
0.118694
0.123933
0.124114
0.129353
0.128511
0.13375
0.134241
0.13948
0.14401
0.149249
0.154487
0.159726
0.164964
0.170203
0.175442
0.18068
0.185919
0.118487
0.113248
0.10801
0.102771
0.0975325
0.0922938
0.0870552
0.0818165
0.0765779
0.0713393
0.0661006
0.060862
0.0556233
0.0539684
0.059207
0.0644457
0.0696843
0.0749229
0.0801616
0.0854002
0.0906389
0.0958775
0.101116
0.106355
0.111593
0.116832
0.122071
0.127309
0.132548
0.137787
0.129353
0.134592
0.13375
0.138988
0.13948
0.144718
0.149249
0.154487
0.159726
0.164964
0.170203
0.175442
0.18068
0.185919
0.191158
0.113248
0.10801
0.102771
0.0975325
0.0922938
0.0870552
0.0818165
0.0765779
0.0713393
0.0661006
0.060862
0.0556233
0.0503847
0.0487298
0.0539684
0.059207
0.0644457
0.0696843
0.0749229
0.0801616
0.0854002
0.0906389
0.0958775
0.101116
0.106355
0.111593
0.116832
0.122071
0.127309
0.132548
0.137787
0.143025
0.148264
0.153503
0.144718
0.149957
0.154487
0.159726
0.164964
0.170203
0.175442
0.18068
0.185919
0.191158
0.196396
0.10801
0.102771
0.0975325
0.0922938
0.0870552
0.0818165
0.0765779
0.0713393
0.0661006
0.060862
0.0556233
0.0503847
0.0451461
0.0434911
0.0487298
0.0539684
0.059207
0.0644457
0.0696843
0.0749229
0.0801616
0.0854002
0.0906389
0.0958775
0.101116
0.106355
0.111593
0.116832
0.122071
0.127309
0.132548
0.137787
0.143025
0.148264
0.153503
0.158741
0.16398
0.169218
0.174457
0.179696
0.184934
0.190173
0.195412
0.20065
0.205889
0.102771
0.0975325
0.0922938
0.0870552
0.0818165
0.0765779
0.0713393
0.0661006
0.060862
0.0556233
0.0503847
0.0451461
0.0399074
0.0382525
0.0434911
0.0487298
0.0539684
0.059207
0.0644457
0.0696843
0.0749229
0.0801616
0.0854002
0.0906389
0.0958775
0.101116
0.106355
0.111593
0.116832
0.122071
0.127309
0.132548
0.137787
0.143025
0.148264
0.153503
0.158741
0.16398
0.169218
0.174457
0.179696
0.184934
0.190173
0.195412
0.20065
0.102131
0.0968922
0.0916535
0.0864149
0.0811763
0.0759376
0.070699
0.0654603
0.0602217
0.0549831
0.0497444
0.0445058
0.0392671
0.0369302
0.0395151
0.0447537
0.0499923
0.055231
0.0604696
0.0657083
0.0709469
0.0761855
0.0814242
0.0866628
0.0919014
0.0971401
0.102379
0.107617
0.112856
0.118095
0.123333
0.128572
0.133811
0.139049
0.144288
0.149526
0.154765
0.160004
0.165242
0.170481
0.17572
0.180958
0.186197
0.191436
0.196674
0.10172
0.0964816
0.091243
0.0860043
0.0807657
0.0755271
0.0702884
0.0650498
0.0598111
0.0545725
0.0493339
0.0440952
0.0388566
0.0376582
0.0393449
0.0445836
0.0498222
0.0550609
0.0602995
0.0655382
0.0707768
0.0760154
0.0812541
0.071185
0.0764236
0.0816623
0.0869009
0.0921395
0.0973782
0.102617
0.107855
0.113094
0.118333
0.123571
0.12881
0.134049
0.139287
0.144526
0.149765
0.155003
0.160242
0.16548
0.170719
0.175958
0.181196
0.101174
0.0959357
0.0906971
0.0854585
0.0802198
0.0749812
0.0697426
0.0645039
0.0592653
0.0540266
0.048788
0.0435494
0.0383107
0.0370757
0.0423143
0.047553
0.0527916
0.0580303
0.0632689
0.0685075
0.0737462
0.0789848
0.0710398
0.0698166
0.0750552
0.0802938
0.0855325
0.0907711
0.0960097
0.101248
0.106487
0.111726
0.116964
0.122203
0.127442
0.13268
0.137919
0.143157
0.148396
0.153635
0.158873
0.164112
0.169351
0.174589
0.179828
0.101933
0.0966942
0.0914556
0.0862169
0.0809783
0.0757397
0.070501
0.0652624
0.0600237
0.0547851
0.0495465
0.0443078
0.0390692
0.0393536
0.0445922
0.0498309
0.0550695
0.0603082
0.0655468
0.0707854
0.0760241
0.0812627
0.0708295
0.0709162
0.0761548
0.0813934
0.0866321
0.0918707
0.0971093
0.102348
0.107587
0.112825
0.118064
0.123303
0.128541
0.13378
0.139018
0.144257
0.149496
0.154734
0.159973
0.165212
0.17045
0.175689
0.180928
0.107171
0.101933
0.0966942
0.0914556
0.0862169
0.0809783
0.0757397
0.070501
0.0652624
0.0600237
0.0547851
0.0495465
0.0443078
0.0445922
0.0498309
0.0550695
0.0603082
0.0655468
0.0707854
0.0760241
0.0812627
0.0865014
0.0760682
0.0761548
0.0813934
0.0866321
0.0918707
0.0971093
0.102348
0.107587
0.112825
0.118064
0.123303
0.128541
0.13378
0.139018
0.144257
0.149496
0.154734
0.159973
0.165212
0.17045
0.175689
0.180928
0.186166
0.11241
0.107171
0.101933
0.0966942
0.0914556
0.0862169
0.0809783
0.0757397
0.070501
0.0652624
0.0600237
0.0547851
0.0495465
0.0498309
0.0550695
0.0603082
0.0655468
0.0707854
0.0760241
0.0812627
0.0865014
0.09174
0.0813068
0.0813934
0.0866321
0.0918707
0.0971093
0.102348
0.107587
0.112825
0.118064
0.123303
0.128541
0.13378
0.139018
0.144257
0.149496
0.154734
0.159973
0.165212
0.17045
0.175689
0.180928
0.186166
0.191405
0.117649
0.11241
0.107171
0.101933
0.0966942
0.0914556
0.0862169
0.0809783
0.0757397
0.070501
0.0652624
0.0600237
0.0547851
0.0550695
0.0603082
0.0655468
0.0707854
0.0760241
0.0812627
0.0865014
0.09174
0.0969786
0.0865454
0.0866321
0.0918707
0.0971093
0.102348
0.107587
0.112825
0.118064
0.123303
0.128541
0.13378
0.139018
0.144257
0.149496
0.154734
0.159973
0.165212
0.17045
0.175689
0.180928
0.186166
0.191405
0.196643
0.122887
0.117649
0.11241
0.107171
0.101933
0.0966942
0.0914556
0.0862169
0.0809783
0.0757397
0.070501
0.0652624
0.0600237
0.0603082
0.0655468
0.0707854
0.0760241
0.0812627
0.0865014
0.09174
0.0969786
0.102217
0.0917841
0.0918707
0.0971093
0.102348
0.107587
0.112825
0.118064
0.123303
0.128541
0.13378
0.139018
0.144257
0.149496
0.154734
0.159973
0.165212
0.17045
0.175689
0.180928
0.186166
0.191405
0.196643
0.201882
0.128126
0.122887
0.117649
0.11241
0.107171
0.101933
0.0966942
0.0914556
0.0862169
0.0809783
0.0757397
0.070501
0.0652624
0.0655468
0.0707854
0.0760241
0.0812627
0.0865014
0.09174
0.0969786
0.102217
0.107456
0.0970227
0.0971093
0.102348
0.107587
0.112825
0.118064
0.123303
0.128541
0.13378
0.139018
0.144257
0.149496
0.154734
0.159973
0.165212
0.17045
0.175689
0.180928
0.186166
0.191405
0.196643
0.201882
0.207121
0.133365
0.128126
0.122887
0.117649
0.11241
0.107171
0.101933
0.0966942
0.0914556
0.0862169
0.0809783
0.0757397
0.070501
0.0707854
0.0760241
0.0812627
0.0865014
0.09174
0.0969786
0.102217
0.107456
0.112695
0.102261
0.102348
0.107587
0.112825
0.118064
0.123303
0.128541
0.13378
0.139018
0.144257
0.149496
0.154734
0.159973
0.165212
0.17045
0.175689
0.180928
0.186166
0.191405
0.196643
0.201882
0.207121
0.212359
0.138603
0.133365
0.128126
0.122887
0.117649
0.11241
0.107171
0.101933
0.0966942
0.0914556
0.0862169
0.0809783
0.0757397
0.0760241
0.0812627
0.0865014
0.09174
0.0969786
0.102217
0.107456
0.112695
0.117933
0.1075
0.107587
0.112825
0.118064
0.123303
0.128541
0.13378
0.139018
0.144257
0.149496
0.154734
0.159973
0.165212
0.17045
0.175689
0.180928
0.186166
0.191405
0.196643
0.201882
0.207121
0.212359
0.217598
0.143842
0.138603
0.133365
0.128126
0.122887
0.117649
0.11241
0.107171
0.101933
0.0966942
0.0914556
0.0862169
0.0809783
0.0812627
0.0865014
0.09174
0.0969786
0.102217
0.107456
0.112695
0.117933
0.123172
0.112739
0.112825
0.118064
0.123303
0.128541
0.13378
0.139018
0.144257
0.149496
0.154734
0.159973
0.165212
0.17045
0.175689
0.180928
0.186166
0.191405
0.196643
0.201882
0.207121
0.212359
0.217598
0.222837
0.191335
0.186096
0.180857
0.175619
0.17038
0.165141
0.159903
0.154664
0.149426
0.144187
0.14194
0.136702
0.131463
0.126225
0.12205
0.116811
0.111573
0.106334
0.101096
0.0996252
0.100399
0.101634
0.102774
0.108013
0.113252
0.11849
0.123729
0.117941
0.122651
0.12789
0.124452
0.129691
0.132944
0.138183
0.143422
0.14866
0.153899
0.159137
0.160213
0.165452
0.170308
0.175547
0.180785
0.186024
0.191263
0.186096
0.180857
0.175619
0.17038
0.165141
0.159903
0.154664
0.149426
0.144187
0.138948
0.136702
0.131463
0.126225
0.120986
0.116811
0.111573
0.106334
0.101096
0.0958569
0.0943865
0.0951601
0.0963958
0.0975356
0.102774
0.108013
0.113252
0.11849
0.112703
0.117413
0.122651
0.119214
0.124452
0.127706
0.132944
0.138183
0.143422
0.14866
0.153899
0.154975
0.160213
0.165069
0.170308
0.175547
0.180785
0.186024
0.180857
0.175619
0.17038
0.165141
0.159903
0.154664
0.149426
0.144187
0.138948
0.13371
0.131463
0.126225
0.120986
0.115747
0.111573
0.106334
0.101096
0.0958569
0.0906183
0.0891479
0.0899215
0.0911572
0.092297
0.0975356
0.102774
0.108013
0.113252
0.107464
0.112174
0.117413
0.113975
0.119214
0.122467
0.127706
0.132944
0.138183
0.143422
0.14866
0.149736
0.154975
0.159831
0.165069
0.170308
0.175547
0.180785
0.175619
0.17038
0.165141
0.159903
0.154664
0.149426
0.144187
0.138948
0.13371
0.128471
0.126225
0.120986
0.115747
0.110509
0.106334
0.101096
0.0958569
0.0906183
0.0853796
0.0839093
0.0846829
0.0859185
0.0870583
0.092297
0.0975356
0.102774
0.108013
0.102226
0.106935
0.112174
0.108737
0.113975
0.117228
0.122467
0.127706
0.132944
0.138183
0.143422
0.144497
0.149736
0.154592
0.159831
0.165069
0.170308
0.175547
0.17038
0.165141
0.159903
0.154664
0.149426
0.144187
0.138948
0.13371
0.128471
0.123232
0.120986
0.115747
0.110509
0.10527
0.101096
0.0958569
0.0906183
0.0853796
0.080141
0.0786706
0.0794442
0.0806799
0.0818197
0.0870583
0.092297
0.0975356
0.102774
0.0969869
0.101697
0.106935
0.103498
0.108737
0.11199
0.117228
0.122467
0.127706
0.132944
0.138183
0.139259
0.144497
0.149354
0.154592
0.159831
0.165069
0.170308
0.165141
0.159903
0.154664
0.149426
0.144187
0.138948
0.13371
0.128471
0.123232
0.117994
0.115747
0.110509
0.10527
0.100031
0.0958569
0.0906183
0.0853796
0.080141
0.0749023
0.073432
0.0742056
0.0754412
0.0765811
0.0818197
0.0870583
0.092297
0.0975356
0.0917483
0.0964581
0.101697
0.0982593
0.103498
0.106751
0.11199
0.117228
0.122467
0.127706
0.132944
0.13402
0.139259
0.144115
0.149354
0.154592
0.159831
0.165069
0.159903
0.154664
0.149426
0.144187
0.138948
0.13371
0.128471
0.123232
0.117994
0.112755
0.110509
0.10527
0.100031
0.0947927
0.0906183
0.0853796
0.080141
0.0749023
0.0696637
0.0681933
0.068967
0.0702026
0.0713424
0.0765811
0.0818197
0.0870583
0.092297
0.0865097
0.0912194
0.0964581
0.0930206
0.0982593
0.101512
0.106751
0.11199
0.117228
0.122467
0.127706
0.128781
0.13402
0.138876
0.144115
0.149354
0.154592
0.159831
0.154664
0.149426
0.144187
0.138948
0.13371
0.128471
0.123232
0.117994
0.112755
0.107516
0.10527
0.100031
0.0947927
0.089554
0.0853796
0.080141
0.0749023
0.0696637
0.0644251
0.0629547
0.0637283
0.064964
0.0661038
0.0713424
0.0765811
0.0818197
0.0870583
0.081271
0.0859808
0.0912194
0.087782
0.0930206
0.0962738
0.101512
0.106751
0.11199
0.117228
0.122467
0.123543
0.128781
0.133638
0.138876
0.144115
0.149354
0.154592
0.155503
0.150265
0.145026
0.139788
0.134549
0.12931
0.124072
0.118833
0.113594
0.108356
0.106853
0.101615
0.0963759
0.0911373
0.086321
0.0810824
0.0758437
0.0706051
0.0653665
0.0638613
0.0638761
0.0646079
0.0698465
0.0750851
0.0764855
0.0811751
0.0864137
0.0760324
0.0807422
0.0859808
0.0825434
0.087782
0.0911651
0.0964038
0.101642
0.106881
0.11212
0.117358
0.118304
0.123543
0.128399
0.133638
0.138876
0.144115
0.149354
0.160742
0.155503
0.150265
0.145026
0.139788
0.134549
0.12931
0.124072
0.118833
0.113594
0.111254
0.106015
0.100776
0.0955377
0.0917962
0.0865576
0.081319
0.0760803
0.0708417
0.0656031
0.0652092
0.0704478
0.0756865
0.0702635
0.0712468
0.0759364
0.0811751
0.0707938
0.0755035
0.0807422
0.0773047
0.0825434
0.087329
0.0925676
0.0978062
0.103045
0.108284
0.113522
0.113066
0.118304
0.12316
0.128399
0.133638
0.138876
0.144115
0.165981
0.160742
0.155503
0.150265
0.145026
0.139788
0.134549
0.12931
0.124072
0.118833
0.114062
0.108823
0.106015
0.100776
0.102445
0.102652
0.0865576
0.081319
0.0760803
0.0708417
0.0704478
0.0811988
0.0759901
0.0650249
0.0660082
0.0706978
0.0759364
0.0655551
0.0702649
0.0755035
0.0720661
0.0773047
0.0821499
0.0873886
0.0926272
0.0978658
0.103104
0.108343
0.107827
0.113066
0.117922
0.12316
0.128399
0.133638
0.138876
0.161205
0.155966
0.150727
0.145489
0.14025
0.135011
0.129773
0.124534
0.119296
0.114057
0.108823
0.103585
0.1073
0.102062
0.0974924
0.0974135
0.102153
0.0969147
0.0916761
0.0864374
0.0811988
0.0759602
0.0707514
0.0597862
0.0607696
0.0654592
0.0706978
0.0637934
0.0650263
0.0702649
0.0704211
0.0756597
0.0808984
0.086137
0.0913757
0.0966143
0.101853
0.107092
0.106432
0.11167
0.116048
0.121287
0.126526
0.131764
0.137003
0.155966
0.150727
0.145489
0.14025
0.135011
0.129773
0.124534
0.119296
0.114057
0.108818
0.103585
0.0983461
0.102062
0.0968229
0.0922538
0.0923886
0.0969147
0.0916761
0.0864374
0.0811988
0.0759602
0.0707215
0.0655128
0.0587476
0.0591509
0.0602205
0.0654592
0.0706978
0.0649058
0.0701445
0.0695991
0.0748377
0.0800764
0.085315
0.0905536
0.0957923
0.101031
0.10627
0.106572
0.111811
0.115332
0.120571
0.12581
0.131048
0.136287
0.150727
0.145489
0.14025
0.135011
0.129773
0.124534
0.119296
0.114057
0.108818
0.10358
0.0983461
0.0931074
0.0968229
0.0915843
0.0870151
0.090643
0.0916761
0.0864374
0.0811988
0.0759602
0.0707215
0.0654829
0.0602742
0.0655128
0.0581472
0.0591466
0.0605148
0.0657534
0.0639743
0.0657597
0.0697321
0.0749707
0.0802093
0.085448
0.0906866
0.0959253
0.101164
0.106403
0.110711
0.11595
0.116376
0.121615
0.12672
0.131958
0.137197
0.145489
0.14025
0.135011
0.129773
0.124534
0.119296
0.114057
0.108818
0.10358
0.098341
0.0931074
0.0878688
0.0915843
0.0863457
0.0817765
0.0866692
0.0864374
0.0811988
0.0759602
0.0707215
0.0654829
0.0602443
0.0550355
0.0602742
0.0577906
0.0589657
0.0599754
0.0652141
0.0632814
0.0651627
0.0688835
0.0741221
0.0793607
0.0845994
0.089838
0.0950767
0.100315
0.105554
0.110793
0.116031
0.118585
0.123823
0.128011
0.13325
0.138489
0.14025
0.135011
0.129773
0.124534
0.119296
0.114057
0.108818
0.10358
0.098341
0.0931023
0.0878688
0.0826302
0.0863457
0.081107
0.0765379
0.0817765
0.0811988
0.0759602
0.0707215
0.0654829
0.0602443
0.0550056
0.0541947
0.0594334
0.0583594
0.057888
0.0588358
0.0603349
0.0635854
0.0655888
0.0686375
0.0715835
0.07669
0.0819287
0.0871673
0.0924059
0.0976446
0.102883
0.108122
0.11336
0.118599
0.123838
0.129076
0.134315
0.139554
0.138375
0.133136
0.127897
0.122659
0.11742
0.112182
0.106943
0.101704
0.0964657
0.091227
0.0859884
0.0807497
0.0851907
0.079952
0.0747134
0.079952
0.0810035
0.0757649
0.0705262
0.0652876
0.060049
0.0548103
0.0539687
0.0549652
0.0591173
0.0576757
0.0589702
0.0605569
0.0637067
0.0658863
0.069014
0.0742526
0.0764253
0.0816639
0.0869025
0.0921412
0.0973798
0.102618
0.107857
0.113096
0.118334
0.123573
0.128812
0.13405
0.139289
0.136718
0.13148
0.126241
0.121002
0.115764
0.110525
0.105287
0.100048
0.0948092
0.0895706
0.0844169
0.0851049
0.080493
0.0752544
0.0737406
0.0789793
0.0814543
0.0762156
0.070977
0.0657384
0.0604997
0.0552611
0.0541455
0.0547559
0.0591835
0.0576851
0.0593918
0.0612102
0.0640179
0.0660834
0.069604
0.0748427
0.075861
0.0810997
0.0859213
0.09116
0.0963986
0.101637
0.106876
0.112115
0.117353
0.122592
0.12783
0.133069
0.138308
0.134292
0.129054
0.123815
0.118576
0.113338
0.108099
0.10286
0.0976217
0.0923831
0.0871445
0.0819058
0.0849612
0.089302
0.0847256
0.0794869
0.0742483
0.0794869
0.0814543
0.0762156
0.070977
0.0657384
0.0604997
0.0554697
0.0558351
0.0579308
0.0585632
0.0600917
0.0653304
0.0644829
0.0697215
0.0703488
0.0755875
0.0765472
0.0817858
0.0865791
0.0918177
0.0970563
0.102295
0.107534
0.112772
0.118011
0.12325
0.128488
0.133727
0.138965
0.134435
0.129197
0.123958
0.118719
0.113481
0.108242
0.103003
0.0977648
0.0925261
0.0872875
0.0822413
0.089302
0.0840634
0.0816792
0.0794916
0.074253
0.0794916
0.0794242
0.0762174
0.0709788
0.0657401
0.0605015
0.0588866
0.0586726
0.0590894
0.0602286
0.0653304
0.070569
0.0663076
0.0715462
0.0718655
0.0771042
0.080444
0.0856827
0.0902215
0.0954602
0.100699
0.105937
0.111176
0.116415
0.121653
0.126892
0.132131
0.137369
0.142608
0.137187
0.131949
0.12671
0.121471
0.116233
0.110994
0.105755
0.100517
0.0952781
0.0900395
0.0848009
0.0840634
0.0788247
0.0764406
0.0808762
0.0794916
0.0794242
0.0741856
0.0788895
0.0762174
0.0709788
0.0657401
0.0641253
0.0639113
0.064328
0.0652304
0.0661799
0.0695391
0.0715462
0.0767848
0.0769666
0.0822052
0.0820459
0.0872845
0.091792
0.0970306
0.102269
0.107508
0.112747
0.117985
0.123224
0.128462
0.133701
0.13894
0.144178
0.148978
0.14374
0.138501
0.133263
0.128024
0.122785
0.117547
0.112308
0.107069
0.101831
0.0965921
0.0913534
0.0861148
0.0808762
0.0756375
0.0808762
0.0806594
0.0788895
0.0736509
0.0788895
0.0762174
0.0709788
0.0693639
0.0691499
0.0695666
0.070469
0.0714185
0.0747777
0.0767848
0.0820235
0.0822052
0.0874439
0.0866019
0.0918405
0.0927445
0.0979831
0.103222
0.10846
0.113699
0.118938
0.124176
0.129415
0.134654
0.139892
0.145131
0.149919
0.14468
0.139442
0.134203
0.128964
0.123726
0.118487
0.113248
0.10801
0.102771
0.0975325
0.0922938
0.0870552
0.0819848
0.0767462
0.0757072
0.0754207
0.0806594
0.0746651
0.0799038
0.081456
0.0762174
0.0746026
0.0743885
0.0748053
0.0757076
0.0766572
0.0800163
0.0820235
0.0872621
0.0874439
0.0926825
0.0918405
0.0970792
0.0975706
0.102809
0.107339
0.112578
0.117817
0.123055
0.128294
0.133533
0.138771
0.14401
0.149249
0.14468
0.139442
0.134203
0.128964
0.123726
0.118487
0.113248
0.10801
0.102771
0.0975325
0.0922938
0.0870552
0.0818165
0.0801616
0.0854002
0.0906389
0.0801271
0.0853657
0.0799038
0.0851424
0.0866947
0.081456
0.0798412
0.0796272
0.0800439
0.0809463
0.0818958
0.085255
0.0872621
0.0925007
0.0926825
0.0979211
0.0970792
0.102318
0.102809
0.108048
0.112578
0.117817
0.123055
0.128294
0.133533
0.138771
0.14401
0.149249
0.154487
0.139442
0.134203
0.128964
0.123726
0.118487
0.113248
0.10801
0.102771
0.0975325
0.0922938
0.0870552
0.0818165
0.0765779
0.0749229
0.0801616
0.0854002
0.0906389
0.0958775
0.0851424
0.090381
0.0919333
0.0866947
0.0850798
0.0848658
0.0852825
0.0861849
0.0871344
0.0904936
0.0925007
0.0977394
0.0979211
0.10316
0.102318
0.107556
0.108048
0.113286
0.117817
0.123055
0.128294
0.133533
0.138771
0.14401
0.149249
0.154487
0.159726
0.134203
0.128964
0.123726
0.118487
0.113248
0.10801
0.102771
0.0975325
0.0922938
0.0870552
0.0818165
0.0765779
0.0713393
0.0696843
0.0749229
0.0801616
0.0854002
0.0906389
0.0958775
0.101116
0.106355
0.0919333
0.0903185
0.0901045
0.0905212
0.0914236
0.0923731