<VTKFile type="ImageData" version="1.0" byte_order="LittleEndian" header_type="UInt64">
	<ImageData WholeExtent="0 44 0 44 0 44" Origin="-72.1329 -72.1329 -72.1329" Spacing="3.27877 3.27877 3.27877">
		<Piece Extent="0 44 0 44 0 44">
			<PointData Scalars="Scalars_">
				<DataArray type="Float32" Name="Scalars_" format="ascii" RangeMin="0" RangeMax="100">
78.7363
76.7448
74.7619
72.7883
70.8248
68.8723
66.9317
65.0316
63.242
61.5749
60.0409
58.6501
57.4131
56.34
55.4404
54.7226
54.1941
53.8603
53.725
53.7895
53.9678
54.1795
54.424
54.701
55.01
55.3504
55.7078
56.2666
56.443
56.8062
57.3525
58.0767
58.9725
60.0319
61.2467
62.5794
63.926
65.3204
66.7713
68.275
69.8281
71.4275
73.07
74.7528
76.4733
77.2086
75.1886
73.1757
71.1708
69.1743
67.1872
65.2102
63.2628
61.4216
59.7038
58.1204
56.6825
55.4016
54.2888
53.3545
52.6083
52.0584
51.7108
51.5698
51.6243
51.7471
51.905
52.0976
52.3246
52.5855
52.8798
53.207
53.7686
53.939
54.3048
54.862
55.605
56.5263
57.6175
58.8691
60.2185
61.6233
63.0874
64.6068
66.1775
67.7962
69.4593
71.1639
72.9069
74.6857
75.7904
73.7436
71.7027
69.6682
67.6407
65.6208
63.6092
61.6178
59.7259
57.9579
56.3254
54.8405
53.5155
52.3626
51.3933
50.6183
50.0464
49.6848
49.538
49.5575
49.6197
49.7187
49.8544
50.0263
50.2342
50.4776
50.756
51.2711
51.435
51.8037
52.3729
53.1363
54.0867
55.2157
56.5127
57.9289
59.4078
60.9445
62.5349
64.1748
65.8606
67.5889
69.3565
71.1604
72.998
74.4878
72.4166
70.3499
68.2882
66.232
64.1817
62.1379
60.1068
58.1658
56.3488
54.6683
53.1371
51.7686
50.5758
49.5716
48.7676
48.1738
47.798
47.6442
47.6019
47.5981
47.6329
47.7061
47.8175
47.967
48.1541
48.3784
48.7789
48.9416
49.3222
49.9158
50.7148
51.7097
52.8895
54.2421
55.7333
57.2895
58.9016
60.5651
62.2759
64.0302
65.8245
67.6557
69.5207
71.4171
73.307
71.214
69.1244
67.0384
64.9564
62.8787
60.8059
58.7401
56.7524
54.8886
53.162
51.5861
50.1753
48.9437
47.9053
47.0729
46.4574
46.0676
45.8868
45.7716
45.6963
45.6611
45.6661
45.7112
45.7963
45.9212
46.0857
46.3617
46.5329
46.933
47.5564
48.3944
49.436
50.6688
52.0791
53.6431
55.2796
56.9694
58.7078
60.4907
62.3142
64.1749
66.0697
67.9957
69.9503
72.254
70.1424
68.033
65.9261
63.8218
61.7205
59.6224
57.5281
55.4969
53.5895
51.8196
50.2016
48.7507
47.4822
46.4112
45.5514
44.9151
44.5118
44.2757
44.0824
43.93
43.8189
43.7495
43.722
43.7365
43.7928
43.8909
44.056
44.2361
44.6569
45.3116
46.1903
47.2806
48.5681
50.0376
51.6712
53.3904
55.1594
56.9739
58.8294
60.7223
62.6492
64.6071
66.5931
68.6049
71.3344
69.2077
67.0823
64.9583
62.8359
60.7152
58.5965
56.4799
54.4103
52.4634
50.6541
48.9977
47.51
46.2075
45.1062
44.2211
43.5653
43.1494
42.8274
42.5509
42.316
42.1233
41.9734
41.8669
41.804
41.7849
41.8097
41.8803
42.0697
42.5119
43.1992
44.12
45.2601
46.6035
48.133
49.8317
51.635
53.4843
55.375
57.3029
59.2646
61.2567
63.2763
65.3209
67.3882
70.5536
68.4157
66.2784
64.1418
62.0058
59.8707
57.7365
55.6033
53.5029
51.5217
49.6781
47.988
46.4681
45.1355
44.0073
43.0996
42.4266
41.9994
41.559
41.1949
40.8724
40.5925
40.3562
40.1642
40.0172
39.9156
39.8598
39.8559
40.0549
40.5191
41.2395
42.2031
43.3936
44.793
46.3823
48.1428
50.0276
51.9569
53.9231
55.9223
57.9511
60.0065
62.0858
64.1867
66.3072
69.916
67.7712
65.6266
63.4822
61.3379
59.1938
57.05
54.9064
52.7838
50.7746
48.9029
47.185
45.6383
44.2808
43.1303
42.2037
41.5161
41.0795
40.4874
40.0321
39.6178
39.246
38.9178
38.6343
38.3965
38.2052
38.0613
38.0068
38.2155
38.7017
39.4554
40.4615
41.7018
43.156
44.8034
46.6236
48.5829
50.5907
52.6304
54.6985
56.7918
58.9077
61.0438
63.1981
65.3688
69.4257
67.2786
65.1316
62.9845
60.8374
58.6903
56.5432
54.3961
52.261
50.2309
48.3381
46.5994
45.0326
43.6562
42.4888
41.5479
40.8493
40.4055
39.6285
39.0797
38.5708
38.1032
37.6785
37.2982
36.9637
36.6761
36.4367
36.36
36.578
37.0858
37.8716
38.9187
40.2066
41.713
43.4152
45.2911
47.3158
49.399
51.5089
53.6423
55.7964
57.9691
60.1582
62.362
64.5791
69.0858
66.9412
64.7968
62.6525
60.5085
58.3646
56.221
54.0777
51.9402
49.8971
47.9911
46.2394
44.6599
43.2717
42.0936
41.1438
40.4381
39.9897
38.9963
38.3536
37.7485
37.183
36.6587
36.1777
35.7415
35.3518
35.024
34.944
35.1708
35.6985
36.5142
37.5991
38.9307
40.4846
42.2364
44.1624
46.2408
48.3948
50.57
52.7637
54.9738
57.1984
59.4357
61.6845
63.9436
58.6501
56.4851
54.4315
52.5026
50.7124
49.0763
47.61
46.3297
45.2512
44.3893
43.7566
41.0569
39.7642
38.4715
37.1789
35.8875
34.7466
33.876
33.297
33.0248
32.9563
36.5021
35.8771
35.2931
34.752
34.256
33.8705
33.7877
34.0222
34.5676
35.4093
36.527
37.8963
39.491
41.2849
43.2533
45.3735
47.5899
49.8239
52.0718
54.3318
56.6025
58.8825
61.171
63.467
57.4131
55.1996
53.0964
51.117
49.2766
47.5911
46.0776
44.7535
43.6361
42.7415
42.0841
39.5704
38.2777
36.9851
35.6924
34.3998
33.173
32.2124
31.5544
31.218
31.1364
31.0789
31.0969
31.2075
31.4098
31.7019
32.0815
32.5455
33.1404
33.7079
34.5762
35.7234
37.1236
38.7006
47.7863
48.0655
48.5614
49.2675
50.1748
51.2727
52.5492
53.9917
55.5872
57.3231
59.1868
56.34
54.0826
51.9341
49.9088
48.022
46.2909
44.7334
43.3683
42.2142
41.2889
40.6079
38.0938
36.7928
35.4986
34.206
32.9133
31.6341
30.5752
29.8297
29.4219
29.3443
29.4028
29.559
29.8114
30.1576
30.5943
31.1178
31.7034
32.3233
32.9309
33.8444
35.04
36.4895
38.0443
46.3565
46.618
47.1032
47.8052
48.7146
49.8202
51.1091
52.5679
54.1828
55.9404
57.8276
55.4404
53.1447
50.9567
48.8909
46.9632
45.1916
43.5948
42.1929
41.0057
40.0525
39.3502
36.7927
35.4543
34.1207
32.7925
31.4703
30.1555
29.0173
28.2163
27.7816
27.7303
27.9371
28.2452
28.6508
29.1499
29.7277
30.3167
30.9057
31.5106
32.1601
33.1208
34.3664
35.8585
37.4133
44.9287
45.1714
45.6452
46.3429
47.2561
48.3746
49.6846
51.1716
52.8204
54.6165
56.5458
54.7226
52.3956
50.1749
48.0755
46.1138
44.3081
42.6783
41.2453
40.03
39.053
38.3324
35.7455
34.377
33.0109
31.6477
30.2876
28.9313
27.743
26.904
26.4477
26.3939
26.7167
27.1878
27.7519
28.3409
28.9299
29.519
30.108
30.7026
31.3962
32.4058
33.7033
35.2275
36.7823
43.5337
43.7738
44.2561
44.973
45.9133
47.0638
48.4093
49.9342
51.6226
53.459
55.4286
54.1941
51.8433
49.5979
47.473
45.4853
43.6537
41.9985
40.5414
39.3044
38.3089
37.574
34.975
33.586
32.1977
30.8104
29.424
28.0389
26.8112
25.9421
25.4685
25.4126
25.7771
26.3651
26.9542
27.5432
28.1322
28.7212
29.3103
29.8998
30.6394
31.7002
33.0513
34.5965
36.1513
42.3271
42.574
43.0698
43.806
44.7709
45.9499
47.3272
48.8859
50.6092
52.481
54.486
53.8603
51.4943
49.233
47.0916
45.0871
43.2386
41.5669
40.0942
38.8429
37.8353
37.091
34.4998
33.1018
31.7039
30.3059
28.9081
27.5102
26.2584
25.3704
24.886
24.8288
25.1127
25.5734
26.1564
26.7455
27.3345
27.9235
28.5126
29.1026
29.8905
31.0046
32.411
33.9655
35.5203
41.3459
41.5986
42.1059
42.8587
43.8444
45.0477
46.4517
48.0388
49.7915
51.6929
53.7273
53.725
51.3527
49.0849
46.9367
44.9253
43.0699
41.3867
39.8457
38.4294
37.0312
35.6329
34.2347
32.8365
31.4383
30.04
28.6418
27.2509
26.0678
25.2125
24.7282
24.6091
24.6846
24.9414
25.374
25.9478
26.5368
27.1258
27.7148
28.3113
29.15
30.3195
31.7796
33.3345
34.8893
40.6064
40.8637
41.38
42.1458
43.1478
44.37
45.7948
47.4039
49.1792
51.1034
53.1604
53.7895
51.4202
49.1555
47.0106
45.0025
43.1217
41.3477
39.6944
38.1776
36.7729
35.3747
33.9764
32.5782
31.18
29.7818
28.3835
27.0385
25.9731
25.2457
24.8802
24.645
24.5049
24.5486
24.7749
25.179
25.7391
26.3281
26.9171
27.5266
28.4186
29.6458
31.1486
32.7035
34.2583
40.1221
40.3825
40.9048
41.6794
42.6923
43.9272
45.3659
46.9897
48.78
50.7194
52.7914
53.9678
51.6476
49.4231
47.3039
45.2473
43.2757
41.402
39.6401
38.0054
36.5152
35.1164
33.7182
32.3199
30.9217
29.5235
28.1253
26.8689
25.9243
25.3262
25.0476
24.8124
24.5771
24.4065
24.418
24.6134
24.9885
25.5304
26.1194
26.749
27.697
28.9843
30.5176
32.0725
33.6273
39.9022
40.164
40.6891
41.4677
42.4857
43.7264
45.1715
46.802
48.5993
50.5456
52.6244
54.1795
51.9147
49.7502
47.6614
45.5749
43.518
41.5494
39.6831
37.9344
36.3203
34.8581
33.4599
32.0616
30.6634
29.2652
27.8869
26.7431
25.9215
25.4534
25.215
24.9797
24.7445
24.5092
24.3139
24.2929
24.457
24.8026
25.3217
25.9792
26.986
28.3358
29.8866
31.4452
33.0394
34.6718
36.3371
38.0311
39.7501
41.491
43.2511
45.0282
46.8204
48.6395
50.5842
52.6615
54.424
52.2157
50.1052
48.0188
45.9324
43.846
41.7888
39.8233
37.9652
36.2311
34.6395
33.2016
31.8034
30.4051
29.0069
27.6898
26.6616
25.9649
25.6177
25.3824
25.1471
24.9119
24.6766
24.4413
24.2272
24.1734
24.3058
24.6246
25.2789
26.3282
27.7278
29.3485
31.0126
32.7102
34.4363
36.1868
37.9583
39.7481
41.5537
43.3733
45.2051
47.0476
48.899
50.8347
52.9021
54.701
52.5498
50.4627
48.3762
46.2898
44.2034
42.117
40.0595
38.0975
36.2484
34.5303
32.9637
31.5451
30.1469
28.7516
27.5347
26.6248
26.0542
25.7851
25.5498
25.3145
25.0793
24.844
24.6087
24.3734
24.1464
24.0596
24.2902
24.9533
26.0158
27.4313
29.1264
30.8896
32.6759
34.4817
36.3041
38.1406
39.9888
41.8394
43.69
45.5406
47.3912
49.2579
51.2334
53.3209
55.01
52.9065
50.8201
48.7337
46.6472
44.5608
42.4744
40.388
38.3302
36.372
34.5328
32.8325
31.2938
29.8886
28.5286
27.4224
26.633
26.1889
25.9525
25.7172
25.4819
25.2466
25.0114
24.7761
24.5408
24.3173
24.1663
24.396
25.0563
26.1146
27.525
29.2364
31.0799
32.9305
34.7811
36.6317
38.4823
40.3329
42.1835
44.0341
45.8846
47.7352
49.6331
51.6512
53.7771
55.3504
53.2639
51.1775
49.0911
47.0047
44.9182
42.8318
40.7454
38.659
36.601
34.647
32.8187
31.1382
29.6308
28.3461
27.3535
26.686
26.3551
26.1199
25.8846
25.6493
25.418
25.2132
25.0389
24.8958
24.7844
24.7115
24.9361
25.5825
26.6199
28.0049
29.6507
31.4259
33.2746
35.1252
36.9757
38.8263
40.6769
42.5275
44.3781
46.2287
48.0823
50.0243
52.0836
54.2468
55.7078
53.6214
51.5349
49.4485
47.3621
45.2757
43.1892
41.1028
39.0164
36.93
34.8718
32.9224
31.1162
29.5509
28.2806
27.3464
26.7836
26.5229
26.3067
26.1196
25.9622
25.8351
25.7387
25.6734
25.6393
25.6367
25.6655
25.8836
26.5069
27.5094
28.8153
30.2897
31.9042
33.6384
35.4692
37.3198
39.1704
41.021
42.8716
44.7222
46.5728
48.4448
50.4311
52.5304
54.7296
56.2666
54.1458
52.0272
49.9109
47.7975
45.6872
43.5805
41.4779
39.3801
37.2879
35.2024
33.1878
31.3841
29.8329
28.5751
27.6509
27.0945
26.8939
26.7817
26.6992
26.6468
26.6245
26.6326
26.6695
26.714
26.7584
26.8071
27.0953
27.7472
28.7136
29.8386
31.1364
32.5862
34.1689
35.8668
37.6642
39.5145
41.3651
43.2157
45.0662
46.9168
48.8238
50.8532
52.9912
55.2253
56.443
54.3456
52.2522
50.1634
48.0797
46.0018
43.9305
41.867
39.8122
37.7677
35.7353
33.7591
31.9877
30.4671
29.2367
28.3341
27.7913
27.6249
27.6136
27.6315
27.6735
27.718
27.7624
27.8069
27.8514
27.8958
27.9666
28.3274
29.0339
30.0227
31.0494
32.1742
33.4597
34.8882
36.4428
38.1082
39.8704
41.7091
43.5597
45.4103
47.2663
49.2191
51.2901
53.4656
55.7333
56.8062
54.739
52.6783
50.6247
48.5793
46.5429
44.517
42.503
40.5027
38.5182
36.552
34.6327
32.9083
31.4324
30.2412
29.3695
28.8462
28.6859
28.722
28.7664
28.8109
28.8554
28.8998
28.9443
28.9887
29.0332
29.1429
29.5702
30.3266
31.3319
32.3582
33.3854
34.51
35.7849
37.1946
38.7243
40.3605
42.0907
43.9038
45.7544
47.6325
49.6301
51.7414
53.9532
56.2535
57.3525
55.3219
53.3006
51.2894
49.2897
47.3029
45.3308
43.3753
41.4387
39.5239
37.6342
35.7864
34.1204
32.6992
31.5559
30.7216
30.2203
29.9568
29.866
29.9038
29.9483
29.9927
30.0372
30.0817
30.1261
30.1706
30.334
30.8224
31.6244
32.6411
33.6673
34.6936
35.7216
38.7163
39.3659
40.2727
41.42
42.7882
44.3571
46.1061
48.0156
50.0672
52.2441
54.5314
56.9157
58.0767
56.0884
54.1123
52.1496
50.202
48.2714
46.3598
44.4698
42.604
40.7657
38.9386
37.1578
35.5749
34.2271
33.1432
32.3506
31.7845
31.3747
31.1273
31.0463
31.0857
31.1301
31.1746
31.2191
31.2635
31.3089
31.5384
32.0829
32.9268
33.9502
34.9765
36.0028
37.0291
39.3278
39.9675
40.8609
41.9921
43.3423
44.8918
46.6208
48.51
50.5415
52.6988
54.9672
57.3334
58.9725
57.0311
55.105
53.1959
51.3055
49.4361
47.5902
45.7624
43.9352
42.1081
40.2848
38.5898
37.1017
35.8463
34.8488
34.1169
33.4613
32.9204
32.5311
32.2988
32.227
32.2675
32.312
32.3564
32.4009
32.46
32.7544
33.3508
34.2332
35.2594
36.2857
37.312
38.3383
40.1983
40.8243
41.6994
42.8084
44.1337
45.6563
47.3574
49.2183
51.2218
53.3516
55.5933
57.9339
60.0319
58.1414
56.2692
54.4174
52.5861
50.759
48.9319
47.1048
45.2776
43.4505
41.6684
40.0632
38.6642
37.4946
36.5762
35.885
35.2208
34.577
34.0596
33.6894
33.4711
33.4078
33.4494
33.4938
33.5383
33.6263
33.981
34.6252
35.5423
36.5686
37.5949
38.6212
39.6474
41.3114
41.9207
42.7734
43.8553
45.1498
46.6393
48.3058
50.1315
52.0998
54.1952
56.4034
58.7117
61.2467
59.4099
57.5827
55.7556
53.9285
52.1014
50.2743
48.4471
46.62
44.7974
43.0936
41.5736
40.2582
39.1682
38.3226
37.653
36.9888
36.3247
35.697
35.2018
34.8494
34.6442
34.5888
34.6312
34.6757
34.8062
35.2169
35.9055
36.8515
37.8778
38.904
39.9303
40.9566
42.648
43.2385
44.0658
45.1166
46.376
47.8273
49.4538
51.2386
53.166
55.2209
57.3896
59.6598
62.5794
60.7522
58.9251
57.098
55.2709
53.4438
51.6166
49.7895
47.9624
46.1793
44.5564
43.1171
41.8801
40.864
40.0854
39.4211
38.7569
38.0927
37.4285
36.821
36.3466
36.0109
35.8179
35.7699
35.8131
35.9985
36.4612
37.1911
38.1606
39.1869
40.2132
41.2395
42.2662
44.188
44.7582
45.5578
46.5751
47.796
49.2055
50.7878
52.5274
54.4091
56.4187
58.5431
60.7702
63.926
62.0946
60.2675
58.4404
56.6133
54.7861
52.959
51.1319
49.31
47.599
46.0534
44.6902
43.5268
42.5793
41.8626
41.1891
40.5249
39.8608
39.1966
38.5335
37.9486
37.4938
37.1739
36.9924
36.9646
37.2018
37.7132
38.4814
39.4698
40.4961
41.5294
42.587
43.6679
45.9109
46.4599
47.2308
48.2127
49.3932
50.7583
52.2937
53.9847
55.8173
57.778
59.8542
62.0342
65.3204
63.4504
61.6099
59.7828
57.9557
56.1285
54.3014
52.4743
50.6905
49.0532
47.5812
46.2901
45.1955
44.312
43.6523
42.9572
42.293
41.6288
40.9647
40.3005
39.6427
39.0795
38.6432
38.3458
38.2949
38.524
39.0281
39.7969
40.801
41.8731
42.9682
44.0846
45.2207
47.7968
48.3245
49.066
50.0119
51.1509
52.4703
53.957
55.5975
57.3786
59.2876
61.3127
63.4427
66.7713
64.8625
62.9802
61.127
59.298
57.4709
55.6438
53.8226
52.1057
50.539
49.1369
47.9139
46.8839
46.06
45.4532
44.7252
44.0611
43.3969
42.7327
42.0685
41.4044
40.7561
40.2172
39.9001
39.8512
40.0714
40.5563
41.2966
42.279
43.4082
44.5579
45.7255
46.9096
49.8273
50.3337
51.0461
51.9559
53.0532
54.3264
55.7636
57.3525
59.0807
60.9365
62.9085
64.9862
68.275
66.3306
64.41
62.5154
60.6493
58.8133
56.9862
55.202
53.5527
52.0536
50.7181
49.5594
48.59
47.8216
47.264
46.4933
45.8291
45.1649
44.5008
43.8366
43.1724
42.5127
41.9588
41.6549
41.6081
41.819
42.2839
42.9945
43.9389
45.0861
46.2831
47.4949
48.7204
51.9855
52.471
53.1548
54.0292
55.0851
56.3124
57.7002
59.2371
60.9119
62.7135
64.6313
66.6553
69.8281
67.8511
65.8954
63.9631
62.0562
60.1773
58.3378
56.6133
55.029
53.5946
52.3224
51.2243
50.312
49.5955
49.0835
48.2613
47.5972
46.9361
46.2857
45.6465
45.0192
44.4042
43.8766
43.5861
43.5414
43.743
44.1876
44.8681
45.7739
46.8919
48.1291
49.3789
50.6401
54.2542
54.7215
55.3774
56.2172
57.2328
58.4151
59.754
61.2394
62.8609
64.6081
66.4713
68.4409
71.4275
69.4206
67.4328
65.4659
63.5218
61.6097
59.7999
58.1188
56.578
55.1891
53.964
52.914
52.0496
51.3803
50.9108
50.0647
49.433
48.8123
48.2031
47.6058
47.021
46.449
45.9486
45.6713
45.6286
45.821
46.2457
46.8963
47.7637
48.8361
50.0826
51.3649
52.6567
56.5571
57.027
57.6749
58.4949
59.48
60.622
61.9134
63.3482
64.917
66.6104
68.419
70.3341
73.07
71.0358
69.0188
67.0204
65.0477
63.1663
61.4024
59.7664
58.2691
56.9216
55.7346
54.7185
53.8831
53.2369
52.7868
52.0041
51.4111
50.8297
50.2602
49.7031
49.1589
48.6278
48.1549
47.8904
47.8496
48.0332
48.4385
49.06
49.8897
50.9175
52.1315
53.4416
54.7596
58.8602
59.3325
59.976
60.7851
61.7535
62.8738
64.1379
65.5376
67.0644
68.7097
70.4656
72.3265
74.7528
72.6938
70.65
68.627
66.6853
64.8514
63.1346
61.5447
60.0918
58.786
57.6374
56.6554
55.849
55.2258
54.792
54.0717
53.516
52.9722
52.4406
51.9217
51.4159
50.9235
50.4778
50.2256
50.1867
50.3618
50.7485
51.342
52.1355
53.1197
54.2845
55.5989
56.9391
61.1635
61.638
62.2774
63.0765
64.0294
65.1293
66.3689
67.7406
69.2365
70.8488
72.5696
74.3915
76.4733
74.3915
72.3265
70.3341
68.4409
66.6553
64.9862
63.4427
62.0342
60.7702
59.6598
58.7117
57.9339
57.3334
56.9157
56.2535
55.7333
55.2253
54.7296
54.2468
53.7771
53.3209
52.9021
52.6615
52.6244
52.7914
53.1604
53.7273
54.486
55.4286
56.5458
57.8276
59.1868
63.467
63.9436
64.5791
65.3688
66.3072
67.3882
68.6049
69.9503
71.4171
72.998
74.6857
76.4733
76.6828
74.7067
72.7404
70.7845
68.8401
66.908
64.9894
63.0856
61.2395
59.5164
57.9278
56.4851
55.1996
54.0826
53.1447
52.3956
51.8433
51.4943
51.3527
51.4202
51.6476
51.9147
52.2157
52.5498
52.9065
53.2639
53.6214
54.1458
54.3456
54.739
55.3219
56.0884
57.0311
58.1414
59.4099
60.7523
62.0946
63.4504
64.8625
66.3306
67.8511
69.4206
71.0358
72.6938
74.3915
75.1032
73.0967
71.0984
69.1091
67.1294
65.1604
63.203
61.2583
59.3578
57.5784
55.9348
54.4393
53.1043
51.9423
50.965
50.1833
49.6064
49.2416
49.0935
49.1629
49.3403
49.554
49.8037
50.0888
50.4087
50.76
51.1175
51.6467
51.8414
52.2391
52.8351
53.6228
54.5941
55.7392
57.0413
58.3837
59.7458
61.1692
62.6516
64.1887
65.7767
67.4121
69.0914
70.8115
72.5696
73.634
71.5988
69.5704
67.5493
65.5363
63.532
61.5373
59.5533
57.6013
55.766
54.0673
52.5186
51.1335
49.9256
48.9081
48.093
47.4907
47.1095
46.9547
47.0066
47.1228
47.2776
47.4706
47.7013
47.9691
48.2734
48.6136
49.1482
49.3372
49.7395
50.3499
51.161
52.1634
53.3464
54.6728
56.0428
57.4792
58.9775
60.533
62.1416
63.7991
65.5019
67.2465
69.0298
70.8488
72.282
70.2204
68.1641
66.1136
64.0694
62.0322
60.0026
57.9815
55.982
54.0917
52.3388
50.7374
49.3022
48.0483
46.9902
46.1412
45.5131
45.1152
44.9535
44.9595
45.0086
45.0983
45.2285
45.3987
45.6085
45.8574
46.1447
46.6503
46.833
47.2404
47.8667
48.7035
49.74
50.9654
52.342
53.793
55.3092
56.8855
58.5169
60.199
61.9276
63.699
65.5097
67.3565
69.2365
71.0538
68.9685
66.8871
64.81
62.7376
60.6705
58.609
56.554
54.512
52.5689
50.7634
49.1106
47.6265
46.3273
45.2289
44.3462
43.6923
43.2776
43.1043
43.0373
43.0127
43.0309
43.0916
43.1947
43.34
43.5269
43.755
44.154
44.3338
44.7536
45.4069
46.2838
47.3719
48.657
50.1115
51.6481
53.2477
54.9046
56.614
58.3712
60.172
62.0127
63.8897
65.7999
67.7406
69.9559
67.8501
65.747
63.6467
61.5498
59.4564
57.3669
55.2819
53.2037
51.211
49.3558
47.6542
46.1233
44.7805
43.6431
42.7277
42.0487
41.6176
41.4062
41.2573
41.1525
41.0922
41.0764
41.1052
41.1786
41.2964
41.4581
41.7266
41.9167
42.3605
43.0502
43.9741
45.1179
46.4654
47.9957
49.6217
51.3075
53.0474
54.8363
56.6695
58.5429
60.4527
62.3956
64.3685
66.3689
68.9947
66.872
64.7509
62.6316
60.5142
58.3991
56.2863
54.1762
52.0693
50.0314
48.1308
46.3843
44.81
43.4265
42.2528
41.3066
40.6038
40.1572
39.8757
39.6389
39.4472
39.3012
39.2015
39.1485
39.1423
39.183
39.2703
39.4225
39.6237
40.0929
40.8209
41.7941
42.996
44.4079
46.0104
47.7289
49.5031
51.3272
53.1962
55.1055
57.0509
59.0291
61.0366
63.0709
65.1293
68.1758
66.0404
63.9057
61.7719
59.639
57.5072
55.3766
53.2473
51.1196
49.043
47.1025
45.3164
43.7036
42.284
41.0776
40.1037
39.3794
38.9188
38.5329
38.2024
37.9175
37.6791
37.4882
37.3455
37.2515
37.2066
37.211
37.2648
37.4775
37.9733
38.7411
39.7653
41.0266
42.504
44.1757
45.9862
47.8497
49.7583
51.7069
53.6912
55.7073
57.7519
59.8221
61.9153
64.0294
67.5045
65.3608
63.2174
61.0742
58.9313
56.7887
54.6465
52.5046
50.3632
48.2575
46.2841
44.4652
42.8204
41.3705
40.1366
39.1393
38.3968
37.9243
37.398
36.9692
36.5856
36.2486
35.9595
35.7194
35.5294
35.3902
35.3025
35.2802
35.5049
36.0277
36.8362
37.9118
39.2328
40.7752
42.515
44.4112
46.3636
48.3554
50.3817
52.4387
54.5228
56.6311
58.7609
60.91
63.0765
66.9851
64.8381
62.6911
60.5441
58.397
56.25
54.103
51.956
49.8091
47.6851
45.6869
43.8432
42.1742
40.7013
39.4465
38.4312
37.6748
37.1931
36.4903
35.9602
35.4738
35.0331
34.6398
34.2954
34.0016
33.7597
33.5706
33.4996
33.7361
34.286
35.1345
36.2607
37.6396
39.2447
41.0494
43.0224
45.0613
47.1332
49.2339
51.3599
53.5081
55.6761
57.8615
60.0625
62.2774
66.6213
64.4761
62.3309
60.186
58.0411
55.8965
53.752
51.6078
49.4638
47.3333
45.3197
43.4604
41.776
40.2886
39.0205
37.9939
37.2286
36.7411
35.8273
35.1945
34.6032
34.0556
33.5537
33.0997
32.6955
32.3431
32.0445
31.9571
32.2049
32.7805
33.6669
34.8406
36.2736
37.9365
39.8006
41.8384
43.9591
46.1062
48.2761
50.4659
52.673
54.8955
57.1315
59.3794
61.638
56.6825
54.4393
52.3055
50.295
48.4234
46.7071
45.1639
43.8122
42.6702
41.755
41.0818
38.4359
37.1432
35.8505
34.5579
33.2652
32.0671
31.1548
30.5579
30.2952
30.2297
33.3371
32.7247
32.1577
31.6385
31.1696
30.7796
30.6885
30.9465
31.5451
32.4653
33.6808
35.1611
36.8742
38.7894
40.8782
43.0724
45.2877
47.5199
49.7667
52.0262
54.2969
56.5774
58.8666
61.1635
55.4016
53.1043
50.9146
48.8469
46.9175
45.144
43.5455
42.142
40.9533
39.9989
39.2956
36.9494
35.6567
34.3641
33.0714
31.7787
30.5135
29.5013
28.8172
28.4846
28.4098
28.3453
28.2914
28.3243
28.4587
28.6934
29.0257
29.4525
29.9942
30.6125
31.5599
32.809
34.3243
35.9725
44.8424
45.1527
45.693
46.4552
47.4287
48.6007
49.9572
51.4838
53.1656
54.9886
56.9391
54.2888
51.9423
49.7014
47.581
45.5981
43.7712
42.1206
40.6679
39.4349
38.4427
37.7104
35.4629
34.1703
32.8776
31.5849
30.2923
28.9999
27.878
27.0964
26.6851
26.5899
26.5618
26.6404
26.8266
27.1181
27.5117
28.0031
28.5782
29.1815
29.8453
30.8428
32.1429
33.6726
35.2304
43.4103
43.7028
44.2332
44.993
45.9708
47.1532
48.525
50.0708
51.775
53.6224
55.5989
53.3545
50.965
48.6791
46.5122
44.4817
42.6069
40.9094
39.4121
38.1385
37.1117
36.3526
34.0606
32.7366
31.4191
30.1089
28.807
27.5131
26.2903
25.4038
24.92
24.8511
24.9815
25.226
25.5813
26.0427
26.6024
27.1915
27.7805
28.3739
29.0856
30.1367
31.4931
33.0416
34.5965
41.9803
42.2538
42.7736
43.5308
44.5133
45.7066
47.0946
48.6612
50.3922
52.2718
54.2845
52.6083
50.1833
47.8601
45.6544
43.5838
41.6687
39.9313
38.3959
37.0874
36.0307
35.2483
32.9214
31.5613
30.2046
28.852
27.5038
26.161
24.877
23.9378
23.4238
23.363
23.6635
24.0901
24.6267
25.2157
25.8047
26.3937
26.9828
27.5719
28.334
29.441
30.8558
32.4106
33.9655
40.5532
40.8108
41.3278
42.0945
43.0977
44.3213
45.7476
47.3583
49.1353
51.0611
53.1198
52.0584
49.6064
47.2549
45.0195
42.9184
40.9721
39.2039
37.6388
36.303
35.2228
34.422
32.0778
30.6922
29.3078
27.9248
26.5434
25.1638
23.8334
22.8513
22.3123
22.2485
22.6536
23.2399
23.8289
24.418
25.007
25.596
26.1851
26.7761
27.5911
28.7565
30.2248
31.7796
33.3345
39.2551
39.5212
40.0548
40.8454
41.8785
43.1367
44.6009
46.2516
48.0695
50.0364
52.1355
51.7108
49.2416
46.8718
44.6172
42.4961
40.5296
38.7412
37.1566
35.8029
34.707
33.8941
31.5535
30.1559
28.7584
27.361
25.9636
24.5664
23.2098
22.2002
21.645
21.5792
21.912
22.4422
23.0312
23.6202
24.2093
24.7983
25.3873
25.9868
26.8577
28.084
29.5938
31.1486
32.7035
38.195
38.4684
39.0165
39.8277
40.8866
42.1743
43.6708
45.3553
47.2078
49.2091
51.3421
51.5698
49.0935
46.7161
44.4537
42.3244
40.3496
38.5528
36.938
35.475
34.0767
32.6785
31.2803
29.8821
28.4838
27.0856
25.6874
24.2892
22.9778
22.0141
21.4633
21.3317
21.427
21.7305
22.2335
22.8225
23.4116
24.0006
24.5896
25.2049
26.1346
27.4245
28.9628
30.5176
32.0725
37.3933
37.6726
38.232
39.0595
40.1386
41.4497
42.9714
44.6823
46.5615
48.5895
50.7485
51.6243
49.1629
46.7903
44.5316
42.4063
40.4317
38.5785
36.8477
35.2572
33.8185
32.4202
31.022
29.6238
28.2256
26.8273
25.4291
24.0327
22.8385
22.0191
21.6142
21.3789
21.227
21.2857
21.5545
22.0259
22.6138
23.2029
23.7919
24.4309
25.4226
26.7788
28.3318
29.8866
31.4415
36.8668
37.15
37.7172
38.5558
39.6486
40.9753
42.514
44.2426
46.1397
48.1855
50.3618
51.7471
49.3403
47.0253
44.8164
42.7136
40.662
38.7062
36.8621
35.1472
33.5814
32.162
30.7637
29.3655
27.9673
26.5691
25.1708
23.8112
22.751
22.0784
21.7816
21.5463
21.311
21.1288
21.1505
21.3841
21.8229
22.4051
22.9942
23.6657
24.7227
26.1459
27.7008
29.2556
30.8105
36.6273
36.9124
37.4831
38.3269
39.426
40.76
42.3065
44.0433
45.9486
48.0025
50.1867
51.905
49.554
47.3
45.1575
43.0711
40.9846
38.9329
36.9811
35.147
33.4497
31.9113
30.5055
29.1072
27.709
26.3108
24.9126
23.6384
22.7158
22.1915
21.949
21.7137
21.4784
21.2432
21.0374
21.0216
21.2194
21.625
22.1965
22.9101
24.036
25.5149
27.0698
28.6284
30.2255
31.8638
33.5373
35.2409
36.9705
38.7226
40.4943
42.2832
44.0875
45.991
48.0431
50.2256
52.0976
49.8037
47.6118
45.5149
43.4285
41.3421
39.2556
37.2037
35.2564
33.4333
31.7557
30.2478
28.849
27.4507
26.0525
24.6646
23.5152
22.7333
22.3517
22.1164
21.8811
21.6458
21.4106
21.1753
20.9528
20.8991
21.0606
21.4347
22.1833
23.3721
24.9087
26.5398
28.2135
29.9227
31.6617
33.4257
35.2111
37.0148
38.8342
40.6671
42.5119
44.3625
46.2664
48.3068
50.4778
52.3246
50.0888
47.9588
45.8723
43.7859
41.6995
39.6131
37.5267
35.4746
33.5322
31.7213
30.0657
28.5907
27.1925
25.7942
24.4607
23.4425
22.8034
22.519
22.2838
22.0485
21.8132
21.5779
21.3427
21.1074
20.8751
20.7831
21.0498
21.8116
23.0196
24.6073
26.3592
28.1393
29.9426
31.7652
33.6038
35.4536
37.3042
39.1548
41.0054
42.856
44.7104
46.662
48.7381
50.9235
52.5855
50.4087
48.3162
46.2298
44.1434
42.0569
39.9705
37.8841
35.7977
33.7456
31.8086
30.0114
28.3804
26.9342
25.5361
24.3043
23.4207
22.9254
22.6864
22.4512
22.2159
21.9806
21.7453
21.5101
21.2748
21.0569
20.9067
21.1717
21.9293
23.1311
24.7124
26.5447
28.3953
30.2459
32.0965
33.947
35.7976
37.6482
39.4988
41.3494
43.2
45.0754
47.0742
49.1927
51.4159
52.8798
50.76
48.6736
46.5872
44.5008
42.4144
40.3279
38.2415
36.1551
34.0687
32.0166
30.0857
28.3038
26.7008
25.3032
24.1965
23.45
23.0891
22.8538
22.6186
22.3833
22.1549
21.9585
21.7974
21.6724
21.5839
21.5346
21.792
22.5287
23.7001
25.2206
26.9172
28.7393
30.5899
32.4405
34.2911
36.1417
37.9923
39.8429
41.6935
43.5441
45.4581
47.5027
49.662
51.9218
53.207
51.1175
49.0311
46.9446
44.8582
42.7718
40.6854
38.5989
36.5125
34.4261
32.3397
30.2876
28.3635
26.638
25.2214
24.1693
23.5307
23.2578
23.048
22.8717
22.7294
22.6219
22.5497
22.5131
22.5122
22.5462
22.5907
22.8658
23.5731
24.6718
25.9976
27.5012
29.155
30.935
32.7846
34.6352
36.4858
38.3364
40.187
42.0376
43.8948
45.8581
47.9469
50.1457
52.4406
53.7686
51.6467
49.5271
47.4099
45.2955
43.1844
41.077
38.9739
36.8759
34.7839
32.699
30.6227
28.6582
26.9505
25.5512
24.5133
23.8839
23.6702
23.5789
23.5216
23.4984
23.5096
23.5502
23.5947
23.6391
23.6836
23.7414
24.1025
24.8683
25.8881
27.0069
28.316
29.7906
31.4073
33.1455
34.9792
36.8298
38.6804
40.531
42.3816
44.2638
46.2749
48.4065
50.6433
52.9722
53.939
51.8414
49.7481
47.6595
45.5764
43.4995
41.4297
39.3683
37.3165
35.276
33.249
31.238
29.3179
27.6509
26.289
25.2814
24.6716
24.4881
24.5102
24.5542
24.5986
24.6431
24.6876
24.732
24.7765
24.821
24.9125
25.3513
26.1719
27.1973
28.2235
29.3424
30.6373
32.0869
33.6712
35.3723
37.174
39.0245
40.8751
42.7257
44.6508
46.7082
48.8809
51.1545
53.516
54.3048
52.2391
50.1802
48.129
46.0865
44.054
42.0329
40.025
38.0322
36.0572
34.1029
32.1733
30.3197
28.711
27.4018
26.4366
25.8541
25.6455
25.6471
25.6916
25.736
25.7805
25.825
25.8694
25.9139
25.9584
26.1014
26.6105
27.4801
28.5064
29.5327
30.5591
31.6782
32.9608
34.3887
35.9446
37.6125
39.3783
41.2191
43.0801
45.0554
47.1574
49.3699
51.6788
54.0717
54.862
52.8351
50.818
48.812
46.8185
44.8392
42.876
40.9313
39.0079
37.109
35.2386
33.4006
31.6288
30.0927
28.8462
27.931
27.3578
26.9948
26.822
26.829
26.8734
26.9179
26.9624
27.0068
27.0513
27.0957
27.3057
27.8786
28.7893
29.8156
30.8419
31.8682
32.8949
35.5208
36.2277
37.2111
38.4498
39.92
41.5972
43.4574
45.4782
47.6392
49.9221
52.311
54.792
55.605
53.6228
51.6539
49.6997
47.762
45.843
43.9451
42.0712
40.2247
38.3972
36.5701
34.7476
33.076
31.6497
30.5031
29.6687
29.016
28.4987
28.1576
27.9991
28.0108
28.0553
28.0997
28.1442
28.1887
28.2386
28.5235
29.1545
30.0985
31.1248
32.1511
33.1774
34.2037
36.1864
36.8805
37.8469
39.0654
40.5133
42.1669
44.0031
45.9999
48.1375
50.3978
52.7652
55.2258
56.5263
54.5941
52.6784
50.7813
48.9049
47.0516
45.221
43.3938
41.5667
39.7396
37.9125
36.138
34.5699
33.2454
32.1946
31.4367
30.7726
30.1341
29.643
29.322
29.1767
29.1927
29.2371
29.2816
29.3261
29.399
29.7531
30.4371
31.4077
32.434
33.4603
34.4865
35.5128
37.1305
37.8073
38.7507
39.9416
41.3588
42.9799
44.7828
46.7463
48.8512
51.08
53.4171
55.849
57.6175
55.7392
53.8809
52.0447
50.2176
48.3905
46.5633
44.7362
42.9091
41.082
39.2602
37.5757
36.1048
34.8745
33.9112
33.2048
32.5406
31.8765
31.2569
30.7903
30.488
30.3548
30.3745
30.419
30.4634
30.5753
30.9932
31.7257
32.7169
33.7431
34.7694
35.7957
36.822
38.3328
38.9887
39.9041
41.0616
42.4415
44.0227
45.7845
47.7069
49.7712
51.9605
54.2597
56.6555
58.8691
57.0413
55.2142
53.3871
51.56
49.7328
47.9057
46.0786
44.2515
42.4244
40.648
39.0554
37.6755
36.5325
35.6491
34.9729
34.3087
33.6445
32.9803
32.3842
31.9403
31.6552
31.5332
31.5564
31.6008
31.7658
32.2424
33.0196
34.026
35.0523
36.0786
37.1049
38.1312
39.7697
40.4023
41.2864
42.4062
43.7436
45.2794
46.9941
48.8689
50.8861
53.0294
55.2842
57.6374
60.2185
58.3837
56.5566
54.7295
52.9024
51.0752
49.2481
47.421
45.5939
43.7728
42.0781
40.5726
39.2779
38.2156
37.4054
36.7409
36.0767
35.4126
34.7484
34.0859
33.5153
33.0926
32.8236
32.7121
32.7398
32.969
33.4998
34.3182
35.3352
36.3615
37.3878
38.4215
39.4814
41.4168
42.0247
42.8753
43.9546
45.2463
46.7328
48.396
50.2185
52.1835
54.2756
56.4807
58.786
61.6233
59.7458
57.8991
56.0719
54.2447
52.4176
50.5905
48.7634
46.9363
45.1585
43.5465
42.1231
40.9082
39.9206
39.1777
38.509
37.8448
37.1806
36.5165
35.8523
35.1965
34.6499
34.247
33.993
33.9399
34.1981
34.7651
35.621
36.6455
37.6943
38.7698
39.8699
40.9927
43.2502
43.8326
44.6488
45.6863
46.9304
48.3651
49.974
51.7409
53.6502
55.6873
57.8385
60.0918
63.0874
61.1692
59.2787
57.4185
55.5871
53.76
51.9329
50.1058
48.2854
46.5825
45.0493
43.7036
42.5632
41.6449
40.9638
40.277
39.6129
38.9487
38.2845
37.6203
36.9562
36.3116
35.7876
35.4391
35.384
35.6319
36.1763
37.0044
38.0681
39.1838
40.3216
41.4798
42.6567
45.2472
45.8042
46.5859
47.5811
48.7769
50.1588
51.712
53.4214
55.2727
57.2521
59.3466
61.5447
64.6068
62.6516
60.721
58.8175
56.9436
55.1024
53.2753
51.4481
49.6693
48.0416
46.5833
45.3107
44.2401
43.3862
42.7621
42.0451
41.3809
40.7167
40.0526
39.3884
38.7242
38.0601
37.456
37.1153
37.0627
37.2994
37.8199
38.6128
39.6615