<VTKFile type="ImageData" version="1.0" byte_order="LittleEndian" header_type="UInt64">
	<ImageData WholeExtent="0 44 0 44 0 44" Origin="-72.412 -72.412 -72.412" Spacing="3.29146 3.29146 3.29146">
		<Piece Extent="0 44 0 44 0 44">
			<PointData Scalars="Scalars_">
				<DataArray type="Float32" Name="Scalars_" format="ascii" RangeMin="0" RangeMax="100">
76.9378
75.0302
73.1808
71.3927
69.6692
68.0136
66.429
64.9191
63.4876
62.1381
60.8737
59.6974
58.6115
57.6164
56.7105
55.8905
55.1522
54.4955
53.9295
53.4731
53.1441
52.9553
53.0166
53.2251
53.5134
53.8623
54.2914
54.8168
55.4477
56.186
57.0298
57.9732
59.01
60.1343
61.3411
62.6264
63.987
65.4201
66.9239
68.496
70.1348
71.838
73.6038
75.4293
77.3128
75.0458
73.1096
71.2322
69.4156
67.6637
65.9799
64.3674
62.8299
61.3709
59.9941
58.7033
57.5015
56.3909
55.3724
54.4449
53.6054
52.8498
52.1784
51.6013
51.1384
50.8088
50.6258
50.6893
50.8886
51.1652
51.5074
51.9409
52.4804
53.1319
53.8944
54.7633
55.7316
56.7924
57.9395
59.1686
60.4755
61.858
63.3137
64.8408
66.4373
68.1012
69.8305
71.623
73.476
75.3875
73.2124
71.2483
69.3426
67.498
65.7182
64.0062
62.366
60.8007
59.314
57.9103
56.5929
55.3651
54.2293
53.1868
52.2369
51.3769
50.6036
49.9171
49.3286
48.8592
48.5298
48.3535
48.4144
48.6008
48.8637
49.1998
49.64
50.1963
50.8704
51.6583
52.5527
53.5457
54.6299
55.7993
57.0496
58.378
59.7821
61.2603
62.8112
64.4324
66.1221
67.8781
69.6981
71.5792
73.519
71.4409
69.4489
67.5152
65.6428
63.835
62.0954
60.4273
58.8346
57.3208
55.89
54.5459
53.2918
52.1307
51.0639
50.0908
49.2098
48.4177
47.716
47.1159
46.6403
46.3114
46.1428
46.1963
46.3652
46.613
46.9446
47.3943
47.9697
48.668
49.4818
50.4016
51.4187
52.5252
53.7156
54.9866
56.3358
57.7618
59.2629
60.8379
62.4847
64.2011
65.9843
67.8322
69.7419
71.7102
69.7335
67.714
65.7526
63.8529
62.0177
60.2506
58.555
56.935
55.3945
53.9369
52.5662
51.2863
50.0994
49.0078
48.0111
47.1081
46.2968
45.5795
44.968
44.4864
44.1588
43.998
44.0385
44.1858
44.4183
44.748
45.2102
45.8066
46.53
47.3696
48.3137
49.3532
50.4803
51.6906
52.9813
54.3512
55.7993
57.3241
58.9243
60.5973
62.3411
64.1525
66.0289
67.9673
69.9644
68.0928
66.0466
64.0585
62.1315
60.2691
58.4749
56.7526
55.1058
53.5385
52.0548
50.6581
49.3522
48.1399
47.0232
46.0023
45.0769
44.246
43.5128
42.8903
42.4031
42.077
41.9234
41.9452
42.0674
42.2857
42.6173
43.0946
43.7137
44.4621
45.326
46.2925
47.3519
48.4976
49.7261
51.0361
52.4269
53.8978
55.4473
57.0736
58.7739
60.5459
62.386
64.2914
66.2584
68.2844
66.5225
64.4498
62.4352
60.4814
58.5924
56.7717
55.0231
53.3502
51.757
50.2475
48.8253
47.4939
46.2565
45.1148
44.0697
43.1212
42.2702
41.5212
40.8879
40.3958
40.0716
39.923
39.9207
40.0159
40.2231
40.561
41.0563
41.6984
42.4703
43.3558
44.3413
45.4174
46.5791
47.825
49.1542
50.5667
52.0612
53.6365
55.2899
57.0184
58.8192
60.6883
62.6227
64.6189
66.6738
65.0256
62.9268
60.8861
58.9063
56.9913
55.1447
53.3702
51.6719
50.0534
48.5187
47.0718
45.7158
44.4536
43.2873
42.2178
41.2463
40.3748
39.6102
38.9668
38.4702
38.1481
38.0002
37.9699
38.0382
38.2388
38.5885
39.1038
39.7682
40.5607
41.4634
42.4632
43.5524
44.7283
45.9905
47.3393
48.7742
50.2939
51.896
53.5776
55.3349
57.1648
59.0632
61.0265
63.0516
65.1348
63.605
61.4813
59.4151
57.41
55.4694
53.5974
51.7977
50.0743
48.4313
46.8725
45.4016
44.0219
42.7358
41.5454
40.4521
39.4575
38.5657
37.7857
37.1332
36.633
36.3123
36.1583
36.0982
36.1423
36.3423
36.7093
37.2461
37.9305
38.7387
39.6527
40.6615
41.7603
42.9486
44.2271
45.5963
47.0551
48.6011
50.2311
51.9415
53.728
55.5869
57.5143
59.5062
61.5594
63.6705
62.2642
60.1164
58.0258
55.9959
54.0306
52.134
50.3097
48.5621
46.8952
45.3129
43.8189
42.4163
41.1072
39.8939
38.7773
37.7603
36.8488
36.0544
35.3939
34.8908
34.57
34.401
34.3114
34.3373
34.5429
34.933
35.4914
36.1915
37.0085
37.9269
38.9395
40.0451
41.2452
42.5411
43.9321
45.4159
46.9891
48.6473
50.3864
52.2018
54.0893
56.0449
58.0646
60.1454
62.2832
61.0064
58.8363
56.7225
54.6691
52.6798
50.759
48.9109
47.1395
45.4493
43.8441
42.3275
40.9029
39.572
38.3367
37.1983
36.1602
35.2304
34.4231
33.7565
33.2513
32.9277
32.733
32.6164
32.6327
32.8497
33.2672
33.8456
34.5545
35.372
36.2879
37.3006
38.4123
39.6254
40.94
42.3541
43.8637
45.4641
47.1501
48.9173
50.7605
52.6755
54.6582
56.7049
58.8121
60.976
59.8347
57.6439
55.5089
53.4335
51.4219
49.4781
47.6068
45.8123
44.0989
42.4711
40.9325
39.4861
38.134
36.8776
35.7188
34.6616
33.7162
32.8992
32.2295
31.7231
31.3916
31.1612
31.0213
31.0379
31.2694
31.7168
32.3104
33.0188
33.8283
34.7373
35.7494
36.8692
38.0977
39.4331
40.8709
42.406
44.0325
45.7449
47.5383
49.4076
51.3488
53.3574
55.4298
57.5623
59.7514
58.7507
56.5421
54.3884
52.2935
50.2615
48.2966
46.4036
44.5868
42.8509
41.2005
39.6394
38.171
36.7973
35.5203
34.3423
33.2687
32.3113
31.4893
30.8212
30.3147
29.9686
29.6945
29.536
29.5616
29.8066
30.2817
30.8813
31.5786
32.3745
33.277
34.2928
35.425
36.6721
38.0294
39.4908
41.0496
42.7
44.4362
46.2534
48.1469
50.1124
52.1455
54.2425
56.3995
58.6128
57.7555
55.5322
53.3632
51.2523
49.2032
47.2203
45.3078
43.4705
41.7132
40.0406
38.4567
36.9651
35.5686
34.27
33.073
31.985
31.02
30.1986
29.5378
29.0322
28.6647
28.3431
28.1713
28.2111
28.4624
28.9564
29.5483
30.2252
31.0087
31.9119
32.9393
34.0899
35.3583
36.7376
38.2202
39.7996
41.4704
43.2274
45.066
46.9816
48.9698
51.0262
53.1464
55.3271
57.5638
56.8467
54.6124
52.4323
50.3099
48.2484
46.2519
44.3245
42.4706
40.6947
39.0014
37.3951
35.8796
34.4585
33.1362
31.9191
30.8176
29.848
29.0312
28.3813
27.8746
27.4813
27.1147
26.9358
26.9898
27.236
27.7338
28.3017
28.9551
29.7351
30.6508
31.6991
32.873
34.1636
35.5623
37.0625
38.6587
40.3464
42.1215
43.9794
45.9158
47.9257
50.0043
52.1471
54.35
56.6088
56.0198
53.7772
51.59
49.4608
47.3927
45.3892
43.4535
41.5894
39.8007
38.0915
36.4658
34.9279
33.4824
32.1358
30.8976
29.7822
28.8081
27.9943
27.3484
26.8275
26.4106
26.0101
25.8307
25.8932
26.1288
26.6147
27.1451
27.7802
28.5696
29.5083
30.5825
31.7799
33.0896
34.5037
36.0174
37.6272
39.3299
41.1219
42.9987
44.9553
46.9863
49.0864
51.2504
53.474
55.7529
55.2692
53.0192
50.8263
48.6934
46.6233
44.6187
42.6823
40.8167
39.0244
37.3082
35.6714
34.1184
32.6545
31.2884
30.0329
28.9058
27.9261
27.1056
26.4379
25.8686
25.4363
25.0246
24.8515
24.9108
25.1522
25.6158
26.102
26.7297
27.5375
28.5006
29.5961
30.8099
32.1322
33.5575
35.0828
36.7062
38.425
40.2349
42.1311
44.1078
46.159
48.279
50.4624
52.7045
55.0011
54.5935
52.3337
50.1329
47.9947
45.9221
43.918
41.9848
40.1241
38.3373
36.6255
34.9908
33.4367
31.9695
30.5996
29.3422
28.2157
27.2344
26.3941
25.6622
25.0004
24.5594
24.1712
24.0257
24.0709
24.3389
24.7606
25.2026
25.838
26.6648
27.6405
28.7415
29.9592
31.2877
32.723
34.2623
35.9026
37.64
39.4697
41.3856
43.3814
45.4509
47.5879
49.7874
52.0447
54.3554
54.0027
51.7285
49.5148
47.3654
45.284
43.2743
41.3388
39.4797
37.6982
35.9952
34.3719
32.8315
31.3812
30.033
28.8027
27.7044
26.7396
25.8757
25.0558
24.308
23.8534
23.5198
23.497
23.5181
23.7537
24.0738
24.4711
25.1231
25.9609
26.9305
28.0205
29.2336
30.567
32.0147
33.5712
35.2308
36.9878
38.8361
40.7691
42.7805
44.8639
47.0141
49.2255
51.494
53.8156
53.5176
51.2262
48.995
46.8286
44.7311
42.7064
40.7581
38.8888
37.1009
35.3962
33.7772
32.2491
30.8213
29.509
28.3288
27.2896
26.3733
25.5166
24.6736
23.9582
23.4509
23.0925
23.4561
23.1868
23.3627
23.5969
23.9291
24.5594
25.3883
26.3505
27.4388
28.6569
30.0005
31.4619
33.033
34.7069
36.4769
38.3367
40.28
42.3008
44.393
46.5516
48.7717
51.0489
53.3796
53.1638
50.8549
48.6054
46.4197
44.3023
42.2575
40.2891
38.4009
36.5959
34.8776
33.2502
31.721
30.3011
29.0062
27.8525
26.8449
25.9546
25.1118
24.3211
23.7632
23.3527
23.3066
23.7011
23.5237
23.3218
23.2676
23.4749
24.0351
24.8624
25.8619
26.9954
28.2487
29.6136
31.0849
32.659
34.3327
36.1021
37.9622
39.9074
41.9318
44.0293
46.1946
48.4226
50.7089
53.0493
52.9638
50.6403
48.3744
46.1709
44.0342
41.9684
39.9776
38.0653
36.2356
34.4933
32.846
31.3039
29.8819
28.5976
27.4666
26.49
25.6305
24.8145
24.0797
23.537
23.1404
23.4495
23.9204
23.7402
23.5031
23.3175
23.1456
23.6964
24.5643
25.611
26.7767
28.0394
29.3964
30.852
32.41
34.0712
35.833
37.6905
39.6373
41.6668
43.7721
45.947
48.1857
50.4835
52.8356
53.0195
50.6936
48.4202
46.2028
44.0449
41.9504
39.9232
37.9687
36.0933
34.3054
32.616
31.0395
29.5929
28.2944
27.1566
26.1745
25.306
24.5064
23.8984
23.4211
23.2091
23.6031
24.0645
23.7341
23.4802
23.2579
23.2035
23.712
24.5692
25.5949
26.7107
27.9163
29.2288
30.6579
32.205
33.8665
35.6359
37.5059
39.4683
41.515
43.6384
45.8316
48.0883
50.403
52.7709
53.227
50.9187
48.6628
46.4626
44.3213
42.242
40.2284
38.2852
36.4179
34.6341
32.9437
31.3598
29.8966
28.5674
27.3775
26.3138
25.3426
24.4537
23.728
23.2142
23.452
23.8891
23.9233
23.548
23.2706
23.0482
23.3995
23.9851
24.8329
25.8282
26.9308
28.1426
29.4701
30.9145
32.4733
34.1418
35.914
37.7832
39.742
41.783
43.8992
46.0843
48.3321
50.6376
52.9961
53.513
51.2253
48.9909
46.8124
44.692
42.6326
40.637
38.7091
36.8543
35.0801
33.3968
31.8178
30.3575
29.0281
27.8326
26.7561
25.7676
24.8583
24.0865
23.4937
23.1418
23.4816
23.5899
23.4065
23.2026
23.1747
23.6005
24.2466
25.1
26.0914
27.2024
28.4321
29.7792
31.2404
32.8114
34.4876
36.2633
38.1326
40.0887
42.1249
44.2344
46.4113
48.6502
50.9458
53.294
53.8568
51.5855
49.3685
47.2078
45.1058
43.0644
41.0865
39.1756
37.3375
35.5806
33.9164
32.3589
30.9219
29.6151
28.4359
27.3628
26.3621
25.4278
24.597
23.9091
23.4247
23.1866
23.2025
23.234
23.2486
23.3125
23.8023
24.5603
25.4768
26.4883
27.6017
28.8323
30.1819
31.6454
33.217
34.8912
36.663
38.5268
40.4762
42.5049
44.6068
46.7757
49.0061
51.2931
53.632
54.2793
52.018
49.8112
47.6607
45.569
43.5385
41.5727
39.6762
37.8563
36.1226
34.4873
32.964
31.5645
30.2936
29.1415
28.0785
27.0703
26.1196
25.2555
24.5098
23.9503
23.7097
23.7256
23.7571
23.7729
23.8404
24.3271
25.0844
25.9943
27.0056
28.1196
29.3485
30.6938
32.1508
33.7144
35.3798
37.1425
38.9973
40.9383
42.9589
45.0528
47.214
49.4367
51.7158
54.0471
54.7966
52.5414
50.3399
48.1941
46.1068
44.0817
42.1232
40.238
38.4349
36.7249
35.1206
33.6346
32.2756
31.0431
29.92
28.8714
27.8671
26.9171
26.0575
25.3324
24.7956
24.579
24.5931
24.621
24.6344
24.6713
25.1363
25.8588
26.7379
27.7293
28.8295
30.0457
31.3773
32.8196
34.3678
36.0179
37.7654
39.6057
41.533
43.5408
45.6228
47.7727
49.9845
52.2532
54.5741
55.4183
53.1691
50.9727
48.8318
46.7495
44.7303
42.7801
40.9067
39.1198
37.4309
35.8518
34.3932
33.0601
31.8474
30.7331
29.6844
28.6821
27.7437
26.9102
26.2345
25.7557
25.5874
25.6001
25.6249
25.6361
25.6861
26.1329
26.8198
27.6644
28.629
29.709
30.9079
32.2231
33.6487
35.1798
36.8122
38.542
40.3646
42.2745
44.2656
46.3316
48.4659
50.6631
52.9174
55.2246
56.1467
53.9061
51.7175
49.5846
47.511
45.5016
43.5635
41.7045
39.9347
38.2649
36.7053
35.2636
33.9412
32.7281
31.6011
30.5338
29.5195
28.5834
27.7695
27.1351
26.7249
26.6162
26.6286
26.6529
26.664
26.7867
27.2367
27.9031
28.7196
29.6593
30.7199
31.9027
33.203
34.6139
36.1295
37.7454
39.4576
41.2618
43.1529
45.1251
47.1724
49.2884
51.4679
53.7053
55.9957
56.9801
54.751
52.5741
50.4534
48.3928
46.398
44.476
42.6348
40.8839
39.2328
37.6898
36.2595
34.9396
33.7172
32.5703
31.4808
30.4529
29.5166
28.7175
28.1129
27.7563
27.6872
27.6914
27.7144
27.7193
27.9293
28.4014
29.0652
29.8658
30.788
31.8338
33.0035
34.2915
35.6902
37.1928
38.7943
40.4906
42.2774
44.1498
46.1029
48.1306
50.2273
52.3874
54.6058
56.8778
57.9135
55.6995
53.5381
51.4335
49.3902
47.4141
45.5119
43.6915
41.9614
40.3298
38.8029
37.3825
36.0634
34.8317
33.6685
32.5638
31.5299
30.5991
29.8163
29.2367
28.9177
28.8619
28.8456
28.8535
28.8541
29.1319
29.6302
30.2995
31.0935
32.0049
33.0393
34.1978
35.4745
36.8617
38.3522
39.9405
41.622
43.3927
45.2475
47.1818
49.1903
51.2672
53.4075
55.6061
57.8589
58.9417
56.7459
54.6034
52.5183
50.4959
48.5416
46.6622
44.865
43.1577
41.5467
40.0364
38.6264
37.3097
36.0727
34.9008
33.7908
32.76
31.8418
31.0789
30.5232
30.2311
30.1703
30.1243
30.101
30.1092
30.4298
30.9479
31.6211
32.4111
33.3142
34.3383
35.4848
36.749
38.1231
39.6002
41.1745
42.8409
44.5952
46.4329
48.3488
50.3381
52.3954
54.5161
56.695
58.928
60.0596
57.8843
55.7633
53.7007
51.7017
49.7717
47.9174
46.1453
44.4617
42.8723
41.3796
39.9813
38.6697
37.4325
36.2596
35.1532
34.1337
33.234
32.4944
31.9622
31.6895
31.6129
31.5324
31.4696
31.499
31.8441
32.3731
33.0449
33.8287
34.723
35.7355
36.8683
38.1173
39.4755
40.9363
42.494
44.1435
45.8802
47.6995
49.5963
51.566
53.6036
55.704
57.8629
60.0759
61.2624
59.1097
57.0121
54.9739
53.0002
51.0963
49.2682
47.5221
45.8633
44.296
42.8214
41.4361
40.1323
38.8998
37.7324
36.6369
35.6348
34.7581
34.0439
33.5347
33.2758
33.1773
33.0611
32.9594
33.0194
33.3781
33.9106
34.576
35.3505
36.234
37.2334
38.3504
39.5816
40.9211
42.3626
43.9007
45.5304
47.247
49.0458
50.922
52.871
54.8876
56.9671
59.1052
61.2974
62.5458
60.4171
58.3444
56.332
54.3849
52.508
50.7069
48.9871
47.3532
45.8083
44.352
42.9807
41.6872
40.4634
39.3068
38.2273
37.2469
36.396
35.7085
35.2214
34.9715
34.848
34.6988
34.5642
34.6586
35.0247
35.5556
36.2113
36.9741
37.8451
38.8298
39.9296
41.1414
42.4598
43.8795
45.3953
47.0026
48.6967
50.4727
52.3263
54.2525
56.2463
58.3035
60.4194
62.5898
63.9062
61.8028
59.756
57.7704
55.8505
54.0011
52.2273
50.5339
48.9245
47.4015
45.9637
44.6074
43.3261
42.114
40.972
39.9119
38.9561
38.1325
37.4717
37.0055
36.7605
36.6115
36.4342
36.2758
36.4036
36.7737
37.2997
37.9439
38.6934
39.5508
40.52
41.6018
42.7932
44.0896
45.4858
46.9776
48.5604
50.2297
51.9809
53.8096
55.7111
57.6805
59.7134
61.8057
63.9528
65.3409
63.2634
61.2435
59.2852
57.3928
55.5709
53.8242
52.1567
50.5717
49.0702
47.6509
46.31
45.0421
43.8443
42.7197
41.6814
40.7515
39.9557
39.3213
38.8745
38.6307
38.4574
38.2584
38.0854
38.2425
38.6145
39.1336
39.7654
40.5012
41.3442
42.2976
43.3612
44.5319
45.8058
47.1781
48.6448
50.2017
51.8448
53.5695
55.3718
57.2467
59.1899
61.1972
63.264
65.3864
66.8472
64.7965
62.8037
60.8728
59.0081
57.2137
55.4939
53.8521
52.2906
50.8101
49.4092
48.0841
46.8312
45.6494
44.544
43.5292
42.6257
41.8577
41.2484
40.819
40.5733
40.3782
40.164
39.9851
40.1661
40.5383
41.0493
41.6686
42.3904
43.2187
44.156
45.2015
46.3518
47.6032
48.9516
50.3929
51.9234
53.5394
55.2367
57.0113
58.8585
60.7743
62.7544
64.7943
66.8906
68.4224
66.3988
64.4337
62.5305
60.6934
58.9265
57.2331
55.6163
54.0777
52.618
51.2353
49.9267
48.6898
47.5256
46.4409
45.4502
44.5734
43.8321
43.2466
42.8326
42.5825
42.3685
42.1453
41.9678
42.1669
42.5378
43.0398
43.6465
44.3546
45.1681
46.0894
47.1168
48.2471
49.4764
50.8009
52.2171
53.7214
55.3101
56.9797
58.7259
60.5446
62.4321
64.3838
66.3957
68.4645
70.065
68.0686
66.1311
64.2555
62.4461
60.7062
59.0387
57.4464
55.9305
54.4913
53.1269
51.8353
50.6156
49.4702
48.4072
47.4411
46.5905
45.8748
45.3113
44.9102
44.654
44.4243
44.197
44.027
44.2391
44.6073
45.0995
45.6938
46.3883
47.1871
48.0922
49.1017
50.2122
51.4199
52.7211
54.1124
55.5908
57.1525
58.7941
60.5119
62.3018
64.1604
66.0831
68.0666
70.1069
71.7719
69.8033
67.8935
66.0458
64.2635
62.5502
60.9083
59.34
57.8465
56.4275
55.0816
53.8078
52.6062
51.4807
50.4401
49.4986
48.6735
47.9819
47.4384
47.0479
46.7846
46.5424
46.3148
46.157
46.3776
46.7419
47.2239
47.8059
48.4869
49.2712
50.1601
51.1516
52.2426
53.4289
54.7073
56.0745
57.5273
59.0621
60.6763
62.3657
64.1269
65.9562
67.85
69.8044
71.816
73.5413
71.6004
69.7181
67.8979
66.143
64.4559
62.8393
61.2947
59.8233
58.4244
57.0975
55.8421
54.6595
53.5547
52.537
51.6197
50.819
50.1502
49.6246
49.2424
48.9714
48.7197
48.4945
48.3525
48.5782
48.9373
49.4088
49.9786
50.6465
51.4162
52.2888
53.2626
54.3341
55.4996
56.7556
58.0989
59.5265
61.0352
62.6221
64.2834
66.0161
67.8167
69.6812
71.6063
73.5889
75.3712
73.4576
71.603
69.81
68.0821
66.421
64.8292
63.308
61.8583
60.4799
59.1724
57.9363
56.7736
55.6898
54.6949
53.8016
53.0243
52.3764
51.8666
51.491
51.2121
50.9533
50.7321
50.6087
50.8366
51.1898
51.6509
52.2085
52.8633
53.6185
54.475
55.4312
56.4833
57.6279
58.8618
60.1815
61.5844
63.0675
64.6277
66.2616
67.966
69.7377
71.5733
73.4695
75.423
77.2584
75.3727
73.5454
71.7795
70.0783
68.4427
66.8755
65.3774
63.9495
62.5916
61.3041
60.0874
58.9451
57.883
56.9108
56.0409
55.2859
54.6572
54.1614
53.7902
53.5042
53.2402
53.0241
52.9213
53.1493
53.496
53.9463
54.4921
55.1339
55.8749
56.7153
57.6537
58.6865
59.8105
61.0225
62.3192
63.6978
65.1556
66.6896
68.2968
69.9735
71.7168
73.5235
75.3909
77.3152
75.0371
73.0998
71.2211
69.4039
67.6514
65.9669
64.3542
62.8168
61.3588
59.9841
58.6963
57.4991
56.3949
55.3851
54.4681
53.6397
52.8937
52.2273
51.6481
51.1766
50.8323
50.63
50.6901
50.9164
51.225
51.5894
52.0276
52.5584
53.1952
53.9419
54.797
55.7552
56.8097
57.9541
59.183
60.492
61.8774
63.3365
64.8666
66.4657
68.132
69.8627
71.656
73.5093
75.4202
73.1158
71.1491
69.2405
67.3936
65.6115
63.8973
62.2549
60.6882
59.201
57.7977
56.4818
55.2574
54.1272
53.0927
52.1528
51.3039
50.5397
49.8575
49.2659
48.7866
48.4413
48.2446
48.3111
48.5307
48.8285
49.1854
49.6274
50.1727
50.8308
51.6027
52.4843
53.4689
54.5487
55.7176
56.9698
58.3017
59.71
61.1925
62.7472
64.3718
66.0644
67.8226
69.6439
71.5257
73.4664
71.2534
69.2571
67.3192
65.4427
63.6309
61.8871
60.2152
58.6192
57.1029
55.6708
54.3266
53.0746
51.9177
50.8578
49.8943
49.0237
48.2406
47.5419
46.9374
46.4504
46.1045
45.915
45.9836
46.1923
46.4765
46.826
47.2743
47.837
48.5191
49.3182
50.2273
51.2385
52.3432
53.5355
54.8104
56.1645
57.5959
59.1021
60.6815
62.332
64.0515
65.8375
67.6876
69.599
71.5691
69.4531
67.4275
65.4602
63.5541
61.7127
59.9397
58.2384
56.6133
55.068
53.607
52.2346
50.9546
49.7708
48.6849
47.6968
46.8037
46.0005
45.2851
44.6676
44.1731
43.8273
43.646
43.7115
43.9045
44.1727
44.5159
44.9735
45.5566
46.2649
47.0922
48.0293
49.0664
50.1952
51.4101
52.7068
54.083
55.537
57.0673
58.672
60.3493
62.0965
63.9111
65.7908
67.7319
69.7323
67.7171
65.6625
63.6661
61.731
59.8605
58.0584
56.328
54.6738
53.0998
51.6104
50.2098
48.902
47.6908
46.5784
45.5651
44.6485
43.8244
43.0918
42.4612
41.9593
41.6145
41.4427
41.4988
41.671
41.9219
42.261
42.7313
43.3373
44.0736
44.9296
45.8938
46.9557
48.1071
49.343
50.6608
52.0589
53.5361
55.0911
56.7222
58.4271
60.2031
62.0473
63.9567
65.928
67.9582
66.0483
63.9654
61.9405
59.9767
58.0773
56.2465
54.4876
52.8047
51.2024
49.685
48.2563
46.921
45.6825
44.5433
43.5041
42.5633
41.7177
40.9674
40.3238
39.815
39.4717
39.3097
39.3501
39.4965
39.7302
40.0686
40.5549
41.1861
41.9507
42.8348
43.8243
44.9087
46.0806
47.3365
48.6748
50.095
51.5962
53.1772
54.8358
56.5693
58.3748
60.2491
62.1888
64.1906
66.2512
64.4498
62.3391
60.2861
58.294
56.3664
54.5072
52.7202
51.0097
49.3796
47.8345
46.3786
45.016
43.7506
42.5846
41.5192
40.5534
39.6855
38.9173
38.2611
37.746
37.4049
37.2516
37.2697
37.3867
37.6053
37.9479
38.4532
39.1107
39.903
40.8124
41.8241
42.9278
44.1178
45.3925
46.7514
48.1946
49.7211
51.3292
53.0165
54.7798
56.6156
58.5206
60.4908
62.5231
64.6138
62.9252
60.7871
58.7065
56.6866
54.7313
52.8444
51.0301
49.2923
47.6351
46.0632
44.5807
43.1917
41.8998
40.7073
39.6156
38.6244
37.7336
36.9472
36.2789
35.7584
35.4202
35.2725
35.2626
35.3485
35.5561
35.9089
36.4361
37.1196
37.9367
38.8672
39.8964
41.0156
42.2216
43.5144
44.8944
46.3618
47.9151
49.5519
51.269
53.0628
54.9295
56.8652
58.8662
60.9286
63.049
61.4775
59.3128
57.2052
55.1584
53.1759
51.2621
49.4208
47.6563
45.9729
44.3751
42.8669
41.4526
40.135
38.9166
37.7989
36.782
35.8681
35.0635
34.3839
33.8589
33.524
33.3759
33.334
33.3902
33.5934
33.9628
34.5137
35.2211
36.058
37.0033
38.0441
39.1749
40.3951
41.7061
43.1085
44.6019
46.1836
47.8505
49.5983
51.4232
53.3208
55.2871
57.3183
59.4102
61.5598
60.1102
57.9202
55.7866
53.7133
51.7045
49.7642
47.8967
46.1063
44.3974
42.7744
41.2416
39.8028
38.4608
37.2177
36.0744
35.0322
34.0951
33.2729
32.5832
32.0547
31.7227
31.5649
31.49
31.5217
31.728
32.121
32.6963
33.4231
34.272
35.2243
36.2706
37.4097
38.6435
39.9739
41.4006
42.9214
44.5329
46.2304
48.0093
49.8651
51.7933
53.7896
55.85
57.9711
60.1491
58.8268
56.6127
54.4544
52.3561
50.3217
48.3555
46.4624
44.6466
42.9128
41.2655
39.7089
38.2467
36.8814
35.6148
34.4475
33.381
32.4216
31.5828
30.8848
30.3541
30.0231
29.8435
29.7372
29.7534
29.9705
30.3939
30.9922
31.7308
32.5822
33.5328
34.5798
35.7259
36.9743
38.3258
39.7784
41.328
42.9694
44.6975
46.5069
48.3927
50.3503
52.3757
54.4647
56.6138
58.8193
57.6301
55.394
53.213
51.0911
49.0325
47.0418
45.1237
43.2831
41.5248
39.8535
38.2737
36.7887
35.4011
34.1121
32.9222
31.8333
30.8539
30.0013
29.298
28.7667
28.4325
28.2179
28.084
28.0962
28.33
28.7887
29.4054
30.1452
30.9884
31.931
32.9769
34.1316
35.3973
36.7721
38.2515
39.8296
41.5002
43.2574
45.0957
47.0099
48.9956
51.0486
53.165
55.3411
57.5732
56.5225
54.267
52.0658
49.9228
47.8422
45.8288
43.8871
42.0226
40.2402
38.5451
36.9416
35.4336
34.0237
32.7127
31.5016
30.393
29.3974
28.536
27.8328
27.3031
26.9589
26.6975
26.5408
26.5601
26.8121
27.3065
27.9322
28.6604
29.4876
30.4213
31.4698
32.6376
33.9239
35.3234
36.8292
38.4341
40.1312
41.9148
43.7794
45.72
47.7323
49.8116
51.9543
54.1564
56.4142
55.5049
53.2335
51.0156
48.855
46.7559
44.7225
42.7599
40.8732
39.0679
37.349
35.7214
34.1892
32.7553
31.4212
30.1888
29.0627
28.056
27.1928
26.498
25.9731
25.6102
25.2942
25.1205
25.1549
25.4183
25.9406
26.56
27.2651
28.0764
29.0087
30.0687
31.2562
32.566
33.9898
35.5191
37.147
38.8669
40.6734
42.5615
44.5264
46.5634
48.6681
50.836
53.0632
55.3459
54.5757
52.292
50.0617
47.8883
45.7755
43.7272
41.7482
39.8433
38.0177
36.2766
34.6251
33.0673
31.6067
30.2464
28.9905
27.8475
26.8338
25.9757
25.2973
24.779
24.3905
24.0193
23.8354
23.8868
24.1462
24.6787
25.273
25.9508
26.7575
27.703
28.7857
29.9988
31.3326
32.7773
34.3255
35.9713
37.7098
39.5362
41.4459
43.4335
45.4944
47.6232
49.8155
52.0667
54.3729
53.7304
51.4377
49.199
47.0177
44.8974
42.8411
40.8528
38.9366
37.0971
35.3387
33.6661
32.0837
30.5954
29.2063
27.9241
26.7627
25.7432
24.8915
24.2285
23.7066
23.2922
22.8747
22.6883
22.7524
22.9944
23.5163
24.0687
24.7261
25.5454
26.5188
27.6319
28.8714
30.2256
31.6862
33.248
34.9079
36.6625
38.5074
40.4379
42.4479
44.5318
46.684
48.8991
51.1727
53.5003
52.9638
50.6626
48.4173
46.2318
44.1086
42.0511
40.0619
38.1443
36.3011
34.5353
32.8504
31.2502
29.7393
28.3248
27.0186
25.8403
24.8145
23.9621
23.2901
22.7233
22.2906
21.8505
21.6652
21.7289
21.972
22.4713
22.9733
23.6242
24.4684
25.4729
26.6122
27.871
29.2388
30.7103
32.2839
33.958
35.7298
37.5945
39.5461
41.5783
43.6842
45.8579
48.0938
50.3869
52.7332
52.2746
49.9623
47.7083
45.5165
43.3904
41.3333
39.3478
37.436
35.5995
33.8391
32.1563
30.5532
29.035
27.611
26.297
25.1157
24.0907
23.2271
22.4955
21.813
21.3681
20.948
20.777
20.8265
21.1109
21.5694
22.0241
22.6886
23.5577
24.5782
25.7246
26.9886
28.3638
29.8469
31.4361
33.1291
34.9217
36.8081
38.7813
40.834
42.9594
45.1514
47.4042
49.7133
52.0743
51.673
49.345
47.0768
44.8726
42.7368
40.6733
38.6855
36.7757
34.9456
33.1952
31.5246
29.9347
28.4312
27.0255
25.7362
24.5849
23.5848
22.7083
21.8733
21.0669
20.6038
20.2563
20.2058
20.2434
20.494
20.8328
21.249
21.9465
22.8298
23.839
24.9698
26.2287
27.6114
29.1109
30.7213
32.437
34.2518
36.1587
38.1504
40.2197
42.3599
44.5652
46.8303
49.1511
51.5235
51.1816
48.8351
46.548
44.3254
42.1718
40.0919
38.0898
36.1687
34.3309
32.5777
30.91
29.3307
27.848
26.4778
25.2423
24.1598
23.223
22.3608
21.4802
20.7119
20.1804
19.801
20.1847
19.8953
20.0763
20.3304
20.6861
21.3717
22.2466
23.2409
24.3643
25.6264
27.0208
28.5369
30.1651
31.8976
33.7273
35.647
37.6498
39.729
41.8784
44.0926
46.367
48.697
51.0791
50.8267
48.462
46.1554
43.9122
41.7372
39.6353
37.6112
35.6689
33.8118
32.0424
30.3637
28.7809
27.3042
25.9507
24.7428
23.6961
22.7894
21.9305
21.0862
20.5053
20.0684
20.0221
20.4426
20.2558
20.0308
19.9761
20.2065
20.8094
21.6906
22.7359
23.9131
25.2124
26.6264
28.1498
29.7792
31.5107
33.3398
35.2604
37.266
39.3499
41.5059
43.7282
46.0118
48.3519
50.7447
50.6325
48.2527
45.9294
43.6673
41.4716
39.3473
37.2991
35.3309
33.4466
31.6501
29.9472
28.3473
26.8652
25.5214
24.3386
23.3285
22.4584
21.621
20.8383
20.2715
19.8489
20.1757
20.6702
20.4644
20.2219
20.031
19.8541
20.4514
21.3893
22.4905
23.6992
25.0023
26.4024
27.9063
29.5179
31.2371
33.0597
34.9795
36.9888
39.0799
41.2456
43.4792
45.775
48.1279
50.5338
50.6915
48.3139
45.988
43.7176
41.506
39.3572
37.2749
35.2638
33.3298
31.4805
29.7267
28.0829
26.5685
25.2058
24.0151
22.9996
22.1132
21.272
20.6461
20.143
19.9184
20.3389
20.8087
20.4577
20.203
19.9736
19.9126
20.4602
21.3913
22.4673
23.6141
24.8536
26.2104
27.6928
29.2998
31.0251
32.8606
34.7973
36.8258
38.9372
41.1234
43.3773
45.6923
48.0631
50.4849
50.8899
48.5324
46.2268
43.9766
41.7848
39.6547
37.5895
35.5932
33.6708
31.8289
30.0772
28.4288
26.9007
25.5107
24.2705
23.172
22.1737
21.2433
20.4769
19.9228
20.1838
20.6524
20.6703
20.2713
19.9874
19.7568
20.1328
20.7577
21.6635
22.6996
23.8373
25.0908
26.468
27.968
29.5868
31.318
33.1545
35.0882
37.111
39.2147
41.3919
43.6358
45.9403
48.3003
50.7113
51.1641
48.8282
46.5456
44.3192
42.1514
40.0444
38.0007
36.0233
34.1165
32.2869
30.5446
28.9038
27.382
25.9963
24.7556
23.648
22.633
21.6842
20.8687
20.2331
19.8503
20.2211
20.3265
20.1258
19.9113
19.8857
20.3428
21.0298
21.9324
22.9638
24.116
25.3927
26.7921
28.3091
29.9389
31.676
33.514
35.4461
37.4643
39.5614
41.7303
43.9646
46.2586
48.6075
51.0068
51.4995
49.1794
46.9142
44.7062
42.5572
40.4693
38.4446
36.4854
34.5965
32.7854
31.0638
29.4475
27.9542
26.5987
25.3834
24.2864
23.2625
22.2942
21.419
20.68
20.154
19.8952
19.9111
19.9427
19.9575
20.0245
20.5537
21.3727
22.3381
23.3813
24.5301
25.806
27.207
28.7252
30.3535
32.0863
33.9181
35.8424
37.8525
39.9411
42.1015
44.327
46.6119
48.9515
51.3412
51.9251
49.6147
47.3589
45.16
43.0203
40.9416
38.9268
36.9797
35.1069
33.3179
31.626
30.0471
28.597
27.2859
26.1074
25.0281
23.9997
23.0199
22.118
21.3223
20.71
20.4601
20.476
20.5076
20.5235
20.5923
21.1144
21.9244
22.8738
23.9164
25.0659
26.339
27.7337
29.243
30.8609
32.5831
34.4045
36.3193
38.3205
40.4008
42.5529
44.7705
47.0476
49.3792
51.7607
52.4557
50.1514
47.9007
45.7055
43.5686
41.4927
39.4819
37.5423
35.6826
33.9146
32.2528
30.7128
29.3076
28.0413
26.8987
25.8388
24.818
23.8415
22.9487
22.1909
21.622
21.4044
21.418
21.445
21.4577
21.4867
21.9799
22.7424
23.6544
24.6754
25.8097
27.0676
28.4459
29.9375
31.5376
33.2421
35.0466
36.9455
38.9319
40.9986
43.1381
45.3438
47.6095
49.9299
52.3005
53.097
50.7994
48.5543
46.3638
44.2308
42.1593
40.1548
38.2246
36.379
34.6305
32.9932
31.4809
30.1025
28.8564
27.7209
26.6566
25.6343
24.6687
23.8037
23.1055
22.6118
22.4543
22.4664
22.4903
22.5008
22.5553
23.0279
23.7476
24.6211
25.6135
26.7268
27.9664
29.3267
30.8003
32.3816
34.0668
35.8517
37.7312
39.6986
41.7469
43.8691
46.0582
48.3081
50.6132
52.9692
53.8485
51.5606
49.324
47.142
45.0176
42.9557
40.9627
39.0466
37.218
35.4891
33.8721
32.378
31.0111
29.7636
28.611
27.5198
26.4771
25.5066
24.6561
23.9959
23.5812
23.4897
23.502
23.5262
23.5371
23.6871
24.1686
24.8674
25.7107
26.6778
27.7726
28.9966
30.3424
31.8011
33.3664
35.034
36.7999
38.6594
40.6063
42.634
44.736
46.9054
49.1362
51.4231
53.7613
54.7062
52.4311
50.2073
48.0382
45.9277
43.881
41.9048
40.0076
38.1995
36.4913
34.8936
33.4135
32.0513
30.7948
29.6195
28.5007
27.4385
26.4632
25.624
24.9902
24.6315
24.5748
24.5762
24.5989
24.6017
24.8497
25.3594
26.0581
26.8861
27.8368
28.9183
30.1306
31.465
32.9119
34.4642
36.1168
37.8659
39.7065
41.6334
43.6404
45.7215
47.8701
50.0803
52.3471
54.6657
55.6639
53.4054
51.1983
49.0466
46.9545
44.9276
42.9729
41.0985
39.3138
37.6283
36.0502
34.5838
33.2255
31.9613
30.7689
29.6327
28.5621
27.5909
26.7682
26.1595
25.8385
25.7873
25.7632
25.7655
25.7645
26.0806
26.6176
27.3225
28.1447
29.0856
30.1565
31.3577
32.6809
34.1164
35.6564
37.2954
39.0287
40.852
42.7599
44.747
46.8075
48.9352
51.1245
53.3705
55.6689
56.7161
54.4769
52.2899
50.1592
48.0893
46.086
44.1562
42.3075
40.5486
38.8875
37.3302
35.8782
34.5258
33.2584
32.0576
30.9158
29.8484
28.8909
28.0905
27.5077
27.2136
27.1504
27.0915
27.0552
27.0665
27.4222
27.9766
28.6828
29.5001
30.4327
31.4926
32.6808
33.9901
35.4113
36.9367
38.5605
40.2776
42.0834
43.9728
45.9402
47.9803
50.0873
52.256
54.4812
56.7588
57.857
55.6396
53.4755
51.3686
49.3236
47.3466
45.4439
43.6231
41.8914
40.2555
38.7198
37.2835
35.9395
34.6741
33.4733
32.3357
31.2811
30.3447
29.571
29.0146
28.7398
28.6556
28.558
28.4761
28.5155
28.8922
29.4538
30.1544
30.9635
31.886
32.9327
34.1049
35.3966
36.7998
38.3068
39.9123
41.6106
43.397
45.2663
47.2133
49.2324
51.3182
53.4657
55.67
57.9268
59.0822
56.8887
54.7491
52.668
50.65
48.701
46.827
45.0347
43.3309
41.7208
40.2069
38.787
37.4536
36.1946
35.0005
33.875
32.8399
31.9296
31.185
30.6548
30.3936
30.2837
30.1481
30.0243
30.1008
30.4881
31.0494
31.7393
32.5366
33.4466
34.4782
35.632
36.9032
38.2848
39.77
41.3533
43.0295
44.7937
46.6405
48.565
50.5616
52.6251
54.7503
56.9326
59.1677
60.388
58.2197
56.1063
54.0523
52.0624
50.1422
48.2973
46.5341
44.858
43.2733
41.781
40.3781
39.057
37.808
36.6257
35.5174
34.5064
33.625
32.9109
32.4058
32.1531
32.016
31.8468
31.6906
31.806
32.1984
32.7546
33.4311
34.2143
35.1102
36.1252
37.2594
38.5084
39.8661
41.3268
42.8852
44.5364
46.2755
48.0973
49.9969
51.9687
54.0076
56.1089
58.2677
60.4799
61.7711
59.6291
57.5429
55.5169
53.5559
51.6648
49.8494
48.1149
46.4661
44.906
43.4348
42.049
40.7417
39.5053
38.3382
37.2508
36.2664
35.4155
34.7317
34.2504
34.0017
33.838
33.6419
33.4643
33.6156
34.01
34.5584
35.2205
35.9887
36.8694
37.8672
38.9813
40.2075
41.5405
42.9752
44.5069
46.131
47.8428
49.6374
51.5097
53.4546
55.4672
57.5426
59.6761
61.8636
63.2288
61.1142
59.0559
57.0584
55.1264
53.2647
51.4784
49.7722
48.15
46.6138
45.1632
43.7946
42.5018
41.2801
40.1309
39.0666
38.1102
37.2899
36.6356
36.1761
35.9277
35.7395
35.524
35.3361
35.5172
35.9114
36.4503
37.0979
37.851
38.7162
39.6966
40.7908
41.9944
43.3027
44.711
46.2153
47.8111
49.494
51.2598
53.1034
55.0197
57.0039
59.0516
61.1579
63.3189
64.759
62.672
60.6421
58.6737
56.7709
54.9385
53.1809
51.5022
49.9058
48.3929
46.9624
45.611
44.3339
43.1287
41.9993
40.9595
40.0314
39.2413
38.615
38.1749
37.9235
37.7139
37.4863
37.2972