<VTKFile type="ImageData" version="1.0" byte_order="LittleEndian" header_type="UInt64">
	<ImageData WholeExtent="0 74 0 74 0 74" Origin="-73.0688 -73.0688 -73.0688" Spacing="1.97483 1.97483 1.97483">
		<Piece Extent="0 74 0 74 0 74">
			<PointData Scalars="Scalars_">
				<DataArray type="Float32" Name="Scalars_" format="ascii" RangeMin="0" RangeMax="100">
78.2692
77.1309
76.0283
74.963
73.9364
72.9504
72.0065
71.1064
70.2518
69.4444
68.6859
67.9778
67.3219
66.7195
66.1723
65.6814
65.2484
64.8742
64.5599
64.3064
64.1144
63.9845
63.917
59.7842
59.5396
57.9769
57.4008
56.8691
56.4034
56.0053
55.6765
55.418
55.2309
55.1159
55.0735
55.1037
55.2066
55.3511
55.5077
55.676
55.8561
56.0478
56.251
56.4656
56.6896
56.9146
57.1521
57.4408
57.7828
58.177
58.6225
59.1181
59.6625
60.2545
60.8926
61.5754
62.3014
63.0692
63.8772
64.7057
65.5342
66.3626
67.1911
68.0253
68.8714
69.7287
70.5971
71.4759
72.365
73.2654
74.201
75.1782
76.1955
77.2513
78.3439
77.1309
75.9756
74.856
73.7737
72.7304
71.7278
70.7676
69.8515
68.9814
68.159
67.386
66.6641
65.9951
65.3805
64.8219
64.3208
63.8785
63.4962
63.1751
62.916
62.7198
62.5869
62.518
58.4247
58.1812
56.623
56.0595
55.5176
55.0405
54.6326
54.2954
54.0303
53.8384
53.7204
53.6768
53.7079
53.8091
53.9349
54.073
54.2234
54.3859
54.5605
54.747
54.9453
55.1554
55.377
55.6354
55.9491
56.3172
56.7386
57.2121
57.7364
58.3103
58.9321
59.6005
60.3139
61.0707
61.8693
62.6966
63.5251
64.3536
65.182
66.0105
66.839
67.6715
68.5156
69.3712
70.2379
71.1153
72.0232
72.9747
73.9681
75.0018
76.0741
77.1835
76.0283
74.856
73.7194
72.6201
71.56
70.5408
69.5642
68.6321
67.7463
66.9087
66.121
65.3852
64.703
64.076
63.506
62.9944
62.5427
62.1522
61.8241
61.5593
61.3587
61.223
61.1524
57.0653
56.8227
55.2955
54.7463
54.2064
53.7176
53.2996
52.9539
52.6821
52.4852
52.3642
52.3195
52.3514
52.4423
52.5482
52.6669
52.7982
52.9422
53.0986
53.2674
53.4485
53.6417
53.8536
54.13
54.47
54.8656
55.3154
55.8182
56.3726
56.9771
57.63
58.3298
59.0748
59.8633
60.6876
61.516
62.3445
63.173
64.0014
64.8299
65.6584
66.4869
67.3179
68.1602
69.014
69.8922
70.8158
71.7833
72.793
73.8431
74.932
76.058
74.963
73.7737
72.6201
71.504
70.4271
69.3912
68.3982
67.45
66.5484
65.6956
64.8932
64.1433
63.4477
62.8082
62.2266
61.7044
61.2432
60.8443
60.5091
60.2386
60.0336
59.8948
59.8227
55.7059
55.4644
53.9965
53.4625
52.9367
52.4378
52.0095
51.6552
51.3765
51.1746
51.0505
51.0046
51.0369
51.1086
51.1935
51.2916
51.4028
51.5271
51.6643
51.8143
51.977
52.1524
52.3622
52.6464
53.0048
53.4291
53.9087
54.4422
55.028
55.6643
56.3495
57.0819
57.8596
58.6785
59.507
60.3354
61.1639
61.9924
62.8209
63.6493
64.4778
65.3063
66.1347
66.9646
67.8124
68.7056
69.6449
70.6285
71.6544
72.721
73.8265
74.9691
73.9364
72.7304
71.56
70.4271
69.3334
68.2809
67.2715
66.3072
65.39
64.5218
63.7046
62.9406
62.2315
61.5794
60.986
60.4531
59.9823
59.575
59.2326
58.9562
58.7468
58.6049
58.5313
54.3465
54.1061
52.7279
52.2066
51.6852
51.1904
50.7621
50.4025
50.1169
49.9099
49.7826
49.7356
49.7616
49.8107
49.8735
49.9498
50.0397
50.1431
50.2599
50.3899
50.5332
50.6908
50.9058
51.1981
51.5665
52.0094
52.5199
53.0855
53.7039
54.3735
55.0922
55.8583
56.6694
57.4979
58.3264
59.1549
59.9833
60.8118
61.6403
62.4687
63.2972
64.1257
64.9555
65.7887
66.6489
67.5575
68.5126
69.5121
70.5543
71.6373
72.7592
73.9183
72.9504
71.7278
70.5408
69.3912
68.2809
67.212
66.1863
65.2059
64.2729
63.3894
62.5575
61.7793
61.0567
60.3919
59.7868
59.2431
58.7626
58.3468
57.9971
57.7148
57.5008
57.3559
57.2806
52.9875
52.7478
51.4764
50.9551
50.4337
49.9449
49.5248
49.1752
48.8977
48.6934
48.5641
48.5159
48.5262
48.5515
48.5909
48.6442
48.7116
48.7929
48.888
48.9969
49.1195
49.2664
49.4875
49.7881
50.1669
50.622
51.1515
51.7495
52.4021
53.1062
53.8597
54.6606
55.4889
56.3173
57.1458
57.9743
58.8027
59.6312
60.4599
61.2914
62.1263
62.9646
63.8061
64.6507
65.5259
66.4499
67.4206
68.4361
69.4945
70.5937
71.732
72.9074
72.0018
70.7676
69.5642
68.3982
67.2715
66.1863
65.1444
64.1481
63.1995
62.3008
61.4542
60.6618
59.9258
59.2483
58.6313
58.0768
57.5866
57.1622
56.8053
56.517
56.2985
56.1505
56.0736
51.6547
51.4088
50.2249
49.7035
49.1824
48.7002
48.2887
47.9497
47.6847
47.495
47.3814
47.3436
47.3338
47.334
47.3487
47.3778
47.4213
47.4792
47.5514
47.6378
47.7384
47.8832
48.1106
48.4198
48.8092
49.2769
49.8206
50.438
51.1241
51.8641
52.6537
53.4798
54.3083
55.1367
55.9652
56.7948
57.6282
58.4651
59.3056
60.1493
60.9962
61.8462
62.6992
63.5555
64.4455
65.3848
66.3711
67.4024
68.4767
69.592
70.7464
71.9379
71.0676
69.8434
68.6321
67.45
66.3072
65.2059
64.1481
63.1361
62.1721
61.2583
60.3971
59.5906
58.8412
58.1511
57.5223
56.957
56.4571
56.0242
55.6599
55.3657
55.1426
54.9915
54.9129
50.3661
50.114
48.9734
48.452
47.9315
47.4564
47.054
46.7261
46.4743
46.2999
46.2036
46.1796
46.1694
46.1592
46.1503
46.1539
46.1722
46.2053
46.2532
46.3158
46.3962
46.5449
46.7789
47.0969
47.4971
47.9776
48.5359
49.1694
49.8752
50.6491
51.4707
52.2993
53.1307
53.9661
54.8054
55.6482
56.4945
57.3441
58.1969
59.0527
59.9115
60.773
61.6371
62.5051
63.4099
64.3643
65.366
66.4129
67.503
68.6341
69.8043
71.0117
70.1447
68.9326
67.7336
66.5484
65.39
64.2729
63.1995
62.1721
61.1929
60.2642
59.3886
58.5682
57.8056
57.1029
56.4625
55.8865
55.3769
54.9355
54.564
54.2638
54.0361
53.8819
53.8018
49.1254
48.8668
47.7219
47.2005
46.6812
46.2135
45.8207
45.5045
45.2666
45.1083
45.0304
45.0156
45.0054
44.9952
44.985
44.9748
44.9676
44.9745
44.9967
45.0341
45.1027
45.2557
45.4963
45.8232
46.2344
46.7279
47.3009
47.9507
48.6742
49.4682
50.3055
51.1473
51.9929
52.842
53.6947
54.5506
55.4097
56.2717
57.1366
58.0042
58.8745
59.7472
60.6223
61.502
62.4213
63.3906
64.4074
65.4697
66.5752
67.7218
68.9075
70.1303
69.2335
68.034
66.8483
65.6771
64.5212
63.3894
62.3008
61.2583
60.2642
59.3211
58.4313
57.5973
56.8216
56.1066
55.4547
54.8681
54.3489
53.8991
53.5204
53.2144
52.9822
52.8249
52.7432
47.9362
47.6711
46.4703
45.949
45.4315
44.9717
44.5889
44.2851
44.062
43.9207
43.862
43.8515
43.8413
43.8311
43.8209
43.8107
43.8005
43.7903
43.7855
43.7962
43.8625
44.0198
44.2671
44.6029
45.0253
45.5319
46.1198
46.786
47.5273
48.3401
49.1925
50.0485
50.908
51.7706
52.6364
53.5051
54.3766
55.2507
56.1274
57.0065
57.8879
58.7715
59.6572
60.5484
61.482
62.4658
63.4975
64.5748
65.6953
66.857
68.0578
69.2956
68.3345
67.1482
65.9763
64.8197
63.6791
62.5553
61.4542
60.3971
59.3886
58.4313
57.5277
56.6804
55.892
55.165
54.5018
53.9049
53.3763
52.9182
52.5325
52.2206
51.984
51.8237
51.7404
46.8023
46.5308
45.223
44.6975
44.1824
43.7309
43.3588
43.0682
42.8606
42.7372
42.6977
42.6875
42.6773
42.6671
42.6569
42.6467
42.6365
42.6263
42.6161
42.6119
42.6801
42.8417
43.0958
43.4407
43.8743
44.394
44.9968
45.6794
46.4383
47.2698
48.1366
49.0065
49.8795
50.7553
51.6338
52.5148
53.3983
54.2841
55.1721
56.0622
56.9543
57.8483
58.7441
59.6468
60.5943
61.5923
62.6383
63.7301
64.8653
66.0416
67.2569
68.5092
67.4481
66.2756
65.1182
63.9768
62.8521
61.7452
60.6569
59.5906
58.5682
57.5973
56.6804
55.8203
55.0196
54.2809
53.6068
52.9997
52.4621
51.9959
51.6033
51.2858
51.0448
50.8815
50.7966
45.728
45.4501
44.0187
43.464
42.9372
42.4914
42.1306
41.8538
41.6627
41.5584
41.5337
41.5235
41.5133
41.5031
41.4929
41.4828
41.4766
41.4757
41.4802
41.4905
41.5605
41.7264
41.9873
42.3412
42.786
43.3187
43.9362
44.6351
45.4114
46.2611
47.1417
48.0251
48.911
49.7994
50.69
51.5829
52.4778
53.3747
54.2735
55.174
56.0763
56.9802
57.8856
58.7995
59.7604
60.7721
61.8321
62.9378
64.087
65.2774
66.5067
67.7728
66.5749
65.4168
64.2746
63.149
62.041
60.9515
59.8817
58.8324
57.8056
56.8216
55.892
55.0196
54.207
53.4571
52.7725
52.1557
51.6092
51.1353
50.736
50.4131
50.1679
50.0018
49.9154
44.7175
44.4333
42.8706
42.2849
41.7379
41.2793
40.9135
40.6432
40.4686
40.3845
40.3696
40.3594
40.3502
40.3461
40.3475
40.3544
40.3667
40.3845
40.4079
40.4366
40.5089
40.6791
40.9466
41.3095
41.7652
42.3108
42.9429
43.6576
44.451
45.3181
46.2119
47.1079
48.0061
48.9064
49.8085
50.7125
51.6182
52.5256
53.4345
54.3448
55.2566
56.1697
57.0841
58.0089
58.9827
60.0075
61.0807
62.1998
63.3624
64.5661
65.8087
67.088
65.7208
64.5724
63.4459
62.3368
61.2462
60.1751
59.1244
58.0953
57.089
56.1066
55.165
54.2809
53.4571
52.6965
52.0019
51.3759
50.821
50.3397
49.934
49.6058
49.3567
49.1878
49.1
43.7753
43.4849
41.7832
41.1657
40.602
40.1304
39.7541
39.4757
39.2975
39.2207
39.2165
39.2203
39.2297
39.2447
39.2654
39.2917
39.3236
39.3611
39.4042
39.4529
39.5307
39.7052
39.9792
40.3508
40.8172
41.3753
42.0214
42.7516
43.5615
44.4449
45.351
46.2589
47.1686
48.0799
48.9927
49.907
50.8227
51.7397
52.6579
53.5773
54.4979
55.4194
56.342
57.2774
58.2634
59.3007
60.3864
61.5182
62.6934
63.9097
65.1648
66.4565
64.9135
63.7521
62.6328
61.541
60.4686
59.4165
58.3858
57.3777
56.3934
55.4342
54.5014
53.6068
52.7725
52.0019
51.2978
50.6631
50.1004
49.612
49.2004
48.8672
48.6143
48.4428
48.3537
42.9058
42.6095
40.7613
40.1135
39.5348
39.0503
38.6635
38.3772
38.1939
38.1149
38.1241
38.1478
38.1772
38.2125
38.2535
38.3002
38.3527
38.4108
38.4747
38.5441
38.6316
38.8101
39.0904
39.4703
39.947
40.5171
41.1767
41.9215
42.7472
43.6457
44.5631
45.4818
46.4019
47.3233
48.2458
49.1695
50.0942
51.0199
51.9466
52.8742
53.8026
54.7318
55.6618
56.6072
57.6047
58.6536
59.7511
60.8947
62.0817
63.3098
64.5765
65.8798
64.1586
62.9832
61.8503
60.7622
59.7086
58.6764
57.6665
56.6803
55.719
54.7838
53.8762
52.9976
52.1557
51.3759
50.6631
50.0203
49.4503
48.9555
48.5382
48.2005
47.9441
47.7702
47.6798
42.1135
41.8116
39.8101
39.1354
38.5421
38.045
37.6478
37.3538
37.1654
37.0842
37.1035
37.1482
37.1987
37.2552
37.3175
37.3857
37.4596
37.5393
37.6247
37.7158
37.8171
37.9994
38.2856
38.6735
39.1599
39.7413
40.4135
41.1722
42.0126
42.9247
43.852
44.7804
45.7097
46.64
47.5711
48.503
49.4357
50.3691
51.3032
52.238
53.1733
54.1092
55.0457
56.0006
57.0087
58.0684
59.1767
60.3312
61.5291
62.768
64.0454
65.3593
63.4578
62.2692
61.123
60.0217
58.9678
57.9555
56.9674
56.004
55.0665
54.1564
53.275
52.4238
51.6042
50.821
50.1004
49.4503
48.8736
48.3729
47.9506
47.6087
47.3491
47.173
47.0814
41.4029
41.0958
38.9347
38.2372
37.6297
37.1204
36.7132
36.4116
36.2183
36.135
36.1608
36.2275
36.3002
36.3788
36.4634
36.5538
36.65
36.752
36.8598
36.9732
37.0928
37.2787
37.5704
37.9655
38.4609
39.0527
39.7366
40.5079
41.3618
42.2858
43.2217
44.1583
45.0955
46.0333
46.9717
47.9107
48.8501
49.7901
50.7304
51.6712
52.6124
53.554
54.4959
55.4596
56.4774
57.5468
58.6651
59.8294
61.0371
62.2858
63.573
64.8963
62.8129
61.6119
60.4533
59.3396
58.2733
57.2572
56.2891
55.3494
54.4368
53.5527
52.6985
51.8756
51.0858
50.3304
49.612
48.9555
48.3729
47.8669
47.4401
47.0945
46.8321
46.654
46.5614
40.7783
40.4664
38.1403
37.4246
36.8037
36.2828
35.8661
35.5573
35.3594
35.274
35.3022
35.3918
35.4876
35.5893
35.6969
35.8103
35.9296
36.0546
36.1854
36.3217
36.4637
36.6532
36.9499
37.3516
37.855
38.4561
39.1504
39.9331
40.799
41.7328
42.6756
43.6188
44.5624
45.5064
46.4506
47.3952
48.34
49.2852
50.2306
51.1762
52.1221
53.0681
54.0144
54.9862
56.0126
57.0907
58.2177
59.3908
60.6073
61.8646
63.1604
64.4922
62.2258
61.0132
59.843
58.7177
57.64
56.6126
55.6381
54.7174
53.8306
52.9734
52.1474
51.3541
50.5949
49.8715
49.1854
48.5382
47.9506
47.4401
47.0094
46.6607
46.3957
46.216
46.1225
40.2436
39.9276
37.433
36.7033
36.07
35.5382
35.1127
34.7973
34.595
34.5078
34.5365
34.6475
34.767
34.8924
35.0238
35.1609
35.3038
35.4524
35.6066
35.7663
35.9315
36.1279
36.4289
36.8362
37.3466
37.9558
38.6591
39.4515
40.3278
41.2692
42.2171
43.1652
44.1134
45.0618
46.0104
46.959
47.9079
48.8568
49.8059
50.755
51.7043
52.6536
53.6031
54.5821
55.616
56.7016
57.8362
59.0169
60.2409
61.5058
62.8089
64.1481
61.6981
60.4749
59.2941
58.1582
57.0699
56.032
55.0473
54.1187
53.2487
52.4195
51.6227
50.8598
50.1324
49.4419
48.7901
48.1784
47.6084
47.0945
46.6607
46.3093
46.0423
45.8612
45.767
39.8025
39.4829
36.8208
36.0787
35.4342
34.8928
34.4593
34.1378
33.9316
33.8427
33.872
34.0003
34.1442
34.294
34.4496
34.6109
34.7778
34.9502
35.1281
35.3114
35.5
35.7073
36.0117
36.4238
36.9398
37.5556
38.2663
39.0666
39.9514
40.898
41.849
42.8
43.7511
44.7022
45.6534
46.6045
47.5557
48.507
49.4582
50.4095
51.3608
52.3122
53.2638
54.2489
55.289
56.381
57.5219
58.7089
59.9392
61.2103
62.5196
63.8648
61.2313
59.9986
58.8082
57.6627
56.5649
55.5175
54.5236
53.5859
52.7077
51.8918
51.1252
50.3938
49.699
49.0426
48.4259
47.8506
47.3182
46.8301
46.3957
46.0423
45.7738
45.5916
45.4969
39.4581
39.1357
36.3087
35.5559
34.9018
34.352
33.9116
33.5849
33.3752
33.2848
33.3146
33.456
33.6248
33.7992
33.9793
34.165
34.356
34.5525
34.7542
34.9611
35.173
35.3949
35.7021
36.1176
36.638
37.2588
37.975
38.7814
39.6725
40.6218
41.5737
42.5257
43.4776
44.4296
45.3815
46.3335
47.2854
48.2374
49.1893
50.1413
51.0933
52.0452
52.9979
53.9879
55.0329
56.1299
57.2758
58.4678
59.7031
60.9791
62.2933
63.6432
60.8268
59.5857
58.3869
57.233
56.1268
55.0711
54.0689
53.1232
52.2372
51.4138
50.6562
49.9566
49.2956
48.6741
48.0936
47.5556
47.0616
46.613
46.2111
45.8612
45.5916
45.4087
45.3136
39.213
38.8886
35.9011
35.1395
34.4775
33.9208
33.4748
33.1438
32.9313
32.8396
32.8699
33.0196
33.2134
33.4127
33.6173
33.8273
34.0425
34.2628
34.4881
34.7184
34.9535
35.1939
35.5027
35.9206
36.4438
37.0678
37.7876
38.598
39.4932
40.4424
41.3931
42.3439
43.2947
44.2455
45.1964
46.1474
47.0984
48.0494
49.0005
49.9516
50.9027
51.8539
52.8067
53.8002
54.8488
55.9493
57.0989
58.2945
59.5334
60.8129
62.1306
63.4841
60.4859
59.2376
58.0316
56.8705
55.7571
54.6943
53.685
52.7325
51.8398
51.01
50.2463
49.5517
48.9229
48.3372
47.7938
47.294
46.8392
46.4307
46.0699
45.7578
45.4969
45.3136
45.2183
39.069
38.7434
35.6015
34.8334
34.1654
33.6036
33.1532
32.819
32.6044
32.5118
32.5423
32.6956
30.9291
30.6216
30.3521
30.2034
30.187
30.3031
30.5502
30.9251
31.4233
31.9918
32.5622
33.134
35.3855
35.5894
35.8229
36.0853
36.3761
36.7326
37.1937
37.7553
38.4131
39.1623
39.9977
40.914
41.906
42.9683
44.096
45.284
46.5279
47.8036
49.0795
50.3555
51.6315
52.9074
54.1834
55.4594
56.7354
58.0113
59.2873
60.5633
59.5486
58.1614
56.7777
55.3976
54.0215
52.6496
51.2983
49.9907
48.7301
47.5205
46.3657
45.27
44.2378
43.2735
42.3819
41.5677
40.8354
40.1895
39.6343
39.1736
36.6107
35.7141
34.8457
34.0658
33.3878
32.818
32.3622
32.0151
31.7594
31.5142
31.2743
31.0401
30.814
30.5962
30.387
30.4552
30.1024
29.8186
29.6673
29.6506
29.7688
30.0203
30.4018
30.9084
31.4889
32.0712
32.6546
35.1474
35.3021
35.4871
35.702
35.9605
36.3212
36.7873
37.3551
38.0198
38.7766
39.6201
40.545
41.5457
42.6171
43.7538
44.9509
46.2036
47.4786
48.7536
50.0287
51.3039
52.5791
53.8543
55.1295
56.4048
57.6801
58.9555
60.2308
59.1635
57.7899
56.4203
55.0551
53.6946
52.3393
50.9905
49.6747
48.4059
47.188
46.0248
44.9208
43.8804
42.9081
42.0088
41.1871
40.448
39.7958
39.235
38.7695
36.0079
35.0742
34.1832
33.3878
32.6957
32.1137
31.6477
31.303
31.0833
30.842
30.6291
30.4248
30.2293
30.0426
29.8651
30.0923
29.6999
29.412
29.2586
29.2417
29.3615
29.6165
30.0031
30.5163
31.1068
31.6992
32.2922
34.9909
35.0953
35.2307
35.3985
35.6526
36.0164
36.4864
37.0588
37.7288
38.4912
39.3409
40.2722
41.2795
42.3576
43.5011
44.705
45.9626
47.2344
48.5064
49.7785
51.0509
52.3235
53.5962
54.8691
56.1421
57.4153
58.6885
59.9619
58.8286
57.4698
56.1158
54.767
53.4237
52.0865
50.7558
49.4378
48.1628
46.9385
45.769
44.6587
43.612
42.6336
41.7284
40.9011
40.1567
39.4997
38.9346
38.4655
35.5017
34.533
33.6269
32.818
32.1137
31.5209
31.046
30.6946
30.4708
30.2749
30.0933
29.9208
29.7577
29.6039
29.4598
28.6651
28.427
28.2738
28.2504
28.3572
28.5911
28.8702
29.1492
29.4283
29.7073
29.9864
30.2654
30.5598
30.9592
31.4811
32.1194
32.8674
33.6737
34.498
35.3391
36.1957
37.0669
37.9515
38.8605
39.8199
40.8084
41.824
42.8646
43.9285
45.0141
46.1198
47.2453
48.4158
49.6395
50.9124
52.2311
53.592
54.9922
56.4286
57.8986
58.5446
57.202
55.865
54.5341
53.2097
51.8922
50.5824
49.2807
48.0019
46.7734
45.5998
44.4852
43.4343
42.4518
41.5426
40.7116
39.9636
39.3034
38.7355
38.264
35.0961
34.1001
33.1822
32.3622
31.6477
31.046
30.5638
30.2067
29.9794
29.8213
29.6727
29.5338
29.4046
29.2853
29.176
27.9609
27.732
27.6124
27.6258
27.7722
28.0342
28.3133
28.5923
28.8714
29.1504
29.4312
29.7272
30.0426
30.4489
30.9794
31.6278
32.3681
33.1345
33.9212
34.7266
35.5495
36.3888
37.2449
38.1643
39.1609
40.1939
41.2521
42.3336
43.4367
44.5598
45.7014
46.8601
48.0427
49.2756
50.5577
51.8854
53.2552
54.6639
56.1088
57.5869
58.3124
56.9873
55.6687
54.3571
53.053
51.757
50.4696
49.1916
47.9242
46.6937
45.5179
44.4013
43.3484
42.3639
41.4528
40.6199
39.8702
39.2084
38.6391
38.1664
34.7724
33.7805
32.8536
32.0252
31.303
30.6946
30.2067
29.8454
29.6153
29.4865
29.3724
29.2683
29.1744
29.0907
29.0173
27.2566
27.0451
26.9607
27.0128
27.2005
27.4773
27.7564
28.0354
28.3223
28.6278
28.9514
29.2924
29.6503
30.0634
30.6006
31.2529
31.9524
32.676
33.4219
34.1887
34.975
35.7796
36.6275
37.562
38.5779
39.6537
40.7539
41.8754
43.0167
44.1762
45.3525
46.5443
47.7506
48.9908
50.2802
51.615
52.9918
54.4074
55.8589
57.3434
56.4034
55.0405
53.7176
52.4378
51.2032
50.0043
48.8398
47.7123
46.6244
45.579
44.5641
43.5501
42.5361
41.5121
40.4658
39.4194
38.3731
37.3267
36.2804
35.2369
34.2434
33.3207
32.4746
31.7115
31.0373
30.4581
29.9756
29.5266
29.094
28.6787
28.2816
27.9032
27.5445
27.2063
26.8891
26.594
26.3824
26.3218
26.4121
26.6414
26.9219
27.2183
27.534
27.8682
28.2202
28.5895
28.9754
29.3772
29.8076
30.3493
30.9725
31.6238
32.3014
33.0036
33.7288
34.4757
35.2513
36.1106
37.0582
38.0875
39.1911
40.3321
41.4924
42.6706
43.8652
45.0748
46.2983
47.5347
48.7866
50.0812
51.4212
52.8031
54.2236
55.6798
57.1691
56.0053
54.6326
53.2996
52.0095
50.7655
49.5712
48.428
47.3256
46.2643
45.2429
44.2055
43.1591
42.1128
41.0664
40.02
38.9737
37.9273
36.881
35.8346
34.8069
33.8448
32.9561
32.1469
31.4233
30.7912
30.2566
29.7975
29.3426
28.8877
28.4329
27.9888
27.5624
27.1545
26.7659
26.3975
26.0579
25.8419
25.78
25.8732
26.1198
26.446
26.7783
27.1106
27.5375
27.9358
28.3503
28.7803
29.225
29.6849
30.2287
30.7846
31.385
32.0138
32.6694
33.3503
34.0553
34.8292
35.6986
36.6569
37.6971
38.8128
39.9891
41.1867
42.4002
43.6282
44.8696
46.1232
47.3881
48.6634
49.9617
51.3048
52.6897
54.1132
55.5723
57.0644
55.6765
54.2954
52.9539
51.6552
50.4025
49.1994
48.0495
46.9524
45.8751
44.8107
43.7597
42.7134
41.667
40.6207
39.5743
38.528
37.4816
36.4352
35.3904
34.3909
33.4614
32.608
31.8367
31.1538
30.565
30.0759
29.6195
29.1646
28.7097
28.2547
27.7998
27.3449
26.8915
26.4531
26.0336
25.667
25.4478
25.3849
25.4795
25.7258
26.0306
26.3563
26.6886
27.0209
27.3531
27.6854
28.0177
28.3745
28.8541
29.4606
30.6908
31.2379
31.8155
32.422
33.0559
33.7371
34.5181
35.3952
36.3615
37.4099
38.5339
39.7269
40.96
42.2069
43.4666
44.7378
46.0197
47.3114
48.6121
49.9222
51.2663
52.6523
54.0767
55.5368
57.0298
55.418
54.0303
52.6821
51.3765
50.1169
48.9067
47.7498
46.6317
45.5247
44.4293
43.3462
42.2766
41.2214
40.1749
39.1286
38.0822
37.0359
35.9895
34.9577
33.9893
33.0936
32.2767
31.5446
30.9034
30.3589
29.9164
29.4415
28.9866
28.5316
28.0767
27.6218
27.1669
26.7119
26.257
25.8033
25.4282
25.2068
25.1433
25.2389
25.4604
25.7116
25.9857
26.2818
26.5994
26.9312
27.2635
27.5957
27.9657
28.4658
29.0938
30.6921
31.1839
31.7082
32.2633
32.8532
33.5355
34.3211
35.2031
36.1745
37.2282
38.3575
39.5559
40.8136
42.0919
43.381
44.6802
45.9884
47.305
48.6292
49.9605
51.306
52.6909
54.1143
55.5734
57.0655
55.2309
53.8384
52.4852
51.1746
49.9099
48.6946
47.5302
46.3855
45.2504
44.1254
43.0113
41.9092
40.8199
39.7444
38.684
37.6365
36.5901
35.5443
34.5388
33.6028
32.742
31.9628
31.2711
30.6728
30.1736
29.7783
29.2635
28.8086
28.3536
27.8987
27.4438
26.9888
26.5411
26.114
25.7088
25.2964
25.103
25.0557
25.1547
25.3256
25.5211
25.7405
25.9833
26.2489
26.5366
26.932
27.1748
27.5598
28.081
28.731
30.7883
31.2234
31.6104
32.0726
36.9172
37.0692
37.3261
37.6857
38.145
38.7006
39.3483
40.0836
40.902
41.7984
42.768
43.8059
44.9074
46.068
47.2845
48.5531
49.8698
51.2308
52.6328
54.0725
55.5468
55.1159
53.7204
52.3642
51.0505
49.7826
48.5641
47.3851
46.2152
45.0534
43.9005
42.7572
41.6242
40.5024
39.3928
38.2965
37.2145
36.1483
35.109
34.1343
33.2318
32.4072
31.6668
31.0166
30.4623
30.0093
29.5404
29.0855
28.6305
28.1756
27.7207
27.2658
26.8108
26.3559
25.901
25.4745
25.1789
25.0277
25.0235
25.1532
25.3074
25.4615
25.6248
25.8123
26.0236
26.2582
26.5505
26.7987
27.1923
27.7252
28.3895
30.8445
31.0631
31.4079
31.8749
36.6994
36.8376
37.0814
37.4288
37.8769
38.4222
39.0609
39.7899
40.6045
41.4998
42.4706
43.5119
44.6186
45.7862
47.01
48.2858
49.6096
50.9776
52.3863
53.8327
55.3136
55.0735
53.6768
52.3195
51.0046
49.7356
48.515
47.315
46.1215
44.935
43.756
42.5852
41.4233
40.271
39.1292
37.9988
36.8809
35.7767
34.7217
33.7526
32.8768
32.0896
31.3893
30.7816
30.2723
29.8663
29.3624
28.9075
28.4525
27.9976
27.5427
27.0877
26.6328
26.1779
25.723
25.3277
25.0735
24.9649
25.0039
25.1522
25.3063
25.4605
25.6146
25.7687
25.9266
26.1062
26.3156
26.566
26.963
27.5004
28.17
30.6347
30.8566
31.2056
31.6773
36.4864
36.6151
36.8522
37.1956
37.6425
38.1892
38.8315
39.5647
40.3839
41.284
42.2597
43.306
44.4179
45.5907
46.8196
48.1004
49.4292
50.802
52.2155
53.6665
55.1519
55.1037
53.7079
52.3514
51.0373
49.7691
48.5406
47.3201
46.1049
44.8956
43.6926
42.4964
41.3077
40.1271
38.9553
37.7931
36.6416
35.5086
34.4455
33.4684
32.585
31.8033
31.1308
30.5666
30.1032
29.7451
29.1844
28.7294
28.2745
27.8196
27.3647
26.9097
26.4548
25.9999
25.5482
25.1927
24.9803
24.9147
24.997
25.1511
25.3052
25.4594
25.6135
25.7677
25.9218
26.076
26.2318
26.483
26.8813
27.4202
28.0916
30.425
30.6503
31.0034
31.48
36.3511
36.4802
36.7182
37.0629
37.5114
38.06
38.7044
39.44
40.2617
41.1644
42.1429
43.1921
44.3069
45.4824
46.7142
47.9979
49.3294
50.7049
52.1211
53.5746
55.0624
55.2066
53.8134
52.4596
51.1483
49.8828
48.6395
47.4004
46.1656
44.9355
43.7107
42.4914
41.2782
40.0716
38.8723
37.681
36.4984
35.352
34.284
33.3022
32.4143
31.6284
30.9521
30.3928
29.957
29.6459
29.0063
28.5514
28.0965
27.6416
27.1866
26.7317
26.2768
25.8219
25.3844
25.0697
24.8996
24.8772
24.9959
25.15
25.3042
25.4583
25.6125
25.7666
25.9208
26.0896
26.2893
26.5484
26.9483
27.4859
28.1408
30.2158
30.4444
30.8016
31.2831
36.3257
36.4549
36.6931
37.038
37.4868
38.0357
38.6806
39.4166
40.2388
41.142
42.1211
43.1707
44.286
45.4622
46.6945
47.9787
49.3107
50.6868
52.1034
53.5573
55.0457
55.3511
53.9761
52.6368
51.3359
50.0703
48.8113
47.5555
46.3031
45.0546
43.8101
42.57
41.3349
40.105
38.8809
37.6632
36.4563
35.3084
34.239
33.2558
32.3667
31.5796
30.9022
30.342
29.9055
29.5982
28.8427
28.3743
27.9185
27.4635
27.0086
26.5537
26.0988
25.6438
25.2321
24.9588
24.8314
24.8524
24.9948
25.149
25.3031
25.4572
25.6114
25.7762
25.9731
26.1784
26.3839
26.6664
27.0898
27.6475
28.294
30.0825
30.3121
30.6708
31.1543
36.4105
36.5394
36.7771
37.1212
37.569
38.1167
38.7602
39.4947
40.3154
41.2169
42.1942
43.2421
44.3556
45.53
46.7605
48.0429
49.3732
50.7476
52.1625
53.6149
55.1017
55.5077
54.1531
52.835
51.5563
50.2953
49.0343
47.7732
46.5122
45.2512
43.9903
42.732
41.4774
40.2269
38.9809
37.7398
36.5239
35.3781
34.3109
33.3298
32.4427
31.6575
30.9818
30.4231
29.9878
29.6813
28.7857
28.2733
27.7762
27.295
26.8306
26.3757
25.9207
25.4662
25.0916
24.8601
24.7759
24.8404
24.9937
25.1479
25.302
25.4634
25.6569
25.8622
26.0676
26.2729
26.4814
26.7884
27.235
27.8145
28.4637
30.082
30.3117
30.6704
31.1539
36.5962
36.7261
36.9639
37.3076
37.7542
38.3002
38.9413
39.6731
40.4905
41.3885
42.3619
43.4058
44.5152
45.6854
46.9119
48.1903
49.5166
50.8871
52.2983
53.747
55.2302
55.676
54.342
53.0455
51.7813
50.5203
49.2593
47.9983
46.7372
45.4762
44.2152
42.9542
41.6931
40.4321
39.1711
37.9121
36.7006
35.5605
34.499
33.5234
32.6416
31.8612
31.19
30.635
30.2028
29.8985
28.8523
28.2982
27.7577
27.2315
26.7206
26.2258
25.7481
25.2969
24.963
24.7739
24.7331
24.8385
24.9927
25.1512
25.3406
25.546
25.7513
25.9567
26.162
26.3674
26.5832
26.9145
27.3841
27.9841
28.6334
30.2145
30.4431
30.8004
31.2819
36.802
36.9353
37.1758
37.5216
37.9697
38.5166
39.1581
39.8897
40.7065
41.6035
42.5756
43.6178
44.7252
45.8931
47.117
48.3926
49.716
51.0834
52.4914
53.9369
55.4168
55.8561
54.5428
53.2674
52.0064
50.7454
49.4843
48.2233
46.9623
45.7012
44.4402
43.1792
41.9182
40.6571
39.3961
38.1523
36.967
35.8478
34.8009
33.8345
32.9609
32.1883
31.5241
30.9751
30.2608
29.6459
29.0416
28.4485
27.8673
27.2987
26.7437
26.2029
25.6774
25.2036
24.8774
24.7096
24.7033
24.8397
25.0245
25.2298
25.4351
25.6405
25.8458
26.0512
26.2565
26.4763
26.6893
27.0446
27.5368
28.1538
28.8032
30.439
30.6776
31.0416
31.5267
32.1274
32.8374
33.6497
34.5578
35.5555
36.6355
37.7813
38.9648
40.1542
41.3436
42.533
43.7224
44.9118
46.1014
47.3231
48.5965
49.9175
51.2825
52.6881
54.1311
55.6086
56.0478
54.7554
53.4924
52.2314
50.9704
49.7094
48.4483
47.1873
45.9263
44.6653
43.4042
42.1432
40.8822
39.6239
38.4092
37.256
36.1703
35.1584
34.2266
33.3819
32.6308
31.9802
31.4392
30.6376
29.9899
29.3513
28.7222
28.1034
27.4956
26.8994
26.3157
25.7459
25.2687
24.9434
24.776
24.7697
24.9188
25.1189
25.3242
25.5296
25.7349
25.9403
26.1456
26.351
26.5618
26.7996
27.1787
27.6932
28.3235
28.9729
30.6684
30.9213
31.2984
31.7952
32.4063
33.1253
33.9453
34.8594
35.8601
36.9372
38.0402
39.1823
40.3627
41.5521
42.7415
43.9309
45.1203
46.3097
47.5293
48.8004
50.1191
51.4817
52.8849
54.3255
55.8006
56.251
54.9785
53.7175
52.4565
51.1954
49.9344
48.6734
47.4123
46.1513
44.8903
43.6293
42.3682
41.1072
39.8661
38.682
37.561
36.5088
35.5315
34.6355
33.8273
33.1133
32.4997
31.9922
31.1117
30.4446
29.7775
29.1159
28.463
27.8193
27.1855
26.5623
25.9644
25.4912
25.1688
25.0029
24.9967
25.1251
25.2801
25.4493
25.6326
25.8295
26.0348
26.2401
26.4455
26.6516
26.914
27.3166
27.8531
28.4932
29.1426
30.8994
31.1664
31.5564
32.0647
32.686
33.4139
34.2416
35.162
36.1682
37.2484
38.3443
39.4457
40.5839
41.7606
42.95
44.1394
45.3288
46.5182
47.7356
49.0044
50.3208
51.6811
53.0819
54.52
55.9927
56.4656
55.2035
53.9425
52.6815
51.4205
50.1594
48.8984
47.6374
46.3763
45.1153
43.8543
42.5933
41.3363
40.1239
38.9705
37.8815
36.8626
35.9198
35.0592
34.2869
33.6092
33.0317
32.5599
31.6002
30.933
30.2658
29.5986
28.9315
28.2643
27.598
26.9392
26.3336
25.8672
25.5495
25.3861
25.38
25.4742
25.5839
25.7083
25.847
25.9998
26.1666
26.3471
26.5409
26.748
27.0326
27.4583
28.0166
28.663
29.3292
31.1322
31.4131
31.8156
32.3353
32.9665
33.7031
34.5383
35.4651
36.4765
37.5595
38.6554
39.7513
40.8515
41.9861
43.1585
44.3479
45.5373
46.7267
47.942
49.2086
50.5227
51.8806
53.279
54.7148
56.1851
56.6896
55.4286
54.1675
52.9065
51.6455
50.3845
49.1234
47.8624
46.6014
45.3404
44.0793
42.8183
41.58
40.397
39.2743
38.2173
37.2315
36.3228
35.497
34.7601
34.1179
33.5757
33.1385
32.0886
31.4214
30.7542
30.087
29.4199
28.7527
28.0855
27.4207
26.84
26.3897
26.0787
25.9187
25.9098
25.9603
26.0256
26.1055
26.2
26.3089
26.432
26.5691
26.72
26.893
27.185
27.6194
28.1895
28.8688
29.5909
31.3666
31.6611
32.076
32.6068
33.2479
33.993
34.8355
35.7685
36.7851
37.8706
38.9665
40.0625
41.1584
42.2574
43.3886
44.5566
45.7458
46.9352
48.1485
49.4129
50.7247
52.0802
53.4763
54.9097
56.3776
56.9146
55.6536
54.3926
53.1315
51.8705
50.6095
49.3485
48.0874
46.8264
45.5654
44.3044
43.049
41.8387
40.6851
39.593
38.5678
37.6149
36.7399
35.9485
35.2464
34.6389
34.1311
33.7275
32.577
31.9098
31.2426
30.5755
29.9083
29.2411
28.5739
27.9256
27.3882
26.98
26.707
26.5733
26.5647
26.5759
26.5981
26.6349
26.6862
26.7518
26.8318
26.9258
27.0339
27.185
27.4739
27.9038
28.4682
29.1539
29.8762
31.6026
31.9105
32.3377
32.8794
33.5301
34.2836
35.1333
36.0724
37.0941
38.1817
39.2777
40.3736
41.4695
42.5655
43.6636
44.7916
45.9554
47.1437
48.355
49.6173
50.9268
52.28
53.6737
55.1047
56.5703
57.1521
55.8819
54.6176
53.3597
52.1086
50.8649
49.629
48.4016
47.1834
45.975
44.7774
43.6058
42.4951
41.4513
40.4796
39.5854
38.774
38.0506
37.4204
36.8882
36.4582
36.1342
35.9189
33.0654
32.3982
31.731
31.0639
30.3967
29.7295
29.0623
28.4456
27.9501
27.5825
27.3481
27.2503
27.2551
27.2656
27.2761
27.2866
27.2984
27.3222
27.3601
27.4121
27.4781
27.6194
27.9038
28.3271
28.8832
29.5471
30.2331
31.8426
32.1616
32.6006
33.1548
33.8186
34.5856
35.4492
36.4024
37.4385
38.5307
39.6254
40.7202
41.8151
42.91
44.005
45.1
46.2021
47.3553
48.5636
49.823
51.1297
52.4803
53.8714
55.3
56.7632
57.4408
56.1535
54.8714
53.5947
52.324
51.0596
49.802
48.5517
47.3093
46.0756
44.8552
43.6846
42.5759
41.5342
40.5645
39.6722
38.8626
38.1409
37.5122
36.9813
36.5525
36.2293
36.0145
33.5538
32.8866
32.2194
31.5523
30.8851
30.2179
29.5556
28.9799
28.5249
28.1964
27.9989
27.9353
27.9456
27.9561
27.9665
27.977
27.9875
27.998
28.0084
28.0211
28.0511
28.1895
28.4682
28.8832
29.4289
30.0618
30.7098
32.1665
32.4823
32.9171
33.466
34.1238
34.8841
35.7404
36.6861
37.7144
38.8049
39.9008
40.9967
42.0926
43.1886
44.2845
45.3804
46.4802
47.6266
48.8282
50.0809
51.3811
52.7253
54.1101
55.5325
56.9897
57.7828
56.4799
55.1813
53.8874
52.5986
51.3151
50.0375
48.7661
47.5015
46.2443
45.0209
43.8547
42.7505
41.7131
40.7477
39.8595
39.0537
38.3356
37.7102
37.1821
36.7556
36.4342
36.2207
34.0422
33.375
32.7078
32.0407
31.3735
30.7063
30.0633
29.5276
29.1118
28.8209
28.6589
28.6255
28.636
28.6465
28.657
28.6674
28.6779
28.6884
28.6989
28.7093
28.7386
28.8845
29.1593
29.5647
30.0976
30.6918
31.3008
32.6102
32.9218
33.3508
33.8928
34.5424
35.2937
36.1403
37.0758
38.0935
39.1784
40.2728
41.3672
42.4618
43.5564
44.6511
45.7458
46.8422
47.98
49.1729
50.4171
51.7089
53.0447
54.4214
55.8359
57.2854
58.177
56.8599
55.5464
54.2368
52.9314
51.6306
50.3347
49.044
47.7591
46.4913
45.2746
44.1151
43.0175
41.9867
41.0278
40.1457
39.3458
38.6332
38.0127
37.4889
37.0659
36.7472
36.5355
34.5306
33.8634
33.1962
32.5291
31.8619
31.1948
30.5849
30.0882
29.7101
29.4554
29.3272
29.316
29.3265
29.3369
29.3474
29.3579
29.3683
29.3788
29.3893
29.3998
29.4482
29.6207
29.9183
30.3375
30.869
31.4303
31.9998
33.169
33.4754
33.8974
34.4308
35.0704
35.8106
36.6453
37.5682
38.573
39.6485
40.7388
41.8294
42.9202
44.0113
45.1026
46.1942
47.2863
48.4136
49.5961
50.8299
52.1114
53.4372
54.804
56.2089
57.649
59.6464
58.0866
56.5535
55.0505
53.5801
52.1451
50.7485