<VTKFile type="ImageData" version="1.0" byte_order="LittleEndian" header_type="UInt64">
	<ImageData WholeExtent="0 44 0 44 0 44" Origin="-72.1329 -72.1329 -72.1329" Spacing="3.27877 3.27877 3.27877">
		<Piece Extent="0 44 0 44 0 44">
			<PointData Scalars="Scalars_">
				<DataArray type="Float32" Name="Scalars_" format="ascii" RangeMin="0" RangeMax="100">
0.506966
0.408447
0.31855
0.237968
0.16748
0.107948
0.0540695
0.00310516
0
0
0
0
0
0
0
0
0
0
0
0
0
0
0
0
0
0
0
0.201393
0.0203972
0
3.8147e-06
0
3.8147e-06
0
0
0
0
0
0
0
0
0
0
0
0
0.872299
0.745247
0.62542
0.513451
0.410004
0.315231
0.203217
0.0766716
0.00810242
0
0
0
0
0
0
0
0
0
0
0
0
0
3.8147e-06
0
0
0
0
0.207249
0.0202293
0
0
0
3.8147e-06
0
0
0
0
0
0
0
0
0
0
0
0
1.34704
1.19328
1.0454
0.9039
0.769363
0.629364
0.455261
0.254246
0.101196
0.015934
0
0
0
0
0
0
0
0
0
3.8147e-06
0
3.8147e-06
0
0
0
0
0
0.202343
0.0200806
0
0
0
0
3.8147e-06
0
0
0
0
0
0
0
0
0
0
0
1.93744
1.75924
1.5856
1.41692
1.25014
1.05386
0.817898
0.544167
0.305462
0.130775
0.0270767
0
0
0
0
0
0
0
3.8147e-06
0
0
0
3.8147e-06
0
0
0
0
0.139404
0.00499725
0
0
0
0
0
0
0
0
0
0
0
0
0
0
0
0
2.64965
2.44969
2.25306
2.06004
1.84842
1.59591
1.29879
0.954758
0.629776
0.364464
0.166039
0.0420303
0
0
0.00259399
0.0121803
0.029068
0.0533066
0.0622597
0.0118752
0
0
0
0
0
0
0
0.0725288
0
0
0
0
0
0
0
0
0
0
0
0
0
0
0
0
0
3.48966
3.27106
3.05468
2.83177
2.56981
2.26238
1.9053
1.49405
1.08279
0.726261
0.431881
0.20752
0.0676727
0.0715141
0.108894
0.154602
0.208443
0.269913
0.266071
0.142475
0.0545425
0.00796127
0
0
3.8147e-06
0
0
0.0255203
0
3.8147e-06
0
0
3.8147e-06
0
3.8147e-06
0
0
0
0
0
0
0
0
0.000221252
0.0161285
4.45684
4.22941
3.99549
3.73079
3.42028
3.05965
2.64421
2.16882
1.6726
1.22495
0.834053
0.508469
0.313496
0.303116
0.381802
0.469791
0.566231
0.669834
0.626083
0.430885
0.260395
0.132172
0.0467911
0.00471115
3.8147e-06
0
0
0.0019722
0
0
0
0
0
0
0
0
0
0
0
0
0
0.0019455
0.0256615
0.0743866
0.145828
5.52503
5.33036
5.06888
4.76198
4.40504
3.99327
3.52147
2.98397
2.40634
1.86832
1.38105
0.985252
0.757965
0.718067
0.835659
0.973301
1.11906
1.27058
1.15844
0.894695
0.636662
0.421288
0.249451
0.121922
0.0393486
0.00222397
0
0
0
0
0
0
3.8147e-06
0
0
0
0
0
0
0.00574875
0.0386505
0.0981407
0.181583
0.28664
0.41127
6.67407
6.53177
6.27596
5.92937
5.52832
5.06772
4.54186
3.9445
3.28976
2.66269
2.09395
1.66872
1.4147
1.34983
1.48343
1.67931
1.88227
2.08843
1.87899
1.55175
1.20198
0.894615
0.630859
0.411827
0.238503
0.111755
0.0322723
0
0
0
0
0
3.8147e-06
0
0
3.8147e-06
0
0.01231
0.0561485
0.128342
0.225792
0.345806
0.486046
0.644451
0.819229
7.85078
7.76224
7.56047
7.23359
6.79313
6.28612
5.70862
5.05389
4.32672
3.61572
3.0156
2.56955
2.29542
2.21172
2.33697
2.59957
2.86874
3.13728
2.80246
2.41929
1.97481
1.5717
1.21149
0.895668
0.625599
0.398979
0.160473
0.00518036
0
0
0
0
0
0
0
0.000831604
0.0686264
0.167034
0.281033
0.418514
0.576794
0.75354
0.946758
1.15472
1.37591
9.04498
9.01342
8.86951
8.6008
8.19385
7.64994
7.02322
6.31358
5.51887
4.76839
4.1551
3.69601
3.40924
3.3137
3.42828
3.74228
4.08775
4.42743
3.94139
3.513
2.9724
2.47131
2.01157
1.59496
1.20494
0.782703
0.338955
0.0605774
0
0
0
3.8147e-06
0
0
3.43323e-05
0.0654793
0.245216
0.467003
0.680328
0.886353
1.10056
1.32923
1.57072
1.82365
2.08681
0
0
0
0
0
0
0.008358
0.0977707
0.316364
0.747055
1.40706
0
0
0
0
0
0
0
0
0
0
3.6103
3.04976
2.48402
1.87338
1.22041
0.591812
0.18174
0.00710678
0
3.8147e-06
3.8147e-06
3.8147e-06
0
0.0576248
0.238281
0.525749
0.869663
1.1962
1.50543
1.79911
2.07973
2.36393
2.65652
2.95657
0
0
0
0
0
0
0
0.0123482
0.18766
0.585793
1.22102
0
0
0
0
0
0
0
0
0
0
0
0
0
0
0
0
0
0.0500374
0
0
0
0
0
7.43917
6.01231
4.74957
3.65049
2.7115
1.92654
1.2877
0.785809
0.411026
0.154968
0.0228462
0
0
0
0
0
0
0
0.00993347
0.179947
0.573757
1.20649
0
0
0
0
0
0
0
0
0
0
0
0
0
0
0
0
0
0.0308228
0
0
0
0
0
6.7518
5.39806
4.20723
3.17933
2.31102
1.59624
1.0269
0.593578
0.286129
0.0941544
0.00739288
0
0
0
0
0
0
0
0.00767517
0.17371
0.570515
1.21475
0
0
0
0
0
0
0
0
0
0
0
0
0
0
0
0
0
0.0158501
0
0
0
0
0
5.96048
4.64841
3.5373
2.58844
1.79993
1.16772
0.683231
0.336411
0.116394
0.0121346
0
0
0
0
0
0
0
0
0.00563049
0.166504
0.563969
1.21607
0
0
0
0
0
0
0
0
0
0
0
0
0
0
0
0
0
0.00561142
0
0
0
0
0
5.19651
3.88176
2.80927
1.96285
1.28542
0.762009
0.383499
0.139359
0.0183067
0
0
0
0
0
0
0
0
0
0.00384521
0.15831
0.553711
1.20919
0
0
0
0
0
0
0
0
0
0
0
0
0
0
0
0
0
0.000509262
0
0
0
0
0
4.6209
3.31294
2.2539
1.43531
0.845173
0.434601
0.165249
0.0261307
0
0
0
0
0
0
0
0
0
0
0.00236511
0.14917
0.539505
1.19323
0
0
0
0
0
0
0
0
0
0
0
0
0
0
0
0
0
0
0
0
0
0
0
4.27069
2.96856
1.921
1.11898
0.549831
0.198296
0.0357285
0
0
0
0
0
0
0
0
0
0
0
0
0
0
0
0
0
0
0
0
0
0
0
0
0
0
0
0
0
0
0
0
0
0
0
0
0
0
4.16224
2.86468
1.82613
1.03707
0.484219
0.151569
0.0116196
0
0
0
0
0
0
0
0
3.8147e-06
0
0
0
0
0
0
0
0
0
0
0
0
0
0
0
0
0
0
0
0
0
0
0
0
0
0
0
0
0
4.3089
3.01443
1.98196
1.19971
0.629387
0.249939
0.0465622
0
0
0
0
0
0
0
0
0
0
0
0
0
0
0
0
0
0
0
0
0
0
0
0
0
0
0
0
0
0
0
0
0
0
0
0
0
0
4.71999
3.4122
2.33162
1.47229
0.824055
0.373474
0.105015
0.0022049
0
0
0
0
0
0
0
0
0
0
0
0
0
0
0
0
0
0
0
0
0
0
0
0
0
0
0
0
0
0
0
0
0
0
0
0
0
0
0
0
0
0
0
0
0
0
0
0
0
0
0
0
0
0
0
0
0
0
0
0
0
0
0
0
0
0
0
0
0
0
0
0
0
0
0
0
0
0
0
0
0
0
0
0
0
0
0
0
0
0
0
0
0
0
3.8147e-06
0
0
0
0
0
0
0
0
0
0
0
0
0
0
0
0
0
0
0
0
0
0
0
0
0
0
0
0
0
0
0
0
0
0
0
0
0
0
0
0
0
0
0
0
0
0
0
0
0
0
0
0
0
0
0
0
0
0
0
0
0
0
0
0
0
0
0
0
0
0
0
0
0
0
0
0
0
0
0
0
0
0
0
0
0
0
0
0
0
0
0
0
0
0
0
0
0
0
0
0
0
0
0
0
0
0
0
0
0
0
0
0
0
0
0
0
0
1.90735e-06
0
0
0
0
0
0
0
0
0
0
0
0
0
0
0
0
0
0
0
0
0
0
0
0
0
0
0
0
0
0
0
0
0
0
0
0
0
0
0
0
0
0
0
0
0
0
0
0
0
0
0
0
0
0
0
0
0
0
0
0
0.201393
0.167019
0.1348
0.105007
0.0779724
0.0540848
0.0337753
0.0176125
0.0062561
0.000518799
0
0
0
0
0
0
0
0
0
0
0
0
0
0
0
0
0
0
1.90735e-06
0
0
0
0
0
0
0
0
0
0
0
0
0
0
0
0
0.0203972
0.0093956
0.00242615
0
0
0
3.8147e-06
3.8147e-06
0
0
0
0
0
0
0
0
0
0
0
0
0
0
0
0
0
0
0
0
0
0
0
0
0
0
0
0
0
0
0
0
0
0
0
0
0
0
0
0
0
0
3.8147e-06
0
0
0
0
0
0
0
0
0
0
0
0
0
0
0
0
0
0
0
0
0
0
0
0
0
0
0
0
0
0
0
0
0
0
0
0
0
0
0
0
0
0
0
0
0
0
3.8147e-06
0
0
0
0
0
0
0
0
0
0
0
0
0
0
0
0
0
0
0
0
0
0
0
0
0
1.87025
1.25429
0.768127
0.407845
0.166264
0.0340843
0
9.53674e-05
0.0106735
0.0372086
0.0776634
0.130173
3.8147e-06
0
0
0
0
0
0
0
0
0
0
0
0
0
0
0
0
0
0
0
0
0
0
0
0
0
0
0
0
0
0
0
0
1.26986
0.785152
0.421417
0.174423
0.0371246
0
0
0
0
0
0
0.00445938
3.8147e-06
0
0
0
0
0
3.8147e-06
0
0
0
0
0
0
0
0
0
0
0
0
0
0
0
0
0
0
0
0
0
0
0
0
0
0
0.83374
0.429817
0.180767
0.0399361
0
0
0
0
0
0
0
0
0
0
0
0
0
0
0
0
0
0
0
0
0
0
0
0
0
0
0
0
0
0
0
0
0
0
0
0
0
0
0
0
0
0.637619
0.220692
0.0423889
0
0
0
0
0
0
0
0
0
0
0
0
0
0
0
0
0
0
0
0
0
0
0
0
0
0
0
0
0
0
0
0
0
0
0
0
0
0
0
0
0
0
0.665108
0.229343
0.0254021
0
0
0
0
0
0
0
0
0
0
0
0
0
0
0
0
0
0
0
0
0
0
0
0.000175476
0
0
0
0
0
0
0
0
0
0
0
0
0
0
0
0
0
0
0.878437
0.381638
0.0922585
0
0
0
0
0
0
0
0
0
0
0
0
0
0
0
0
0
0
0
0
0
0
0
0.00928497
0
0
0
0
0
0
0
0
0
0
0
0
0
0
0
0
0
0
1.14031
0.566669
0.19611
0.0193291
0
0
0
0
0
0
0
0
0
0
0
0
0
0
0
0
0
0
0
0
0
0
0.031002
0
0
0
0
0
0
0
0
0
0
0
0
0
0
0
0
0
0
1.42164
0.777927
0.332371
0.0765877
0
0
0
0
0
0
0
0
0
0
0
0
0
0
0
0
0
0
0
0
0
0
0.0638313
0
0
0
0
0
0
0
0
0
0
0
0
0
0
0
0
0
0
1.71828
1.01104
0.496624
0.167496
0.0143509
0
0
0
0
0
0
0
0
0
0
0
0
0
0
0
0
0
0
0
0
0
0.106518
0
0
0
0
0
0
0
0
0
0
0
0
0
0
0
0
0
0
2.02675
1.26218
0.684814
0.28791
0.0630951
0
0
0
0
0
0
0
0
0
0
0
0
0
0
0
0
0
0
0
0
0.00580215
0.157955
0
0
0
0
0
0
0
0
0
0
0
0
0
0
0
0
0
0
2.34232
1.52805
0.89333
0.434013
0.142586
0.0104065
0
0
0
0
0
0
0
0
0
0
0
0
0
0
0
0
0
0
0
0.0203972
0.20359
0
0
0
0
0
0
0
0
0
0
0
0
0
0
0
0
0
0
2.59989
1.76119
1.09301
0.589939
0.245323
0.0515671
0
0
0
0
0
0
0
0
0
0
0
0
0
0
0
0
0
0
0
0.0136414
0.178493
0
0
0
0
0
0
0
0
0
0
0
0
0
0
0
0
0
0
2.77555
1.91612
1.22163
0.687069
0.309059
0.0828972
0.00063324
0
0
0
0
0
0
0
0
0
0
0
0
0
0
0
0
0
0
0.00834656
0.15303
0
0
0
0
0
0
0
0
0
0
0
0
0
0
0
0
0
0
2.87886
2.00702
1.29995
0.752651
0.359142
0.112663
0.00592041
0
0
0
0
0
0
0
0
0
0
0
0
0
0
0
0
0
0
0.00445557
0.130173
0
0
0
0
0
0
0
0
0
0
0
0
0
0
0
0
0.00739288
0.0228539
2.95658
2.08681
1.3759
0.819229
0.41127
0.145821
0.0161362
0
0
0
0
0
0.346466
0.263412
0.190056
0.12719
0.0757446
0.0366821
0.0111237
0.000278473
0
0
0
0
0
0
0
0
0
0
0
0
3.8147e-06
0
0
0
0
0
0
0.167015
0.0093956
0
0
0
3.8147e-06
0
0
0
0
0
0
0
0
0
0
0
0
0.659859
0.546364
0.441086
0.344734
0.258102
0.182076
0.117645
0.059082
0.00340271
0
0
0
0
0
0
0
0
0
0
0
0
0
0
0
3.8147e-06
0
0
0.171833
0.00908279
3.8147e-06
0
0
3.8147e-06
0
0
0
0
0
0
0
0
0
0
0
0
1.08367
0.941528
0.806107
0.678009
0.557953
0.446663
0.344326
0.222591
0.0842209
0.00892639
0
0
0
0
0
0
0
0
0
3.8147e-06
0
0
0
0
0
0
0
0.17717
0.0087738
0
0
0
0
3.8147e-06
0
0
0
0
0
0
0
0
0
0
0
1.62464
1.45607
1.29278
1.13526
0.98407
0.839836
0.68895
0.499813
0.279968
0.111755
0.0176468
0
0
0
0
0
0
0
0
0
0
0
3.8147e-06
0
0
3.8147e-06
3.8147e-06
0.180534
0.008461
3.8147e-06
0
0
0
0
0
0
0
0
0
0
0
0
0
0
0
2.28944
2.09715
1.90878
1.72469
1.54531
1.36727
1.15599
0.899902
0.600613
0.338184
0.145206
0.0301437
0
0
0
0
0
0.00197983
0.00669479
7.62939e-06
3.8147e-06
3.8147e-06
0
0
0
0
0
0.130505
0.00186157
0
0
0
0
0
0
0
0
0
0
0
0
0
0
0
0
3.08398
2.87179
2.66163
2.45442
2.25041
2.02516
1.75385
1.43187
1.05602
0.698814
0.405636
0.185295
0.0470085
0.00720596
0.0216904
0.0444374
0.0756111
0.115086
0.126316
0.0440254
0.00370789
7.62939e-06
0
0
0
0
0
0.0634003
0
0
3.8147e-06
0
0
0
0
0
0
0
0
0
0
0
0
0
0.00592041
3.98774
3.78667
3.55859
3.33228
3.09806
2.81997
2.49043
2.10419
1.65556
1.20384
0.809967
0.482994
0.234428
0.143677
0.195007
0.259983
0.334286
0.416965
0.406902
0.245445
0.118195
0.0367165
0.00151825
0
0
0
0
0.0184669
0
0
0
0
0
0
0
0
0
0
0
0
0
0
0.0118065
0.0501595
0.112663
4.98965
4.84118
4.60637
4.3639
4.08688
3.7583
3.37281
2.9245
2.4069
1.8625
1.36831
0.93425
0.614571
0.487637
0.555676
0.671127
0.796154
0.928581
0.867363
0.628864
0.408401
0.234505
0.108059
0.0297928
0.000259399
3.8147e-06
3.8147e-06
0.000175476
0
0
0
0
0
0
0
0
0
0
0
0.00037384
0.0205917
0.0693283
0.143661
0.241016
0.359135
6.09095
6.00645
5.81104
5.54189
5.22198
4.84561
4.40682
3.89906
3.31514
2.68246
2.08917
1.56992
1.21777
1.06054
1.11932
1.2951
1.47993
1.66992
1.52674
1.21551
0.896378
0.623825
0.39917
0.223564
0.0980072
0.0233116
3.8147e-06
0
0
0
0
0
0
0
0
0
0
0.00274277
0.0331993
0.0942802
0.182522
0.29491
0.428852
0.582088
0.752651
7.2813
7.25969
7.12579
6.86696
6.50723
6.08593
5.5967
5.03234
4.38501
3.6692
2.98549
2.43443
2.05804
1.87779
1.91568
2.1465
2.40174
2.65841
2.403
2.02631
1.60441
1.22817
0.899307
0.619469
0.390141
0.212631
0.082325
0
0
0
0
0
0
0
3.8147e-06
0.00797653
0.0509872
0.12698
0.231781
0.361874
0.514236
0.686287
0.875824
1.08092
1.29995
8.50095
8.54124
8.47064
8.27584
7.94233
7.48149
6.94468
6.32661
5.61878
4.82568
4.10471
3.53807
3.14637
2.95158
2.97621
3.23576
3.57344
3.90724
3.51172
3.08052
2.55372
2.07055
1.63315
1.2436
0.903898
0.591808
0.246122
0.0210533
0
0
0
0
3.8147e-06
0
0.00956345
0.124054
0.286804
0.446392
0.620396
0.814278
1.02555
1.25212
1.49221
1.74427
2.00702
0
0
0
0
0
0
0.0173988
0.129787
0.354164
0.733795
1.35325
0
0
0
0
0
0
0
0
0
0
3.17192
2.62396
2.12103
1.6095
1.05223
0.478653
0.110582
0
1.90735e-06
0
0
0
0.00571442
0.116371
0.352364
0.651928
0.935844
1.20467
1.46145
1.72512
1.99994
2.28456
2.57786
2.87886
0
0
0
0
0
0
0
0.00943756
0.125973
0.464157
1.05353
0
0
0
0
0
0
0
0
0
0
0
0
0
0
0
0
0
0.0245304
1.90735e-06
0
0
0
0
7.1554
5.69362
4.41158
3.30762
2.37647
1.61014
0.998638
0.533192
0.219177
0.0462456
0
0
0
0
0
0
0
0
0
0.07938
0.390656
0.95483
0
0
0
0
0
0
0
0
0
0
0
0
0
0
0
0
0
0.0142155
0
0
0
0
0
6.5668
5.17844
3.96858
2.93619
2.07624
1.38067
0.839268
0.440548
0.17247
0.0264587
0
0
0
0
0
0
0
0
0
0.0741882
0.386684
0.962334
0
0
0
0
0
0
0
0
0
0
0
0
0
0
0
0
0
0.00438309
0
0
0
0
0
5.82893
4.52232
3.394
2.44231
1.6624
1.0461
0.582874
0.261295
0.0714607
0.0010376
0
0
0
0
0
0
0
0
0
0.0685844
0.380157
0.963696
0
0
0
0
0
0
0
0
0
0
0
0
0
0
0
0
0
0.000135422
0
3.8147e-06
0
0
0
5.03287
3.73565
2.69243
1.8431
1.16816
0.65871
0.303341
0.0892563
0.00311279
0
0
0
0
0
0
0
0
0
0
0.0626183
0.370739
0.957584
0
0
0
0
0
0
0
0
0
0
0
0
0
0
0
0
0
0
0
0
0
0
0
4.36574
3.07698
2.05574
1.29154
0.7397
0.34988
0.10994
0.00651932
0
0
0
0
0
0
0
0
0
0
0
0.056366
0.358246
0.943012
0
0
0
0
0
0
0
0
0
0
0
0
0
0
0
0
0
0
0
0
0
0
0
3.9367
2.65527
1.64843
0.904842
0.408836
0.133503
0.0114441
0
0
0
0
0
0
0
0
0
0
0
0
0
0
0
0
0
0
0
0
0
0
0
0
0
0
0
0
0
0
0
0
0
0
0
0
0
0
3.76599
2.49038
1.49495
0.767658
0.291927
0.0480995
0
0
0
0
0
0
0
0
0
0
0
0
0
0
0
0
0
0
0
0
0
0
0
0
0
0
0
0
0
0
0
0
0
0
0
0
0
0
0
3.87046
2.59882
1.61115
0.893028
0.401157
0.110069
0.00167465
0
0
0
0
0
0
0
0
0
0
0
0
0
0
0
0
0
0
0
0
0
0
0
0
0
0
0
0
0
0
0
0
1.90735e-06
1.90735e-06
0
0
0
0
4.26202
2.97683
1.9385
1.13887
0.564754
0.199211
0.0231895
0
0
0
0
0
0
3.8147e-06
0
0
0
0
0
0
0
0
0
0
0
0
0
0
0
0
0
0
0
0
0
0
0
0
0
0
1.90735e-06
0
0
0
0
0
0
0
0
0
0
0
0
0
0
0
0
0
0
0
0
0
0
0
0
0
0
0
0
0
0
0
0
0
0
0
0
0
0
0
0
0
0
0
0
0
0
0
0
0
0
0
0
0
0
0
0
0
0
0
0
0
0
0
0
0
0
0
0
0
0
0
0
0
0
0
0
0
0
0
0
0
0
0
0
0
0
0
0
0
0
0
0
0
0
0
0
0
0
0
0
0
0
0
0
0
3.8147e-06
0
0
0
0
0
0
0
0
0
0
0
0
0
0
0
0
0
0
0
0
0
0
0
0
0
0
0
0
0
0
0
0
0
0
0
0
0
0
0
0
0
0
0
0
0
0
0
0
0
0
0
0
0
0
0
0
0
0
0
0
0
0
0
0
0
0
0
0
0
0
0
0
0
1.90735e-06
0
0
0
0
0
0
0
0
0
0
0
0
0
0
0
3.8147e-06
0
0
0
0
0
0
0
0
0
0
0
0
0
0
0
0
0
0
0
0
0
0
0
0
0
0
0
0
0
0
0
0
0
0
0
0
0
0
0
0
0
0
0
0
0.207245
0.171833
0.138599
0.107838
0.0798912
0.055172
0.0341835
0.0175247
0.00593948
0.000347137
0
0
0
0
0
0
0
0
0
0
0
0
0
0
0
0
0
0
0
0
0
0
0
0
0
0
0
0
0
0
0
0
0
0
0
0.0202293
0.00908661
0.00215149
0
0
0
0
0
3.8147e-06
0
3.8147e-06
0
0
0
0
0
0
0
0
0
0
0
0
0
0
0
0
0
0
0
0
0
0
0
0
0
0
0
0
0
0
0
0
0
0
0
0
3.8147e-06
0
0
0
3.8147e-06
0
3.8147e-06
0
3.8147e-06
0
0
0
0
0
0
0
0
0
0
0
0
0
0
0
0
0
0
0
0
0
0
0
0
0
0
0
0
0
0
0
0
0
0
0
0
0
0
0
0
0
0
0
3.8147e-06
0
0
0
0
0
0
0
0
0
0
0
0
0
0
0
0
0
0
0
0
0
0
0
1.50666
0.941532
0.516064
0.224174
0.0561218
9.15527e-05
0
0.00127792
0.0171661
0.0492325
0.0951881
0.15303
0
0
0
3.8147e-06
0
0
0
0
0
0
0
0
0
0
0
0
0
0
0
0
0
0
0
0
0
0
0
0
0
0
0
0
0
0.955505
0.530155
0.233879
0.0603752
0.000247955
0
0
0
0
0
7.62939e-06
0.00834274
0
0
0
0
0
0
0
0
0
0
0
0
0
0
0
0
0
0
0
0
0
0
0
0
0
0
0
0
0
0
0
0
0
0.591415
0.240326
0.064003
0.000484467
0
0
0
0
0
0
0
0
0
0
0
0
0
0
0
0
0
0
0
0
0
0
0
0
0
0
0
0
0
0
0
0
0
0
0
0
0
0
0
0
0
0.484478
0.114132
0.000789642
0
0
0
0
0
0
0
0
0
3.8147e-06
0
0
0
0
0
0
0
0
0
0
0
0
0
0
0
0
0
0
0
0
0
0
0
0
0
0
0
0
0
0
0
0
0.611782
0.199913
0.0141182
0
0
0
0
0
0
0
0
0
0
0
0
0
0
0
0
0
0
0
0
0
0
0
0
0
0
0
0
0
0
0
0
0
0
0
0
0
0
0
0
0
0
0.850574
0.35046
0.0718651
0
0
0
0
0
0
0
0
0
0
0
0
0
0
0
0
0
0
0
0
0
0
0
0.00456238
0
0
0
0
0
0
0
0
0
0
0
0
0
0
0
0
0
0
1.11386
0.53347
0.169182
0.00984573
0
0
0
0
0
0
0
0
0
0
0
0
0
0
0
0
0
0
0
0
0
0
0.0226212
0
0
0
0
0
0
0
0
0
0
0
0
0
0
0
0
0
0
1.39639
0.74353
0.300747
0.0580902
0
0
0
0
0
0
0
0
0
0
0
0
0
0
0
0
0
0
0
0
0
0
0.0528069
0
0
0
0
0
0
0
0
0
0
0
0
0
0
0
0
0
0
1.69371
0.97583
0.461559
0.142063
0.00658417
0
0
0
0
0
0
0
0
0
0
0
0
0
0
0
0
0
0
0
0
0
0.0936432
0
0
0
0
0
0
0
0
0
0
0
0
0
0
0
0
0
0
2.00087
1.22621
0.647106
0.257095
0.0465851
0
0
0
0
0
0
0
0
0
0
0
0
0
0
0
0
0
0
0
0
0.00240707
0.143852
0
0
0
0
0
0
0
0
0
0
0
0
0
0
0
0
0
0
2.24908
1.44627
0.827995
0.387329
0.115875
0.00414276
0
0
0
0
0
0
0
0
0
0
0
0
0
0
0
0
0
0
0
0.00269318
0.137886
0
0
0
0
0
0
0
0
0
0
0
0
0
0
0
0
0
0
2.40942
1.58311
0.934849
0.461651
0.157948
0.0146866
0
0
0
0
0
0
0
0
0
0
0
0
0
0
0
0
0
0
0
0.000705719
0.115219
0
0
0
0
0
0
0
0
0
0
0
0
0
0
0
0
0
0.000839233
2.49931
1.66494
1.00762
0.521103
0.198017
0.0301018
0
0
0
0
0
0
0
0
0
0
0
0
0
0
0
0
0
0
0
7.62939e-06
0.095192
0
0
0
0
0
0
0
0
0
0
0
0
0
0
0
0.00104141
0.0264549
0.0462494
2.57786
1.74427
1.08092
0.582088
0.241016
0.0501595
0
0
0
0
0
0
0
0
0
0
0
0
0
0
0
0
0
0
0
0
0.0776634
0
0
0
0
0
0
0
0
0
0
0
0
0
0
0
0.0121346
0.0941505
0.154972
2.65652
1.82366
1.15472
0.644459
0.286644
0.074379
0.000213623
0
0
0
0
0
0.213478
0.147499
0.0924301
0.0492172
0.0188751
0.00254822
0
0
0
0
0
0
0
0
0
0
0
0
0
0
0
0
0
0
0
0
0
0.1348
0.00242615
0
0
3.8147e-06
0
0
0
0
0
0
0
0
0
0
0
0
0
0.472588
0.374176
0.28508
0.206146
0.13829
0.08255
0.0400848
0.0121765
0.00030899
0
0
0
0
0
0
0
0
0
0
0
0
3.8147e-06
0
0
0
0
0
0.138603
0.00216293
0
0
0
0
3.8147e-06
0
0
0
0
0
0
0
0
0
0
0
0.842972
0.713814
0.592369
0.479362
0.375587
0.281948
0.199455
0.129261
0.0651131
0.00376892
0
0
0
0
0
0
0
0
0
0
0
0
0
0
0
0
0
0.142845
0.0018959
0
0
0
7.62939e-06
3.8147e-06
0
0
0
0
0
0
0
0
0
0
0
1.33189
1.17417
1.02258
0.877712
0.740227
0.61087
0.490498
0.379318
0.246033
0.0934105
0.00992584
0
0
0
0
0
0
0
0
0
0
0
0
0
0
0
0
0.147606
0.00164413
0
0
0
0
0
0
0
0
0
0
0
0
0
0
0
0
1.94658
1.76302
1.58405
1.41016
1.24185
1.0797
0.924408
0.76091
0.55397
0.311428
0.12476
0.0197601
0
0
0
0
0
0
0
0
3.8147e-06
0
0
3.8147e-06
0
0
0
0.152958
0.00138855
0
0
3.8147e-06
0
0
0
0
0
0
0
0
0
0
0
0
0
2.68114
2.48802
2.28505
2.08562
1.89009
1.6989
1.50828
1.27976
0.999947
0.669941
0.378628
0.163136
0.0339661
0
0
0.000270844
0.00658417
0.0214996
0.0338402
0.000946045
0
0
3.8147e-06
0
0
0
0
0.121643
0.000164032
3.8147e-06
0
0
0
0
0
0
0
0
0
0
0
0
0
0
0.00063324
3.513
3.35588
3.13356
2.91275
2.69437
2.47869
2.23849
1.94577
1.59465
1.18077
0.784416
0.456966
0.2094
0.0578423
0.0643692
0.103954
0.153458
0.212395
0.224529
0.10437
0.0273666
5.34058e-05
0
3.8147e-06
0
0
7.62939e-06
0.054306
0
0
3.8147e-06
0
0
0
0
0
0
0
0
0
0
0
0.00304413
0.0301018
0.0828972
4.44383
4.34423
4.13709
3.89971
3.66359
3.41792
3.12243
2.76801
2.34794
1.85487
1.35418
0.914459
0.547028
0.323586
0.319698
0.41
0.511227
0.621609
0.602413
0.395836
0.21957
0.0943604
0.0210648
0
0
0
0
0.0119972
0
0
0
0
0
0
0
0
0
0
0
0
0.00779343
0.0447159
0.10907
0.198009
0.309059
5.47518
5.44056
5.29489
5.05392
4.80397
4.51493
4.16727
3.75419
3.26814
2.70072
2.09829
1.54718
1.09101
0.830486
0.794838
0.939445
1.10292
1.27382
1.19057
0.90078
0.618069
0.386887
0.208633
0.0844688
0.0153275
0
3.8147e-06
0
0
0
0
0
0
0
0
0
0
0
0.0156479
0.0643997
0.142452
0.246456
0.373501
0.521099
0.687073
6.60741
6.64553
6.57465
6.38174
6.10692
5.77486
5.37846
4.91013
4.36147
3.72319
3.02454
2.37601
1.88622
1.5973
1.53543
1.7106
1.94891
2.19121
2.01128
1.64484
1.25005
0.906055
0.61484
0.378189
0.197706
0.0747051
0.0102577
0
0
0
0
0
0
0
0
0.00062561
0.0277557
0.0909691
0.185513
0.307404
0.453232
0.620129
0.805622
1.00761
1.22164
7.83445
7.94668
7.95002
7.83042
7.57229
7.20092
6.75926
6.23915
5.63137
4.9258
4.13896
3.45448
2.94602
2.63905
2.56044
2.73716
3.06459
3.39094
3.08411
2.65211
2.14195
1.68045
1.27014
0.913439
0.612629
0.369795
0.15531
0.00118828
0
1.90735e-06
1.90735e-06
0
0
0
0.0371857
0.127171
0.241928
0.385372
0.553478
0.742947
0.950985
1.17526
1.41381
1.66493
1.91612
0
0
0
0
0
0
0.0304565
0.168488
0.4277
0.817184
1.39294
0
0
0
0
0
0
0
0
0
0
2.73663
2.20397
1.72228
1.29315
0.852331
0.369219
0.0527191
0
0
1.90735e-06
1.90735e-06
3.8147e-06
0.0314865
0.201351
0.444836
0.676212
0.898232
1.1324
1.38212
1.64529
1.92015
2.20523
2.49931
2.77556
0
0
0
0
0
0
0
0.019825
0.148289
0.42907
0.967426
0
0
0
0
0
0
0
0
0
0
0
0
0
0
0
0
0
0.00221443
1.90735e-06
0
1.90735e-06
0
0
6.78896
5.29142
3.99197
2.88718
1.96947
1.23148
0.679974
0.30196
0.080864
0.000839233
0
0
0
0
0
0
0
0
0
0.0181274
0.243687
0.745914
0
0
0
0
0
0
0
0
0
0
0
0
0
0
0
0
0
0.00323105
1.90735e-06
0
0
0
0
6.31257
4.88755
3.65957
2.62593
1.77929
1.10893
0.601948
0.248848
0.0532875
0
0
0
0
0
0
0
0
0
0
0.0137253
0.228722
0.723759
0
0
0
0
0
0
0
0
0
0
0
0
0
0
0
0
0
0
0
0
0
0
0
5.67912
4.338
3.19249
2.24056
1.47506
0.885048
0.457203
0.177025
0.0297661
0
0
0
0
0
0
0
0
0
0
0.0108566
0.222317
0.724648
0
0
0
0
0
0
0
0
0
0
0
0
0
0
0
0
0
0
0
0
0
0
0
4.90058
3.63129
2.57954
1.72048
1.04977
0.557274
0.22868
0.0484276
0
0
0
0
0
0
0
0
0
0
0
0.0081749
0.213942
0.719009
0
0
0
0
0
0
0
0
0
0
0
0
0
0
0
0
0
0
0
0
0
0
0
4.14686
2.88023
1.90238
1.17477
0.635197
0.269825
0.0635185
0
0
0
0
0
0
0
0
0
0
0
0
0.00577164
0.203505
0.70582
0
0
0
0
0
0
0
0
0
0
0
0
0
0
0
0
0
0
0
0
0
0
0
3.62617
2.36893
1.40941
0.733177
0.315384
0.0814667
0.000389099
0
0
0
0
0
0
0
0
0
0
0
0
0
0
0
0
0
0
0
0
0
0
0
0
0
0
0
0
0
0
0
0
0
0
0
0
0
0
3.38221
2.13252
1.18771
0.532291
0.14526
0.0022583
0
0
0
0
0
0
0
0
3.8147e-06
0
0
0
0
0
0
0
0
0
0
0
0
0
0
0
0
0
0
0
0
0
0
0
0
0
0
0
0
0
0
3.4366
2.19209
1.25737
0.614384
0.213276
0.0230141
0
0
0
0
0
0
0
3.8147e-06
0
0
0
0
0
0
0
0
0
0
0
0
0
0
0
0
0
0
0
0
0
0
0
0
0
0
0
0
0
0
0
3.80481
2.54661
1.55844
0.829048
0.341045
0.0728455
0
0
0
0
0
0
0
0
0
0
0
0
0
0
0
0
0
0
0
0
0
0
0
0
0
0
0
0
0
0
0
0
0
0
0
0
0
0
0
0
0
0
0
0
0
0
0
0
0
0
7.62939e-06
0
0
0
0
0
0
0
0
0
0
0
0
0
0
0
0
0
0
0
0
0
0
0
0
0
0
0
0
0
0
0
0
0
0
0
0
0
0
0
0
0
0
0
0
0
0
0
0
0
0
0
0
0
0
0
0
0
0
0
0
0
0
0
0
0
0
0
0
0
0
0
0
0
0
0
0
0
0
0
0
0
0
0
0
0
0
0
0
0
0
0
0
0
0
0
0
0
0
0
0
0
0
0
0
0
0
0
0
0
0
0
0
0
0
0
0
0
0
0
0
0
0
0
0
0
0
0
0
0
0
0
0
0
0
0
3.8147e-06
0
0
0
0
0
0
0
0
0
0
0
0
0
0
0
0
0
0
0
0
0
0
0
0
0
0
0
0
0
0
0
0
0
0
0
0
0
0
0
0
0
0
0
0
0
0
0
0
0
0
0
0
0
0
0
0
0
0
0
0
0
0
0
0
0
0
0
0
0
0
0
0
0
0
0
0
0
0
0
0
0
0
0
0
0
0
0
0
0.202343
0.17717
0.142845
0.111015
0.0820618
0.0564384
0.0346794
0.0174675
0.00562668
0.000202179
0
0
0
0
0
0
0
0
0
0
0
0
0
0
0
0
0
0
0
0
0
0
0
0
0
0
0
0
0
0
0
0
0
0
0
0.0200768
0.0087738
0.0018959
0
0
0
0
0
0
0
0
0
0
0
0
0
0
0
0
0
0
0
0
0
0
0
0
0
0
0
0
0
0
0
0
0
0
0
0
0
0
0
0
0
0
0
0
0
0
0
0
0
0
0
0
0
3.8147e-06
1.90735e-06
0
0
0
0
0
0
0
0
0
0
0
0
0
0
0
0
0
0
0
0
0
0
0
0
0
0
0
0
0
0
0
0
0
3.8147e-06
0
0
0
0
0
0
3.8147e-06
0
0
0
0
0
0
0
0
0
0
0
0
0
0
0
0
0
0
0
0
0
0
0
0
1.15973
0.654873
0.300556
0.0876007
0.00289536
0
0
0.00398636
0.0256233
0.0635452
0.115215
0.17849
0
0
0
0
0
0
0
3.8147e-06
0
0
0
0
0
0
0
0
0
0
0
0
0
0
0
0
0
0
0
0
0
0
0
0
0
0.666973
0.31126
0.0932388
0.00371933
0
0
0
0
0
0
0.000705719
0.0136414
0
0
7.62939e-06
0
3.8147e-06
0
0
0
0
0
0
0
0
0
0
0
0
0
0
0
0
0
0
0
0
0
0
0
0
0
0
0
0
0.388382
0.0974388
0.0045929
0
0
0
0
0
0
0
0
0
3.8147e-06
0
0
0
0
0
0
0
0
0
0
0
0
0
0
0
0
0
0
0
0
0
0
0
0
0
0
0
0
0
0
0
0
0.384426
0.0668297
0
0
0
0
0
0
0
0
0
0
0
0
0
0
0
0
0
0
0
0
0
0
0
0
0
0
0
0
0
0
0
0
0
0
0
0
0
0
0
0
0
0
0
0.58189
0.172348
0.00569916
0
0
0
0
0
0
0
0
0
0
0
0
0
0
0
0
0
0
0
0
0
0
0
0
0
0
0
0
0
0
0
0
0
0
0
0
0
0
0
0
0
0
0.82151
0.318699
0.0529633
0
0
0
0
0
0
0
0
0
0
0
0
0
0
0
0
0
0
0
0
0
0
0
0.00136185
0
0
0
0
0
0
0
0
0
0
0
0
0
0
0
0
0
0
1.08578
0.499126
0.142761
0.00327682
0
0
0
0
0
0
0
0
0
0
0
0
0
0
0
0
0
0
0
0
0
0
0.0151787
0
0
0
0
0
0
0
0
0
0
0
0
0
0
0
0
0
0
1.36894
0.707489
0.268883
0.0413361
0
0
0
0
0
0
0
0
0
0
0
0
0
0
0
0
0
0
0
0
0
0
0.0423126
0
0
0
0
0
0
0
0
0
0
0
0
0
0
0
0
0
0
1.66542
0.938457
0.42564
0.117523
0.00165939
0
0
0
0
0
0
0
0
0
0
0
0
0
0
0
0
0
0
0
0
0
0.0810471
0
0
0
0
0
0
0
0
0
0
0
0
0
0
0
0
0
0
1.90222
1.14222
0.583069
0.215748
0.0294685
0
0
0
0
0
0
0
0
0
0
0
0
0
0
0
0
0
0
0
0
0
0.0998039
0
0
0
0
0
0
0
0
0
0
0
0
0
0
0
0
0
0
2.04432
1.2574
0.667839
0.269302
0.0515709
0
0
0
0
0
0
0
0
0
0
0
0
0
0
0
0
0
0
0
0
0
0.0803452
0
0
0
0
0
0
0
0
0
0
0
0
0
0
0
0
0.00120926
0.00849533
2.12596
1.33552
0.736256
0.320232
0.0782089
0
0
0
0
0
0
0
0
0
0
0
0
0
0
0
0
0
0
0
0
0
0.0635452
0
0
0
0
0
0
0
0
0
0
0
0
0
0
0
0.0297699
0.0532913
0.0808601
2.20524
1.41381
0.805622
0.373505
0.109066
0.00305176
0
0
0
0
0
0
0
0
0
0
0
0
0
0
0
0
0
0
0
0
0.0492287
0
0
0
0
0
0
0
0
0
0
0
0
0
0
0.00311279
0.0714607
0.17247
0.219181
2.28456
1.4922
0.87582
0.428856
0.143658
0.0118027
0
0
0
0
0
0
0
0
0
0
0
0
0
0
0
0
0
0
0
0
0.0372086
0
0
0
0
0
0
0
0
0
0
0
0
0
0
0.0183067
0.116398
0.286133
0.411026
2.36393
1.57072
0.946762
0.486046
0.181591
0.0256653
0
0
0
0
0
0
0.110313
0.0632095
0.028389
0.00692749
0
0
0
0
0
0
0
0
0
0
0
0
0
0
0
0
0
0
0
0
0
0
0
0.105003
0
3.8147e-06
0
0
3.8147e-06
0
0
0
0
0
0
0
0
0
0
0
0
0.312706
0.231056
0.159988
0.100502
0.0536423
0.0206261
0.00279617
0
0
0
0
0
0
0
0
0
0
0
0
0
3.8147e-06
0
0
0
0
0
0
0.107834
0
0
3.8147e-06
0
0
0
0
0
0
0
0
0
0
0
0
0
0
0.627052
0.512428
0.40667
0.310616
0.225204
0.151501
0.0907097
0.0441742
0.0134735
0.000347137
0
0
0
0
0
0
0
0
0
0
3.8147e-06
0
0
0
0
0
0
0.111015
3.8147e-06
0
3.8147e-06
3.8147e-06
0
0
0
0
0
0
0
0
0
0
0
0
0
1.06113
0.915672
0.777317
0.646793
0.524883
0.412491
0.310638
0.220501
0.143417
0.072525
0.00420761
0
0
0
0
0
0
0
0
3.8147e-06
0
0
0
0
0
0
0
0.114605
3.8147e-06
0
0
0
0
0
0
0
0
0
0
0
0
0
0
0
0
1.61932
1.4492
1.28099
1.11878
0.963169
0.814907
0.674801
0.543816
0.422199
0.274975
0.104843
0.0111885
0
0
0
0
0
0
0
3.8147e-06
0
0
0
0
0
3.8147e-06
0
0.11869
3.8147e-06
0
0
0
0
0
0
0
0
0
0
0
0
0
0
0
0
2.27744
2.12143
1.92677
1.73636
1.55067
1.37024
1.19569
1.02773
0.849495
0.621166
0.350788
0.141132
0.0224457
0
0
0
0
0
0
0
0
0
3.8147e-06
0
0
0
0
0.123363
0
0
0
0
0
0
0
0
0
0
0
0
0
0
0
0
0
3.03231
2.9262
2.72347
2.50913
2.29783
2.08992
1.88578
1.68116
1.43271
1.12459
0.757042
0.429829
0.18597
0.0388603
0.00277328
0.0147018
0.0365791
0.0685616
0.0884018
0.018898
0
0
3.8147e-06
0
0
0
0
0.110405
0
0
3.8147e-06
0
0
0
0
0
0
0
0
0
0
0
0
0.0146866
0.0515709
3.88681
3.83881
3.67872
3.44625
3.21465
2.98487
2.7571
2.50072
2.18359
1.79808
1.33797
0.893108
0.522533
0.240986
0.140713
0.200649
0.274605
0.359386
0.370842
0.204632
0.0808754
0.0133877
3.8147e-06
0
0
0
0
0.045269
0
0
0
0
3.8147e-06
0
0
0
0
0
0
0
0.00094986
0.0248222
0.0782089
0.157951
0.245331
4.84284
4.86068
4.7678
4.55608
4.3103
4.06519
3.80858
3.49476
3.11246
2.65288
2.10625
1.5452
1.04798
0.673866
0.530838
0.620403
0.758627
0.906799
0.87529
0.613901
0.375084
0.193708
0.0711784
0.0085907
0
0
0
0.00638771
1.90735e-06
0
1.90735e-06
3.8147e-06
3.8147e-06
0
0
0
0
0
0.00426483
0.0392761
0.106033
0.200764
0.320236
0.461655
0.589935
5.90103
5.99275
5.9762
5.8375
5.59276
5.33762
5.0379
4.67076
4.22738
3.69777
3.07084
2.39732
1.79494
1.38356
1.20725
1.29715
1.51468
1.73932
1.62969
1.27851
0.91675
0.612118
0.366816
0.182785
0.061657
0.00465202
0
0
0
0
0
1.90735e-06
0
0
0
0
0.0108871
0.0596619
0.142693
0.255417
0.394001
0.555199
0.736256
0.934849
1.09301
7.06059
7.23432
7.30349
7.25359
7.06849
6.7916
6.44965
6.0335
5.53331
4.93798
4.23524
3.46107
2.8228
2.38876
2.19104
2.2629
2.56307
2.8798
2.6592
2.22911
1.7394
1.30461
0.927748
0.611662
0.358946
0.171875
0.0523453
0
0
0
0
1.90735e-06
0
0
0.022316
0.0885162
0.191757
0.326431
0.48793
0.67247
0.876926
1.09867
1.33553
1.58311
1.76119
0
0
0
0
0
0
0.0481033
0.214714
0.51302
0.954235
1.54624
0
0
0
0
0
0
0
0
0
0
2.3055
1.7919
1.33625
0.94211
0.609871
0.263079
0.0132942
0
0
0
0
0
0.0822239
0.252861
0.420921
0.610271
0.822628
1.05445
1.30285
1.56547
1.84038
2.12595
2.40942
2.59989
0
0
0
0
0
0
0
0.0350342
0.194515
0.494946
0.982159
0
0
0
0
0
0
0
0
0
0
0
0
0
0
0
0
0
0
0
0
0
0
0
6.32025
4.78759
3.47459
2.37963
1.51407
0.863445
0.408455
0.129711
0.00849915
0
0
0
0
0
0
0
0
0
0
0.0230141
0.186024
0.622427
0
0
0
0
0
0
0
0
0
0
0
0
0
0
0
0
0
0
0
0
0
0
1.90735e-06
5.97136
4.50858
3.265
2.23538
1.40913
0.777969
0.345612
0.0933533
0.00120544
0
0
0
0
0
0
0
0
0
0
0
0.104244
0.50379
0
0
0
0
0
0
0
0
0
0
0
0
0
0
0
0
0
1.90735e-06
0
0
0
0
0
5.45988
4.08054
2.91916
1.97131
1.22652
0.670177
0.2854
0.0621529
0
0
0
0
0
0
0
0
0
0
0
0
0.098465
0.50358
0
0
0
0
0
0
0
0
0
0
0
0
0
0
0
0
0
0
0
0
0
0
0
4.77075
3.4889
2.4233
1.57027
0.919323
0.455383
0.160873
0.0187531
0
0
0
0
0
0
0
0
0
0
0
0
0.0916996
0.49807
0
0
0
0
0
0
0
0
0
0
0
0
0
0
0
0
0
0
0
0
0
0
0
3.97419
2.73326
1.78484
1.05642
0.53223
0.195801
0.0280304
0
0
0
0
0
0
0
0
0
0
0
0
0
0.0839787
0.486238
0
0
0
0
0
0
0
0
0
0
0
0
0
0
0
0
0
0
0
0
0
0
0
3.34598
2.1173
1.21327
0.612602
0.235622
0.0398979
0
0
0
0
0
0
0
0
0
0
0
0
0
0
0
0
0
0
0
0
0
0
0
0
0
0
0
0
0
0
0
0
0
0
0
0
0
0
0
3.01476
1.79609
0.911425
0.340416
0.056076
0
0
0
0
0
0
3.8147e-06
3.8147e-06
0
3.8147e-06
3.8147e-06
3.8147e-06
0
0
0
0
0
0
0
0
0
0
0
0
0
0
0
0
0
0
0
0
0
0
5.72205e-06
0
0
0
0
0
3.00875
1.79705
0.92584
0.371803
0.0765572
0
0
0
0
0
0
0
0
0
3.8147e-06
0
0
0
0
0
0
0
0
0
0
0
0
0
0
0
0
0
0
0
0
0
0
0
0
0
0
0
0
0
0
3.34863
2.12318
1.1955
0.549736
0.162624
0.00639725
0
0
0
0
0
0
0
3.8147e-06
3.8147e-06
3.8147e-06
0
0
0
0
0
0
0
0
0
0
0
0
0
0
0
0
0
0
0
0
0
0
0
0
0
0
0
0
0
0
0
0
0
0
0
0
0
0
0
0
0
0
3.8147e-06
0
0
0
0
0
0
0
0
0
0
0
0
0
0
0
0
0
0
0
0
0
0
0
0
0
0
0
0
0
0
0
0
0
0
0
0
0
0
0
0
0
0
3.8147e-06
3.8147e-06
0
0
0
0
0
0
0
0
0
0
0
0
0
0
0
0
0
0
0
0
0
0
0
0
0
0
0
0
0
0
0
0
0
0
0
0
0
0
0
0
0
0
0
3.8147e-06
0
0
0
0
0
0
0
0
0
0
0
0
0
0
0
0
0
0
0
0
0
0
0
0
0
0
0
0
0
0
0
0
0
0
0
0
0
0
0
0
0
0
0
0
0
0
0
0
0
0
0
0
0
0
0
0
0
0
0
0
0
0
0
0
0
0
0
0
0
0
0
0
0
0
0
0
0
0
0
0
0
0
0
0
0
0
0
0
0
3.8147e-06
3.8147e-06
0
0
0
0
0
0
0
0
0
0
0
0
0
0
0
0
0
0
0
0
0
0
0
0
0
0
0
0
0
0
0
0
0
0
0
0
0
0
0
0
0
0
0
0.139404
0.180534
0.147606
0.114605
0.084549
0.0579109
0.0352974
0.0174484
0.00531006
9.34601e-05
0
1.90735e-06
0
0
0
0
0
0
0
0
0
0
0
0
0
0
0
0
0
0
0
0
0
0
0
0
0
0
0
0
0
0
0
0
0
0.00499725
0.008461
0.00164413
0
0
0
3.8147e-06
0
0
3.8147e-06
0
0
0
0
0
0
0
0
0
0
0
0
0
0
0
0
0
0
0
0
0
0
0
0
0
0
0
0
0
0
0
0
0
0
0
0
0
0
0
0
0
0
0
3.8147e-06
0
0
0
0
0
0
0
0
0
0
0
0
0
0
0
0
0
0
0
0
0
0
0
0
0
0
0
0
0
0
0
0
0
0
0
0
0
0
0
0
0
0
0
0
0
0
0
0
0
0
0
0
0
0
0
0
0
0
0
0
0
0
0
0
0
0
0
0
0
0.834904
0.402468
0.132298
0.0108261
0
0
0
0.00847626
0.0362892
0.0803413
0.13789
0.20359
0
0
0
0
3.8147e-06
0
0
0
0
0
0
0
0
0
0
0
0
0
0
0
0
0
0
0
0
0
0
0
0
0
0
0
0
0.412622
0.139202
0.0125675
0
0
0
0
0
0
0
0.00269318
0.020401
0
0
0
0
0
0
0
0
0
0
0
0
0
0
0
0
0
0
0
0
0
0
0
0
0
0
0
0
0
0
0
0
0
0.236115
0.0142002
0
0
0
0
0
0
0
0
0
0
0
0
0
0
0
0
0
0
0
0
0
0
0
0
0
0
0
0
0
0
0
0
0
0
0
0
0
0
0
0
0
0
0
0.343197
0.0475578
0
0
0
0
0
0
0
0
0
0
0
0
0
0
0
0
0
0
0
0
0
0
0
0
0
0
0
0
0
0
0
0
0
0
0
0
0
0
0
0
0
0
0
0.550816
0.145042
0.000846863
0
0
0
0
0
0
0
0
0
0
0
0
0
0
0
0
0
0
0
0
0
0
0
0
0
0
0
0
0
0
0
0
0
0
0
0
0
0
0
0
0
0
0.790779
0.286312
0.0359726
0
0
0
0
0
0
0
0
0
0
0
0
0
0
0
0
0
0
0
0
0
0
0
1.52588e-05
0
0
0
0
0
0
0
0
0
0
0
0
0
0
0
0
0
0
1.05542
0.463451
0.117077
0.000164032
0
0
0
0
0
0
0
0
0
0
0
0
0
0
0
0
0
0
0
0
0
0
0.00886154
0
0
0
0
0
0
0
0
0
0
0
0
0
0
0
0
0
0
1.33802
0.669464
0.236885
0.0267487
0
0
0
0
0
0
0
0
0
0
0
0
0
0
0
0
0
0
0
0
0
0
0.0324554
0
0
0
0
0
0
0
0
0
0
0
0
0
0
0
0
0
0
1.56062
0.852478
0.364372
0.0842743
0
0
0
0
0
0
0
0
0
0
0
0
0
0
0
0
0
0
0
0
0
0
0.0642891
0
0
0
0
0
0
0
0
0
0
0
0
0
0
0
0
0
0
1.68085