<VTKFile type="ImageData" version="1.0" byte_order="LittleEndian" header_type="UInt64">
	<ImageData WholeExtent="0 44 0 44 0 44" Origin="-71.2453 -71.2453 -71.2453" Spacing="3.23842 3.23842 3.23842">
		<Piece Extent="0 44 0 44 0 44">
			<PointData Scalars="Scalars_">
				<DataArray type="Float32" Name="Scalars_" format="ascii" RangeMin="0" RangeMax="100">
7.25758
7.25779
7.258
7.14391
7.02665
6.786
6.5462
6.23364
6.03035
5.7925
5.68217
5.52923
5.50552
5.44321
5.53378
5.55095
5.73349
5.7999
6.03736
5.74213
5.61968
5.55754
5.57663
5.54862
5.52037
5.57171
5.62166
5.67634
5.73381
5.59027
5.454
5.20201
5.01538
4.63989
4.30671
3.79095
3.33489
2.68902
2.09785
1.42313
0.900391
0.314461
0.170654
1.25591
2.79516
7.25779
7.28588
7.31395
7.22719
7.13769
6.92457
6.71031
6.37407
6.1385
5.86941
5.72823
5.5472
5.49798
5.41325
5.48525
5.48653
5.65877
5.71464
5.94854
5.63653
5.50489
5.43246
5.44265
5.40525
5.36767
5.401
5.43293
5.48099
5.5318
5.37518
5.27
5.05063
4.89802
4.55176
4.24865
3.75917
3.32972
2.70798
2.13344
1.44452
0.91021
0.315704
0.174484
1.28795
2.86433
7.258
7.31394
7.36987
7.31046
7.24871
7.06315
6.87644
6.55064
6.28028
5.97705
5.80188
5.58937
5.51113
5.4004
5.45031
5.43235
5.59122
5.63393
5.86216
5.53189
5.39025
5.30739
5.30866
5.26187
5.21497
5.23029
5.24418
5.28564
5.33537
5.21094
5.14852
4.96603
4.85152
4.5384
4.26905
3.80926
3.40962
2.81493
2.26654
1.57207
1.02605
0.42276
0.0727692
1.42513
3.03809
7.1545
7.23651
7.3185
7.28139
7.24539
7.06497
6.9039
6.61736
6.32905
5.99584
5.76441
5.51602
5.41386
5.27288
5.29712
5.25748
5.39467
5.42312
5.64273
5.29445
5.14885
5.05206
5.04113
4.98125
4.92027
4.91363
4.90939
4.94963
5.03843
4.95848
4.94204
4.79843
4.71122
4.43236
4.22187
3.79353
3.40899
2.8418
2.31547
1.63161
1.05322
0.439392
0.0238342
1.50891
3.15771
7.03756
7.14597
7.25436
7.24325
7.23325
7.07894
6.9433
6.68162
6.41174
6.0397
5.76592
5.47724
5.33628
5.16117
5.15538
5.09009
5.20821
5.21914
5.43001
5.06169
4.90585
4.79515
4.77223
4.69858
4.62381
4.59574
4.574
4.66213
4.814
4.78307
4.81691
4.7163
4.6727
4.43192
4.25922
3.86493
3.51387
2.97741
2.48084
1.82281
1.23364
0.609501
0.136887
1.70303
3.38609
6.77831
6.91133
7.0444
7.06156
7.07607
6.97044
6.8569
6.60321
6.35467
5.96251
5.65533
5.31815
5.12391
4.90859
4.86148
4.76723
4.86771
4.85942
5.06522
4.67764
4.50809
4.37872
4.33928
4.24488
4.15143
4.10064
4.10456
4.26077
4.48671
4.50838
4.59576
4.53973
4.54636
4.34512
4.20176
3.84273
3.52916
3.0253
2.57178
1.94339
1.34136
0.707489
0.225037
1.82273
3.53805
6.53875
6.69435
6.85196
6.89258
6.93068
6.84719
6.75595
6.52354
6.29631
5.92518
5.57882
5.18956
4.94447
4.68385
4.59512
4.46637
4.53945
4.50769
4.70016
4.29073
4.11143
3.96307
3.90707
3.79218
3.68076
3.65977
3.71484
3.94585
4.24816
4.32816
4.47434
4.46772
4.52331
4.3653
4.26421
3.9434
3.66673
3.197
2.77555
2.17789
1.59496
0.94854
0.454468
2.0817
3.82712
6.24465
6.38788
6.544
6.58458
6.64323
6.58135
6.50827
6.28243
6.07111
5.71998
5.35896
4.90815
4.61118
4.2957
4.16135
3.99194
4.02771
3.96996
4.14544
3.71633
3.53299
3.35838
3.27887
3.13484
3.04791
3.07471
3.1817
3.49701
3.88581
4.02867
4.23759
4.28506
4.38514
4.2725
4.21234
3.93183
3.70415
3.27119
2.86897
2.30429
1.78284
1.1314
0.600235
2.25428
4.02697
6.04087
6.17133
6.31295
6.336
6.38028
6.31571
6.25594
6.04633
5.85092
5.51432
5.16826
4.68636
4.32124
3.94523
3.75312
3.53687
3.53328
3.4435
3.59911
3.14676
2.95515
2.75381
2.65205
2.53532
2.50547
2.58823
2.75286
3.15928
3.6394
3.85093
4.12768
4.23145
4.38616
4.32173
4.30738
4.06878
3.88012
3.48401
3.1165
2.58465
2.09246
1.45103
0.906918
2.58453
4.38115
5.79261
5.9099
6.03656
6.05146
6.07454
5.9812
5.89234
5.66292
5.46046
5.13137
4.79661
4.31651
3.86449
3.41467
3.14863
2.877
2.82984
2.70293
2.8336
2.3628
2.1699
1.93182
1.85545
1.78553
1.80632
1.93697
2.15033
2.65898
3.23774
3.52448
3.87469
4.03656
4.2581
4.24594
4.27594
4.08313
3.9308
3.57513
3.25563
2.76086
2.29009
1.67835
1.14152
2.83897
4.65567
5.67999
5.786
5.89958
5.89489
5.89843
5.76674
5.65028
5.40175
5.16132
4.77932
4.41921
3.9353
3.46565
2.93485
2.58595
2.2506
2.14891
1.98216
2.09329
1.61158
1.43005
1.17588
1.16183
1.14927
1.22834
1.41562
1.68628
2.30407
2.99045
3.35637
3.78293
4.01579
4.28049
4.32042
4.40863
4.26105
4.15046
3.83408
3.55168
3.09135
2.64754
2.03745
1.49541
3.21843
5.0592
5.52728
5.62298
5.72447
5.7032
5.68799
5.53085
5.38632
5.09993
4.81903
4.38636
3.97175
3.42711
2.90372
2.29563
1.86507
1.47523
1.32911
1.13142
1.22744
0.756765
0.607107
0.324959
0.342926
0.373512
0.496422
0.710808
1.00686
1.74634
2.55146
3.00615
3.51754
3.82153
4.15398
4.25468
4.39904
4.30432
4.24274
3.9722
3.71312
3.24989
2.78309
2.15286
1.61927
3.3727
5.24321
5.51399
5.60265
5.69546
5.65007
5.61982
5.45221
5.28334
4.95565
4.63818
4.16615
3.69823
3.0964
2.50565
1.82981
1.32735
0.883678
0.68948
0.458519
0.535975
0.0753536
0.0417919
0.350807
0.325842
0.240669
0.0631142
0.186501
0.512352
1.37754
2.30768
2.85295
3.44981
3.81265
4.22385
4.3836
4.57776
4.52389
4.47164
4.18346
3.89312
3.40544
2.92199
2.27857
1.74468
3.52889
5.42941
5.45127
5.53468
5.62075
5.56506
5.52214
5.33484
5.14449
4.78543
4.43389
3.91521
3.39725
2.73613
2.08193
1.34062
0.758163
0.26544
0.0285721
0.247623
0.199558
0.631945
0.698414
1.03974
1.02648
0.919998
0.705177
0.50621
0.2365
0.77039
1.83597
2.49018
3.18983
3.64542
4.14149
4.35352
4.56562
4.50553
4.44639
4.15014
3.85154
3.35538
2.86359
2.22744
1.71672
3.53206
5.46286
5.53147
5.6143
5.69858
5.64892
5.59863
5.39328
5.18751
4.80459
4.42564
3.86173
3.3054
2.59295
1.88663
1.09142
0.433882
0.102659
0.378523
0.697416
0.677061
1.08064
1.09673
1.47087
1.47056
1.3731
1.1153
0.964016
0.750607
0.39706
1.59465
2.35405
3.13895
3.64006
4.14215
4.34896
4.55368
4.48658
4.4233
4.11884
3.8125
3.3081
2.80466
2.18338
1.69656
3.54337
5.50471
5.54885
5.63206
5.71582
5.66189
5.6066
5.39077
5.17302
4.76958
4.36827
3.77094
3.17864
2.42391
1.67202
0.847382
0.135962
0.415466
0.702499
1.08264
1.11091
1.4829
1.44764
1.82793
1.81603
1.70991
1.3596
1.12049
0.828863
0.312401
1.46277
2.25439
3.04603
3.55874
4.07256
4.28491
4.49541
4.42847
4.365
4.0572
3.7478
3.23786
2.72894
2.13169
1.67063
3.54925
5.54137
5.73434
5.82358
5.91289
5.85817
5.80468
5.58168
5.36017
4.94619
4.53237
3.91533
3.29638
2.51213
1.73014
0.894943
0.143507
0.408115
0.691679
1.12202
1.19088
1.52684
1.4399
1.82996
1.81386
1.714
1.30988
1.00934
0.707886
0.325188
1.35745
2.1554
2.95335
3.47634
4.00073
4.2186
4.43789
4.37124
4.30508
3.99387
3.67962
3.16404
2.65585
2.08519
1.65445
3.56519
5.58833
5.80072
5.89526
5.98985
5.93682
5.88506
5.65757
5.43144
5.00111
4.57092
3.91546
3.25821
2.39683
1.53738
0.590622
0.296066
0.946255
1.32735
1.87375
2.0528
2.45175
2.41801
2.56641
2.30002
2.04644
1.58012
1.25403
0.891798
0.105827
1.10259
1.90759
2.71262
3.26458
3.81778
4.05507
4.29369
4.23502
4.17665
3.86555
3.55156
3.03139
2.5317
1.98799
1.58344
3.52659
5.58097
6.03949
6.14563
6.25227
6.20347
6.16162
5.94594
5.72462
5.28436
4.84919
4.16867
3.48851
2.56562
1.6447
0.60631
0.388622
1.11534
1.57367
2.2174
2.49257
2.94634
2.96485
2.87833
2.37488
2.08804
1.65749
1.41903
1.07232
0.114021
0.847782
1.65984
2.4719
3.05335
3.6357
3.89237
4.1489
4.09813
4.04633
3.73533
3.42783
2.90313
2.41504
1.8988
1.5186
3.49446
5.58028
5.74406
5.85762
5.97264
5.93476
5.90443
5.70224
5.49669
5.07657
4.66294
4.00974
3.35979
2.47811
1.6022
0.626339
0.316153
0.996168
1.4083
1.97947
2.18515
2.66572
2.71632
2.50214
1.96447
1.8238
1.52424
1.425
1.20159
0.642288
0.00805283
0.984425
1.96079
2.65277
3.34566
3.64377
3.94163
3.90237
3.86229
3.5495
3.23984
2.70732
2.24117
1.74976
1.39348
3.40233
5.51975
5.61973
5.74721
5.87758
5.86407
5.85317
5.66737
5.48705
5.0994
4.71071
4.08121
3.45256
2.59484
1.73677
0.788256
0.0459824
0.596613
0.895123
1.34777
1.4635
1.96319
2.04542
1.7813
1.31803
1.32828
1.16818
1.2193
1.13201
1.00655
0.772507
0.310471
1.4499
2.25269
3.05566
3.39522
3.73428
3.70652
3.67916
3.36454
3.04995
2.51176
2.0776
1.61154
1.27819
3.32029
5.46947
5.55782
5.70957
5.86131
5.86601
5.87016
5.69544
5.52101
5.13317
4.74496
4.11172
3.47886
2.60769
1.73632
0.796505
0.0333443
0.448635
0.671974
1.08851
1.17093
1.58195
1.64544
1.5746
1.3129
1.34355
1.19691
1.31646
1.28562
1.27451
1.14173
0.00934219
1.21822
2.0169
2.83081
3.1664
3.50168
3.46651
3.4317
3.10853
2.78529
2.24816
1.84167
1.40251
1.09478
3.17035
5.35143
5.57714
5.73113
5.88513
5.89214
5.89904
5.72721
5.5551
5.16696
4.77921
4.14222
3.50516
2.62054
1.73965
0.853897
0.161747
0.253027
0.404343
0.789785
0.844776
1.1559
1.17585
1.17227
1.09968
1.14482
1.01028
1.2009
1.23238
1.34385
1.32213
0.150997
1.1273
1.82457
2.60612
2.93758
3.26908
3.22651
3.18423
2.85252
2.5206
1.99318
1.61496
1.20315
0.92136
3.03061
5.24371
5.54951
5.70958
5.86964
5.88046
5.89171
5.72095
5.54948
5.1552
4.7611
4.10432
3.44759
2.51609
1.63017
0.745068
0.0610466
0.330549
0.455357
0.826065
0.87133
1.08305
1.07511
1.06454
1.05398
1.20393
1.17707
1.42293
1.50461
1.61004
1.57265
0.778645
0.133614
0.962429
1.8864
2.23239
2.64508
2.64969
2.65445
2.34798
2.0413
1.55468
1.22828
0.859566
0.619095
2.76221
5.00741
5.5211
5.68732
5.85356
5.87129
5.88683
5.71491
5.54402
5.14318
4.74274
4.06637
3.38977
2.41836
1.56657
0.682014
0.00477982
0.366053
0.468983
0.83016
0.871655
0.992094
0.974268
0.956751
0.939234
1.08261
1.15377
1.44934
1.57907
1.67968
1.63073
1.21999
0.681461
0.27124
1.32819
1.6482
2.05233
2.07257
2.12478
1.84357
1.56164
1.12489
0.849461
0.524216
0.326202
2.50335
4.78072
5.57186
5.76246
5.95308
6.00128
6.04652
5.91162
5.77853
5.4274
5.07662
4.46357
3.85014
2.98758
2.28363
1.46887
0.866573
0.0781975
0.441744
0.816549
0.878401
0.932821
0.913328
0.893894
0.874453
0.973942
1.07337
1.41983
1.60238
1.70158
1.64744
1.31403
0.84528
0.126492
1.21142
1.40892
1.69957
1.61251
1.60217
1.31385
1.03662
0.637695
0.398628
0.108772
0.0549049
2.1564
4.46597
5.62431
5.83925
6.0542
6.12831
6.20326
6.10778
6.01261
5.71139
5.41028
4.86192
4.32196
3.5993
3.04125
2.29547
1.76717
0.558292
0.382
0.775579
0.864212
0.873878
0.852522
0.831184
0.809853
0.865427
0.920933
1.22351
1.45007
1.54259
1.48102
1.2252
0.82877
0.155331
1.26304
1.33106
1.50278
1.30057
1.1811
0.805283
0.522869
0.160294
0.0421867
0.296307
0.424011
1.82156
4.16334
5.67917
5.90096
6.12276
6.2015
6.28171
6.19031
6.09893
5.80012
5.50123
4.9536
4.464
3.82077
3.34754
2.69015
2.2534
0.99157
0.00311279
0.454037
0.607735
0.603802
0.592808
0.57848
0.564148
0.593353
0.622494
0.692894
0.762566
0.81739
0.719639
0.378719
0.105701
0.71207
1.44819
1.35702
1.37752
1.03902
0.791378
0.316917
0.0297356
0.326157
0.521942
0.766827
0.88467
1.38046
3.74209
5.73592
5.96446
6.193
6.27675
6.36226
6.27617
6.18843
5.88933
5.59269
5.06016
4.64587
4.08206
3.69468
3.1241
2.77438
1.45617
0.402653
0.110283
0.333099
0.33284
0.332817
0.325485
0.318157
0.320915
0.324123
0.16227
3.8147e-06
0.0624084
0.203285
0.634113
1.20906
1.43868
1.80249
1.54898
1.41289
0.932617
0.565521
0.0713348
0.219246
0.577435
0.780155
1.02597
1.14503
1.12767
3.49653
5.59276
5.82332
6.05389
6.14383
6.23542
6.162
6.08657
5.80828
5.5328
5.08455
4.77602
4.33368
4.07201
3.64029
3.43077
2.60258
2.03602
1.6656
1.56842
1.57098
1.57329
1.5788
1.58432
1.55348
1.52221
1.42006
1.31836
1.14726
0.976357
1.0736
1.31353
1.30746
1.43798
1.03902
0.762222
0.174175
0.201481
0.675964
0.947113
1.284
1.4655
1.69038
1.78829
0.483166
2.85083
5.45687
5.68219
5.91479
6.01092
6.10859
6.04784
5.98473
5.72723
5.49276
5.14553
4.94276
4.62132
4.48417
4.18935
4.11733
3.77573
3.69212
3.45991
3.46993
3.4748
3.47939
3.48309
3.48679
3.42789
3.36856
3.00239
2.63671
2.23217
1.82759
1.6578
1.56891
1.33149
1.23124
0.687523
0.273399
0.338013
0.70776
1.17097
1.43173
1.75668
1.92642
2.13972
2.22558
0.0358505
2.39394
5.19901
5.3794
5.60851
5.72095
5.82888
5.78095
5.73512
5.50652
5.35054
5.10075
5.00223
4.78363
4.74925
4.5435
4.5617
4.22269
4.13744
3.95524
3.97088
3.91925
3.86793
3.8142
3.76047
3.65297
3.54527
3.17215
2.80041
2.37808
1.95459
1.71569
1.47765
1.04693
0.75029
0.0702896
0.389732
0.993904
1.36211
1.81475
2.06939
2.38299
2.52893
2.73035
2.80853
0.565556
1.77487
5.00213
5.13377
5.31633
5.42582
5.54404
5.52127
5.49256
5.30857
5.24194
5.09237
5.08826
4.97214
5.04985
4.93055
5.03112
4.6913
4.60241
4.46678
4.47383
4.36542
4.25647
4.14545
4.03443
3.87822
3.72225
3.34218
2.9632
2.52299
2.08104
1.77351
1.466
0.902966
0.417412
0.320747
0.794613
1.39655
1.76325
2.21202
2.46203
2.77194
2.92525
3.12318
3.1945
0.977802
1.33741
4.62701
4.69809
4.816
4.86235
4.96117
4.92855
4.89217
4.7514
4.73831
4.64294
4.69571
4.6354
4.77079
4.70645
4.8606
4.56055
4.50689
4.42297
4.42386
4.28963
4.15479
4.00399
3.85319
3.65649
3.46003
3.07144
2.68393
2.23255
1.77943
1.43262
1.08581
0.49987
0.0454788
0.787048
1.27105
1.87153
2.24138
2.68874
2.94009
3.24905
3.40214
3.59896
3.66837
1.48494
0.798252
4.31342
4.32626
4.38201
4.36406
4.39794
4.3261
4.30805
4.22959
4.26981
4.22123
4.33932
4.33314
4.51487
4.50332
4.71543
4.45189
4.42698
4.37893
4.37418
4.21409
4.05434
3.86351
3.67269
3.43553
3.19729
2.80006
2.40465
1.94307
1.49245
1.13999
0.806561
0.250462
0.278313
1.02398
1.52785
2.13007
2.51278
2.96334
3.20742
3.52081
3.68392
3.88586
3.96333
1.81919
0.426041
3.79814
3.74356
3.72808
3.63268
3.58464
3.44851
3.43998
3.38596
3.462
3.45001
3.60746
3.64114
3.8629
3.89472
4.14839
3.93046
3.9462
3.92434
3.91845
3.74762
3.57716
3.36134
3.1455
2.87993
2.61618
2.23132
1.86701
1.45457
1.05729
0.739677
0.440144
0.0736885
0.565353
1.31157
1.82561
2.42984
2.8208
3.27637
3.52853
3.84898
4.02019
4.22951
4.31459
2.21471
0.0124435
3.33142
3.21225
3.12855
2.95868
2.87803
2.7477
2.73399
2.66642
2.73832
2.73425
2.91138
2.97743
3.23895
3.31163
3.60062
3.42521
3.47869
3.46918
3.46069
3.2794
3.09892
2.86481
2.6488
2.39787
2.1647
1.83164
1.51505
1.15215
0.808151
0.52113
0.251133
0.21991
0.685726
1.42162
1.93908
2.54623
2.94207
3.40458
3.67975
4.01003
4.18499
4.40496
4.49622
2.44451
0.289219
2.68552
2.49606
2.36161
2.17752
2.09021
1.95109
1.92932
1.85173
1.91309
1.89636
2.05968
2.11104
2.363
2.4435
2.75079
2.61813
2.71106
2.70546
2.71037
2.55607
2.42044
2.23006
2.05719
1.84507
1.6498
1.36644
1.09855
0.784401
0.488228
0.235645
0.00104523
0.430164
0.855461
1.56338
2.08852
2.69878
3.10447
3.57508
3.86307
4.2048
4.39298
4.6257
4.72971
2.72907
0.623837
2.08477
1.87379
1.73876
1.55694
1.46874
1.34
1.31506
1.22166
1.27797
1.26013
1.40586
1.44687
1.68298
1.75115
2.04414
1.9046
1.99977
2.04692
2.11038
2.00972
1.92677
1.77612
1.64211
1.46454
1.30408
1.06624
0.841717
0.572449
0.31712
0.0943985
0.113594
0.515205
0.89365
1.56067
2.09917
2.71253
3.11905
3.59775
3.89693
4.25088
4.46946
4.71647
4.8267
2.87909
0.826107
1.40954
1.19595
1.05957
0.875767
0.786095
0.654995
0.627602
0.530106
0.581863
0.558582
0.69619
0.729218
0.953053
1.01227
1.29055
1.14735
1.23217
1.32848
1.44862
1.4024
1.373
1.26545
1.17355
1.03424
0.911079
0.716858
0.53479
0.308083
0.0940361
0.0972252
0.274891
0.637844
0.978695
1.59511
2.13681
2.75283
3.1691
3.65638
3.96839
4.33527
4.56997
4.83205
4.95746
3.06402
1.06467
0.887184
0.67469
0.540718
0.35228
0.264812
0.1259
0.0996857
0.00667953
0.0570107
0.0250816
0.163422
0.190636
0.405556
0.457294
0.717918
0.571495
0.645237
0.772396
0.945824
0.949711
0.968323
0.900593
0.847485
0.742023
0.651016
0.49614
0.353836
0.165058
0.00445938
0.168121
0.319244
0.648197
0.966293
1.53475
2.05209
2.67036
3.10532
3.59997
3.93104
4.30974
4.54232
4.81916
4.97386
3.13501
1.19001
0.300888
0.0902405
0.0406036
0.226257
0.310547
0.447613
0.471428
0.562511
0.511833
0.54435
0.408958
0.384529
0.177406
0.13026
0.11927
0.0276299
0.0380669
0.180431
0.403931
0.456779
0.523308
0.495399
0.481102
0.411343
0.35495
0.238003
0.132595
0.0194969
0.153118
0.288792
0.412945
0.707451
0.992176
1.51536
2.00971
2.62942
3.07283
3.57505
3.91802
4.30909
4.55714
4.84931
5.02119
3.23677
1.34622
0.176537
0.382507
0.507454
0.674339
0.753159
0.898609
0.917271
0.98822
0.935947
0.972191
0.844109
0.821693
0.611546
0.568634
0.329288
0.476791
0.422356
0.278866
0.00831604
0.0897293
0.200047
0.207897
0.228363
0.190594
0.167088
0.0845642
0.00953293
0.109188
0.211079
0.321842
0.422024
0.680759
0.938408
1.41983
1.88996
2.5099
2.95694
3.46603
3.82114
4.22412
4.47263
4.77879
4.97043
3.23978
1.40331
1.25002
1.08882
1.00974
0.889549
0.857948
0.759815
0.788059
0.762989
0.859402
0.864754
1.03102
1.0873
1.3261
1.39163
1.64686
1.50798
1.56349
1.70047
1.99745
2.13247
2.27879
2.3217
2.37629
2.3717
2.38044
2.32924
2.28461
2.19541
2.12215
2.03915
1.96587
1.7332
1.5008
1.04382
0.597305
0.0412865
0.518246
1.06283
1.45825
1.90553
2.20157
2.55768
2.80099
1.12313
0.660049
2.78928
2.67439
2.64256
2.5703
2.58695
2.53696
2.61271
2.6339
2.77462
2.82154
3.02581
3.11567
3.38278
3.4706
3.74144
3.61102
3.66759
3.79818
4.10616
4.27477
4.45379
4.5285
4.61399
4.63943
4.67733
4.65443
4.63728
4.57471
4.52728
4.46931
4.42029
4.21111
4.00145
3.56649
3.14128
2.49617
1.99084
1.41247
0.978561
0.488792
0.147018
0.257385
0.550888
1.0755
2.80646
7.25854
7.2866
7.31467
7.22563
7.1348
6.91879
6.70156
6.37737
6.16127
5.90999
5.78809
5.62486
5.59448
5.52687
5.61663
5.63422
5.8227
5.8944
6.14351
5.85571
5.74715
5.7093
5.73067
5.70872
5.68658
5.7623
5.83665
5.89815
5.96232
5.82083
5.67933
5.3825
5.14664
4.71059
4.31987
3.73676
3.21584
2.49965
1.88643
1.2091
0.687675
0.103508
0.376709
1.09462
2.68019
7.2866
7.34451
7.40239
7.34274
7.28176
7.0955
6.90801
6.58204
6.33368
6.05104
5.89803
5.70643
5.65025
5.56008
5.63131
5.63313
5.81182
5.87344
6.11998
5.81459
5.69664
5.64954
5.66248
5.63263
5.60264
5.66022
5.71642
5.77139
5.82899
5.66659
5.51139
5.23917
5.03651
4.62844
4.26685
3.70874
3.21341
2.52029
1.8975
1.20618
0.67366
0.0817795
0.40258
1.10821
2.73444
7.31468
7.40238
7.49006
7.45985
7.42872
7.27222
7.11446
6.81633
6.54195
6.22491
6.03748
5.81392
5.72818
5.61159
5.66046
5.64289
5.80847
5.85718
6.0989
5.77437
5.64621
5.58978
5.59428
5.55653
5.51871
5.55815
5.59617
5.64463
5.69567
5.51868
5.39659
5.1605
4.99553
4.61979
4.29141
3.76217
3.29599
2.62924
2.0145
1.30936
0.765797
0.166168
0.322441
1.22753
2.89402
7.23769
7.35356
7.46941
7.4653
7.46224
7.31311
7.18342
6.92654
6.66086
6.31372
6.07037
5.81042
5.69985
5.55259
5.5754
5.53605
5.68051
5.71532
5.94943
5.60568
5.47303
5.40387
5.39666
5.34756
5.29724
5.3147
5.33471
5.37736
5.42036
5.27568
5.1982
4.99993
4.86182
4.51935
4.24874
3.75001
3.29841
2.65847
2.0621
1.34363
0.768547
0.159294
0.296188
1.29246
2.99854
7.14845
7.29285
7.43721
7.46138
7.48661
7.36601
7.26419
7.03466
6.79668
6.43066
6.14441
5.84347
5.69326
5.51112
5.50328
5.43777
5.56314
5.58047
5.80664
5.44154
5.29824
5.21642
5.19773
5.13654
5.07415
5.0702
5.06873
5.11023
5.20415
5.10725
5.07924
4.92355
4.82896
4.52418
4.29119
3.8261
3.40769
2.79822
2.23143
1.51323
0.926075
0.307495
0.156307
1.46964
3.21376
6.91696
7.08816
7.25937
7.31396
7.36614
7.29731
7.22013
7.00061
6.7866
6.4261
6.11028
5.75994
5.55511
5.33175
5.28186
5.18684
5.29424
5.29251
5.51481
5.12864
4.97084
4.87151
4.83668
4.75666
4.67762
4.64836
4.62183
4.71697
4.88662
4.8409
4.86552
4.75362
4.70872
4.44287
4.23914
3.80884
3.427
2.84987
2.32635
1.62637
1.01047
0.383015
0.0907021
1.57066
3.35078
6.70295
6.90091
7.09886
7.17937
7.25756
7.21344
7.16115
6.9655
6.77538
6.4393
6.11346
5.70993
5.45279
5.18273
5.08979
4.95917
5.03856
5.01307
5.22271
4.81274
4.64444
4.52737
4.47631
4.37777
4.28015
4.22832
4.23565
4.40717
4.65537
4.66738
4.75069
4.68823
4.69263
4.47012
4.30887
3.91687
3.57206
3.02919
2.53783
1.86864
1.24383
0.60458
0.120014
1.81466
3.6285
6.38477
6.59226
6.81269
6.90627
7.00771
6.98673
6.95528
6.76928
6.59761
6.28392
5.96021
5.50955
5.19851
4.87135
4.73045
4.55761
4.59855
4.54703
4.74063
4.30833
4.13483
3.99234
3.91761
3.79
3.66407
3.64041
3.70272
3.96191
4.30081
4.37506
4.5209
4.51191
4.56099
4.38373
4.26312
3.91142
3.61599
3.1101
2.63799
2.00211
1.41619
0.765308
0.245323
1.97032
3.81482
6.14875
6.34348
6.55091
6.64226
6.75618
6.75571
6.7453
6.57808
6.42484
6.12791
5.82139
5.37223
4.99154
4.60111
4.39952
4.17756
4.17732
4.09303
4.26726
3.80876
3.62573
3.45745
3.35897
3.20412
3.11161
3.14727
3.27149
3.62634
4.06172
4.20511
4.41959
4.46748
4.57192
4.44341
4.36913
4.05981
3.8037
3.33512
2.89793
2.29534
1.73415
1.0693
0.536648
2.28844
4.15994
5.86913
6.05057
6.24276
6.32573
6.4182
6.39522
6.37912
6.22183
6.08052
5.79425
5.5005
5.05861
4.61818
4.14918
3.86841
3.58759
3.54068
3.41895
3.56929
3.0886
2.90258
2.69622
2.56317
2.42569
2.38682
2.47692
2.65751
3.12268
3.66494
3.88422
4.17301
4.27971
4.45071
4.37483
4.34546
4.08241
3.86282
3.43521
3.04592
2.48102
1.94208
1.27914
0.752209
2.52663
4.42086
5.72591
5.89581
6.0745
6.13725
6.20969
6.14812
6.1036
5.92634
5.75997
5.45074
5.16263
4.7286
4.29773
3.75322
3.38356
3.03464
2.92751
2.75943
2.88149
2.37284
2.18012
1.9359
1.83265
1.75598
1.7802
1.93528
2.18226
2.76622
3.4263
3.72662
4.09366
4.27219
4.48757
4.46464
4.49367
4.27647
4.09896
3.71117
3.35923
2.82921
2.31717
1.65421
1.11829
2.91643
4.83291
5.54509
5.7044
5.87056
5.91636
5.96947
5.88169
5.80808
5.59119
5.38224
5.0183
4.67544
4.19953
3.749
3.17104
2.69386
2.2632
2.08089
1.85743
1.94527
1.42801
1.25578
0.990679
0.952145
0.919878
0.990553
1.18328
1.46687
2.18988
2.98614
3.37802
3.8324
4.08332
4.36728
4.40619
4.49192
4.32859
4.20058
3.85958
3.53079
2.99677
2.45921
1.79039
1.26288
3.09299
5.04052
5.50625
5.65823
5.81519
5.8365
5.87389
5.77459
5.67548
5.41534
5.16742
4.75965
4.35852
3.81742
3.29097
2.66052
2.09537
1.59059
1.34343
1.07863
1.14297
0.627987
0.486244
0.193741
0.218456
0.245028
0.375654
0.616558
0.943211
1.81091
2.7508
3.2369
3.77984
4.09137
4.45484
4.55378
4.68961
4.56763
4.44741
4.08618
3.72285
3.16165
2.60484
1.93811
1.40997
3.2724
5.25124
5.42112
5.56768
5.71753
5.72829
5.75251
5.63293
5.51137
5.21803
4.9338
4.47458
4.01802
3.40704
2.80585
2.10468
1.4478
0.877882
0.57159
0.250605
0.278025
0.213585
0.302591
0.633516
0.583055
0.523312
0.362457
0.192253
0.0579166
1.12245
2.25213
2.85541
3.50848
3.91837
4.37158
4.52564
4.67972
4.55017
4.42154
4.05097
3.67816
3.10751
2.54229
1.89937
1.39547
3.29057
5.30095
5.48299
5.62899
5.77685
5.79353
5.81007
5.67197
5.53423
5.21548
4.90173
4.39262
3.89229
3.21939
2.55459
1.79108
1.05201
0.421427
0.058485
0.317768
0.327208
0.795912
0.832602
1.20157
1.15644
1.05487
0.855272
0.75087
0.576174
0.684837
2.00106
2.71752
3.46223
3.91977
4.37825
4.52533
4.6702
4.53209
4.39778
4.01778
3.63599
3.05616
2.48575
1.86832
1.38959
3.31766
5.35983
5.48447
5.63099
5.77829
5.79081
5.80221
5.6535
5.50335
5.16312
4.82564
4.27959
3.73917
3.01454
2.29382
1.49221
0.701006
0.0548344
0.321333
0.781443
0.858986
1.29654
1.27417
1.64757
1.58253
1.41098
1.11264
0.916716
0.661926
0.59499
1.86235
2.62199
3.38162
3.85124
4.32196
4.47303
4.62214
4.48252
4.34632
3.96156
3.57529
2.98883
2.42733
1.83742
1.38544
3.3468
5.42097
5.65962
5.8127
5.96592
5.97828
5.99185
5.83645
5.68272
5.33183
4.98124
4.41272
3.84264
3.08015
2.32027
1.49766
0.675516
0.0313511
0.340572
0.871084
1.00692
1.40796
1.3261
1.70831
1.63233
1.43981
1.04768
0.788708
0.52874
0.612619
1.75323
2.52721
3.30121
3.78159
4.2634
4.41844
4.57483
4.43382
4.29329
3.90369
3.51114
2.91796
2.37469
1.81264
1.39187
3.38682
5.49317
5.71546
5.87431
6.03318
6.04779
6.06353
5.90435
5.74656
5.38027
5.01406
4.40818
3.80052
2.95911
2.11957
1.17127
0.222179
0.533268
1.01714
1.68675
1.95432
2.42737
2.40279
2.51424
2.15501
1.81853
1.31369
0.998915
0.683441
0.410206
1.50303
2.28789
3.07277
3.58397
4.09642
4.2696
4.44404
4.30892
4.17411
3.7827
3.38847
2.78912
2.27223
1.73803
1.34398
3.37279
5.51151
5.95067
6.12211
6.29399
6.31403
6.3409
6.19513
6.0437
5.66961
5.3005
4.67217
4.0441
3.14157
2.24094
1.19006
0.142355
0.691317
1.25912
2.04132
2.41992
2.95275
2.98408
2.83487
2.22739
1.92478
1.4668
1.19967
0.838556
0.207315
1.25287
2.0486
2.84433
3.38686
3.93029
4.12157
4.31269
4.18341
4.05309
3.65986
3.27013
2.66873
2.17812
1.67228
1.30311
3.36603
5.53725
5.63846
5.81652
5.99602
6.02621
6.06393
5.93108
5.79491
5.44045
5.09258
4.49113
3.8931
3.03138
2.17582
1.18889
0.203203
0.560358
1.0736
1.76767
2.06202
2.61587
2.67629
2.41155
1.85615
1.71936
1.40651
1.29175
1.04558
0.376696
0.329468
1.34073
2.35199
3.00879
3.66648
3.89559
4.12446
4.0027
3.88014
3.48182
3.08668
2.48768
2.02515
1.54441
1.19908
3.29634
5.5002
5.50492
5.69669
5.89142
5.94593
6.00323
5.88714
5.77675
5.45501
5.13216
4.55403
3.97676
3.13755
2.29802
1.33599
0.387796
0.229614
0.585869
1.10382
1.25153
1.79792
1.88982
1.66435
1.21483
1.25138
1.09626
1.14967
1.05284
0.877636
0.589499
0.633078
1.85988
2.6312
3.40271
3.66968
3.93617
3.82193
3.70809
3.30467
2.90129
2.31369
1.8834
1.42828
1.10583
3.23764
5.47424
5.43271
5.64979
5.86687
5.94076
6.01412
5.91024
5.80661
5.48589
5.16481
4.58433
4.00423
3.15287
2.30133
1.31051
0.402946
0.139011
0.409822
0.892239
1.0052
1.42864
1.47777
1.44816
1.22759
1.28368
1.13893
1.27587
1.24659
1.20654
1.0368
0.252281
1.63612
2.41451
3.19301
3.45399
3.71469
3.59129
3.46824
3.05456
2.64081
2.07364
1.67198
1.24454
0.948086
3.11461
5.38401
5.4431
5.66291
5.88274
5.95972
6.03663
5.93672
5.8365
5.51678
5.19745
4.61463
4.0317
3.16819
2.30464
1.30455
0.473911
0.00660896
0.181805
0.634417
0.720861
1.03115
1.04132
1.03769
1.00626
1.07387
0.938025
1.16269
1.20955
1.31618
1.27809
0.0417957
1.47417
2.19927
2.9833
3.23831
3.4932
3.36065
3.22838
2.80446
2.38139
1.84328
1.47085
1.07153
0.801327
3.00272
5.30497
5.4061
5.63346
5.86082
5.94344
6.0265
5.92976
5.83229
5.50891
5.18571
4.58612
3.98659
3.079
2.17123
1.14428
0.321486
0.125969
0.288853
0.726559
0.803419
1.00193
0.990011
0.978275
0.966539
1.13856
1.13154
1.4115
1.50718
1.6041
1.54376
0.665125
0.340014
1.23518
2.22892
2.55715
2.90149
2.81262
2.72388
2.32187
1.9299
1.44378
1.12286
0.766472
0.53698
2.77335
5.10847
5.36837
5.60336
5.83836
5.9296
6.01877
5.92297
5.82819
5.5008
5.17373
4.55757
3.94123
2.98958
2.06388
1.03541
0.219654
0.210226
0.352604
0.781622
0.856354
0.958546
0.938606
0.918779
0.898956
1.02191
1.11358
1.44145
1.5834
1.67266
1.59596
1.16706
0.599442
0.455484
1.62054
1.92201
2.30968
2.26431
2.21951
1.83942
1.48756
1.05415
0.783875
0.470749
0.283058
2.5545
4.92247
5.40114
5.66037
5.91961
6.04082
6.15918
6.09977
6.04216
5.76484
5.48782
4.93993
4.39172
3.52173
2.75035
1.83886
1.14731
0.261267
0.335424
0.77413
0.866449
0.905241
0.884426
0.863501
0.842573
0.924986
1.00734
1.3802
1.58496
1.6825
1.60944
1.27091
0.783976
0.266222
1.43779
1.60743
1.87425
1.74842
1.69201
1.30946
0.984493
0.591564
0.359779
0.0837059
0.0684738
2.23808
4.63883
5.4356
5.71904
6.00247
6.14911
6.29668
6.27606
6.25573
6.02871
5.80173
5.32344
4.84285
4.08469
3.4822
2.68728
2.11917
0.773806
0.2812
0.735802
0.853451
0.852251
0.830383
0.808376
0.786367
0.828222
0.869991
1.14915
1.39301
1.49201
1.41975
1.17225
0.769674
0.267387
1.43832
1.46708
1.60557
1.3582
1.1964
0.778255
0.491325
0.139614
0.0530128
0.291759
0.406895
1.93478
4.36823
5.48384
5.77421
6.06458
6.21575
6.3685
6.3519
6.3353
6.11085
5.88625
5.40899
4.93206
4.24788
3.7358
3.03618
2.5681
1.18882
0.098938
0.393471
0.55822
0.550192
0.539801
0.526083
0.512377
0.531622
0.550806
0.587263
0.623045
0.699873
0.618113
0.297878
0.180885
0.807331
1.57539
1.43382
1.41183
1.0204
0.724312
0.238792
0.039135
0.377876
0.556499
0.77874
0.877445
1.48981
3.94849
5.53396
5.83118
6.12838
6.28453
6.44248
6.431
6.41798
6.1934
5.97119
5.49437
5.05524
4.45496
4.03465
3.42893
3.05631
1.63926
0.509336
0.0265293
0.245813
0.247263
0.248934
0.243513
0.238089
0.234671
0.231682
0.0254021
0.181297
0.251736
0.360281
0.759409
1.31749
1.53422
1.89785
1.58163
1.39246
0.849854
0.458817
0.0312653
0.311325
0.650917
0.834972
1.05688
1.1558
1.2201
3.68694
5.37772
5.66915
5.96696
6.12796
6.29065
6.29094
6.28934
6.08573
5.8848
5.44681
5.11365
4.64304
4.35801
3.90073
3.67898
2.78827
2.1815
1.80211
1.71279
1.71445
1.71585
1.7204
1.72495
1.69687
1.66835
1.5823
1.49671
1.32549
1.15427
1.20486
1.40554
1.35788
1.45988
0.988247
0.649555
0.0215454
0.355015
0.821133
1.07752
1.39227
1.55152
1.74967
1.82458
0.549885
3.01538
5.27291
5.51431
5.80555
5.97139
6.13881
6.15088
6.16072
5.97806
5.79842
5.43405
5.2122
4.87099
4.72018
4.4094
4.33553
3.96719
3.87884
3.65078
3.67141
3.67616
3.68064
3.68433
3.68801
3.62841
3.56839
3.19001
2.81212
2.39923
1.98635
1.80119
1.65757
1.35101
1.19448
0.568146
0.105911
0.519344
0.887474
1.34015
1.58397
1.88519
2.03089
2.21624
2.27767
0.0853577
2.54004
5.04764
5.23608
5.47783
5.65103
5.82781
5.85287
5.87994
5.72682
5.58104
5.31787
5.20759
4.97904
4.94192
4.73139
4.75947
4.39029
4.29636
4.12256
4.14216
4.08355
4.02526
3.96424
3.9032
3.78769
3.67198
3.28599
2.90138
2.46978
2.03703
1.78323
1.52943
1.01915
0.651249
0.101952
0.581085
1.19716
1.56224
2.00332
2.23984
2.52907
2.65022
2.82319
2.87587
0.533875
1.9009
4.88457
5.02343
5.21109
5.33486
5.51198
5.56185
5.60599
5.47445
5.39762
5.24137
5.23298
5.11687
5.20268
5.08961
5.21144
4.83748
4.73532
4.61131
4.61494
4.49267
4.36987
4.24427
4.11868
3.94711
3.7758
3.38223
2.98971
2.5393
2.08717
1.76472
1.44229
0.834892
0.279564
0.498051
0.990482
1.60357
1.96727
2.40491
2.63696
2.92331
3.05218
3.2224
3.26892
0.956791
1.44963
4.53865
4.61573
4.73726
4.78986
4.89812
4.92563
4.95728
4.82302
4.79885
4.69656
4.74571
4.68597
4.83079
4.7743
4.95155
4.62278
4.56055
4.4873
4.48492
4.33697
4.18843
4.02131
3.85419
3.63951
3.42509
3.02272
2.6214
2.15946
1.69584
1.33506
0.988911
0.388031
0.178299
0.957447
1.45988
2.0717
2.43958
2.87738
3.11236
3.39969
3.52983
3.70055
3.74622
1.47178
0.898746
4.25463
4.27253
4.33074
4.31784
4.35357
4.29081
4.29887
4.20901
4.23807
4.18259
4.29772
4.29269
4.48512
4.48275
4.71938
4.43201
4.40261
4.36266
4.35519
4.18152
4.00821
3.79932
3.59043
3.33269
3.07384
2.66257
2.2557
1.80331
1.3685
1.03021
0.712292
0.146099
0.394646
1.17616
1.69845
2.31256
2.6948
3.13792
3.36798
3.6623
3.80474
3.98288
4.03782
1.80769
0.520424
3.76561
3.71484
3.70045
3.60812
3.55962
3.40607
3.36518
3.2808
3.33084
3.30837
3.46227
3.49642
3.7288
3.77034
4.049
3.81266
3.82851
3.8116
3.80388
3.62111
3.43871
3.2052
2.97171
2.69207
2.43106
2.05887
1.70854
1.31434
0.936466
0.636829
0.356319
0.162632
0.658665
1.43659
1.9693
2.58651
2.97914
3.43005
3.67112
3.97569
4.12907
4.31748
4.38235
2.20189
0.078434
3.32621
3.2098
3.12605
2.95209
2.84082
2.67933
2.63282
2.53409
2.57524
2.54327
2.69705
2.74334
3.0036
3.08555
3.39964
3.21077
3.26846
3.25988
3.25056
3.05902
2.87983
2.65306