<VTKFile type="ImageData" version="1.0" byte_order="LittleEndian" header_type="UInt64">
	<ImageData WholeExtent="0 44 0 44 0 44" Origin="-35.5677 -35.5677 -35.5677" Spacing="2.92888 2.92888 2.92888">
		<Piece Extent="0 44 0 44 0 44">
			<PointData Scalars="Scalars_">
				<DataArray type="Float32" Name="Scalars_" format="ascii" RangeMin="0" RangeMax="100">
63.532
61.8784
60.302
58.8082
57.4034
56.0941
54.8871
53.7895
52.8093
51.9543
51.2332
50.6542
50.228
49.9685
50.1199
50.3464
50.4879
50.6895
50.9595
51.3101
51.6998
52.0821
52.46
52.8525
53.2899
53.7849
54.3346
54.918
55.4962
56.0538
56.6052
57.1754
57.7878
58.4609
59.2086
60.0386
60.9545
61.9578
63.0467
64.2188
65.4711
66.7997
68.201
69.6711
71.2064
61.8786
60.188
58.574
57.043
55.6012
54.2552
53.0123
51.8803
50.8673
49.9819
49.233
48.6301
48.1844
47.9114
48.0553
48.2626
48.3513
48.5282
48.7793
49.117
49.4857
49.8331
50.1771
50.5399
50.9563
51.4361
51.9735
52.5417
53.0937
53.622
54.1509
54.7094
55.3204
56.0015
56.7653
57.6182
58.5625
59.5986
60.7238
61.9351
63.2286
64.5999
66.0453
67.5597
69.1401
60.3021
58.5746
56.9237
55.355
53.8758
52.4929
51.2139
50.0469
49.0004
48.0834
47.3058
46.6778
46.2117
45.9242
46.0572
46.2374
46.2655
46.418
46.6482
46.972
47.3141
47.6188
47.9263
48.2569
48.6507
49.1143
49.6382
50.1882
50.7084
51.2044
51.7114
52.26
52.8719
53.5638
54.3461
55.2246
56.1998
57.2711
58.435
59.6876
61.0243
62.4406
63.9314
65.4924
67.1191
58.8083
57.0444
55.3566
53.7511
52.2346
50.8149
49.4996
48.2973
47.2166
46.2675
45.4603
44.8062
44.3183
44.0157
44.1332
44.2754
44.238
44.3665
44.5733
44.8809
45.189
45.4427
45.7118
46.007
46.377
46.823
47.3322
47.8599
48.3417
48.8031
49.2898
49.8307
50.4461
51.1511
51.9549
52.8613
53.87
54.9791
56.184
57.4804
58.8626
60.3256
61.8639
63.4727
65.1474
57.4035
55.6041
53.8801
52.2384
50.6853
49.2292
47.8776
46.6398
45.5249
44.5432
43.7057
43.0247
42.5143
42.1955
42.2914
42.3814
42.2793
42.3819
42.5615
42.8505
43.1148
43.3095
43.5391
43.7948
44.1395
44.5668
45.0593
45.5603
45.9955
46.421
46.8894
47.4254
48.047
48.7678
49.5956
50.5327
51.5777
52.727
53.9756
55.3179
56.7477
58.2594
59.8471
61.5056
63.2299
56.0941
54.2605
52.5017
50.8246
49.2361
47.7443
46.3573
45.0845
43.9356
42.9212
42.0532
41.3445
40.8106
40.4746
40.54
40.5606
40.4008
40.4743
40.6216
40.888
41.0965
41.2249
41.4147
41.6256
41.9438
42.3507
42.8244
43.2926
43.6719
44.0621
44.515
45.0488
45.6792
46.4185
47.2732
48.2438
49.3279
50.5201
51.8147
53.2051
54.6848
56.2472
57.886
59.5957
61.3708
54.8871
53.0212
51.2294
49.5186
47.896
46.37
44.9488
43.642
42.4599
41.4134
40.5149
39.7781
39.2198
38.8651
38.8875
38.8259
38.6152
38.6542
38.7628
39.0014
39.1394
39.1969
39.3464
39.5056
39.7961
40.1809
40.6331
41.06
41.3737
41.7314
42.1723
42.7065
43.3483
44.1088
44.9931
46.0001
47.1257
48.3637
49.7069
51.1479
52.6795
54.2946
55.9863
57.7484
59.5754
53.7895
51.8934
50.071
48.329
46.6747
45.1167
43.6634
42.3245
41.1107
40.0331
39.1046
38.3396
37.756
37.3801
37.3423
37.1925
36.9362
36.9344
36.9963
37.1988
37.2503
37.2363
37.3432
37.4425
37.7047
38.0649
38.4919
38.8667
39.1052
39.4349
39.8674
40.4047
41.0605
41.8451
42.7618
43.8082
44.9783
46.2646
47.6588
49.1527
50.7383
52.4077
54.1536
55.9695
57.8494
52.8093
50.886
49.0359
47.2656
45.5828
43.9956
42.5131
41.145
39.9019
38.7952
37.838
37.0452
36.4349
36.0328
35.9169
35.6777
35.3788
35.3287
35.3346
35.4883
35.4387
35.3575
35.4151
35.4453
35.6788
36.0113
36.4083
36.717
36.8726
37.1807
37.6083
38.151
38.8233
39.6348
40.5868
41.6754
42.8928
44.23
45.6778
47.2267
48.868
50.5932
52.3946
54.2653
56.1991
51.9543
50.0075
48.1332
46.3387
44.6313
43.0192
41.5116
40.1181
38.8493
37.7166
36.733
35.9132
35.2742
34.8375
34.6276
34.3009
33.9597
33.8528
33.7931
33.8761
33.7207
33.5759
33.573
33.5271
33.7305
34.0308
34.3905
34.6161
34.6849
34.9789
35.4042
35.9545
36.6455
37.4866
38.4769
39.6105
40.8779
42.2687
43.7721
45.3779
47.0766
48.8589
50.7168
52.643
54.6309
51.233
49.2669
47.3732
45.559
43.832
42.2003
40.673
39.2597
37.9705
36.8164
35.8098
34.9642
34.294
33.8113
33.4942
33.0836
32.6977
32.523
32.3891
32.3709
32.1152
31.9076
31.8298
31.7046
31.8744
32.1356
32.4479
32.5706
32.5548
32.841
33.2662
33.8256
34.5378
35.4109
36.4423
37.6237
38.9437
40.3902
41.9512
43.6155
45.3726
47.213
49.1281
51.1101
53.1523
50.6543
48.6738
46.766
44.9381
43.1976
41.553
40.0133
38.5875
37.2853
36.1167
35.0923
34.2229
33.5177
32.9747
32.5412
32.0506
31.614
31.3579
31.1387
30.9936
30.644
30.3696
30.2023
29.9979
30.1275
30.3399
30.5896
30.5904
30.4994
30.7812
31.2074
31.7772
32.5122
33.4199
34.4951
35.7268
37.1014
38.6056
40.2257
41.9496
43.7662
45.665
47.6373
49.675
51.771
50.2284
48.2389
46.3232
44.4881
42.7419
41.0931
39.5503
38.1223
36.8178
35.6451
34.6113
33.7215
32.9755
32.3538
31.798
31.2304
30.7329
30.3789
30.059
29.7703
29.3313
28.982
28.712
28.4306
28.5104
28.66
28.8246
28.6935
28.5385
28.8161
29.2435
29.8242
30.5839
31.5282
32.6493
33.9332
35.3645
36.9275
38.6078
40.3919
42.2678
44.225
46.254
48.3465
50.4955
49.9685
47.9763
46.0589
44.2241
42.4808
40.838
39.3052
37.8915
36.6047
35.4496
34.4253
33.5213
32.7165
31.9849
31.3044
30.6587
30.0827
29.6119
29.173
28.7316
28.2055
27.7691
27.3859
27.0305
27.0468
27.1141
27.1597
26.9056
26.694
26.9657
27.3937
27.9854
28.7706
29.753
30.9213
32.2589
33.7477
35.3703
37.1107
38.9548
40.8896
42.9042
44.9887
47.1347
49.335
50.12
48.1414
46.2375
44.4162
42.6862
41.0569
39.5371
38.1354
36.8582
35.7073
34.6749
33.7387
32.8603
32.0044
31.1715
30.3932
29.6994
29.0934
28.5139
27.9151
27.3015
26.7613
26.2571
25.8305
25.764
25.722
25.6198
25.2551
24.9922
25.2539
25.6811
26.2828
27.0936
28.1145
29.3307
30.7222
32.2684
33.9501
35.7499
37.6525
39.6446
41.7145
43.8524
46.0496
48.2987
50.346
48.3944
46.5157
44.718
43.0104
41.4017
39.9006
38.5147
37.2491
36.103
35.0646
34.1078
33.1951
32.3005
31.4265
30.5799
29.7555
28.9382
28.1339
27.3729
26.6676
25.9972
25.3671
24.869
24.6913
24.5077
24.2411
23.7756
23.4652
23.7103
24.1344
24.7437
25.5785
26.637
27.9001
29.3444
30.9465
32.6852
34.542
36.5006
38.547
40.6693
42.8574
45.1024
47.3971
50.4862
48.5841
46.7541
45.0038
43.3409
41.7736
40.3101
38.9564
37.7162
36.586
35.5516
34.586
33.6555
32.7403
31.8408
30.957
30.0792
29.1925
28.2834
27.349
26.41
25.5289
24.7734
24.1955
23.8607
23.5072
23.0661
22.5073
22.1541
22.3709
22.7889
23.4009
24.256
25.3489
26.6559
28.1496
29.804
31.596
33.5057
35.516
37.6124
39.7827
42.0166
44.3052
46.641
50.6882
48.82
47.0278
45.3184
43.6984
42.1753
40.7548
39.4417
38.2364
37.1322
36.1119
35.1476
34.21
33.2838
32.3667
31.4534
30.531
29.5824
28.5955
27.5751
26.5459
25.5525
24.6517
23.8991
23.3176
22.7722
22.1463
21.5028
21.1128
21.28
21.6876
22.2939
23.1622
24.2834
25.6283
27.1654
28.8661
30.7051
32.6615
34.7173
36.8576
39.0698
41.3436
43.6702
46.042
50.9588
49.1221
47.3639
45.6909
44.1099
42.6272
41.2483
39.9754
38.8066
37.7317
36.73
35.7722
34.8323
33.8984
32.9653
32.0245
31.0638
30.0712
29.0416
27.9837
26.9212
25.8898
24.93
24.0584
23.2352
22.3875
21.5499
20.8377
20.4211
20.4919
20.8824
21.4694
22.3396
23.4789
24.8521
26.4234
28.161
30.0381
32.0323
34.125
36.301
38.5475
40.854
43.2118
45.6133
51.3096
49.5018
47.7741
46.1338
44.5871
43.1402
41.7975
40.5603
39.4242
38.3759
37.3911
36.4389
35.4952
34.5502
33.5974
32.629
31.6354
30.6089
29.5487
28.466
27.3871
26.3444
25.3654
24.4477
23.5538
22.6598
21.8089
21.0616
20.4919
20.0716
20.4275
20.9797
21.8382
22.9823
24.3706
25.9628
27.7243
29.6266
31.6463
33.7644
35.9654
38.2362
40.5666
42.9476
45.3719
51.699
49.9248
48.2314
46.6254
45.1136
43.7012
42.3924
41.1872
40.0791
39.0517
38.0774
37.1249
36.173
35.2145
34.2443
33.2564
32.2427
31.1965
30.1186
29.0219
27.9334
26.8829
25.8883
24.9405
24.0129
23.1037
22.248
21.4803
20.8543
20.3928
20.2142
20.8795
21.8756
23.1256
24.585
26.2218
28.0094
29.9254
31.9505
34.0687
36.2662
38.5316
40.8551
43.2285
45.645
52.0809
50.35
48.6988
47.134
45.6618
44.2873
43.0134
41.8386
40.7541
39.7409
38.7704
37.8132
36.853
35.886
34.9082
33.9133
32.8927
31.8386
30.7519
29.646
28.5472
27.4839
26.474
25.5123
24.5793
23.6723
22.8181
22.0387
21.3713
20.8554
20.5989
21.2708
22.2793
23.5475
25.0257
26.6777
28.4751
30.3955
32.4204
34.5347
36.7256
38.9824
41.2962
43.6591
46.0649
52.4589
50.7717
49.1646
47.6434
46.2136
44.879
43.6411
42.4961
41.4327
40.4305
39.4612
38.5009
37.5384
36.571
35.5944
34.6006
33.5793
32.5216
31.4282
30.3134
29.2046
28.1311
27.1127
26.1489
25.2205
24.3161
23.4544
22.6602
21.9758
21.4522
21.2183
21.8882
22.8961
24.1651
25.6447
27.2969
29.0928
31.0094
33.0282
35.1344
37.3154
39.561
41.8626
44.2129
46.6056
52.851
51.2083
49.6455
48.1684
46.7815
45.4871
44.2852
43.1697
42.1273
41.1363
40.1714
39.2136
38.2551
37.2928
36.3212
35.3309
34.3109
33.2521
32.1556
31.0377
29.9272
28.8538
27.8377
26.8799
25.9599
25.0607
24.2
23.4095
22.7375
22.2419
22.1104
22.7656
23.755
25.0049
26.4657
28.0999
29.8784
31.778
33.7801
35.8695
38.0339
40.2628
42.5478
44.8818
47.2583
53.2887
51.6876
50.1677
48.7337
47.3889
46.1345
44.9682
43.8822
42.8611
41.8829
40.9253
39.9731
39.0205
38.064
37.097
36.1097
35.0916
34.034
32.9385
31.8231
30.7171
29.6499
28.6417
27.6938
26.7854
25.9
25.0587
24.2974
23.6638
23.2136
23.2256
23.8648
24.8291
26.0497
27.4797
29.0834
30.8323
32.7036
34.6787
36.7425
38.8824
41.0881
43.3508
45.6633
48.0195
53.7842
52.2223
50.7431
49.3505
48.0465
46.8308
45.6995
44.6421
43.6415
42.6755
41.7247
40.7771
39.8285
38.8751
37.9105
36.925
35.9081
34.8517
33.758
32.6463
31.546
30.486
29.4864
28.5488
27.6544
26.791
25.9838
25.2718
24.7031
24.3312
24.4879
25.1248
26.0688
27.26
28.6561
30.2241
31.9372
33.7735
35.7149
37.7466
39.8559
42.0325
44.2678
46.5544
48.8857
54.3343
52.8095
51.3687
50.0151
48.7495
47.5702
46.4706
45.4385
44.4545
43.497
42.5493
41.603
40.6551
39.7015
38.7356
37.7471
36.725
35.6632
34.5669
33.4574
32.3645
31.3159
30.3289
29.4037
28.5243
27.6858
26.9156
26.2543
25.7586
25.5421
25.8254
26.4809
27.4174
28.5872
29.9538
31.4879
33.1651
34.9648
36.87
38.8664
40.9419
43.0861
45.2905
47.5475
49.851
54.9177
53.4297
52.0258
50.7088
49.4784
48.3314
47.2593
46.247
45.2741
44.3202
43.3723
42.4244
41.4741
40.5161
39.543
38.5443
37.5104
36.4388
35.339
34.2342
33.153
32.1203
31.1497
30.2387
29.3748
28.5605
27.8255
27.2104
26.772
26.7787
27.1734
27.8697
28.817
29.9793
31.3269
32.8347
34.4811
36.2477
38.1186
40.0805
42.1219
44.2329
46.4052
48.6313
50.9052
55.4954
54.048
52.6834
51.4034
50.2068
49.0891
48.0399
47.0425
46.076
45.1228
44.1727
43.2213
42.2656
41.2998
40.3163
39.3058
38.2617
37.1846
36.0867
34.9903
33.9214
32.9019
31.9427
31.0424
30.1943
29.4073
28.7125
28.1494
27.7636
27.9749
28.4783
29.2344
30.2119
31.3842
32.7277
34.2214
35.8468
37.5879
39.4306
41.3625
43.373
45.4529
47.5945
49.7905
52.035
56.0529
54.6473
53.3227
52.08
50.9168
49.8267
48.7975
47.8117
46.849
45.8947
44.9409
43.9846
43.0219
42.0475
41.0543
40.0347
38.984
37.9049
36.81
35.7208
34.6609
33.6505
32.6997
31.8092
30.9788
30.2232
29.5744
29.074
28.7656
29.1121
29.7123
30.5358
31.5577
32.756
34.111
35.605
37.2224
38.949
40.7724
42.682
44.6681
46.7222
48.837
51.006
53.2236
56.6048
55.2362
53.9483
52.74
51.6076
50.5425
49.5308
48.5535
47.5927
46.636
45.6783
44.7167
43.7478
42.7663
41.7655
40.7385
39.6815
38.5984
37.5031
36.4178
35.366
34.3664
33.4281
32.5525
31.7439
31.0222
30.4204
29.9855
29.8025
30.2224
30.8909
31.7714
32.8382
34.0692
35.4458
36.9518
38.5729
40.2966
42.1117
44.0086
45.9786
48.0141
50.1086
52.2559
54.451
57.1753
55.8359
54.5772
53.397
52.2894
51.2441
50.245
49.2735
48.313
47.3542
46.3934
45.4288
44.4563
43.4706
42.4646
41.4311
40.367
39.2784
38.182
37.1008
36.0584
35.072
34.1494
33.2925
32.5081
31.8184
31.2569
30.8731
30.8677
31.3314
32.0439
32.9647
34.0664
35.3263
36.7255
38.2479
39.8795
41.6083
43.4237
45.3166
47.2791
49.3041
51.3856
53.518
55.6965
57.7877
56.4695
55.2315
54.0705
52.979
51.9452
50.9524
49.9822
49.0206
48.0602
47.0987
46.1335
45.1604
44.1729
43.1631
42.1245
41.0559
39.9656
38.8715
37.7972
36.7649
35.7915
34.8853
34.0497
33.2924
32.6334
32.1049
31.7527
31.922
32.4328
33.1822
34.134
35.2617
36.5436
37.9611
39.498
41.1408
42.8774
44.6973
46.5918
48.5528
50.5739
52.6488
54.7727
56.941
58.4611
57.1576
55.9324
54.7819
53.6976
52.6663
51.6718
50.697
49.7304
48.7672
47.8045
46.839
45.865
44.8751
43.8615
42.8191
41.7487
40.6603
39.5725
38.5079
37.4882
36.5299
35.6427
34.8312
34.104
33.48
32.9896
32.6722
32.9626
33.5252
34.3107
35.2896
36.4385
37.737
39.1677
40.7154
42.3668
44.1099
45.9345
47.8319
49.7942
51.8147
53.8874
56.0075
58.1703
59.2083
57.915
56.6975
55.5509
54.4658
53.4292
52.4254
51.4397
50.463
49.4912
48.5221
47.5508
46.5708
45.5748
44.5561
43.511
42.4414
41.3574
40.2775
39.2235
38.2168
37.274
36.4059
35.619
34.9233
34.3405
33.9042
33.6602
34.0199
34.6252
35.4415
36.4429
37.6085
38.9194
40.3594
41.914
43.5703
45.3172
47.1444
49.0435
51.0067
53.0273
55.0991
57.2175
59.3776
60.0383
58.7522
57.5384
56.391
55.3
54.2522
53.2337
52.2315
51.239
50.2528
49.2698
48.2849
47.292
46.2851
45.2587
44.2095
43.1397
42.0593
40.986
39.9411
38.9455
38.017
37.1681
36.4071
35.7458
35.2072
34.8304
34.715
35.1138
35.7494
36.5884
37.6067
38.7842
40.1032
41.5484
43.106
44.764
46.5112
48.3382
50.2367
52.1987
54.2179
56.2884
58.405
60.5629
60.9545
59.674
58.4616
57.3104
56.2102
55.1482
54.1115
53.0901
52.078
51.0727
50.0706
49.0667
48.056
47.0334
45.9945
44.9361
43.8604
42.7777
41.7054
40.6648
39.6775
38.7623
37.9341
37.2033
36.5819
36.0915
35.7705
35.8117
36.2415
36.9012
37.758
38.7885
39.9738
41.2973
42.7443
44.3018
45.958
47.7027
49.5265
51.4214
53.38
55.3956
57.4628
59.576
61.7308
61.9578
60.6813
59.4687
58.3121
57.2013
56.124
55.0684
54.0263
52.9936
51.9673
50.9438
49.9184
48.8867
47.8441
46.7858
45.709
44.617
43.5212
42.4408
41.3977
40.415
39.5129
38.7073
38.0092
37.431
36.9953
36.7485
36.9234
37.3904
38.0749
38.948
39.9891
41.1802
42.5057
43.9522
45.5071
47.1594
48.8989
50.7172
52.6062
54.5589
56.569
58.6304
60.7384
62.8884
63.0467
61.7739
60.5603
59.3976
58.2754
57.1822
56.1083
55.0467
53.9936
52.9462
51.9006
50.8527
49.7977
48.7303
47.6454
46.5414
45.4241
44.3078
43.2141
42.1666
41.1888
40.3005
39.5169
38.8488
38.3089
37.9238
37.781
38.0481
38.5554
39.2654
40.1552
41.2064
42.4025
43.7295
45.1741
46.725
48.3718
50.1047
51.9157
53.7969
55.7418
57.7441
59.798
61.8989
64.042
64.2189
62.9494
61.7344
60.5654
59.4322
58.3242
57.2332
56.1532
55.0808
54.0131
52.9459
51.8747
50.7937
49.6974
48.5811
47.4456
46.3004
45.1638
44.0591
43.0107
42.0411
41.1685
40.4059
39.7629
39.2516
38.9017
38.8775
39.2029
39.7452
40.4783
41.3833
42.4431
43.6431
44.9702
46.412
47.9579
49.5979
51.3231
53.1253
54.9974
56.9331
58.9261
60.9709
63.0631
65.198
65.4711
64.2048
62.9882
61.8129
60.6694
59.5481
58.4414
57.3444
56.2544
55.1675
54.0791
52.9839
51.8753
50.7477
49.5987
48.4323
47.2629
46.1115
45.0024
43.9588
43.0014
42.1462
41.4038
40.7823
40.2935
39.9656
40.0449
40.4092
40.9779
41.7285
42.644
43.7091
44.9103
46.235
47.6722
49.2113
50.8431
52.5588
54.351
56.2127
58.1375
60.1197
62.154
64.2357
66.3609
66.8002
65.5363
64.3184
63.1375
61.9845
60.8511
59.7305
58.6187
57.5123
56.4068
55.2974
54.1772
53.0402
51.8814
50.7016
49.5097
48.3229
47.1644
46.0576
45.0244
44.0828
43.2462
42.5238
41.9224
41.4523
41.1406
41.2941
41.6866
42.2726
43.0336
43.9538
45.0193
46.2173
47.5361
48.9652
50.4946
52.1154
53.8195
55.5995
57.4488
59.3611
61.3308
63.3529
65.4226
67.5361
68.2014
66.9409
65.7214
64.5355
63.3741
62.2302
61.0974
59.9722
58.8504
57.7271
56.5962
55.4512
54.2861
53.0984
51.8927
50.6818
49.4857
48.3271
47.229
46.2101
45.2866
44.4703
43.7679
43.1858
42.733
42.4352
42.6367
43.048
43.6441
44.4084
45.3272
46.3874
47.5774
48.8859
50.3028
51.8191
53.4257
55.1152
56.8803
58.7146
60.6119
62.567
64.5747
66.6305
68.7303
69.6716
68.4138
67.1935
66.0034
64.8348
63.6814
62.5382
61.4004
60.2639
59.1229
57.9711
56.8017
55.6102
54.3976
53.1721
51.9497
50.7514
49.5994
48.5141
47.5128
46.6094
45.8138
45.132
44.5688
44.1328
43.8475
44.0779
44.501
45.1004
45.8624
46.7746
47.8246
49.0017
50.2955
51.6964
53.1953
54.7845
56.456
58.2029
60.0192
61.8988
63.8365
65.8275
67.8671
69.9513
71.2068
69.952
68.7315
67.5376
66.3627
65.2012
64.0485
62.899
61.7483
60.5898
59.4173
58.2246
57.0099
55.7773
54.5386
53.3116
52.1175
50.9767
49.908
48.9267
48.0446
47.2703
46.609
46.0646
45.645
45.3719
45.6185
46.047
46.6448
47.3998
48.3008
49.3367
50.4969
51.7721
53.1533
54.6317
56.1997
57.85
59.5758
61.3711
63.2301
65.1477
67.1191
69.1399
71.206
61.8785
60.1881
58.5746
57.0444
55.6041
54.2605
53.021
51.8933
50.886
50.0076
49.2671
48.6739
48.2389
47.9763
48.1414
48.3947
48.5853
48.821
49.1225
49.502
49.9257
50.3508
50.7725
51.2092
51.6884
52.2229
52.8098
53.4298
54.0484
54.6476
55.2364
55.836
56.4697
57.1576
57.9152
58.7522
59.674
60.6814
61.7739
62.9495
64.2047
65.5363
66.9404
68.4137
69.9517
60.1879
58.4577
56.8043
55.234
53.7538
52.3706
51.0925
49.9275
48.8845
47.9728
47.2022
46.5828
46.1267
45.8492
46.0088
46.2481
46.3907
46.5997
46.8823
47.2498
47.6554
48.0499
48.4401
48.8494
49.3092
49.8297
50.4055
51.012
51.6079
52.1803
52.7474
53.3347
53.9664
54.6621
55.4363
56.2974
57.2488
58.2907
59.4214
60.638
61.9364
63.3128
64.7628
66.2825
67.8673
58.5742
56.8043
55.1107
53.5002
51.9797
50.5566
49.239
48.0359
46.9563
46.0103
45.2081
44.5612
44.0824
43.7891
43.9401
44.1588
44.2427
44.4255
44.6877
45.042
45.4246
45.7815
46.1363
46.5157
46.9546
47.46
48.0232
48.6136
49.1818
49.7245
50.2697
50.8463
51.4782
52.1846
52.9782
53.866
54.85
55.9293
57.1008
58.3608
59.7049
61.1283
62.6263
64.1942
65.8274
57.043
55.234
53.5009
51.8501
50.2892
48.8259
47.4686
46.2267
45.1098
44.1282
43.2935
42.6177
42.1149
41.8048
41.9434
42.1318
42.1486
42.3055
42.5452
42.8847
43.2379
43.5485
43.8653
44.2119
44.6278
45.1167
45.6661
46.237
46.7717
47.2813
47.8056
48.3737
49.0085
49.7283
50.5442
51.4618
52.4815
53.6007
54.8159
56.1221
57.5142
58.9868
60.5347
62.1529
63.8365
55.6011
53.7538
51.9815
50.2912
48.6903
47.187
45.7901
44.5092
43.3544
42.3367
41.4682
40.7625
40.2346
39.9065
40.0276
40.173
40.1176
40.2484
40.4623
40.7847
41.1
41.3552
41.632
41.9421
42.3334
42.804
43.3377
43.8849
44.3788
44.8537
45.3583
45.9202
46.5609
47.2971
48.1385
49.0891
50.1472
51.3096
52.5712
53.9262
55.3689
56.893
58.493
60.1632
61.8985
54.255
52.3707
50.5605
48.8316
47.1917
45.6492
44.2131
42.8933
41.7007
40.6466
39.744
39.0072
38.4532
38.1059
38.202
38.2874
38.1619
38.2643
38.4477
38.7499
39.0156
39.2066
39.4426
39.7113
40.0759
40.5265
41.0424
41.5607
42.0052
42.4444
42.9317
43.4902
44.1397
44.8954
45.7657
46.7522
47.8521
49.0607
50.3716
51.7783
53.274
54.8519
56.5058
58.2299
60.0188
53.0124
51.0926
49.2461
47.4804
45.803
44.2227
42.7485
41.3908
40.1609
39.0707
38.1338
37.3655
36.7842
36.4165
36.4771
36.483
36.2953
36.3647
36.5112
36.7888
36.991
37.1099
37.305
37.5255
37.8614
38.2899
38.7858
39.2683
39.6536
40.0578
40.5308
41.0886
41.7497
42.5283
43.4307
44.4567
45.6017
46.8596
48.2229
49.6839
51.2351
52.8691
54.5791
56.3589
58.2026
51.8804
49.9276
48.0475
46.2471
44.5344
42.9183
41.4081
40.0145
38.7487
37.6234
36.6526
35.8526
35.2432
34.8534
34.8629
34.7758
34.533
34.563
34.6645
34.9109
35.0325
35.075
35.2282
35.3917
35.6973
36.1015
36.5741
37.0115
37.3272
37.6991
38.1612
38.7214
39.3972
40.202
41.1399
42.2089
43.4025
44.7129
46.1316
47.6496
49.2587
50.9509
52.7187
54.5557
56.4555
50.8674
48.8846
46.9737
45.1419
43.3972
41.7484
40.2053
38.7784
37.4794
36.321
35.3178
34.4865
33.848
33.4329
33.3711
33.1845
32.892
32.8746
32.9211
33.1263
33.1489
33.1153
33.223
33.3188
33.5927
33.9697
34.415
34.795
35.0307
35.3757
35.8304
36.3957
37.0892
37.9235
38.9008
40.0163
41.262
42.6282
44.1051
45.6828
47.3521
49.1043
50.9316
52.8269
54.7839
49.9819
47.9727
46.0351
44.1759
42.4033
40.7262
39.1545
37.6986
36.3702
35.1822
34.1491
33.2878
32.6191
32.1722
32.018
31.7312
31.3913
31.3173
31.2972
31.4446
31.3536
31.2482
31.3013
31.3179
31.5591
31.905
32.3174
32.6241
32.7716
33.0962
33.547
34.1198
34.8342
35.7016
36.7218
37.8876
39.1887
40.614
42.1519
43.7916
45.5232
47.3371
49.2252
51.1799
53.1946
49.2328
47.2019
45.2421
43.3606
41.5655
39.8658
38.2713
36.7924
35.4407
34.2283
33.1696
32.2804
31.58
31.091
30.8251
30.4407
30.0526
29.9104
29.8128
29.8732
29.6671
29.4931
29.4768
29.4049
29.6114
29.9201
30.2913
30.5051
30.5603
30.8722
31.3216
31.9042
32.6427
33.5467
34.6134
35.833
37.1931
38.6802
40.2818
41.9857
43.7812
45.6582
47.608
49.6226
51.6953
48.63
46.5827
44.6065
42.7086
40.8977
39.1827
37.5733
36.0797
34.7129
33.4843
32.4065
31.493
30.7587
30.2129
29.8195
29.3417
28.9012
28.6755
28.4903
28.4279
28.1136
27.8701
27.7653
27.6011
27.7676
28.0303
28.3483
28.4467
28.4123
28.7171
29.1671
29.7615
30.5267
31.471
32.5879
33.8648
35.2866
36.8384
38.5058
40.2756
42.1362
44.0771
46.0889
48.1637
50.2944
48.1844
46.1266
44.1404
42.2336
40.4151
38.6939
37.08
35.5834
34.214
32.9817
31.8955
30.9639
30.192
29.5688
29.0348
28.4687
27.9665
27.6384
27.351
27.1379
26.7213
26.4018
26.1894
25.9324
26.0502
26.2539
26.5002
26.4617
26.3478
26.6481
27.0995
27.7071
28.5017
29.4892
30.6596
31.9969
33.4833
35.1018
36.8366
38.6735
40.5998
42.6046
44.6784
46.8126
49.0004
47.9113
45.8492
43.8599
41.9521
40.135
38.4189
36.8146
35.3331
33.9842
32.7754
31.7079
30.7729
29.9478
29.2031
28.5175
27.866
27.2841
26.8299
26.4212
26.0377
25.5234
25.116
24.7781
24.4303
24.4864
24.6122
24.7586
24.5748
24.3908
24.6858
25.1386
25.76
26.5861
27.6195
28.8462
30.2462
31.7992
33.4857
35.2887
37.1927
39.1845
41.2527
43.3873
45.5797
47.8228
48.0552
46.0085
44.0346
42.1419
40.3402
38.6395
37.0506
35.5839
34.2482
33.0485
31.9801
31.0217
30.1312
29.2645
28.4155
27.6148
26.9004
26.2932
25.7394
25.1709
24.5616
24.0478
23.5688
23.1339
23.1091
23.1304
23.1363
22.8174
22.5694
22.856
23.309
23.9439
24.8026
25.8839
27.1684
28.6326
30.2528
32.0076
33.8782
35.8485
37.9045
40.0341
42.2275
44.4761
46.7723
48.2622
46.2476
44.3038
42.4391
40.6636
38.9875
37.421
35.9739
34.6541
33.4635
32.3937
31.4185
30.4952
29.5895
28.7026
27.8438
27.0115
26.1897
25.373
24.5975
23.8953
23.2431
22.6101
22.0911
21.9567
21.8377
21.6712
21.2267
20.9192
21.191
21.6422
22.2887
23.1795
24.3086
25.6513
27.1792
28.8657
30.6874
32.6238
34.6578
36.7751
38.9633
41.2123
43.5134
45.8593
48.3501
46.3894
44.5001
42.6899
40.9669
39.3405
37.8199
36.4133
35.1267
33.9595
32.8999
31.9201
30.9812
30.0573
29.1487
28.2573
27.3755
26.4888
25.5805
24.6435
23.6852
22.7666
21.9711
21.3668
21.0712
20.7747
20.4122
19.8488
19.4863
19.7319
20.1785
20.8316
21.7512
22.9259
24.3242
25.9131
27.6629
29.5476
31.5458
33.6394
35.8135
38.0557
40.3556
42.7049
45.0962
48.5271
46.5988
44.7465
42.9777
41.2999
39.7211
38.249
36.8897
35.6457
34.5127
33.4743
32.5006
31.5574
30.6259
29.7039
28.7882
27.8669
26.9226
25.9379
24.9122
23.8634
22.8342
21.8885
21.0949
20.5074
20.0042
19.4203
18.7447
18.3339
18.5318
18.9698
19.6193
20.5602
21.774
23.222
24.8659
26.6725
28.6138
30.6671
32.8137
35.0381
37.3279
39.6728
42.0644
44.4954
48.7785
46.882
45.064
43.3323
41.6946
40.1585
38.7309
37.4161
36.2142
35.1167
34.1029
33.1402
32.1977
31.2617
30.3275
29.3879
28.4309
27.444
26.4181
25.3559
24.2761
23.2128
22.2164
21.32
20.4998
19.6489
18.7761
18.0044
17.5573
17.66
18.0821
18.7095
19.6576
20.8989
22.3856
24.0739
25.9269
27.9148
30.0135
32.2036
34.4697
36.7989
39.1812
41.6079
44.0721
49.1164
47.2495
45.4631
43.7648
42.1623
40.6633
39.2738
37.9974
36.8317
35.7652
34.7724
33.8185
32.8744
31.9294
30.9775
30.0121
29.0237
28.0035
26.9464
25.8575
24.7608
23.6918
22.6877
21.755
20.8518
19.939
19.0565
18.264
17.66
17.2078
17.5939
18.1715
19.1062
20.357
21.8658
23.5823
25.4663
27.4859
29.6161
31.8371
34.1331
36.4914
38.902
41.3563
43.8476
49.4848
47.6545
45.9049
44.2436
42.6785
41.2165
39.8636
38.6221
37.4874
36.4448
35.4653
34.5125
33.5608
32.6031
31.6354
30.6526
29.647
28.6092
27.5353
26.4321
25.326
24.2518
23.2369
22.2762
21.3365
20.407
19.5242
18.7173
18.0513
17.5527
17.3504
18.094
19.191
20.5529
22.1302
23.8859
25.79
27.8176
29.9483
32.1652
34.4544
36.8044
39.2059
41.6509
44.133
49.8316
48.049
46.3463
44.7308
43.2099
41.7903
40.4766
39.2694
38.162
37.1363
36.1618
35.2044
34.2446
33.2794
32.3062
31.3195
30.3105
29.268
28.1874
27.0761
25.9599
24.8723
23.8408
22.8659
21.9226
20.9988
20.122
19.3103
18.6021
18.0409
17.761
18.5146
19.6295
21.0146
22.6127
24.3829
26.2945
28.3234
30.4504
32.66
34.9393
37.2779
39.6671
42.0994
44.5688
50.176
48.4392
46.7833
45.215
43.7406
42.3654
41.0924
39.9197
38.8375
37.8254
36.8531
35.8929
34.9316
33.9675
32.9978
32.0149
31.008
29.9645
28.8784
27.7587
26.6324
25.534
24.4927
23.5157
22.58
21.6619
20.7776
19.9497
19.2259
18.6611
18.4223
19.1732
20.2874
21.6733
23.272
25.0411
26.9492
28.9718
31.0901
33.2887
35.5556
37.8806
40.2554
42.6732
45.1281
50.5385
48.8484
47.2397
45.7186
44.2907
42.9601
41.7275
40.589
39.5319
38.534
37.5677
36.6107
35.6548
34.6974
33.7343
32.7566
31.7525
30.7094
29.6214
28.4993
27.3725
26.2757
25.2379
24.2683
23.3434
22.4328
21.5504
20.7283
20.0217
19.4923
19.3891
20.1195
21.2085
22.5689
24.1432
25.8894
27.7757
29.7775
31.8754
34.0542
36.3016
38.6075
40.9635
43.3629
45.7997
50.955
49.3082
47.7445
46.2693
44.8869
43.6002
42.4078
41.3032
40.2716
39.2895
38.3319
37.3814
36.4321
35.4811
34.5231
33.5489
32.5474
31.5061
30.4198
29.301
28.1797
27.0904
26.0616
25.1027
24.1899
23.2945
22.4349
21.6495
20.9916
20.5196
20.5877
21.2986
22.3557
23.6791
25.2153
26.9242
28.7749
30.7433
32.8099
34.9592
37.1789
39.4586
41.7898
44.1657
46.5803
51.4353
49.829
48.3079
46.8766
45.5382
44.294
43.1406
42.0688
41.061
40.0932
39.1431
38.1973
37.2518
36.3036
35.3477
34.3752
33.3747
32.3343
31.2493
30.1338
29.0181
27.936
26.9157
25.9662
25.0659
24.1918
23.3686
22.6397
22.0605
21.6944
21.9218
22.6329
23.666
24.954
26.4498
28.1167
29.9259
31.8541
33.8824
35.9956
38.1813
40.4291
42.7304
45.0779
47.4661
51.9733
50.4052
48.924
47.5335
46.2362
45.0312
43.9132
42.8697
41.881
40.9226
39.9753
39.0302
38.0845
37.1355
36.1776
35.2012
34.1939
33.1451
32.0537
30.9378
29.8285
28.7588
27.7531
26.8159
25.9279
25.0767
24.2896
23.6104
23.1053
22.9468
23.3084
24.0449
25.0711
26.3352
27.7976
29.4262
31.195
33.0825
35.0709
37.1455
39.2943
41.507
43.7751
46.0913
48.4497
52.5414
51.0116
49.5693
48.2175
46.9577
45.7874
44.6991
43.6778
42.7012
41.7464
40.7982
39.851
38.9025
37.9489
36.9834
35.9954
34.9735
33.9109
32.8122
31.6986
30.6009
29.549
28.5618
27.6392
26.7643
25.9346
25.1807
24.5468
24.0935
24.1947
24.677
25.4636
26.5048
27.7628
29.2056
30.8064
32.5423
34.3943
36.3461
38.384
40.4967
42.6743
44.9086
47.1924
49.5198
53.0929
51.6074
50.2074
48.8958
47.6729
46.5347
45.4716
44.4667
43.4975
42.5433
41.5927
40.6421
39.6884
38.7271
37.7507
36.7503
35.7168
34.647
33.549
32.4434
31.358
30.3192
29.3425
28.4278
27.5655
26.7613
26.0484
25.4715
25.077
25.38
25.9784
26.8325
27.9097
29.1813
30.6221
32.2097
33.9249
35.7512
37.6742
39.6814
41.7625
43.9083
46.111
48.3641
50.6615
53.6211
52.1801
50.823
49.552
48.3656
47.2581
46.2179
45.2265
44.2619
43.307
42.3532
41.3978
40.4375
39.4676
38.4818
37.4722
36.4315
35.3586
34.2622
33.1626
32.0854
31.055
30.0853
29.1779
28.3302
27.5558
26.8897
26.3811
26.0828
26.5053
27.1978
28.1211
29.2455
30.5462
32.0011
33.5914
35.3005
37.1138
39.0188
41.0047
43.0619
45.1824
47.3588
49.5851
51.8558
54.1505
52.7472
51.4281
50.1937
49.0406
47.9609
46.9405
45.9597
44.9978
44.0409
43.0834
42.1232
41.1572
40.1811
39.1886
38.1717
37.1238
36.0448
34.9452
33.8469
32.7767
31.7571
30.8005
29.9076
29.0803
28.3388
27.7191
27.2767
27.133
27.6155
28.3672
29.3424
30.5091
31.8417
33.3188
34.9222
36.6366
38.4489
40.3474
42.3223
44.3652
46.4688
48.6263
50.8321
53.0813
54.7092
53.3345
52.0448
50.839
49.7119
48.6534
47.6475
46.6734
45.7124
44.7536
43.7937
42.8309
41.8625
40.8836
39.887
38.864
37.8084
36.722
35.6185
34.5225
33.4607
32.4544
31.5138
30.6395
29.8359
29.1255
28.5451
28.1504
28.2087
28.7313
29.5206
30.5296
31.7256
33.0828
34.5794
36.1975
37.9219
39.7394
41.6392
43.6116
45.6486
47.7434
49.8897
52.0823
54.3167
55.3202
53.9662
52.6967
51.5098
50.3988
49.3522
48.3525
47.3796
46.417
45.4567
44.4964
43.5341
42.5662
41.5868
40.5874
39.5597
38.499
37.4098
36.308
35.2181
34.166
33.172
32.247
31.3937
30.618
29.9395
29.3924
29.0274
29.2636
29.8382
30.6633
31.6992
32.9164
34.2906
35.8011
37.4303
39.1631
40.9866
42.89
44.8636
46.8998
48.9914
51.1325
53.3182
55.544
56.0016
54.662
53.4053
52.2286
51.1243
50.0795
49.0769
48.0977
47.1288
46.1643
45.2025
44.2401
43.2717
42.2903
41.2873
40.2554
39.192
38.104
37.0081
35.9279
34.8882
33.909
33.0027
32.1739
31.4293
30.7884
30.2844
29.96
30.3091
30.9378
31.7983
32.859
34.0938
35.4806
37.0003
38.6362
40.3739
42.201
44.1068
46.0819
48.1181
50.2088
52.3479
54.5303
56.7516
56.765
55.4362
54.1874
53.0147
51.9091
50.858
49.8443
48.8519
47.8704
46.8956
45.9255
44.9557
43.9801
42.9912
41.982
40.9463
39.8827
38.7983
37.7097
36.6397
35.6126
34.6485
33.7603
32.9551
32.2419
31.6441
31.2013
30.9723
31.3821
32.0511
32.9399
34.0205
35.2689
36.6646
38.1898
39.8288
41.568
43.3956
45.3011
47.2754
49.3106
51.3998
53.5372
55.7175
57.9361
57.618
56.2975
55.053
53.8798
52.7686
51.7056
50.6756
49.6645
48.6647
47.673
46.6867
45.7008
44.7099
43.7077
42.6883
41.6466
40.5812
39.4988
38.4155
37.3536
36.3363
35.385
34.5145
33.7344
33.0561
32.5039
32.1231
32.0523
32.4969
33.1932
34.102
35.1963
36.4534
37.8537
39.3808
41.0194
42.757
44.5819
46.4841
48.4551
50.4869
52.5729
54.7072
56.8844
59.1
58.5626
57.2488
56.0071
54.8311
53.711
52.6334
51.5843
50.5523
49.5312
48.5183
47.5107
46.5039
45.4924
44.4719
43.4373
42.3834
41.3089
40.2211
39.1363
38.0759
37.0643
36.1241
35.2732
34.5235
33.8873
33.3867
33.0655
33.1657
33.6438
34.3635
35.2881
36.3922
37.6541
39.056
40.5816
42.217
43.9499
45.7694
47.6657
49.6307
51.6566
53.7371
55.8659
58.0385
60.2498
59.5985
58.2907
57.0504
55.8702
54.74
53.647
52.5783
51.5248
50.4818
49.4467
48.4164
47.3862
46.3522
45.3096
44.2529
43.177
42.0815
40.9755
39.8771
38.8097
37.799
36.8693
36.0397
35.3226
34.731
34.2892
34.0569
34.2883
34.8083
35.5534
36.4938
37.6065
38.872
40.2734
41.7958
43.426
45.1522
46.9642
48.8526
50.8094
52.8272
54.8999
57.0216
59.1871
61.3921
60.7238
59.4215
58.1818
56.9968
55.8561
54.7476
53.6605
52.5869
51.523
50.4662
49.4132
48.3597
47.3013
46.2325
45.1468
44.0395
42.9133
41.7808
40.6635
39.5871
38.5785
37.661
36.8526
36.1647
35.6102
35.2185
35.1099
35.4263