<VTKFile type="ImageData" version="1.0" byte_order="LittleEndian" header_type="UInt64">
	<ImageData WholeExtent="0 74 0 74 0 74" Origin="-68.3028 -68.3028 -68.3028" Spacing="1.84602 1.84602 1.84602">
		<Piece Extent="0 74 0 74 0 74">
			<PointData Scalars="Scalars_">
				<DataArray type="Float32" Name="Scalars_" format="ascii" RangeMin="0" RangeMax="100">
3.98866
4.00706
4.06029
4.15
4.20159
4.25878
4.35753
4.4741
4.52966
4.63196
4.78269
4.84694
4.94394
5.09419
5.17078
5.19213
5.22655
5.23861
5.08572
4.94683
4.82225
4.55471
4.27443
4.0094
3.7557
3.49093
3.24173
3.01738
3.0134
3.00941
3.00543
2.88182
2.71464
2.56973
2.41734
2.21328
2.06571
1.97503
1.83178
1.74556
1.71614
1.69936
1.7121
1.77991
1.85748
1.87956
1.95356
2.07817
2.16486
2.2894
2.46007
2.64711
2.84494
3.08067
3.30323
3.4659
3.62854
3.79121
3.8713
3.93239
3.9935
4.00763
3.96102
3.91439
3.87707
3.72763
3.57821
3.42877
3.18628
2.94194
2.69758
2.81013
3.59423
4.39065
5.19897
4.00427
4.02131
4.07325
4.16172
4.21258
4.26888
4.367
4.48289
4.53799
4.64034
4.79181
4.85594
4.9535
5.10523
5.1744
5.18567
5.20998
5.21072
5.04241
4.88813
4.7482
4.46545
4.16988
3.88971
3.62456
3.35301
3.09783
2.87906
2.88277
2.88646
2.89016
2.76941
2.60314
2.46637
2.31852
2.11108
1.96188
1.87132
1.73003
1.64741
1.62314
1.61865
1.64825
1.7342
1.83126
1.87431
1.97015
2.1173
2.22854
2.37822
2.57439
2.78754
3.01186
3.2525
3.47257
3.6305
3.78844
3.94637
4.0188
4.07201
4.12521
4.13074
4.0739
4.01707
3.9691
3.80807
3.64706
3.48604
3.23188
2.97533
2.71876
2.82109
3.59393
4.37892
5.17625
4.0547
4.07043
4.12108
4.20834
4.25841
4.31374
4.41119
4.52626
4.58076
4.68305
4.83508
4.89897
4.99691
5.14898
5.20923
5.20982
5.22333
5.21208
5.0276
4.85716
4.70111
4.40231
4.09061
3.7944
3.51689
3.23763
2.97493
2.74861
2.75211
2.7635
2.77487
2.65696
2.49219
2.36428
2.2216
2.01146
1.86143
1.77187
1.63351
1.55555
1.53757
1.54654
1.59423
1.69954
1.81732
1.88256
2.00143
2.17231
2.30923
2.48515
2.70784
2.94807
3.18588
3.42431
3.6419
3.7951
3.94831
4.10152
4.16626
4.21157
4.25691
4.25386
4.18681
4.11976
4.06114
3.8885
3.71593
3.5433
3.27749
3.00872
2.73991
2.83461
3.60432
4.35803
5.12911
4.14161
4.15614
4.20553
4.29162
4.34093
4.39531
4.49204
4.60622
4.66005
4.76221
4.91469
4.97818
5.07635
5.22667
5.27747
5.26673
5.26883
5.24487
5.0435
4.85613
4.68316
4.36747
4.03875
3.72561
3.4348
3.14682
2.87561
2.64051
2.63162
2.64057
2.6596
2.54452
2.38216
2.26365
2.12674
1.91467
1.76468
1.6771
1.54276
1.4706
1.46011
1.48381
1.55089
1.67686
1.81669
1.90543
2.04859
2.24445
2.4082
2.61147
2.86169
3.12364
3.35989
3.59613
3.81124
3.95972
4.1082
4.25669
4.31375
4.35118
4.38862
4.37698
4.29971
4.22245
4.15316
3.96897
3.78477
3.60056
3.32307
3.03269
2.68476
2.7192
3.46293
4.23242
5.02682
4.19376
4.20747
4.25603
4.34129
4.41283
4.46597
4.5617
4.64251
4.69606
4.79841
4.95167
5.0192
5.11819
5.2652
5.32236
5.29996
5.29028
5.24519
5.02666
4.82205
4.63181
4.30065
3.95453
3.62402
3.32061
3.02679
2.74985
2.50198
2.48113
2.47842
2.49419
2.3867
2.22856
2.1208
1.99113
1.77734
1.62773
1.54259
1.41268
1.34683
1.34446
1.38105
1.46697
1.61308
1.78163
1.89573
2.06502
2.28758
2.47369
2.70621
2.98445
3.24722
3.48161
3.716
3.9319
4.07574
4.21955
4.36339
4.40866
4.43761
4.46658
4.44318
4.35542
4.26764
4.17909
3.9827
3.77775
3.5144
3.1623
2.80191
2.45262
2.5443
3.31198
4.10533
4.92346
4.24762
4.26042
4.30798
4.39224
4.46268
4.51527
4.61062
4.69147
4.74491
4.84762
5.00181
5.0695
5.1694
5.31098
5.35824
5.32424
5.30273
5.24476
5.00836
4.78575
4.57738
4.22818
3.86403
3.51547
3.19999
2.9015
2.61999
2.36704
2.33347
2.31827
2.32186
2.20375
2.05077
1.95498
1.83308
1.61798
1.46931
1.38728
1.26287
1.20449
1.21141
1.26399
1.37016
1.53783
1.72971
1.87036
2.06693
2.31729
2.53369
2.79672
3.08569
3.34645
3.57932
3.81219
4.02603
4.16491
4.30378
4.44266
4.48024
4.50068
4.52113
4.48803
4.38941
4.28308
4.11653
3.84111
3.56571
3.29026
2.92619
2.5615
2.22436
2.3321
3.12448
3.94239
4.78492
4.34306
4.35521
4.40207
4.48558
4.55513
4.60735
4.70251
4.78357
4.83701
4.94015
5.09534
5.16321
5.26402
5.39785
5.43474
5.3886
5.35473
5.28326
5.02831
4.78695
4.55968
4.19158
3.8085
3.44094
3.11238
2.80816
2.52098
2.26176
2.21429
2.18536
2.17547
2.03881
1.87695
1.79109
1.67779
1.46241
1.31582
1.23821
1.12069
1.07124
1.089
1.15912
1.28714
1.47795
1.69472
1.86342
2.08869
2.36821
2.61616
2.90018
3.18693
3.44568
3.67704
3.90838
4.12017
4.25408
4.388
4.52192
4.55182
4.56375
4.56882
4.4591
4.28269
4.10629
3.92863
3.64111
3.35363
3.06611
2.69582
2.3433
2.01915
2.14363
2.96133
3.80439
4.67184
4.45323
4.46447
4.51033
4.59281
4.6338
4.68616
4.78159
4.89899
4.9524
5.05594
5.21202
5.25557
5.3563
5.48165
5.5179
5.45953
5.41314
5.32941
5.05542
4.7948
4.54803
4.1689
3.76591
3.37834
3.02213
2.71331
2.42151
2.16278
2.10062
2.05711
2.03286
1.87568
1.70307
1.61241
1.50082
1.28629
1.14314
1.07105
0.961914
0.923008
0.953259
1.04369
1.1951
1.41056
1.64942
1.84765
2.103
2.41298
2.69968
2.98468
3.26967
3.5191
3.74923
3.97937
4.18866
4.31737
4.44607
4.56876
4.53255
4.469
4.40545
4.29376
4.10629
3.91882
3.71208
3.41215
3.11221
2.81586
2.48554
2.14738
1.83754
1.93653
2.78017
3.64893
4.5418
4.5048
4.51553
4.56071
4.64246
4.68327
4.73547
4.83089
4.94827
5.00212
5.10648
5.26385
5.30845
5.40726
5.52392
5.54963
5.47902
5.42002
5.3222
5.02916
4.74916
4.48273
4.08401
3.66147
3.25414
2.88693
2.57726
2.28453
2.0237
1.94715
1.88934
1.85091
1.67429
1.49363
1.39806
1.2775
1.05046
0.909943
0.844868
0.746284
0.720154
0.765194
0.875282
1.04966
1.28933
1.55514
1.78568
2.07381
2.4166
2.71206
2.99614
3.28024
3.52909
3.75858
3.98808
4.19064
4.24724
4.30383
4.36043
4.3157
4.24303
4.17037
4.04854
3.84968
3.65084
3.43266
3.12031
2.80988
2.52417
2.20822
1.88456
1.58902
1.70716
2.57731
3.4723
4.39108
4.60311
4.61387
4.65891
4.74044
4.78157
4.83409
4.9299
5.04766
5.10233
5.20785
5.36684
5.41284
5.50769
5.61546
5.63035
5.54719
5.47519
5.36287
5.05025
4.75032
4.46358
4.04454
3.60165
3.17367
2.7945
2.48294
2.18816
1.92399
1.83178
1.75829
1.70424
1.50912
1.32014
1.21923
1.08942
0.843914
0.689999
0.62719
0.540977
0.529556
0.591339
0.723045
0.922333
1.1881
1.48264
1.74717
2.06964
2.43013
2.72445
3.00764
3.29081
3.53479
3.69671
3.85862
3.99783
4.04925
4.10067
4.15209
4.09885
4.01706
3.93529
3.80332
3.59307
3.38284
3.15325
2.82919
2.5276
2.25762
1.95689
1.64844
1.36791
1.50583
2.40306
3.32478
4.26991
4.74987
4.76126
4.80684
4.88875
4.93076
4.98416
5.08093
5.19962
5.25558
5.36272
5.52374
5.57145
5.66035
5.75911
5.76305
5.6671
5.58187
5.45469
5.12208
4.80172
4.49412
4.05413
3.59015
3.14072
2.74868
2.43422
2.13627
1.86758
1.75841
1.66786
1.59671
1.3846
1.18676
1.0801
0.940742
0.67664
0.507641
0.433266
0.348202
0.352535
0.433186
0.588631
0.814899
1.10872
1.43388
1.73415
2.08541
2.44368
2.73337
2.94872
3.16407
3.34485
3.50613
3.6674
3.80502
3.85128
3.89751
3.94376
3.88203
3.79113
3.70023
3.55811
3.33646
3.11486
2.87393
2.55616
2.27125
2.01786
1.73315
1.44067
1.17584
1.33412
2.25896
3.20789
4.17978
4.8043
4.81557
4.86081
4.94228
4.99166
5.0451
5.14193
5.24485
5.30173
5.41009
5.57269
5.6384
5.71881
5.80805
5.78811
5.67971
5.58148
5.44791
5.09606
4.75591
4.42802
3.96026
3.4762
3.00625
2.60727
2.2963
2.0015
1.74191
1.61582
1.50815
1.41973
1.18815
0.982185
0.870598
0.722576
0.440487
0.257153
0.172367
0.0838623
0.091114
0.191277
0.372505
0.625851
0.947735
1.30552
1.64442
1.93289
2.22269
2.44294
2.65879
2.87465
3.06254
3.22412
3.38568
3.52365
3.56442
3.60518
3.64594
3.57581
3.47525
3.37472
3.20944
2.97601
2.74257
2.51554
2.21558
1.94838
1.71252
1.43529
1.15931
0.910633
1.10377
2.05673
3.03328
4.03228
4.89668
4.90831
4.95377
5.03531
5.08522
5.13943
5.23709
5.34118
5.39959
5.50973
5.67446
5.74054
5.81229
5.89228
5.8614
5.74056
5.6293
5.48122
5.11021
4.75032
4.40207
3.91414
3.4094
2.91823
2.50913
2.20151
1.90957
1.65046
1.5067
1.38103
1.27431
1.03123
0.816662
0.699749
0.542717
0.242722
0.0452843
0.0498199
0.141426
0.13382
0.0298157
0.168179
0.4506
0.79937
1.12594
1.38876
1.65866
1.93527
2.14976
2.36555
2.58244
2.77094
2.93288
3.0948
3.23199
3.26725
3.30251
3.33778
3.25874
3.14846
3.03819
2.86219
2.61689
2.38335
2.17567
1.89429
1.64549
1.42775
1.16848
0.90995
0.678234
0.8923
1.87381
2.87836
3.90479
5.0423
5.05521
5.1018
5.1843
5.23563
5.29154
5.39091
5.49701
5.5578
5.6705
5.83812
5.90301
5.9664
6.03743
5.99585
5.86277
5.73861
5.57608
5.18595
4.80624
4.4375
3.92914
3.4034
2.89053
2.47076
2.16581
1.87594
1.61634
1.45383
1.30892
1.18327
0.930506
0.706938
0.584406
0.418156
0.100151
0.111364
0.216625
0.311085
0.302792
0.194885
0.00959396
0.299835
0.61488
0.915524
1.16127
1.41492
1.67606
1.87752
2.08154
2.29192
2.47934
2.64164
2.80394
2.94032
2.97008
2.99984
3.0296
2.94168
2.82167
2.70167
2.51494
2.26622
2.0526
1.86547
1.60369
1.3742
1.17542
0.934837
0.694378
0.48019
0.715626
1.72608
2.75895
3.81304
5.11626
5.14228
5.19012
5.27281
5.32953
5.38642
5.48675
5.6005
5.66315
5.77789
5.9478
6.00943
6.06367
6.12489
6.07237
5.92724
5.79028
5.61099
5.20352
4.80572
4.41813
3.89448
3.34861
2.81482
2.38561
2.08767
1.80404
1.54263
1.36071
1.19577
1.05333
0.795206
0.562397
0.43401
0.258993
0.075388
0.299255
0.41328
0.505627
0.491623
0.374752
0.161053
0.11208
0.396088
0.669262
0.89883
1.13723
1.38397
1.57722
1.76921
1.96828
2.1403
2.29498
2.45567
2.59058
2.61433
2.63809
2.66186
2.56526
2.43493
2.30458
2.11542
1.88602
1.69378
1.52853
1.28729
1.07796
0.898838
0.669891
0.448002
0.251789
0.52005
1.55976
2.62118
3.70311
5.13233
5.18297
5.25309
5.34399
5.40092
5.45827
5.55901
5.67326
5.73733
5.85365
6.02536
6.08055
6.12551
6.17675
6.1134
5.95647
5.80696
5.61399
5.19061
4.77607
4.37091
3.82915
3.26443
2.71093
2.27589
1.98867
1.71489
1.45987
1.25795
1.07216
0.915535
0.647524
0.405416
0.27113
0.0878487
0.261522
0.496305
0.617188
0.702885
0.678623
0.548273
0.331055
0.0916176
0.159462
0.404888
0.618561
0.842091
1.07494
1.25448
1.43366
1.62074
1.78026
1.9219
2.07027
2.19553
2.20956
2.22681
2.24407
2.13738
1.99625
1.85836
1.68839
1.48165
1.31183
1.16866
0.948746
0.760254
0.601379
0.392426
0.189869
0.0122566
0.302738
1.37194
2.46207
3.57193
5.16143
5.23728
5.33345
5.45134
5.52966
5.59332
5.69569
5.81162
5.87827
5.9973
6.17169
6.21925
6.25571
6.29776
6.22437
6.05634
5.89499
5.689
5.25033
4.81963
4.3974
3.83795
3.25474
2.68178
2.24106
1.96461
1.70058
1.45169
1.22934
1.0221
0.854382
0.576672
0.325367
0.185236
0.00629616
0.37064
0.616335
0.744102
0.823179
0.788742
0.645044
0.448162
0.245413
0.0296917
0.185673
0.381264
0.587837
0.804802
0.968796
1.13338
1.30679
1.45222
1.57934
1.71395
1.82487
1.81911
1.81973
1.82641
1.70949
1.55903
1.43943
1.29456
1.11178
0.96558
0.845482
0.647839
0.480927
0.34296
0.154537
0.0282745
0.18697
0.125965
1.22481
2.34373
3.48152
5.16895
5.26935
5.39098
5.5353
5.6514
5.7439
5.86392
5.96946
6.03873
6.16049
6.33558
6.37606
6.40405
6.4369
6.35336
6.17483
6.00217
5.78307
5.33104
4.88608
4.44865
3.87188
3.27187
2.68104
2.24063
1.97641
1.72351
1.47985
1.23631
1.00668
0.830921
0.542826
0.28199
0.13558
0.0635052
0.441278
0.696419
0.829393
0.89794
0.849506
0.698238
0.536606
0.371136
0.19125
0.00581169
0.170549
0.359154
0.559345
0.703262
0.851551
1.00968
1.14364
1.25405
1.37281
1.46704
1.43963
1.4193
1.40572
1.26303
1.12274
1.03026
0.908497
0.750755
0.62907
0.530487
0.355618
0.210697
0.0938797
0.0586548
0.221123
0.360413
0.039772
1.08876
2.23642
3.40205
5.01196
5.13194
5.27407
5.43986
5.57878
5.69576
5.84139
5.9716
6.05107
6.1717
6.34102
6.37003
6.38602
6.40622
6.31083
6.12107
5.93636
5.70565
5.24684
4.79419
4.34809
3.76079
3.14894
2.54515
2.10607
1.86069
1.62535
1.39452
1.12667
0.872583
0.688513
0.388229
0.115625
0.0394974
0.245535
0.629538
0.887093
1.0187
1.05991
0.980854
0.831482
0.695114
0.559555
0.408037
0.247049
0.0873089
0.0860558
0.272303
0.399254
0.531292
0.674282
0.790318
0.88063
0.980244
1.05463
1.00121
0.955692
0.917667
0.756142
0.627216
0.560772
0.465313
0.332691
0.235413
0.160461
0.0088768
0.113693
0.209141
0.340942
0.483055
0.603008
0.259205
0.898937
2.07522
3.26848
4.86897
5.00909
5.17231
5.36017
5.52251
5.66463
5.83651
5.99467
6.10383
6.24881
6.41726
6.43697
6.44226
6.45104
6.34511
6.14543
5.95
5.709
5.24477
4.78574
4.3323
3.73579
3.1134
2.49793
2.06139
1.836
1.61931
1.40226
1.11094
0.836786
0.645908
0.334681
0.0513115
0.111776
0.324291
0.714312
0.974337
1.10491
1.11937
1.02252
0.892275
0.784372
0.681858
0.561737
0.428123
0.287819
0.132423
0.0372925
0.144791
0.258205
0.383801
0.479763
0.547943
0.626476
0.679188
0.59803
0.525658
0.461636
0.299358
0.180237
0.132282
0.0644722
0.0418968
0.113808
0.164368
0.292072
0.391853
0.465614
0.576515
0.6982
0.798851
0.432007
0.75555
1.96018
3.18076
4.74029
4.90112
5.08602
5.29656
5.48296
5.65084
5.84962
6.03638
6.17586
6.3458
6.51895
6.54432
6.55308
6.56182
6.4537
6.24918
6.04507
5.79533
5.32723
4.86344
4.40426
3.80016
3.16885
2.54332
2.1109
1.90709
1.7106
1.50882
1.19545
0.906435
0.710682
0.390179
0.0974121
0.0726109
0.290916
0.686655
0.949238
1.07923
1.06778
0.982176
0.874426
0.798294
0.732077
0.646521
0.543373
0.425507
0.290968
0.140589
0.0552216
0.0369892
0.14274
0.216278
0.260086
0.315411
0.344418
0.233593
0.132557
0.0505867
0.102409
0.211472
0.248058
0.290516
0.369617
0.415348
0.440918
0.5443
0.620995
0.672935
0.762901
0.864243
0.945789
0.556149
0.660492
1.89308
3.14052
4.51813
4.69305
4.89302
5.11964
5.30638
5.4938
5.71328
5.93359
6.09509
6.26546
6.43583
6.4577
6.46384
6.46996
6.36027
6.15336
5.94646
5.69048
5.22058
4.75068
4.28078
3.7109
3.12081
2.53538
2.11248
1.88566
1.66482
1.43769
1.07918
0.756184
0.53289
0.140322
0.237787
0.491096
0.731087
1.04202
1.21714
1.25704
1.19121
1.08884
0.962593
0.886141
0.82921
0.75119
0.65942
0.565174
0.452604
0.322571
0.259199
0.188034
0.101879
0.0566044
0.0465317
0.0236626
0.025692
0.174385
0.312149
0.398735
0.548534
0.651318
0.68066
0.707169
0.76054
0.781631
0.782955
0.862469
0.916698
0.947563
1.02602
1.10756
1.17061
0.749081
0.496166
1.75618
3.02992
4.27837
4.46647
4.6806
4.92244
5.12641
5.3324
5.57158
5.81285
5.97881
6.14476
6.31072
6.32813
6.32976
6.33139
6.21691
6.00514
5.79337
5.53412
5.06775
4.60138
4.13502
3.62509
3.10357
2.58207
2.18084
1.92559
1.6645
1.34198
0.940426
0.619986
0.38802
0.0801792
0.558821
0.911097
1.17537
1.38108
1.44892
1.37963
1.2799
1.15385
1.00232
0.920822
0.86969
0.79574
0.713339
0.645437
0.557497
0.450417
0.411697
0.363926
0.299614
0.285114
0.312971
0.326662
0.365271
0.55547
0.721348
0.804821
0.950401
1.04795
1.07119
1.09064
1.12605
1.12253
1.10059
1.15664
1.18895
1.19942
1.25727
1.3193
1.36423
0.9216
0.351612
1.63839
2.93773
4.05383
4.2557
4.48459
4.74224
4.96405
5.18922
5.44874
5.70098
5.86253
6.02407
6.18562
6.19856
6.19569
6.19281
6.07355
5.85691
5.64029
5.37775
4.91492
4.45209
3.98925
3.54028
3.09249
2.62004
2.18402
1.84933
1.51478
1.20511
0.810215
0.499283
0.279728
0.226057
0.769434
1.20128
1.48609
1.58601
1.54672
1.38641
1.26693
1.11983
0.945807
0.862226
0.819971
0.753248
0.683395
0.64506
0.58497
0.504025
0.493113
0.471806
0.432329
0.451511
0.520115
0.573074
0.650885
0.884901
1.05825
1.1389
1.28061
1.3734
1.3911
1.40422
1.4313
1.40522
1.36005
1.39283
1.40358
1.39413
1.43192
1.47509
1.50261
1.03962
0.260788
1.57349
2.89759
3.87508
4.08974
4.33247
4.605
4.84398
5.08685
5.36103
5.60605
5.76053
5.91502
6.0695
6.07548
6.06529
6.0551
5.92638
5.70321
5.48004
5.21621
4.76167
4.30713
3.80905
3.34484
2.89476
2.44469
2.04066
1.69293
1.35099
1.05266
0.662554
0.359314
0.150385
0.373125
0.944153
1.40133
1.66834
1.68816
1.58581
1.41996
1.30052
1.15245
0.976305
0.883797
0.827909
0.746059
0.66938
0.649328
0.605852
0.539822
0.551754
0.553518
0.535439
0.593025
0.710154
0.810074
0.930887
1.2002
1.37665
1.45855
1.60266
1.69382
1.70927
1.71523
1.73721
1.701
1.63706
1.64796
1.63862
1.61083
1.62605
1.65169
1.66315
1.18395
0.142681
1.48035
2.82824
3.74443
3.97085
4.22636
4.51273
4.76617
5.024
5.29329
5.52852
5.67289
5.81726
5.96164
5.95692
5.93605
5.91518
5.77706
5.54523
5.31339
4.9825
4.4706
3.95872
3.44683
3.03703
2.65034
2.26365
1.88561
1.51892
1.17238
0.881208
0.493399
0.195402
0.00535011
0.524521
1.09111
1.54166
1.79263
1.78184
1.66077
1.5215
1.40837
1.28235
1.12747
1.01657
0.919073
0.794317
0.68693
0.670746
0.629566
0.56423
0.594322
0.614517
0.613192
0.709696
0.884022
1.03947
1.21476
1.50197
1.68663
1.77502
1.9224
2.01575
2.03288
2.03897
2.05918
2.02143
1.94434
1.9351
1.90754
1.86337
1.86195
1.87166
1.86873
1.37166
0.0199165
1.34162
2.71218
3.62991
3.86865
4.13752
4.4383
4.70678
4.96611
5.22556
5.45098
5.58525
5.71951
5.85377
5.83836
5.80681
5.76535
5.5465
5.23465
4.9228
4.57828
4.08039
3.58251
3.08462
2.72925
2.40593
2.0826
1.73056
1.34524
1.00284
0.719912
0.335539
0.0439472
0.147478
0.661192
1.22236
1.66544
1.89976
1.85797
1.73573
1.61187
1.46498
1.31808
1.17119
1.04337
0.906076
0.740513
0.604744
0.594982
0.55884
0.497063
0.548292
0.589968
0.608492
0.747025
0.981646
1.19575
1.41115
1.70967
1.9037
1.99994
2.15205
2.24922
2.26976
2.27783
2.29814
2.26078
2.1824
2.15525
2.11066
2.05133
2.03452
2.0296
2.01355
1.49992
0.124332
1.2598
2.6518
3.5244
3.77568
4.05811
4.37352
4.6507
4.89974
5.14877
5.36385
5.48786
5.61188
5.70713
5.60848
5.49608
5.38365
5.16268
4.84596
4.52924
4.18159
3.70256
3.22353
2.74448
2.43923
2.17246
1.90568
1.57643
1.17778
0.841707
0.565619
0.175695
0.118471
0.309555
0.813776
1.36071
1.78772
1.99843
1.92507
1.81343
1.70175
1.52414
1.34652
1.16891
0.989756
0.809891
0.613596
0.456224
0.452051
0.420362
0.361765
0.436968
0.501921
0.542189
0.723444
1.01974
1.29287
1.52651
1.83628
2.0398
2.1442
2.29748
2.39922
2.42398
2.44014
2.4619
2.42628
2.34612
2.31145
2.25043
2.17657
2.14725
2.12843
2.09999
1.57264
0.174633
1.23071
2.6428
3.38525
3.64547
3.93789
4.26197
4.52674
4.76017
4.9936
5.1463
5.18661
5.22692
5.26723
5.16908
5.05843
4.94778
4.74578
4.46271
4.17963
3.87189
3.46061
3.04933
2.63804
2.3354
2.05667
1.77792
1.42847
1.01536
0.676722
0.391062
0.105011
0.502329
0.79372
1.25821
1.71167
2.04356
2.16928
2.04901
1.91845
1.78784
1.6097
1.43157
1.25343
1.07409
0.894281
0.714474
0.581081
0.5555
0.501549
0.419708
0.507715
0.587914
0.642069
0.856205
1.20095
1.49998
1.72811
2.0356
2.23541
2.33499
2.48321
2.57949
2.59857
2.60862
2.62405
2.58239
2.49637
2.4553
2.37542
2.28039
2.23111
2.19343
2.14761
1.60181
0.182964
1.24207
2.67278
3.26302
3.53275
3.83556
4.15268
4.33629
4.48276
4.62923
4.74348
4.77143
4.79937
4.82731
4.72968
4.62078
4.51189
4.32887
4.07945
3.83002
3.56218
3.21865
2.87513
2.53161
2.23158
1.94088
1.65017
1.28115
0.862146
0.522053
0.227985
0.373045
0.872351
1.26292
1.68666
2.04583
2.282
2.32239
2.17295
2.02347
1.87394
1.69528
1.51661
1.33796
1.15841
0.97859
0.798763
0.644844
0.56135
0.477259
0.373663
0.476265
0.573765
0.644104
0.893595
1.2877
1.58918
1.81347
2.12077
2.31923
2.41658
2.56253
2.65627
2.67266
2.6796
2.6917
2.64697
2.55803
2.51349
2.4277
2.31393
2.24667
2.19202
2.13063
1.56817
0.130165
1.31293
2.76069
3.12391
3.35179
3.58358
3.81538
3.97942
4.11028
4.24115
4.34066
4.35624
4.37182
4.3874
4.29027
4.18314
4.07601
3.91197
3.69619
3.48042
3.25247
2.9767
2.70094
2.42518
2.12776
1.82509
1.52241
1.14081
0.718561
0.378139
0.0768471
0.627951
1.22806
1.71674
2.09878
2.36289
2.50281
2.46531
2.2969
2.12849
1.96004
1.78086
1.60167
1.42248
1.24275
1.0629
0.883064
0.708336
0.548616
0.388895
0.22917
0.339981
0.456284
0.54458
0.831478
1.25506
1.55479
1.77723
2.08671
2.28651
2.38461
2.53143
2.62588
2.6429
2.65008
2.66214
2.61757
2.52885
2.48392
2.39803
2.27589
2.19279
2.12325
2.04828
1.47104
0.015686
1.44374
2.90692
2.92075
3.1217
3.33623
3.56431
3.73341
3.86406
3.99469
4.09521
4.11255
4.12989
4.14724
4.0568
3.95618
3.85556
3.69915
3.49723
3.29529
3.08325
2.82474
2.56622
2.30771
2.00526
1.69247
1.37968
1.00292
0.595421
0.272741
0.015049
0.776928
1.43122
1.97145
2.33112
2.5446
2.63294
2.56871
2.39371
2.21871
2.04375
1.85967
1.6756
1.49153
1.30195
1.10929
0.916616
0.724104
0.531729
0.33935
0.146978
0.275299
0.436111
0.595312
0.949427
1.38532
1.69194
1.91925
2.23087
2.43233
2.53174
2.67945
2.77333
2.78976
2.79342
2.80395
2.75797
2.67015
2.62351
2.53608
2.41208
2.31344
2.22713
2.1366
1.54307
0.0722771
1.40169
2.87856
2.79726
2.9764
3.16813
3.37327
3.53119
3.66484
3.80101
3.9073
3.93177
3.95626
3.98074
3.89862
3.80627
3.71392
3.56494
3.36938
3.17383
2.96654
2.7063
2.44607
2.18583
1.8753
1.55309
1.2319
0.871908
0.486633
0.189226
0.0765724
0.877249
1.56751
2.14121
2.4855
2.66465
2.71875
2.65722
2.4803
2.30337
2.12649
1.93589
1.7453
1.55471
1.35153
1.1412
0.930859
0.721031
0.512276
0.303509
0.0947495
0.262003
0.467226
0.669138
1.04543
1.49276
1.81063
2.04766
2.3632
2.56848
2.67163
2.82108
2.91625
2.93395
2.93864
2.94948
2.90383
2.81627
2.76949
2.68196
2.55789
2.45443
2.35213
2.24664
1.63932
0.157074
1.32517
2.80742
2.72805
2.88616
3.05585
3.23791
3.37234
3.48331
3.60928
3.71938
3.75101
3.78262
3.81425
3.74043
3.65637
3.5723
3.43073
3.24154
3.05237
2.84983
2.58787
2.32592
2.06395
1.74533
1.4137
1.09173
0.750666
0.388783
0.117857
0.124735
0.96302
1.68814
2.29437
2.62252
2.76685
2.80004
2.74571
2.56687
2.38804
2.20922
2.01212
1.81501
1.6179
1.40111
1.17311
0.945112
0.717964
0.492821
0.267672
0.0425301
0.247152
0.4718
0.666269
1.01499
1.46759
1.79849
2.04758
2.36985
2.58212
2.69245
2.84727
2.94744
2.97016
2.97961
2.99444
2.9527
2.86888
2.82526
2.74082
2.61973
2.51915
2.42176
2.3148
1.70728
0.225033
1.25721
2.73946
2.62554
2.76665
2.91832
3.0813
3.19439
3.28612
3.39169
3.48259
3.51078
3.5528
3.59621
3.53539
3.46429
3.3932
3.2639
3.08472
2.90553
2.71025
2.44606
2.18188
1.91768
1.58245
1.23123
0.907358
0.561817
0.183741
0.100252
0.351337
1.18536
1.90359
2.50074
2.78638
2.8753
2.88543
2.82325
2.63654
2.44983
2.26311
2.05504
1.84697
1.6389
1.41141
1.17268
0.933966
0.700943
0.483076
0.264765
0.0262623
0.213127
0.415602
0.595512
0.944836
1.39803
1.72818
1.978
2.29881
2.51207
2.62564
2.78396
2.88886
2.91787
2.93472
2.95678
2.92213
2.84525
2.8077
2.72907
2.61567
2.53711
2.4649
2.38054
1.78577
0.306808
1.17543
2.65768
2.41722
2.54794
2.68821
2.83871
2.94062
3.02127
3.11449
3.1927
3.20901
3.24092
3.2896
3.24892
3.19903
3.14915
3.03827
2.87548
2.7127
2.5304
2.26307
1.99575
1.72842
1.36198
0.974884
0.639269
0.248705
0.215763
0.582994
0.900307
1.65768
2.29675
2.81277
3.01015
3.012
2.97801
2.88179
2.67675
2.47171
2.26665
2.03987
1.81309
1.58631
1.35294
1.11569
0.878431
0.659723
0.47439
0.2582
0.0116844
0.165983
0.360119
0.554247
0.915009
1.36569
1.69206
1.93868
2.25406
2.46308
2.57352
2.72781
2.82932
2.85579
2.87018
2.89027
2.85531
2.77943
2.74355
2.66796
2.57717
2.52676
2.48059
2.42059
1.8489
0.392033
1.07527
2.5521
2.26538
2.38683
2.51681
2.65597
2.74784
2.81853
2.90056
2.96716
2.97263
2.99228
3.0272
2.97681
2.93428
2.90509
2.81263
2.66624
2.51986
2.35053
2.08007
1.80962
1.53916
1.14152
0.726654
0.381111
0.0532837
0.602907
1.05214
1.43447
2.11407
2.67304
3.1072
3.21583
3.14762
3.0706
2.94034
2.71696
2.49358
2.27019
2.0247
1.77921
1.53373
1.29448
1.05869
0.810982
0.563755
0.369808
0.148771
0.0767994
0.0933971
0.303192
0.512983
0.885197
1.33217
1.65494
1.89852
2.20862
2.41351
2.52094
2.67129
2.76951
2.7935
2.80549
2.82319
2.78638
2.70898
2.67136
2.59447
2.50389
2.46552
2.4446
2.41043
1.86323
0.429943
1.01512
2.47097
2.16991
2.28331
2.40426
2.53334
2.61718
2.67917
2.75127
2.80683
2.80275
2.81137
2.83374
2.77097
2.71394
2.67442
2.58704
2.45685
2.32687
2.17082
1.89723
1.62364
1.35005
0.920984
0.487598
0.13328
0.34374
0.977268
1.50724
1.95333
2.55411
3.03208
3.38372
3.40328
3.28324
3.16319
2.99889
2.75716
2.51545
2.27373
2.00954
1.74534
1.48114
1.22769
0.954803
0.650879
0.362511
0.185661
0.00881386
0.168037
0.0208759
0.246328
0.471779
0.854881
1.29737
1.61669
1.85732
2.16229
2.36319
2.4677
2.61431
2.7093
2.7309
2.74043
2.75577
2.71715
2.6389
2.59956
2.52143
2.43052
2.39047
2.37052
2.35058
1.82865
0.420238
1.00134
2.43499
2.01109
2.11611
2.22773
2.34648
2.42274
2.47833
2.54283
2.59152
2.58471
2.58915
2.60577
2.54109
2.48061
2.43582
2.34079
2.20875
2.09708
1.96953
1.71585
1.46216
1.20848
0.782156
0.371492
0.0433216
0.459927
1.18304
1.79947
2.31408
2.83136
3.22389
3.48882
3.43415
3.27999
3.12583
2.93692
2.68729
2.43766
2.18804
1.92992
1.66656
1.37426
1.0835
0.781412
0.469864
0.2047
0.0633793
0.0779381
0.219259
0.015913
0.221802
0.459517
0.849766
1.2859
1.59993
1.83546
2.13197
2.32554
2.4238
2.56151
2.64774
2.66137
2.66218
2.66764
2.61968
2.53231
2.4831
2.3956
2.29618
2.24835
2.22051
2.19267
1.66926
0.278069
1.11894
2.52926
1.90929
2.00731
2.11101
2.22087
2.29106
2.3418
2.40026
2.44369
2.43579
2.43769
2.45025
2.38531
2.32305
2.27462
2.1735
2.03327
1.91122
1.7793
1.53446
1.30069
1.06691
0.651894
0.265463
0.0353336
0.563538
1.37497
2.07663
2.65863
3.09147
3.39784
3.5756
3.46502
3.27675
3.08848
2.87496
2.61741
2.35988
2.09945
1.81768
1.50418
1.15965
0.849331
0.565708
0.282089
0.0468845
0.0589123
0.164696
0.270485
0.0527096
0.197273
0.44725
0.843374
1.27332
1.58222
1.81279
2.10098
2.28735
2.37946
2.50837
2.58591
2.59164
2.58377
2.57941
2.52213
2.42566
2.36661
2.26976
2.16185
2.10624
2.07049
2.03476
1.50629
0.115097
1.27609
2.6674
1.86431
1.95674
2.05401
2.15652
2.22222
2.26975
2.32388
2.36378
2.35658
2.35778
2.36815
2.30487
2.24275
2.1926
2.08731
1.9408
1.81019
1.66544
1.39658
1.14916
0.925331
0.530996
0.169994
0.102188
0.654081
1.55256
2.33825
2.98656
3.33409
3.55366
3.64531
3.49589
3.27351
3.05112
2.81298
2.54631
2.25568
1.93293
1.59816
1.2471
0.896027
0.605707
0.35001
0.0943165
0.110933
0.181196
0.25145
0.321711
0.0895004
0.172747
0.434988
0.83572
1.25963
1.56356
1.78932
2.06934
2.24862
2.33469
2.45489
2.52382
2.52172
2.50522
2.49107
2.4245
2.31896
2.25008
2.14393
2.02752
1.96413
1.92049
1.87685
1.34333
0.0478668
1.43906
2.83025
1.8861
1.97071
2.05934
2.15234
2.20908
2.24518
2.28678
2.31207
2.28847
2.27196
2.26317
2.17477
2.08712
2.00963
1.87387
1.69231
1.52437
1.3395
1.02796
0.73506
0.470135
0.0811234
0.256401
0.488169
0.985085
1.81329
2.52577
3.09961
3.37671
3.52464
3.5607
3.40951
3.19358
2.9774
2.7224
2.40217
2.05003
1.67799
1.33364
0.989298
0.644953
0.386065
0.176239
0.0335884
0.200283
0.252234
0.304186
0.356144
0.113409
0.158932
0.431263
0.824091
1.22273
1.50243
1.7035
1.95599
2.10883
2.16948
2.26832
2.31608
2.29357
2.25784
2.22898
2.14819
2.03082
1.95278
1.83802
1.71376
1.64459
1.59638
1.54819
1.01042
0.380772
1.77197
3.16316
1.96995
2.04609
2.12554
2.20856
2.25215
2.27291
2.29821
2.3044
2.25558
2.2126
2.176
2.05063
1.9239
1.8056
1.62437
1.39259
1.17221
0.933458
0.570049
0.222477
0.0730267
0.460684
0.791325
1.01324
1.43681
2.11531
2.66438
3.08189
3.29684
3.38171
3.3897
3.25626
3.05416
2.81917
2.52328
2.15383
1.78329
1.41272
1.07541
0.738098
0.400784
0.180155
0.026474
0.127213
0.25074
0.29426
0.337782
0.3813
0.12982
0.151348
0.432518
0.809332
1.17172
1.41623
1.58222
1.79621
1.9116
1.93581
2.00447
2.02386
1.97373
1.91471
1.86832
1.77052
1.63746
1.55061
1.42761
1.29585
1.22257
1.17168
1.1208
0.581295
0.809898
2.2011
3.59229
2.10887
2.17807
2.2499
2.32461
2.35674
2.364
2.37488
2.36399
2.29206
2.22482
2.1627
2.0028
1.83952
1.68306
1.45912
1.17999
0.910164
0.620602
0.208479
0.179453
0.492846
0.874825
1.19443
1.40497
1.76965
2.332
2.75712
3.04083
3.19859
3.22536
3.20724
3.04731
2.81375
2.55425
2.25369
1.88495
1.51621
1.14745
0.817177
0.486898
0.156614
0.025753
0.123291
0.220835
0.301197
0.33629
0.371374
0.40646
0.146238
0.143764
0.433765
0.79339
1.11967
1.32913
1.46021
1.63581
1.71388
1.70175
1.74031
1.73141
1.65371
1.57144
1.50758
1.39278
1.24405
1.14842
1.01721
0.877937
0.800556
0.746971
0.693401
0.152161
1.23903
2.63023
4.02142
2.25564
2.31676
2.37994
2.44537
2.46448
2.45795
2.45427
2.428
2.33418
2.24403
2.15788
1.96719
1.77071
1.57959
1.31509
0.993523
0.679302
0.345198
0.110147
0.514881
0.840403
1.21661
1.52381
1.72192
2.03401
2.5013
2.83127
3.02819
3.16888
3.16028
3.06424
2.85665
2.61436
2.37208
2.08566
1.72201
1.35835
0.994671
0.671453
0.348234
0.0250149
0.134544
0.200865
0.267179
0.324667
0.357893
0.391109
0.424332
0.153286
0.147736
0.448767
0.794661
1.09286
1.27526
1.37912
1.5241
1.5726
1.53188
1.54551
1.51364
1.41371
1.31664
1.23819
1.10929
0.945827
0.842262
0.703716
0.557781
0.474648
0.417973
0.361313
0.181469
1.57266
2.96385
4.35505
2.33107
2.3786
2.42767
2.47844
2.48088
2.45666
2.4346
2.38889
2.27297
2.15983
2.04972
1.83182
1.60684
1.38592
1.0892
0.733276
0.38295
0.0114326
0.466297
0.875595
1.20567
1.57551
1.87405
2.06377
2.35577
2.78907
3.08571
3.25083
3.36778
3.33624
3.19863
2.97826
2.72844
2.47861
2.19236
1.84236
1.49236
1.14233
0.826447
0.510559
0.194672
0.0153408
0.0862503
0.187853
0.275253
0.323978
0.372705
0.421436
0.136482
0.181358
0.499197
0.844927
1.13631
1.31294
1.41087
1.54584
1.58535
1.53661
1.54131
1.50098
1.39329
1.28906
1.2035
1.06796
0.898304
0.788979
0.645283
0.494827
0.407322
0.346527
0.285725
0.259727
1.65092
3.04211
4.43331
2.4584
2.49378
2.53026
2.56797
2.55545
2.51533
2.47679
2.41361
2.27774
2.14386
2.01219
1.76966
1.51888
1.27105
0.945198
0.55825
0.175344
0.227423
0.707495
1.11688
1.44703
1.80613
2.0918
2.26922
2.53769
2.93412
3.19528
3.32726
3.42004
3.36611
3.23398
3.03381
2.80395
2.5666
2.29322
1.96242
1.62637
1.28999
0.981432
0.67288
0.364319
0.165226
0.0283527
0.108532
0.225832
0.290064
0.354307
0.418547
0.119678
0.214975
0.549631
0.89407
1.17878
1.34978
1.44193
1.56701
1.59763
1.54096
1.53682
1.48809
1.3727
1.26135
1.1687
1.02654
0.850754
0.735676
0.586853
0.431881
0.340012
0.275074
0.210152
0.337978
1.72918
3.12037
4.51157
2.63633
2.66094
2.68632
2.71254
2.68669
2.63242
2.57923
2.50056
2.34681
2.1944
2.04352
1.77884
1.50496
1.2331
0.881191
0.466511
0.0546036
0.36006
0.836258
1.24158
1.56766
1.91194
2.18089
2.34248
2.58427
2.94125
3.16499
3.26266
3.33087
3.25805
3.13503
2.95519
2.74969
2.5364
2.29442
2.00814
1.71449
1.41359
1.12712
0.833736
0.53397
0.315117
0.142954
0.0292072
0.176413
0.256157
0.335901
0.415649
0.102875
0.248594
0.599546
0.942106
1.22029
1.38579
1.47229
1.5876
1.60946
1.54495
1.53203
1.47496
1.35194
1.23351
1.13382
0.985065
0.803139
0.682331
0.528419
0.368927
0.272701
0.203636
0.134579
0.416241
1.80744
3.19863
4.58982
2.75099
2.76439
2.77829
2.79272
2.76306
2.69503
2.62765
2.52763
2.35791
2.18905
2.02115
1.73756
1.44439
1.1525
0.783543
0.345493
0.0862656
0.498899
0.972351
1.37475
1.69796
2.042
2.31408
2.47999
2.71451
3.04784
3.25052
3.32994
3.38544
3.3126
3.2103
3.05744
2.88072
2.696
2.48569
2.23592
1.97851
1.71365
1.46044
1.19997
0.932396
0.726959