<VTKFile type="ImageData" version="1.0" byte_order="LittleEndian" header_type="UInt64">
	<ImageData WholeExtent="0 44 0 44 0 44" Origin="-71.2453 -71.2453 -71.2453" Spacing="3.23842 3.23842 3.23842">
		<Piece Extent="0 44 0 44 0 44">
			<PointData Scalars="Scalars_">
				<DataArray type="Float32" Name="Scalars_" format="ascii" RangeMin="0" RangeMax="100">
79.4412
77.5711
75.7204
73.8436
72.0885
70.351
68.7257
67.1311
65.6072
64.1754
62.7989
61.4685
60.2699
59.1763
58.241
57.3488
56.6021
56.0482
55.6509
55.4178
55.4406
55.6341
55.9811
56.4444
56.9585
57.5365
58.1201
58.6836
59.233
59.8209
60.4928
61.2066
62.0429
63.0403
63.9675
65.057
66.2923
67.5479
68.8968
70.3724
71.8436
73.4431
75.1681
76.1115
76.1115
77.5711
75.6835
73.8122
71.9161
70.1345
68.3679
66.7091
65.0786
63.5171
62.0439
60.6255
59.2538
58.0116
56.8752
55.8986
54.9678
54.1852
53.6017
53.1766
52.9188
52.9355
53.1306
53.4869
53.9667
54.503
55.1087
55.7322
56.3396
56.9344
57.5663
58.279
59.032
59.9033
60.9309
61.8914
63.01
64.2716
65.5572
66.9356
68.4423
69.9468
71.5782
73.3326
74.2941
74.2941
75.6384
73.7333
71.858
70.0508
68.2418
66.4529
64.7365
63.069
61.5098
59.8992
58.4406
57.0585
55.7762
54.5946
53.5613
52.6145
51.7942
51.1679
50.7094
50.4291
50.451
50.6428
51.0098
51.5059
52.0762
52.7111
53.3791
54.0246
54.6611
55.3409
56.1124
56.9354
57.8453
58.84
59.8954
61.0454
62.2936
63.6152
65.0234
66.5189
68.2231
69.8902
71.5074
72.4994
72.4994
73.897
71.9736
70.0116
68.2006
66.3631
64.5183
62.7242
61.0218
59.42
57.8224
56.3184
54.908
53.5733
52.3445
51.2277
50.2616
49.4017
48.7431
48.2642
47.9644
47.9794
48.1742
48.5519
49.0712
49.6656
50.3269
51.0428
51.7493
52.4532
53.1856
53.9885
54.8469
55.7961
56.8307
57.9011
59.0822
60.3913
61.7179
63.1572
64.7622
66.3935
68.0921
69.8411
70.8344
70.8344
72.1398
70.1983
68.2186
66.382
64.517
62.6423
60.8161
59.0749
57.4297
55.7877
54.2367
52.7781
51.3944
50.1163
48.9527
47.9405
47.0393
46.3487
45.8453
45.5311
45.5455
45.7463
46.136
46.6805
47.3077
48.0093
48.7792
49.5435
50.3078
51.0984
51.955
52.8635
53.8568
54.9305
56.0386
57.2536
58.5946
59.9539
61.4256
63.0617
64.726
66.4577
68.2411
69.2521
69.2521
70.3878
68.4291
66.4801
64.5611
62.6704
60.8026
59.0019
57.2189
55.4769
53.7863
52.1876
50.6775
49.2582
47.9294
46.7446
45.6458
44.7031
43.9903
43.4484
43.1236
43.1455
43.3574
43.7599
44.3299
44.9958
45.7418
46.5682
47.3964
48.2258
49.0778
49.9868
50.9349
51.9742
53.11
54.2757
55.527
56.8623
58.295
59.8003
61.3837
63.0893
64.8522
66.7351
67.728
67.728
68.7101
66.7339
64.8066
62.8318
60.913
59.0286
57.1621
55.3402
53.5633
51.841
50.1934
48.6349
47.1527
45.7716
44.5143
43.3938
42.406
41.6517
41.1007
40.7669
40.7853
41.0049
41.4206
42.0224
42.7237
43.518
44.4029
45.2944
46.1817
47.098
48.0722
49.0804
50.1693
51.3349
52.5492
53.8374
55.2148
56.661
58.1996
59.8845
61.591
63.3881
65.275
66.3043
66.3043
67.1167
65.1227
63.174
61.1782
59.2321
57.3163
55.4148
53.5534
51.7347
49.9665
48.27
46.6599
45.1255
43.691
42.3815
41.2107
40.1764
39.3869
38.8138
38.475
38.5006
38.731
39.1609
39.7961
40.5394
41.3839
42.33
43.2866
44.242
45.2255
46.2626
47.3298
48.4718
49.6851
50.943
52.2708
53.6851
55.1676
56.7412
58.4593
60.2003
62.0309
63.9511
64.9982
64.9982
65.6141
63.602
61.6122
59.5875
57.6159
55.6567
53.7368
51.8369
49.9923
48.1684
46.4242
44.7647
43.1663
41.6787
40.3334
39.1029
38.0212
37.2055
36.5961
36.2555
36.2989
36.5387
36.9827
37.6519
38.4413
39.3392
40.3477
41.3667
42.3916
43.443
44.5394
45.6812
46.8787
48.1188
49.4337
50.8027
52.2847
53.7696
55.3784
57.1086
58.9261
60.7902
62.7407
63.8178
63.8178
64.1374
62.1111
60.0811
58.0995
56.102
54.1012
52.124
50.1874
48.2944
46.4462
44.6548
42.9355
41.2967
39.7567
38.3574
37.0705
35.9396
35.0855
34.4606
34.1179
34.1662
34.4215
34.878
35.5844
36.4158
37.3683
38.4398
39.5227
40.6127
41.7312
42.9073
44.103
45.3569
46.6514
48.012
49.424
50.9014
52.4822
54.1275
55.8957
57.704
59.6007
61.6095
62.6807
62.6807
62.7631
60.7231
58.6787
56.6791
54.6601
52.6341
50.629
48.6586
46.7287
44.8398
43.0049
41.2394
39.5524
37.9615
36.5102
35.1717
33.9911
33.0981
32.4507
32.1082
32.1696
32.4364
32.9017
33.6451
34.5227
35.5299
36.6633
37.8107
38.9674
40.1521
41.3911
42.6483
43.9589
45.3059
46.7143
48.1703
49.6891
51.3072
52.9883
54.7902
56.6316
58.5596
60.5979
61.6849
61.6849
61.4988
59.4467
57.3848
55.3382
53.3029
51.2967
49.2634
47.2639
45.2924
43.3514
41.4792
39.6957
37.9567
36.3202
34.8315
33.4407
32.2121
31.2727
30.6059
30.2643
30.3416
30.6129
31.0782
31.857
32.7818
33.841
35.0344
36.2467
37.467
38.7144
40.0025
41.3302
42.6954
44.0999
45.536
47.0357
48.62
50.2477
51.9634
53.7975
55.683
57.6404
59.7128
60.8052
60.8052
60.2888
58.2279
56.1821
54.1019
52.0521
50.0243
47.9747
45.95
43.9643
41.9958
40.0913
38.2533
36.4877
34.8109
33.2667
31.8398
30.5657
29.5932
28.9018
28.5624
28.6503
28.9267
29.3814
30.1939
31.1623
32.2747
33.5258
34.7957
36.0796
37.3855
38.7286
40.0982
41.5157
42.9744
44.4707
46.0134
47.6392
49.2922
51.0418
52.9039
54.8298
56.8159
58.8914
60.0228
60.0228
59.1944
57.1261
55.0727
52.9868
50.9274
48.8866
46.8228
44.7802
42.7743
40.785
38.8577
36.9954
35.2036
33.4979
31.9205
30.4571
29.1441
28.1366
27.426
27.09
27.1872
27.4545
27.8791
28.7214
29.7297
30.8912
32.1961
33.5202
34.8582
36.2162
37.6097
39.0291
40.4942
41.9979
43.5375
45.1209
46.7841
48.4733
50.2553
52.1456
54.1
56.1125
58.2128
59.357
59.357
58.2341
56.1596
54.0825
52.0229
49.9586
47.8925
45.8303
43.7783
41.759
39.7602
37.8243
35.9559
34.1553
32.4434
30.8593
29.3794
28.0477
27.0203
26.2982
25.9717
26.0665
26.2932
26.6398
27.5051
28.5456
29.746
31.0953
32.4655
33.8452
35.2427
36.6768
38.1413
39.6444
41.1776
42.7535
44.3744
46.0631
47.8188
49.6323
51.53
53.4929
55.5295
57.6812
58.8195
58.8195
57.3662
55.2868
53.1998
51.1444
49.0772
47.0057
44.9369
42.8787
40.8521
38.848
36.9117
35.0548
33.2589
31.5608
29.9936
28.5291
27.2105
26.1888
25.4896
25.202
25.2508
25.3869
25.5964
26.4809
27.5462
28.7776
30.1601
31.5602
32.9732
34.3981
35.8567
37.3409
38.8737
40.4496
42.0565
43.713
45.4468
47.2147
49.0602
50.9972
53.0008
55.0628
57.2096
58.3897
58.3897
56.6191
54.5351
52.446
50.3872
48.3185
46.2453
44.174
42.1127
40.0854
38.0826
36.1548
34.3172
32.5499
30.894
29.3829
27.9805
26.7291
25.7698
25.1458
24.9536
24.8784
24.8324
24.8112
25.7106
26.7905
28.0363
29.4339
30.8483
32.2736
33.7088
35.179
36.6759
38.2275
39.8286
41.4655
43.1564
44.9255
46.7297
48.609
50.5767
52.6071
54.6949
56.8651
58.054
58.054
56.0502
53.9637
51.888
49.8196
47.7493
45.6794
43.5975
41.5268
39.4912
37.4823
35.5443
33.6947
31.9249
30.2729
28.7735
27.3815
26.1426
25.1942
24.6684
24.707
24.4635
24.3572
24.4298
25.3233
26.3749
27.5769
28.9315
30.317
31.7286
33.1636
34.6383
36.139
37.6963
39.3045
40.9544
42.6648
44.4574
46.2955
48.2014
50.1901
52.2368
54.3489
56.5664
57.7291
57.7291
55.6449
53.5651
51.4972
49.4431
47.392
45.3425
43.2837
41.2319
39.2032
37.2053
35.273
33.4291
31.6608
30.0022
28.4896
27.0909
25.8445
24.8981
24.4118
24.5406
24.2752
24.2182
24.4316
25.2066
26.1361
27.2138
28.4897
29.8293
31.2154
32.6466
34.1138
35.6122
37.1665
38.7833
40.4408
42.1627
43.9614
45.8208
47.7497
49.7661
51.8487
53.9854
56.2014
57.3966
57.3966
55.4111
53.3519
51.3131
49.2937
47.293
45.3019
43.3048
41.316
39.3429
37.3936
35.4944
33.6671
31.9035
30.2331
28.6952
27.269
25.9974
25.0591
24.5197
24.4961
24.4359
24.5653
24.9142
25.4072
26.0809
26.9338
28.0914
29.3613
30.7143
32.1384
33.5973
35.0861
36.6272
38.234
39.8862
41.6107
43.4207
45.2944
47.2426
49.2814
51.3867
53.5474
55.7875
56.9963
56.9963
55.447
53.3952
51.3641
49.3584
47.3751
45.3985
43.4226
41.4541
39.5035
37.5693
35.6818
33.8642
32.1001
30.4314
28.8958
27.4689
26.1986
25.2655
24.78
24.8883
24.8989
25.0129
25.254
25.3751
25.7933
26.498
27.5742
28.808
30.1602
31.6039
33.0774
34.5751
36.1139
37.7123
39.3621
41.0892
42.9069
44.7918
46.755
48.8188
50.9341
53.1151
55.3876
56.5983
56.5983
55.6341
53.5898
51.5706
49.5746
47.604
45.6391
43.6808
41.7244
39.7792
37.8519
35.9654
34.1434
32.3765
30.7002
29.1567
27.7262
26.4542
25.5134
24.9908
25.02
25.0506
25.1302
25.2659
25.2283
25.485
26.0323
27.0431
28.2468
29.5973
31.0603
32.5503
34.0639
35.6092
37.2099
38.8623
40.5936
42.422
44.319
46.2958
48.372
50.5064
52.7057
54.9964
56.219
56.219
55.9815
53.9454
51.9343
49.9475
47.9867
46.0322
44.0806
42.1304
40.189
38.2593
36.3633
34.5259
32.7413
31.046
29.488
28.0459
26.7664
25.8049
25.1317
24.8178
24.8221
24.8612
24.9144
24.9692
25.1718
25.5456
26.5062
27.6842
29.0287
30.5084
32.0204
33.556
35.117
36.7282
38.3873
40.1249
41.9618
43.867
45.8556
47.9476
50.097
52.3128
54.6212
55.8531
55.8531
56.444
54.4034
52.3868
50.3971
48.4353
46.4833
44.5399
42.6035
40.6789
38.7706
36.8989
35.0878
33.3333
31.6719
30.1548
28.7589
27.53
26.6149
25.9745
25.6737
25.6789
25.718
25.7712
25.826
26.0158
26.3606
27.2232
28.2903
29.5098
30.8283
32.1726
33.5464
34.9796
36.5013
38.0949
39.7925
41.6066
43.4997
45.4843
47.5793
49.7358
51.962
54.2837
55.5223
55.5223
56.9615
54.9116
52.8907
50.8879
48.9201
46.9658
45.0286
43.1057
41.2004
39.3206
37.4833
35.7154
33.9994
32.3853
30.9215
29.5761
28.4018
27.5344
26.9338
26.6635
26.6711
26.7099
26.763
26.8179
26.9901
27.2965
28.0366
28.9821
30.0786
31.2785
32.4871
33.7172
35.0179
36.4352
37.9428
39.5811
41.3562
43.2246
45.1964
47.2912
49.4479
51.6809
54.0095
55.2602
55.2602
57.5281
55.4628
53.4342
51.4115
49.4305
47.4713
45.5319
43.6202
41.7366
39.8888
38.0956
36.3744
34.7219
33.1707
31.7706
30.4926
29.3809
28.561
28.0079
27.7833
27.7935
27.8324
27.8854
27.9402
28.0913
28.3516
28.9497
29.763
30.7404
31.8545
32.9469
34.0401
35.2012
36.5003
37.9041
39.4686
41.2004
43.0306
44.9829
47.073
49.2269
51.4636
53.8019
55.0578
55.0578
58.1106
56.0019
53.9278
51.8542
49.8236
47.8219
45.847
43.9204
42.0446
40.2243
38.4894
36.8534
35.3055
33.8804
32.6194
31.4802
30.4995
29.7459
29.2465
29.0709
29.0844
29.1233
29.1762
29.231
29.3616
29.5778
30.0596
30.7589
31.6194
32.5871
33.4479
34.2857
35.2686
36.4574
37.7886
39.3156
41.0285
42.8464
44.7948
46.8864
49.0428
51.2848
53.6313
54.8911
54.8911
58.6748
56.5151
54.3868
52.2615
50.1838
48.1465
46.1377
44.1995
42.3285
40.5249
38.8352
37.277
35.816
34.5064
33.3927
32.4254
31.6466
30.9853
30.5467
30.4171
30.434
30.473
30.5259
30.5804
30.691
30.8621
31.2158
31.7771
32.4819
33.1968
33.7872
34.3876
35.2618
36.3876
37.6843
39.1949
40.8932
42.7125
44.6615
46.7541
48.9185
51.1659
53.5258
54.7799
54.7799
59.2614
57.0477
54.8221
52.6633
50.5429
48.4738
46.4248
44.4771
42.6251
40.83
39.1704
37.6558
36.2694
35.0576
34.0855
33.3034
32.7632
32.2181
31.8565
31.7717
31.7905
31.8296
31.8824
31.9372
32.027
32.1577
32.3815
32.7926
33.3166
33.7445
34.0846
34.4883
35.3074
36.4074
37.692
39.1971
40.8983
42.7111
44.6599
46.7546
48.9203
51.1694
53.5357
54.792
54.792
59.8587
57.6082
55.3472
53.1572
51.013
48.9256
46.8589
44.8991
43.0386
41.2368
39.575
38.0647
36.6916
35.5063
34.5902
33.9072
33.5362
33.1822
32.956
32.9189
32.9412
32.9804
33.0332
33.0879
33.1589
33.2509
33.3823
33.6744
34.074
34.4538
34.7983
35.2263
36.0406
37.1269
38.3938
39.8773
41.5557
43.3451
45.2705
47.3423
49.4852
51.7127
54.0584
55.306
55.306
60.4887
58.2164
55.9766
53.7811
51.6264
49.5177
47.4615
45.5006
43.624
41.8358
40.1827
38.6923
37.3241
36.161
35.2839
34.6471
34.3496
34.1263
34.0046
34.0049
34.036
34.0845
34.1478
34.2166
34.2847
34.35
34.4312
34.6586
34.9866
35.3663
35.7477
36.2056
37.0166
38.0951
39.3386
40.7969
42.4392
44.2069
46.1028
48.1385
50.2572
52.4572
54.7621
56.0071
56.0071
61.2711
58.9855
56.7082
54.4907
52.3341
50.2147
48.1703
46.2166
44.3646
42.5836
40.9448
39.4626
38.1187
36.9753
36.1156
35.4962
35.2179
35.0932
35.0452
35.0801
35.1271
35.193
35.2745
35.367
35.4415
35.4981
35.5553
35.7429
36.0316
36.4347
36.8588
37.3624
38.1726
39.2368
40.4503
41.8796
43.5005
45.2207
47.0827
49.1166
51.1715
53.3388
55.6399
56.856
56.856
62.1173
59.8283
57.5478
55.3319
53.1807
51.0685
49.0348
47.0946
45.2591
43.4954
41.8767
40.4152
39.0928
37.9704
37.1271
36.5152
36.2299
36.1604
36.1687
36.247
36.3233
36.4161
36.5227
36.6516
36.7469
36.8095
36.8633
37.038
37.3137
37.7404
38.2049
38.7474
39.5581
40.6072
41.7972
43.1958
44.7828
46.4658
48.2901
50.2878
52.3029
54.4332
56.7011
57.8967
57.8967
63.0154
60.7305
58.4871
56.2682
54.1274
52.0414
50.0227
48.1007
46.2842
44.5305
42.936
41.5166
40.2182
39.119
38.2885
37.6832
37.3904
37.3577
37.4167
37.5436
37.6612
37.7847
37.9192
38.0882
38.2115
38.2872
38.3437
38.5158
38.7939
39.2379
39.7266
40.3047
41.1157
42.1433
43.3248
44.6922
46.2295
47.8855
49.6708
51.5995
53.6123
55.7035
57.9147
59.0754
59.0754
64.0222
61.7425
59.4828
57.3274
55.2017
53.13
51.0978
49.1976
47.3948
45.6921
44.1244
42.7256
41.4308
40.3561
39.561
38.9674
38.6679
38.6647
38.7663
38.9414
39.0967
39.2569
39.4193
39.6303
39.7845
39.8899
39.9537
40.1276
40.3951
40.8515
41.3682
41.9693
42.7805
43.7982
44.9626
46.2996
47.7897
49.4132
51.158
53.0275
55.0224
57.0729
59.2525
60.3711
60.3711
65.1144
62.8467
60.5998
58.4614
56.3553
54.3061
52.2963
50.4224
48.6475
46.9743
45.4371
44.0689
42.8019
41.7535
40.9788
40.3957
40.0931
40.1138
40.2502
40.4699
40.6699
40.868
41.06
41.311
41.5016
41.6391
41.7137
41.8927
42.1616
42.6249
43.1592
43.7788
44.5887
45.5921
46.7346
48.041
49.4941
51.0798
52.7839
54.6104
56.5633
58.5714
60.7109
61.8057
61.8057
66.2835
64.0339
61.8577
59.6739
57.5918
55.5619
53.6233
51.7805
50.0602
48.3867
46.8834
45.5337
44.3371
43.3167
42.5418
41.9813
41.6782
41.7197
41.8766
42.1322
42.379
42.6138
42.8354
43.122
43.3497
43.5216
43.6115
43.7961
44.0697
44.5353
45.0897
45.7197
46.5272
47.5122
48.6162
49.8927
51.3285
52.8821
54.5462
56.369
58.2323
60.1969
62.2951
63.3938
63.3938
67.5937
65.3635
63.1341
61.0175
58.9633
56.9823
55.0464
53.236
51.5126
49.9242
48.4547
47.1394
45.9529
44.9611
44.2178
43.6634
43.3619
43.4154
43.6006
43.887
44.1666
44.4388
44.6883
45.0089
45.277
45.4852
45.5935
45.7905
46.0723
46.5402
47.0846
47.7477
48.5514
49.501
50.5801
51.8271
53.2775
54.7328
56.3568
58.1247
59.9849
61.9069
63.8932
65.0215
65.0215
68.9427
66.7369
64.5297
62.4432
60.4199
58.4715
56.569
54.7942
53.1066
51.5563
50.1233
48.8425
47.689
46.7266
46.0051
45.4655
45.1671
45.2315
45.4339
45.7435
46.0568
46.3605
46.6376
46.9877
47.2915
47.5394
47.6706
47.8808
48.1684
48.6362
49.1848
49.853
50.652
51.587
52.6449
53.8641
55.2828
56.7008
58.286
60.0128
61.8317
63.7113
65.6532
66.7599
66.7599
70.4019
68.2244
66.0527
63.9644
61.9753
60.0859
58.2322
56.4958
54.8805
53.3037
51.9093
50.6751
49.5776
48.6437
47.9266
47.4045
47.11
47.1845
47.3981
47.7227
48.0638
48.3906
48.6937
49.068
49.3993
49.6915
49.8509
50.0745
50.3671
50.8338
51.392
52.046
52.8391
53.7616
54.8265
56.0196
57.3744
58.79
60.338
62.0175
63.777
65.6149
67.5798
68.6294
68.6294
71.8676
69.7218
67.6658
65.6539
63.6972
61.7421
59.9649
58.2666
56.6749
55.153
53.7961
52.6101
51.5082
50.605
49.9328
49.4242
49.1347
49.2117
49.427
49.7638
50.1365
50.4806
50.8059
51.2012
51.5645
51.886
52.0744
52.3231
52.6223
53.0881
53.6609
54.3036
55.09
56.0203
57.0371
58.2048
59.532
60.9532
62.4654
64.0688
65.8208
67.6187
69.5008
70.5076
70.5076
73.4634
71.3502
69.3305
67.3557
65.4358
63.5157
61.7785
60.1198
58.5672
57.0846
55.7655
54.6146
53.545
52.6706
52.0203
51.5264
51.242
51.3232
51.5434
51.887
52.2759
52.6378
52.9825
53.3955
53.7852
54.1399
54.3598
54.6282
54.9367
55.4017
55.9745
56.6155
57.395
58.3122
59.3102
60.4537
61.7516
63.1417
64.6189
66.1833
67.8975
69.6556
71.496
72.4808
72.4808
75.2287
73.1487
71.0606
69.153
67.2747
65.4211
63.715
62.0948
60.5435
59.1541
57.8712
56.7211
55.7117
54.8638
54.2202
53.7339
53.4544
53.544
53.7724
54.1173
54.5107
54.8868
55.2449
55.6712
56.0834
56.469
56.7216
57.0045
57.3272
57.7918
58.3486
58.9938
59.766
60.6872
61.6541
62.7743
64.0444
65.3665
66.8105
68.394
70.0303
71.7499
73.6076
74.5562
74.5562
76.1141
74.0538
72.0269
70.1082
68.2502
66.4637
64.7186
63.1226
61.6604
60.2385
58.9763
57.8544
56.8553
56.0224
55.3874
54.9294
54.6533
54.7412
54.9644
55.3094
55.7053
56.0879
56.4548
56.8877
57.3079
57.7085
57.9778
58.2773
58.6031
59.0675
59.6214
60.2683
61.0369
61.942
62.9192
64.0287
65.2728
66.5996
68.026
69.5425
71.1459
72.8441
74.7061
75.671
75.671
76.1141
74.0538
72.0269
70.1082
68.2502
66.4637
64.7186
63.1226
61.6604
60.2385
58.9763
57.8544
56.8553
56.0224
55.3874
54.9294
54.6533
54.7412
54.9644
55.3094
55.7053
56.0879
56.4548
56.8877
57.3079
57.7085
57.9778
58.2773
58.6031
59.0675
59.6214
60.2683
61.0369
61.942
62.9192
64.0287
65.2728
66.5996
68.026
69.5425
71.1459
72.8441
74.7061
75.671
75.671
77.5712
75.6836
73.8132
71.9224
70.1493
68.3926
66.7486
65.1363
63.5954
62.1482
60.7581
59.4174
58.2088
57.1079
56.1666
55.2693
54.518
53.9618
53.571
53.3585
53.389
53.5899
53.9449
54.4038
54.9087
55.471
56.011
56.5239
57.02
57.5703
58.2187
58.9197
59.7531
60.7535
61.6894
62.7915
64.0427
65.3207
66.6943
68.1975
69.7004
71.3323
73.0914
74.0523
74.0523
75.6835
73.7808
71.8926
69.9848
68.1874
66.4037
64.7278
63.0809
61.5031
60.0149
58.5829
57.2004
55.9475
54.8028
53.8189
52.8814
52.0922
51.504
51.0815
50.838
50.8599
51.0613
51.426
51.8996
52.4252
53.0134
53.5916
54.1457
54.6838
55.2752
55.9622
56.7006
57.5676
58.5972
59.5657
60.6968
61.9747
63.2833
64.6877
66.2234
67.7613
69.427
71.2173
72.1975
72.1975
73.7314
71.8136
69.9249
68.1063
66.2838
64.4807
62.7494
61.0668
59.4928
57.8674
56.395
55.0009
53.7068
52.5156
51.4734
50.5179
49.6885
49.0542
48.5939
48.3217
48.3463
48.5432
48.9187
49.4075
49.9657
50.5824
51.2048
51.7953
52.3731
53.0099
53.7538
54.5607
55.4649
56.4601
57.5215
58.6836
59.9508
61.2938
62.729
64.2591
65.9952
67.6984
69.3533
70.3679
70.3679
71.9681
70.0346
68.0627
66.2416
64.3933
62.5371
60.731
59.0147
57.3974
55.7858
54.2675
52.8439
51.4965
50.2562
49.1289
48.1506
47.2785
46.6083
46.1234
45.8255
45.8402
46.0388
46.4253
46.9363
47.5181
48.1615
48.8326
49.4836
50.1278
50.8152
51.5884
52.4288
53.3709
54.4058
55.4812
56.6741
58.0016
59.3507
60.8182
62.4581
64.1239
65.8605
67.651
68.667
68.667
70.1845
68.2351
66.2479
64.404
62.5308
60.6469
58.8106
57.0566
55.3964
53.7403
52.1741
50.7007
49.3022
48.01
46.8326
45.8045
44.887
44.1805
43.6663
43.3486
43.3599
43.5633
43.9623
44.4986
45.1142
45.7997
46.5281
47.2387
47.944
48.6889
49.5149
50.4042
51.389
52.4618
53.5739
54.8002
56.1599
57.5424
59.0435
60.7162
62.4167
64.1885
66.0154
67.0502
67.0502
68.4032
66.4385
64.4839
62.5609
60.6643
58.7897
56.9785
55.1836
53.4286
51.7224
50.1072
48.5798
47.144
45.7975
44.5937
43.4757
42.512
41.7784
41.2208
40.888
40.9041
41.1179
41.5305
42.0937
42.7501
43.4831
44.2725
45.0499
45.8219
46.6286
47.5075
48.4358
49.4655
50.5989
51.7677
53.0298
54.385
55.8428
57.3789
58.9977
60.7433
62.5484
64.4764
65.4922
65.4922
66.6929
64.7124
62.7828
60.8052
58.8827
56.9928
55.1179
53.2845
51.4943
49.7559
48.0899
46.5115
45.0086
43.606
42.3259
41.1807
40.1667
39.3867
38.8153
38.4697
38.48
38.7009
39.128
39.7251
40.42
41.2054
42.0587
42.9039
43.7371
44.6093
45.5545
46.5422
47.6207
48.7828
49.9988
51.2973
52.6955
54.166
55.7365
57.4603
59.2083
61.0496
62.9832
64.0379
64.0379
65.0636
63.0666
61.1171
59.12
57.1719
55.2518
53.3429
51.4697
49.6365
47.8506
46.1329
44.4994
42.94
41.4791
40.141
38.9396
37.8727
37.0518
36.454
36.1011
36.1171
36.3489
36.7925
37.427
38.1688
39.01
39.9317
40.8478
41.7541
42.6964
43.7064
44.7543
45.8856
47.0948
48.3538
49.6917
51.127
52.6346
54.2413
56.0002
57.7844
59.6613
61.6303
62.7039
62.7039
63.525
61.5106
59.5182
57.4945
55.5221
53.5596
51.6325
49.72
47.8587
46.0142
44.2453
42.5584
40.9309
39.4111
38.0303
36.7626
35.641
34.7869
34.149
33.7929
33.826
34.0684
34.5293
35.2032
35.9975
36.899
37.8907
38.8764
39.8579
40.8724
41.9445
43.0693
44.2568
45.493
46.8092
48.1882
49.6905
51.2026
52.8459
54.6186
56.4802
58.3925
60.3924
61.4984
61.4984
62.0068
59.9787
57.9489
55.9684
53.9711
51.967
49.9838
48.0335
46.1208
44.2491
42.4293
40.6778
39.0041
37.4257
35.9841
34.6521
33.4734
32.5742
31.9161
31.5573
31.5952
31.8551
32.3329
33.0504
33.8941
34.8585
35.9213
36.9782
38.0316
39.1182
40.2734
41.4555
42.7009
43.9916
45.3535
46.7759
48.2751
49.8837
51.5649
53.3761
55.2314
57.178
59.2393
60.339
60.339
60.5905
58.5487
56.5047
54.5069
52.4885
50.4594
48.4477
46.4617
44.5094
42.5934
40.7255
38.9224
37.1944
35.5581
34.0565
32.6643
31.4268
30.4802
29.7948
29.4363
29.4886
29.7634
30.2558
31.0185
31.9175
32.946
34.0796
35.209
36.3364
37.4953
38.7184
39.9661
41.2709
42.6156
44.0265
45.4937
47.0353
48.6822
50.4005
52.247
54.137
56.1166
58.2092
59.3256
59.3256
59.2841
57.2296
55.1673
53.1233
51.0889
49.0786
47.0382
45.0211
43.0245
41.0529
39.1427
37.3155
35.5291
33.8398
32.292
30.8384
29.5425
28.5398
27.829
27.4717
27.5426
27.8267
28.3261
29.1341
30.0906
31.1818
32.3847
33.5875
34.786
36.014
37.2921
38.6149
39.978
41.3831
42.824
44.336
45.943
47.6016
49.3558
51.236
53.1713
55.1818
57.3093
58.4323
58.4323
58.0302
55.9663
53.921
51.8432
49.7947
47.7626
45.7053
43.6609
41.6467
39.6431
37.6956
35.8084
33.989
32.2521
30.64
29.1406
27.7884
26.7419
26.0001
25.6451
25.7303
26.0251
26.5214
27.374
28.3852
29.5412
30.8113
32.0802
33.3501
34.6433
35.9824
37.3525
38.7722
40.2347
41.738
43.2945
44.9448
46.6289
48.4179
50.3274
52.3049
54.3455
56.4771
57.6395
57.6395
56.893
54.8208
52.7673
50.6836
48.626
46.5809
44.5088
42.4445
40.407
38.3786
36.4033
34.4862
32.6345
30.8617
29.2077
27.6623
26.2596
25.1661
24.3977
24.0458
24.1453
24.4375
24.9113
25.8058
26.8693
28.0865
29.4202
30.7521
32.0841
33.4358
34.8315
36.2572
37.7295
39.2406
40.79
42.3891
44.0778
45.7992
47.6214
49.5599
51.5666
53.6342
55.7916
56.9671
56.9671
55.892
53.8122
51.734
49.676
47.614
45.5446
43.4732
41.3981
39.3449
37.3043
35.3162
33.3886
31.5232
29.7395
28.0733
26.5038
25.0731
23.9483
23.1605
22.8157
22.9196
23.1763
23.5745
24.5044
25.6121
26.8804
28.2684
29.6549
31.0358
32.4325
33.8739
35.3503
36.8656
38.4102
39.9991
41.6377
43.353
45.1421
46.9963
48.9421
50.9567
53.0486
55.2589
56.4277
56.4277
54.9851
52.8987
50.8092
48.7558
46.6912
44.6169
42.5388
40.4567
38.3942
36.3454
34.3535
32.4345
30.5714
28.8
27.1502
25.5954
24.1768
23.0545
22.2855
21.9743
22.0383
22.2009
22.4463
23.4073
24.5511
25.8605
27.2911
28.7151
30.1351
31.5631
33.0334
34.5335
36.0836
37.6759
39.3001
40.9777
42.7408
44.5432
46.4302
48.4157
50.4709
52.5879
54.7922
56.0036
56.0036
54.202
52.1091
50.0162
47.9586
45.8931
43.8176
41.7378
39.6524
37.5878
35.5384
33.5527
31.652
29.8182
28.0928
26.5079
25.0267
23.6897
22.643
21.953
21.7268
21.6708
21.6311
21.597
22.5837
23.7508
25.0817
26.5358
27.9798
29.4158
30.8551
32.3387
33.8542
35.4286
37.0527
38.7137
40.4317
42.2341
44.0758
45.998
48.0145
50.0963
52.2384
54.4651
55.6848
55.6848
53.6029
51.5051
49.4243
47.3559
45.2892
43.2179
41.1287
39.0338
36.9596
34.902
32.9028
30.9869
29.1485
27.4263
25.855
24.3877
23.0675
22.033
21.453
21.4866
21.243
21.1338
21.2001
22.1784
23.3105
24.5885
26.0031
27.4258
28.8581
30.3033
31.7949
33.3171
34.9004
36.5362
38.2157
39.9586
41.7885
43.6679
45.6193
47.6577
49.7569
51.9232
54.1961
55.3889
55.3889
53.171
51.0759
48.9986
46.9408
44.8915
42.8409
40.776
38.7033
36.6398
34.5969
32.6067
30.6989
28.8638
27.1359
25.5509
24.0757
22.7454
21.7128
21.179
21.3187
21.0452
20.9879
21.2114
22.0435
23.0358
24.1813
25.5257
26.9144
28.3342
29.782
31.2684
32.7886
34.3695
36.0165
37.7072
39.4665
41.3075
43.2123
45.1902
47.2589
49.3954
51.5873
53.8588
55.0839
55.0839
52.9126
50.8318
48.7771
46.7473
44.7434
42.7493
40.7475
38.7458
36.749
34.7677
32.8239
30.9439
29.1222
27.3869
25.774
24.2647
22.8984
21.8751
21.2849
21.2592
21.2056
21.3521
21.7296
22.2176
22.923
23.841
25.084
26.4207
27.8239
29.2707
30.7485
32.2556
33.8202
35.4573
37.1446
38.9108
40.768
42.6921
44.6938
46.7886
48.9509
51.1693
53.4664
54.7059
54.7059
52.9417
50.866
48.8168
46.7989
44.8114
42.8313
40.8517
38.8719
36.8995
34.9351
33.0051
31.1367
29.3161
27.5841
25.9744
24.465
23.1006
22.083
21.5521
21.6714
21.6881
21.8067
22.0511
22.1617
22.6071
23.3738
24.5369
25.85
27.2706
28.7455
30.2372
31.7478
33.3038
34.9294
36.6137
38.3844
40.2527
42.1916
44.2121
46.3353
48.5105
50.7517
53.0835
54.3256
54.3256
53.1305
51.0612
49.023
47.0141
45.0392
43.0717
41.1108
39.1453
37.1808
35.2254
33.2977
31.425
29.6011
27.8596
26.2407
24.7273
23.3625
22.3378
21.7686
21.8049
21.8387
21.9161
22.0438
21.9986
22.2748
22.8684
23.9664
25.2575
26.6894
28.1931
29.7045
31.2302
32.7897
34.4169
36.1043
37.8818
39.7642
41.7188
43.7567
45.8957
48.093
50.355
52.7069
53.9621
53.9621
53.4873
51.4264
49.3966
47.3971
45.433
43.4776
41.5257
39.5699
37.6125
35.658
33.7223
31.8329
29.9884
28.223
26.5852
25.058
23.687
22.6427
21.9131
21.5806
21.5837
21.623
21.6764
21.7313
21.9399
22.3301
23.3784
24.6476
26.0798
27.6107
29.1515
30.7042
32.2807
33.9201
35.6165
37.4035
39.2982
41.2648
43.3183
45.4765
47.6917
49.9728
52.3444
53.6101
53.6101
53.9662
51.8991
49.8613
47.8556
45.8859
43.9283
41.9805
40.0363
38.0956
36.1641
34.256
32.3966
30.5861
28.8593
27.2696
25.798
24.491
23.5089
22.8253
22.5146
22.5192
22.5585
22.6119
22.6667
22.8594
23.2131
24.131
25.2585
26.5361
27.8744
29.2301
30.6144
32.0723
33.6331
35.275
37.0316
38.912
40.8742
42.9306
45.0975
47.3249
49.6208
52.0091
53.2832
53.2832
54.5061
52.428
50.383
48.3603
46.379
44.4132
42.4652
40.5293
38.6052
36.7008
34.8288
33.0163
31.2492
29.576
28.048
26.6367
25.3959
24.4731
23.8403
23.5699
23.5775
23.6166
23.6699
23.7247
23.8963
24.2031
24.9652
25.9457
27.0815
28.2924
29.4996
30.7278
32.0498
33.5094
35.0717
36.778
38.6282
40.5742
42.6253
44.7982
47.0317
49.3395
51.7389
53.027
53.027
55.1004
53.0053
50.9501
48.9031
46.9019
44.9232
42.9642
41.031
39.1223
37.2456
35.4169
33.6541
31.956
30.354
28.8999
27.5672
26.4012
25.5342
24.9578
24.7438
24.7547
24.7938
24.847
24.9018
25.0485
25.3002
25.8876
26.7156
27.723
28.8568
29.9375
31.0102
32.1802
33.5195
34.9815
36.6224
38.4381
40.3545
42.3941
44.5694
46.8062
49.123
51.5362
52.8322
52.8322
55.7228
53.5826
51.4779
49.3742
47.3125
45.2772
43.2662
41.2986
39.3784
37.5113
35.7276
34.0441
32.4513
30.9864
29.6959
28.5339
27.5392
26.7538
26.2401
26.0802
26.0948
26.1339
26.187
26.2418
26.3661
26.57
27.0297
27.7318
28.6081
29.569
30.3839
31.1739
32.1808
33.4267
34.8314
36.4453
38.2492
40.1592
42.1989
44.3788
46.6209
48.9454
51.3687
52.6697
52.6697
56.3307
54.1367
51.9732
49.8112
47.6927
45.6111
43.5535
41.5604
39.6315
37.7674
36.0166
34.4009
32.8872
31.5347
30.3987
29.432
28.6894
28.0173
27.5751
27.464
27.4822
27.5214
27.5744
27.629
27.7321
27.8876
28.2044
28.7495
29.4465
30.118
30.654
31.2153
32.1329
33.3291
34.7092
36.3126
38.1065
40.0208
42.0637
44.2464
46.4979
48.8293
51.268
52.5634
52.5634
56.9629
54.7116
52.4461
50.2448
48.0754
45.9527
43.8468
41.8352
39.9153
38.0502
36.3185
34.734
33.2818
32.0141
31.0134
30.2437
29.7842
29.2529
28.9012
28.8356
28.8558
28.895
28.9481
29.0028
29.0844
29.1974
29.3715
29.7469
30.2379
30.5911
30.8888
31.2839
32.1655
33.345
34.7181
36.3181
38.1157
40.0244
42.0676
44.253
46.5059
48.8394
51.2846
52.583
52.583
57.6045
55.3136
53.0093
50.7731
48.5764
46.4318
44.3046
42.2774
40.3446
38.4678
36.7272
35.1381
33.688
32.4321
31.4661
30.7687
30.4435
30.1288
29.9329
29.9136
29.9373
29.9767
30.0297
30.0844
30.1483
30.2254
30.3213
30.5842
30.9582
31.3114
31.6451
32.0829
32.9571
34.1188
35.4693
37.0429
38.8131
40.6941
42.71
44.8691
47.0962
49.4053
51.8277
53.1161
53.1161
58.2764
55.9616
53.6763
51.4321
49.2227
47.0545
44.9359
42.9061
40.9565
39.0918
37.3584
35.7869
34.3389
33.1011
32.1663
31.5001
31.2211
31.0369
30.9464
30.9612
30.9951
31.0461
31.1122
31.1847
31.2494
31.3045
31.3643
31.5723
31.8848
32.2663
32.6567
33.136
34.0039
35.1533
36.4751
38.0179
39.7465
41.601
43.5827
45.7018
47.9013
50.1796
52.5576
53.8424
53.8424
59.0973
56.7674
54.4431
52.1754
49.9628
47.7836
45.6757
43.6529
41.7283
39.871
38.1532
36.5918
35.1698
33.9533
33.0352
32.3789
32.0989
32.0013
31.977
32.0237
32.0763
32.1481
32.2364
32.3379
32.4142
32.4659
32.514
32.6928
32.9762
33.3974
33.8425
34.3747
35.2388
36.3691
37.6555
39.1634
40.8646
42.666
44.6088
46.7215
48.8534
51.0952
53.4669
54.72
54.72
59.9788
57.6442
55.3154
53.048
50.84
48.6672
46.5697
44.5604
42.653
40.8142
39.1184
37.5802
36.1826
34.99
34.0906
33.4404
33.1458
33.0959
33.1252
33.2197
33.3063
33.409
33.5257
33.6695
33.7716
33.834
33.8845
34.0564
34.3327
34.7828
35.2734
35.848
36.7095
37.8199
39.0774
40.5487
42.2101
43.9687
45.8685
47.9403
50.028
52.2287
54.5636
55.7943
55.7943
60.9096
58.578
56.2848
54.0135
51.8154
49.6689
47.5867
45.5965
43.7088
41.8823
40.2131
38.7198
37.3503
36.1847
35.3007
34.6582
34.3531
34.3358
34.4153
34.5634
34.696
34.8334
34.9805
35.1693
35.3043
35.3845
35.4412
35.6143
35.8967
36.366
36.8832
37.4948
38.3537
39.4383
40.6817
42.1161
43.7233
45.4484
47.304
49.3024
51.3834
53.5409
55.8148
57.0101
57.0101
61.9462
59.6191
57.3095
55.1021
52.919
50.7861
48.6912
46.7241
44.8521
43.079
41.4397
39.9705
38.6084
37.4714
36.6266
35.9975
35.6849
35.6948
35.8166
36.0174
36.1927
36.3702
36.5473
36.7822
36.9528
37.0673
37.1337
37.3115
37.5863
38.0682
38.6143
39.2492
40.1053
41.1756
42.3968
43.7956
45.3502
47.0382
48.8483
50.7823
52.8396
54.9523
57.1931
58.343
58.343
63.0674
60.752
58.4551
56.2649
54.102
51.9927
49.9215
47.9827
46.1412
44.4007
42.7956
41.3612
40.0313
38.9252
38.1047
37.4889
37.1738
37.2061
37.3627
37.6107
37.8343
38.0523
38.2605
38.5384
38.7493
38.9006
38.9798
39.1649
39.4432
39.931
40.4942
41.1468
41.9989
43.051
44.2458
45.6091
47.1218
48.767
50.5316
52.4182
54.4291
56.4954
58.6927
59.8168
59.8168
64.2637
61.9669
59.7432
57.5069
55.3693
53.2826
51.2845
49.3794
47.5951
45.8582
44.291
42.8801
41.6245
40.5511
39.7345
39.1441
38.8295
38.8813
39.0578
39.3423
39.6147
39.8709
40.1095
40.4246
40.6757
40.8655
40.9622
41.155
41.4394
41.9283
42.5106
43.1723
44.0193
45.0497
46.2019
47.5307
49.0219
50.6305
52.3507
54.2282
56.1481
58.1672
60.3176
61.4446
61.4446
65.605
63.3283
61.0493
58.883
56.7751
54.7383
52.7454
50.8758
49.0923
47.4437
45.9147
44.5422
43.3018
42.2615
41.4802
40.8991
40.5872
40.6498
40.8537
41.1684
41.4745
41.7688
42.0358
42.3855
42.6793
42.909
43.0263
43.2337
43.5275
44.0175
44.5889
45.2819
46.1227
47.115
48.2388
49.5341
51.0353
52.5414
54.2174
56.0373
57.9486
59.9216
61.9583
63.112
63.112
66.9833
64.7321
62.4768
60.3422
58.2673
56.2655
54.3089
52.4782
50.7342
49.1277
47.6395
46.3061
45.1032
44.0967
43.3409
42.7773
42.4694
42.5419
42.7615
43.0981
43.4374
43.763
44.0574