<VTKFile type="ImageData" version="1.0" byte_order="LittleEndian" header_type="UInt64">
	<ImageData WholeExtent="0 44 0 44 0 44" Origin="-35.5677 -35.5677 -35.5677" Spacing="2.92888 2.92888 2.92888">
		<Piece Extent="0 44 0 44 0 44">
			<PointData Scalars="Scalars_">
				<DataArray type="Float32" Name="Scalars_" format="ascii" RangeMin="0" RangeMax="100">
63.532
61.8787
60.3023
58.8085
57.4035
56.0942
54.8873
53.7897
52.8095
51.9544
51.233
50.6543
50.2281
49.9684
50.12
50.3465
50.4878
50.6892
50.9597
51.3101
51.6997
52.0822
52.4602
52.8524
53.2899
53.7848
54.3345
54.9179
55.4962
56.0539
56.6055
57.1757
57.7881
58.4611
59.2088
60.0386
60.9548
61.9579
63.0467
64.219
65.4711
66.7999
68.2012
69.6712
71.2064
61.8786
60.188
58.5744
57.0432
55.6012
54.2551
53.0124
51.8804
50.8675
49.9821
49.233
48.63
48.1844
47.9113
48.0551
48.2626
48.3514
48.5282
48.7793
49.1171
49.4856
49.833
50.1773
50.5399
50.9562
51.436
51.9734
52.5416
53.0937
53.622
54.1511
54.7095
55.3205
56.0016
56.7653
57.6183
58.5627
59.5988
60.724
61.9351
63.2285
64.5999
66.045
67.56
69.14
60.3022
58.5746
56.9237
55.3553
53.8759
52.4929
51.2138
50.047
49.0006
48.0836
47.3059
46.6779
46.2117
45.9241
46.0571
46.2375
46.2654
46.4181
46.6484
46.9721
47.3141
47.6188
47.9264
48.2569
48.6506
49.1141
49.6382
50.1881
50.7084
51.2043
51.7115
52.2601
52.8722
53.5638
54.3462
55.2245
56.1999
57.2711
58.4351
59.6876
61.0243
62.4404
63.9313
65.4924
67.1191
58.8086
57.0446
55.3566
53.7512
52.2348
50.815
49.4996
48.2971
47.2166
46.2675
45.4602
44.8062
44.3184
44.0156
44.1332
44.2755
44.2379
44.3665
44.5733
44.881
45.1891
45.4429
45.7119
46.0069
46.3769
46.8231
47.3322
47.8601
48.3418
48.8032
49.2898
49.8308
50.4462
51.1512
51.9549
52.8612
53.87
54.9789
56.1841
57.4802
58.8626
60.3255
61.8638
63.4729
65.1475
57.4036
55.6042
53.8802
52.2385
50.6855
49.2292
47.8776
46.6397
45.5249
44.5432
43.7057
43.0248
42.5144
42.1955
42.2915
42.3814
42.2792
42.382
42.5616
42.8503
43.115
43.3096
43.5391
43.7949
44.1396
44.5669
45.0593
45.5603
45.9955
46.4211
46.8895
47.4254
48.047
48.7678
49.5955
50.5327
51.5777
52.727
53.9755
55.3178
56.7477
58.2594
59.8473
61.5058
63.2299
56.0942
54.2607
52.5018
50.8248
49.2362
47.7442
46.3573
45.0845
43.9355
42.9212
42.0532
41.3445
40.8107
40.4746
40.5401
40.5606
40.4008
40.4744
40.6215
40.8879
41.0965
41.2249
41.4148
41.6258
41.9438
42.3507
42.8244
43.2924
43.6718
44.0623
44.5152
45.0489
45.6792
46.4186
47.2731
48.2438
49.3276
50.52
51.8147
53.2052
54.6849
56.2472
57.8861
59.5958
61.3708
54.8872
53.021
51.2293
49.5187
47.8962
46.37
44.9488
43.6421
42.4599
41.4133
40.5148
39.7781
39.2199
38.8651
38.8875
38.8259
38.6152
38.6543
38.7628
39.0014
39.1395
39.1969
39.3465
39.5057
39.7961
40.1809
40.6331
41.0598
41.3736
41.7313
42.1723
42.7065
43.3482
44.1088
44.993
46.0001
47.1257
48.3637
49.7069
51.148
52.6796
54.2946
55.9862
57.7485
59.5756
53.7896
51.8935
50.071
48.329
46.6748
45.1166
43.6634
42.3245
41.1106
40.0331
39.1045
38.3396
37.7561
37.3801
37.3424
37.1925
36.9362
36.9344
36.9962
37.1988
37.2503
37.2364
37.3433
37.4424
37.7045
38.0649
38.4919
38.8665
39.1052
39.4349
39.8674
40.4047
41.0605
41.845
42.7617
43.8082
44.9783
46.2645
47.6588
49.1527
50.7382
52.4075
54.1535
55.9696
57.8496
52.8094
50.886
49.0358
47.2655
45.5828
43.9956
42.5132
41.1451
39.9018
38.7951
37.8381
37.0453
36.435
36.0327
35.9169
35.6777
35.3789
35.3288
35.3347
35.4883
35.4388
35.3575
35.4151
35.4452
35.6787
36.0113
36.4082
36.7168
36.8726
37.1808
37.6084
38.151
38.8233
39.6347
40.5869
41.6755
42.8929
44.2301
45.6777
47.2267
48.8678
50.5931
52.3946
54.2653
56.1992
51.9544
50.0075
48.1332
46.3386
44.6313
43.0191
41.5117
40.1182
38.8493
37.7166
36.733
35.9132
35.2742
34.8376
34.6276
34.3009
33.9598
33.8529
33.7932
33.876
33.7207
33.5759
33.5731
33.5271
33.7305
34.0308
34.3905
34.6161
34.6848
34.979
35.4043
35.9545
36.6457
37.4866
38.4771
39.6107
40.878
42.2687
43.7721
45.3779
47.0764
48.8588
50.7167
52.643
54.631
51.2332
49.267
47.3732
45.5589
43.832
42.2003
40.673
39.2597
37.9704
36.8164
35.8098
34.9641
34.294
33.8115
33.4943
33.0836
32.6977
32.523
32.3891
32.371
32.1152
31.9076
31.8298
31.7046
31.8744
32.1356
32.4479
32.5706
32.5547
32.841
33.2662
33.8257
34.5378
35.4108
36.4424
37.6239
38.9438
40.3902
41.9512
43.6155
45.3726
47.213
49.128
51.1102
53.1524
50.6544
48.6737
46.7659
44.938
43.1976
41.5531
40.0132
38.5875
37.2853
36.1167
35.0923
34.2229
33.5178
32.9748
32.5413
32.0506
31.614
31.3579
31.1388
30.9935
30.644
30.3696
30.2022
29.9979
30.1275
30.3399
30.5896
30.5903
30.4995
30.7812
31.2074
31.7771
32.5123
33.4199
34.4951
35.7267
37.1015
38.6055
40.2256
41.9496
43.7662
45.665
47.6373
49.675
51.7712
50.228
48.2389
46.323
44.4881
42.7419
41.093
39.5502
38.1224
36.818
35.6451
34.6112
33.7215
32.9755
32.3538
31.798
31.2304
30.733
30.379
30.0591
29.7703
29.3313
28.9819
28.712
28.4306
28.5104
28.66
28.8245
28.6935
28.5385
28.8161
29.2435
29.8242
30.584
31.5283
32.6493
33.9332
35.3644
36.9274
38.6076
40.3918
42.2678
44.225
46.2541
48.3466
50.4956
49.9687
47.9763
46.0588
44.2241
42.4807
40.838
39.3052
37.8915
36.6046
35.4496
34.4253
33.5213
32.7165
31.9849
31.3044
30.6587
30.0827
29.6119
29.173
28.7317
28.2055
27.7691
27.3859
27.0305
27.0468
27.1141
27.1597
26.9055
26.694
26.9656
27.3936
27.9853
28.7706
29.753
30.9213
32.2589
33.7476
35.3702
37.1107
38.9547
40.8896
42.9042
44.9887
47.1347
49.335
50.1199
48.1414
46.2374
44.4161
42.6864
41.0569
39.5371
38.1355
36.8583
35.7074
34.675
33.7386
32.8602
32.0044
31.1716
30.3933
29.6993
29.0934
28.5139
27.9151
27.3016
26.7613
26.2571
25.8305
25.7641
25.722
25.6197
25.2552
24.9922
25.2539
25.681
26.2828
27.0936
28.1145
29.3307
30.7222
32.2684
33.9501
35.7498
37.6525
39.6446
41.7146
43.8525
46.0497
48.2987
50.3459
48.3943
46.5159
44.7183
43.0106
41.4018
39.9007
38.5149
37.2492
36.1029
35.0647
34.1078
33.1951
32.3006
31.4265
30.58
29.7556
28.9383
28.1339
27.3729
26.6676
25.9972
25.367
24.8689
24.6913
24.5077
24.2411
23.7755
23.4652
23.7103
24.1344
24.7437
25.5785
26.637
27.9001
29.3444
30.9464
32.6852
34.542
36.5006
38.5471
40.6694
42.8575
45.1025
47.397
50.4863
48.5842
46.7542
45.0039
43.3409
41.7737
40.31
38.9565
37.7163
36.586
35.5517
34.5861
33.6556
32.7404
31.8408
30.957
30.0792
29.1925
28.2834
27.3491
26.41
25.5289
24.7734
24.1954
23.8607
23.5072
23.066
22.5073
22.1541
22.3709
22.7889
23.4009
24.256
25.3489
26.6559
28.1496
29.804
31.596
33.5058
35.5161
37.6125
39.7828
42.0166
44.3051
46.6408
50.6881
48.82
47.028
45.3182
43.6985
42.1753
40.7548
39.4417
38.2363
37.1322
36.112
35.1476
34.2099
33.2839
32.3667
31.4534
30.531
29.5824
28.5955
27.5751
26.546
25.5525
24.6517
23.8991
23.3176
22.7722
22.1463
21.5028
21.1128
21.28
21.6876
22.2939
23.1622
24.2833
25.6283
27.1654
28.8661
30.7052
32.6616
34.7175
36.8577
39.0699
41.3437
43.6701
46.0419
50.9589
49.1222
47.3638
45.6907
44.1099
42.6272
41.2483
39.9755
38.8067
37.7317
36.73
35.7722
34.8324
33.8985
32.9653
32.0245
31.0637
30.0712
29.0416
27.9837
26.9212
25.8898
24.93
24.0583
23.2352
22.3875
21.5499
20.8377
20.4211
20.4919
20.8824
21.4694
22.3396
23.4789
24.8521
26.4234
28.161
30.0381
32.0323
34.125
36.301
38.5475
40.854
43.2118
45.6133
51.3099
49.502
47.7743
46.1338
44.5871
43.1402
41.7974
40.5603
39.4243
38.376
37.3912
36.4389
35.4953
34.5502
33.5974
32.629
31.6353
30.6089
29.5487
28.466
27.3871
26.3444
25.3654
24.4477
23.5538
22.6599
21.8089
21.0616
20.4919
20.0716
20.4275
20.9797
21.8383
22.9824
24.3706
25.9628
27.7243
29.6266
31.6463
33.7645
35.9654
38.2362
40.5665
42.9475
45.3719
51.6989
49.925
48.2317
46.6254
45.1135
43.7011
42.3923
41.1872
40.079
39.0515
38.0774
37.1248
36.173
35.2145
34.2443
33.2564
32.2426
31.1965
30.1186
29.0219
27.9334
26.8828
25.8883
24.9405
24.0129
23.1037
22.248
21.4803
20.8543
20.3928
20.2142
20.8794
21.8756
23.1256
24.585
26.2218
28.0094
29.9253
31.9505
34.0687
36.2661
38.5315
40.855
43.2285
45.6452
52.0808
50.3499
48.6987
47.1339
45.6617
44.2872
43.0133
41.8386
40.754
39.7407
38.7702
37.8131
36.8529
35.8861
34.9082
33.9133
32.8927
31.8386
30.7519
29.646
28.5472
27.4839
26.474
25.5124
24.5793
23.6724
22.8181
22.0387
21.3712
20.8554
20.5989
21.2708
22.2793
23.5475
25.0258
26.6777
28.475
30.3954
32.4204
34.5347
36.7256
38.9824
41.2962
43.6591
46.0649
52.459
50.7717
49.1645
47.6433
46.2136
44.8791
43.6411
42.4962
41.4328
40.4304
39.4612
38.501
37.5384
36.5711
35.5945
34.6005
33.5792
32.5216
31.4282
30.3134
29.2046
28.1311
27.1127
26.1489
25.2205
24.3161
23.4544
22.6601
21.9757
21.4522
21.2183
21.8882
22.8961
24.1652
25.6447
27.297
29.0928
31.0093
33.0282
35.1343
37.3154
39.561
41.8626
44.2129
46.6058
52.8514
51.2083
49.6455
48.1684
46.7814
45.4873
44.2852
43.1698
42.1274
41.1362
40.1713
39.2134
38.255
37.2929
36.3212
35.3308
34.3108
33.2521
32.1556
31.0377
29.9272
28.8538
27.8376
26.8799
25.9599
25.0608
24.2001
23.4095
22.7375
22.242
22.1104
22.7657
23.7551
25.005
26.4657
28.0999
29.8783
31.778
33.78
35.8694
38.0338
40.2628
42.5478
44.8818
47.2584
53.2889
51.6876
50.1677
48.7335
47.3887
46.1345
44.9682
43.8822
42.861
41.8829
40.9253
39.973
39.0205
38.064
37.0969
36.1097
35.0915
34.0339
32.9384
31.8231
30.7171
29.6499
28.6416
27.6937
26.7853
25.9
25.0587
24.2974
23.6638
23.2136
23.2256
23.8648
24.8292
26.0497
27.4798
29.0834
30.8323
32.7036
34.6787
36.7425
38.8824
41.0881
43.3508
45.6633
48.0193
53.7843
52.2225
50.7433
49.3505
48.0465
46.831
45.6995
44.6421
43.6415
42.6754
41.7246
40.777
39.8284
38.875
37.9105
36.9252
35.9082
34.8516
33.7579
32.6463
31.546
30.486
29.4864
28.5488
27.6544
26.791
25.9837
25.2718
24.703
24.3312
24.4879
25.1248
26.0688
27.26
28.6562
30.2242
31.9372
33.7735
35.715
37.7465
39.8559
42.0326
44.2679
46.5544
48.8857
54.3342
52.8096
51.3689
50.0151
48.7495
47.5701
46.4708
45.4385
44.4546
43.497
42.5492
41.6031
40.6551
39.7017
38.7355
37.7471
36.7251
35.6632
34.5669
33.4575
32.3645
31.3159
30.329
29.4038
28.5243
27.6858
26.9155
26.2543
25.7586
25.5421
25.8253
26.4809
27.4175
28.5872
29.9538
31.488
33.165
34.9648
36.87
38.8664
40.9419
43.0861
45.2904
47.5476
49.8509
54.9177
53.4297
52.0258
50.7088
49.4784
48.3316
47.2593
46.2471
45.2741
44.3203
43.3723
42.4247
41.4742
40.5163
39.543
38.5443
37.5105
36.4388
35.3389
34.2342
33.1529
32.1204
31.1498
30.2387
29.3748
28.5606
27.8255
27.2104
26.772
26.7786
27.1735
27.8697
28.817
29.9792
31.3269
32.8347
34.481
36.2476
38.1185
40.0806
42.1219
44.2329
46.4052
48.6314
50.9053
55.4956
54.048
52.6833
51.4031
50.2069
49.0893
48.0402
47.0426
46.076
45.1229
44.1726
43.2214
42.2657
41.2998
40.3163
39.3058
38.2617
37.1846
36.0867
34.9904
33.9214
32.9019
31.9428
31.0423
30.1942
29.4072
28.7125
28.1493
27.7637
27.9749
28.4783
29.2344
30.2119
31.3842
32.7277
34.2214
35.8468
37.5878
39.4304
41.3624
43.3729
45.453
47.5945
49.7906
52.0351
56.0531
54.6472
53.3227
52.08
50.9168
49.827
48.7977
47.8114
46.8489
45.8946
44.9409
43.9847
43.0219
42.0475
41.0543
40.0346
38.984
37.9049
36.81
35.7208
34.661
33.6505
32.6996
31.8091
30.9787
30.2232
29.5744
29.074
28.7656
29.112
29.7123
30.5358
31.5577
32.756
34.111
35.605
37.2223
38.9489
40.7724
42.6819
44.668
46.7222
48.8369
51.0059
53.2234
56.6047
55.236
53.9478
52.7398
51.6076
50.5425
49.5305
48.5533
47.5927
46.6362
45.6783
44.7166
43.7477
42.7662
41.7655
40.7385
39.6814
38.5982
37.503
36.4177
35.366
34.3664
33.4281
32.5524
31.7439
31.0222
30.4203
29.9854
29.8025
30.2225
30.8909
31.7715
32.8381
34.0691
35.4457
36.9518
38.5729
40.2966
42.1117
44.0085
45.9785
48.0141
50.1085
52.2558
54.4509
57.1751
55.8357
54.577
53.3968
52.2893
51.2441
50.245
49.2734
48.3131
47.3544
46.3935
45.4287
44.4561
43.4707
42.4646
41.431
40.3669
39.2785
38.1821
37.1009
36.0584
35.0719
34.1494
33.2925
32.5083
31.8184
31.257
30.8732
30.8677
31.3313
32.0439
32.9647
34.0663
35.3262
36.7255
38.2479
39.8795
41.6082
43.4236
45.3166
47.2791
49.3042
51.3856
53.518
55.6966
57.7879
56.4697
55.2314
54.0701
52.9787
51.9452
50.9525
49.9823
49.0206
48.0602
47.0987
46.1335
45.1604
44.1729
43.1632
42.1245
41.056
39.9656
38.8715
37.7971
36.7649
35.7915
34.8853
34.0497
33.2925
32.6335
32.105
31.7528
31.922
32.4328
33.1823
34.1341
35.2618
36.5436
37.961
39.498
41.1408
42.8774
44.6974
46.5918
48.5529
50.5739
52.6489
54.7728
56.941
58.461
57.1577
55.9326
54.7819
53.6974
52.6663
51.6719
50.697
49.7306
48.7672
47.8046
46.839
45.865
44.875
43.8614
42.8192
41.7488
40.6604
39.5725
38.5079
37.4881
36.5299
35.6426
34.8312
34.104
33.4799
32.9896
32.6722
32.9624
33.5251
34.3107
35.2896
36.4384
37.7369
39.1677
40.7155
42.3667
44.1099
45.9347
47.832
49.7943
51.8147
53.8875
56.0075
58.1703
59.2086
57.9153
56.6977
55.551
54.4658
53.4293
52.4253
51.4394
50.4628
49.4912
48.5222
47.5507
46.5705
45.5748
44.5563
43.5112
42.4414
41.3574
40.2775
39.2235
38.2168
37.2741
36.406
35.619
34.9234
34.3405
33.9041
33.6603
34.02
34.6253
35.4414
36.4428
37.6084
38.9193
40.3594
41.914
43.5703
45.3172
47.1446
49.0435
51.0067
53.0271
55.0991
57.2174
59.3774
60.0386
58.7526
57.5387
56.391
55.3001
54.2525
53.2336
52.2314
51.2391
50.2528
49.2698
48.2849
47.2921
46.285
45.2586
44.2095
43.1397
42.0594
40.986
39.9409
38.9456
38.0172
37.1682
36.4071
35.7459
35.2072
34.8305
34.715
35.1139
35.7495
36.5884
37.6066
38.784
40.1031
41.5484
43.1062
44.764
46.5111
48.3383
50.2367
52.1987
54.2178
56.2883
58.4047
60.5628
60.9548
59.6742
58.4616
57.3103
56.2102
55.1482
54.1116
53.0901
52.0782
51.0727
50.0706
49.0666
48.056
47.0335
45.9946
44.9361
43.8603
42.7776
41.7054
40.6648
39.6774
38.7624
37.9342
37.2034
36.5821
36.0916
35.7705
35.8118
36.2416
36.9014
37.758
38.7884
39.9737
41.2972
42.7441
44.3016
45.958
47.7026
49.5265
51.4215
53.38
55.3957
57.4625
59.5758
61.7308
61.9581
60.6816
59.4687
58.312
57.2012
56.1238
55.0683
54.0263
52.9938
51.9674
50.9437
49.9183
48.8867
47.8441
46.7858
45.709
44.6169
43.5213
42.4408
41.3978
40.4151
39.5131
38.7072
38.0093
37.4312
36.9954
36.7484
36.9234
37.3905
38.0749
38.948
39.9889
41.1801
42.5057
43.9521
45.5069
47.1592
48.8989
50.7172
52.6063
54.5592
56.5688
58.6303
60.7384
62.8883
63.0469
61.7741
60.5604
59.3975
58.2754
57.1822
56.1083
55.0467
53.9936
52.9461
51.9005
50.8528
49.7977
48.7303
47.6454
46.5415
45.424
44.3079
43.2142
42.1666
41.1888
40.3006
39.517
38.849
38.3089
37.924
37.781
38.048
38.5553
39.2654
40.1552
41.2063
42.4025
43.7292
45.1739
46.7248
48.3716
50.1046
51.9156
53.797
55.7419
57.7439
59.7981
61.8989
64.0421
64.2191
62.9496
61.7344
60.5654
59.432
58.324
57.233
56.153
55.0807
54.0128
52.946
51.8747
50.7939
49.6976
48.5812
47.4456
46.3005
45.1639
44.059
43.0108
42.0412
41.1685
40.406
39.7628
39.2516
38.9018
38.8776
39.2029
39.7452
40.4784
41.3832
42.443
43.6431
44.9699
46.4119
47.9577
49.5978
51.323
53.1254
54.9978
56.9331
58.926
60.971
63.0632
65.1978
65.4715
64.2049
62.9882
61.813
60.6694
59.548
58.4414
57.3447
56.2545
55.1674
54.0792
52.9839
51.8753
50.7478
49.5987
48.4325
47.263
46.1115
45.0022
43.9589
43.0015
42.1461
41.404
40.7824
40.2935
39.9657
40.0451
40.4093
40.9779
41.7285
42.6441
43.7092
44.9103
46.2352
47.6721
49.2111
50.8429
52.5587
54.3511
56.2128
58.1376
60.1197
62.154
64.2358
66.3606
66.8
65.5363
64.3184
63.1375
61.9847
60.8511
59.7308
58.6189
57.5123
56.4068
55.2974
54.1772
53.0402
51.8816
50.7018
49.5099
48.323
47.1644
46.0577
45.0244
44.0827
43.2462
42.524
41.9225
41.4523
41.1406
41.2943
41.6865
42.2725
43.0336
43.9539
45.0193
46.2173
47.5362
48.9651
50.4945
52.1154
53.8196
55.5996
57.4489
59.3611
61.3309
63.3529
65.4226
67.5361
68.2015
66.9408
65.7216
64.5356
63.3743
62.2303
61.0976
59.9723
58.8502
57.7269
56.5962
55.4512
54.2861
53.0985
51.8927
50.6819
49.4858
48.3273
47.2289
46.2102
45.2867
44.4702
43.7681
43.1858
42.733
42.4351
42.6366
43.048
43.6441
44.4083
45.3272
46.3875
47.5774
48.886
50.3028
51.819
53.4258
55.1152
56.8804
58.7147
60.6119
62.567
64.5747
66.6305
68.7306
69.6715
68.4136
67.1937
66.0035
64.8351
63.6816
62.5383
61.4006
60.2639
59.123
57.971
56.8017
55.6103
54.3977
53.1722
51.95
50.7514
49.5994
48.5141
47.5129
46.6095
45.8137
45.132
44.5688
44.1325
43.8475
44.0779
44.501
45.1003
45.8624
46.7744
47.8245
49.0017
50.2955
51.6964
53.1955
54.7846
56.456
58.203
60.0193
61.8989
63.8366
65.8275
67.867
69.9515
71.2068
69.952
68.7314
67.5374
66.3626
65.2014
64.0483
62.8987
61.7482
60.5897
59.417
58.2246
57.01
55.7775
54.5388
53.3119
52.1177
50.9768
49.9081
48.9268
48.0447
47.2703
46.609
46.0644
45.6447
45.3718
45.6184
46.0469
46.6446
47.3998
48.3006
49.3365
50.4969
51.7723
53.1532
54.6317
56.1997
57.85
59.5758
61.3712
63.2304
65.1479
67.1192
69.1398
71.2062
61.8786
60.1879
58.5747
57.0447
55.6042
54.2605
53.0211
51.8936
50.8862
50.0076
49.2668
48.6738
48.239
47.9762
48.1414
48.3947
48.5853
48.8209
49.1226
49.5022
49.9256
50.3508
50.7724
51.2091
51.6882
52.2228
52.8097
53.4298
54.0483
54.6476
55.2365
55.8361
56.4697
57.1577
57.9153
58.7526
59.6741
60.6816
61.7741
62.9494
64.2048
65.5364
66.9407
68.4135
69.9518
60.1882
58.4577
56.8043
55.2342
53.7538
52.3707
51.0926
49.9276
48.8847
47.973
47.2022
46.5828
46.1266
45.8491
46.0087
46.2481
46.3904
46.5998
46.8823
47.25
47.6553
48.0499
48.4401
48.8493
49.309
49.8296
50.4055
51.012
51.6079
52.1804
52.7475
53.3349
53.9664
54.6622
55.4364
56.2976
57.2489
58.2909
59.4216
60.6379
61.9364
63.3127
64.7627
66.2823
67.8674
58.5743
56.8043
55.1109
53.5004
51.9797
50.5565
49.239
48.036
46.9565
46.0103
45.2081
44.5612
44.0824
43.789
43.94
44.1588
44.2426
44.4255
44.6879
45.0422
45.4247
45.7815
46.1365
46.5156
46.9543
47.4597
48.0233
48.6136
49.1819
49.7243
50.2697
50.8464
51.4783
52.1846
52.9784
53.8662
54.8503
55.9294
57.101
58.3609
59.7049
61.1282
62.6262
64.1941
65.8276
57.0433
55.2341
53.501
51.8503
50.2892
48.8259
47.4687
46.2267
45.1098
44.1282
43.2935
42.6178
42.1151
41.8047
41.9434
42.1319
42.1486
42.3055
42.5454
42.8849
43.238
43.5486
43.8654
44.2119
44.6277
45.1165
45.666
46.2368
46.7716
47.2812
47.8055
48.3737
49.0085
49.7284
50.5445
51.4621
52.4816
53.6009
54.8161
56.1222
57.5142
58.9868
60.5346
62.1529
63.8365
55.6012
53.7537
51.9816
50.2914
48.6903
47.1871
45.7901
44.5091
43.3543
42.3367
41.4683
40.7625
40.2347
39.9064
40.0275
40.173
40.1176
40.2484
40.4624
40.7849
41.1
41.3553
41.6321
41.942
42.3333
42.8039
43.3376
43.8849
44.3787
44.8535
45.3584
45.9202
46.5609
47.2972
48.1389
49.0892
50.1472
51.3095
52.5712
53.9263
55.3689
56.893
58.4929
60.1633
61.8989
54.2553
52.3708
50.5605
48.8318
47.1919
45.6492
44.2132
42.8934
41.7006
40.6465
39.7441
39.0074
38.4533
38.1059
38.202
38.2874
38.1619
38.2643
38.4478
38.75
39.0158
39.2067
39.4428
39.7113
40.0758
40.5265
41.0424
41.5608
42.0053
42.4443
42.9317
43.4902
44.1396
44.8954
45.7658
46.7522
47.8521
49.0606
50.3717
51.7782
53.2738
54.8517
56.5058
58.2302
60.0192
53.0125
51.0925
49.2462
47.4807
45.8031
44.2226
42.7485
41.3908
40.1609
39.0707
38.1338
37.3655
36.7842
36.4165
36.4771
36.483
36.2953
36.3647
36.5113
36.7888
36.9911
37.1099
37.305
37.5255
37.8614
38.2901
38.7858
39.2683
39.6536
40.0577
40.5308
41.0886
41.7496
42.5284
43.4307
44.4566
45.6017
46.8596
48.223
49.6839
51.2349
52.8689
54.5791
56.359
58.2028
51.8804
49.9276
48.0474
46.2472
44.5345
42.9184
41.4082
40.0144
38.7486
37.6233
36.6527
35.8527
35.2432
34.8534
34.8629
34.7757
34.533
34.563
34.6645
34.9109
35.0325
35.075
35.2281
35.3917
35.6973
36.1016
36.5742
37.0115
37.3272
37.6991
38.1612
38.7213
39.3971
40.2019
41.1399
42.2089
43.4024
44.7129
46.1316
47.6496
49.2587
50.9507
52.7187
54.5557
56.4556
50.8674
48.8847
46.9737
45.1419
43.3971
41.7484
40.2053
38.7784
37.4793
36.321
35.3178
34.4866
33.848
33.4329
33.3711
33.1846
32.8919
32.8746
32.9211
33.1263
33.149
33.1153
33.2229
33.3187
33.5927
33.9697
34.4151
34.7951
35.0308
35.3756
35.8305
36.3955
37.0892
37.9236
38.9007
40.0163
41.2619
42.6282
44.1051
45.6827
47.352
49.1041
50.9315
52.8269
54.7838
49.982
47.973
46.035
44.1758
42.4032
40.7262
39.1544
37.6985
36.3702
35.1822
34.1491
33.2879
32.6192
32.1722
32.018
31.7312
31.3913
31.3173
31.2972
31.4446
31.3536
31.2482
31.3013
31.3178
31.5592
31.9049
32.3175
32.6241
32.7716
33.0962
33.547
34.1198
34.8344
35.7018
36.7219
37.8877
39.1887
40.614
42.1519
43.7916
45.5231
47.337
49.2252
51.18
53.1947
49.233
47.2022
45.2422
43.3606
41.5655
39.8658
38.2713
36.7924
35.4406
34.2284
33.1696
32.2804
31.58
31.091
30.8251
30.4407
30.0526
29.9104
29.8128
29.8732
29.6671
29.4931
29.4768
29.4049
29.6114
29.9201
30.2914
30.5051
30.5604
30.8722
31.3216
31.9043
32.6427
33.5468
34.6135
35.8332
37.1931
38.6802
40.2817
41.9857
43.7811
45.6581
47.6079
49.6226
51.6955
48.6302
46.5829
44.6064
42.7087
40.8978
39.1828
37.5734
36.0798
34.7129
33.4843
32.4065
31.493
30.7588
30.213
29.8196
29.3417
28.9012
28.6756
28.4903
28.4279
28.1136
27.8701
27.7653
27.6011
27.7676
28.0303
28.3483
28.4466
28.4123
28.7171
29.1671
29.7616
30.5268
31.471
32.5879
33.8648
35.2866
36.8384
38.5057
40.2756
42.1362
44.0771
46.0889
48.1637
50.2945
48.1844
46.1268
44.1404
42.2337
40.415
38.6939
37.08
35.5834
34.214
32.9817
31.8955
30.964
30.192
29.5688
29.0348
28.4688
27.9665
27.6385
27.3511
27.1378
26.7213
26.4018
26.1894
25.9324
26.0501
26.254
26.5002
26.4618
26.3478
26.648
27.0996
27.7071
28.5017
29.4892
30.6596
31.9969
33.4833
35.1018
36.8365
38.6734
40.5997
42.6046
44.6783
46.8127
49.0005
47.9115
45.8493
43.8599
41.9521
40.135
38.419
36.8148
35.3332
33.9842
32.7753
31.7079
30.773
29.9478
29.2032
28.5175
27.866
27.2841
26.8299
26.4213
26.0377
25.5234
25.116
24.7781
24.4303
24.4864
24.6123
24.7586
24.5747
24.3908
24.6858
25.1385
25.76
26.5861
27.6196
28.8462
30.2462
31.7991
33.4856
35.2886
37.1927
39.1845
41.2526
43.3872
45.5798
47.823
48.0551
46.0085
44.0346
42.142
40.3403
38.6395
37.0505
35.5839
34.2484
33.0485
31.9801
31.0216
30.1312
29.2645
28.4156
27.6148
26.9004
26.2932
25.7394
25.1709
24.5616
24.0478
23.5688
23.1339
23.1091
23.1304
23.1363
22.8174
22.5694
22.856
23.3089
23.9439
24.8026
25.8839
27.1685
28.6326
30.2527
32.0075
33.8782
35.8485
37.9044
40.0342
42.2276
44.476
46.7723
48.2622
46.2476
44.3037
42.4392
40.6637
38.9876
37.421
35.974
34.6541
33.4635
32.3938
31.4186
30.4953
29.5896
28.7026
27.8438
27.0115
26.1897
25.373
24.5975
23.8953
23.2431
22.6101
22.0911
21.9568
21.8377
21.6713
21.2267
20.9192
21.191
21.6422
22.2887
23.1795
24.3086
25.6512
27.1792
28.8657
30.6873
32.6237
34.6579
36.7752
38.9634
41.2123
43.5134
45.8595
48.3501
46.3895
44.5003
42.6899
40.967
39.3406
37.8198
36.4132
35.1267
33.9595
32.9
31.9202
30.9813
30.0573
29.1486
28.2573
27.3755
26.4887
25.5805
24.6436
23.6852
22.7666
21.9712
21.3667
21.0712
20.7747
20.4122
19.8488
19.4863
19.7319
20.1786
20.8316
21.7513
22.9259
24.3242
25.9131
27.6628
29.5476
31.5458
33.6394
35.8135
38.0557
40.3557
42.7049
45.096
48.5271
46.5989
44.7468
42.9777
41.2999
39.7211
38.249
36.8897
35.6457
34.5126
33.4743
32.5006
31.5574
30.6259
29.7039
28.7881
27.8669
26.9225
25.9379
24.9122
23.8634
22.8342
21.8885
21.0949
20.5074
20.0042
19.4203
18.7447
18.3339
18.5319
18.9697
19.6193
20.5602
21.774
23.222
24.8659
26.6724
28.6138
30.6672
32.8137
35.0382
37.328
39.6729
42.0644
44.4953
48.7785
46.8819
45.064
43.3322
41.6945
40.1584
38.7307
37.4161
36.2142
35.1167
34.1029
33.1402
32.1977
31.2617
30.3275
29.3879
28.4308
27.444
26.418
25.3559
24.2761
23.2128
22.2163
21.32
20.4998
19.6489
18.7761
18.0044
17.5573
17.66
18.0821
18.7095
19.6576
20.8989
22.3856
24.0739
25.9269
27.9148
30.0135
32.2037
34.4697
36.799
39.1813
41.6079
44.0722
49.1167
47.2498
45.4631
43.7647
42.1622
40.6632
39.2737
37.9974
36.8319
35.7653
34.7725
33.8185
32.8745
31.9294
30.9775
30.0121
29.0237
28.0035
26.9464
25.8575
24.7609
23.6918
22.6877
21.755
20.8519
19.939
19.0565
18.264
17.66
17.2078
17.5939
18.1715
19.1062
20.357
21.8658
23.5823
25.4663
27.4859
29.6161
31.8371
34.1331
36.4915
38.902
41.3563
43.8476
49.4847
47.6546
45.905
44.2436
42.6784
41.2165
39.8636
38.622
37.4873
36.4446
35.4652
34.5125
33.5608
32.6031
31.6353
30.6526
29.6469
28.6092
27.5353
26.4321
25.326
24.2518
23.2369
22.2762
21.3365
20.407
19.5242
18.7173
18.0513
17.5527
17.3504
18.094
19.1909
20.5529
22.1301
23.8858
25.79
27.8177
29.9484
32.1652
34.4543
36.8044
39.2058
41.6508
44.133
49.8316
48.0489
46.3462
44.7307
43.2098
41.7903
40.4766
39.2694
38.1619
37.1361
36.1616
35.2044
34.2446
33.2795
32.3062
31.3195
30.3104
29.268
28.1874
27.0762
25.9599
24.8723
23.8409
22.8659
21.9226
20.9988
20.122
19.3103
18.6021
18.0409
17.761
18.5146
19.6295
21.0146
22.6127
24.383
26.2945
28.3234
30.4504
32.6599
34.9393
37.278
39.6671
42.0996
44.5691
50.1762
48.4394
46.7833
45.215
43.7406
42.3655
41.0924
39.9197
38.8376
37.8253
36.8531
35.8929
34.9316
33.9676
32.9978
32.0149
31.008
29.9644
28.8785
27.7588
26.6324
25.534
24.4927
23.5157
22.58
21.6619
20.7776
19.9497
19.2259
18.6611
18.4223
19.1732
20.2874
21.6733
23.272
25.0411
26.9492
28.9718
31.0901
33.2887
35.5556
37.8806
40.2555
42.6732
45.128
50.5389
48.8486
47.2397
45.7186
44.2907
42.9601
41.7276
40.589
39.532
38.534
37.5676
36.6106
35.6547
34.6975
33.7343
32.7565
31.7525
30.7094
29.6214
28.4993
27.3725
26.2757
25.2379
24.2683
23.3434
22.4329
21.5505
20.7283
20.0217
19.4924
19.3891
20.1195
21.2085
22.5689
24.1432
25.8894
27.7757
29.7775
31.8754
34.0543
36.3016
38.6075
40.9635
43.3628
45.7997
50.9552
49.3084
47.7446
46.2693
44.8869
43.6002
42.4078
41.3032
40.2715
39.2893
38.3317
37.3814
36.4322
35.4812
34.5231
33.5489
32.5474
31.5061
30.4198
29.3009
28.1797
27.0904
26.0616
25.1027
24.1898
23.2944
22.4349
21.6495
20.9916
20.5196
20.5876
21.2985
22.3557
23.6791
25.2153
26.9242
28.775
30.7433
32.8099
34.9593
37.179
39.4587
41.79
44.1658
46.5803
51.4353
49.8292
48.3081
46.8766
45.5384
44.294
43.1406
42.0688
41.0609
40.0931
39.143
38.1972
37.2518
36.3035
35.3476
34.3752
33.3748
32.3343
31.2493
30.1338
29.0181
27.936
26.9157
25.9662
25.0658
24.1918
23.3686
22.6396
22.0605
21.6944
21.9218
22.6329
23.666
24.954
26.4498
28.1167
29.9259
31.8541
33.8824
35.9957
38.1813
40.4292
42.7304
45.0781
47.4661
51.9733
50.4053
48.9242
47.5335
46.2362
45.0311
43.9132
42.8699
41.8811
40.9225
39.9752
39.0302
38.0845
37.1355
36.1776
35.2012
34.194
33.145
32.0537
30.9378
29.8285
28.7588
27.7531
26.816
25.9279
25.0767
24.2896
23.6104
23.1053
22.9468
23.3084
24.045
25.0711
26.3352
27.7976
29.4262
31.195
33.0825
35.0709
37.1456
39.2944
41.507
43.7751
46.0914
48.4496
52.5415
51.0119
49.5694
48.2175
46.9575
45.7875
44.6992
43.6777
42.7012
41.7465
40.7983
39.8511
38.9026
37.949
36.9834
35.9954
34.9736
33.9109
32.8122
31.6986
30.6009
29.5491
28.5618
27.6392
26.7644
25.9346
25.1807
24.5468
24.0935
24.1947
24.677
25.4636
26.5049
27.7628
29.2056
30.8064
32.5423
34.3943
36.3461
38.384
40.4967
42.6743
44.9086
47.1926
49.5199
53.093
51.6076
50.2075
48.8957
47.6728
46.5348
45.4718
44.4669
43.4974
42.5434
41.5928
40.6421
39.6883
38.727
37.7508
36.7502
35.7167
34.6471
33.549
32.4434
31.358
30.3192
29.3424
28.4278
27.5655
26.7612
26.0484
25.4715
25.077
25.3799
25.9783
26.8325
27.9097
29.1813
30.622
32.2096
33.9249
35.7512
37.6741
39.6814
41.7624
43.9082
46.111
48.364
50.6615
53.621
52.1798
50.8229
49.5519
48.3654
47.2583
46.2181
45.2263
44.2619
43.307
42.3533
41.3978
40.4374
39.4676
38.482
37.4722
36.4315
35.3586
34.2622
33.1625
32.0854
31.055
30.0852
29.1778
28.3302
27.5559
26.8897
26.3812
26.0828
26.5054
27.1978
28.121
29.2455
30.5461
32.0011
33.5914
35.3005
37.1138
39.0188
41.0047
43.0618
45.1822
47.3588
49.585
51.8557
54.1505
52.747
51.428
50.1935
49.0405
47.961
46.9404
45.9595
44.9978
44.0412
43.0836
42.1232
41.1571
40.1811
39.1885
38.1717
37.1238
36.0447
34.9451
33.8469
32.7766
31.7572
30.8005
29.9076
29.0803
28.3388
27.7192
27.2768
27.133
27.6154
28.3672
29.3424
30.5091
31.8416
33.3187
34.9222
36.6366
38.4489
40.3474
42.3223
44.3653
46.4688
48.6262
50.8321
53.0814
54.709
53.3344
52.0448
50.8387
49.7119
48.6534
47.6474
46.6734
45.7125
44.7538
43.7938
42.831
41.8624
40.8835
39.8869
38.8639
37.8083
36.7219
35.6186
34.5225
33.4606
32.4543
31.5138
30.6395
29.8359
29.1255
28.5452
28.1505
28.2087
28.7313
29.5206
30.5296
31.7255
33.0827
34.5794
36.1976
37.922
39.7396
41.6393
43.6116
45.6488
47.7435
49.8897
52.0824
54.3167
55.3204
53.9664
52.6968
51.5096
50.3987
49.3522
48.3526
47.3796
46.4171
45.4566
44.4964
43.5342
42.5663
41.5867
40.5875
39.5598
38.4991
37.4097
36.3079
35.2182
34.1659
33.1719
32.2469
31.3938
30.6181
29.9395
29.3924
29.0274
29.2636
29.8383
30.6633
31.6992
32.9164
34.2906
35.8011
37.4302
39.1631
40.9866
42.8901
44.8637
46.8998
48.9915
51.1326
53.3183
55.5439
56.0016
54.6624
53.4056
52.2286
51.1243
50.0793
49.0768
48.0976
47.1288
46.1645
45.2026
44.2403
43.2718
42.2903
41.2872
40.2554
39.1921
38.1041
37.0081
35.9279
34.8881
33.909
33.0026
32.1739
31.4294
30.7885
30.2844
29.96
30.3092
30.9377
31.7982
32.859
34.0938
35.4806
37.0003
38.6362
40.3739
42.2011
44.1069
46.0819
48.1181
50.2089
52.3478
54.5304
56.7516
56.7653
55.4365
54.1876
53.0146
51.9093
50.8581
49.8441
48.8517
47.8703
46.8955
45.9255
44.9558
43.98
42.9911
41.9821
40.9463
39.8828
38.7984
37.7097
36.6398
35.6126
34.6485
33.7603
32.9551
32.2419
31.6442
31.2013
30.9723
31.3821
32.051
32.9399
34.0205
35.2689
36.6646
38.1897
39.8288
41.568
43.3956
45.3012
47.2753
49.3106
51.3998
53.5371
55.7176
57.9361
57.6182
56.2976
55.0531
53.8799
52.7686
51.7057
50.6755
49.6646
48.6648
47.6731
46.6867
45.7009
44.71
43.7077
42.6883
41.6465
40.581
39.4988
38.4155
37.3534
36.3363
35.385
34.5147
33.7345
33.0561
32.5039
32.1231
32.0523
32.4969
33.1932
34.102
35.1962
36.4532
37.8537
39.3807
41.0194
42.7569
44.5818
46.4841
48.4551
50.487
52.5729
54.707
56.8844
59.1
58.5628
57.249
56.0072
54.8311
53.7109
52.6333
51.5843
50.5523
49.5313
48.5184
47.5108
46.5036
45.4924
44.4719
43.4373
42.3834
41.3089
40.2212
39.1362
38.0759
37.0643
36.1241
35.2733
34.5238
33.8874
33.3867
33.0655
33.1656
33.6438
34.3635
35.2882
36.392
37.6541
39.0559
40.5816
42.2169
43.95
45.7693
47.6657
49.6308
51.6567
53.737
55.866
58.0383
60.2498
59.5988
58.291
57.0502
55.8701
54.74
53.6469
52.5781
51.5248
50.482
49.4468
48.4162
47.3861
46.3521
45.3095
44.2529
43.177
42.0814
40.9755
39.8771
38.8097
37.799
36.8694
36.0397
35.3228
34.7311
34.2893
34.0569
34.2883
34.8083
35.5535
36.4938
37.6064
38.872
40.2734
41.7957
43.4259
45.1522
46.9641
48.8526
50.8094
52.8274
54.9
57.0214
59.1869
61.392
60.7239
59.4215
58.1817
56.9967
55.8561
54.7476
53.6604
52.5869
51.5231
50.466
49.4131
48.3597
47.3013
46.2324
45.1467
44.0396
42.9134
41.7808
40.6634
39.5871
38.5784
37.661
36.8526
36.1648
35.6102
35.2186
35.1099
35.4263