# vtk DataFile Version 4.2
vtk output
ASCII
DATASET POLYDATA
POINTS 642 double
-1.11635 2.40393 -0.38367
1.24348 2.47891 -0.354314
-1.47042 -1.65996 0.00694567
1.14925 -1.50264 0.0737893
-0.0352212 -0.4811 1.49231
-0.00436072 1.77407 1.34278
-0.123097 -0.497974 -0.706278
-0.238952 1.88271 -1.47138
1.4803 1.27493 -0.817818
1.24531 0.749819 0.541886
-1.53878 1.13751 -1.05488
-1.27963 0.575805 0.612968
-1.43933 1.70509 0.156629
-0.655811 1.28899 1.15187
-0.541575 2.42319 0.927717
0.568226 2.4269 0.909763
-0.0049089 2.80729 -0.18412
0.941868 2.48327 -1.04633
-0.925667 2.46853 -1.15905
-1.28041 1.66009 -1.5424
-1.91538 1.99685 -0.951585
-1.63579 0.877016 -0.28145
0.633382 1.33397 1.11347
1.52382 1.77967 0.141651
-0.622443 -0.183389 1.27984
-0.0462676 0.366089 1.47889
-1.28754 -0.700896 -0.23971
-1.36295 -0.836055 0.345653
-0.263599 1.16087 -1.45365
-1.05865 0.495321 -1.00625
2.03982 2.04798 -0.882291
1.17613 1.74769 -1.20699
1.16423 -0.702905 0.416747
0.579669 -0.201869 1.2141
0.649239 -1.34479 0.96635
-0.728482 -1.31378 0.864278
-0.00970296 -1.54759 0.0946336
-0.766339 -1.08723 -0.424217
0.559858 -1.10468 -0.384674
0.820243 0.327632 -0.811228
1.07922 -0.579824 -0.178916
1.58076 1.07423 -0.197249
-1.37102 2.12985 -0.113749
-0.949539 2.05034 0.58618
-0.779709 2.4335 0.263037
-0.99582 0.947805 0.903446
-1.01184 1.54486 0.77784
-1.3726 1.20025 0.398298
-0.209877 2.10725 1.21965
-0.654839 1.90439 1.12577
-0.299565 1.5803 1.27081
-0.327306 2.81308 0.474693
-0.60253 2.64172 -0.281969
0.215094 2.112 1.2186
0.00384579 2.56233 1.04284
0.720416 2.63411 -0.273588
0.318448 2.69344 0.439558
0.889362 2.40194 0.16982
-0.452456 2.94832 -0.733345
-1.06017 2.51311 -0.796842
1.18334 2.57963 -0.705933
0.461347 2.94508 -0.715175
-0.664666 2.18633 -1.37832
-0.0563495 2.56382 -1.01691
0.500576 2.19914 -1.23571
-1.65076 2.61855 -1.26784
-1.59995 2.32533 -0.659403
-0.920316 1.79375 -1.54206
-1.24758 2.12782 -1.55804
-1.71082 1.49922 -1.0983
-1.90752 1.86721 -1.663
-1.4784 1.43755 -1.33883
-1.85395 1.91391 -0.319503
-1.6464 1.01348 -0.710744
-1.80852 1.45343 -0.591837
-1.65007 1.34745 -0.120968
-1.50422 0.700631 0.187181
1.02663 2.06155 0.483351
1.49022 2.2639 -0.067668
0.284716 1.60065 1.2718
0.624203 1.90876 1.0583
1.405 1.30064 0.336663
1.06817 1.58486 0.681782
1.01373 1.01972 0.825231
-0.289555 0.796157 1.34837
-0.0158891 1.19511 1.32646
-1.00395 0.117812 0.956477
-0.593606 0.464528 1.26765
-0.0267539 -0.0930981 1.82552
-0.27571 0.104672 1.54323
-0.298117 -0.346623 1.51277
-1.43435 -0.297062 0.114707
-1.32365 -0.219333 0.509775
-1.39721 0.308384 -0.642327
-1.43395 -0.127172 -0.24085
-1.51025 -1.31974 0.224439
-1.37098 -0.873628 0.0215153
-1.37251 -1.275 -0.0725079
-1.19703 1.25934 -1.38341
-1.33934 0.914694 -1.10005
-0.285069 1.54915 -1.51924
-0.932096 1.45047 -1.50228
-0.669199 -0.140545 -0.827901
-0.826414 0.989835 -1.33463
-0.182136 0.549878 -1.15077
1.17602 2.14832 -1.2212
0.691765 1.84578 -1.33611
1.75086 2.5565 -0.533493
1.6678 2.63676 -1.23812
1.39943 1.54179 -1.04245
1.58527 1.9715 -1.15277
1.66193 1.63773 -0.865616
1.09687 -1.14299 0.261244
1.03122 -1.0835 0.702721
1.12503 -1.62989 0.55553
0.949505 0.16463 0.906316
0.988736 -0.533769 0.835674
1.18701 -0.034393 0.534763
0.2455 -0.917751 1.15771
0.653502 -0.810812 1.05523
0.240831 -0.378501 1.42798
0.404371 -1.6372 0.61398
0.765053 -1.66012 0.0402354
-0.286613 -0.882235 1.16565
0.0149447 -1.29824 0.945682
-0.854528 -1.59409 0.0556776
-0.455852 -1.54834 0.570437
-1.22251 -1.65935 0.538502
0.402247 -1.39661 -0.247816
0.872666 -1.36367 -0.170965
-1.12771 -1.39566 -0.214314
-0.487551 -1.35791 -0.251076
0.254865 -0.840931 -0.556492
-0.0550728 -1.12505 -0.434159
-0.463227 -0.819736 -0.590198
0.858899 -0.94568 -0.273407
1.02676 -1.0949 -0.0128598
0.387611 -0.242636 -0.744197
0.640212 -0.685022 -0.511796
1.29396 0.547469 -0.524177
0.966056 -0.250708 -0.477738
1.23827 0.983776 -0.873159
1.13782 -0.713483 0.10674
1.58593 1.19278 -0.557968
1.32281 0.214905 -0.170343
1.28756 -0.0052792 0.166922
1.45933 0.926773 0.170245
0.193752 0.12421 1.49912
0.564427 0.514921 1.21614
0.234545 0.848707 1.33453
-1.23505 -1.14761 0.690096
-0.721963 -0.822568 1.04153
-1.11366 -0.612146 0.787904
-0.879444 -0.652054 -0.574527
-1.12196 -0.973006 -0.326818
-1.16869 -0.280221 -0.570265
1.05928 1.28589 -1.13692
0.426112 0.870064 -1.22492
0.597838 1.43605 -1.35958
1.67006 1.47597 -0.0620307
1.80171 1.58481 -0.492996
2.00307 2.01837 -0.23708
-1.23587 2.30085 -0.278241
-1.06651 2.2487 0.0599377
-0.970512 2.39966 -0.144329
-1.21361 1.86419 0.352716
-1.16894 2.07617 0.229273
-1.47653 1.96033 0.0622182
-0.669537 2.45998 0.617114
-0.889123 2.26922 0.457731
-0.759377 2.25983 0.786624
-1.17361 0.731395 0.737559
-1.18487 1.0878 0.677642
-1.31495 0.861472 0.529911
-0.829514 1.43564 0.995546
-1.0069 1.27339 0.848348
-0.821491 1.12943 1.04156
-1.41004 1.45785 0.274509
-1.20796 1.37659 0.579366
-1.21966 1.62163 0.471846
-0.0827263 1.91947 1.34027
-0.26572 1.85976 1.27453
-0.123093 1.70919 1.34187
-0.612975 2.18464 1.05875
-0.441162 2.03851 1.21313
-0.368054 2.28688 1.12337
-0.484587 1.44192 1.22913
-0.470691 1.74839 1.21934
-0.658088 1.60318 1.13392
-1.0028 1.81103 0.700924
-0.836072 1.72988 0.965263
-0.840083 2.02314 0.923007
-0.685054 2.55004 0.00946393
-0.893112 2.50846 -0.345228
-0.433423 2.60679 0.722702
-0.599775 2.67336 0.403581
-0.334022 2.72177 -0.229584
-0.445924 2.69752 0.0924588
-0.167747 2.81798 0.137129
0.0777086 1.92158 1.34024
-0.00132445 2.13022 1.22656
0.308879 2.55617 1.03008
0.136796 2.37385 1.21054
0.395535 2.30568 1.14255
-0.133229 2.37155 1.21293
-0.295336 2.55301 1.03735
1.057 2.5276 -0.336075
0.815308 2.52554 -0.0490261
1.12262 2.44027 -0.182283
0.164916 2.74489 0.1374
0.491239 2.65605 0.0756511
0.364392 2.7114 -0.208773
0.704105 2.43713 0.571685
0.600493 2.55919 0.348054
0.462303 2.60173 0.708737
-0.149228 2.69024 0.781456
0.163734 2.69007 0.778392
0.00868533 2.8171 0.488279
-0.816426 2.61586 -0.558838
-1.09957 2.46298 -0.556155
-0.221221 2.76035 -0.485844
-0.529022 2.76291 -0.526341
-1.00894 2.52488 -0.995027
-0.738723 2.68212 -0.760673
-0.664928 2.66295 -0.937818
1.23641 2.53575 -0.498296
0.962917 2.62216 -0.51144
0.698299 2.65846 -0.876747
0.833399 2.67129 -0.703183
1.08555 2.55738 -0.89679
0.60095 2.7526 -0.494241
0.205891 2.76351 -0.466971
-0.443741 2.00832 -1.44296
-0.124853 2.20649 -1.28607
0.113709 2.0201 -1.37461
-0.546713 2.5531 -1.09177
-0.374385 2.39212 -1.19208
-0.814723 2.34609 -1.28745
0.753591 2.35146 -1.13959
0.230171 2.38378 -1.12984
0.497689 2.53365 -1.01843
-0.0176628 2.73792 -0.686171
0.207752 2.69588 -0.86192
-0.272356 2.78892 -0.936363
-1.35467 2.41783 -0.771723
-1.31301 2.3613 -0.504952
-1.27798 2.44897 -1.21727
-1.3525 2.47045 -1.0271
-1.88432 2.28135 -0.791339
-1.64497 2.45216 -0.940285
-1.91437 2.31933 -1.11979
-0.604394 1.84909 -1.51372
-0.831943 1.98673 -1.49348
-1.30457 1.8869 -1.59686
-1.0847 1.94625 -1.5639
-1.11817 1.73365 -1.56466
-0.9902 2.16232 -1.47143
-1.12351 2.32669 -1.37971
-1.60259 1.28559 -1.08456
-1.60421 1.48586 -1.25217
-1.52121 1.26727 -1.17608
-1.91369 1.96307 -1.27893
-1.74484 1.73032 -1.32571
-1.86587 1.71361 -1.0728
-1.40767 1.56858 -1.46777
-1.60942 1.69641 -1.43967
-1.51713 1.79411 -1.56214
-1.43822 2.33816 -1.45357
-1.54784 2.08186 -1.7123
-1.81777 2.27144 -1.49174
-1.52664 2.24955 -0.375515
-2.02045 1.9973 -0.620796
-1.85612 2.23662 -0.44585
-1.62566 2.03698 -0.242594
-1.64617 1.80365 -0.0977525
-1.59014 1.09184 -0.935633
-1.68744 1.2765 -0.910507
-1.72218 1.19312 -0.439275
-1.73222 1.2383 -0.664463
-1.66088 0.949355 -0.489634
-1.79356 1.48587 -0.859994
-1.91627 1.71238 -0.770137
-1.46395 0.987225 0.266845
-1.38459 0.613519 0.446005
-1.57534 1.53516 0.00449692
-1.52883 1.28417 0.123603
-1.57889 0.794567 -0.0621806
-1.58491 1.07826 0.0109233
-1.66882 1.14045 -0.218299
-1.91281 1.67756 -0.468235
-1.75231 1.41104 -0.356058
-1.72507 1.61999 -0.243858
1.19794 2.30444 -0.00224781
1.34101 2.40197 -0.256524
0.771133 2.24948 0.724777
0.960835 2.25062 0.34584
1.54945 2.0321 0.0547678
1.27406 2.12305 0.151003
1.32907 1.92084 0.290723
0.113056 1.71442 1.3417
0.264477 1.86891 1.27227
0.630746 1.63262 1.08263
0.462319 1.76962 1.20761
0.461203 1.47889 1.21729
0.452664 2.04865 1.20923
0.603706 2.17293 1.00578
1.32113 1.01827 0.452202
1.2323 1.17764 0.576499
1.17141 0.856439 0.646546
1.31376 1.67679 0.38723
1.28026 1.44076 0.480753
1.46864 1.5388 0.236435
0.825144 1.17835 0.988739
1.04912 1.32689 0.758232
0.832363 1.4771 0.936781
0.795829 2.00437 0.814387
0.819578 1.74789 0.882421
1.06976 1.83407 0.601122
-0.152187 1.40605 1.31021
-0.00766993 1.57571 1.34518
-0.475564 1.08472 1.25554
-0.314251 1.24473 1.28748
-0.0321309 0.737794 1.38774
-0.154296 0.98229 1.34426
-0.149638 0.535535 1.42343
-1.17575 0.368595 0.761311
-0.996382 0.540017 0.949356
-0.587304 0.116528 1.31258
-0.78783 0.304007 1.15274
-0.81494 -0.0614221 1.1333
-0.797456 0.734998 1.09562
-0.631168 0.912503 1.19153
-0.0352204 -0.371245 1.6926
-0.229879 -0.267472 1.82198
-0.147262 -0.428018 1.53733
-0.156052 0.215188 1.53157
-0.182991 0.0120115 1.70966
-0.0547175 0.104963 1.60696
-0.458454 -0.276246 1.40903
-0.297982 -0.131018 1.60324
-0.428165 -0.0191433 1.45894
-0.435036 0.620239 1.32648
-0.414039 0.248437 1.415
-0.27275 0.375611 1.44232
-1.40741 0.19661 0.369262
-1.3027 0.252473 0.581901
-1.52407 0.300107 -0.0662006
-1.48144 0.220094 0.143314
-1.37392 -0.565295 0.439111
-1.40147 -0.29102 0.30293
-1.41587 -0.623826 0.236669
-1.49823 0.909335 -0.92976
-1.52869 0.711165 -0.70812
-1.3518 -0.481548 -0.222647
-1.41804 0.0425209 -0.41623
-1.31556 -0.319459 -0.380849
-1.5395 0.54985 -0.486895
-1.54388 0.419628 -0.278766
-1.71889 -1.64312 0.144148
-1.47741 -1.33537 0.038941
-1.6038 -1.53356 -0.129732
-1.38631 -0.881705 0.164355
-1.40567 -1.10307 0.109093
-1.39705 -1.0801 0.280655
-1.29508 -0.978366 -0.145543
-1.36294 -1.07234 -0.0205004
-1.33504 -0.812021 -0.1063
-1.44168 -0.247067 -0.0633175
-1.38142 -0.587517 -0.0784169
-1.40473 -0.633763 0.0661201
-1.4093 1.20911 -1.24016
-1.46471 1.0601 -1.08565
[...]
POINT_DATA 642
SCALARS Mean_Curvature double 1
LOOKUP_TABLE default
0.13549
0.252629
2.87019
1.31995
0.9553
0.322611
0.076558
1.09872
1.09781
0.632228
1.2081
0.705713
0.0668068
0.922915
2.09749
2.69017
1.5364
1.81131
1.35139
1.62326
-0.0292628
0.981811
0.510084
-0.267522
0.38837
1.02375
1.25493
0.222893
0.877065
0.280171
4.19763
0.728434
0.950186
0.173879
0.730819
0.232144
0.875314
0.919889
1.14131
0.488525
1.46124
1.09345
-0.164711
-0.228396
-0.312837
0.438303
0.375648
0.646098
-0.351364
2.03196
-0.286008
3.1051
-0.0718842
-0.559368
1.60803
0.0831357
0.567624
0.156948
5.80638
0.0447964
0.613102
5.8613
0.584298
-0.34366
0.500643
5.42954
-0.451853
0.629653
1.65351
0.381451
5.97899
1.22988
2.9828
1.12114
0.543878
0.680744
0.84959
0.2549
1.60226
0.047488
0.761166
0.753647
0.470771
0.53733
0.768812
0.553381
0.52928
0.4706
7.64181
0.697433
1.07852
0.891465
0.655066
1.04243
1.24843
1.79424
0.879155
1.19134
1.17118
1.37711
1.02389
0.509674
0.47205
0.450272
0.0974027
1.18288
0.956045
4.18417
5.4236
0.936161
0.577417
0.512469
-0.0994143
0.147177
5.74232
0.610331
0.916355
0.843818
0.785427
0.1073
0.835416
1.48226
1.80406
0.211961
1.07868
0.995148
0.680298
3.83455
1.77528
0.878376
1.53109
1.22091
0.695191
0.301866
0.778071
0.949224
0.629992
0.414323
0.907458
0.582014
1.09439
1.06843
0.727101
1.21223
1.14115
0.91588
0.932225
0.7554
0.438322
0.850855
2.09312
0.858271
0.627379
0.857635
1.10591
1.12124
0.738618
0.700506
0.93923
0.439603
0.317294
4.48452
0.0468073
-0.132558
0.00740798
0.368069
0.625339
3.01061
0.617713
0.916653
1.14648
0.528445
0.58349
0.397959
0.29883
0.606086
0.616401
0.471974
0.46802
0.319196
4.20846
0.154403
2.5828
2.25136
2.67228
0.554451
0.872295
0.85744
1.07307
0.534307
0.709039
2.66959
-0.04127
0.0277889
0.686917
3.14087
-0.389944
0.0747687
1.78766
4.19028
-1.27595
3.58733
3.55582
2.48051
3.94423
3.86875
-0.0724453
0.0852305
0.19204
-0.0357364
0.597869
-0.306672
1.29483
0.437898
1.95193
1.10525
1.55587
2.3768
0.705745
0.256314
-0.42093
0.808303
1.22866
1.56059
1.73667
0.451334
1.06447
1.33289
1.37534
0.855572
0.555235
-0.534431
0.814395
0.223722
0.32101
0.906167
0.243389
0.68753
0.70208
0.0578999
0.97223
-0.110706
0.646948
3.51002
-0.303934
0.0250365
1.28197
0.450298
3.14223
1.85048
3.41996
1.12898
0.283549
1.53261
1.6051
1.60918
1.55655
1.46533
0.959173
0.761196
1.10412
2.04404
0.355387
1.92635
1.49179
1.02578
1.11598
1.21123
4.62125
3.55581
1.25163
4.1585
4.86263
-0.173394
1.50088
1.17367
1.00497
1.08257
0.888852
1.19502
0.570569
1.1516
0.475781
0.803166
0.2656
0.671154
0.320699
0.812459
0.92178
3.02504
0.936455
-0.345038
0.0491773
-0.209845
1.25344
0.193577
0.331428
-0.157432
1.23028
2.57056
0.3875
0.302292
1.62263
1.24624
3.71793
1.07733
0.783646
0.799176
0.351348
0.417351
0.539147
0.513074
0.722024
0.562698
0.514327
0.0685196
0.314626
0.868769
0.368123
1.87244
0.886931
0.43095
0.797739
0.760845
0.598633
0.629924
0.587889
0.32848
0.672255
0.640549
0.378476
0.563138
5.92809
8.03102
0.768904
1.00355
5.44548
0.474774
0.999673
0.477379
0.817784
0.561651
0.8002
0.886186
0.709938
0.684016
0.975184
0.725631
1.81608
0.723788
1.52938
1.31897
1.26549
1.17902
1.16944
1.1676
0.526588
1.00777
7.046
0.242865
8.49862
0.608723
0.551626
0.133969
1.24606
0.861169
1.18075
1.14696
1.1856
1.02274
1.26078
1.31776
1.37432
1.3075
1.1391
1.23905
1.06911
0.757465
1.24186
1.00583
1.14016
0.968424
0.768029
1.38788
0.274024
0.0879077
0.0698949
0.383277
0.0338421
0.532767
0.816946
0.5651
0.896772
1.07485
0.486895
0.810468
0.795445
2.34513
1.76201
0.236684
0.590015
0.365826
0.906578
-0.211412
1.36058
3.92766
3.65145
3.25757
0.827897
2.0537
0.994622
0.800069
0.968768
0.941222
0.820534
0.908002
-0.32311
0.434677
2.9531
0.981886
5.13047
0.913258
0.0831305
1.34266
7.60465
3.31747
-0.473184
0.227302
4.82204
-0.465945
3.86259
0.727194
0.699431
0.831856
0.713485
0.570272
0.621215
0.604481
0.515501
1.74293
1.06628
0.0710988
0.721743
-0.333695
0.403543
0.160477
0.788495
0.887635
0.794722
1.07655
1.13331
3.20727
-0.00688687
7.25372
5.614
1.09743
0.609372
0.976852
0.385352
1.39897
0.496141
0.905695
0.0602256
0.792432
0.809619
1.36765
1.50691
0.714985
1.62729
0.611693
0.413699
0.772976
6.02164
2.15214
2.76186
0.847086
1.16798
0.734902
7.00292
5.16532
1.40824
1.61214
1.47924
1.52963
1.7669
7.57022
3.61304
1.08422
1.51609
1.47192
1.22734
0.76632
0.469513
0.18725
0.415301
1.16548
0.668191
0.840611
0.891357
0.772018
0.806699
1.52719
0.819303
1.61516
1.02663
0.643196
0.89283
0.896933
1.00774
0.865335
1.09743
0.345282
0.611703
0.690011
0.636245
0.421165
0.822027
0.918878
1.22766
1.05858
1.10407
1.27783
0.995137
1.15204
0.374871
0.770097
0.772346
0.946556
0.966262
1.12891
0.363653
1.20814
0.701601
0.351071
1.05593
1.15647
1.36431
0.911865
1.24712
1.23865
1.04147
1.22908
0.923119
0.284856
0.710927
0.902695
1.04364
0.995784
0.618124
1.10605
1.19816
0.958085
2.87004
0.816438
0.578218
2.72321
0.980406
0.592136
0.622625
0.393781
0.579527
0.307994
0.584909
0.585815
0.762017
0.361414
0.748855
0.605008
0.624326
0.67125
5.58866
0.32642
1.83993
1.73387
-0.0396887
1.30695
0.27002
0.831956
0.771347
0.656617
0.570523
1.09672
0.662395
0.478287
0.547875
0.296059
0.711137
0.746805
0.572105
0.957796
0.871111
0.670106
1.05723
0.997094
1.28139
1.16288
1.58024
0.976371
1.19299
1.12646
0.877456
1.23364
1.15633
1.06283
1.19291
1.03124
1.01408
0.369879
0.962126
0.941145
0.726969
0.0685452
0.86765
0.555187
0.0205073
0.043946
0.82088
0.744369
0.957281
0.832029
0.883334
0.647067
0.912855
0.790162
0.888202
0.849008
0.887875
0.469265
1.19111
0.857242
2.59088
0.88616
0.687708
0.774483
0.0802249
2.78056
3.97491
1.1117
2.05667
0.360759
2.07194
4.56756
SCALARS CoVolArea double 1
LOOKUP_TABLE default
0.0397171
0.0264979
0.0457888
0.0304337
0.0250317
0.0192551
0.0683618
0.0556612
0.0163581
0.0443769
0.0191719
0.0520404
0.0819804
0.0706635
0.0780767
0.0814365
0.112661
0.0766074
0.0754511
0.0390258
0.0987252
0.0834824
0.075822
0.0671483
0.0815296
0.0378222
0.0379205
0.0498118
0.0974382
0.0910724
0.0917718
0.0395705
0.0486686
0.0837699
0.0806197
0.0751345
0.101655
0.0425669
0.0355314
0.130228
0.0494328
0.0563381
0.0864694
0.0945898
0.10062
0.0973788
0.083671
0.0854631
0.0540362
0.0700446
0.0550335
0.106128
0.0891474
0.0561378
0.0812465
0.0939162
0.104027
0.0938349
0.0996944
0.076116
0.0671195
0.11663
0.0945455
0.117677
0.105876
0.120261
0.0856071
0.0470867
0.072051
0.0567992
0.112012
0.0390297
0.0852842
0.0704363
0.0658243
0.0619844
0.106287
0.0967446
0.0765407
0.0531437
0.0689544
0.0585138
0.0884454
0.0998588
0.0702411
0.0578845
0.114016
0.087584
0.0505797
0.0423049
0.0605105
0.0835247
0.092946
0.0872092
0.0811258
0.0650241
0.0330315
0.0383244
0.0366393
0.0555547
0.0885724
0.0386312
0.127914
0.0822464
0.184506
0.0514218
0.073782
0.0898061
0.122926
0.0348738
0.0559094
0.0404484
0.0381903
0.0675802
0.0962617
0.104413
0.0690878
0.0904731
0.0618787
0.0644618
0.059895
0.111393
0.0845388
0.076364
0.0803445
0.09074
0.103715
0.103405
0.0605974
0.0413546
0.0536755
0.0702087
0.0551547
0.0635614
0.0606253
0.036562
0.0316858
0.119379
0.0503473
0.0899754
0.081196
0.0674318
0.0363243
0.0483047
0.0882406
0.0885365
0.069423
0.0477966
0.102161
0.0727057
0.0729233
0.0703013
0.0778546
0.0563808
0.0378373
0.0734427
0.0631693
0.135972
0.0852368
0.0483063
0.0568234
0.0903314
0.0699103
0.0993507
0.0821944
0.0953237
0.0977822
0.0843739
0.0871725
0.0960641
0.0834733
0.0854949
0.0916349
0.0790069
0.0731179
0.0828385
0.082057
0.0784952
0.0866799
0.0903871
0.0367332
0.0510082
0.037719
0.0726199
0.0609462
0.0660472
0.0624239
0.0598449
0.0666323
0.0923961
0.0782841
0.0837148
0.0973789
0.0734437
0.090095
0.098128
0.0955268
0.101593
0.11272
0.0372513
0.0520014
0.083025
0.0673536
0.0694421
0.0655851
0.0801482
0.0576495
0.0929689
0.0608938
0.113936
0.10694
0.108833
0.0915952
0.100261
0.0921149
0.0956696
0.0963226
0.110115
0.077052
0.0627073
0.0987017
0.0832739
0.0715127
0.0772279
0.0856257
0.0467903
0.0708121
0.0986535
0.082007
0.0716561
0.099412
0.111838
0.0879216
0.130172
0.103817
0.097419
0.116802
0.0807791
0.082466
0.121931
0.103135
0.109129
0.115655
0.109756
0.0758426
0.0610375
0.0820027
0.0815664
0.0985454
0.09607
0.118694
0.0594434
0.0627352
0.0575673
0.0500913
0.0373212
0.0640082
0.0724164
0.0339474
0.0435786
0.0288897
0.109899
0.0720065
0.078194
0.0393915
0.0553083
0.0688966
0.107673
0.109973
0.141523
0.079484
0.100237
0.0955952
0.0793402
0.0733897
0.0455547
0.0535546
0.0583715
0.0600063
0.076376
0.0662861
0.0853712
0.0847864
0.0873835
0.0688313
0.0700628
0.0956433
0.0732308
0.0629713
0.0808253
0.0618671
0.0699187
0.0794303
0.0533998
0.0888134
0.0942092
0.0758262
0.0852153
0.0849196
0.0373252
0.0506739
0.0682259
0.0582681
0.0621037
0.0612978
0.0736522
0.0560104
0.077603
0.078099
0.0791766
0.0745732
0.0584417
0.09038
0.0877127
0.0821716
0.0876354
0.0839466
0.0951924
0.0550467
0.0391379
0.0759489
0.0661625
0.0532911
0.0629357
0.049777
0.093156
0.110868
0.0780098
0.105407
0.100008
0.10216
0.0862888
0.0437302
0.0574563
0.0466674
0.0356003
0.0438084
0.0349692
0.0657653
0.0516367
0.0566068
0.077463
0.0603171
0.0523824
0.112197
0.0906793
0.109374
0.114827
0.0637778
0.0875112
0.0545438
0.0546031
0.0838141
0.0506789
0.0841948
0.0634987
0.0955066
0.10375
0.0808209
0.054485
0.060947
0.0394736
0.0375744
0.0470825
0.0319402
0.0318873
0.0329617
0.0833979
0.0472273
0.0486791
0.0371945
0.037673
0.0320844
0.0345658
0.0690371
0.0426154
0.056697
0.0790738
0.0626085
0.0675118
0.0586814
0.0865216
0.0375123
0.0305645
0.119176
0.188426
0.174383
0.087126
0.13564
0.110259
0.115936
0.136576
0.0858679
0.0348845
0.0517367
0.0501298
0.0809084
0.0859686
0.060547
0.0614696
0.0511099
0.0520389
0.0439459
0.0518644
0.0730018
0.127099
0.116633
0.107994
0.0855537
0.0742316
0.0274258
0.0347421
0.0274003
0.0397526
0.0375768
0.034687
0.0579537
0.0459179
0.0811519
0.0795522
0.10427
0.0578262
0.0386605
0.0647476
0.0716697
0.0549809
0.0535649
0.0389671
0.0970177
0.0782081
0.0781454
0.086444
0.0908684
0.0812819
0.0787862
0.0820007
0.0952057
0.066956
0.0732493
0.061065
0.050885
0.0619753
0.0448495
0.065685
0.0604315
0.0604915
0.0676146
0.0653127
0.072242
0.0669863
0.0700258
0.0701686
0.0980034
0.0698385
0.102937
0.107818
0.0896477
0.10254
0.109056
0.0558743
0.0734838
0.0790486
0.0799209
0.0706953
0.0696723
0.0749071
0.071125
0.0984821
0.0797746
0.107578
0.103047
0.097177
0.10352
0.108756
0.092049
0.0966668
0.0974516
0.110026
0.0618081
0.0429277
0.0827341
0.0644624
0.0350888
0.0460229
0.0448167
0.0611974
0.0700477
0.0532058
0.0568969
0.0444123
0.0775739
0.0896484
0.064992
0.0675726
0.0676461
0.0479921
0.0572338
0.040374
0.0471909
0.061787
0.0559437
0.0782572
0.0689595
0.06353
0.0347533
0.0308103
0.0338424
0.0331807
0.0347677
0.033501
0.0415757
0.111347
0.0677096
0.0872281
0.0686031
0.126636
0.0457748
0.0373267
0.0476035
0.0768845
0.0384838
0.0627085
0.089743
0.0803351
0.0981071
0.0952743
0.102173
0.0426923
0.0665219
0.052286
0.031608
0.0415732
0.0306432
0.0306104
0.0385168
0.0331896
0.0672061
0.0784209
0.0723806
0.0518231
0.0925071
0.0711648
0.0950743
0.0653332
0.0604951
0.0905582
0.061017
0.092912
0.0876202
0.063145
0.0879505
0.0579374
0.0503703
0.0664037
0.0527795
0.0424901
0.038805
0.112319
0.0959524
0.109954
0.111862
0.0911547
0.053106
0.0516818
0.0611848
0.0636795
0.0798036
0.0730153
0.0895369
0.0599604
0.0887613
0.0830102
0.0900932
0.0662365
0.0587708
0.0650452
0.0832973
0.0702051
0.0652701
0.0650785
0.102659
0.0625272
0.0786727
0.0979143
0.0928635
0.0731034
0.0799515
0.0699654
0.0752186
0.0422845
0.0516592
0.0785316
0.0874075
0.0497988
0.0360945
0.0352465
0.0410344
0.0391943
0.0727047
0.0890857
0.0809733
0.0778704
0.0513952
0.0458839
0.0492819
0.0682777
0.0418959
0.105537
0.061252
0.0414111
0.0455179
0.179033
0.109879
0.146946
0.161894
0.153173
0.0953615
0.0578682
0.076171
0.09377
0.099672
0.107921
0.102389
0.0739376
0.0542636
0.0457304
0.0471237
0.0480146
0.0566919
0.040006
0.0684804
0.0491943
0.0469906
0.0480192
0.0759486
0.0770976
0.0864596
0.0917772
0.0889818
0.0562784
0.0766477
0.0705935
SCALARS SignedDistance double 1
LOOKUP_TABLE default
1.3255
1.2698
0.0103422
0.0691096
1.20094
0.0935071
1.95084
0.711562
1.38493
1.45802
1.48481
1.30459
0.824575
0.781654
0.00348526
-0.0103694
0.122505
1.51795
1.52607
1.46122
0.0334582
1.63957
0.93045
1.11514
1.41865
1.326
1.29618
1.13861
1.54839
2.05601
-0.014746
1.56745
0.386101
1.46692
0.19745
1.07325
1.58932
1.50972
1.57394
1.82802
1.19642
1.39788
1.1398
0.620289
0.738033
1.40066
1.17871
1.38408
0.0908896
0.0630669
0.830476
0.0185171
1.22623
0.115701
0.0216763
1.32263
0.0689777
1.22016
0.020093
1.4073
1.31636
0.0106355
1.58311
1.22035
1.32597
-0.0894611
0.401703
1.67936
1.30577
1.20881
-0.0663795
1.39642
0.073118
1.51139
1.13709
1.26166
1.54036
0.66998
0.211033
0.541621
0.210137
1.22388
1.16763
1.42891
1.31472
1.19187
1.18938
1.39228
0.0445525
1.19461
1.00086
1.15748
1.04394
1.76868
1.31686
0.258226
1.18708
1.18223
1.68066
1.7484
1.28848
1.79131
1.83591
1.97257
1.94977
1.49819
1.40381
-0.00375355
-0.107198
1.39363
1.19759
1.07709
1.15672
0.221538
0.00180643
1.21983
0.695588
0.969179
1.39143
1.1698
1.30395
0.152413
0.0165549
1.66539
1.45056
0.730333
1.24728
0.0168191
1.41955
1.21437
1.08832
1.56941
1.79333
1.92529
1.75365
1.39182
1.28456
1.77326
1.54478
1.79262
1.49186
1.68386
1.1362
1.31127
1.43918
1.21932
1.48838
1.22428
1.37421
1.27075
0.0796954
1.38041
1.15444
1.58933
1.38994
1.45706
1.73231
1.80621
1.47446
1.12417
0.461541
-0.0177788
1.23223
1.20774
1.25749
0.683497
0.519093
0.105903
0.0722937
0.233638
0.0792927
1.38045
1.43093
1.49103
0.91117
1.24374
1.25135
1.20423
1.30465
1.16896
0.0393995
0.208284
0.0768166
0.0472783
0.0492359
0.0332738
0.393662
0.177303
0.229183
0.484919
0.246345
0.016623
1.01536
1.37162
0.0121712
0.0244671
0.693067
0.178406
0.0318543
0.0387805
0.273597
-0.00938091
0.0146467
-0.0479037
0.0447165
-0.00619932
1.41975
1.29077
1.3584
0.430536
0.519737
1.00371
0.091182
0.233706
-0.00589616
0.0256746
0.0238787
0.0131745
1.28916
1.37212
1.10305
0.895471
1.46558
1.1448
1.17549
1.27974
1.33108
1.17572
1.17088
1.44874
1.11441
1.12675
1.35297
1.21486
0.96934
1.28642
1.33369
1.62478
1.50824
1.21292
1.20316
1.00676
0.971878
0.231019
1.1801
1.18719
1.20599
1.20096
-0.0044008
0.357099
0.0225668
1.46372
1.69986
1.3246
1.50727
1.55959
1.54773
1.38631
1.36093
1.29464
1.4243
0.012487
1.13116
0.151386
1.40507
1.1837
1.19419
1.11202
0.193309
0.011583
0.0838254
-0.0334255
0.0373732
0.238464
0.149332
1.49615
1.32952
1.36053
1.31429
1.5578
1.07605
0.0554811
1.53211
1.37279
1.05443
1.31046
1.66926
1.46688
1.42591
0.00566199
1.19381
1.10072
1.27543
1.16211
0.187699
1.14712
0.38036
1.19547
0.380658
0.0732182
0.16269
0.564998
0.116237
0.298798
0.0327677
0.0479694
1.44818
1.35176
1.48879
1.12583
1.1776
1.12764
1.2611
1.28846
1.16453
0.594645
1.05126
0.574166
0.934638
0.150856
1.21667
1.14984
1.35359
1.2129
1.39378
1.18849
1.28482
1.37545
1.27109
1.30797
1.35012
1.30932
0.169841
0.0243194
0.924096
1.22401
0.243119
1.15146
1.30187
0.868189
1.25293
1.38829
1.34257
1.35357
1.20848
0.982715
1.43184
1.28983
0.347084
1.171
0.382956
1.66723
1.78724
1.27007
1.49654
1.31801
1.81612
1.62334
-0.0896267
1.11772
0.135691
1.17045
1.23266
1.17162
1.28773
1.28059
1.21615
1.14685
1.20351
0.929967
1.53393
1.57247
1.57377
1.53651
1.94071
1.67954
1.83409
1.02083
1.5743
1.69637
1.6418
1.40649
1.73966
1.64657
1.86276
1.97448
1.88712
2.02124
2.05129
1.92884
1.73766
1.93651
1.78414
1.72833
1.85449
1.84004
1.41591
0.246949
1.49072
1.63344
1.64244
1.66287
1.53355
1.06428
0.347302
-0.0154342
-0.0614552
0.0755956
1.14528
1.24704
1.36705
1.27065
1.28426
1.40888
1.31568
1.46371
0.986617
1.17375
0.123541
1.23782
0.125153
1.30566
0.721045
0.157177
-0.13103
0.0908155
1.10655
0.948251
0.0297435
0.196026
-0.0402585
1.27974
1.16689
1.27855
1.31242
1.2335
1.31665
0.991094
1.13873
0.401956
1.45457
1.4903
1.21869
0.807584
1.22715
1.15718
1.40314
1.40515
1.33875
0.198262
0.465417
0.0941693
0.0160453
-0.272504
-0.02852
0.0118553
1.18972
0.0466306
1.31895
1.39904
1.58644
1.44009
1.66074
1.45865
1.36963
0.78139
0.00715309
0.0163983
0.0123106
1.52251
1.15854
1.42376
-0.0941767
0.0121096
0.368626
1.21626
1.50014
1.45378
0.0443789
0.157987
1.45348
0.998649
1.38798
1.21943
1.4834
-0.0802676
0.458415
1.53074
1.32288
1.39826
1.33939
1.68017
1.91807
1.96513
1.90301
1.70174
1.85671
1.68914
1.61018
1.79865
1.66275
1.76743
1.76466
1.70084
1.249
1.13433
1.48572
1.38104
1.23599
1.33432
1.28407
1.86707
1.75434
1.63522
1.65569
1.78456
1.65453
1.56824
1.50321
1.76535
1.48505
1.33651
1.54939
1.36153
1.91876
1.78117
1.65505
1.46119
1.5045
1.3703
1.22012
0.917815
1.19978
1.1657
0.569012
1.34793
1.54294
1.66076
1.61068
1.35552
1.60127
1.23204
1.36039
1.55553
1.0447
1.17997
1.43226
1.49097
1.6325
1.05842
1.29008
1.11036
0.171656
1.3093
1.16124
0.344775
1.23509
1.35297
1.30983
1.39578
1.32687
1.41082
0.750423
1.39552
1.23792
1.13869
1.18772
1.38374
1.32886
1.38651
-0.0592317
0.244499
0.0232535
0.52364
0.923551
1.4499
1.52593
1.54837
1.5349
1.27871
1.12354
0.365213
1.00683
1.2692
1.39708
0.683938
1.22432
0.443168
1.76982
1.50873
1.63827
1.70095
1.66053
1.12071
1.31259
1.33811
1.32898
1.44044
1.91778
1.76208
1.92083
1.55601
1.37636
1.47246
1.42831
1.53099
1.49297
1.89574
1.67667
1.54191
1.62478
1.87975
1.62222
1.87572
1.92075
1.92169
0.776471
1.66566
1.41833
1.25068
1.41122
1.82573
1.59798
1.71353
1.32089
1.24208
1.27126
1.17694
0.37942
1.19676
0.134362
0.436963
1.02856
1.19104
0.185933
-0.00777353
-0.00237789
-0.0254315
0.0200263
0.613169
0.0931347
0.0593789
