# vtk DataFile Version 4.2
vtk output
ASCII
DATASET POLYDATA
POINTS 642 double
-1.0397 2.08472 -0.367691
1.09966 2.10063 -0.282371
-1.40033 -1.66064 0.000330175
0.945473 -1.37388 0.167044
-0.0185582 -0.253739 1.23751
-0.00415878 1.72799 1.33808
-0.138156 -0.142648 0.0459798
-0.244802 1.88369 -1.30198
1.20074 1.50191 -0.46012
0.836129 0.863711 0.348326
-0.963179 1.40794 -0.391195
-1.01163 0.578068 0.455595
-1.37053 1.68145 0.169464
-0.614614 1.22621 1.05337
-0.587131 2.40636 0.920027
0.621046 2.39762 0.886411
0.00846464 2.77744 -0.216066
0.994153 1.97056 -0.371655
-0.94937 1.97547 -0.525936
-1.31034 1.81043 -0.860102
-1.91392 1.96026 -0.919598
-0.934132 1.0322 -0.0607073
0.588733 1.28159 1.00747
1.42583 1.75585 0.119474
-0.403548 -0.0932253 0.935699
-0.046526 0.269769 1.1272
-1.10138 -0.597887 -0.060902
-1.27798 -0.775626 0.372408
-0.195495 1.52645 -0.777929
-0.680903 0.867956 -0.201999
2.01323 1.94477 -0.827286
1.01063 1.81554 -0.449106
1.13701 -0.638387 0.417684
0.374406 -0.135703 0.901244
0.593696 -1.23655 0.955968
-0.664348 -1.12792 0.675127
0.11757 -0.883015 0.441751
-0.673297 -0.809247 0.0834345
0.467298 -0.817894 0.183988
0.491735 0.590549 -0.106759
0.920158 -0.482098 -0.0608331
1.14514 1.24342 -0.128513
-1.29536 2.04652 -0.120326
-0.95385 2.02153 0.548418
-0.766017 2.33911 0.216639
-0.749154 0.890771 0.648873
-0.891913 1.51857 0.666493
-0.982322 1.16164 0.24018
-0.212286 2.05082 1.25025
-0.662873 1.85309 1.11242
-0.283413 1.54896 1.22313
-0.338655 2.80559 0.438689
-0.499069 2.45445 -0.250142
0.215228 2.05043 1.2479
0.00461002 2.56042 1.04601
0.590706 2.36276 -0.245172
0.335758 2.68841 0.397503
0.79085 2.21051 0.121665
-0.30183 2.57092 -0.617444
-0.96511 2.00236 -0.502442
0.99952 1.9923 -0.350067
0.347498 2.63603 -0.601581
-0.650377 1.94124 -0.696862
-0.0475618 2.43992 -0.880738
0.377245 2.07663 -1.02473
-1.56111 2.18854 -1.0398
-1.52404 2.30175 -0.595868
-0.688765 1.83131 -0.640555
-1.41639 1.97224 -1.03356
-1.54986 1.53882 -0.943438
-1.77445 1.78918 -1.52387
-1.3375 1.69417 -0.850176
-1.71011 1.85387 -0.308586
-0.953978 1.27088 -0.261143
-1.57998 1.5354 -0.532209
-1.34794 1.40816 -0.138177
-0.954613 0.770434 0.149642
1.00983 2.02599 0.461098
1.38692 2.1694 -0.0846453
0.272372 1.56543 1.23349
0.635386 1.85517 1.02477
1.1439 1.27805 0.258757
0.95036 1.56327 0.574719
0.726126 0.983347 0.547128
-0.229705 0.763165 1.08194
-0.0212642 1.19248 1.19375
-0.915403 0.153226 0.858975
-0.443578 0.46492 0.954376
0.0562237 -0.0365556 1.71129
-0.227166 0.107721 1.27365
-0.211375 -0.239392 1.23692
-1.27302 -0.208421 0.125744
-1.27396 -0.150546 0.491965
-0.847226 0.500558 -0.0690149
-1.10894 -0.00209251 -0.059982
-1.30321 -1.24687 0.261608
-1.27615 -0.808231 0.0913192
-1.17604 -1.24402 0.106101
-0.907946 1.63905 -0.550199
-0.816963 1.30841 -0.30937
-0.244101 1.58327 -1.16677
-0.689754 1.73396 -0.60163
-0.504941 0.185183 -0.067355
-0.562331 1.36845 -0.471984
-0.187695 0.887236 -0.322211
1.02052 1.90926 -0.425412
0.375856 1.84289 -0.953459
1.66025 2.54112 -0.482444
1.58444 2.21337 -0.793547
1.20331 1.68126 -0.566989
1.51834 1.9456 -0.811005
1.51778 1.63876 -0.724709
1.01607 -1.08907 0.306674
1.03276 -1.02011 0.719242
1.14851 -1.59876 0.532497
0.846462 0.218749 0.816148
0.893658 -0.479286 0.730124
1.14463 0.0477451 0.510739
0.247329 -0.708326 0.783996
0.583496 -0.71163 0.952382
0.10797 -0.221417 1.17639
0.378609 -1.43163 0.578612
0.750441 -1.51756 0.149141
-0.170777 -0.614401 0.718471
0.139813 -0.870223 0.610922
-0.85571 -1.39515 0.172917
-0.406025 -0.943811 0.47783
-1.18474 -1.65871 0.547606
0.373222 -0.968492 0.288455
0.754468 -1.2575 0.189629
-1.01171 -1.24526 0.0429058
-0.472889 -0.900358 0.257776
0.145707 -0.475982 0.145964
-0.0915842 -0.687705 0.26215
-0.391294 -0.460602 0.119828
0.692371 -0.788265 0.0458
0.888885 -1.04553 0.177986
0.210694 0.0551129 -0.012673
0.472966 -0.427331 0.0311431
0.748146 0.707226 -0.0244709
0.690933 -0.0777842 -0.0603237
0.706973 1.22458 -0.217616
1.06958 -0.647368 0.135639
1.2523 1.40152 -0.35621
0.915283 0.333591 0.0396372
1.13943 0.0873542 0.164305
0.874904 1.02718 0.168854
0.117267 0.110954 1.20103
0.424915 0.518026 0.953236
0.195238 0.831344 1.0832
-1.20102 -1.0635 0.70119
-0.61605 -0.675866 0.671882
-1.01996 -0.534344 0.698962
-0.721316 -0.385377 -0.0142138
-0.949439 -0.819343 -0.0619281
-0.839463 -0.0549033 -0.0638021
0.702499 1.55009 -0.407987
0.188524 1.23516 -0.454604
0.26754 1.65454 -0.825147
1.51492 1.45918 -0.046409
1.71148 1.5322 -0.465804
1.97102 1.96531 -0.184644
-1.15467 2.08749 -0.287762
-1.00206 2.11342 0.0238071
-0.884089 2.18474 -0.162205
-1.17738 1.85119 0.341964
-1.14037 2.04724 0.213418
-1.41495 1.94121 0.0757139
-0.705711 2.43017 0.584067
-0.899989 2.22747 0.413721
-0.781832 2.22742 0.752456
-0.903936 0.677683 0.522706
-0.859492 1.00989 0.459219
-0.927161 0.813447 0.348419
-0.777108 1.38166 0.908419
-0.847411 1.21023 0.684893
-0.643129 1.08905 0.822904
-1.23934 1.41606 0.221806
-0.964992 1.34452 0.414527
-1.12687 1.60345 0.412344
-0.0805334 1.86026 1.33922
-0.254891 1.81088 1.27297
-0.120967 1.66874 1.33774
-0.62811 2.1412 1.04012
-0.436697 1.98464 1.21146
-0.387513 2.24398 1.13732
-0.473691 1.39164 1.20935
-0.4594 1.70032 1.21042
-0.654062 1.54837 1.10362
-1.00538 1.78387 0.65875
-0.852927 1.67639 0.938801
-0.882407 1.99141 0.903888
-0.641825 2.42058 -0.015733
-0.77177 2.20997 -0.307476
-0.464843 2.60333 0.705532
-0.637356 2.62641 0.348987
-0.306412 2.68952 -0.243003
-0.460417 2.67928 0.0418892
-0.157966 2.81585 0.089159
0.0750956 1.86126 1.33926
-0.00168036 2.06578 1.24467
0.330235 2.55191 1.02807
0.135264 2.31413 1.21217
0.433932 2.26794 1.18719
-0.134429 2.30939 1.21207
-0.318806 2.54747 1.04212
0.938565 2.11362 -0.281862
0.693475 2.28595 -0.0584288
1.04948 2.09787 -0.196818
0.163611 2.70706 0.0991443
0.470874 2.57074 0.0404968
0.312408 2.59227 -0.216975
0.745987 2.39699 0.519767
0.61912 2.52555 0.291609
0.499591 2.60915 0.670339
-0.153108 2.68997 0.762306
0.173417 2.69044 0.750978
0.0216072 2.81669 0.452201
-0.639835 2.25159 -0.457559
-1.0029 2.04591 -0.452533
-0.170736 2.68927 -0.464046
-0.392609 2.525 -0.47365
-0.956524 1.98721 -0.516755
-0.505483 2.32183 -0.573307
-0.459137 2.32846 -0.634535
1.03438 2.0413 -0.318265
0.781571 2.18596 -0.389307
0.526535 2.38885 -0.600748
0.540836 2.38522 -0.559117
0.997536 1.98382 -0.359019
0.480307 2.49445 -0.455592
0.165447 2.68819 -0.443316
-0.325365 1.90127 -1.04941
-0.120905 2.10192 -1.09019
0.033401 2.05336 -1.24503
-0.395149 2.31009 -0.769464
-0.329058 2.2429 -0.946749
-0.926571 1.95164 -0.546109
0.600217 2.08089 -0.611913
0.208403 2.30539 -1.0237
0.39475 2.33854 -0.74749
-0.0184313 2.68454 -0.645462
0.148026 2.56338 -0.757954
-0.216068 2.59987 -0.836294
-1.29126 2.2657 -0.683291
-1.2296 2.1719 -0.461604
-1.30761 2.13699 -0.931353
-1.29852 2.25118 -0.916351
-1.87301 2.29002 -0.745424
-1.57758 2.30606 -0.883452
-1.89525 2.31097 -1.09748
-0.351122 1.82215 -0.997478
-0.680406 1.86806 -0.657464
-1.42186 1.93534 -1.03659
-1.0598 1.84409 -0.635301
-1.0745 1.82362 -0.640643
-1.02538 1.88078 -0.61781
-1.25001 2.02706 -0.850031
-1.3116 1.55227 -0.729093
-1.41418 1.58808 -1.02095
-1.2745 1.57598 -0.726565
-1.91438 1.92344 -1.2021
-1.65688 1.7714 -1.1108
-1.83175 1.66857 -1.02524
-1.34915 1.77125 -0.884352
-1.53472 1.79014 -1.09845
-1.50849 1.8716 -1.10779
-1.49652 2.08276 -1.10818
-1.52401 1.99577 -1.2069
-1.702 2.04549 -1.18472
-1.41657 2.18489 -0.329779
-1.97889 1.93865 -0.570854
-1.7488 2.1861 -0.394312
-1.55171 2.01109 -0.184073
-1.58754 1.77428 -0.0584599
-0.953851 1.36565 -0.342443
-1.35253 1.53185 -0.670477
-1.3018 1.40646 -0.356773
-1.33979 1.48628 -0.496729
-0.943427 1.15524 -0.168658
-1.61326 1.53885 -0.763655
-1.84979 1.66723 -0.736375
-0.953814 1.00699 0.152122
-1.0069 0.598149 0.323111
-1.43015 1.51214 0.000533041
-1.20331 1.28159 0.0606814
-0.918756 0.930399 0.0409875
-1.02927 1.11053 0.0151556
-1.20818 1.28381 -0.195702
-1.71268 1.66411 -0.447092
-1.51109 1.4589 -0.336164
-1.61689 1.58826 -0.213311
1.12283 2.08137 -0.0671121
1.26812 2.21675 -0.2459
0.767525 2.18195 0.668536
0.893738 2.11938 0.294165
1.45507 1.98084 0.0644059
1.20935 1.99867 0.0882193
1.29113 1.90059 0.284015
0.110501 1.67258 1.33768
0.254886 1.81485 1.27343
0.627537 1.58484 1.03674
0.462436 1.71511 1.20118
0.46576 1.4234 1.1978
0.455908 1.98075 1.20599
0.650189 2.12202 0.992106
0.900626 1.07785 0.285374
0.900539 1.161 0.366242
0.812156 0.8704 0.398632
1.20102 1.65779 0.324759
1.13095 1.39595 0.41026
1.33667 1.50645 0.212353
0.647077 1.14958 0.774627
0.827115 1.31181 0.552894
0.764486 1.43886 0.828857
0.772904 1.95836 0.752334
0.766147 1.71094 0.799755
1.03706 1.8136 0.572034
-0.142384 1.38969 1.22021
-0.00730476 1.54786 1.33714
-0.391816 1.06175 1.04669
-0.295364 1.2103 1.20706
-0.0446338 0.659174 1.08286
-0.14681 0.950509 1.20393
-0.120515 0.417715 1.05635
-1.04 0.412498 0.650532
-0.830245 0.531414 0.739443
-0.396115 0.126801 0.978788
-0.662597 0.321368 0.954455
-0.647655 -0.00714598 0.871375
-0.637868 0.71422 0.840636
-0.511715 0.891091 0.953559
-0.00967158 -0.2567 1.38961
-0.260655 -0.266527 1.58949
-0.100098 -0.252201 1.26746
-0.142358 0.143097 1.25676
-0.160743 0.0148157 1.41211
-0.051921 0.0478793 1.35143
-0.25404 -0.156411 1.11268
-0.254051 -0.0719445 1.32172
-0.258402 0.00546384 1.15039
-0.308313 0.608095 0.994628
-0.252321 0.232111 1.06205
-0.183961 0.318399 1.08558
-1.26965 0.28863 0.299818
-1.23793 0.344599 0.540618
-1.03138 0.476036 0.0639242
-1.16456 0.311642 0.139147
-1.29363 -0.490773 0.437308
-1.27299 -0.20995 0.290981
-1.40164 -0.554607 0.249902
-0.848444 1.12239 -0.226928
-0.8624 0.83244 -0.0864477
-1.16048 -0.39307 -0.095429
-0.988035 0.241959 -0.0666106
-1.05595 -0.206468 -0.172275
-0.896413 0.712368 -0.0294014
-0.9548 0.585095 0.0225492
-1.38918 -1.46181 0.15916
-1.25763 -1.26133 0.147894
-1.45278 -1.39577 -0.100671
-1.28062 -0.8116 0.208487
-1.24524 -1.03147 0.197751
-1.27414 -1.01368 0.318419
-1.1163 -0.945829 0.0609516
-1.18572 -1.01546 0.136421
-1.22901 -0.760679 -0.0517961
-1.27154 -0.147517 -0.0165624
[...]
POINT_DATA 642
SCALARS Mean_Curvature double 1
LOOKUP_TABLE default
-0.61417
-0.438081
10.096
12.9292
-1.66915
-0.0283643
-0.350235
7.40369
-3.48572
-0.871051
0.437125
1.82741
1.91394
3.52591
2.61298
2.67514
2.82279
0.0947204
0.0774292
-1.42753
0.562275
-0.748014
2.25392
-1.70467
-1.17176
-0.801199
-1.19496
-1.01015
0.0285455
-0.623955
4.99825
0.120972
2.86882
-0.929075
4.48672
3.57275
0.216409
0.287644
-1.73739
-1.14623
0.805242
-1.50611
-0.35796
-0.393022
-0.700759
-1.19037
-1.42682
-1.02331
1.11009
1.95351
-1.49539
2.89657
-1.08348
0.472276
2.04063
-0.605773
1.02806
-1.3688
1.86343
0.297898
-0.255121
7.98854
-0.835231
-0.401672
4.56984
1.48132
2.49576
-0.709859
1.70932
5.02849
6.67678
-1.69254
1.35631
0.583774
1.77669
-0.510948
-0.89578
2.55993
2.19203
-0.846053
1.13709
2.4751
-0.283647
-1.10214
0.464323
0.701246
3.23416
-0.783073
7.43337
9.67506
8.44855
-1.71589
3.47539
-0.558078
1.6702
0.605215
3.5671
-0.819624
-0.661916
-0.678624
5.76695
-0.557712
-0.171208
-0.306282
0.194704
0.33817
3.17195
6.7928
1.01667
-0.0418564
0.0101752
2.89728
2.59845
1.34576
5.74967
4.1238
0.716674
4.50521
-0.471998
4.5045
2.90847
5.57626
4.57114
-0.80277
-0.0352043
1.37885
-0.504984
4.62169
-1.23699
-1.63161
0.0455714
-0.546479
-0.243256
-1.11568
-0.645039
1.13384
-1.79523
-1.05687
-0.534705
-0.891228
0.946356
-0.737841
-3.18744
-1.3632
1.66257
7.89829
-0.861228
4.2575
1.19754
1.1657
3.62639
-0.831179
2.21479
-1.62365
3.39745
-0.240818
-0.624346
0.301115
0.151196
1.9248
2.424
4.21922
-1.38525
-1.46091
-0.0115456
1.33682
2.1734
3.96369
0.997659
1.69359
0.749484
-0.394216
-1.30152
-0.842093
1.5028
1.94975
-2.37064
2.59251
-1.48205
0.962388
4.12982
0.164751
3.90404
1.45386
2.20043
0.964928
3.33578
1.41309
1.62181
2.06294
2.40669
3.55609
-0.13289
-0.774312
1.0705
3.17711
1.84263
1.74447
2.29709
4.08184
-1.29719
3.24145
2.1378
3.66417
2.61788
3.79759
-0.551272
-0.856745
-0.599446
-0.122256
1.38636
-0.597234
2.66291
2.04681
2.42353
0.996712
1.30436
2.46911
-0.565409
-0.00145883
1.7838
1.31295
0.288407
0.598193
-0.440205
-0.208513
-0.830861
5.39681
-0.30053
0.166636
1.59364
0.85851
2.39126
-1.06502
3.01895
0.0661508
4.60996
0.0163298
-0.693087
3.59668
0.96967
3.76103
2.22871
7.16088
3.38458
0.571135
2.74588
9.35182
4.42176
2.95574
6.6173
3.42133
-0.71688
3.93937
0.123736
-0.22397
0.0553061
-1.69373
7.82709
11.0347
4.8136
7.06365
-0.71903
5.93756
-1.38613
4.53477
-0.428283
3.64181
10.4717
1.02733
2.98616
4.59845
4.21656
2.03231
3.5645
0.042779
1.70177
0.876407
-0.943371
-0.832295
2.28348
3.7649
-0.982557
-1.42022
2.62316
2.48227
-0.757776
-1.04309
4.44618
1.58325
4.84416
3.61829
-0.685906
3.20103
0.0978909
-1.41959
1.12533
-1.61234
4.87075
3.76575
0.513487
1.2542
2.40001
3.99287
2.63905
2.06581
-0.881502
-0.834263
-0.903703
-1.29846
3.60001
1.86833
-0.489205
-1.59871
2.06349
-0.694584
-0.61934
3.1082
-1.51617
5.70323
-2.70704
2.94746
-1.12532
7.23317
-1.84344
1.43772
0.244531
-1.27214
2.95525
0.137122
0.409888
1.49061
3.98389
8.01447
0.820651
2.74872
5.3066
2.31466
-0.213599
4.58565
-1.53447
-2.85902
-1.80519
3.17466
4.57359
5.0746
-1.02338
4.01958
0.967116
-0.59024
6.01501
-1.16729
-1.04695
1.70716
-0.876538
11.276
-0.555186
-0.765869
1.01666
1.59295
9.51404
-0.455005
3.44345
1.03435
-0.119664
-0.822119
11.3501
10.6954
0.38375
4.27814
-0.836948
-0.47851
-0.281208
-0.123305
-0.612658
-0.811973
2.69635
5.32845
-1.13075
-0.494936
-0.984499
3.39158
-0.65323
-0.0347589
-0.371454
-0.947913
-0.116937
0.820729
-0.63533
-1.02827
-0.682603
1.98258
-0.719438
-0.604144
-0.480507
-0.692127
0.333137
6.086
0.119523
-0.803054
-0.649082
-0.733165
0.347008
2.83565
3.81808
5.66511
0.484571
4.18011
5.36303
6.72197
5.69898
5.41748
7.26302
3.42019
1.28079
-0.90776
2.35489
3.36031
6.00055
-1.63141
6.99597
-1.54371
1.20067
4.07352
6.38823
5.38857
-2.13691
0.645842
5.09871
-0.136901
4.65325
3.35807
1.7849
3.91197
-1.37333
-0.913959
0.00859538
1.59687
3.18895
-1.44738
-0.156433
-0.668809
5.86767
0.789655
-0.714821
6.46478
-0.68052
-0.704122
-1.04411
3.62648
1.34022
4.29969
5.69439
1.9326
1.41691
3.23618
-0.917728
5.62333
0.221407
-0.366433
-0.331468
-0.0894055
-0.484952
-0.32873
-0.578927
1.14235
3.12221
4.88252
5.43674
0.183945
3.23254
-0.838196
6.43708
1.20763
4.65968
-0.251544
0.155544
0.524149
12.2413
-1.25477
-0.680697
6.26236
-2.27232
-1.06981
7.76125
2.05884
9.96049
0.693638
-1.48993
4.30523
4.77495
-0.11566
-0.418619
-0.62142
-0.664423
-0.507435
-0.255315
-0.567678
-1.04381
-0.338781
-0.610994
-0.45585
-0.173449
-0.369255
-1.40659
-1.89799
-1.5834
1.316
-1.39392
8.14114
7.04568
-0.101865
-0.474757
2.56919
-0.335874
-0.186004
-0.437868
-1.20056
-0.985648
-0.718206
-0.871774
0.114951
2.33019
2.81138
-0.694084
-1.08499
-0.0779515
-1.48839
3.002
3.26373
3.40647
9.13023
7.71421
-2.46115
5.99327
4.28816
-0.759926
-0.63132
-0.566364
8.81805
-1.11198
5.12881
-1.19237
-0.770228
0.015289
0.785933
-1.1436
-0.817438
-0.573395
7.18871
0.809948
0.738946
10.8821
-1.18276
2.2199
1.98157
6.28977
-0.370025
0.72222
-1.63164
-0.698963
-1.04379
-1.88438
-1.72351
-3.36325
4.6123
-0.81549
-1.59776
3.68487
-1.607
6.37394
3.22746
3.18023
-0.979436
2.46604
-0.394557
-0.787367
-0.570878
-0.401952
-0.13107
2.01147
5.06342
0.86572
-0.688532
-1.55501
3.68859
-0.217242
1.64078
-0.551743
-1.89951
-0.900788
4.43662
-0.442002
3.8901
4.22348
-3.1877
-1.10348
7.10278
-0.804313
-1.00064
-0.838797
-1.36206
-3.57091
5.47954
-0.990109
4.94383
-1.00893
1.71052
-0.556542
-0.766533
-0.688044
2.00058
-0.797167
0.0906403
-1.04036
0.419956
5.74399
-0.716293
-0.708787
3.38372
0.862321
0.122603
-0.607565
-0.527436
-1.02286
1.99645
3.63484
4.59539
2.43333
1.52734
-0.196055
6.50676
7.11429
-0.0432357
0.97862
3.80759
4.2057
3.0557
3.39708
2.55541
3.13024
4.0885
SCALARS CoVolArea double 1
LOOKUP_TABLE default
0.028749
0.0169437
0.0438982
0.00770703
0.0182316
0.0170289
0.0372319
0.05169
0.0252429
0.0198287
0.0126836
0.0351923
0.0769215
0.07015
0.0883456
0.10029
0.0948105
0.0455474
0.0320338
0.023153
0.104457
0.0428291
0.0733061
0.0581547
0.0613087
0.0305402
0.0369114
0.0487499
0.0564122
0.0423349
0.117495
0.0301728
0.0487037
0.0614495
0.0829143
0.0594082
0.0489115
0.0371145
0.0330176
0.0885662
0.0485307
0.0386629
0.0695428
0.0868741
0.0945754
0.0765968
0.0852322
0.0661195
0.0537195
0.0774487
0.0528046
0.121323
0.0824025
0.0582694
0.0967431
0.0803958
0.108335
0.0873799
0.0484236
0.0407195
0.0294646
0.0569394
0.0766434
0.0853799
0.0821012
0.050862
0.0832914
0.018611
0.0270298
0.0502985
0.0751869
0.0332729
0.0793124
0.0422071
0.0523357
0.0536636
0.0577817
0.0834332
0.0612866
0.0523172
0.0708329
0.0440798
0.082765
0.0778852
0.0592378
0.060422
0.09924
0.0745617
0.0762851
0.0265817
0.0415962
0.0722074
0.0890921
0.053029
0.0518094
0.0458924
0.03125
0.0229964
0.0164198
0.0292012
0.0641994
0.0353723
0.0867593
0.0581675
0.120133
0.0227475
0.0663591
0.0874531
0.044048
0.0256463
0.0315881
0.0324483
0.0292703
0.0670887
0.113192
0.0980688
0.0609132
0.0838127
0.0453507
0.0689658
0.0302368
0.0855891
0.0557894
0.0552563
0.0336479
0.0704216
0.054652
0.12304
0.0285207
0.0231351
0.0328172
0.0373571
0.0400702
0.0341161
0.0434405
0.0317771
0.023166
0.086149
0.0373542
0.0437171
0.054986
0.0326803
0.0389478
0.0464271
0.0527994
0.0732574
0.0347569
0.0322013
0.086476
0.060613
0.0660468
0.068379
0.0733273
0.0409973
0.0273251
0.0350588
0.0471281
0.0984798
0.0584223
0.0430022
0.0543042
0.110695
0.0526779
0.0828699
0.0695202
0.0822539
0.0824216
0.074601
0.091201
0.0878606
0.0861685
0.0581182
0.0720004
0.0487898
0.0754817
0.0801153
0.0734456
0.0746451
0.0848102
0.084904
0.0333534
0.0478686
0.0349708
0.0803471
0.0636822
0.0750132
0.0646004
0.0615575
0.0712983
0.0881667
0.0838873
0.0902231
0.0927988
0.0625093
0.103814
0.107871
0.0861477
0.107337
0.115486
0.0337506
0.0510853
0.104783
0.0787335
0.0878566
0.0743378
0.096117
0.0394767
0.0837017
0.0458852
0.110253
0.0997011
0.0933951
0.0988831
0.102694
0.107974
0.108222
0.107707
0.117618
0.0571286
0.0399627
0.0646549
0.0578416
0.0242615
0.035333
0.0442655
0.0280795
0.0442535
0.0524573
0.0295468
0.0177188
0.0680769
0.0756406
0.0609586
0.103558
0.0836882
0.072763
0.107839
0.0590288
0.0707719
0.110532
0.093747
0.0641476
0.0713535
0.0648645
0.0649757
0.048406
0.0369728
0.054685
0.114322
0.0768856
0.0944723
0.0315477
0.0260812
0.0226204
0.0163435
0.0202411
0.0344168
0.0374836
0.028025
0.0385728
0.0310437
0.090398
0.0618423
0.0733301
0.0181445
0.0365112
0.0339772
0.0306519
0.0383334
0.0656164
0.0685625
0.112656
0.102716
0.0705138
0.0684781
0.0303533
0.0476844
0.0457257
0.0523258
0.0430059
0.0597225
0.0851612
0.0469591
0.057955
0.0635253
0.0559178
0.045482
0.0437853
0.0441329
0.0700004
0.0484642
0.0594064
0.0618612
0.0394173
0.085414
0.0859917
0.0650519
0.0696421
0.0721629
0.0340926
0.0482226
0.0702603
0.0609176
0.0652886
0.0674324
0.0819311
0.0236975
0.0555251
0.0425449
0.0744989
0.0692683
0.053665
0.0833541
0.0820175
0.0792016
0.0788074
0.0778107
0.0847973
0.0520728
0.0376179
0.0687178
0.0630738
0.0548256
0.0616516
0.0402359
0.078143
0.0867373
0.0651128
0.0921621
0.0858511
0.0822632
0.0720425
0.0442982
0.0740132
0.0355589
0.023913
0.0481357
0.0326389
0.042985
0.0384677
0.0391523
0.0604453
0.0450961
0.0334104
0.0969205
0.087151
0.0577964
0.0759168
0.0624172
0.0801871
0.0589157
0.0252501
0.035775
0.0427762
0.0465162
0.0625123
0.0338098
0.0467762
0.056856
0.0331894
0.0521922
0.0364296
0.0250651
0.0372824
0.0300328
0.0248359
0.0372004
0.0643727
0.0441457
0.0465134
0.0362798
0.0260153
0.0130041
0.0188271
0.0302153
0.0256548
0.0271713
0.0737282
0.0337494
0.0473044
0.0349202
0.047955
0.0234996
0.0207647
0.0752511
0.118943
0.103992
0.048407
0.0856171
0.0652662
0.0784545
0.0896799
0.0612569
0.021577
0.0444387
0.029618
0.0619388
0.10309
0.030597
0.0360058
0.0368286
0.0297609
0.0280557
0.0481866
0.0604395
0.12256
0.0725309
0.115803
0.0365917
0.030951
0.0308867
0.0263122
0.0201287
0.030365
0.0257707
0.0242175
0.0520627
0.0336313
0.083733
0.0317436
0.0524072
0.0300666
0.0199957
0.0548247
0.0424698
0.0564445
0.0469926
0.0389148
0.11984
0.085025
0.0889459
0.0629857
0.0849176
0.0552493
0.0706283
0.0781399
0.0861013
0.0628503
0.066088
0.0556792
0.0374501
0.0379142
0.0234654
0.0687397
0.0534395
0.0522594
0.0428811
0.0490977
0.0624403
0.0650157
0.0693337
0.0722745
0.0795028
0.0215683
0.0976784
0.121321
0.0678489
0.109021
0.0630072
0.0402632
0.0480841
0.0280842
0.0444021
0.047802
0.0415175
0.0530347
0.0575608
0.0935519
0.075586
0.039014
0.0754599
0.0561725
0.109116
0.102171
0.0514776
0.0546881
0.0310765
0.0299138
0.0290095
0.0148294
0.0431405
0.0361555
0.0299917
0.0259687
0.0353471
0.0455312
0.0490294
0.035229
0.0367219
0.0337802
0.0485678
0.0485862
0.0410713
0.0435577
0.0428056
0.0340776
0.0385893
0.033858
0.0367697
0.0400185
0.0354023
0.0329691
0.0316911
0.0297998
0.0200413
0.0130255
0.0271788
0.0244765
0.0361212
0.0306945
0.0400615
0.0697829
0.04916
0.062246
0.0518806
0.0924373
0.0361504
0.030772
0.0429504
0.0377299
0.0378005
0.049694
0.053283
0.0544041
0.0528417
0.0471428
0.0638005
0.0321459
0.0475683
0.0420312
0.0197105
0.0474381
0.0274337
0.0278617
0.0388783
0.0371407
0.0544883
0.0403459
0.0465251
0.038874
0.0465408
0.0601673
0.0584833
0.0277311
0.0558447
0.0857
0.0395983
0.0541526
0.0423283
0.0620561
0.0623707
0.0543236
0.0361353
0.047336
0.0310763
0.0359098
0.0240672
0.0859148
0.0807534
0.0918062
0.0970613
0.0744187
0.0522374
0.0411069
0.064236
0.0617111
0.0688057
0.0576206
0.0697784
0.0391144
0.0939351
0.0869539
0.105915
0.0634844
0.0512735
0.0446954
0.0732197
0.0540652
0.0573522
0.0600413
0.0949748
0.0587605
0.0706379
0.0868121
0.0832315
0.0650256
0.0758836
0.0627386
0.0564757
0.0368607
0.0425736
0.0570481
0.0483219
0.0269038
0.0281782
0.0208848
0.0264263
0.035192
0.0307436
0.0378613
0.0281022
0.0511595
0.0462231
0.0334229
0.0332016
0.0381939
0.0301919
0.0729362
0.0351888
0.0240482
0.0350288
0.119663
0.0726355
0.103834
0.116295
0.110922
0.105503
0.0480604
0.0586211
0.0669469
0.05763
0.0852052
0.0733455
0.0632385
0.0340701
0.0440434
0.0421835
0.0428445
0.0514196
0.0326489
0.0669559
0.045516
0.0418143
0.0420781
0.0725364
0.083372
0.0945419
0.105748
0.0988286
0.0534761
0.0812506
0.0770781
SCALARS SignedDistance double 1
LOOKUP_TABLE default
0.653731
1.05856
0.0203247
0.0953963
0.05641
-0.000505059
1.20042
0.116854
0.0937284
1.19897
0.196932
-0.111951
0.00409877
-0.0196127
-0.0157039
0.00534194
0.0326101
1.09608
1.14047
0.715278
0.000370655
1.2421
0.0508415
0.31379
1.17548
0.0121363
0.0124927
0.0112388
0.334407
1.23391
0.0672471
0.741506
0.0158492
1.1963
0.0171102
0.0618707
1.23896
0.0506826
0.182567
0.816894
0.0128582
0.701126
-0.0231026
-0.0389627
0.0115626
1.13667
0.0102061
1.13943
-0.0564645
0.0114275
0.0019875
0.0170774
0.615004
-0.0633604
-0.0110465
0.975253
-0.0138088
0.0739137
-1.00069
1.11031
1.15451
-0.925624
1.20638
-0.011358
-0.0190062
-0.964857
-0.0361799
1.23057
-0.0191647
0.0702089
0.170821
0.42867
0.0852778
0.355167
-1
0.0953372
1.20403
-0.0116435
0.0892132
0.0103095
0.00762219
0.157888
-0.00265308
1.13976
-0.0156568
0.0101565
-0.000351726
-0.00527379
0.0406593
0.0779926
0.026141
-0.0250384
-0.00190697
0.665646
-0.00776038
0.098338
0.0281928
0.625895
1.16103
0.96209
0.0751442
1.21746
0.143946
0.537101
0.122938
0.748396
0.0214025
-0.000843197
-0.846539
0.0217837
0.113153
0.0148847
-0.0303899
-0.0143762
0.0178017
-0.0165549
0.107662
-0.0263673
1.19966
-0.0371538
0.0824448
0.144951
-1
1.46803
1.23515
0.0866984
1.16635
-0.00972334
0.273704
0.536294
0.574673
0.676877
1.30131
1.45811
1.24969
-0.0205419
0.0604703
0.809086
0.083165
1.19408
0.00491563
0.467152
-0.0336717
0.0279639
0.0338872
0.0312931
1.23858
0.0610741
-0.0289339
-0.00529948
0.0312669
0.622773
-0.00263772
0.0952404
0.0308982
0.0733235
1.1157
0.220951
0.270234
-0.0888078
0.0373442
0.0727891
0.437747
1.07614
0.225578
0.00750659
-0.0174171
0.0500696
-0.023218
0.0271352
-0.00743981
0.0170447
1.1838
1.08052
0.0139762
0.0107138
0.124163
-0.0146747
1.08723
-0.00581664
0.018585
-0.00712989
-0.00621699
0.035312
0.0158759
-0.00647729
-0.0158197
0.000113549
0.0256467
-0.0119281
-0.0288305
-0.0120726
0.097682
0.982355
-0.0170005
0.0291769
0.00261119
-0.0209458
-0.00909168
0.0191942
-0.0564788
0.00575746
0.0301281
-0.103577
0.0283376
-0.0104087
1.22188
0.259865
1.16649
-0.000896348
0.0303456
-0.0146587
-0.00954431
-0.000242993
-0.0135131
0.00739426
0.00807359
0.00479938
0.758311
0.673827
0.00340007
0.202925
1.13512
0.334058
0.459584
1.1477
1.20586
0.192027
0.481144
1.15427
0.19261
-0.00355158
0.0306193
-0.0110144
0.0845676
0.274337
-0.0485968
1.15788
1.13885
0.0281983
0.0514119
-0.0150782
-0.0425745
-0.0238222
0.0534309
-0.0660103
0.00478698
0.0233513
-0.0158846
0.021345
-0.260394
0.00228707
1.22745
-0.0705346
1.14185
1.13369
1.15906
0.277498
0.0573818
0.0544598
0.0521736
0.0226465
0.000246872
0.0577069
0.839754
-0.0305111
-0.0165626
0.106889
0.206703
-1.07755
0.162751
0.0985648
0.0523079
-0.000335857
0.0471162
0.294645
0.0959018
0.0591068
0.71928
1.17235
0.040886
-0.908657
1.24005
0.0094617
0.0259321
0.0805187
1.26873
1.20221
0.0522576
-1.01775
-0.136934
0.0450989
0.804333
0.258698
0.0633574
0.0544704
0.05755
0.456277
-0.000744715
-0.00712833
-0.00355134
0.000391528
-0.00102368
-0.0145918
0.00820569
-0.030596
1.22247
1.15643
1.18408
0.0163794
-0.0878501
-1.00012
0.168911
0.0464365
0.0244148
0.0161957
0.0395331
0.00438971
0.00195631
-0.0160238
0.355521
0.0104833
0.0052134
0.0131446
0.709655
0.0260172
0.0272013
0.925892
-0.00398485
-0.0179967
0.0338548
-0.0288598
0.107005
0.147957
0.0302984
0.0509753
-0.829525
-1.00302
0.267873
0.0368256
0.111941
0.152694
0.109065
0.00180866
-0.0723755
0.0252211
1.12976
0.0632253
0.0422774
-0.0216394
0.00442152
1.19023
1.32257
-0.0838036
0.22288
0.0682745
1.24993
1.17052
-0.962672
0.2049
0.301179
-0.00770583
-0.0725275
-0.000909459
-0.02174
-0.127858
0.0141044
-0.00208203
0.00258644
0.058749
1.12407
0.498389
0.63635
0.522398
1.13628
0.8641
0.168727
0.122158
0.706122
1.15623
1.11668
0.0382089
1.22839
1.14188
0.767337
1.08279
0.116161
0.362962
1.13701
1.11375
1.14306
0.0614393
1.18969
1.1808
1.18336
1.04159
0.0238779
0.0666934
0.929693
1.13653
1.14897
1.1439
0.614057
-0.0900197
-0.00477317
-0.154056
-1.03685
0.0798013
-0.267573
-0.282164
-0.00494272
-0.0296775
0.0362917
0.0377435
-0.00563885
0.286012
-0.660369
-0.34686
0.221939
0.83966
-0.00175157
0.91053
0.0751214
0.119452
-0.806014
0.0107807
-0.021111
-0.0449385
-0.0122255
-0.00575134
-0.0571517
0.0413651
-0.0121795
0.140315
1.12579
-0.0368531
0.0194267
-0.185273
0.00323137
0.0729361
1.31796
1.35185
0.0177799
-0.00989686
0.429801
0.0875607
1.20611
1.31259
1.20208
-0.0434457
0.124109
-0.00382443
-0.0360239
-0.81909
-1.04686
-0.0309598
0.13305
0.0268478
0.48948
1.28145
1.3985
1.24871
1.42921
1.21458
1.20496
0.255779
-1.00308
-0.195791
0.0286261
1.31678
-0.0182762
0.533751
0.176779
-1.00604
0.170426
0.691769
1.25877
0.677408
0.172083
0.346369
1.15628
0.19798
0.0608779
0.484817
-0.0108607
-1.00025
-0.268298
0.105822
-0.0697228
-0.175714
-0.019017
1.31551
1.33572
1.41912
1.26375
1.21369
1.39623
1.17753
1.12316
1.32327
1.16616
1.42908
1.30416
1.29508
1.0041
0.484238
0.585133
-0.0850133
-0.00893183
0.00848828
0.0180673
1.14157
1.2189
0.00587775
0.577222
0.112685
0.954042
0.665705
0.768701
1.17734
1.11571
0.000557596
0.0145842
0.00329213
1.00045
1.05414
0.0521187
0.124498
-0.00300954
0.0151547
-0.448818
-0.0213311
-0.00479528
0.0150878
0.0133195
0.00333618
1.1633
1.2184
1.22331
-0.0978823
0.857679
0.0107392
0.322743
1.24511
-0.0220727
-0.0174151
1.22963
1.18999
1.21404
-0.00156149
0.0436609
0.00587115
0.0584098
1.12716
0.0839179
-1.00231
-0.0492239
0.0393267
-0.0121474
0.665129
-0.00186967
0.108273
0.00819197
0.632273
-0.00592772
-0.0289252
0.0203373
0.710882
-0.0123712
0.0431667
0.0215118
-0.0149257
0.00517663
-0.0571267
-0.0147723
1.26922
1.22027
1.27258
1.25257
0.0319494
0.00528016
-0.0396187
0.0358453
0.0230509
0.528066
0.031728
-0.00400831
0.00197638
1.08558
0.298904
1.1353
0.0175257
0.107824
0.259858
0.0250844
0.17719
-0.0416293
0.0301569
1.26464
0.732359
1.24586
0.499054
0.089851
0.0113857
0.0014991
-0.00443133
1.129
0.0617727
0.536419
1.12611
1.17646
0.0327703
1.1489
0.318529
0.388123
0.152708
-0.0655399
1.17769
0.627005
0.130031
0.122659
0.248253
1.0548
1.14571
1.17681
-0.127277
0.0803609
-0.493058
0.0862892
-0.0600002
0.0145753
0.050029
0.0571048
0.0726145
-0.0334192
0.0773749
0.109323
-0.0608436
-0.184192
-0.0376583
0.0183236
0.0124935
