# vtk DataFile Version 4.2
vtk output
ASCII
DATASET POLYDATA
POINTS 642 double
-2.37223 4.46916 -0.0410055
2.39512 4.50808 -0.0224792
-2.40953 -3.25055 0.000471631
2.37965 -3.21725 0.00219867
0.00400388 -1.6853 3.74875
-0.00115041 2.96612 3.71702
-0.0151416 -1.65237 -3.57701
-0.0330665 2.99615 -3.75586
3.7973 0.68685 -2.34583
3.64795 0.665809 2.21862
-3.831 0.674812 -2.37603
-3.63838 0.637778 2.22864
-3.57732 2.85684 1.32581
-2.15181 1.99654 3.49348
-1.35805 4.23443 2.21068
1.35917 4.23499 2.2105
-0.00687314 5.13041 -0.0216053
1.43016 4.33999 -2.28558
-1.43056 4.3434 -2.29694
-2.288 2.05817 -3.68915
-3.69422 2.93666 -1.42554
-4.41678 0.671465 -0.0205634
2.1468 2.00141 3.48753
3.60217 2.8742 1.34495
-2.17829 -0.739456 3.52825
-0.00268649 0.62206 4.3813
-3.66844 -1.62894 -1.38267
-3.66814 -1.63367 1.38552
-0.0512309 0.681631 -4.32405
-2.2172 -0.686572 -3.53736
3.70012 2.9382 -1.41825
2.27485 2.05728 -3.65383
3.61371 -1.60978 1.36918
2.16051 -0.732148 3.5059
1.39397 -3.01748 2.25022
-1.40017 -3.02132 2.24928
0.00434873 -3.8673 -5.7224e-05
-1.39384 -2.99233 -2.21818
1.3814 -2.98263 -2.20811
2.14425 -0.672283 -3.42158
3.59185 -1.59605 -1.35608
4.4259 0.674742 -0.0130909
-3.09131 3.79377 0.667171
-2.57316 3.67503 1.85762
-1.92586 4.47458 1.11801
-3.01415 1.33667 2.95315
-2.9762 2.50434 2.53952
-3.75286 1.76568 1.85844
-0.687947 3.70644 3.11324
-1.85121 3.23356 3.00774
-1.09938 2.56498 3.75281
-0.718471 4.88591 1.16759
-1.25551 4.97678 -0.0281214
0.687363 3.70515 3.11121
-0.000328025 4.43254 2.33309
1.2733 4.96769 -0.0242885
0.718978 4.8851 1.16793
1.94551 4.48275 1.10164
-0.738479 4.9629 -1.19443
-2.00845 4.58697 -1.17378
2.0033 4.59342 -1.16884
0.746588 4.94547 -1.19546
-0.746258 3.7839 -3.21008
-0.00714175 4.48923 -2.36629
0.738394 3.76651 -3.17542
-2.70271 3.80493 -1.95907
-3.14758 3.86704 -0.73925
-1.17482 2.63668 -3.92637
-1.95599 3.34256 -3.15188
-3.93195 1.81222 -2
-3.15593 2.60101 -2.69622
-3.22133 1.37596 -3.14933
-3.83046 3.01554 -0.0221481
-4.27956 0.669756 -1.26486
-4.28197 1.84128 -0.746063
-4.22356 1.82687 0.689524
-4.16343 0.655145 1.17108
2.59066 3.67948 1.85007
3.11198 3.82745 0.675782
1.10068 2.56486 3.75346
1.85271 3.23398 3.00847
3.79337 1.77551 1.87854
2.99318 2.50748 2.53202
3.02117 1.3395 2.93702
-1.12686 1.32925 4.10661
0.000781354 1.86074 4.16442
-3.02351 -0.0782701 2.96171
-2.24464 0.623146 3.68571
-0.00257008 -0.592387 4.23305
-1.14207 -0.0796419 4.17566
-1.1167 -1.28775 3.79949
-4.23308 -0.59951 0.707463
-3.78541 -0.548002 1.88788
-3.78883 -0.490386 -1.90318
-4.25857 -0.587126 -0.724672
-3.15532 -2.59027 0.710141
-3.88183 -1.75689 0.000271307
-3.15351 -2.58853 -0.707574
-2.37395 0.675175 -3.83008
-3.15303 -0.0172907 -3.08103
-0.050565 1.88177 -4.21005
-1.21207 1.3958 -4.3042
-1.13361 -1.26831 -3.71946
-1.19436 -0.0159325 -4.18282
-0.0266212 -0.480649 -4.05621
1.94826 3.33068 -3.12985
1.17949 2.62242 -3.86297
3.16154 3.87775 -0.729353
2.70084 3.80314 -1.95271
3.19406 1.38191 -3.11187
3.14597 2.59452 -2.68116
3.93105 1.81607 -1.98922
3.1131 -2.55606 0.704699
2.63768 -2.46372 1.90454
1.97636 -3.27245 1.14667
3.0224 -0.0711108 2.95926
3.02137 -1.27404 2.57322
3.73112 -0.513922 1.87697
0.708358 -2.46459 3.14633
1.89555 -1.99935 3.05867
1.11122 -1.29757 3.78756
0.738221 -3.66563 1.19079
1.26934 -3.72216 -0.00188598
-0.707681 -2.46286 3.13617
0.00180328 -3.20318 2.36043
-1.2852 -3.72419 0.000617922
-0.742282 -3.67135 1.19065
-1.9953 -3.29217 1.14883
0.743797 -3.66337 -1.17474
1.9696 -3.26591 -1.13513
-1.99385 -3.28584 -1.14084
-0.746304 -3.65623 -1.17646
0.705855 -2.40076 -3.05712
-0.00232251 -3.1345 -2.29959
-0.715136 -2.40998 -3.07362
2.61728 -2.44193 -1.8767
3.1029 -2.54787 -0.694705
1.12223 -1.27131 -3.66382
1.86896 -1.95517 -2.98962
3.75593 -0.457655 -1.90596
3.0133 -1.25017 -2.55147
3.10472 0.00798318 -3.02016
3.81507 -1.7246 0.00561873
4.27206 0.686476 -1.25307
4.11846 -0.519462 -0.678863
4.15296 -0.558968 0.684217
4.19668 0.686141 1.18986
1.13159 -0.0778354 4.16223
2.23389 0.626703 3.66084
1.11646 1.33535 4.09914
-2.66453 -2.48317 1.913
-1.90744 -2.0015 3.05596
-3.07079 -1.28878 2.60254
-1.89344 -1.9698 -3.0141
-2.65772 -2.47152 -1.8975
-3.07834 -1.27479 -2.59746
2.34053 0.690849 -3.74732
1.14478 -0.00351875 -4.0434
1.18759 1.39928 -4.13619
4.24569 1.82932 0.704041
4.29166 1.84976 -0.749935
3.85046 3.03304 -0.0233381
-2.74624 4.17374 0.304429
-2.53415 4.15456 0.913196
-2.16783 4.48843 0.516842
-3.11096 3.28589 1.60097
-2.85929 3.74529 1.27614
-3.36896 3.35584 1.00655
-1.65952 4.39249 1.67768
-2.27017 4.10875 1.51585
-1.98441 3.99775 2.06287
-3.35806 0.979741 2.59213
-3.40818 1.57818 2.43614
-3.72311 1.19784 2.0651
-2.58974 2.26819 3.05968
-3.02143 1.9373 2.78281
-2.61416 1.6731 3.25233
-3.7054 2.31829 1.61236
-3.39353 2.15542 2.21228
-3.30793 2.69809 1.94662
-0.333556 3.34805 3.46354
-0.922618 3.16861 3.47426
-0.535377 2.79532 3.77249
-1.62432 3.7758 2.64229
-1.28993 3.50638 3.08673
-1.02951 4.00226 2.69565
-1.63894 2.29781 3.66029
-1.49935 2.91799 3.41737
-2.02853 2.63066 3.29309
-2.8143 3.11923 2.22987
-2.44667 2.89582 2.81131
-2.23855 3.49218 2.46906
-1.59284 4.76773 0.559459
-1.84868 4.74773 -0.0355478
-1.05523 4.60618 1.71825
-1.33272 4.72263 1.16619
-0.64827 5.11015 -0.0261058
-0.981841 4.96502 0.570675
-0.366097 5.06251 0.57473
0.331757 3.34712 3.46213
-0.000909238 3.76036 3.1425
0.695119 4.38146 2.3015
0.355324 4.11062 2.74737
1.03005 4.00174 2.69432
-0.356265 4.11122 2.74836
-0.695025 4.3818 2.30227
1.87838 4.77496 -0.026049
1.61991 4.77756 0.554866
2.20854 4.53807 0.51934
0.363212 5.06042 0.577761
0.989131 4.96131 0.573842
0.645469 5.09424 -0.0185141
1.66288 4.39429 1.67649
1.33898 4.72453 1.16168
1.05618 4.60656 1.71827
-0.36392 4.71375 1.77706
0.363749 4.71346 1.77695
-0.000360898 4.94646 1.18513
-1.6342 4.83273 -0.611628
-2.22257 4.5713 -0.588404
-0.377749 5.12619 -0.610862
-1.00097 5.02994 -0.61158
-1.73908 4.50273 -1.74424
-1.38118 4.8036 -1.20341
-1.09877 4.68619 -1.76466
2.23227 4.59226 -0.576176
1.65146 4.85121 -0.613001
1.108 4.68431 -1.75644
1.39575 4.82484 -1.20947
1.73564 4.50786 -1.73789
1.01399 5.00978 -0.613655
0.364173 5.10281 -0.607949
-0.385394 3.40405 -3.54417
-0.0149339 3.79695 -3.18634
0.351321 3.37977 -3.49417
-0.734865 4.45141 -2.35613
-0.390566 4.16719 -2.80283
-1.09412 4.1003 -2.79408
1.09193 4.08739 -2.77505
0.376811 4.1564 -2.78989
0.733226 4.43861 -2.34285
-0.00761947 5.01171 -1.20829
0.373953 4.77402 -1.8034
-0.380308 4.78921 -1.81037
-2.61671 4.27252 -0.986317
-2.77253 4.21923 -0.377951
-2.08402 4.12265 -2.15569
-2.3736 4.23708 -1.58995
-3.45508 3.43743 -1.0888
-2.9683 3.86821 -1.36402
-3.24786 3.4027 -1.71085
-0.607267 2.85129 -3.88767
-0.988812 3.25148 -3.6094
-2.15128 2.72135 -3.46532
-1.58531 3.01029 -3.57948
-1.73484 2.36679 -3.8483
-1.36376 3.61213 -3.21819
-1.70935 3.89206 -2.75598
-3.92459 1.22417 -2.22105
-3.62154 1.62329 -2.61253
-3.57735 1.01397 -2.77458
-3.47506 2.79928 -2.08081
-3.58517 2.23143 -2.36714
-3.85397 2.38617 -1.73348
-2.79303 1.72429 -3.45635
-3.21789 2.00242 -2.96312
-2.754 2.34922 -3.23944
-2.36241 3.61525 -2.59229
-2.5929 3.00393 -2.96516
-2.97131 3.23909 -2.3603
-3.16874 3.85685 -0.0300897
-3.80764 3.00631 -0.736803
-3.5291 3.45959 -0.391656
-3.50286 3.43236 0.336556
-3.75345 2.96601 0.675724
-4.09417 0.674659 -1.86293
-4.17612 1.25707 -1.64369
-4.41531 1.25566 -0.379699
-4.33347 1.26063 -1.00774
-4.3964 0.670504 -0.648816
-4.1452 1.84965 -1.38513
-4.0333 2.41108 -1.1028
-4.02064 1.24149 1.52166
-3.92141 0.646449 1.73648
-3.94859 2.36958 1.02536
-4.02878 1.8193 1.28595
-4.34175 0.66431 0.594735
-4.24679 1.25292 0.932297
-4.38015 1.25268 0.333907
-4.11389 2.45385 -0.389266
-4.31962 1.84959 -0.019117
-4.08717 2.43964 0.345089
2.57006 4.1985 0.911722
2.7702 4.21622 0.317281
1.98813 3.99936 2.06233
2.28793 4.11462 1.5044
3.38881 3.37975 1.01944
2.89208 3.77707 1.28008
3.14482 3.30868 1.61051
0.535053 2.79336 3.77114
0.923309 3.1667 3.47252
2.02843 2.63272 3.29369
1.50098 2.91777 3.41823
1.63795 2.30131 3.65958
1.29118 3.50548 3.08565
1.62577 3.77617 2.64212
3.75964 1.21132 2.07438
3.44139 1.58455 2.43502
3.38219 0.995215 2.58602
3.34445 2.71394 1.95715
3.43071 2.16571 2.21832
3.73865 2.33067 1.63462
2.60926 1.67484 3.24105
3.03381 1.93986 2.77008
2.58982 2.27187 3.0551
2.24251 3.49355 2.4687
2.44994 2.89752 2.81047
2.83194 3.12252 2.224
-0.564629 2.22202 4.00835
-0.000358156 2.4528 3.96364
-1.66499 1.68356 3.84314
-1.13641 1.96576 3.96426
-0.000848777 1.24156 4.30562
-0.564402 1.59359 4.18225
-0.565721 0.970392 4.30997
-3.36894 0.284645 2.60105
-3.02686 0.632488 3.00064
-2.23316 -0.0601367 3.65715
-2.64601 0.271518 3.36694
-2.63352 -0.419195 3.27631
-2.63601 0.988035 3.34193
-2.21482 1.32378 3.61695
-0.00153374 -1.17212 4.02184
-0.573422 -0.942951 4.07476
-0.54226 -1.50995 3.81268
-0.57342 0.27007 4.33898
-0.578815 -0.335372 4.25609
-0.00279861 0.00604226 4.35543
-1.66358 -1.03238 3.70503
-1.14903 -0.689763 4.03071
-1.68012 -0.415094 3.90108
-1.717 0.979612 3.95664
-1.72485 0.267264 3.98647
-1.15039 0.617988 4.21039
-3.99853 0.0199799 1.52722
-3.71963 0.0584184 2.07595
-4.31288 0.0305873 0.340512
-4.20422 0.0188707 0.937118
-3.78888 -1.09834 1.66854
-4.05332 -0.597267 1.31053
-4.02483 -1.13839 1.06365
-3.85525 0.132544 -2.18468
-4.10734 0.077628 -1.59768
-4.03743 -1.13333 -1.06711
-4.09651 -0.569987 -1.32117
-3.79725 -1.0966 -1.66776
-4.27917 0.042309 -0.990175
-4.33893 0.0377972 -0.374416
-2.79782 -2.97013 0.345772
-3.21247 -2.62183 0.000684511
-2.79711 -2.96945 -0.344285
-3.82622 -1.72548 0.709288
-3.55986 -2.19955 0.365614
-3.44468 -2.14374 1.05693
-3.44204 -2.14077 -1.0532
-3.55915 -2.19879 -0.364029
-3.82657 -1.7231 -0.708207
-4.31286 -0.614448 -0.00613698
-4.15702 -1.19617 -0.37064
-4.15259 -1.19775 0.3674
-3.21838 0.674031 -3.17195
-3.53968 0.335448 -2.74538
-2.3669 1.37687 -3.82
-2.82088 1.03457 -3.53686
-2.70831 -0.363686 -3.35002
-2.78925 0.316668 -3.49604
-2.31802 -0.0167337 -3.73235
-0.0405018 2.47447 -4.0082
-0.647107 2.26404 -4.14591
-0.6508 1.03824 -4.38105
-0.657191 1.64498 -4.32625
[...]
POINT_DATA 642
SCALARS Mean_Curvature double 1
LOOKUP_TABLE default
0.464431
0.531394
0.505321
0.488681
0.423553
0.504644
0.235125
0.152931
0.503526
0.232287
0.508359
0.342145
0.469045
0.459473
0.466055
0.466009
0.320674
0.558286
0.535168
0.421745
0.493564
0.441676
0.463144
0.472078
0.371172
0.524371
0.463199
0.486139
0.319193
0.358232
0.463172
0.524295
0.520785
0.306735
0.469481
0.457504
0.298141
0.449502
0.46966
-0.0727224
0.481337
0.482475
0.485392
0.41175
0.414131
0.416167
0.426848
0.433303
0.486726
0.460708
0.448508
0.445049
0.50551
0.475961
0.475841
0.421403
0.440102
0.302063
0.446551
0.549689
0.461142
0.370986
0.525432
0.387082
0.469207
0.463609
0.514201
0.565652
0.444154
0.496713
0.454659
0.507001
0.456465
0.359218
0.455544
0.514224
0.255871
0.340985
0.465269
0.464014
0.462927
0.511707
0.377399
0.356805
0.267409
0.439018
0.266982
0.474171
0.490579
0.493194
0.427193
0.548587
0.420745
-0.193758
0.517695
0.476507
0.447226
0.480836
0.475853
0.432444
0.216886
0.663446
0.665182
0.625568
0.315287
0.455209
0.629652
0.476116
0.467264
0.506542
0.446769
0.539906
0.473371
0.453255
0.453409
0.425135
0.478181
0.386519
0.490421
0.482817
0.372274
0.445231
0.469365
0.514082
0.465508
0.452397
0.460625
0.458695
0.536085
0.481439
0.477389
0.479508
0.485526
0.26386
0.50258
0.457661
0.465112
0.560534
0.455738
0.272057
0.538072
0.436569
0.48766
0.465572
-0.0217925
0.354733
0.478392
0.488965
0.437309
0.276851
0.450835
0.478779
0.594348
0.424471
0.457771
0.557168
0.50687
0.329789
0.238767
0.508877
0.450668
0.461389
0.467113
0.330236
0.26739
0.364255
0.360761
0.485434
0.451681
0.417928
0.452392
0.260938
0.412159
0.396717
0.45558
0.448146
0.440685
0.442339
0.386538
0.375304
0.499803
0.485502
0.487607
0.4654
0.474065
0.476321
0.443975
0.46078
0.45116
0.416947
0.451366
0.452912
0.353291
0.44385
0.461166
0.43561
0.530997
0.375752
0.396976
0.491053
0.485708
0.472699
0.476545
0.472203
0.481873
0.475833
0.546762
0.340382
0.522298
0.404585
0.357833
0.462028
0.432687
0.407864
0.459769
0.467711
0.465856
0.45594
0.447904
0.518026
0.578421
0.511697
0.471307
0.371766
0.366322
0.502383
0.53275
0.379992
0.594524
0.475413
0.395589
0.420545
0.51828
0.266697
0.203019
0.366026
0.375812
0.56321
0.56398
0.326481
0.319663
0.447353
0.389163
0.486887
0.541269
0.491916
0.457953
0.464946
0.503007
0.483018
0.469788
0.551359
0.56154
0.441324
0.457493
0.396763
0.533377
0.453792
0.524365
0.51042
0.504206
0.465547
0.451909
0.49092
0.508641
0.463569
0.443684
0.459001
0.458137
0.463825
0.446346
0.445434
0.43584
0.475797
0.487944
0.514514
0.554485
0.523121
0.437032
0.439407
0.429613
0.429663
0.468901
0.267268
0.493412
0.479887
0.460146
0.484426
0.493832
0.448158
0.521071
0.481599
0.471282
0.502029
0.437792
0.326224
0.459166
0.455864
0.455459
0.470369
0.472644
0.46529
0.46982
0.470805
0.469898
0.464661
0.487837
0.453661
0.381221
0.458618
0.447481
0.476228
0.398233
0.386289
0.447628
0.43979
0.440274
0.36151
0.430716
0.443065
0.409402
0.441024
0.4302
0.338104
0.502507
0.320526
0.334629
0.46843
0.40548
0.33586
0.281327
0.373164
0.475047
0.475176
0.440371
0.518803
0.496164
0.514131
0.396134
0.467982
0.458084
0.452879
0.50984
0.51005
0.253713
0.278922
0.108803
0.223241
0.598865
0.494229
0.645506
0.454825
0.358808
0.623038
0.488342
0.565377
0.317246
0.116165
0.49276
0.479175
0.496038
0.456781
0.464483
0.455143
0.454051
0.465342
0.44258
0.56337
0.644124
0.656437
0.484968
0.47751
0.50403
0.492265
0.421706
0.470605
0.448036
0.177705
0.540631
0.585068
0.649696
0.302028
0.575565
0.512386
0.542498
-0.0921603
-0.0869547
0.467365
0.542162
-0.00616199
0.343598
0.288273
0.497201
0.487014
0.630845
0.484451
0.583519
0.211169
0.460331
0.541653
0.54097
0.476532
0.454021
0.503982
0.476975
0.467074
0.470091
0.474892
0.464569
0.46019
0.503236
0.526961
0.5176
0.444626
0.530892
0.525929
0.451244
0.465163
0.456406
0.461532
0.463667
0.455338
0.485459
0.468312
0.478125
0.447199
0.459224
0.456132
0.461083
0.456993
0.460928
0.282952
0.469606
0.271347
0.417695
0.417198
0.417276
0.496379
0.357991
0.599644
0.406226
0.486603
0.406411
0.471742
0.480214
0.47386
0.33132
0.510741
0.570478
0.475526
0.517055
0.465438
0.452054
0.472219
0.460319
0.445839
0.535851
0.454041
0.375443
0.306076
0.479161
0.502253
0.339818
0.469775
0.478028
0.472043
0.516786
0.466449
0.483704
0.422056
0.441119
0.408914
0.448114
0.433676
0.448312
0.458475
0.413313
0.438812
0.476924
0.484263
0.461068
0.537909
0.473411
0.473124
0.495878
0.49736
0.476366
0.497109
0.446054
0.452161
0.482628
0.428017
0.414552
0.232123
0.490842
0.521959
0.418186
0.50986
0.512735
0.462205
0.498115
0.329054
0.448011
0.44259
0.474619
0.478893
0.464783
0.475924
0.447739
0.465255
0.439117
0.485504
0.522657
0.52773
0.507488
0.537682
0.468594
0.467447
0.452408
0.400825
0.476802
0.537376
0.287396
0.547637
0.405099
0.0925758
0.489576
0.456103
0.479309
0.44556
0.497642
0.464241
0.472155
0.464277
0.470021
0.495375
0.423462
0.425835
0.403676
0.458473
0.0286816
0.597881
0.182919
0.446878
0.668731
0.294616
0.478686
0.130655
0.403069
0.659178
0.399393
0.69109
0.468995
0.445131
0.458183
0.495857
0.519815
0.241147
0.367241
0.349209
0.336723
0.448616
0.436784
0.493855
0.382392
0.450901
0.413722
0.509252
0.348431
0.505302
0.470673
0.450203
0.46
0.462576
0.443761
0.310333
0.511116
0.386096
0.482205
0.466654
0.350606
0.546255
0.557952
0.39845
0.505668
0.452197
0.490968
0.453043
0.521825
0.446202
0.453507
0.428048
0.539434
0.485529
0.43678
0.473411
0.476271
0.454222
0.424539
0.356255
0.135812
0.526221
0.538093
0.445901
0.428267
0.432744
0.488698
0.454581
0.48446
0.49997
0.518281
0.124557
0.412851
0.372103
0.213819
0.283103
0.226306
0.594005
0.569875
0.35203
0.392629
0.533333
0.319031
0.570267
0.520062
0.526821
0.519393
0.509546
0.468342
0.52387
0.490747
0.549747
0.483332
0.479589
0.498033
0.443482
0.458219
0.50405
0.486001
0.455585
0.480086
0.425228
SCALARS CoVolArea double 1
LOOKUP_TABLE default
0.278143
0.274132
0.280692
0.277443
0.273293
0.260311
0.271021
0.290303
0.267551
0.269083
0.27111
0.273979
0.391019
0.380225
0.391672
0.392535
0.408539
0.411758
0.414695
0.416432
0.412608
0.406616
0.37889
0.393949
0.392858
0.375275
0.403289
0.402506
0.392626
0.40571
0.414991
0.399523
0.389151
0.393001
0.404778
0.406933
0.418143
0.398949
0.393889
0.406526
0.388262
0.39154
0.378939
0.41405
0.385383
0.365249
0.403176
0.362184
0.366148
0.402259
0.361932
0.419822
0.382744
0.367097
0.411103
0.387092
0.421064
0.38868
0.429836
0.388922
0.389781
0.434999
0.38577
0.44091
0.389359
0.437631
0.386236
0.378517
0.437514
0.386204
0.437535
0.385396
0.42293
0.386255
0.423229
0.404368
0.38339
0.419758
0.379888
0.360667
0.402669
0.357995
0.407418
0.368521
0.408107
0.366423
0.378073
0.39654
0.363594
0.396626
0.375831
0.410893
0.368297
0.405212
0.416656
0.390815
0.427138
0.389605
0.419301
0.384245
0.396397
0.400754
0.365754
0.38874
0.392843
0.431843
0.374115
0.390653
0.436397
0.376567
0.434232
0.381902
0.382713
0.421802
0.387338
0.366195
0.402753
0.377704
0.375409
0.409334
0.375145
0.430473
0.385286
0.381214
0.42572
0.388977
0.430939
0.391042
0.420983
0.382252
0.387319
0.426291
0.363707
0.422878
0.364207
0.414823
0.38095
0.353286
0.399828
0.385932
0.406139
0.373427
0.409019
0.372497
0.436497
0.408938
0.371355
0.394726
0.398484
0.40819
0.428103
0.415483
0.402662
0.412423
0.423833
0.416962
0.395587
0.407039
0.414141
0.411635
0.422406
0.4256
0.361694
0.387437
0.368572
0.408839
0.384314
0.3737
0.374086
0.383625
0.403765
0.350902
0.364592
0.34658
0.390341
0.363905
0.360267
0.366482
0.370125
0.40433
0.34122
0.364277
0.339629
0.400161
0.370048
0.368591
0.361422
0.367282
0.392821
0.449824
0.441079
0.446093
0.390602
0.364126
0.407171
0.386275
0.380786
0.389711
0.41971
0.342102
0.368472
0.404923
0.374687
0.369063
0.374324
0.404645
0.359116
0.389436
0.358613
0.421386
0.394229
0.390253
0.381569
0.391753
0.40888
0.454468
0.45466
0.461028
0.38766
0.359999
0.415602
0.388094
0.394442
0.39926
0.431225
0.363248
0.386747
0.427646
0.392968
0.39028
0.395267
0.424705
0.366007
0.400224
0.374658
0.42941
0.402243
0.387984
0.386734
0.405043
0.432385
0.472236
0.48044
0.476689
0.386623
0.359235
0.429441
0.397199
0.389386
0.396352
0.428694
0.359165
0.380248
0.432652
0.396785
0.392365
0.392014
0.427041
0.35736
0.388955
0.358903
0.429221
0.398394
0.390721
0.389381
0.397753
0.430768
0.481247
0.481067
0.480572
0.383921
0.422625
0.391636
0.383749
0.405977
0.357368
0.382441
0.406521
0.386588
0.388675
0.391439
0.423369
0.367952
0.361227
0.399654
0.366507
0.38132
0.369694
0.399239
0.466139
0.453925
0.455075
0.383693
0.357674
0.409882
0.390466
0.377743
0.384736
0.408523
0.340524
0.365132
0.39163
0.366229
0.358218
0.370487
0.401029
0.335741
0.361224
0.3481
0.402859
0.368533
0.366159
0.363318
0.368728
0.394328
0.451709
0.445628
0.45453
0.366896
0.341289
0.397487
0.372624
0.362955
0.375464
0.393992
0.3576
0.376536
0.395893
0.374188
0.37205
0.371997
0.395765
0.34771
0.368708
0.355482
0.388498
0.366794
0.358796
0.373971
0.372034
0.398397
0.438495
0.432217
0.43592
0.388145
0.3605
0.43003
0.393075
0.362953
0.373232
0.398737
0.367676
0.398361
0.405044
0.392462
0.380992
0.398769
0.433722
0.367367
0.392509
0.366611
0.418694
0.397836
0.390995
0.390356
0.397722
0.42006
0.458378
0.451064
0.448175
0.381531
0.357172
0.419917
0.387637
0.383451
0.383473
0.409311
0.381471
0.380456
0.390743
0.371948
0.381471
0.377407
0.417962
0.347877
0.394526
0.382348
0.403668
0.372815
0.382343
0.364563
0.371272
0.385673
0.455826
0.432786
0.44628
0.382175
0.375211
0.423338
0.386337
0.37235
0.385003
0.423004
0.364055
0.394355
0.429592
0.399673
0.392372
0.39992
0.428014
0.351876
0.382089
0.353016
0.423046
0.390125
0.378523
0.39023
0.394987
0.42958
0.478014
0.47855
0.477034
0.360794
0.386542
0.363414
0.411852
0.388511
0.381833
0.386031
0.39015
0.416825
0.352781
0.369926
0.357486
0.399097
0.368756
0.36588
0.362054
0.369552
0.398977
0.356
0.375556
0.352902
0.412995
0.378535
0.379239
0.374243
0.37559
0.400422
0.452601
0.445382
0.458135
0.389877
0.363724
0.420325
0.393795
0.386604
0.393867
0.428354
0.361924
0.381782
0.419413
0.388043
0.380376
0.38583
0.417387
0.365266
0.391976
0.367048
0.429562
0.396379
0.393832
0.389618
0.396276
0.422475
0.469342
0.470178
0.474128
0.386173
0.36148
0.421956
0.386252
0.379034
0.385995
0.410136
0.365284
0.389344
0.41452
0.39095
0.384435
0.393203
0.427171
0.340436
0.375295
0.337922
0.4076
0.380618
0.366232
0.369188
0.380611
0.410039
0.471032
0.467028
0.464769
0.383153
0.360163
0.408242
0.383734
0.379093
0.383995
0.408481
0.347874
0.349922
0.395262
0.35327
0.363353
0.364202
0.401924
0.352366
0.383132
0.348471
0.399238
0.382933
0.373498
0.380267
0.389172
0.4079
0.449626
0.439799
0.447763
0.383021
0.401981
0.38536
0.386635
0.403955
0.34908
0.385992
0.41611
0.397294
0.373869
0.40595
0.409833
0.392318
0.346838
0.39204
0.386996
0.371019
0.395818
0.410504
0.446342
0.450316
0.435939
0.370636
0.398192
0.3735
0.365849
0.387395
0.376702
0.395821
0.374024
0.371644
0.394877
0.365201
0.392755
0.3723
0.369569
0.397237
0.432899
0.442032
0.436254
0.392132
0.420914
0.394726
0.395
0.421628
0.384572
0.403965
0.382714
0.383082
0.414524
0.375132
0.407014
0.365912
0.371357
0.397518
0.463957
0.450881
0.461658
0.353267
0.409043
0.370246
0.374073
0.412502
0.389438
0.420469
0.392225
0.390383
0.415362
0.397272
0.415264
0.396898
0.392962
0.410487
0.459791
0.460312
0.454416
0.371232
0.400974
0.369409
0.375204
0.400072
0.390368
0.402477
0.380105
0.378423
0.406934
0.398466
0.398965
0.375459
0.394367
0.415138
0.436906
0.449856
0.44137
0.357638
0.401298
0.36584
0.368801
0.408004
0.376689
0.421656
0.386579
0.38147
0.408726
0.386729
0.415021
0.388749
0.39261
0.422774
0.461023
0.467248
0.463847
SCALARS SignedDistance double 1
LOOKUP_TABLE default
3.4087
3.19429
2.89191
3.08023
3.54123
3.67845
4.60871
3.71948
3.80064
4.23583
3.60041
4.12818
3.71121
3.94523
3.48153
3.47833
3.39733
3.10325
3.04479
3.10799
3.0151
3.88062
4.00082
3.57447
3.86034
3.78101
3.50275
3.40882
4.20844
4.35213
2.95726
3.49904
3.62898
3.9574
3.17777
3.18585
3.42472
3.55377
3.60674
4.65345
3.87203
3.84886
3.50102
3.67445
3.51148
4.12818
3.88716
3.99337
3.52364
3.69356
3.7994
3.36172
3.34877
3.53504
3.37739
3.38351
3.37161
3.53994
3.05653
3.07668
2.96672
3.16104
3.38592
3.33227
3.51147
2.85133
3.11642
3.36413
2.95331
3.17657
2.9017
3.25777
3.30743
3.75056
3.33699
3.69414
4.11307
3.67878
3.36688
3.80276
3.70042
3.88923
3.91897
4.1706
4.04502
3.92697
4.09242
4.08089
3.52789
3.68807
3.61168
3.88802
3.9588
4.15937
3.97318
3.00364
3.20901
3.05421
3.68334
3.91022
3.84504
3.72067
4.53928
4.31983
4.59054
3.13351
3.6564
2.96731
2.86325
3.58324
3.05946
3.27544
3.22155
3.33185
3.09736
4.16957
3.81764
4.03719
3.40711
3.53322
3.71704
3.12298
3.05212
3.52289
3.31489
3.15405
3.15939
3.01831
3.37368
3.23953
3.14741
3.44139
4.12559
3.94123
4.10314
3.63182
3.37469
4.61064
4.08668
4.30041
4.28706
4.21601
3.55261
3.78217
4.19004
4.11684
4.04353
3.77702
4.19852
4.07922
3.21706
3.52809
3.75617
3.93559
3.40529
4.02151
4.09645
4.4842
4.05201
3.5648
3.35241
3.22652
3.44123
3.59879
3.55211
3.74193
3.66417
3.59241
3.48767
3.5886
3.57076
4.19469
4.0885
4.15657
3.90806
3.9989
4.03798
3.84715
3.95847
3.85111
3.58642
3.6603
3.73096
3.57799
3.60704
3.49136
3.8653
3.74024
3.81396
3.77558
3.78752
3.67181
3.46603
3.43018
3.41054
3.42183
3.3215
3.38891
3.34894
3.5977
3.49351
3.40966
3.43932
3.49439
3.42755
3.40669
3.27531
3.49879
3.40158
3.36095
3.42853
3.3797
3.49173
3.44347
3.40738
3.35514
3.3561
3.32933
3.23053
3.25702
3.1873
3.14872
2.98754
3.1132
3.11448
3.04941
3.14756
3.20344
3.14858
2.98572
3.21079
3.25156
3.59489
3.59757
3.69038
3.21141
3.38109
3.19875
3.29396
3.42705
3.28579
3.20273
3.22072
3.14313
3.06612
3.25462
2.88773
2.91403
3.03107
2.93192
2.89462
3.5777
3.33785
3.0059
3.10282
3.17123
3.11648
2.96054
3.37822
3.16517
3.41623
2.92274
2.99083
3.07608
3.15227
3.01864
2.96821
2.85844
2.88581
2.84776
3.30417
3.16453
3.20659
3.38643
3.50679
3.68578
3.48407
3.61181
3.5316
3.78315
3.31097
3.20366
4.04749
4.12594
3.68221
3.8536
4.0086
3.90306
3.76157
3.28538
3.49728
3.47533
3.47858
3.27591
3.57558
3.59938
3.45914
3.55419
3.64281
3.73308
3.66283
3.84201
3.74492
3.89369
3.60795
3.57801
4.08277
4.07417
4.22773
3.77569
3.91213
3.71702
4.09946
4.04627
3.9664
3.68428
3.81789
3.78842
3.8463
3.79631
4.0081
3.92463
3.97201
3.99278
3.89691
4.10447
4.16633
3.92755
4.08926
4.00233
4.1854
4.10022
3.51068
3.52601
3.54034
3.69592
3.57091
3.61781
3.723
3.61656
3.74389
4.06482
3.87513
3.86073
4.06129
4.07494
4.0769
4.06557
3.71885
3.91617
3.64245
3.8819
3.99111
3.72697
4.07865
3.85787
4.02903
4.06317
2.9053
2.93578
2.93354
3.27346
3.06018
3.17092
3.24259
3.08878
3.32037
3.87137
3.58205
3.54969
3.57353
3.73607
3.3718
3.44662
4.12202
3.78116
4.01176
3.75723
3.68334
4.09055
3.86013
4.01633
3.47022
3.35113
4.55636
4.75221
4.7976
4.30187
4.58477
4.52889
4.40196
4.55359
4.35612
3.6489
4.01586
3.97967
3.53643
3.75286
3.06784
3.27469
3.55877
3.35877
3.27858
3.06158
2.92783
2.87603
2.87067
2.93047
2.88443
2.92744
3.68488
3.39327
3.54241
3.23666
3.28653
3.51757
3.06031
3.11434
2.96303
2.95189
2.91899
3.05823
3.10115
3.13839
3.05814
3.46117
3.27739
3.39721
3.12644
3.18645
3.23583
4.20765
4.09006
4.17129
3.89666
3.97572
4.07099
3.90784
3.91599
3.74137
3.58258
3.5972
3.60941
3.32456
3.43977
3.26991
3.84093
3.67627
3.80697
3.55663
3.66517
3.41839
3.07394
3.04329
3.10099
3.0882
3.22602
3.15821
3.2618
3.59619
3.5203
3.27666
3.47174
3.32357
3.31992
3.18095
2.9784
3.03342
2.94535
3.31077
3.17406
3.30684
3.09325
3.06927
3.11771
3.16324
3.29013
3.26529
3.09451
3.13153
3.36913
3.16028
3.40103
3.23834
3.43564
2.99024
3.09241
3.46215
3.24548
3.33476
3.25153
3.47814
4.37654
4.2798
4.38858
3.74988
4.00901
3.84933
3.82115
4.04139
3.76328
3.60815
3.72282
3.65128
3.28658
3.19661
3.58645
3.41786
3.59779
3.49191
3.73157
4.577
4.33252
4.40272
4.34035
4.67137
4.05969
3.82556
4.0426
4.2619
3.99708
4.07287
4.39645
4.21269
4.44977
4.47578
4.51804
3.84336
4.15601
3.92646
3.23525
3.69793
3.44558
3.3351
3.54221
3.78219
4.0259
4.05846
4.0189
3.7975
4.24892
4.07199
4.1639
4.16148
3.88898
4.05337
3.93575
4.16788
4.13513
3.92462
4.16846
3.84115
3.59121
3.86328
3.7171
3.63348
3.75243
4.26719
4.13983
4.23265
4.20461
4.05146
3.84689
3.9506
3.99398
3.93542
4.03562
3.98267
4.15126
3.94407
2.98611
3.18772
3.0845
3.10457
3.28368
3.61758
3.80584
3.68727
3.47619
3.32498
4.03815
3.57685
3.85357
3.99474
3.93126
3.36623
3.6195
3.44622
4.26859
3.7183
3.96863
4.20217
4.242
3.06652
3.41591
3.21376
3.24974
3.45535
4.05612
4.31615
4.24037
4.10446
3.74618
3.66124
3.66066
3.9351
3.90548
4.39092
4.15039
3.83048
3.78973
4.74058
4.31511
4.51271
4.71369
4.66695
3.79837
3.80547
3.91057
3.90731
4.08778
4.39847
4.26349
4.09129
3.94514
3.68408
3.80399
3.71857
3.54142
3.52599
3.11758
3.28242
3.55276
3.59006
3.15925
3.38495
3.2763
3.08012
3.05063
3.41157
3.24824
3.3647
