# vtk DataFile Version 4.2
vtk output
ASCII
DATASET POLYDATA
POINTS 642 double
-1.3788 2.84463 -0.278056
1.45283 2.91254 -0.229773
-1.51983 -1.72524 0.0139831
1.37306 -1.67393 0.0307768
-0.00525291 -0.731602 1.96553
-0.00375926 1.97036 1.79392
-0.0933899 -0.781344 -1.42034
-0.177555 2.09218 -2.00661
2.03478 1.06957 -1.22063
1.80948 0.730034 0.923917
-2.11419 0.935326 -1.41283
-1.80961 0.590935 0.983832
-1.90605 1.91715 0.434198
-0.980915 1.42981 1.68526
-0.649969 2.65084 1.11301
0.674744 2.66261 1.1063
-0.0139815 3.22743 -0.149094
1.00045 2.85212 -1.33859
-0.989644 2.85544 -1.40454
-1.45184 1.62755 -2.14185
-2.13905 2.07747 -0.995198
-2.31883 0.804011 -0.203167
0.967733 1.46835 1.65609
1.97009 1.96218 0.458585
-1.00428 -0.275487 1.79603
-0.028747 0.480356 2.1831
-1.97769 -0.890626 -0.606846
-1.94281 -0.940779 0.574313
-0.219602 0.997686 -2.12174
-1.32413 0.171291 -1.66207
2.16728 2.11023 -0.924807
1.42072 1.72489 -1.86827
1.769 -0.874818 0.588763
0.961164 -0.290158 1.73926
0.785675 -1.56386 1.22315
-0.85232 -1.58899 1.22436
-0.00376816 -2.02761 0.0426737
-0.912886 -1.51541 -1.06153
0.804925 -1.48836 -0.978212
1.13386 0.0659033 -1.45683
1.72387 -0.822609 -0.497377
2.28465 0.935057 -0.144985
-1.71862 2.45254 0.0839832
-1.29916 2.35399 0.866976
-1.02787 2.82763 0.451697
-1.44569 1.03979 1.37996
-1.44563 1.7306 1.18113
-1.91246 1.31958 0.733592
-0.290269 2.3412 1.55615
-0.861779 2.11155 1.46699
-0.463076 1.76094 1.81672
-0.370039 3.04098 0.566335
-0.751475 3.12848 -0.204568
0.29303 2.34302 1.55393
0.00210005 2.75232 1.19129
0.852062 3.12949 -0.188259
0.389126 3.04546 0.56969
1.13623 2.84615 0.396837
-0.487976 3.19529 -0.77813
-1.25029 2.95096 -0.818553
1.31236 3.00745 -0.753498
0.493883 3.1783 -0.762026
-0.648863 2.50577 -1.81282
-0.0413626 2.95715 -1.34596
0.553839 2.51488 -1.72185
-1.68448 2.61987 -1.28339
-1.81149 2.58051 -0.626403
-0.931946 1.9153 -2.15788
-1.29293 2.33839 -1.90343
-2.22688 1.45648 -1.29678
-1.93795 1.91946 -1.68262
-1.91442 1.27082 -1.81766
-2.14138 2.05056 -0.246139
-2.30147 0.869967 -0.856293
-2.35428 1.47209 -0.593981
-2.23687 1.42294 0.091755
-2.12838 0.69013 0.416338
1.38497 2.3795 0.810187
1.76857 2.53678 0.111442
0.45391 1.77261 1.80799
0.873536 2.12787 1.45669
1.96642 1.37874 0.697765
1.50771 1.76003 1.11227
1.47584 1.08617 1.31056
-0.475426 0.921323 2.02517
-0.00846108 1.33111 2.01166
-1.45987 0.0821518 1.41342
-0.959302 0.517612 1.84336
-0.0270906 -0.135195 2.16045
-0.488531 0.1388 2.12535
-0.513899 -0.527747 1.98183
-2.11924 -0.397233 0.231104
-1.89401 -0.299996 0.818097
-2.00974 0.0621483 -1.0006
-2.14287 -0.283278 -0.384061
-1.87209 -1.40732 0.317922
-2.09699 -0.991791 -0.0316128
-1.89669 -1.395 -0.322924
-1.45405 0.992245 -2.06181
-1.79599 0.599571 -1.65188
-0.232457 1.56279 -2.15747
-0.990743 1.34032 -2.21898
-0.782348 -0.433713 -1.53095
-0.94282 0.699681 -2.03259
-0.141554 0.268249 -1.85373
1.29146 2.33909 -1.77328
0.840487 1.96978 -1.95569
1.8596 2.6356 -0.556558
1.70899 2.64102 -1.23109
1.82631 1.39743 -1.59008
1.88769 1.95512 -1.54705
2.18172 1.54983 -1.15409
1.68338 -1.34025 0.334612
1.39391 -1.27325 0.945185
1.16093 -1.70692 0.591925
1.42664 0.115051 1.37109
1.45887 -0.663565 1.21211
1.79196 -0.149827 0.840598
0.383488 -1.23008 1.65443
0.941318 -1.0246 1.52079
0.469419 -0.560718 1.94276
0.445209 -1.92187 0.689619
0.810635 -1.92664 0.0183274
-0.398247 -1.21071 1.64262
0.00678567 -1.67246 1.28644
-0.893296 -1.94709 0.0223452
-0.485819 -1.93935 0.684083
-1.26348 -1.74335 0.583539
0.476583 -1.87181 -0.529033
1.14433 -1.69158 -0.485496
-1.28234 -1.72379 -0.52413
-0.524528 -1.88483 -0.559593
0.389824 -1.15259 -1.2817
-0.0405131 -1.57708 -1.04638
-0.530784 -1.15073 -1.31564
1.36933 -1.23229 -0.787712
1.65184 -1.32588 -0.246311
0.569267 -0.501148 -1.44279
0.955331 -0.95945 -1.17871
1.88644 0.280385 -0.889587
1.45111 -0.512906 -1.0064
1.68802 0.716132 -1.41894
1.84251 -0.923164 0.0521919
2.24225 1.01128 -0.745251
2.02554 0.00337181 -0.30048
1.98618 -0.169095 0.264646
2.12137 0.864138 0.416869
0.426374 0.138572 2.10496
0.939821 0.545919 1.78744
0.426488 0.958978 2.01113
-1.52805 -1.30739 0.953975
-1.0238 -1.04479 1.5154
-1.55873 -0.736154 1.18397
-1.14275 -0.949879 -1.29841
-1.60105 -1.26167 -0.904528
-1.64924 -0.554619 -1.12734
1.37745 1.10028 -1.77603
0.611121 0.623457 -1.87872
0.768915 1.37205 -2.01623
2.25628 1.47308 0.147542
2.34249 1.54208 -0.545484
2.17453 2.10838 -0.216961
-1.54422 2.69193 -0.123008
-1.39075 2.64042 0.273342
-1.23562 2.84754 0.0169601
-1.63334 2.1359 0.645916
-1.53161 2.39792 0.474958
-1.83537 2.19675 0.263456
-0.840085 2.75871 0.806155
-1.17089 2.60525 0.686764
-0.96917 2.52995 1.01543
-1.66339 0.793459 1.16296
-1.67994 1.20335 1.0827
-1.85463 0.942226 0.877065
-1.21135 1.59617 1.46363
-1.45251 1.41331 1.29496
-1.22093 1.24454 1.55397
-1.93023 1.62256 0.591161
-1.6993 1.53636 0.959337
-1.69123 1.83217 0.816699
-0.120696 2.13718 1.70547
-0.388204 2.07416 1.69533
-0.192978 1.89414 1.81883
-0.761221 2.40422 1.3073
-0.576258 2.25253 1.52376
-0.464157 2.51002 1.36455
-0.726145 1.607 1.77212
-0.669656 1.94595 1.66275
-0.937667 1.78431 1.59215
-1.39447 2.05306 1.03877
-1.16312 1.93247 1.35259
-1.07838 2.25165 1.20112
-0.886325 3.0106 0.129398
-1.10864 2.9888 -0.249194
-0.521836 2.86261 0.870179
-0.698977 2.9579 0.531384
-0.410446 3.19851 -0.175961
-0.552693 3.1134 0.179529
-0.204631 3.16514 0.211489
0.115587 2.13757 1.70525
-0.00260767 2.3684 1.56922
0.342677 2.73016 1.16918
0.160759 2.56696 1.39164
0.476764 2.51537 1.35932
-0.159717 2.56513 1.39415
-0.33137 2.72466 1.17274
1.23562 3.00781 -0.224259
1.00361 3.01428 0.106288
1.35457 2.89846 0.00237289
0.206605 3.16793 0.222446
0.596268 3.11486 0.18946
0.425569 3.1987 -0.150501
0.888785 2.77564 0.789222
0.75137 2.96744 0.5216
0.547092 2.87259 0.867771
-0.176387 2.91935 0.910376
0.186781 2.92225 0.910306
0.00367885 3.07365 0.587836
-0.997186 3.07857 -0.525529
-1.329 2.90451 -0.513987
-0.251875 3.23913 -0.473857
-0.625425 3.19613 -0.496462
-1.13705 2.93156 -1.1123
-0.887841 3.09993 -0.814648
-0.755851 3.05478 -1.10887
1.40884 2.97554 -0.442956
1.1035 3.08421 -0.484113
0.778111 3.04197 -1.06841
0.957593 3.09656 -0.77711
1.17627 2.96127 -1.05494
0.686229 3.18701 -0.474136
0.219988 3.23938 -0.462143
-0.417087 2.27905 -1.93987
-0.0911792 2.54262 -1.73786
0.186272 2.28898 -1.87826
-0.573897 2.93863 -1.3935
-0.361816 2.76452 -1.58771
-0.824844 2.70581 -1.64833
0.796865 2.70019 -1.57096
0.260001 2.75906 -1.54696
0.535255 2.92233 -1.34731
-0.0298617 3.20514 -0.764048
0.240415 3.1067 -1.07
-0.289499 3.11396 -1.08174
-1.56094 2.79788 -0.752396
-1.58 2.74439 -0.432187
-1.34141 2.78342 -1.37429
-1.48045 2.82407 -1.06501
-1.99715 2.3581 -0.811414
-1.7724 2.61515 -0.9564
-1.95224 2.35858 -1.14707
-0.590869 2.02588 -2.07947
-0.822317 2.22987 -2.02311
-1.3973 1.97614 -2.07246
-1.11166 2.12365 -2.07132
-1.18486 1.78245 -2.1838
-0.994483 2.44658 -1.88172
-1.15757 2.63952 -1.67239
-2.17794 1.15681 -1.38217
-2.10326 1.37756 -1.58022
-2.05529 1.08037 -1.59018
-2.07146 2.01922 -1.34021
-2.12211 1.69336 -1.49292
-2.21843 1.76284 -1.16545
-1.71049 1.45177 -2.00839
-1.94388 1.58213 -1.78812
-1.70872 1.77605 -1.96438
-1.49972 2.50756 -1.61823
-1.63073 2.14986 -1.82578
-1.84114 2.29178 -1.50228
-1.80049 2.52769 -0.268709
-2.16778 2.08564 -0.624832
-2.00812 2.32619 -0.444211
-1.95701 2.26592 -0.0763468
-2.04917 1.99292 0.0946143
-2.20609 0.91471 -1.19955
-2.28619 1.19209 -1.08928
-2.36382 1.16061 -0.39621
-2.35738 1.18272 -0.728909
-2.33796 0.841298 -0.523415
-2.31499 1.48632 -0.957627
-2.28315 1.78288 -0.808002
-2.05262 1.05202 0.553825
-1.96048 0.62463 0.748945
-2.09908 1.68423 0.259276
-2.10093 1.38795 0.400407
-2.23636 0.753835 0.0984423
-2.20901 1.11044 0.233526
-2.31098 1.13613 -0.0668247
-2.28297 1.77026 -0.424328
-2.32566 1.45393 -0.2399
-2.21656 1.73761 -0.0710767
1.49049 2.70946 0.241423
1.59635 2.77794 -0.0901914
1.01203 2.54941 0.997313
1.26682 2.6331 0.627929
1.89447 2.26224 0.298461
1.62658 2.45893 0.447211
1.72613 2.17965 0.613436
0.187111 1.89578 1.8168
0.390566 2.07726 1.69231
0.933159 1.81369 1.57069
0.66901 1.96009 1.65191
0.708319 1.63575 1.75496
0.588405 2.25885 1.52042
0.783044 2.41555 1.3004
1.89614 1.05384 0.818898
1.74506 1.26097 0.996722
1.68668 0.885033 1.08183
1.77978 1.86626 0.764826
1.77988 1.57519 0.885594
1.99255 1.66455 0.586518
1.22885 1.27804 1.50738
1.50255 1.44912 1.22027
1.22281 1.63233 1.42331
1.11238 2.27158 1.18193
1.18351 1.95949 1.32338
1.46763 2.07621 0.97891
-0.237903 1.55984 1.93434
-0.00477335 1.7318 1.89264
-0.745123 1.21086 1.86893
-0.492625 1.39307 1.92243
-0.0189008 0.866794 2.10418
-0.237054 1.11748 2.04044
-0.235898 0.664049 2.14096
-1.67058 0.353262 1.17845
-1.4432 0.570628 1.42945
-0.970633 0.112587 1.8639
-1.19325 0.314745 1.67299
-1.2282 -0.121758 1.62053
-1.20021 0.797402 1.62901
-0.984532 1.00196 1.77184
-0.0177921 -0.471709 2.07083
-0.259865 -0.312648 2.106
-0.226931 -0.644519 1.99672
-0.247219 0.309635 2.18346
-0.25849 0.0109713 2.16981
-0.0302379 0.169829 2.19691
-0.766088 -0.407871 1.91403
-0.507971 -0.179276 2.07921
-0.739983 -0.0498358 2.00062
-0.728967 0.710768 1.95524
-0.727383 0.298528 2.0205
-0.477468 0.473334 2.11481
-2.00868 0.134837 0.634337
-1.8492 0.203232 0.925864
-2.20063 0.20977 0.0243962
-2.12929 0.1495 0.321154
-1.92314 -0.667653 0.695327
-2.03331 -0.379392 0.522543
-2.04286 -0.7254 0.399661
-2.0899 0.662961 -1.28536
-2.18289 0.506125 -0.948301
-2.06244 -0.658517 -0.474457
-2.09624 -0.154774 -0.660882
-1.96308 -0.545041 -0.748255
-2.21643 0.383073 -0.622237
-2.23518 0.292354 -0.310653
-1.7256 -1.65644 0.150998
-1.93157 -1.42425 -0.00359759
-1.70807 -1.61694 -0.131042
-2.05171 -0.985838 0.267781
-2.03019 -1.19609 0.140358
-1.93752 -1.17398 0.453659
-1.97291 -1.14783 -0.475645
-2.04169 -1.18683 -0.1737
-2.0707 -0.96075 -0.323171
-2.15413 -0.374674 -0.0750343
-2.11405 -0.731855 -0.192064
-2.10951 -0.752991 0.0991544
-1.86989 0.951227 -1.77303
-1.99829 0.796118 -1.53258
-1.46706 1.31697 -2.13159
-1.68844 1.1359 -1.98303
-1.56729 0.404909 -1.69529
[...]
POINT_DATA 642
SCALARS Mean_Curvature double 1
LOOKUP_TABLE default
0.821959
1.24145
0.735149
1.1779
0.954073
0.954399
-0.0816772
0.425331
0.888477
0.407485
0.890615
0.474525
0.701258
0.703374
0.940405
0.930303
0.576132
0.683486
0.837017
1.6659
0.915925
0.893191
0.630723
0.948557
0.891743
1.20106
1.11345
0.984249
0.573809
0.100736
1.13643
1.35781
0.878505
0.501064
1.32674
1.30351
0.655746
1.37459
1.3487
0.337519
0.644586
0.927255
0.744277
0.729285
0.755226
0.504931
0.702199
0.572901
1.10271
0.868442
0.86179
0.834564
0.694781
1.03389
1.04219
0.751435
0.790004
0.623165
1.10445
0.750728
1.37545
0.767471
0.425748
0.681062
0.391434
1.53162
0.969856
1.18355
1.50979
1.04719
1.3485
1.28515
1.08603
0.829647
1.03199
0.92156
0.557559
0.603129
0.92268
0.877008
0.929398
0.703298
0.600573
0.535069
0.550478
0.921112
0.416269
0.48585
1.10922
1.15564
0.967068
0.656297
0.545393
0.522912
0.592116
1.54417
1.52422
1.89206
1.30738
1.07589
0.676979
1.16277
0.239859
0.452347
0.402314
1.58632
0.637072
1.03242
1.59139
1.16513
1.49368
1.25056
1.96831
0.998528
0.963433
0.422523
0.799168
0.516308
1.22311
0.893758
0.929247
0.832077
0.994038
0.279382
1.00946
0.832789
0.961926
0.938611
0.922751
1.37971
0.925407
0.895965
1.04702
0.904178
0.686156
1.45113
1.67888
0.276761
0.601304
0.201987
0.541029
0.738038
0.809383
0.901423
0.613764
0.566573
0.72073
1.06803
0.291061
0.612994
1.2349
0.737161
0.630292
0.979811
1.52418
0.419334
0.755419
0.514224
0.66352
1.10786
1.18034
0.985422
0.724295
0.480069
0.430419
0.58453
0.53597
0.704779
0.839712
0.726306
0.843804
0.420898
0.51674
0.217249
0.720926
0.630967
0.645545
0.657091
0.579096
0.616128
0.921574
0.928493
0.965325
0.912623
0.93311
1.07741
0.78363
0.922379
0.840544
0.726591
0.83038
0.827267
0.741246
0.656013
0.889824
0.815079
0.546437
0.775015
0.718504
0.920371
1.1877
1.00888
1.10338
0.995736
1.15895
1.04935
0.686978
0.599173
0.914646
0.743249
0.653176
0.48245
0.808831
0.759401
0.908023
0.944042
0.92605
0.873146
1.02763
0.472479
0.882824
1.12138
0.54074
1.03942
1.01226
1.44601
0.83063
0.814674
0.840755
0.944068
0.92376
0.871408
0.448254
0.256355
0.385337
1.11753
0.744177
0.963738
0.83538
0.617548
0.843795
0.619706
0.878097
0.893894
1.23382
0.799206
1.62316
1.54872
0.908322
1.13917
1.17458
0.468512
1.12935
1.63649
1.29184
1.5247
1.20344
1.39006
0.989983
1.38176
1.24896
1.07335
1.43088
0.985636
1.41628
1.36228
1.44109
1.09361
1.02659
1.25298
1.06614
0.977861
0.973169
1.01231
0.880706
0.806501
0.884966
0.964116
0.945547
0.848985
0.966388
1.12235
0.498757
0.495372
0.796506
0.726524
0.311508
0.768583
0.930487
1.04646
1.01964
0.925084
0.817922
0.997739
0.821232
0.638289
0.963823
0.78619
0.713285
0.96774
0.95214
0.781712
0.920832
0.760096
0.998826
0.918964
0.604524
0.576466
0.256956
0.680519
0.602696
0.877688
0.584715
0.530863
0.623716
0.831643
0.770392
0.590624
0.882208
0.887151
0.724266
0.746635
0.497784
0.700801
1.06622
0.440067
0.454251
0.80287
0.419803
0.347684
0.320895
0.664845
1.02407
1.04292
0.942601
1.22531
1.18776
1.26772
0.918862
1.04395
0.987256
0.429436
1.0245
1.09674
0.444136
0.43368
0.455567
0.447028
0.628163
0.62665
0.645053
0.753354
0.804624
0.619246
0.590339
0.52399
0.195736
0.509674
2.84547
2.06029
1.33546
1.22801
1.79833
1.47658
1.68481
1.84995
1.44191
0.584874
0.734785
0.754361
1.2521
0.998599
1.46393
1.35684
0.851016
1.27185
1.07495
0.505865
0.455157
0.656566
0.616107
0.64296
1.25429
1.43074
0.181043
-0.162441
-0.108384
0.774815
-0.0735976
0.474363
0.50288
0.45295
0.578204
1.29229
0.921887
1.10173
0.407319
0.498093
1.41443
1.44908
0.720057
1.25929
1.48751
1.22766
1.31148
1.59936
0.906962
1.32257
1.54701
1.29123
1.00419
1.23725
1.04866
1.5418
1.35565
1.35798
1.41484
1.41723
1.44075
1.55836
1.28431
1.64279
1.82579
1.56802
1.14172
0.834398
1.4039
1.11187
1.09491
1.39615
1.16833
0.459384
0.466547
0.496939
0.799182
0.639379
0.398227
0.797245
0.73312
0.804794
0.966146
0.461591
0.971826
1.10957
0.988419
1.37791
0.837452
0.539448
0.788587
0.847205
0.766805
0.914866
0.935459
1.09175
1.01029
0.960187
0.867366
0.72697
0.874989
0.881088
0.337988
1.08245
0.754366
1.40548
1.25859
1.06457
0.808936
0.775209
0.880337
0.732914
0.858284
0.875682
0.918917
0.84541
1.00341
1.07859
0.4536
0.698814
1.37957
1.31918
0.894447
0.972555
1.37363
1.02043
0.90675
0.805167
1.01682
0.937557
1.01002
1.13734
0.957205
0.586457
0.337924
0.531039
0.309442
1.16721
1.25312
1.33479
1.34431
1.07974
1.14318
0.732668
0.688576
0.845916
1.55446
1.58023
1.54172
1.54958
1.18661
1.55043
0.950362
0.230368
0.407777
0.527561
0.415366
0.337091
0.918116
1.39956
0.760695
0.705492
0.799974
0.576488
0.47383
0.587075
0.550857
0.363096
0.424049
1.22101
0.51064
0.62378
1.98383
0.706935
1.42143
1.64895
0.917113
0.887127
0.782727
0.722436
0.845962
0.925307
0.574503
0.662599
0.564065
0.290268
0.75864
0.579053
0.859606
0.620443
0.292699
0.690275
0.567913
0.697224
1.04915
0.895463
0.948801
1.15403
1.17492
0.416014
0.617242
0.382071
0.393256
0.61057
0.886518
0.916469
0.72386
0.778145
0.683168
0.891459
0.406105
0.985544
1.21974
1.381
1.19856
1.3387
1.21334
0.958634
0.346157
0.925148
0.986521
1.31683
0.438979
0.716302
0.625024
0.526359
0.594372
0.957675
0.666909
0.831668
0.385673
1.51889
0.92645
0.382944
0.364459
1.33519
1.50195
1.68128
1.34875
1.53435
0.638351
0.434002
0.378123
0.433319
0.647542
1.4109
1.20846
0.53096
0.925255
0.499357
0.795647
1.1053
1.10486
-0.0833849
0.558763
0.500725
0.000993135
0.23657
0.636111
0.478803
0.719891
0.684118
0.621005
0.480533
0.584324
0.452307
0.746551
1.04497
0.936573
0.952382
1.05583
1.02829
1.23408
1.18987
1.0404
1.06491
0.930371
1.04343
0.957108
0.898295
1.0139
1.19942
1.18517
1.18377
SCALARS CoVolArea double 1
LOOKUP_TABLE default
0.0655896
0.0465495
0.0522898
0.0490332
0.0572316
0.040023
0.0958311
0.100251
0.0426949
0.0800972
0.0476215
0.0883322
0.121433
0.114946
0.105902
0.111097
0.148578
0.127744
0.123445
0.0941714
0.118648
0.145706
0.120306
0.106618
0.127203
0.0780883
0.0831684
0.0827139
0.152392
0.151744
0.107445
0.0765954
0.0874963
0.131466
0.111197
0.120487
0.153906
0.10867
0.0936056
0.189183
0.098593
0.108726
0.123694
0.138754
0.142419
0.142589
0.127437
0.126153
0.0816997
0.106792
0.0943263
0.133828
0.12401
0.0845363
0.10431
0.133802
0.140097
0.141218
0.135695
0.110198
0.103855
0.156559
0.135467
0.171758
0.154744
0.129102
0.108253
0.0893821
0.121609
0.0966586
0.129673
0.0916655
0.11398
0.130343
0.111867
0.103514
0.164224
0.146297
0.110995
0.0914827
0.107392
0.0967768
0.134763
0.147388
0.127213
0.103487
0.16429
0.129896
0.0786114
0.0849428
0.109954
0.142515
0.140448
0.176254
0.151728
0.0949737
0.0701858
0.0932066
0.0894296
0.118369
0.151721
0.0768642
0.165132
0.11964
0.238714
0.102216
0.122385
0.105817
0.13198
0.0768288
0.104637
0.0786345
0.0781591
0.103043
0.112958
0.15135
0.115636
0.146457
0.103594
0.102965
0.106108
0.14318
0.107451
0.126965
0.134603
0.126375
0.148244
0.120427
0.123072
0.0946054
0.114188
0.136328
0.093705
0.140079
0.0957247
0.085654
0.0778157
0.15005
0.0874448
0.163604
0.145059
0.121021
0.0710982
0.100393
0.173901
0.155044
0.121954
0.0904316
0.148741
0.127963
0.108596
0.11325
0.115294
0.100417
0.105034
0.140571
0.103716
0.18501
0.140141
0.09023
0.0993501
0.116868
0.106932
0.144925
0.125026
0.141153
0.140674
0.119354
0.118411
0.136415
0.118949
0.132754
0.135429
0.124223
0.114915
0.123046
0.124585
0.117672
0.12726
0.135387
0.0639238
0.0837717
0.0703405
0.105015
0.0910821
0.0906495
0.103729
0.0951267
0.106943
0.141077
0.122881
0.125694
0.138486
0.108987
0.11735
0.129371
0.12797
0.134161
0.147047
0.0650659
0.0786399
0.105969
0.0892442
0.0941202
0.0873015
0.102995
0.0895199
0.13798
0.0969501
0.153588
0.149865
0.148673
0.131407
0.142855
0.123136
0.124738
0.126688
0.143715
0.114803
0.092807
0.131436
0.116533
0.116524
0.122345
0.139921
0.0771889
0.108986
0.150344
0.127058
0.115347
0.137022
0.148101
0.13685
0.1791
0.159352
0.149776
0.160049
0.121779
0.131154
0.168541
0.161067
0.156526
0.175499
0.164309
0.102227
0.0902471
0.12151
0.109266
0.113398
0.11008
0.123568
0.108301
0.104886
0.114546
0.0956006
0.0821771
0.104121
0.11741
0.0737535
0.089371
0.0720334
0.122658
0.105311
0.109359
0.0951689
0.103952
0.119542
0.142188
0.144981
0.145373
0.109259
0.12129
0.113295
0.108524
0.108453
0.0945244
0.102776
0.10876
0.110812
0.138045
0.108855
0.11979
0.131416
0.14086
0.107703
0.108692
0.149998
0.116898
0.109211
0.120183
0.1092
0.111251
0.121975
0.0849057
0.131939
0.141046
0.11115
0.127857
0.129587
0.0702155
0.0840808
0.107908
0.0927165
0.101517
0.0921485
0.10887
0.0964895
0.121117
0.12553
0.122949
0.114753
0.0957721
0.134962
0.131208
0.126323
0.136908
0.132012
0.148124
0.0988641
0.0750836
0.128036
0.114804
0.0981155
0.113037
0.0978958
0.141793
0.161238
0.120084
0.149861
0.144407
0.146656
0.133577
0.0760052
0.0877471
0.0914912
0.0769818
0.0766551
0.0702933
0.113807
0.0909569
0.100493
0.131056
0.106338
0.104156
0.172257
0.140927
0.18396
0.177564
0.100131
0.137955
0.0935583
0.115845
0.159467
0.103759
0.161835
0.128973
0.16785
0.184756
0.085824
0.0899549
0.0841306
0.0742375
0.0761916
0.0816235
0.0794112
0.0756021
0.0735126
0.155315
0.0962433
0.0931662
0.0917291
0.0865957
0.0859379
0.0907477
0.133101
0.0973377
0.10716
0.143608
0.114489
0.11561
0.10515
0.141457
0.0757774
0.0738359
0.154862
0.239367
0.227008
0.130359
0.176065
0.160772
0.165044
0.183859
0.13438
0.0808649
0.0935856
0.09341
0.129981
0.147164
0.114266
0.105579
0.0860139
0.0898757
0.0863474
0.0802087
0.10211
0.12402
0.117011
0.109711
0.113768
0.121365
0.0647625
0.0752962
0.0638543
0.0876657
0.0808318
0.0745577
0.089642
0.0862245
0.110379
0.131398
0.133862
0.116191
0.0739936
0.0967848
0.0867169
0.0931254
0.0892283
0.0729561
0.114107
0.104961
0.107939
0.136387
0.139797
0.13489
0.125852
0.125661
0.137809
0.113877
0.119098
0.105312
0.0961237
0.10439
0.0871398
0.100552
0.0947922
0.0991623
0.115629
0.10577
0.119329
0.11182
0.117196
0.110237
0.112814
0.0843521
0.127245
0.124449
0.127704
0.12888
0.152572
0.106028
0.122995
0.132416
0.129014
0.114688
0.115285
0.120706
0.0921472
0.121138
0.0915427
0.155925
0.138301
0.143636
0.123861
0.131096
0.136183
0.146567
0.153191
0.160961
0.09522
0.0792643
0.138905
0.105373
0.0931028
0.0976965
0.10954
0.089159
0.112987
0.122157
0.116393
0.114404
0.126979
0.149505
0.0948377
0.108699
0.0964817
0.118204
0.114838
0.0890939
0.0946675
0.115117
0.122748
0.154672
0.15036
0.145988
0.088677
0.072621
0.0879291
0.0893628
0.0746272
0.0815221
0.0864966
0.145896
0.0964939
0.137271
0.100515
0.167125
0.0788517
0.0815137
0.0979392
0.14164
0.081735
0.118556
0.16148
0.149797
0.154726
0.166077
0.168906
0.0889552
0.117846
0.101814
0.0728901
0.0838868
0.0660564
0.0634763
0.0727041
0.0761465
0.134271
0.147557
0.144699
0.103328
0.178695
0.141556
0.160122
0.113344
0.107712
0.15342
0.112685
0.161355
0.155488
0.124148
0.162315
0.108203
0.0888739
0.112742
0.0965347
0.0783012
0.0791114
0.163753
0.146326
0.155737
0.155974
0.134524
0.0958291
0.0975246
0.108063
0.109744
0.132883
0.122263
0.148563
0.111819
0.108551
0.117647
0.115868
0.100728
0.0931816
0.120813
0.130272
0.12038
0.110855
0.108187
0.151079
0.0959606
0.117967
0.141825
0.136204
0.112725
0.121056
0.106614
0.102961
0.096364
0.0855081
0.116472
0.144678
0.106153
0.0894024
0.098561
0.113128
0.111814
0.14863
0.162357
0.159442
0.154306
0.104874
0.10616
0.106166
0.127169
0.0852605
0.15251
0.102336
0.0803845
0.0835378
0.222657
0.163251
0.191142
0.197929
0.199886
0.161947
0.0980571
0.125721
0.15357
0.157758
0.159973
0.162354
0.123954
0.0944988
0.0903056
0.0867934
0.085112
0.0968094
0.0827535
0.101747
0.0860963
0.0914263
0.0950008
0.103222
0.11087
0.110918
0.108307
0.111538
0.103362
0.116684
0.112338
SCALARS SignedDistance double 1
LOOKUP_TABLE default
1.67189
1.5469
1.13931
1.25525
1.53518
1.53665
2.66238
1.7091
1.92788
2.05702
1.97827
1.90578
1.6515
1.74913
1.37841
1.38839
1.49133
1.58464
1.57643
1.62279
1.29174
2.04845
1.77959
1.5726
1.83094
1.76357
2.00433
1.69084
2.10323
2.61293
1.20362
1.93651
1.70453
1.92876
1.26059
1.34162
1.8199
1.92854
1.88782
2.49843
1.97381
1.91841
1.57917
1.57974
1.53906
1.96662
1.72592
1.92265
1.44025
1.51471
1.64949
1.34752
1.59364
1.43904
1.28581
1.63055
1.39902
1.6682
1.24227
1.56053
1.442
1.31163
1.88569
1.61693
1.83826
0.465782
1.34124
1.85168
1.35597
1.6069
0.690473
1.67655
1.37473
1.9566
1.55452
1.73396
2.05911
1.67922
1.45718
1.64112
1.56017
1.83448
1.78676
1.98848
1.96881
1.79238
1.85674
2.00225
1.40701
1.61387
1.54588
1.81309
1.79962
2.32867
1.9657
1.32355
1.76178
1.4705
2.0834
2.25537
1.82956
2.12457
2.50478
2.52224
2.52246
1.66705
1.93842
1.16667
0.326975
1.85617
1.43683
1.60127
1.51171
1.48699
1.14678
1.90883
1.6775
1.84809
1.73602
1.64298
1.69084
1.33952
1.33007
1.94611
1.60828
1.38947
1.47051
1.17404
1.65135
1.39576
1.35017
1.84253
2.37862
2.27766
2.42086
1.91636
1.68766
2.47179
2.25823
2.32625
2.14953
2.23431
1.87026
1.86779
2.0685
1.92322
2.03588
1.69917
2.05335
1.94257
1.4625
1.78352
1.7272
2.30022
1.85689
2.21895
2.24942
2.34548
2.02516
1.63607
1.53365
1.28646
1.60334
1.67163
1.74092
1.66113
1.64208
1.58325
1.42754
1.54821
1.46008
1.98732
1.96156
2.06305
1.71493
1.82403
1.83974
1.77377
1.84414
1.73733
1.50337
1.52971
1.56321
1.44199
1.47018
1.37907
1.68753
1.5608
1.62924
1.63502
1.5992
1.51638
1.59185
1.7213
1.35523
1.40506
1.54203
1.48201
1.42854
1.50331
1.43361
1.3099
1.32931
1.37702
1.3015
1.30382
1.71592
1.72522
1.69991
1.44236
1.54841
1.57673
1.47851
1.50033
1.36317
1.31366
1.31715
1.33564
1.5071
1.67236
1.46945
1.37859
1.5199
1.32288
1.33581
1.48645
1.57197
1.39199
1.40464
1.50041
1.40684
1.49124
1.83193
1.76066
1.71133
1.50891
1.70645
1.74664
1.76754
1.70271
1.48398
1.46123
1.43532
1.36806
1.46118
1.52747
1.24872
1.3236
1.2277
1.192
0.828977
1.91195
1.81675
1.41058
1.64089
1.72188
1.61102
1.45295
1.81968
1.60744
1.8513
1.23396
1.37544
1.4086
1.60658
1.39786
1.3404
1.1325
1.15583
0.571999
1.41753
1.26124
1.26012
1.43269
1.53881
1.96394
1.76231
1.76304
1.73485
1.97918
1.55844
1.36545
2.03287
1.94114
1.67405
1.83555
2.13237
1.9486
1.8547
1.42409
1.6051
1.54732
1.66585
1.49684
1.50752
1.65794
1.48448
1.65088
1.66549
1.55987
1.52832
1.68595
1.59539
1.70766
1.46041
1.45504
1.9899
1.92118
2.07208
1.71646
1.81056
1.70334
1.8681
1.86582
1.78722
1.57638
1.69158
1.71289
1.69823
1.63686
1.82064
1.78147
1.97895
1.9054
1.8904
1.84129
1.92594
1.8625
1.92343
1.9269
2.00729
1.92343
1.40784
1.37198
1.47376
1.64411
1.46204
1.55306
1.66543
1.51063
1.6584
2.02332
1.81001
1.81635
1.84722
1.8258
2.01737
1.93638
1.72354
1.79038
1.75605
2.15367
2.2276
2.01645
2.1056
2.09236
2.27297
2.16631
0.228325
1.31851
1.00856
1.70753
1.54022
1.53473
1.76333
1.62704
1.86743
1.86642
1.92147
1.82484
1.95016
2.08881
1.8431
1.86424
2.44327
2.1442
2.34462
1.71273
1.9988
2.21134
2.11365
1.95905
1.97054
1.89055
2.57098
2.68226
2.64476
2.55842
2.71023
2.51072
2.27872
2.48032
2.33089
2.08234
2.31488
2.30638
1.92125
1.70641
1.51237
1.81381
2.03155
1.92719
1.80555
1.35336
1.14904
0.453233
0.73708
0.711387
1.14401
1.26539
1.88828
1.70523
1.79269
1.69148
1.6619
1.8697
1.39701
1.4878
1.20136
1.30458
1.1561
1.50227
1.27871
1.28747
1.08074
1.62429
1.53016
1.69293
1.18927
1.3307
1.37489
1.93308
1.86633
1.91992
1.78587
1.85342
1.95098
1.78077
1.78984
1.66702
1.75537
1.84458
1.58645
1.51273
1.70437
1.47956
1.80804
1.84177
1.76737
1.57528
1.62789
1.49689
1.26521
0.944605
1.18672
1.25473
1.49676
1.3692
1.57343
1.66824
1.87842
1.59494
1.86371
1.68552
1.58532
1.30913
1.24495
1.28983
1.16702
1.72834
1.43556
1.67675
1.15265
1.27722
1.31499
1.38595
1.65808
1.65559
1.26575
1.25171
1.69787
1.43409
1.6332
1.50064
1.70502
1.18399
1.32808
1.83172
1.57446
1.62076
1.60289
1.92249
2.58454
2.58706
2.55145
1.99077
2.30048
2.13636
2.21115
2.40576
2.12093
1.9956
2.12774
1.94445
1.52235
1.41898
1.85985
1.66844
1.90673
1.78864
1.99848
2.55007
2.4379
2.2986
2.34501
2.47121
2.29526
2.10389
2.05699
2.28182
2.04625
2.04309
2.20558
2.06466
2.46747
2.41103
2.30762
2.09564
2.18135
2.11017
1.5867
1.91904
1.8202
1.73237
1.79733
1.89385
2.0658
2.15327
2.09693
1.88621
2.2043
1.95186
1.95895
2.08501
1.81577
1.85931
1.96813
2.06732
2.1661
1.8743
1.96167
1.85077
1.48219
1.7573
1.60773
1.53649
1.70348
2.00194
1.92524
2.03765
1.98061
1.9598
1.68851
1.94161
1.89003
1.76852
1.82415
1.8989
2.01672
1.89303
1.13459
1.39369
1.25754
1.34415
1.55209
1.74049
1.92376
1.85129
1.86558
1.61065
1.83209
1.67919
1.72741
1.85365
1.89061
1.62156
1.74188
1.63263
2.44984
2.11432
2.33255
2.40732
2.3383
1.32131
1.92633
1.65444
1.56492
1.82065
2.38821
2.35648
2.47725
2.1974
2.14081
2.08751
2.1262
2.27205
2.03769
2.43758
2.22794
2.04703
2.08477
2.6216
2.16967
2.3945
2.61289
2.57718
1.73013
2.1379
1.95778
1.84159
1.98287
2.36504
2.15135
2.23848
1.90391
1.75582
1.82338
1.73464
1.56369
1.72465
1.36563
1.54943
1.69523
1.71882
1.33368
1.40903
1.32107
1.27061
1.25854
1.55682
1.35457
1.42892
