# vtk DataFile Version 4.2
vtk output
ASCII
DATASET POLYDATA
POINTS 642 double
-1.03983 2.07532 -0.360056
1.08869 2.08054 -0.269545
-1.39795 -1.66057 -0.000568966
0.937809 -1.36742 0.172257
-0.0162381 -0.253805 1.22954
-0.00415565 1.72588 1.33808
-0.138052 -0.136573 0.0524135
-0.243395 1.88573 -1.29266
1.19889 1.50105 -0.456246
0.82324 0.873941 0.349734
-0.961756 1.40561 -0.378633
-1.01065 0.582946 0.456693
-1.36855 1.68042 0.171319
-0.614786 1.22288 1.05215
-0.589072 2.40522 0.919602
0.622885 2.39563 0.884974
0.00891006 2.77623 -0.217082
0.986744 1.95597 -0.352303
-0.952331 1.96633 -0.500879
-1.3064 1.80932 -0.849944
-1.91385 1.9581 -0.91773
-0.926034 1.03204 -0.0432021
0.587744 1.27935 1.00476
1.42014 1.7543 0.119557
-0.403377 -0.089379 0.930643
-0.0461366 0.269728 1.1269
-1.10048 -0.595895 -0.0608443
-1.27787 -0.772713 0.373736
-0.19265 1.52964 -0.766937
-0.676211 0.870423 -0.192054
2.00922 1.94089 -0.824963
1.00503 1.8142 -0.431486
1.13649 -0.63567 0.41775
0.373559 -0.13223 0.897085
0.589455 -1.2301 0.955895
-0.661375 -1.11754 0.672139
0.125255 -0.869556 0.443076
-0.670219 -0.805217 0.086474
0.465672 -0.813237 0.186789
0.489163 0.591984 -0.101985
0.918677 -0.47961 -0.0608012
1.13862 1.24017 -0.12387
-1.29394 2.04648 -0.117168
-0.956078 2.02084 0.547446
-0.767797 2.33651 0.215444
-0.748145 0.890396 0.647406
-0.891783 1.51699 0.665162
-0.973612 1.1592 0.242838
-0.212541 2.04849 1.25246
-0.66331 1.85083 1.11196
-0.283154 1.5471 1.22287
-0.33924 2.80518 0.436844
-0.496127 2.44878 -0.24677
0.215357 2.04776 1.2503
0.00464443 2.56038 1.0465
0.587361 2.35619 -0.240356
0.336699 2.68838 0.395404
0.792212 2.20724 0.123159
-0.301155 2.56724 -0.614392
-0.966144 1.99052 -0.482187
0.991323 1.97372 -0.333845
0.319304 2.5847 -0.579759
-0.650473 1.94333 -0.680095
-0.0466778 2.4397 -0.881236
0.377099 2.07729 -1.02529
-1.55274 2.18417 -1.03315
-1.51978 2.30149 -0.591089
-0.678874 1.83603 -0.626089
-1.40918 1.96971 -1.02476
-1.54545 1.53887 -0.937765
-1.76809 1.78956 -1.51792
-1.33634 1.69419 -0.842464
-1.70522 1.8519 -0.30612
-0.952073 1.27136 -0.25156
-1.57289 1.53683 -0.526883
-1.34288 1.40816 -0.134504
-0.947096 0.781734 0.15646
1.01081 2.02531 0.461475
1.38261 2.16392 -0.08342
0.272221 1.56346 1.23294
0.636099 1.85277 1.0235
1.13453 1.2781 0.259924
0.949967 1.5619 0.574806
0.72137 0.982203 0.544492
-0.230386 0.762701 1.08188
-0.0212496 1.19193 1.19332
-0.915257 0.155193 0.859133
-0.44422 0.466583 0.954236
0.0600713 -0.0336889 1.70714
-0.227018 0.109594 1.26613
-0.212927 -0.238034 1.22635
-1.27277 -0.204322 0.127641
-1.27396 -0.14753 0.492234
-0.844667 0.499642 -0.060364
-1.11034 0.000100786 -0.0594305
-1.29882 -1.24292 0.26347
-1.27611 -0.806111 0.0922807
-1.17267 -1.24449 0.114779
-0.901113 1.64081 -0.533406
-0.817189 1.31035 -0.298067
-0.242588 1.58126 -1.15572
-0.678781 1.74047 -0.588026
-0.502141 0.187761 -0.0643438
-0.559026 1.36824 -0.462477
-0.187043 0.886231 -0.319157
1.01042 1.89854 -0.407263
0.375714 1.84313 -0.952548
1.65551 2.54123 -0.482367
1.57393 2.2086 -0.788385
1.19757 1.6799 -0.562254
1.51394 1.94218 -0.803042
1.51277 1.63624 -0.722151
1.01703 -1.08631 0.30661
1.03351 -1.01663 0.719741
1.14935 -1.59642 0.528613
0.845679 0.221721 0.816665
0.891533 -0.476275 0.7269
1.14441 0.0516923 0.511633
0.25136 -0.702918 0.775683
0.58083 -0.706219 0.95213
0.109572 -0.219645 1.16901
0.378877 -1.41843 0.579021
0.756034 -1.4839 0.174808
-0.16828 -0.607602 0.710324
0.15471 -0.857461 0.60711
-0.852989 -1.38872 0.17509
-0.399784 -0.917255 0.478739
-1.18177 -1.65858 0.549473
0.368798 -0.958698 0.291286
0.752147 -1.25181 0.1959
-1.00617 -1.23722 0.0591372
-0.468385 -0.889672 0.261076
0.143429 -0.468792 0.153456
-0.0924631 -0.677757 0.269866
-0.389429 -0.454094 0.126634
0.690858 -0.785856 0.0449187
0.889668 -1.04256 0.178582
0.209603 0.0593072 -0.00805132
0.471345 -0.422993 0.0319547
0.743435 0.711327 -0.0166886
0.689297 -0.0765062 -0.0602285
0.703248 1.22277 -0.208839
1.0713 -0.646148 0.135852
1.25066 1.40013 -0.353148
0.915358 0.334192 0.0409112
1.13795 0.0908918 0.165484
0.850704 1.02363 0.182822
0.118141 0.112911 1.19507
0.426462 0.518537 0.95318
0.196333 0.830632 1.08317
-1.19894 -1.05871 0.701197
-0.615611 -0.67068 0.668398
-1.01922 -0.530285 0.698929
-0.719632 -0.380621 -0.0131237
-0.948242 -0.815998 -0.0619255
-0.839466 -0.0539516 -0.0622828
0.698192 1.54892 -0.395731
0.187981 1.23506 -0.449673
0.264344 1.65574 -0.816728
1.51172 1.455 -0.0434132
1.70687 1.52954 -0.463951
1.96664 1.96228 -0.182074
-1.15245 2.08136 -0.284148
-1.00262 2.11081 0.024829
-0.884245 2.17947 -0.159115
-1.17706 1.85052 0.342283
-1.14101 2.04718 0.213903
-1.41233 1.94014 0.0766815
-0.70802 2.42888 0.582591
-0.901033 2.22533 0.412145
-0.783645 2.22603 0.751131
-0.902552 0.679266 0.522705
-0.855879 1.00693 0.459438
-0.922749 0.815377 0.350526
-0.776788 1.37903 0.906554
-0.846768 1.20721 0.683465
-0.641377 1.08695 0.820563
-1.23647 1.4139 0.224249
-0.962288 1.34275 0.414592
-1.12624 1.60242 0.412922
-0.0803011 1.85745 1.3392
-0.2547 1.8085 1.27332
-0.120843 1.66677 1.33774
-0.62878 2.13901 1.0392
-0.436853 1.98208 1.21143
-0.388283 2.24198 1.13794
-0.473691 1.38911 1.20933
-0.459262 1.69803 1.2104
-0.653946 1.54584 1.10238
-1.00642 1.7826 0.657407
-0.854094 1.67401 0.937864
-0.883982 1.98993 0.902928
-0.64201 2.41646 -0.0154732
-0.7699 2.20141 -0.300577
-0.466564 2.60322 0.704673
-0.638134 2.62373 0.346832
-0.30628 2.68935 -0.243697
-0.461415 2.67861 0.0398041
-0.157627 2.81585 0.0868906
0.0748631 1.85839 1.33924
-0.00171813 2.06336 1.2473
0.331112 2.55144 1.02792
0.135117 2.31164 1.21218
0.43559 2.26617 1.18913
-0.134413 2.30694 1.21207
-0.319777 2.54706 1.04253
0.935494 2.09667 -0.269322
0.692832 2.28106 -0.0552591
1.04834 2.08155 -0.188701
0.164099 2.70666 0.0972043
0.471229 2.56917 0.0393888
0.312434 2.59289 -0.216189
0.748169 2.3944 0.517826
0.620659 2.52375 0.289455
0.501307 2.6089 0.668636
-0.153391 2.69009 0.761424
0.173946 2.6905 0.749737
0.0220062 2.8167 0.450362
-0.636351 2.24353 -0.44812
-1.00315 2.03586 -0.438215
-0.170387 2.68932 -0.463867
-0.391012 2.51998 -0.468008
-0.958443 1.97664 -0.493596
-0.503808 2.31493 -0.566112
-0.456138 2.32222 -0.629974
1.02428 2.02145 -0.302675
0.776732 2.17294 -0.378847
0.522028 2.38398 -0.59516
0.538996 2.37829 -0.552156
0.989664 1.96673 -0.341379
0.475531 2.48999 -0.450271
0.167058 2.68785 -0.44309
-0.325026 1.90433 -1.04614
-0.121497 2.10441 -1.08872
0.0301214 2.05345 -1.23855
-0.393535 2.30661 -0.764542
-0.330153 2.246 -0.945632
-0.93382 1.94504 -0.517664
0.592079 2.08034 -0.603446
0.207025 2.30639 -1.02224
0.394777 2.33853 -0.745826
-0.0171032 2.68541 -0.643983
0.150901 2.56304 -0.758274
-0.218642 2.59963 -0.835592
-1.28838 2.26194 -0.676419
-1.22608 2.1708 -0.454667
-1.30183 2.13293 -0.926051
-1.29256 2.24908 -0.911216
-1.8722 2.29066 -0.742243
-1.57259 2.30571 -0.880053
-1.88502 2.29834 -1.09323
-0.35213 1.82515 -0.998283
-0.67406 1.87134 -0.641762
-1.41384 1.93331 -1.02795
-1.0467 1.83933 -0.603974
-1.06012 1.8202 -0.609456
-1.0161 1.87522 -0.587086
-1.24986 2.0262 -0.844715
-1.30751 1.55329 -0.7219
-1.41062 1.59019 -1.01349
-1.27164 1.57487 -0.720264
-1.91432 1.92089 -1.20046
-1.65366 1.76676 -1.10487
-1.82828 1.66629 -1.02098
-1.34537 1.77038 -0.874902
-1.5275 1.78575 -1.09141
-1.5012 1.86878 -1.09841
-1.48874 2.07913 -1.10062
-1.52349 1.98914 -1.18433
-1.69639 2.03562 -1.17311
-1.41252 2.17673 -0.328946
-1.97333 1.93546 -0.567951
-1.74399 2.18345 -0.390431
-1.54866 2.01033 -0.180771
-1.58437 1.77312 -0.0566232
-0.95417 1.36627 -0.333727
-1.3483 1.53345 -0.664778
-1.30123 1.40554 -0.351204
-1.33818 1.48801 -0.490775
-0.939214 1.15135 -0.153875
-1.60873 1.53798 -0.758893
-1.82781 1.68128 -0.735084
-0.943559 1.01105 0.15831
-1.00355 0.602476 0.325632
-1.42666 1.51059 0.00316847
-1.19663 1.28054 0.0652805
-0.907643 0.941016 0.0541719
-1.01334 1.10366 0.030454
-1.20657 1.2839 -0.190189
-1.70307 1.66597 -0.444931
-1.50818 1.45558 -0.332595
-1.61301 1.58684 -0.211008
1.12133 2.07169 -0.0650663
1.26729 2.20139 -0.241338
0.767552 2.17882 0.666257
0.894709 2.1166 0.294586
1.45092 1.97761 0.0650553
1.20811 1.99363 0.0892251
1.291 1.89977 0.284794
0.110453 1.67052 1.33768
0.254773 1.81228 1.27364
0.628356 1.5827 1.03554
0.462789 1.71274 1.20094
0.466338 1.42072 1.19736
0.456271 1.97756 1.20573
0.652208 2.11933 0.991216
0.888381 1.08231 0.288671
0.891476 1.16143 0.365772
0.802705 0.876271 0.397306
1.19935 1.6567 0.325723
1.1294 1.393 0.412779
1.32857 1.50617 0.211001
0.644105 1.14827 0.771753
0.825359 1.31042 0.552211
0.764399 1.43706 0.82693
0.773759 1.95651 0.750885
0.766163 1.70935 0.798005
1.03698 1.81253 0.572045
-0.142312 1.38837 1.21989
-0.00727026 1.54619 1.33713
-0.391813 1.06016 1.04543
-0.295269 1.2087 1.20635
-0.045006 0.659029 1.0828
-0.147051 0.949343 1.20319
-0.121299 0.419411 1.05647
-1.03763 0.415513 0.649641
-0.829318 0.532803 0.738383
-0.39653 0.129059 0.975787
-0.662409 0.323256 0.954434
-0.648264 -0.00580436 0.872322
-0.637598 0.714184 0.839788
-0.512609 0.889241 0.953558
-0.00788311 -0.255457 1.37606
-0.260759 -0.265679 1.57671
-0.0985093 -0.252205 1.25837
-0.142288 0.146742 1.2512
-0.148981 -0.00316565 1.3895
-0.0505922 0.0336235 1.34592
-0.252468 -0.152402 1.10336
-0.254513 -0.0697824 1.31089
-0.258263 0.00840272 1.14295
-0.308021 0.60901 0.992468
-0.252062 0.234454 1.05847
-0.184322 0.320141 1.08459
-1.26941 0.294007 0.298902
-1.23495 0.348746 0.540175
-1.02589 0.488088 0.0709116
-1.16225 0.317197 0.141534
-1.29172 -0.487166 0.437633
-1.27297 -0.206056 0.291571
-1.40162 -0.551005 0.251373
-0.84576 1.11329 -0.212832
-0.8587 0.820194 -0.0682423
-1.16101 -0.391083 -0.0968444
-0.985871 0.241694 -0.062831
-1.05276 -0.205234 -0.169655
-0.890431 0.712062 -0.0149323
-0.948058 0.595815 0.0325011
-1.38697 -1.45849 0.162274
-1.2508 -1.25904 0.153239
-1.42454 -1.3993 -0.0705034
-1.28147 -0.80931 0.209632
-1.24671 -1.02841 0.197217
-1.27419 -1.01017 0.319702
-1.117 -0.941943 0.0587218
-1.18907 -1.01247 0.13382
-1.2288 -0.758841 -0.0519946
-1.2714 -0.142936 -0.0151579
[...]
POINT_DATA 642
SCALARS Mean_Curvature double 1
LOOKUP_TABLE default
-0.580742
-0.597264
10.03
17.2164
-1.5519
-0.0267401
-0.406808
7.30451
-3.95893
-0.883834
2.38393
2.22024
1.93528
3.55851
2.61482
2.65474
2.79568
0.0121776
0.01096
-1.49992
0.786528
-0.817064
2.20691
-1.77104
-1.19801
-0.946072
-1.21085
-1.02659
0.055602
-0.750804
5.07275
0.147103
2.83429
-0.945007
4.51586
3.86227
0.0188489
0.409001
-1.84413
-1.26238
0.762662
-1.40591
-0.173873
-0.338959
-0.661894
-1.19502
-1.43284
-1.05161
1.19868
1.95057
-1.50715
2.88732
-1.18932
0.560172
2.06222
-0.675846
1.04176
-1.28905
1.73206
0.265749
-0.361389
5.03994
-0.919571
-0.389415
4.69164
1.46843
2.61373
-0.819106
1.42027
5.07414
6.70477
-1.88187
1.39274
0.289741
1.69418
-0.724997
-0.960282
2.64314
2.3258
-0.862612
1.11851
2.40902
-0.278638
-1.098
0.601735
0.68436
3.24947
-0.688598
7.38588
10.0438
8.44349
-1.78501
3.4944
-0.611918
1.97071
0.544935
3.43193
-0.84556
-0.756486
-0.92839
5.73689
-0.694135
-0.0440347
-0.326846
0.304504
0.499395
3.44011
6.72617
1.14682
0.446629
-0.269187
2.99236
2.97929
1.37472
5.80338
4.14004
0.615464
4.54017
-0.500934
4.7272
2.77914
5.52309
2.7347
-0.838874
-0.0930929
1.59923
-0.627429
4.63863
-1.29218
-1.48851
-0.134005
-0.582299
-0.294275
-1.18764
-0.689747
1.37961
-1.38047
-1.16169
-0.328738
-0.942901
0.862651
-0.800254
-3.03214
-1.66271
2.15274
7.83104
-0.879454
4.09677
1.26481
1.1917
3.58868
-0.827387
2.22929
-1.64364
3.45063
0.262354
-0.730474
0.423513
0.215318
2.36044
2.43337
4.19385
-1.48524
-1.47229
0.0887847
1.31196
2.25049
3.91679
1.02505
1.65036
0.744186
-0.42432
-1.3204
-0.84303
1.48109
2.00149
-2.48155
2.66331
-1.49156
0.962699
4.07102
0.168976
3.91217
1.41065
2.16681
0.97872
3.36546
1.42396
1.58505
2.04726
2.43217
3.55868
-0.115783
-0.88222
1.09121
3.13509
1.91539
1.79464
2.30453
4.02205
-1.19761
3.22565
2.0619
3.69923
2.55144
3.78996
-0.618625
-0.797296
-0.606632
-0.118618
1.39862
-0.507064
2.68622
2.05624
2.43239
0.995055
1.29836
2.46406
-0.72314
0.216744
1.86457
1.2259
0.196925
0.651979
-0.616293
-0.367946
-0.901859
6.01944
-0.339455
0.0356763
2.39595
1.8288
2.2821
-1.0852
2.91261
-0.147007
4.95372
-0.017076
-0.807809
3.54122
1.34792
3.74175
3.41384
7.17479
3.27751
1.09845
3.08468
9.35255
4.46765
3.04515
6.63117
4.68849
-0.81951
4.55334
0.00566106
-0.312144
-0.0257925
-1.78966
7.55666
11.0879
5.62993
7.17033
-0.749834
6.18852
-1.41869
4.69754
-0.123984
4.16832
9.95434
0.585791
2.64142
4.68978
4.2152
2.1552
3.56395
0.439964
1.68552
1.02036
-1.0236
-1.03632
2.77913
2.89996
-0.99043
-1.59531
2.66787
2.51063
-0.790588
-1.08556
4.76954
1.5965
5.20031
3.64717
-0.609829
2.39013
0.00360909
-1.43112
1.16371
-1.62934
4.99458
3.78187
0.511022
1.27803
2.40278
4.01867
2.5768
2.08495
-0.900653
-0.873349
-0.905737
-1.24025
3.83129
1.90005
-0.564259
-1.54839
2.08234
-0.68334
-0.650132
3.10703
-1.51091
5.72562
-2.77947
2.93434
-1.09367
7.19595
-1.8244
1.37363
0.223061
-1.27854
2.9772
0.284183
0.385594
1.61387
3.8179
8.12903
0.903417
3.69785
3.36261
2.46015
-0.507811
5.73068
-1.5579
-3.07277
-1.97459
3.35345
4.73372
5.02422
-1.10362
4.14032
0.870958
-0.574532
6.07123
-1.36851
-1.09029
2.05058
-0.781487
11.1149
-0.640708
-0.83656
1.0547
1.42982
10.3424
-0.353034
3.51983
0.978929
0.0699021
-0.00311384
11.3256
10.5285
0.458532
4.08699
-0.924876
-0.782796
-0.191883
0.0280735
-0.814953
-0.98173
4.16907
5.33588
-1.31928
-0.625068
-1.11705
3.59844
-0.767691
-0.190795
-0.44901
-1.08449
0.021106
0.708223
-0.799121
-1.13065
-0.812415
2.37517
-0.853672
-0.680505
-0.639118
-0.821861
0.394736
6.0623
0.202125
-0.901289
-0.71293
-0.817372
0.681739
3.32282
4.02913
5.62486
0.47723
4.13914
5.3608
5.74804
5.89479
5.58665
6.72697
3.64249
1.46836
-1.22778
2.24743
3.44287
5.76786
-1.47022
7.23584
-1.47914
2.57053
4.32723
3.45578
5.36131
-2.05805
0.820765
5.06722
-0.0930842
4.65442
3.61612
1.78423
3.5352
-1.38774
-0.807556
0.0573024
1.79668
3.15905
-1.56225
-0.218591
-0.704827
6.30743
0.835453
-0.825461
6.69109
-0.721527
-0.74662
-1.08806
3.70355
1.11426
4.29229
6.47025
2.95963
1.39991
3.29663
-0.622658
5.88992
0.661403
-0.396403
-0.33781
-0.062474
-0.433231
-0.275034
-0.620817
0.823355
2.43699
5.04746
5.68685
0.309975
3.44481
-0.733244
6.43702
1.1954
4.14574
-0.277386
0.238383
0.604993
12.7324
-0.795268
-0.711593
5.68586
-2.27575
-0.841539
8.38673
2.00123
10.1128
0.641962
-1.08482
4.31269
4.97567
-0.162985
-0.464293
-0.666397
-0.729913
-0.560912
-0.319183
-0.596879
-1.08879
-0.371114
-0.640987
-0.451704
-0.230411
-0.41419
-1.41225
-1.8019
-1.71596
2.13591
-1.28151
7.91614
6.97761
-0.178919
-0.546827
2.72722
-0.504763
-0.0579448
-0.4649
-1.29395
-1.04862
-0.814654
-0.855394
0.131048
2.72936
2.71784
-0.759933
-1.1422
0.100347
-1.59572
3.05294
3.30503
2.70192
9.06895
7.72527
-2.57112
5.94492
4.65933
-0.820021
-0.703297
-0.587664
9.37862
-1.17075
4.97689
-1.26972
-0.716767
-0.0193245
0.835179
-1.1775
-0.858456
-0.660335
7.19253
0.540216
0.704117
11.1875
-1.193
2.19199
2.05674
7.29038
-0.35847
0.806176
-1.67612
-0.708856
-1.03615
-1.91074
-1.80465
-3.33428
4.65442
-0.873134
-1.66232
3.68368
-1.59504
6.34136
3.29378
3.20365
-0.857174
2.52351
-0.433159
-0.829232
-0.596946
-0.40929
0.0110951
2.03183
5.12725
0.816707
-0.659246
-1.62644
3.60951
-0.104982
1.6315
-0.618436
-2.07818
-0.945672
4.60133
-0.210622
3.48068
4.06686
-3.73899
-0.291776
6.99064
-0.934919
-1.13242
-0.93948
-1.55847
-3.87587
5.55874
-0.794868
5.08773
-1.10764
2.10898
-0.580723
-0.913486
-0.791469
2.16583
-0.963024
-0.00470711
-1.20901
0.491068
5.76605
-0.805906
-0.892252
3.11617
0.977462
0.228113
-0.732154
-0.622046
-1.09684
2.33885
4.12817
3.51698
2.323
1.95692
-0.0854761
6.52409
6.98027
-0.338422
1.05029
3.77336
4.14027
3.13662
3.44681
2.63823
3.14904
4.11716
SCALARS CoVolArea double 1
LOOKUP_TABLE default
0.0278295
0.0165219
0.0423533
0.00702293
0.0183861
0.016939
0.0365787
0.0509342
0.0262997
0.0190197
0.0122834
0.0346884
0.0767017
0.0702651
0.0889007
0.101104
0.0943357
0.0446992
0.0304377
0.0235903
0.10335
0.0420434
0.073271
0.0575936
0.0605268
0.0307592
0.0370028
0.0487971
0.0550061
0.0434836
0.11773
0.0300509
0.048642
0.0602941
0.0834994
0.0577677
0.0493115
0.03737
0.0334933
0.0884603
0.0488316
0.0379189
0.0684951
0.0865286
0.0940184
0.0757249
0.0851881
0.0647287
0.053805
0.0777526
0.0527564
0.12194
0.081974
0.058463
0.0974592
0.0801424
0.108663
0.086531
0.0490002
0.0399573
0.0292162
0.0482575
0.0771654
0.0852946
0.0820113
0.0506825
0.0833534
0.018272
0.0269576
0.0498999
0.0745776
0.0332748
0.0787204
0.0425147
0.0510972
0.0538964
0.0561102
0.0828529
0.0599934
0.0523761
0.070879
0.0432242
0.0825246
0.0765784
0.0590205
0.0604188
0.098991
0.0741096
0.0757146
0.0260774
0.041694
0.0723584
0.0892413
0.0525532
0.0522653
0.0456982
0.0313303
0.0218074
0.0160962
0.0295449
0.0648982
0.0362387
0.0860048
0.0584818
0.119377
0.0223504
0.0674143
0.0891195
0.0434911
0.0256737
0.0305833
0.0322686
0.0288362
0.067316
0.114033
0.0980125
0.060717
0.083837
0.0445591
0.0693533
0.0294966
0.0841454
0.0516022
0.0547833
0.0333116
0.0681271
0.0526608
0.124088
0.0287086
0.0223363
0.0307242
0.0367591
0.040053
0.0326696
0.0435059
0.0318571
0.022986
0.0858557
0.03744
0.0432275
0.0550341
0.0320679
0.03918
0.0461764
0.052547
0.0738395
0.0335811
0.0322874
0.0860378
0.0604548
0.0657434
0.0683704
0.0731145
0.0410341
0.027467
0.0353522
0.0470749
0.0979115
0.0582781
0.0425948
0.0542002
0.111045
0.0516193
0.0818006
0.0685018
0.0817592
0.0815606
0.0739666
0.0913644
0.0873394
0.0862699
0.0570849
0.070614
0.0472632
0.0756614
0.0797384
0.0732091
0.0744787
0.0844397
0.0846137
0.0332134
0.04781
0.0348583
0.0806657
0.0638336
0.075466
0.0647357
0.0616645
0.0716016
0.0880125
0.084199
0.0904786
0.0924707
0.0616592
0.104495
0.108155
0.0859503
0.107646
0.115608
0.0336047
0.0510596
0.105785
0.079257
0.0887966
0.0747165
0.0969031
0.038841
0.0831757
0.0445473
0.109974
0.0994348
0.0926194
0.0989356
0.102815
0.108754
0.108919
0.108348
0.118019
0.0564959
0.0387846
0.0645612
0.057778
0.0237774
0.0354929
0.0442043
0.0285144
0.044133
0.0486595
0.0285521
0.0165902
0.0646117
0.0713903
0.0605419
0.103608
0.0823662
0.0724664
0.108261
0.0582355
0.0709421
0.110294
0.0930663
0.0623906
0.067491
0.0656635
0.0648888
0.0474712
0.0367321
0.0552063
0.115167
0.0772971
0.0941001
0.0315541
0.0255509
0.0227165
0.0159241
0.019775
0.0341411
0.0369344
0.0274005
0.0381086
0.0310907
0.0902929
0.0620467
0.0723145
0.0181967
0.03666
0.0333035
0.0295951
0.0363323
0.0646615
0.0675796
0.111635
0.102673
0.069763
0.0682551
0.0300608
0.0475167
0.0451272
0.0526026
0.0435339
0.0586176
0.0824672
0.0445246
0.0570757
0.0634517
0.0551215
0.0436773
0.0423778
0.0432468
0.0686336
0.0479502
0.0591607
0.0603476
0.0385078
0.0851344
0.0852181
0.0640396
0.0686839
0.0715836
0.0339934
0.0481759
0.0704286
0.0610554
0.0655154
0.067731
0.0822939
0.0222129
0.0541251
0.0408776
0.0741394
0.0689724
0.0530282
0.0830364
0.0815445
0.0790587
0.0784775
0.0775984
0.0844996
0.0519905
0.0375305
0.0686293
0.0629958
0.0550443
0.0614748
0.039973
0.0777509
0.0862255
0.0646548
0.0918372
0.0853634
0.0816991
0.0716878
0.0445376
0.0740713
0.035797
0.0236815
0.046265
0.031172
0.042399
0.0373381
0.0385468
0.0602617
0.0447643
0.033105
0.0970725
0.0871915
0.0575126
0.0752236
0.0623525
0.0799626
0.0589679
0.0256849
0.0356401
0.0432947
0.0463337
0.0620785
0.0334667
0.0466105
0.0549721
0.0311881
0.0472741
0.0365368
0.0249786
0.0372028
0.0301875
0.0247597
0.0373802
0.0648647
0.0444128
0.0467261
0.0368562
0.0263516
0.0131461
0.0190658
0.0308425
0.0257147
0.0273703
0.0749865
0.0342356
0.0477546
0.0352532
0.0469132
0.0230366
0.0207754
0.0744237
0.118156
0.102667
0.0485821
0.0852257
0.0652749
0.0778023
0.0894176
0.0611864
0.022026
0.0456215
0.0296751
0.0619811
0.104508
0.0306338
0.0359445
0.0363215
0.0293492
0.0273109
0.0494235
0.062122
0.123599
0.0734522
0.117247
0.0363128
0.0303177
0.0317164
0.0262509
0.0200613
0.0304162
0.025541
0.0243467
0.0510012
0.0328601
0.0826535
0.0312579
0.0514238
0.0298112
0.0187076
0.0531697
0.0398783
0.0564359
0.0467962
0.0388063
0.122356
0.0857772
0.0898423
0.0624391
0.0849894
0.0546383
0.0702472
0.0780788
0.0855509
0.0629176
0.0661093
0.0555642
0.0375664
0.0371509
0.0231356
0.0689925
0.0530032
0.0514348
0.0420205
0.0482616
0.0619739
0.0651141
0.0696635
0.072704
0.0791471
0.0185392
0.0983692
0.123966
0.0657909
0.109015
0.0625554
0.0403798
0.0472281
0.0266214
0.0436435
0.0463039
0.0399207
0.0524083
0.0548871
0.0930896
0.0761191
0.038588
0.0749663
0.0570045
0.108401
0.10273
0.0498018
0.053395
0.0286592
0.0261218
0.0256105
0.0139005
0.0422359
0.0340826
0.0302407
0.0253969
0.0358209
0.0416304
0.0442637
0.0349462
0.0353473
0.0336717
0.0474513
0.0479289
0.0407294
0.043122
0.0424315
0.033584
0.0379706
0.0341039
0.0369912
0.0394318
0.0348696
0.032436
0.030541
0.0288253
0.01989
0.0128318
0.0273483
0.0244515
0.0364372
0.0306998
0.0402857
0.0690538
0.0491427
0.0621316
0.0518625
0.091971
0.0364682
0.0311444
0.0442498
0.0375784
0.0389227
0.0496882
0.0535191
0.0540989
0.0525247
0.0469651
0.0633826
0.0321926
0.0474644
0.0420366
0.0193126
0.0480453
0.0274554
0.0276908
0.0388413
0.0377758
0.0550354
0.0374579
0.0451835
0.0378092
0.0464849
0.0606762
0.0575025
0.0262292
0.0558795
0.0865399
0.0395181
0.0538134
0.0404477
0.0624999
0.0619713
0.0543268
0.0356053
0.0468154
0.0308345
0.0353874
0.0239695
0.0850029
0.0803748
0.0910601
0.0964091
0.0736337
0.0522016
0.0410814
0.0644889
0.0617493
0.0686079
0.0574135
0.0696217
0.0388938
0.0948357
0.0864956
0.106413
0.0634175
0.0510489
0.0449746
0.073041
0.053762
0.0569493
0.0592066
0.0948558
0.0587577
0.0704085
0.0863568
0.0828535
0.0646664
0.0758588
0.0624487
0.0564197
0.0373201
0.0429443
0.0572481
0.0485493
0.0250545
0.0281391
0.0210875
0.0266233
0.0355897
0.0307885
0.0384873
0.0284269
0.0505526
0.0458071
0.0334883
0.0331103
0.0381603
0.0301521
0.0726659
0.0345658
0.0233883
0.0356941
0.11893
0.0716824
0.1035
0.115946
0.110335
0.107979
0.0485758
0.0592752
0.066845
0.0562607
0.0850363
0.07289
0.0640235
0.0332097
0.0446013
0.042226
0.042086
0.0510662
0.0323755
0.0669104
0.0452821
0.0413558
0.0420734
0.0727257
0.082839
0.0939953
0.106988
0.0996686
0.0534978
0.0815582
0.0771102
SCALARS SignedDistance double 1
LOOKUP_TABLE default
0.488751
1.10889
0.0219657
0.100109
0.0577016
-0.000506639
1.19406
0.117263
0.0677372
1.19435
0.112522
-0.0983069
0.00608097
-0.021823
-0.0145729
0.00791
0.03224
1.04245
1.08443
0.608035
-0.000901769
1.23234
0.0488751
0.227124
1.17149
0.00774061
0.0114272
0.0118307
0.252171
1.22461
0.07127
0.66225
0.0159604
1.19194
0.0165773
0.0644123
1.22997
0.045504
0.12849
0.733739
0.0123016
0.760639
-0.0239051
-0.0410692
0.00566974
1.1356
0.00806391
1.13823
-0.0594355
0.0112535
0.0019902
0.0172384
0.498828
-0.0674047
-0.0116452
0.897497
-0.0141886
0.0501227
-1.00091
0.767884
1.11299
-1
1.19422
-0.010168
-0.0157949
-0.96892
-0.0404366
1.21366
0.0112544
0.0693749
0.163958
0.313071
0.0705609
0.299352
-1
0.0946296
1.19211
-0.0113496
0.0829715
0.0102041
0.00778143
0.158993
-0.00273582
1.13601
-0.0166816
0.0103276
-0.000353937
-0.00809309
0.0385167
0.0606074
0.023645
-0.0264056
-0.00198733
0.558683
-0.0181649
0.086483
0.0272213
0.609752
1.14782
0.948059
0.074384
1.20078
0.0851269
0.364288
0.0632699
0.667288
0.0180005
0.000927761
-0.671512
0.00387661
0.0970967
0.0111704
-0.0292292
-0.0144785
0.0339057
-0.0169088
0.102197
-0.0289282
1.19293
-0.0413018
0.0834468
0.140146
-1
1.46465
1.21934
0.0873296
1.1735
-0.0118748
0.289815
0.593396
0.691339
0.751158
1.30012
1.45562
1.24805
-0.0245652
0.0352906
0.808614
0.0430812
1.18739
0.00304099
0.322532
-0.0371173
0.0229242
0.0245789
0.0320131
1.22653
0.0601773
-0.0298069
-0.00561322
0.0312242
0.608223
-0.00316659
0.0332187
0.0308698
0.0435109
1.05601
0.126542
0.213679
-0.0871811
0.0329936
0.0708133
0.380011
1.03243
0.195617
0.00768786
-0.0184186
0.0490992
-0.0220657
0.0256823
-0.00899133
0.0146111
1.18324
1.07546
0.0148863
0.0148544
0.0942301
-0.00961731
1.08664
-0.00172922
0.0182793
-0.00731125
-0.00619317
0.0356571
0.0154931
-0.00554409
-0.0161875
-0.00016069
0.0265499
-0.0112039
-0.0283915
-0.0106778
0.100024
0.914614
-0.016591
0.0439511
0.000253658
-0.0209728
-0.00920775
0.0188473
-0.0600703
0.00594228
0.0301376
-0.097521
0.0282308
-0.0102556
1.20886
0.174727
1.15464
-0.000942651
0.0276768
-0.0169607
-0.00798236
0.000704962
-0.0113376
0.00720232
0.00812184
0.00487338
0.618292
0.443005
0.00409893
0.173246
0.952815
0.232253
0.289332
1.1449
1.18846
0.161521
0.488474
1.08229
0.183132
-0.00797863
0.0309814
-0.0116809
0.0860934
0.221879
-0.0429198
1.13542
1.12963
0.0316697
0.0333092
-0.0141667
-0.0444161
-0.0510208
0.0549992
-0.0842549
0.0123005
0.0330135
-0.0158302
0.0156119
-0.395394
-0.0271971
1.21227
-0.036188
1.13894
1.13215
1.15026
0.196622
0.0526209
0.0938818
0.0444403
0.0217199
-0.0180987
0.0585173
0.750418
-0.069036
-0.0530661
0.087146
0.211408
-1.07432
0.158598
0.096711
0.0466015
-0.00380286
0.046129
0.154126
0.096371
0.0552876
0.60461
1.17133
0.0142581
-1.00154
1.22992
0.00715056
0.0210075
0.100814
1.25563
1.20143
0.0506472
-1.01796
-0.138945
0.0492066
0.699915
0.286817
0.0631274
0.0533255
0.0629988
0.426991
-0.00236635
-0.00721424
-0.00358973
0.000522645
-0.00099578
-0.0147977
0.00765936
-0.0289848
1.2141
1.15304
1.17942
0.015438
-0.0856377
-1.00051
0.17597
0.0374503
0.0229319
0.0154272
0.0395748
0.00454847
0.00176704
-0.0163077
0.346271
0.0113576
0.0040792
0.013372
0.729713
0.0228947
0.0262152
0.901167
-0.00233339
-0.0280743
0.0290835
-0.0288448
0.0812544
0.149491
0.0305069
0.0409657
-1.00092
-1.00658
0.294021
0.0432603
0.109055
0.113357
0.100822
-0.000284593
-0.0763476
0.0339831
1.13168
0.0583427
0.0391099
-0.0215128
0.00311753
1.18887
1.30694
-0.0944445
0.15133
0.0701486
1.23664
1.16814
-0.950726
0.186538
0.369824
-0.00949359
-0.0675716
6.06832e-05
-0.0229645
-0.155384
0.0148942
-0.00312251
0.0026376
0.0602682
1.12008
0.382737
0.605684
0.48246
1.13107
0.776159
0.10406
0.125653
0.649015
1.14592
1.11049
0.0315303
1.21057
1.13684
0.687096
1.04347
0.065463
0.292983
1.13038
0.998665
1.13439
0.0243052
1.17702
1.16557
1.16829
0.853242
0.0177425
0.0701417
0.863146
1.12682
1.1395
1.13402
0.51531
-0.126405
-0.0127852
-0.225415
-1.03486
0.0718407
-0.442032
-0.446171
-0.00116034
-0.0436989
0.0374805
0.0396401
-0.0161792
0.240362
-0.774554
-0.438959
0.223636
0.767532
0.0120811
0.839616
0.105327
0.116798
-0.805142
0.0107361
-0.0222411
-0.0473205
-0.0161328
-0.005299
-0.0265932
0.0359793
-0.0133115
0.131434
1.12499
-0.0433911
0.0179118
-0.188155
0.00285205
0.0699791
1.31783
1.3452
0.0201653
-0.0114626
0.435263
0.0930152
1.20704
1.30712
1.20075
-0.0458784
0.115619
-0.00591762
-0.0787922
-0.63524
-1.04442
-0.0347232
0.102425
0.021744
0.316872
1.28177
1.39555
1.23686
1.42732
1.2101
1.19779
0.251497
-1.00625
-0.256655
0.0277467
1.30041
-0.0235777
0.431099
0.184404
-1.00453
0.17058
0.600454
1.24278
0.505162
0.177358
0.346588
1.16425
0.239193
0.0374675
0.535388
0.0378525
-1.00164
-0.745237
0.0957646
-0.0609477
-0.200312
-0.0118365
1.31597
1.32951
1.41386
1.25754
1.21474
1.39664
1.17633
1.07127
1.32123
1.16536
1.42753
1.30739
1.29747
0.917947
0.543725
0.528039
-0.108478
-0.00877414
0.0155763
0.0183926
1.13605
1.21615
0.00115866
0.5932
0.0696512
0.942407
0.649135
0.680624
1.17484
1.10854
9.51304e-05
0.0081641
0.00286489
0.994522
1.03121
0.0310844
0.100821
-0.00374336
0.0129865
-0.496687
-0.0221557
-0.00405707
0.0161631
0.013092
-0.00305318
1.16048
1.20091
1.2073
-0.125594
0.803508
0.00956949
0.264001
1.23788
-0.0214018
-0.018269
1.23003
1.18156
1.19932
-0.00165333
0.0428297
0.00558566
0.0580664
1.12774
0.0870117
-1.00324
-0.0522239
0.0387374
-0.0119863
0.619593
-0.00249778
0.0621241
0.00789086
0.597523
-0.0126121
-0.0292057
0.0194886
0.676203
-0.0123764
0.0330678
0.0200094
-0.00328462
0.00622942
-0.0585234
-0.0145178
1.26789
1.21438
1.26724
1.24597
0.0297241
0.00523094
-0.0399882
0.0372964
0.0228373
0.485315
0.0320673
-0.00562583
0.00252543
1.10239
0.248822
1.10409
0.0144569
0.0651205
0.272833
0.0253197
0.126566
-0.0644143
0.0353021
1.25991
0.622571
1.23651
0.417552
0.0609902
0.0128672
-3.74008e-05
-0.00777125
1.09163
0.0333723
0.38358
1.12112
1.16408
0.0180435
1.1398
0.250363
0.291377
0.100278
-0.0907092
1.16676
0.619385
0.115031
0.103934
0.140438
1.09609
1.13585
1.17818
-0.155155
0.0759271
-0.717257
0.0851482
-0.0683199
0.00520536
0.0515567
0.0568763
0.0744991
-0.0507323
0.0777859
0.113141
-0.0635875
-0.21156
-0.039019
0.022886
0.0125248
