# vtk DataFile Version 4.2
vtk output
ASCII
DATASET POLYDATA
POINTS 642 double
-1.03981 2.07269 -0.357548
1.08529 2.07414 -0.26556
-1.39722 -1.6604 -0.00103908
0.935212 -1.3652 0.173954
-0.0154625 -0.253822 1.22686
-0.00415408 1.72518 1.33808
-0.138013 -0.134621 0.0542909
-0.242923 1.88638 -1.28956
1.19823 1.50071 -0.454986
0.818793 0.877434 0.350267
-0.961758 1.40451 -0.375053
-1.01021 0.584509 0.457039
-1.36788 1.68007 0.171933
-0.614849 1.22177 1.05176
-0.589715 2.40483 0.919458
0.623484 2.39495 0.884488
0.00906167 2.77584 -0.217397
0.98434 1.9514 -0.346402
-0.953366 1.96388 -0.493465
-1.30529 1.80899 -0.846715
-1.91383 1.95739 -0.917075
-0.923434 1.03187 -0.0373339
0.587419 1.27861 1.00387
1.41826 1.75378 0.119668
-0.403356 -0.0880964 0.929029
-0.0459922 0.269757 1.1268
-1.10018 -0.595241 -0.0608277
-1.27782 -0.771737 0.374171
-0.191782 1.53037 -0.763483
-0.674858 0.871013 -0.189186
2.00782 1.93961 -0.824206
1.00304 1.81363 -0.425969
1.13632 -0.63477 0.417769
0.373326 -0.131084 0.89576
0.588029 -1.2279 0.955867
-0.660424 -1.11406 0.671144
0.127306 -0.865623 0.442835
-0.669195 -0.803854 0.0874726
0.465067 -0.811693 0.187583
0.488358 0.59244 -0.100636
0.918192 -0.478782 -0.0607915
1.13636 1.23938 -0.122296
-1.29348 2.04648 -0.116109
-0.956832 2.02061 0.547128
-0.768422 2.33566 0.215059
-0.747831 0.8903 0.64694
-0.891743 1.51646 0.664728
-0.970687 1.15838 0.243806
-0.212629 2.04771 1.25321
-0.663456 1.85008 1.11181
-0.283067 1.54648 1.22278
-0.339438 2.80504 0.436227
-0.495252 2.447 -0.245657
0.215403 2.04687 1.25111
0.00465647 2.56037 1.04667
0.586363 2.35417 -0.238738
0.337018 2.68837 0.394707
0.792758 2.20622 0.123697
-0.30108 2.56627 -0.613443
-0.966668 1.98748 -0.476262
0.988774 1.96803 -0.328859
0.314765 2.57549 -0.575915
-0.650289 1.94419 -0.675104
-0.0463907 2.43964 -0.881388
0.377049 2.07754 -1.02545
-1.54993 2.18267 -1.03099
-1.51834 2.30139 -0.589451
-0.675868 1.83752 -0.62179
-1.40692 1.96884 -1.02173
-1.54397 1.53889 -0.935877
-1.76595 1.78967 -1.51605
-1.33604 1.69409 -0.839992
-1.70367 1.85126 -0.305233
-0.951737 1.27143 -0.248721
-1.57056 1.53718 -0.525101
-1.3412 1.40816 -0.133277
-0.944724 0.785309 0.158649
1.01115 2.02508 0.461603
1.38117 2.16207 -0.0829368
0.272172 1.5628 1.23275
0.636335 1.85198 1.02307
1.13142 1.27811 0.26037
0.949826 1.56143 0.57484
0.719706 0.98187 0.543623
-0.230616 0.762548 1.08186
-0.021243 1.19175 1.19318
-0.91521 0.155856 0.859185
-0.444441 0.46713 0.954205
0.0612852 -0.0327062 1.70579
-0.22711 0.110229 1.26386
-0.213438 -0.237579 1.22283
-1.2727 -0.202957 0.12829
-1.27395 -0.146524 0.492331
-0.843967 0.499528 -0.0577712
-1.1108 0.000843226 -0.0592971
-1.29747 -1.2416 0.264115
-1.2761 -0.805401 0.0925821
-1.17166 -1.24435 0.117995
-0.899179 1.64107 -0.528082
-0.81756 1.31046 -0.294887
-0.242116 1.58065 -1.15204
-0.67529 1.74232 -0.584066
-0.501167 0.188571 -0.0636265
-0.558124 1.36786 -0.459839
-0.186841 0.885774 -0.318439
1.00734 1.89507 -0.401749
0.375684 1.84316 -0.952182
1.65392 2.54126 -0.482306
1.57057 2.20692 -0.786618
1.19566 1.67943 -0.560744
1.51238 1.94113 -0.800488
1.51111 1.63539 -0.721339
1.01732 -1.08538 0.306573
1.03377 -1.01546 0.719898
1.14951 -1.59553 0.527249
0.845408 0.22272 0.816841
0.890846 -0.475257 0.725862
1.14432 0.0530083 0.511949
0.252727 -0.701155 0.773004
0.57994 -0.704396 0.952044
0.110088 -0.219064 1.16653
0.378951 -1.41406 0.579114
0.756465 -1.47518 0.179564
-0.167473 -0.605351 0.707715
0.159438 -0.853923 0.605847
-0.852231 -1.38659 0.175775
-0.398295 -0.908801 0.479123
-1.18076 -1.65854 0.55011
0.367238 -0.955346 0.292231
0.751426 -1.25011 0.19821
-1.00561 -1.23409 0.0688972
-0.466903 -0.886065 0.262017
0.142645 -0.466467 0.155709
-0.0926999 -0.674464 0.272155
-0.388765 -0.451984 0.128675
0.690337 -0.785048 0.0446118
0.889946 -1.04159 0.178647
0.209264 0.0606632 -0.00680284
0.470728 -0.421603 0.0320621
0.741911 0.713055 -0.0142006
0.688742 -0.0760752 -0.0602061
0.702515 1.22248 -0.206366
1.07189 -0.645746 0.135923
1.25008 1.39965 -0.352154
0.915408 0.334414 0.0413043
1.13744 0.092067 0.165883
0.842483 1.02235 0.187508
0.118456 0.113532 1.19312
0.42698 0.518701 0.953163
0.196689 0.830397 1.08316
-1.19824 -1.0571 0.701196
-0.615472 -0.668945 0.66727
-1.01898 -0.528928 0.698919
-0.718972 -0.37908 -0.012988
-0.947826 -0.814889 -0.0619241
-0.839428 -0.0536563 -0.0619262
0.696959 1.54827 -0.3921
0.187911 1.23479 -0.448442
0.26342 1.65591 -0.813975
1.51059 1.45363 -0.0424022
1.70534 1.52863 -0.463325
1.96518 1.96126 -0.181186
-1.15175 2.07943 -0.282925
-1.00283 2.10998 0.0251907
-0.884373 2.17784 -0.158056
-1.17696 1.85029 0.342388
-1.14123 2.04716 0.214067
-1.41146 1.93978 0.0770138
-0.708784 2.42845 0.582095
-0.901393 2.22462 0.411628
-0.78426 2.22557 0.750694
-0.902083 0.679825 0.52271
-0.854694 1.00597 0.459543
-0.921283 0.816064 0.351272
-0.776671 1.37815 0.905936
-0.846525 1.20622 0.682992
-0.640858 1.08624 0.819841
-1.23547 1.41318 0.225061
-0.961376 1.34214 0.414652
-1.12599 1.60207 0.413094
-0.0802216 1.85651 1.3392
-0.254637 1.80771 1.27344
-0.1208 1.66612 1.33774
-0.629003 2.13827 1.0389
-0.43691 1.98122 1.21142
-0.388538 2.24131 1.13814
-0.473693 1.38826 1.20932
-0.459219 1.69726 1.2104
-0.653902 1.545 1.10196
-1.00676 1.78217 0.656961
-0.854478 1.67322 0.937552
-0.8845 1.98944 0.902606
-0.642077 2.41507 -0.015343
-0.769502 2.19894 -0.298338
-0.467137 2.60318 0.704383
-0.63832 2.62277 0.346121
-0.306271 2.68929 -0.243913
-0.461757 2.67837 0.0391261
-0.157519 2.81585 0.0861389
0.0747844 1.85743 1.33923
-0.0017301 2.06256 1.2482
0.331406 2.55128 1.02787
0.13507 2.31082 1.21218
0.43614 2.26557 1.18977
-0.134407 2.30613 1.21206
-0.320094 2.5469 1.04265
0.934494 2.09144 -0.265262
0.692832 2.27966 -0.0541544
1.0479 2.07633 -0.185993
0.164265 2.70653 0.0965613
0.471367 2.56866 0.0390426
0.312476 2.5931 -0.215932
0.748888 2.39353 0.51719
0.621179 2.52314 0.28876
0.501878 2.60879 0.668072
-0.153487 2.69013 0.761131
0.174123 2.69052 0.749324
0.0221369 2.8167 0.449747
-0.635508 2.24129 -0.445152
-1.00356 2.03363 -0.433856
-0.170279 2.68934 -0.46376
-0.390601 2.51844 -0.466213
-0.959196 1.97386 -0.486786
-0.503634 2.31305 -0.563863
-0.455521 2.32053 -0.628687
1.02127 2.01529 -0.29788
0.775218 2.16894 -0.375514
0.520819 2.38253 -0.593499
0.538472 2.37611 -0.549901
0.987173 1.96146 -0.335984
0.474017 2.48858 -0.448549
0.167692 2.68771 -0.443103
-0.324883 1.90533 -1.04508
-0.121679 2.10523 -1.08825
0.0290452 2.05345 -1.23644
-0.393206 2.30561 -0.762986
-0.330526 2.24699 -0.945175
-0.936097 1.9432 -0.508977
0.589557 2.08024 -0.600973
0.20654 2.30671 -1.02171
0.394849 2.33857 -0.745324
-0.016629 2.6857 -0.643468
0.151987 2.56296 -0.758248
-0.219484 2.59953 -0.835336
-1.28744 2.26066 -0.674092
-1.22489 2.17045 -0.452281
-1.29999 2.13153 -0.924235
-1.29062 2.24831 -0.909428
-1.87194 2.29089 -0.741252
-1.5709 2.30563 -0.878947
-1.87942 2.29087 -1.08935
-0.352575 1.82609 -0.998534
-0.672065 1.87243 -0.637066
-1.41129 1.9326 -1.02502
-1.04249 1.83784 -0.593651
-1.05542 1.81906 -0.599112
-1.01315 1.87352 -0.577053
-1.24986 2.02593 -0.843144
-1.30615 1.55357 -0.719546
-1.40973 1.59111 -1.01061
-1.27066 1.57446 -0.718191
-1.91431 1.92006 -1.19995
-1.65256 1.76515 -1.10299
-1.827 1.66563 -1.01939
-1.34423 1.77009 -0.871828
-1.52503 1.78436 -1.08914
-1.49858 1.86779 -1.09546
-1.48609 2.07793 -1.09831
-1.52328 1.98677 -1.17699
-1.69448 2.03243 -1.1696
-1.41119 2.17408 -0.328598
-1.9715 1.93436 -0.566984
-1.7424 2.18258 -0.389094
-1.54766 2.01008 -0.179653
-1.58332 1.77273 -0.0559965
-0.954876 1.36631 -0.331623
-1.34694 1.53399 -0.662842
-1.30105 1.40521 -0.349356
-1.33769 1.48862 -0.488895
-0.938114 1.1499 -0.149089
-1.60728 1.53755 -0.757287
-1.82244 1.68431 -0.734401
-0.940156 1.0124 0.160422
-1.00241 0.603945 0.326494
-1.42552 1.51006 0.00406922
-1.19429 1.28028 0.0668391
-0.904046 0.944459 0.058486
-1.00787 1.10132 0.0357201
-1.20604 1.28394 -0.188344
-1.70008 1.6665 -0.444158
-1.5072 1.45451 -0.331423
-1.6117 1.5864 -0.210246
1.12088 2.06848 -0.0642911
1.26703 2.19631 -0.239802
0.767562 2.17777 0.665502
0.895035 2.11568 0.294737
1.44953 1.97651 0.0652562
1.20771 1.99193 0.0895868
1.29097 1.89949 0.285056
0.110436 1.66983 1.33768
0.254736 1.81143 1.27371
0.628626 1.58199 1.03514
0.462909 1.71196 1.20086
0.466532 1.41982 1.19721
0.456395 1.9765 1.20564
0.652871 2.11843 0.990911
0.884162 1.08367 0.289868
0.888379 1.16159 0.365707
0.799377 0.878408 0.396925
1.19879 1.65633 0.326053
1.12886 1.392 0.413606
1.32587 1.5061 0.210504
0.643088 1.14785 0.770803
0.82478 1.30993 0.552025
0.76437 1.43645 0.8263
0.774048 1.95589 0.750407
0.766167 1.70881 0.797422
1.03695 1.81217 0.57205
-0.142285 1.38793 1.21978
-0.0072582 1.54563 1.33712
-0.391818 1.05963 1.04502
-0.295238 1.20817 1.20611
-0.0451209 0.658982 1.08278
-0.147135 0.948959 1.20294
-0.121554 0.420032 1.05651
-1.03686 0.416524 0.649356
-0.829008 0.533274 0.738035
-0.396693 0.129803 0.974825
-0.662335 0.323881 0.954384
-0.648478 -0.00536459 0.872689
-0.637516 0.714177 0.839533
-0.512902 0.888628 0.953561
-0.00724622 -0.255212 1.37162
-0.260789 -0.265333 1.57246
-0.0979506 -0.252205 1.25533
-0.14221 0.147995 1.2495
-0.146844 -0.00673067 1.38428
-0.0502553 0.0291197 1.34501
-0.252024 -0.151084 1.10023
-0.254675 -0.0691634 1.30739
-0.258234 0.00938991 1.1405
-0.307962 0.609308 0.991807
-0.252003 0.235223 1.05731
-0.184448 0.320748 1.08426
-1.26933 0.295821 0.298647
-1.23389 0.350108 0.540022
-1.02414 0.492121 0.0731449
-1.16153 0.319077 0.142335
-1.29111 -0.485961 0.437743
-1.27297 -0.204762 0.291776
-1.40162 -0.5498 0.251861
-0.84526 1.10993 -0.208599
-0.857655 0.816179 -0.0623594
-1.16117 -0.390402 -0.0973246
-0.985277 0.241562 -0.0618311
-1.0517 -0.204815 -0.168743
-0.888573 0.712171 -0.010358
-0.94579 0.599635 0.0356164
-1.38615 -1.45741 0.163488
-1.24879 -1.25818 0.15511
-1.4143 -1.40081 -0.058975
-1.28176 -0.808548 0.210005
-1.24719 -1.02741 0.197037
-1.2742 -1.00901 0.320133
-1.11723 -0.940677 0.0579692
-1.19021 -1.01148 0.13293
-1.22875 -0.758215 -0.052049
-1.27137 -0.141413 -0.014673
[...]
POINT_DATA 642
SCALARS Mean_Curvature double 1
LOOKUP_TABLE default
-0.585255
-0.653772
10.0176
18.0245
-1.51571
-0.0261582
-0.420892
7.2714
-4.09625
-0.887125
3.24711
2.339
1.94167
3.56899
2.61522
2.64769
2.78635
-0.0176978
-0.0402008
-1.52773
0.862093
-0.836665
2.19201
-1.79019
-1.20686
-1.00185
-1.21979
-1.03286
0.0622881
-0.786216
5.09826
0.148283
2.82236
-0.950507
4.52664
3.95891
-0.0566119
0.444949
-1.85426
-1.30051
0.748749
-1.37165
-0.113348
-0.320432
-0.647016
-1.19645
-1.43416
-1.05959
1.22861
1.94978
-1.51113
2.88482
-1.22584
0.59023
2.0694
-0.700523
1.04652
-1.2611
1.70406
0.295046
-0.384106
3.91951
-0.946686
-0.385413
4.7269
1.46602
2.65225
-0.852281
1.26403
5.09751
6.71454
-1.93959
1.40785
0.134339
1.66807
-0.794492
-0.97917
2.67094
2.37765
-0.868085
1.11233
2.39059
-0.277317
-1.09587
0.645712
0.677318
3.2541
-0.658
7.36147
10.0935
8.43891
-1.80746
3.50103
-0.63096
2.04418
0.529122
3.38542
-0.831735
-0.780448
-1.00206
5.72668
-0.734142
-4.71647e-05
-0.323943
0.340971
0.567535
3.51179
6.704
1.23404
0.614702
-0.28119
3.04681
3.08308
1.38521
5.8046
4.14533
0.581769
4.55118
-0.516481
4.79772
2.7327
5.49772
2.31207
-0.851264
-0.123876
2.0385
-0.679359
4.64712
-1.27766
-1.41778
0.26308
-0.585979
-0.310038
-1.21045
-0.70318
1.45909
-1.25738
-1.19096
-0.251486
-0.959382
0.83309
-0.79878
-2.97751
-1.73811
2.31208
7.80741
-0.887283
4.04544
1.28686
1.19857
3.57648
-0.824072
2.2341
-1.62294
3.46959
0.442349
-0.757931
0.466193
0.239746
2.50925
2.43839
4.18648
-1.5272
-1.4768
0.117594
1.30393
2.27584
3.90095
1.03452
1.63563
0.742915
-0.432694
-1.32555
-0.841717
1.47346
2.01678
-2.51471
2.68841
-1.49361
0.961223
4.0507
0.170179
3.91483
1.39624
2.1556
0.983031
3.37543
1.42769
1.57259
2.04186
2.44059
3.55929
-0.114067
-0.917922
1.0984
3.11839
1.93767
1.81162
2.30697
4.00137
-1.16314
3.22057
2.03663
3.71047
2.52931
3.78743
-0.645451
-0.770234
-0.617233
-0.117652
1.40162
-0.477987
2.69376
2.05847
2.43515
0.994577
1.29645
2.46236
-0.773157
0.331961
1.8851
1.19043
0.19647
0.689295
-0.647346
-0.420511
-0.924176
6.1895
-0.3591
0.00460508
2.59326
2.09349
2.22778
-1.08714
2.87579
-0.224623
5.05761
-0.0478809
-0.844198
3.52263
1.4659
3.74383
3.71565
7.17527
3.23547
1.27272
3.18652
9.35208
4.48915
3.08111
6.64581
5.09654
-0.852003
4.76005
-0.0590686
-0.373898
-0.0498486
-1.80185
7.47743
11.0993
5.90252
7.19994
-0.752751
6.24867
-1.43441
4.7515
0.052247
4.39377
9.68884
0.489887
2.52421
4.70926
4.21436
2.19468
3.56341
0.639047
1.66786
1.06766
-1.05208
-1.09297
2.92337
2.66449
-0.992693
-1.65434
2.68566
2.50789
-0.802448
-1.09637
4.86949
1.5792
5.31226
3.65377
-0.585529
2.08141
-0.0275695
-1.43688
1.17397
-1.6358
5.03662
3.78722
0.509815
1.28572
2.40375
4.02703
2.55614
2.09107
-0.909038
-0.886241
-0.906259
-1.21852
3.90738
1.91572
-0.589927
-1.52903
2.08878
-0.679295
-0.660533
3.10646
-1.50889
5.73315
-2.80253
2.92925
-1.08342
7.1827
-1.81581
1.35489
0.215532
-1.28031
2.98333
0.334973
0.378007
1.65251
3.78593
8.15492
0.921868
3.95788
2.95491
2.38062
-0.603565
5.97218
-1.57355
-3.13883
-2.03044
3.40401
4.7862
5.00585
-1.13039
4.17778
0.840196
-0.569688
6.09032
-1.4225
-1.09527
2.17446
-0.720653
11.0575
-0.67017
-0.858925
1.07869
1.40689
10.7342
-0.317563
3.53272
0.95981
0.123711
0.29151
11.3163
10.4692
0.484948
4.02145
-0.947181
-0.929537
-0.171347
0.0770521
-0.86573
-1.02769
4.60146
5.33767
-1.37518
-0.662031
-1.15306
3.65461
-0.802846
-0.248422
-0.481052
-1.122
0.0703535
0.665625
-0.846226
-1.15908
-0.847949
2.48656
-0.891278
-0.700146
-0.683504
-0.855706
0.418811
6.05482
0.248605
-0.933066
-0.731568
-0.844419
0.793089
3.48096
4.22758
5.61801
0.482276
4.12799
5.08905
5.29696
5.9387
5.64304
6.54115
3.72151
1.55892
-1.34066
2.20667
3.39281
5.68922
-1.37868
7.32136
-1.44117
2.83503
4.35087
2.85017
5.35186
-2.03084
0.880186
5.05756
-0.0782741
4.65223
3.70055
1.78303
3.4113
-1.39204
-0.771042
0.0715426
1.86083
3.14853
-1.59973
-0.239014
-0.717371
6.44605
0.852425
-0.857346
6.75579
-0.735118
-0.759992
-1.10175
3.72794
1.04181
4.29012
6.60248
3.06626
1.39558
3.31814
-0.472253
5.94721
0.831369
-0.407299
-0.340283
-0.0568955
-0.418153
-0.260389
-0.639512
0.71932
2.36967
5.08629
5.76573
0.356523
3.52174
-0.686679
6.4368
1.19516
3.97939
-0.30614
0.264823
0.615467
12.885
-0.727538
-0.721977
5.22611
-2.2336
-0.746697
8.51481
2.10208
9.58574
0.621988
-0.799913
4.30409
4.98449
-0.179833
-0.477414
-0.680305
-0.748897
-0.576753
-0.341155
-0.60579
-1.09804
-0.384999
-0.650522
-0.451204
-0.248679
-0.42676
-1.40936
-1.75202
-1.76423
2.40141
-1.24199
7.83136
6.95395
-0.206931
-0.568785
2.76955
-0.558464
-0.0130864
-0.472586
-1.32333
-1.07092
-0.843931
-0.854968
0.136789
2.84999
2.68337
-0.775853
-1.15774
0.162456
-1.63126
3.06514
3.3174
2.54845
9.04805
7.72215
-2.61349
5.92772
4.77438
-0.839131
-0.733139
-0.593493
9.52119
-1.18969
4.92792
-1.29542
-0.697173
-0.0300719
0.85188
-1.18867
-0.86537
-0.689263
7.194
0.447736
0.692342
11.2977
-1.19683
2.18267
2.05999
7.58356
-0.355646
0.834732
-1.692
-0.713387
-1.0279
-1.91906
-1.83029
-3.32106
4.66762
-0.892118
-1.6842
3.68271
-1.59015
6.33167
3.31515
3.21222
-0.817362
2.54267
-0.445917
-0.842829
-0.605683
-0.411733
0.060519
2.03886
5.14814
0.799416
-0.649653
-1.65087
3.58339
-0.0680976
1.62836
-0.638891
-2.13883
-0.959856
4.6361
-0.12233
3.52662
4.01639
-3.92361
0.11079
6.9516
-0.971126
-1.18109
-0.965838
-1.62528
-3.97077
5.57483
-0.729755
5.09668
-1.12936
2.21663
-0.580325
-0.955348
-0.822301
2.21054
-1.01177
-0.0388057
-1.26227
0.51638
5.76956
-0.831852
-0.94823
3.03292
1.00497
0.27108
-0.771912
-0.65744
-1.11475
2.4591
4.32205
3.09092
2.28749
2.10438
-0.038634
6.52994
6.93216
-0.432014
1.07739
3.76194
4.11637
3.1627
3.46073
2.66644
3.15342
4.1268
SCALARS CoVolArea double 1
LOOKUP_TABLE default
0.0275083
0.0164101
0.0415753
0.00690584
0.0184311
0.0169089
0.0363628
0.0506703
0.0266186
0.0187732
0.0121353
0.0345171
0.0766272
0.0703002
0.089086
0.101372
0.0941993
0.0444669
0.0299446
0.0237443
0.102839
0.0417569
0.0732583
0.0573985
0.0602714
0.0308667
0.0370337
0.0488144
0.0545408
0.043897
0.117727
0.0300072
0.0486193
0.0599185
0.083684
0.0572171
0.0495049
0.03745
0.0336356
0.0884343
0.0489327
0.0376784
0.0681519
0.0864139
0.0938216
0.075432
0.0851689
0.0642551
0.0538358
0.0778524
0.0527411
0.122139
0.0818329
0.0585297
0.0976986
0.0800662
0.108773
0.0862457
0.0492073
0.0397563
0.0290971
0.0471878
0.0773176
0.0852847
0.0819881
0.0504642
0.0833949
0.0181953
0.0269517
0.0497262
0.0744155
0.0332252
0.0785309
0.0426064
0.0507735
0.0539842
0.0555655
0.0826622
0.059561
0.0523964
0.0708936
0.0429689
0.0824442
0.076125
0.0589466
0.060415
0.0989077
0.0739573
0.0756083
0.0260137
0.0417242
0.0724137
0.0892868
0.0523969
0.052427
0.045616
0.031356
0.0213874
0.0159833
0.0296598
0.065135
0.0365263
0.0857481
0.0585825
0.119137
0.0222158
0.0677679
0.0896819
0.0432458
0.0256814
0.0302377
0.0322169
0.028704
0.0673899
0.114629
0.0979869
0.0606536
0.0838538
0.0443079
0.0694709
0.029254
0.0837218
0.0507445
0.0546546
0.0332945
0.0660978
0.0519054
0.124396
0.0287628
0.0220513
0.0289208
0.036562
0.0400387
0.032184
0.043522
0.0318834
0.0229271
0.0857481
0.0374695
0.043103
0.0550495
0.0318679
0.0392588
0.0460378
0.0524649
0.0740411
0.0331772
0.032336
0.0858903
0.0604022
0.065641
0.0683514
0.0730427
0.04104
0.0275109
0.0354542
0.0470752
0.0977248
0.0582136
0.0424759
0.0541647
0.111158
0.0512712
0.0814422
0.0681539
0.0815949
0.0812739
0.0737561
0.0914139
0.0871638
0.0863033
0.0567416
0.0701392
0.0467533
0.0757162
0.0795999
0.0731244
0.0744149
0.0843027
0.0845148
0.0331674
0.0477918
0.034821
0.0807708
0.0638848
0.0756173
0.06478
0.0617002
0.0717008
0.0879616
0.0843015
0.0905621
0.0923511
0.0613588
0.104718
0.108232
0.0858883
0.107741
0.115648
0.0335565
0.0510528
0.106118
0.0794325
0.08911
0.0748435
0.0971656
0.0386678
0.0829953
0.0441463
0.109884
0.0993441
0.0923753
0.0989425
0.102843
0.109011
0.109153
0.108564
0.118154
0.0563138
0.0384156
0.0645504
0.0577567
0.0236607
0.0355697
0.0442046
0.0286643
0.0441226
0.0480802
0.0284385
0.0162199
0.0641444
0.0708088
0.0604112
0.103604
0.081929
0.0723714
0.108384
0.0579744
0.0710169
0.11021
0.0928626
0.0623088
0.0670556
0.0659431
0.0648407
0.0471497
0.0366504
0.0553561
0.115185
0.0772476
0.0933308
0.0315727
0.0254279
0.0227496
0.0158134
0.0196349
0.0340603
0.0367552
0.0271452
0.0378571
0.0310536
0.0901031
0.0621135
0.0721174
0.0182232
0.0366823
0.03307
0.0292783
0.0357115
0.0642082
0.0672669
0.111433
0.102679
0.0695191
0.0681799
0.0299398
0.0474233
0.0449137
0.0526761
0.0437098
0.058368
0.0819061
0.0437281
0.0567997
0.0634287
0.0548489
0.0430465
0.0419167
0.0429435
0.0682848
0.0477861
0.0590871
0.0598594
0.0382444
0.0850398
0.0849513
0.0636948
0.0683568
0.0713907
0.0339607
0.0481614
0.0704838
0.0611012
0.0655905
0.0678311
0.0824134
0.0217466
0.0536525
0.0403212
0.0740162
0.0688773
0.052822
0.0829265
0.0813753
0.0790077
0.0783685
0.077528
0.0844024
0.051963
0.0375009
0.0685985
0.0629691
0.0551078
0.061414
0.0398895
0.0776153
0.086058
0.0644992
0.091726
0.0852025
0.0815119
0.0715675
0.0446329
0.0742187
0.0358805
0.0236996
0.0459717
0.0308719
0.0422128
0.0371394
0.0383658
0.0602002
0.0446693
0.0330299
0.0971226
0.0871891
0.057432
0.0749907
0.062332
0.0798893
0.0589833
0.0258457
0.0356112
0.0434605
0.0462486
0.0619026
0.0333299
0.046577
0.0541024
0.030387
0.0451649
0.0365748
0.0249508
0.0371784
0.030242
0.0247328
0.0374408
0.0650553
0.044506
0.0467969
0.0370035
0.0264581
0.0132266
0.0191463
0.0310804
0.0257401
0.0274719
0.0753903
0.0344102
0.0478872
0.0353726
0.0465798
0.0229061
0.020801
0.0741399
0.117885
0.102227
0.0486534
0.0850994
0.0652863
0.0775933
0.0893359
0.061138
0.0221975
0.0460096
0.0297083
0.0620014
0.104962
0.0306056
0.0359508
0.0361628
0.0292331
0.0270617
0.0498467
0.0625559
0.123767
0.0736621
0.117666
0.0360401
0.0299742
0.0319453
0.0262432
0.0200419
0.0304176
0.0254614
0.0243844
0.0506345
0.0325907
0.0822131
0.0310221
0.0510484
0.0297104
0.0184421
0.0528697
0.0396262
0.0564314
0.0467346
0.0387689
0.123194
0.0860188
0.0901303
0.0622732
0.0850179
0.0544815
0.0701195
0.0780548
0.0853625
0.0629437
0.0661204
0.0555271
0.0376034
0.0369017
0.0230258
0.0690638
0.0528488
0.0511522
0.0417419
0.0479805
0.0618162
0.0651487
0.0697715
0.0728468
0.0795815
0.0179129
0.098561
0.12488
0.0651784
0.109198
0.0624782
0.0404194
0.0469732
0.0261951
0.0434651
0.0458237
0.0394496
0.0522189
0.0531023
0.0928663
0.0762709
0.0385358
0.0746747
0.0573346
0.10812
0.102853
0.0492511
0.0530578
0.0279342
0.0250505
0.0246292
0.0136149
0.0418955
0.0335172
0.0303086
0.0251864
0.035944
0.0393989
0.0402635
0.0348449
0.0343633
0.0336239
0.0465351
0.0476789
0.0406122
0.0429693
0.0423051
0.033406
0.0377467
0.0341757
0.0370575
0.0392235
0.0346863
0.0322644
0.0301706
0.0284983
0.0198382
0.0127678
0.027406
0.0244568
0.0365396
0.0307065
0.040357
0.0688166
0.0491334
0.0620896
0.0518473
0.0918047
0.03657
0.0312672
0.0446512
0.0375487
0.039234
0.0496867
0.0536225
0.0540248
0.0524647
0.0469394
0.0632452
0.0322082
0.0474312
0.0420368
0.0191945
0.0482492
0.0274676
0.0276388
0.038828
0.0379512
0.0551592
0.0364858
0.0446722
0.0374354
0.0464804
0.0608552
0.0571798
0.0257573
0.0558927
0.0868093
0.0394925
0.0536862
0.0398237
0.0626465
0.0618381
0.0543291
0.0354194
0.0466436
0.0307673
0.0352316
0.0239942
0.084696
0.0802499
0.0908095
0.0961847
0.0733672
0.0521885
0.0410742
0.064561
0.0617604
0.0685428
0.0573419
0.0695725
0.0388322
0.0951189
0.0863154
0.106565
0.0633941
0.0509754
0.0450765
0.0729757
0.0536574
0.0568129
0.058913
0.0948104
0.0587585
0.0703336
0.0862051
0.0827276
0.0645456
0.0758442
0.0623535
0.0563926
0.0374677
0.0430632
0.0573012
0.0486417
0.0242499
0.0281286
0.0211623
0.0266143
0.0357163
0.0308092
0.0387199
0.0285554
0.050349
0.0456603
0.0335086
0.0330788
0.0381497
0.0301005
0.072625
0.0343889
0.0231772
0.0359133
0.118696
0.0713655
0.103407
0.115827
0.110142
0.108812
0.0487382
0.0594963
0.0668306
0.0558062
0.0849746
0.0727132
0.0642703
0.0329412
0.044797
0.0422554
0.0418591
0.0509593
0.0322878
0.0668807
0.0452068
0.0412004
0.0420738
0.0728053
0.0826559
0.0938023
0.107415
0.0999527
0.0535077
0.081655
0.0771234
SCALARS SignedDistance double 1
LOOKUP_TABLE default
0.441506
1.12652
0.0204441
0.100957
0.0580642
-0.000507084
1.19207
0.117218
0.0603458
1.19253
0.0933401
-0.0887668
0.00674464
-0.0225088
-0.0142417
0.00874108
0.0320968
1.03178
0.951496
0.575147
-0.00136123
1.22921
0.0481799
0.198689
1.17019
0.00688259
0.0111197
0.0120258
0.230983
1.22202
0.0725969
0.645123
0.0159929
1.19051
0.016356
0.0652263
1.22773
0.0445571
0.11311
0.710462
0.0121324
0.776565
-0.0240059
-0.0417731
0.00373828
1.13527
0.00740762
1.13782
-0.0604569
0.0111964
0.00199272
0.0172973
0.462058
-0.068811
-0.0118406
0.870747
-0.014322
0.0440766
-1.00097
0.651551
1.0888
-1
1.19033
-0.00976832
-0.0149688
-0.971751
-0.0419336
1.20838
0.0219799
0.0690867
0.161966
0.275717
0.0668446
0.299388
-1
0.0944225
1.18823
-0.0112432
0.0809624
0.0101684
0.00783459
0.159248
-0.00270589
1.13468
-0.0169655
0.0103997
-0.000358349
-0.00873527
0.0381197
0.0585103
0.0228167
-0.0268731
-0.00203563
0.527077
-0.0206406
0.0830552
0.0268844
0.609078
1.14354
0.94915
0.0740997
1.19596
0.0710402
0.316122
0.0492853
0.647771
0.017544
0.00174997
-0.615159
0.000855415
0.0915387
0.0100777
-0.0266884
-0.0145314
0.0381009
-0.0170439
0.100452
-0.0273805
1.19063
-0.0427141
0.0838252
0.138782
-1
1.46361
1.2142
0.0866133
1.17528
-0.0125854
0.298516
0.611372
0.739742
0.776215
1.29984
1.45497
1.24766
-0.025736
0.0292295
0.809327
0.0330146
1.18545
0.00259833
0.278816
-0.0381047
0.0211552
0.0223659
0.0321491
1.2224
0.0599017
-0.030052
-0.00567567
0.0311468
0.603599
-0.00333385
0.0152923
0.0308509
0.036457
1.03152
0.102926
0.197417
-0.0870893
0.0313091
0.069909
0.361084
1.01853
0.186308
0.00774367
-0.0187323
0.0487615
-0.0216878
0.0251723
-0.00951099
0.0139569
1.18307
1.07448
0.0151545
0.016083
0.0852942
-0.00782701
1.08646
0.000410596
0.0181723
-0.00737767
-0.00618734
0.0357686
0.015363
-0.00534512
-0.0163034
-0.000250195
0.0268547
-0.0109701
-0.0282445
-0.0102265
0.100895
0.892605
-0.0164504
0.0474756
-0.000517149
-0.0209559
-0.00924297
0.0187262
-0.0613159
0.0060065
0.0301467
-0.095459
0.0282007
-0.00804115
1.2047
0.149104
1.15075
-0.000950468
0.0268414
-0.0174713
-0.00743149
0.0010779
-0.0106236
0.00715637
0.00813686
0.00489555
0.573258
0.369086
0.00443514
0.165664
0.83046
0.207697
0.244409
1.14344
1.18374
0.152635
0.490448
1.06348
0.180294
-0.0101652
0.0313726
-0.0118016
0.0860638
0.206855
-0.035959
1.12851
1.12688
0.03458
0.0288355
-0.0142044
-0.0456214
-0.0599962
0.0555864
-0.0899592
0.0149244
0.0359722
-0.0155925
0.0142987
-0.466439
-0.0341191
1.20765
-0.022904
1.13745
1.13153
1.1468
0.172335
0.0509511
0.100728
0.0420614
0.0214208
-0.0239145
0.0684464
0.717967
-0.0837207
-0.0648775
0.0807714
0.213519
-1.07312
0.157326
0.094968
0.0445573
-0.005029
0.0457041
0.116233
0.0966886
0.0543733
0.568287
1.1712
0.00709857
-1.0022
1.22655
0.00721294
0.0197136
0.105712
1.25151
1.20102
0.0501091
-1.01801
-0.139679
0.0505171
0.663945
0.293287
0.0630591
0.0531567
0.0639833
0.417462
-0.00293457
-0.00724309
-0.00361573
0.000565488
-0.000986395
-0.0148649
0.00747553
-0.0284645
1.21136
1.15187
1.17777
0.015183
-0.0847121
-1.00064
0.178396
0.0353116
0.0224327
0.0151898
0.0395814
0.00461826
0.00171051
-0.0164029
0.343332
0.0115898
0.00378274
0.013444
0.737126
0.021837
0.0259269
0.892826
0.00114942
-0.0308787
0.0276294
-0.028787
0.0765894
0.150075
0.0305717
0.0390298
-1.00171
-1.00787
0.303179
0.0460836
0.108413
0.101368
0.098325
-0.000826189
-0.0776862
0.0363583
1.13233
0.0568265
0.0380832
-0.0214706
0.00264436
1.18894
1.30133
-0.098261
0.131779
0.0707629
1.23255
1.16758
-0.947597
0.17955
0.364654
-0.0100808
-0.0658522
0.000341276
-0.0234857
-0.16456
0.0151473
-0.00350004
0.00264698
0.0607284
1.11875
0.349158
0.601
0.472559
1.12996
0.751202
0.0915665
0.126858
0.632747
1.14296
1.10882
0.0299136
1.20535
1.13497
0.662336
1.03147
0.0540782
0.274154
1.12388
0.966657
1.132
0.0159839
1.17339
1.1606
1.16394
0.7976
0.0162629
0.0713174
0.847023
1.12405
1.13688
1.13125
0.492441
-0.14166
-0.0153893
-0.257781
-1.03413
0.0692298
-0.544166
-0.524934
0.00113902
-0.0485242
0.0376004
0.0407165
-0.0194194
0.227965
-0.816381
-0.478895
0.221231
0.730849
0.0221651
0.808904
0.115584
0.115829
-0.824655
0.0107145
-0.0225223
-0.0481397
-0.0174648
-0.00511366
-0.0179361
0.0340979
-0.0136922
0.127907
1.12477
-0.0451327
0.0175553
-0.189064
0.0027124
0.0690168
1.31776
1.34306
0.0207949
-0.011994
0.436352
0.105769
1.20733
1.30531
1.20026
-0.0467072
0.112671
-0.00661631
-0.0988722
-0.588079
-1.04364
-0.0358978
0.0929141
0.020408
0.279872
1.28184
1.39463
1.23273
1.42672
1.20836
1.19548
0.250256
-1.00733
-0.286327
0.027576
1.2944
-0.0256955
0.399392
0.183522
-1.00398
0.170628
0.567467
1.23753
0.454274
0.189936
0.343141
1.16717
0.25605
0.0317762
0.5517
0.0513216
-1.00229
-1.00002
0.0929155
-0.057078
-0.203415
-0.00912326
1.3157
1.32755
1.41223
1.25564
1.21527
1.3969
1.17611
1.05151
1.32069
1.1653
1.42695
1.30859
1.29833
0.890382
0.565993
0.509707
-0.115617
-0.0086991
0.0173464
0.0184805
1.13429
1.21525
-5.97781e-05
0.599011
0.0594482
0.940234
0.64513
0.652229
1.17402
1.10634
-1.61924e-05
0.00684224
0.00277169
0.994624
1.02436
0.0262214
0.094513
-0.00384285
0.0122656
-0.506873
-0.0224314
-0.00384969
0.016524
0.0130216
-0.00485428
1.15945
1.19513
1.20171
-0.139824
0.788836
0.0092011
0.246836
1.23534
-0.0212028
-0.018535
1.23
1.18258
1.19441
-0.00168737
0.0425841
0.00548257
0.0578362
1.12795
0.0878011
-1.00362
-0.0533674
0.0386683
-0.0119148
0.603983
-0.00264379
0.0481484
0.00780051
0.587784
-0.0142914
-0.0292908
0.0192154
0.666053
-0.0123725
0.0304498
0.0195236
6.37926e-05
0.00657719
-0.0587262
-0.0144434
1.26756
1.21243
1.26557
1.24373
0.0292225
0.00521883
-0.0401187
0.0377896
0.0228729
0.471294
0.0322349
-0.00596845
0.00270632
1.10925
0.232916
1.08612
0.0137484
0.05488
0.279402
0.0254013
0.109836
-0.0706047
0.0362957
1.25889
0.59132
1.23377
0.393508
0.0528326
0.0132036
-0.000370068
-0.00857115
1.06346
0.027434
0.338939
1.11967
1.16023
0.01462
1.13737
0.23145
0.263386
0.0874057
-0.0945815
1.16369
0.615708
0.109625
0.0993966
0.112902
1.11231
1.12306
1.17869
-0.166111
0.0741509
-0.794897
0.0848071
-0.0713294
0.00219451
0.0520589
0.0568059
0.0749861
-0.0570753
0.0778867
0.114261
-0.0646531
-0.222572
-0.0393221
0.024453
0.0127468
