# vtk DataFile Version 4.2
vtk output
ASCII
DATASET POLYDATA
POINTS 642 double
-1.03934 2.14818 -0.396861
1.16362 2.19395 -0.346613
-1.40917 -1.66108 0.00481356
0.985279 -1.40465 0.150077
-0.0309307 -0.254505 1.27606
-0.00414073 1.73847 1.33808
-0.138322 -0.181799 -0.018065
-0.251292 1.87311 -1.34823
1.20777 1.50158 -0.483156
0.890495 0.819368 0.347684
-1.03799 1.41781 -0.515909
-1.01715 0.555571 0.451784
-1.37974 1.68653 0.159788
-0.614183 1.24331 1.06059
-0.576865 2.41136 0.921806
0.610779 2.40658 0.893038
0.00622973 2.78377 -0.209628
1.00926 2.05837 -0.506476
-0.930313 2.03301 -0.673041
-1.33332 1.81449 -0.925128
-1.91404 1.97072 -0.927952
-0.996252 1.02414 -0.150014
0.593605 1.29309 1.02191
1.4496 1.76232 0.118728
-0.406876 -0.112036 0.965855
-0.0472795 0.27354 1.13295
-1.10567 -0.608774 -0.0616043
-1.27827 -0.789732 0.365116
-0.217404 1.47537 -0.858723
-0.726394 0.832755 -0.299807
2.02963 1.96522 -0.840234
1.02719 1.81638 -0.566825
1.13958 -0.652349 0.417087
0.382158 -0.153175 0.92591
0.613711 -1.26467 0.956156
-0.681846 -1.17731 0.689985
0.0720905 -0.981353 0.405451
-0.685985 -0.829845 0.0629976
0.470947 -0.844055 0.15972
0.512604 0.575751 -0.169826
0.928401 -0.494649 -0.0611123
1.17244 1.26076 -0.150537
-1.30345 2.04827 -0.135056
-0.943525 2.0252 0.553666
-0.75925 2.35337 0.223565
-0.757293 0.895402 0.658649
-0.893167 1.52552 0.673919
-1.02726 1.17106 0.234005
-0.211184 2.06276 1.24001
-0.660742 1.86449 1.11475
-0.284675 1.55802 1.22439
-0.335879 2.80749 0.447804
-0.517805 2.48744 -0.26511
0.214713 2.06405 1.23705
0.00446971 2.56064 1.04387
0.61084 2.40112 -0.266247
0.331286 2.68854 0.408063
0.793222 2.23439 0.117929
-0.403604 2.76195 -0.675467
-0.959613 2.08953 -0.610379
1.06176 2.10909 -0.449885
0.493264 2.93063 -0.722104
-0.639661 1.94242 -0.813963
-0.0525393 2.44194 -0.877394
0.378585 2.07512 -1.01988
-1.60367 2.22374 -1.09065
-1.54352 2.30274 -0.616603
-0.760413 1.80653 -0.754456
-1.45453 1.98376 -1.07584
-1.57201 1.53864 -0.9719
-1.80877 1.7862 -1.56716
-1.3498 1.6822 -0.901701
-1.74425 1.86495 -0.312815
-1.01212 1.26501 -0.350603
-1.63242 1.48391 -0.557078
-1.37423 1.40752 -0.156417
-1.00572 0.716539 0.113646
1.00505 2.02908 0.459386
1.40839 2.19672 -0.0858686
0.273142 1.57511 1.23627
0.63165 1.86718 1.03106
1.18967 1.27877 0.256256
0.951907 1.56904 0.574838
0.747506 0.991639 0.562174
-0.226662 0.765432 1.08286
-0.0211733 1.19505 1.19582
-0.916219 0.143912 0.858098
-0.441592 0.45636 0.958378
0.0356951 -0.0487832 1.73509
-0.234325 0.0998319 1.324
-0.202958 -0.246164 1.2901
-1.2749 -0.22901 0.117812
-1.27391 -0.165652 0.490954
-0.880791 0.510955 -0.144619
-1.10627 -0.0119485 -0.0730766
-1.33774 -1.26435 0.253106
-1.27629 -0.818698 0.085238
-1.20181 -1.23985 0.0673099
-0.958154 1.60712 -0.666726
-0.861208 1.26933 -0.423304
-0.252829 1.59769 -1.22051
-0.751613 1.68301 -0.71884
-0.51897 0.160881 -0.121186
-0.602044 1.33262 -0.582159
-0.192845 0.863273 -0.400569
1.09043 1.97051 -0.558614
0.384798 1.83657 -0.956513
1.6842 2.54027 -0.480372
1.63451 2.2482 -0.842533
1.22512 1.68457 -0.60601
1.53094 1.96918 -0.862548
1.54253 1.65071 -0.73956
1.01104 -1.1021 0.306383
1.02931 -1.0365 0.716017
1.14299 -1.60781 0.542161
0.850028 0.204428 0.813629
0.90615 -0.493375 0.749055
1.14558 0.028424 0.508468
0.230642 -0.737781 0.831816
0.596544 -0.73708 0.953573
0.0987643 -0.230944 1.21131
0.377047 -1.49915 0.577086
0.71289 -1.65041 0.0482
-0.184457 -0.649339 0.767876
0.0772197 -0.96653 0.631274
-0.868575 -1.42676 0.161327
-0.472066 -1.07705 0.477928
-1.19865 -1.65963 0.539408
0.392913 -1.01934 0.266855
0.764635 -1.2882 0.151277
-1.04151 -1.27512 -0.0110039
-0.489421 -0.950641 0.22672
0.155485 -0.519646 0.0851345
-0.0831999 -0.740417 0.19921
-0.397486 -0.499712 0.0621024
0.697742 -0.800493 0.0478323
0.88373 -1.06114 0.166802
0.219451 0.0277798 -0.0678204
0.475153 -0.455331 0.0090727
0.781881 0.707366 -0.0832201
0.698149 -0.0839068 -0.0632898
0.767662 1.23467 -0.301805
1.06408 -0.65436 0.133823
1.25895 1.4066 -0.373004
0.920821 0.330639 0.0256868
1.14508 0.0691898 0.159891
0.977312 1.03212 0.110544
0.114764 0.0995507 1.23631
0.417633 0.514915 0.953926
0.189257 0.834972 1.08396
-1.21094 -1.08643 0.70046
-0.618215 -0.701665 0.694938
-1.02381 -0.554387 0.699206
-0.724559 -0.410477 -0.0306096
-0.954562 -0.836517 -0.0619587
-0.849293 -0.06482 -0.0900578
0.742058 1.5316 -0.506512
0.209359 1.19784 -0.541064
0.30261 1.62703 -0.871972
1.52846 1.4817 -0.0614164
1.73405 1.54533 -0.474189
1.99031 1.97966 -0.196512
-1.16644 2.12188 -0.302883
-1.00116 2.12851 0.0207221
-0.887748 2.21633 -0.172884
-1.17913 1.85403 0.340243
-1.13772 2.04768 0.211237
-1.42845 1.94661 0.0714778
-0.694416 2.43647 0.591448
-0.895452 2.23809 0.422148
-0.773494 2.23436 0.759412
-0.911706 0.67242 0.523701
-0.882191 1.02551 0.462143
-0.953721 0.807923 0.342903
-0.77789 1.39524 0.917944
-0.848565 1.22603 0.692223
-0.654907 1.09923 0.837807
-1.25144 1.42755 0.209611
-0.980056 1.35093 0.417823
-1.12936 1.60765 0.409746
-0.0815382 1.87416 1.3393
-0.255865 1.82257 1.27117
-0.121406 1.67845 1.33773
-0.624696 2.15196 1.04456
-0.436226 1.99741 1.21157
-0.383474 2.25395 1.13385
-0.473882 1.40421 1.2095
-0.460346 1.71172 1.21051
-0.65429 1.56117 1.10954
-0.999717 1.7898 0.665538
-0.846772 1.68833 0.943462
-0.873979 1.99852 0.908555
-0.641563 2.44033 -0.0140472
-0.790789 2.26683 -0.33684
-0.456266 2.6037 0.709654
-0.630826 2.63761 0.360301
-0.309692 2.69003 -0.239125
-0.455945 2.68223 0.0532243
-0.159921 2.8159 0.100656
0.0761533 1.87551 1.33934
-0.0014573 2.07835 1.23293
0.32594 2.55408 1.02885
0.136057 2.32692 1.21218
0.425553 2.27676 1.17707
-0.134487 2.32205 1.21211
-0.313913 2.54929 1.04022
0.956446 2.20795 -0.336528
0.705131 2.31924 -0.0695432
1.05335 2.17763 -0.227747
0.161421 2.70896 0.108936
0.470288 2.57938 0.0472668
0.314586 2.59069 -0.220487
0.734664 2.40885 0.530189
0.611895 2.53348 0.303631
0.490884 2.60928 0.679045
-0.151805 2.68957 0.766767
0.170834 2.69004 0.757276
0.0194313 2.81666 0.461244
-0.682018 2.32945 -0.510338
-1.00837 2.12908 -0.517118
-0.174267 2.68919 -0.463916
-0.418908 2.57282 -0.507686
-0.94579 2.06071 -0.648425
-0.578254 2.42372 -0.643654
-0.521168 2.4089 -0.69698
1.11239 2.1524 -0.409847
0.812533 2.26421 -0.444121
0.565463 2.41974 -0.641471
0.576816 2.41398 -0.588562
1.04257 2.09042 -0.475029
0.502353 2.52616 -0.47869
0.171279 2.68822 -0.452638
-0.329777 1.8877 -1.06961
-0.116829 2.09 -1.09954
0.0509669 2.04283 -1.27649
-0.419617 2.33641 -0.80372
-0.327734 2.22895 -0.949916
-0.875952 1.98822 -0.70909
0.644751 2.0934 -0.676679
0.213676 2.30139 -1.02835
0.402663 2.34443 -0.764318
-0.0141171 2.6805 -0.650897
0.148437 2.5689 -0.750496
-0.210531 2.60893 -0.84627
-1.30693 2.28258 -0.714286
-1.24373 2.18461 -0.487947
-1.33953 2.15237 -0.95731
-1.33107 2.25702 -0.937662
-1.87715 2.28702 -0.761264
-1.59758 2.31377 -0.901698
-1.90915 2.31977 -1.08436
-0.374284 1.80021 -1.01155
-0.726412 1.85522 -0.774162
-1.46335 1.94376 -1.08123
-1.12224 1.8667 -0.787366
-1.13641 1.82954 -0.787397
-1.06736 1.91107 -0.768387
-1.26361 2.03439 -0.897588
-1.33226 1.54681 -0.766074
-1.44083 1.58194 -1.04721
-1.28393 1.58042 -0.760539
-1.91358 1.93435 -1.2151
-1.67069 1.787 -1.14921
-1.8471 1.67884 -1.03989
-1.36844 1.77068 -0.943782
-1.55934 1.80983 -1.14394
-1.52613 1.88079 -1.1707
-1.52002 2.10771 -1.16449
-1.52485 2.01826 -1.32714
-1.75105 2.17624 -1.34524
-1.43844 2.22989 -0.329307
-2.00203 1.95282 -0.586512
-1.77321 2.19925 -0.410875
-1.56807 2.01583 -0.199651
-1.60294 1.78027 -0.0674058
-1.02059 1.36883 -0.454446
-1.37698 1.52324 -0.696223
-1.30798 1.40565 -0.3858
-1.36074 1.47275 -0.534302
-1.00434 1.16112 -0.260443
-1.63795 1.5384 -0.786303
-1.90092 1.65085 -0.748885
-1.00945 0.987948 0.130149
-1.0259 0.58195 0.313716
-1.44922 1.51928 -0.0113848
-1.22777 1.29297 0.0392736
-0.987631 0.880927 -0.0310087
-1.09984 1.13657 -0.0453751
-1.21717 1.28231 -0.222128
-1.75929 1.65933 -0.457562
-1.52534 1.47788 -0.357308
-1.63506 1.59748 -0.225818
1.13252 2.1247 -0.0717584
1.2849 2.2612 -0.271303
0.767443 2.19772 0.680237
0.889978 2.13426 0.293101
1.47457 1.99445 0.057904
1.21577 2.02202 0.0851828
1.29292 1.90422 0.280384
0.110672 1.68273 1.33771
0.255495 1.82762 1.27217
0.623248 1.59551 1.04267
0.460871 1.72708 1.20223
0.462948 1.43685 1.19988
0.454257 1.99676 1.20714
0.639472 2.13517 0.996012
0.954563 1.0541 0.277507
0.942295 1.16128 0.374363
0.850114 0.851993 0.409214
1.20986 1.66256 0.321032
1.13811 1.40937 0.396757
1.37645 1.50989 0.225336
0.660377 1.15721 0.789761
0.839389 1.31628 0.561281
0.764904 1.44734 0.839313
0.769006 1.96741 0.759926
0.766088 1.71848 0.808487
1.03739 1.81823 0.57206
-0.142532 1.39609 1.22194
-0.00742739 1.55595 1.33723
-0.392545 1.06925 1.05395
-0.295713 1.21843 1.20954
-0.0421128 0.659611 1.08416
-0.145878 0.956661 1.20753
-0.117006 0.416722 1.05784
-1.05295 0.397854 0.655678
-0.834665 0.525037 0.745
-0.396814 0.11498 0.99819
-0.663564 0.311904 0.954441
-0.646525 -0.015004 0.872772
-0.639968 0.714809 0.847426
-0.507045 0.900474 0.954131
-0.0114629 -0.290862 1.46487
-0.260998 -0.269468 1.65487
-0.105758 -0.252922 1.31135
-0.139916 0.136242 1.29878
-0.176106 0.0269545 1.48871
-0.0459034 0.0725791 1.40256
-0.260658 -0.175144 1.15452
-0.254399 -0.0857856 1.38026
-0.261345 -0.0078062 1.18916
-0.311129 0.60344 1.0072
-0.256232 0.219702 1.08397
-0.183797 0.311521 1.09133
-1.27098 0.263426 0.307754
-1.24589 0.321255 0.541305
-1.06625 0.420127 0.0220807
-1.18075 0.286556 0.128254
-1.30486 -0.508713 0.435786
-1.2731 -0.229729 0.288501
-1.40184 -0.572234 0.242389
-0.906152 1.14856 -0.345529
-0.909174 0.883917 -0.202711
-1.15805 -0.401987 -0.0897441
-1.0064 0.229948 -0.109046
-1.07119 -0.212224 -0.182663
-0.943352 0.714545 -0.123115
-0.993401 0.544371 -0.0446118
-1.39814 -1.47984 0.147994
-1.30469 -1.27133 0.123937
-1.50126 -1.42861 -0.134435
-1.27716 -0.823397 0.202105
-1.23716 -1.04858 0.198828
-1.27357 -1.03214 0.311885
-1.11207 -0.969076 0.0707354
-1.1778 -1.03004 0.140173
-1.23114 -0.768987 -0.0500652
-1.27326 -0.170236 -0.0222551
[...]
POINT_DATA 642
SCALARS Mean_Curvature double 1
LOOKUP_TABLE default
-0.722519
-0.259157
10.5013
6.73814
-2.03683
-0.0341702
-0.00996994
8.13079
-1.18408
-0.860611
-0.931797
0.0467455
1.76039
3.35381
2.56646
2.752
2.90899
0.219371
0.186668
-0.801563
0.108295
-0.182392
2.50847
-1.59446
-0.99907
-1.12146
-1.32989
-0.985532
0.0719421
0.027864
4.93128
0.128917
3.01269
-0.835712
4.27669
2.15173
0.344158
-0.292838
-0.830692
-0.353107
1.04995
-1.29738
-1.19164
-0.625452
-0.795502
-1.12458
-1.35743
-0.677723
0.699255
1.98125
-1.44059
2.95596
-0.944662
0.0857499
1.92993
-0.469343
0.970964
-1.3756
7.55205
0.232964
0.393448
5.90617
-0.167614
-0.666731
3.43163
1.16022
1.82098
-0.15526
0.243234
4.81036
6.467
-0.9457
1.7939
0.111088
5.2851
0.674694
-0.455089
2.12674
2.3975
-0.760161
1.22926
3.44312
-0.363793
-1.04808
-0.218442
0.616137
3.0968
-1.15894
7.60316
9.43908
8.40689
-1.34678
3.39763
-0.169785
-0.286731
1.73092
4.08226
-1.0949
0.130607
0.0509501
5.62625
0.0392954
-0.353942
0.258781
0.145517
0.106225
0.950575
7.04062
1.69556
-0.684377
4.03869
3.17865
1.19835
1.18022
5.68353
4.02133
1.22399
4.39709
-0.332207
3.13047
3.13443
5.72505
6.55533
-0.59367
-0.277203
2.1357
-0.80178
4.50254
-0.4318
-1.146
2.18458
-0.0177024
0.0761696
-0.694345
-0.199786
-0.292379
-2.37566
-0.276843
-0.570086
-0.428416
0.7485
-0.210987
-3.54389
-0.0518973
-0.393465
8.01343
-0.722697
4.3524
0.823641
0.868063
3.79325
-0.664069
2.09786
-0.579227
3.29893
-0.6639
-0.140835
0.253574
0.0329761
0.552024
2.33628
4.37184
-1.17998
-1.41398
-0.474537
1.44563
1.78171
4.17964
0.880185
1.87711
0.8047
-0.388993
-1.09732
-0.708964
1.57634
1.51311
-1.65297
2.25235
-1.3642
0.926896
4.3792
0.128427
3.85948
1.67327
2.36821
0.881619
3.20286
1.36638
1.79222
2.10792
2.27239
3.52449
-0.324595
-0.739834
0.969861
3.32105
1.33225
1.4987
2.25721
4.33482
-1.71657
3.33416
2.51863
3.46402
2.95181
3.83813
-0.479064
-0.92992
-0.644309
-0.160902
1.3048
-1.05505
2.52843
1.93145
2.36583
1.01585
1.33931
2.49226
-0.822911
-0.202062
-0.100556
-1.33135
0.327696
7.55012
-0.0715625
0.442016
-0.602313
5.13429
0.257208
0.706903
0.826711
0.102657
0.749109
-0.707569
3.07072
-0.766276
2.40303
-0.0307864
-0.395405
3.77708
-0.521151
3.22089
0.562486
4.77977
3.40524
-1.32284
0.338332
8.77892
4.24729
2.53007
6.02215
0.402754
-0.067515
-0.420719
0.00195652
-0.157312
0.330443
-0.836502
6.75943
10.718
1.23603
4.35881
-0.115185
5.38825
-0.534199
3.17023
2.05198
2.66533
7.82379
6.51823
4.3845
4.54076
4.19072
1.28089
3.4802
-0.0719956
1.2504
0.16243
-0.440634
0.182779
0.858937
4.33396
-0.773233
-0.907155
2.56086
1.54884
-0.553816
-0.497401
1.80609
1.38457
1.63752
3.35036
-0.885929
3.07813
0.58189
-1.47621
0.771069
-1.49616
4.35537
3.68439
0.49793
1.11991
2.39039
3.853
2.95504
1.9493
-0.866233
-0.602054
-0.847973
-1.51258
2.3526
3.50675
-0.194541
-1.55562
1.95213
-0.722555
-0.478923
3.0959
-1.50319
5.59478
-2.24662
2.90304
-1.30923
7.32579
-1.60466
1.85389
0.288755
-1.18696
2.74368
-0.388357
0.544546
0.752148
6.68411
7.91659
-0.49082
1.78743
5.64606
2.243
0.556944
4.03674
-1.39223
-1.73118
-0.900593
1.38984
3.79522
5.12128
-0.71929
3.15449
1.5496
-0.69346
5.7843
-0.227184
-0.477427
0.429862
-0.628708
12.5466
-0.177551
-0.411214
0.762751
3.17943
8.82487
-0.825593
1.42394
1.11369
-1.65778
-1.99653
11.3848
10.8461
0.357182
4.91672
0.0269266
-0.160746
-0.245454
-0.349425
0.169032
-0.0703829
0.0760823
5.23158
-0.127506
0.199888
0.101695
1.30804
-0.0699557
0.155078
-0.0609586
-0.00422533
-0.0594066
0.246067
0.207631
-0.205325
0.0784493
0.299828
-0.0518027
0.134535
0.112494
0.112666
0.236464
6.30432
0.204962
-0.31977
-0.271917
-0.30208
0.0544398
1.65327
5.05523
6.01785
1.18272
4.24574
2.91927
4.9518
3.38322
4.61116
8.04085
0.879735
1.11294
-0.347643
2.3356
0.673708
6.18454
-1.38808
7.22545
-1.2742
-1.10661
4.10756
8.62305
5.49311
-2.28264
-0.170356
5.26811
-0.323671
4.61753
2.48031
1.705
4.51857
-1.25383
-1.21513
-0.337616
0.393135
3.23307
-0.802538
0.0870187
-0.412982
2.9988
0.585031
0.061338
5.0588
-0.571423
-0.385787
-0.783456
3.1512
2.58015
4.29992
3.589
-0.155096
1.716
2.93697
-0.442913
4.57271
-0.408949
-0.136088
-0.267481
-0.0907145
-0.651453
-0.452308
-0.519221
2.33489
5.9808
3.80074
4.48186
-0.0860412
1.7471
-0.848901
6.39872
2.34278
6.79043
-0.354379
0.0668332
0.222575
10.3368
5.16063
-0.241206
4.85093
-1.22608
1.60318
2.00022
0.967366
8.63406
0.626418
-2.40992
3.38915
3.29701
0.183405
-0.0396782
-0.356691
-0.13324
-0.116087
0.140394
-0.268519
-0.560308
-0.0386552
-0.316864
-0.369297
0.161926
0.0286717
-1.28273
-1.5376
-1.03328
-1.09078
-1.79107
7.94042
7.2403
0.0789891
0.0816999
0.834575
0.218084
-0.414564
-0.215664
-0.634818
-0.544565
-0.273272
-0.415186
0.286975
-0.137971
2.31757
-0.0750148
-0.462844
-0.519627
-0.90042
2.36192
2.82329
4.24008
9.35559
7.33318
-1.82608
6.0948
2.45749
-0.481512
-0.540371
-0.441786
5.15818
-0.706825
5.98225
-0.51073
-0.827251
0.251926
0.634654
-0.832455
-0.50537
-0.28585
7.31751
1.3246
0.891736
7.95708
-1.11597
1.02723
7.47395
1.36374
-0.461556
0.31995
-1.44108
-0.707544
-0.834649
-1.69881
-1.36729
-3.04966
4.30725
-0.510288
-1.33721
3.59463
-1.37036
6.54521
2.90116
3.12664
-1.55938
2.15415
-0.157643
-0.582625
-0.396119
-0.260295
-0.656103
1.93136
4.71386
1.03867
-0.848531
-1.21325
4.04783
-0.798076
1.6811
-0.149105
-1.038
-0.549697
1.51453
-0.598014
7.17418
4.96544
-1.53023
-1.88432
7.25522
-0.136911
-0.472653
-0.206157
-0.858613
-1.98789
4.09933
-1.29328
1.56837
-0.28576
-0.0159077
-0.176347
-0.0647224
-0.139511
0.28878
0.0526125
0.1476
-0.05819
0.126769
5.45413
-0.294819
0.322005
4.21944
-0.0334755
0.187467
0.0411902
-0.109656
-0.773276
0.570764
4.16839
3.47525
3.2594
0.00325051
0.0265854
6.48912
7.62802
1.3719
0.809577
3.99892
4.3622
2.59064
3.05958
2.22337
2.92534
4.00403
SCALARS CoVolArea double 1
LOOKUP_TABLE default
0.0322423
0.0195889
0.0418516
0.0102674
0.0171523
0.0174637
0.040648
0.054163
0.0185772
0.0244535
0.0134695
0.037503
0.0779496
0.0694177
0.0855727
0.0959452
0.0989903
0.0529032
0.0430534
0.0217115
0.102469
0.0453336
0.0733812
0.0611589
0.0654578
0.0314461
0.036536
0.0486378
0.0634787
0.0437371
0.111436
0.0302851
0.0488683
0.0675966
0.079802
0.0654446
0.0496782
0.0356507
0.0305088
0.090351
0.0470861
0.0418276
0.0752385
0.0886243
0.0966772
0.0807761
0.0851439
0.071679
0.0534387
0.075822
0.0530988
0.11802
0.0849234
0.0574408
0.0931969
0.0824478
0.106762
0.0905739
0.0796253
0.0488245
0.0318432
0.119928
0.0723416
0.0883932
0.0832522
0.0568748
0.0841001
0.0225562
0.0286888
0.0515291
0.091365
0.0309462
0.0821436
0.0406341
0.0593379
0.053552
0.0673974
0.0864211
0.0663818
0.0520817
0.0705453
0.0477871
0.0839431
0.0832126
0.0601498
0.0601614
0.100442
0.076725
0.0740793
0.0305493
0.0415644
0.0717898
0.0879244
0.0529551
0.0513117
0.0470491
0.0304795
0.0273869
0.0182253
0.0272126
0.0620861
0.030874
0.0899728
0.0588407
0.126423
0.0251872
0.0620391
0.0800455
0.0479
0.0255392
0.0358704
0.0335664
0.0318896
0.0661925
0.11134
0.097789
0.0620673
0.0840401
0.0492144
0.0664695
0.0343269
0.0954465
0.0761812
0.0588605
0.0424426
0.0722302
0.0585527
0.116096
0.0296607
0.0260534
0.0355883
0.0410083
0.0398248
0.0399656
0.0429405
0.0312314
0.0240933
0.0875903
0.036986
0.0482507
0.0546383
0.0358674
0.0377551
0.044413
0.0541572
0.0709461
0.0410577
0.0333644
0.0886354
0.0613241
0.0673608
0.0674455
0.074245
0.0406887
0.0263887
0.0355127
0.0477681
0.102259
0.0585785
0.0442754
0.0546307
0.108165
0.05784
0.0877992
0.0735505
0.0848191
0.0866624
0.0777823
0.0902554
0.0902978
0.0856165
0.0632854
0.0777044
0.0555782
0.0743119
0.0810911
0.0744165
0.0750185
0.0857365
0.0862382
0.0340916
0.048264
0.0355479
0.0786666
0.0629699
0.0727641
0.063837
0.0610297
0.0696561
0.0889696
0.0822384
0.0888226
0.0939329
0.0659984
0.100339
0.10591
0.0878192
0.105585
0.114937
0.034507
0.0513084
0.0997321
0.0761732
0.0831981
0.0724722
0.0922093
0.0451106
0.0859435
0.0529807
0.11166
0.101022
0.0973717
0.0978567
0.101557
0.103935
0.104851
0.104618
0.115687
0.0634399
0.0466924
0.0781076
0.0710652
0.0316487
0.0467697
0.0597596
0.0268318
0.0473271
0.0802128
0.0424126
0.0274529
0.0916225
0.105109
0.0638549
0.103077
0.0895447
0.0766713
0.104575
0.0615944
0.0700932
0.111094
0.0959978
0.091612
0.100598
0.0791089
0.0656285
0.05291
0.039599
0.0533822
0.107019
0.0734341
0.0960703
0.0329866
0.0310736
0.022852
0.0202448
0.0223916
0.0363966
0.040604
0.0282625
0.0383341
0.0265124
0.101384
0.0624835
0.075426
0.0188914
0.0365411
0.037803
0.0426903
0.0564369
0.0932581
0.0744483
0.113119
0.103419
0.0747057
0.0695383
0.0300292
0.0455203
0.0471873
0.0505106
0.0413256
0.062398
0.0899028
0.0583946
0.0628245
0.0640406
0.0590745
0.0531151
0.0510197
0.0473999
0.0758757
0.0520365
0.0610399
0.0684647
0.0435584
0.0866792
0.089021
0.0695311
0.0738924
0.075047
0.0346159
0.0485282
0.0693629
0.0602148
0.0641196
0.06597
0.080022
0.031662
0.0615256
0.0503662
0.0760287
0.0704512
0.055423
0.0845582
0.0834288
0.0796087
0.0805337
0.0788946
0.0863943
0.0524593
0.0380128
0.0690336
0.0633463
0.0530572
0.0622443
0.042024
0.0797021
0.089613
0.0670844
0.0935839
0.088255
0.0852591
0.0737801
0.0458834
0.071204
0.0352054
0.0275674
0.0486656
0.0369046
0.0464378
0.0413274
0.0425967
0.0614363
0.0472127
0.0361979
0.0963352
0.0855033
0.0614577
0.0803491
0.0627807
0.0812906
0.0583307
0.0256997
0.0380921
0.0399313
0.0459583
0.0594919
0.0370797
0.0504137
0.0559044
0.0370461
0.0554998
0.0360479
0.0258457
0.0379741
0.0298005
0.0253387
0.0364189
0.0634743
0.0427647
0.0452687
0.0292503
0.0234404
0.0140338
0.0186206
0.0293184
0.0244309
0.0293777
0.0669348
0.0332133
0.0451577
0.0347082
0.0543048
0.0256591
0.0202906
0.0791184
0.124792
0.111255
0.0527269
0.0907089
0.0682878
0.0831367
0.0938266
0.0611765
0.020444
0.0390526
0.0312927
0.0623313
0.0948243
0.0307177
0.0385287
0.0393823
0.033902
0.0308532
0.0426487
0.0500144
0.112632
0.0689088
0.109581
0.0364029
0.0322803
0.0252708
0.0271582
0.0203551
0.0291075
0.0272186
0.0238891
0.0541157
0.0362655
0.0808026
0.0323488
0.0550313
0.0305633
0.0267413
0.0625933
0.0555597
0.0563474
0.0483282
0.0392758
0.108652
0.0819967
0.0848191
0.0659715
0.0844906
0.0599785
0.0724209
0.0780304
0.0883299
0.0627842
0.0662463
0.0563647
0.0368749
0.0418608
0.0255215
0.0672516
0.0550787
0.0558141
0.0477488
0.0529928
0.0646414
0.0646702
0.0678248
0.0704808
0.0887569
0.0342304
0.0923331
0.112017
0.0707822
0.109519
0.0682266
0.0397187
0.0532796
0.0391466
0.0529883
0.0555116
0.0516515
0.0578155
0.0629648
0.0956249
0.0735375
0.0442796
0.0740988
0.055306
0.106638
0.0982003
0.0594855
0.0651374
0.0453426
0.0531927
0.0418352
0.0174233
0.0461969
0.0444596
0.0282284
0.0274331
0.0329217
0.0491406
0.0538587
0.0363095
0.0387444
0.0338425
0.050813
0.0513674
0.0428358
0.0453814
0.0446215
0.0356359
0.0404387
0.0320884
0.035229
0.0419731
0.0373847
0.038216
0.0380035
0.0349927
0.0206608
0.0143034
0.026379
0.0248454
0.0344694
0.0307956
0.038734
0.0738431
0.0491713
0.0625658
0.0513167
0.0937984
0.0344896
0.0288847
0.0350991
0.0390891
0.0299354
0.0496771
0.0536542
0.0576027
0.05793
0.0492954
0.0661512
0.0318396
0.048202
0.0419399
0.0220924
0.0444299
0.0274379
0.0286602
0.038923
0.0316175
0.0485254
0.0505857
0.0485124
0.0424634
0.0487906
0.0586716
0.0641776
0.0364539
0.0557728
0.0815925
0.040883
0.0563421
0.0504419
0.059645
0.0640154
0.0543155
0.0402748
0.0503026
0.0338744
0.0399723
0.0268727
0.0901745
0.0826968
0.0953156
0.0998409
0.078003
0.052298
0.0412655
0.0618871
0.06136
0.0698583
0.0587608
0.0708441
0.0414183
0.0893984
0.0859902
0.100864
0.0638045
0.0524265
0.0438581
0.0736853
0.0552988
0.0585926
0.0627033
0.0950517
0.0589141
0.0718867
0.0889762
0.0850093
0.0667148
0.0756228
0.0642138
0.0560522
0.0342573
0.0404886
0.0561396
0.0501095
0.0316969
0.0283919
0.0206656
0.0257403
0.0327873
0.031092
0.0383295
0.0283408
0.0516464
0.0459728
0.0330695
0.034067
0.0394657
0.0290341
0.0771888
0.0397874
0.0270214
0.0326336
0.12502
0.0778085
0.108041
0.119525
0.11452
0.094771
0.0453757
0.0562646
0.0690565
0.0645401
0.0855308
0.0741329
0.0587516
0.0381521
0.0423367
0.0414515
0.0434028
0.0530187
0.0339249
0.0664645
0.0466227
0.0440354
0.0425931
0.0720784
0.0854009
0.0958775
0.100408
0.0952871
0.0535518
0.0794452
0.0767935
SCALARS SignedDistance double 1
LOOKUP_TABLE default
1.13771
0.783008
0.0306186
-0.09543
0.0726868
-0.000482562
1.2573
0.113614
0.349429
1.21264
1.16515
-0.015909
-0.00551893
-0.00445023
-0.0346096
-0.0127389
0.0334738
1.24314
1.24589
1.1051
0.00295194
1.29469
0.049956
0.652414
1.19787
0.136227
0.0257262
0.00847874
1.15227
1.33049
0.0423005
1.17998
0.0150353
1.21972
0.0179188
0.0533493
1.30868
0.228897
0.626598
1.17302
0.0178539
0.426936
0.00977984
-0.0284069
0.0420393
1.14559
0.0326346
1.1477
-0.0434586
0.0124005
0.00244592
0.0163746
1.02091
-0.0464191
-0.00771739
1.13717
-0.0123052
0.401862
-1
1.22811
1.17926
-0.204867
1.26508
-0.00977152
-0.012489
-1.00351
-0.0203265
1.34014
0.0546861
0.0736044
0.220212
0.951256
0.156519
1.00708
-0.40297
0.11186
1.2269
-0.0121939
0.12131
0.0109516
0.00686152
0.136183
0.00640492
1.15604
0.00125268
0.010873
-0.000304913
0.0723064
0.0643378
0.0845952
0.0385011
-0.0181007
-0.00298058
1.21211
0.23328
0.275868
0.0320487
0.681826
1.23497
1.19461
0.0653818
1.32839
1.12847
1.2114
1.1434
1.16704
0.213935
0.016545
-1.01089
0.459168
0.165353
0.0375028
-0.0370847
-0.0155498
0.0150807
-0.0159638
0.139913
-0.010945
1.22778
-0.0174009
0.0829712
0.170465
-0.130374
1.49191
1.30444
0.0846244
1.16492
0.00646711
0.465183
0.37812
0.202929
0.601686
1.32551
1.49196
1.27469
0.0499088
0.305026
0.9417
0.591316
1.25758
0.0643149
1.0862
0.0297023
0.0710701
0.253219
-0.0065496
1.2861
0.0739918
-0.0166975
0.00494213
0.0182256
0.742246
0.00155379
0.501107
0.0315697
0.552761
1.22693
1.16722
0.904727
-0.0868835
0.0269461
0.0532988
0.639214
1.10465
0.374623
0.00635183
-0.0099422
0.0537517
-0.0152937
0.0307378
0.000853666
0.072031
1.19092
1.16474
0.00817679
0.00450404
0.228985
-0.0298163
1.05448
-0.00246842
0.0197946
-0.0067052
-0.00644732
0.0335132
0.0179918
-0.0104249
-0.0133161
0.00164998
0.0214362
-0.0158546
-0.0306002
-0.0203301
0.0974884
1.15916
-0.0180337
0.0181355
0.0105097
-0.0202633
-0.00835868
0.0205566
-0.0411705
0.00485437
0.0304749
-0.126744
0.0292678
-0.0113402
1.28797
0.736091
1.2135
0.00025275
0.0476531
0.0299417
-0.0145885
-0.00180456
-0.0247382
0.011971
0.0078371
0.00425653
1.19408
1.1814
0.00126874
0.649598
1.23878
0.297058
0.773414
0.883353
1.29136
0.237104
0.678652
1.20597
0.21326
-0.00410156
0.182864
0.0112923
-0.113061
0.778343
-0.0106961
1.27955
1.20064
0.00648461
0.373865
-0.0253354
-0.0222705
0.144196
0.0473124
0.163141
0.062992
-0.0422531
-0.0113534
0.0800458
-0.0601973
0.52952
1.32922
0.0623686
1.13303
1.15938
1.17969
0.81265
0.0193971
0.02617
0.135817
0.00778677
0.182425
0.0369759
0.662475
0.169789
0.168056
0.2581
0.205957
-1.00693
0.158474
0.0733639
0.0711319
0.0132339
0.0378213
1.01731
0.119076
0.197245
0.741343
1.18992
0.0671784
-0.197056
1.2842
0.174189
0.0427601
0.0370072
1.35188
1.2028
0.120656
-1.01365
-0.106181
0.0114781
1.13988
0.106146
0.0652691
0.0941392
0.0233673
0.599478
0.00680393
-0.00667892
-0.00435357
-0.000290815
-0.00114693
-0.0134893
0.0108805
-0.0392376
1.26448
1.17023
1.20354
0.0389592
-0.0803519
-0.397154
0.146363
0.215709
0.0315897
0.02487
0.0398337
0.00504525
0.00412191
-0.0145665
0.418763
-0.012398
0.0305133
0.0102678
0.720678
0.0403221
0.0325713
1.04894
-0.00423702
0.11363
0.0714541
-0.0182323
0.206476
0.154845
0.0404998
0.146054
-0.0455401
-0.875621
0.151446
0.0450051
0.166585
0.39377
0.178412
0.0363244
-0.0498053
-0.0933013
0.987314
0.106051
0.0600003
-0.0216438
-0.000503582
1.23307
1.37146
-0.0361656
0.917979
0.0561189
1.33838
1.20941
-1
0.194992
0.110525
0.00589733
-0.0761075
-0.0112645
0.0391941
0.0663655
0.0108248
0.00527853
0.00281302
0.0131773
1.05503
1.06074
1.15165
1.10481
1.23246
1.20976
1.20466
0.112494
1.13253
1.25265
1.19375
0.208006
1.33757
1.19939
1.1657
1.21558
1.10156
1.15554
1.22866
1.21935
1.24627
1.14697
1.29089
1.26813
1.30672
1.26527
0.140164
0.0526336
1.20357
1.21996
1.25136
1.23995
1.08355
0.064126
0.129269
-0.0189635
-1.0441
0.115325
0.0132938
-0.0194865
0.0703021
0.0350593
-0.0138113
0.15176
0.0830156
0.785992
-0.267176
-0.155026
0.0578232
0.818875
0.233942
0.896271
0.0313301
0.0847823
-0.0335539
0.0105873
0.00808256
-0.0332495
0.00586422
-0.00609929
-0.205371
0.060695
-0.0083038
0.103257
1.13448
0.0957111
0.0580034
-0.168518
0.00338929
0.0902975
1.31604
1.37553
0.0117835
-0.0032424
0.349817
0.077819
1.19388
1.33769
1.20929
-0.0323759
0.140432
0.0042751
-0.00366274
-1
-1.05719
-0.0111597
0.354125
0.0203313
1.17741
1.27856
1.41472
1.27689
1.44431
1.22227
1.23792
0.277833
-0.165817
-0.0803747
0.0360761
1.37368
0.0334343
1.1163
-0.00540513
-1.00412
0.168825
1.17431
1.32476
1.22428
0.120356
0.306021
1.15252
0.143315
0.387929
0.268724
0.0616744
-0.912208
-0.105652
0.243395
-0.0270697
-0.0827484
-0.00971087
1.30699
1.37391
1.45897
1.31252
1.22674
1.40721
1.20056
1.15351
1.34888
1.18611
1.43295
1.31423
1.29216
0.888892
0.436709
0.789258
0.26663
-0.00606476
-0.0116982
0.0100842
1.20395
1.23658
0.138438
0.653358
0.934287
1.10165
0.850016
1.15793
1.2337
1.16668
0.0131715
0.280282
0.0208604
1.19469
1.21131
0.534566
0.407714
0.0248988
0.0190565
-0.146783
-0.0175634
-0.00756263
0.0146069
0.0144244
0.0822806
1.20222
1.30739
1.27351
-0.0351728
1.11431
0.018306
0.425245
1.27886
-0.0265117
-0.0113691
1.22334
1.17671
1.26185
-0.00170441
0.0571143
0.00644563
0.0545344
1.12603
0.0694598
-0.226277
-0.0134069
0.0626939
-0.00794885
0.874071
0.0151345
0.398451
0.0110948
0.963863
0.0959808
-0.0266427
0.0269015
0.958552
-0.0108736
0.180973
0.0297407
-0.0573877
-0.000113425
0.027563
-0.0174141
1.27643
1.25593
1.30057
1.28524
0.102532
0.00569557
-0.0379974
0.0295026
0.0488238
0.820568
0.033412
0.0545458
0.000673033
1.11254
0.654389
1.1446
0.16181
0.764111
0.153159
0.0250663
0.453005
0.200268
0.00994565
1.33832
1.17128
1.33059
1.13786
0.311175
0.0101616
0.0571729
0.0996237
1.03187
1.10214
1.18676
1.16744
1.25231
0.662116
1.22842
1.10402
1.15177
0.94998
0.0300522
1.27786
0.675596
0.135109
0.550153
1.16495
1.19102
1.2399
1.17235
-0.0392292
0.0878674
-0.136248
0.0894342
-0.025336
0.0953645
0.0422549
0.0597007
0.0651755
0.0288528
0.0511694
0.034604
-0.0569127
-0.102924
-0.0237395
-0.00077308
0.0256764
