# vtk DataFile Version 4.2
vtk output
ASCII
DATASET POLYDATA
POINTS 642 double
-1.59423 3.19279 -0.216277
1.65201 3.25401 -0.167475
-1.69501 -2.04706 0.00905318
1.58824 -1.99552 0.0199709
0.00375469 -0.916552 2.35767
-0.00337651 2.17911 2.2193
-0.0731915 -0.954533 -1.91952
-0.146323 2.26952 -2.39241
2.42522 0.952424 -1.4812
2.19836 0.719535 1.19951
-2.50705 0.850016 -1.62329
-2.1876 0.603291 1.24709
-2.26771 2.10434 0.638731
-1.23163 1.5449 2.07388
-0.805735 2.98199 1.36346
0.822082 2.98978 1.35944
-0.0184909 3.63508 -0.114647
1.08288 3.17635 -1.55278
-1.07727 3.19046 -1.60452
-1.61893 1.69407 -2.51342
-2.49261 2.26024 -1.07367
-2.77799 0.769408 -0.148493
1.21916 1.57524 2.04861
2.32826 2.14047 0.674425
-1.26373 -0.357199 2.16306
-0.0200417 0.520531 2.66806
-2.41698 -1.01811 -0.814057
-2.35841 -1.05437 0.77521
-0.182496 0.910601 -2.58796
-1.50246 -0.0456408 -2.09793
2.52383 2.27673 -1.02233
1.5966 1.7548 -2.30497
2.2019 -1.01259 0.7588
1.22804 -0.36901 2.11741
0.922585 -1.85818 1.45124
-0.965041 -1.87548 1.44407
0.00190779 -2.42152 0.0236267
-0.997609 -1.81675 -1.32815
0.930838 -1.79449 -1.27274
1.3448 -0.104055 -1.88446
2.16583 -0.973189 -0.708526
2.75967 0.859168 -0.106135
-2.01887 2.73295 0.227923
-1.5753 2.62245 1.09303
-1.22208 3.17102 0.608102
-1.77266 1.10373 1.71339
-1.77062 1.88281 1.47813
-2.29882 1.40733 0.976873
-0.377134 2.62532 1.91191
-1.07732 2.34105 1.80809
-0.599355 1.92916 2.243
-0.445497 3.4318 0.70759
-0.861657 3.52978 -0.155526
0.3778 2.62558 1.90924
0.000243546 3.10784 1.45117
0.944049 3.52182 -0.145323
0.456565 3.43374 0.710942
1.31152 3.18996 0.56137
-0.537827 3.58065 -0.854122
-1.41878 3.3175 -0.875781
1.45524 3.35822 -0.827035
0.543858 3.55863 -0.845292
-0.656162 2.77343 -2.13439
-0.0330429 3.28081 -1.57058
0.590069 2.77023 -2.05784
-1.89182 2.85741 -1.40676
-2.09953 2.85651 -0.629665
-0.950814 2.04978 -2.56528
-1.41499 2.55259 -2.18125
-2.62399 1.50823 -1.44505
-2.19803 2.05093 -1.89028
-2.20899 1.26143 -2.11445
-2.51593 2.24899 -0.170603
-2.74022 0.806925 -0.940786
-2.79063 1.53629 -0.605818
-2.6648 1.50087 0.237053
-2.5575 0.685014 0.581828
1.6485 2.64247 1.05143
2.05745 2.80544 0.248478
0.594239 1.93563 2.23646
1.08719 2.3495 1.80327
2.36127 1.44703 0.963159
1.82739 1.90197 1.42544
1.80231 1.13547 1.65342
-0.619272 1.00823 2.47771
-0.00406521 1.44349 2.48461
-1.78859 0.0537348 1.74021
-1.23351 0.547127 2.24294
-0.0183502 -0.216445 2.61774
-0.634155 0.10946 2.57363
-0.646458 -0.668542 2.37977
-2.58184 -0.444813 0.333744
-2.298 -0.35318 1.04963
-2.40585 -0.0791086 -1.21231
-2.60994 -0.356501 -0.45566
-2.16333 -1.64468 0.419527
-2.56669 -1.11692 -0.0184151
-2.17977 -1.63972 -0.413825
-1.63279 0.882808 -2.47921
-2.10059 0.42564 -1.9792
-0.197389 1.60558 -2.61039
-1.01492 1.3233 -2.68694
-0.845005 -0.614558 -2.02153
-0.991695 0.515988 -2.50555
-0.112131 0.0934313 -2.32657
1.41633 2.54148 -2.09864
0.913196 2.08849 -2.37462
2.14539 2.90038 -0.572214
1.89958 2.86079 -1.36524
2.13411 1.34763 -1.94627
2.1761 2.06384 -1.81477
2.59211 1.56649 -1.34988
2.0356 -1.58599 0.425575
1.69686 -1.50991 1.18419
1.33975 -2.03651 0.713771
1.76272 0.080076 1.70369
1.80276 -0.779098 1.50727
2.20786 -0.22253 1.06556
0.463751 -1.47671 1.99423
1.16401 -1.21152 1.86922
0.618892 -0.70877 2.34456
0.508846 -2.293 0.799053
0.911815 -2.32311 0.00514401
-0.462018 -1.46541 1.97691
0.00706176 -1.98839 1.51937
-0.975809 -2.322 0.0131913
-0.535528 -2.30528 0.795427
-1.41782 -2.07113 0.706053
0.537763 -2.25198 -0.682266
1.31919 -2.02179 -0.637728
-1.4217 -2.04939 -0.656798
-0.564795 -2.26155 -0.705553
0.473281 -1.37879 -1.73052
-0.0274814 -1.8907 -1.32792
-0.561588 -1.38456 -1.77828
1.67961 -1.46728 -1.08075
2.01462 -1.57497 -0.367605
0.689103 -0.666319 -1.92953
1.17347 -1.14161 -1.63661
2.28293 0.107389 -1.12638
1.78452 -0.675548 -1.35793
1.99214 0.542806 -1.77726
2.34961 -1.06771 0.0353907
2.69569 0.915458 -0.864237
2.4904 -0.124655 -0.377258
2.45939 -0.264639 0.347343
2.57068 0.826122 0.595816
0.585488 0.108284 2.55277
1.21532 0.566064 2.1844
0.577011 1.03947 2.46755
-1.80065 -1.53909 1.19353
-1.24424 -1.22805 1.87051
-1.89169 -0.838486 1.49291
-1.31227 -1.14142 -1.76712
-1.84954 -1.50732 -1.16349
-1.98026 -0.709826 -1.49315
1.57981 0.98255 -2.22053
0.729292 0.47179 -2.33418
0.871644 1.34597 -2.47986
2.70199 1.52734 0.29179
2.79284 1.58248 -0.583605
2.54935 2.29982 -0.156553
-1.80588 3.00865 -0.0167069
-1.64012 2.95293 0.427605
-1.43907 3.19484 0.133835
-1.95483 2.36589 0.862119
-1.82101 2.67182 0.661903
-2.16992 2.43463 0.440158
-1.01884 3.09939 1.00586
-1.4092 2.9144 0.88054
-1.18894 2.83312 1.25481
-2.01528 0.835462 1.46254
-2.03842 1.28366 1.36984
-2.24037 0.998179 1.12691
-1.50343 1.72927 1.80905
-1.7802 1.5191 1.61361
-1.51508 1.33208 1.91477
-2.3096 1.75695 0.818876
-2.05656 1.65816 1.23125
-2.03779 2.00262 1.06558
-0.164162 2.38829 2.10454
-0.505275 2.30247 2.09113
-0.261591 2.08386 2.24921
-0.950316 2.68902 1.60752
-0.733701 2.51285 1.87447
-0.588353 2.82114 1.66865
-0.922905 1.74972 2.1838
-0.850493 2.14561 2.04866
-1.17449 1.95379 1.96419
-1.69984 2.26604 1.30387
-1.43849 2.12451 1.67271
-1.32941 2.50427 1.48485
-1.03688 3.38644 0.233099
-1.27336 3.36756 -0.192709
-0.638917 3.22932 1.06727
-0.834599 3.3295 0.681587
-0.466863 3.60862 -0.135644
-0.644373 3.51077 0.271781
-0.242378 3.57096 0.297317
0.158767 2.38766 2.10385
-0.00304879 2.66009 1.92691
0.419676 3.07746 1.42762
0.20294 2.89208 1.69993
0.596176 2.8244 1.66513
-0.204217 2.89074 1.70158
-0.413752 3.07411 1.42996
1.37625 3.39279 -0.168433
1.13352 3.38706 0.212028
1.54031 3.24754 0.12293
0.236922 3.56982 0.308041
0.676181 3.50744 0.281953
0.473196 3.60193 -0.113305
1.05471 3.1129 0.993648
0.873637 3.33655 0.67357
0.654993 3.23573 1.06591
-0.218717 3.29894 1.1099
0.223302 3.30046 1.10994
0.000674238 3.4696 0.727745
-1.13806 3.46185 -0.529085
-1.52659 3.27135 -0.511372
-0.281006 3.64995 -0.490238
-0.703715 3.59527 -0.50408
-1.27327 3.30337 -1.24305
-0.999369 3.4767 -0.885641
-0.830695 3.413 -1.24892
1.58133 3.32639 -0.4474
1.21293 3.46015 -0.494492
0.845794 3.39203 -1.21635
1.0444 3.4631 -0.85558
1.28956 3.30657 -1.20178
0.754669 3.57627 -0.492233
0.245693 3.64229 -0.48356
-0.405502 2.49596 -2.2904
-0.0730641 2.79672 -2.05652
0.227535 2.50637 -2.23801
-0.60586 3.25665 -1.60407
-0.364508 3.05436 -1.86098
-0.867535 3.00072 -1.90772
0.849145 2.98363 -1.83869
0.286205 3.05146 -1.83012
0.57762 3.23866 -1.56779
-0.0272791 3.59814 -0.848872
0.265931 3.46399 -1.22414
-0.305944 3.47631 -1.23454
-1.78827 3.12065 -0.782294
-1.83672 3.0678 -0.400548
-1.4875 3.07589 -1.53447
-1.66885 3.13491 -1.15824
-2.32034 2.59224 -0.851023
-2.03257 2.88174 -1.02241
-2.23717 2.57633 -1.24881
-0.584297 2.17907 -2.47416
-0.836146 2.43541 -2.38031
-1.54047 2.12375 -2.38958
-1.18223 2.30896 -2.4237
-1.2696 1.88963 -2.59071
-1.04758 2.6959 -2.1846
-1.25651 2.91592 -1.91349
-2.58173 1.13988 -1.56462
-2.45342 1.40425 -1.80365
-2.40767 1.03232 -1.84734
-2.39181 2.18167 -1.48703
-2.45763 1.79215 -1.67497
-2.59306 1.88173 -1.27871
-1.94671 1.47885 -2.33921
-2.22916 1.64934 -2.04657
-1.93116 1.87993 -2.24661
-1.67548 2.74007 -1.82239
-1.83183 2.32542 -2.06868
-2.0772 2.48204 -1.67017
-2.0977 2.80736 -0.196474
-2.53285 2.27974 -0.630223
-2.34228 2.56617 -0.411482
-2.29544 2.50698 0.0377524
-2.42314 2.19009 0.245399
-2.62592 0.839885 -1.34667
-2.70988 1.18473 -1.20315
-2.81529 1.16891 -0.373365
-2.79956 1.18346 -0.775344
-2.79179 0.790514 -0.543313
-2.73092 1.54589 -1.03959
-2.67707 1.90767 -0.856223
-2.46684 1.09755 0.765245
-2.36607 0.633866 0.966107
-2.49773 1.82042 0.440871
-2.51101 1.47373 0.599778
-2.69326 0.732219 0.215959
-2.64532 1.14051 0.392383
-2.75933 1.15297 0.0350221
-2.69707 1.90613 -0.39053
-2.76374 1.52622 -0.16958
-2.63027 1.87685 0.0451681
1.72403 3.01863 0.400907
1.84579 3.08037 0.0117058
1.22136 2.84746 1.24323
1.48815 2.9394 0.833357
2.21908 2.49142 0.473858
1.90258 2.72843 0.644243
2.03871 2.40458 0.8481
0.258184 2.08312 2.24816
0.508397 2.30225 2.08986
1.17106 1.97425 1.94966
0.852371 2.15323 2.04336
0.908773 1.77151 2.16909
0.742677 2.51461 1.87204
0.965779 2.69558 1.6037
2.29314 1.08293 1.08855
2.10515 1.32335 1.30334
2.04555 0.907777 1.39687
2.12183 2.02851 1.03731
2.13656 1.68496 1.18094
2.3755 1.78477 0.834599
1.52074 1.35513 1.87499
1.82719 1.54312 1.5527
1.51261 1.75601 1.77786
1.35709 2.51692 1.47376
1.45735 2.14268 1.65508
1.76532 2.28132 1.26153
-0.308037 1.69728 2.39029
-0.00288083 1.88562 2.34792
-0.94683 1.30868 2.29251
-0.632921 1.51358 2.36746
-0.0117153 0.952229 2.59225
-0.305367 1.21986 2.51615
-0.303482 0.733895 2.6205
-2.02462 0.341912 1.47629
-1.76874 0.587685 1.76422
-1.24263 0.0901577 2.24746
-1.49478 0.313617 2.03489
-1.53056 -0.173069 1.97038
-1.49873 0.839119 1.99669
-1.24525 1.06874 2.16889
-0.00921721 -0.604195 2.49855
-0.327237 -0.425069 2.54039
-0.288643 -0.810199 2.39597
-0.316589 0.315062 2.65847
-0.328029 -0.0441758 2.62991
-0.0214502 0.14783 2.67316
-0.967126 -0.520867 2.30005
-0.65095 -0.266917 2.5067
-0.949539 -0.108759 2.41027
-0.94802 0.770018 2.38756
-0.947057 0.30601 2.44361
-0.627043 0.511726 2.57132
-2.42797 0.103994 0.828259
-2.23878 0.173351 1.17334
-2.65778 0.163864 0.0988101
-2.57334 0.114753 0.454967
-2.33681 -0.74568 0.912632
-2.47012 -0.430396 0.693525
-2.49547 -0.796323 0.551507
-2.48674 0.527436 -1.49042
-2.6145 0.397087 -1.08335
-2.5422 -0.748223 -0.615402
-2.5407 -0.257323 -0.796824
-2.39869 -0.666757 -0.973033
-2.67317 0.291347 -0.697378
-2.69319 0.224164 -0.321209
-1.91825 -1.89667 0.189817
-2.21794 -1.661 0.00168265
-1.92087 -1.89345 -0.175591
-2.50125 -1.10555 0.386897
-2.42852 -1.38647 0.208371
-2.31434 -1.35461 0.615364
-2.35748 -1.34181 -0.631032
-2.44377 -1.3831 -0.221534
-2.53471 -1.08747 -0.42448
-2.6306 -0.432429 -0.0584334
-2.61387 -0.809041 -0.232994
-2.59684 -0.824954 0.163596
-2.16889 0.856212 -2.08853
-2.35202 0.663578 -1.7998
-1.6444 1.29598 -2.53383
-1.92976 1.07907 -2.34099
-1.80925 0.193012 -2.09027
-1.88449 0.648368 -2.25985
-1.58787 0.452134 -2.34788
-0.171882 1.97785 -2.51528
[...]
POINT_DATA 642
SCALARS Mean_Curvature double 1
LOOKUP_TABLE default
0.578527
0.921132
0.964732
0.816407
0.706219
0.745908
-0.0622684
0.346402
0.781344
0.315821
0.884928
0.394651
0.628813
0.621179
0.776862
0.757104
0.47712
0.89029
0.904263
1.15736
0.878011
0.724865
0.563975
0.787315
0.686216
0.952981
1.15717
1.05247
0.46507
0.245476
0.998346
1.19448
0.649514
0.46495
0.818348
0.740937
0.523763
0.775275
0.888425
0.160949
0.609056
0.769384
0.707574
0.620073
0.599508
0.481993
0.633527
0.52099
0.913373
0.73349
0.749147
0.689789
0.710037
0.855951
0.838391
0.670059
0.661728
0.523918
0.801404
0.743443
1.19119
0.631694
0.705281
0.526163
0.54853
0.849297
0.748104
1.03535
0.98908
1.0019
0.836155
0.944699
0.843142
0.650236
0.900017
0.772827
0.347289
0.50792
0.723659
0.759591
0.755857
0.683798
0.525762
0.458462
0.364821
0.673166
0.353769
0.58471
0.896526
0.920993
0.730052
0.481461
0.489916
0.203895
0.340086
0.98874
1.39328
0.966863
0.99165
0.801675
0.57617
1.0604
0.108595
0.66102
0.355691
1.2102
0.311416
0.908912
0.840238
0.960209
1.07689
1.04192
1.12261
1.02796
0.767311
0.350568
0.633657
0.433435
0.974146
0.782187
0.753486
0.724714
1.03758
0.456248
0.814235
0.648882
0.773594
0.774954
0.759629
0.86719
0.741119
0.778503
0.987379
0.440146
0.994091
1.1145
1.08907
0.220369
1.03632
0.183654
0.33713
0.616626
1.25738
0.729065
0.386304
0.446061
0.635971
0.866614
0.356877
0.492606
0.969902
0.908562
0.566643
1.0701
1.00551
0.41291
0.838409
0.423213
0.55557
0.938556
0.935856
0.756364
0.721468
0.395679
0.356863
0.504217
0.454066
0.669313
0.690803
0.613142
0.705024
0.348639
0.46612
0.196807
0.649484
0.559141
0.555173
0.599077
0.532252
0.532953
0.8794
0.787466
0.746062
0.772681
0.805264
0.85477
0.69121
0.736551
0.732661
0.622855
0.683757
0.700181
0.593394
0.605287
0.739852
0.656317
0.542598
0.643925
0.628565
0.844383
0.918002
0.815232
0.869274
0.819603
0.888226
0.840554
0.94797
0.435487
0.828049
0.612186
0.556857
0.470893
0.654369
0.607791
0.730555
0.775749
0.760906
0.706902
0.806794
0.637872
0.850245
0.885538
1.03324
0.763093
0.725062
1.07422
0.619348
0.60215
0.602159
1.0603
0.728828
0.741257
0.223393
0.197372
0.282289
0.68265
0.600495
0.732008
0.538006
0.583138
0.573814
0.586673
0.662206
0.735885
0.954245
0.780537
0.966059
1.03502
0.849823
0.905962
0.90788
0.33571
0.947728
0.918164
1.10374
1.30887
1.00127
1.07524
0.97743
1.01667
0.938831
0.942505
1.00601
0.806323
0.998996
0.986356
0.906194
0.797253
0.782961
0.820364
0.766525
0.749189
0.766428
0.811716
0.807379
0.636564
0.699011
0.780872
0.771458
0.688325
0.777732
0.781522
0.526291
0.395859
0.720173
0.658078
0.490057
0.676599
0.781776
0.897728
0.81708
0.858664
0.673134
0.76886
0.668843
0.523776
0.760008
0.666497
0.662812
0.748122
0.804323
0.719288
0.790583
0.671081
0.8001
0.758262
0.541929
0.49922
0.283025
0.632135
0.593461
0.789262
0.485739
0.468885
0.571239
0.678324
0.686033
0.51899
0.704967
0.769031
0.573955
0.625033
0.535441
0.64941
0.86692
0.374309
0.384865
0.715544
0.364942
0.381486
0.304271
0.569693
0.797033
0.823391
0.712623
0.972984
0.928332
1.00002
0.71481
0.838692
0.789542
0.499387
0.838225
0.869973
0.347468
0.364298
0.312156
0.350887
0.555902
0.501696
0.668848
0.636771
0.591256
0.772705
0.291121
0.470477
0.313735
0.273426
0.869505
0.972342
0.870443
1.24286
1.44861
1.21674
1.32336
1.46516
1.28885
0.395437
0.98464
0.917288
0.86808
0.853971
1.06977
0.924722
0.872861
0.866225
0.926079
0.422178
0.494559
0.416907
0.483266
0.53904
1.18551
1.2996
0.17064
-0.132288
-0.158019
0.860247
-0.0255295
0.187021
0.40013
0.366234
0.435496
1.13443
0.906556
0.969624
0.502991
0.398853
1.01804
1.04888
1.04846
1.19568
1.24707
0.902024
0.866273
0.876579
0.88609
0.899399
0.847316
0.950573
0.88478
1.01634
0.916936
1.11652
1.05879
1.02908
1.11953
1.10197
0.968739
0.834925
0.846307
0.992012
0.865467
0.826468
0.817324
0.910699
1.08893
1.30883
0.792009
0.825717
0.879699
0.376533
0.399934
0.390413
0.654176
0.63096
0.416148
0.622744
0.653439
0.640151
0.591639
0.447415
0.754084
1.03962
1.10892
0.864516
0.6569
0.570538
0.612049
0.726585
0.703928
0.879498
0.797082
0.823698
0.769944
0.781631
0.676086
0.615461
0.673281
0.617596
0.635024
0.845424
0.446178
0.859982
0.829502
0.789986
0.828422
0.753626
0.861245
0.644843
0.626718
0.71657
0.725135
0.75538
0.791666
0.823806
0.511171
0.663201
0.934114
0.863096
0.729795
0.876804
0.883247
1.04143
0.784246
0.856884
0.810038
0.794909
0.869653
0.77206
0.810902
0.58299
0.815889
0.720595
0.549052
0.638466
0.661877
0.779321
0.831104
0.65977
0.685199
0.593694
0.635576
0.671049
0.877969
0.851687
0.961127
0.893064
1.22047
1.09403
1.10799
0.190111
0.795279
0.31138
0.484223
0.287785
1.03923
1.11865
0.638574
0.57635
0.710559
0.388989
0.363052
0.395434
0.499708
0.136884
0.31501
1.12343
0.599025
1.01551
1.15897
0.96188
1.40909
1.52766
1.07728
0.750798
0.616039
0.645931
0.649852
0.756104
0.303751
0.416049
0.408503
0.293414
0.641855
0.429455
0.734093
0.447151
0.215574
0.476367
0.412833
0.577173
0.836543
0.719747
0.787567
0.912584
0.946548
0.341575
0.532203
0.396091
0.324641
0.608481
0.714179
0.818716
0.681896
0.652913
0.553035
0.752492
0.310802
0.81224
0.817468
0.774645
0.796015
0.959515
1.0656
0.646415
0.355913
0.597054
1.10268
0.946178
0.378086
0.821179
0.503493
0.49918
0.456909
1.06399
0.66017
0.954559
0.76805
1.03933
1.11821
0.826086
0.259506
0.803807
1.19894
0.949551
0.705166
0.688138
0.650224
0.171729
-0.00718133
0.187196
1.00027
1.09335
1.10291
0.981966
0.808488
0.560217
0.708514
0.895592
1.03675
-0.0260314
0.466343
0.421817
0.164073
0.247357
0.469349
0.769482
0.571985
0.565344
0.522153
0.335703
0.481999
0.383189
0.693413
0.880649
0.818383
0.849067
0.895057
0.872296
0.910937
0.971194
0.845718
0.879091
0.8083
0.811951
0.755687
0.870394
0.942902
0.980597
0.79237
0.900878
SCALARS CoVolArea double 1
LOOKUP_TABLE default
0.0971675
0.0776235
0.0840274
0.0834442
0.0912168
0.0685046
0.114968
0.134795
0.0724876
0.109541
0.0788706
0.117456
0.163547
0.156172
0.152667
0.157985
0.19359
0.175618
0.175616
0.157762
0.171417
0.19426
0.160198
0.153591
0.170493
0.1225
0.134523
0.127749
0.193962
0.197256
0.165529
0.126117
0.129732
0.175587
0.164463
0.173371
0.204151
0.163441
0.147351
0.232565
0.138722
0.15477
0.16687
0.185753
0.187847
0.179359
0.170806
0.161264
0.126519
0.153685
0.137553
0.183068
0.167097
0.129707
0.154682
0.176578
0.1888
0.188358
0.188808
0.156462
0.154344
0.208175
0.176009
0.225723
0.196176
0.187262
0.155262
0.132536
0.183579
0.146266
0.190179
0.145298
0.166854
0.176272
0.165101
0.147725
0.207309
0.195564
0.156138
0.134078
0.154451
0.133495
0.178463
0.184289
0.177404
0.148323
0.202039
0.169414
0.123591
0.132345
0.158976
0.184953
0.177903
0.232579
0.195934
0.155964
0.126075
0.15728
0.147985
0.171343
0.198828
0.118086
0.18585
0.155305
0.273306
0.165887
0.162676
0.154629
0.188279
0.125535
0.170214
0.129216
0.140992
0.158819
0.163549
0.186364
0.160406
0.187812
0.151135
0.147898
0.15075
0.194196
0.154639
0.170707
0.185171
0.172163
0.198198
0.168722
0.1718
0.1473
0.160762
0.185208
0.142841
0.196156
0.142281
0.14719
0.140536
0.170854
0.128975
0.20958
0.186122
0.164151
0.114949
0.147831
0.233165
0.201278
0.165381
0.136969
0.186341
0.177397
0.168934
0.162639
0.152902
0.15354
0.174685
0.184467
0.144166
0.221553
0.185642
0.14058
0.156075
0.172917
0.149609
0.189602
0.169247
0.186182
0.183057
0.160458
0.162148
0.179971
0.165852
0.169801
0.171364
0.15928
0.156347
0.159373
0.161635
0.155814
0.164592
0.179186
0.103655
0.12725
0.110393
0.152258
0.135073
0.135775
0.14522
0.138138
0.15122
0.191907
0.1727
0.177264
0.185151
0.15125
0.165587
0.175029
0.168442
0.178443
0.194402
0.105288
0.124155
0.154954
0.135718
0.139169
0.133896
0.152229
0.130414
0.184854
0.140079
0.201254
0.194787
0.192128
0.176678
0.189176
0.171323
0.17901
0.180765
0.197582
0.159891
0.133318
0.177065
0.161303
0.167335
0.172711
0.195531
0.121753
0.152591
0.20236
0.173819
0.164627
0.180899
0.196051
0.175504
0.220413
0.199869
0.202209
0.204589
0.16654
0.17484
0.214027
0.212299
0.211586
0.234394
0.223425
0.148494
0.132428
0.179512
0.160639
0.161297
0.159637
0.177623
0.146435
0.146635
0.180948
0.149427
0.137804
0.151609
0.173286
0.117442
0.141918
0.118934
0.179402
0.159979
0.160647
0.152117
0.16027
0.18345
0.207828
0.212129
0.208088
0.155627
0.176038
0.161885
0.153933
0.154368
0.137318
0.149824
0.15698
0.158542
0.185184
0.158752
0.175654
0.169607
0.180693
0.150761
0.146298
0.191666
0.156478
0.153416
0.179644
0.162254
0.164221
0.167911
0.127192
0.180498
0.187253
0.156776
0.172951
0.176754
0.110589
0.128131
0.150738
0.135112
0.141304
0.136594
0.156673
0.130888
0.157228
0.162014
0.167645
0.152684
0.13664
0.17174
0.168254
0.167503
0.190051
0.182182
0.200123
0.143794
0.116141
0.172842
0.15964
0.141989
0.159864
0.146405
0.179389
0.199354
0.162053
0.186029
0.181782
0.183285
0.174701
0.119446
0.134027
0.137404
0.123571
0.121407
0.113605
0.159147
0.136784
0.14738
0.178971
0.154157
0.155878
0.215386
0.179322
0.233793
0.220619
0.134662
0.17631
0.132508
0.163697
0.210813
0.147507
0.209625
0.173716
0.212453
0.236692
0.134382
0.153753
0.133107
0.125436
0.140654
0.139802
0.144653
0.142691
0.129133
0.204666
0.143583
0.138579
0.145114
0.132506
0.14548
0.146281
0.184692
0.152296
0.159772
0.191629
0.154194
0.155733
0.141942
0.182919
0.116567
0.127418
0.174575
0.264122
0.255795
0.171508
0.20097
0.196194
0.202252
0.216029
0.175244
0.135895
0.138531
0.144363
0.169101
0.192318
0.168778
0.151903
0.128253
0.135819
0.146601
0.124954
0.153849
0.181193
0.167576
0.16049
0.166074
0.176022
0.107401
0.12556
0.106968
0.1499
0.135336
0.124811
0.145179
0.142689
0.173445
0.198839
0.201618
0.18954
0.12712
0.153598
0.133764
0.142827
0.147308
0.125116
0.164358
0.15993
0.164064
0.173646
0.177319
0.174314
0.169593
0.163502
0.173737
0.154083
0.159431
0.149129
0.141247
0.147722
0.13085
0.153972
0.139644
0.149441
0.160073
0.145283
0.163021
0.162903
0.165851
0.165012
0.161837
0.130595
0.178804
0.172775
0.173252
0.175819
0.203569
0.150967
0.167633
0.182431
0.17317
0.162719
0.162615
0.172685
0.134288
0.167325
0.135501
0.206781
0.185011
0.190372
0.172868
0.178421
0.186107
0.201895
0.206999
0.215681
0.144822
0.127409
0.188231
0.150497
0.145084
0.145013
0.158234
0.132136
0.159105
0.170539
0.162297
0.16299
0.172896
0.199238
0.128512
0.161446
0.126753
0.17095
0.172256
0.141288
0.148494
0.171204
0.174968
0.210033
0.205401
0.201503
0.146779
0.125884
0.149828
0.148265
0.1268
0.142318
0.137413
0.168912
0.126406
0.173419
0.128328
0.196937
0.12114
0.137791
0.138913
0.186544
0.121823
0.158331
0.204698
0.191759
0.197072
0.211907
0.211838
0.147042
0.159814
0.150894
0.136965
0.126909
0.122121
0.120161
0.116058
0.118488
0.184197
0.198742
0.199292
0.150129
0.234794
0.189777
0.207004
0.151552
0.148635
0.199285
0.156502
0.210767
0.202832
0.171499
0.213569
0.150719
0.135641
0.159277
0.143038
0.12281
0.124799
0.201373
0.186282
0.19124
0.190049
0.174222
0.140058
0.14446
0.153074
0.153189
0.177448
0.169136
0.197186
0.163011
0.1615
0.175946
0.169558
0.159658
0.148704
0.171181
0.173307
0.168918
0.160841
0.16459
0.189197
0.136777
0.152672
0.17796
0.174851
0.171507
0.166358
0.158963
0.13076
0.161002
0.132486
0.150722
0.186654
0.158623
0.154585
0.162609
0.167807
0.175939
0.199138
0.209353
0.208384
0.198339
0.151562
0.1775
0.168469
0.179874
0.129712
0.193079
0.142616
0.125567
0.127568
0.248712
0.204054
0.223264
0.223883
0.236876
0.213289
0.139248
0.169462
0.201802
0.203518
0.201464
0.208587
0.167011
0.131935
0.138259
0.127754
0.126036
0.147193
0.130318
0.159433
0.136955
0.140355
0.146842
0.149878
0.164215
0.158704
0.156952
0.167471
0.163859
0.180546
0.174298
SCALARS SignedDistance double 1
LOOKUP_TABLE default
2.02395
1.82169
1.4659
1.61682
1.94379
2.01407
3.14815
2.14662
2.33325
2.50866
2.29824
2.36198
2.09217
2.21659
1.83589
1.83923
1.90013
1.85358
1.83169
1.85588
1.65793
2.40462
2.25507
1.99724
2.22202
2.16528
2.33278
2.06609
2.53194
2.99797
1.56304
2.23086
2.17441
2.32695
1.65673
1.69722
2.11478
2.19533
2.1961
2.95508
2.48327
2.32194
1.97034
2.02285
1.94126
2.40195
2.17238
2.34255
1.87034
1.98806
2.09799
1.78381
1.94457
1.88344
1.74709
1.97251
1.81537
2.05256
1.59902
1.84605
1.66451
1.6945
2.14599
1.95657
2.18767
1.42707
1.70887
2.12077
1.62862
1.92427
1.48878
1.97285
1.78942
2.32122
1.93269
2.13395
2.47207
2.0997
1.85482
2.10027
2.01117
2.27061
2.23854
2.43032
2.40465
2.23745
2.33357
2.42171
1.86528
2.04088
1.9735
2.27437
2.25905
2.72818
2.43054
1.5991
2.05345
1.68818
2.37987
2.5742
2.25257
2.42069
3.00408
2.87585
2.93398
1.86128
2.34484
1.5558
1.42582
2.21197
1.73427
1.95247
1.76307
1.87932
1.59541
2.39463
2.14086
2.33458
1.99024
2.05521
2.10753
1.7137
1.66866
2.20769
1.91531
1.74293
1.78551
1.56053
1.99468
1.75872
1.71361
2.13501
2.7015
2.56919
2.76475
2.24297
1.97552
2.95772
2.65746
2.73411
2.64896
2.65413
2.27455
2.28095
2.52806
2.4
2.44834
2.12439
2.50474
2.40556
1.80501
2.15931
2.19129
2.64691
2.10066
2.73002
2.62181
2.77614
2.45582
2.05208
1.92236
1.72293
1.97578
2.07521
2.10277
2.10892
2.0789
2.01468
1.86692
1.97531
1.91434
2.43943
2.38677
2.4817
2.17975
2.2718
2.29465
2.20571
2.27407
2.1775
1.95893
1.9934
2.032
1.90557
1.93628
1.83613
2.15519
2.02936
2.08587
2.08576
2.06204
1.98064
1.96819
2.04947
1.79996
1.83861
1.92405
1.87644
1.83611
1.96017
1.85028
1.77374
1.79324
1.84043
1.77095
1.76865
1.98282
2.08424
2.00233
1.84582
1.93707
1.94909
1.89921
1.89792
1.80106
1.7554
1.75664
1.75926
1.8494
1.97043
1.82202
1.73476
1.76445
1.69319
1.70864
1.71374
1.89806
1.77249
1.77748
1.73216
1.77384
1.84192
2.2293
2.16173
2.14813
1.82431
2.02186
1.98073
2.02842
2.035
1.84664
1.81333
1.79832
1.73867
1.73983
1.85731
1.51921
1.58165
1.6227
1.54964
1.49177
2.28391
2.07208
1.67422
1.88027
1.96239
1.87918
1.70268
2.12407
1.88409
2.13737
1.56671
1.65069
1.76013
1.88041
1.70297
1.61802
1.45683
1.4923
1.4244
1.80143
1.67761
1.69647
1.84865
1.95355
2.32919
2.12669
2.14322
2.10296
2.34286
1.9294
1.74244
2.43296
2.38993
2.09668
2.24401
2.50039
2.33405
2.23475
1.81181
2.0112
1.9593
2.01227
1.83709
1.94624
2.06077
1.90025
2.02735
2.07449
2.03021
1.98437
2.14402
2.05105
2.1792
1.93011
1.91324
2.42185
2.3693
2.51192
2.15652
2.26003
2.12697
2.33174
2.32481
2.24992
2.02356
2.13419
2.15893
2.16038
2.09552
2.28308
2.23508
2.3947
2.35185
2.28186
2.31394
2.39273
2.26528
2.38396
2.35273
2.46643
2.37279
1.85897
1.84595
1.90502
2.06011
1.90756
1.98048
2.08292
1.95072
2.0875
2.42875
2.22073
2.22218
2.31957
2.30154
2.45766
2.38284
2.1984
2.25069
2.21619
2.52661
2.57988
2.44872
2.53994
2.5787
2.62635
2.56937
1.44967
1.53645
1.49208
2.03982
1.80285
1.85575
2.02642
1.86911
2.17041
2.34321
2.31989
2.23583
2.25925
2.403
2.1126
2.15114
2.78085
2.44789
2.67061
2.15819
2.34544
2.60083
2.48571
2.38462
2.2478
2.16176
3.05983
3.12931
3.15866
2.91454
3.12741
2.97091
2.70811
2.90273
2.74484
2.37998
2.63281
2.63453
2.28635
2.15711
1.7768
2.01906
2.32507
2.16817
2.0596
1.67778
1.52693
1.44392
1.4581
1.51048
1.47006
1.55475
2.272
2.05464
2.16859
1.97049
1.98522
2.18901
1.73172
1.81646
1.56581
1.56379
1.50595
1.73179
1.61326
1.64612
1.54873
2.05424
1.82944
2.03944
1.61102
1.69201
1.73213
2.40896
2.35377
2.39044
2.21925
2.29338
2.40089
2.22899
2.23189
2.12922
2.12077
2.19863
2.00167
1.83836
2.02569
1.77912
2.21856
2.22173
2.19904
2.03085
2.08355
1.94475
1.63068
1.56402
1.58766
1.61645
1.85088
1.756
1.89341
2.0468
2.14052
1.89436
2.11166
1.91804
1.88218
1.68969
1.61043
1.65693
1.51594
2.01135
1.7768
1.97937
1.60172
1.63391
1.66967
1.73087
1.94768
1.94973
1.60934
1.64036
2.01799
1.80404
1.94
1.83716
2.06108
1.55517
1.6759
2.1267
1.88638
1.91812
1.91571
2.20429
2.97462
2.9092
3.01383
2.308
2.57728
2.42284
2.47458
2.68112
2.40828
2.28967
2.41127
2.25732
1.83613
1.73987
2.15393
1.97247
2.25535
2.10076
2.36963
3.03916
2.87358
2.79053
2.84849
2.94167
2.65512
2.40676
2.48606
2.69651
2.46695
2.56125
2.67969
2.54226
2.86956
2.84721
2.78322
2.44323
2.69705
2.52862
1.82788
2.37536
2.13947
2.01825
2.21917
2.30449
2.48378
2.54149
2.49607
2.29058
2.63904
2.45186
2.42002
2.51336
2.28205
2.3424
2.37379
2.49917
2.56579
2.38864
2.44122
2.34978
1.93312
2.19004
2.05328
1.97561
2.12037
2.47503
2.3819
2.48764
2.45404
2.37392
2.15514
2.33897
2.33977
2.22872
2.29055
2.31211
2.46878
2.29893
1.53395
1.72202
1.62675
1.68886
1.91619
2.10993
2.28752
2.20837
2.12677
1.87049
2.30847
2.12311
2.20562
2.29665
2.31001
1.97248
2.18041
2.04397
2.91055
2.37077
2.66791
2.88081
2.86544
1.65485
2.21419
1.87218
1.85254
2.06547
2.74946
2.83743
2.86712
2.68293
2.52802
2.38046
2.44876
2.69188
2.43242
2.84426
2.62404
2.40346
2.41555
3.09296
2.60485
2.81654
3.05211
2.99947
2.17411
2.48557
2.37514
2.28357
2.42093
2.79163
2.58741
2.64262
2.32918
2.1665
2.23917
2.15411
1.98687
2.11616
1.74491
1.92397
2.0974
2.11737
1.71777
1.8375
1.75922
1.65771
1.65349
1.95269
1.76063
1.84089
