# vtk DataFile Version 4.2
vtk output
ASCII
DATASET POLYDATA
POINTS 642 double
-1.43196 2.93006 -0.262292
1.50163 2.99781 -0.212747
-1.55671 -1.79859 0.0118738
1.42468 -1.74959 0.0274946
-0.00250775 -0.775891 2.06264
-0.00365904 2.02153 1.89976
-0.0880612 -0.825374 -1.54402
-0.168978 2.13421 -2.102
2.13236 1.03895 -1.2867
1.90593 0.727504 0.991867
-2.21323 0.911686 -1.4661
-1.90272 0.593947 1.04894
-1.99543 1.96252 0.484989
-1.04249 1.45808 1.78174
-0.688363 2.7315 1.17567
0.711016 2.74232 1.16981
-0.0155286 3.32786 -0.140349
1.01947 2.93006 -1.38982
-1.01046 2.93675 -1.45203
-1.49178 1.64147 -2.23797
-2.22667 2.12123 -1.01325
-2.43348 0.794921 -0.188998
1.02954 1.49466 1.75342
2.05931 2.00475 0.513307
-1.06813 -0.294616 1.88596
-0.0263885 0.491311 2.30412
-2.09278 -0.921516 -0.661933
-2.04784 -0.967764 0.624282
-0.210442 0.974616 -2.23728
-1.36727 0.117327 -1.76956
2.25642 2.14811 -0.947561
1.46371 1.72961 -1.97968
1.8789 -0.90946 0.629377
1.02743 -0.308812 1.83267
0.820099 -1.6328 1.27922
-0.879804 -1.65576 1.27773
-0.00212561 -2.12432 0.0373
-0.933607 -1.58932 -1.13359
0.838067 -1.56155 -1.05519
1.18629 0.0229318 -1.56433
1.8344 -0.861193 -0.550159
2.40386 0.915307 -0.135237
-1.79359 2.52171 0.120843
-1.36744 2.41932 0.923591
-1.07619 2.91224 0.491121
-1.52618 1.05579 1.4628
-1.52554 1.76765 1.2548
-2.00787 1.34126 0.793572
-0.311656 2.41066 1.6456
-0.914784 2.16746 1.5519
-0.496489 1.80232 1.92317
-0.388711 3.13671 0.60179
-0.779011 3.22752 -0.191905
0.313726 2.41175 1.6429
0.00154224 2.83872 1.25602
0.875028 3.226 -0.176821
0.405564 3.14054 0.605271
1.18012 2.93111 0.438468
-0.500395 3.29055 -0.796077
-1.2897 3.0385 -0.831566
1.34799 3.09816 -0.771179
0.505702 3.27202 -0.781981
-0.650035 2.57171 -1.89391
-0.039212 3.03679 -1.40203
0.562208 2.57531 -1.80402
-1.72269 2.66401 -1.30517
-1.88131 2.64725 -0.625634
-0.936305 1.94584 -2.25839
-1.32095 2.39063 -1.97272
-2.32663 1.46702 -1.33322
-1.9955 1.94678 -1.72752
-1.98813 1.26547 -1.89175
-2.23434 2.09829 -0.22596
-2.41142 0.852882 -0.877574
-2.46297 1.48699 -0.595813
-2.34289 1.44179 0.128268
-2.23566 0.68891 0.457401
1.45107 2.44386 0.871362
1.83967 2.60193 0.146265
0.488431 1.81263 1.91492
0.926361 2.18155 1.54323
2.06453 1.39506 0.76334
1.58695 1.79442 1.19007
1.55647 1.09828 1.39526
-0.510842 0.943037 2.13901
-0.00723166 1.35876 2.13041
-1.54077 0.0752021 1.49406
-1.02667 0.525491 1.94309
-0.0246377 -0.153653 2.27358
-0.524308 0.13298 2.23641
-0.546655 -0.561139 2.08026
-2.23493 -0.410559 0.255977
-1.99422 -0.31368 0.875138
-2.10893 0.0256195 -1.05452
-2.26018 -0.30368 -0.40264
-1.94792 -1.46144 0.345493
-2.2181 -1.02009 -0.0290623
-1.97553 -1.45603 -0.348817
-1.49714 0.961223 -2.1687
-1.87379 0.552112 -1.73728
-0.223657 1.57169 -2.26902
-0.997155 1.3338 -2.33506
-0.798628 -0.480156 -1.65169
-0.956096 0.652339 -2.15077
-0.134246 0.223619 -1.97119
1.32128 2.38701 -1.85821
0.860162 1.99689 -2.06093
1.92896 2.69827 -0.558379
1.73774 2.67431 -1.25088
1.90338 1.38197 -1.6803
1.95971 1.97791 -1.61515
2.28522 1.55079 -1.20376
1.78082 -1.40011 0.358739
1.4707 -1.32883 1.00482
1.20467 -1.78682 0.62214
1.50963 0.106356 1.45317
1.54453 -0.691662 1.2849
1.89525 -0.168128 0.896029
0.404995 -1.29071 1.74174
0.996756 -1.06984 1.6068
0.506816 -0.596015 2.04175
0.460829 -2.01217 0.716074
0.835454 -2.02434 0.0144512
-0.414216 -1.2693 1.72268
0.00704388 -1.74777 1.34252
-0.913067 -2.03819 0.0197921
-0.497606 -2.02846 0.711254
-1.30008 -1.82178 0.613254
0.492094 -1.96438 -0.56722
1.18689 -1.77097 -0.524302
-1.31458 -1.80146 -0.555992
-0.533789 -1.97693 -0.596113
0.411625 -1.20574 -1.40022
-0.0370595 -1.6533 -1.11983
-0.53889 -1.20649 -1.43882
1.45109 -1.28769 -0.865901
1.7511 -1.38591 -0.279733
0.599091 -0.543175 -1.56371
1.01005 -1.00419 -1.29447
1.98476 0.236956 -0.949196
1.53357 -0.554976 -1.09448
1.76365 0.672538 -1.50899
1.96895 -0.958929 0.0473128
2.35621 0.985991 -0.775689
2.14204 -0.0294584 -0.319661
2.10426 -0.194044 0.284504
2.23361 0.854707 0.46135
0.465664 0.132219 2.21603
1.00727 0.550972 1.88528
0.463125 0.979077 2.12572
-1.59873 -1.36197 1.01623
-1.07918 -1.08887 1.60286
-1.64131 -0.76161 1.25978
-1.18623 -0.99679 -1.42304
-1.66937 -1.32116 -0.977443
-1.73064 -0.595264 -1.2198
1.4286 1.06992 -1.88696
0.640829 0.584514 -1.99141
0.795411 1.36441 -2.13107
2.36754 1.48504 0.184176
2.456 1.54984 -0.554796
2.26804 2.15447 -0.201078
-1.60839 2.76922 -0.0962821
-1.45281 2.71701 0.312161
-1.28625 2.93323 0.0461906
-1.71301 2.19173 0.699792
-1.60362 2.46477 0.521872
-1.91846 2.25478 0.3079
-0.884239 2.84197 0.856266
-1.22995 2.68079 0.735546
-1.02332 2.60382 1.07542
-1.75007 0.804036 1.23719
-1.76814 1.22349 1.15382
-1.94967 0.956278 0.938607
-1.28296 1.62867 1.5493
-1.53299 1.43937 1.37392
-1.29321 1.26607 1.64347
-2.02392 1.65516 0.647541
-1.78721 1.56619 1.02663
-1.77675 1.87354 0.878405
-0.131083 2.19824 1.80474
-0.416798 2.12998 1.79379
-0.209443 1.94082 1.92617
-0.807756 2.4736 1.38223
-0.614878 2.31597 1.61116
-0.49466 2.5855 1.44048
-0.774442 1.64213 1.8746
-0.714126 1.99476 1.75888
-0.996047 1.82569 1.68484
-1.46975 2.10471 1.1047
-1.23089 1.97915 1.43224
-1.14016 2.31309 1.27184
-0.923704 3.10369 0.155451
-1.1496 3.08231 -0.234779
-0.550731 2.95216 0.919669
-0.732401 3.04901 0.569105
-0.424753 3.29897 -0.165692
-0.575544 3.21141 0.202703
-0.21426 3.26499 0.233099
0.125886 2.1984 1.80461
-0.00281206 2.43971 1.65926
0.361559 2.81464 1.23377
0.171055 2.64585 1.46854
0.506036 2.59049 1.43589
-0.17069 2.64384 1.47056
-0.351756 2.80962 1.23686
1.27075 3.10303 -0.208946
1.03626 3.10658 0.133042
1.40054 2.98513 0.0329355
0.213822 3.26676 0.244076
0.615959 3.21157 0.212884
0.437218 3.29795 -0.140862
0.929995 2.85832 0.840684
0.781655 3.05827 0.560035
0.573612 2.96132 0.917642
-0.186932 3.01189 0.960289
0.195601 3.01442 0.960287
0.00272521 3.17068 0.623035
-1.03203 3.17284 -0.525641
-1.37725 2.99416 -0.51219
-0.259273 3.3405 -0.477271
-0.644876 3.2943 -0.497449
-1.16913 3.02195 -1.14292
-0.915842 3.19244 -0.831717
-0.775278 3.14275 -1.1428
1.45138 3.06362 -0.442011
1.13026 3.17599 -0.485319
0.794865 3.12782 -1.10497
0.978892 3.18692 -0.796247
1.20387 3.05041 -1.09222
0.702665 3.28257 -0.477784
0.225814 3.33919 -0.466931
-0.41388 2.33174 -2.02705
-0.086351 2.60472 -1.81711
0.19712 2.34126 -1.96759
-0.582028 3.01564 -1.44472
-0.362184 2.83547 -1.65642
-0.834578 2.77739 -1.7125
0.808691 2.76767 -1.63664
0.266426 2.83138 -1.61896
0.545411 2.99802 -1.40092
-0.0295119 3.30228 -0.784191
0.246431 3.19456 -1.10767
-0.293641 3.20342 -1.11899
-1.61652 2.87798 -0.75802
-1.64319 2.82478 -0.42294
-1.37455 2.8549 -1.41202
-1.52428 2.89973 -1.08584
-2.07646 2.41427 -0.819524
-1.83379 2.67761 -0.969931
-2.0187 2.40749 -1.16868
-0.58922 2.06101 -2.17503
-0.825306 2.27944 -2.11171
-1.43137 2.01162 -2.15429
-1.12711 2.16786 -2.15971
-1.20369 1.80625 -2.28627
-1.00573 2.50695 -1.95645
-1.17993 2.70725 -1.73144
-2.27941 1.14996 -1.42785
-2.1925 1.38152 -1.63575
-2.14559 1.06513 -1.65465
-2.15194 2.05795 -1.37487
-2.20769 1.71605 -1.53754
-2.31253 1.79081 -1.19277
-1.76854 1.45551 -2.09226
-2.01462 1.59602 -1.85174
-1.7627 1.7994 -2.0349
-1.54133 2.56424 -1.66832
-1.67873 2.19157 -1.8852
-1.89083 2.33067 -1.53656
-1.87387 2.59646 -0.249352
-2.25862 2.13261 -0.625006
-2.09068 2.38433 -0.434793
-2.04075 2.32442 -0.0466622
-2.14204 2.04071 0.133055
-2.31124 0.894261 -1.23738
-2.39237 1.18873 -1.1178
-2.47615 1.16189 -0.389791
-2.46789 1.18186 -0.739892
-2.45146 0.827777 -0.528178
-2.41917 1.49962 -0.977409
-2.3821 1.81289 -0.818913
-2.15545 1.06362 0.605995
-2.06073 0.626982 0.802717
-2.19751 1.71727 0.30449
-2.20247 1.40889 0.449853
-2.34992 0.748316 0.127725
-2.31758 1.1178 0.273101
-2.42235 1.13973 -0.041033
-2.38687 1.80303 -0.414473
-2.43424 1.47118 -0.221586
-2.319 1.77118 -0.0413064
1.54837 2.78568 0.282061
1.65725 2.85216 -0.0639078
1.06392 2.62213 1.0592
1.32225 2.7086 0.680134
1.97497 2.31757 0.343112
1.69592 2.52536 0.497836
1.80444 2.23427 0.673066
0.204283 1.94183 1.92444
0.419541 2.13217 1.79156
0.991783 1.85274 1.6649
0.714235 2.00711 1.74954
0.757527 1.66917 1.85795
0.626266 2.32082 1.60807
0.828093 2.48363 1.37626
1.99468 1.06105 0.88513
1.83424 1.27636 1.07208
1.77551 0.890659 1.15923
1.86489 1.9052 0.832885
1.86831 1.60161 0.958559
2.08792 1.69292 0.648605
1.30073 1.29687 1.59833
1.58274 1.47208 1.30233
1.29413 1.66255 1.51125
1.17303 2.33103 1.25501
1.25129 2.00385 1.40615
1.5418 2.12584 1.04969
-0.254918 1.59351 2.04818
-0.00424964 1.76969 2.00614
-0.794888 1.2349 1.97442
-0.52695 1.42283 2.0337
-0.0168966 0.888368 2.22624
-0.253491 1.14288 2.15988
-0.252169 0.682032 2.26143
-1.75778 0.350464 1.25194
-1.52306 0.575127 1.51256
-1.03755 0.108121 1.95906
-1.2669 0.315036 1.76281
-1.30232 -0.13383 1.70626
-1.27326 0.807849 1.72059
-1.04859 1.01828 1.87079
-0.0152604 -0.502878 2.17661
-0.276182 -0.338614 2.2136
-0.24173 -0.684028 2.09557
-0.264012 0.312193 2.30155
-0.275355 -0.00104287 2.28376
-0.0278536 0.165685 2.31503
-0.815794 -0.434518 2.00909
-0.543083 -0.199226 2.18494
-0.791617 -0.0629178 2.10169
-0.783429 0.725608 2.06325
-0.781586 0.301445 2.12534
-0.514302 0.483548 2.22862
-2.11259 0.126406 0.682259
-1.94529 0.195521 0.987047
-2.31433 0.197679 0.0427898
-2.23993 0.14015 0.354203
-2.02587 -0.687415 0.74849
-2.14201 -0.392965 0.564584
-2.1553 -0.743449 0.436127
-2.18926 0.627657 -1.33771
-2.29159 0.477457 -0.982795
-2.18205 -0.68207 -0.510126
-2.20821 -0.182348 -0.695839
-2.07183 -0.57744 -0.805442
-2.33036 0.359151 -0.641332
-2.34981 0.274464 -0.313562
-1.74991 -1.68312 0.156766
-2.00954 -1.4806 -0.00253335
-1.75502 -1.67656 -0.142427
-2.1664 -1.01333 0.297025
-2.1349 -1.23848 0.157817
-2.03446 -1.21473 0.494994
-2.07657 -1.19274 -0.517877
-2.14957 -1.23135 -0.186847
-2.19181 -0.990002 -0.350018
-2.27356 -0.391129 -0.0715979
-2.23883 -0.75162 -0.203057
-2.23083 -0.771232 0.113781
-1.94521 0.923983 -1.85287
-2.08872 0.760135 -1.60059
-1.5095 1.30871 -2.23482
-1.74803 1.11829 -2.07455
-1.62756 0.349186 -1.79706
-1.70322 0.753642 -1.98337
-1.45528 0.594001 -2.03093
[...]
POINT_DATA 642
SCALARS Mean_Curvature double 1
LOOKUP_TABLE default
0.735383
1.19564
1.0665
0.961626
0.884035
0.884813
-0.0939247
0.400306
0.859015
0.382949
0.8872
0.447781
0.675305
0.677337
0.893313
0.877622
0.549005
0.729142
0.8468
1.54874
0.911398
0.846213
0.609856
0.903519
0.821034
1.12489
1.21494
1.04313
0.543364
0.0697962
1.21344
1.32762
0.804593
0.499441
1.10107
1.02163
0.621888
1.13464
1.12959
0.293943
0.564576
0.881883
0.762106
0.698642
0.715469
0.504357
0.684601
0.556207
1.07715
0.829834
0.840068
0.791028
0.71078
0.987675
0.981122
0.731431
0.749154
0.598533
1.01661
0.68045
1.45152
0.72796
0.560031
0.629134
0.419576
1.07304
0.878091
1.147
1.35035
1.02878
1.08365
1.15406
1.00778
0.776368
0.986743
0.88018
0.510621
0.582458
0.847532
0.85054
0.881962
0.697103
0.582756
0.514364
0.501332
0.85548
0.401035
0.523552
1.04382
1.08406
0.901145
0.610888
0.532985
0.426149
0.524156
1.5763
1.54483
1.70798
1.23032
1.02945
0.655263
1.13914
0.221142
0.523796
0.400315
1.56156
0.563404
1.06356
1.00143
1.11075
1.37868
1.1977
1.83034
0.989682
0.900877
0.400927
0.746602
0.483043
1.22409
0.852012
0.872189
0.805072
1.04558
0.219993
0.947491
0.778488
0.912443
0.88712
0.87377
1.14041
0.8509
0.86517
1.09876
0.677909
0.880341
1.37617
1.57099
0.274864
0.757667
0.181
0.486348
0.694109
0.885595
0.852518
0.542392
0.533818
0.701396
1.00899
0.294062
0.580713
1.20417
0.753524
0.60836
1.12442
1.41387
0.357899
0.789884
0.485768
0.633292
1.05829
1.11133
0.920681
0.707128
0.454712
0.417505
0.561803
0.513232
0.696396
0.795299
0.693654
0.804033
0.403296
0.502687
0.203398
0.696544
0.609617
0.618126
0.641533
0.565122
0.592604
0.892721
0.882492
0.908129
0.875695
0.895231
1.00573
0.754741
0.866918
0.819495
0.696012
0.788048
0.789828
0.70472
0.65245
0.847499
0.763711
0.529098
0.743095
0.696198
0.890948
1.13496
0.950151
1.02661
0.947342
1.05938
0.986437
0.792096
0.553165
0.903533
0.705533
0.62671
0.4787
0.762901
0.716908
0.853841
0.893197
0.875204
0.825675
0.97232
0.516835
0.880558
1.04938
0.730902
0.972049
0.941905
1.39426
0.713048
0.754758
0.746328
1.12831
0.85864
0.845579
0.388582
0.231192
0.367912
0.953618
0.719205
0.865451
0.727965
0.667458
0.722411
0.612123
0.81529
0.85038
1.19969
0.847986
1.4562
1.44323
0.909483
1.10037
1.11376
0.370457
1.08258
1.45002
1.25189
1.48278
1.13404
1.30775
0.982841
1.28934
1.18854
1.11607
1.36114
0.931293
1.27826
1.24875
1.26966
1.07489
0.963009
1.04591
0.97738
0.913514
0.91037
0.948558
0.873416
0.753118
0.830065
0.906512
0.894396
0.800979
0.910092
1.03238
0.510507
0.462386
0.769522
0.708854
0.359345
0.747025
0.888047
1.02994
0.951021
0.906798
0.779357
0.920432
0.774616
0.609319
0.89519
0.775697
0.708616
0.909484
0.917282
0.764916
0.888016
0.731429
0.930684
0.871708
0.582675
0.55131
0.259811
0.666656
0.596996
0.858911
0.554418
0.510404
0.607511
0.783574
0.7522
0.570487
0.824419
0.859435
0.675575
0.713268
0.494093
0.693691
1.02507
0.419099
0.434363
0.789416
0.398724
0.345897
0.314696
0.639462
0.954607
0.977402
0.879614
1.14859
1.1074
1.186
0.858165
0.981064
0.923633
0.456104
0.968077
1.02685
0.4138
0.411718
0.403379
0.424842
0.592848
0.592246
0.60762
0.705119
0.753225
0.583047
0.519012
0.456345
0.222496
0.440485
1.17431
1.89712
1.13837
1.28476
1.72209
1.4154
1.58666
1.763
1.45589
0.536951
0.767869
0.756837
1.10388
0.987348
1.3683
1.21735
0.919886
1.17049
1.05765
0.48573
0.415871
0.599707
0.536174
0.614612
1.23299
1.39311
0.177213
-0.167778
-0.123531
0.821059
-0.0791928
0.399735
0.475295
0.425734
0.545521
1.24632
0.946276
1.0723
0.311353
0.474135
1.26132
1.39227
0.937142
1.24333
1.44293
1.08966
1.11197
1.10874
0.99524
1.13638
1.31201
1.24882
0.9799
1.17878
1.02024
1.4298
1.26714
1.27131
1.35349
1.33158
1.35556
1.3161
1.17947
1.49585
1.37141
1.23949
1.00385
0.827953
1.44306
1.18723
0.946422
1.21649
1.17638
0.433832
0.439815
0.465812
0.763383
0.650412
0.394088
0.760035
0.713238
0.749715
0.863156
0.46206
0.902509
1.13776
1.04593
1.27399
0.780309
0.536325
0.719419
0.820012
0.750069
0.871993
0.920706
0.982778
0.919442
0.93558
0.806519
0.695321
0.82246
0.801175
0.437707
0.970117
0.642547
1.32532
1.11507
0.944762
0.852576
0.785942
1.02881
0.711542
0.791157
0.834959
0.839134
0.848603
0.946645
1.00409
0.477342
0.691302
1.26193
1.10126
0.850819
0.930837
1.21917
1.048
0.821193
0.878263
0.956254
0.878213
0.978054
0.9363
0.920546
0.586023
0.456451
0.716047
0.25455
0.930127
1.15256
1.25386
1.29062
1.06807
0.923621
0.694683
0.654249
0.782657
1.33946
1.31051
1.40645
1.36644
1.25066
1.45051
1.09275
0.210706
0.4412
0.452856
0.377455
0.3337
1.01469
1.37598
0.719754
0.654005
0.770857
0.510025
0.431024
0.532695
0.535178
0.31191
0.386985
1.25702
0.468829
0.704507
1.85693
0.67346
1.51592
1.71447
0.916963
0.848342
0.732677
0.706881
0.788069
0.876983
0.511824
0.594194
0.521544
0.286326
0.727369
0.531158
0.825254
0.570073
0.254866
0.637632
0.519932
0.657454
0.983435
0.843514
0.903471
1.08091
1.10743
0.394926
0.595725
0.3878
0.37241
0.624591
0.829314
0.919351
0.723568
0.747432
0.64182
0.851624
0.375599
0.937619
1.05435
1.19382
1.06563
1.27668
1.21414
0.867482
0.360717
0.826933
1.0695
1.35004
0.418905
0.724709
0.588211
0.522498
0.56116
1.02954
0.645645
0.873142
0.39351
1.44687
1.08669
0.383403
0.320816
1.0704
1.42753
1.53932
1.06537
1.31533
0.603617
0.367204
0.266171
0.354634
0.763174
1.35021
1.23773
0.628155
0.881693
0.505534
0.794238
1.06677
1.11419
-0.0857317
0.53146
0.478297
0.0458824
0.25533
0.594487
0.516256
0.685291
0.65326
0.592764
0.442587
0.552492
0.400546
0.731609
0.996604
0.905161
0.928437
1.0095
0.985463
1.13978
1.12863
0.987185
1.01463
0.891198
0.971382
0.89449
0.936762
1.01483
1.13587
1.06646
1.11028
SCALARS CoVolArea double 1
LOOKUP_TABLE default
0.0726604
0.0533291
0.0587253
0.0571406
0.0649701
0.0461899
0.10015
0.108607
0.0491677
0.0870067
0.0544786
0.0952444
0.131092
0.124517
0.116647
0.121999
0.159156
0.138578
0.135156
0.108868
0.130728
0.15739
0.129618
0.117375
0.137386
0.0880295
0.0942032
0.0922652
0.16256
0.162596
0.120444
0.0871678
0.0970258
0.141733
0.12383
0.133484
0.16584
0.12296
0.106843
0.200015
0.107977
0.119549
0.133744
0.149791
0.153391
0.151331
0.137429
0.134344
0.0917692
0.117528
0.104285
0.145345
0.133954
0.0947513
0.115839
0.143822
0.151603
0.152506
0.148204
0.120488
0.115646
0.168918
0.144868
0.185033
0.164486
0.142284
0.119127
0.0989539
0.136303
0.108044
0.143993
0.104464
0.126108
0.141459
0.124148
0.11354
0.174755
0.158011
0.121624
0.101249
0.118176
0.105062
0.144869
0.156226
0.139162
0.113877
0.173406
0.138864
0.0887814
0.0956414
0.12159
0.152841
0.149436
0.190786
0.162822
0.109052
0.0816027
0.109332
0.102744
0.131335
0.162924
0.0858708
0.170065
0.12752
0.247483
0.116738
0.132098
0.116743
0.144171
0.0877896
0.119984
0.0900021
0.092893
0.115416
0.125285
0.159793
0.126011
0.156584
0.114594
0.112906
0.116478
0.155061
0.118077
0.137188
0.146445
0.136987
0.159847
0.131658
0.1343
0.107501
0.125405
0.147594
0.104268
0.155081
0.105472
0.0992535
0.0924006
0.154837
0.0959527
0.175295
0.155279
0.131341
0.0798831
0.11155
0.188887
0.166529
0.132257
0.100974
0.157576
0.13962
0.122256
0.124012
0.123788
0.111517
0.122134
0.151369
0.112734
0.193847
0.150758
0.101514
0.112446
0.12996
0.116739
0.155617
0.135503
0.151687
0.150716
0.128835
0.1287
0.146806
0.129821
0.141642
0.14394
0.132626
0.124427
0.131473
0.13326
0.126446
0.1359
0.145541
0.072662
0.0935945
0.0793398
0.115803
0.101058
0.100904
0.113354
0.104958
0.117079
0.152869
0.134309
0.13757
0.149573
0.118709
0.128529
0.140186
0.13735
0.144547
0.158193
0.0739419
0.0888393
0.117222
0.0998249
0.104439
0.0978828
0.114252
0.0986093
0.149017
0.106769
0.164911
0.160623
0.158994
0.142222
0.154004
0.13442
0.137237
0.139184
0.156295
0.125106
0.101912
0.141948
0.126899
0.127504
0.133787
0.152754
0.0872883
0.119163
0.162602
0.138214
0.126539
0.147477
0.159288
0.146311
0.188983
0.169157
0.162401
0.170757
0.132157
0.141442
0.179438
0.173335
0.169442
0.189733
0.178594
0.112784
0.0997785
0.134621
0.120774
0.124358
0.121327
0.135687
0.117459
0.114458
0.130381
0.107715
0.0943316
0.114796
0.130286
0.0835159
0.101557
0.0827342
0.135697
0.118113
0.121297
0.108791
0.11741
0.135068
0.157692
0.161238
0.159813
0.120015
0.133984
0.12465
0.119012
0.118803
0.104505
0.113731
0.119924
0.12202
0.14945
0.120485
0.132807
0.140472
0.150582
0.117421
0.117287
0.15994
0.126068
0.119364
0.133782
0.121239
0.123135
0.132846
0.094596
0.143421
0.152141
0.121854
0.138595
0.140601
0.0792853
0.0940365
0.117662
0.102344
0.110706
0.102286
0.119929
0.104466
0.129558
0.134251
0.133195
0.123413
0.104955
0.143667
0.1399
0.135858
0.149307
0.14354
0.160235
0.109275
0.0843902
0.138645
0.125391
0.108167
0.124007
0.109043
0.150837
0.17046
0.129699
0.158412
0.153247
0.155279
0.143111
0.0859108
0.0984052
0.102235
0.0874168
0.0867389
0.079959
0.124578
0.101517
0.111236
0.142151
0.117114
0.116006
0.182899
0.150179
0.196498
0.188267
0.10804
0.147254
0.102213
0.127272
0.172353
0.11378
0.174214
0.140029
0.179197
0.198017
0.0962181
0.105257
0.0956107
0.0848062
0.0903256
0.0942441
0.0942879
0.090626
0.0851437
0.167437
0.106457
0.102921
0.104474
0.0972889
0.0994838
0.104015
0.145654
0.110317
0.118987
0.155113
0.123669
0.125216
0.113731
0.151494
0.0845091
0.0852786
0.159626
0.246076
0.234598
0.139547
0.182234
0.169262
0.174109
0.191732
0.144054
0.0927593
0.103514
0.104391
0.139318
0.158224
0.126766
0.116256
0.0950522
0.100064
0.0995137
0.0903423
0.113986
0.136221
0.127868
0.120663
0.125498
0.133552
0.0741572
0.086518
0.0733597
0.101778
0.0932098
0.0857562
0.102289
0.0990484
0.124822
0.147107
0.149544
0.133449
0.0872215
0.11097
0.0980366
0.10403
0.102526
0.0840717
0.126207
0.1182
0.120876
0.145385
0.148813
0.14447
0.135975
0.134498
0.146228
0.123579
0.128639
0.115529
0.106613
0.114472
0.0972902
0.112403
0.104722
0.11088
0.125983
0.114784
0.129469
0.123245
0.128282
0.122289
0.124104
0.0948733
0.139386
0.135768
0.13835
0.139773
0.164612
0.116452
0.133373
0.14437
0.139577
0.126271
0.126499
0.133096
0.10132
0.131603
0.100972
0.167931
0.149295
0.15469
0.135755
0.142052
0.147899
0.159321
0.165553
0.173613
0.106574
0.0908756
0.150415
0.115557
0.105809
0.10853
0.121281
0.0987557
0.123421
0.133989
0.126977
0.126846
0.137542
0.161085
0.101398
0.12009
0.102404
0.132004
0.129361
0.101663
0.107691
0.129188
0.136492
0.1676
0.163888
0.159665
0.103195
0.0857885
0.102494
0.103875
0.0857264
0.0954873
0.0974213
0.151184
0.102461
0.146051
0.106518
0.174421
0.0875935
0.0939005
0.10758
0.152689
0.0908874
0.128146
0.172647
0.160814
0.165082
0.177812
0.179884
0.101173
0.12725
0.112239
0.0878552
0.0930515
0.0776404
0.075219
0.0817188
0.0857898
0.146538
0.160027
0.158147
0.114313
0.193242
0.153743
0.171666
0.122446
0.117337
0.16475
0.123065
0.173556
0.167228
0.13533
0.175028
0.117949
0.0995544
0.123438
0.107179
0.0883148
0.089331
0.172886
0.155822
0.164163
0.164072
0.143703
0.10604
0.108192
0.118456
0.119895
0.143515
0.13308
0.160164
0.123615
0.120693
0.131684
0.128825
0.1144
0.105139
0.132595
0.140342
0.131658
0.122106
0.121187
0.160226
0.104784
0.126083
0.150405
0.145305
0.125517
0.130976
0.117723
0.108192
0.111594
0.0950981
0.12353
0.154353
0.119419
0.10401
0.114778
0.127575
0.128507
0.161427
0.1741
0.172353
0.165942
0.115328
0.122329
0.119769
0.138644
0.0953152
0.161956
0.111427
0.0903965
0.0931225
0.229181
0.173105
0.198862
0.203999
0.20881
0.174455
0.107
0.135867
0.165068
0.16871
0.169873
0.173496
0.1339
0.103044
0.101156
0.096043
0.0942215
0.108175
0.0935701
0.115063
0.0977012
0.102692
0.106843
0.113938
0.123262
0.122044
0.119246
0.124297
0.117147
0.1316
0.126612
SCALARS SignedDistance double 1
LOOKUP_TABLE default
1.74448
1.60579
1.21518
1.33398
1.63183
1.65566
2.78585
1.81708
2.02822
2.16688
2.05852
2.01765
1.75874
1.86489
1.49064
1.49864
1.59165
1.63999
1.62663
1.67255
1.38526
2.13257
1.89792
1.67602
1.91801
1.85808
2.08817
1.78152
2.2069
2.70686
1.29416
2.00429
1.81496
2.02128
1.34531
1.42474
1.88654
1.97286
1.94736
2.61012
2.10644
2.01637
1.67411
1.68927
1.63359
2.07271
1.83505
2.02372
1.54129
1.63223
1.76009
1.45635
1.67714
1.54786
1.39869
1.71199
1.49956
1.76391
1.32722
1.62789
1.48707
1.40604
1.94495
1.6962
1.92523
1.14271
1.4246
1.90491
1.41027
1.68363
1.2068
1.74141
1.47195
2.0438
1.64705
1.82844
2.15783
1.78398
1.54974
1.75592
1.66954
1.94228
1.89752
2.09524
2.0789
1.90147
1.97446
2.10507
1.52025
1.71576
1.64684
1.9247
1.91331
2.4268
2.07838
1.38019
1.83019
1.51044
2.15239
2.33102
1.93202
2.19086
2.62697
2.61431
2.62218
1.70847
2.03831
1.26227
0.974629
1.94177
1.49816
1.68657
1.5703
1.59295
1.27558
2.0293
1.78795
1.96896
1.79282
1.7442
1.78933
1.43074
1.41575
1.99069
1.67512
1.4714
1.54123
1.26684
1.73002
1.47533
1.43156
1.90782
2.45765
2.34467
2.51962
1.99499
1.76067
2.59474
2.36666
2.42711
2.2709
2.33736
1.99175
1.96954
2.18049
2.04218
2.13678
1.80099
2.16631
2.05966
1.54588
1.88101
1.84176
2.38692
1.91745
2.34891
2.34243
2.44988
2.13007
1.73817
1.62894
1.3946
1.69801
1.77228
1.82925
1.77227
1.75112
1.6903
1.53534
1.65301
1.57281
2.09803
2.06398
2.17024
1.82994
1.9326
1.95082
1.88027
1.94805
1.84474
1.62019
1.64367
1.67578
1.55536
1.58843
1.4902
1.80414
1.673
1.74353
1.74429
1.70771
1.63112
1.68289
1.79663
1.46435
1.514
1.63583
1.57661
1.52877
1.62012
1.52525
1.42649
1.44397
1.49206
1.41649
1.41963
1.7739
1.81233
1.77326
1.53844
1.64354
1.66894
1.58071
1.59635
1.4701
1.42348
1.42624
1.43344
1.58632
1.73924
1.55466
1.46288
1.57979
1.41221
1.42335
1.53419
1.64761
1.48275
1.4958
1.55337
1.49116
1.57484
1.9282
1.86161
1.8193
1.56905
1.77554
1.79238
1.82293
1.78005
1.56522
1.54639
1.52199
1.45871
1.5173
1.61079
1.29791
1.37247
1.32674
1.27546
1.2034
2.00046
1.87036
1.46681
1.68925
1.77273
1.66904
1.50335
1.89504
1.66241
1.91115
1.31558
1.4362
1.49371
1.66623
1.4672
1.39684
1.19055
1.23972
1.1338
1.50278
1.36396
1.36818
1.53466
1.6404
2.05365
1.85044
1.85277
1.82273
2.06622
1.64872
1.45396
2.12966
2.0516
1.77608
1.93473
2.22115
2.04111
1.9447
1.51881
1.70209
1.64956
1.74836
1.5758
1.61506
1.75871
1.58415
1.73852
1.7637
1.67275
1.64028
1.79976
1.70758
1.82533
1.57816
1.56603
2.09476
2.03055
2.17912
1.82655
1.92265
1.80523
1.98162
1.97728
1.90117
1.68533
1.80013
1.82414
1.80995
1.75125
1.93462
1.89214
2.07919
2.01777
1.98301
1.95742
2.04065
1.95675
2.03946
2.03055
2.12144
2.03341
1.51866
1.49215
1.57825
1.74296
1.57037
1.65498
1.76221
1.61703
1.75917
2.12022
1.90722
1.91207
1.9652
1.94329
2.12561
2.04763
1.84248
1.90417
1.8766
2.24643
2.31218
2.13915
2.21223
2.21917
2.36315
2.26605
0.844629
1.35152
1.1995
1.78777
1.60126
1.60728
1.82695
1.68452
1.94021
1.98637
2.0308
1.93378
2.02194
2.16184
1.90372
1.92722
2.53215
2.21291
2.42316
1.82188
2.0864
2.30557
2.2023
2.06227
2.03096
1.95147
2.69219
2.79184
2.77361
2.64572
2.81674
2.61587
2.38341
2.58232
2.43224
2.15119
2.38837
2.38458
2.01407
1.8182
1.56703
1.85072
2.10308
1.9809
1.86409
1.42165
1.25714
1.02701
1.17355
1.2058
1.21763
1.32682
1.98332
1.78809
1.88416
1.74682
1.73538
1.93875
1.47598
1.56451
1.29919
1.34057
1.2297
1.54421
1.33533
1.35218
1.22326
1.73708
1.60785
1.78149
1.29165
1.39174
1.45925
2.05067
1.98719
2.03569
1.88962
1.96185
2.06391
1.89088
1.89821
1.78273
1.83915
1.92779
1.68476
1.59511
1.78568
1.54293
1.90573
1.93226
1.87102
1.68953
1.74146
1.60641
1.35323
1.25541
1.27293
1.34299
1.57995
1.46421
1.64659
1.75478
1.93282
1.65851
1.90911
1.72719
1.64407
1.39119
1.33331
1.37923
1.24734
1.79105
1.51402
1.7454
1.28764
1.3645
1.39496
1.46645
1.72224
1.72224
1.34093
1.34261
1.7716
1.52384
1.69528
1.58282
1.7871
1.27446
1.41074
1.89855
1.64521
1.6851
1.67547
1.98616
2.68909
2.6747
2.67157
2.05758
2.36475
2.20714
2.27917
2.47399
2.1848
2.06142
2.19006
2.01376
1.58555
1.48011
1.92644
1.73301
1.99214
1.86506
2.09913
2.67053
2.5607
2.41378
2.47008
2.58871
2.3853
2.17917
2.16245
2.38209
2.14994
2.17422
2.32305
2.18431
2.56586
2.51823
2.42528
2.17931
2.31126
2.22452
1.64408
2.04985
1.8982
1.80112
1.91637
1.99589
2.16761
2.24718
2.1949
1.98568
2.31033
2.07402
2.07249
2.18878
1.93358
1.97949
2.06724
2.17361
2.27133
2.00344
2.08117
1.97551
1.59392
1.86061
1.71644
1.64309
1.80275
2.11867
2.03681
2.14766
2.09814
2.05763
1.80181
2.0371
2.00309
1.88264
1.93972
1.99712
2.13065
1.98922
1.22547
1.45929
1.33523
1.43403
1.64138
1.82345
2.00365
1.93275
1.92982
1.67504
1.95066
1.79382
1.84395
1.96093
1.99096
1.71195
1.85121
1.74039
2.57131
2.17884
2.42171
2.53466
2.46919
1.39755
1.99972
1.70704
1.60824
1.86765
2.4779
2.47321
2.57296
2.31754
2.25466
2.16146
2.20741
2.40161
2.1342
2.5376
2.32564
2.13025
2.16364
2.74204
2.27616
2.49686
2.72472
2.6824
1.84111
2.23799
2.06104
1.95027
2.09003
2.46841
2.25754
2.34104
2.00814
1.85654
1.92494
1.8363
1.66889
1.82101
1.45721
1.64087
1.79483
1.81635
1.42621
1.51414
1.42895
1.36496
1.3609
1.65331
1.44832
1.52922
