# vtk DataFile Version 4.2
vtk output
ASCII
DATASET POLYDATA
POINTS 642 double
-1.96486 3.79636 -0.120913
2.00475 3.84993 -0.0827391
-2.0316 -2.62343 0.00298726
1.96813 -2.57535 0.0083828
0.00755954 -1.26715 3.0219
-0.00245638 2.54581 2.94023
-0.0397133 -1.26478 -2.73322
-0.0929338 2.60819 -3.04329
3.08439 0.794196 -1.90229
2.87581 0.696885 1.68145
-3.14701 0.748283 -1.97642
-2.86152 0.623899 1.70909
-2.89137 2.4498 0.980236
-1.67046 1.75109 2.74529
-1.07313 3.5709 1.7755
1.07906 3.5737 1.77398
-0.0159125 4.34206 -0.0633307
1.23949 3.73219 -1.90947
-1.23703 3.74406 -1.94012
-1.93467 1.853 -3.09075
-3.07614 2.58092 -1.23024
-3.55917 0.717342 -0.0733232
1.65991 1.7673 2.72873
2.93603 2.47802 1.01533
-1.70777 -0.525419 2.80813
-0.00944506 0.576614 3.48828
-3.05371 -1.28539 -1.10806
-3.02233 -1.29865 1.09693
-0.120433 0.78361 -3.40356
-1.83616 -0.375618 -2.81417
3.09675 2.58654 -1.20402
1.91148 1.86873 -2.98109
2.91333 -1.27009 1.06918
1.68069 -0.524905 2.77377
1.14962 -2.40359 1.84015
-1.16927 -2.41208 1.83405
0.00647936 -3.10529 0.00578703
-1.17174 -2.3664 -1.76223
1.13775 -2.34983 -1.73644
1.71445 -0.381771 -2.61391
2.88905 -1.2417 -1.04819
3.55907 0.751093 -0.0495089
-2.52801 3.23006 0.452247
-2.05074 3.10942 1.4654
-1.55687 3.7791 0.860435
-2.35329 1.2118 2.29322
-2.34054 2.16305 1.98584
-2.98136 1.56489 1.40116
-0.527305 3.13191 2.49834
-1.45003 2.75419 2.38475
-0.836985 2.22429 2.96356
-0.575848 4.11817 0.935408
-1.04917 4.21738 -0.0846168
0.526647 3.13092 2.49576
-0.000667879 3.73613 1.8806
1.09963 4.20665 -0.0807019
0.579494 4.11774 0.937093
1.61083 3.79372 0.826033
-0.627278 4.24125 -1.00541
-1.70689 3.93345 -0.99916
1.70835 3.95007 -0.976152
0.639247 4.21761 -1.00431
-0.682849 3.24653 -2.66121
-0.0193369 3.84861 -1.95097
0.654801 3.22891 -2.59291
-2.28156 3.30985 -1.66321
-2.60301 3.34383 -0.664018
-1.02519 2.32341 -3.24017
-1.66168 2.9271 -2.64772
-3.26695 1.63574 -1.70588
-2.65696 2.30744 -2.27217
-2.69913 1.29433 -2.61249
-3.15022 2.61009 -0.0778447
-3.47997 0.725313 -1.09023
-3.51886 1.66958 -0.655222
-3.40817 1.64578 0.47176
-3.30167 0.673092 0.867363
2.09568 3.12033 1.44226
2.55787 3.28896 0.467011
0.83716 2.22574 2.96208
1.45494 2.7562 2.38456
3.04098 1.58431 1.41469
2.37995 2.17147 1.95915
2.37499 1.22551 2.25565
-0.865869 1.15989 3.24699
-5.73466e-05 1.63973 3.28239
-2.36894 0.000181877 2.31234
-1.7139 0.588386 2.92317
-0.00889539 -0.385266 3.39407
-0.882929 0.0326918 3.34007
-0.87268 -0.946112 3.05702
-3.3717 -0.506874 0.514886
-2.99865 -0.437126 1.45152
-3.06659 -0.283469 -1.54079
-3.40553 -0.456106 -0.578106
-2.63464 -2.09313 0.564389
-3.25156 -1.39887 -0.00289669
-2.63377 -2.08919 -0.556111
-1.97251 0.757007 -3.13893
-2.60329 0.192513 -2.50737
-0.128049 1.71224 -3.38178
-1.07483 1.32922 -3.48567
-0.962445 -0.917804 -2.86789
-1.06849 0.246492 -3.30311
-0.0639336 -0.176031 -3.13624
1.65517 2.90935 -2.59699
1.03173 2.32768 -3.10806
2.63619 3.37207 -0.631654
2.28122 3.30944 -1.64413
2.64823 1.32792 -2.52208
2.64427 2.30255 -2.23761
3.25392 1.65586 -1.66357
2.55242 -2.04031 0.561215
2.15748 -1.9488 1.54385
1.64655 -2.62222 0.921434
2.35402 0.0168537 2.29015
2.38864 -0.995829 2.01843
2.93151 -0.351433 1.45685
0.580674 -1.92991 2.55051
1.53062 -1.56904 2.45991
0.861676 -0.98161 3.03689
0.619062 -2.94451 0.987736
1.08218 -2.99068 -0.00307687
-0.575346 -1.92991 2.53629
0.00523164 -2.55868 1.9256
-1.12178 -2.98642 0.00415414
-0.631031 -2.95131 0.985691
-1.69127 -2.65166 0.919251
0.635827 -2.92329 -0.930479
1.63075 -2.61108 -0.88396
-1.68959 -2.63713 -0.893456
-0.645861 -2.92203 -0.9416
0.58733 -1.83237 -2.36876
-0.0111345 -2.46429 -1.8002
-0.621435 -1.84323 -2.40442
2.13137 -1.91383 -1.48106
2.53581 -2.02953 -0.530931
0.902406 -0.941393 -2.77348
1.51417 -1.49857 -2.32649
2.9781 -0.176182 -1.50987
2.3784 -0.938314 -1.95411
2.51739 0.264614 -2.37811
3.11365 -1.35083 0.0175844
3.45146 0.784035 -1.05335
3.27295 -0.323443 -0.516793
3.26239 -0.405499 0.503611
3.33946 0.757789 0.893119
0.854881 0.033917 3.31972
1.69911 0.598142 2.87822
0.83986 1.17848 3.23918
-2.21822 -1.9769 1.55239
-1.57233 -1.57242 2.44775
-2.46502 -1.02706 2.03545
-1.58049 -1.51461 -2.39409
-2.21895 -1.95352 -1.51765
-2.53075 -0.967076 -2.0605
1.92664 0.81265 -2.96248
0.929244 0.234578 -3.13397
1.025 1.34182 -3.27449
3.45074 1.6532 0.511297
3.52582 1.69232 -0.656406
3.17706 2.64441 -0.0769365
-2.25094 3.55576 0.148646
-2.06449 3.51017 0.6729
-1.7847 3.7995 0.325417
-2.50549 2.78863 1.22303
-2.31463 3.1684 0.966092
-2.7405 2.86478 0.725218
-1.32673 3.70515 1.33259
-1.81901 3.46929 1.19355
-1.56936 3.37653 1.64795
-2.64033 0.904947 1.98898
-2.67762 1.41919 1.87278
-2.92996 1.09144 1.56982
-2.01859 1.97259 2.40434
-2.36294 1.70773 2.16699
-2.0349 1.48731 2.54263
-2.97085 2.00773 1.20729
-2.68624 1.8809 1.70104
-2.64014 2.31835 1.49068
-0.24415 2.8352 2.76644
-0.708577 2.70643 2.75837
-0.389293 2.41577 2.9793
-1.276 3.19759 2.10784
-1.00429 2.97692 2.46087
-0.802023 3.37637 2.1702
-1.26504 2.00238 2.88675
-1.16355 2.50281 2.70416
-1.58387 2.26223 2.59792
-2.22942 2.65695 1.75078
-1.91906 2.47725 2.21812
-1.76446 2.9615 1.96004
-1.29863 4.03694 0.399049
-1.54883 4.01966 -0.106382
-0.840106 3.87799 1.38671
-1.07135 3.98386 0.922899
-0.557324 4.32542 -0.0754335
-0.803497 4.19954 0.421387
-0.30223 4.27732 0.4357
0.240042 2.83419 2.76521
-0.00233253 3.17929 2.51837
0.553566 3.69349 1.85302
0.276957 3.46874 2.20987
0.804755 3.37672 2.16772
-0.279048 3.46881 2.21137
-0.552236 3.6929 1.85461
1.61501 4.05062 -0.0910716
1.35786 4.03463 0.383793
1.85672 3.85101 0.3198
0.295412 4.27371 0.443414
0.820556 4.19293 0.428863
0.556063 4.30681 -0.0595548
1.34271 3.71226 1.32662
1.09069 3.98718 0.915962
0.845767 3.88021 1.38618
-0.289491 3.96875 1.43591
0.29 3.96884 1.43581
-0.000684731 4.16728 0.953576
-1.37415 4.11779 -0.553561
-1.86268 3.89442 -0.52983
-0.327211 4.35651 -0.536533
-0.84106 4.28271 -0.540759
-1.49485 3.88068 -1.47281
-1.17933 4.11355 -1.02368
-0.950938 4.01957 -1.49158
1.88907 3.93565 -0.491998
1.41831 4.13874 -0.543145
0.966225 4.00244 -1.46788
1.20387 4.10525 -1.01049
1.49572 3.88405 -1.45202
0.878089 4.26013 -0.54217
0.299135 4.33704 -0.533601
-0.38734 2.9166 -2.89602
-0.0443531 3.26016 -2.60191
0.284238 2.90655 -2.83589
-0.660734 3.82138 -1.96619
-0.371648 3.57542 -2.31862
-0.960563 3.52411 -2.34359
0.955063 3.50581 -2.29763
0.329683 3.56636 -2.29395
0.65027 3.80328 -1.94223
-0.0183359 4.27186 -1.01192
0.314886 4.08439 -1.49601
-0.336264 4.09989 -1.50484
-2.18745 3.67431 -0.863662
-2.28101 3.61677 -0.372524
-1.76604 3.57363 -1.8266
-2.00737 3.66374 -1.3515
-2.86851 2.99973 -0.948373
-2.48723 3.35764 -1.17189
-2.72732 2.97094 -1.45881
-0.580259 2.49598 -3.16844
-0.885867 2.82169 -2.98094
-1.82312 2.4029 -2.90712
-1.35455 2.64564 -2.99296
-1.46924 2.11103 -3.22002
-1.1785 3.13546 -2.69063
-1.46019 3.38536 -2.32049
-3.23631 1.15695 -1.87318
-3.02238 1.49263 -2.19033
-2.9755 1.00143 -2.28774
-2.91629 2.47254 -1.76176
-3.00536 1.99256 -2.0012
-3.21203 2.11419 -1.48978
-2.35494 1.57533 -2.88041
-2.70659 1.80462 -2.48682
-2.32206 2.09354 -2.72205
-2.00061 3.15545 -2.18753
-2.19229 2.64477 -2.49482
-2.50562 2.84112 -1.9951
-2.61007 3.30376 -0.0992948
-3.14687 2.62306 -0.666001
-2.91277 2.99136 -0.384265
-2.87391 2.94264 0.20194
-3.06093 2.55142 0.474646
-3.33264 0.745259 -1.58859
-3.41828 1.20095 -1.40409
-3.58468 1.19799 -0.357539
-3.54122 1.20554 -0.873962
-3.56135 0.720366 -0.585556
-3.41895 1.67617 -1.1945
-3.33077 2.13989 -0.960943
-3.19277 1.16677 1.13064
-3.08828 0.645288 1.33817
-3.18992 2.07116 0.739322
-3.22796 1.62853 0.938641
-3.47305 0.698114 0.410147
-3.40009 1.19112 0.660902
-3.53146 1.19215 0.194299
-3.38427 2.15891 -0.369432
-3.51728 1.66859 -0.0754331
-3.33413 2.1351 0.212777
2.12482 3.56941 0.656496
2.28403 3.61984 0.171769
1.58444 3.38311 1.64356
1.86652 3.48516 1.16348
2.77488 2.9087 0.750796
2.37198 3.21559 0.959984
2.56545 2.8204 1.22565
0.388393 2.41346 2.97888
0.710876 2.70379 2.75691
1.5822 2.27083 2.59374
1.1662 2.50379 2.70369
1.25776 2.01345 2.87893
1.00872 2.97598 2.45932
1.28232 3.19948 2.10667
2.98249 1.13587 1.56133
2.73265 1.43719 1.84217
2.67289 0.94706 1.95553
2.70359 2.33818 1.48936
2.74975 1.89629 1.68536
3.02673 2.02527 1.23844
2.03385 1.49733 2.5174
2.39541 1.71832 2.13221
2.02207 1.9855 2.38796
1.77856 2.96648 1.95658
1.92978 2.48413 2.21202
2.27221 2.66389 1.72989
-0.431879 1.94076 3.16306
-0.00110343 2.15111 3.11793
-1.29308 1.48258 3.02385
-0.876227 1.72369 3.12433
-0.00442868 1.09336 3.40957
-0.428232 1.3956 3.30931
-0.42753 0.848864 3.42628
-2.65215 0.3204 2.00178
-2.35296 0.612686 2.34468
-1.71736 0.031166 2.91207
-2.03535 0.301512 2.6614
-2.05833 -0.277738 2.58554
-2.03262 0.909997 2.62933
-1.70436 1.18812 2.85094
-0.00372948 -0.862744 3.22667
-0.446584 -0.656064 3.27646
-0.405259 -1.12653 3.07228
-0.440127 0.304938 3.46477
-0.450133 -0.169536 3.41207
-0.0102715 0.0893101 3.48255
-1.30635 -0.749435 2.96783
-0.894549 -0.453241 3.23595
-1.30693 -0.24019 3.1194
-1.31964 0.871407 3.1288
-1.32407 0.299384 3.17422
-0.882237 0.568967 3.3502
-3.16263 0.0640219 1.16236
-2.92909 0.124101 1.60266
-3.44827 0.0950884 0.22162
-3.34133 0.0671544 0.688854
-3.04549 -0.886209 1.29078
-3.2198 -0.500773 0.989105
-3.25239 -0.928219 0.813306
-3.14577 0.3295 -1.82064
-3.33147 0.233587 -1.31331
-3.29429 -0.901848 -0.836071
-3.28625 -0.400787 -1.02548
-3.09852 -0.858132 -1.32136
-3.45015 0.153911 -0.829723
-3.47366 0.123298 -0.34178
-2.33342 -2.41092 0.264208
-2.68862 -2.11513 0.00244892
-2.33228 -2.409 -0.257526
-3.18575 -1.37421 0.566202
-2.9825 -1.76001 0.293391
-2.87237 -1.71671 0.845185
-2.87974 -1.70919 -0.840225
-2.98504 -1.75807 -0.290911
-3.20273 -1.3674 -0.572976
-3.44885 -0.507936 -0.0298894
-3.39736 -0.955742 -0.297899
-3.38165 -0.965335 0.272638
-2.66859 0.747959 -2.60973
-2.92321 0.488648 -2.2473
-1.98221 1.31092 -3.16678
-2.35234 1.0348 -2.92127
-2.2328 -0.0975287 -2.70205
-2.30753 0.466538 -2.85635
-1.91728 0.200419 -3.02053
-0.108121 2.20045 -3.23055
-0.645161 2.00837 -3.3679
-0.652237 1.06454 -3.4694
[...]
POINT_DATA 642
SCALARS Mean_Curvature double 1
LOOKUP_TABLE default
0.525002
0.677699
0.665768
0.623428
0.515551
0.623901
0.28526
0.161765
0.625318
0.190953
0.639162
0.349768
0.549802
0.541644
0.595094
0.584095
0.346668
0.741577
0.727986
0.648433
0.658621
0.540496
0.509456
0.605235
0.526689
0.70065
0.846674
0.846483
0.398643
0.459234
0.62044
0.774632
0.877828
0.373916
0.609047
0.580262
0.357344
0.621759
0.635215
-0.0364036
0.826596
0.615967
0.582348
0.493713
0.472923
0.427981
0.510685
0.486861
0.657492
0.578908
0.550621
0.53934
0.595446
0.632685
0.624549
0.507313
0.530178
0.383967
0.568436
0.727862
0.659969
0.483722
0.618749
0.413096
0.385594
0.606568
0.646032
0.747655
0.580786
0.738624
0.578577
0.68225
0.614595
0.476461
0.684439
0.640058
0.161081
0.388955
0.578285
0.584368
0.584014
0.62925
0.440102
0.38075
0.263953
0.493954
0.280037
0.536841
0.661512
0.674044
0.546665
0.421662
0.385197
-0.233718
0.3825
0.617446
0.935414
0.6168
0.628147
0.527485
0.350192
0.925494
0.66576
0.672526
0.221516
0.61105
0.748365
0.65652
0.607298
0.69887
0.610559
0.752974
0.617602
0.602276
0.577738
0.336764
0.509975
0.44086
0.617683
0.745852
0.504907
0.568308
0.66735
0.603447
0.60061
0.507157
0.578239
0.5822
0.639502
0.636156
0.610161
0.596304
0.452861
0.326419
0.52992
0.585731
0.59776
0.542829
0.740926
0.264703
0.553245
0.527551
0.990486
0.554173
0.121509
0.2757
0.537853
0.65311
0.437845
0.347385
0.584397
0.715157
0.683659
0.630256
0.538759
0.665038
0.653225
0.361318
0.38593
0.723571
0.627762
0.56152
0.550806
0.333772
0.273427
0.411741
0.384996
0.57888
0.546587
0.492383
0.555492
0.262645
0.432778
0.299037
0.563309
0.502563
0.482277
0.511212
0.458816
0.437251
0.671379
0.630324
0.588234
0.595742
0.618491
0.630906
0.562101
0.57403
0.559611
0.499361
0.550161
0.556403
0.435656
0.498586
0.57566
0.515018
0.610555
0.480447
0.492935
0.652098
0.656583
0.613946
0.63569
0.616038
0.647185
0.624939
0.720272
0.274103
0.608645
0.488094
0.445894
0.46205
0.514564
0.482615
0.567877
0.595953
0.589354
0.55558
0.59367
0.618008
0.731786
0.675506
0.666299
0.508951
0.473999
0.701148
0.817278
0.412002
0.481333
0.739868
0.547517
0.548786
0.39258
0.251338
0.137435
0.466911
0.458148
0.687512
0.655716
0.41808
0.406789
0.512808
0.480883
0.580108
0.711064
0.583851
0.58232
0.646656
0.657477
0.689272
0.633093
0.621942
0.725165
0.53426
0.726318
0.691584
0.754101
0.682354
0.717362
0.708886
0.664501
0.614895
0.62723
0.691468
0.687657
0.653691
0.566113
0.579962
0.572408
0.596521
0.576305
0.539093
0.560386
0.622429
0.637835
0.599622
0.600108
0.619799
0.571993
0.540878
0.554997
0.488783
0.505901
0.329721
0.627485
0.572752
0.507295
0.56983
0.615013
0.615192
0.698887
0.662418
0.544978
0.63457
0.523028
0.389669
0.580608
0.531316
0.539025
0.578925
0.613346
0.587983
0.6029
0.577289
0.60936
0.585853
0.508014
0.461766
0.355068
0.54185
0.530153
0.625376
0.41411
0.429234
0.522197
0.53161
0.539457
0.41623
0.561182
0.540677
0.469283
0.50505
0.489286
0.449873
0.636249
0.325089
0.330245
0.574042
0.380481
0.407193
0.2999
0.443216
0.592619
0.613392
0.529006
0.710794
0.68002
0.729747
0.551116
0.616759
0.608918
0.50258
0.651816
0.653904
0.269484
0.30087
0.216064
0.241451
0.699114
0.379169
0.810091
0.516767
0.394323
0.816543
0.163991
0.633589
0.467958
0.0445637
0.647607
0.618006
0.657406
0.915977
0.617332
0.635181
0.590394
0.605936
0.900064
0.516602
0.92076
0.90947
0.6142
0.583496
0.683686
0.647917
0.511452
0.576045
0.559007
0.200401
0.60694
0.458065
0.672634
0.425528
0.940772
0.877599
0.520554
-0.0632962
-0.216897
0.628389
0.495174
-0.212426
0.328997
0.202219
0.285849
0.796854
0.817346
0.730369
0.672995
0.208631
0.693256
0.732215
0.855579
0.797225
0.682933
0.686525
0.639538
0.611285
0.629056
0.637723
0.611938
0.602289
0.670896
0.727979
0.69756
0.720324
0.741182
0.727811
0.69262
0.734286
0.595915
0.593198
0.593633
0.587933
0.631077
0.60566
0.617519
0.696482
0.597401
0.673771
0.589935
0.588186
0.602546
0.300928
0.449295
0.279972
0.483327
0.542392
0.451429
0.433668
0.483102
0.563495
0.333478
0.664812
0.531161
0.623836
0.641757
0.616697
0.435064
0.704001
0.510905
0.743694
0.603522
0.646155
0.579971
0.610721
0.580712
0.562926
0.5909
0.534631
0.464861
0.414817
0.567637
0.646925
0.363166
0.611827
0.619369
0.603911
0.717816
0.62454
0.627533
0.51849
0.483343
0.512016
0.562139
0.542628
0.57391
0.590061
0.480927
0.54751
0.64017
0.63719
0.547435
0.773794
0.620891
0.663568
0.727684
0.660337
0.586793
0.645927
0.633777
0.565953
0.614141
0.533072
0.542854
0.232032
0.571241
0.567418
0.466507
0.646854
0.619433
0.518944
0.595311
0.409508
0.547351
0.517065
0.61922
0.621402
0.594511
0.612077
0.637381
0.591179
0.667489
0.541874
0.678746
0.660803
0.753609
0.169757
0.659136
0.602709
0.532859
0.484259
0.585285
0.757253
0.136834
0.252783
0.468993
0.046796
0.167722
0.620715
0.758496
0.755377
0.650029
0.889976
0.648807
0.650188
0.971049
0.600217
0.473623
0.515185
0.458078
0.573452
0.0369735
0.427224
0.249635
0.398958
0.525686
0.36808
0.584594
0.165529
0.363456
0.73855
0.226592
0.854589
0.602472
0.547633
0.5772
0.664615
0.702655
0.262356
0.429529
0.377562
0.30573
0.527956
0.570554
0.622328
0.504198
0.516015
0.461659
0.618641
0.303084
0.627413
0.605862
0.572273
0.583847
0.595876
0.65336
0.376898
0.38513
0.386098
0.590572
0.592088
0.365583
0.79644
0.510532
0.380722
0.382479
0.604575
0.800476
0.733245
0.748135
0.527287
0.581681
0.718553
0.665862
0.636651
0.588143
0.585539
0.595004
0.541502
0.540935
0.0987228
0.171114
0.530215
0.773249
0.5033
0.691953
0.710121
0.633553
0.519409
0.594336
0.676501
0.724443
0.119594
0.412048
0.340832
0.256809
0.200935
0.285414
0.825154
0.22847
0.422323
0.432778
0.35111
0.395863
0.715217
0.616226
0.688268
0.661023
0.693817
0.637948
0.681347
0.704608
0.7399
0.621751
0.646774
0.64979
0.585479
0.576811
0.669503
0.675011
0.691444
0.534606
0.589073
SCALARS CoVolArea double 1
LOOKUP_TABLE default
0.169397
0.154642
0.163156
0.161403
0.16505
0.141681
0.175817
0.202206
0.148136
0.172593
0.154253
0.179182
0.25714
0.246553
0.253306
0.256761
0.285548
0.277982
0.282088
0.280748
0.278368
0.288295
0.247208
0.255411
0.261826
0.225442
0.254765
0.245282
0.272348
0.290138
0.279252
0.245017
0.234175
0.266929
0.269158
0.274001
0.299755
0.261709
0.251189
0.306993
0.239616
0.252072
0.256004
0.282147
0.273551
0.254329
0.266026
0.239696
0.227401
0.256636
0.230625
0.284237
0.257846
0.229968
0.263638
0.266789
0.287593
0.276361
0.293677
0.257575
0.256953
0.307223
0.261348
0.322477
0.277756
0.299787
0.254143
0.237192
0.299685
0.25177
0.302205
0.250689
0.27877
0.266517
0.278014
0.250884
0.2841
0.292259
0.250568
0.227413
0.257451
0.221144
0.272963
0.259225
0.276061
0.240865
0.27576
0.259623
0.224245
0.241143
0.253061
0.272388
0.253705
0.317337
0.277887
0.2641
0.265562
0.262655
0.268529
0.265552
0.289173
0.227125
0.246217
0.242069
0.32762
0.287991
0.245724
0.258872
0.299528
0.233912
0.293052
0.240026
0.252437
0.276938
0.261648
0.25697
0.257831
0.267946
0.246553
0.257041
0.2477
0.297314
0.254779
0.260603
0.288846
0.265738
0.299171
0.266275
0.277494
0.249884
0.258209
0.289383
0.238863
0.292422
0.236787
0.270031
0.251004
0.23085
0.242923
0.286208
0.269796
0.252256
0.240356
0.243512
0.328001
0.285335
0.252273
0.242007
0.269189
0.276234
0.287712
0.271183
0.248025
0.270082
0.287342
0.279984
0.24156
0.294204
0.283636
0.255845
0.273889
0.284368
0.238331
0.274774
0.255262
0.279762
0.267881
0.249147
0.251586
0.266127
0.265297
0.243422
0.247538
0.232418
0.249923
0.24008
0.241262
0.241311
0.247292
0.272936
0.199592
0.225235
0.202669
0.255776
0.233047
0.234535
0.234353
0.232844
0.249716
0.299753
0.282731
0.288865
0.275052
0.240677
0.267393
0.265706
0.256657
0.26889
0.291038
0.20137
0.227197
0.260503
0.237225
0.236563
0.23604
0.259042
0.225593
0.274887
0.230987
0.295771
0.281111
0.277976
0.26526
0.277135
0.271409
0.295234
0.296176
0.309478
0.256791
0.226017
0.27637
0.256581
0.271217
0.274313
0.30217
0.22315
0.249981
0.301944
0.265876
0.264592
0.271695
0.294807
0.250665
0.295904
0.275626
0.302354
0.290422
0.261434
0.263251
0.297516
0.310004
0.323509
0.343898
0.334387
0.249231
0.225495
0.292279
0.265745
0.261419
0.263152
0.289046
0.233144
0.241847
0.299596
0.261761
0.258397
0.255254
0.286212
0.216787
0.250894
0.220188
0.291282
0.267655
0.26401
0.25971
0.267422
0.297081
0.33083
0.333234
0.329582
0.252549
0.285411
0.261919
0.251416
0.259255
0.227816
0.24827
0.261875
0.257228
0.275943
0.26152
0.286575
0.248655
0.256224
0.251588
0.232907
0.274045
0.242105
0.253037
0.305254
0.283598
0.286329
0.259338
0.221402
0.278279
0.275706
0.251108
0.262903
0.274503
0.203618
0.226622
0.247915
0.230082
0.228966
0.234328
0.258866
0.20897
0.236858
0.236763
0.265311
0.239171
0.231221
0.248856
0.248281
0.258437
0.30046
0.291249
0.307818
0.237733
0.207959
0.265457
0.249766
0.235104
0.252946
0.249965
0.253479
0.272999
0.256698
0.261979
0.259803
0.259706
0.264252
0.21443
0.233069
0.230339
0.231799
0.223529
0.214802
0.250013
0.23613
0.251948
0.284069
0.265519
0.270465
0.29089
0.255156
0.320938
0.295764
0.220851
0.253253
0.235572
0.255145
0.295203
0.250854
0.284849
0.261596
0.289576
0.322917
0.234176
0.26285
0.232247
0.256992
0.265427
0.25961
0.262726
0.266636
0.262806
0.302357
0.266495
0.261243
0.247972
0.228199
0.269988
0.25239
0.273114
0.254694
0.27008
0.281214
0.248408
0.240747
0.229795
0.265378
0.224549
0.258121
0.237228
0.31402
0.311236
0.267151
0.261154
0.273549
0.267222
0.277154
0.253916
0.271718
0.248897
0.268416
0.25785
0.275157
0.279554
0.251277
0.229372
0.242086
0.273636
0.225927
0.260978
0.293446
0.271534
0.264819
0.271346
0.288254
0.208648
0.23737
0.208678
0.275933
0.249754
0.236624
0.257487
0.258111
0.292022
0.324693
0.327096
0.322832
0.226662
0.25602
0.231431
0.259927
0.25802
0.243868
0.261776
0.262072
0.276069
0.246938
0.254644
0.251136
0.262823
0.245527
0.250545
0.235694
0.24409
0.248085
0.231606
0.243589
0.224534
0.268177
0.241588
0.249432
0.252407
0.239998
0.259207
0.283209
0.278348
0.291834
0.261661
0.23035
0.283466
0.269139
0.264998
0.270179
0.302611
0.241642
0.258144
0.283789
0.264066
0.255398
0.257632
0.277796
0.231358
0.264718
0.234003
0.305278
0.2766
0.280477
0.267895
0.273404
0.288228
0.317504
0.320399
0.328352
0.250243
0.226757
0.289048
0.250443
0.246941
0.248755
0.26383
0.230098
0.258429
0.273289
0.261022
0.257811
0.268263
0.299677
0.218342
0.257418
0.213845
0.267833
0.260064
0.234429
0.239755
0.258862
0.271546
0.323773
0.317629
0.313886
0.250077
0.225615
0.264418
0.251773
0.244727
0.253343
0.258601
0.236342
0.213937
0.257432
0.211413
0.255982
0.223737
0.253741
0.226392
0.271983
0.213939
0.252584
0.278683
0.262385
0.27517
0.286894
0.288281
0.28254
0.270967
0.276838
0.249504
0.242345
0.246704
0.246465
0.23652
0.212776
0.273648
0.294046
0.292748
0.245676
0.314701
0.276816
0.290794
0.230318
0.240906
0.280095
0.245949
0.29502
0.289241
0.279337
0.310895
0.259087
0.236526
0.259071
0.242079
0.223756
0.231365
0.273884
0.270123
0.265186
0.261611
0.262012
0.234266
0.247725
0.24664
0.243595
0.267708
0.273563
0.296678
0.274508
0.263174
0.284087
0.269172
0.267946
0.273553
0.266013
0.265692
0.261173
0.257675
0.273519
0.265073
0.245331
0.231989
0.253565
0.260585
0.300747
0.281303
0.289433
0.217353
0.270267
0.235486
0.243633
0.283515
0.257544
0.279056
0.265616
0.26235
0.278899
0.289653
0.294862
0.287869
0.279594
0.261974
0.30622
0.30103
0.299102
0.23074
0.277588
0.23509
0.230428
0.238431
0.304007
0.283938
0.286364
0.280306
0.30452
0.297905
0.244643
0.254766
0.289814
0.294485
0.289392
0.305387
0.272923
0.219483
0.247694
0.22353
0.224351
0.259152
0.234544
0.27618
0.245952
0.24397
0.259429
0.251381
0.273835
0.257972
0.260013
0.280543
0.294075
0.307593
0.302323
SCALARS SignedDistance double 1
LOOKUP_TABLE default
2.66004
2.45759
2.14395
2.31004
2.6926
2.81025
3.83773
2.89464
3.03328
3.31934
2.89225
3.18403
2.86213
3.03521
2.62167
2.61994
2.61087
2.41924
2.37731
2.42278
2.2943
3.08777
3.08209
2.74692
2.98744
2.92055
2.88178
2.72492
3.31528
3.62454
2.22035
2.81239
2.90961
3.08571
2.38416
2.4019
2.71015
2.80447
2.82824
3.76547
3.16163
3.04539
2.68872
2.80252
2.67669
3.19946
2.97561
3.1115
2.66007
2.80136
2.89909
2.53356
2.59689
2.67213
2.5298
2.62777
2.54868
2.74128
2.28481
2.40116
2.23723
2.38576
2.70611
2.59515
2.79115
2.1113
2.38257
2.69952
2.2338
2.49314
2.16194
2.56803
2.51836
2.99199
2.59792
2.87728
3.23504
2.83982
2.57511
2.90529
2.81317
3.03737
3.03294
3.23785
3.16563
3.03729
3.16301
3.18741
2.6556
2.81955
2.74476
3.07509
3.0641
3.41826
3.22915
2.25904
2.58559
2.31649
2.97646
3.18572
3.00877
3.03667
3.80182
3.53272
3.68265
2.41933
2.99331
2.23295
2.11648
2.86522
2.33901
2.58254
2.445
2.55275
2.315
3.23759
2.94383
3.15197
2.63193
2.74983
2.86924
2.36917
2.28845
2.7811
2.5594
2.41168
2.42063
2.25512
2.6458
2.45971
2.39339
2.73162
3.31451
3.18525
3.33757
2.8654
2.61338
3.80016
3.31736
3.47407
3.50443
3.39559
2.88023
2.99482
3.32734
3.2184
3.19313
2.90325
3.29098
3.18921
2.46256
2.75251
2.9636
3.20352
2.66856
3.35768
3.30777
3.56616
3.21248
2.77785
2.60371
2.45369
2.65187
2.78607
2.76921
2.882
2.82642
2.76131
2.6355
2.73458
2.70083
3.25411
3.1738
3.26183
2.98794
3.07979
3.11052
2.97862
3.05784
2.96589
2.72522
2.78529
2.846
2.70416
2.73267
2.62868
2.95627
2.84439
2.90326
2.88321
2.88006
2.78499
2.66815
2.68634
2.56633
2.58788
2.57213
2.58904
2.54684
2.73565
2.6352
2.55849
2.58412
2.63184
2.56973
2.55535
2.54436
2.74542
2.63604
2.55879
2.63459
2.61868
2.64952
2.62131
2.56345
2.51797
2.51836
2.50517
2.49616
2.55787
2.46009
2.40103
2.28707
2.36623
2.37094
2.33327
2.48068
2.44923
2.45241
2.28166
2.45235
2.49736
2.88785
2.84411
2.88275
2.47262
2.65302
2.5345
2.60924
2.67755
2.5266
2.46042
2.46272
2.39701
2.35645
2.51272
2.15739
2.1892
2.29381
2.21502
2.15813
2.88008
2.65501
2.29059
2.43593
2.49475
2.4467
2.2639
2.69423
2.47432
2.72335
2.19304
2.27661
2.38435
2.4667
2.31207
2.24044
2.12326
2.15075
2.10739
2.5172
2.39395
2.42617
2.58387
2.69456
2.96955
2.77904
2.84072
2.77746
3.01678
2.58576
2.43994
3.17753
3.19887
2.85044
3.00016
3.19238
3.06042
2.95065
2.5132
2.73076
2.68084
2.69281
2.51301
2.71522
2.7782
2.644
2.74133
2.81089
2.84486
2.7832
2.94282
2.85218
2.9884
2.73183
2.70638
3.20014
3.17112
3.30827
2.92125
3.03756
2.87902
3.16328
3.13659
3.05902
2.80875
2.92525
2.9269
2.95401
2.8962
3.0982
3.03342
3.12234
3.11837
3.03036
3.15013
3.2209
3.03846
3.17981
3.12127
3.26349
3.17939
2.64341
2.65
2.67592
2.83246
2.70551
2.75611
2.85514
2.74072
2.87058
3.18438
2.99408
2.98656
3.14134
3.13497
3.22918
3.17667
2.94969
3.05639
2.91193
3.15152
3.23555
3.06082
3.31368
3.19376
3.28435
3.2754
2.14864
2.19366
2.17986
2.62935
2.3483
2.44798
2.53689
2.38512
2.7045
3.12577
2.93133
2.87345
2.86378
3.01321
2.69172
2.74829
3.39414
3.05931
3.28076
2.92025
2.96469
3.30737
3.13673
3.1589
2.8234
2.704
3.7938
3.90377
3.95811
3.55515
3.80941
3.78946
3.48424
3.66055
3.49253
2.96519
3.27365
3.25521
2.83784
2.9163
2.35912
2.5839
2.89034
2.67671
2.58997
2.33317
2.19745
2.1312
2.13033
2.19624
2.14444
2.19343
2.94749
2.6913
2.82527
2.55343
2.59925
2.81692
2.34866
2.42772
2.2272
2.21572
2.17826
2.33833
2.31219
2.35627
2.27344
2.69529
2.50312
2.63917
2.33662
2.40223
2.44642
3.24966
3.18363
3.22354
3.01119
3.08311
3.1807
3.02934
3.02395
2.92814
2.79926
2.84
2.7606
2.53268
2.65328
2.47927
2.98071
2.9278
2.9675
2.78657
2.85826
2.63159
2.30937
2.2714
2.31376
2.31261
2.49993
2.42589
2.52029
2.76984
2.75468
2.52778
2.73388
2.55338
2.54414
2.3986
2.25502
2.29942
2.19504
2.59628
2.43204
2.58457
2.31552
2.30486
2.3464
2.39837
2.56266
2.5415
2.32036
2.35126
2.64442
2.44553
2.6221
2.47436
2.70887
2.23872
2.34699
2.73762
2.51039
2.57247
2.53188
2.78275
3.57961
3.49221
3.6193
2.97671
3.215
3.08871
3.07452
3.28253
3.01958
2.89034
3.00499
2.89932
2.51283
2.42167
2.8073
2.64208
2.85479
2.72851
2.98786
3.78041
3.53741
3.60787
3.55793
3.78065
3.26948
3.03652
3.22757
3.43992
3.19606
3.326
3.49685
3.38334
3.61041
3.62814
3.62665
3.06934
3.39789
3.18512
2.47601
3.01101
2.70858
2.58497
2.85185
3.00895
3.21384
3.24895
3.20884
3.0042
3.41045
3.29316
3.23623
3.28401
3.07809
3.17038
3.10907
3.27978
3.30109
3.1919
3.26258
3.1024
2.72298
2.97692
2.84162
2.76612
2.88877
3.31221
3.202
3.2979
3.27566
3.15308
2.9526
3.08551
3.11406
3.03677
3.11375
3.09021
3.25065
3.06374
2.23013
2.41381
2.31966
2.357
2.55389
2.81118
3.00728
2.89962
2.69299
2.54024
3.12453
2.83437
3.01929
3.09392
3.0782
2.60083
2.88027
2.70869
3.52617
2.95019
3.21639
3.49701
3.55259
2.31962
2.71576
2.47979
2.49882
2.69699
3.35589
3.63808
3.5469
3.442
3.10384
2.91877
2.97873
3.26856
3.13399
3.55701
3.34518
3.08053
3.05644
3.87045
3.39764
3.59205
3.82375
3.76881
2.94388
3.09981
3.10168
3.05168
3.20569
3.56318
3.37731
3.33808
3.09016
2.89084
2.98195
2.90104
2.72641
2.79043
2.41084
2.57555
2.79296
2.81924
2.40843
2.58109
2.49263
2.33901
2.31512
2.6515
2.48286
2.5696
