# vtk DataFile Version 4.2
vtk output
ASCII
DATASET POLYDATA
POINTS 642 double
-1.76318 3.46694 -0.170816
1.81129 3.52269 -0.126441
-1.84564 -2.30851 0.00593345
1.7609 -2.25774 0.0138778
0.00718565 -1.071 2.66039
-0.00292463 2.34424 2.54815
-0.0567064 -1.09162 -2.30591
-0.123336 2.42062 -2.69093
2.72573 0.873478 -1.67554
2.50387 0.710106 1.41721
-2.8014 0.798468 -1.7832
-2.48931 0.613151 1.45507
-2.55086 2.25767 0.796085
-1.43015 1.63682 2.37738
-0.927676 3.24722 1.55323
0.938494 3.25235 1.55053
-0.0186397 3.95542 -0.0899395
1.15192 3.42866 -1.7168
-1.14764 3.44332 -1.75901
-1.75996 1.76135 -2.78276
-2.7607 2.40525 -1.14199
-3.13272 0.744875 -0.111323
1.41824 1.66056 2.35585
2.60503 2.28991 0.834019
-1.46629 -0.429281 2.45406
-0.0146665 0.547397 3.04178
-2.72009 -1.13093 -0.954494
-2.66852 -1.15586 0.927192
-0.154004 0.850438 -2.95461
-1.65351 -0.206168 -2.43617
2.78748 2.41491 -1.10269
1.73782 1.79774 -2.62189
2.5289 -1.12276 0.899692
1.43493 -0.436417 2.41439
1.02663 -2.10334 1.62964
-1.05674 -2.11583 1.62131
0.00476584 -2.73156 0.0134638
-1.07212 -2.0629 -1.52545
1.0235 -2.04435 -1.48726
1.5107 -0.232258 -2.21428
2.5066 -1.09165 -0.871916
3.1239 0.806246 -0.0781294
-2.25023 2.95575 0.332964
-1.79113 2.83986 1.26443
-1.37379 3.44418 0.725223
-2.03299 1.1527 1.97437
-2.02786 2.0067 1.709
-2.6055 1.47694 1.16904
-0.445552 2.85324 2.18183
-1.24688 2.52589 2.07125
-0.706889 2.06187 2.57085
-0.504593 3.74185 0.813369
-0.946387 3.84163 -0.121269
0.445336 2.85281 2.17924
-0.000446885 3.392 1.64897
1.01479 3.8314 -0.115569
0.511442 3.74236 0.816073
1.44699 3.46088 0.683784
-0.577247 3.88102 -0.919669
-1.55224 3.60153 -0.927238
1.56806 3.62525 -0.890382
0.586096 3.85695 -0.914971
-0.665406 2.98509 -2.37611
-0.0266776 3.53697 -1.74405
0.619093 2.97514 -2.3032
-2.06959 3.06251 -1.52054
-2.32852 3.07791 -0.641211
-0.976265 2.17101 -2.88023
-1.5231 2.72236 -2.39478
-2.92264 1.56203 -1.56302
-2.40717 2.16528 -2.06266
-2.43357 1.27059 -2.34207
-2.80597 2.41115 -0.122766
-3.07745 0.766106 -1.00711
-3.12569 1.59362 -0.623647
-3.00088 1.56472 0.346525
-2.89186 0.680294 0.711624
1.85162 2.85538 1.23176
2.28428 3.02302 0.350438
0.704504 2.06546 2.56668
1.25441 2.53049 2.06915
2.66907 1.50556 1.16984
2.07751 2.01987 1.66865
2.06037 1.17525 1.92453
-0.731946 1.07656 2.8265
-0.00177733 1.53204 2.84705
-2.04972 0.0306213 1.99798
-1.45065 0.566956 2.55131
-0.0134606 -0.289667 2.97255
-0.748123 0.0779986 2.9225
-0.749363 -0.788853 2.68786
-2.93907 -0.473368 0.415187
-2.61449 -0.391692 1.2321
-2.70794 -0.177267 -1.36634
-2.96675 -0.40152 -0.508386
-2.37774 -1.84647 0.487846
-2.89479 -1.23481 -0.00910628
-2.3828 -1.8413 -0.478267
-1.78234 0.818789 -2.78482
-2.33076 0.311525 -2.22101
-0.167667 1.64864 -2.96327
-1.03635 1.32078 -3.05177
-0.892019 -0.74823 -2.40653
-1.02539 0.387599 -2.86876
-0.0893028 -0.0324591 -2.69425
1.51981 2.7046 -2.32674
0.965352 2.19045 -2.70104
2.36965 3.11515 -0.594956
2.07272 3.0638 -1.49091
2.36965 1.32924 -2.21296
2.39252 2.16759 -2.01153
2.89908 1.59905 -1.49513
2.2725 -1.78806 0.488474
1.91063 -1.7034 1.35262
1.47991 -2.3012 0.80847
2.02862 0.0523264 1.96696
2.0694 -0.874122 1.73911
2.53489 -0.279562 1.24324
0.51833 -1.67625 2.24721
1.33511 -1.36929 2.14319
0.731722 -0.831855 2.66008
0.559145 -2.58841 0.885424
0.989581 -2.62751 -0.000510032
-0.511907 -1.67497 2.23372
0.00653723 -2.24507 1.70458
-1.04215 -2.62208 0.00823435
-0.577805 -2.59725 0.88248
-1.54159 -2.33402 0.80298
0.582929 -2.55546 -0.79802
1.46024 -2.28814 -0.751683
-1.54118 -2.31478 -0.76464
-0.600255 -2.56052 -0.815529
0.528749 -1.57593 -2.0291
-0.0190098 -2.14619 -1.54223
-0.586669 -1.5847 -2.07374
1.89039 -1.66445 -1.27175
2.25456 -1.77747 -0.444547
0.783647 -0.788703 -2.30844
1.33306 -1.29404 -1.96451
2.5958 -0.0236961 -1.30413
2.04948 -0.793583 -1.62674
2.22955 0.412498 -2.05177
2.71363 -1.18559 0.026562
3.04095 0.850889 -0.951684
2.8476 -0.218337 -0.438698
2.82479 -0.331519 0.416173
2.91889 0.795652 0.733266
0.709188 0.0777925 2.90121
1.4342 0.581175 2.49774
0.696903 1.10219 2.81802
-1.99384 -1.7329 1.36125
-1.40129 -1.38005 2.13846
-2.15206 -0.92028 1.73874
-1.43642 -1.30479 -2.07219
-2.01421 -1.70324 -1.32506
-2.24437 -0.826143 -1.76823
1.73437 0.900434 -2.55938
0.820276 0.36149 -2.69359
0.944383 1.33606 -2.84192
3.04471 1.57972 0.396485
3.13132 1.62744 -0.615356
2.8364 2.45483 -0.116497
-2.0077 3.25507 0.0606934
-1.83281 3.20228 0.542203
-1.59619 3.46771 0.222661
-2.20515 2.55378 1.02784
-2.04531 2.89332 0.802691
-2.4294 2.627 0.572666
-1.15882 3.37178 1.15648
-1.59512 3.1628 1.02556
-1.36161 3.07688 1.43587
-2.29522 0.867347 1.69866
-2.32494 1.34499 1.59639
-2.54866 1.0407 1.32584
-1.73623 1.83721 2.0793
-2.0419 1.60307 1.86367
-1.74932 1.40152 2.19785
-2.60849 1.86726 0.996287
-2.3403 1.75657 1.44439
-2.31053 2.14231 1.25929
-0.200039 2.58921 2.40899
-0.598076 2.48433 2.3962
-0.318484 2.23338 2.58171
-1.09872 2.91759 1.83696
-0.857295 2.72144 2.1432
-0.685827 3.07123 1.89979
-1.07842 1.8631 2.50347
-0.992979 2.30565 2.34719
-1.3603 2.09073 2.25193
-1.93981 2.4398 1.50818
-1.65622 2.28124 1.92115
-1.52692 2.7086 1.70247
-1.15484 3.68035 0.310661
-1.39921 3.66303 -0.15143
-0.730561 3.52184 1.21514
-0.941649 3.62449 0.793855
-0.508888 3.93388 -0.106674
-0.716066 3.82267 0.341196
-0.27012 3.89085 0.361612
0.195056 2.58816 2.40788
-0.00286646 2.89432 2.19891
0.480622 3.35547 1.6236
0.236566 3.15261 1.9347
0.690839 3.07287 1.89683
-0.238631 3.15199 1.93626
-0.477423 3.35364 1.62556
1.48601 3.69457 -0.131902
1.23419 3.6789 0.291463
1.68367 3.51784 0.212954
0.262726 3.88775 0.371324
0.740223 3.81681 0.350396
0.510911 3.92006 -0.0873442
1.18481 3.38215 1.14728
0.970718 3.62926 0.786414
0.74101 3.52594 1.21422
-0.251182 3.60162 1.26048
0.253217 3.60234 1.26046
-0.000350339 3.78471 0.832549
-1.2455 3.76015 -0.536954
-1.68061 3.55584 -0.515955
-0.302398 3.97121 -0.508382
-0.765055 3.90765 -0.51703
-1.37586 3.57235 -1.34658
-1.08138 3.76747 -0.944785
-0.884232 3.68919 -1.35874
1.71888 3.60126 -0.462912
1.30378 3.7654 -0.512671
0.899626 3.66811 -1.33049
1.11488 3.7511 -0.921428
1.382 3.56948 -1.31486
0.810734 3.88555 -0.512271
0.269019 3.95734 -0.504183
-0.39689 2.68027 -2.565
-0.0605507 3.00347 -2.30499
0.253433 2.68421 -2.51177
-0.629883 3.51192 -1.76999
-0.3672 3.28834 -2.07118
-0.906404 3.23736 -2.1087
0.895364 3.21782 -2.04798
0.306063 3.28254 -2.04198
0.61073 3.49308 -1.73936
-0.0236112 3.90433 -0.920509
0.287526 3.74487 -1.34662
-0.318869 3.75928 -1.35631
-1.96992 3.37236 -0.815245
-2.03744 3.31615 -0.384353
-1.61174 3.30115 -1.66561
-1.82363 3.37653 -1.24215
-2.57131 2.77861 -0.891223
-2.24038 3.09806 -1.08611
-2.46199 2.75566 -1.3409
-0.579724 2.32169 -2.79893
-0.853358 2.60829 -2.65762
-1.66477 2.2477 -2.62666
-1.25388 2.46134 -2.68824
-1.35372 1.9875 -2.8887
-1.10142 2.89532 -2.41768
-1.34533 3.13079 -2.10056
-2.88336 1.14193 -1.70421
-2.71556 1.43979 -1.9792
-2.66899 1.0124 -2.04703
-2.63231 2.31216 -1.6089
-2.70906 1.87969 -1.8211
-2.87766 1.98395 -1.37261
-2.1328 1.51683 -2.5884
-2.44825 1.7157 -2.24766
-2.10828 1.97341 -2.46384
-1.82201 2.92798 -1.98742
-1.99459 2.46902 -2.26159
-2.27221 2.64432 -1.81593
-2.33079 3.03087 -0.148501
-2.81362 2.43493 -0.642479
-2.60247 2.7587 -0.394745
-2.55897 2.70251 0.117243
-2.71361 2.35124 0.354613
-2.94772 0.792845 -1.45585
-3.03322 1.18788 -1.29225
-3.1657 1.1799 -0.362059
-3.13894 1.1903 -0.81693
-3.14205 0.756048 -0.561114
-3.04746 1.60151 -1.10775
-2.97687 2.01082 -0.900817
-2.79235 1.13017 0.931051
-2.68902 0.640161 1.13566
-2.81134 1.93158 0.579533
-2.83404 1.54248 0.754745
-3.04737 0.716294 0.305848
-2.98588 1.16383 0.515394
-3.1093 1.16949 0.11022
-3.01219 2.01813 -0.375385
-3.10654 1.58794 -0.122068
-2.95176 1.99136 0.126869
1.90562 3.26481 0.519136
2.0441 3.32319 0.0866277
1.38553 3.08736 1.42803
1.65955 3.18364 0.985964
2.47155 2.67854 0.603269
2.11568 2.94597 0.790282
2.27861 2.58919 1.02286
0.316543 2.23164 2.58125
0.600881 2.48234 2.39486
1.35786 2.10529 2.24298
0.995496 2.30937 2.34455
1.06716 1.87958 2.49127
0.864001 2.72141 2.14128
1.1095 2.92151 1.83466
2.60427 1.10602 1.30244
2.38803 1.37337 1.54662
2.32822 0.925509 1.64802
2.38641 2.16453 1.24534
2.41444 1.77697 1.41119
2.67199 1.88886 1.02237
1.75202 1.41787 2.16453
2.08331 1.62004 1.81472
1.74245 1.85694 2.05467
1.54824 2.71708 1.6956
1.6715 2.29333 1.90962
1.99567 2.45039 1.47665
-0.364314 1.80675 2.74241
-0.00184779 2.00587 2.69862
-1.10463 1.38669 2.62301
-0.743641 1.60822 2.71092
-0.00782438 1.01658 2.96385
-0.360638 1.29925 2.87724
-0.359056 0.786325 2.98761
-2.30637 0.332809 1.7124
-2.03004 0.599698 2.02623
-1.45774 0.0661046 2.54781
-1.73741 0.309565 2.31796
-1.76965 -0.217879 2.24786
-1.73826 0.871319 2.28251
-1.4524 1.12239 2.47737
-0.00562976 -0.717815 2.83049
-0.38141 -0.524945 2.8763
-0.339982 -0.948941 2.7041
-0.372471 0.312921 3.02595
-0.383634 -0.0971644 2.98678
-0.0158845 0.123731 3.0424
-1.12239 -0.619172 2.60251
-0.762607 -0.346772 2.83885
-1.11309 -0.164387 2.73158
-1.11827 0.816273 2.7244
-1.1189 0.305524 2.77438
-0.743751 0.538707 2.925
-2.75837 0.0846883 0.980019
-2.5485 0.151335 1.36778
-3.01549 0.131154 0.155748
-2.91998 0.0917824 0.560596
-2.66011 -0.806303 1.08591
-2.80966 -0.463668 0.827841
-2.84512 -0.852312 0.673265
-2.79026 0.432979 -1.64289
-2.94263 0.320582 -1.18549
-2.89492 -0.814734 -0.717458
-2.87894 -0.32393 -0.897359
-2.73014 -0.754113 -1.14005
-3.02721 0.226027 -0.755805
-3.04559 0.17605 -0.329709
-2.10487 -2.13025 0.223663
-2.43022 -1.86481 0.00299169
-2.10468 -2.12738 -0.212543
-2.8255 -1.21707 0.474131
-2.69242 -1.55216 0.25139
-2.58026 -1.51553 0.728004
-2.60674 -1.50691 -0.731615
-2.70134 -1.54992 -0.253617
-2.85405 -1.20487 -0.494441
-2.99705 -0.466608 -0.0444373
-2.97857 -0.869404 -0.261366
-2.96108 -0.882648 0.215204
-2.39664 0.800975 -2.32716
-2.61475 0.577748 -2.00338
-1.7943 1.2966 -2.82858
-2.12075 1.05289 -2.6081
-2.00104 0.0516364 -2.3741
-2.07509 0.558485 -2.5343
-1.73295 0.328009 -2.65988
-0.144509 2.0762 -2.84402
-0.65507 1.89766 -2.95957
-0.664228 1.09744 -3.01748
[...]
POINT_DATA 642
SCALARS Mean_Curvature double 1
LOOKUP_TABLE default
0.58111
0.768999
0.788497
0.715545
0.600119
0.676049
0.227352
0.25742
0.705675
0.250275
0.760196
0.369405
0.593269
0.574196
0.683364
0.666478
0.410122
0.837924
0.822785
0.866694
0.770377
0.627605
0.530156
0.694749
0.603039
0.822578
0.98712
0.963403
0.420159
0.480788
0.772825
0.979783
0.715817
0.419857
0.708646
0.657093
0.434753
0.710085
0.782809
0.0616808
0.874013
0.687606
0.642664
0.554879
0.52741
0.450212
0.571327
0.505262
0.778889
0.655578
0.637298
0.610557
0.651629
0.742489
0.728764
0.585225
0.59478
0.451352
0.668718
0.783202
0.876835
0.553436
0.665522
0.462383
0.413163
0.715535
0.70074
0.891381
0.748131
0.918059
0.68757
0.800193
0.727473
0.563105
0.813821
0.698421
0.22681
0.444232
0.648471
0.664984
0.666067
0.662569
0.481836
0.416884
0.296554
0.559542
0.31364
0.570217
0.785063
0.798964
0.625549
0.411126
0.439834
-0.0164793
0.263857
0.733048
1.2176
0.707759
0.775656
0.654141
0.468167
0.989432
0.221683
0.683416
0.276361
0.795715
0.319705
0.782501
0.715713
0.829523
0.827256
0.899152
0.739509
0.76059
0.668881
0.322919
0.570792
0.436397
0.732166
0.842285
0.643175
0.653792
0.861824
0.590306
0.701453
0.56295
0.668777
0.673837
0.692589
0.745359
0.681686
0.684954
0.637521
0.375941
0.666343
0.788377
0.727181
0.197242
0.927974
0.216237
0.285749
0.577385
1.21062
0.632596
0.269902
0.35463
0.587796
0.758377
0.414102
0.417466
0.722446
0.922406
0.611984
0.8924
0.621786
0.77778
0.750069
0.388266
0.482998
0.839768
0.783746
0.645539
0.622742
0.356602
0.315041
0.456486
0.414648
0.62994
0.613793
0.548596
0.62713
0.29497
0.447771
0.23344
0.622233
0.526067
0.515764
0.556319
0.501039
0.484955
0.790239
0.715146
0.652088
0.683546
0.714169
0.74006
0.644222
0.650902
0.634496
0.559991
0.615551
0.626864
0.504563
0.54903
0.654648
0.580253
0.593665
0.558787
0.563151
0.758522
0.779234
0.710938
0.74914
0.715975
0.763513
0.72898
0.942457
0.3339
0.672679
0.545913
0.498136
0.460817
0.578945
0.536921
0.643896
0.682838
0.672517
0.627088
0.688305
0.653824
0.801646
0.77452
0.899411
0.617056
0.577401
0.836901
0.720148
0.504813
0.483379
0.923213
0.651298
0.645737
0.213726
0.221415
0.187129
0.561956
0.529016
0.718816
0.586492
0.494148
0.488237
0.55319
0.560029
0.650834
0.814326
0.649265
0.705318
0.818283
0.768627
0.792071
0.764644
0.609643
0.828781
0.653041
0.90814
1.0123
0.879318
0.881457
0.85134
0.849439
0.781049
0.757473
0.776439
0.749484
0.827744
0.812541
0.704567
0.674684
0.664297
0.698079
0.66476
0.6314
0.658002
0.716103
0.727564
0.591676
0.621242
0.694607
0.671305
0.611761
0.665587
0.612812
0.513746
0.360068
0.682376
0.615467
0.531629
0.619154
0.697677
0.747978
0.754311
0.778402
0.597773
0.702146
0.590875
0.453387
0.665528
0.592518
0.600459
0.654738
0.706754
0.661745
0.694395
0.63166
0.7035
0.669143
0.520714
0.471795
0.316945
0.591133
0.570162
0.717626
0.442371
0.445837
0.549979
0.6011
0.611795
0.467275
0.643884
0.649468
0.511819
0.555711
0.504864
0.549811
0.748315
0.346561
0.353366
0.646032
0.366594
0.407742
0.299449
0.501389
0.687323
0.711955
0.607998
0.837305
0.798365
0.862112
0.62616
0.727484
0.698136
0.531984
0.737744
0.751325
0.301654
0.331385
0.282086
0.289076
0.634576
0.416114
0.811652
0.59699
0.464417
0.863784
0.130864
0.681783
0.438379
0.127307
0.754577
0.719326
0.761737
1.11275
0.973287
0.951122
0.944052
0.963968
1.11687
0.373644
1.01079
0.979588
0.720942
0.704422
0.849861
0.764706
0.667489
0.687741
0.723461
0.305796
0.579101
0.383363
0.549442
0.48287
1.09034
1.14584
0.413637
-0.0762205
-0.214938
0.750766
0.252017
-0.0924287
0.34295
0.28819
0.317593
1.00709
0.841528
0.861946
0.823574
0.294811
0.864134
0.835999
0.973215
1.08869
0.976918
0.801071
0.753373
0.731295
0.755945
0.758507
0.71812
0.739718
0.781409
0.871038
0.809289
0.909273
0.894511
0.869489
0.915071
0.912028
0.740742
0.698625
0.7037
0.723378
0.73819
0.707288
0.717237
0.977977
0.731525
1.0845
0.68522
0.694766
0.716368
0.335062
0.408686
0.333865
0.554199
0.597278
0.44327
0.526847
0.57491
0.55671
0.391311
0.601939
0.650781
0.757156
0.913384
0.716511
0.542387
0.617938
0.553434
0.704594
0.631038
0.858002
0.673738
0.710396
0.669332
0.654732
0.615193
0.570783
0.557893
0.50354
0.619014
0.743556
0.395559
0.711264
0.715167
0.690895
0.797439
0.712201
0.738237
0.585766
0.532151
0.609039
0.641213
0.63027
0.677557
0.696715
0.510589
0.615556
0.758203
0.74426
0.630715
0.849802
0.729845
0.860021
0.787403
0.766316
0.683069
0.724955
0.76315
0.657144
0.70928
0.575582
0.770782
0.358363
0.749089
0.585698
0.500331
0.606703
0.63908
0.530271
0.637712
0.496415
0.613745
0.589289
0.725691
0.721432
0.705093
0.715967
0.98184
0.74537
0.954182
0.453676
0.796411
0.409244
0.820025
0.182017
0.895281
0.783125
0.583321
0.533885
0.654393
0.597467
0.289709
0.264073
0.471432
0.0508903
0.222441
0.899529
0.854395
0.933924
0.774017
1.01495
1.06316
1.1032
1.11723
0.671637
0.533682
0.59026
0.544899
0.658555
0.146151
0.294171
0.328047
0.3371
0.526352
0.377487
0.655815
0.285875
0.267233
0.497015
0.328347
0.757228
0.714188
0.626559
0.679369
0.780365
0.820147
0.299165
0.47807
0.390783
0.301748
0.570839
0.654216
0.727704
0.598522
0.572235
0.500521
0.678716
0.294011
0.711677
0.702956
0.660144
0.680009
0.721958
0.902315
0.490667
0.352651
0.456231
0.792084
0.66792
0.367366
0.855893
0.458799
0.442172
0.395362
0.81517
0.77964
0.900113
0.845574
0.61982
0.890619
0.852955
0.646634
0.723666
0.945619
0.660803
0.653276
0.579447
0.664725
-0.0423917
-0.00129499
0.181278
0.892488
0.750991
0.925882
0.827322
0.727932
0.574693
0.650921
0.785958
0.885438
0.0722572
0.427795
0.373516
0.228034
0.220429
0.364936
0.883731
0.40212
0.491256
0.473289
0.27103
0.442902
0.560866
0.658141
0.784964
0.741681
0.777268
0.769719
0.775513
0.786112
0.854491
0.727691
0.761552
0.736595
0.694281
0.661844
0.774838
0.819297
0.842841
0.634571
0.73154
SCALARS CoVolArea double 1
LOOKUP_TABLE default
0.127119
0.108781
0.116317
0.115521
0.12228
0.0977772
0.138007
0.164248
0.102897
0.135948
0.109778
0.143205
0.202642
0.193808
0.195264
0.199948
0.23306
0.21912
0.222006
0.212814
0.217958
0.235334
0.196345
0.19671
0.208887
0.165065
0.185764
0.175565
0.227478
0.238417
0.21563
0.176129
0.171703
0.214713
0.209806
0.216616
0.246309
0.20507
0.191535
0.265978
0.179391
0.195694
0.204902
0.226988
0.22537
0.211112
0.210688
0.193462
0.168866
0.196895
0.176835
0.22643
0.205615
0.17193
0.200847
0.21493
0.231134
0.227195
0.234196
0.19975
0.19834
0.25146
0.211703
0.268737
0.232178
0.236638
0.197219
0.176058
0.235268
0.19148
0.239922
0.191062
0.214807
0.214868
0.213359
0.189933
0.24168
0.237566
0.196172
0.173192
0.19774
0.169056
0.218173
0.216079
0.220161
0.187979
0.233851
0.206739
0.16584
0.177437
0.199952
0.221191
0.210022
0.272973
0.23021
0.205086
0.184489
0.205099
0.200447
0.213078
0.23879
0.160964
0.206563
0.190405
0.299103
0.220079
0.196654
0.199331
0.237119
0.171319
0.225209
0.176416
0.191758
0.210192
0.206095
0.216165
0.200941
0.222183
0.192187
0.192876
0.19165
0.238823
0.197615
0.209516
0.229643
0.212511
0.241893
0.210925
0.216428
0.191511
0.202078
0.229755
0.186585
0.237463
0.185065
0.202142
0.190992
0.192511
0.174935
0.244326
0.220122
0.20151
0.164956
0.189072
0.276534
0.238173
0.202748
0.180655
0.220549
0.220162
0.221596
0.209222
0.190282
0.204792
0.226314
0.223893
0.183434
0.252295
0.227252
0.188719
0.20682
0.22148
0.187481
0.226813
0.206745
0.226085
0.219515
0.197839
0.2004
0.217092
0.207995
0.201246
0.203136
0.189742
0.195027
0.192747
0.194891
0.191294
0.19897
0.218827
0.143041
0.168186
0.148572
0.195836
0.176159
0.177515
0.182769
0.177869
0.192269
0.237641
0.21872
0.224291
0.224458
0.189321
0.208858
0.21421
0.205394
0.217233
0.235883
0.144829
0.167396
0.199636
0.178644
0.180407
0.177061
0.197424
0.170081
0.224783
0.17893
0.242089
0.232503
0.229294
0.21508
0.227674
0.213929
0.228271
0.229675
0.245354
0.200964
0.171831
0.218779
0.201442
0.213501
0.217154
0.242801
0.163712
0.192579
0.246263
0.213407
0.208192
0.21926
0.238444
0.207152
0.253501
0.233815
0.245942
0.241808
0.206744
0.212235
0.250706
0.254937
0.259656
0.282766
0.272068
0.190879
0.171333
0.229325
0.20637
0.204408
0.203895
0.225933
0.182267
0.18611
0.234829
0.198607
0.190809
0.195701
0.222354
0.159037
0.188866
0.161935
0.228298
0.206954
0.205435
0.199722
0.207474
0.23454
0.262181
0.266106
0.261405
0.196855
0.223842
0.20486
0.195192
0.19806
0.175485
0.191755
0.201092
0.200776
0.224697
0.203106
0.224175
0.202837
0.213404
0.192163
0.181713
0.227496
0.192332
0.194666
0.233539
0.212514
0.214982
0.207162
0.166329
0.222572
0.225843
0.197101
0.211629
0.218517
0.149071
0.169369
0.190976
0.174746
0.177819
0.1777
0.199902
0.162785
0.190104
0.193631
0.20875
0.188375
0.175834
0.204155
0.201568
0.205244
0.237184
0.228066
0.246204
0.183832
0.154513
0.212171
0.198396
0.181566
0.200179
0.190274
0.211241
0.231149
0.201216
0.217974
0.214767
0.215538
0.212198
0.159529
0.175949
0.177253
0.16829
0.163903
0.155441
0.198014
0.178588
0.190918
0.222992
0.200001
0.203784
0.249319
0.21192
0.272348
0.254325
0.168593
0.20894
0.172907
0.204464
0.249485
0.189742
0.244206
0.211448
0.245989
0.275073
0.177064
0.203315
0.175136
0.179839
0.197657
0.193551
0.199295
0.19983
0.185607
0.244905
0.192175
0.186533
0.190097
0.173689
0.199573
0.192807
0.224699
0.197938
0.208098
0.231942
0.192935
0.190282
0.176913
0.217843
0.160108
0.182358
0.196822
0.283204
0.279204
0.211679
0.223261
0.228886
0.231428
0.242534
0.209131
0.191762
0.182737
0.195565
0.206864
0.229278
0.216369
0.194376
0.170034
0.180339
0.20225
0.167132
0.200003
0.230793
0.212878
0.206022
0.212037
0.224673
0.149293
0.173033
0.149096
0.205408
0.184865
0.172406
0.194291
0.193226
0.226488
0.254561
0.257516
0.249485
0.16995
0.198513
0.175262
0.192056
0.196865
0.17699
0.206698
0.204932
0.213104
0.205084
0.209779
0.207351
0.208976
0.19767
0.205852
0.188277
0.195019
0.18962
0.180029
0.18735
0.17035
0.203334
0.182534
0.192851
0.199687
0.183725
0.20322
0.212439
0.212234
0.218653
0.205022
0.17297
0.223884
0.214487
0.212848
0.216662
0.246932
0.19025
0.206546
0.225675
0.211812
0.202602
0.203346
0.217718
0.174807
0.209009
0.177039
0.249999
0.224883
0.229969
0.214062
0.219612
0.230016
0.251521
0.255547
0.264325
0.189895
0.169501
0.231609
0.192609
0.188801
0.188856
0.202203
0.173038
0.201482
0.213606
0.204342
0.203151
0.213977
0.242863
0.166736
0.206676
0.163261
0.211631
0.211849
0.181903
0.188583
0.210431
0.215391
0.259122
0.253272
0.249355
0.192116
0.168833
0.200837
0.194136
0.178715
0.192812
0.188607
0.193928
0.16145
0.206408
0.15993
0.221382
0.164534
0.188575
0.175596
0.22372
0.159834
0.194995
0.236951
0.222879
0.231334
0.245577
0.244936
0.205473
0.203897
0.2022
0.188263
0.173619
0.177776
0.176555
0.164203
0.157879
0.224024
0.240727
0.242017
0.191152
0.273253
0.227234
0.244307
0.184793
0.185988
0.235373
0.194612
0.249192
0.240719
0.213849
0.25501
0.19247
0.178687
0.201549
0.185454
0.164989
0.168764
0.232668
0.221442
0.222453
0.220027
0.210652
0.179973
0.187956
0.193199
0.191679
0.215863
0.212319
0.239304
0.209745
0.205921
0.223417
0.213324
0.208429
0.202656
0.213345
0.212002
0.209787
0.203873
0.212126
0.221622
0.179844
0.184591
0.209591
0.209883
0.226942
0.21254
0.212765
0.165498
0.210556
0.178108
0.189139
0.227669
0.200869
0.211268
0.209342
0.208486
0.221594
0.238763
0.246638
0.242488
0.23178
0.197516
0.236393
0.227022
0.231113
0.171775
0.229191
0.18082
0.169156
0.172384
0.271003
0.238173
0.250401
0.246835
0.266815
0.252
0.182103
0.206657
0.24161
0.242521
0.23755
0.248603
0.208633
0.16751
0.183726
0.167037
0.166191
0.194472
0.174317
0.20999
0.183419
0.184574
0.194586
0.192775
0.211479
0.2012
0.201192
0.216625
0.219434
0.235915
0.229617
SCALARS SignedDistance double 1
LOOKUP_TABLE default
2.30927
2.09956
1.76834
1.92946
2.27883
2.38023
3.48747
2.4888
2.6503
2.87343
2.55831
2.72995
2.4412
2.58515
2.19339
2.19398
2.2224
2.09972
2.06788
2.10705
1.93897
2.70685
2.62876
2.33655
2.56195
2.50244
2.58235
2.36786
2.88094
3.2845
1.85355
2.4845
2.52686
2.66619
1.98666
2.01335
2.376
2.45748
2.46841
3.32264
2.79947
2.64756
2.29174
2.37443
2.27177
2.75745
2.53108
2.68455
2.22755
2.35853
2.45736
2.12479
2.23353
2.24078
2.10395
2.26356
2.14648
2.35903
1.8997
2.08585
1.8938
2.00249
2.38631
2.24164
2.44644
1.73887
2.01497
2.38073
1.89043
2.17673
1.792
2.23642
2.12142
2.62109
2.23204
2.46663
2.81283
2.43276
2.18039
2.46384
2.37517
2.61629
2.59788
2.79086
2.75084
2.59828
2.7086
2.76212
2.22138
2.39031
2.32061
2.63956
2.62176
3.04292
2.79172
1.89336
2.29435
1.96168
2.64113
2.84623
2.59705
2.69148
3.39665
3.16572
3.2682
2.08621
2.65704
1.86405
1.74127
2.50642
1.99979
2.23698
2.06716
2.16969
1.92344
2.7763
2.50595
2.70899
2.26297
2.3884
2.45113
2.01094
1.94234
2.44199
2.19914
2.04499
2.06459
1.87473
2.28651
2.07336
2.01995
2.39693
2.94974
2.83495
2.99723
2.50942
2.2542
3.34902
2.95592
3.06475
3.04534
2.98831
2.55089
2.60446
2.89265
2.76981
2.7817
2.47322
2.857
2.76056
2.09449
2.42655
2.5495
2.90144
2.33101
3.03593
2.92097
3.12726
2.79909
2.38096
2.23092
2.05826
2.27345
2.396
2.39781
2.45967
2.41672
2.35181
2.21481
2.31695
2.27179
2.80286
2.73603
2.82627
2.54581
2.6331
2.66146
2.5512
2.62446
2.5329
2.29977
2.35272
2.40217
2.26867
2.29722
2.19684
2.51807
2.39964
2.45382
2.44531
2.43265
2.34581
2.28227
2.33166
2.1481
2.17746
2.21475
2.19866
2.15797
2.30844
2.20597
2.13165
2.15445
2.20057
2.13718
2.12742
2.22305
2.37922
2.27385
2.16828
2.25117
2.24797
2.2367
2.22244
2.14698
2.10131
2.10176
2.09755
2.13767
2.22706
2.10724
2.03422
1.98292
1.99833
2.00918
1.98266
2.15577
2.07901
2.07695
1.96552
2.07621
2.13373
2.53318
2.47257
2.48337
2.11375
2.30226
2.22061
2.28076
2.31841
2.15374
2.10269
2.09614
2.0342
2.01032
2.14845
1.7964
1.84418
1.92815
1.85462
1.79207
2.55581
2.32667
1.94423
2.1214
2.18473
2.12729
1.94634
2.37052
2.14393
2.39487
1.83986
1.92516
2.0468
2.14022
1.97229
1.88938
1.75824
1.78748
1.73638
2.12419
2.00448
2.03022
2.18152
2.28734
2.61958
2.42082
2.45736
2.40703
2.64383
2.22579
2.05493
2.76287
2.75097
2.43712
2.58154
2.8069
2.65538
2.55316
2.12668
2.33657
2.28418
2.31362
2.13813
2.29448
2.38187
2.2374
2.34592
2.40478
2.4009
2.34584
2.50354
2.41186
2.54547
2.29445
2.27343
2.77081
2.72972
2.86799
2.50212
2.61045
2.46581
2.70663
2.69069
2.61488
2.37825
2.4896
2.50601
2.52301
2.45312
2.65182
2.5934
2.71527
2.69663
2.61535
2.68958
2.7647
2.60807
2.74139
2.69622
2.82238
2.73429
2.21453
2.21398
2.25192
2.40826
2.27113
2.33018
2.42914
2.30643
2.44134
2.7679
2.56599
2.56286
2.69002
2.67689
2.80638
2.73906
2.54985
2.61507
2.53706
2.81037
2.87108
2.72688
2.88154
2.87266
2.92011
2.89097
1.76816
1.82905
1.80329
2.30882
2.02008
2.1165
2.23873
2.06992
2.41119
2.7055
2.59417
2.52311
2.52624
2.67283
2.36851
2.41492
3.05294
2.71733
2.93878
2.50822
2.62474
2.91897
2.77245
2.73227
2.50298
2.40525
3.42361
3.48359
3.53842
3.2018
3.43871
3.3532
3.0536
3.24365
3.07749
2.64113
2.91236
2.91088
2.52396
2.50309
2.02962
2.26213
2.57319
2.39114
2.28491
1.97029
1.82694
1.75663
1.76209
1.82562
1.77397
1.83117
2.57693
2.34201
2.46577
2.22768
2.26088
2.46987
2.00834
2.09114
1.86257
1.85514
1.81013
1.99374
1.92561
1.96829
1.87943
2.35272
2.12619
2.30288
1.94188
2.01332
2.05558
2.78675
2.732
2.76589
2.57211
2.64643
2.75134
2.59039
2.58777
2.49386
2.42362
2.48858
2.34427
2.14412
2.28563
2.09191
2.56072
2.54235
2.54788
2.38418
2.43425
2.25108
1.93337
1.88563
1.91819
1.92894
2.14332
2.06004
2.17096
2.36986
2.40107
2.17153
2.37765
2.19234
2.17266
2.01067
1.9033
1.94916
1.82201
2.26709
2.06818
2.24538
1.92759
1.92787
1.96991
2.02862
2.215
2.21099
1.93097
1.963
2.29516
2.09503
2.24142
2.11285
2.35353
1.86294
1.97512
2.39369
2.16046
2.20228
2.18778
2.45766
3.25093
3.14673
3.30081
2.60034
2.85005
2.71832
2.72939
2.93793
2.67231
2.55283
2.67079
2.53992
2.13674
2.04426
2.43668
2.267
2.52468
2.36973
2.6546
3.40551
3.17144
3.18541
3.17599
3.30979
2.92912
2.67154
2.82182
3.03148
2.79776
2.94202
3.04975
2.92236
3.2001
3.20232
3.15919
2.72338
3.01889
2.82773
2.1135
2.66722
2.38715
2.25587
2.50936
2.62419
2.81371
2.85852
2.81715
2.61143
2.98953
2.8381
2.78721
2.85899
2.64371
2.71997
2.70384
2.84817
2.89663
2.78255
2.81476
2.71855
2.29317
2.5422
2.40988
2.3342
2.46457
2.8512
2.74971
2.84983
2.82515
2.71964
2.51943
2.67078
2.68801
2.59159
2.66285
2.65848
2.82667
2.63895
1.85099
2.03208
1.94136
1.98939
2.20988
2.42211
2.60864
2.51557
2.34165
2.16159
2.67729
2.44911
2.58134
2.65493
2.65455
2.23297
2.50633
2.34731
3.19745
2.60447
2.90485
3.1659
3.22112
1.95052
2.43389
2.13459
2.1371
2.33982
3.02478
3.21517
3.17747
3.06097
2.79169
2.60068
2.69146
2.95643
2.74951
3.16012
2.94759
2.70696
2.69713
3.44879
2.95898
3.16272
3.39722
3.34089
2.52351
2.76063
2.70432
2.63049
2.77455
3.13672
2.94131
2.9618
2.67079
2.49402
2.57367
2.49146
2.31998
2.42223
2.0471
2.22131
2.41273
2.43506
2.03046
2.17681
2.09414
1.96731
1.95004
2.26978
2.0897
2.16979
