# vtk DataFile Version 4.2
vtk output
ASCII
DATASET POLYDATA
POINTS 642 double
-1.80455 3.53422 -0.160165
1.85086 3.58942 -0.116957
-1.88345 -2.37313 0.00523056
1.80342 -2.32266 0.0125906
0.0075283 -1.11035 2.73456
-0.00282597 2.3852 2.62871
-0.0528633 -1.12637 -2.39641
-0.117276 2.45876 -2.76349
2.79938 0.855831 -1.72248
2.57952 0.707573 1.47109
-2.87267 0.787341 -1.8225
-2.56471 0.615502 1.50676
-2.62059 2.29634 0.834308
-1.47923 1.65983 2.45236
-0.957597 3.3131 1.5992
0.967255 3.31768 1.59677
-0.0182925 4.03443 -0.0842074
1.16948 3.49093 -1.75672
-1.16554 3.50518 -1.79652
-1.79565 1.77943 -2.84729
-2.82563 2.44098 -1.15952
-3.22002 0.739023 -0.102949
1.46754 1.68198 2.43184
2.6729 2.32777 0.872091
-1.51593 -0.44816 2.52618
-0.0134914 0.553673 3.13344
-2.79061 -1.16093 -0.986936
-2.74268 -1.18318 0.963194
-0.147095 0.836269 -3.04572
-1.69095 -0.242522 -2.51577
2.85149 2.4497 -1.12306
1.77295 1.81065 -2.69707
2.60906 -1.15142 0.934876
1.48557 -0.453817 2.48776
1.05197 -2.16446 1.67315
-1.07963 -2.17597 1.66507
0.00527879 -2.80797 0.0115273
-1.09173 -2.12447 -1.57414
1.04651 -2.10646 -1.53903
1.55197 -0.26329 -2.29579
2.58658 -1.12103 -0.909373
3.21315 0.794165 -0.0717523
-2.30709 3.01141 0.358014
-1.84427 2.89435 1.30598
-1.41121 3.51215 0.753383
-2.09798 1.16475 2.03917
-2.09159 2.038 1.76571
-2.68185 1.49447 1.21655
-0.462358 2.90989 2.24729
-1.2886 2.5721 2.13569
-0.733448 2.09481 2.65125
-0.519178 3.81862 0.838791
-0.967322 3.91839 -0.113362
0.462011 2.90934 2.24473
-0.000535499 3.46231 1.6969
1.03213 3.90801 -0.108354
0.525232 3.81888 0.841291
1.48042 3.52838 0.713268
-0.587225 3.95481 -0.936632
-1.58447 3.67041 -0.941091
1.59633 3.69154 -0.907073
0.596838 3.93059 -0.932787
-0.668315 3.03813 -2.4351
-0.0251289 3.60046 -1.78655
0.626213 3.02626 -2.36225
-2.11318 3.11315 -1.54934
-2.38486 3.13253 -0.645088
-0.984766 2.20186 -2.95567
-1.5508 2.76416 -2.44678
-2.99425 1.57639 -1.59215
-2.45845 2.19406 -2.10539
-2.48828 1.27441 -2.39765
-2.87686 2.45162 -0.112488
-3.16008 0.757052 -1.02383
-3.20712 1.60859 -0.629224
-3.08404 1.58089 0.372826
-2.97492 0.678965 0.743613
1.90155 2.90884 1.27535
2.34021 3.07721 0.37489
0.731685 2.09786 2.64769
1.29556 2.57601 2.13409
2.74503 1.52087 1.22042
2.13931 2.05003 1.72837
2.12441 1.1853 1.99187
-0.759512 1.09354 2.91238
-0.00133565 1.55394 2.93611
-2.11465 0.0246774 2.06193
-1.50437 0.571522 2.62713
-0.0124357 -0.308655 3.0593
-0.775987 0.0693394 3.00817
-0.774669 -0.820014 2.7635
-3.02734 -0.480034 0.435335
-2.69279 -0.400955 1.27711
-2.78154 -0.199919 -1.40278
-3.05518 -0.412308 -0.521771
-2.43026 -1.89688 0.503878
-2.97128 -1.26678 -0.0074318
-2.4335 -1.89192 -0.494203
-1.8205 0.8049 -2.85834
-2.38689 0.285669 -2.27996
-0.159837 1.6605 -3.04955
-1.04279 1.32136 -3.14125
-0.905258 -0.782342 -2.50259
-1.03375 0.357835 -2.95765
-0.0838332 -0.0621832 -2.78455
1.54667 2.7459 -2.38223
0.97852 2.21727 -2.78408
2.42455 3.16802 -0.601697
2.11542 3.11407 -1.52219
2.4271 1.3272 -2.27726
2.44462 2.19448 -2.05854
2.97294 1.60923 -1.5301
2.33005 -1.83942 0.503575
1.96182 -1.75261 1.39261
1.5142 -2.36678 0.831678
2.09473 0.0453117 2.0325
2.13496 -0.898393 1.79634
2.61594 -0.293935 1.2871
0.531238 -1.72713 2.30953
1.37661 -1.40991 2.21027
0.758858 -0.862464 2.73758
0.571477 -2.66123 0.906494
1.00853 -2.70181 -0.00135322
-0.524596 -1.72677 2.29597
0.00632312 -2.3089 1.75006
-1.05846 -2.69639 0.00724658
-0.588538 -2.66947 0.903724
-1.57217 -2.399 0.826855
0.593846 -2.63064 -0.825775
1.49515 -2.35408 -0.779184
-1.57128 -2.38064 -0.791218
-0.60936 -2.63436 -0.841886
0.541144 -1.62636 -2.09851
-0.0171841 -2.21036 -1.59521
-0.593221 -1.63559 -2.14135
1.94008 -1.71433 -1.31568
2.31238 -1.82871 -0.462643
0.807508 -0.818944 -2.40257
1.371 -1.3342 -2.04137
2.67365 -0.0554291 -1.34696
2.11577 -0.822472 -1.6931
2.28823 0.381306 -2.11894
2.79917 -1.21718 0.0244759
3.12527 0.836252 -0.972739
2.93511 -0.240672 -0.454365
2.91444 -0.347073 0.433761
3.00479 0.787958 0.766557
0.739351 0.0694608 2.9869
1.4883 0.584762 2.57523
0.726232 1.11766 2.90378
-2.04032 -1.78221 1.4013
-1.43764 -1.4187 2.20292
-2.21636 -0.941221 1.79968
-1.46622 -1.34704 -2.14119
-2.0552 -1.75352 -1.36441
-2.30552 -0.854429 -1.83087
1.77293 0.881407 -2.64229
0.842661 0.33506 -2.78298
0.961434 1.33559 -2.93089
3.12841 1.59387 0.421018
3.21312 1.63988 -0.623509
2.9065 2.4934 -0.107648
-2.0574 3.31616 0.0791614
-1.88021 3.26458 0.569589
-1.63474 3.53516 0.244071
-2.26668 2.6011 1.06818
-2.10044 2.94889 0.836654
-2.49313 2.67517 0.604525
-1.19327 3.43954 1.19292
-1.64092 3.22487 1.06047
-1.40416 3.13768 1.47974
-2.36518 0.875113 1.75753
-2.39646 1.36007 1.65264
-2.62583 1.05109 1.37543
-1.79389 1.8644 2.14586
-2.10712 1.6241 1.92553
-1.80751 1.41883 2.26802
-2.68243 1.89527 1.03976
-2.41074 1.78143 1.49695
-2.37789 2.17763 1.30684
-0.209005 2.63911 2.48284
-0.620843 2.52946 2.47072
-0.33281 2.27046 2.66326
-1.13517 2.97449 1.89282
-0.887584 2.77333 2.20868
-0.709736 3.13334 1.95578
-1.11667 1.89129 2.58192
-1.02802 2.34557 2.42042
-1.4061 2.12521 2.32274
-1.99902 2.48354 1.55811
-1.70998 2.3207 1.9821
-1.57559 2.75975 1.75553
-1.18407 3.75301 0.329195
-1.42991 3.73585 -0.141773
-0.753075 3.59441 1.25077
-0.968132 3.69765 0.820777
-0.518999 4.01401 -0.0999558
-0.733868 3.89967 0.357905
-0.276784 3.96982 0.377062
0.204182 2.63808 2.48174
-0.0027787 2.95243 2.26495
0.495625 3.4244 1.67106
0.244867 3.21714 1.99163
0.714192 3.13466 1.95291
-0.247004 3.21669 1.99318
-0.492915 3.42287 1.67295
1.5124 3.76736 -0.123413
1.25912 3.75091 0.310638
1.71896 3.58512 0.235002
0.269311 3.96647 0.386421
0.756402 3.89348 0.366799
0.520201 3.99888 -0.0813324
1.21702 3.44919 1.18441
0.995019 3.70204 0.813445
0.762381 3.59805 1.24994
-0.259093 3.67656 1.29684
0.260703 3.67712 1.29681
-0.000478578 3.86276 0.857743
-1.27181 3.83345 -0.539691
-1.71816 3.62539 -0.518025
-0.307541 4.05021 -0.513606
-0.780408 3.98454 -0.52118
-1.40015 3.63559 -1.37193
-1.10138 3.83857 -0.960231
-0.897584 3.75691 -1.38585
1.75347 3.6698 -0.468091
1.32691 3.84189 -0.518386
0.913129 3.73649 -1.35855
1.13266 3.82257 -0.938666
1.40508 3.63413 -1.3428
0.824627 3.96216 -0.517956
0.275049 4.03503 -0.509805
-0.394737 2.72776 -2.63281
-0.0573341 3.05539 -2.36604
0.259527 2.72901 -2.57827
-0.635989 3.5751 -1.81046
-0.36796 3.34668 -2.12236
-0.916832 3.29605 -2.15751
0.90721 3.27643 -2.09941
0.310938 3.34012 -2.09382
0.61885 3.55628 -1.78125
-0.0225793 3.97958 -0.93878
0.293017 3.81424 -1.37701
-0.322234 3.82896 -1.38652
-2.01463 3.43427 -0.824391
-2.0872 3.37756 -0.381233
-1.64302 3.35684 -1.69839
-1.86153 3.4356 -1.2639
-2.63255 2.82418 -0.902181
-2.29129 3.1514 -1.10295
-2.51673 2.7998 -1.3645
-0.579225 2.35756 -2.87666
-0.858967 2.65176 -2.72459
-1.69661 2.27909 -2.68439
-1.27342 2.49915 -2.75167
-1.37633 2.01249 -2.95871
-1.11616 2.94454 -2.4742
-1.3682 3.1832 -2.14595
-2.95614 1.14394 -1.73852
-2.77901 1.44982 -2.02244
-2.73226 1.00913 -2.09621
-2.69092 2.34476 -1.63974
-2.77042 1.90234 -1.85777
-2.94724 2.01026 -1.39643
-2.17851 1.52779 -2.64877
-2.50155 1.73322 -2.29681
-2.15202 1.99748 -2.51693
-1.85846 2.97448 -2.02829
-2.03496 2.5048 -2.30928
-2.32014 2.68454 -1.85238
-2.38806 3.08646 -0.137667
-2.88219 2.47332 -0.64655
-2.66623 2.8063 -0.391757
-2.6236 2.75131 0.13555
-2.7849 2.39172 0.380236
-3.02667 0.782419 -1.48277
-3.11235 1.1897 -1.31468
-3.25174 1.18314 -0.360286
-3.22182 1.19277 -0.828008
-3.22804 0.748207 -0.565804
-3.12427 1.61614 -1.12509
-3.04987 2.03687 -0.912598
-2.87354 1.13785 0.971992
-2.76978 0.641467 1.1773
-2.88879 1.95962 0.612979
-2.91423 1.55973 0.792709
-3.13449 0.712477 0.32762
-3.07021 1.16947 0.545487
-3.19562 1.17388 0.128061
-3.08898 2.04647 -0.373114
-3.19092 1.60388 -0.111526
-3.03043 2.02025 0.145571
1.95041 3.32651 0.547697
2.09311 3.38369 0.104587
1.42612 3.1473 1.47269
1.70186 3.24475 1.02281
2.53363 2.72531 0.634196
2.1681 3.00053 0.825531
2.33739 2.63575 1.06498
0.331153 2.26856 2.6629
0.623564 2.52723 2.46938
1.40384 2.13843 2.31494
1.0306 2.34856 2.41831
1.1062 1.90658 2.57058
0.893783 2.77302 2.20686
1.14492 2.9779 1.89081
2.6813 1.11189 1.35538
2.45816 1.38605 1.60693
2.39835 0.929886 1.71053
2.45139 2.19923 1.29588
2.48295 1.8006 1.46763
2.74475 1.91581 1.06755
1.8094 1.43376 2.23634
2.14687 1.63961 1.87958
1.79945 1.88257 2.12289
1.59535 2.76739 1.74949
1.72432 2.33153 1.97183
2.05229 2.49321 1.52896
-0.37822 1.83399 2.82884
-0.00165673 2.03548 2.78448
-1.14337 1.40614 2.7047
-0.770875 1.63167 2.7954
-0.00702357 1.03242 3.05537
-0.374468 1.31898 2.96627
-0.372957 0.799196 3.07765
-2.37656 0.330442 1.77116
-2.09541 0.602504 2.0911
-1.51086 0.0594685 2.62206
-1.79793 0.308211 2.38795
-1.82871 -0.229592 2.31666
-1.79802 0.879238 2.35315
-1.50378 1.13576 2.55349
-0.0050969 -0.746851 2.91181
-0.394818 -0.550929 2.95854
-0.35308 -0.984402 2.7796
-0.38632 0.311756 3.11605
-0.397335 -0.111283 3.07421
-0.0146418 0.117135 3.13286
-1.16031 -0.644852 2.67715
-0.789882 -0.367747 2.92032
-1.1531 -0.179187 2.81087
-1.15978 0.827603 2.8071
-1.16107 0.304718 2.85598
-0.772275 0.545089 3.01196
-2.84047 0.0803255 1.01737
-2.62569 0.145897 1.4158
-3.10404 0.123392 0.169437
-3.00583 0.0865068 0.58679
-2.73968 -0.82183 1.12853
-2.89332 -0.471285 0.860835
-2.92948 -0.866807 0.702504
-2.86375 0.411139 -1.67958
-3.0224 0.30247 -1.21094
-2.97827 -0.831535 -0.741665
-2.96169 -0.339537 -0.922311
-2.80781 -0.775242 -1.17866
-3.11439 0.210531 -0.77054
-3.13234 0.164725 -0.331927
-2.15141 -2.18787 0.231949
-2.48281 -1.9159 0.00299401
-2.15086 -2.18517 -0.221774
-2.90198 -1.24741 0.494139
-2.75274 -1.5935 0.260539
-2.64158 -1.55589 0.753174
-2.66324 -1.54737 -0.754183
-2.76002 -1.59128 -0.261183
-2.92834 -1.23646 -0.510948
-3.08854 -0.474753 -0.0413143
-3.06581 -0.885422 -0.268545
-3.04877 -0.898054 0.227333
-2.45237 0.789093 -2.3853
-2.67837 0.558469 -2.05332
-1.83239 1.29841 -2.89923
-2.16803 1.0481 -2.67279
-2.04863 0.0194448 -2.44212
-2.12236 0.538467 -2.60072
-1.76979 0.300373 -2.7346
-0.137201 2.10107 -2.92381
-0.652636 1.91938 -3.04508
[...]
POINT_DATA 642
SCALARS Mean_Curvature double 1
LOOKUP_TABLE default
0.571306
0.748687
0.759263
0.694728
0.580029
0.665695
0.250312
0.234722
0.688445
0.234362
0.731099
0.36486
0.58459
0.5654
0.663513
0.647651
0.395244
0.821262
0.806225
0.815997
0.74087
0.60814
0.524223
0.674895
0.586261
0.794548
0.957814
0.941255
0.414267
0.498061
0.735217
0.929483
0.768784
0.409855
0.685864
0.639851
0.415701
0.693522
0.752343
0.0419275
0.870131
0.671429
0.629231
0.540922
0.51415
0.444485
0.556957
0.501528
0.751106
0.638863
0.614801
0.594338
0.638009
0.717837
0.705415
0.568281
0.580318
0.435343
0.643851
0.783269
0.818719
0.537414
0.655638
0.449788
0.396668
0.689532
0.690344
0.857141
0.703938
0.881957
0.659765
0.77217
0.702605
0.544529
0.788886
0.684581
0.206032
0.430366
0.632688
0.645333
0.647801
0.656577
0.47311
0.408451
0.285177
0.536923
0.30532
0.562838
0.758288
0.772194
0.607374
0.405459
0.427093
-0.0745541
0.269939
0.703113
1.17439
0.684377
0.737318
0.624415
0.4428
0.976392
0.32625
0.679672
0.258294
0.738256
0.41119
0.754649
0.689983
0.800815
0.774215
0.866812
0.70426
0.717601
0.64796
0.321568
0.5588
0.439549
0.699805
0.85742
0.6128
0.634731
0.814901
0.604541
0.678066
0.546876
0.647078
0.65256
0.680398
0.719572
0.667442
0.664324
0.562593
0.365547
0.602191
0.724391
0.688804
0.242602
0.896827
0.225992
0.315615
0.56777
1.18315
0.61334
0.241952
0.331997
0.576876
0.735269
0.420951
0.395731
0.687445
0.897964
0.629836
0.848098
0.590635
0.772812
0.725325
0.38288
0.461825
0.816013
0.749318
0.624858
0.604632
0.350358
0.30317
0.446135
0.407226
0.619671
0.598295
0.53551
0.610909
0.28614
0.444123
0.246173
0.612036
0.520213
0.508504
0.545941
0.492929
0.474654
0.763751
0.697495
0.636681
0.664103
0.693198
0.7153
0.628087
0.633715
0.616826
0.546248
0.601043
0.610972
0.487948
0.537649
0.636811
0.564885
0.600885
0.54127
0.547792
0.735746
0.751546
0.688942
0.723731
0.693295
0.737496
0.705336
0.891245
0.315788
0.651257
0.53247
0.486885
0.459616
0.56373
0.524334
0.626492
0.663141
0.653674
0.610726
0.665641
0.648781
0.788233
0.753003
0.840062
0.590819
0.55258
0.807769
0.755013
0.485293
0.465598
0.887014
0.631716
0.624445
0.243322
0.228978
0.172661
0.538777
0.513131
0.715888
0.606618
0.477265
0.469481
0.544382
0.540696
0.634088
0.788854
0.631105
0.671492
0.77762
0.745947
0.770299
0.734639
0.633143
0.803205
0.616465
0.866598
0.938451
0.852179
0.835396
0.817806
0.817023
0.753095
0.721641
0.740087
0.746569
0.793647
0.774985
0.668924
0.652129
0.642435
0.674565
0.644645
0.608829
0.635734
0.694798
0.708465
0.592859
0.613212
0.677282
0.649627
0.595915
0.639031
0.580673
0.512283
0.353199
0.67251
0.606434
0.531362
0.607132
0.678885
0.716941
0.743556
0.754602
0.585721
0.688235
0.575061
0.439493
0.646057
0.577807
0.586316
0.637436
0.686177
0.646425
0.673608
0.621409
0.682556
0.65038
0.517195
0.468096
0.325636
0.580843
0.562568
0.698877
0.434633
0.44222
0.544806
0.584991
0.595384
0.455513
0.629204
0.620435
0.501464
0.540895
0.504826
0.534625
0.721405
0.341143
0.347349
0.63025
0.369451
0.410437
0.29957
0.487578
0.664676
0.689684
0.588165
0.808697
0.771857
0.832715
0.610464
0.702801
0.679208
0.528684
0.717891
0.727766
0.292995
0.324331
0.274051
0.277093
0.660361
0.400645
0.818899
0.58042
0.442272
0.861978
0.116059
0.689346
0.461355
0.0991437
0.730564
0.694474
0.738753
1.08288
0.868165
0.872631
0.844055
0.856268
1.08282
0.394783
1.00102
0.975871
0.693937
0.673972
0.808199
0.73557
0.6282
0.657603
0.678637
0.277834
0.598596
0.389504
0.572079
0.47182
1.06119
1.09644
0.461925
-0.0698322
-0.222617
0.719384
0.326336
-0.149128
0.335301
0.266609
0.300609
0.969464
0.833024
0.836368
0.789802
0.276135
0.826674
0.809504
0.950106
1.04332
0.907876
0.776576
0.728883
0.703109
0.72672
0.730434
0.694393
0.703264
0.757302
0.838803
0.784647
0.866552
0.859358
0.837687
0.865458
0.871986
0.702301
0.674013
0.676808
0.68756
0.713337
0.68268
0.695007
0.940671
0.692176
0.98111
0.663501
0.669346
0.688021
0.326787
0.416128
0.32115
0.535283
0.587085
0.447186
0.505727
0.554854
0.543755
0.362252
0.644731
0.624348
0.721857
0.834661
0.692838
0.517424
0.631925
0.539414
0.719035
0.616568
0.807011
0.652006
0.687659
0.648651
0.632915
0.60784
0.562586
0.535546
0.482865
0.606146
0.721919
0.387971
0.688862
0.693869
0.67086
0.786594
0.697871
0.712328
0.572838
0.516795
0.585967
0.623699
0.607733
0.652838
0.671837
0.507244
0.601037
0.730755
0.720358
0.610113
0.838385
0.704268
0.81554
0.78077
0.743508
0.65784
0.708738
0.735749
0.635168
0.687302
0.57168
0.739672
0.296439
0.734735
0.580197
0.491817
0.615833
0.633164
0.528023
0.62978
0.475559
0.600404
0.572334
0.699279
0.697354
0.675399
0.69052
0.90429
0.698495
0.903489
0.504226
0.780327
0.485104
0.831613
0.157758
0.837037
0.726361
0.571839
0.524335
0.64017
0.66938
0.26202
0.243011
0.471288
0.0435764
0.199418
0.83628
0.844473
0.90561
0.738348
1.00483
0.954758
0.977901
1.10393
0.655039
0.518276
0.574304
0.524107
0.63831
0.119298
0.2928
0.310532
0.350663
0.504084
0.37326
0.640056
0.255626
0.283057
0.551635
0.30384
0.802775
0.687658
0.607655
0.655831
0.753422
0.793346
0.290474
0.466887
0.388489
0.300782
0.561426
0.640145
0.704558
0.580276
0.557103
0.491688
0.664482
0.296739
0.691899
0.680189
0.640131
0.656979
0.687389
0.850981
0.465979
0.354344
0.429819
0.718944
0.648313
0.366874
0.850953
0.459152
0.428031
0.386786
0.750568
0.79914
0.874523
0.835354
0.587416
0.803972
0.823581
0.684795
0.70485
0.864469
0.637122
0.64175
0.569913
0.647208
-0.0474207
0.0418283
0.256299
0.868604
0.667964
0.883357
0.798125
0.708043
0.564218
0.639995
0.762279
0.847713
0.0903832
0.422251
0.364399
0.238669
0.212016
0.344824
0.879369
0.355572
0.474467
0.463944
0.273603
0.433347
0.617728
0.649478
0.764033
0.72427
0.760642
0.739861
0.754629
0.76569
0.830322
0.703125
0.736023
0.718585
0.669565
0.642522
0.752259
0.787414
0.810353
0.607263
0.697961
SCALARS CoVolArea double 1
LOOKUP_TABLE default
0.13521
0.117423
0.125212
0.124259
0.130541
0.105973
0.145193
0.171842
0.111383
0.142987
0.118211
0.150081
0.213136
0.203902
0.206547
0.211011
0.243366
0.230645
0.233942
0.226714
0.229952
0.245874
0.206053
0.208142
0.219085
0.176618
0.199372
0.188892
0.23611
0.248995
0.228382
0.189589
0.183421
0.224927
0.221518
0.227856
0.257018
0.21597
0.203092
0.274271
0.1908
0.206558
0.214865
0.237772
0.234933
0.219462
0.221353
0.202207
0.180203
0.208432
0.187251
0.237763
0.215759
0.183197
0.213078
0.225058
0.242189
0.236998
0.245926
0.211136
0.209819
0.262526
0.221196
0.279557
0.24123
0.249241
0.208303
0.187948
0.248254
0.203363
0.252449
0.202848
0.227392
0.224949
0.226068
0.201481
0.25024
0.248379
0.206751
0.183643
0.209286
0.178858
0.228756
0.224431
0.231201
0.198359
0.242079
0.216826
0.177153
0.189649
0.210445
0.230883
0.218461
0.282385
0.239063
0.217122
0.200366
0.216754
0.213995
0.223549
0.248932
0.173172
0.213103
0.200079
0.305168
0.233783
0.205727
0.211076
0.249593
0.183527
0.238993
0.188902
0.204183
0.223489
0.217085
0.223998
0.211792
0.231128
0.202838
0.205293
0.202583
0.250381
0.208842
0.219545
0.241272
0.222994
0.253198
0.221871
0.228301
0.203009
0.213033
0.241469
0.197196
0.248153
0.195471
0.215947
0.203279
0.199001
0.187926
0.252853
0.229221
0.211367
0.179155
0.199769
0.287006
0.24754
0.212454
0.192418
0.229791
0.231205
0.234943
0.221454
0.200918
0.217995
0.238736
0.23459
0.194311
0.260344
0.238329
0.201697
0.220067
0.233973
0.197394
0.23631
0.216362
0.236561
0.228988
0.207777
0.210401
0.22671
0.219128
0.209444
0.211618
0.197867
0.205499
0.20176
0.203773
0.200869
0.208219
0.22933
0.153813
0.179174
0.158904
0.207447
0.187155
0.188605
0.192733
0.188478
0.203295
0.24972
0.231046
0.236793
0.234503
0.199339
0.220261
0.224348
0.215278
0.227355
0.246712
0.155622
0.178984
0.211474
0.190047
0.191337
0.188537
0.20941
0.180787
0.234839
0.189074
0.252663
0.242145
0.238906
0.224988
0.237487
0.225133
0.241302
0.242611
0.257891
0.211837
0.182241
0.229912
0.212108
0.225137
0.228547
0.254723
0.175108
0.203476
0.257421
0.223637
0.219422
0.229419
0.249527
0.215444
0.261813
0.242251
0.257157
0.251412
0.217406
0.222057
0.259981
0.265895
0.272185
0.295016
0.28446
0.202191
0.181744
0.241942
0.218167
0.215658
0.21552
0.238442
0.192113
0.196799
0.2481
0.211252
0.204514
0.207336
0.235029
0.17016
0.201107
0.173272
0.240844
0.21906
0.217073
0.211783
0.219478
0.247233
0.275936
0.279609
0.275005
0.207704
0.236111
0.21609
0.20613
0.209851
0.185563
0.202759
0.212863
0.211851
0.234883
0.214675
0.23664
0.21163
0.221807
0.203474
0.191386
0.236759
0.201896
0.205827
0.247666
0.226137
0.228714
0.21736
0.176877
0.233513
0.235732
0.20767
0.221685
0.229457
0.159502
0.180418
0.201858
0.185388
0.187617
0.188663
0.211351
0.171482
0.198978
0.20196
0.2197
0.198056
0.186459
0.212754
0.210499
0.215406
0.249545
0.240286
0.258264
0.194365
0.164808
0.222513
0.208477
0.192009
0.210622
0.201884
0.219509
0.239355
0.211805
0.226443
0.223487
0.224052
0.222207
0.170191
0.187058
0.187657
0.180437
0.17538
0.166814
0.208152
0.189732
0.202641
0.234765
0.21248
0.216624
0.257727
0.220388
0.282022
0.262708
0.178224
0.217506
0.184495
0.214754
0.258858
0.201301
0.252472
0.221248
0.254501
0.284548
0.18822
0.215404
0.186221
0.194798
0.211643
0.207077
0.212463
0.213655
0.200741
0.255556
0.205917
0.200327
0.201585
0.184456
0.213662
0.204658
0.234478
0.209365
0.220512
0.242067
0.203606
0.199591
0.186654
0.226997
0.17233
0.197274
0.204053
0.288799
0.285632
0.222465
0.229898
0.23759
0.238574
0.249337
0.217765
0.20714
0.195006
0.209511
0.216826
0.238498
0.228743
0.205515
0.181381
0.19233
0.216608
0.1785
0.21206
0.24337
0.224566
0.217748
0.223875
0.237292
0.160691
0.185632
0.160534
0.219612
0.197752
0.185029
0.206929
0.206227
0.239778
0.268621
0.271541
0.264402
0.181022
0.209911
0.186217
0.205373
0.209322
0.190486
0.217601
0.216322
0.225642
0.213247
0.218387
0.215933
0.21938
0.206826
0.214412
0.19731
0.204457
0.200674
0.190118
0.198142
0.180893
0.216231
0.194023
0.204037
0.210044
0.194399
0.21402
0.225927
0.22484
0.232973
0.216209
0.184172
0.235614
0.225278
0.223102
0.227212
0.258017
0.20039
0.216639
0.237039
0.221996
0.212916
0.21397
0.229491
0.185733
0.219955
0.188121
0.261028
0.235117
0.240058
0.224701
0.230243
0.241463
0.264494
0.268279
0.276969
0.201753
0.18064
0.24291
0.203836
0.200221
0.200543
0.214075
0.184058
0.212641
0.225153
0.215442
0.213777
0.224674
0.254145
0.177031
0.217202
0.173262
0.22238
0.221349
0.192101
0.198541
0.219919
0.226127
0.2719
0.26588
0.261966
0.203582
0.179916
0.213588
0.205614
0.192151
0.205217
0.202437
0.201635
0.171352
0.215822
0.1693
0.227801
0.176092
0.201536
0.185376
0.233285
0.170172
0.205573
0.245128
0.230664
0.240032
0.253785
0.25332
0.220847
0.21641
0.216453
0.200766
0.186569
0.191884
0.190865
0.177846
0.168438
0.23399
0.251413
0.252478
0.201848
0.282013
0.236633
0.253661
0.193582
0.196246
0.24433
0.204586
0.258542
0.250327
0.225714
0.265907
0.204653
0.190046
0.212725
0.196585
0.176323
0.180719
0.240738
0.230792
0.230704
0.227989
0.22045
0.190537
0.199537
0.203685
0.201787
0.225919
0.223977
0.250395
0.222215
0.217279
0.235465
0.224443
0.220556
0.216847
0.223906
0.222345
0.220055
0.21462
0.224269
0.230064
0.192096
0.193373
0.217989
0.219442
0.241484
0.225511
0.227553
0.175241
0.222579
0.189614
0.199645
0.238804
0.211908
0.225275
0.220733
0.218969
0.232893
0.248875
0.256095
0.251102
0.240675
0.210004
0.250646
0.242021
0.244601
0.183137
0.238612
0.191188
0.180963
0.184863
0.277131
0.247032
0.257411
0.252973
0.274264
0.261325
0.194006
0.216138
0.2515
0.252699
0.24726
0.259394
0.220485
0.177289
0.196015
0.177775
0.177233
0.207073
0.18602
0.223081
0.19568
0.196204
0.207241
0.204195
0.223784
0.212338
0.212779
0.229301
0.234096
0.250158
0.244008
SCALARS SignedDistance double 1
LOOKUP_TABLE default
2.37872
2.17112
1.84638
2.00702
2.36376
2.46846
3.55942
2.57211
2.7293
2.96482
2.6257
2.82161
2.5275
2.67708
2.28167
2.28195
2.30187
2.1628
2.12903
2.17124
2.01134
2.7836
2.72099
2.42046
2.64737
2.58735
2.64356
2.44123
2.96835
3.35342
1.92776
2.55064
2.60787
2.75018
2.06839
2.09166
2.44317
2.52671
2.53732
3.41307
2.87373
2.72858
2.37204
2.4621
2.35331
2.84645
2.62119
2.77112
2.31697
2.44919
2.54701
2.2086
2.30688
2.32985
2.19221
2.33696
2.22836
2.43573
1.97954
2.14783
1.95736
2.08146
2.45019
2.31295
2.51544
1.81553
2.09035
2.44603
1.95798
2.2389
1.8679
2.30239
2.20299
2.69631
2.3064
2.54927
2.89826
2.51529
2.26002
2.55419
2.46454
2.70221
2.68654
2.88121
2.83719
2.68804
2.8012
2.84762
2.30845
2.47737
2.40623
2.72979
2.71165
3.12091
2.88225
1.96854
2.35446
2.03378
2.70808
2.91468
2.68177
2.76128
3.49081
3.23914
3.35135
2.15027
2.73097
1.94052
1.81697
2.57971
2.06648
2.30704
2.14162
2.24797
2.00396
2.87023
2.59564
2.80058
2.33609
2.46625
2.53774
2.08415
2.01207
2.50941
2.27148
2.11977
2.137
1.95238
2.35991
2.15256
2.09637
2.46396
3.02104
2.90402
3.06466
2.57763
2.32504
3.44686
3.02993
3.1494
3.14361
3.07181
2.6192
2.68391
2.98208
2.86158
2.86496
2.56075
2.94457
2.84837
2.17015
2.49218
2.63607
2.9625
2.39851
3.10322
2.99916
3.21549
2.88374
2.46211
2.30714
2.13987
2.34962
2.47353
2.47217
2.545
2.50086
2.43581
2.30102
2.40233
2.35958
2.89379
2.82443
2.91403
2.63595
2.72391
2.75243
2.63853
2.71224
2.62092
2.38655
2.44157
2.49384
2.35737
2.38684
2.28562
2.60775
2.49031
2.54582
2.53425
2.52378
2.43486
2.36031
2.40313
2.23379
2.26181
2.28698
2.2786
2.23742
2.39583
2.294
2.21968
2.2428
2.28946
2.22632
2.21575
2.28568
2.45282
2.34521
2.24801
2.32925
2.32302
2.32146
2.3041
2.23197
2.18699
2.18741
2.18066
2.21085
2.29443
2.17871
2.10887
2.04005
2.0743
2.08213
2.05423
2.22919
2.15448
2.15288
2.02816
2.15212
2.20702
2.60662
2.54742
2.56534
2.18741
2.37309
2.2833
2.34655
2.39079
2.23003
2.17588
2.1704
2.10777
2.08121
2.22112
1.87095
1.91107
2.00339
1.92951
1.86678
2.61987
2.39352
2.01437
2.18415
2.24934
2.19228
2.01081
2.43496
2.20957
2.46093
1.90932
1.99772
2.11758
2.20618
2.04018
1.96115
1.83199
1.86179
1.81281
2.20459
2.0842
2.11263
2.26333
2.37112
2.6918
2.49341
2.53556
2.48256
2.71922
2.29976
2.13465
2.84631
2.84218
2.52117
2.6663
2.88452
2.73717
2.63354
2.20613
2.41758
2.36584
2.38965
2.21284
2.38043
2.46239
2.3205
2.42599
2.48677
2.49249
2.43616
2.5935
2.50091
2.636
2.38457
2.36143
2.85795
2.81968
2.95703
2.58725
2.69726
2.54995
2.79964
2.78158
2.70556
2.46574
2.57811
2.59156
2.61177
2.54382
2.74329
2.68326
2.79806
2.78254
2.69939
2.78271
2.85726
2.69549
2.83055
2.7829
2.91185
2.82507
2.30241
2.30297
2.33872
2.49489
2.36056
2.41715
2.51531
2.39523
2.52888
2.85239
2.65305
2.64869
2.78147
2.77006
2.89276
2.82806
2.63334
2.70504
2.61394
2.8793
2.9446
2.79392
2.96932
2.9394
2.99407
2.96873
1.84695
1.9033
1.88114
2.37529
2.07736
2.17807
2.29138
2.12308
2.47186
2.79407
2.66312
2.59477
2.59359
2.74168
2.43276
2.48221
3.1222
2.78688
3.00823
2.59235
2.69397
2.99669
2.84593
2.81918
2.56883
2.46643
3.50304
3.57217
3.6287
3.27346
3.51518
3.44526
3.14031
3.32842
3.16099
2.70684
2.98434
2.98071
2.58541
2.58753
2.09731
2.32684
2.63727
2.44754
2.34499
2.04471
1.9036
1.83473
1.83815
1.90217
1.84986
1.90515
2.65342
2.41322
2.53918
2.29453
2.32972
2.54114
2.07805
2.16012
1.93655
1.92801
1.88625
2.06321
2.00348
2.0477
1.95934
2.42258
2.20237
2.36764
2.02256
2.09202
2.13599
2.88051
2.82498
2.85864
2.65967
2.73509
2.83848
2.68027
2.67685
2.58302
2.50031
2.56676
2.42975
2.22327
2.35401
2.16901
2.64556
2.62175
2.63317
2.46964
2.51956
2.32601
2.01002
1.96421
1.9994
2.00633
2.21604
2.13495
2.24139
2.4507
2.47122
2.2433
2.44823
2.26222
2.24756
2.09038
1.97564
2.02117
1.89913
2.33303
2.14167
2.3134
2.00647
2.00312
2.04739
2.10358
2.28453
2.27745
2.01196
2.04191
2.36571
2.16671
2.31903
2.18306
2.4264
1.94029
2.04961
2.46326
2.23166
2.27664
2.25681
2.52298
3.31794
3.21419
3.36642
2.67577
2.9214
2.79396
2.79808
3.00479
2.74105
2.62064
2.73684
2.61172
2.21292
2.12095
2.511
2.3425
2.59051
2.44231
2.72289
3.483
3.24646
3.27732
3.25423
3.40463
2.99713
2.74393
2.90523
3.11488
2.87887
3.02231
3.14103
3.01528
3.28278
3.28775
3.25228
2.7916
3.09703
2.90115
2.18565
2.73753
2.44733
2.31642
2.57913
2.70227
2.89591
2.93756
2.89678
2.69167
3.07777
2.93341
2.87815
2.94507
2.734
2.81261
2.78593
2.93582
2.97607
2.87302
2.90666
2.79844
2.3806
2.62981
2.49831
2.42301
2.5511
2.94451
2.84177
2.94052
2.91631
2.80723
2.60868
2.7547
2.77452
2.68268
2.75515
2.74599
2.91173
2.72543
1.92961
2.11064
2.01834
2.06426
2.2802
2.49999
2.68827
2.59306
2.40608
2.23705
2.76862
2.52822
2.67195
2.74432
2.74068
2.30718
2.58394
2.42283
3.26571
2.67278
2.96249
3.23315
3.2901
2.02676
2.48755
2.20281
2.20889
2.40977
3.09179
3.30533
3.2577
3.14804
2.85594
2.65502
2.74901
3.02059
2.82809
3.23761
3.02832
2.78251
2.76952
3.53587
3.04736
3.24938
3.48279
3.42613
2.60973
2.82897
2.78563
2.71628
2.86246
3.22151
3.02953
3.03782
2.75605
2.57531
2.65664
2.57471
2.40193
2.4972
2.12254
2.29406
2.49072
2.5136
2.10808
2.26056
2.17717
2.04301
2.02407
2.34832
2.17044
2.25252
