# vtk DataFile Version 4.2
vtk output
ASCII
DATASET POLYDATA
POINTS 642 double
-1.32869 2.76417 -0.293528
1.40703 2.83067 -0.247492
-1.50105 -1.68077 0.0165565
1.327 -1.61372 0.0360066
-0.00841156 -0.690985 1.87401
-0.0038796 1.92192 1.69221
-0.0986548 -0.737896 -1.30184
-0.186397 2.05292 -1.91526
1.94071 1.09987 -1.15627
1.71685 0.732504 0.859097
-2.01839 0.96014 -1.36044
-1.72062 0.588096 0.921509
-1.82074 1.87443 0.385616
-0.922444 1.40294 1.59261
-0.613418 2.57492 1.05288
0.640132 2.58744 1.0452
-0.0122674 3.13182 -0.157532
0.98431 2.78267 -1.29326
-0.972664 2.78561 -1.36354
-1.41538 1.61674 -2.04772
-2.05976 2.04126 -0.981182
-2.20831 0.813192 -0.216964
0.909031 1.44333 1.56288
1.88429 1.9225 0.405288
-0.94264 -0.2577 1.70957
-0.0312184 0.468754 2.06633
-1.86406 -0.860667 -0.551616
-1.84154 -0.915782 0.527024
-0.22823 1.02095 -2.011
-1.28247 0.223458 -1.55809
2.09048 2.08472 -0.907116
1.37975 1.72219 -1.76004
1.66209 -0.84131 0.551205
0.897626 -0.272985 1.65007
0.751937 -1.50039 1.16892
-0.825139 -1.52654 1.1713
-0.00547731 -1.93626 0.0482137
-0.892099 -1.44329 -0.982988
0.770189 -1.41844 -0.897635
1.08333 0.107781 -1.35221
1.61652 -0.783987 -0.445783
2.16942 0.954567 -0.154295
-1.64726 2.38752 0.0482684
-1.23396 2.29232 0.812514
-0.981633 2.74718 0.413669
-1.36901 1.02438 1.30049
-1.36957 1.6956 1.11056
-1.82117 1.29888 0.676353
-0.270085 2.27602 1.47013
-0.811567 2.059 1.38574
-0.431482 1.72177 1.71443
-0.352237 2.95066 0.532414
-0.725185 3.0347 -0.217058
0.273573 2.2785 1.46837
0.00261216 2.67286 1.13075
0.829899 3.03762 -0.199879
0.37348 2.95541 0.535405
1.09385 2.76507 0.356461
-0.476449 3.10623 -0.761991
-1.21522 2.87214 -0.808138
1.28144 2.92196 -0.73849
0.483005 3.08924 -0.74361
-0.648437 2.44347 -1.73468
-0.0433853 2.88121 -1.29164
0.546164 2.4584 -1.64328
-1.67597 2.60929 -1.27878
-1.74803 2.51977 -0.629404
-0.927684 1.88758 -2.06145
-1.26938 2.29112 -1.83839
-2.13147 1.44859 -1.26255
-1.91877 1.91146 -1.66802
-1.84397 1.27912 -1.74667
-2.05304 2.00644 -0.266297
-2.19525 0.887482 -0.835415
-2.25007 1.45862 -0.592878
-2.13534 1.40535 0.0565157
-2.02537 0.691304 0.377193
1.32098 2.31833 0.750768
1.70102 2.47531 0.0770962
0.421209 1.73475 1.70532
0.823025 2.07739 1.37338
1.87216 1.36349 0.635258
1.43187 1.72755 1.03775
1.39858 1.07461 1.22939
-0.441871 0.900362 1.91482
-0.00970443 1.30484 1.89657
-1.38274 0.0886888 1.33647
-0.895547 0.50961 1.74764
-0.0296526 -0.118879 2.05269
-0.454703 0.14312 2.01939
-0.482958 -0.49726 1.88909
-2.00748 -0.383466 0.207805
-1.79792 -0.286552 0.763836
-1.91209 0.0988821 -0.946766
-2.02927 -0.262194 -0.365357
-1.79902 -1.36604 0.290533
-1.97704 -0.965902 -0.0326999
-1.81551 -1.34118 -0.29494
-1.41306 1.02534 -1.95666
-1.71901 0.648701 -1.56563
-0.241199 1.55574 -2.0512
-0.983957 1.34887 -2.10701
-0.766228 -0.388273 -1.41581
-0.928949 0.745884 -1.91906
-0.148554 0.311744 -1.74091
1.26427 2.29637 -1.68924
0.820088 1.94558 -1.85341
1.81091 2.59192 -0.558371
1.70273 2.63336 -1.22686
1.75218 1.41442 -1.50222
1.82055 1.93791 -1.48081
2.08202 1.5517 -1.10596
1.58413 -1.28606 0.311641
1.31991 -1.22255 0.888857
1.13293 -1.65611 0.570695
1.34716 0.123446 1.29267
1.37636 -0.637086 1.14284
1.69242 -0.131834 0.787675
0.361334 -1.17245 1.5687
0.88809 -0.981966 1.4386
0.433548 -0.527909 1.8488
0.430428 -1.83676 0.66505
0.789768 -1.83735 0.0224698
-0.38201 -1.1554 1.56544
0.00635325 -1.60282 1.23373
-0.875503 -1.86207 0.0249452
-0.475036 -1.85606 0.658942
-1.23601 -1.68328 0.559862
0.461813 -1.78521 -0.492639
1.10274 -1.61719 -0.446122
-1.25456 -1.65576 -0.494742
-0.516277 -1.79802 -0.524356
0.368558 -1.1027 -1.16498
-0.0439367 -1.50358 -0.968875
-0.522585 -1.09786 -1.19506
1.28712 -1.18035 -0.708658
1.55093 -1.271 -0.212282
0.540526 -0.460283 -1.32695
0.903628 -0.91664 -1.06873
1.79132 0.322633 -0.831636
1.37193 -0.471581 -0.921303
1.61518 0.758367 -1.33159
1.7217 -0.888114 0.0573699
2.13195 1.0366 -0.715402
1.91289 0.0356951 -0.281612
1.87234 -0.144253 0.246121
2.01316 0.873246 0.374359
0.388882 0.143612 1.99851
0.875736 0.541026 1.69377
0.392086 0.939644 1.90007
-1.45874 -1.25768 0.892624
-0.971127 -1.00365 1.43334
-1.47976 -0.711773 1.11208
-1.10077 -0.904518 -1.17622
-1.53059 -1.20679 -0.827766
-1.57107 -0.513723 -1.03751
1.32738 1.13004 -1.66945
0.582105 0.661751 -1.77064
0.74284 1.3801 -1.90632
2.14918 1.46274 0.112052
2.23267 1.53652 -0.536602
2.08616 2.0667 -0.233004
-1.48404 2.62004 -0.148555
-1.33162 2.56824 0.23592
-1.18744 2.76607 -0.0112209
-1.55718 2.08328 0.594266
-1.4627 2.33484 0.429852
-1.75604 2.14204 0.220671
-0.797983 2.68006 0.75801
-1.11449 2.53382 0.639756
-0.917646 2.46029 0.95775
-1.58069 0.783213 1.09185
-1.59582 1.18393 1.01456
-1.76371 0.928654 0.818262
-1.14331 1.56535 1.38148
-1.37591 1.38849 1.21931
-1.15217 1.22404 1.46809
-1.84072 1.59186 0.537256
-1.61544 1.50805 0.894926
-1.6095 1.7931 0.757551
-0.111064 2.07964 1.61037
-0.361218 2.02147 1.60098
-0.177632 1.84992 1.71564
-0.717091 2.33897 1.23551
-0.539769 2.19285 1.44001
-0.434929 2.43888 1.29127
-0.680323 1.57358 1.67353
-0.627398 1.8998 1.57033
-0.882196 1.74522 1.50319
-1.32274 2.00442 0.97557
-1.09863 1.88844 1.27614
-1.0196 2.1937 1.1332
-0.850536 2.92171 0.104229
-1.06978 2.9002 -0.263447
-0.494264 2.77817 0.822664
-0.666993 2.87137 0.495065
-0.39657 3.10319 -0.185989
-0.530681 3.0201 0.157184
-0.195245 3.07028 0.190664
0.106046 2.08033 1.61002
-0.00238064 2.30102 1.4818
0.324639 2.65101 1.10747
0.150971 2.49382 1.3185
0.44896 2.44484 1.28578
-0.149473 2.49337 1.32266
-0.31182 2.64516 1.1117
1.20217 2.91809 -0.23985
0.97175 2.92553 0.0800453
1.31005 2.81421 -0.0279258
0.19988 3.07408 0.201558
0.577333 3.02276 0.166714
0.414538 3.10427 -0.159966
0.849214 2.6973 0.739628
0.722165 2.88084 0.484338
0.521626 2.78838 0.819539
-0.166309 2.83284 0.863008
0.178455 2.83606 0.862812
0.00470877 2.98197 0.554103
-0.965081 2.99101 -0.526333
-1.28446 2.82198 -0.51686
-0.24475 3.14266 -0.470985
-0.607061 3.10348 -0.496164
-1.11186 2.85813 -1.08804
-0.862467 3.01499 -0.799717
-0.738459 2.9755 -1.07872
1.36994 2.89191 -0.445716
1.07788 2.9969 -0.483703
0.762686 2.96435 -1.03572
0.937342 3.01157 -0.759333
1.15309 2.87858 -1.02187
0.670847 3.09626 -0.471195
0.214778 3.14382 -0.457908
-0.420396 2.22885 -1.85581
-0.0958664 2.48342 -1.66157
0.17566 2.24007 -1.79261
-0.566445 2.86478 -1.34378
-0.361888 2.69635 -1.5202
-0.81686 2.63945 -1.58726
0.786496 2.63681 -1.50716
0.254268 2.69042 -1.47716
0.526115 2.85138 -1.29625
-0.0299942 3.11265 -0.745494
0.235029 3.0236 -1.03462
-0.285608 3.02918 -1.04671
-1.51029 2.72334 -0.749413
-1.52183 2.67019 -0.4417
-1.31712 2.72311 -1.34319
-1.44488 2.75677 -1.04961
-1.93117 2.31309 -0.807519
-1.73044 2.57197 -0.950324
-1.9257 2.33997 -1.1399
-0.592629 1.99273 -1.98744
-0.820008 2.18234 -1.93643
-1.36707 1.94428 -1.9932
-1.09841 2.0833 -1.98712
-1.1679 1.76193 -2.08527
-0.985438 2.3903 -1.81045
-1.13979 2.57944 -1.61913
-2.08014 1.16568 -1.33783
-2.01711 1.37676 -1.52778
-1.96702 1.09799 -1.52774
-2.00264 1.99108 -1.31522
-2.0434 1.67689 -1.45532
-2.12944 1.7387 -1.14095
-1.65639 1.45132 -1.92693
-1.88097 1.57438 -1.73114
-1.66295 1.75819 -1.89907
-1.4757 2.47063 -1.58398
-1.59564 2.1175 -1.77604
-1.82742 2.28118 -1.49312
-1.7307 2.46263 -0.288421
-2.08309 2.0434 -0.625833
-1.93434 2.2752 -0.453872
-1.87787 2.21138 -0.105491
-1.96065 1.94817 0.0573474
-2.10447 0.935948 -1.162
-2.18379 1.19666 -1.06166
-2.25586 1.16005 -0.402756
-2.25095 1.18444 -0.718586
-2.22846 0.854967 -0.518876
-2.21486 1.47486 -0.939126
-2.18834 1.75553 -0.798542
-1.95403 1.0408 0.504194
-1.86443 0.622386 0.697551
-2.00506 1.65315 0.215906
-2.00366 1.36819 0.353103
-2.12785 0.759247 0.0705202
-2.10475 1.10354 0.195556
-2.20404 1.13315 -0.0918247
-2.18355 1.73995 -0.434591
-2.22176 1.43796 -0.257901
-2.11926 1.70642 -0.0998865
1.43426 2.63551 0.200921
1.53863 2.70647 -0.116745
0.962312 2.48075 0.937706
1.21307 2.561 0.577
1.81766 2.21045 0.25477
1.55956 2.39549 0.397242
1.65049 2.12787 0.555196
0.171017 1.85217 1.71333
0.363152 2.02563 1.59719
0.877363 1.77679 1.48035
0.625964 1.91577 1.55809
0.661662 1.60395 1.65604
0.552396 2.20056 1.43612
0.740125 2.35152 1.22755
1.80142 1.04698 0.755914
1.65957 1.24627 0.92496
1.60147 0.879683 1.00804
1.69804 1.82969 0.6994
1.69514 1.55036 0.815987
1.90079 1.63826 0.526742
1.16029 1.26017 1.42029
1.42586 1.42732 1.14182
1.15486 1.60364 1.33906
1.05431 2.21568 1.11167
1.11874 1.91774 1.24389
1.39637 2.0294 0.91081
-0.221932 1.52799 1.82462
-0.00530766 1.69593 1.78362
-0.697733 1.18799 1.76711
-0.460135 1.36473 1.81484
-0.0210275 0.845809 1.98625
-0.221672 1.09316 1.92478
-0.220618 0.646052 2.02404
-1.58731 0.355922 1.10822
-1.36718 0.566096 1.34966
-0.906782 0.115992 1.77248
-1.12336 0.313975 1.58669
-1.15784 -0.11061 1.53912
-1.13088 0.787286 1.54088
-0.92363 0.986475 1.67646
-0.0205289 -0.443311 1.97044
-0.244609 -0.289223 2.00335
-0.213319 -0.60852 1.90354
-0.231512 0.305989 2.07026
-0.242743 0.0211145 2.06127
-0.0327107 0.172568 2.08397
-0.719223 -0.383541 1.82479
-0.474917 -0.161612 1.97888
-0.690994 -0.0385592 1.90462
-0.677143 0.696351 1.85141
-0.675841 0.294809 1.92026
-0.442534 0.462713 2.00522
-1.90905 0.143464 0.588671
-1.75733 0.210847 0.867394
-2.09107 0.222004 0.00695533
-2.02282 0.159039 0.28967
-1.82442 -0.648368 0.645036
-1.9287 -0.365788 0.482641
-1.93442 -0.707542 0.365521
-1.99359 0.698291 -1.23336
-2.07756 0.534913 -0.914111
-1.94662 -0.634119 -0.43878
-1.98757 -0.126807 -0.626072
-1.8579 -0.512058 -0.692031
-2.10698 0.406864 -0.603402
-2.1243 0.31029 -0.307606
-1.71768 -1.65224 0.148616
-1.85254 -1.37969 -0.00257982
-1.68035 -1.58632 -0.122026
-1.93939 -0.960811 0.240456
-1.92653 -1.16045 0.124324
-1.84314 -1.13914 0.413907
-1.86796 -1.10749 -0.432132
-1.93314 -1.14815 -0.159302
-1.94983 -0.933199 -0.295281
-2.03888 -0.357558 -0.0776226
-1.99406 -0.711725 -0.180276
-1.99283 -0.734795 0.0863482
-1.7961 0.981193 -1.69421
-1.90966 0.833379 -1.46517
-1.42745 1.32755 -2.03027
-1.63132 1.15626 -1.89256
-1.50924 0.459237 -1.59633
[...]
POINT_DATA 642
SCALARS Mean_Curvature double 1
LOOKUP_TABLE default
0.885169
1.20218
0.822432
1.11214
1.05348
1.01548
-0.0653449
0.456473
0.921047
0.435259
0.922836
0.503017
0.731813
0.735019
0.989681
0.986851
0.604859
0.732677
0.910381
1.71748
0.739085
0.936201
0.659415
0.987068
0.92926
1.28678
0.975085
0.911419
0.604333
0.141007
0.752592
1.35846
0.939997
0.492132
1.56407
1.57379
0.686169
1.5908
1.5207
0.366094
0.725112
0.971956
0.712949
0.758276
0.788857
0.504095
0.721613
0.589693
1.1054
0.919171
0.885396
0.88653
0.672838
1.07778
1.15317
0.773357
0.837147
0.660877
1.18512
0.873563
1.11522
0.797252
0.275731
0.744183
0.391463
2.63172
0.947494
1.21512
1.56624
1.04595
2.52741
1.43778
1.15544
0.887633
1.08471
0.959272
0.60518
0.616325
1.00916
0.904324
0.97434
0.713399
0.618858
0.550645
0.60079
0.973591
0.431799
0.446478
1.18635
1.23724
1.04528
0.696294
0.559632
0.601466
0.667854
1.40947
1.42734
1.90107
1.3735
1.02574
0.7044
1.17641
0.268037
0.396497
0.39758
1.59967
0.697682
0.918615
2.66929
1.23183
1.54171
1.27319
1.99753
1.04865
1.48946
0.445655
0.856734
0.556452
1.15015
0.919357
0.995362
0.84969
0.817588
0.312826
1.12385
0.877126
1.00139
1.11783
0.970843
1.67799
1.12867
0.926133
0.950215
1.13933
0.530979
1.45552
1.7523
0.278982
0.572899
0.221693
0.599732
0.783635
0.829785
0.951767
0.68539
0.602382
0.743101
1.1336
0.300384
0.644337
1.20853
0.760274
0.653079
0.785472
1.63801
0.482832
0.73292
0.543404
0.694739
1.16193
1.24533
1.02241
0.787557
0.511913
0.43724
0.608969
0.55481
0.706203
0.889878
0.758915
0.887607
0.440064
0.529789
0.233238
0.748448
0.653941
0.675861
0.674792
0.594348
0.635855
0.967744
0.984596
1.0248
0.954063
0.97933
1.12068
0.814049
0.969945
0.861015
0.762412
0.869613
0.865537
0.76803
0.637569
0.92964
0.868453
0.567996
0.802662
0.739432
0.966253
1.15765
1.06697
1.199
1.04256
1.37197
1.1062
0.616124
0.623423
0.887896
0.783423
0.68389
0.489385
0.865044
0.801559
0.950894
1.0035
0.990935
0.919091
1.07707
0.416925
0.876502
1.19228
0.548166
1.07441
1.09023
1.41041
0.954523
0.919023
0.91454
0.578412
0.997798
0.882648
0.504877
0.290073
0.409364
1.25288
0.729309
1.01958
0.905179
0.532187
0.988414
0.625593
0.953072
0.942005
1.06813
0.781989
1.58362
1.35982
0.738697
1.15811
1.75686
0.571593
1.10153
1.75586
1.35446
1.56516
1.26299
1.39955
1.0035
1.41338
1.28481
0.589677
1.25163
0.971655
1.54036
1.34893
1.49487
1.05194
0.797754
1.96077
1.08083
1.00081
1.07271
1.08625
0.879386
0.864899
0.941231
1.02783
1.00073
0.900362
1.01704
1.18421
0.486558
0.52988
0.822788
0.742274
0.277934
0.783271
0.972944
1.04488
1.09555
0.959035
0.839118
1.04281
0.874846
0.661692
1.0477
0.785386
0.702238
1.02604
0.997648
0.79954
0.947867
0.789658
1.0756
0.972416
0.630222
0.605867
0.257683
0.698787
0.614506
0.890413
0.618962
0.55387
0.641188
0.888018
0.785278
0.613586
0.949438
0.918279
0.775653
0.775685
0.518104
0.704354
1.08369
0.463171
0.474322
0.805943
0.442349
0.369037
0.327968
0.688518
1.10034
1.09862
1.01994
1.31404
1.28546
1.36297
1.03331
1.11903
1.06393
0.399354
1.08916
1.17278
0.478998
0.458176
0.513878
0.466993
0.666417
0.664402
0.699172
0.823539
0.862514
0.69336
0.669185
0.594381
0.194987
0.575585
5.04115
1.92453
2.26488
1.10392
1.81611
1.48188
1.76228
1.88995
1.31041
0.637888
0.778474
0.806085
1.42197
0.999439
1.53799
1.49385
0.832944
1.34017
1.06139
0.540133
0.552034
0.701493
0.705103
0.673202
1.28968
1.47364
0.188242
-0.149109
-0.0905074
0.725618
-0.0653354
0.545199
0.531863
0.481329
0.609193
1.34127
0.876055
1.11686
0.511144
0.53238
1.55618
1.48345
0.529363
1.1917
1.50937
1.26099
1.45397
2.50451
1.22829
2.26409
1.82849
1.26518
1.01921
1.2697
1.0719
1.62877
1.44014
1.417
1.38139
1.43009
1.6786
1.62993
1.12449
1.72119
2.10769
1.65712
2.28847
0.870335
1.25422
1.08071
1.3349
1.39363
1.06006
0.48836
0.4978
0.53146
0.837741
0.625068
0.413224
0.814523
0.740694
0.864145
1.07576
0.421476
1.05006
1.12625
0.918859
1.45328
0.904328
0.569852
0.866026
0.874687
0.792256
0.953544
0.625465
2.23137
1.07308
0.875698
0.921645
0.726328
0.924031
1.01409
0.295142
1.25101
0.80749
1.3874
1.36602
1.26169
0.585158
0.674789
0.701764
0.749736
0.916577
0.91095
1.41235
0.74697
1.05093
1.16216
0.450717
0.702565
1.3377
1.37527
0.935598
1.00263
1.57292
1.01864
1.13347
0.75179
1.0264
1.10945
1.03905
1.41599
0.986454
0.589955
0.311512
0.296233
0.367397
1.40523
1.29328
1.39185
1.29196
0.944145
1.35844
0.771037
0.792407
0.978431
1.73398
1.74014
1.673
1.6993
1.03953
1.63489
0.823538
0.243536
0.416037
0.589831
0.4603
0.341461
0.758083
1.33725
0.811328
0.760877
0.840483
0.644836
0.52868
0.640389
0.57975
0.424842
0.465137
1.10636
0.565903
0.63494
2.0119
0.785319
1.26696
1.47555
0.932961
0.930789
0.838749
0.782797
0.896973
0.974375
0.64176
0.736127
0.614236
0.293112
0.798153
0.631998
0.893441
0.672004
0.318535
0.751536
0.623075
0.740013
1.11991
0.952473
1.00445
1.23862
1.24798
0.43829
0.638839
0.375809
0.41679
0.578822
0.951752
0.865371
0.722839
0.807931
0.72968
0.93152
0.44277
1.02945
1.40288
1.37998
1.23459
1.36793
1.17088
1.07632
0.339248
0.949313
0.989598
1.2069
0.460138
0.720667
0.660773
0.529799
0.622356
0.898445
0.686606
0.804898
0.429492
1.53664
0.721616
0.419034
0.416416
1.51184
1.51458
1.78087
1.6539
1.68946
0.701745
0.528844
0.446753
0.53816
0.641724
1.43344
1.0419
0.538868
0.971674
0.503834
0.785545
1.09852
1.08429
-0.0746118
0.589165
0.526068
-0.0320997
0.198209
0.679543
0.465211
0.749522
0.713949
0.65135
0.50785
0.617393
0.531586
0.761962
1.09537
0.967013
0.973892
1.11088
1.06771
1.27198
1.2328
1.09226
1.11455
0.888082
1.11837
1.00607
0.658902
0.846741
1.26686
1.28195
1.2539
SCALARS CoVolArea double 1
LOOKUP_TABLE default
0.0593634
0.0407461
0.048163
0.041959
0.0503091
0.034634
0.0916534
0.0923449
0.037021
0.0736879
0.0415684
0.0818726
0.112639
0.106137
0.0961638
0.101115
0.13882
0.118356
0.113544
0.0813351
0.109401
0.134712
0.111701
0.0968672
0.117757
0.0692214
0.0736092
0.0745946
0.142818
0.141437
0.0983954
0.0676355
0.0789137
0.122044
0.0995606
0.108313
0.142936
0.0946371
0.081079
0.178838
0.0898257
0.098714
0.114602
0.128573
0.132187
0.134435
0.118306
0.118582
0.0727694
0.0970689
0.0852688
0.123265
0.115051
0.0754033
0.0939167
0.12451
0.129439
0.130699
0.124383
0.101553
0.0943765
0.145107
0.127034
0.159195
0.145584
0.122259
0.0991892
0.08073
0.109292
0.0867291
0.12058
0.0800288
0.103122
0.119831
0.100736
0.0944614
0.154291
0.13548
0.101245
0.0826419
0.0976098
0.0892767
0.125507
0.139076
0.116154
0.0940108
0.155667
0.121795
0.0694873
0.0753292
0.0992722
0.132653
0.13199
0.161831
0.140812
0.0840836
0.0606958
0.0790714
0.0775886
0.10628
0.141139
0.0688707
0.160087
0.112634
0.230133
0.0896577
0.113343
0.0982629
0.124963
0.067114
0.0914849
0.0687144
0.0655514
0.0922752
0.102515
0.143368
0.106139
0.136795
0.0938657
0.094119
0.0965983
0.132442
0.0986732
0.11734
0.123507
0.116998
0.137808
0.11075
0.112704
0.0824361
0.103503
0.125873
0.0849572
0.125001
0.0879083
0.0739134
0.065199
0.145494
0.080171
0.152118
0.135078
0.111351
0.0635712
0.0901212
0.159463
0.144001
0.112373
0.0809317
0.140466
0.117238
0.0967614
0.103944
0.107602
0.0911702
0.0894433
0.130005
0.0956591
0.176676
0.130298
0.0801555
0.0875877
0.105303
0.0980834
0.135002
0.115387
0.131461
0.131417
0.110778
0.108938
0.126769
0.109022
0.124414
0.127498
0.116316
0.106231
0.115297
0.116553
0.10965
0.119327
0.126069
0.0562323
0.0749673
0.0622913
0.0952681
0.0821189
0.0814418
0.0949091
0.0862347
0.0977519
0.130273
0.112501
0.114882
0.128301
0.100292
0.107161
0.119382
0.119387
0.124623
0.13676
0.0572407
0.0696239
0.0957731
0.0797628
0.0847892
0.0778495
0.092837
0.0815249
0.127814
0.0881304
0.143061
0.139805
0.139065
0.121328
0.132425
0.112745
0.113414
0.115324
0.132184
0.105665
0.0849395
0.121909
0.107215
0.107569
0.112285
0.128499
0.0686584
0.0998756
0.139333
0.117171
0.10664
0.127245
0.137863
0.127944
0.169947
0.149936
0.138023
0.150156
0.112544
0.121582
0.158485
0.149571
0.144696
0.162121
0.151003
0.0935815
0.081982
0.111915
0.100901
0.105091
0.102741
0.117176
0.0995427
0.0961864
0.100769
0.084992
0.0716724
0.0948073
0.106812
0.0650961
0.0787024
0.0624653
0.114455
0.0954363
0.0993582
0.0829098
0.0928648
0.10664
0.131602
0.132908
0.137972
0.0996741
0.110171
0.103275
0.0991031
0.099186
0.0853054
0.0927281
0.098536
0.100466
0.127262
0.0983158
0.10826
0.122998
0.131651
0.098942
0.100882
0.140676
0.108516
0.0999459
0.108037
0.0983544
0.100649
0.111922
0.0762264
0.121314
0.130716
0.101333
0.117951
0.119524
0.0621204
0.0751595
0.0990744
0.0840425
0.0931209
0.082983
0.0987705
0.0891305
0.113281
0.117327
0.113629
0.106853
0.0875223
0.126844
0.123141
0.117573
0.125532
0.121532
0.137032
0.0893728
0.0667345
0.11818
0.10502
0.0890116
0.102962
0.0877945
0.133286
0.15253
0.111326
0.141884
0.136136
0.138654
0.124812
0.0671159
0.0781058
0.0816902
0.0676636
0.0676178
0.0616755
0.103858
0.0813692
0.0907316
0.120917
0.0966641
0.0934288
0.162121
0.132199
0.171846
0.167312
0.092882
0.129144
0.0857448
0.105038
0.14701
0.0944071
0.149572
0.118233
0.15672
0.171818
0.0795479
0.0778985
0.0753388
0.0654188
0.0647188
0.0713744
0.0666891
0.0631813
0.0636888
0.143635
0.0870215
0.0844559
0.0799907
0.0768111
0.0739181
0.0785256
0.121423
0.0855401
0.096622
0.132682
0.105728
0.106694
0.0970571
0.131996
0.0680038
0.0639841
0.149964
0.232448
0.219345
0.122081
0.17006
0.152564
0.156508
0.176325
0.125496
0.0705237
0.084832
0.0838855
0.121004
0.136583
0.103211
0.0958917
0.0783929
0.0809793
0.0752094
0.0717178
0.0930086
0.117627
0.111286
0.103832
0.105949
0.112211
0.0564817
0.0654639
0.0555158
0.0753842
0.0699467
0.0647779
0.0791813
0.0753469
0.0993816
0.118383
0.121897
0.101165
0.0621201
0.0842469
0.0774951
0.0835483
0.077832
0.0636312
0.103096
0.0932259
0.0965044
0.127876
0.131291
0.125791
0.116581
0.117515
0.130019
0.104799
0.110238
0.0959097
0.0866604
0.0953396
0.0779555
0.0902439
0.0861969
0.0887004
0.106073
0.0975558
0.109966
0.101526
0.107105
0.0996388
0.103926
0.076052
0.115925
0.11456
0.118153
0.119368
0.141592
0.0963441
0.11332
0.121061
0.118933
0.104031
0.104909
0.1091
0.0848918
0.112456
0.0846413
0.14496
0.128428
0.133521
0.113027
0.121549
0.125382
0.134883
0.141873
0.149507
0.0853728
0.0686923
0.128395
0.0964055
0.0810278
0.0878115
0.0981098
0.0813001
0.103899
0.110392
0.106541
0.101833
0.117459
0.138912
0.0893285
0.099488
0.0914228
0.104499
0.101709
0.077851
0.083147
0.102562
0.109028
0.142604
0.136887
0.132437
0.0751981
0.0606239
0.0748952
0.0759547
0.0652357
0.0693647
0.0771315
0.140792
0.0913102
0.128835
0.0950651
0.160229
0.0715967
0.0709097
0.0889352
0.130986
0.0733758
0.109438
0.150433
0.138858
0.144891
0.154647
0.158116
0.0785543
0.109104
0.0925728
0.060137
0.0756135
0.0565562
0.0539402
0.0649313
0.067432
0.122635
0.135714
0.13198
0.0932047
0.164539
0.129674
0.149104
0.104836
0.0987768
0.142594
0.103038
0.149702
0.144202
0.113551
0.150084
0.0991776
0.079228
0.103017
0.086869
0.0693234
0.0700078
0.155082
0.137407
0.147832
0.148366
0.126106
0.0865449
0.0879691
0.0986294
0.100429
0.122946
0.112344
0.137685
0.1011
0.0987458
0.104987
0.104291
0.0890037
0.0831337
0.109928
0.120981
0.110141
0.100979
0.0968543
0.142486
0.0882309
0.11044
0.133813
0.127761
0.101787
0.112267
0.0971047
0.098386
0.0830115
0.0777879
0.110165
0.135588
0.0938808
0.07678
0.0836177
0.0988165
0.0957727
0.136029
0.150914
0.146694
0.142516
0.0953514
0.0920458
0.0942772
0.116794
0.0762274
0.143859
0.0941834
0.0716054
0.0751479
0.216241
0.153973
0.183825
0.192275
0.191618
0.150218
0.0901814
0.11656
0.142894
0.14752
0.150727
0.151836
0.114734
0.0867244
0.0805396
0.0784603
0.0769821
0.0866231
0.0730642
0.0904107
0.0758629
0.0812344
0.0843083
0.0941065
0.099615
0.101054
0.10005
0.101549
0.090992
0.103436
0.0994865
SCALARS SignedDistance double 1
LOOKUP_TABLE default
1.60509
1.49586
0.448821
1.19503
1.44778
1.43412
2.54448
1.60699
1.83041
1.95243
1.8987
1.79995
1.54792
1.63778
1.27084
1.28271
1.3961
1.54941
1.54855
1.58427
1.2065
1.97121
1.66676
1.4798
1.76124
1.67777
1.9174
1.60012
2.00494
2.52607
1.05643
1.8739
1.59698
1.84299
1.21412
1.31294
1.76092
1.88425
1.83148
2.38785
1.84785
1.82605
1.48354
1.47903
1.44917
1.86795
1.62311
1.82662
1.33769
1.40111
1.54374
1.24052
1.51833
1.33705
1.17706
1.55769
1.30387
1.57926
1.09911
1.51528
1.40929
1.22183
1.82837
1.54314
1.75496
0.121219
1.27996
1.80832
1.32263
1.53615
0.192062
1.61643
1.28356
1.87489
1.46917
1.64626
1.96557
1.58058
1.36948
1.53158
1.45586
1.73016
1.68075
1.88819
1.86251
1.68942
1.7454
1.90401
1.29937
1.5194
1.45125
1.70713
1.68825
2.23504
1.8585
1.26807
1.69831
1.42931
2.02225
2.17665
1.7335
2.06604
2.39058
2.4316
2.42932
1.63192
1.84414
0.694564
0.0887657
1.77819
1.38254
1.5218
1.45962
1.38138
0.487166
1.79379
1.57196
1.73059
1.68032
1.56003
1.60305
1.26131
1.24686
1.88096
1.55274
1.31562
1.40831
0.576358
1.58188
1.3384
1.28363
1.78402
2.30332
2.23137
2.31474
1.84239
1.62286
2.35453
2.14138
2.24261
2.03569
2.139
1.74572
1.7712
1.96107
1.80855
1.9393
1.60589
1.94265
1.83056
1.38452
1.68825
1.61788
2.19325
1.79769
2.09229
2.15904
2.24627
1.92614
1.54058
1.44405
1.15852
1.51305
1.58195
1.65972
1.55474
1.53788
1.47818
1.32584
1.44727
1.35548
1.88211
1.86549
1.96291
1.60817
1.72168
1.7343
1.67227
1.74698
1.63927
1.39102
1.42034
1.45788
1.33105
1.36063
1.28051
1.57627
1.4569
1.52053
1.53063
1.49491
1.40802
1.5058
1.65908
1.25342
1.30378
1.45416
1.39371
1.33254
1.39096
1.33878
1.19893
1.21914
1.26502
1.19087
1.19436
1.65706
1.64481
1.63142
1.35237
1.45751
1.4898
1.38086
1.40918
1.26697
1.21314
1.21725
1.24305
1.43595
1.60209
1.39058
1.30142
1.48226
1.24288
1.25641
1.44441
1.50483
1.30879
1.32191
1.4619
1.33059
1.41467
1.74001
1.66497
1.60894
1.46004
1.63825
1.70571
1.71741
1.62155
1.41446
1.38427
1.3564
1.28241
1.4174
1.44651
1.22043
1.29023
0.894913
0.835076
0.260294
1.8278
1.78012
1.38333
1.59479
1.67914
1.56134
1.41824
1.744
1.56002
1.79633
1.16224
1.32233
1.32816
1.56066
1.34492
1.29347
0.929689
1.00834
0.164094
1.34818
1.08948
0.960387
1.34258
1.44275
1.87954
1.67949
1.68084
1.65342
1.89939
1.47359
1.28347
1.94132
1.83898
1.57755
1.74162
2.04808
1.86235
1.77161
1.33328
1.5148
1.45088
1.58738
1.43389
1.40506
1.56496
1.39083
1.56738
1.56743
1.45562
1.41858
1.57738
1.4899
1.59571
1.35402
1.347
1.89025
1.81771
1.97027
1.6138
1.70253
1.60614
1.76129
1.76095
1.67844
1.47245
1.58795
1.60444
1.59124
1.52697
1.71209
1.67681
1.88366
1.79546
1.80519
1.7298
1.81706
1.77845
1.81355
1.82347
1.89885
1.8195
1.30322
1.2662
1.37597
1.55386
1.36076
1.45981
1.58028
1.4112
1.56707
1.92518
1.72384
1.72833
1.73714
1.71282
1.91447
1.82934
1.60762
1.68238
1.63723
2.06736
2.14807
1.8959
2.00335
1.97033
2.19161
2.07137
0.0843785
1.288
0.428609
1.63391
1.48675
1.4697
1.70319
1.57436
1.79346
1.75023
1.80962
1.71491
1.89363
2.00961
1.79227
1.81036
2.35557
2.0782
2.26679
1.61292
1.92136
2.12211
2.03133
1.86178
1.91898
1.83894
2.45497
2.5684
2.52103
2.4723
2.61131
2.41258
2.18035
2.38413
2.23516
2.02113
2.24813
2.23466
1.83287
1.59755
1.48727
1.7856
1.96963
1.87993
1.75224
1.29544
0.949136
0.133591
0.234985
0.241806
1.01019
1.2138
1.79997
1.62894
1.70462
1.63943
1.59647
1.8036
1.32561
1.4201
0.957062
1.2816
0.873826
1.46583
1.25742
1.24989
0.335846
1.51078
1.4557
1.61029
0.940762
1.26953
1.28134
1.8222
1.75046
1.81044
1.68874
1.74922
1.84395
1.67534
1.68546
1.55654
1.68259
1.76331
1.49655
1.43491
1.62715
1.42861
1.72065
1.75468
1.6826
1.46371
1.52164
1.39617
1.18562
0.379667
0.83516
1.17254
1.42259
1.27994
1.50875
1.5919
1.82467
1.5391
1.8294
1.64787
1.54375
1.23722
1.16527
1.20696
0.662637
1.67361
1.3668
1.61588
0.634859
1.19625
1.24245
1.33105
1.60571
1.59861
1.20314
1.19575
1.63457
1.35257
1.58325
1.41945
1.63638
0.677229
1.25574
1.77434
1.51367
1.56095
1.5395
1.86782
2.47173
2.49292
2.44098
1.94334
2.23616
2.07079
2.14351
2.33074
2.07332
1.93654
2.0708
1.88206
1.46402
1.37065
1.79976
1.6091
1.81667
1.71629
1.89546
2.43538
2.32008
2.19077
2.22423
2.35815
2.19908
2.03096
1.95602
2.18711
1.94531
1.91989
2.09164
1.94866
2.37459
2.30833
2.19475
2.01484
2.05941
1.98221
1.5359
1.79119
1.74644
1.66727
1.6794
1.79599
1.96857
2.06748
2.00377
1.79221
2.10266
1.83512
1.85442
1.98655
1.70043
1.74209
1.87461
1.9659
2.07016
1.7483
1.84642
1.72983
1.38011
1.66435
1.50922
1.43847
1.61421
1.8916
1.81924
1.93258
1.86873
1.86562
1.58017
1.85274
1.77958
1.65875
1.71447
1.80835
1.90696
1.80425
0.65762
1.33579
1.19969
1.26493
1.46995
1.66943
1.83873
1.78871
1.80772
1.54676
1.71961
1.56997
1.61899
1.75107
1.79719
1.52737
1.6399
1.52619
2.33412
2.04854
2.22446
2.28762
2.21669
1.29509
1.85895
1.60584
1.52635
1.77199
2.30016
2.24807
2.38106
2.08854
2.02331
2.01445
2.03507
2.14431
1.94419
2.34373
2.13212
1.96676
2.00984
2.50503
2.06946
2.29924
2.50448
2.47641
1.62317
2.04971
1.86014
1.73932
1.88106
2.26635
2.05173
2.14658
1.8041
1.66296
1.7281
1.63774
1.46725
1.63189
1.2798
1.46312
1.60022
1.62668
1.262
1.30955
1.21748
1.18261
1.16592
1.46634
1.26646
1.33325
