# vtk DataFile Version 4.2
vtk output
ASCII
DATASET POLYDATA
POINTS 642 double
-1.12087 2.41259 -0.381273
1.24618 2.48719 -0.351432
-1.47149 -1.65996 0.00745697
1.15072 -1.50415 0.0744511
-0.0344592 -0.489333 1.50095
-0.00438674 1.77484 1.34373
-0.122434 -0.506011 -0.724692
-0.237869 1.88584 -1.48078
1.49321 1.26856 -0.828495
1.25971 0.749006 0.551101
-1.5523 1.13067 -1.06531
-1.29275 0.576085 0.622088
-1.44604 1.7068 0.161107
-0.661152 1.29031 1.16078
-0.541008 2.42355 0.928011
0.56742 2.42735 0.910145
-0.00510585 2.80862 -0.183944
0.942648 2.49461 -1.05757
-0.92688 2.48095 -1.16744
-1.28349 1.65501 -1.56033
-1.91567 1.99722 -0.952093
-1.65371 0.874232 -0.279898
0.639511 1.33546 1.12305
1.52955 1.78101 0.14755
-0.631984 -0.185176 1.29205
-0.0459548 0.371422 1.49614
-1.30437 -0.70582 -0.250236
-1.37393 -0.837109 0.347739
-0.262918 1.15584 -1.47068
-1.06609 0.486493 -1.02434
2.03994 2.0495 -0.883015
1.18195 1.74596 -1.22306
1.16947 -0.704217 0.417099
0.588818 -0.203424 1.22629
0.64995 -1.34649 0.96816
-0.729726 -1.31638 0.871594
-0.00993584 -1.5585 0.0915329
-0.770692 -1.09714 -0.442703
0.566231 -1.11303 -0.402467
0.828871 0.320636 -0.828122
1.09403 -0.585461 -0.187046
1.59818 1.06942 -0.196175
-1.37502 2.13445 -0.110824
-0.953479 2.05282 0.588736
-0.782792 2.4376 0.264886
-1.00656 0.94991 0.915116
-1.02056 1.54723 0.785301
-1.3856 1.20281 0.406245
-0.210087 2.10847 1.22019
-0.654943 1.90526 1.12642
-0.301451 1.58096 1.27666
-0.327128 2.81323 0.475173
-0.605854 2.6496 -0.281053
0.215365 2.11323 1.21936
0.00381562 2.56245 1.04301
0.723819 2.64372 -0.271601
0.31844 2.69415 0.440125
0.894561 2.40988 0.173544
-0.452466 2.94852 -0.733847
-1.06383 2.52296 -0.797117
1.18558 2.58965 -0.707008
0.461584 2.94514 -0.715269
-0.663788 2.19352 -1.38973
-0.0558339 2.56974 -1.0241
0.502363 2.20578 -1.24739
-1.65232 2.61784 -1.26837
-1.60154 2.32822 -0.659341
-0.920254 1.79478 -1.56034
-1.24573 2.13301 -1.5692
-1.72041 1.49475 -1.10401
-1.90807 1.86982 -1.66314
-1.48806 1.42989 -1.3524
-1.8554 1.91513 -0.320111
-1.66303 1.00811 -0.715227
-1.81938 1.45059 -0.592053
-1.66316 1.34739 -0.115917
-1.5202 0.700115 0.192622
1.03153 2.06516 0.487402
1.49219 2.26539 -0.0666039
0.286457 1.60118 1.27658
0.62549 1.90984 1.06028
1.41819 1.30161 0.344874
1.07741 1.58744 0.690651
1.02515 1.02112 0.837174
-0.293579 0.798929 1.36558
-0.0158026 1.1962 1.34148
-1.01503 0.117128 0.967675
-0.602133 0.466049 1.28228
-0.0279593 -0.0937819 1.8267
-0.282181 0.108562 1.5558
-0.305541 -0.351841 1.52044
-1.45111 -0.299811 0.116095
-1.33642 -0.220766 0.516108
-1.41348 0.301216 -0.652772
-1.45258 -0.132011 -0.24585
-1.51414 -1.32054 0.223793
-1.38785 -0.875405 0.017195
-1.38435 -1.27109 -0.0820174
-1.20362 1.2511 -1.40139
-1.35072 0.905887 -1.1154
-0.284181 1.54822 -1.53479
-0.934523 1.44584 -1.52189
-0.672822 -0.148696 -0.846638
-0.830661 0.981739 -1.35344
-0.181253 0.542098 -1.16944
1.17736 2.15138 -1.23684
0.696236 1.84788 -1.3503
1.75224 2.5568 -0.535088
1.67013 2.63642 -1.23756
1.40855 1.53701 -1.05599
1.58918 1.96825 -1.16252
1.67011 1.63389 -0.872572
1.10665 -1.14372 0.260024
1.03319 -1.08464 0.703307
1.12477 -1.63025 0.555487
0.961332 0.163563 0.917592
0.995388 -0.534706 0.840863
1.20054 -0.0370335 0.540957
0.248428 -0.924499 1.16929
0.657684 -0.813733 1.06445
0.247723 -0.383274 1.43845
0.404946 -1.6386 0.614829
0.76578 -1.66038 0.0399491
-0.289833 -0.890496 1.17831
0.0142013 -1.30627 0.955583
-0.853823 -1.60007 0.0535199
-0.455573 -1.55557 0.572634
-1.22269 -1.65935 0.538805
0.403498 -1.40823 -0.260191
0.879343 -1.36673 -0.181368
-1.13166 -1.39998 -0.228814
-0.48807 -1.37195 -0.264654
0.258364 -0.849659 -0.575174
-0.0548214 -1.13611 -0.452223
-0.465475 -0.828873 -0.608811
0.870925 -0.951693 -0.286907
1.04009 -1.09658 -0.0197281
0.392601 -0.249726 -0.762192
0.648275 -0.692417 -0.528993
1.31003 0.540053 -0.534373
0.978689 -0.257628 -0.491925
1.25014 0.97626 -0.887653
1.15135 -0.717346 0.104185
1.60119 1.18667 -0.563046
1.34146 0.209012 -0.174425
1.30555 -0.00970312 0.168637
1.47602 0.924641 0.175883
0.200096 0.126891 1.51206
0.573444 0.515786 1.23078
0.238824 0.850911 1.35153
-1.23607 -1.1484 0.690447
-0.728785 -0.827343 1.05357
-1.12263 -0.613792 0.796083
-0.886644 -0.660425 -0.592556
-1.13427 -0.979213 -0.343518
-1.18123 -0.28783 -0.584925
1.0678 1.28066 -1.153
0.431365 0.862854 -1.24243
0.602494 1.43376 -1.37529
1.68011 1.47236 -0.0576274
1.80664 1.58304 -0.493985
2.00307 2.0191 -0.237799
-1.24047 2.30829 -0.275142
-1.07194 2.25545 0.0634698
-0.975582 2.40806 -0.141432
-1.21938 1.86697 0.357171
-1.17306 2.07962 0.232283
-1.47794 1.96084 0.0624956
-0.669588 2.46074 0.617806
-0.890734 2.271 0.459257
-0.759559 2.26063 0.787346
-1.18565 0.732902 0.748126
-1.19689 1.09048 0.687534
-1.32824 0.863362 0.538348
-0.835779 1.43713 1.00279
-1.01706 1.27597 0.858446
-0.830557 1.13142 1.05333
-1.42156 1.4605 0.281754
-1.21934 1.37969 0.588114
-1.22951 1.62481 0.479082
-0.0827765 1.9205 1.34048
-0.266617 1.86074 1.27623
-0.123475 1.70976 1.34273
-0.612811 2.18536 1.05918
-0.441467 2.03937 1.21337
-0.367809 2.28768 1.12351
-0.486529 1.44276 1.23396
-0.471573 1.74917 1.22107
-0.659414 1.604 1.13629
-1.0073 1.81283 0.70424
-0.837928 1.73081 0.967439
-0.839693 2.02382 0.923482
-0.688594 2.55622 0.0102581
-0.897602 2.51798 -0.343274
-0.433174 2.60694 0.723006
-0.599058 2.67413 0.404509
-0.335308 2.72668 -0.229222
-0.446373 2.69936 0.0929406
-0.167963 2.81832 0.137791
0.0777593 1.9226 1.34044
-0.00136444 2.13177 1.22796
0.308465 2.55618 1.03014
0.136712 2.37482 1.21031
0.394975 2.30635 1.14208
-0.133182 2.37275 1.21299
-0.294911 2.55308 1.03741
1.0604 2.53723 -0.333243
0.819648 2.53472 -0.0462315
1.12648 2.44917 -0.178346
0.165754 2.74855 0.137967
0.492692 2.66075 0.0765806
0.36578 2.71803 -0.207821
0.704243 2.43806 0.57273
0.601355 2.56132 0.349149
0.46188 2.60173 0.709377
-0.149225 2.69036 0.781785
0.163658 2.69018 0.778834
0.00840356 2.8172 0.488788
-0.82119 2.62623 -0.557771
-1.10375 2.47221 -0.554853
-0.221796 2.76733 -0.484717
-0.531654 2.77026 -0.525054
-1.01209 2.53699 -0.998707
-0.745378 2.69396 -0.762156
-0.669336 2.67445 -0.944345
1.2388 2.54458 -0.496406
0.966377 2.63214 -0.510339
0.701453 2.66836 -0.883846
0.838844 2.68194 -0.705205
1.08723 2.56865 -0.902139
0.603736 2.7609 -0.492632
0.205793 2.77033 -0.466007
-0.443106 2.01367 -1.45481
-0.123843 2.21345 -1.29613
0.115443 2.02489 -1.38314
-0.547951 2.56137 -1.10002
-0.373946 2.39954 -1.20125
-0.814179 2.35596 -1.29829
0.754458 2.35912 -1.15164
0.231007 2.39101 -1.13952
0.498679 2.5413 -1.02695
-0.0191908 2.74569 -0.687112
0.209501 2.7025 -0.866741
-0.273157 2.79219 -0.937761
-1.35713 2.42576 -0.770989
-1.31659 2.36848 -0.503474
-1.27705 2.45957 -1.22189
-1.35352 2.48019 -1.02739
-1.88435 2.28136 -0.791913
-1.64701 2.45663 -0.940337
-1.91439 2.31984 -1.12063
-0.60436 1.85231 -1.5286
-0.831142 1.99134 -1.50804
-1.30406 1.88515 -1.61207
-1.08341 1.94883 -1.57993
-1.1187 1.73163 -1.58352
-0.988476 2.16987 -1.48496
-1.12225 2.33626 -1.38909
-1.61529 1.27966 -1.09336
-1.61445 1.47938 -1.2617
-1.53309 1.26034 -1.18775
-1.91379 1.9635 -1.27999
-1.75103 1.72485 -1.32996
-1.86727 1.71351 -1.07392
-1.41435 1.56111 -1.48344
-1.61538 1.68787 -1.44922
-1.52016 1.7887 -1.5742
-1.43824 2.34406 -1.45948
-1.55 2.08282 -1.71445
-1.81793 2.27158 -1.49163
-1.52868 2.25012 -0.375918
-2.0202 1.99825 -0.621179
-1.85758 2.23677 -0.446818
-1.62783 2.03843 -0.242026
-1.64809 1.80436 -0.0973939
-1.60512 1.08537 -0.943675
-1.70099 1.27163 -0.915827
-1.73801 1.19001 -0.438112
-1.74708 1.23425 -0.666386
-1.67849 0.945324 -0.49088
-1.80234 1.48302 -0.862298
-1.91708 1.71305 -0.770366
-1.4786 0.988564 0.273606
-1.39914 0.613656 0.453389
-1.58475 1.5362 0.00952255
-1.54224 1.28574 0.130051
-1.59592 0.793012 -0.0585958
-1.60041 1.07836 0.0161265
-1.68481 1.13888 -0.214631
-1.91346 1.67895 -0.468787
-1.76434 1.40874 -0.352701
-1.73224 1.61995 -0.240619
1.20228 2.31208 0.00265024
1.34361 2.40852 -0.253497
0.772133 2.25086 0.726252
0.96666 2.25685 0.350372
1.55227 2.03392 0.05722
1.27893 2.12836 0.156386
1.33292 1.92291 0.293984
0.113431 1.71498 1.34251
0.265318 1.86987 1.27362
0.63446 1.63388 1.08777
0.46305 1.77053 1.20876
0.462978 1.47965 1.22111
0.452772 2.0497 1.20935
0.603553 2.17374 1.00636
1.33559 1.01874 0.460867
1.2449 1.17928 0.586469
1.18443 0.856908 0.657115
1.32277 1.67912 0.394843
1.29172 1.44295 0.489973
1.47906 1.53991 0.244228
0.834638 1.18013 1.00091
1.05989 1.32915 0.769021
0.84047 1.47931 0.946368
0.799606 2.00638 0.818165
0.826376 1.75031 0.889686
1.07509 1.83646 0.606089
-0.153783 1.40662 1.32018
-0.0076937 1.57563 1.34717
-0.481067 1.08657 1.2694
-0.317453 1.24634 1.30046
-0.0318506 0.740981 1.40597
-0.155982 0.984612 1.36124
-0.151625 0.539577 1.4415
-1.18791 0.368263 0.771566
-1.00724 0.540877 0.961381
-0.596564 0.117104 1.32607
-0.797472 0.304511 1.16578
-0.824778 -0.0626293 1.14522
-0.807022 0.736526 1.10906
-0.639333 0.91423 1.20592
-0.0356112 -0.371944 1.6965
-0.228548 -0.266699 1.82334
-0.149689 -0.433987 1.54484
-0.158632 0.221956 1.54615
-0.184011 0.0129728 1.71491
-0.0542031 0.110264 1.6176
-0.467611 -0.279407 1.42029
-0.303887 -0.130796 1.61073
-0.436865 -0.0184257 1.47105
-0.441725 0.622564 1.3427
-0.421831 0.250915 1.43003
-0.277633 0.379603 1.45925
-1.4225 0.194781 0.375364
-1.31491 0.25121 0.589399
-1.54184 0.297181 -0.0647574
-1.49804 0.217852 0.147128
-1.3792 -0.56651 0.440856
-1.41632 -0.292893 0.306866
-1.42211 -0.625252 0.237211
-1.51318 0.901848 -0.940239
-1.54535 0.704909 -0.715409
-1.36946 -0.486627 -0.230421
-1.4359 0.036587 -0.423795
-1.33207 -0.325759 -0.391108
-1.55709 0.544759 -0.491249
-1.56218 0.415646 -0.280322
-1.71841 -1.64367 0.144427
-1.48669 -1.33401 0.0355475
-1.60716 -1.53552 -0.129594
-1.40117 -0.882982 0.163673
-1.41967 -1.10202 0.106356
-1.40858 -1.07917 0.281658
-1.31175 -0.98016 -0.156526
-1.37866 -1.0713 -0.0276593
-1.35266 -0.815091 -0.114048
-1.45977 -0.2509 -0.0650603
-1.39867 -0.591498 -0.0832811
-1.4185 -0.636562 0.0644346
-1.4198 1.20108 -1.25468
[...]
POINT_DATA 642
SCALARS Mean_Curvature double 1
LOOKUP_TABLE default
0.165765
0.298855
2.80408
1.05059
0.973005
0.375955
0.0677117
0.923526
1.10686
0.622695
1.18021
0.70125
0.0913672
0.906654
2.08352
2.66935
1.42386
1.8496
1.38963
1.64501
-0.0319443
0.99122
0.545503
-0.16687
0.398512
1.0505
1.22277
0.334978
0.864804
0.276989
4.15175
0.74389
0.773709
0.184087
0.651786
0.281155
0.843823
0.923915
1.1887
0.482046
1.39251
1.09865
-0.0816985
-0.160913
-0.276646
0.446698
0.448608
0.651209
-0.352635
1.98796
-0.175647
3.10031
-0.0308166
-0.533598
1.60542
0.127949
0.533078
0.219435
5.70211
-0.0194696
0.60967
5.74307
0.553314
-0.311374
0.518125
5.37888
-0.460446
0.654747
1.62239
0.420749
5.95352
1.24267
2.94967
1.1131
0.633376
0.706737
0.839944
0.254
1.472
0.134295
0.698986
0.760539
0.508474
0.546538
0.777501
0.630931
0.529631
0.466098
7.53882
0.752668
1.05741
0.913178
0.669229
1.02898
1.22893
1.56982
0.914428
1.27823
1.17772
1.35348
1.04391
0.527382
0.470154
0.464669
0.105334
1.20217
0.959048
4.1438
5.3825
0.950595
0.622153
0.553605
-0.0035923
0.148522
5.72967
0.605485
0.889576
0.842123
0.784731
0.188323
0.861817
1.38482
1.66955
0.233964
1.10725
0.945751
0.677457
3.83372
1.77385
0.936004
1.55475
1.26857
0.687848
0.332867
0.771602
0.945802
0.657383
0.407152
0.895188
0.563884
1.07716
1.05622
0.839898
1.20842
1.12622
0.906042
0.921476
0.791984
0.435297
0.849651
1.90534
0.891653
0.675628
0.844143
1.10453
1.0769
0.737006
0.707546
0.933147
0.535315
0.246993
4.47208
0.117974
-0.0542816
0.0470638
0.366908
0.595596
2.80622
0.59907
0.840252
1.12506
0.528269
0.593143
0.387563
0.337685
0.641843
0.662567
0.520822
0.494109
0.386738
4.12139
0.203961
2.39949
2.25094
2.63868
0.552227
0.727903
0.801061
0.957895
0.489856
0.629783
2.57482
0.00134834
0.0553727
0.679268
3.08365
-0.38119
0.0216622
1.73359
4.10785
-1.20369
3.58682
3.54793
2.45049
3.94944
3.86146
-0.0422255
0.133911
0.227935
0.0229881
0.576361
-0.278767
1.2135
0.394794
1.93009
1.10733
1.55761
2.35654
0.729913
0.26738
-0.366082
0.815532
1.19857
1.6358
1.78975
0.486668
1.04429
1.35343
1.37031
0.810866
0.586882
-0.498238
0.820751
0.250159
0.414257
0.885298
0.250412
0.704057
0.687501
0.0819289
0.956339
-0.0720333
0.625568
3.36423
-0.275409
0.0843963
1.2894
0.471374
3.0918
1.88238
3.39896
1.11618
0.24404
1.53813
1.60259
1.62785
1.59191
1.45322
0.961782
0.792145
1.09243
1.96601
0.400817
1.75338
1.52481
1.07552
1.15333
1.24629
4.47224
3.50951
1.09062
4.14479
4.8543
-0.154037
1.33117
1.16551
1.01363
1.10396
0.91134
1.18433
0.573083
1.03821
0.47773
0.798239
0.316311
0.687663
0.317763
0.812102
0.932664
2.8259
0.971103
-0.267039
0.112781
-0.144592
1.19871
0.266105
0.324478
-0.0708765
1.06488
2.4028
0.417983
0.301637
1.48716
1.01908
3.67115
1.02748
0.783652
0.798875
0.346385
0.488091
0.5696
0.535859
0.747379
0.589494
0.535982
0.0977033
0.412902
0.799424
0.442743
1.54658
0.908055
0.522241
0.802722
0.78466
0.603471
0.634339
0.584981
0.338257
0.663993
0.62989
0.380871
0.590792
5.72607
7.93883
0.708005
1.05836
5.11253
0.60918
1.0291
0.465622
0.838051
0.558701
0.808669
0.905879
0.712658
0.644249
0.955236
0.710939
1.59439
0.764211
1.19671
1.29496
1.22481
1.17612
1.14856
1.1355
0.501365
0.993135
7.06411
0.303326
8.42752
0.678397
0.588991
0.188644
1.20794
0.87502
1.18905
1.13517
1.21707
1.03059
1.25022
1.28734
1.40037
1.31962
1.14177
1.23322
1.0599
0.745473
1.22925
0.991704
1.12933
0.961404
0.83221
1.41807
0.266999
0.0775939
0.061593
0.400616
0.0227746
0.545265
0.800805
0.574975
0.881362
1.10427
0.476386
0.813458
0.813928
1.92983
1.7713
0.237292
0.560236
0.371155
0.930486
-0.146032
1.24078
3.91461
3.60207
3.27946
0.857728
2.09181
1.00705
0.841272
1.00191
0.974059
0.85541
0.926588
-0.272534
0.494542
2.83681
0.997827
5.05079
0.933863
0.143139
1.2177
7.60479
3.03486
-0.377451
0.317877
4.81331
-0.460868
3.77963
0.718314
0.696563
0.820532
0.775334
0.579532
0.621972
0.608501
0.564906
1.6526
1.08532
0.076334
0.756073
-0.317382
0.443673
0.220227
0.820862
0.878242
0.826651
0.995181
1.00566
3.05687
-0.0288014
7.2514
5.57221
1.08245
0.593412
0.898723
0.392198
1.41404
0.494407
0.941747
0.0935731
0.827707
0.835112
1.41355
1.40286
0.645225
1.63097
0.604278
0.417668
0.764607
6.00887
2.06587
2.63727
0.878511
1.1699
0.71124
6.80479
4.97108
1.37104
1.60893
1.51987
1.53781
1.7896
7.38949
3.4457
1.14189
1.53041
1.53291
1.21644
0.765494
0.471035
0.190669
0.415988
1.23084
0.681284
0.849683
0.877279
0.762793
0.807441
1.55008
0.826156
1.65203
1.09138
0.727484
0.891772
0.954909
1.01335
0.867413
1.08613
0.341794
0.604503
0.685863
0.631325
0.415419
0.812932
0.90575
1.21906
1.05895
1.09862
1.26474
0.984762
1.11771
0.393241
0.755124
0.769039
0.934606
0.963346
1.11982
0.407927
1.13599
0.770053
0.462702
0.874607
1.16862
1.34865
0.914795
1.2525
1.2278
1.024
1.1918
0.914781
0.285793
0.781664
0.90202
1.0387
0.980777
0.609084
1.12105
1.17465
0.993382
2.54516
0.845902
0.647614
2.40667
1.00097
0.58684
0.642913
0.39467
0.580006
0.312863
0.6069
0.585008
0.787849
0.447991
0.792188
0.628577
0.62236
0.693031
5.52733
0.26048
1.77096
1.8578
0.0240433
1.32843
0.265103
0.844842
0.780074
0.722065
0.571968
0.920937
0.696708
0.486662
0.559867
0.253463
0.740322
0.683132
0.567937
0.942814
0.859715
0.660105
1.02955
1.05807
1.24411
1.19085
1.65517
0.987501
1.19631
1.11101
0.869235
1.20279
1.12724
1.05263
1.17556
1.01308
1.01237
0.386855
0.955988
0.943432
0.719011
0.0608319
0.847486
0.574399
0.0118362
0.0364396
0.82076
0.750092
0.961964
0.878766
0.886689
0.665046
0.891793
0.785056
0.886215
0.894108
0.897121
0.520752
1.0142
0.902801
2.49909
0.734999
0.695766
0.791375
0.0484361
2.66604
3.93792
1.08185
2.04332
0.32776
2.01649
4.44026
SCALARS CoVolArea double 1
LOOKUP_TABLE default
0.0399904
0.0266318
0.0456505
0.0305469
0.0255674
0.0193709
0.0691539
0.0566035
0.0167724
0.0451872
0.0196595
0.0528719
0.0822789
0.0712228
0.0779868
0.0812566
0.112637
0.0778903
0.0765615
0.0399495
0.0988092
0.0848664
0.0764101
0.0674229
0.0822735
0.0383984
0.0387881
0.0501755
0.0987665
0.0925384
0.0915045
0.0400558
0.0489431
0.0845735
0.0804675
0.0754116
0.102856
0.0433898
0.0362822
0.131606
0.0505235
0.0573331
0.0867157
0.0948102
0.100829
0.0983242
0.0840803
0.086262
0.0540733
0.0700441
0.0551864
0.105908
0.0893706
0.0561381
0.0810043
0.094276
0.104072
0.0942103
0.0995718
0.076623
0.0677468
0.116843
0.0955423
0.118369
0.106723
0.120099
0.0856789
0.0479444
0.0733558
0.0572366
0.111904
0.0396976
0.0850903
0.0717645
0.066333
0.0625359
0.107709
0.0972154
0.0767191
0.0533211
0.0690268
0.0591915
0.0890527
0.100915
0.0712417
0.0584231
0.115189
0.0884474
0.0503073
0.0428893
0.0613439
0.0849034
0.0939595
0.0894303
0.082961
0.0650946
0.033556
0.0390815
0.0373949
0.0568926
0.0900161
0.0392807
0.129054
0.0830953
0.185939
0.0522087
0.0747137
0.0897214
0.122559
0.0354204
0.0564634
0.0408545
0.0383228
0.0677117
0.0960813
0.105527
0.0696352
0.0917439
0.0624524
0.0648069
0.0606806
0.111662
0.0847502
0.0772779
0.081167
0.0915895
0.104597
0.103178
0.0620882
0.0419559
0.0550259
0.0717239
0.0558464
0.0646373
0.0613923
0.0372498
0.0321312
0.120319
0.0511617
0.0919457
0.082834
0.0685907
0.036804
0.049268
0.0902817
0.0901428
0.0705454
0.0483597
0.103173
0.0737142
0.0732025
0.0709904
0.0784475
0.0573482
0.0387453
0.0752168
0.063964
0.137222
0.0864197
0.0487248
0.0571165
0.0900531
0.0702825
0.0997553
0.0825929
0.0957518
0.0981516
0.084539
0.0871303
0.0962408
0.0834672
0.0865776
0.0925459
0.0800594
0.0735115
0.0834457
0.0827549
0.0789915
0.0872775
0.0908434
0.036821
0.0511009
0.0378467
0.0725568
0.0609298
0.0659332
0.0627394
0.0599071
0.0668431
0.0927022
0.0784785
0.0837333
0.0976272
0.0737639
0.0899446
0.0980373
0.0956555
0.101595
0.112698
0.0373467
0.0520067
0.0827196
0.0671477
0.0692267
0.06541
0.0799324
0.0579436
0.0933708
0.0611669
0.114043
0.107222
0.109112
0.091659
0.100462
0.0919832
0.0955426
0.0962209
0.110043
0.0775367
0.0630306
0.0986756
0.0834858
0.0725954
0.0781346
0.0867616
0.047132
0.0713754
0.0996054
0.0830248
0.0728764
0.0997768
0.111962
0.0890306
0.131079
0.104844
0.0983961
0.117482
0.0817395
0.0834078
0.122548
0.104214
0.109603
0.116488
0.110304
0.0761196
0.0612887
0.0829403
0.0820706
0.0984413
0.0961041
0.118449
0.0605549
0.0637204
0.0588407
0.0510964
0.0380921
0.0650165
0.0735315
0.034567
0.0441463
0.0295233
0.109816
0.0723738
0.0784362
0.0402075
0.0560905
0.069738
0.108388
0.110482
0.140965
0.0796131
0.0998857
0.0952587
0.0793701
0.0735558
0.0465375
0.0543947
0.0592177
0.060849
0.0777615
0.0667937
0.0854586
0.0858288
0.0886665
0.0691938
0.0706853
0.0969601
0.0740992
0.0637475
0.0808433
0.0624767
0.0701798
0.0797897
0.0536054
0.0889539
0.0946035
0.0759289
0.0855836
0.0853627
0.0374809
0.0507736
0.0684867
0.0583471
0.0624026
0.0612496
0.0736101
0.0568866
0.0785097
0.0792193
0.0796499
0.0751855
0.058863
0.0911936
0.0884791
0.0827426
0.0879302
0.0843618
0.0957927
0.0553893
0.0393588
0.0768193
0.0667429
0.0540079
0.063681
0.0504914
0.0942775
0.112054
0.0787232
0.106417
0.10092
0.103132
0.0872039
0.0437754
0.0572835
0.0473645
0.0361688
0.0438534
0.0353037
0.0664978
0.0520777
0.0572229
0.0785076
0.0610343
0.0532021
0.113666
0.0918395
0.111278
0.116445
0.0642565
0.0885846
0.0550875
0.055992
0.0856883
0.0518692
0.0861891
0.0650875
0.0974486
0.105825
0.0802531
0.0546485
0.0609115
0.0399394
0.0380254
0.0474919
0.0325101
0.0323869
0.0335858
0.0851654
0.0482179
0.0494633
0.0380433
0.0386358
0.0328666
0.0353401
0.0704967
0.0435059
0.0575977
0.0805096
0.0638058
0.0685624
0.0597156
0.0878102
0.0382063
0.0312245
0.12029
0.190003
0.175932
0.0880242
0.136788
0.111527
0.11711
0.137836
0.0869908
0.035564
0.0525095
0.0508386
0.0818047
0.0870698
0.0617079
0.0621935
0.0517315
0.0526355
0.04443
0.0520588
0.0732218
0.126212
0.115934
0.107597
0.0860569
0.0756195
0.0279706
0.0352034
0.0279159
0.0402708
0.0380426
0.0351553
0.058084
0.0463013
0.0811007
0.080523
0.104225
0.0587074
0.0386702
0.0646944
0.0715806
0.0551118
0.0536968
0.0390598
0.096624
0.0781772
0.0780246
0.0876561
0.091978
0.082574
0.0794923
0.0828049
0.0960875
0.0676985
0.0739969
0.061477
0.0516584
0.0626945
0.0455403
0.0657476
0.0607671
0.0607643
0.0683871
0.065923
0.0729197
0.0673373
0.0705277
0.0703675
0.0980868
0.0700067
0.102737
0.107598
0.0903923
0.102729
0.109806
0.056804
0.0743654
0.0798042
0.0806141
0.0711456
0.0702377
0.0753844
0.0714732
0.0987045
0.0796381
0.108593
0.103611
0.0982808
0.103168
0.108706
0.0926368
0.0974804
0.0986063
0.111082
0.0620552
0.0431767
0.0841844
0.0654221
0.0358659
0.0470758
0.045892
0.0615724
0.0713079
0.0543073
0.0582631
0.0454399
0.0789164
0.0912351
0.0657439
0.0683922
0.0684162
0.0490017
0.0580233
0.0410443
0.0479055
0.0626013
0.0568504
0.0801228
0.0704067
0.0651037
0.0353408
0.0311373
0.0344987
0.033805
0.0353581
0.0340372
0.0424156
0.112385
0.0684386
0.0884403
0.0694115
0.127713
0.0464182
0.0379847
0.0487045
0.0784731
0.039306
0.0640989
0.0916719
0.0821552
0.0993934
0.0970484
0.103809
0.0435058
0.0677464
0.0533687
0.0318703
0.0423539
0.0310094
0.0307917
0.0388258
0.0339483
0.0687678
0.0800566
0.0740331
0.0527649
0.0946676
0.072799
0.0966374
0.0664205
0.0612878
0.0919876
0.0620415
0.0945485
0.0892815
0.0644636
0.0897786
0.05894
0.0506763
0.067071
0.0533363
0.0427894
0.039371
0.113581
0.0969646
0.111009
0.112911
0.0919682
0.0534473
0.0524552
0.0619002
0.0642212
0.0806817
0.0738178
0.0907027
0.0608304
0.0885455
0.0830708
0.090049
0.0665427
0.0590984
0.0661047
0.0841278
0.0710177
0.0659706
0.065461
0.103718
0.0629258
0.0793498
0.0987976
0.0936644
0.073571
0.0806333
0.0703747
0.0759987
0.0430177
0.0523641
0.079553
0.0889444
0.0506707
0.0369464
0.0361089
0.0420873
0.0400521
0.0745882
0.0910448
0.0829895
0.0798609
0.0526562
0.0468399
0.0504409
0.0697443
0.0426359
0.106545
0.0620471
0.0420123
0.0461348
0.180336
0.11115
0.148089
0.162993
0.154352
0.096594
0.0586574
0.0771452
0.0949607
0.100986
0.10911
0.10377
0.0750035
0.0550206
0.0463086
0.0476895
0.0484989
0.0569957
0.0406232
0.0686032
0.0494968
0.0475641
0.0485899
0.0760945
0.0769293
0.0862701
0.0916843
0.0889539
0.0565955
0.0767074
0.0706055
SCALARS SignedDistance double 1
LOOKUP_TABLE default
1.33183
1.27556
0.010457
0.0971771
1.205
0.112653
1.96927
0.812025
1.39711
1.47209
1.4955
1.31731
0.930691
0.857193
0.00796555
-0.00592291
0.142136
1.51717
1.5272
1.46535
0.0392127
1.64984
1.02824
1.1203
1.42792
1.33969
1.31459
1.14973
1.56075
2.07304
-0.012559
1.57729
0.49893
1.4774
0.224327
1.10181
1.59054
1.52884
1.5821
1.8459
1.21608
1.41009
1.144
0.724934
0.79384
1.41479
1.18749
1.39589
0.112067
0.0729191
0.89093
0.0193463
1.23343
0.140772
0.0240027
1.32845
0.0830233
1.22793
0.0229477
1.41153
1.31872
0.01186
1.59075
1.22941
1.3369
-0.07884
0.453476
1.68237
1.30177
1.2231
-0.0568994
1.40857
0.0765398
1.52279
1.14256
1.27318
1.55108
0.75253
0.244579
0.60802
0.252777
1.23769
1.17899
1.44126
1.3311
1.20575
1.20599
1.4082
0.0448663
1.20526
1.08808
1.19379
1.14244
1.78242
1.33226
0.302526
1.205
1.19014
1.69281
1.75876
1.30101
1.8037
1.85324
1.98437
1.9654
1.50145
1.41344
-0.000230031
-0.0933792
1.40556
1.20279
1.11954
1.16596
0.266321
0.00289188
1.23758
0.774776
1.14981
1.39922
1.17942
1.31128
0.16294
0.0214188
1.67143
1.45351
0.762381
1.24753
0.0173222
1.42216
1.21966
1.12422
1.57913
1.80976
1.94053
1.76898
1.40819
1.29587
1.79044
1.55975
1.80534
1.50613
1.69646
1.15048
1.32491
1.45484
1.23753
1.5009
1.23723
1.39188
1.28683
0.0990379
1.38841
1.16279
1.60751
1.40861
1.47179
1.7434
1.81736
1.48507
1.1334
0.553264
-0.016577
1.23918
1.21658
1.26593
0.785519
0.584371
0.127348
0.0838323
0.2788
0.0915381
1.39441
1.44283
1.50433
1.0133
1.25584
1.26427
1.2172
1.31663
1.18159
0.0436107
0.24375
0.09508
0.0511178
0.0543163
0.0404834
0.493846
0.212595
0.288015
0.567467
0.305082
0.0279497
1.06419
1.37872
0.0156599
0.0274991
0.776935
0.213994
0.0386169
0.0428922
0.298711
-0.0084866
0.0159546
-0.0409083
0.0460118
-0.00508262
1.42549
1.29951
1.36392
0.485846
0.558656
1.03537
0.111139
0.275638
-0.000386898
0.0280036
0.0260287
0.0151585
1.29323
1.37759
1.10782
0.918062
1.46481
1.14687
1.17769
1.28384
1.33476
1.17926
1.17549
1.44961
1.1182
1.13171
1.3618
1.22572
1.05083
1.28984
1.34257
1.62733
1.51792
1.22387
1.20783
1.0952
0.980726
0.239129
1.18785
1.19233
1.20709
1.20431
-0.00383204
0.356698
0.0228942
1.47173
1.7052
1.32611
1.50575
1.5626
1.54619
1.38721
1.37415
1.30831
1.43704
0.014318
1.13621
0.18325
1.41304
1.19387
1.19731
1.11123
0.189194
0.0120787
0.121093
-0.0312003
0.0372757
0.28457
0.18494
1.50672
1.33742
1.36853
1.32347
1.56703
1.11087
0.0712066
1.54323
1.38425
1.137
1.3221
1.67943
1.47789
1.43635
0.0172483
1.19932
1.10497
1.28304
1.1694
0.216668
1.15321
0.429442
1.20174
0.442253
0.0904135
0.193448
0.651731
0.146442
0.389077
0.0364211
0.0635371
1.45896
1.36369
1.50269
1.13395
1.18986
1.13799
1.27438
1.29869
1.17748
0.666055
1.12787
0.669891
0.972504
0.194336
1.22912
1.16349
1.36968
1.23026
1.40893
1.20399
1.30035
1.38536
1.28427
1.32126
1.3668
1.32484
0.176378
0.0241391
1.03039
1.23548
0.261322
1.15961
1.30887
0.973926
1.26311
1.40506
1.3562
1.36755
1.22383
1.09289
1.44524
1.30571
0.421162
1.18481
0.513774
1.67699
1.79496
1.28906
1.51099
1.33841
1.8258
1.63537
-0.0801693
1.12387
0.132105
1.1849
1.24281
1.18042
1.30621
1.29212
1.23663
1.19876
1.22134
1.01616
1.54532
1.58461
1.58466
1.54914
1.952
1.69198
1.84642
1.12436
1.58409
1.70754
1.65326
1.41837
1.74643
1.65315
1.88148
1.99366
1.90696
2.03545
2.07095
1.94554
1.74875
1.94957
1.79715
1.74045
1.86746
1.85272
1.42641
0.332246
1.48905
1.63949
1.64943
1.66752
1.54079
1.10159
0.388998
-0.0150678
-0.0578771
0.0698334
1.1457
1.24244
1.3802
1.28252
1.29523
1.41657
1.326
1.47413
1.04749
1.17949
0.131642
1.238
0.125443
1.3112
0.747329
0.188373
-0.117305
0.114847
1.11245
0.990124
0.0299929
0.2301
-0.0319422
1.29545
1.18427
1.29422
1.3204
1.24816
1.32878
1.06113
1.15445
0.444437
1.46009
1.49507
1.2244
0.908838
1.23825
1.16528
1.41185
1.41184
1.34739
0.237972
0.54137
0.109348
0.0191683
-0.251281
-0.0235966
0.0133169
1.1915
0.0551626
1.3224
1.40231
1.59401
1.44388
1.6678
1.46474
1.37602
0.811255
0.0091923
0.0200582
0.0127948
1.52307
1.16318
1.42659
-0.0821127
0.0151826
0.38626
1.21805
1.5006
1.4545
0.0481119
0.168461
1.45552
0.991874
1.39576
1.22403
1.48749
-0.066302
0.451519
1.54257
1.33205
1.40711
1.34454
1.68558
1.93477
1.98013
1.91991
1.71186
1.87373
1.70563
1.62862
1.81553
1.68055
1.77127
1.77914
1.70611
1.25323
1.13957
1.50279
1.39065
1.25201
1.35081
1.30203
1.88405
1.77129
1.65255
1.67341
1.80226
1.67114
1.58466
1.51522
1.77734
1.49811
1.34806
1.56569
1.37826
1.93457
1.79785
1.67116
1.47884
1.52058
1.38415
1.23082
1.01355
1.21566
1.17892
0.713353
1.35822
1.55266
1.67312
1.62059
1.36755
1.61606
1.2488
1.37469
1.56547
1.15295
1.19708
1.44441
1.50435
1.64406
1.14263
1.30601
1.14403
0.176457
1.31931
1.16758
0.381259
1.24744
1.36889
1.32488
1.4122
1.34129
1.42697
0.805752
1.41169
1.25287
1.15147
1.20573
1.39737
1.34653
1.40036
-0.0554139
0.293566
0.0279718
0.530583
1.06566
1.4552
1.535
1.5575
1.54315
1.28629
1.1781
0.458533
1.02366
1.28216
1.40729
0.799966
1.22931
0.51243
1.78629
1.52738
1.65488
1.71837
1.6756
1.15128
1.33543
1.35112
1.33753
1.46279
1.92701
1.77563
1.93549
1.57008
1.39624
1.49108
1.4438
1.54722
1.50668
1.90888
1.68899
1.55394
1.63565
1.89959
1.63284
1.88788
1.93986
1.94064
0.855786
1.67606
1.42824
1.26368
1.4235
1.83678
1.60954
1.72342
1.33407
1.25335
1.2846
1.19016
0.456527
1.20671
0.146177
0.524708
1.10157
1.20217
0.21664
0.00146689
2.76291e-05
-0.0215115
0.0229547
0.689084
0.103236
0.061828
