# vtk DataFile Version 4.2
vtk output
ASCII
DATASET POLYDATA
POINTS 642 double
-1.0418 2.18449 -0.405174
1.19237 2.24364 -0.37373
-1.41551 -1.66192 0.00523821
1.00007 -1.4228 0.14798
-0.0390762 -0.258531 1.29915
-0.00410944 1.74473 1.33809
-0.137767 -0.218655 -0.0969364
-0.254069 1.86816 -1.37488
1.216 1.49327 -0.507098
0.919132 0.797595 0.354014
-1.11339 1.41647 -0.608718
-1.02735 0.548258 0.453541
-1.38481 1.6895 0.153643
-0.614365 1.2538 1.06614
-0.569929 2.41347 0.922336
0.603509 2.41096 0.896406
0.00463391 2.78768 -0.204909
0.982521 2.11802 -0.59679
-0.917269 2.07123 -0.764464
-1.32624 1.80898 -0.987165
-1.91401 1.97641 -0.932824
-1.05975 1.00713 -0.203742
0.595685 1.30066 1.03068
1.45898 1.76529 0.115256
-0.414249 -0.123906 0.990475
-0.0468614 0.277256 1.1486
-1.10817 -0.616141 -0.0633847
-1.27829 -0.797733 0.360093
-0.234551 1.41711 -0.934588
-0.772959 0.792347 -0.393129
2.03591 1.97907 -0.848491
1.03396 1.8106 -0.653933
1.14111 -0.661081 0.416517
0.390928 -0.163167 0.944823
0.623886 -1.278 0.956209
-0.69393 -1.20493 0.699089
0.0505792 -1.05687 0.371669
-0.687163 -0.846701 0.037231
0.467285 -0.868212 0.124963
0.540511 0.551197 -0.250266
0.934477 -0.502322 -0.0615655
1.1909 1.26047 -0.163528
-1.31011 2.05311 -0.141642
-0.938074 2.0275 0.557098
-0.756772 2.36293 0.228483
-0.767848 0.901062 0.668888
-0.895511 1.52879 0.679468
-1.06187 1.17244 0.238918
-0.210617 2.07018 1.23448
-0.659495 1.87148 1.11618
-0.285404 1.56321 1.22519
-0.334286 2.80855 0.453137
-0.527411 2.50437 -0.270924
0.214461 2.0724 1.2314
0.00440378 2.56079 1.04288
0.622719 2.4237 -0.276288
0.328694 2.6886 0.414348
0.799751 2.25272 0.118946
-0.480881 2.93301 -0.713628
-0.963842 2.14885 -0.664993
1.1129 2.18145 -0.515759
0.483303 2.93841 -0.722366
-0.636501 1.95511 -0.903957
-0.0570039 2.44607 -0.876051
0.383006 2.07678 -1.01784
-1.62453 2.24568 -1.12121
-1.55403 2.30305 -0.626773
-0.810175 1.79493 -0.859841
-1.45687 1.98945 -1.1138
-1.58574 1.53886 -0.98922
-1.83623 1.78661 -1.6059
-1.35454 1.6589 -0.951239
-1.76605 1.87252 -0.313592
-1.08632 1.25384 -0.428265
-1.6517 1.48088 -0.569171
-1.39245 1.40495 -0.166996
-1.05329 0.700761 0.0987594
1.00238 2.03079 0.458538
1.42162 2.21387 -0.0827634
0.273618 1.58073 1.23795
0.629258 1.87445 1.03479
1.21227 1.28288 0.25445
0.953232 1.57155 0.575927
0.762596 0.997625 0.575231
-0.225762 0.766335 1.08529
-0.0209131 1.19652 1.19715
-0.916781 0.138742 0.857582
-0.443281 0.451676 0.968645
0.0255164 -0.0567901 1.75099
-0.237982 0.095592 1.35523
-0.197478 -0.250251 1.32305
-1.27652 -0.241483 0.114639
-1.27383 -0.174922 0.490383
-0.927659 0.509363 -0.22015
-1.11992 -0.0212883 -0.0922096
-1.37717 -1.26827 0.247237
-1.27627 -0.825179 0.0805109
-1.21887 -1.25314 0.0520558
-0.993465 1.56749 -0.764995
-0.922146 1.23067 -0.521333
-0.257109 1.60962 -1.24713
-0.788608 1.64321 -0.828382
-0.53251 0.128127 -0.203073
-0.640056 1.28697 -0.689054
-0.195049 0.81865 -0.509316
1.12335 2.00827 -0.650218
0.413707 1.82681 -0.970317
1.69801 2.54116 -0.479154
1.64763 2.29999 -0.901944
1.23341 1.67986 -0.648392
1.53723 1.98708 -0.8973
1.55709 1.65711 -0.749789
1.00776 -1.11042 0.305096
1.02738 -1.04563 0.713458
1.13978 -1.61264 0.54674
0.852268 0.196121 0.812007
0.91567 -0.501155 0.762741
1.14595 0.0171989 0.508854
0.222973 -0.75805 0.866742
0.60406 -0.75078 0.954341
0.0929855 -0.237365 1.23036
0.376495 -1.5393 0.578522
0.720437 -1.65659 0.054378
-0.194511 -0.673392 0.808027
0.0602692 -1.0273 0.654697
-0.875414 -1.44478 0.152899
-0.509555 -1.14827 0.486302
-1.2063 -1.66032 0.536416
0.401121 -1.06724 0.232214
0.767602 -1.30717 0.123663
-1.05339 -1.2968 -0.033973
-0.49404 -0.98691 0.19243
0.161631 -0.556513 0.0198388
-0.0765566 -0.782044 0.132933
-0.399781 -0.533291 -0.00451379
0.696513 -0.810366 0.0403987
0.878539 -1.06875 0.159713
0.231448 -0.00181017 -0.14446
0.474999 -0.477736 -0.0231254
0.822019 0.711449 -0.142104
0.702086 -0.0889692 -0.0768525
0.829079 1.22223 -0.379639
1.06605 -0.660492 0.131008
1.26297 1.40373 -0.386333
0.937006 0.320313 0.00521564
1.1454 0.0578611 0.159701
1.02775 1.02434 0.0903801
0.115311 0.0931458 1.26464
0.414342 0.512508 0.955542
0.185458 0.837032 1.08535
-1.21539 -1.09939 0.69855
-0.619232 -0.717254 0.719801
-1.02646 -0.566272 0.699588
-0.723612 -0.427206 -0.0613374
-0.957462 -0.847377 -0.0621394
-0.876602 -0.0799462 -0.130651
0.779373 1.50222 -0.591465
0.2373 1.14889 -0.636338
0.35109 1.59159 -0.912524
1.53741 1.49466 -0.0706434
1.74591 1.55429 -0.47834
1.9972 1.98756 -0.204125
-1.1725 2.14339 -0.308449
-1.00234 2.13904 0.0207396
-0.892242 2.23689 -0.17552
-1.18038 1.85521 0.339064
-1.1368 2.04819 0.210172
-1.43685 1.94977 0.0693913
-0.688258 2.44042 0.595966
-0.892789 2.24395 0.427545
-0.769229 2.23857 0.763883
-0.921378 0.673189 0.528093
-0.904102 1.03434 0.470372
-0.981189 0.809313 0.347401
-0.77774 1.40369 0.923831
-0.849483 1.23539 0.697805
-0.664424 1.10514 0.849819
-1.25759 1.43454 0.202569
-0.993118 1.35245 0.424118
-1.13056 1.60924 0.408677
-0.0819952 1.8824 1.33933
-0.256483 1.82943 1.27001
-0.121493 1.68418 1.33772
-0.6226 2.15823 1.04711
-0.436243 2.00505 1.21164
-0.380877 2.25987 1.13153
-0.474246 1.41166 1.20963
-0.461155 1.71853 1.21058
-0.654174 1.56899 1.11288
-0.995957 1.79303 0.66964
-0.842899 1.69565 0.946216
-0.868405 2.00264 0.911222
-0.642164 2.45204 -0.0112826
-0.798652 2.2943 -0.346794
-0.451223 2.60389 0.712012
-0.626334 2.64419 0.367529
-0.31316 2.68982 -0.236808
-0.453491 2.68379 0.0606128
-0.161207 2.81593 0.107554
0.0766781 1.88397 1.33937
-0.00131232 2.08628 1.2269
0.32336 2.55524 1.02936
0.136531 2.33492 1.2122
0.42043 2.28206 1.17077
-0.134472 2.33006 1.21216
-0.310864 2.55022 1.03922
0.970442 2.26039 -0.355786
0.715078 2.3412 -0.0734509
1.05709 2.22089 -0.235647
0.160307 2.71012 0.114723
0.470843 2.58553 0.0520363
0.318936 2.59434 -0.221718
0.727743 2.41509 0.536998
0.607959 2.53748 0.311537
0.485533 2.60852 0.684388
-0.151131 2.68957 0.769512
0.169322 2.68975 0.761105
0.017942 2.81664 0.466511
-0.693318 2.36247 -0.528072
-1.01472 2.17995 -0.539478
-0.181755 2.68903 -0.470151
-0.432064 2.594 -0.521736
-0.942484 2.11094 -0.725212
-0.592335 2.45232 -0.668618
-0.529669 2.42891 -0.724131
1.16297 2.21896 -0.463071
0.834308 2.31217 -0.471533
0.58175 2.43989 -0.664404
0.605436 2.43151 -0.601243
1.0657 2.15728 -0.554483
0.513481 2.54997 -0.49111
0.178451 2.68837 -0.459536
-0.350959 1.88848 -1.10177
-0.114091 2.08589 -1.10801
0.0621061 2.02555 -1.29275
-0.431405 2.34649 -0.821379
-0.332086 2.22453 -0.952831
-0.843998 2.01498 -0.810995
0.665789 2.11343 -0.731206
0.215396 2.30056 -1.02848
0.416617 2.3533 -0.783722
-0.0133521 2.67662 -0.655778
0.151994 2.57307 -0.747388
-0.221141 2.63308 -0.860074
-1.31636 2.29048 -0.730222
-1.24988 2.20358 -0.497113
-1.35204 2.16021 -0.98212
-1.35115 2.25713 -0.950039
-1.87935 2.28544 -0.769203
-1.60523 2.32187 -0.912849
-1.91079 2.31532 -1.0872
-0.422031 1.79095 -1.05422
-0.760272 1.856 -0.876158
-1.46627 1.94718 -1.12399
-1.14053 1.87618 -0.892579
-1.14853 1.82059 -0.889057
-1.07203 1.92985 -0.867997
-1.26553 2.04028 -0.949138
-1.34615 1.54607 -0.787389
-1.4604 1.58096 -1.0596
-1.28552 1.57 -0.790027
-1.91326 1.94055 -1.2267
-1.67784 1.7876 -1.1784
-1.85318 1.68594 -1.04592
-1.3641 1.76003 -1.0006
-1.55996 1.81037 -1.18548
-1.52484 1.88615 -1.2176
-1.51698 2.12639 -1.20686
-1.52411 2.03 -1.40081
-1.79303 2.28241 -1.47407
-1.45346 2.24792 -0.332088
-2.01171 1.96132 -0.595401
-1.7877 2.20695 -0.418728
-1.57856 2.01952 -0.208381
-1.61124 1.78404 -0.0731564
-1.09903 1.36402 -0.544422
-1.39254 1.51265 -0.712698
-1.32568 1.38746 -0.406695
-1.38734 1.44934 -0.560057
-1.07454 1.14635 -0.323651
-1.65228 1.53777 -0.798889
-1.90523 1.66309 -0.756378
-1.05493 0.979026 0.128085
-1.04837 0.579276 0.313452
-1.46178 1.5232 -0.0176757
-1.24278 1.29772 0.0293032
-1.04837 0.860196 -0.0723658
-1.14608 1.13575 -0.0661322
-1.23819 1.27055 -0.238575
-1.7803 1.66656 -0.466704
-1.53588 1.48878 -0.372775
-1.64318 1.60507 -0.234448
1.13905 2.14913 -0.0703675
1.29617 2.27677 -0.282058
0.767449 2.20725 0.687544
0.890383 2.14555 0.294026
1.48615 2.00156 0.0533919
1.2201 2.03569 0.085947
1.2948 1.90608 0.278568
0.110714 1.68873 1.33773
0.25594 1.83524 1.27118
0.620549 1.60194 1.04612
0.460129 1.73442 1.20272
0.461348 1.44491 1.20103
0.453437 2.00637 1.20772
0.632557 2.14274 0.997909
0.98506 1.04228 0.280221
0.967026 1.16302 0.383973
0.871597 0.848309 0.419916
1.21683 1.66495 0.320958
1.14229 1.41621 0.388834
1.38742 1.51429 0.222189
0.668008 1.16214 0.800234
0.851402 1.31645 0.571881
0.765177 1.45211 0.846147
0.767601 1.97279 0.765179
0.766236 1.72265 0.813707
1.03769 1.8204 0.572181
-0.142413 1.39972 1.22326
-0.00744783 1.56062 1.33729
-0.394182 1.07321 1.06019
-0.295754 1.22356 1.20969
-0.0397309 0.659128 1.08836
-0.145507 0.960677 1.20913
-0.116269 0.425657 1.06524
-1.06126 0.389502 0.659344
-0.837415 0.521961 0.749045
-0.401937 0.108034 1.0165
-0.663838 0.306295 0.954592
-0.64958 -0.0217124 0.883168
-0.642497 0.715591 0.854808
-0.504819 0.905844 0.956109
-0.00834489 -0.329213 1.51308
-0.261289 -0.273602 1.6953
-0.107127 -0.256321 1.33635
-0.139939 0.135455 1.32654
-0.169882 0.0112488 1.5187
-0.0461394 0.077665 1.43895
-0.263599 -0.185198 1.17661
-0.254781 -0.0945314 1.41704
-0.266533 -0.0148656 1.21493
-0.314176 0.601226 1.01734
-0.26177 0.212499 1.10287
-0.18743 0.309706 1.09803
-1.27199 0.249805 0.314443
-1.24724 0.306284 0.541697
-1.10028 0.392568 -0.00684103
-1.19598 0.274376 0.122774
-1.31322 -0.519406 0.434989
-1.27332 -0.241885 0.287248
-1.40111 -0.582399 0.238267
-0.972899 1.14794 -0.444599
-0.966779 0.897762 -0.296597
-1.15803 -0.406905 -0.0877708
-1.02968 0.20772 -0.153863
-1.07885 -0.215591 -0.186666
-0.992437 0.706101 -0.196951
-1.03315 0.52576 -0.0986565
-1.40236 -1.49216 0.139352
-1.33337 -1.2831 0.11116
-1.51573 -1.45045 -0.13948
-1.27645 -0.831261 0.197576
-1.2335 -1.06054 0.196881
-1.27301 -1.04514 0.307111
-1.11096 -0.987078 0.0678055
-1.1808 -1.03828 0.134841
-1.23289 -0.773522 -0.0487565
-1.27522 -0.183037 -0.024941
-1.26035 -0.523866 -0.0228856
[...]
POINT_DATA 642
SCALARS Mean_Curvature double 1
LOOKUP_TABLE default
-0.718561
-0.394037
11.1147
1.60268
-1.44818
-0.0364963
0.14304
8.69026
-0.4343
-0.766224
-0.243181
-0.626212
1.63352
3.23175
2.48942
2.76621
2.90256
0.082549
0.310364
-0.0343363
0.0100322
0.431597
2.61313
-1.64826
-0.798173
-0.936941
-1.44888
-1.03648
0.419564
0.0823405
4.92205
0.415441
3.06001
-0.7306
3.76934
1.19634
0.359738
-0.366369
-0.525245
0.0140796
1.2639
-0.301309
-1.39635
-0.725333
-0.787165
-1.01536
-1.26586
-0.280712
0.482349
2.00927
-1.40852
2.9925
-0.728062
-0.102981
1.86125
-0.529927
0.942675
-1.22412
6.21312
0.330976
0.603205
6.05853
0.324041
-0.83407
2.22538
1.08597
1.4654
0.12598
-0.642347
4.83106
6.1833
-0.214339
2.25791
0.374995
5.14534
0.949534
-0.15194
1.81312
2.76144
-0.706474
1.27689
3.58204
-0.455243
-0.924553
-0.553892
0.454327
2.924
-1.08495
7.76847
9.37818
8.08025
-1.0757
3.34968
0.122032
-0.479775
3.70784
4.30828
-2.09291
0.691823
0.358061
4.21714
0.299534
0.0947928
0.304064
0.219278
0.419006
0.211819
6.24141
2.29804
-0.0978878
4.53651
3.31795
1.10631
1.02365
5.76528
3.89751
1.56418
4.40642
-0.13894
2.2258
2.60984
5.6458
6.36066
-0.466053
-0.236557
2.68545
-0.224727
4.02728
-0.337315
-1.31925
3.13191
0.0526594
0.351047
-0.376126
0.154056
-0.795314
-1.82524
0.0414479
-0.197687
-0.152208
-0.0680808
-0.0525658
-3.07454
0.219686
-0.540317
7.66639
-0.471887
5.11451
0.542733
0.52111
3.77907
-0.501659
1.86568
-0.195346
3.1474
-0.526591
0.057728
0.256403
0.280495
-0.112525
2.11539
4.46102
-1.08913
-1.36721
-0.456797
1.49133
1.55019
4.26968
0.831351
1.92866
0.870347
-0.493601
-0.898455
-0.492801
1.55632
1.10447
-1.14493
1.85586
-1.25217
0.84293
4.49718
0.0925771
3.8277
1.80833
2.46876
0.824593
3.137
1.34384
1.88136
2.09442
2.18023
3.48555
-0.382219
-0.744625
0.910432
3.39051
1.07991
1.35703
2.23205
4.45476
-1.91299
3.40152
2.74873
3.32712
3.15458
3.86518
-0.45516
-0.88955
-0.588224
-0.209191
1.24793
-1.14651
2.42579
1.82028
2.32147
1.03623
1.36469
2.5035
-0.652354
-0.246211
-0.192304
-1.1342
0.430773
6.75154
-0.0860161
0.155074
-0.339519
4.20911
1.23704
0.742036
0.758971
-0.0399603
-0.013516
-0.690564
2.64638
-0.530063
1.21742
0.0334783
-0.262319
3.69103
-0.574693
2.80474
0.281304
4.69376
3.06971
-1.33857
-0.420147
7.21132
4.17087
2.53582
5.70615
0.341517
0.290865
-0.771963
0.273605
0.315571
0.50209
-0.347958
1.73018
9.73145
0.75223
3.17004
0.185287
5.1028
0.385657
3.91312
1.95235
2.91654
6.78308
6.01958
4.53067
4.59875
4.24234
0.954772
3.41192
0.224023
0.759276
-0.0255734
1.20553
0.552243
1.09517
4.08456
-0.473042
-0.745859
2.56498
0.65372
-0.287635
-0.0534586
0.359076
1.56872
0.32585
3.05141
-0.887506
1.68249
0.867118
-1.43512
0.633281
-1.41304
4.08921
3.6349
0.464032
1.03227
2.3886
3.76998
3.14852
1.85802
-0.763734
-0.394302
-0.708918
-1.28767
1.70727
3.6348
-0.0898674
-1.29682
1.84988
-0.679375
-0.41655
3.05062
-1.45108
5.52573
-1.85241
2.75892
-1.30266
7.16255
-1.26537
2.02984
0.220149
-1.07156
2.41787
-0.44605
0.576877
0.235941
8.09116
7.82443
-1.2404
1.63639
4.78206
4.43056
0.306156
4.44982
-1.11596
-1.16716
-0.440971
0.0456076
3.29038
5.03489
-0.518831
2.32169
1.99276
-0.770361
5.76805
0.178517
-0.0757659
-0.291804
-0.414068
13.5719
0.0261091
-0.0967111
0.350262
3.76094
8.86794
-0.811918
-0.306103
0.75375
-1.5307
-1.20146
11.2014
10.2868
1.12749
4.55144
0.392705
0.283687
0.418625
0.334983
0.262023
0.476324
0.295013
5.18567
0.471324
0.608363
0.687604
0.415604
0.293842
0.651155
0.0960175
0.181317
0.202095
0.281567
0.248834
0.124954
0.132936
0.279687
0.139225
0.71364
0.24337
0.312192
0.00180437
6.56086
0.456558
0.0255425
0.0280309
0.0244421
0.2859
-1.07273
9.01448
6.10162
3.42069
3.5736
-0.169652
0.770064
1.39815
3.73617
6.69749
-0.188119
0.464277
-0.00617653
1.66849
-0.513061
5.69501
-0.649534
7.67067
-0.770813
-1.29804
4.41885
8.73523
5.52228
-2.1727
-0.59797
5.24203
-0.429695
4.66065
2.27962
1.56704
3.81019
-1.14361
-1.02163
-0.542865
-0.392048
3.05016
-0.348034
0.26669
-0.0602579
1.12581
0.469943
0.378133
4.11371
-0.51522
-0.202706
-0.606539
2.82523
3.12988
4.26638
3.26266
-0.640817
2.81817
2.58256
0.104611
4.2393
-0.0610709
0.0756202
-0.124647
0.0322093
-0.627955
-0.273801
-0.348437
2.33764
5.87366
2.81374
4.53084
0.0707829
-0.339163
-0.241542
5.8151
5.15796
5.45961
-0.179322
0.0721928
0.30344
9.62723
12.6291
0.0380962
4.87063
-0.955673
3.03299
-0.113908
0.945339
8.16304
0.550487
-1.40718
1.71065
1.56753
0.503419
0.130766
-0.170978
0.14569
0.185355
0.397086
0.123598
-0.0971988
0.289811
0.101958
-0.122794
0.424289
0.339613
-1.331
-1.63819
-0.626102
-0.960063
-1.85053
6.48245
6.95299
0.142259
0.357906
-0.195335
0.28935
0.0267617
0.0727206
-0.219342
0.0419778
-0.124247
0.0993355
0.449415
-0.411775
0.835646
0.0724518
-0.0560188
-0.289949
-0.554654
1.0949
2.11973
2.28261
9.32024
6.96024
-1.32225
5.93235
1.9399
-0.0421087
-0.48244
-0.250556
2.20369
-0.345476
6.25495
-0.0129861
-0.672847
0.399454
0.653414
-0.513254
-0.364508
-0.147639
7.64114
0.615087
0.951502
7.1465
-0.998854
1.60161
6.76414
-0.778613
-0.496372
0.0650264
-1.28647
-0.720315
-0.649457
-1.52731
-1.20165
-2.42682
4.0231
-0.302266
-1.18176
3.38781
-1.05141
6.60246
2.7663
3.05602
-1.75547
1.92657
0.0713613
-0.427635
-0.193174
-0.0875474
-0.766258
1.85133
4.47201
1.06013
-0.912516
-1.02391
4.04054
-0.96522
1.70017
0.196996
-0.593744
-0.122558
-0.117544
-0.174545
8.25913
4.85121
-1.12157
-1.20947
6.75299
0.0722271
-0.075035
0.03995
-0.51734
-1.29711
2.08704
-1.03213
-0.243546
0.160204
0.105626
0.0149898
0.418192
0.318263
0.287835
0.313875
0.218225
0.12718
0.169119
5.15401
0.00361076
0.709515
3.77633
-0.0390017
0.1863
0.281953
-0.00569173
-0.65982
-0.163584
4.58777
2.4327
3.95042
-0.513434
0.899681
6.40801
7.83741
2.00351
0.640586
3.97214
4.32312
2.2945
2.80289
2.10336
2.70046
4.11116
SCALARS CoVolArea double 1
LOOKUP_TABLE default
0.0336474
0.0214321
0.0385045
0.0113036
0.0164668
0.0177094
0.0432199
0.0535044
0.0149335
0.0270021
0.0130116
0.0387665
0.078521
0.068857
0.0839215
0.0931506
0.102632
0.0559357
0.0485984
0.0217689
0.100641
0.0476262
0.0732704
0.0626824
0.0677821
0.0324747
0.0360727
0.0487111
0.0675537
0.0495474
0.106802
0.030237
0.048865
0.0709041
0.0786354
0.0676143
0.0532372
0.0348985
0.0289936
0.0934411
0.0463007
0.0428748
0.0783542
0.0896714
0.0975951
0.0829849
0.0848212
0.0737636
0.0533825
0.0747515
0.0533279
0.11594
0.0856368
0.057049
0.0910739
0.0844622
0.105904
0.0915722
0.108716
0.0548235
0.0386706
0.117847
0.0708507
0.0926126
0.0850567
0.064936
0.0844141
0.0259047
0.0303762
0.0515118
0.110339
0.0287371
0.0830794
0.0402315
0.059463
0.0543387
0.0734635
0.0881444
0.0688144
0.052001
0.0703105
0.0489654
0.084598
0.0854785
0.0603389
0.0597181
0.101053
0.0777347
0.070689
0.0325062
0.0421904
0.0715168
0.0871742
0.0493902
0.0522039
0.0491033
0.0296446
0.0291831
0.0203468
0.0265594
0.063006
0.0285729
0.0926984
0.0609635
0.133686
0.0284676
0.0607103
0.0831903
0.0555114
0.0256522
0.0390392
0.0344296
0.0332543
0.0660713
0.105647
0.0971226
0.0628582
0.0840506
0.0510099
0.0648622
0.0373076
0.0984618
0.0743207
0.0609378
0.0515702
0.0723935
0.0623586
0.116046
0.0329498
0.0287981
0.036082
0.0436559
0.04
0.0423586
0.0430218
0.0305109
0.0249476
0.0893408
0.0367937
0.0500819
0.0551765
0.0389719
0.0368134
0.041314
0.0552645
0.0702676
0.0453031
0.0348971
0.0898334
0.0616074
0.0678788
0.0663018
0.0744678
0.0403627
0.0261897
0.0385915
0.0480648
0.105901
0.0596628
0.0450798
0.0546026
0.105261
0.0603704
0.0903715
0.075281
0.0864415
0.0890649
0.0795795
0.0896607
0.091596
0.0852365
0.0661338
0.079943
0.0586976
0.0734672
0.080983
0.0749185
0.0751161
0.0856342
0.086896
0.0345555
0.0485927
0.0359073
0.0775776
0.0625735
0.0714279
0.0632722
0.0607203
0.0685861
0.0894505
0.0811796
0.0878706
0.0943832
0.0673575
0.0982736
0.104545
0.0891759
0.104536
0.114616
0.0349756
0.0514965
0.0966687
0.0746652
0.0804568
0.0713527
0.0898791
0.0491947
0.0870476
0.0560216
0.11238
0.101865
0.0997784
0.0967689
0.100801
0.101463
0.102926
0.102862
0.114583
0.0663081
0.05039
0.090807
0.0820286
0.0380887
0.0567864
0.0703127
0.0309467
0.0511064
0.0828877
0.0469686
0.0348852
0.0911126
0.106175
0.0661886
0.104941
0.0921171
0.0775748
0.103059
0.0619081
0.068647
0.110867
0.0943546
0.100863
0.101327
0.0939567
0.0661629
0.0547351
0.0421845
0.0533308
0.104303
0.0726297
0.104176
0.0347784
0.0345122
0.0237327
0.0233919
0.0235217
0.0377415
0.0424738
0.0265869
0.0361888
0.0224718
0.116246
0.0646788
0.0754841
0.0208026
0.0383675
0.0416845
0.0541663
0.0721335
0.125812
0.076784
0.111048
0.103185
0.076608
0.0700625
0.0287073
0.0429008
0.0467451
0.0481415
0.0422828
0.0618642
0.0882212
0.0631795
0.0652448
0.0644911
0.0604377
0.0583542
0.0549121
0.0490977
0.0763735
0.0535428
0.0620957
0.0713687
0.0458682
0.0872673
0.0901927
0.0714949
0.0761581
0.07671
0.0349562
0.0487722
0.0687709
0.0597757
0.0633777
0.0651054
0.0787979
0.0360142
0.0640013
0.0544907
0.0763926
0.0705778
0.0553696
0.0848514
0.0835348
0.0795808
0.0816224
0.0795516
0.0873925
0.0526632
0.0381951
0.0690419
0.0633574
0.0517504
0.0621631
0.043472
0.0804503
0.0915922
0.0679418
0.0940579
0.0892781
0.0871781
0.0748053
0.0493123
0.0706244
0.0358278
0.0299011
0.0468897
0.0366347
0.0487291
0.0423855
0.0444963
0.0619051
0.0483434
0.0381746
0.0963001
0.0839002
0.0659501
0.0843349
0.0629543
0.0817897
0.0574589
0.0266231
0.0397803
0.0385377
0.0455594
0.0523678
0.04213
0.0547026
0.0545641
0.0386741
0.0534402
0.0358662
0.0269099
0.0388643
0.0299036
0.0260833
0.0358628
0.062792
0.0412536
0.0441055
0.0251685
0.0214972
0.015924
0.0198457
0.0315322
0.0245713
0.0328171
0.0635373
0.0350618
0.0452066
0.0363697
0.0589152
0.0263084
0.0200924
0.0822842
0.131856
0.118164
0.0582509
0.0966622
0.0732872
0.0868504
0.0989453
0.0619772
0.0210021
0.0372261
0.0333941
0.0634998
0.0891946
0.0329485
0.0418902
0.0402995
0.0372169
0.0326318
0.0467418
0.0589655
0.111349
0.0767927
0.109049
0.0453334
0.0354812
0.0224935
0.0279938
0.0204595
0.0290726
0.0285659
0.0243923
0.0544715
0.0379214
0.0801845
0.0354679
0.0608487
0.0320906
0.0286594
0.062703
0.0539049
0.0561837
0.049233
0.0394533
0.103718
0.0806496
0.0831909
0.0674395
0.0839178
0.0620421
0.0731379
0.0775145
0.0889568
0.0629374
0.0665366
0.0568972
0.0368354
0.0442653
0.0274157
0.0665101
0.055817
0.0569657
0.0510195
0.0551142
0.0656199
0.064562
0.0671332
0.0698527
0.0861472
0.0366032
0.0908185
0.108775
0.0684747
0.104058
0.0716997
0.0396891
0.0562514
0.0479413
0.0597376
0.0596662
0.0565374
0.0615075
0.0605386
0.0998353
0.0710661
0.049301
0.0794519
0.056832
0.109059
0.109514
0.066821
0.0713722
0.0530822
0.0620671
0.0459572
0.0224238
0.0484839
0.0448087
0.0273115
0.0284476
0.0326969
0.0466999
0.0528145
0.036943
0.0382433
0.0334137
0.0516237
0.053942
0.0444085
0.0467862
0.0461009
0.0357313
0.0411792
0.0310138
0.0343332
0.0429276
0.0382661
0.0434811
0.0419067
0.0383707
0.0220575
0.0167292
0.0257289
0.0249524
0.033504
0.030803
0.0377279
0.0770541
0.0495188
0.0631923
0.051011
0.0952467
0.0338401
0.0279047
0.0312872
0.04098
0.0266899
0.0492087
0.0542362
0.0582981
0.0626083
0.0521023
0.0678745
0.0316181
0.0484178
0.0418404
0.0235592
0.0425254
0.0273825
0.0289748
0.0388064
0.0274811
0.0438507
0.0517364
0.0470007
0.0427812
0.0521917
0.0590098
0.0681407
0.0410036
0.0558571
0.0803774
0.0427814
0.0599153
0.0540893
0.0578601
0.064333
0.0541867
0.0423725
0.0524302
0.0356205
0.03949
0.0290246
0.0924195
0.0838153
0.0970113
0.101002
0.0797841
0.0522331
0.0412588
0.0598494
0.0610643
0.0705355
0.0597463
0.0718065
0.0435303
0.0872175
0.08445
0.0970471
0.0641767
0.0531267
0.0439878
0.073496
0.055869
0.0584701
0.0631845
0.0949026
0.0591316
0.0726869
0.0899655
0.0855628
0.067552
0.0751518
0.0649796
0.0559165
0.0327687
0.0392673
0.0566269
0.0533412
0.0332066
0.0283456
0.0209955
0.0261647
0.0316517
0.0315979
0.0427026
0.0311817
0.0482206
0.0424804
0.0328655
0.0349675
0.0421058
0.0290883
0.0802333
0.0426011
0.0283853
0.0324337
0.131114
0.0815038
0.113014
0.124241
0.118468
0.0901148
0.044209
0.0565788
0.0715896
0.0692729
0.0859295
0.0749082
0.0563812
0.0403127
0.0418432
0.0413446
0.0429284
0.0539254
0.0345234
0.0662051
0.047125
0.0450714
0.0433834
0.0724748
0.0851153
0.0949596
0.0977704
0.0935156
0.0537489
0.078261
0.0760872
SCALARS SignedDistance double 1
LOOKUP_TABLE default
1.16864
1.11248
0.0442971
-0.316792
0.146161
-0.000415294
1.33317
0.113235
0.755739
1.21792
1.20662
0.171342
-0.0105495
0.00917483
-0.0362283
-0.0224495
0.0328121
1.3221
1.28887
1.1304
0.00315546
1.33286
0.0459139
0.733969
1.2177
0.366185
0.0598933
0.00902691
1.21997
1.4218
-0.0105991
1.2363
0.0146858
1.23602
0.0179536
0.0693759
1.36506
0.620452
1.11997
1.25678
0.0262502
0.451608
0.0981689
-0.0214711
0.0611441
1.1568
0.0757008
1.15853
-0.0368314
0.0131536
0.00455332
0.0159775
1.1077
-0.0382324
-0.00535758
1.1597
-0.0115661
0.645188
-0.284812
1.25932
1.19346
-0.0939098
1.29986
0.045823
0.0714971
-1.01287
-0.0156694
1.42754
0.643898
0.0681925
0.204518
0.889905
0.14702
1.20878
-0.135588
0.162884
1.25772
-0.0104558
0.138011
0.0120141
0.0065359
0.0535589
0.0341152
1.16798
0.0471538
0.0141335
0.000776715
0.260211
0.0696831
0.0867546
0.0463544
-0.0110571
-0.00431882
1.29741
0.551295
0.23744
0.0320474
0.461887
1.28774
1.29467
0.0998712
1.41537
1.2139
1.32912
1.26468
1.20554
0.701347
0.0408791
-1.01289
0.808878
0.0190441
0.0526272
-0.0332195
-0.0171566
0.0142319
-0.014647
0.157721
-0.00502732
1.24024
-0.0041518
0.103117
0.179461
-0.0393292
1.50864
1.345
0.0928606
1.1655
0.0166159
1.02282
0.386761
0.126843
0.885086
1.359
1.52871
1.31518
0.285606
0.453259
1.1976
0.851531
1.32375
0.331237
1.24169
0.162772
0.212793
0.68504
-0.0140333
1.30553
0.10054
0.0136905
0.014289
0.00165929
0.898448
0.00861427
0.860026
0.0350287
1.13096
1.3238
1.26305
1.16366
-0.0599859
0.0133994
0.00926107
0.66241
1.10958
0.451279
0.00573904
-0.00111146
0.0552805
-0.00903544
0.0221133
0.0112462
0.239531
1.20323
1.19463
0.00794448
0.0303073
0.310158
-0.0230519
1.05953
0.00195457
0.0202506
-0.00674831
-0.00652152
0.0324422
0.0193713
-0.0122613
-0.0110454
0.00282644
0.0193085
-0.0178542
-0.0306095
-0.0267699
0.110476
1.1851
-0.0161708
0.0159279
0.00969058
-0.0193964
-0.00782767
0.0210235
-0.0333564
0.00335093
0.0309906
-0.132523
0.0301864
-0.0119467
1.30744
0.935468
1.23456
0.00300134
0.0634093
0.134105
-0.01486
-0.00074428
-0.0311636
0.0120304
0.00804006
0.00381804
1.21585
1.21463
-0.00113542
0.691257
1.26272
0.241555
0.817238
1.08955
1.32261
0.2633
0.576909
1.24032
0.253858
-0.00135325
0.725979
0.0883467
-0.20653
0.979989
0.0903295
1.36578
1.24559
-0.00458135
0.688533
-0.0323123
0.00995138
0.178454
0.0448801
0.482056
0.360622
-0.019228
-0.00805949
0.094484
-0.034883
1.07137
1.39956
0.769397
1.2165
1.22082
1.23379
0.946506
0.17825
-0.0315771
0.461404
0.00352667
0.177172
0.00388308
0.769126
0.190288
0.205007
0.255392
0.222634
-0.357096
0.0286835
0.0604793
0.0781454
0.0180812
0.0296668
1.2088
0.270573
0.634697
0.48845
1.23919
0.0813071
-0.132795
1.31664
0.553296
0.0496461
0.136574
1.41179
1.20871
0.499561
-1.01336
-0.0253153
-0.0307151
1.15539
0.118921
0.0672005
0.175963
0.0221936
0.692707
0.0126784
-0.00627066
-0.00558331
-0.000458514
-0.00117193
-0.0126388
0.0124449
-0.0438882
1.27952
1.17465
1.21771
0.0707607
-0.0552454
-0.232721
0.162556
0.426385
0.0364824
0.0505131
0.0435628
0.00731252
0.00926293
-0.0134624
0.485554
-0.00999862
0.111015
-0.00292045
0.866617
0.0483721
0.0530588
1.13403
-0.000805085
0.338525
0.117609
0.0191268
0.17926
0.158703
0.102019
0.136334
0.0722322
-0.280477
0.206791
0.0510136
0.259955
0.597805
0.263003
0.132862
-0.0327422
-0.0710686
1.13984
0.157058
0.0716172
-0.0187688
-0.00291127
1.30427
1.42601
-0.000550402
1.1613
0.0455377
1.41361
1.25638
-1
0.113468
0.0839554
0.027683
-0.013236
-0.0202891
0.254301
0.249105
0.0103371
0.019082
0.00493587
-0.0689868
1.11237
1.2449
1.20994
1.17527
1.349
1.28221
1.32198
0.118101
1.22308
1.33795
1.27943
0.584954
1.42879
1.26996
1.24633
1.31879
1.19909
1.30907
1.34067
1.30588
1.33985
1.26505
1.37693
1.33132
1.41015
1.37914
0.465522
0.0343215
1.23755
1.28155
1.33138
1.31117
1.19407
0.350785
0.376157
0.0115518
-1.03703
0.123174
0.558414
0.285655
0.231564
0.0814379
0.0133725
0.638255
0.264669
1.14652
-0.169947
-0.0107083
0.0358383
0.82298
0.232333
0.784101
0.068911
0.0595146
0.0554641
0.0102738
0.0141465
-0.0220365
0.0199831
-0.00462876
-0.233102
0.0673954
-0.00719679
0.0840213
1.14522
0.313936
0.170719
-0.121272
0.00176233
0.104655
1.31602
1.37394
0.0534793
0.000407676
0.328079
0.0736382
1.19351
1.33197
1.20502
-0.0260626
0.120388
0.00682937
0.000748925
-1
-1.0417
-7.15609e-06
0.49463
0.0143159
1.19097
1.27853
1.43084
1.29663
1.46033
1.23503
1.25043
0.288126
-0.0873737
-0.0497459
0.0417462
1.38975
0.34895
1.12825
-0.165157
-0.878047
0.166532
1.17708
1.3761
1.29693
0.184005
0.266721
1.18981
0.196663
0.851406
0.191633
0.602647
-0.835812
-0.0594363
0.443225
0.247523
-0.000206911
0.0863667
1.33069
1.42316
1.50239
1.37366
1.25952
1.43587
1.23908
1.19281
1.38852
1.2254
1.44445
1.34213
1.31388
0.935987
0.584276
0.93501
0.621926
0.00930332
-0.0106864
-0.000547306
1.28311
1.27764
0.695821
0.878611
1.19432
1.20859
1.02607
1.18643
1.30558
1.18149
0.0628852
0.845166
0.115912
1.28493
1.27619
1.14301
0.783944
0.146165
0.0382388
-0.066956
-0.0160355
-0.00807585
0.0185949
0.0140421
0.225098
1.24709
1.36234
1.31052
0.0555429
1.15655
0.0247105
0.355668
1.29791
-0.0277735
-0.00609573
1.22062
1.19558
1.29492
-0.00185725
0.108603
0.0065447
0.0517787
1.12914
0.0799296
-0.0801666
0.0827109
0.135142
0.0142871
1.0253
0.072195
0.599785
0.0159685
1.03159
0.221083
-0.0237776
0.0388268
1.04121
-0.00408147
0.376403
0.0263192
-0.046535
-0.00307133
0.0772894
-0.0200645
1.28304
1.28237
1.32475
1.30877
0.302284
0.00608364
-0.036589
0.0271697
0.137797
1.09678
0.0370771
0.243132
0.00460644
1.21269
0.901864
1.19004
0.936199
1.16745
0.101983
0.0297084
0.680016
0.427926
0.0254327
1.41764
1.24507
1.40847
1.19208
0.526941
0.0745551
0.225498
0.57449
1.17079
1.21547
1.27386
1.20514
1.30429
1.20003
1.29378
1.28221
1.25678
1.23587
0.0578124
1.34798
0.783911
0.170519
1.14355
1.25693
1.25598
1.32414
1.16762
0.0229671
0.0835003
-0.0861729
0.068398
0.00839752
0.162908
0.0323656
0.0637781
0.0682128
0.0567361
-0.018877
0.0126102
-0.0585771
-0.0731846
-0.0100022
-0.00707517
0.0412151
