# vtk DataFile Version 4.2
vtk output
ASCII
DATASET POLYDATA
POINTS 642 double
-1.03876 2.11322 -0.383899
1.12934 2.14776 -0.314739
-1.40503 -1.66034 0.0024175
0.963776 -1.38752 0.154893
-0.0240904 -0.253684 1.25573
-0.00415705 1.73289 1.33808
-0.138313 -0.158675 0.0241586
-0.247998 1.87869 -1.32369
1.20425 1.50292 -0.469783
0.863507 0.841634 0.346554
-0.984272 1.41177 -0.438394
-1.01358 0.566834 0.453295
-1.37496 1.68384 0.165036
-0.614317 1.2341 1.05647
-0.582503 2.40889 0.920965
0.616498 2.40203 0.889633
0.00745364 2.78034 -0.213304
1.00933 2.00968 -0.428601
-0.941836 2.00134 -0.591305
-1.32259 1.81333 -0.886621
-1.91401 1.9653 -0.923529
-0.957788 1.03035 -0.101881
0.591084 1.28686 1.01407
1.43825 1.75915 0.119637
-0.404502 -0.102078 0.948694
-0.0471083 0.270704 1.12835
-1.10342 -0.602752 -0.0611044
-1.27818 -0.782312 0.369154
-0.204044 1.51085 -0.808956
-0.696788 0.857004 -0.236576
2.02157 1.95407 -0.833083
1.02093 1.81693 -0.498165
1.13822 -0.64482 0.417464
0.377269 -0.143903 0.911994
0.603345 -1.2506 0.956084
-0.671998 -1.1515 0.682094
0.0957182 -0.924244 0.428217
-0.680191 -0.818496 0.075646
0.469977 -0.829125 0.17509
0.499084 0.586292 -0.125138
0.923799 -0.487925 -0.0609297
1.15863 1.25306 -0.139087
-1.29885 2.04686 -0.127499
-0.948856 2.02321 0.550789
-0.762426 2.34551 0.219672
-0.752062 0.892275 0.652772
-0.89231 1.52201 0.669778
-1.00242 1.1669 0.235551
-0.211741 2.05633 1.24531
-0.661868 1.85838 1.1135
-0.284011 1.55324 1.22372
-0.337336 2.8065 0.442971
-0.508091 2.4702 -0.258099
0.214965 2.05674 1.2426
0.00453868 2.56052 1.04494
0.600148 2.38059 -0.255805
0.333632 2.68847 0.402427
0.789923 2.21996 0.119062
-0.311111 2.59115 -0.628273
-0.962457 2.03901 -0.553823
1.02242 2.04416 -0.39525
0.467599 2.85692 -0.693378
-0.646824 1.93921 -0.745292
-0.0497361 2.44057 -0.879348
0.37758 2.07547 -1.02286
-1.5811 2.20131 -1.05916
-1.5335 2.30228 -0.606199
-0.718089 1.81931 -0.684467
-1.4349 1.97801 -1.053
-1.56014 1.53872 -0.956668
-1.78936 1.78792 -1.54052
-1.34256 1.69166 -0.870437
-1.72421 1.85875 -0.312128
-0.970097 1.26815 -0.29416
-1.59844 1.52541 -0.544423
-1.35993 1.40809 -0.146706
-0.975194 0.742972 0.132593
1.00756 2.02749 0.460263
1.39692 2.18205 -0.0862247
0.272728 1.56998 1.23479
0.633679 1.86076 1.02772
1.16564 1.27812 0.25702
0.951131 1.56619 0.574631
0.736234 0.986772 0.553583
-0.228185 0.764258 1.08218
-0.0212615 1.19371 1.19473
-0.915765 0.148769 0.858581
-0.442277 0.460935 0.955204
0.0460266 -0.0423809 1.72215
-0.230478 0.104045 1.29631
-0.207584 -0.242537 1.26163
-1.27377 -0.218008 0.121673
-1.27396 -0.15757 0.491446
-0.857205 0.505332 -0.0961872
-1.10592 -0.00690877 -0.0630102
-1.31585 -1.25592 0.257615
-1.27623 -0.813125 0.0887372
-1.18627 -1.24034 0.0873053
-0.929053 1.62881 -0.597179
-0.827156 1.29514 -0.351064
-0.248099 1.58905 -1.19245
-0.717985 1.71326 -0.645694
-0.510913 0.177255 -0.0825122
-0.575267 1.36076 -0.507648
-0.189716 0.885269 -0.339498
1.0507 1.93653 -0.480339
0.377173 1.84133 -0.954605
1.67131 2.54067 -0.481953
1.60986 2.22513 -0.809587
1.21538 1.68381 -0.581075
1.52644 1.95543 -0.832089
1.52943 1.64451 -0.731274
1.01377 -1.09521 0.306623
1.0311 -1.02796 0.717896
1.14581 -1.6032 0.538087
0.84816 0.211961 0.814983
0.899045 -0.486059 0.738345
1.14511 0.0386306 0.509195
0.238702 -0.721594 0.805042
0.589653 -0.723869 0.952949
0.103903 -0.225732 1.19317
0.377829 -1.46289 0.577485
0.715895 -1.62258 0.0577367
-0.176908 -0.630376 0.739415
0.105647 -0.911254 0.619388
-0.86201 -1.41011 0.16776
-0.431074 -1.00842 0.476623
-1.19138 -1.65903 0.543539
0.382589 -0.990817 0.280612
0.759728 -1.27205 0.17433
-1.02795 -1.25888 0.0148095
-0.482175 -0.923996 0.246586
0.150576 -0.494339 0.123395
-0.0883937 -0.71129 0.238486
-0.394857 -0.477103 0.0990091
0.69551 -0.793834 0.0475024
0.88705 -1.05297 0.173745
0.213888 0.0441898 -0.0302036
0.475069 -0.438883 0.0251034
0.760765 0.703739 -0.0462196
0.694549 -0.0806778 -0.0608675
0.726436 1.23225 -0.247191
1.06611 -0.650345 0.135058
1.25569 1.40445 -0.36373
0.915977 0.332545 0.0354619
1.14268 0.0790101 0.161775
0.926735 1.03231 0.138516
0.115584 0.105934 1.21565
0.421387 0.516697 0.953433
0.192537 0.833042 1.08334
-1.20583 -1.07443 0.701063
-0.617126 -0.687897 0.68098
-1.02171 -0.543745 0.699051
-0.723763 -0.397048 -0.0197045
-0.951968 -0.827253 -0.0619277
-0.839818 -0.0579425 -0.0714387
0.71708 1.54708 -0.4459
0.193144 1.22827 -0.477917
0.278558 1.64673 -0.845807
1.52149 1.4694 -0.0533204
1.72234 1.53814 -0.469936
1.98086 1.97218 -0.190241
-1.16037 2.10319 -0.295563
-1.00126 2.12015 0.0218999
-0.885079 2.19893 -0.168391
-1.17816 1.85263 0.341191
-1.139 2.04741 0.212349
-1.42117 1.94373 0.0736169
-0.700296 2.43307 0.587487
-0.897748 2.23246 0.417542
-0.777786 2.23066 0.755636
-0.90717 0.674589 0.52284
-0.868684 1.01713 0.459487
-0.93804 0.809864 0.344547
-0.777651 1.38791 0.912823
-0.848294 1.2175 0.688223
-0.648116 1.09382 0.829246
-1.24539 1.42131 0.216094
-0.97144 1.34809 0.415196
-1.12812 1.60563 0.411026
-0.0810369 1.86677 1.33926
-0.255341 1.81637 1.27215
-0.121212 1.6733 1.33773
-0.62653 2.14627 1.04222
-0.436408 1.9906 1.21151
-0.385669 2.24865 1.13577
-0.473735 1.39752 1.20941
-0.459785 1.70564 1.21046
-0.654239 1.55431 1.10644
-1.00284 1.78673 0.661906
-0.850115 1.68194 0.940983
-0.878594 1.99477 0.906096
-0.641534 2.42997 -0.0155333
-0.780854 2.23713 -0.323704
-0.46083 2.60353 0.70749
-0.634466 2.63171 0.354152
-0.307398 2.68989 -0.241183
-0.458242 2.68074 0.0470112
-0.158834 2.81587 0.0945059
0.0756131 1.86793 1.3393
-0.0015822 2.07154 1.2389
0.328217 2.55295 1.02843
0.135626 2.32003 1.21217
0.43004 2.27206 1.18254
-0.134464 2.3152 1.21208
-0.316536 2.54836 1.04121
0.946116 2.15805 -0.310739
0.697831 2.3005 -0.0645795
1.05127 2.13661 -0.214101
0.162538 2.70796 0.103711
0.470369 2.57458 0.0434361
0.312921 2.59098 -0.218777
0.740772 2.40275 0.524482
0.615648 2.52947 0.296993
0.495557 2.60944 0.674365
-0.152473 2.68972 0.764366
0.1722 2.69027 0.753901
0.0206325 2.81668 0.456457
-0.657988 2.28422 -0.483759
-1.00444 2.08165 -0.486519
-0.171822 2.68929 -0.463568
-0.40049 2.54167 -0.488952
-0.951844 2.01876 -0.576497
-0.524489 2.35441 -0.597505
-0.479934 2.35753 -0.65486
1.06517 2.09365 -0.360466
0.795101 2.22139 -0.415616
0.543542 2.40292 -0.6184
0.552525 2.40093 -0.574906
1.01746 2.0311 -0.409583
0.491527 2.50779 -0.467418
0.166049 2.68823 -0.446653
-0.325994 1.89393 -1.05754
-0.11923 2.09609 -1.09411
0.0413617 2.05185 -1.26063
-0.40515 2.32266 -0.784605
-0.327441 2.2358 -0.948688
-0.905998 1.96877 -0.619166
0.621697 2.08427 -0.638096
0.211224 2.30325 -1.02649
0.396334 2.3397 -0.753009
-0.0182775 2.68262 -0.648117
0.146133 2.56536 -0.754724
-0.210669 2.60081 -0.838714
-1.29837 2.27405 -0.698526
-1.23712 2.17542 -0.475915
-1.32234 2.14536 -0.943101
-1.31327 2.25491 -0.926996
-1.87498 2.28857 -0.753055
-1.58818 2.30795 -0.891681
-1.90494 2.31975 -1.09247
-0.353873 1.81316 -0.997622
-0.698784 1.86068 -0.70365
-1.44189 1.93944 -1.05657
-1.09192 1.85549 -0.70526
-1.10795 1.82952 -0.70898
-1.04826 1.89475 -0.687419
-1.25335 2.02992 -0.866899
-1.32105 1.54909 -0.74654
-1.42574 1.58513 -1.03411
-1.28013 1.57829 -0.741742
-1.91429 1.92897 -1.20702
-1.66382 1.78093 -1.12667
-1.83948 1.67346 -1.03305
-1.35982 1.77272 -0.908349
-1.5492 1.80059 -1.11706
-1.52158 1.87713 -1.13322
-1.51273 2.092 -1.12971
-1.52479 2.00805 -1.26206
-1.71751 2.0796 -1.22773
-1.42639 2.20528 -0.330388
-1.99091 1.94542 -0.57812
-1.7602 2.19228 -0.402628
-1.55913 2.01307 -0.191509
-1.59492 1.77703 -0.0625688
-0.970925 1.36585 -0.382719
-1.36328 1.52805 -0.683045
-1.30362 1.40776 -0.369948
-1.34551 1.48177 -0.51285
-0.963077 1.16084 -0.207917
-1.62483 1.53876 -0.774569
-1.88986 1.64544 -0.74115
-0.978338 0.997686 0.139485
-1.01465 0.589029 0.317851
-1.43873 1.51558 -0.00525837
-1.21582 1.28643 0.0501726
-0.947633 0.905546 0.00852457
-1.06358 1.12526 -0.0168947
-1.21191 1.28355 -0.208336
-1.73512 1.66092 -0.451909
-1.51768 1.46725 -0.34498
-1.62568 1.59212 -0.218876
1.12703 2.10248 -0.0703719
1.27396 2.24378 -0.257829
0.767474 2.18929 0.67393
0.891624 2.126 0.293396
1.46437 1.98764 0.0619387
1.21229 2.00985 0.0863006
1.29176 1.90237 0.282249
0.110596 1.67734 1.33769
0.255157 1.82082 1.27289
0.625574 1.58982 1.03953
0.461662 1.72066 1.2017
0.464428 1.42968 1.1988
0.4551 1.98821 1.20656
0.645319 2.12822 0.994045
0.927055 1.06643 0.279855
0.920529 1.16058 0.368862
0.831395 0.859704 0.402738
1.20496 1.66013 0.322726
1.13433 1.40253 0.40414
1.35593 1.50817 0.217304
0.653541 1.15295 0.78148
0.831761 1.31455 0.555508
0.764685 1.44292 0.833572
0.770982 1.96262 0.755791
0.766107 1.71455 0.80384
1.03721 1.81591 0.572026
-0.142502 1.39272 1.22099
-0.00737367 1.55169 1.33718
-0.391971 1.06535 1.04981
-0.295579 1.21404 1.20855
-0.0436085 0.659485 1.08314
-0.146315 0.95331 1.20564
-0.118707 0.415155 1.05628
-1.04584 0.405564 0.652792
-0.83235 0.528312 0.741978
-0.395701 0.121384 0.986688
-0.663057 0.316952 0.954456
-0.646571 -0.010484 0.870391
-0.638656 0.714404 0.84319
-0.509551 0.895461 0.953652
-0.0116977 -0.267793 1.42357
-0.260691 -0.26761 1.61975
-0.103248 -0.252277 1.28826
-0.140806 0.137132 1.27351
-0.182073 0.0412796 1.46179
-0.0514893 0.0663873 1.37194
-0.258202 -0.165724 1.1336
-0.253997 -0.078252 1.34858
-0.259187 -0.00106718 1.1681
-0.309419 0.605891 1.00024
-0.253522 0.226424 1.07128
-0.183332 0.314779 1.08801
-1.27023 0.276497 0.302857
-1.24329 0.334349 0.541346
-1.04562 0.448433 0.0457433
-1.171 0.29928 0.13379
-1.29849 -0.499164 0.436575
-1.27303 -0.219109 0.289738
-1.4018 -0.562921 0.246416
-0.865816 1.13842 -0.272429
-0.877215 0.859626 -0.134331
-1.15916 -0.397412 -0.0924441
-0.994932 0.240063 -0.0808642
-1.06328 -0.20922 -0.177692
-0.914051 0.71458 -0.0682932
-0.970832 0.56379 -0.00479426
-1.39326 -1.47023 0.154399
-1.27755 -1.26571 0.136315
-1.48322 -1.40818 -0.125158
-1.27883 -0.816999 0.205655
-1.24161 -1.03898 0.198689
-1.27395 -1.02205 0.31544
-1.11454 -0.955587 0.0660721
-1.17963 -1.02251 0.140613
-1.2298 -0.764728 -0.051125
-1.27212 -0.158214 -0.0194988
[...]
POINT_DATA 642
SCALARS Mean_Curvature double 1
LOOKUP_TABLE default
-0.697978
-0.262567
10.1598
8.20214
-1.96759
-0.0315043
-0.180569
7.67353
-2.2807
-0.855628
-0.828883
0.95372
1.85121
3.44667
2.60267
2.71743
2.87467
0.34295
0.154937
-1.27269
0.260662
-0.550191
2.37456
-1.59209
-1.11098
-0.834882
-1.22129
-0.986227
-0.0304861
-0.247118
4.91229
0.00386371
2.94243
-0.891461
4.41904
2.91159
0.360238
-0.0187319
-1.33733
-0.840165
0.910803
-1.67912
-0.783642
-0.509825
-0.763001
-1.17292
-1.40257
-0.91021
0.911252
1.96368
-1.46896
2.92398
-0.936626
0.280776
1.9897
-0.479544
0.999285
-1.46487
3.06349
0.309236
0.0261847
6.28579
-0.582281
-0.490009
4.15685
1.54803
2.19934
-0.433356
1.52542
4.91282
6.61487
-1.31895
1.46161
0.452879
2.66677
0.0445047
-0.711416
2.36449
2.16511
-0.806602
1.1805
2.90076
-0.305974
-1.09461
0.134394
0.703769
3.18563
-0.999488
7.50937
9.36505
8.41748
-1.54802
3.43619
-0.460242
0.636686
0.84911
3.8361
-0.78776
-0.353988
-0.15486
5.81426
-0.234244
-0.400982
-0.0637506
-0.0149949
0.0680755
2.25943
6.94149
1.12789
-0.789314
1.66434
2.94508
1.59245
1.28225
5.60201
4.08249
0.952385
4.43068
-0.421873
3.91302
3.13516
5.62798
6.72316
-0.71197
-0.0971775
1.59286
-0.521917
4.59993
-0.956516
-1.38487
1.46959
-0.322768
-0.115994
-0.91837
-0.492041
0.509623
-2.59604
-0.738113
-0.740335
-0.702976
1.06153
-0.464782
-3.47703
-0.623507
0.523242
8.02636
-0.828919
4.42653
1.03262
1.06296
3.71887
-0.792235
2.17637
-1.23519
3.3442
-0.811228
-0.33072
0.105248
0.0590818
1.21611
2.41423
4.2876
-1.26172
-1.44152
-0.325791
1.39145
1.98987
4.06914
0.937802
1.78769
0.769565
-0.354119
-1.23093
-0.808661
1.54709
1.78326
-2.06096
2.45656
-1.44016
0.955386
4.25504
0.151127
3.88417
1.55494
2.27875
0.92834
3.26878
1.38971
1.70416
2.09174
2.3457
3.5455
-0.239901
-0.622165
1.0244
3.24817
1.61732
1.62671
2.27902
4.2089
-1.50835
3.28169
2.31524
3.57553
2.77327
3.81575
-0.473596
-0.921654
-0.646583
-0.135538
1.34577
-0.831494
2.6044
2.00708
2.3993
1.00244
1.31983
2.48054
-0.0941462
-0.114441
1.3351
1.05568
0.37867
2.22313
0.992991
0.268024
-0.691522
5.10511
0.0727103
0.504506
0.864368
0.130555
2.07152
-0.941217
3.19577
0.0315925
3.56789
-0.0117528
-0.460717
3.71469
0.0221085
3.97453
0.839839
6.92501
3.50413
-0.58684
1.77527
9.27097
4.34129
2.74616
6.56869
1.02442
-0.425334
2.32528
0.0294962
-0.255096
0.139938
-1.30918
8.27364
10.9094
2.91254
6.43007
-0.529611
5.58676
-1.30184
4.03215
0.000828233
2.88515
10.236
3.32834
3.7335
4.51278
4.20626
1.6937
3.54305
-0.181158
1.53637
0.500889
-0.73327
-0.265792
1.61757
4.4908
-0.930091
-1.11748
2.56649
2.14092
-0.683437
-0.84983
3.45563
1.59814
3.72441
3.51362
-0.828446
3.66856
0.321747
-1.42959
0.968493
-1.56319
4.61011
3.72791
0.512235
1.19411
2.39456
3.92887
2.78555
2.01597
-0.87622
-0.737497
-0.897073
-1.43992
3.02963
2.53383
-0.332955
-1.65102
2.01824
-0.714863
-0.550451
3.10731
-1.52184
5.65213
-2.51692
2.95949
-1.20906
7.30137
-1.81581
1.61745
0.281437
-1.24748
2.88613
-0.162568
0.474283
1.16818
5.07998
7.90698
0.324718
1.50814
6.50536
2.37576
0.397594
3.60084
-1.53873
-2.31991
-1.39153
2.53298
4.20193
5.14295
-0.850751
3.68151
1.21588
-0.633494
5.89173
-0.647102
-0.824163
1.07507
-0.776008
11.6947
-0.374362
-0.630707
0.936808
2.30133
8.96864
-0.662774
2.87317
1.13956
-0.791296
-2.04894
11.394
10.9609
0.251383
4.67816
-0.468558
-0.319812
-0.393139
-0.325089
-0.0721395
-0.414131
0.299957
5.29077
-0.625036
-0.17335
-0.531575
2.61132
-0.375573
-0.0119285
-0.235576
-0.485267
-0.297912
0.626476
-0.133869
-0.658033
-0.243137
0.80639
-0.323714
-0.321289
-0.110232
-0.154728
0.272696
6.15167
0.10699
-0.591711
-0.482514
-0.546784
-0.165652
2.08423
4.16618
5.82503
0.615092
4.27709
4.34034
6.87863
4.88727
5.03103
8.15753
2.62225
1.1741
-0.43283
2.51782
2.37025
6.30966
-1.70804
6.76471
-1.50446
-0.664319
3.68001
8.48314
5.4452
-2.27235
0.255449
5.18301
-0.226134
4.6253
2.8059
1.76547
4.60015
-1.32784
-1.12655
-0.135976
1.07799
3.24212
-1.16263
-0.0434522
-0.583469
4.63016
0.691644
-0.381916
5.8465
-0.589546
-0.579223
-0.925205
3.42265
1.91143
4.31307
3.89589
-0.0327869
1.49162
3.10542
-0.806996
4.85165
-0.309994
-0.280476
-0.315886
-0.134153
-0.606745
-0.438998
-0.559435
1.83055
5.73925
4.25977
4.61955
-0.041239
2.74821
-0.929325
6.44923
1.35229
5.89527
-0.361945
0.0400137
0.31867
10.913
-0.934
-0.575886
5.24166
-1.83332
-0.692984
5.62395
1.32573
9.11642
0.740317
-2.12133
4.0903
4.13336
-0.00903959
-0.273501
-0.51581
-0.459275
-0.362057
-0.0831872
-0.478875
-0.882432
-0.250758
-0.514061
-0.45313
-0.0344338
-0.227024
-1.32802
-1.85869
-1.34175
-0.440858
-1.60609
8.3695
7.17955
0.0569635
-0.258671
1.98158
-0.0166767
-0.378787
-0.35304
-0.959084
-0.839842
-0.460886
-0.767905
0.108207
1.14541
2.8908
-0.373879
-0.849685
-0.404408
-1.22483
2.78995
3.12442
5.15893
9.26021
7.55989
-2.23204
6.08152
3.36034
-0.634035
-0.552998
-0.511863
7.27904
-0.961452
5.51325
-0.991822
-0.84524
0.113169
0.688397
-1.03028
-0.678455
-0.400961
7.1987
1.29793
0.816155
9.71234
-1.16102
1.79258
4.00458
3.93295
-0.409313
0.533588
-1.54056
-0.694038
-0.980989
-1.81149
-1.53218
-3.33372
4.49367
-0.676886
-1.46085
3.67048
-1.57728
6.46059
3.06791
3.15013
-1.27065
2.32967
-0.305199
-0.68834
-0.508069
-0.361384
-0.415393
1.97048
4.90712
0.962624
-0.76112
-1.39313
3.87623
-0.490279
1.66097
-0.375602
-1.48554
-0.788843
3.55092
-0.672204
5.11097
4.60873
-2.18058
-2.12494
7.25366
-0.438931
-0.828115
-0.52033
-1.04913
-2.81232
5.07991
-1.31775
3.84674
-0.667262
0.515691
-0.405487
-0.357484
-0.426175
1.35758
-0.344731
0.247315
-0.641991
0.3045
5.62414
-0.495819
-0.278373
4.01453
0.427875
0.0260705
-0.272996
-0.282467
-0.878241
1.29763
3.60491
4.71383
2.76185
0.650753
-0.264814
6.48177
7.37852
0.640751
0.873549
3.89759
4.32353
2.84885
3.25305
2.37778
3.05545
4.02979
SCALARS CoVolArea double 1
LOOKUP_TABLE default
0.0306184
0.0181015
0.0442217
0.0107221
0.0177898
0.0172352
0.038787
0.0532034
0.022296
0.0219811
0.0132818
0.0363248
0.0774161
0.0698372
0.087054
0.0983167
0.0964457
0.0485301
0.0365685
0.0222691
0.104465
0.0442108
0.0733695
0.0594697
0.0632219
0.0306875
0.0367198
0.0486705
0.0597221
0.0413477
0.115444
0.03034
0.04881
0.0642821
0.081457
0.0627543
0.0486823
0.0364364
0.0318509
0.0890399
0.0478428
0.0403785
0.0721089
0.0876872
0.0956782
0.0785919
0.0852553
0.0690444
0.0535587
0.0767126
0.052931
0.119807
0.0835012
0.0578545
0.0950827
0.0811465
0.107583
0.0891626
0.048312
0.0434387
0.0301736
0.109954
0.0749351
0.0861562
0.0824534
0.0510807
0.0834762
0.020023
0.0275558
0.0510298
0.0780586
0.0326694
0.0807097
0.04139
0.0551365
0.0533248
0.0619978
0.0848248
0.0639372
0.0521937
0.0707116
0.0459944
0.0833186
0.0806196
0.0597184
0.0603677
0.0998176
0.0756024
0.0759955
0.0286586
0.0414344
0.0719649
0.0886366
0.053957
0.0511353
0.0462648
0.030996
0.0251413
0.0170809
0.0283652
0.0628413
0.033298
0.0882943
0.0578175
0.122314
0.0236674
0.0640645
0.0837214
0.045127
0.0255788
0.0335197
0.0329541
0.0305286
0.0665809
0.116646
0.0980646
0.0614139
0.0839066
0.047273
0.0678856
0.0320701
0.0902628
0.0743455
0.0567942
0.0363482
0.0721845
0.0574397
0.11998
0.0283954
0.0246027
0.0344652
0.0388714
0.0399814
0.0372097
0.0432115
0.0315685
0.0235911
0.0867316
0.0371643
0.0455382
0.0548432
0.0340663
0.0384201
0.0461357
0.0533991
0.0720497
0.0375351
0.0321413
0.087487
0.0609718
0.0667136
0.0681304
0.0737986
0.0408457
0.0268937
0.0346395
0.0475083
0.0999272
0.0585319
0.0436783
0.0545141
0.109764
0.0551657
0.0852754
0.0716479
0.0834306
0.0844202
0.0760914
0.0907675
0.089034
0.0859218
0.0605465
0.0749497
0.0522077
0.0749829
0.0807574
0.0739271
0.0748842
0.0854313
0.0855556
0.033691
0.048031
0.0352369
0.0795835
0.0633409
0.0739619
0.0642668
0.0613094
0.0705576
0.0885365
0.0831363
0.0895964
0.0934149
0.0642395
0.102191
0.107013
0.0867134
0.10652
0.115211
0.0340989
0.0511721
0.102435
0.0775283
0.0856717
0.0734635
0.0942904
0.0416666
0.0848363
0.0494026
0.11092
0.100301
0.0952594
0.0985582
0.102239
0.106112
0.106623
0.106241
0.116702
0.0590848
0.0430011
0.0657614
0.058368
0.0264432
0.0358408
0.0455054
0.0272321
0.045211
0.0729212
0.0373472
0.0211713
0.0877331
0.099728
0.0621653
0.103284
0.0867311
0.0739458
0.106541
0.0606651
0.0706182
0.110969
0.0954462
0.0793915
0.095389
0.0641087
0.0652106
0.0505913
0.0378195
0.0536387
0.110828
0.0749841
0.0920097
0.0318921
0.0281205
0.0225454
0.0178741
0.0213661
0.0352753
0.0388895
0.0286662
0.0389605
0.0297595
0.0908733
0.0617017
0.075048
0.0182219
0.036163
0.0354437
0.0340233
0.0439932
0.0691086
0.0711449
0.113943
0.103017
0.0724137
0.0689848
0.0306072
0.0472511
0.0466297
0.051269
0.0418827
0.0614352
0.0892496
0.0526453
0.0602391
0.0637203
0.0575482
0.0492539
0.0471466
0.0458812
0.072939
0.0497711
0.0600712
0.0652553
0.0414968
0.0860382
0.0875885
0.067284
0.0717218
0.0735219
0.0343308
0.0483502
0.0698541
0.0605929
0.0647512
0.0667444
0.0810597
0.0274179
0.0585774
0.0463335
0.0752575
0.0699056
0.0546496
0.0840112
0.0828869
0.0794646
0.0795968
0.0783123
0.0855252
0.052262
0.0378126
0.0689
0.0632358
0.0541361
0.0620128
0.0409526
0.078958
0.0880099
0.0661102
0.0928845
0.0870066
0.0836206
0.0728556
0.0444577
0.0732359
0.0352231
0.0254743
0.0506306
0.0352416
0.0445169
0.0406436
0.0407971
0.0609025
0.046086
0.0345711
0.096595
0.0866971
0.0589795
0.077721
0.062584
0.0807213
0.0587381
0.0250223
0.0366633
0.0414722
0.0465445
0.062518
0.0347384
0.0478198
0.0569825
0.0353707
0.055311
0.0362246
0.0253377
0.0375297
0.029806
0.0250165
0.0368064
0.0636784
0.0435715
0.0460012
0.0336947
0.0250581
0.0131555
0.0184235
0.0293962
0.0252426
0.0275832
0.070615
0.0329897
0.0461493
0.0344232
0.0506825
0.0246663
0.0206993
0.077032
0.120894
0.107096
0.0491184
0.0869566
0.0657398
0.0802977
0.0907903
0.0611803
0.020781
0.0417361
0.0299377
0.0619767
0.0995267
0.0303508
0.036695
0.0381385
0.0312569
0.0295633
0.0453229
0.0555743
0.118002
0.0701904
0.112423
0.0360848
0.0312546
0.0283582
0.0266223
0.0202989
0.0298496
0.0263176
0.0238965
0.0536703
0.0350053
0.0834716
0.0319612
0.0534674
0.0302623
0.0252394
0.0620673
0.0576392
0.0564317
0.0475873
0.0391162
0.114334
0.0834731
0.0868299
0.0644315
0.084788
0.0574351
0.0715023
0.078197
0.0872753
0.062763
0.0661107
0.0559728
0.0371652
0.0397483
0.0243155
0.0680448
0.0543194
0.0541185
0.0450367
0.0509805
0.0634987
0.0648205
0.0685714
0.0713244
0.0906411
0.0328323
0.0953957
0.116378
0.0724458
0.112928
0.0651364
0.0399916
0.0504484
0.0325632
0.0475839
0.0514517
0.0461429
0.0549458
0.0635381
0.0955824
0.0756412
0.0411777
0.0749363
0.0552096
0.109042
0.10008
0.0553165
0.0592026
0.037729
0.0412634
0.0385166
0.0163133
0.0445916
0.0430364
0.0292298
0.0268874
0.0341219
0.049573
0.0530362
0.0357757
0.0380901
0.0339064
0.0496782
0.0497265
0.0418417
0.0444481
0.043654
0.0350189
0.0396837
0.0331169
0.0361272
0.0411196
0.0364865
0.0347
0.0345616
0.0321668
0.0202759
0.0135425
0.0268117
0.0246552
0.035342
0.0307076
0.0394785
0.0715999
0.0491552
0.0624138
0.0517471
0.093274
0.035357
0.0298893
0.0394466
0.0382765
0.0342679
0.0497124
0.053179
0.0556565
0.0546349
0.0480047
0.0647999
0.0320252
0.0478363
0.0419958
0.0208813
0.0460431
0.0274621
0.0283015
0.0389334
0.0350203
0.0522758
0.0463323
0.0484229
0.0410183
0.047087
0.0592006
0.0609815
0.0317378
0.0557924
0.0836075
0.0399599
0.0548474
0.0464801
0.0609892
0.0632652
0.0543353
0.0375946
0.048593
0.0318455
0.0369045
0.0247836
0.0879724
0.0816562
0.0935031
0.0984612
0.0761636
0.0522945
0.041181
0.0633816
0.0615832
0.0692835
0.0580863
0.0702099
0.0398762
0.0917074
0.0871334
0.104072
0.0636255
0.0518156
0.0441846
0.0735463
0.0547077
0.0581468
0.0616165
0.0951208
0.058801
0.0712004
0.0878604
0.0841076
0.0658389
0.0758382
0.0634314
0.0564307
0.0356809
0.0416334
0.0564367
0.0483936
0.029579
0.0282975
0.0206257
0.0259204
0.0340862
0.0309287
0.0371965
0.0278062
0.0523118
0.0468511
0.0332444
0.0334452
0.0383545
0.029705
0.0745905
0.0372404
0.0255881
0.0335922
0.12167
0.0749122
0.105148
0.117249
0.112323
0.100153
0.0467869
0.0572779
0.0676775
0.0608315
0.0854711
0.0739562
0.0612261
0.0360051
0.0430313
0.0417812
0.0435211
0.0521103
0.0333009
0.0668409
0.0460712
0.0428784
0.0421918
0.0722236
0.0845165
0.0955627
0.103111
0.0970299
0.0534752
0.0804565
0.0770036
SCALARS SignedDistance double 1
LOOKUP_TABLE default
1.10527
0.865344
0.0178804
0.0841998
0.0561484
-0.000499159
1.21825
0.115118
0.180017
1.20825
0.591627
-0.079761
-0.00046782
-0.0134854
-0.0200836
-0.00141218
0.0331905
1.18574
1.19547
1.04646
0.00208091
1.26787
0.0540983
0.501212
1.18526
0.0402988
0.0162414
0.00984574
0.656471
1.26739
0.0571624
1.09792
0.0155105
1.20691
0.0177268
0.0561791
1.26674
0.0874207
0.354359
1.12708
0.0145611
0.54073
-0.0163456
-0.034064
0.0256131
1.13985
0.0170919
1.14235
-0.0500389
0.0118538
0.00204382
0.0167372
0.862956
-0.0548396
-0.00956943
1.11643
-0.0130333
0.178987
-1.00004
1.18195
1.16702
-1
1.23737
-0.0139123
-0.0319838
-0.978596
-0.0276375
1.27402
-0.057132
0.0722263
0.19298
0.72526
0.164925
0.611126
-0.952003
0.0986828
1.21191
-0.0121521
0.104162
0.0105609
0.00725553
0.151965
-0.000960477
1.14751
-0.0114371
0.010094
-0.000383859
0.0111476
0.0536041
0.0833681
0.0318965
-0.0219809
-0.00212153
0.969741
0.0501682
0.138994
0.0301398
0.691355
1.19538
1.134
0.0760375
1.26257
0.430481
1.13181
0.458904
1.04968
0.054828
0.000787844
-1.00704
0.158867
0.146418
0.0250394
-0.0339212
-0.0145687
0.0152859
-0.0160751
0.121841
-0.018509
1.21407
-0.0277441
0.0809702
0.158069
-0.478152
1.47773
1.26984
0.0839178
1.17087
-0.00406582
0.292292
0.425446
0.361815
0.583425
1.30781
1.47012
1.25694
-0.00497564
0.163557
0.832635
0.264124
1.21619
0.0156738
0.877074
-0.0192256
0.0406084
0.0845905
0.0255175
1.26481
0.0621452
-0.0256204
-0.00300957
0.0292281
0.664755
-0.00114595
0.269344
0.0308963
0.216903
1.15923
0.662531
0.468313
-0.0976192
0.0388718
0.0685928
0.570075
1.10102
0.299942
0.00701028
-0.0145984
0.0520403
-0.0211055
0.0299252
-0.00381325
0.0287069
1.18576
1.1062
0.0113044
-0.00422316
0.174117
-0.0242921
1.07433
-0.00452815
0.0192136
-0.0068263
-0.00630718
0.0344874
0.0168216
-0.00841659
-0.0148131
0.000791377
0.0236113
-0.0137249
-0.0297955
-0.0156152
0.0947611
1.12565
-0.0177719
0.0200085
0.00778241
-0.0206446
-0.0087744
0.0199083
-0.0488481
0.00535901
0.0302087
-0.116178
0.0286862
-0.0107989
1.25444
0.48975
1.19108
-0.000617197
0.0374952
-0.00327203
-0.0125321
-0.0015509
-0.0187287
0.00845317
0.00794907
0.00458161
1.07806
1.07594
0.00424041
0.352402
1.19028
0.875066
1.03597
1.13802
1.25027
0.265523
0.559532
1.1752
0.198275
-0.00405664
0.0447876
-0.00638887
0.0538916
0.522701
-0.0349017
1.21796
1.16583
0.0187956
0.138461
-0.0196714
-0.0384559
0.0504044
0.0503848
-0.00386394
-0.00320274
-0.00621703
-0.0143288
0.0563688
-0.122027
0.166512
1.27226
-0.0972886
1.0839
0.982768
1.16867
0.51598
0.0645321
0.0429131
0.074669
0.0198387
0.0553973
0.0513006
0.774075
0.0399932
0.0960252
0.166882
0.203225
-1.08181
0.171978
0.0869261
0.0627873
0.00656583
0.0456637
0.801961
0.0986008
0.0811137
0.905668
1.17724
0.0587471
-0.351175
1.25996
0.0401795
0.0341139
0.0239932
1.30415
1.20383
0.0568523
-1.01594
-0.132193
0.0335204
1.0227
0.121338
0.0640682
0.063226
0.026815
0.526362
0.00267342
-0.00692824
-0.0037111
7.27548e-05
-0.00108603
-0.0140911
0.0094422
-0.0345828
1.2423
1.16348
1.19359
0.0210422
-0.0891823
-0.7179
0.154353
0.093092
0.0278011
0.0186393
0.0394124
0.00435016
0.00259098
-0.015362
0.380585
0.0060786
0.0106761
0.0124375
0.68308
0.0329905
0.0283568
0.98261
-0.00402481
0.0205273
0.047883
-0.0271803
0.174563
0.149424
0.030341
0.141578
-0.219277
-0.957452
0.20707
0.0382743
0.126936
0.257334
0.134332
0.0111228
-0.0626828
-0.0173925
1.07672
0.0776255
0.0501812
-0.0218714
0.00605481
1.20215
1.34033
-0.0614325
0.469981
0.0634113
1.28668
1.18145
-1
0.227382
0.147829
-0.00299781
-0.0809283
-0.00427335
-0.0205358
-0.0522199
0.0122596
0.000371862
0.00243996
0.0514982
1.13308
0.798247
0.813023
0.690664
1.16558
1.15788
0.642272
0.115528
0.895162
1.19005
1.14133
0.0736209
1.27113
1.16328
0.995076
1.15061
0.421713
0.668162
1.1654
1.16384
1.17679
0.326589
1.2329
1.22002
1.23216
1.1791
0.0530385
0.0596033
1.13478
1.16872
1.18453
1.17798
1.06013
-0.0242197
0.0222883
-0.0646417
-1.04045
0.0984667
-0.121844
-0.118037
0.0190748
0.00101652
0.0159247
0.0482486
0.0250715
0.457171
-0.448681
-0.231366
0.087938
0.80766
0.0457285
0.978867
0.0415253
0.106547
-0.229663
0.0107669
-0.0145086
-0.0396767
-0.00371745
-0.00628958
-0.13925
0.0521648
-0.00988766
0.133629
1.1287
-0.00608903
0.0276979
-0.178516
0.00377558
0.0803732
1.31737
1.36852
0.0115937
-0.00652458
0.403812
0.0838097
1.20071
1.32543
1.20454
-0.0380655
0.140837
0.000618998
-0.00768156
-1
-1.05257
-0.0214843
0.221986
0.0284165
0.904487
1.28008
1.40517
1.26897
1.43479
1.22017
1.22144
0.266647
-0.440157
-0.125388
0.0316062
1.35009
-0.00712975
0.810275
0.106413
-1.0083
0.170074
0.988954
1.29288
1.1509
0.143072
0.312911
1.14312
0.148787
0.163267
0.370829
-0.0244231
-0.971859
-0.156161
0.14386
-0.0801378
-0.130147
-0.0265184
1.31073
1.35255
1.43398
1.282
1.21524
1.39804
1.18403
1.1329
1.33131
1.17211
1.43119
1.30033
1.29089
1.03831
0.408783
0.719929
0.00855171
-0.00869212
-0.00682494
0.0165852
1.15666
1.22619
0.0296252
0.559213
0.333772
1.0083
0.730911
1.01867
1.19194
1.13647
0.00308143
0.0617588
0.00619171
1.0655
1.12559
0.171066
0.216368
0.00266341
0.0197688
-0.277936
-0.0194644
-0.00652268
0.0137815
0.013891
0.0270107
1.16652
1.26008
1.25192
-0.0651905
1.03653
0.0139005
0.426331
1.26124
-0.024026
-0.0150121
1.22684
1.18651
1.24543
-0.00147844
0.0467485
0.00634203
0.0574795
1.1261
0.0706669
-0.970913
-0.0446671
0.0441222
-0.0118539
0.76829
0.00163595
0.235013
0.00915418
0.752761
0.0241794
-0.0280835
0.0226491
0.81892
-0.0121664
0.0849503
0.0251773
-0.057448
0.00269277
-0.0436078
-0.0156504
1.27235
1.23602
1.28576
1.26742
0.0457096
0.00545171
-0.038859
0.0326575
0.0271869
0.636344
0.0318778
0.00673816
0.000820165
1.0719
0.432552
1.1306
0.0377704
0.307588
0.237777
0.0246523
0.297712
0.0461173
0.00277299
1.28874
1.11779
1.27709
0.775465
0.179044
0.000144106
0.0118087
0.0138253
1.11467
0.29845
0.977031
1.06732
1.2097
0.12762
1.1743
0.581774
0.729922
0.406102
-0.011406
1.21484
0.6246
0.147915
0.220555
0.705039
1.04261
1.17834
1.17497
-0.0806164
0.0856925
-0.229034
0.0892429
-0.0434528
0.0402608
0.0465451
0.0579125
0.0685343
-0.000915963
0.0742546
0.0936908
-0.0571073
-0.139059
-0.0325548
0.00855866
0.0160569
