# vtk DataFile Version 4.2
vtk output
ASCII
DATASET POLYDATA
POINTS 642 double
-1.60662 3.2129 -0.212845
1.66352 3.27348 -0.16432
-1.70587 -2.06616 0.00882147
1.60083 -2.01459 0.0194763
0.00411915 -0.927548 2.37994
-0.0033467 2.19114 2.24348
-0.0720185 -0.964282 -1.94808
-0.144708 2.28027 -2.41445
2.44732 0.946258 -1.49566
2.22063 0.71889 1.21538
-2.529 0.845834 -1.6351
-2.20944 0.604014 1.26221
-2.28842 2.11535 0.650345
-1.24611 1.55156 2.09607
-0.814672 3.00126 1.37753
0.830569 3.00883 1.37362
-0.0186001 3.6585 -0.112764
1.08786 3.19499 -1.56501
-1.0824 3.20943 -1.61609
-1.62896 1.6986 -2.53357
-2.51247 2.27084 -1.07849
-2.80403 0.767558 -0.145601
1.23367 1.58141 2.07105
2.3486 2.15115 0.686379
-1.27859 -0.362223 2.18425
-0.0196087 0.522577 2.69552
-2.44025 -1.02588 -0.824905
-2.38161 -1.06136 0.786593
-0.180386 0.906025 -2.61466
-1.5133 -0.0579925 -2.12324
2.54345 2.28668 -1.0281
1.60686 1.7574 -2.32892
2.22601 -1.02045 0.768949
1.24324 -0.373776 2.1391
0.930279 -1.8759 1.46436
-0.971663 -1.89282 1.45697
0.00215991 -2.4442 0.0227489
-1.00277 -1.83451 -1.34258
0.937694 -1.81273 -1.28883
1.35685 -0.113533 -1.90855
2.19111 -0.981736 -0.72072
2.78645 0.855101 -0.103993
-2.03586 2.74909 0.235803
-1.5911 2.63815 1.10573
-1.23317 3.19086 0.616826
-1.79152 1.10733 1.73239
-1.78936 1.89172 1.49506
-2.32108 1.41237 0.990881
-0.382135 2.64186 1.93189
-1.08973 2.35443 1.82744
-0.607216 1.93884 2.26712
-0.449815 3.45439 0.715476
-0.867881 3.5527 -0.152892
0.382719 2.64207 1.92923
0.000171783 3.12853 1.46583
0.949272 3.54443 -0.143077
0.460515 3.45621 0.718795
1.32145 3.20971 0.570508
-0.540671 3.6027 -0.85874
-1.4288 3.33886 -0.879379
1.46349 3.37789 -0.8315
0.546871 3.58046 -0.850256
-0.656731 2.78873 -2.15222
-0.0325779 3.29947 -1.58333
0.592228 2.7852 -2.07648
-1.90483 2.87234 -1.41486
-2.11627 2.87263 -0.630277
-0.952205 2.05832 -2.58865
-1.42264 2.56504 -2.19707
-2.64621 1.51185 -1.45363
-2.21341 2.05915 -1.90284
-2.22557 1.26171 -2.13122
-2.53727 2.26071 -0.166766
-2.76501 0.803714 -0.945576
-2.81536 1.54028 -0.606862
-2.68931 1.50546 0.24519
-2.58191 0.684696 0.59132
1.6634 2.65781 1.06482
2.07403 2.82118 0.256078
0.602306 1.94505 2.26074
1.09942 2.36252 1.82286
2.38379 1.45114 0.978339
1.84566 1.91036 1.44327
1.82109 1.13833 1.67315
-0.627563 1.01319 2.50329
-0.00385538 1.44997 2.51121
-1.80757 0.0520836 1.75899
-1.24934 0.54866 2.26558
-0.0179418 -0.221561 2.64382
-0.642527 0.107377 2.59923
-0.65401 -0.677021 2.40241
-2.60801 -0.447076 0.339714
-2.3211 -0.356069 1.06295
-2.42796 -0.0865991 -1.22381
-2.63617 -0.360008 -0.459543
-2.17908 -1.65904 0.424711
-2.5918 -1.12495 -0.0176116
-2.19447 -1.65396 -0.418488
-1.64343 0.877628 -2.50204
-2.11756 0.416766 -1.99708
-0.195327 1.60847 -2.63634
-1.01631 1.32287 -2.71369
-0.848312 -0.624329 -2.04961
-0.994215 0.506129 -2.53229
-0.110447 0.0838849 -2.35355
1.42363 2.55322 -2.1157
0.917029 2.09576 -2.39828
2.16186 2.91604 -0.573611
1.91221 2.87553 -1.37433
2.15148 1.34571 -1.9661
2.19228 2.07107 -1.82955
2.61498 1.56836 -1.36071
2.05328 -1.60028 0.430286
1.7131 -1.52389 1.19709
1.35005 -2.05576 0.720727
1.78206 0.0780707 1.72283
1.82231 -0.785879 1.5242
2.23167 -0.226655 1.07852
0.467916 -1.49095 2.01279
1.17663 -1.22265 1.88923
0.627281 -0.717632 2.36764
0.51252 -2.31455 0.8054
0.917585 -2.34567 0.00459578
-0.465659 -1.48085 1.99621
0.00704065 -2.00702 1.53294
-0.980655 -2.34384 0.0127691
-0.538531 -2.32654 0.801832
-1.42686 -2.09032 0.713148
0.54113 -2.27407 -0.690892
1.32943 -2.04116 -0.646187
-1.43022 -2.06861 -0.664628
-0.567296 -2.28337 -0.713757
0.477667 -1.39282 -1.75386
-0.0268076 -1.90912 -1.34355
-0.563337 -1.39889 -1.8018
1.69577 -1.48143 -1.09567
2.03283 -1.58951 -0.373557
0.695951 -0.675399 -1.95725
1.18541 -1.15222 -1.66137
2.30571 0.0976596 -1.13963
1.80373 -0.684352 -1.37772
2.00949 0.533101 -1.79746
2.3775 -1.07607 0.0346768
2.72116 0.910446 -0.870766
2.51665 -0.131657 -0.381655
2.48623 -0.269743 0.352249
2.59618 0.823933 0.605977
0.594586 0.106236 2.5783
1.23129 0.567196 2.20728
0.585785 1.04406 2.49333
-1.81524 -1.553 1.20627
-1.25627 -1.23889 1.89048
-1.9107 -0.84435 1.51078
-1.32155 -1.15285 -1.79106
-1.86185 -1.52136 -1.17582
-1.99977 -0.718339 -1.51385
1.59113 0.976254 -2.24554
0.735947 0.463524 -2.36031
0.877185 1.34487 -2.50638
2.72722 1.53089 0.299712
2.81799 1.58543 -0.585856
2.57052 2.31106 -0.153398
-1.82075 3.02676 -0.0108678
-1.65426 2.97101 0.436182
-1.4506 3.21475 0.140415
-1.97318 2.37941 0.874352
-1.83747 2.68781 0.672369
-2.18896 2.44853 0.450028
-1.02909 3.11917 1.01704
-1.42281 2.93238 0.891341
-1.20156 2.85078 1.26823
-2.03554 0.837814 1.47968
-2.05917 1.28818 1.38632
-2.26266 1.00132 1.14134
-1.52035 1.73705 1.82881
-1.79918 1.52519 1.63186
-1.5321 1.33713 1.93541
-2.33139 1.76486 0.83189
-2.07719 1.66524 1.24683
-2.0577 2.01265 1.07979
-0.166751 2.40292 2.1271
-0.512062 2.31571 2.1136
-0.265672 2.09477 2.27362
-0.961185 2.7056 1.62447
-0.742761 2.52799 1.8943
-0.595494 2.8393 1.68578
-0.934269 1.75796 2.20724
-0.86092 2.15723 2.0706
-1.1881 1.96367 1.98532
-1.71737 2.27855 1.31891
-1.45439 2.13579 1.69095
-1.34385 2.51904 1.50091
-1.0455 3.40794 0.238899
-1.28269 3.38926 -0.189578
-0.645631 3.2506 1.07828
-0.842404 3.35097 0.689966
-0.469996 3.63239 -0.133433
-0.649597 3.53357 0.276944
-0.244453 3.59432 0.302107
0.161362 2.40222 2.12634
-0.00304966 2.67712 1.94705
0.424127 3.09769 1.44216
0.205389 2.91103 1.71732
0.60308 2.84243 1.68231
-0.206755 2.90975 1.71896
-0.418446 3.09446 1.44446
1.38422 3.41474 -0.165645
1.14091 3.40851 0.217945
1.55081 3.26728 0.129569
0.23875 3.59299 0.312784
0.680805 3.53002 0.287074
0.47595 3.62513 -0.111318
1.0642 3.13244 1.00506
0.880671 3.35784 0.682001
0.661241 3.25682 1.07696
-0.221112 3.32098 1.12109
0.225457 3.32243 1.12113
0.000565639 3.49254 0.735557
-1.14601 3.48378 -0.529498
-1.53801 3.29246 -0.511507
-0.282606 3.67349 -0.491398
-0.70817 3.61816 -0.504813
-1.2811 3.32409 -1.25074
-1.0055 3.49816 -0.889832
-0.834682 3.43339 -1.25698
1.59127 3.34635 -0.448204
1.2194 3.48215 -0.495518
0.849693 3.41218 -1.22473
1.04949 3.48422 -0.860238
1.29625 3.32589 -1.21007
0.758726 3.59878 -0.49353
0.247321 3.66533 -0.484952
-0.404891 2.50892 -2.31047
-0.0721447 2.81161 -2.07471
0.229601 2.51918 -2.25833
-0.607603 3.27526 -1.61628
-0.364692 3.07131 -1.87648
-0.870213 3.01798 -1.9226
0.852411 3.0005 -1.85405
0.287668 3.06824 -1.84576
0.580049 3.25714 -1.58041
-0.027048 3.62061 -0.853972
0.267469 3.48453 -1.23306
-0.306865 3.49704 -1.2434
-1.80152 3.13911 -0.78447
-1.85135 3.086 -0.399157
-1.4964 3.09242 -1.54393
-1.68014 3.15272 -1.16411
-2.33883 2.6059 -0.853722
-2.04779 2.89749 -1.02679
-2.25381 2.58946 -1.25533
-0.583886 2.18902 -2.49787
-0.837131 2.44774 -2.40081
-1.5492 2.13258 -2.40707
-1.18701 2.32001 -2.44347
-1.27524 1.8965 -2.61321
-1.05119 2.71044 -2.20185
-1.26274 2.93173 -1.9273
-2.60418 1.13966 -1.57489
-2.47289 1.40651 -1.81648
-2.42713 1.03044 -1.86198
-2.40958 2.19113 -1.49575
-2.47619 1.79827 -1.68551
-2.61407 1.88895 -1.28543
-1.96031 1.48122 -2.35765
-2.24531 1.65388 -2.06134
-1.94405 1.88647 -2.26255
-1.68606 2.75372 -1.83438
-1.84365 2.33581 -2.08273
-2.09148 2.49383 -1.68067
-2.11478 2.82357 -0.192741
-2.55354 2.29104 -0.630885
-2.36139 2.58018 -0.410003
-2.31477 2.52111 0.0438465
-2.44445 2.20168 0.253657
-2.64959 0.836147 -1.35473
-2.73372 1.18474 -1.20961
-2.84099 1.1696 -0.372327
-2.82456 1.18379 -0.778207
-2.8175 0.787853 -0.544543
-2.75434 1.54973 -1.04446
-2.6992 1.91506 -0.859293
-2.49046 1.10003 0.777333
-2.38946 0.634365 0.978528
-2.52062 1.82841 0.451147
-2.53452 1.47871 0.611145
-2.71934 0.731023 0.222641
-2.67018 1.14223 0.401412
-2.78492 1.1541 0.0406617
-2.72033 1.91416 -0.389092
-2.78882 1.53058 -0.165864
-2.65387 1.88507 0.0514427
1.73732 3.03642 0.409692
1.86024 3.09794 0.0172908
1.23334 2.86482 1.25696
1.50069 2.95708 0.844711
2.23758 2.50493 0.483539
1.91818 2.74409 0.655087
2.05637 2.41784 0.861109
0.262385 2.09391 2.27262
0.515172 2.31532 2.11233
1.18473 1.98367 1.9712
0.862874 2.16451 2.06553
0.920341 1.77935 2.19269
0.751564 2.52958 1.89192
0.976282 2.71194 1.62079
2.31584 1.08459 1.10413
2.12578 1.32695 1.32105
2.06614 0.909075 1.4151
2.14125 2.03819 1.05268
2.15692 1.6915 1.19784
2.39726 1.79209 0.848554
1.53757 1.35963 1.89609
1.84584 1.54862 1.5718
1.52933 1.76324 1.79811
1.37108 2.53134 1.49018
1.473 2.15347 1.67382
1.78222 2.29343 1.27743
-0.312126 1.70524 2.41609
-0.00279011 1.89442 2.37368
-0.958393 1.31434 2.31665
-0.641028 1.52049 2.39265
-0.0113736 0.956994 2.61976
-0.309385 1.22567 2.54275
-0.307499 0.737739 2.6475
-2.04507 0.34126 1.49344
-1.78763 0.588594 1.78334
-1.25831 0.0885672 2.2694
-1.51235 0.313401 2.05557
-1.54801 -0.176204 1.99059
-1.51608 0.841481 2.0176
-1.26032 1.07262 2.19148
-0.00886296 -0.612242 2.52294
-0.331172 -0.432045 2.56508
-0.292301 -0.820073 2.41864
-0.32065 0.315055 2.68545
-0.332082 -0.0477947 2.65611
-0.0210096 0.146229 2.70028
-0.978564 -0.527741 2.32217
-0.659163 -0.272452 2.5311
-0.961546 -0.112569 2.43376
-0.960529 0.773403 2.41221
-0.959655 0.306141 2.46781
-0.635628 0.513766 2.59726
-2.45202 0.102467 0.83937
-2.26126 0.171723 1.18753
-2.68388 0.161408 0.103037
-2.59865 0.112972 0.462667
-2.36045 -0.750058 0.92525
-2.495 -0.433009 0.703366
-2.52128 -0.80032 0.56047
-2.50915 0.520192 -1.50177
-2.63874 0.391291 -1.09083
-2.56899 -0.753101 -0.62321
-2.56566 -0.262511 -0.804285
-2.42357 -0.673269 -0.98567
-2.69888 0.28647 -0.701573
-2.71917 0.220514 -0.321801
-1.93172 -1.91367 0.192317
-2.23331 -1.67535 0.00187457
-1.93404 -1.91045 -0.178235
-2.52576 -1.11313 0.393587
-2.44929 -1.39851 0.211902
-2.33475 -1.36605 0.624137
-2.37705 -1.35378 -0.638941
-2.4642 -1.39532 -0.224006
-2.55926 -1.09552 -0.429833
-2.6574 -0.43511 -0.0573636
-2.64147 -0.813349 -0.235111
-2.62416 -0.829034 0.167503
-2.18569 0.851725 -2.10618
-2.37154 0.656841 -1.81476
-1.65502 1.29561 -2.5558
-1.94366 1.07673 -2.36079
-1.82314 0.182005 -2.1116
-1.89835 0.641233 -2.28026
-1.59823 0.442287 -2.37127
-0.170017 1.98488 -2.53955
[...]
POINT_DATA 642
SCALARS Mean_Curvature double 1
LOOKUP_TABLE default
0.578959
0.903664
0.950847
0.808511
0.696333
0.738872
-0.05057
0.341092
0.775687
0.311269
0.881737
0.392102
0.626074
0.617379
0.769097
0.749391
0.471865
0.891876
0.902541
1.13086
0.871335
0.71599
0.561046
0.779905
0.678864
0.941704
1.14364
1.0485
0.460479
0.270778
0.977857
1.17891
0.644979
0.461621
0.809309
0.733328
0.516579
0.768351
0.884676
0.15205
0.632643
0.762946
0.701972
0.614788
0.592813
0.479142
0.628989
0.519645
0.901819
0.726885
0.741323
0.683148
0.706658
0.846596
0.829323
0.664432
0.656104
0.518433
0.789495
0.753789
1.16765
0.625386
0.703071
0.520637
0.54062
0.83702
0.743627
1.02564
0.968884
0.999051
0.823636
0.932072
0.83382
0.643032
0.894331
0.766022
0.336673
0.502821
0.717119
0.752602
0.747926
0.682375
0.521882
0.454903
0.358806
0.662536
0.350462
0.58564
0.887696
0.911127
0.720327
0.473453
0.486363
0.184347
0.328785
0.956336
1.37587
0.92969
0.972953
0.788798
0.568516
1.05447
0.100071
0.666219
0.350624
1.1719
0.293537
0.89874
0.83018
0.949923
1.05781
1.03082
1.07567
1.01187
0.759016
0.347571
0.627021
0.432243
0.949993
0.782177
0.745799
0.71947
1.02971
0.473198
0.80481
0.641432
0.764787
0.76763
0.753088
0.856146
0.735476
0.771786
0.970075
0.434092
0.979582
1.09145
1.05081
0.213475
1.03223
0.186236
0.328448
0.613224
1.26514
0.720851
0.376156
0.439853
0.631686
0.857616
0.363018
0.488111
0.948415
0.914803
0.566823
1.05578
0.967079
0.444985
0.834994
0.420143
0.549841
0.930806
0.924019
0.746299
0.716145
0.391872
0.352947
0.500364
0.450628
0.666958
0.684256
0.607778
0.698448
0.343585
0.46444
0.198411
0.647366
0.556241
0.551594
0.595965
0.530185
0.529089
0.876017
0.78164
0.736694
0.765671
0.798312
0.845209
0.687802
0.72924
0.725055
0.617814
0.678189
0.694199
0.585949
0.601651
0.732913
0.649717
0.54712
0.636686
0.623522
0.838928
0.906024
0.806704
0.859443
0.811128
0.877915
0.831478
0.951811
0.43008
0.816222
0.606437
0.551629
0.469904
0.647651
0.600902
0.723256
0.768066
0.753586
0.700054
0.795119
0.642882
0.846906
0.875211
1.03817
0.748056
0.710258
1.05099
0.621657
0.592787
0.593707
1.05101
0.721768
0.733494
0.215468
0.197502
0.274177
0.670601
0.594592
0.729388
0.536181
0.575107
0.565856
0.584597
0.653103
0.728307
0.939861
0.766782
0.936872
1.01207
0.844273
0.89515
0.897263
0.357874
0.938304
0.890134
1.08997
1.28867
0.991787
1.05891
0.969574
1.00237
0.924346
0.926537
0.983003
0.799964
0.984107
0.971762
0.886786
0.785099
0.771926
0.809247
0.756815
0.739169
0.757411
0.803698
0.801274
0.629809
0.691014
0.773306
0.763303
0.682033
0.769249
0.766422
0.524649
0.392457
0.717503
0.654575
0.498071
0.671503
0.774698
0.885723
0.810956
0.853789
0.665204
0.762915
0.662116
0.51788
0.752001
0.659745
0.658671
0.739035
0.796288
0.715406
0.783362
0.667893
0.792338
0.750987
0.539871
0.496419
0.285354
0.629026
0.592771
0.784249
0.481804
0.466577
0.569391
0.672034
0.680241
0.51496
0.698677
0.760742
0.568014
0.619487
0.536493
0.640133
0.856144
0.371916
0.382097
0.710131
0.364102
0.384232
0.303686
0.564517
0.78779
0.813585
0.703064
0.961601
0.916976
0.988722
0.706978
0.830196
0.781473
0.50297
0.829801
0.860265
0.343377
0.361573
0.307714
0.345815
0.55793
0.495073
0.681343
0.634235
0.58239
0.787291
0.276696
0.490332
0.317744
0.26485
0.860872
0.934044
0.862304
1.23087
1.42121
1.20315
1.30111
1.43522
1.27196
0.387651
0.993185
0.928971
0.855221
0.841496
1.04899
0.909638
0.856647
0.848875
0.912269
0.414646
0.499035
0.40767
0.489178
0.53405
1.18019
1.2914
0.17781
-0.127617
-0.160852
0.856096
-0.0137511
0.169232
0.394916
0.361814
0.425894
1.12635
0.900737
0.961851
0.549181
0.39039
1.00569
1.02464
1.04359
1.19046
1.22979
0.894034
0.856107
0.863797
0.876569
0.886364
0.831367
0.930448
0.877049
1.00491
0.908843
1.09808
1.04527
1.01484
1.10383
1.08663
0.947071
0.820215
0.83309
0.962293
0.853429
0.815055
0.808748
0.92347
1.05207
1.30577
0.783322
0.812627
0.86166
0.373034
0.39902
0.385745
0.645713
0.628756
0.418525
0.614513
0.648586
0.632984
0.574868
0.451252
0.746053
1.01493
1.10653
0.84455
0.648423
0.57599
0.606775
0.720754
0.699143
0.888248
0.786482
0.813754
0.761291
0.769278
0.669127
0.611221
0.663435
0.607273
0.635172
0.837182
0.441797
0.838535
0.819782
0.781575
0.826419
0.75125
0.849837
0.640152
0.617933
0.707994
0.717932
0.743995
0.782391
0.813052
0.512093
0.660429
0.915032
0.852661
0.721724
0.875051
0.866124
1.03306
0.784287
0.850536
0.800065
0.789699
0.861948
0.762591
0.802818
0.582727
0.820092
0.702116
0.585466
0.63189
0.633856
0.746998
0.799307
0.634934
0.680539
0.586235
0.63502
0.664253
0.8603
0.838323
0.931777
0.872129
1.20761
1.06448
1.09949
0.202056
0.812239
0.307399
0.510718
0.281851
1.03303
1.09333
0.633944
0.572172
0.706538
0.392638
0.358651
0.385492
0.498249
0.12665
0.309417
1.11118
0.62664
1.01352
1.1117
0.984552
1.38922
1.50421
1.09079
0.744177
0.608574
0.640515
0.641421
0.748445
0.290642
0.403065
0.401025
0.295345
0.633439
0.423624
0.727575
0.437776
0.215707
0.466677
0.407007
0.580328
0.826865
0.711806
0.779353
0.901717
0.936108
0.338049
0.527613
0.396053
0.32195
0.605404
0.708198
0.811508
0.675607
0.646369
0.548108
0.746217
0.307143
0.803717
0.808258
0.762336
0.784452
0.93481
1.05325
0.631843
0.356139
0.581747
1.08992
0.910982
0.376304
0.827173
0.498371
0.496103
0.450589
1.05344
0.667615
0.954919
0.787217
0.998393
1.10543
0.857265
0.2749
0.797669
1.18281
0.912297
0.699917
0.666188
0.655085
0.153882
-0.0186938
0.177752
0.997163
1.07221
1.09043
0.980396
0.802577
0.563927
0.70191
0.886424
1.0247
-0.0178244
0.462509
0.418134
0.168909
0.244077
0.459963
0.793055
0.561067
0.559404
0.517855
0.328635
0.478295
0.38952
0.690694
0.873118
0.812459
0.843362
0.885897
0.864526
0.898693
0.96122
0.836129
0.869648
0.803137
0.801999
0.747674
0.863155
0.936769
0.969991
0.777197
0.886752
SCALARS CoVolArea double 1
LOOKUP_TABLE default
0.0992046
0.0796882
0.0861826
0.0856094
0.0933587
0.0704326
0.116306
0.13686
0.0744953
0.111362
0.0809505
0.119236
0.166218
0.158754
0.155608
0.160897
0.196349
0.178638
0.178911
0.161675
0.174693
0.197171
0.16268
0.156562
0.173151
0.125383
0.137998
0.130875
0.196368
0.200083
0.169103
0.129484
0.132506
0.178319
0.167667
0.176437
0.207163
0.166415
0.150482
0.235012
0.141337
0.157601
0.169531
0.188635
0.190529
0.181581
0.17354
0.163456
0.129409
0.156653
0.140264
0.186098
0.169779
0.132599
0.157865
0.179228
0.191766
0.191156
0.19202
0.159469
0.157446
0.211256
0.178496
0.22883
0.198733
0.190783
0.158173
0.135424
0.187296
0.149392
0.19376
0.148531
0.170179
0.178993
0.168439
0.15057
0.209809
0.198535
0.158913
0.136765
0.157424
0.135878
0.181198
0.186514
0.180422
0.151096
0.204288
0.171951
0.126474
0.135402
0.1619
0.187475
0.180153
0.235644
0.198427
0.159559
0.13
0.160824
0.151665
0.174385
0.201676
0.120878
0.187192
0.157655
0.275238
0.169766
0.165071
0.157723
0.191747
0.128667
0.174166
0.132461
0.144697
0.16241
0.166554
0.188456
0.163199
0.19024
0.154026
0.150883
0.153549
0.19733
0.157634
0.173429
0.18828
0.174991
0.20127
0.171684
0.174872
0.15041
0.163607
0.188288
0.146035
0.199131
0.145384
0.151105
0.144252
0.172233
0.13192
0.212142
0.188502
0.166756
0.118189
0.150729
0.236425
0.203928
0.168013
0.139948
0.188678
0.180406
0.172691
0.165859
0.155357
0.157109
0.17857
0.187113
0.146801
0.22372
0.188495
0.143845
0.159611
0.176348
0.152261
0.192261
0.171908
0.188961
0.185623
0.163034
0.164824
0.18259
0.168772
0.172016
0.173561
0.161394
0.158977
0.161652
0.163928
0.158231
0.166941
0.181924
0.106294
0.130043
0.112982
0.155252
0.137884
0.138644
0.147812
0.140866
0.154029
0.195075
0.175853
0.180505
0.187951
0.153894
0.16859
0.177793
0.170979
0.18116
0.197302
0.107946
0.127102
0.158037
0.138671
0.142012
0.136862
0.155343
0.133076
0.187702
0.142784
0.204134
0.197475
0.194754
0.179396
0.191928
0.17429
0.182415
0.184147
0.200908
0.16274
0.135943
0.179932
0.164083
0.170634
0.175862
0.198934
0.124602
0.155313
0.205498
0.176631
0.167702
0.183568
0.19901
0.177748
0.222831
0.202299
0.205329
0.207229
0.169329
0.177478
0.216684
0.215336
0.214956
0.237865
0.226909
0.151415
0.135104
0.183082
0.163861
0.164298
0.162718
0.181011
0.148809
0.149303
0.184875
0.152871
0.141469
0.154655
0.176746
0.120282
0.145189
0.12191
0.18287
0.163298
0.163792
0.155513
0.163633
0.18716
0.21173
0.216039
0.211885
0.158498
0.17941
0.164882
0.156778
0.157331
0.139973
0.152743
0.160008
0.161483
0.187979
0.161844
0.179079
0.171923
0.183025
0.153548
0.148694
0.194194
0.158949
0.156223
0.183384
0.16566
0.167656
0.170681
0.129865
0.183452
0.19
0.159586
0.175671
0.179666
0.113196
0.130951
0.153474
0.13782
0.143807
0.139415
0.159661
0.133053
0.159479
0.16422
0.17047
0.155106
0.139291
0.173989
0.170546
0.170085
0.193335
0.18534
0.203337
0.146578
0.118759
0.175578
0.162363
0.144749
0.162719
0.149446
0.181635
0.20161
0.164719
0.188246
0.184072
0.18553
0.177278
0.122198
0.136922
0.140202
0.126592
0.124291
0.116427
0.16188
0.139661
0.150352
0.181982
0.157252
0.159152
0.217862
0.181618
0.236606
0.223078
0.136895
0.178593
0.135121
0.166594
0.213682
0.150351
0.212217
0.176364
0.214901
0.239537
0.137378
0.15741
0.136041
0.129038
0.144777
0.14359
0.148658
0.146881
0.132966
0.207531
0.146801
0.141695
0.148316
0.135366
0.149236
0.149598
0.187653
0.15559
0.163149
0.194509
0.156767
0.158136
0.144283
0.185377
0.119402
0.131077
0.175872
0.265408
0.257366
0.174218
0.202439
0.198423
0.204404
0.217916
0.177682
0.139607
0.141486
0.147798
0.171619
0.194978
0.172133
0.154823
0.131083
0.138823
0.150492
0.127822
0.157072
0.184738
0.170761
0.163699
0.169315
0.179435
0.110218
0.128814
0.109808
0.15381
0.138785
0.128072
0.148635
0.146236
0.177264
0.202848
0.205652
0.193887
0.130168
0.156838
0.136636
0.146125
0.150859
0.128644
0.167354
0.163172
0.167535
0.175865
0.179578
0.176645
0.172323
0.165851
0.175955
0.156481
0.1619
0.151875
0.143985
0.150415
0.133566
0.157395
0.14256
0.1525
0.162834
0.147842
0.165769
0.166244
0.168987
0.168648
0.164874
0.133522
0.18196
0.175717
0.176042
0.178701
0.20665
0.153738
0.170373
0.185448
0.175854
0.165549
0.165472
0.175833
0.137039
0.17022
0.138347
0.209854
0.187837
0.193191
0.175779
0.181325
0.189175
0.205351
0.210372
0.219081
0.147946
0.130322
0.191269
0.153389
0.148156
0.148024
0.161232
0.134913
0.162034
0.173482
0.165195
0.165781
0.175764
0.202304
0.131035
0.164831
0.129101
0.173838
0.175301
0.144276
0.15149
0.174204
0.177819
0.21346
0.208714
0.204824
0.150063
0.128949
0.153521
0.151612
0.130339
0.146002
0.140835
0.170441
0.128659
0.175603
0.130289
0.198669
0.124068
0.141378
0.141442
0.189178
0.124392
0.160741
0.207054
0.194025
0.199537
0.214422
0.214238
0.151
0.162638
0.154262
0.140733
0.12997
0.12598
0.124054
0.119166
0.121182
0.187087
0.201731
0.202425
0.152997
0.237786
0.192516
0.20971
0.153866
0.151173
0.201919
0.159171
0.213607
0.205553
0.174409
0.216498
0.153448
0.138605
0.1622
0.145975
0.125682
0.127768
0.203596
0.188719
0.193408
0.192128
0.176714
0.142817
0.147449
0.155875
0.155868
0.18014
0.172086
0.200127
0.166224
0.164669
0.179371
0.172702
0.163185
0.152392
0.174224
0.175966
0.171859
0.163947
0.167998
0.191481
0.139571
0.154837
0.180159
0.177235
0.175354
0.169396
0.162544
0.133
0.164712
0.135701
0.15326
0.18936
0.161607
0.158665
0.166097
0.170742
0.179339
0.201989
0.21202
0.210926
0.200715
0.15463
0.181852
0.172549
0.183373
0.132566
0.195593
0.145201
0.128516
0.130537
0.250231
0.20647
0.225184
0.225475
0.239049
0.216208
0.142071
0.172133
0.204677
0.206259
0.203974
0.211356
0.169768
0.13433
0.141344
0.130401
0.128722
0.150428
0.133342
0.162989
0.140165
0.143421
0.150128
0.152823
0.167518
0.161662
0.160027
0.170941
0.167694
0.184457
0.178161
SCALARS SignedDistance double 1
LOOKUP_TABLE default
2.0452
1.84113
1.48511
1.63972
1.96768
2.0411
3.17492
2.17185
2.35609
2.53494
2.31639
2.38811
2.11799
2.24348
1.86165
1.86535
1.9237
1.87105
1.84857
1.87357
1.67799
2.42608
2.28245
2.02188
2.2469
2.18969
2.35105
2.08828
2.55716
3.01896
1.58327
2.24934
2.20181
2.35125
1.6811
1.7206
2.13312
2.21289
2.21528
2.98207
2.50703
2.34557
1.99347
2.04857
1.96501
2.42744
2.19824
2.36727
1.89704
2.01521
2.12362
1.80882
1.96571
1.90997
1.77332
1.99322
1.83963
2.07444
1.62012
1.86455
1.67969
1.71646
2.16243
1.97736
2.20469
1.45033
1.73164
2.13965
1.64652
1.94267
1.50917
1.99104
1.81411
2.34309
1.95453
2.15777
2.49652
2.12417
1.87814
2.12636
2.03764
2.29566
2.26472
2.45643
2.42908
2.26304
2.3608
2.44635
1.89144
2.06623
1.99791
2.30101
2.28544
2.75115
2.45715
1.62014
2.07077
1.70722
2.39824
2.59381
2.27744
2.4398
3.03299
2.89622
2.95812
1.87419
2.36793
1.57857
1.44855
2.23343
1.75279
1.97321
1.7857
1.89841
1.61952
2.42247
2.16738
2.3622
2.00889
2.07973
2.13253
1.7354
1.68817
2.22168
1.93589
1.76492
1.80555
1.58267
2.0158
1.78102
1.73565
2.15344
2.7199
2.5876
2.78239
2.26202
1.99296
2.98496
2.67879
2.75935
2.67728
2.67878
2.29507
2.30418
2.55477
2.42704
2.47221
2.14995
2.53003
2.43178
1.82387
2.17898
2.21754
2.66559
2.1149
2.75461
2.64304
2.80134
2.48081
2.07606
1.94474
1.74757
1.99614
2.09846
2.12461
2.135
2.10399
2.03907
1.89204
2.00022
1.93984
2.46554
2.41186
2.50619
2.20659
2.29775
2.32118
2.23082
2.29957
2.20352
1.98315
2.01999
2.05887
1.93202
1.96269
1.86255
2.18163
2.05672
2.11149
2.11211
2.0892
2.00747
1.99035
2.06998
1.82531
1.86353
1.94578
1.90002
1.85962
1.98526
1.87635
1.79985
1.82009
1.86694
1.79833
1.79495
1.99965
2.10555
2.02026
1.86936
1.95989
1.97046
1.92327
1.92155
1.82624
1.78059
1.78168
1.78377
1.8699
1.98834
1.84273
1.75627
1.77896
1.71443
1.7306
1.73033
1.91418
1.7951
1.7989
1.74758
1.79567
1.86296
2.25226
2.18445
2.17288
1.84567
2.04181
1.99741
2.04556
2.05521
1.8688
1.83387
1.81952
1.75967
1.75868
1.87842
1.53945
1.60002
1.64446
1.57217
1.51338
2.30531
2.08943
1.69112
1.8962
1.9781
1.89653
1.71996
2.14104
1.90241
2.1554
1.58672
1.67011
1.78119
1.89801
1.72288
1.63711
1.47861
1.51282
1.447
1.82542
1.70165
1.72116
1.87305
1.97743
2.35062
2.148
2.16579
2.12491
2.3644
1.95109
1.76502
2.45663
2.41598
2.12117
2.26837
2.5223
2.35707
2.25772
1.83446
2.03495
1.98327
2.03416
1.85896
1.97099
2.08376
1.92547
2.04988
2.09845
2.05715
2.01074
2.17011
2.07733
2.20602
1.95695
1.93938
2.44703
2.3953
2.53773
2.18168
2.28547
2.15177
2.35884
2.35136
2.27667
2.04953
2.16022
2.18436
2.18676
2.12148
2.31009
2.26114
2.41853
2.37684
2.30516
2.34106
2.41975
2.28946
2.40941
2.37797
2.49209
2.39908
1.88492
1.87273
1.92983
2.08554
1.9336
2.00588
2.1082
1.97585
2.11367
2.45339
2.24583
2.24675
2.34647
2.32904
2.48308
2.40837
2.22489
2.27722
2.24066
2.54838
2.60107
2.46945
2.5648
2.60366
2.64682
2.59273
1.47301
1.55678
1.51463
2.05965
1.81865
1.87529
2.04257
1.88347
2.18828
2.36997
2.34035
2.2571
2.27793
2.42295
2.13095
2.16936
2.79945
2.46681
2.69014
2.184
2.36491
2.62398
2.50652
2.40944
2.26605
2.17903
3.08747
3.15434
3.18751
2.93521
3.14996
2.99902
2.7329
2.9277
2.7688
2.39792
2.65225
2.65457
2.30538
2.18242
1.7948
2.03576
2.34237
2.18373
2.07548
1.69903
1.54813
1.46652
1.48
1.53422
1.49151
1.57426
2.29368
2.07568
2.19033
1.98881
2.00485
2.20937
1.7518
1.83589
1.58666
1.58348
1.52725
1.74747
1.63593
1.66975
1.57326
2.07683
1.84581
2.05832
1.63555
1.71482
1.7563
2.43644
2.38174
2.41796
2.24467
2.31867
2.42631
2.25499
2.25768
2.15581
2.14312
2.21821
2.02612
1.85623
2.04466
1.79915
2.24295
2.24484
2.22475
2.05601
2.10955
1.96943
1.65243
1.58726
1.61271
1.63835
1.87206
1.77825
1.91316
2.06961
2.15767
1.91393
2.12991
1.93631
1.90282
1.71244
1.63175
1.67824
1.53856
2.0293
1.79766
1.99819
1.62589
1.65485
1.6917
1.7521
1.96621
1.96808
1.63318
1.6639
2.03775
1.82523
1.96051
1.8566
2.08192
1.57782
1.69699
2.14487
1.90555
1.9389
1.93488
2.22218
2.99496
2.92634
3.03706
2.32881
2.59594
2.44439
2.49269
2.69866
2.42663
2.30816
2.4298
2.27766
1.85633
1.76163
2.17195
1.99332
2.27526
2.11833
2.39095
3.06732
2.89607
2.81999
2.87647
2.96827
2.67525
2.42594
2.51053
2.72056
2.49112
2.59056
2.70648
2.56935
2.89306
2.87413
2.81036
2.46328
2.72091
2.55024
1.84862
2.39751
2.15749
2.03537
2.24131
2.32749
2.50799
2.56403
2.51918
2.31397
2.66442
2.4802
2.44667
2.53831
2.30849
2.36987
2.39747
2.52408
2.58943
2.41767
2.46851
2.37781
1.9595
2.21509
2.0789
2.00097
2.1452
2.50226
2.40845
2.51386
2.48133
2.39856
2.18169
2.36259
2.36512
2.25509
2.31766
2.33721
2.49495
2.32372
1.55716
1.74495
1.64966
1.71117
1.93688
2.13276
2.31177
2.23007
2.1418
1.88773
2.33576
2.14736
2.23345
2.32278
2.33518
1.99163
2.20541
2.0662
2.93332
2.38481
2.68546
2.90335
2.89386
1.67586
2.23003
1.89093
1.87197
2.08335
2.76995
2.86567
2.88965
2.71045
2.54787
2.39728
2.46705
2.71179
2.45521
2.86745
2.64727
2.42541
2.43576
3.12084
2.63008
2.84109
3.07681
3.02368
2.19907
2.50569
2.39891
2.30898
2.44663
2.81648
2.61292
2.66645
2.35402
2.19026
2.26332
2.17859
2.01056
2.13827
1.76651
1.94582
2.12039
2.14031
1.74078
1.86305
1.7837
1.68065
1.67466
1.97584
1.78402
1.86467
