# vtk DataFile Version 4.2
vtk output
ASCII
DATASET POLYDATA
POINTS 642 double
-1.72277 3.4013 -0.181403
1.77272 3.45773 -0.135926
-1.80899 -2.24553 0.00665504
1.71938 -2.19449 0.0152138
0.00668255 -1.03309 2.5879
-0.00302885 2.3044 2.46942
-0.0606336 -1.0578 -2.21476
-0.129096 2.38365 -2.61978
2.65374 0.891392 -1.62941
2.43019 0.712496 1.36472
-2.73149 0.809859 -1.74489
-2.41616 0.61081 1.40482
-2.48283 2.22028 0.758575
-1.38232 1.61453 2.30433
-0.898424 3.18312 1.50809
0.910451 3.18883 1.50511
-0.0188478 3.87838 -0.0956694
1.13501 3.36804 -1.67772
-1.13046 3.38299 -1.72226
-1.72535 1.7442 -2.71905
-2.69707 2.37046 -1.12516
-3.04755 0.750657 -0.1198
1.37023 1.63983 2.28185
2.53871 2.25334 0.796402
-1.41774 -0.411279 2.38384
-0.0158647 0.541134 2.9522
-2.64995 -1.10254 -0.922157
-2.59534 -1.13017 0.891478
-0.160786 0.864489 -2.86605
-1.6169 -0.169471 -2.35688
2.72473 2.38122 -1.08303
1.70368 1.786 -2.5475
2.4505 -1.0955 0.865437
1.3854 -0.419759 2.34291
1.0018 -2.04392 1.58698
-1.03448 -2.05746 1.57858
0.0041916 -2.65701 0.0155598
-1.05344 -2.00312 -1.47793
1.0012 -1.984 -1.43641
1.47065 -0.201808 -2.13505
2.42638 -1.06295 -0.833923
3.03668 0.818404 -0.0845736
-2.19471 2.90172 0.308209
-1.73927 2.78704 1.22363
-1.33731 3.37813 0.697492
-1.9699 1.14096 1.91135
-1.96584 1.97648 1.65363
-2.5313 1.46002 1.12274
-0.429123 2.79813 2.11756
-1.20615 2.48108 2.00825
-0.681014 2.02985 2.49234
-0.490371 3.66709 0.788329
-0.926021 3.76682 -0.129174
0.429066 2.79785 2.11496
-0.000332906 3.32349 1.60192
0.99789 3.7568 -0.122614
0.49808 3.66788 0.791221
1.4144 3.39536 0.654778
-0.56763 3.80899 -0.903433
-1.52063 3.53416 -0.914252
1.54066 3.56076 -0.874532
0.575737 3.78522 -0.897849
-0.662845 2.93373 -2.31841
-0.0282021 3.47518 -1.7025
0.612193 2.92577 -2.24563
-2.02695 3.0131 -1.49268
-2.27349 3.02458 -0.63782
-0.968812 2.14115 -2.80563
-1.49646 2.68162 -2.34389
-2.8521 1.54839 -1.53465
-2.35707 2.13743 -2.02109
-2.37997 1.26741 -2.28767
-2.7366 2.37185 -0.133356
-2.99668 0.775311 -0.990956
-3.04579 1.57932 -0.618656
-2.91987 1.54912 0.320583
-2.81112 0.681523 0.680397
1.80286 2.80356 1.18891
2.22973 2.97032 0.32632
0.677993 2.03403 2.48755
1.21425 2.48644 2.00561
2.59505 1.49099 1.12035
2.01727 1.99087 1.61028
1.99806 1.16555 1.85905
-0.705005 1.06005 2.74277
-0.00223742 1.51073 2.76007
-1.98661 0.03631 1.93578
-1.39828 0.562391 2.4773
-0.0145181 -0.271467 2.88763
-0.720839 0.0861205 2.83881
-0.724671 -0.759035 2.614
-2.85312 -0.466822 0.395613
-2.53823 -0.382593 1.18819
-2.63555 -0.154523 -1.33007
-2.88092 -0.391018 -0.495613
-2.3264 -1.79736 0.471924
-2.8186 -1.20473 -0.0109784
-2.33356 -1.79197 -0.462696
-1.74556 0.833002 -2.71243
-2.27581 0.337575 -2.16331
-0.175123 1.63757 -2.87883
-1.0306 1.3207 -2.96429
-0.879882 -0.71553 -2.31315
-1.01734 0.417263 -2.7819
-0.0947285 -0.00304436 -2.60606
1.49413 2.66475 -2.27251
0.952702 2.16509 -2.62117
2.31593 3.06349 -0.588794
2.03104 3.01478 -1.46047
2.31339 1.33215 -2.14971
2.34136 2.14182 -1.96522
2.82636 1.58991 -1.46072
2.2159 -1.73807 0.473516
1.86047 -1.6562 1.31334
1.44635 -2.23732 0.785779
1.96436 0.0590838 1.9033
2.00535 -0.850766 1.68328
2.45595 -0.265682 1.20044
0.505581 -1.62722 2.18637
1.29428 -1.33023 2.07737
0.704982 -0.802025 2.58434
0.547069 -2.51732 0.86477
0.971118 -2.55512 0.000503943
-0.499879 -1.62533 2.17372
0.00671488 -2.18302 1.66014
-1.02621 -2.5497 0.00927961
-0.567434 -2.52686 0.861672
-1.5118 -2.2707 0.77968
0.572208 -2.48224 -0.770639
1.42619 -2.22385 -0.72462
-1.51198 -2.2506 -0.738648
-0.591501 -2.48853 -0.78953
0.51627 -1.52758 -1.96054
-0.0208939 -2.08406 -1.4906
-0.580456 -1.53582 -2.00672
1.84141 -1.61637 -1.22806
2.19778 -1.72777 -0.426599
0.760657 -0.759415 -2.21715
1.29552 -1.25587 -1.888
2.52016 0.00747172 -1.26201
1.98529 -0.765505 -1.56228
2.17239 0.443321 -1.98606
2.62863 -1.15599 0.0286317
2.95845 0.865646 -0.930978
2.76197 -0.196208 -0.423609
2.73721 -0.316008 0.399248
2.83514 0.803098 0.700536
0.67962 0.0856082 2.81755
1.38152 0.577623 2.42233
0.668233 1.08713 2.73432
-1.94827 -1.68544 1.32184
-1.36501 -1.34277 2.07505
-2.08936 -0.900203 1.67938
-1.40709 -1.26421 -2.00282
-1.97478 -1.65516 -1.28693
-2.1825 -0.798301 -1.7046
1.69703 0.91945 -2.47829
0.798425 0.387506 -2.60673
0.92742 1.33732 -2.75498
2.96277 1.56638 0.372055
3.05095 1.61578 -0.607528
2.76778 2.41732 -0.125516
-1.95923 3.19568 0.0424573
-1.78657 3.14188 0.515179
-1.55848 3.40191 0.201548
-2.14507 2.50799 0.988301
-1.99148 2.83948 0.769285
-2.36717 2.58029 0.541286
-1.1252 3.30592 1.12069
-1.55044 3.10258 0.991201
-1.32009 3.01785 1.39281
-2.22735 0.859736 1.64151
-2.25551 1.33029 1.54168
-2.47382 1.03054 1.27767
-1.68005 1.81092 2.01433
-1.97856 1.58271 1.80343
-1.69271 1.38472 2.12958
-2.53647 1.84027 0.953769
-2.27179 1.73258 1.39314
-2.24488 2.10821 1.21284
-0.19134 2.54073 2.3366
-0.575803 2.44043 2.32325
-0.304614 2.19733 2.50205
-1.06311 2.86231 1.78223
-0.827662 2.67099 2.07905
-0.662443 3.01078 1.84481
-1.04104 1.83568 2.42678
-0.958752 2.2669 2.27565
-1.31563 2.0574 2.18287
-1.88207 2.39748 1.45931
-1.60382 2.24306 1.8616
-1.47943 2.659 1.65049
-1.1264 3.60959 0.29236
-1.36921 3.59209 -0.161042
-0.708565 3.45123 1.18009
-0.915847 3.55329 0.767312
-0.498932 3.85568 -0.113388
-0.698756 3.74763 0.324747
-0.26356 3.81386 0.34639
0.186209 2.53967 2.33546
-0.00293987 2.83777 2.13413
0.465965 3.28836 1.57699
0.228466 3.08976 1.87884
0.668049 3.01278 1.84173
-0.23042 3.08898 1.8804
-0.462224 3.2862 1.57903
1.4598 3.62249 -0.140381
1.21005 3.60902 0.272655
1.64928 3.45267 0.191411
0.256374 3.81109 0.356411
0.724611 3.74222 0.33423
0.501837 3.84334 -0.0933565
1.15344 3.31699 1.11079
0.947163 3.55852 0.759757
0.720219 3.45581 1.17908
-0.243429 3.52862 1.22473
0.245947 3.52951 1.22473
-0.000184699 3.7087 0.807737
-1.2198 3.68859 -0.534591
-1.64388 3.48789 -0.51428
-0.297339 3.89408 -0.503569
-0.750178 3.8326 -0.513343
-1.35218 3.51058 -1.32214
-1.06185 3.69795 -0.930091
-0.871351 3.62309 -1.33233
1.68543 3.53476 -0.458313
1.28147 3.69117 -0.507491
0.886549 3.60156 -1.30311
1.09777 3.68201 -0.90512
1.35963 3.5065 -1.28771
0.797175 3.81091 -0.506996
0.263226 3.88157 -0.498903
-0.399007 2.63462 -2.4989
-0.0636188 2.95316 -2.24531
0.247491 2.64088 -2.44663
-0.624008 3.45037 -1.73035
-0.366506 3.23168 -2.02101
-0.896573 3.18029 -2.06085
0.883977 3.1609 -1.99773
0.3013 3.22662 -1.99131
0.602786 3.43158 -1.69831
-0.0245787 3.8309 -0.902922
0.282226 3.67726 -1.31705
-0.315668 3.69129 -1.32691
-1.92623 3.31189 -0.806705
-1.98896 3.25629 -0.387727
-1.58148 3.24703 -1.63382
-1.78647 3.3187 -1.2213
-2.51133 2.73397 -0.88092
-2.19056 3.04599 -1.07009
-2.40838 2.71259 -1.3182
-0.580495 2.28672 -2.72188
-0.84842 2.56608 -2.59172
-1.63407 2.21734 -2.57007
-1.23549 2.42453 -2.62576
-1.33228 1.96336 -2.8191
-1.08758 2.84731 -2.36221
-1.32334 3.0794 -2.05598
-2.812 1.14051 -1.67083
-2.65327 1.43044 -1.93699
-2.60693 1.01616 -1.99907
-2.57488 2.28052 -1.57909
-2.64896 1.85793 -1.78554
-2.80964 1.95869 -1.34962
-2.08813 1.50669 -2.52913
-2.39596 1.69899 -2.19951
-2.06561 1.95027 -2.41185
-1.78652 2.88265 -1.94759
-1.95529 2.43424 -2.2151
-2.22541 2.60517 -1.78056
-2.27484 2.9768 -0.159446
-2.74651 2.39752 -0.638906
-2.54014 2.71229 -0.398089
-2.49578 2.65509 0.0988873
-2.64393 2.312 0.329101
-2.87058 0.803421 -1.42966
-2.95591 1.18652 -1.2706
-3.08164 1.17695 -0.364189
-3.0578 1.1882 -0.806438
-3.05805 0.763952 -0.556659
-2.97209 1.58756 -1.09104
-2.90533 1.98563 -0.889606
-2.71355 1.12256 0.891123
-2.61068 0.638777 1.09497
-2.73584 1.90448 0.546595
-2.75603 1.52578 0.717598
-2.96234 0.720065 0.284444
-2.9038 1.1583 0.485929
-3.0251 1.16532 0.0925313
-2.93697 1.99076 -0.378144
-3.02417 1.57267 -0.132814
-2.87477 1.96343 0.108068
1.86198 3.20504 0.491074
1.99632 3.26439 0.0689
1.34598 3.0292 1.38415
1.61835 3.12443 0.949781
2.41094 2.63313 0.572729
2.06453 2.8931 0.755631
2.22116 2.54415 0.981409
0.302362 2.19576 2.50146
0.578696 2.43875 2.32194
1.31296 2.07329 2.17266
0.961199 2.27144 2.27248
1.02907 1.85339 2.41389
0.834886 2.6713 2.07702
1.07494 2.86677 1.77962
2.52928 1.10037 1.25086
2.3198 1.36115 1.4879
2.26001 0.921244 1.58727
2.32295 2.13112 1.19575
2.34767 1.75431 1.356
2.60092 1.86306 0.977861
1.69619 1.40255 2.09467
2.02147 1.60119 1.75155
1.68696 1.83224 1.98812
1.50229 2.66836 1.64274
1.62 2.25648 1.84875
1.94039 2.40904 1.42535
-0.350736 1.78027 2.65793
-0.00205691 1.977 2.61469
-1.06678 1.3678 2.54344
-0.717055 1.58542 2.62848
-0.00864419 1.00114 2.87468
-0.347228 1.28007 2.79043
-0.345574 0.773729 2.89962
-2.23818 0.335056 1.6553
-1.96663 0.596897 1.96309
-1.40592 0.0723213 2.47547
-1.67862 0.31075 2.24979
-1.7121 -0.206717 2.18094
-1.68021 0.863589 2.21371
-1.40239 1.1094 2.40321
-0.0062626 -0.689854 2.75099
-0.368329 -0.500082 2.79586
-0.327365 -0.914827 2.63032
-0.358979 0.313822 2.93788
-0.370247 -0.083769 2.90127
-0.0171424 0.129928 2.95394
-1.08529 -0.594684 2.52977
-0.735904 -0.326784 2.75927
-1.07393 -0.150345 2.65429
-1.07756 0.805179 2.64354
-1.07768 0.306069 2.69484
-0.715837 0.532386 2.84012
-2.67855 0.0890626 0.943561
-2.47353 0.156614 1.32096
-2.92925 0.138854 0.142258
-2.83642 0.0970592 0.535107
-2.5824 -0.791456 1.0442
-2.72808 -0.456086 0.795615
-2.762 -0.838498 0.644367
-2.71801 0.454778 -1.60678
-2.86444 0.338478 -1.16086
-2.81251 -0.798618 -0.693663
-2.79816 -0.308551 -0.873294
-2.65292 -0.733427 -1.10143
-2.94177 0.241446 -0.741543
-2.96133 0.187272 -0.32761
-2.05966 -2.07402 0.215573
-2.37905 -1.81511 0.00289319
-2.05993 -2.07101 -0.203562
-2.74961 -1.18858 0.454053
-2.63251 -1.5123 0.242048
-2.51918 -1.47647 0.702588
-2.5503 -1.46746 -0.708963
-2.64314 -1.51003 -0.246219
-2.78007 -1.17509 -0.478139
-2.90848 -0.458669 -0.0476177
-2.89289 -0.854388 -0.254523
-2.87494 -0.868202 0.20318
-2.34218 0.813158 -2.27025
-2.55233 0.597197 -1.9546
-1.75743 1.29542 -2.75878
-2.0747 1.05815 -2.5446
-1.9547 0.0838975 -2.30728
-2.02906 0.578742 -2.46909
-1.69742 0.355935 -2.58629
-0.15146 2.05218 -2.7657
-0.657603 1.87694 -2.87547
-0.666964 1.10471 -2.92836
[...]
POINT_DATA 642
SCALARS Mean_Curvature double 1
LOOKUP_TABLE default
0.593493
0.791516
0.822962
0.738543
0.62071
0.687924
0.16332
0.280435
0.723374
0.26648
0.790153
0.374372
0.601997
0.58392
0.703873
0.686158
0.425342
0.853939
0.837771
0.920449
0.801832
0.647657
0.536661
0.715147
0.620248
0.85102
1.01988
0.985064
0.427642
0.456941
0.815071
1.02939
0.673529
0.430195
0.732735
0.67525
0.454654
0.72298
0.812045
0.0856371
0.844485
0.705286
0.656322
0.569171
0.54208
0.456424
0.586448
0.508794
0.807754
0.672746
0.662204
0.627471
0.666335
0.767613
0.752861
0.602819
0.609421
0.465294
0.695953
0.776549
0.93786
0.570337
0.675384
0.475776
0.442845
0.742872
0.710999
0.9251
0.797438
0.950889
0.71857
0.829825
0.753051
0.582189
0.836668
0.713193
0.250274
0.457579
0.664096
0.685872
0.685136
0.66832
0.490664
0.425707
0.310732
0.583058
0.3223
0.575853
0.810921
0.825927
0.645299
0.42052
0.45211
0.0312221
0.266545
0.768863
1.25388
0.737735
0.817821
0.683716
0.493485
1.00376
0.142986
0.684852
0.295184
0.868351
0.260895
0.810709
0.741954
0.859148
0.883453
0.931574
0.785292
0.819746
0.690771
0.326272
0.582001
0.433446
0.771659
0.820923
0.67234
0.671327
0.912639
0.583659
0.725886
0.580608
0.691457
0.696323
0.705556
0.771603
0.694778
0.706412
0.726914
0.387456
0.747095
0.86202
0.776428
0.180044
0.960833
0.206232
0.278893
0.586839
1.23038
0.652902
0.296368
0.378259
0.598218
0.782024
0.405923
0.441857
0.767669
0.938237
0.595652
0.934907
0.679245
0.734146
0.773715
0.394691
0.500967
0.862959
0.818746
0.667623
0.643286
0.364373
0.322849
0.466881
0.422806
0.640323
0.630127
0.562555
0.643996
0.30517
0.451513
0.22195
0.629856
0.532641
0.523779
0.566744
0.509039
0.495483
0.816148
0.731728
0.670254
0.703597
0.73506
0.765015
0.657755
0.668797
0.654814
0.573737
0.630462
0.642946
0.523034
0.561186
0.673199
0.596299
0.584599
0.57699
0.578295
0.779828
0.808401
0.73344
0.77555
0.738891
0.790687
0.753183
0.974628
0.36084
0.701648
0.559919
0.509294
0.462513
0.594932
0.550164
0.662183
0.703117
0.691878
0.644085
0.712291
0.655429
0.813925
0.796818
0.96851
0.643719
0.602806
0.877182
0.685675
0.523783
0.511635
0.959165
0.668311
0.666898
0.195205
0.213199
0.205453
0.586256
0.545164
0.721669
0.566117
0.511573
0.506838
0.562171
0.580575
0.668287
0.842042
0.669258
0.745957
0.857716
0.78908
0.815178
0.796086
0.566908
0.855888
0.697411
0.952468
1.08721
0.907218
0.92604
0.888276
0.88334
0.811553
0.794893
0.815712
0.755361
0.864577
0.850267
0.744407
0.698271
0.687744
0.723312
0.68593
0.655345
0.681647
0.737153
0.74606
0.593223
0.6321
0.712693
0.693492
0.628516
0.691662
0.646427
0.515855
0.3674
0.691529
0.624583
0.528499
0.631854
0.716518
0.780426
0.766121
0.800855
0.612306
0.715381
0.607604
0.468277
0.685345
0.608443
0.615323
0.673621
0.727883
0.675994
0.716231
0.641516
0.724747
0.688639
0.524682
0.476245
0.308628
0.600932
0.577584
0.735751
0.45108
0.449763
0.554934
0.617772
0.628866
0.47916
0.656671
0.679736
0.523516
0.571495
0.508209
0.566275
0.774556
0.352283
0.359894
0.661683
0.364426
0.404086
0.299909
0.516399
0.711302
0.734868
0.628892
0.866835
0.825755
0.892461
0.643481
0.752989
0.717543
0.5307
0.75937
0.776734
0.310977
0.338592
0.287181
0.30207
0.608555
0.434361
0.794383
0.608472
0.493444
0.857925
0.158405
0.657747
0.403831
0.163696
0.779571
0.750446
0.78565
1.13848
1.08865
1.03228
1.05276
1.08427
1.14717
0.362103
1.01768
0.97722
0.750379
0.736962
0.893028
0.797062
0.709228
0.721215
0.770952
0.334668
0.556282
0.378821
0.533655
0.494401
1.11666
1.19082
0.347551
-0.0846173
-0.19999
0.778755
0.179503
-0.0284057
0.353258
0.30803
0.340153
1.04135
0.853035
0.887301
0.811046
0.317208
0.900349
0.871959
0.993701
1.1241
1.04677
0.824199
0.778468
0.761534
0.786247
0.787489
0.741955
0.780358
0.805982
0.903558
0.833955
0.952884
0.930523
0.902701
0.964383
0.953404
0.783866
0.724373
0.732693
0.766426
0.766474
0.734333
0.7391
0.993461
0.781771
1.17008
0.708212
0.720106
0.747683
0.343871
0.402929
0.346662
0.574853
0.606181
0.439367
0.547829
0.595353
0.573551
0.434132
0.555629
0.675642
0.799553
0.990206
0.741824
0.567527
0.604085
0.567782
0.697971
0.648907
0.892296
0.697383
0.733035
0.691323
0.678338
0.623953
0.579306
0.581847
0.523344
0.622609
0.765885
0.402619
0.732587
0.738778
0.712107
0.806216
0.724257
0.764266
0.59873
0.550148
0.632845
0.659136
0.655009
0.703601
0.723185
0.512489
0.629275
0.788922
0.769036
0.652217
0.858253
0.756424
0.905559
0.790401
0.788218
0.710647
0.741823
0.789227
0.68131
0.732025
0.578104
0.79973
0.43777
0.752295
0.593526
0.514273
0.604999
0.650514
0.537527
0.646644
0.51843
0.62286
0.607199
0.753824
0.748587
0.74121
0.744958
1.05154
0.80788
1.00057
0.387605
0.811407
0.348741
0.771011
0.208925
0.943713
0.855639
0.594928
0.544983
0.667928
0.523164
0.313331
0.29271
0.470092
0.062435
0.245343
0.962802
0.830093
0.961475
0.820583
1.02654
1.16762
1.23322
1.1242
0.688732
0.550941
0.604598
0.567568
0.680179
0.174884
0.309854
0.34528
0.32424
0.554987
0.383939
0.6726
0.32177
0.250377
0.461107
0.351353
0.701117
0.74109
0.646484
0.704259
0.808693
0.84783
0.308187
0.489721
0.3927
0.304149
0.579594
0.666558
0.749489
0.617375
0.588611
0.510211
0.693904
0.291111
0.732818
0.727898
0.681876
0.703344
0.760389
0.945403
0.517194
0.351146
0.484666
0.874922
0.692893
0.368372
0.855608
0.463892
0.456092
0.406828
0.883048
0.75374
0.921329
0.849148
0.68215
0.963278
0.881884
0.566479
0.743945
1.01394
0.688803
0.663169
0.587961
0.679585
-0.00974514
-0.0361402
0.144687
0.9199
0.842252
0.96826
0.864999
0.747084
0.584684
0.661952
0.809462
0.921342
0.0488518
0.434382
0.383374
0.22132
0.224321
0.386067
0.885341
0.446766
0.508323
0.483362
0.274393
0.451617
0.50668
0.666569
0.806341
0.759201
0.793802
0.799161
0.797022
0.809126
0.879218
0.753268
0.787548
0.754182
0.720317
0.682216
0.797387
0.851257
0.875116
0.664758
0.76709
SCALARS CoVolArea double 1
LOOKUP_TABLE default
0.119497
0.100715
0.108
0.107315
0.114453
0.0901628
0.131478
0.156945
0.0949977
0.12929
0.101867
0.136713
0.192733
0.184283
0.184554
0.189431
0.223224
0.208189
0.210576
0.199327
0.206455
0.225209
0.187195
0.185859
0.199231
0.154202
0.172819
0.163119
0.219241
0.228149
0.20334
0.163387
0.160792
0.204962
0.198583
0.205889
0.235982
0.194751
0.180558
0.257937
0.168689
0.185402
0.195416
0.216708
0.216168
0.203184
0.200606
0.185258
0.15814
0.185982
0.166955
0.215621
0.195977
0.16126
0.189234
0.205301
0.220592
0.21774
0.222968
0.188928
0.187405
0.240825
0.20274
0.258267
0.223393
0.224509
0.186689
0.164849
0.222689
0.180159
0.227806
0.179758
0.202807
0.20527
0.201255
0.179114
0.233369
0.227193
0.186128
0.163314
0.186813
0.159902
0.208158
0.208142
0.209584
0.178088
0.22598
0.197237
0.155136
0.165943
0.189879
0.212066
0.202006
0.263596
0.221825
0.193325
0.16955
0.193716
0.187442
0.202984
0.228999
0.149699
0.200907
0.181375
0.293061
0.206831
0.188143
0.188132
0.225107
0.159746
0.211835
0.164538
0.179546
0.197443
0.195563
0.208733
0.190703
0.213652
0.182008
0.181239
0.1813
0.227752
0.186911
0.199956
0.218552
0.202487
0.231067
0.200448
0.205173
0.180522
0.191675
0.218589
0.176162
0.227285
0.174844
0.188752
0.178932
0.186679
0.162825
0.236011
0.211585
0.192154
0.151822
0.178841
0.266285
0.229142
0.193479
0.169565
0.21186
0.209581
0.208698
0.197552
0.180477
0.19207
0.214155
0.213776
0.173309
0.244646
0.21675
0.17647
0.194164
0.209487
0.178037
0.21768
0.197503
0.216111
0.210468
0.188423
0.190869
0.207898
0.197422
0.193435
0.195129
0.182076
0.185177
0.184268
0.186502
0.182276
0.190251
0.208862
0.132936
0.157808
0.138847
0.18484
0.16576
0.166994
0.173321
0.167834
0.181867
0.226166
0.207075
0.212445
0.214798
0.17979
0.198017
0.204509
0.196053
0.207577
0.225548
0.134698
0.156437
0.188399
0.167828
0.170032
0.166178
0.186049
0.159956
0.215045
0.169254
0.231973
0.223241
0.220096
0.205588
0.218239
0.203272
0.215896
0.21739
0.233414
0.19065
0.162032
0.208245
0.191342
0.202282
0.206218
0.231293
0.153008
0.182374
0.235512
0.203644
0.197424
0.209639
0.227869
0.199294
0.245501
0.225577
0.235177
0.232611
0.196635
0.202924
0.24178
0.244426
0.247698
0.270944
0.260145
0.180176
0.161496
0.217162
0.195066
0.193659
0.192823
0.21395
0.173007
0.176039
0.221867
0.186438
0.177607
0.184637
0.210204
0.148522
0.177168
0.151157
0.216252
0.195342
0.194316
0.188065
0.195894
0.222193
0.248903
0.25302
0.248313
0.186537
0.212046
0.194142
0.184809
0.186939
0.165929
0.181285
0.18995
0.190222
0.214928
0.192052
0.212198
0.194509
0.205352
0.181553
0.172652
0.21862
0.183289
0.184164
0.220062
0.199695
0.202042
0.197438
0.156398
0.212119
0.216349
0.187031
0.202027
0.208091
0.139259
0.158928
0.180734
0.164701
0.168576
0.16732
0.189038
0.154637
0.181759
0.185724
0.198379
0.179276
0.165833
0.196013
0.193145
0.19567
0.225409
0.216495
0.234704
0.173811
0.144784
0.202332
0.188768
0.171657
0.190198
0.179258
0.203343
0.223299
0.19125
0.209951
0.206494
0.207461
0.202732
0.149418
0.165408
0.167336
0.156866
0.153083
0.144744
0.188349
0.168042
0.179867
0.211851
0.188278
0.191649
0.24114
0.20383
0.263011
0.246183
0.159711
0.200795
0.162233
0.194487
0.240281
0.178921
0.236053
0.2021
0.237821
0.265888
0.166443
0.19151
0.164623
0.165805
0.183976
0.180405
0.186315
0.186252
0.171296
0.234902
0.179508
0.173869
0.179047
0.163403
0.186069
0.181392
0.215176
0.186862
0.196142
0.222103
0.182929
0.181563
0.167879
0.20915
0.148727
0.168258
0.190426
0.27815
0.273124
0.201467
0.217338
0.220624
0.224458
0.236014
0.200848
0.177343
0.171323
0.182452
0.197275
0.220304
0.204558
0.183719
0.159382
0.168983
0.188446
0.156412
0.188497
0.218655
0.20166
0.194764
0.200667
0.212591
0.138571
0.161062
0.13833
0.191712
0.172527
0.160398
0.182144
0.180722
0.213596
0.240976
0.243934
0.234986
0.159367
0.187535
0.164846
0.179449
0.184756
0.163948
0.196238
0.193952
0.201026
0.197291
0.201633
0.199156
0.199096
0.18903
0.197763
0.179731
0.18608
0.179262
0.170402
0.177233
0.160374
0.190986
0.171666
0.182117
0.189797
0.173777
0.193019
0.199773
0.200383
0.205047
0.194316
0.162327
0.21267
0.204155
0.203041
0.20656
0.236266
0.180546
0.196909
0.21486
0.202144
0.192763
0.193208
0.206491
0.1645
0.19858
0.166544
0.239381
0.215056
0.220249
0.203869
0.209422
0.219082
0.239138
0.243411
0.252227
0.178607
0.158925
0.220815
0.18198
0.17791
0.177779
0.191016
0.162639
0.190856
0.202692
0.193779
0.193072
0.203751
0.232049
0.156941
0.196176
0.153786
0.201482
0.202592
0.172093
0.178985
0.201215
0.205267
0.246898
0.241267
0.23736
0.181074
0.158239
0.188486
0.18304
0.165712
0.180686
0.175502
0.186988
0.152226
0.197755
0.151363
0.215313
0.153523
0.176091
0.16635
0.214546
0.15012
0.185313
0.229115
0.21533
0.222966
0.237574
0.236877
0.190751
0.192256
0.188878
0.175982
0.161514
0.164037
0.162602
0.151538
0.147904
0.214374
0.230416
0.231777
0.18094
0.26446
0.218191
0.235257
0.176459
0.176418
0.226672
0.185116
0.240035
0.231451
0.202977
0.24467
0.18138
0.167871
0.190934
0.174837
0.154283
0.157528
0.224947
0.2126
0.214627
0.212496
0.201419
0.169944
0.176986
0.183201
0.182062
0.206293
0.201351
0.228776
0.19795
0.195007
0.211815
0.202616
0.196622
0.18908
0.203135
0.202222
0.199846
0.193473
0.200461
0.213572
0.168508
0.17641
0.201649
0.200936
0.213071
0.200491
0.198887
0.156413
0.198837
0.16693
0.179236
0.217039
0.190362
0.197563
0.198219
0.198493
0.210696
0.229081
0.237489
0.234293
0.223454
0.185733
0.222446
0.212531
0.218185
0.161065
0.220198
0.171072
0.158031
0.160767
0.265307
0.229728
0.243702
0.241068
0.259578
0.242873
0.17101
0.197562
0.231968
0.232814
0.228443
0.238475
0.197754
0.158372
0.172149
0.15697
0.155857
0.182526
0.163222
0.197455
0.171755
0.173502
0.18257
0.181948
0.199717
0.190584
0.190136
0.204469
0.205479
0.222238
0.215849
SCALARS SignedDistance double 1
LOOKUP_TABLE default
2.2421
2.03102
1.69539
1.85336
2.19843
2.29272
3.41308
2.40671
2.57438
2.78488
2.49435
2.64049
2.35707
2.49583
2.10808
2.10948
2.1449
2.03781
2.00914
2.04452
1.86742
2.63266
2.53851
2.25468
2.47916
2.42046
2.52261
2.29501
2.79622
3.21854
1.77997
2.42094
2.44756
2.58235
1.90823
1.93759
2.3118
2.39248
2.40101
3.23421
2.72595
2.56883
2.21337
2.29024
2.19132
2.67048
2.44225
2.6012
2.14234
2.26871
2.3698
2.04287
2.16333
2.15539
2.01919
2.19192
2.06677
2.2835
1.82322
2.0276
1.83649
1.92511
2.32602
2.17237
2.38097
1.66542
1.94199
2.31749
1.82507
2.11602
1.71596
2.17105
2.04051
2.54836
2.16007
2.38618
2.73009
2.35255
2.10135
2.37584
2.28634
2.53235
2.51051
2.70321
2.66438
2.51062
2.61817
2.67909
2.13614
2.30559
2.23677
2.5512
2.53437
2.96563
2.70475
1.82252
2.23518
1.8947
2.57653
2.77958
2.51421
2.62459
3.30344
3.09433
3.18729
2.02341
2.58498
1.79046
1.6661
2.43479
1.93402
2.16862
1.99242
2.09598
1.84423
2.6839
2.41862
2.61945
2.19264
2.31309
2.36824
1.93944
1.87504
2.37966
2.12901
1.97215
1.99651
1.79872
2.21442
1.99742
1.94603
2.33181
2.89043
2.7678
2.94201
2.44237
2.18386
3.25408
2.8846
2.98216
2.94984
2.908
2.4847
2.52654
2.80529
2.6802
2.70079
2.38881
2.77207
2.67598
2.02223
2.36202
2.46382
2.84186
2.26884
2.96794
2.84662
3.04221
2.71654
2.30137
2.15648
1.97802
2.19918
2.31778
2.32453
2.3748
2.33604
2.27058
2.13144
2.23443
2.18497
2.7139
2.65082
2.74166
2.45746
2.54536
2.57236
2.46685
2.53889
2.44603
2.21622
2.26645
2.3139
2.18048
2.21059
2.11059
2.43145
2.30989
2.36497
2.35879
2.34295
2.25766
2.20574
2.26261
2.0641
2.09607
2.14465
2.12047
2.08051
2.22406
2.12012
2.04607
2.06788
2.11469
2.04971
2.04163
2.16223
2.3085
2.20538
2.09063
2.17507
2.17519
2.15615
2.14319
2.06342
2.01854
2.01922
2.01619
2.06744
2.16429
2.03812
1.96172
1.92789
1.92558
1.93671
1.9162
2.08775
2.00494
2.00404
1.90488
2.00285
2.06261
2.4615
2.39709
2.40322
2.04434
2.23312
2.16086
2.21774
2.2487
2.0802
2.03141
2.02401
1.96323
1.94433
2.07662
1.72499
1.78047
1.85446
1.78195
1.72033
2.49309
2.26464
1.875
2.06104
2.12749
2.06555
1.88545
2.30782
2.08005
2.33103
1.77337
1.85312
1.97789
2.07525
1.90707
1.82357
1.68571
1.71583
1.66006
2.04679
1.92572
1.9511
2.10145
2.20774
2.54967
2.35015
2.3812
2.33348
2.57058
2.1543
1.97655
2.68212
2.66371
2.35475
2.49972
2.73162
2.57688
2.47583
2.0486
2.25796
2.20584
2.23945
2.06428
2.20995
2.30356
2.15692
2.26809
2.32451
2.31265
2.25878
2.41696
2.3237
2.45781
2.2071
2.1853
2.68611
2.64236
2.78153
2.4182
2.52581
2.38321
2.61623
2.60192
2.52689
2.29254
2.40323
2.42284
2.43608
2.36426
2.5623
2.5063
2.63553
2.61295
2.53355
2.59838
2.67459
2.5246
2.65508
2.61374
2.73611
2.64676
2.12837
2.12633
2.16819
2.32412
2.18345
2.24564
2.34384
2.21883
2.35508
2.68525
2.48176
2.4797
2.60081
2.58633
2.72228
2.65218
2.4668
2.52696
2.46179
2.74181
2.79979
2.6611
2.79751
2.80814
2.84808
2.81511
1.69218
1.75729
1.72854
2.24434
1.96773
2.05523
2.18744
2.02098
2.35428
2.6188
2.52786
2.45365
2.45937
2.60761
2.30575
2.3494
2.98565
2.65214
2.87368
2.4253
2.55643
2.84322
2.70242
2.6477
2.44038
2.34518
3.34153
3.39876
3.44966
3.13233
3.36606
3.26161
2.9693
3.16187
2.99672
2.57677
2.84291
2.84329
2.47197
2.42039
1.96716
2.20146
2.51109
2.33608
2.22858
1.89964
1.75346
1.68095
1.6879
1.75031
1.7013
1.75991
2.50382
2.27211
2.39429
2.16514
2.19303
2.40212
1.94003
2.02453
1.78904
1.78306
1.73623
1.92805
1.84982
1.89072
1.79998
2.28363
2.04996
2.24037
1.86298
1.93524
1.97839
2.6949
2.64142
2.67528
2.48623
2.56121
2.66784
2.50196
2.50178
2.40585
2.3532
2.42065
2.26101
2.06652
2.22315
2.01482
2.47781
2.46532
2.46379
2.29826
2.3506
2.18323
1.85857
1.80855
1.83955
1.85366
2.07255
1.98699
2.10294
2.2904
2.33428
2.10362
2.31088
2.12389
2.10089
1.93324
1.83272
1.87884
1.74821
2.20385
1.99705
2.17997
1.84992
1.85599
1.89585
1.95554
2.14807
2.1469
1.85222
1.88471
2.22666
2.02485
2.16713
2.04534
2.28336
1.78904
1.90216
2.3277
2.09352
2.13363
2.12102
2.39452
3.1856
3.08602
3.23627
2.52812
2.78076
2.64636
2.66633
2.87246
2.60581
2.48765
2.60604
2.46984
2.06313
1.97022
2.36483
2.19402
2.46121
2.30171
2.58605
3.32482
3.1005
3.09335
3.10114
3.2184
2.86417
2.60675
2.74122
2.95031
2.71767
2.85957
2.96089
2.83061
3.11913
3.11391
3.06841
2.65492
2.94258
2.7548
2.04306
2.59807
2.32763
2.19579
2.44043
2.54757
2.73485
2.7814
2.73974
2.53368
2.90541
2.74519
2.69863
2.77518
2.55497
2.62882
2.62375
2.76285
2.82
2.68819
2.72498
2.63395
2.20696
2.45728
2.32311
2.24718
2.38046
2.75975
2.661
2.76178
2.73522
2.63518
2.432
2.58914
2.60381
2.50241
2.57349
2.57385
2.74175
2.55652
1.77479
1.95798
1.86578
1.91683
2.14053
2.34533
2.52821
2.44167
2.28639
2.08677
2.5889
2.37135
2.49103
2.56846
2.57183
2.1712
2.42992
2.275
3.13083
2.54223
2.84888
3.1001
3.14561
1.87854
2.38137
2.0685
2.06587
2.2711
2.95836
3.126
3.10612
2.97027
2.72898
2.54729
2.63398
2.89374
2.67324
3.08428
2.86865
2.63337
2.626
3.36334
2.87296
3.07832
3.31528
3.25725
2.4389
2.69447
2.62509
2.54697
2.68916
3.05119
2.85559
2.88994
2.58796
2.41471
2.49248
2.40984
2.24087
2.3488
1.97321
2.14982
2.33668
2.35836
1.95521
2.09513
2.01442
1.89223
1.87881
2.19314
2.01013
2.08843
