# vtk DataFile Version 4.2
vtk output
ASCII
DATASET POLYDATA
POINTS 642 double
-1.26314 2.65768 -0.316085
1.35031 2.72471 -0.273911
-1.4921 -1.66427 0.0162168
1.26621 -1.55662 0.0500436
-0.0138064 -0.639728 1.75596
-0.00408372 1.85929 1.55715
-0.105581 -0.678131 -1.14457
-0.199066 2.00216 -1.7937
1.8153 1.14166 -1.06919
1.59308 0.735998 0.773395
-1.88907 0.997943 -1.28714
-1.60265 0.584426 0.838847
-1.7081 1.8191 0.321139
-0.845787 1.36774 1.46912
-0.565813 2.47965 0.975469
0.5944 2.49168 0.965508
-0.00976035 3.00622 -0.168799
0.967741 2.70282 -1.23883
-0.956125 2.70428 -1.31368
-1.37228 1.60877 -1.92227
-1.97429 2.01178 -0.968662
-2.06017 0.826393 -0.235318
0.831902 1.41043 1.43893
1.77065 1.87201 0.333225
-0.858666 -0.235063 1.59301
-0.0348964 0.451137 1.91022
-1.71056 -0.819949 -0.475173
-1.70661 -0.884885 0.466219
-0.239269 1.05387 -1.86377
-1.22603 0.293285 -1.41822
2.04987 2.07425 -0.897249
1.32478 1.72199 -1.61321
1.51834 -0.797102 0.504143
0.812367 -0.251222 1.53109
0.708508 -1.42845 1.09586
-0.789631 -1.44886 1.09477
-0.00787304 -1.81844 0.0562249
-0.862426 -1.34576 -0.858936
0.719134 -1.32776 -0.778823
1.01563 0.164492 -1.21112
1.47239 -0.73033 -0.376189
2.01404 0.981716 -0.166542
-1.55504 2.30451 0.00042439
-1.14807 2.21224 0.740154
-0.920342 2.64133 0.362959
-1.26786 1.00378 1.19471
-1.26938 1.64994 1.01688
-1.70019 1.27155 0.600803
-0.244019 2.1937 1.35724
-0.745938 1.99125 1.27831
-0.390492 1.67099 1.57856
-0.330547 2.84296 0.491531
-0.690477 2.91256 -0.234959
0.248332 2.1967 1.35555
0.00308875 2.58578 1.0632
0.800711 2.91829 -0.21655
0.352673 2.83834 0.490152
1.03702 2.65844 0.302275
-0.463659 3.00125 -0.744608
-1.1694 2.76911 -0.799351
1.24893 2.82119 -0.724544
0.470715 2.9801 -0.722502
-0.649744 2.36432 -1.63212
-0.0459865 2.77996 -1.21692
0.536025 2.38507 -1.53762
-1.67212 2.60696 -1.27657
-1.68049 2.44961 -0.638195
-0.92263 1.8534 -1.93237
-1.24977 2.24012 -1.76192
-2.00728 1.44391 -1.21939
-1.91378 1.90713 -1.6644
-1.74976 1.29845 -1.65062
-1.94712 1.9578 -0.29516
-2.05242 0.913124 -0.806438
-2.11335 1.44333 -0.592462
-2.00081 1.38313 0.00937048
-1.88769 0.692969 0.32536
1.23525 2.23824 0.671188
1.61429 2.3958 0.0289272
0.378623 1.68562 1.56898
0.756223 2.01208 1.2624
1.74644 1.34389 0.552975
1.33119 1.68509 0.938794
1.29594 1.05935 1.12153
-0.398546 0.872301 1.76679
-0.0113958 1.27069 1.74244
-1.28075 0.0971176 1.23464
-0.812556 0.498464 1.62091
-0.0336257 -0.0997839 1.91042
-0.410966 0.146297 1.8803
-0.443055 -0.45991 1.77093
-1.85735 -0.363432 0.178063
-1.67011 -0.268196 0.692581
-1.78001 0.14994 -0.872293
-1.87585 -0.231446 -0.338349
-1.70362 -1.33179 0.256299
-1.81275 -0.934293 -0.0305734
-1.7005 -1.28569 -0.251394
-1.35817 1.07602 -1.81201
-1.61625 0.717164 -1.4473
-0.253279 1.54884 -1.91034
-0.97375 1.36489 -1.95569
-0.743734 -0.326108 -1.26298
-0.908078 0.80824 -1.76754
-0.157882 0.371082 -1.58951
1.23131 2.24533 -1.57155
0.790153 1.91546 -1.71521
1.78303 2.56866 -0.559421
1.69902 2.63119 -1.22693
1.65317 1.44122 -1.38203
1.74059 1.92685 -1.39356
1.95222 1.56094 -1.04213
1.44638 -1.22441 0.284528
1.22137 -1.16198 0.816054
1.1233 -1.6386 0.560248
1.24149 0.134696 1.18882
1.26613 -0.602968 1.0521
1.55902 -0.10698 0.717783
0.330042 -1.09828 1.45446
0.817671 -0.927043 1.33014
0.385802 -0.486166 1.7261
0.414985 -1.73386 0.638652
0.773078 -1.73125 0.0296738
-0.359263 -1.08445 1.4645
0.00577519 -1.51511 1.16427
-0.856971 -1.75767 0.0292271
-0.462896 -1.75243 0.628867
-1.22718 -1.66301 0.548996
0.443141 -1.67599 -0.444608
1.04353 -1.52137 -0.386515
-1.22161 -1.57443 -0.451708
-0.506523 -1.68581 -0.476075
0.339397 -1.03659 -1.00548
-0.0482536 -1.40459 -0.850373
-0.510434 -1.02777 -1.03516
1.17328 -1.11305 -0.597851
1.40898 -1.20436 -0.163668
0.5018 -0.404974 -1.17308
0.83438 -0.858007 -0.921845
1.66382 0.379567 -0.753654
1.26598 -0.415012 -0.806753
1.51744 0.815418 -1.21337
1.56069 -0.839657 0.0657363
1.98387 1.07216 -0.674694
1.7611 0.0802288 -0.255455
1.71969 -0.109709 0.22239
1.86786 0.88565 0.3182
0.339273 0.148146 1.857
0.791309 0.534427 1.5688
0.347833 0.914108 1.75104
-1.36778 -1.20088 0.811102
-0.902272 -0.951154 1.32775
-1.37559 -0.679838 1.01842
-1.04476 -0.842727 -1.01428
-1.42886 -1.13777 -0.712922
-1.46631 -0.456138 -0.916107
1.25862 1.17048 -1.52674
0.542685 0.714022 -1.62712
0.706861 1.39219 -1.76009
2.00623 1.45131 0.0644112
2.08772 1.53401 -0.525131
2.01645 2.03578 -0.246864
-1.40591 2.52631 -0.183477
-1.25334 2.4735 0.185478
-1.12376 2.65797 -0.0492526
-1.4566 2.01503 0.525744
-1.37169 2.25284 0.369784
-1.65241 2.07177 0.163774
-0.742796 2.57852 0.69478
-1.03984 2.44044 0.577018
-0.850099 2.37035 0.881522
-1.47129 0.769443 0.997338
-1.48472 1.15802 0.924138
-1.64328 0.910525 0.740523
-1.05396 1.52505 1.27227
-1.27497 1.35583 1.11884
-1.06163 1.19705 1.35367
-1.72228 1.55203 0.465871
-1.50462 1.4709 0.80948
-1.50152 1.74229 0.679108
-0.0988806 2.0059 1.48517
-0.326252 1.95343 1.47612
-0.158044 1.79242 1.57809
-0.659867 2.25561 1.14147
-0.492681 2.11655 1.33009
-0.396729 2.35044 1.19613
-0.620456 1.5299 1.54211
-0.572207 1.84012 1.44772
-0.809645 1.69454 1.3852
-1.22807 1.94119 0.891576
-1.01371 1.83118 1.17443
-0.942225 2.11852 1.04302
-0.802785 2.80409 0.0703583
-1.01752 2.78222 -0.284706
-0.458137 2.67111 0.761724
-0.624381 2.75824 0.447016
-0.378156 2.97891 -0.199844
-0.501121 2.89758 0.127411
-0.182672 2.94657 0.163277
0.0939264 2.00702 1.48455
-0.00207674 2.21692 1.36763
0.305613 2.57064 1.04338
0.139316 2.4112 1.23257
0.412721 2.35724 1.1906
-0.137239 2.41183 1.23805
-0.29198 2.56747 1.05061
1.15889 2.80316 -0.262477
0.928994 2.80905 0.0444174
1.25238 2.70476 -0.0690882
0.191116 2.95064 0.173682
0.551955 2.90169 0.136056
0.400202 2.98032 -0.172946
0.796354 2.5948 0.673616
0.682899 2.76676 0.434344
0.487588 2.6794 0.756377
-0.15379 2.72704 0.80487
0.167863 2.72915 0.803684
0.00599733 2.86442 0.5105
-0.925392 2.88267 -0.529943
-1.22804 2.71702 -0.523374
-0.235915 3.01745 -0.468588
-0.584508 2.98806 -0.498012
-1.08749 2.78486 -1.06531
-0.833926 2.91759 -0.785061
-0.720233 2.88414 -1.04358
1.32317 2.78409 -0.454014
1.04564 2.88688 -0.485615
0.745236 2.87328 -0.99758
0.91424 2.91377 -0.740553
1.13163 2.79249 -0.989302
0.652099 2.98171 -0.46893
0.20852 3.01776 -0.453126
-0.425176 2.16319 -1.74355
-0.102189 2.40523 -1.55958
0.161013 2.17671 -1.67816
-0.55879 2.76734 -1.27562
-0.363018 2.60671 -1.42942
-0.810334 2.557 -1.50797
0.774729 2.55426 -1.41823
0.247511 2.60129 -1.38412
0.51572 2.75898 -1.22703
-0.0304585 2.99243 -0.722706
0.228939 2.91712 -0.989094
-0.281533 2.92524 -1.00284
-1.45199 2.63066 -0.750749
-1.45021 2.57663 -0.456439
-1.29648 2.65649 -1.31028
-1.40909 2.67812 -1.03764
-1.89329 2.28836 -0.805356
-1.69744 2.53506 -0.947606
-1.91699 2.33211 -1.13588
-0.59537 1.94917 -1.86369
-0.818698 2.12161 -1.821
-1.33611 1.9104 -1.89182
-1.08516 2.03511 -1.87786
-1.1481 1.7397 -1.95474
-0.978237 2.3238 -1.72216
-1.1253 2.51118 -1.55644
-1.94938 1.18282 -1.27732
-1.90339 1.3836 -1.46029
-1.84614 1.12865 -1.44196
-1.94037 1.9731 -1.29826
-1.94837 1.66767 -1.41668
-2.01811 1.71541 -1.11358
-1.58848 1.45856 -1.81686
-1.80446 1.57671 -1.65987
-1.61475 1.74538 -1.81649
-1.46152 2.44256 -1.55706
-1.57922 2.101 -1.74697
-1.82232 2.27668 -1.49056
-1.64632 2.38096 -0.31731
-2.02815 2.01824 -0.626814
-1.88779 2.24417 -0.461
-1.77808 2.14372 -0.147398
-1.8455 1.89154 0.0070542
-1.96786 0.967751 -1.10918
-2.04721 1.20589 -1.02444
-2.1121 1.16079 -0.41194
-2.10911 1.18876 -0.705059
-2.08147 0.874607 -0.512666
-2.08366 1.46336 -0.915842
-2.07081 1.72761 -0.787729
-1.82318 1.02586 0.439092
-1.73677 0.61949 0.629571
-1.88105 1.61319 0.158238
-1.87463 1.34263 0.290559
-1.98364 0.766793 0.0336967
-1.96596 1.0947 0.145199
-2.06158 1.13012 -0.125363
-2.05782 1.70628 -0.449982
-2.08489 1.41851 -0.282443
-1.993 1.66785 -0.13864
1.36079 2.53882 0.145863
1.46643 2.61339 -0.154785
0.89614 2.39149 0.858435
1.14059 2.46598 0.508255
1.71737 2.14409 0.194713
1.47029 2.31181 0.328608
1.55001 2.06043 0.476675
0.150321 1.79549 1.57547
0.327356 1.95911 1.47122
0.804006 1.72872 1.36041
0.569411 1.85839 1.43351
0.600592 1.56228 1.52427
0.50502 2.1256 1.32417
0.683601 2.26923 1.13115
1.67485 1.03804 0.673038
1.54579 1.22688 0.830331
1.48791 0.872714 0.910565
1.58915 1.7822 0.612217
1.58249 1.51805 0.72407
1.7782 1.60483 0.446952
1.06967 1.23676 1.30461
1.32417 1.39868 1.0379
1.06525 1.56598 1.22727
0.977155 2.14322 1.01807
1.03314 1.86356 1.13826
1.30154 1.96849 0.820236
-0.201407 1.48672 1.67819
-0.00604216 1.64929 1.63857
-0.63558 1.15791 1.63065
-0.417932 1.32777 1.67092
-0.0241048 0.817711 1.8291
-0.20205 1.06126 1.77039
-0.200964 0.620722 1.86654
-1.47702 0.35941 1.0152
-1.26696 0.559707 1.24339
-0.82079 0.119138 1.64891
-1.03155 0.312264 1.47146
-1.06477 -0.0963575 1.43086
-1.03992 0.773645 1.42328
-0.843667 0.966047 1.54888
-0.024813 -0.410222 1.84481
-0.226376 -0.262825 1.87566
-0.19664 -0.564799 1.78597
-0.211548 0.298677 1.92023
-0.222947 0.0319524 1.91878
-0.0364743 0.173779 1.93459
-0.656546 -0.35299 1.70783
-0.432918 -0.14138 1.85012
-0.626568 -0.026065 1.77953
-0.609915 0.676899 1.71407
-0.60791 0.288208 1.78736
-0.39719 0.446855 1.85891
-1.77644 0.155849 0.528564
-1.63542 0.221338 0.790001
-1.94394 0.239586 -0.0155875
-1.88047 0.172818 0.248346
-1.69276 -0.622456 0.57969
-1.78887 -0.346719 0.430569
-1.78889 -0.683034 0.321981
-1.8634 0.748467 -1.16013
-1.93516 0.575905 -0.865919
-1.7903 -0.598207 -0.388223
-1.8406 -0.0868973 -0.576932
-1.71625 -0.465156 -0.614659
-1.95971 0.440414 -0.576876
-1.97448 0.335704 -0.302831
-1.71266 -1.65085 0.147175
-1.74558 -1.34169 0.00143653
-1.65809 -1.56917 -0.116987
-1.78853 -0.930976 0.207235
-1.78544 -1.1245 0.106022
-1.71728 -1.10263 0.362953
-1.71968 -1.05984 -0.368258
-1.78286 -1.10677 -0.136217
-1.78483 -0.897815 -0.254599
-1.88384 -0.332473 -0.0794411
-1.83204 -0.6821 -0.161573
-1.83534 -0.708873 0.0719021
-1.69225 1.03066 -1.58153
-1.78942 0.887876 -1.37109
-1.37705 1.34756 -1.89253
-1.55486 1.19153 -1.76654
-1.43131 0.532063 -1.46306
[...]
POINT_DATA 642
SCALARS Mean_Curvature double 1
LOOKUP_TABLE default
0.77754
1.01958
1.73015
0.418418
1.26139
1.09779
-0.0490825
0.517489
0.981811
0.473271
0.982943
0.547266
0.767439
0.784818
0.942674
0.984147
0.640636
0.954658
0.999778
1.69206
0.105513
0.993776
0.709674
1.02427
0.869473
1.41418
0.873698
0.791096
0.650758
0.198855
1.45926
1.30372
1.01192
0.434672
1.2219
1.55393
0.717069
1.71849
1.64987
0.384742
0.827938
1.05037
0.666973
0.80677
0.836051
0.500917
0.750471
0.613336
1.04897
0.998386
0.935182
1.09523
0.612132
1.05884
1.33185
0.776825
0.915696
0.725144
1.52825
0.484586
0.786987
0.811031
0.039629
0.714961
0.433705
3.69889
0.434518
1.20742
1.37227
1.00517
4.16035
1.71824
0.885964
0.981566
1.12434
0.995576
0.659231
0.629816
1.02452
0.958776
1.02177
0.741049
0.639298
0.565988
0.669836
1.01854
0.458918
0.417979
1.19532
1.38704
1.25236
0.755236
0.582574
0.712521
0.794899
1.09935
1.09945
1.74552
1.42765
0.952624
0.763165
1.16212
0.315741
0.357627
0.371343
1.60039
0.778576
1.80967
3.78973
1.27484
1.37911
1.18414
1.81552
0.955684
3.47466
0.482492
0.941231
0.621112
1.0197
0.943367
1.10559
0.467458
0.413534
0.477014
1.29604
0.76743
0.967035
2.60839
1.12435
1.94352
1.41386
1.03605
0.725922
1.3096
0.514972
1.33734
1.69768
0.292478
0.623986
0.259628
0.686719
0.846121
0.901473
1.0238
0.803047
0.660183
0.779499
1.23987
0.329823
0.689457
0.905479
0.864509
0.687107
0.678407
1.72941
0.580289
0.684848
0.581542
0.752041
1.23196
1.24048
1.98762
0.862944
0.546552
0.431069
0.64362
0.578456
0.704439
0.974943
0.798399
0.94461
0.465882
0.549411
0.261682
0.790292
0.688429
0.719674
0.699037
0.612656
0.661349
1.06139
1.06407
1.06541
1.02977
1.06113
0.94729
0.850644
1.03236
0.898618
0.812467
0.920374
0.907386
0.787836
0.434614
0.897124
0.887541
0.591523
0.819059
0.754085
1.06108
0.992661
1.71368
1.46375
0.951098
1.72363
1.88488
0.533273
0.638394
0.807381
0.830198
0.727269
0.48966
0.951533
0.841779
0.92811
0.973149
0.97549
0.959266
1.23756
0.43355
0.798163
1.23926
1.19172
1.27011
1.33276
1.15564
1.05166
1.1814
1.12405
0.482121
1.10273
0.836974
0.572971
0.327425
0.459113
1.2041
0.699166
1.0361
0.886832
0.435654
1.10879
0.585306
1.12292
1.08065
0.635447
0.753064
1.48714
0.985019
1.25966
1.47918
2.69224
0.676664
0.935811
1.62638
1.37311
1.57585
1.35725
1.30758
1.03031
1.34288
1.2561
0.193086
0.981537
0.717458
1.65751
1.39521
1.42555
1.43937
1.32856
2.59631
0.700817
1.8896
2.27959
0.925169
0.821634
0.966104
1.01527
1.11987
1.07481
0.982439
1.02819
0.967735
0.479274
0.583049
0.84934
0.760604
0.258638
0.794734
1.02746
0.816588
1.19195
0.990766
0.85219
0.972734
0.962926
0.67322
1.13195
0.727704
0.679
1.06811
1.07483
0.829723
0.98435
0.826227
1.16115
1.05385
0.672031
0.655734
0.265438
0.720991
0.643896
0.887624
0.67399
0.590369
0.668961
0.966289
0.806952
0.652405
1.0555
0.964135
0.844583
0.807586
0.606527
0.711644
1.02138
0.49924
0.50323
0.690294
0.48219
0.432343
0.337911
0.708953
1.33292
1.20612
1.27603
1.46279
1.42177
1.53352
1.20891
1.29135
1.26841
0.396804
1.19134
1.28101
0.537505
0.494912
0.60822
0.497698
0.718685
0.725586
0.777816
0.931364
0.950367
0.811776
0.781467
0.705889
0.215932
0.665117
6.47838
1.57773
4.29911
0.901851
1.68107
1.34606
1.66444
1.81114
1.06876
0.733499
0.891331
0.915878
1.47392
0.982356
1.60877
1.64568
0.878582
1.29979
1.01087
0.610781
0.743289
0.762209
0.818526
0.723555
1.33686
1.52492
0.194483
-0.115398
-0.063117
0.688714
-0.0505195
0.638395
0.576778
0.525821
0.656434
1.40119
0.730807
1.09593
0.67188
0.594931
1.73165
1.33129
0.408727
0.795282
1.49134
1.04989
1.37593
3.25693
1.99066
3.26593
1.75235
1.45285
1.06833
1.24402
1.0742
1.61024
1.49336
1.38862
1.07028
1.29077
1.98224
1.44211
1.89839
1.56065
1.95406
1.13079
4.95116
0.907996
1.00188
1.0562
2.71153
0.714636
0.614422
0.535176
0.546542
0.58689
0.899243
0.607752
0.453418
0.818366
0.737917
0.937146
1.16668
0.33543
1.19857
1.06653
0.823905
1.36064
1.02135
0.63639
0.967204
0.904509
0.850113
0.955102
-0.065706
4.93206
2.698
0.428208
0.950944
0.464505
0.950002
1.15977
0.275282
1.39846
0.819769
1.28786
1.41782
1.27423
0.0709501
0.0371309
1.30627
0.746764
0.881214
0.926515
3.40075
0.250535
1.17421
1.1897
0.560824
0.668249
1.30428
1.45333
0.972524
0.978787
1.85367
1.29326
1.54938
2.21604
0.879499
1.4549
1.22554
1.82398
0.983091
0.597786
0.332682
0.148483
0.407436
1.58591
1.30757
1.39519
1.04378
0.624253
1.43074
0.882318
1.06236
1.31336
1.82482
1.63752
1.77218
1.89846
0.896968
1.55272
0.796263
0.261399
0.46078
0.627254
0.53242
0.353459
0.642983
1.1263
0.898257
0.880104
0.926593
0.757045
0.629076
0.722311
0.574841
0.503898
0.554123
0.851311
0.683139
0.726495
1.84116
0.891063
0.995237
1.11552
0.969237
0.995335
0.927651
0.814878
0.999701
1.05103
0.73874
0.844515
0.699778
0.297515
0.853417
0.706094
0.940985
0.7403
0.379029
0.848602
0.716958
0.818335
1.21874
1.059
1.09377
1.38494
1.35383
0.47239
0.667013
0.369561
0.455341
0.505384
1.05681
0.74054
0.731288
0.845954
0.797373
0.974418
0.498513
1.06174
2.59812
0.897442
0.576106
1.17524
0.959634
1.1783
0.312979
1.02603
0.890167
1.06735
0.492569
0.731675
0.709635
0.534321
0.649927
0.756008
0.70401
0.763402
0.473117
1.30395
0.606249
0.473889
0.518931
1.4751
1.34942
1.84825
1.88979
1.8695
0.805782
0.651294
0.544658
0.691033
0.736513
1.23572
0.845204
0.630788
1.00458
0.5303
0.805618
1.04727
0.993035
-0.0544192
0.635055
0.562833
-0.0598377
0.14402
0.74873
0.526994
0.804577
0.762523
0.698239
0.577326
0.665609
0.585731
0.79189
1.1685
1.00384
0.992689
1.18401
1.09181
0.994896
1.15539
1.13894
1.17397
0.572756
1.042
0.843335
0.463195
0.880178
1.32669
1.07552
1.13824
SCALARS CoVolArea double 1
LOOKUP_TABLE default
0.0520131
0.034519
0.045394
0.0353743
0.0418124
0.0282623
0.0859334
0.0820043
0.0302561
0.0654634
0.0342824
0.0735355
0.101744
0.0949871
0.0844949
0.0888727
0.126608
0.107108
0.102496
0.0671068
0.102573
0.120395
0.100705
0.0849711
0.105815
0.0584942
0.0623883
0.0654726
0.130407
0.127776
0.0920797
0.0574266
0.0684522
0.110169
0.0877093
0.0946988
0.129424
0.0764187
0.0653004
0.165327
0.0785319
0.0859219
0.10372
0.115702
0.119145
0.123928
0.106841
0.108933
0.0621807
0.0850277
0.0740133
0.110179
0.10427
0.0644761
0.0817317
0.11292
0.115954
0.117415
0.111074
0.0923724
0.0848531
0.131
0.117236
0.143304
0.133606
0.11908
0.091096
0.0702068
0.0974883
0.0757193
0.115247
0.0659594
0.0918572
0.106014
0.0874723
0.0833561
0.141297
0.121851
0.0898005
0.0716836
0.0854939
0.0799014
0.113823
0.12825
0.102213
0.0822552
0.14432
0.111698
0.0583749
0.0634942
0.0858485
0.119513
0.120989
0.14208
0.125654
0.0739273
0.050512
0.063898
0.0635293
0.091259
0.127097
0.0591787
0.152691
0.103968
0.218414
0.0755547
0.101803
0.092614
0.120503
0.0556407
0.0776892
0.0576785
0.0526783
0.0808529
0.0953105
0.132872
0.0942412
0.124065
0.0824619
0.0834249
0.0846149
0.121917
0.0906472
0.104918
0.109429
0.107176
0.125886
0.104056
0.0990857
0.0671914
0.089631
0.111912
0.0752043
0.104859
0.0795842
0.0604517
0.051406
0.139288
0.0714253
0.136437
0.121306
0.0988175
0.054717
0.0772041
0.140147
0.129262
0.100066
0.0692151
0.129687
0.103789
0.0849953
0.0930137
0.0980874
0.0805993
0.0708778
0.115578
0.0857655
0.165803
0.117612
0.0680257
0.0740338
0.0936945
0.087482
0.122347
0.103376
0.119251
0.119739
0.100457
0.0970759
0.114482
0.0966767
0.113594
0.117292
0.106027
0.0953253
0.10547
0.106296
0.0995979
0.109309
0.114336
0.0471081
0.0642436
0.0524974
0.0833519
0.0712309
0.0705928
0.0838471
0.0752522
0.0863324
0.116694
0.0995751
0.101407
0.115653
0.0899457
0.0948198
0.106877
0.108818
0.112726
0.123817
0.0479371
0.059067
0.0838342
0.068656
0.0736247
0.0667997
0.0811059
0.0723118
0.11514
0.077742
0.129634
0.126918
0.126904
0.108457
0.1191
0.0998989
0.099777
0.101511
0.11782
0.0951133
0.0761645
0.110507
0.0963753
0.0977474
0.100636
0.11485
0.0597225
0.0894783
0.125946
0.106053
0.0976441
0.115251
0.125342
0.116607
0.158291
0.137268
0.123703
0.138113
0.102227
0.109401
0.145908
0.134808
0.130176
0.144969
0.13458
0.0853915
0.073044
0.10321
0.0936989
0.0991351
0.0979559
0.114963
0.0881113
0.0859515
0.0864272
0.0734564
0.0599092
0.0849947
0.0963732
0.0547714
0.066516
0.0509531
0.110145
0.0865919
0.0897525
0.0685497
0.0810523
0.0938136
0.123584
0.123375
0.135289
0.0897357
0.100479
0.0945632
0.0888874
0.088337
0.073529
0.0802447
0.0857611
0.0874714
0.113131
0.0860305
0.0965072
0.112206
0.119588
0.0882193
0.0911712
0.128485
0.0979864
0.0883592
0.0947429
0.0852848
0.0882383
0.0996363
0.0663992
0.107844
0.117618
0.0894105
0.105679
0.107039
0.052283
0.0642763
0.0880939
0.0733693
0.0825717
0.0717527
0.0862199
0.0797279
0.103187
0.10662
0.102012
0.0968955
0.0773832
0.116363
0.112783
0.106495
0.111217
0.108458
0.123105
0.077581
0.0565624
0.105604
0.0926792
0.0778135
0.0903966
0.0753906
0.122212
0.141138
0.100429
0.131592
0.125468
0.128394
0.11368
0.056309
0.0662943
0.0694552
0.0563481
0.0565779
0.0511911
0.0912066
0.0694091
0.078576
0.108141
0.0847301
0.0801699
0.148735
0.120802
0.155547
0.153633
0.0837668
0.117593
0.0760664
0.09087
0.130188
0.0822918
0.132657
0.103683
0.141335
0.154218
0.0750879
0.0664642
0.0672044
0.0558423
0.0532873
0.0610768
0.0529659
0.0504929
0.0528673
0.12782
0.0754526
0.0736995
0.0655002
0.0647288
0.0598016
0.0635232
0.106583
0.0712245
0.083872
0.118146
0.0939546
0.0953556
0.0863804
0.119639
0.0584713
0.0526771
0.142854
0.222346
0.208516
0.111757
0.161706
0.141445
0.14541
0.166206
0.114295
0.058417
0.0743311
0.0726938
0.10913
0.122527
0.0899605
0.0839465
0.0695278
0.0706162
0.062984
0.0629529
0.0840926
0.11533
0.108426
0.101957
0.0986773
0.10236
0.0466431
0.0541926
0.0457707
0.0616609
0.0576101
0.0535097
0.0689134
0.0637126
0.0896061
0.104658
0.111691
0.085024
0.0500507
0.0727301
0.0707809
0.0724014
0.0663928
0.0535172
0.094543
0.0830158
0.0853322
0.1167
0.120184
0.113787
0.104882
0.107153
0.120038
0.0932443
0.0990197
0.0841821
0.0750087
0.0843475
0.0666215
0.0786997
0.0762396
0.0765747
0.093935
0.0872627
0.0980837
0.0890201
0.0945981
0.0875292
0.0981064
0.0700297
0.106152
0.107375
0.107285
0.110144
0.128776
0.0837969
0.100984
0.106746
0.106086
0.0914141
0.0922
0.0956736
0.0790147
0.105488
0.0802953
0.131769
0.117783
0.121348
0.104216
0.113396
0.113232
0.121686
0.12804
0.135961
0.0748139
0.057235
0.11539
0.0861337
0.0653568
0.0753729
0.0823546
0.0734516
0.0940659
0.0936719
0.0935754
0.0842693
0.106148
0.12565
0.0827298
0.0895904
0.0852603
0.0862114
0.0862606
0.0645938
0.0700425
0.0883244
0.090886
0.126506
0.117671
0.113313
0.0593959
0.0475129
0.0596074
0.0597052
0.0546886
0.0555381
0.0660292
0.133748
0.084916
0.117573
0.0880005
0.151231
0.0633811
0.058959
0.0773076
0.11666
0.0628595
0.0971943
0.135161
0.123855
0.131957
0.139076
0.143406
0.0666476
0.097634
0.0810182
0.0469776
0.0653668
0.0465201
0.0441198
0.0558303
0.0567021
0.107395
0.119959
0.115293
0.0803819
0.145497
0.113717
0.134504
0.0938193
0.0873541
0.128294
0.0906884
0.134303
0.129093
0.0995417
0.133649
0.0874925
0.0673408
0.0908995
0.0748092
0.0583031
0.0589891
0.143647
0.125761
0.13752
0.138426
0.115487
0.0750219
0.0764053
0.0869737
0.0887083
0.110139
0.0998496
0.123617
0.0878534
0.0909158
0.0929086
0.0944214
0.077964
0.0726466
0.0960793
0.109241
0.0973793
0.0892156
0.0844033
0.131331
0.0791275
0.100848
0.123471
0.117052
0.0902163
0.101714
0.0864886
0.0925964
0.0677727
0.0694627
0.102114
0.123389
0.0791756
0.0625041
0.0660552
0.0799816
0.0755453
0.119161
0.135241
0.129583
0.126007
0.083191
0.0758105
0.0803012
0.103605
0.0652077
0.13288
0.0841676
0.061279
0.0651734
0.207336
0.141915
0.174151
0.184844
0.181065
0.134932
0.0804221
0.10501
0.129172
0.13431
0.138786
0.138149
0.102897
0.0769719
0.068557
0.0681691
0.0670574
0.0743406
0.0615029
0.0791131
0.0644561
0.0688896
0.0712481
0.08492
0.0865286
0.0905309
0.0935651
0.0933225
0.0763024
0.0891233
0.0846142
SCALARS SignedDistance double 1
LOOKUP_TABLE default
1.52154
1.42818
0.0988411
1.15192
1.35114
1.29779
2.38868
1.47103
1.70248
1.81566
1.78978
1.66171
1.41553
1.48928
1.07672
1.14407
1.27169
1.52268
1.53461
1.54078
1.11626
1.87612
1.51552
1.35773
1.67158
1.57312
1.77616
1.47723
1.8772
2.40522
0.198018
1.79443
1.45221
1.74712
1.15904
1.28796
1.69304
1.8209
1.75496
2.24057
1.67334
1.70633
1.35588
1.34587
1.33529
1.73927
1.4889
1.70182
1.20626
1.24858
1.4005
0.667485
1.42876
1.20604
0.513345
1.47229
1.18436
1.46793
0.854846
1.48581
1.37584
0.776534
1.75785
1.45882
1.63918
0.0344637
1.21059
1.76045
1.28326
1.44204
0.0454906
1.56418
1.0804
1.77127
1.3605
1.53541
1.84292
1.44223
1.26983
1.38725
1.32256
1.59146
1.54001
1.75842
1.71909
1.55408
1.59688
1.77191
1.15666
1.40864
1.33963
1.56605
1.54172
2.10971
1.71546
1.19463
1.59883
1.37353
1.94263
2.05572
1.60879
1.99717
2.2392
2.30633
2.30746
1.58964
1.71947
0.205694
0.0211035
1.68185
1.32116
1.42178
1.39607
1.27073
0.101441
1.64153
1.43556
1.57404
1.6026
1.45051
1.49869
1.16803
1.14263
1.82162
1.50737
1.22878
1.3391
0.113354
1.50272
1.29581
1.20952
1.71592
2.1866
2.16647
2.15892
1.75048
1.53627
2.19952
1.98021
2.11329
1.8831
2.01395
1.57758
1.64205
1.81888
1.65481
1.81424
1.48926
1.79541
1.67978
1.279
1.58851
1.47443
2.03483
1.72041
1.92113
2.04003
2.11979
1.79671
1.41846
1.32744
0.303563
1.42183
1.46618
1.54128
1.41458
1.39824
1.33639
1.19756
1.32313
1.21598
1.74402
1.74165
1.83094
1.46748
1.58741
1.5975
1.54342
1.62002
1.50743
1.23736
1.2803
1.31909
1.1828
1.21595
1.12721
1.42956
1.31507
1.37455
1.39747
1.35862
1.26792
1.39294
1.57629
1.12535
1.17764
1.34158
1.27977
1.2067
1.2373
1.21578
0.428289
0.645784
1.09074
0.583849
0.387946
1.57349
1.54177
1.54577
1.23763
1.33879
1.37803
1.25485
1.29033
1.13276
0.813605
0.860984
1.04564
1.36116
1.5414
1.29169
1.21059
1.48089
1.15943
1.17196
1.39364
1.43097
1.2137
1.23926
1.44115
1.23975
1.31848
1.62184
1.53728
1.47462
1.41233
1.54771
1.67513
1.66907
1.51241
1.35826
1.28833
1.26472
1.08761
1.36031
1.34766
1.19494
1.26259
0.227443
0.527655
0.0751609
1.71976
1.73862
1.35489
1.54229
1.63237
1.51845
1.404
1.64772
1.49778
1.71532
0.545829
1.25812
1.2263
1.50919
1.28772
1.24811
0.937573
0.402921
0.0528513
1.24916
0.259562
0.234686
1.24349
1.31679
1.77008
1.5737
1.57835
1.55001
1.7982
1.36784
1.18545
1.82434
1.70243
1.45156
1.61931
1.9413
1.75092
1.66878
1.21394
1.40513
1.3276
1.49079
1.35325
1.27474
1.43819
1.28057
1.45272
1.4371
1.31651
1.27652
1.43253
1.34766
1.44815
1.22149
1.20812
1.76215
1.6832
1.83813
1.47885
1.55692
1.47733
1.62079
1.62376
1.53555
1.34445
1.45183
1.45803
1.45036
1.38063
1.57328
1.53477
1.74302
1.64206
1.69909
1.58286
1.6728
1.68241
1.66583
1.68501
1.75429
1.68335
1.0235
0.820701
1.26261
1.44304
1.23167
1.34546
1.48898
1.29021
1.4609
1.78601
1.62062
1.62705
1.5885
1.56303
1.78081
1.68617
1.45588
1.5411
1.48105
1.95215
2.04732
1.73236
1.86769
1.80251
2.09515
1.94638
0.0370378
1.24746
0.210128
1.52566
1.42415
1.38846
1.62102
1.50638
1.67659
1.59283
1.65122
1.56146
1.82452
1.89775
1.7324
1.74757
2.23511
1.98862
2.15764
1.48607
1.82269
2.00447
1.92474
1.73469
1.86198
1.77966
2.30161
2.41934
2.35547
2.35432
2.47826
2.28645
2.05451
2.2605
2.11002
1.94656
2.16295
2.13988
1.71549
1.45529
1.47477
1.75296
1.89708
1.81623
1.69025
1.24935
0.846301
0.0259447
0.0423886
0.0825898
1.13377
1.18373
1.68009
1.53115
1.58658
1.57919
1.51643
1.72104
1.24025
1.34559
0.719007
1.26423
0.34566
1.42423
1.23112
1.19476
0.128166
1.35144
1.35607
1.46936
0.188732
1.18742
1.07502
1.67467
1.59567
1.66475
1.56415
1.60996
1.69845
1.53375
1.54184
1.40963
1.60526
1.67021
1.39321
1.33923
1.51851
1.36465
1.61647
1.63998
1.58265
1.32244
1.37901
1.26274
0.75663
0.108899
0.149012
0.503571
1.3356
1.16792
1.43413
1.52524
1.75908
1.50983
1.79393
1.59707
1.49984
1.18264
0.524177
0.922518
0.147049
1.61162
1.28668
1.54509
0.119027
0.758903
1.16526
1.27594
1.55069
1.53536
0.811089
0.897058
1.5615
1.25652
1.53316
1.32299
1.57787
0.145762
1.12813
1.71397
1.4443
1.53622
1.46715
1.80468
2.32138
2.35573
2.29732
1.88249
2.15355
1.98621
2.04154
2.20845
2.00149
1.86974
2.00416
1.81184
1.39624
1.30857
1.73387
1.5377
1.67216
1.6247
1.74797
2.28338
2.16622
2.04607
2.06936
2.20708
2.06673
1.93449
1.82462
2.06734
1.81307
1.75286
1.94056
1.7937
2.25038
2.17049
2.04597
1.88457
1.89616
1.81049
1.46811
1.61739
1.61265
1.54881
1.51946
1.66665
1.8412
1.9536
1.88756
1.66914
1.96671
1.67725
1.71454
1.86057
1.54579
1.59386
1.75332
1.83187
1.95391
1.58722
1.69544
1.56694
1.2567
1.54942
1.38543
1.31527
1.50241
1.74601
1.68025
1.79001
1.72034
1.74677
1.43806
1.73611
1.63322
1.5167
1.57017
1.69474
1.75579
1.69146
0.199005
1.26142
0.992173
1.09685
1.35344
1.59705
1.74696
1.70872
1.73235
1.46298
1.57001
1.41825
1.47535
1.61815
1.68157
1.40582
1.50765
1.38449
2.18118
1.9545
2.06178
2.12697
2.05804
1.25625
1.76361
1.53908
1.48198
1.71187
2.18663
2.10818
2.26074
1.94054
1.85496
1.90513
1.88658
1.97533
1.8276
2.22012
2.00528
1.85468
1.90795
2.34341
1.93888
2.17616
2.36121
2.3445
1.48426
1.94931
1.73409
1.60499
1.74772
2.14058
1.922
2.02097
1.67295
1.54277
1.60397
1.51177
1.34284
1.50814
1.09759
1.35122
1.47752
1.50591
1.17625
1.18684
0.774086
0.53717
0.410195
1.3503
1.06881
1.2049
