# vtk DataFile Version 4.2
vtk output
ASCII
DATASET POLYDATA
POINTS 642 double
-1.20659 2.56358 -0.339025
1.30494 2.63274 -0.301
-1.48537 -1.66096 0.0138694
1.21015 -1.52544 0.0656699
-0.0206303 -0.592371 1.65401
-0.00438673 1.80597 1.43365
-0.111858 -0.619823 -0.99682
-0.212111 1.95662 -1.67972
1.69818 1.18311 -0.98571
1.47573 0.739726 0.693445
-1.76668 1.03961 -1.21299
-1.49217 0.581148 0.761447
-1.6044 1.76979 0.260674
-0.775332 1.33564 1.35321
-0.540683 2.43656 0.93912
0.565343 2.44089 0.921903
-0.00746429 2.8936 -0.179066
0.956621 2.63645 -1.18731
-0.945696 2.63616 -1.26954
-1.33779 1.61117 -1.8034
-1.93429 2.00282 -0.960813
-1.91914 0.84041 -0.252203
0.760595 1.38023 1.32244
1.6676 1.82915 0.26415
-0.777711 -0.215283 1.48277
-0.0389528 0.431071 1.76426
-1.56553 -0.780275 -0.399663
-1.58277 -0.861145 0.414577
-0.24889 1.08724 -1.72507
-1.17132 0.360085 -1.28307
2.04301 2.06804 -0.892385
1.27293 1.7264 -1.47289
1.38236 -0.757441 0.463986
0.731999 -0.232366 1.42007
0.675944 -1.38384 1.03211
-0.760806 -1.3853 1.01358
-0.00984321 -1.71625 0.0647604
-0.832285 -1.25484 -0.721107
0.66668 -1.2471 -0.655348
0.951523 0.218587 -1.07724
1.33613 -0.678272 -0.309797
1.86553 1.00934 -0.177711
-1.4761 2.23346 -0.0442648
-1.06879 2.14052 0.673456
-0.86372 2.54796 0.317541
-1.17372 0.984358 1.09514
-1.17648 1.60822 0.929275
-1.58706 1.24619 0.53052
-0.222291 2.139 1.26694
-0.687967 1.93531 1.18316
-0.353522 1.62591 1.45208
-0.325584 2.81846 0.481872
-0.65886 2.80479 -0.253676
0.22727 2.14262 1.26582
0.00329509 2.56812 1.04886
0.774018 2.81304 -0.234709
0.332257 2.74503 0.456871
0.984185 2.56161 0.251579
-0.457437 2.95819 -0.738595
-1.12959 2.67992 -0.797139
1.22488 2.74094 -0.717119
0.466533 2.95058 -0.717317
-0.652894 2.29967 -1.54531
-0.0487195 2.69017 -1.14478
0.525618 2.31804 -1.43552
-1.66778 2.60866 -1.2742
-1.63988 2.39612 -0.64812
-0.91974 1.826 -1.80848
-1.24149 2.2021 -1.69923
-1.89642 1.4493 -1.18112
-1.91253 1.89919 -1.66375
-1.65491 1.33167 -1.55094
-1.88784 1.93441 -0.316892
-1.91615 0.940884 -0.77715
-1.9913 1.43546 -0.593234
-1.87592 1.3648 -0.0352592
-1.75807 0.694806 0.27732
1.15529 2.16592 0.597221
1.54913 2.33072 -0.0159953
0.339846 1.64195 1.44201
0.694871 1.95588 1.16111
1.62784 1.3264 0.476796
1.23714 1.64631 0.846397
1.19951 1.04521 1.02021
-0.359578 0.845738 1.62622
-0.0130301 1.23978 1.59722
-1.18539 0.104749 1.13916
-0.736106 0.487592 1.50173
-0.0374127 -0.0961502 1.84533
-0.370485 0.143564 1.75808
-0.403524 -0.42638 1.67027
-1.71445 -0.342555 0.152256
-1.55004 -0.250602 0.627023
-1.65307 0.200594 -0.79872
-1.72885 -0.199321 -0.309878
-1.6207 -1.32031 0.23325
-1.65939 -0.909249 -0.0225428
-1.58558 -1.25595 -0.201294
-1.30456 1.13243 -1.66962
-1.5212 0.782295 -1.33348
-0.264832 1.54527 -1.77769
-0.962638 1.38653 -1.808
-0.720991 -0.265606 -1.1185
-0.884845 0.868031 -1.62348
-0.16658 0.429219 -1.4441
1.20617 2.20486 -1.45557
0.758806 1.88891 -1.58351
1.7713 2.56218 -0.55429
1.69321 2.63163 -1.22939
1.56145 1.47133 -1.26589
1.67534 1.93085 -1.31114
1.83848 1.57925 -0.98233
1.31228 -1.18012 0.265944
1.13398 -1.11948 0.75626
1.1222 -1.6351 0.557019
1.14201 0.145288 1.09164
1.16247 -0.572988 0.969266
1.43229 -0.0825466 0.652997
0.299553 -1.03242 1.34944
0.75297 -0.878626 1.22952
0.340278 -0.449243 1.61565
0.409882 -1.67645 0.626832
0.77054 -1.67739 0.0353033
-0.336062 -1.01687 1.36626
0.00642934 -1.43721 1.09601
-0.850482 -1.6871 0.0347318
-0.456305 -1.67048 0.606098
-1.22518 -1.65993 0.544466
0.427354 -1.58056 -0.395835
0.985783 -1.44665 -0.321585
-1.19148 -1.50427 -0.397318
-0.498827 -1.58128 -0.423047
0.310924 -0.973504 -0.853947
-0.0514457 -1.31034 -0.721709
-0.4965 -0.960161 -0.884969
1.06322 -1.05187 -0.488608
1.2714 -1.152 -0.114805
0.464368 -0.351625 -1.02824
0.768765 -0.800926 -0.783376
1.54149 0.434532 -0.678574
1.1654 -0.360288 -0.697441
1.42448 0.870168 -1.10031
1.41046 -0.793593 0.075945
1.84441 1.10838 -0.635692
1.61498 0.124089 -0.229092
1.57433 -0.0755468 0.20128
1.72948 0.89798 0.266169
0.292469 0.148477 1.72688
0.712732 0.528105 1.45006
0.307734 0.890589 1.60988
-1.29468 -1.16667 0.743171
-0.839241 -0.904964 1.23151
-1.27988 -0.651667 0.933655
-0.990633 -0.781237 -0.863537
-1.32537 -1.07751 -0.590012
-1.36673 -0.398738 -0.80034
1.19234 1.20854 -1.39335
0.504442 0.764796 -1.49188
0.67118 1.40519 -1.6224
1.87508 1.4456 0.0196084
1.96443 1.54274 -0.514713
2.00531 2.02924 -0.246702
-1.33808 2.44249 -0.217232
-1.18215 2.38774 0.138052
-1.06684 2.56076 -0.0847105
-1.36358 1.95346 0.46168
-1.28842 2.17907 0.313681
-1.56101 2.01131 0.11112
-0.694231 2.49822 0.644146
-0.971232 2.35725 0.519952
-0.792337 2.29933 0.819943
-1.36906 0.756396 0.908569
-1.38118 1.13363 0.839407
-1.53055 0.893486 0.667936
-0.971417 1.48823 1.17
-1.18113 1.3256 1.02453
-0.977632 1.17212 1.24586
-1.61202 1.51603 0.399205
-1.40119 1.43661 0.729367
-1.40099 1.69603 0.605623
-0.088503 1.94747 1.37652
-0.295558 1.89703 1.3644
-0.140921 1.74245 1.45113
-0.621606 2.20465 1.07981
-0.455326 2.06119 1.24217
-0.372575 2.30721 1.14188
-0.565928 1.49052 1.4193
-0.522353 1.78843 1.33497
-0.743199 1.64932 1.27549
-1.13964 1.88371 0.812722
-0.935314 1.78 1.07996
-0.87411 2.05607 0.964824
-0.758695 2.69838 0.0400723
-0.972269 2.68042 -0.305974
-0.436151 2.6183 0.732018
-0.59784 2.69444 0.419147
-0.361692 2.86849 -0.213532
-0.473664 2.79189 0.105232
-0.173358 2.85087 0.146085
0.0833542 1.94908 1.37587
-0.00201016 2.16492 1.28047
0.303407 2.5582 1.03281
0.135985 2.38995 1.21109
0.393333 2.32057 1.14618
-0.133544 2.39115 1.21755
-0.289845 2.55577 1.04045
1.12049 2.70128 -0.286305
0.889263 2.70326 0.0102025
1.20195 2.60722 -0.108474
0.182298 2.84721 0.152322
0.527681 2.79108 0.107451
0.387833 2.86987 -0.186342
0.746905 2.50588 0.616433
0.645766 2.66502 0.390103
0.46418 2.61599 0.722146
-0.150207 2.69792 0.789012
0.164078 2.69779 0.78707
0.00562353 2.82513 0.496374
-0.889794 2.78833 -0.537396
-1.17917 2.62461 -0.532982
-0.229598 2.91036 -0.46992
-0.566663 2.89913 -0.503819
-1.06371 2.70966 -1.04467
-0.811324 2.84274 -0.776505
-0.706962 2.81146 -1.01355
1.28714 2.69266 -0.4667
1.01731 2.79164 -0.491772
0.732291 2.80078 -0.964137
0.894375 2.83333 -0.72774
1.11619 2.72544 -0.964436
0.63755 2.89645 -0.472012
0.205379 2.91086 -0.453237
-0.430516 2.1051 -1.63994
-0.108657 2.33301 -1.46364
0.146123 2.119 -1.56968
-0.555045 2.68534 -1.21296
-0.365807 2.52551 -1.34455
-0.809124 2.48577 -1.43598
0.766169 2.48033 -1.32807
0.241924 2.52033 -1.29607
0.50882 2.67558 -1.15879
-0.0304245 2.88988 -0.70566
0.224752 2.82589 -0.94517
-0.279261 2.85714 -0.971471
-1.40945 2.55316 -0.756579
-1.39257 2.49566 -0.472916
-1.28358 2.59573 -1.28121
-1.38379 2.61197 -1.03233
-1.88605 2.2832 -0.80094
-1.67748 2.50916 -0.94485
-1.91514 2.32744 -1.13141
-0.59839 1.911 -1.74793
-0.8196 2.07267 -1.71933
-1.31749 1.89004 -1.80076
-1.07875 1.99836 -1.77957
-1.13389 1.72659 -1.83214
-0.976873 2.26958 -1.64549
-1.11906 2.45331 -1.50154
-1.82641 1.20765 -1.21698
-1.79664 1.40305 -1.39563
-1.73012 1.16796 -1.35587
-1.92036 1.96887 -1.29217
-1.87153 1.67286 -1.38796
-1.93604 1.70796 -1.09539
-1.52644 1.47815 -1.7075
-1.73424 1.5955 -1.59067
-1.57764 1.74543 -1.73807
-1.45049 2.41363 -1.52859
-1.57137 2.09413 -1.73428
-1.82034 2.27438 -1.49046
-1.5855 2.31351 -0.347001
-2.01937 2.01169 -0.625618
-1.87645 2.23899 -0.459237
-1.70025 2.09076 -0.192013
-1.74677 1.84516 -0.0413997
-1.83812 1.00294 -1.05516
-1.91975 1.22024 -0.988475
-1.97757 1.16435 -0.420966
-1.97677 1.19675 -0.692373
-1.94139 0.895404 -0.506293
-1.9675 1.46017 -0.895842
-1.97723 1.71698 -0.778352
-1.70053 1.01196 0.379063
-1.61704 0.616979 0.566334
-1.76731 1.57851 0.103924
-1.75406 1.31975 0.232346
-1.84771 0.774578 -0.00029505
-1.83554 1.08708 0.0983074
-1.92732 1.12902 -0.157135
-1.95775 1.69031 -0.466105
-1.96073 1.40481 -0.306118
-1.88413 1.63965 -0.17544
1.29506 2.45092 0.0925388
1.40951 2.53252 -0.192042
0.835926 2.31604 0.789472
1.07313 2.38031 0.444331
1.63484 2.09028 0.136271
1.39055 2.23741 0.263459
1.45826 2.00039 0.402889
0.131912 1.74626 1.44826
0.295358 1.90411 1.3587
0.736304 1.68532 1.24858
0.517589 1.80841 1.3188
0.544538 1.52442 1.4007
0.466069 2.07152 1.23476
0.633905 2.20657 1.05151
1.55492 1.03008 0.596212
1.43859 1.20896 0.742292
1.38066 0.866455 0.819626
1.48773 1.73962 0.530812
1.4768 1.48868 0.638621
1.66343 1.57584 0.371978
0.985103 1.21525 1.19591
1.22898 1.37229 0.940743
0.981974 1.5314 1.12267
0.905893 2.07966 0.932411
0.953735 1.81484 1.03991
1.21304 1.91338 0.735868
-0.183067 1.44961 1.54025
-0.00680756 1.60787 1.50338
-0.578552 1.13027 1.50175
-0.37975 1.29432 1.53557
-0.0271019 0.790936 1.68051
-0.184654 1.03204 1.62517
-0.183273 0.59499 1.7171
-1.3738 0.362637 0.928157
-1.17367 0.553339 1.14326
-0.739624 0.12058 1.53238
-0.946472 0.310143 1.36254
-0.97768 -0.08345 1.3283
-0.955744 0.760592 1.31226
-0.769564 0.94691 1.42788
-0.0307775 -0.391172 1.76922
-0.220179 -0.258519 1.83729
-0.181835 -0.524467 1.68802
-0.194166 0.286479 1.78507
-0.208005 0.0320465 1.81898
-0.041572 0.167914 1.80788
-0.594555 -0.325996 1.60033
-0.39419 -0.130502 1.75113
-0.563678 -0.0180309 1.66526
-0.548492 0.6581 1.58459
-0.542648 0.27931 1.66055
-0.355134 0.428751 1.71951
-1.65135 0.168581 0.47291
-1.52112 0.231613 0.717796
-1.80358 0.257914 -0.0354774
-1.74578 0.187194 0.210592
-1.56938 -0.598861 0.521088
-1.6566 -0.327788 0.383303
-1.65161 -0.660223 0.284512
-1.73932 0.799201 -1.08643
-1.79869 0.617883 -0.816801
-1.64142 -0.560901 -0.33681
-1.69997 -0.0462709 -0.527147
-1.58116 -0.41792 -0.538731
-1.81998 0.474235 -0.549877
-1.83137 0.361539 -0.297163
-1.71218 -1.64926 0.146436
-1.6456 -1.32664 0.00793446
-1.64195 -1.55935 -0.119288
-1.64833 -0.908489 0.182267
-1.65175 -1.10479 0.0952886
-1.60247 -1.08249 0.322665
-1.57379 -1.02327 -0.300821
-1.63638 -1.08095 -0.107637
-1.62949 -0.866497 -0.211684
-1.7358 -0.306113 -0.078536
-1.67789 -0.651418 -0.139679
-1.68557 -0.683215 0.062563
-1.5911 1.08722 -1.46786
-1.67632 0.943161 -1.27782
-1.33114 1.37625 -1.7579
-1.48022 1.23734 -1.63937
[...]
POINT_DATA 642
SCALARS Mean_Curvature double 1
LOOKUP_TABLE default
0.609149
0.770914
2.16544
-0.14018
1.19416
1.03311
-0.0257985
0.571117
1.06695
0.515731
1.0247
0.593242
0.753081
0.843454
1.36931
1.23532
0.52528
1.38772
1.28653
1.6879
-0.193414
1.03906
0.770098
0.910703
0.693556
1.4702
0.953647
0.649095
0.707371
0.228823
2.7844
1.1464
1.02943
0.340108
0.541191
1.19596
0.691647
1.5566
1.7023
0.404486
0.935224
1.11469
0.635403
0.803778
0.648608
0.494401
0.786992
0.637009
0.394005
0.913029
0.967614
2.48792
0.413025
0.344861
1.59021
0.657811
0.443048
0.76896
2.78123
0.107678
0.6807
2.52608
0.0293135
0.419189
0.50108
4.41237
-0.115521
1.01126
1.359
0.922471
5.09387
1.7108
1.30803
1.07874
1.0813
0.971159
0.714121
0.60464
0.691442
1.00033
0.927455
0.778901
0.651518
0.574728
0.726332
1.03782
0.49221
0.427976
2.82657
1.385
1.15092
0.814029
0.609461
0.828609
0.940742
0.755826
0.918884
1.62692
1.37691
1.03349
0.842889
1.02383
0.3715
0.387659
0.302959
1.49871
0.86455
2.86136
4.52369
1.19289
1.20205
0.97028
1.29642
0.672671
4.8307
0.524927
1.00147
0.691234
0.900569
0.851737
1.16274
0.383725
0.317965
0.538579
1.39453
0.607636
0.851462
3.50174
1.39773
1.77722
1.70306
1.29822
0.600514
1.21051
0.588786
1.0902
1.29553
0.317946
0.689482
0.337217
0.784584
0.900488
0.945977
1.08331
0.916728
0.730557
0.822981
1.25134
0.370825
0.735847
0.389644
1.00047
0.714682
0.717864
1.56329
0.688659
0.709445
0.626366
0.813823
1.1797
0.895617
3.64099
0.818263
0.539008
0.387934
0.672091
0.578626
0.698705
0.542413
0.748572
0.774872
0.490404
0.574528
0.290123
0.830743
0.721046
0.760425
0.71664
0.619128
0.679564
0.99161
0.978376
1.03843
1.38992
0.971683
0.572193
0.886013
0.9906
0.917321
0.805652
0.908124
0.863591
0.662941
0.308217
0.461468
1.16773
0.508569
0.439426
0.433101
1.00131
0.225512
3.20889
2.73559
1.38506
3.2356
3.37346
0.341056
0.60393
0.727676
0.669266
0.653819
0.383942
0.767594
0.733022
0.889445
1.11475
1.32749
1.52136
1.17737
0.371664
0.519172
1.24578
1.52956
1.63299
1.55652
0.825906
0.991812
1.25809
1.22111
0.804778
1.04018
0.419826
0.599632
0.34752
0.529996
1.0198
0.543627
0.882639
0.752883
0.345807
1.09296
0.357142
0.922172
1.592
0.209372
0.628257
1.43464
0.751376
2.07019
1.7569
3.08784
0.759402
0.874307
1.51349
1.35158
1.57592
1.46191
1.27909
1.06556
1.25592
1.12273
0.706544
0.871151
0.453329
1.76099
1.50179
1.36197
1.53659
2.33177
2.94043
0.237744
3.31052
3.82203
0.465068
0.614234
1.06525
1.07095
1.19865
1.12262
1.06436
0.932514
0.496291
0.483638
0.649254
0.821137
0.766105
0.264426
0.798309
1.04939
0.410968
1.23428
0.922447
0.753173
0.730556
0.927295
0.647862
0.846859
0.606632
0.637114
1.04447
0.994732
0.842986
0.91716
0.85419
1.12641
0.674606
0.721351
0.714008
0.282897
0.736084
0.678751
0.825439
0.735616
0.628965
0.694989
0.988212
0.807834
0.683094
1.13704
0.990817
0.917386
0.845688
0.698204
0.742159
0.868428
0.541146
0.533493
0.517382
0.526192
0.50201
0.35287
0.705106
2.38923
4.01098
1.15715
1.54268
1.70405
1.4558
1.24837
1.06725
1.27751
0.443374
1.13765
1.29749
0.602156
0.537956
0.704189
0.542424
0.741353
0.794411
0.840938
1.03118
1.02359
0.925203
0.894848
0.824288
0.297759
0.75491
7.01601
1.11984
6.23135
0.792625
1.37366
0.912733
1.31809
1.46566
0.982501
0.853402
0.99641
0.990812
1.25556
1.00367
1.66243
1.65999
0.991952
1.2042
0.993465
0.70227
0.914626
0.8301
0.916721
0.788111
1.29862
1.57222
0.203876
-0.0614005
-0.0307559
0.60256
-0.051511
0.691795
0.632894
0.575906
0.716811
1.4045
0.565332
1.02351
0.791384
0.660791
1.74966
0.95971
0.379777
0.359084
1.3945
0.690761
1.26949
3.61588
2.64001
3.44387
1.32958
1.6918
1.09959
1.19708
1.0887
1.46101
1.40436
1.23184
0.682176
1.12756
1.79337
1.24881
3.22611
1.32758
1.30792
0.505096
6.71467
0.93498
0.787779
1.04135
4.06133
0.0296571
1.07785
0.58919
0.60049
0.657084
0.965667
0.601734
0.498866
0.800015
0.731046
0.99419
1.19375
0.219031
1.12129
0.751521
0.710053
1.00125
1.09993
0.728068
1.02341
0.872543
0.929482
0.9145
-0.111602
6.47225
4.24925
0.739199
0.747718
0.111017
0.757406
1.25165
0.379351
1.38079
0.643248
1.18095
1.22115
1.55231
0.371806
-0.0308248
1.602
0.658891
0.589189
0.824571
4.98826
0.699537
1.31268
1.13193
0.780419
0.622954
2.87679
2.40178
1.00882
1.13786
1.86906
1.5088
1.8397
4.18394
1.15562
1.69697
1.4779
1.99792
0.982197
0.630402
0.37259
0.153654
0.410798
1.65233
1.13923
1.18652
0.77123
0.577878
1.15843
1.17515
1.17846
1.62973
1.70847
1.37428
1.51288
1.94319
0.910352
1.26406
0.884616
0.2862
0.506501
0.634987
0.576666
0.362
0.679736
0.916972
1.01955
0.966526
1.00792
0.888958
0.738988
0.821796
0.62427
0.5657
0.667397
0.804237
0.835481
0.83018
1.30146
0.973576
0.920763
0.970534
0.992909
1.0689
1.04225
0.796819
1.11328
1.11974
0.830474
0.952756
0.787181
0.300204
0.895319
0.780625
0.985979
0.799557
0.488285
0.953574
0.841776
0.902243
0.846912
1.15857
1.11659
1.04025
1.33883
0.51002
0.689583
0.372376
0.499814
0.41234
1.13772
0.631176
0.774745
0.872672
0.859115
0.934062
0.54745
1.02171
3.91745
0.355971
0.514688
1.72506
0.644601
1.26434
0.292595
0.976133
0.83151
1.05925
0.528395
0.693476
0.742815
0.531878
0.664879
0.569944
0.698254
0.646159
0.508734
0.922827
0.681457
0.529321
0.652919
1.29412
1.05467
1.82754
1.99464
1.88774
0.917636
0.813312
0.654744
0.847381
0.848006
0.960544
0.875665
0.74125
0.997957
0.528155
0.843376
0.993833
0.887124
-0.0256824
0.688709
0.604752
-0.0521391
0.0595341
0.828179
0.54299
0.880716
0.827421
0.756056
0.62579
0.726389
0.645638
0.831865
1.20156
1.01696
0.960442
1.09774
1.03862
1.06357
0.82241
1.07691
1.15173
0.0721296
0.628544
2.18595
0.576497
1.43761
1.09697
1.15053
1.12771
SCALARS CoVolArea double 1
LOOKUP_TABLE default
0.0464949
0.0304623
0.0444433
0.0320508
0.0348943
0.0233072
0.0803144
0.0725829
0.0247018
0.0580093
0.028305
0.0659623
0.0927225
0.085169
0.0787296
0.0819593
0.117529
0.0970342
0.0933259
0.056244
0.100447
0.107296
0.0908579
0.0759508
0.0958308
0.0498248
0.0531918
0.0588115
0.119035
0.115044
0.0899544
0.049727
0.0598108
0.0998722
0.0821094
0.0851492
0.118757
0.0615306
0.0524475
0.153045
0.0682162
0.0746406
0.0955187
0.104848
0.108939
0.114398
0.0968427
0.100297
0.0562063
0.0755036
0.0645244
0.10476
0.0962714
0.0581546
0.0787584
0.103923
0.107581
0.10632
0.10247
0.0858254
0.0781453
0.122048
0.109474
0.131135
0.12296
0.118461
0.0877907
0.0616342
0.0891271
0.0675411
0.112805
0.05435
0.0863736
0.0932762
0.0775307
0.0742563
0.129283
0.110397
0.0825796
0.0624376
0.0758245
0.0716963
0.103565
0.118275
0.0900376
0.0721831
0.13373
0.102815
0.0514907
0.0540947
0.0751788
0.107154
0.110946
0.123278
0.11082
0.0685124
0.0432891
0.0530346
0.0523038
0.0783289
0.113833
0.0510949
0.144996
0.0962936
0.207083
0.0653549
0.0915082
0.0903227
0.119347
0.0467132
0.0679242
0.0499393
0.0446009
0.0736336
0.0939357
0.123066
0.0839937
0.11228
0.0736909
0.074851
0.0745368
0.116746
0.0869586
0.0938859
0.0976092
0.101132
0.117168
0.102189
0.0860449
0.0552882
0.0768932
0.0979677
0.0675211
0.0874623
0.0729739
0.0502369
0.0420849
0.133084
0.0639222
0.121062
0.107892
0.0875036
0.0474868
0.0661057
0.122053
0.115314
0.0889554
0.0597016
0.1198
0.0920738
0.0789205
0.0840738
0.0900897
0.0719351
0.056603
0.101585
0.0773258
0.155669
0.106093
0.0588044
0.0651602
0.0894806
0.0795244
0.111679
0.0936532
0.108706
0.109774
0.0926194
0.0892673
0.104392
0.087749
0.103707
0.108044
0.0965801
0.0857972
0.096729
0.0971199
0.0909236
0.100464
0.104113
0.0405522
0.0561111
0.0445709
0.0754894
0.0637519
0.065953
0.0742909
0.0663112
0.0766463
0.105037
0.088662
0.0906248
0.105956
0.0821273
0.0896389
0.0994694
0.100884
0.10473
0.115662
0.0412493
0.0536717
0.0802977
0.0652761
0.0685128
0.0637133
0.0780565
0.0655407
0.104751
0.0697699
0.119971
0.116455
0.117503
0.0985694
0.10869
0.0928879
0.0952596
0.0963884
0.111236
0.0872574
0.0700881
0.102588
0.0889687
0.0889903
0.0915495
0.103787
0.05394
0.081766
0.115092
0.0974673
0.0897623
0.107189
0.116982
0.106631
0.147906
0.125291
0.112901
0.128876
0.0946226
0.0990964
0.13556
0.122306
0.119712
0.1316
0.122389
0.080925
0.0673092
0.0961176
0.0890563
0.0975803
0.0964787
0.115515
0.0779506
0.077904
0.0761862
0.065098
0.051117
0.0779502
0.0884321
0.0463208
0.0567927
0.0416993
0.109308
0.0805669
0.0843656
0.0567675
0.0711767
0.0843222
0.117988
0.117751
0.135544
0.0843917
0.0977248
0.0924991
0.0831427
0.0807234
0.0630898
0.069696
0.0749209
0.0764469
0.100128
0.077205
0.0900965
0.102465
0.10845
0.0795005
0.0828395
0.11717
0.0887697
0.0783924
0.0865665
0.0751747
0.0792554
0.0901084
0.0597605
0.0972943
0.106688
0.0813574
0.0960544
0.0969378
0.0443097
0.0560013
0.0787253
0.0647499
0.0734009
0.0639912
0.0774347
0.0712324
0.0939922
0.0967253
0.0921471
0.0881375
0.0689844
0.106816
0.103426
0.0966839
0.0993568
0.0972904
0.111123
0.0675171
0.0481524
0.0943995
0.0819017
0.0682826
0.079582
0.0650346
0.112038
0.130606
0.0913528
0.12229
0.115997
0.119096
0.103689
0.048861
0.0590166
0.0596647
0.0474461
0.0489916
0.0434277
0.0805558
0.0606861
0.0688085
0.0967628
0.0746479
0.0689673
0.136223
0.110298
0.140017
0.140642
0.0759203
0.106949
0.0678076
0.0779479
0.114236
0.0711986
0.116308
0.089838
0.126231
0.137302
0.0744495
0.0597344
0.0628209
0.0490152
0.0460605
0.054813
0.0435001
0.0420557
0.0448253
0.112725
0.0653027
0.0644705
0.0538005
0.0545657
0.0484693
0.0512592
0.0933407
0.0596702
0.0732758
0.104513
0.082954
0.0852946
0.0765102
0.108201
0.0504417
0.0437939
0.135541
0.211831
0.197642
0.102653
0.153317
0.130798
0.135199
0.156435
0.104308
0.0487565
0.065645
0.0636638
0.0985292
0.109362
0.079077
0.0745595
0.0623271
0.0628535
0.0543697
0.0574946
0.0787567
0.116642
0.108969
0.102889
0.0936768
0.0936416
0.0387255
0.0456739
0.0381687
0.051733
0.0485515
0.0451319
0.0628342
0.0554581
0.0838539
0.0948224
0.106355
0.0736481
0.0428187
0.0669677
0.0690094
0.0639018
0.0594115
0.0462813
0.0929619
0.0790161
0.079792
0.106298
0.109934
0.102568
0.0946617
0.0978786
0.111073
0.0831206
0.0891763
0.0742943
0.065346
0.075345
0.0575801
0.0711897
0.0688526
0.0685223
0.08334
0.0783641
0.0876972
0.0790336
0.0841529
0.0788827
0.0970421
0.0681898
0.102959
0.10604
0.100065
0.106081
0.120158
0.0728213
0.0902208
0.0948774
0.0951034
0.0818394
0.0823859
0.0866335
0.0758383
0.102386
0.0790269
0.121946
0.111313
0.112286
0.101575
0.109971
0.104231
0.112009
0.116601
0.125895
0.0676563
0.0495604
0.104334
0.0784527
0.0522342
0.0644296
0.0676267
0.068147
0.0864067
0.0776319
0.0809996
0.0679584
0.0969373
0.113906
0.076817
0.0816249
0.0795403
0.0703902
0.0740588
0.0543485
0.0604921
0.0775016
0.0757872
0.110563
0.0989712
0.0947433
0.0480555
0.0390012
0.0479953
0.0474258
0.0466008
0.0455611
0.056757
0.126715
0.0791443
0.10708
0.0814207
0.142965
0.0568016
0.0499644
0.0666754
0.103006
0.053654
0.0854741
0.120173
0.10928
0.120072
0.12422
0.129338
0.0572732
0.0869489
0.0707551
0.0388395
0.0565173
0.0395138
0.037561
0.0485231
0.0476338
0.0932911
0.105379
0.100001
0.0692918
0.127381
0.0987851
0.120841
0.0837382
0.0772091
0.115047
0.0796285
0.119933
0.114829
0.0865974
0.118043
0.0768285
0.0587147
0.0806376
0.0650493
0.050277
0.0502389
0.132942
0.115028
0.127954
0.12923
0.106215
0.0651764
0.0667675
0.0769179
0.0784412
0.098619
0.0890571
0.110979
0.0767128
0.0881284
0.0870607
0.0909998
0.0725089
0.0662819
0.0840546
0.0990767
0.0864208
0.0796087
0.0754983
0.121127
0.072122
0.0924018
0.114099
0.107776
0.0826804
0.0931484
0.0791425
0.0870542
0.05672
0.0630018
0.0944199
0.111538
0.0674049
0.0517432
0.0527894
0.0638598
0.0593554
0.103305
0.120006
0.113275
0.109849
0.0721157
0.0635359
0.06881
0.0916015
0.0560246
0.123065
0.0755818
0.0531452
0.0572637
0.198406
0.130821
0.16501
0.177645
0.171517
0.120751
0.0719655
0.0945537
0.116617
0.122241
0.127885
0.1256
0.0923966
0.0683974
0.0587337
0.0594393
0.0588585
0.0652391
0.0525369
0.0731007
0.0569778
0.0593345
0.0608602
0.0800231
0.0789317
0.0860569
0.091505
0.0902497
0.0658228
0.0813955
0.0754054
SCALARS SignedDistance double 1
LOOKUP_TABLE default
1.44709
1.36937
0.0309436
1.11872
1.29939
1.17185
2.24106
1.34875
1.58388
1.69052
1.68558
1.53401
1.29611
1.35137
0.290203
0.324914
1.16012
1.51029
1.51654
1.50852
0.401637
1.79416
1.37475
1.25277
1.58511
1.4915
1.6117
1.35696
1.76012
2.29589
0.0441737
1.72138
1.315
1.64693
0.997589
1.24893
1.64205
1.7526
1.69297
2.09806
1.50929
1.59668
1.24531
1.23434
1.23852
1.62161
1.36816
1.58749
1.09854
1.04556
1.26891
0.107326
1.36048
1.07492
0.134023
1.41217
1.09468
1.36871
0.165223
1.45773
1.35339
0.126371
1.70593
1.37503
1.53045
0.00494657
1.15668
1.72861
1.26999
1.36134
0.0156287
1.53879
0.467683
1.67955
1.26728
1.43818
1.73056
1.30948
1.14341
1.25494
1.19944
1.46262
1.40894
1.64107
1.58291
1.429
1.45685
1.64594
0.233801
1.32529
1.28455
1.4335
1.39949
1.99277
1.57941
1.13905
1.47713
1.31398
1.86737
1.94074
1.49506
1.94
2.10324
2.18524
2.19288
1.55478
1.60302
0.0708491
-0.00143535
1.59121
1.27796
1.33009
1.32682
1.177
0.0324998
1.49822
1.31075
1.42437
1.52545
1.34864
1.41819
0.609004
0.364676
1.77042
1.48131
1.09046
1.2914
0.0393719
1.44266
1.27502
1.20401
1.65955
2.0603
2.10294
2.01028
1.65129
1.45394
2.05218
1.82814
2.00953
1.7402
1.89851
1.42051
1.52126
1.68897
1.50843
1.69702
1.39157
1.65473
1.53736
1.10304
1.51357
1.34408
1.88039
1.64942
1.76062
1.92806
2.00645
1.68002
1.30697
1.22563
0.0547877
1.35449
1.36594
1.43701
1.28563
1.26999
1.17974
1.06004
1.20927
0.858353
1.61737
1.62967
1.71095
1.33823
1.46516
1.47361
1.42381
1.50874
1.38763
0.841367
1.09572
1.19023
0.4589
0.698826
0.494989
1.28567
1.19629
1.23984
1.27985
1.23137
0.954551
1.29137
1.50068
0.351981
0.366405
1.24158
1.17515
0.718807
0.828924
1.11562
0.0605334
0.124315
0.273575
0.14041
0.0632861
1.52129
1.4501
1.47007
1.04291
1.23258
1.28135
1.14438
1.18364
0.406839
0.179565
0.180359
0.180258
1.34133
1.47227
1.2097
1.15044
1.47469
0.939609
1.13115
1.35241
1.39374
1.20715
1.20432
1.43887
1.17734
1.23835
1.5166
1.41932
1.34812
1.36204
1.48018
1.65061
1.62138
1.41165
1.29822
1.21114
1.20155
0.602667
1.3021
1.28581
1.18451
1.23998
0.0480995
0.369244
0.0373244
1.62469
1.71007
1.33715
1.50944
1.59968
1.49458
1.39653
1.55416
1.44766
1.63341
0.146946
1.20447
0.959977
1.47922
1.26715
1.22424
1.11181
0.235786
0.0257433
1.14395
0.0601369
0.070571
1.14809
1.2022
1.6711
1.48227
1.49232
1.46069
1.71081
1.27653
1.10457
1.71776
1.58229
1.33962
1.50871
1.84489
1.64983
1.58105
0.927878
1.31302
1.22302
1.40809
1.28697
1.17484
1.32078
1.20167
1.35068
1.30604
1.18737
1.07666
1.29801
1.21732
1.30913
0.657381
0.939827
1.64638
1.56184
1.71648
1.3487
1.41903
1.35666
1.49231
1.49818
1.4026
1.232
1.32807
1.32345
1.32466
1.2439
1.44296
1.39984
1.6104
1.49492
1.60885
1.44679
1.53811
1.57558
1.52505
1.55469
1.61791
1.55732
0.495526
0.131194
1.21167
1.3569
0.836965
1.25858
1.41666
1.2082
1.39899
1.65287
1.54341
1.54513
1.45479
1.42194
1.65828
1.55051
1.31533
1.41117
1.33517
1.84805
1.95621
1.57699
1.73975
1.64197
1.99536
1.83212
0.00703215
1.20955
0.131546
1.41107
1.36621
1.31503
1.53676
1.44238
1.54
1.44552
1.49875
1.41605
1.73664
1.78245
1.68365
1.69385
2.1283
1.88828
2.04751
1.36964
1.73375
1.89675
1.82596
1.61816
1.81906
1.73337
2.15427
2.27177
2.19823
2.24091
2.3451
2.17072
1.94088
2.14843
1.9952
1.88234
2.06837
2.04606
1.60609
1.32026
1.46999
1.71878
1.80775
1.75624
1.63702
1.20219
0.727168
-0.002331
-0.00725816
0.058125
1.13762
1.16649
1.57184
1.43824
1.47439
1.52281
1.45804
1.63834
1.17623
1.28041
0.563009
1.25328
0.159931
1.3872
1.19545
1.13449
0.0490041
1.21321
1.25007
1.33528
0.0613383
1.12001
0.37405
1.53726
1.44858
1.53168
1.45909
1.47917
1.55892
1.4026
1.40544
1.27545
1.53827
1.59492
1.32791
1.24937
1.41507
1.30096
1.54122
1.53622
1.49223
1.19257
1.24932
1.14075
0.231774
0.00952492
0.0425002
0.126344
1.26985
0.566854
1.37887
1.46354
1.70364
1.48676
1.76126
1.55025
1.46054
0.8909
0.13746
0.274473
0.0454677
1.56608
1.22854
1.49053
0.023608
0.190268
0.836372
1.23368
1.51649
1.49261
0.246741
0.551938
1.50732
1.08974
1.49009
1.28163
1.54407
0.0330836
0.818841
1.67374
1.39949
1.50694
1.41284
1.75657
2.18305
2.21866
2.16335
1.82546
2.07484
1.90996
1.90578
2.07349
1.91614
1.8164
1.95669
1.7769
1.33363
1.24305
1.66863
1.48758
1.53041
1.54636
1.58553
2.14143
2.0249
1.90816
1.93223
2.06443
1.92611
1.82484
1.70459
1.96454
1.69789
1.59745
1.80583
1.6465
2.14196
2.03988
1.90596
1.74483
1.75801
1.65199
1.39393
1.45236
1.47189
1.41552
1.37008
1.54798
1.72664
1.8486
1.78392
1.55565
1.84237
1.52485
1.59137
1.74651
1.40617
1.45436
1.64091
1.71186
1.85149
1.43371
1.55587
1.4165
1.07683
1.45697
1.28301
1.21558
1.40911
1.61026
1.55209
1.65577
1.58093
1.6379
1.31022
1.62838
1.4946
1.38572
1.43745
1.59286
1.61307
1.59371
0.0385501
1.18784
0.412305
0.734202
1.26136
1.52941
1.68812
1.6443
1.66727
1.39065
1.42943
1.27959
1.34241
1.49965
1.5777
1.2963
1.39983
1.25468
2.0407
1.83031
1.91287
1.98104
1.9113
1.21402
1.65025
1.47772
1.43912
1.65537
2.08249
1.98328
2.14422
1.80519
1.68939
1.78415
1.72146
1.81331
1.71281
2.10915
1.88597
1.74618
1.81003
2.18907
1.82392
2.07018
2.2152
2.21004
1.35802
1.83971
1.61836
1.4805
1.62494
2.026
1.80391
1.90531
1.54948
1.43378
1.48815
1.39363
1.23137
1.39329
0.700472
1.24936
1.36316
1.39475
0.939926
0.706937
0.132485
0.158995
0.129749
1.24835
0.609025
0.586201
