# vtk DataFile Version 4.2
vtk output
ASCII
DATASET POLYDATA
POINTS 642 double
-1.05778 2.26591 -0.409675
1.21341 2.34974 -0.387542
-1.43678 -1.6609 -0.00243535
1.058 -1.46509 0.105894
-0.0467308 -0.312495 1.36036
-0.0040764 1.75822 1.33819
-0.133757 -0.335857 -0.349984
-0.249523 1.86302 -1.41332
1.28166 1.41473 -0.618588
1.00873 0.768113 0.397021
-1.29246 1.30825 -0.822796
-1.09309 0.556568 0.486551
-1.39514 1.69546 0.140469
-0.616831 1.27475 1.08251
-0.555798 2.41777 0.924069
0.587134 2.41897 0.902992
0.000383948 2.79557 -0.193741
0.935794 2.26398 -0.795638
-0.906246 2.20854 -0.957468
-1.27212 1.77033 -1.19566
-1.91399 1.9873 -0.941713
-1.28757 0.947844 -0.284678
0.597881 1.31817 1.04976
1.47518 1.77068 0.105196
-0.465021 -0.152265 1.07711
-0.0484754 0.281476 1.23154
-1.11905 -0.633972 -0.08719
-1.28231 -0.813675 0.347776
-0.261861 1.2806 -1.14641
-0.899039 0.673223 -0.646072
2.03796 2.01319 -0.86501
1.07602 1.78407 -0.892149
1.14442 -0.680479 0.415342
0.438831 -0.181579 1.02086
0.637632 -1.30875 0.956373
-0.712753 -1.26033 0.743983
0.0121975 -1.2703 0.2344
-0.69105 -0.918556 -0.0945971
0.468578 -0.954184 -0.0486548
0.648416 0.463267 -0.483225
0.952173 -0.519547 -0.0693701
1.29206 1.1985 -0.196642
-1.32999 2.07835 -0.142196
-0.929726 2.0328 0.565201
-0.755536 2.38612 0.240984
-0.824933 0.91874 0.723185
-0.914977 1.53203 0.69982
-1.1628 1.17315 0.276851
-0.209551 2.08658 1.22431
-0.656874 1.88671 1.11947
-0.287204 1.57298 1.2293
-0.331005 2.81063 0.463895
-0.55413 2.54797 -0.28076
0.213971 2.09046 1.22144
0.00425068 2.56119 1.04173
0.659851 2.49418 -0.289087
0.323169 2.6889 0.427072
0.821761 2.29861 0.128923
-0.464465 2.94716 -0.722018
-0.996488 2.29613 -0.757451
1.14939 2.36052 -0.641549
0.464269 2.94352 -0.717602
-0.662114 2.03769 -1.12565
-0.0663185 2.47592 -0.904377
0.439121 2.10274 -1.0645
-1.61266 2.51883 -1.22516
-1.57537 2.30392 -0.645468
-0.894058 1.78848 -1.16121
-1.3713 2.02968 -1.27079
-1.61565 1.55066 -1.0188
-1.88253 1.81478 -1.64867
-1.36506 1.58583 -1.09155
-1.8109 1.8902 -0.314608
-1.31976 1.1568 -0.592
-1.67848 1.49996 -0.58563
-1.46407 1.37875 -0.175415
-1.21604 0.705004 0.105635
0.998493 2.03524 0.458429
1.45275 2.24674 -0.0724948
0.27489 1.59177 1.24242
0.623847 1.89014 1.04279
1.24917 1.29724 0.250052
0.968199 1.57298 0.589571
0.827829 1.00632 0.636746
-0.235239 0.768272 1.11911
-0.0189613 1.19906 1.20354
-0.918296 0.128455 0.858687
-0.464561 0.445406 1.02802
0.00175462 -0.075205 1.78968
-0.233791 0.0813145 1.41808
-0.191656 -0.264748 1.39863
-1.28497 -0.26754 0.112386
-1.27425 -0.195546 0.488699
-1.09148 0.453025 -0.408279
-1.1893 -0.0563528 -0.135959
-1.45901 -1.28115 0.241926
-1.27299 -0.841495 0.0673405
-1.25969 -1.29418 0.0272689
-1.07876 1.42712 -1.03805
-1.10946 1.10636 -0.776934
-0.275935 1.59742 -1.31297
-0.867361 1.54854 -1.12858
-0.587869 0.0200686 -0.460461
-0.731604 1.15686 -0.967963
-0.195126 0.701864 -0.788118
1.15713 2.08111 -0.886467
0.559994 1.81844 -1.0941
1.72318 2.55133 -0.497635
1.65585 2.44355 -1.05014
1.26803 1.63418 -0.796694
1.55619 2.02045 -0.965181
1.5869 1.66845 -0.776564
1.00858 -1.12949 0.2934
1.02379 -1.06367 0.706581
1.13248 -1.62166 0.554341
0.857448 0.178992 0.810513
0.938215 -0.517869 0.791473
1.14561 -0.00621404 0.512249
0.214179 -0.812876 0.968092
0.61829 -0.775102 0.961052
0.107766 -0.272281 1.2809
0.384534 -1.60607 0.593119
0.741853 -1.659 0.0512486
-0.22797 -0.746 0.939383
0.0355787 -1.15934 0.767256
-0.879243 -1.4858 0.122372
-0.47992 -1.35229 0.518256
-1.21704 -1.65963 0.535591
0.394743 -1.19151 0.0546876
0.784913 -1.33462 0.0413518
-1.07899 -1.3487 -0.0619587
-0.486103 -1.11898 0.0314605
0.191006 -0.670881 -0.205857
-0.0645532 -0.917188 -0.0917613
-0.418421 -0.643914 -0.234421
0.702775 -0.851502 -0.0338921
0.87961 -1.08172 0.122163
0.289708 -0.101644 -0.394707
0.505665 -0.549615 -0.191069
0.983593 0.677715 -0.31122
0.763223 -0.134612 -0.211101
1.00105 1.13818 -0.586961
1.07139 -0.676499 0.125983
1.34629 1.33374 -0.453756
1.02894 0.287961 -0.0701298
1.14786 0.0356353 0.161119
1.17067 0.981425 0.0897766
0.12217 0.0869189 1.33862
0.42667 0.505957 0.984714
0.181419 0.83877 1.10534
-1.22371 -1.12454 0.693502
-0.632858 -0.753288 0.827847
-1.03556 -0.59024 0.705752
-0.751005 -0.497884 -0.23594
-0.969274 -0.875644 -0.0747416
-0.954627 -0.141217 -0.282337
0.894301 1.40446 -0.824658
0.316921 1.02647 -0.879977
0.487807 1.50364 -1.08448
1.56658 1.51145 -0.0879608
1.76686 1.57526 -0.484733
2.00236 2.00286 -0.220847
-1.18808 2.19577 -0.310259
-1.01224 2.16893 0.0265288
-0.909325 2.28801 -0.173519
-1.18431 1.85588 0.336372
-1.13886 2.05123 0.209729
-1.45552 1.95576 0.0659076
-0.676951 2.44904 0.605634
-0.886744 2.25443 0.439707
-0.763329 2.24845 0.774506
-0.984749 0.696396 0.573099
-0.98701 1.05164 0.52133
-1.08885 0.827232 0.393181
-0.779314 1.42103 0.937965
-0.869162 1.25072 0.722384
-0.701616 1.11516 0.894884
-1.27687 1.44395 0.195778
-1.0446 1.35214 0.457853
-1.1354 1.60953 0.410185
-0.0825351 1.89968 1.33938
-0.25823 1.84348 1.26751
-0.121232 1.69617 1.33789
-0.61801 2.1709 1.05233
-0.43731 2.02101 1.21182
-0.3749 2.27232 1.12644
-0.475936 1.42712 1.21033
-0.463672 1.73281 1.21096
-0.653595 1.58574 1.11952
-0.987803 1.79923 0.678578
-0.834878 1.71181 0.95197
-0.855041 2.01145 0.916469
-0.648639 2.48103 -0.00261719
-0.826479 2.36654 -0.359482
-0.441616 2.60501 0.717075
-0.615085 2.65797 0.383927
-0.320186 2.6891 -0.231884
-0.448378 2.68689 0.0769928
-0.164031 2.81607 0.121878
0.0773972 1.90168 1.3394
-0.00108484 2.10412 1.21708
0.317126 2.55624 1.0297
0.137278 2.35284 1.21227
0.408945 2.29313 1.15688
-0.134175 2.34835 1.21233
-0.303927 2.55178 1.03762
1.00577 2.37565 -0.367883
0.747762 2.40061 -0.0753758
1.07545 2.31002 -0.229807
0.158846 2.71467 0.126178
0.474984 2.604 0.0627506
0.338132 2.62641 -0.220322
0.713846 2.42606 0.552629
0.600898 2.54454 0.32896
0.474014 2.60529 0.695833
-0.149945 2.68958 0.775184
0.166318 2.68948 0.76933
0.0141509 2.81659 0.477182
-0.7331 2.44965 -0.556071
-1.03733 2.29352 -0.563866
-0.202587 2.69336 -0.48596
-0.472034 2.64801 -0.535201
-0.956492 2.26038 -0.876131
-0.625604 2.52224 -0.717077
-0.56819 2.49252 -0.810009
1.20581 2.37423 -0.516879
0.890809 2.44141 -0.511449
0.617099 2.50051 -0.727971
0.697306 2.50494 -0.641096
1.06814 2.31838 -0.731082
0.544597 2.62122 -0.510258
0.196125 2.69363 -0.47221
-0.424299 1.92251 -1.24874
-0.12575 2.10808 -1.1521
0.0869401 1.99122 -1.31868
-0.485175 2.40317 -0.915094
-0.362744 2.26497 -1.02242
-0.818121 2.13385 -1.03594
0.715247 2.20227 -0.897599
0.217393 2.3058 -1.02718
0.45942 2.39887 -0.856032
-0.0100206 2.67083 -0.669757
0.163033 2.58623 -0.760225
-0.248271 2.70852 -0.903158
-1.3305 2.30649 -0.760958
-1.26889 2.25129 -0.512295
-1.34665 2.22508 -1.09165
-1.37671 2.27961 -0.998407
-1.88274 2.28274 -0.780931
-1.61622 2.35522 -0.935941
-1.91398 2.31011 -1.10068
-0.553073 1.80311 -1.236
-0.823088 1.89845 -1.15531
-1.39226 1.94281 -1.28815
-1.12742 1.90508 -1.18192
-1.12544 1.78971 -1.17393
-1.03832 2.00513 -1.13647
-1.20209 2.11194 -1.13255
-1.40739 1.43466 -0.903411
-1.49281 1.59066 -1.09025
-1.33713 1.43226 -0.941201
-1.91324 1.9528 -1.25307
-1.69308 1.78621 -1.24489
-1.85965 1.70213 -1.05677
-1.34057 1.70891 -1.17796
-1.5605 1.80088 -1.29054
-1.50085 1.88162 -1.35342
-1.48495 2.20148 -1.30934
-1.51717 2.05489 -1.57519
-1.81244 2.2716 -1.49468
-1.48788 2.25343 -0.35271
-2.02339 1.9792 -0.61044
-1.81978 2.22319 -0.43189
-1.59985 2.02652 -0.227051
-1.62665 1.79271 -0.0862104
-1.30848 1.25827 -0.743793
-1.46744 1.40938 -0.794087
-1.45059 1.29082 -0.446536
-1.48438 1.35413 -0.617335
-1.31045 1.05737 -0.43956
-1.68849 1.53169 -0.824134
-1.90962 1.68988 -0.766922
-1.20573 0.973268 0.159663
-1.14849 0.592976 0.339338
-1.48805 1.53199 -0.0289541
-1.32081 1.28569 0.034086
-1.25603 0.832005 -0.108973
-1.30809 1.09966 -0.0667894
-1.38761 1.20159 -0.263168
-1.88864 1.64278 -0.452308
-1.58589 1.48206 -0.393082
-1.65795 1.62067 -0.255225
1.1541 2.20359 -0.0571475
1.31282 2.31716 -0.285522
0.767625 2.22735 0.703877
0.903046 2.17875 0.303045
1.51208 2.0141 0.0454129
1.23122 2.06394 0.0973217
1.30158 1.90944 0.276356
0.110729 1.70118 1.33794
0.257489 1.85113 1.26843
0.61513 1.61587 1.05334
0.459275 1.75061 1.20337
0.458281 1.46194 1.20345
0.452319 2.02656 1.20855
0.617238 2.15762 1.00095
1.08489 1.02326 0.31867
1.03943 1.16446 0.428506
0.954181 0.852254 0.475756
1.23571 1.66795 0.326484
1.15481 1.42675 0.38204
1.39884 1.52794 0.201259
0.695805 1.16885 0.836098
0.89448 1.3132 0.612234
0.768006 1.46146 0.862192
0.769387 1.98457 0.779678
0.770099 1.73073 0.826833
1.03976 1.82351 0.573518
-0.141912 1.40578 1.23102
-0.00736493 1.56986 1.33767
-0.407917 1.07861 1.09146
-0.297121 1.23427 1.21129
-0.0371429 0.681006 1.13585
-0.144692 0.969006 1.20997
-0.121002 0.461458 1.13884
-1.07868 0.373911 0.670038
-0.855424 0.522943 0.777242
-0.440398 0.101472 1.09182
-0.665334 0.296462 0.965798
-0.677157 -0.0408284 0.944866
-0.662063 0.719179 0.895278
-0.517501 0.909587 0.988975
-0.0212322 -0.354548 1.60307
-0.259056 -0.282121 1.77636
-0.106391 -0.298657 1.40571
-0.135871 0.135413 1.3794
-0.175925 0.00684874 1.60572
-0.0533667 0.0517725 1.48013
-0.30012 -0.216616 1.23968
-0.256342 -0.116967 1.49938
-0.296642 -0.0294467 1.28637
-0.335312 0.598374 1.07438
-0.292222 0.205938 1.1782
-0.202814 0.312977 1.17511
-1.27619 0.224419 0.327086
-1.24799 0.276867 0.545564
-1.22817 0.351153 -0.0619096
-1.25573 0.254099 0.112973
-1.33557 -0.541718 0.433877
-1.27907 -0.267495 0.284699
-1.39944 -0.60255 0.234035
-1.19335 1.07866 -0.682738
-1.17911 0.855207 -0.516609
-1.1656 -0.418762 -0.0983028
-1.12891 0.147727 -0.252389
-1.091 -0.224818 -0.199714
-1.18241 0.658905 -0.360756
-1.19881 0.493277 -0.212473
-1.52324 -1.55467 0.125217
-1.3767 -1.33064 0.0946392
-1.53672 -1.49044 -0.139137
-1.27975 -0.850328 0.186819
-1.256 -1.08975 0.175653
-1.28231 -1.07991 0.292369
-1.12675 -0.989366 0.0260714
-1.20616 -1.06479 0.101474
-1.23581 -0.783142 -0.0469181
-1.2852 -0.20626 -0.032718
-1.26124 -0.544213 -0.0245753
-1.33307 -0.598355 0.0783263
[...]
POINT_DATA 642
SCALARS Mean_Curvature double 1
LOOKUP_TABLE default
-0.470855
-0.339894
9.90005
6.69391
0.587836
-0.0439285
0.241927
8.33067
0.605137
0.00435901
1.33588
-0.406913
1.2009
2.58363
2.30625
2.78889
2.71267
0.611266
0.699194
0.93459
-0.0764433
1.00661
2.37092
-1.61436
-0.105092
-0.487374
-0.41044
-1.08966
0.978573
0.287594
4.73442
0.799185
2.89605
-0.185404
1.69104
-0.0899182
0.843186
0.714578
0.599408
0.449731
0.961438
0.561625
-1.0442
-0.807897
-0.690554
-0.367242
-0.762036
0.170622
0.0916084
2.09626
-1.26571
3.06713
-0.337636
-0.400525
1.72371
-0.446605
0.867491
-0.953033
6.35013
0.517862
0.678196
6.46454
0.700128
-0.749115
0.285474
6.39175
0.777481
0.450146
0.978735
3.18549
6.03301
0.894606
2.33875
1.61704
0.929456
0.594953
0.543997
0.986564
3.13333
-0.573282
1.30755
1.79102
-0.356038
-0.23744
-0.544049
0.264537
2.03159
-0.340135
8.00786
6.57508
3.5115
-0.443055
3.09403
0.899093
0.373243
5.51224
3.21512
-0.577351
1.18647
1.2288
0.523313
0.424845
0.522234
0.230346
0.188079
0.751475
0.779405
4.53721
4.35394
0.427376
0.433118
2.12865
0.0481425
0.607249
5.82108
2.84926
1.90369
4.37687
0.330763
0.253658
0.458908
3.67833
5.54098
-0.138164
0.559568
2.03157
1.1822
3.8384
0.696295
-0.0877783
2.93247
0.697207
0.736627
0.158062
0.740382
-0.0360928
-0.345385
0.472188
0.639486
0.515509
0.374874
0.806479
-1.86772
0.385086
0.177806
4.41208
0.794686
4.12329
-0.0131296
-0.0118913
3.5775
0.00512368
0.734884
0.701737
0.973435
0.99992
0.490429
0.198543
0.94654
-0.881837
1.51503
4.54536
-0.823478
-1.14681
-0.467673
1.44176
1.08824
4.3113
0.746111
1.83252
1.11408
-0.168511
-0.206868
0.0860076
1.13676
0.0886513
-0.0627433
0.272485
-0.70445
0.304835
4.66541
-0.0191874
3.70509
2.05939
2.67455
0.67906
2.93302
1.28172
1.98338
1.8217
1.87266
3.31707
-0.429803
-0.524736
0.808336
3.47533
0.321711
0.987382
2.16907
4.62659
-2.16114
3.51095
3.24833
2.97897
3.58714
3.90098
-0.26678
-0.650636
-0.387957
-0.344826
0.972959
-0.797526
2.11991
1.43895
2.18847
1.07008
1.45431
2.51102
0.0250429
-0.0889417
-0.648886
0.0267297
0.872146
2.84478
1.08667
0.156987
0.971777
1.03513
3.09382
1.01804
0.303794
-0.557414
0.337196
-0.824252
0.902419
0.43823
0.147429
0.334577
0.705388
1.75239
0.345105
1.41872
-0.283865
5.22027
1.03139
-1.01232
0.766648
0.949764
3.89399
0.956823
4.07039
0.835148
0.60902
0.966159
1.18879
1.1622
1.17116
1.15994
0.711207
1.01153
1.0846
2.8905
0.527192
4.40586
0.655263
2.28391
1.58858
0.641554
6.78874
4.94944
3.73441
4.3731
4.54939
0.332665
3.21521
1.49905
0.502484
0.817877
0.714411
1.21832
1.364
2.71156
0.255383
-0.21513
1.54919
-0.129059
0.298217
0.544018
0.457376
5.01203
-0.656568
0.753387
-0.778436
-0.441397
1.38289
-0.911839
0.467401
-1.22131
3.50639
3.50708
0.334289
0.801567
2.37735
3.55682
3.56522
1.58461
0.216653
0.2307
0.021775
-0.49733
0.372666
2.76045
-0.0698492
-0.670832
1.31769
-0.40826
-0.30588
2.67181
-1.08962
5.1911
-0.712963
2.14853
-0.723044
5.17886
-0.404504
1.5511
0.0732944
-0.387835
0.880148
-0.0303732
0.298727
-0.372322
8.39087
7.94063
1.15413
3.02583
6.91777
-0.00373443
-0.0185104
3.81623
-0.413878
-0.205683
-0.0926158
-0.231647
1.56823
4.45475
0.35964
0.656688
3.01271
-0.784353
5.65592
1.4237
1.06149
0.647225
0.529577
3.98971
0.717852
0.824758
6.83068
-0.0625978
9.5962
-0.557292
-0.245775
-0.628817
-0.536117
-0.191819
10.2529
7.40992
2.37805
3.43078
1.3368
1.51401
1.09816
1.09779
0.539821
1.29207
0.802148
3.62218
1.16141
1.10731
1.19669
0.654244
0.489423
1.10646
0.389106
0.281226
0.256346
0.299051
0.273475
0.51687
0.613402
0.227659
0.71595
1.0721
0.268685
0.747502
0.440824
6.90036
0.829106
0.511911
0.280626
0.137592
0.760058
-0.940654
5.39328
5.28836
5.43174
2.5024
1.14043
0.561555
0.452999
0.782501
0.283343
0.463134
0.236691
0.732465
-0.00614171
-0.519017
4.86453
0.843756
6.93265
0.581261
-0.231056
3.63714
8.34149
5.36219
-1.53021
-0.995826
4.70284
-0.515547
4.60378
1.1577
1.12017
1.30025
-0.639929
-0.411839
-0.39306
-0.844038
1.90621
0.844477
0.750415
0.142176
0.260204
0.203219
0.141636
1.53719
0.218559
0.353194
-0.0601309
2.10848
3.44219
4.19926
1.98161
1.64329
5.73295
1.38148
0.669193
3.07686
0.526696
0.695332
0.30817
0.516608
-0.465276
0.192089
0.19757
1.59638
5.30782
2.26812
2.54425
1.00065
0.165492
0.765568
5.91796
4.43968
4.01117
0.0989617
0.819088
1.03776
8.88603
10.6863
0.951123
3.3051
0.223975
0.736018
0.580387
2.10646
7.16872
0.675389
0.00975095
0.151783
0.278478
0.909304
0.374859
0.0599323
0.407294
0.729538
0.728057
0.759414
0.89637
0.833467
0.892984
0.29454
0.866616
0.74435
-0.394148
-0.385257
0.447421
0.0431132
-0.498302
0.413889
2.62203
0.346011
0.697022
0.51582
0.640088
0.449687
0.763797
0.718889
1.1163
0.573159
1.09343
-0.184905
0.52632
0.0174272
0.24232
0.626903
0.558142
0.523886
0.366974
-0.0781282
0.502275
8.44142
3.85986
-0.425133
5.21511
0.856069
1.06305
0.613876
1.11732
0.251568
0.58726
2.82982
-0.200502
0.0958284
0.299743
0.862085
0.750317
0.404616
0.571402
8.11703
-0.484538
1.35529
6.587
-0.25226
1.28603
6.84391
-0.176064
-0.134583
-0.225555
-0.278325
-0.42445
-0.13708
-0.860105
-0.45987
-0.79611
2.93873
0.0503958
-0.296613
1.59139
-0.402465
6.31072
2.04625
2.65187
-1.16537
1.10459
0.712955
0.0367317
0.497798
0.386852
-0.584028
1.36463
3.76338
0.737206
-0.649311
-0.305678
2.92254
-0.652434
1.68513
0.609829
0.753766
0.803285
0.644593
0.746114
7.25121
1.35626
-0.549191
-0.284062
0.937425
0.62138
0.687324
0.781965
0.691054
-0.0643082
0.264554
-0.0104225
0.706439
0.949138
0.219294
0.792713
0.900473
0.892176
0.258116
0.799901
0.204801
0.171249
0.21635
3.73348
0.589444
0.935233
0.88428
0.635873
0.160214
0.811214
0.358422
0.336002
-0.4447
1.34557
1.30794
4.3159
-0.59618
2.59657
5.35857
6.82564
1.34128
0.594283
3.7077
4.18262
1.65992
2.34862
1.90824
2.34387
4.69873
SCALARS CoVolArea double 1
LOOKUP_TABLE default
0.0362708
0.0245022
0.0333078
0.0182559
0.0165785
0.0181957
0.0528157
0.0477887
0.0119396
0.0325828
0.0124951
0.041692
0.0797561
0.0675039
0.0808062
0.0871701
0.110254
0.059948
0.058268
0.0258451
0.0983565
0.0601088
0.0727264
0.0647734
0.0720068
0.032527
0.0335281
0.0490672
0.0767573
0.0655517
0.0980801
0.0325138
0.0483993
0.0749176
0.0861271
0.0710189
0.0724074
0.0335038
0.027524
0.105895
0.043283
0.0439432
0.0829917
0.0918546
0.0989877
0.0866167
0.0833497
0.0766681
0.0535344
0.0722667
0.0539771
0.111308
0.0864428
0.0564675
0.0864799
0.0891478
0.104469
0.0922299
0.103893
0.0672495
0.0526976
0.1151
0.0771013
0.102839
0.0932975
0.103151
0.0846245
0.033473
0.0423357
0.0507466
0.113436
0.0295156
0.0876684
0.0464829
0.061512
0.0562235
0.0848854
0.0914608
0.0736494
0.0520638
0.0695985
0.0504907
0.0854647
0.0881134
0.0606785
0.0568714
0.102448
0.0786083
0.0618243
0.0352567
0.0467244
0.0718298
0.0865054
0.0502385
0.0563137
0.0575312
0.0287279
0.0312273
0.0260577
0.0340858
0.0713601
0.0296601
0.104836
0.0685037
0.155594
0.037678
0.0628849
0.0939171
0.0821254
0.027774
0.0453488
0.036684
0.035892
0.0664133
0.0990573
0.0952374
0.0646292
0.0830586
0.0546601
0.0627421
0.0456527
0.108398
0.0747213
0.0650417
0.0684587
0.0753985
0.0780356
0.108864
0.0406094
0.033197
0.0362105
0.0507706
0.0439289
0.0485568
0.0473004
0.029405
0.0263539
0.100006
0.0384331
0.0584046
0.0599388
0.0484381
0.0349512
0.0376138
0.0622848
0.0725328
0.053252
0.0390749
0.0911514
0.0623644
0.069241
0.0643275
0.0740885
0.0413202
0.0278529
0.0468686
0.0513625
0.116422
0.0672596
0.0461727
0.0543545
0.0980012
0.0648689
0.0948841
0.078298
0.09012
0.0933956
0.0825432
0.0884505
0.0939471
0.0843967
0.071534
0.0821432
0.0647012
0.0716838
0.0796166
0.0760595
0.0754011
0.0841944
0.0879154
0.0355546
0.0495482
0.036677
0.075154
0.0617801
0.0687466
0.0617132
0.0600879
0.0664456
0.0904035
0.078903
0.0856079
0.0952482
0.0696486
0.0941196
0.101337
0.0921891
0.102563
0.113715
0.0359914
0.0519381
0.0900775
0.0714126
0.0748813
0.0688916
0.0851037
0.0542976
0.0892891
0.0589429
0.113256
0.103643
0.104374
0.0939366
0.0996059
0.0964464
0.099145
0.0993949
0.11235
0.0714733
0.056925
0.0963503
0.0810965
0.0528502
0.064648
0.0719937
0.0394753
0.0600572
0.0868939
0.0603668
0.0494706
0.0923026
0.108839
0.0728282
0.117497
0.0964456
0.0812018
0.105259
0.0649647
0.0689676
0.112453
0.0903516
0.101116
0.10386
0.0987312
0.0698286
0.0575413
0.0588842
0.0646491
0.10062
0.0868128
0.115923
0.0413664
0.0439396
0.0324776
0.0324874
0.0272846
0.0447969
0.0505099
0.0248586
0.0353785
0.0201233
0.1132
0.0682375
0.0757428
0.0276046
0.0449121
0.0524596
0.0824715
0.0881692
0.141045
0.0781457
0.108659
0.100568
0.0785743
0.0713353
0.0298064
0.0407189
0.0478394
0.0472756
0.0519509
0.0603983
0.0877371
0.0702429
0.0704011
0.0655309
0.063026
0.0735154
0.0610211
0.0534139
0.0835946
0.0562321
0.0662766
0.0756213
0.0503526
0.0880855
0.0916522
0.0745251
0.08069
0.080101
0.035785
0.0494637
0.0675284
0.0587826
0.0617372
0.0632491
0.0761358
0.0432776
0.0671112
0.0620485
0.0767748
0.0704183
0.055006
0.0843777
0.0827598
0.0791706
0.084055
0.0809305
0.089731
0.0531901
0.0383155
0.0686907
0.0627747
0.0492122
0.0596963
0.0443398
0.0820182
0.0966625
0.0696251
0.0944661
0.0901999
0.0910807
0.0769705
0.0470168
0.0654774
0.0358168
0.0307795
0.0460313
0.0337775
0.0547332
0.0458653
0.0483218
0.0646364
0.0515007
0.042304
0.0980738
0.0813005
0.0808032
0.095024
0.0630159
0.0820121
0.0549036
0.0312874
0.0494854
0.0387635
0.0526899
0.0424017
0.0595651
0.0690619
0.0612483
0.0459521
0.0477914
0.0361203
0.0309573
0.0416225
0.0292762
0.0278141
0.0325385
0.0625651
0.0388516
0.043196
0.0253889
0.0229404
0.0218565
0.0244778
0.0449256
0.029594
0.042221
0.0633646
0.0447053
0.0513147
0.0438984
0.0692427
0.0287226
0.0226142
0.0961263
0.155379
0.141866
0.0709134
0.11316
0.0866313
0.0965514
0.113906
0.0682229
0.0252913
0.0399167
0.0391929
0.0691745
0.0803108
0.0423983
0.0494946
0.0431244
0.0433314
0.0372346
0.049801
0.0707879
0.121371
0.111399
0.117077
0.064246
0.0448486
0.0210515
0.0302307
0.021758
0.0319646
0.0317224
0.0277146
0.0557474
0.0408939
0.0809825
0.0490035
0.0797192
0.0398867
0.034239
0.0637894
0.0591251
0.0555114
0.0513749
0.0395823
0.106708
0.0789681
0.0809767
0.071038
0.0830179
0.0659671
0.0733008
0.0764286
0.0881909
0.0631038
0.0676639
0.0581088
0.0395872
0.0506328
0.0323607
0.0660155
0.0575071
0.0581926
0.0573936
0.0588724
0.0661335
0.0645626
0.0665586
0.069303
0.0875613
0.0456334
0.11269
0.114572
0.0727545
0.0988853
0.0869748
0.0425576
0.0619509
0.0650631
0.0706478
0.0655271
0.0624752
0.0719366
0.058495
0.0959435
0.0710831
0.075801
0.0880193
0.0716847
0.108036
0.108787
0.0766396
0.0865284
0.0722534
0.0824457
0.0530607
0.0331877
0.0575413
0.0484794
0.0267422
0.0313278
0.0339295
0.0400147
0.0498477
0.03996
0.0395117
0.0333266
0.0562424
0.0635853
0.0514187
0.0534342
0.0533285
0.0365301
0.0454881
0.0315189
0.0359441
0.0482534
0.0426265
0.0537204
0.0502661
0.0447458
0.0262061
0.0237602
0.0257461
0.0252909
0.0316216
0.0292325
0.0354412
0.0902632
0.0546277
0.0681195
0.0547814
0.105538
0.0356805
0.0282948
0.0320246
0.0507614
0.027361
0.0491379
0.0610923
0.0589331
0.0758661
0.0659682
0.0769772
0.0323279
0.0504804
0.0410524
0.026561
0.0390688
0.0276821
0.0296983
0.0383001
0.024496
0.0446809
0.0547314
0.0490259
0.0410184
0.0617181
0.0572812
0.0759002
0.049308
0.0565321
0.0803261
0.0470947
0.0703517
0.0629879
0.0554352
0.0678072
0.053241
0.0450774
0.0572527
0.0418796
0.0388078
0.0312579
0.0961598
0.0858218
0.0982569
0.101262
0.0821065
0.0517517
0.0428549
0.0568688
0.0605451
0.0721753
0.0632908
0.0755315
0.0485166
0.0847302
0.0833808
0.0920523
0.0641388
0.0551581
0.0483745
0.0738156
0.0587413
0.0583637
0.0628735
0.0946556
0.0599179
0.0742212
0.0907989
0.0853477
0.0685847
0.0741657
0.0661242
0.0606308
0.0321107
0.0399407
0.0606785
0.0620817
0.0340598
0.0281393
0.0243434
0.0297797
0.0304321
0.0410352
0.0573238
0.0476278
0.0469148
0.0363335
0.0333233
0.0350413
0.046576
0.0317033
0.0891516
0.0487684
0.0322644
0.0357293
0.151775
0.0904735
0.1269
0.139769
0.131556
0.0864509
0.046358
0.0626618
0.0795413
0.0804653
0.0908929
0.0818686
0.0582052
0.0439419
0.0406736
0.0406053
0.0427641
0.0548697
0.0345632
0.0668534
0.0471203
0.0430552
0.0430951
0.0743886
0.0820209
0.0915062
0.0943516
0.0905078
0.054318
0.0766683
0.0735547
SCALARS SignedDistance double 1
LOOKUP_TABLE default
1.2304
1.17938
0.0206937
-0.928774
1.10598
0.00171342
1.58873
0.0652723
1.10931
1.26657
1.32235
1.12592
-0.000128828
0.0687008
-0.0284633
-0.0299051
0.0308497
1.44781
1.42249
1.29763
0.00401021
1.44389
0.0541068
0.719774
1.26628
0.928377
0.502073
0.0984707
1.36318
1.69698
-0.0464485
1.37854
0.0191096
1.30339
0.0200504
0.650084
1.50852
1.18596
1.28548
1.49709
0.180124
1.17274
0.528304
0.015958
0.136578
1.21715
0.424349
1.21177
-0.0227083
0.0163199
0.0531646
0.0152123
1.1431
-0.0215805
0.0012886
1.22332
-0.00685541
1.05574
-0.0543574
1.31466
1.2685
-0.0138746
1.42592
0.781021
1.11927
-0.727013
0.000679064
1.55136
1.21456
0.0523916
0.0658197
1.05166
0.136584
1.36819
0.0933557
0.634963
1.36414
0.0291567
0.100062
0.032821
0.010021
0.18849
0.312187
1.22887
0.668936
0.0894573
0.0364641
1.13863
0.075139
-0.00345541
0.289625
0.0969987
0.00485711
1.49936
1.10122
0.115804
0.028572
0.179741
1.45464
1.53808
0.690967
1.59869
1.47648
1.64545
1.5737
1.34733
1.24793
-0.035762
-0.875726
1.19046
0.553523
0.124144
0.15983
-0.0141401
0.00493408
0.0277295
0.156625
-0.000284634
1.28274
0.124801
0.721062
0.105151
-0.00612895
1.55488
1.41017
0.310842
1.2253
0.0102008
1.31185
0.928705
0.0377826
1.30782
1.50626
1.66368
1.477
1.13225
1.06911
1.43134
1.26856
1.52186
1.22171
1.45467
0.479598
1.14233
1.08402
0.0327201
1.36549
0.170094
0.571624
0.375224
0.000769967
1.2273
0.12575
1.27817
0.335985
1.24383
1.51791
1.52177
1.31673
0.159633
-0.00276372
-0.0130227
0.89733
1.12701
0.840198
0.0157754
0.0535365
0.0569799
0.00442663
0.0237685
0.0234846
1.09502
1.26253
1.28972
0.0725957
0.40519
0.712252
0.207402
1.13525
0.0964914
0.0211055
-5.07136e-05
-0.00312501
0.0307928
0.0229199
-0.0119556
0.00169988
0.00994856
0.0201877
-0.00629581
-0.0204469
-0.0406856
0.231877
1.25274
-0.00743796
0.0115253
0.0159942
-0.0173772
-0.00534516
0.0215668
-0.00156784
-0.0125728
0.0323738
-0.126044
0.0334987
-0.012635
1.35173
1.16205
1.28148
0.0478545
0.139987
0.599891
-0.0063239
0.00999086
-0.0394024
0.0125246
0.0121218
0.00314187
1.22526
1.27809
0.08239
0.702922
1.36209
0.514193
1.12183
1.20708
1.3381
0.76842
0.906418
1.35689
0.634528
0.100352
1.23786
1.01245
-0.0299013
1.19769
1.14537
1.50327
1.36544
0.0850806
1.13927
0.0505734
0.381105
0.229275
0.161734
1.09688
1.09017
0.567527
-0.00512147
0.253675
0.0166305
1.34323
1.55687
1.20207
1.38961
1.40269
1.41781
1.2719
1.19538
0.300368
1.23933
0.00344736
0.218648
-0.0145648
1.23891
0.331321
0.62905
0.897084
0.33825
-0.0108063
-0.151088
0.0229719
0.089127
-0.0150928
0.0157623
1.32655
1.16219
1.19071
1.12782
1.40833
0.197812
-0.0652881
1.37491
1.18265
0.0809685
1.02288
1.51903
1.29574
1.23893
-0.352104
0.738066
0.00362024
1.19125
0.463499
0.0737563
0.499947
0.0409328
0.941771
0.0382064
-0.00240848
-0.00388296
0.0114246
0.000550271
-0.00588032
0.0157048
-0.0448976
1.31954
1.19867
1.28209
0.174458
0.13912
-0.0472215
0.530341
1.00175
0.0916412
0.0947726
0.117789
0.0324911
0.100403
-0.00666282
0.826732
0.0206732
0.974021
0.0197026
1.16618
0.104344
0.465592
1.20279
0.224785
0.947311
0.510304
0.627915
0.112655
0.110919
0.790485
0.151451
0.132664
0.110882
0.958684
0.0808171
0.798471
0.974609
0.877247
1.02627
0.0451807
-0.0127125
1.22706
0.478283
0.0923084
0.0899803
0.00359744
1.49092
1.60251
0.304098
1.26219
0.25525
1.59574
1.40434
-0.994935
0.0964058
0.0376963
0.0952548
0.629859
0.165931
0.820022
0.857483
0.0168683
0.0628578
0.0422118
-0.0174282
1.33646
1.40219
1.34875
1.31341
1.65153
1.46489
1.58921
0.145988
1.42417
1.50924
1.46707
1.21453
1.56043
1.44012
1.50313
1.59937
1.49433
1.64747
1.64633
1.56577
1.54549
1.59485
1.57581
1.50397
1.64994
1.60037
1.23008
-0.023138
1.37381
1.46376
1.49225
1.47694
1.34873
0.662549
0.0878562
0.00179206
-0.192904
0.140448
0.746345
1.17479
1.00889
0.462685
0.607202
1.22771
0.993258
1.26987
0.0406529
0.535719
-0.00361915
1.13929
0.288496
1.15279
0.514577
-0.0793531
-0.0004035
0.0099135
0.178696
0.11265
0.0335732
0.00748933
-0.151655
0.25232
0.0262282
0.222228
1.19169
1.038
1.12429
0.120364
0.0171327
0.155932
1.33559
1.40247
0.977844
0.0323018
0.525004
0.147182
1.24195
1.3319
1.22399
-0.00513809
0.103395
0.0143262
0.00320541
-1
-0.221041
0.00620774
1.03522
-0.0211931
1.27593
1.29744
1.48088
1.3627
1.52577
1.32085
1.27487
0.368095
-0.0181245
-0.0143805
0.0171159
1.47159
1.12056
1.26591
-0.274449
-0.0614766
0.403489
1.18266
1.46969
1.41562
0.15727
0.117932
1.36135
0.289107
1.21244
0.543976
1.28814
-0.718217
0.045217
1.22105
1.15916
1.11249
1.1598
1.47146
1.61291
1.67276
1.5842
1.4134
1.57485
1.39582
1.33877
1.53374
1.3639
1.58938
1.48259
1.47077
1.14049
1.10704
1.2122
1.17297
0.348038
0.562073
0.146713
1.53432
1.44853
1.30592
1.32405
1.4406
1.36747
1.28544
1.28631
1.52142
1.26521
1.12855
1.26113
1.1441
1.55948
1.4777
1.34567
1.15817
1.20515
1.05257
0.387693
-0.00684204
0.0362862
0.118609
-0.0144244
0.861784
1.32228
1.48268
1.38228
1.16192
1.32195
0.1342
0.876821
1.36497
0.018196
0.0325094
1.25473
1.27315
1.42622
0.00909175
0.845448
0.0183686
0.0864059
1.16764
0.205602
0.120052
0.519224
0.858715
0.528972
1.14569
0.843322
1.17163
0.074831
1.11788
0.652092
0.00630572
0.221655
1.15479
0.202317
1.14582
-0.137002
-0.0184588
-0.00326818
0.329921
-0.00392301
1.32179
1.37037
1.40471
1.39021
1.14668
0.0289799
-0.0209677
0.0508542
0.822455
1.22369
0.0691956
1.12837
0.0383906
1.43844
1.2234
1.3522
1.35132
1.38756
-0.0097741
0.264837
1.1366
1.12574
0.461858
1.66964
1.46545
1.61891
1.33314
1.05151
1.15793
1.15584
1.24152
1.28125
1.51846
1.45645
1.3379
1.4303
1.48562
1.45158
1.56345
1.54424
1.52991
0.0441557
1.52574
1.259
0.406679
1.24516
1.52642
1.43724
1.53466
1.1774
0.65215
0.303264
0.0577783
0.00268002
0.472385
0.109217
-0.0456968
0.0127253
0.214005
0.0780053
-0.066135
-0.0117474
-0.0556355
-0.0263885
0.0443601
0.0215754
0.0693467
