# vtk DataFile Version 4.2
vtk output
ASCII
DATASET POLYDATA
POINTS 642 double
-1.03996 2.16048 -0.400209
1.17478 2.20988 -0.356707
-1.41104 -1.66137 0.00525854
0.991788 -1.41141 0.150492
-0.0336355 -0.255327 1.28367
-0.00413137 1.74055 1.33808
-0.138234 -0.192558 -0.0404289
-0.252368 1.87123 -1.35726
1.20966 1.49997 -0.48964
0.899999 0.811722 0.349147
-1.06238 1.4194 -0.546715
-1.01948 0.55225 0.451788
-1.38146 1.68753 0.157768
-0.6142 1.2468 1.06232
-0.574556 2.41209 0.921978
0.608439 2.40812 0.894207
0.00572544 2.78507 -0.208117
1.00241 2.07767 -0.53689
-0.925837 2.04502 -0.703812
-1.33319 1.81355 -0.943354
-1.91403 1.97265 -0.929623
-1.01459 1.01982 -0.168147
0.594378 1.29555 1.02483
1.45303 1.76337 0.117847
-0.4086 -0.115883 0.973306
-0.0471619 0.274894 1.1366
-1.1065 -0.611165 -0.0619703
-1.27828 -0.792444 0.3635
-0.223189 1.45716 -0.882163
-0.740617 0.820477 -0.328981
2.03219 1.96962 -0.843021
1.02908 1.81518 -0.594116
1.1401 -0.655228 0.416912
0.384587 -0.156571 0.931693
0.617322 -1.26937 0.956178
-0.685783 -1.18669 0.692941
0.0643043 -1.0053 0.395614
-0.687018 -0.834807 0.0561012
0.470377 -0.85099 0.151043
0.520155 0.569076 -0.193701
0.930295 -0.497195 -0.0612199
1.17797 1.26179 -0.154757
-1.30546 2.04937 -0.137569
-0.941639 2.02596 0.554788
-0.758299 2.35647 0.22514
-0.760125 0.89703 0.661507
-0.893717 1.5267 0.675629
-1.03781 1.17191 0.234759
-0.210989 2.06521 1.23811
-0.660324 1.86681 1.11522
-0.28492 1.55977 1.22464
-0.335343 2.80785 0.449596
-0.520788 2.49291 -0.26717
0.214627 2.06682 1.2351
0.00444657 2.56068 1.04351
0.614583 2.40834 -0.269787
0.33042 2.68856 0.410168
0.795213 2.2404 0.118018
-0.453772 2.86287 -0.698125
-0.960185 2.10914 -0.629589
1.0805 2.13284 -0.471318
0.490358 2.93447 -0.722746
-0.637483 1.94543 -0.842648
-0.0538503 2.44289 -0.87667
0.379502 2.07539 -1.01882
-1.61145 2.23144 -1.10212
-1.54709 2.30287 -0.620146
-0.777193 1.80231 -0.786528
-1.45858 1.98531 -1.08638
-1.57652 1.53864 -0.977679
-1.81744 1.78589 -1.57971
-1.35171 1.67612 -0.91656
-1.7516 1.86744 -0.313078
-1.03374 1.26297 -0.375428
-1.64091 1.47832 -0.561272
-1.37993 1.407 -0.16004
-1.01985 0.709464 0.107656
1.00414 2.02966 0.459082
1.41274 2.20235 -0.0851441
0.273299 1.577 1.23683
0.630866 1.86959 1.0323
1.19808 1.27946 0.256028
0.952243 1.56997 0.575059
0.752077 0.99362 0.565993
-0.226215 0.765807 1.08337
-0.0211091 1.19554 1.19625
-0.916401 0.142156 0.857916
-0.441779 0.454716 0.960804
0.0322198 -0.0513168 1.74015
-0.235631 0.0983449 1.33439
-0.201168 -0.247527 1.30094
-1.2754 -0.233154 0.116614
-1.27388 -0.168716 0.490774
-0.894028 0.511689 -0.167857
-1.109 -0.0143232 -0.0790156
-1.35049 -1.26564 0.250915
-1.27631 -0.820816 0.0837679
-1.20777 -1.24275 0.0615358
-0.969704 1.59601 -0.69701
-0.879148 1.25734 -0.454509
-0.254246 1.60176 -1.22999
-0.763961 1.67037 -0.75233
-0.522815 0.15145 -0.144648
-0.614014 1.31874 -0.615686
-0.193671 0.849461 -0.4346
1.10329 1.98336 -0.588562
0.391484 1.83366 -0.95905
1.68912 2.54034 -0.479657
1.64046 2.26215 -0.860363
1.22815 1.68401 -0.617945
1.53158 1.97462 -0.875605
1.5474 1.65291 -0.742854
1.00996 -1.10478 0.306116
1.02865 -1.03959 0.715218
1.14193 -1.60946 0.54368
0.850749 0.201648 0.813098
0.909134 -0.496015 0.75344
1.14572 0.0246546 0.508468
0.227979 -0.744239 0.842766
0.599082 -0.741792 0.953808
0.0967721 -0.232996 1.21778
0.37685 -1.51268 0.57731
0.71509 -1.65325 0.0504226
-0.187556 -0.656907 0.780135
0.0701014 -0.987058 0.637572
-0.870935 -1.43284 0.158668
-0.487866 -1.10085 0.480013
-1.20131 -1.65992 0.538113
0.396469 -1.03304 0.258539
0.765908 -1.29449 0.141953
-1.04567 -1.28203 -0.019158
-0.491299 -0.961384 0.217026
0.157332 -0.530806 0.0663229
-0.0810029 -0.752914 0.179993
-0.398184 -0.509779 0.0430935
0.697857 -0.803339 0.0467605
0.8821 -1.06386 0.164368
0.22253 0.0194857 -0.0890883
0.475002 -0.462385 0.000380148
0.793005 0.709349 -0.101034
0.699287 -0.0852163 -0.0656663
0.786648 1.23229 -0.326427
1.06424 -0.656199 0.133046
1.26005 1.40665 -0.37686
0.924735 0.328575 0.0199554
1.14523 0.0653954 0.159686
0.994508 1.03041 0.102449
0.114798 0.0972483 1.24524
0.416373 0.514166 0.954273
0.187994 0.835676 1.08434
-1.2126 -1.09081 0.699991
-0.618547 -0.706845 0.701875
-1.02465 -0.558357 0.699295
-0.724306 -0.415558 -0.0376663
-0.9555 -0.840078 -0.0619947
-0.856866 -0.068851 -0.100755
0.753346 1.52315 -0.532883
0.217833 1.18235 -0.57125
0.316451 1.61642 -0.883381
1.53127 1.48617 -0.0644725
1.73816 1.54823 -0.475647
1.99319 1.98236 -0.198915
-1.16847 2.12902 -0.305034
-1.00138 2.13187 0.0205658
-0.889061 2.22304 -0.174012
-1.17953 1.85448 0.339864
-1.13734 2.04782 0.210856
-1.43122 1.94767 0.0707449
-0.692309 2.43777 0.592948
-0.894617 2.24013 0.423931
-0.77199 2.23575 0.76087
-0.914106 0.672178 0.524541
-0.888585 1.02855 0.464143
-0.961411 0.807916 0.343474
-0.777879 1.39804 0.919889
-0.848752 1.2292 0.693933
-0.657812 1.10123 0.841471
-1.25354 1.42992 0.207216
-0.983932 1.35162 0.419478
-1.12978 1.60826 0.409339
-0.0817038 1.87691 1.33931
-0.256066 1.82487 1.27079
-0.121451 1.68036 1.33772
-0.624002 2.15407 1.04542
-0.436204 1.99996 1.2116
-0.382624 2.25592 1.13309
-0.473977 1.4067 1.20954
-0.460593 1.71399 1.21053
-0.65427 1.56377 1.11067
-0.998491 1.79091 0.666904
-0.845491 1.69075 0.944384
-0.872169 1.9999 0.909456
-0.641682 2.4442 -0.0132379
-0.793239 2.27588 -0.340451
-0.454568 2.60376 0.710447
-0.629379 2.63981 0.362673
-0.310792 2.68999 -0.238378
-0.455117 2.68276 0.0556439
-0.160345 2.81591 0.102961
0.076339 1.87834 1.33935
-0.00140872 2.08096 1.23084
0.325086 2.55448 1.02902
0.136218 2.32956 1.21219
0.423857 2.27853 1.17498
-0.134488 2.32468 1.21212
-0.312911 2.54962 1.03987
0.96096 2.22567 -0.344025
0.708212 2.32641 -0.0710167
1.05432 2.1923 -0.231219
0.161033 2.70934 0.110881
0.470395 2.58132 0.0488105
0.315662 2.59125 -0.220991
0.732355 2.41101 0.532415
0.610548 2.53487 0.306223
0.489111 2.6091 0.680818
-0.151574 2.68957 0.767686
0.170327 2.68994 0.758548
0.0189527 2.81665 0.463014
-0.685754 2.34046 -0.516765
-1.01033 2.14632 -0.525713
-0.176325 2.68906 -0.465663
-0.423784 2.58116 -0.51354
-0.944239 2.07692 -0.674653
-0.584337 2.43412 -0.652663
-0.524936 2.41672 -0.705959
1.13106 2.17271 -0.428104
0.819775 2.28011 -0.453901
0.571408 2.42607 -0.649155
0.586167 2.41894 -0.592823
1.05224 2.11264 -0.501069
0.506115 2.53366 -0.482855
0.173545 2.68825 -0.45495
-0.334214 1.88713 -1.07691
-0.11585 2.08815 -1.10194
0.0546319 2.03724 -1.2818
-0.423143 2.33954 -0.809052
-0.328597 2.22691 -0.950421
-0.864573 1.99604 -0.743115
0.652255 2.09885 -0.693587
0.21437 2.30094 -1.02862
0.406687 2.3471 -0.770206
-0.0135307 2.67931 -0.652326
0.149526 2.5703 -0.749199
-0.213431 2.61589 -0.85045
-1.31014 2.28543 -0.719779
-1.24573 2.19028 -0.491323
-1.34483 2.15465 -0.964124
-1.33781 2.25731 -0.941624
-1.87792 2.28648 -0.764088
-1.60042 2.31629 -0.905452
-1.90985 2.31845 -1.0839
-0.387269 1.7962 -1.02224
-0.737666 1.85455 -0.805665
-1.46733 1.94546 -1.09324
-1.1303 1.87007 -0.820871
-1.14284 1.82744 -0.819505
-1.07102 1.91713 -0.800517
-1.26632 2.03603 -0.912759
-1.33698 1.54742 -0.772709
-1.44704 1.58108 -1.05166
-1.28454 1.57982 -0.768603
-1.91339 1.93639 -1.21876
-1.67304 1.78722 -1.1588
-1.84949 1.68101 -1.0421
-1.36846 1.76814 -0.960655
-1.55988 1.81012 -1.15721
-1.52619 1.88228 -1.18597
-1.51985 2.11374 -1.17868
-1.52474 2.02204 -1.35152
-1.76887 2.22838 -1.40677
-1.44327 2.238 -0.329215
-2.00556 1.95563 -0.589552
-1.77804 2.20183 -0.413642
-1.57153 2.017 -0.202613
-1.60579 1.78151 -0.0692904
-1.04457 1.36916 -0.484007
-1.38222 1.52084 -0.701148
-1.31159 1.40201 -0.392297
-1.36875 1.46757 -0.542597
-1.0248 1.15838 -0.281369
-1.64271 1.53825 -0.790488
-1.90273 1.6547 -0.751488
-1.02296 0.984644 0.128402
-1.03191 0.580519 0.313002
-1.45334 1.52061 -0.0135527
-1.23231 1.29505 0.0356127
-1.00557 0.873184 -0.045713
-1.11377 1.1382 -0.0535904
-1.22114 1.28024 -0.227306
-1.76646 1.66121 -0.460561
-1.52854 1.48187 -0.362514
-1.63816 1.5998 -0.228585
1.13466 2.13285 -0.0716286
1.28887 2.2667 -0.275487
0.76744 2.20089 0.682645
0.889777 2.13772 0.293234
1.47841 1.9969 0.0563842
1.21717 2.02659 0.0851762
1.29348 1.90487 0.27974
0.110692 1.68474 1.33772
0.255633 1.83017 1.27187
0.622356 1.59764 1.04383
0.460605 1.72951 1.2024
0.462407 1.43953 1.20027
0.453968 1.99996 1.20735
0.637204 2.13773 0.996681
0.964552 1.0499 0.277752
0.950414 1.16179 0.377139
0.856939 0.850206 0.412274
1.21197 1.66341 0.32074
1.13952 1.41175 0.394004
1.38125 1.51106 0.225539
0.66288 1.15886 0.793073
0.843046 1.3165 0.564366
0.764988 1.44896 0.841552
0.768386 1.96919 0.761568
0.766106 1.7199 0.810223
1.03747 1.81901 0.572088
-0.142511 1.39732 1.22234
-0.00743931 1.55752 1.33725
-0.392935 1.07064 1.05578
-0.295698 1.22014 1.20958
-0.0414212 0.659524 1.08501
-0.145745 0.957965 1.20817
-0.116585 0.418887 1.0594
-1.05569 0.395032 0.656848
-0.835537 0.523916 0.746221
-0.39795 0.112581 1.00354
-0.663708 0.31002 0.954449
-0.64708 -0.0170169 0.875151
-0.640641 0.715024 0.849507
-0.506171 0.902323 0.954531
-0.0105872 -0.302796 1.48092
-0.26114 -0.270592 1.66823
-0.106367 -0.253572 1.3198
-0.139782 0.136028 1.30822
-0.173515 0.021077 1.49826
-0.0457272 0.0748487 1.41533
-0.261293 -0.178454 1.16184
-0.254544 -0.0886515 1.39237
-0.262677 -0.0102026 1.19744
-0.311956 0.602608 1.01015
-0.257725 0.217211 1.08959
-0.184541 0.310632 1.09296
-1.2713 0.258759 0.309891
-1.24644 0.316228 0.541335
-1.076 0.410528 0.012682
-1.18529 0.282243 0.126333
-1.3075 -0.512283 0.435508
-1.27315 -0.233757 0.288074
-1.40163 -0.575658 0.24092
-0.925983 1.14983 -0.377016
-0.925784 0.890251 -0.232285
-1.15788 -0.403636 -0.0889334
-1.0126 0.2236 -0.122925
-1.07393 -0.213347 -0.184189
-0.957561 0.7128 -0.146513
-1.00447 0.537919 -0.0618116
-1.39995 -1.48361 0.145183
-1.31484 -1.2744 0.119511
-1.50662 -1.4361 -0.136583
-1.27671 -0.825913 0.20067
-1.23558 -1.05252 0.19851
-1.27337 -1.03622 0.310425
-1.11133 -0.975167 0.0709439
-1.17835 -1.03269 0.138812
-1.23172 -0.770514 -0.0496271
-1.27382 -0.174615 -0.023168
-1.26016 -0.517631 -0.023016
[...]
POINT_DATA 642
SCALARS Mean_Curvature double 1
LOOKUP_TABLE default
-0.72871
-0.267391
10.6815
4.58284
-1.92696
-0.0349769
0.0477766
8.31348
-0.89265
-0.845575
-0.801935
-0.248883
1.72107
3.31658
2.54135
2.75829
2.91194
0.148865
0.230161
-0.563508
0.0694541
0.011111
2.54929
-1.60992
-0.940738
-1.09781
-1.37813
-0.994513
0.20116
0.0593267
4.93508
0.218748
3.03392
-0.807642
4.17553
1.8439
0.338732
-0.344639
-0.704463
-0.209972
1.11266
-0.992833
-1.29897
-0.662965
-0.798007
-1.09578
-1.3341
-0.558962
0.624335
1.98959
-1.43021
2.96806
-0.892829
0.0192222
1.90709
-0.496622
0.96127
-1.32124
6.61419
0.270631
0.557793
5.94502
0.0155182
-0.731085
3.07771
1.01666
1.68758
-0.0620959
-0.315225
4.80238
6.36802
-0.750164
1.9498
0.154826
5.46115
0.841325
-0.348755
2.02905
2.51326
-0.742421
1.24661
3.59204
-0.394198
-1.01771
-0.341258
0.562021
3.04972
-1.16815
7.66495
9.43949
8.36209
-1.2616
3.38277
-0.0451778
-0.414485
2.38167
4.17381
-1.22418
0.328222
0.148545
5.3089
0.134745
-0.174076
0.270323
0.189415
0.199112
0.572057
6.94643
1.87303
-0.536513
4.60765
3.25647
1.1566
1.13162
5.71367
3.98973
1.33357
4.39782
-0.280011
2.82961
3.02926
5.74424
6.49255
-0.549287
-0.308059
2.35521
-0.751172
4.39242
-0.341597
-1.25492
2.54184
0.00899424
0.16483
-0.596735
-0.0770488
-0.547198
-2.20284
-0.188094
-0.461316
-0.337587
0.461838
-0.178432
-3.44609
0.0695508
-0.532805
7.92614
-0.65867
4.63029
0.736375
0.768316
3.79868
-0.604885
2.0443
-0.378507
3.26435
-0.609028
-0.0790624
0.267378
0.0866572
0.31998
2.27809
4.4064
-1.15027
-1.40033
-0.472094
1.46302
1.70395
4.21503
0.862422
1.90254
0.823012
-0.423457
-1.03502
-0.649913
1.57703
1.39086
-1.48878
2.14595
-1.32945
0.906405
4.42097
0.117758
3.84947
1.71919
2.40175
0.863773
3.18156
1.3585
1.82331
2.10799
2.24328
3.51368
-0.341654
-0.749294
0.950145
3.3458
1.24934
1.45246
2.24884
4.37722
-1.78632
3.35602
2.59511
3.41997
3.01914
3.8476
-0.466561
-0.921244
-0.62573
-0.174231
1.28974
-1.10866
2.49672
1.89713
2.3522
1.02264
1.34718
2.49621
-0.795353
-0.221438
-0.13803
-1.3493
0.348155
7.35198
-0.132443
0.3321
-0.540141
4.89744
0.521592
0.737583
0.810816
0.0640808
0.345945
-0.659606
2.94758
-0.715472
2.01154
-0.0143678
-0.362631
3.77129
-0.569201
3.06145
0.465697
4.51248
3.31369
-1.38968
-0.0755024
8.39954
4.22014
2.50468
5.82052
0.347965
0.0591339
-0.718551
0.0828707
-0.0126998
0.386455
-0.655136
5.27159
10.5385
0.90273
3.66949
-0.0185524
5.30167
-0.19132
3.46478
2.13869
2.71955
7.0605
6.38919
4.51597
4.56139
4.19642
1.15068
3.45582
-0.0387804
1.1838
0.0783353
-0.0221624
0.309547
0.871365
4.25414
-0.683755
-0.841613
2.56684
1.27437
-0.475023
-0.356083
1.17729
1.39806
1.12393
3.28226
-0.893251
2.70609
0.679422
-1.47982
0.716267
-1.46815
4.26526
3.66799
0.488793
1.09138
2.38946
3.82535
3.01918
1.92172
-0.851409
-0.541886
-0.814423
-1.46654
2.11647
3.6293
-0.153746
-1.48001
1.92193
-0.717576
-0.455133
3.08589
-1.48738
5.57286
-2.125
2.85773
-1.32984
7.30616
-1.4952
1.93004
0.276963
-1.15486
2.65921
-0.431663
0.562835
0.583958
7.27611
7.89333
-0.81597
1.67246
5.23684
3.29979
0.506114
4.20855
-1.30777
-1.53039
-0.728357
0.919025
3.63519
5.10034
-0.692288
2.91006
1.69057
-0.718282
5.76638
-0.0879993
-0.338461
0.163581
-0.57512
12.9421
-0.0993574
-0.308482
0.64548
3.41694
8.82106
-0.851682
0.767332
1.02667
-1.73976
-1.74716
11.3405
10.6883
0.547653
4.86586
0.13999
-0.0490043
-0.0327893
-0.151633
0.195772
0.0755093
0.137146
5.22992
0.0914448
0.338819
0.322676
0.893204
0.046284
0.291451
-0.04263
0.075521
0.070663
0.247299
0.225141
-0.0583721
0.0941123
0.29643
0.0122969
0.334066
0.180805
0.174708
0.155952
6.38588
0.283057
-0.218128
-0.174153
-0.201496
0.117172
0.950234
6.46584
6.05653
1.65602
4.12997
1.8413
3.73357
2.71904
4.39858
7.78278
0.329223
0.942813
-0.302237
2.16078
0.0442889
5.97008
-1.20894
7.57236
-1.15674
-1.22203
4.2362
8.6771
5.50591
-2.25415
-0.321537
5.2851
-0.360596
4.62773
2.4098
1.66668
4.30945
-1.22051
-1.17801
-0.415985
0.116886
3.19601
-0.656243
0.143333
-0.312745
2.34591
0.545847
0.197101
4.75257
-0.565048
-0.31507
-0.729188
3.04427
2.79212
4.28983
3.47999
-0.254086
1.91148
2.85356
-0.24111
4.47408
-0.308057
-0.0703786
-0.23137
-0.0624086
-0.655034
-0.421584
-0.473894
2.40653
5.96085
3.52978
4.48376
-0.0617931
1.0751
-0.719184
6.28086
3.2305
6.68962
-0.29967
0.0731715
0.213132
10.1258
8.67549
-0.0999483
4.59765
-1.07336
2.62459
0.845492
0.951212
8.47926
0.601976
-2.21988
2.92539
2.82849
0.277794
0.0352016
-0.291323
-0.0218351
-0.0133218
0.225332
-0.141755
-0.412735
0.0706518
-0.191295
-0.307372
0.252088
0.134739
-1.31322
-1.60302
-0.892209
-1.05896
-1.83635
7.57915
7.20694
0.0791702
0.177032
0.352607
0.288443
-0.270838
-0.141347
-0.500167
-0.364384
-0.230999
-0.223761
0.399991
-0.325292
1.87191
-0.0139849
-0.32697
-0.520815
-0.779016
2.06843
2.63124
3.57046
9.36269
7.23188
-1.65776
6.05976
2.21327
-0.382522
-0.533647
-0.400994
4.23211
-0.598832
6.13285
-0.271755
-0.797076
0.308554
0.637025
-0.741127
-0.46749
-0.249954
7.40749
1.16748
0.914911
7.64236
-1.08828
1.19803
7.25843
0.437454
-0.478967
0.237171
-1.39731
-0.714188
-0.773219
-1.64696
-1.3247
-2.86904
4.22106
-0.443368
-1.28965
3.54359
-1.26222
6.56687
2.85256
3.10884
-1.65024
2.0806
-0.0886666
-0.535987
-0.338647
-0.207634
-0.715327
1.9115
4.63654
1.055
-0.877308
-1.15249
4.0765
-0.887097
1.6883
-0.0229366
-0.899209
-0.407478
0.700754
-0.545386
7.45657
5.00446
-1.35456
-1.66665
7.17213
-0.0544886
-0.318013
-0.111168
-0.730248
-1.71297
3.54925
-1.21642
0.737725
-0.181962
0.0306455
-0.12453
0.102176
0.00675486
0.213871
0.147761
0.175823
0.0536889
0.110285
5.37083
-0.202372
0.534848
4.1549
-0.120105
0.193485
0.147453
-0.0853246
-0.749978
0.305153
4.35917
3.06462
3.49188
-0.192472
0.262366
6.47833
7.70795
1.61846
0.773761
4.01262
4.34864
2.49143
2.97609
2.17691
2.8576
4.01932
SCALARS CoVolArea double 1
LOOKUP_TABLE default
0.0327419
0.0202237
0.0407533
0.0102705
0.0169132
0.0175471
0.0414084
0.054211
0.0172583
0.0253275
0.0133635
0.0379283
0.0781425
0.0692418
0.085011
0.0950223
0.100163
0.0542702
0.0450591
0.0216708
0.101789
0.0458779
0.0733582
0.0617239
0.066267
0.0318098
0.0364347
0.0486455
0.0648668
0.0453793
0.109915
0.0302309
0.0488753
0.0687795
0.0792496
0.0662434
0.0504902
0.0353769
0.0300086
0.0911704
0.0468143
0.042217
0.0763766
0.0889758
0.0970052
0.0815512
0.0850618
0.0724661
0.0534108
0.0754735
0.053169
0.117335
0.0852751
0.0573017
0.0924904
0.0830964
0.106467
0.0909666
0.100174
0.0508134
0.0331711
0.119478
0.0714945
0.0896977
0.0837338
0.0610665
0.0843033
0.0236595
0.0291302
0.0515837
0.100359
0.0301307
0.0824974
0.0404313
0.0598024
0.0537906
0.0694791
0.0870076
0.0672024
0.052049
0.0704735
0.0482991
0.0841688
0.0840434
0.0602519
0.060041
0.100658
0.0770993
0.0728815
0.0312213
0.0417177
0.071701
0.0876581
0.0519279
0.0515633
0.0476
0.0302188
0.0280243
0.0188592
0.0268476
0.062117
0.0300023
0.0907268
0.0594542
0.128574
0.0261001
0.0614885
0.079551
0.0500478
0.0255531
0.037202
0.0338328
0.0323645
0.0661162
0.109331
0.0976057
0.0623233
0.0840599
0.0498472
0.0659218
0.0352635
0.0967164
0.0755406
0.059602
0.0453184
0.0721671
0.0591812
0.115144
0.0306393
0.0267846
0.0358174
0.0418951
0.0398168
0.0408098
0.0428982
0.0310328
0.0243565
0.0880297
0.0369317
0.0490616
0.0546776
0.0367668
0.0374602
0.0434665
0.0544717
0.0705934
0.042492
0.0338716
0.0890529
0.0614339
0.0675545
0.0670959
0.0743631
0.0406156
0.0262624
0.0363584
0.0478275
0.103359
0.0587775
0.0445327
0.0546339
0.107333
0.0587559
0.0886875
0.0741579
0.0853526
0.0874831
0.0784002
0.0900569
0.0907479
0.0854921
0.0642742
0.0785518
0.0566769
0.0740394
0.0811105
0.0745895
0.0750513
0.0857493
0.0864713
0.0342449
0.0483654
0.0356666
0.0783077
0.0628355
0.0723143
0.0636582
0.0609259
0.0693045
0.0891319
0.081891
0.0885151
0.0940949
0.0664995
0.0996452
0.105468
0.0883117
0.105238
0.114836
0.0346622
0.0513676
0.0987123
0.0756695
0.0822777
0.0721003
0.0914283
0.0465381
0.0863198
0.0541216
0.111918
0.101306
0.098187
0.0975223
0.101297
0.10311
0.104201
0.104024
0.115315
0.0644903
0.0479773
0.0859364
0.0786903
0.0337534
0.0523866
0.066889
0.0273684
0.0484914
0.0813979
0.0439752
0.0300294
0.0915696
0.10551
0.0645607
0.103272
0.0904285
0.0771298
0.103896
0.0617238
0.0696449
0.111025
0.095643
0.0981863
0.100905
0.0888986
0.0657854
0.0536374
0.0404273
0.0533838
0.105959
0.0731119
0.100923
0.0335941
0.0322318
0.0230383
0.0211951
0.0227433
0.0368208
0.041253
0.0277874
0.0377303
0.0251038
0.109075
0.0631713
0.0754759
0.0193993
0.0370801
0.0390869
0.0476222
0.0635612
0.110239
0.0755219
0.1125
0.10347
0.0754735
0.0697273
0.0295897
0.0446578
0.0471251
0.0497977
0.0414395
0.0623351
0.0895127
0.060183
0.0636948
0.0641859
0.0595633
0.054671
0.052406
0.0479476
0.0762582
0.0527076
0.0614088
0.0695161
0.0443394
0.086891
0.0894592
0.0702437
0.0746626
0.0756064
0.0347267
0.0486042
0.0691696
0.0600703
0.0638757
0.0656815
0.0796196
0.0331814
0.0624595
0.0517887
0.0761979
0.0705558
0.0554977
0.0846944
0.0835138
0.0796178
0.0808938
0.0791139
0.0867247
0.0525268
0.0380796
0.0690524
0.0633604
0.0526145
0.0622652
0.0424844
0.0799637
0.0902542
0.0673983
0.093785
0.088656
0.0858934
0.0741235
0.046937
0.0708635
0.0353806
0.0283622
0.0479452
0.03689
0.0471831
0.0416242
0.043239
0.0616133
0.0476052
0.0368509
0.0962996
0.0849854
0.0627396
0.0815516
0.0628447
0.0814755
0.0580777
0.0260099
0.0386234
0.0393961
0.045721
0.0574475
0.0384819
0.0517228
0.0554672
0.0375947
0.0550082
0.0359843
0.0261319
0.0382244
0.029829
0.0255317
0.0362665
0.0633464
0.0423248
0.0448972
0.0276508
0.0227637
0.0145496
0.0188959
0.0297212
0.0243213
0.0303906
0.0656267
0.0336424
0.0449933
0.0351037
0.0557931
0.025913
0.0201374
0.0800114
0.126876
0.11325
0.054474
0.0925672
0.0698279
0.0843306
0.0953874
0.0613204
0.0205236
0.0382621
0.0319612
0.0626162
0.0929221
0.0312244
0.0395409
0.0397232
0.0350296
0.0313798
0.0426199
0.0496787
0.111947
0.0696294
0.108948
0.0376099
0.0330767
0.0242426
0.0274223
0.0203837
0.0290112
0.0276718
0.0240006
0.0542289
0.0368657
0.0807277
0.0331494
0.0572423
0.0310577
0.0272789
0.0626333
0.0546851
0.0562995
0.0486173
0.0393327
0.106738
0.0815112
0.0842095
0.0664849
0.08432
0.0607657
0.0727056
0.077886
0.0886117
0.0628231
0.0663236
0.0565311
0.0368113
0.0426538
0.0260969
0.0669831
0.0553263
0.0562835
0.0488259
0.0537155
0.0650177
0.0646278
0.0675757
0.0702367
0.0877182
0.0345964
0.0913692
0.110646
0.0697665
0.107645
0.0693078
0.0396616
0.0543029
0.0419489
0.0552348
0.0569637
0.053467
0.0590018
0.0621105
0.0960879
0.0726524
0.0456666
0.0747091
0.0555965
0.106175
0.0992139
0.0612747
0.0672848
0.0480392
0.0566456
0.0427805
0.0183983
0.0469131
0.0445083
0.0279051
0.0277121
0.0327369
0.0484109
0.0536029
0.0365002
0.0386934
0.0337383
0.0511235
0.0522023
0.0432886
0.0457801
0.045033
0.0357324
0.0406624
0.0316997
0.0348925
0.0422541
0.0376612
0.0399196
0.0392986
0.0361224
0.0209953
0.0148608
0.0261811
0.0249007
0.0341483
0.03083
0.0384182
0.0747617
0.0492185
0.0627133
0.0511354
0.0940634
0.0342215
0.028527
0.0336212
0.0395636
0.028593
0.0495992
0.0538798
0.0580641
0.0593548
0.0499778
0.06673
0.0317567
0.0483286
0.0419096
0.0225524
0.043803
0.027418
0.0287687
0.0388938
0.0302188
0.0469346
0.0513343
0.0481139
0.0426975
0.0497391
0.0586713
0.0654684
0.0380921
0.0557781
0.0810163
0.0414232
0.0572832
0.0517078
0.0590769
0.0641438
0.0542744
0.0409417
0.0509952
0.0344114
0.0399211
0.027661
0.0909542
0.0830786
0.0959348
0.100284
0.0786372
0.0522829
0.0412851
0.0612149
0.0612615
0.0700795
0.0590542
0.0711277
0.0421218
0.0886467
0.0854217
0.0995373
0.0639226
0.0526494
0.0438343
0.0736571
0.0554877
0.0586131
0.0629415
0.0950068
0.0589766
0.0721527
0.0893486
0.0852683
0.06702
0.0754977
0.0644894
0.0559135
0.0337402
0.0400657
0.056278
0.0511192
0.0322526
0.0283914
0.0207159
0.0258065
0.032357
0.0311524
0.0393866
0.0289243
0.0507092
0.0450537
0.0330109
0.0344166
0.040249
0.0289539
0.0781484
0.0407152
0.0274856
0.0324612
0.126749
0.0790174
0.109513
0.120872
0.115672
0.0930199
0.0448883
0.0562
0.0697969
0.0660633
0.0855745
0.0742659
0.0578403
0.038931
0.0421549
0.0414182
0.0432706
0.0533515
0.0341384
0.0663361
0.0468029
0.0444283
0.0428235
0.0721443
0.0854729
0.0956749
0.0994611
0.0946993
0.0536044
0.0790523
0.0766309
SCALARS SignedDistance double 1
LOOKUP_TABLE default
1.14848
0.846143
0.0354115
-0.178397
0.0877072
-0.000469653
1.27992
0.113508
0.450494
1.21402
1.18274
0.0271408
-0.00731819
-0.000375152
-0.0386289
-0.0194442
0.0333528
1.26877
1.25984
1.11106
0.00306256
1.30623
0.0485048
0.688603
1.20357
0.197991
0.0327651
0.00822127
1.17413
1.35703
0.032507
1.1977
0.0148719
1.22481
0.0180144
0.0549467
1.32744
0.32962
0.783811
1.19782
0.0198249
0.415698
0.0300563
-0.0262127
0.0483244
1.14864
0.0427325
1.15068
-0.0411708
0.0126309
0.00283971
0.0162419
1.06458
-0.0435605
-0.00696714
1.14447
-0.0120607
0.505356
-0.926333
1.2398
1.18183
-0.151776
1.27579
-0.000974468
0.00514032
-1.00676
-0.0184214
1.36534
0.196146
0.0734609
0.223222
0.926205
0.153225
1.16198
-0.268256
0.122621
1.23542
-0.0119273
0.127428
0.011185
0.00673057
0.12024
0.0122347
1.15956
0.0108641
0.0115453
-0.000139985
0.117841
0.0673542
0.0852643
0.0410001
-0.0162591
-0.00341891
1.23942
0.334993
0.260737
0.032618
0.62802
1.24956
1.22464
0.0482251
1.35879
1.15318
1.24779
1.17994
1.1851
0.335517
0.0262574
-1.01036
0.60254
0.151943
0.0423489
-0.0372437
-0.0160604
0.0149682
-0.0158265
0.146601
-0.00861805
1.23226
-0.0134178
0.0862881
0.173537
-0.0892995
1.49705
1.31938
0.0862258
1.16647
0.0111778
0.628186
0.373803
0.173183
0.668612
1.33486
1.50261
1.28516
0.0985098
0.3549
1.02778
0.708959
1.27715
0.112208
1.15552
0.0650611
0.0972448
0.365984
-0.0173289
1.29181
0.0810074
-0.0102357
0.0062954
0.00956917
0.784964
0.00316954
0.607728
0.032277
0.744538
1.257
1.19786
1.11833
-0.0785803
0.0223811
0.0432055
0.641489
1.10617
0.400658
0.00610685
-0.00754344
0.0542846
-0.0131753
0.0293338
0.00317825
0.10753
1.19415
1.17803
0.00743474
0.0106126
0.253042
-0.0295823
1.05322
-0.00138914
0.0199719
-0.00671419
-0.00649457
0.0331474
0.0184437
-0.0111001
-0.0126422
0.00200674
0.0206774
-0.0166135
-0.0307426
-0.0223341
0.100367
1.16769
-0.0177991
0.0174131
0.010503
-0.0200421
-0.00819088
0.0207434
-0.0385072
0.00456408
0.0306219
-0.129411
0.0295405
-0.0115515
1.29473
0.806578
1.22097
0.000868703
0.0522513
0.053733
-0.0149371
-0.00161339
-0.0269447
0.0119915
0.00783769
0.00411685
1.20168
1.19336
-0.000546554
0.671932
1.24789
0.264374
0.767192
0.896556
1.30365
0.252743
0.644687
1.2183
0.223183
-0.00363771
0.318909
0.0260961
-0.151199
0.842233
0.00824201
1.30797
1.21475
0.00201402
0.474655
-0.0287917
-0.0135925
0.161759
0.0462893
0.261371
0.136783
-0.0499222
-0.0101332
0.0842097
-0.050069
0.700146
1.35
0.244534
1.14596
1.1768
1.19515
0.838517
0.0280825
0.0149528
0.200065
0.0051865
0.180374
0.027487
0.675122
0.187583
0.171979
0.27092
0.209159
-0.878961
0.128018
0.0688478
0.0736326
0.0153159
0.0350599
1.1222
0.143267
0.315447
0.637809
1.20425
0.0708194
-0.170352
1.29427
0.270844
0.0456522
0.0545245
1.37125
1.20301
0.2002
-1.01364
-0.0845662
-0.00304711
1.14509
0.104959
0.0658444
0.115048
0.0225815
0.628035
0.00856368
-0.00656732
-0.00471694
-0.000400101
-0.00116357
-0.0132401
0.0114082
-0.0409019
1.26961
1.17254
1.2077
0.0541738
-0.0738555
-0.325809
0.147721
0.280036
0.0330567
0.0297505
0.0404706
0.00558526
0.00520717
-0.0142369
0.437376
-0.0118904
0.0468965
0.00815345
0.75794
0.0429705
0.0363745
1.07543
-0.00396216
0.171044
0.0836637
-0.0106977
0.218157
0.157177
0.0522026
0.14396
-0.00848715
-0.623396
0.163576
0.0473675
0.190737
0.453046
0.201219
0.0552723
-0.0444271
-0.0858705
1.044
0.118844
0.0638359
-0.0211998
-0.00268458
1.25178
1.38754
-0.0258624
1.13264
0.0528242
1.36188
1.22337
-1
0.175219
0.10092
0.012024
-0.0652178
-0.0145296
0.0996107
0.120128
0.0105614
0.00832114
0.00328411
-0.0237075
1.01825
1.18667
1.1684
1.14492
1.27197
1.23147
1.24651
0.113116
1.17576
1.27899
1.22003
0.308168
1.36587
1.21982
1.18846
1.24717
1.13013
1.21791
1.26326
1.24553
1.2734
1.18152
1.32059
1.28815
1.34125
1.30168
0.206647
0.0490108
1.2147
1.23826
1.27614
1.26137
1.11468
0.125648
0.326798
-0.0065634
-1.04623
0.118942
0.123555
0.0322617
0.104563
0.0487116
-0.00614015
0.259824
0.121621
0.953334
-0.227762
-0.120495
0.0513833
0.832991
0.262781
0.855986
0.0349662
0.0766916
0.000271955
0.0104944
0.00887017
-0.0302685
0.00998527
-0.00578461
-0.218904
0.0629536
-0.00794371
0.0951539
1.13751
0.165676
0.0821087
-0.16262
0.00281466
0.0945841
1.31571
1.37476
0.0176344
-0.00209232
0.337362
0.075834
1.19267
1.33782
1.2106
-0.0303089
0.133117
0.00525505
-0.00229009
-1
-1.05696
-0.00738543
0.406893
0.0180193
1.18251
1.27835
1.4193
1.28049
1.44891
1.22416
1.24373
0.281353
-0.130857
-0.0678945
0.0380282
1.37896
0.0792526
1.11781
-0.0519638
-1.00044
0.169982
1.17622
1.34186
1.2507
0.137802
0.283085
1.16147
0.162984
0.512922
0.238612
0.191291
-0.885716
-0.0866014
0.31344
0.0372694
-0.0622859
0.0079578
1.31027
1.38397
1.47138
1.3286
1.23495
1.41401
1.21111
1.16471
1.36023
1.1979
1.43467
1.32219
1.29704
0.880427
0.473976
0.831215
0.398208
-0.00337786
-0.0129769
0.00357321
1.22735
1.24633
0.248987
0.710689
1.13795
1.13916
0.905344
1.1744
1.25447
1.17592
0.0221339
0.432813
0.0359751
1.22304
1.23032
0.753506
0.51008
0.0446704
0.0124593
-0.119824
-0.0169754
-0.00779169
0.0154305
0.0144954
0.117063
1.21554
1.32472
1.28162
-0.0183738
1.12611
0.0202042
0.402732
1.28524
-0.0272779
-0.00977094
1.22255
1.17362
1.27106
-0.00182218
0.0665198
0.00641962
0.0527666
1.12655
0.0720857
-0.15281
0.00830766
0.0775183
-0.00404785
0.917074
0.0264699
0.463129
0.0122574
1.05601
0.133627
-0.0258966
0.0295675
0.979145
-0.0096259
0.234886
0.0305617
-0.0537757
-0.00116832
0.0410778
-0.0182886
1.27835
1.264
1.30762
1.29255
0.148257
0.0057928
-0.0375775
0.0285274
0.0673977
0.903783
0.0343935
0.095504
0.00149558
1.14189
0.775706
1.15973
0.309664
1.02726
0.129849
0.0258585
0.522488
0.267978
0.0140468
1.3619
1.19302
1.35437
1.15376
0.372338
0.0219562
0.0945034
0.189727
1.0923
1.13806
1.21777
1.17885
1.26907
1.12874
1.25401
1.20179
1.18343
1.12438
0.0416198
1.29919
0.691353
0.146676
0.754059
1.19279
1.20978
1.26796
1.17077
-0.0226317
0.087691
-0.117075
0.0868639
-0.0169252
0.142376
0.0400115
0.0607629
0.0648916
0.0387592
0.0241722
0.0249277
-0.0574426
-0.092094
-0.0196048
-0.0035653
0.0304629
