# vtk DataFile Version 4.2
vtk output
ASCII
DATASET POLYDATA
POINTS 642 double
-1.0387 2.12684 -0.389561
1.14263 2.16637 -0.327778
-1.40651 -1.66059 0.00348875
0.972227 -1.39313 0.15077
-0.0265849 -0.253827 1.26339
-0.00415259 1.73499 1.33808
-0.138344 -0.166587 0.0109452
-0.249294 1.87654 -1.33295
1.20551 1.50281 -0.474348
0.874026 0.832939 0.346528
-1.00182 1.41401 -0.465973
-1.01463 0.562326 0.452541
-1.37679 1.68485 0.163092
-0.614239 1.23753 1.05794
-0.580452 2.40989 0.921326
0.614428 2.4038 0.89095
0.00701047 2.78161 -0.211986
1.01249 2.02779 -0.457112
-0.937753 2.01344 -0.621705
-1.32798 1.81426 -0.899667
-1.91403 1.96739 -0.925171
-0.970678 1.02872 -0.119854
0.592081 1.28915 1.017
1.44291 1.7604 0.119522
-0.405152 -0.105801 0.954769
-0.0472559 0.271541 1.12943
-1.10427 -0.604948 -0.0612405
-1.27822 -0.785125 0.367683
-0.208617 1.49993 -0.825462
-0.706395 0.849473 -0.257412
2.02477 1.95817 -0.835705
1.02385 1.81708 -0.523217
1.13873 -0.647619 0.417339
0.378876 -0.147406 0.917002
0.607335 -1.25614 0.956116
-0.675567 -1.16132 0.685064
0.086424 -0.94454 0.420164
-0.68277 -0.822549 0.0716235
0.470654 -0.834308 0.170195
0.503299 0.583365 -0.138612
0.92546 -0.490437 -0.0609856
1.16381 1.25672 -0.143455
-1.30047 2.04721 -0.13044
-0.946808 2.02395 0.551847
-0.761123 2.34839 0.221079
-0.753703 0.893252 0.65474
-0.892558 1.52338 0.671273
-1.01132 1.16875 0.23443
-0.211525 2.05872 1.24328
-0.661443 1.86066 1.11397
-0.284262 1.55505 1.22397
-0.336784 2.80688 0.444793
-0.512264 2.47735 -0.261131
0.214866 2.05947 1.24046
0.00451143 2.56056 1.04452
0.604358 2.38857 -0.259929
0.332745 2.6885 0.404543
0.790683 2.22498 0.118397
-0.325017 2.61617 -0.637684
-0.960556 2.05766 -0.57601
1.03497 2.06879 -0.415879
0.49171 2.91107 -0.715426
-0.644259 1.93968 -0.769617
-0.0507085 2.44095 -0.878656
0.377785 2.07518 -1.02177
-1.58971 2.2092 -1.07019
-1.53736 2.30247 -0.610272
-0.733197 1.81427 -0.708107
-1.44292 1.98039 -1.0612
-1.56457 1.53867 -0.962356
-1.79614 1.78723 -1.54935
-1.34542 1.68917 -0.880781
-1.7318 1.86098 -0.312384
-0.983214 1.26703 -0.31341
-1.61033 1.51175 -0.549458
-1.36519 1.40797 -0.150347
-0.985586 0.732006 0.125186
1.00661 2.0281 0.459924
1.40121 2.1875 -0.0863615
0.272882 1.57191 1.23535
0.632928 1.86316 1.02897
1.17481 1.27826 0.256629
0.951421 1.56732 0.574658
0.74039 0.988503 0.556591
-0.227576 0.764716 1.08236
-0.0212408 1.19421 1.19514
-0.91593 0.146917 0.858403
-0.441873 0.459206 0.95598
0.0418756 -0.0447687 1.72702
-0.231974 0.102436 1.30667
-0.205874 -0.243889 1.27225
-1.27417 -0.222127 0.120116
-1.27394 -0.160589 0.491255
-0.864079 0.50777 -0.111788
-1.10521 -0.00878995 -0.0657201
-1.32266 -1.25956 0.256015
-1.27625 -0.815211 0.0874924
-1.19181 -1.23906 0.0793933
-0.939578 1.62188 -0.621376
-0.837514 1.28655 -0.375957
-0.249923 1.592 -1.20325
-0.730655 1.70256 -0.670294
-0.513606 0.172329 -0.0938614
-0.584158 1.35222 -0.532058
-0.190869 0.880643 -0.355126
1.06604 1.94911 -0.509004
0.378797 1.84002 -0.954941
1.67609 2.54047 -0.481467
1.6202 2.23185 -0.819665
1.21943 1.68441 -0.589304
1.52877 1.96037 -0.842613
1.53436 1.64689 -0.734296
1.01277 -1.09777 0.306585
1.03041 -1.03122 0.717235
1.14475 -1.60497 0.53964
0.848859 0.209111 0.814484
0.901576 -0.488853 0.742191
1.1453 0.0347764 0.508794
0.235474 -0.727514 0.814716
0.592257 -0.728928 0.953187
0.102025 -0.227648 1.20012
0.377507 -1.47646 0.577178
0.711518 -1.64028 0.0476373
-0.17965 -0.63734 0.749436
0.0933179 -0.931722 0.623254
-0.864512 -1.41643 0.165453
-0.445508 -1.03548 0.476592
-1.19414 -1.65922 0.541916
0.386482 -1.00072 0.276334
0.761752 -1.27813 0.166276
-1.03369 -1.26445 0.00371583
-0.485324 -0.93383 0.240108
0.152471 -0.503158 0.110892
-0.0865987 -0.721758 0.225492
-0.396022 -0.48497 0.0872392
0.69659 -0.796247 0.0479523
0.886 -1.05618 0.171136
0.215656 0.0387454 -0.0415462
0.475273 -0.444635 0.020243
0.767513 0.704444 -0.0582478
0.695985 -0.0818852 -0.0613983
0.740043 1.23469 -0.265214
1.06501 -0.651735 0.134707
1.25699 1.40548 -0.367101
0.917042 0.332119 0.032653
1.14385 0.0753762 0.160881
0.94666 1.03301 0.127015
0.115074 0.103585 1.22271
0.419931 0.516063 0.953568
0.191323 0.833775 1.08348
-1.20783 -1.07899 0.70092
-0.617564 -0.693051 0.685599
-1.02248 -0.547747 0.6991
-0.724306 -0.402119 -0.0229732
-0.952969 -0.830693 -0.0619315
-0.841536 -0.059942 -0.0770013
0.725498 1.54272 -0.466659
0.197558 1.2202 -0.496255
0.285693 1.64081 -0.855173
1.52408 1.47401 -0.0563352
1.72686 1.54074 -0.471594
1.98467 1.97503 -0.192589
-1.16279 2.11017 -0.298538
-1.00112 2.1232 0.0213297
-0.885946 2.20541 -0.170377
-1.17852 1.85319 0.340845
-1.13848 2.0475 0.211918
-1.42388 1.94481 0.0727831
-0.698046 2.43433 0.588965
-0.896862 2.23459 0.419241
-0.776133 2.23205 0.757034
-0.908678 0.673568 0.523018
-0.873242 1.02029 0.460103
-0.943315 0.808834 0.343495
-0.777789 1.39063 0.914733
-0.848378 1.2207 0.689639
-0.650518 1.09585 0.832276
-1.24775 1.42363 0.213653
-0.974443 1.34932 0.415913
-1.12861 1.60645 0.410516
-0.0812347 1.86955 1.33928
-0.255536 1.8187 1.27178
-0.121296 1.67523 1.33773
-0.625846 2.14842 1.04311
-0.43632 1.99316 1.21153
-0.384858 2.25064 1.13507
-0.473776 1.40004 1.20944
-0.459979 1.70792 1.21048
-0.654276 1.55688 1.10762
-1.00169 1.78791 0.663266
-0.848876 1.68433 0.941915
-0.876897 1.99619 0.907027
-0.641497 2.43388 -0.0151083
-0.78562 2.24986 -0.32958
-0.459114 2.6036 0.708311
-0.633136 2.63393 0.356428
-0.308125 2.68999 -0.240381
-0.457363 2.68132 0.0492995
-0.159232 2.81588 0.0968106
0.0758228 1.87078 1.33932
-0.00153656 2.07407 1.23659
0.327362 2.55339 1.02859
0.135787 2.32259 1.21217
0.428363 2.27382 1.18051
-0.134475 2.31774 1.21209
-0.315558 2.54873 1.04083
0.949748 2.17751 -0.321556
0.700403 2.30744 -0.0666471
1.05201 2.15254 -0.220044
0.162106 2.70834 0.105674
0.470278 2.57632 0.0448205
0.313383 2.59065 -0.219474
0.738495 2.4051 0.526583
0.614214 2.53103 0.299429
0.493813 2.60944 0.676111
-0.152214 2.68964 0.765257
0.171685 2.69018 0.755163
0.0201939 2.81668 0.458263
-0.670954 2.30553 -0.496204
-1.00545 2.09965 -0.499463
-0.172466 2.68934 -0.463148
-0.40713 2.553 -0.496325
-0.949286 2.03442 -0.603684
-0.550644 2.38742 -0.618457
-0.50213 2.38322 -0.674452
1.08166 2.1172 -0.379485
0.801647 2.23767 -0.42679
0.553322 2.40959 -0.627881
0.561812 2.40645 -0.580815
1.02653 2.05343 -0.433781
0.495783 2.51444 -0.471749
0.167816 2.68821 -0.448828
-0.326623 1.89103 -1.06143
-0.118382 2.09368 -1.09602
0.0449129 2.04977 -1.26704
-0.412222 2.32953 -0.79331
-0.327253 2.23303 -0.949227
-0.895232 1.97619 -0.652598
0.630834 2.0869 -0.651548
0.212244 2.30246 -1.02737
0.398033 2.34102 -0.756511
-0.0166495 2.68196 -0.649064
0.14685 2.56662 -0.753046
-0.209321 2.60221 -0.840851
-1.30155 2.2774 -0.704641
-1.23988 2.17792 -0.481
-1.32897 2.14831 -0.948105
-1.31987 2.25595 -0.931086
-1.87581 2.28798 -0.756227
-1.59204 2.30987 -0.895412
-1.90701 2.32053 -1.08885
-0.3591 1.80831 -1.00051
-0.708488 1.85809 -0.7278
-1.45067 1.94103 -1.06527
-1.10449 1.86001 -0.734888
-1.12025 1.83043 -0.737321
-1.0568 1.90091 -0.716992
-1.25668 2.03155 -0.87671
-1.32507 1.54765 -0.754147
-1.43115 1.58388 -1.03925
-1.28194 1.57928 -0.74852
-1.91406 1.93106 -1.20973
-1.66654 1.78415 -1.13449
-1.84253 1.67546 -1.03579
-1.36422 1.77267 -0.920218
-1.554 1.80474 -1.12622
-1.52469 1.87883 -1.14618
-1.51766 2.09697 -1.14111
-1.52485 2.01215 -1.28645
-1.72714 2.10576 -1.26019
-1.43079 2.21454 -0.330101
-1.9954 1.9482 -0.581305
-1.76509 2.19491 -0.405875
-1.56243 2.01403 -0.194603
-1.598 1.77824 -0.0643465
-0.986857 1.36704 -0.407908
-1.36829 1.52636 -0.688102
-1.30481 1.40766 -0.375752
-1.34991 1.4788 -0.520691
-0.97639 1.16192 -0.226927
-1.62983 1.53862 -0.779102
-1.89579 1.64599 -0.744155
-0.989421 0.993902 0.135243
-1.01831 0.585843 0.315993
-1.44258 1.517 -0.00761485
-1.22037 1.28898 0.0458969
-0.961564 0.89567 -0.00611931
-1.07731 1.13047 -0.0286972
-1.21354 1.28339 -0.213584
-1.7449 1.65953 -0.453679
-1.52048 1.47111 -0.349213
-1.62932 1.594 -0.221401
1.12903 2.11089 -0.0712041
1.27805 2.25086 -0.263241
0.767458 2.19244 0.676276
0.890863 2.12897 0.293192
1.4682 1.99023 0.0604334
1.21356 2.01443 0.0857075
1.29214 1.90309 0.281527
0.110629 1.67937 1.3377
0.25528 1.82338 1.27264
0.624711 1.59195 1.04072
0.461352 1.72305 1.20191
0.463867 1.43237 1.19921
0.454773 1.99142 1.20679
0.643161 2.13085 0.994814
0.937604 1.06163 0.278465
0.928755 1.1607 0.370606
0.838642 0.856285 0.404911
1.20671 1.66106 0.321984
1.13575 1.40518 0.401401
1.36465 1.50871 0.221113
0.656149 1.15451 0.784509
0.834255 1.3154 0.557261
0.764768 1.4446 0.835683
0.770203 1.96442 0.757312
0.766094 1.71605 0.805586
1.03727 1.81682 0.572032
-0.142527 1.394 1.22134
-0.00739729 1.5533 1.3372
-0.392124 1.06684 1.05127
-0.295656 1.21566 1.20905
-0.0430958 0.659578 1.08339
-0.146135 0.954547 1.20636
-0.117996 0.415031 1.05653
-1.04846 0.402643 0.653836
-0.833225 0.527044 0.743087
-0.395856 0.119001 0.990607
-0.663258 0.315058 0.95445
-0.64635 -0.0120607 0.870724
-0.639084 0.714529 0.844586
-0.508603 0.897345 0.953763
-0.0119236 -0.275123 1.43879
-0.260787 -0.268143 1.63286
-0.104339 -0.252404 1.29701
-0.140337 0.136749 1.28291
-0.180587 0.0369582 1.47274
-0.0479425 0.0721642 1.38382
-0.259623 -0.169489 1.14193
-0.254144 -0.0810678 1.36037
-0.259801 -0.00367091 1.17586
-0.31 0.604948 1.00276
-0.254348 0.223913 1.07571
-0.183297 0.313432 1.08916
-1.27049 0.271491 0.304535
-1.24464 0.329587 0.541401
-1.05258 0.437261 0.037178
-1.17431 0.29431 0.131639
-1.30077 -0.502749 0.436273
-1.27305 -0.223071 0.289255
-1.40187 -0.56644 0.244904
-0.878724 1.14333 -0.297732
-0.887146 0.869829 -0.158109
-1.15866 -0.399167 -0.0913418
-0.998595 0.237403 -0.0897855
-1.06632 -0.210355 -0.17971
-0.923707 0.715183 -0.0874962
-0.978406 0.555983 -0.0186004
-1.39502 -1.47383 0.152246
-1.28749 -1.26749 0.131542
-1.49081 -1.41582 -0.129449
-1.27814 -0.819358 0.204366
-1.23996 -1.04243 0.198875
-1.27384 -1.02575 0.314144
-1.11364 -0.960214 0.0682074
-1.17828 -1.02544 0.141102
-1.23025 -0.766366 -0.0507561
-1.27249 -0.162765 -0.0206008
[...]
POINT_DATA 642
SCALARS Mean_Curvature double 1
LOOKUP_TABLE default
-0.704763
-0.281931
10.2566
8.90688
-2.04354
-0.0326047
-0.0929532
7.82747
-1.81725
-0.864064
-0.950431
0.602889
1.81951
3.4124
2.59357
2.73263
2.8913
0.338836
0.12805
-1.14938
0.192243
-0.438199
2.42788
-1.58264
-1.07851
-0.948905
-1.25539
-0.982428
-0.0425618
-0.10074
4.91881
0.0468831
2.97076
-0.872464
4.37925
2.63188
0.35474
-0.141569
-1.14627
-0.656838
0.959768
-1.62569
-0.951509
-0.555589
-0.779786
-1.15899
-1.38767
-0.837136
0.829738
1.9695
-1.45809
2.93594
-0.961875
0.204642
1.96756
-0.455735
0.988167
-1.45073
5.17885
0.255774
0.0974488
5.94355
-0.444449
-0.559836
3.91814
1.5008
2.05801
-0.324902
1.19198
4.86385
6.57931
-1.19274
1.57102
0.275134
3.79724
0.29444
-0.6221
2.27822
2.23693
-0.789349
1.19901
3.11289
-0.323002
-1.08195
-0.00169354
0.682912
3.15751
-1.07674
7.52315
9.38897
8.40835
-1.47481
3.42144
-0.405306
0.197538
1.03337
3.93164
-0.840469
-0.18503
-0.0212776
5.80449
-0.125957
-0.440997
0.143449
-0.0400112
0.0237818
1.76513
6.99598
1.29215
-0.832352
2.59566
3.02632
1.36781
1.24972
5.63064
4.06219
1.05285
4.41109
-0.394838
3.62827
3.1798
5.6612
6.66808
-0.669632
-0.166332
1.78116
-0.622431
4.58421
-0.778637
-1.19544
1.80207
-0.19103
-0.0504455
-0.833755
-0.394399
0.210841
-2.59768
-0.567205
-0.700085
-0.59756
1.02674
-0.309791
-3.5486
-0.365642
0.097397
8.05349
-0.799672
4.17856
0.957591
0.998147
3.75563
-0.752285
2.15408
-0.990855
3.33465
-0.78346
-0.234681
0.124676
0.0406685
0.958533
2.39658
4.31745
-1.23289
-1.43299
-0.427976
1.41294
1.9116
4.11248
0.914548
1.82403
0.780849
-0.356312
-1.18716
-0.779706
1.56217
1.68993
-1.91335
2.39091
-1.41459
0.948258
4.30385
0.143553
3.8752
1.5987
2.3123
0.911144
3.24194
1.38055
1.73799
2.10018
2.31877
3.53883
-0.285229
-0.712624
1.00396
3.27661
1.49901
1.57684
2.27098
4.2584
-1.59036
3.30048
2.39143
3.53488
2.84007
3.8238
-0.49174
-0.932489
-0.662821
-0.143566
1.32891
-0.926736
2.57723
1.98206
2.3874
1.00623
1.32698
2.48517
-0.542404
-0.177648
0.829777
0.198488
0.336761
6.10069
1.02831
0.570523
-0.679523
5.34094
-0.00376459
0.560885
0.836664
0.140138
1.62697
-0.85561
3.20083
-0.566029
3.07242
-0.0373153
-0.434107
3.74991
-0.302532
3.81317
0.722983
6.42837
3.49167
-0.965349
1.26353
9.15397
4.30373
2.65503
6.43263
0.590794
-0.288186
1.23482
-0.057483
-0.323351
0.208653
-1.15298
8.16449
10.8561
2.12613
5.79606
-0.396244
5.51503
-1.10928
3.61251
0.830398
2.67533
9.50739
4.91167
4.01427
4.51626
4.1974
1.53254
3.52093
-0.115694
1.37429
0.364349
-0.676823
-0.0712189
1.27496
4.4637
-0.8841
-1.02923
2.55877
1.93849
-0.646142
-0.729305
2.87791
1.526
2.93261
3.44874
-0.863074
3.49318
0.41899
-1.44748
0.887415
-1.539
4.51081
3.71162
0.50854
1.16668
2.39271
3.90022
2.84885
1.9922
-0.875176
-0.689793
-0.884623
-1.4968
2.77165
2.99624
-0.275873
-1.63592
1.99578
-0.720287
-0.522532
3.10482
-1.51953
5.63061
-2.42419
2.95126
-1.24825
7.31895
-1.75577
1.70653
0.289567
-1.22941
2.84373
-0.264505
0.502708
1.01792
5.65954
7.91889
0.042412
1.50684
6.15695
2.04747
0.547728
3.7347
-1.5092
-2.09166
-1.20582
2.13197
4.04996
5.14409
-0.793612
3.50354
1.33413
-0.654768
5.84497
-0.477971
-0.699532
0.843149
-0.694169
11.9557
-0.300081
-0.554105
0.887956
2.66066
8.88914
-0.735692
2.41756
1.16175
-1.17535
-2.18827
11.4051
10.9797
0.239203
4.81111
-0.257812
-0.276407
-0.407897
-0.368019
0.0545195
-0.27487
0.0558171
5.26701
-0.435763
-0.0370598
-0.294279
2.14888
-0.262346
0.0335727
-0.174969
-0.260796
-0.275504
0.414543
0.0761614
-0.48559
-0.0557521
0.411994
-0.187882
-0.163522
-0.00331538
-0.0200642
0.275346
6.19426
0.11181
-0.495413
-0.408902
-0.464459
-0.0980913
1.90989
4.42989
5.90522
0.747827
4.29573
3.82973
6.34992
4.38095
4.88072
8.23497
2.02857
1.1834
-0.39373
2.50659
1.77816
6.3199
-1.62437
6.86009
-1.4369
-0.912797
3.84918
8.51114
5.46575
-2.29879
0.0938926
5.21854
-0.261695
4.61626
2.65007
1.74883
4.67121
-1.30276
-1.18729
-0.208224
0.831843
3.25125
-1.03234
0.00323494
-0.536414
4.04331
0.651399
-0.210778
5.55708
-0.578803
-0.510963
-0.870294
3.32482
2.16845
4.31198
3.75746
-0.106994
1.54758
3.04717
-0.706643
4.72861
-0.421207
-0.231177
-0.304695
-0.130825
-0.629465
-0.45995
-0.555743
2.07148
5.93374
4.10379
4.52471
-0.0839543
2.48124
-0.933622
6.45448
1.53597
6.36069
-0.391696
0.0386157
0.275769
10.6619
0.352833
-0.480736
5.17835
-1.59244
-0.0498739
4.40357
1.13852
8.89632
0.715363
-2.32157
3.89786
3.85574
0.0532055
-0.188125
-0.460712
-0.343581
-0.282519
0.00290579
-0.424236
-0.778664
-0.192232
-0.451609
-0.43476
0.0306717
-0.139601
-1.28909
-1.69765
-1.24113
-0.889089
-1.68279
8.3052
7.21961
0.0723269
-0.133846
1.60897
0.0809798
-0.409913
-0.308141
-0.844841
-0.767705
-0.37085
-0.656122
0.142407
0.577668
2.78997
-0.223938
-0.713482
-0.486341
-1.10572
2.65949
3.03563
5.08832
9.30589
7.47678
-2.09385
6.10185
2.98834
-0.58543
-0.543081
-0.489706
6.54164
-0.875986
5.69034
-0.847353
-0.850641
0.162433
0.658419
-0.96323
-0.606283
-0.353565
7.22392
1.38816
0.846455
8.7895
-1.14664
1.15808
6.38545
2.81308
-0.42859
0.454211
-1.50489
-0.697556
-0.931385
-1.77348
-1.46052
-3.26158
4.43098
-0.615677
-1.4109
3.652
-1.52105
6.4963
2.99822
3.14455
-1.38672
2.26802
-0.25616
-0.654262
-0.474282
-0.329947
-0.516769
1.95631
4.83664
0.995982
-0.794297
-1.32188
3.95233
-0.610624
1.66889
-0.2987
-1.3048
-0.729813
2.90234
-0.660395
5.97633
4.76959
-1.88617
-2.157
7.27861
-0.306659
-0.695461
-0.391182
-1.0053
-2.49352
4.77763
-1.3512
3.07731
-0.492508
0.121612
-0.297871
-0.272353
-0.331399
0.957376
-0.158249
0.254548
-0.458337
0.252825
5.56093
-0.413608
-0.0713934
4.17752
0.22347
0.074648
-0.147428
-0.191729
-0.831696
1.02407
3.80744
4.26398
2.92572
0.373266
-0.202774
6.48418
7.4777
0.922845
0.846928
3.93914
4.35442
2.7535
3.18397
2.31438
3.01291
4.01259
SCALARS CoVolArea double 1
LOOKUP_TABLE default
0.0312902
0.0186137
0.0435133
0.0106817
0.0175607
0.0173219
0.0394727
0.0536859
0.0208928
0.0229279
0.0134344
0.0367785
0.0776199
0.0696879
0.0865012
0.0974419
0.0972974
0.0502148
0.039129
0.0219817
0.103756
0.0446429
0.0733849
0.0601083
0.0640677
0.030965
0.0366525
0.0486507
0.0611411
0.0418604
0.11396
0.0303496
0.0488392
0.0655333
0.0808226
0.0638839
0.0488821
0.0361363
0.0313461
0.0893976
0.0475545
0.0410014
0.0732673
0.0880379
0.0960784
0.0794259
0.0852304
0.0701257
0.0535058
0.076385
0.0529913
0.119143
0.0840845
0.057692
0.0943745
0.0815585
0.10727
0.0897682
0.0511863
0.045415
0.0306809
0.118364
0.0739864
0.0867657
0.0826939
0.0521177
0.0836868
0.0208731
0.0279508
0.0512846
0.0809956
0.0321504
0.081323
0.0410526
0.0566564
0.0533206
0.0639649
0.0854265
0.0649096
0.0521477
0.0706531
0.046728
0.0835548
0.0816579
0.0599031
0.06031
0.100059
0.0760377
0.0756969
0.0293923
0.041433
0.0718998
0.0883827
0.0539388
0.0510931
0.0464776
0.0308345
0.0260282
0.0174128
0.0279316
0.0624324
0.0323869
0.0889025
0.0580445
0.123582
0.0241249
0.063212
0.082218
0.0458347
0.0255526
0.034246
0.0331744
0.0310598
0.0664052
0.114785
0.0979973
0.0616502
0.0839667
0.0480467
0.0673676
0.0328885
0.0924586
0.0762916
0.0575631
0.0383006
0.0723406
0.0579408
0.118477
0.028643
0.0251221
0.0349664
0.0396178
0.0399136
0.0383444
0.0430985
0.0314646
0.0237582
0.0869978
0.0370889
0.0465518
0.0547568
0.0346698
0.0381867
0.0456468
0.0536728
0.0716115
0.0387993
0.0324713
0.0879199
0.0611132
0.0669724
0.0679212
0.0739824
0.0407802
0.0266867
0.034721
0.0476662
0.100676
0.0585216
0.0438927
0.0545755
0.109256
0.0561985
0.0862492
0.0724235
0.0839456
0.0852677
0.0767296
0.0905781
0.0895177
0.0858113
0.0615841
0.0760648
0.0535502
0.0747415
0.0809297
0.0741155
0.0749461
0.0855938
0.0858209
0.0338396
0.0481122
0.0353526
0.0792462
0.0631995
0.0735129
0.0641134
0.061204
0.0702261
0.0886983
0.0828045
0.0893138
0.0936299
0.0649846
0.101496
0.106612
0.0870415
0.106163
0.115104
0.0342508
0.0512192
0.101424
0.0770178
0.0847408
0.0730914
0.0935099
0.0428648
0.0852763
0.0508421
0.111204
0.100564
0.0960378
0.0983319
0.101993
0.1053
0.105951
0.105625
0.116317
0.0609405
0.0444265
0.067285
0.0600257
0.028252
0.0382717
0.0482965
0.0269609
0.0459013
0.0773013
0.0398195
0.0233387
0.0908867
0.103669
0.0627709
0.103164
0.0879048
0.0751901
0.105839
0.0611341
0.0705472
0.111076
0.095971
0.0825348
0.0993277
0.0655355
0.0653786
0.0515077
0.0383807
0.0534309
0.109281
0.0742745
0.0917933
0.0322032
0.0291914
0.022622
0.0187336
0.0217858
0.0356932
0.0395177
0.0286794
0.0388972
0.0287199
0.0927216
0.0618411
0.0752627
0.0183693
0.0361477
0.0361535
0.0363535
0.0474112
0.0738826
0.0723728
0.113813
0.103184
0.0732817
0.0691977
0.0305162
0.0467199
0.046873
0.0509544
0.0415457
0.0618102
0.0896936
0.0549466
0.0612401
0.0638266
0.0581612
0.0507166
0.0486073
0.0464804
0.0741443
0.0505098
0.0604134
0.0665369
0.0422688
0.0862898
0.0881743
0.0681785
0.0725586
0.0740994
0.034436
0.0484128
0.0696739
0.0604521
0.0645173
0.0664528
0.080676
0.0290326
0.0597575
0.047887
0.0755864
0.0701465
0.0550115
0.0842465
0.0831476
0.0795401
0.0799438
0.0785299
0.0858478
0.05234
0.0378909
0.0689636
0.0632909
0.0537609
0.0621275
0.0413307
0.0792519
0.0885923
0.0664978
0.0931688
0.0874937
0.0842244
0.0732032
0.0447969
0.0723446
0.0351523
0.0263057
0.0500542
0.036357
0.0452267
0.0409145
0.0414925
0.0611074
0.0465196
0.0351563
0.0964739
0.0863087
0.0597636
0.0786246
0.0626597
0.0809447
0.0586223
0.0252187
0.0372137
0.0408911
0.046391
0.061824
0.0354117
0.0486222
0.0566162
0.0360472
0.05563
0.0361544
0.0254966
0.0376703
0.0297763
0.0251087
0.0366558
0.0635685
0.0433123
0.0457585
0.0321025
0.0245054
0.0133984
0.0184005
0.0292264
0.0248902
0.0281005
0.0692281
0.0329105
0.0457091
0.0344
0.0519818
0.0250886
0.0205681
0.077785
0.12205
0.108512
0.0501985
0.0880748
0.0664061
0.08129
0.0916998
0.061143
0.0205578
0.0406558
0.030337
0.0620609
0.0978596
0.0303681
0.0372457
0.038668
0.0321571
0.0300599
0.044157
0.0533502
0.115618
0.0694422
0.111196
0.0359833
0.0314573
0.0271603
0.026797
0.0203292
0.0295105
0.0266008
0.0238307
0.0538911
0.0354293
0.0822402
0.031934
0.0536328
0.030255
0.0259202
0.0624307
0.0572686
0.0564099
0.0478646
0.0391807
0.112125
0.0828887
0.0860076
0.0650382
0.0847034
0.0584478
0.0718645
0.0781702
0.0877156
0.0627561
0.0661492
0.0561117
0.0370445
0.0405412
0.0247257
0.0677367
0.0546288
0.0548242
0.0460238
0.0517522
0.0639415
0.064755
0.0682714
0.0709721
0.0904769
0.0338094
0.0942407
0.114637
0.0722556
0.112229
0.0663176
0.039877
0.0515184
0.0348717
0.0494564
0.0530004
0.0482744
0.0559483
0.0639137
0.0956701
0.0749992
0.042273
0.0744238
0.0551248
0.108241
0.0990658
0.0568739
0.0614325
0.0406521
0.0461648
0.0402287
0.0166586
0.0451366
0.0440152
0.0288497
0.027111
0.0336037
0.0497737
0.0537074
0.0359841
0.0384669
0.0339145
0.0501362
0.0502317
0.0421872
0.0447928
0.044011
0.0353112
0.0400134
0.0327436
0.0358033
0.0414778
0.0368642
0.0358077
0.0358459
0.0332107
0.0203695
0.0137906
0.0266587
0.0247361
0.0350099
0.0307335
0.0392102
0.0724241
0.0491502
0.0624519
0.0516133
0.0934996
0.0350147
0.029509
0.0377984
0.0385381
0.0325611
0.0497151
0.0533117
0.0564023
0.0558027
0.0484712
0.0652648
0.0319621
0.0479648
0.0419759
0.021358
0.0454458
0.0274624
0.0284541
0.0389399
0.0338349
0.0509867
0.0483115
0.0486935
0.0417062
0.0475825
0.0589179
0.0621377
0.0335395
0.0557814
0.082782
0.0402274
0.0552649
0.0480742
0.0605083
0.0636068
0.0543402
0.0388153
0.0491988
0.0326878
0.0386214
0.0255051
0.0888183
0.0820483
0.0942045
0.0990082
0.0768752
0.052304
0.0412152
0.0628838
0.0615082
0.0694959
0.0583166
0.0704285
0.0403688
0.0907942
0.0868128
0.102963
0.06368
0.0520498
0.0440237
0.073639
0.0549505
0.058381
0.0621069
0.0951143
0.0588344
0.0714529
0.088294
0.0844689
0.0661737
0.0757767
0.0637291
0.0563245
0.0351446
0.0412072
0.0562271
0.0488248
0.03042
0.0283456
0.0206056
0.0257913
0.0335829
0.0310248
0.037345
0.0278707
0.0524086
0.0467913
0.0331689
0.0336126
0.038591
0.0293946
0.0755879
0.0382451
0.0261764
0.0331411
0.122744
0.0759406
0.10605
0.117878
0.113001
0.0980471
0.0462526
0.0568025
0.0681378
0.062197
0.0855083
0.0740422
0.0603125
0.0368126
0.0427252
0.0416065
0.0435245
0.0524355
0.03355
0.0667109
0.0462908
0.0433257
0.0423051
0.072131
0.0849335
0.0958301
0.102071
0.0963378
0.0534935
0.0800857
0.0769481
SCALARS SignedDistance double 1
LOOKUP_TABLE default
1.11829
0.801602
0.0223532
0.0519224
0.0592588
-0.000494808
1.22767
0.114385
0.231634
1.21055
0.832142
-0.0615202
-0.00239081
-0.0103811
-0.0236087
-0.00494927
0.0333763
1.20454
1.22045
1.10037
0.0025194
1.27783
0.054181
0.567497
1.18969
0.0656834
0.0187962
0.00927456
0.847444
1.28853
0.0524472
1.15202
0.0153369
1.21161
0.0178118
0.0543542
1.27903
0.122832
0.43969
1.14089
0.0155598
0.484443
-0.0100127
-0.0319596
0.0317211
1.14167
0.0215279
1.14399
-0.0474832
0.0120493
0.00212617
0.0165989
0.933588
-0.0515335
-0.00889783
1.12463
-0.0127433
0.250823
-1
1.20189
1.17383
-0.439657
1.24928
-0.0142061
-0.0282593
-0.992104
-0.0245574
1.29622
-0.0451482
0.0729487
0.204511
0.85658
0.161827
0.752301
-0.780233
0.101809
1.21637
-0.01226
0.110646
0.0106842
0.00710296
0.14802
0.000826416
1.15065
-0.00815758
0.0102543
-0.000387855
0.0263069
0.0583499
0.0837324
0.0346212
-0.0206359
-0.00237868
1.10985
0.101146
0.167627
0.0308768
0.709368
1.21144
1.15084
0.0749952
1.28452
0.637945
1.15779
0.759427
1.15565
0.0919538
0.00471592
-1.01002
0.257916
0.157275
0.0296446
-0.035376
-0.0148537
0.0151611
-0.0160113
0.128489
-0.0154735
1.21955
-0.0238169
0.0809654
0.163281
-0.265635
1.48282
1.28235
0.0837006
1.15371
-0.000778072
0.329372
0.398955
0.267214
0.574796
1.31333
1.47731
1.26209
0.00780653
0.217409
0.858733
0.389617
1.22964
0.0262575
0.956513
-0.00700808
0.0483607
0.129053
0.018711
1.27574
0.0645708
-0.023232
-0.000328506
0.0266399
0.688839
-0.00031639
0.350623
0.0309996
0.317897
1.18273
1.00935
0.598085
-0.100826
0.034302
0.0637892
0.622313
1.10232
0.329367
0.00677038
-0.0130877
0.052744
-0.018902
0.0306938
-0.0021933
0.0391105
1.1872
1.12407
0.0100523
-0.00272214
0.193368
-0.027214
1.06407
-0.00385236
0.0194487
-0.00675276
-0.0063577
0.0341262
0.0172549
-0.00920021
-0.0143005
0.001101
0.0227739
-0.0145252
-0.0301517
-0.0172866
0.0950061
1.14343
-0.0179773
0.019313
0.00936005
-0.0205146
-0.008624
0.0201738
-0.0458552
0.00518914
0.030287
-0.120685
0.0288806
-0.0109899
1.26772
0.593561
1.20005
-0.000386758
0.0410068
0.00553419
-0.0134853
-0.00178235
-0.020991
0.00944232
0.00789736
0.00446873
1.15488
1.1501
0.00486415
0.471301
1.2124
0.696681
0.900575
1.1085
1.26911
0.265776
0.630145
1.18701
0.201906
-0.00430877
0.0700861
-0.00208087
0.0122284
0.652675
-0.0281759
1.24024
1.17848
0.0143021
0.205531
-0.0204249
-0.0335742
0.0912306
0.0491666
0.0420303
0.00513353
-0.0211149
-0.0133123
0.0740229
-0.0912417
0.288207
1.29312
-0.075486
1.08537
1.04873
1.17109
0.641961
0.0605503
0.0375051
0.0892133
0.0155067
0.0917534
0.0471052
0.709777
0.0697114
0.182192
0.230554
0.204719
-1.0707
0.17291
0.0815803
0.0662847
0.00921023
0.0424458
0.87027
0.102419
0.10222
0.877249
1.17945
0.0620056
-0.269869
1.26873
0.0730817
0.0374629
0.0252027
1.32145
1.20444
0.0604613
-1.01466
-0.128996
0.0269344
1.11061
0.114472
0.0644641
0.0713142
0.0254322
0.558252
0.00415572
-0.00683955
-0.00389371
-6.72014e-05
-0.0011107
-0.0138704
0.00998653
-0.0363411
1.25069
1.16614
1.19721
0.0252902
-0.0873431
-0.57676
0.149825
0.1296
0.0292248
0.0202781
0.0394387
0.00450132
0.00301283
-0.0150726
0.393385
0.00188176
0.0154644
0.0119313
0.686736
0.0358144
0.0293206
1.00701
-0.00413739
0.0472466
0.0555293
-0.025121
0.185881
0.15117
0.0318878
0.151647
-0.130715
-0.887379
0.174669
0.0407838
0.138303
0.305942
0.148536
0.0178813
-0.0581105
-0.0514848
1.00687
0.0860815
0.0537774
-0.021888
0.00536753
1.21121
1.35
-0.0521158
0.61525
0.0609274
1.30485
1.19031
-1
0.222659
0.128746
-0.000401704
-0.0818306
-0.0064375
-0.0130898
-0.0117682
0.0115937
0.0018089
0.00246146
0.0435546
1.13651
0.876816
0.944877
0.810023
1.18672
1.17644
0.929014
0.113701
0.991806
1.20956
1.15777
0.106145
1.29343
1.17481
1.09696
1.17115
0.63709
0.889736
1.18528
1.18201
1.19957
0.61767
1.25052
1.23756
1.25847
1.20867
0.0758192
0.0570523
1.18433
1.18735
1.20595
1.19797
1.13231
0.00394797
0.0424268
-0.0450253
-1.04168
0.105769
-0.0807572
-0.0801872
0.0341082
0.0136819
-0.0147662
0.0673523
0.0422883
0.563559
-0.362129
-0.201172
0.0669926
0.788782
0.107817
0.973354
0.035032
0.098267
-0.119854
0.010715
-0.00772647
-0.0374105
-0.000227374
-0.00632351
-0.1694
0.0558608
-0.0091606
0.120833
1.13051
0.0201634
0.0351181
-0.175353
0.00379196
0.0838771
1.31687
1.37089
0.0100161
-0.00523076
0.385912
0.0815922
1.19767
1.33083
1.20648
-0.0358805
0.145441
0.0021873
-0.00580038
-1
-1.05476
-0.0175363
0.268953
0.0251823
1.03447
1.27942
1.40837
1.27358
1.43794
1.22103
1.22789
0.271057
-0.278952
-0.106259
0.0331354
1.36127
0.00160858
0.943078
0.0657728
-1.00792
0.169439
1.08373
1.30463
1.17697
0.130023
0.315594
1.14463
0.141647
0.232127
0.328257
-0.0193647
-0.957707
-0.150233
0.171026
-0.0744134
-0.112579
-0.024164
1.30867
1.35971
1.44214
1.29199
1.21806
1.40041
1.1888
1.13918
1.33653
1.17466
1.43167
1.30428
1.28998
0.963715
0.404936
0.739165
0.0839281
-0.00816854
-0.00863109
0.015202
1.17135
1.2299
0.0525623
0.585638
0.50619
1.04089
0.770137
1.13484
1.20511
1.14718
0.0054286
0.113423
0.00928798
1.11569
1.16475
0.272677
0.275778
0.00796959
0.0209424
-0.210539
-0.0187089
-0.00701146
0.0138705
0.0141245
0.0429735
1.18275
1.2777
1.26062
-0.05473
1.09947
0.015453
0.43339
1.26796
-0.0249716
-0.0137621
1.22538
1.18589
1.25026
-0.00152715
0.0491892
0.00643362
0.0566954
1.12588
0.0677627
-0.600561
-0.0374485
0.0486779
-0.0111089
0.812101
0.00485416
0.294667
0.00973819
0.823394
0.0458908
-0.0276163
0.0239281
0.87941
-0.0118961
0.113683
0.0270156
-0.0631667
0.00164164
-0.0279038
-0.0162041
1.27374
1.24318
1.29075
1.27388
0.0591477
0.00554013
-0.0385537
0.0313992
0.0320767
0.692635
0.032282
0.0176533
0.000494656
1.07964
0.502854
1.13229
0.0608747
0.446419
0.223557
0.0246143
0.352482
0.0989927
0.00490385
1.30534
1.14143
1.29512
0.940855
0.224651
-0.00121031
0.0223521
0.0317847
1.03991
0.569852
1.13903
1.09656
1.22527
0.236372
1.19122
0.757623
0.978312
0.592354
0.00600416
1.23602
0.638546
0.126374
0.303169
1.0346
1.09226
1.19764
1.17442
-0.0646368
0.0868733
-0.182801
0.0899968
-0.0369409
0.0551533
0.0450764
0.0584438
0.0670476
0.0109345
0.0701379
0.079838
-0.0566106
-0.124163
-0.0296256
0.00479706
0.0190423
