# vtk DataFile Version 4.2
vtk output
ASCII
DATASET POLYDATA
POINTS 642 double
-2.74166 5.07749 -0.0035807
2.74837 5.08895 -0.00157464
-2.75234 -3.81041 1.69645e-05
2.74461 -3.79904 0.000160456
0.000452569 -2.0822 4.40753
-0.000124235 3.36536 4.40216
-0.00150712 -2.06038 -4.36121
-0.00235875 3.37404 -4.41515
4.42652 0.645963 -2.73563
4.37359 0.644881 2.69952
-4.43639 0.645033 -2.74242
-4.3692 0.642181 2.69866
-4.19708 3.23664 1.5997
-2.5776 2.23759 4.17143
-1.60307 4.8424 2.59492
1.60317 4.84254 2.59498
-0.000712589 5.85185 -0.00190689
1.61879 4.8771 -2.61703
-1.61942 4.87841 -2.61885
-2.61548 2.25904 -4.23071
-4.23492 3.26072 -1.61857
-5.18866 0.645363 -0.0013946
2.57709 2.23797 4.17097
4.20438 3.24148 1.60355
-2.58427 -0.957447 4.18101
-0.00020757 0.641002 5.17748
-4.22243 -1.96692 -1.61128
-4.2238 -1.96803 1.61206
-0.00518714 0.645368 -5.15518
-2.58937 -0.95362 -4.18501
4.23533 3.26089 -1.6181
2.61079 2.25656 -4.22241
4.20882 -1.95919 1.60677
2.57959 -0.954771 4.17421
1.6119 -3.57827 2.60771
-1.61265 -3.57927 2.60809
0.000571538 -4.56851 -0.000140426
-1.60938 -3.56982 -2.6012
1.6074 -3.56666 -2.59893
2.56253 -0.94002 -4.14276
4.20125 -1.95484 -1.60327
5.19189 0.64528 -0.000944601
-3.60536 4.301 0.827522
-3.0421 4.20589 2.20106
-2.25471 5.12067 1.33964
-3.61616 1.46561 3.56335
-3.55037 2.8387 3.03231
-4.45558 1.9774 2.24089
-0.827513 4.23809 3.64783
-2.20029 3.68583 3.56099
-1.33396 2.89057 4.45862
-0.843883 5.58692 1.36642
-1.43451 5.65943 -0.00242019
0.827345 4.2375 3.64715
-3.15024e-05 5.06353 2.73135
1.4356 5.65618 -0.00189856
0.843797 5.58656 1.36639
2.25631 5.12118 1.33765
-0.848272 5.61099 -1.37325
-2.27659 5.15939 -1.35272
2.27592 5.16002 -1.35242
0.848424 5.6042 -1.37225
-0.83748 4.26702 -3.6789
-0.000713977 5.07996 -2.74109
0.835982 4.26083 -3.67136
-3.08065 4.2491 -2.22974
-3.62596 4.32342 -0.837026
-1.35168 2.9168 -4.51355
-2.22836 3.72135 -3.60373
-4.5133 1.99415 -2.27417
-3.60458 2.87143 -3.07888
-3.6794 1.47875 -3.62503
-4.43497 3.38377 -0.00177605
-4.99847 0.645067 -1.43165
-4.95652 2.01384 -0.847789
-4.94178 2.00974 0.841594
-4.96328 0.643674 1.41599
3.04443 4.20704 2.20085
3.61288 4.3099 0.829696
1.3342 2.8906 4.45892
2.20051 3.686 3.56125
4.46888 1.98108 2.24802
3.55293 2.83951 3.03242
3.61518 1.46537 3.56014
-1.35377 1.47811 4.89994
0.000142845 2.06236 4.96163
-3.61785 -0.183145 3.56455
-2.70896 0.640746 4.38811
-0.000190641 -0.783394 4.98443
-1.3604 -0.199182 4.92517
-1.33765 -1.60983 4.47008
-4.9569 -0.733288 0.845507
-4.47944 -0.70432 2.25414
-4.46296 -0.695022 -2.24678
-4.95912 -0.733025 -0.846544
-3.626 -3.03829 0.834626
-4.44817 -2.10605 4.05367e-05
-3.62548 -3.03778 -0.834376
-2.74213 0.645043 -4.43646
-3.65718 -0.183417 -3.60323
-0.00526469 2.06547 -4.97069
-1.3754 1.4927 -4.9721
-1.33435 -1.60169 -4.45087
-1.36665 -0.196666 -4.93783
-0.00356293 -0.760539 -4.92645
2.22537 3.71725 -3.59831
1.3492 2.91049 -4.49823
3.62818 4.32525 -0.836447
3.07989 4.24825 -2.22879
3.67143 1.47782 -3.6164
3.60071 2.86901 -3.07506
4.51357 1.99438 -2.27362
3.61411 -3.02691 0.832193
3.06226 -2.94409 2.21575
2.26906 -3.86247 1.34782
3.6211 -0.18297 3.56793
3.57248 -1.56924 3.05084
4.45139 -0.695472 2.24152
0.831206 -2.96549 3.65976
2.21206 -2.41589 3.5782
1.33642 -1.60925 4.46614
0.848019 -4.32184 1.37235
1.43693 -4.3814 -0.000192104
-0.831162 -2.96459 3.65781
0.000133956 -3.7943 2.74047
-1.43938 -4.38477 -5.99616e-06
-0.848558 -4.3238 1.37273
-2.27324 -3.86931 1.34954
0.84882 -4.32409 -1.37175
2.26775 -3.86045 -1.34651
-2.27268 -3.86793 -1.34869
-0.848593 -4.32035 -1.37097
0.828082 -2.94682 -3.63904
-0.00010196 -3.76835 -2.72334
-0.829117 -2.94929 -3.64215
3.05591 -2.93694 -2.21012
3.61109 -3.024 -0.830929
1.33261 -1.59941 -4.43899
2.20167 -2.40132 -3.55954
4.45524 -0.690669 -2.24562
3.56145 -1.56131 -3.0401
3.64207 -0.178828 -3.58734
4.42987 -2.09535 0.000366733
5.00015 0.646011 -1.43121
4.90265 -0.714741 -0.834387
4.93117 -0.72512 0.839869
4.97534 0.646656 1.42066
1.3586 -0.198441 4.9206
2.70472 0.64114 4.38059
1.35177 1.47807 4.89545
-3.06882 -2.95082 2.21962
-2.21344 -2.41683 3.57873
-3.58175 -1.57304 3.05792
-2.20692 -2.40709 -3.56661
-3.06625 -2.94761 -2.21697
-3.57784 -1.57034 -3.05332
2.73062 0.646152 -4.41594
1.35212 -0.187407 -4.88233
1.36362 1.48718 -4.91823
4.94646 2.01068 0.843218
4.96368 2.01625 -0.849111
4.44314 3.38912 -0.00190494
-3.19996 4.73123 0.412149
-2.96406 4.7547 1.10248
-2.51914 5.13222 0.667049
-3.66181 3.75498 1.92088
-3.35601 4.28305 1.53153
-3.93962 3.80094 1.22514
-1.94874 5.02454 1.9846
-2.67474 4.70445 1.79331
-2.35048 4.57326 2.42865
-4.0292 1.0533 3.15178
-4.08114 1.74095 2.93937
-4.4548 1.30971 2.49633
-3.10075 2.56096 3.64881
-3.61816 2.16907 3.33524
-3.1302 1.86202 3.90472
-4.37 2.62303 1.94099
-4.04064 2.42867 2.65975
-3.91676 3.06408 2.34112
-0.413261 3.82825 4.06947
-1.10226 3.60289 4.10528
-0.667377 3.15525 4.47464
-1.92539 4.31055 3.11627
-1.53288 3.99889 3.63944
-1.22594 4.57778 3.15415
-1.97346 2.58329 4.35724
-1.78929 3.31387 4.05202
-2.41943 2.98731 3.91548
-3.34125 3.56007 2.65258
-2.91476 3.29671 3.34077
-2.65633 3.99068 2.92044
-1.8608 5.44501 0.681509
-2.1139 5.40852 -0.00305755
-1.24014 5.27098 2.00784
-1.56449 5.40276 1.37133
-0.727414 5.81066 -0.00235117
-1.14437 5.66755 0.688285
-0.426556 5.78013 0.688937
0.413043 3.82784 4.06891
-8.31204e-05 4.29089 3.69097
0.814302 5.00746 2.69671
0.420972 4.69456 3.22061
1.22591 4.5775 3.15384
-0.421086 4.69488 3.22092
-0.81433 5.00767 2.69689
2.12033 5.41998 -0.00187148
1.86714 5.45551 0.682427
2.53245 5.15438 0.669973
0.426236 5.77975 0.689231
1.14503 5.66626 0.688474
0.726367 5.80411 -0.00152261
1.94885 5.02458 1.98462
1.5649 5.40261 1.37062
1.24017 5.27102 2.00789
-0.427713 5.38886 2.07705
0.427682 5.38873 2.077
-3.1249e-05 5.65509 1.38519
-1.87176 5.46947 -0.688441
-2.53879 5.16598 -0.676933
-0.429143 5.80538 -0.694655
-1.15015 5.6919 -0.694206
-1.96791 5.06169 -2.00279
-1.57459 5.42781 -1.37938
-1.24822 5.29472 -2.01908
2.54022 5.16941 -0.676195
1.8755 5.47709 -0.689504
1.25095 5.3017 -2.02151
1.57874 5.43866 -1.3828
1.96729 5.06231 -2.00229
1.15005 5.68358 -0.693534
0.426979 5.79388 -0.693113
-0.41977 3.84963 -4.09802
-0.00131462 4.29997 -3.70148
0.416024 3.83741 -4.08121
-0.820308 5.0278 -2.71023
-0.425447 4.71151 -3.23513
-1.23961 4.6129 -3.18411
1.23848 4.60843 -3.17998
0.423832 4.70608 -3.23057
0.819701 5.02284 -2.7065
-0.000821073 5.6762 -1.39124
0.429605 5.40515 -2.08407
-0.430506 5.41263 -2.08732
-2.99303 4.79558 -1.11665
-3.21095 4.74658 -0.419406
-2.37713 4.61426 -2.45538
-2.70436 4.74702 -1.81332
-3.9692 3.82573 -1.23877
-3.39154 4.32231 -1.55091
-3.70629 3.79288 -1.9477
-0.67775 3.1771 -4.51503
-1.11564 3.63253 -4.14814
-2.45334 3.01762 -3.96757
-1.81104 3.34375 -4.09916
-1.99946 2.60692 -4.41304
-1.55023 4.03316 -3.67789
-1.94709 4.34813 -3.14921
-4.52098 1.31861 -2.53709
-4.14846 1.75781 -2.98986
-4.10315 1.06122 -3.21054
-3.97061 3.09766 -2.37643
-4.10147 2.45493 -2.70231
-4.41767 2.64472 -1.96665
-3.18154 1.88016 -3.96742
-3.67675 2.19229 -3.38897
-3.14792 2.58887 -3.70332
-2.69074 4.03114 -2.957
-2.95646 3.33266 -3.38725
-3.3886 3.60006 -2.69065
-3.66649 4.35364 -0.00242151
-4.39023 3.3564 -0.821414
-4.07412 3.88252 -0.425748
-4.06457 3.87444 0.420593
-4.37137 3.34429 0.813915
-4.76579 0.645124 -2.11547
-4.82753 1.33172 -1.8731
-5.14347 1.33547 -0.427912
-5.03386 1.33601 -1.1484
-5.14474 0.645439 -0.724792
-4.78646 2.02302 -1.57575
-4.65536 2.66376 -1.24967
-4.77594 1.32529 1.84776
-4.70055 0.643043 2.08178
-4.62627 2.65061 1.23763
-4.74749 2.01197 1.55793
-5.12862 0.64443 0.719105
-5.00815 1.33279 1.13808
-5.13194 1.33413 0.423898
-4.76073 2.7273 -0.430803
-5.01953 2.03076 -0.0013294
-4.753 2.72354 0.426867
2.97629 4.77134 1.10569
3.20881 4.74379 0.41443
2.35077 4.57348 2.42875
2.67652 4.70507 1.79228
3.94582 3.80676 1.22776
3.36674 4.2945 1.5355
3.67271 3.76378 1.92607
0.667224 3.1546 4.47368
1.10214 3.60224 4.10444
2.41971 2.98768 3.91605
1.78954 3.31392 4.05227
1.97377 2.58383 4.35795
1.53289 3.99858 3.63908
1.92553 4.31065 3.11632
4.46849 1.31185 2.50328
4.09137 1.74317 2.94455
4.03856 1.0553 3.15633
3.92852 3.07087 2.34736
4.05226 2.43323 2.66594
4.37998 2.62744 1.94644
3.12775 1.86141 3.90148
3.6193 2.16924 3.334
3.10048 2.56112 3.64825
2.65671 3.99091 2.92055
2.91508 3.29691 3.34085
3.34389 3.56119 2.6528
-0.679199 2.49466 4.77227
-4.55139e-05 2.73982 4.72363
-1.99208 1.87465 4.59235
-1.36185 2.1986 4.72649
-1.67023e-05 1.36016 5.11606
-0.683571 1.77713 4.98201
-0.685457 1.06407 5.10769
-4.03408 0.22953 3.15535
-3.65253 0.641678 3.6104
-2.67963 -0.168452 4.33959
-3.19281 0.222815 4.0198
-3.1349 -0.580835 3.91
-3.18509 1.05931 4.00869
-2.67104 1.45013 4.32489
-0.000172683 -1.45957 4.73952
-0.681833 -1.21494 4.79155
-0.668722 -1.87256 4.48288
-0.687133 0.216785 5.11683
-0.687696 -0.498937 5.00866
-0.000200807 -0.0799343 5.1318
-1.97915 -1.30345 4.36915
-1.3669 -0.918576 4.74659
-1.99853 -0.593754 4.60938
-2.06109 1.0656 4.71153
-2.06484 0.215733 4.72109
-1.37691 0.640509 4.98571
-4.76804 -0.0419693 1.84587
-4.45409 -0.0277878 2.49717
-5.10807 -0.0472999 0.42339
-4.99478 -0.0480354 1.13618
-4.40424 -1.3544 1.95802
-4.76738 -0.737116 1.56592
-4.6566 -1.37938 1.24713
-4.49846 -0.0248465 -2.52494
-4.80243 -0.0397424 -1.86213
-4.65721 -1.37923 -1.2473
-4.77249 -0.735854 -1.56678
-4.40401 -1.35491 -1.95729
-5.01124 -0.047386 -1.14313
-5.11121 -0.046762 -0.425309
-3.21682 -3.46903 0.417325
-3.67986 -3.08235 4.19748e-05
-3.21664 -3.46883 -0.417228
-4.39147 -2.0711 0.819154
-4.08173 -2.60363 0.424116
-3.96284 -2.53562 1.23465
-3.96184 -2.53482 -1.23414
-4.08148 -2.60343 -0.423985
-4.39083 -2.07062 -0.818926
-5.02839 -0.752641 -0.000120968
-4.77795 -1.44948 -0.430455
-4.77784 -1.44955 0.430398
-3.71294 0.644975 -3.66846
-4.09089 0.229866 -3.20093
-2.71498 1.46375 -4.3926
-3.24168 1.06829 -4.07659
-3.15459 -0.581064 -3.93427
-3.23175 0.222893 -4.06404
-2.69893 -0.169086 -4.36607
-0.00373224 2.74482 -4.73272
-0.691509 2.51225 -4.82134
-0.69674 1.07171 -5.142
-0.698158 1.79201 -5.04151
[...]
POINT_DATA 642
SCALARS Mean_Curvature double 1
LOOKUP_TABLE default
0.431535
0.431406
0.426242
0.423807
0.406089
0.429415
0.353279
0.339713
0.428799
0.362837
0.428738
0.386484
0.392432
0.382396
0.384708
0.385865
0.360313
0.397683
0.39867
0.370195
0.386326
0.388088
0.389
0.385846
0.344743
0.398701
0.36693
0.36947
0.32052
0.358312
0.383777
0.383265
0.369434
0.337624
0.385503
0.381869
0.329655
0.376589
0.383506
0.17658
0.370172
0.390916
0.395672
0.371076
0.376468
0.386772
0.37718
0.377094
0.388124
0.384748
0.38235
0.383865
0.407436
0.385785
0.387635
0.379747
0.383693
0.324531
0.379277
0.39957
0.378909
0.349953
0.413585
0.378884
0.414982
0.385168
0.397574
0.405078
0.381749
0.385185
0.38419
0.394647
0.379076
0.35695
0.362169
0.394929
0.354241
0.349715
0.384169
0.384718
0.385524
0.391133
0.360204
0.360295
0.329879
0.372283
0.32051
0.399517
0.389716
0.390353
0.372094
0.435701
0.419947
0.187735
0.422809
0.38773
0.368051
0.388266
0.387724
0.395119
0.294492
0.427634
0.40912
0.419615
0.360517
0.382942
0.416264
0.384472
0.386183
0.393944
0.381838
0.40099
0.38661
0.38216
0.381021
0.400088
0.430625
0.349081
0.389764
0.386941
0.351075
0.382456
0.383617
0.409818
0.38406
0.393599
0.383651
0.383188
0.415128
0.387967
0.388356
0.395501
0.414592
0.310773
0.404046
0.384697
0.383993
0.437698
0.384821
0.314374
0.407757
0.395698
0.37634
0.388553
0.236901
0.402324
0.405368
0.387396
0.390053
0.31687
0.38277
0.38914
0.401844
0.383548
0.385318
0.406788
0.391932
0.34901
0.340818
0.388089
0.38455
0.389713
0.393937
0.352221
0.328825
0.358631
0.360572
0.396867
0.383737
0.37348
0.383876
0.326278
0.379985
0.386719
0.383547
0.380312
0.39251
0.385785
0.361204
0.360471
0.393402
0.389647
0.395394
0.385101
0.386574
0.386679
0.379836
0.384931
0.382039
0.373506
0.383307
0.383895
0.348502
0.389519
0.384731
0.382506
0.412854
0.352462
0.360655
0.391772
0.388705
0.386536
0.386643
0.385969
0.387941
0.387181
0.412151
0.378243
0.413132
0.366542
0.340755
0.396768
0.382564
0.367683
0.385796
0.385871
0.385579
0.386006
0.370931
0.407852
0.419042
0.392876
0.392999
0.354797
0.354595
0.390994
0.399079
0.405095
0.417094
0.380738
0.357103
0.367554
0.419728
0.315233
0.319359
0.349251
0.359275
0.423771
0.425464
0.334661
0.333053
0.387119
0.357873
0.399965
0.408556
0.397055
0.383629
0.380189
0.397912
0.381243
0.383808
0.424635
0.407051
0.383724
0.369821
0.361417
0.386169
0.377956
0.397983
0.392514
0.395076
0.384751
0.378647
0.386247
0.392972
0.378152
0.380606
0.384385
0.384644
0.384879
0.375888
0.385618
0.377884
0.384714
0.389186
0.406409
0.411447
0.410958
0.37369
0.390904
0.389363
0.391169
0.403847
0.299244
0.393046
0.389611
0.385051
0.393529
0.39658
0.375987
0.392102
0.387084
0.398521
0.394877
0.382333
0.341727
0.382333
0.391452
0.389
0.389322
0.386175
0.38491
0.38591
0.386739
0.385663
0.385739
0.406237
0.393426
0.378248
0.390189
0.383924
0.387039
0.378999
0.362492
0.382713
0.38133
0.38042
0.35616
0.38012
0.385072
0.376579
0.3806
0.382415
0.341395
0.405016
0.344278
0.357313
0.392271
0.387211
0.329001
0.324125
0.356011
0.392681
0.388813
0.384726
0.395711
0.388548
0.392153
0.359264
0.387472
0.384152
0.389133
0.396138
0.399846
0.326501
0.334451
0.287838
0.319171
0.420022
0.421741
0.425683
0.402934
0.363217
0.424148
0.414678
0.445708
0.312475
0.266788
0.392768
0.38842
0.392962
0.368219
0.386763
0.384516
0.385499
0.387361
0.366675
0.437141
0.417535
0.418499
0.390347
0.392705
0.396112
0.391129
0.382933
0.389443
0.385499
0.297484
0.428174
0.442362
0.46339
0.319688
0.392874
0.380964
0.443797
0.21585
0.235295
0.393718
0.426847
0.239736
0.326559
0.433822
0.440911
0.380616
0.413204
0.379501
0.421518
0.403093
0.378949
0.387162
0.37781
0.375303
0.382173
0.393671
0.385335
0.385475
0.385494
0.385345
0.384865
0.383273
0.394257
0.401797
0.396986
0.374924
0.391348
0.40231
0.376201
0.372436
0.385041
0.384823
0.385326
0.384279
0.391063
0.385669
0.390129
0.379763
0.384365
0.384015
0.384103
0.382957
0.383695
0.330213
0.400898
0.348866
0.381518
0.359878
0.37191
0.459395
0.359522
0.386188
0.387522
0.397834
0.362161
0.386143
0.387059
0.385919
0.343867
0.402605
0.414905
0.380553
0.388806
0.383792
0.382297
0.388101
0.384649
0.380533
0.423876
0.37767
0.359604
0.323085
0.399217
0.395801
0.349227
0.384843
0.388068
0.386432
0.397773
0.384373
0.390956
0.378318
0.379673
0.369251
0.380866
0.376156
0.379161
0.382356
0.380658
0.376844
0.387887
0.390548
0.393978
0.387346
0.387492
0.384287
0.381203
0.393022
0.388539
0.38719
0.376263
0.383032
0.388425
0.375847
0.383999
0.291119
0.414696
0.417786
0.383952
0.381735
0.390633
0.398586
0.404282
0.339766
0.385146
0.387682
0.386574
0.388645
0.384707
0.388198
0.382663
0.386529
0.380602
0.415751
0.403739
0.399514
0.379555
0.442082
0.380693
0.387192
0.394449
0.376132
0.393743
0.375273
0.386089
0.435787
0.391423
0.235083
0.428016
0.38482
0.378132
0.381013
0.394811
0.369767
0.387923
0.384837
0.366981
0.397466
0.398105
0.363078
0.391789
0.382481
0.216356
0.462431
0.272809
0.40741
0.446674
0.337474
0.395793
0.289405
0.345765
0.43921
0.42357
0.422181
0.389535
0.383199
0.38817
0.390191
0.396775
0.310005
0.354993
0.352448
0.360225
0.381821
0.379152
0.401681
0.362193
0.386908
0.381673
0.39996
0.366445
0.402461
0.386233
0.381144
0.384535
0.385576
0.380641
0.350413
0.393692
0.374421
0.394384
0.385072
0.367154
0.375729
0.418665
0.414841
0.436975
0.381636
0.378007
0.379
0.402832
0.382587
0.375012
0.378865
0.380789
0.388922
0.382131
0.388347
0.388764
0.383569
0.378932
0.395681
0.237478
0.438743
0.368854
0.384279
0.380189
0.375546
0.390313
0.402574
0.392645
0.390565
0.395158
0.248538
0.386738
0.393259
0.272598
0.386897
0.273982
0.412102
0.478132
0.345034
0.376861
0.421678
0.327209
0.420963
0.402269
0.404092
0.399974
0.386892
0.385651
0.400248
0.384592
0.402618
0.392704
0.385258
0.393324
0.37715
0.38468
0.394381
0.386617
0.367771
0.399479
0.371497
SCALARS CoVolArea double 1
LOOKUP_TABLE default
0.406534
0.40758
0.408956
0.407298
0.403176
0.401291
0.398247
0.405943
0.404733
0.39889
0.406121
0.399012
0.537872
0.533117
0.538533
0.538547
0.542633
0.545714
0.546219
0.54604
0.546125
0.539545
0.532786
0.539511
0.536706
0.535231
0.543575
0.54401
0.535534
0.538007
0.546437
0.543432
0.540421
0.535593
0.543038
0.543445
0.544241
0.541345
0.540299
0.534495
0.538773
0.538857
0.512573
0.562139
0.511702
0.503994
0.558997
0.506322
0.509883
0.560794
0.507088
0.565491
0.51455
0.50987
0.564489
0.514984
0.565549
0.512954
0.569863
0.517531
0.517934
0.56989
0.516453
0.569671
0.515531
0.572795
0.517122
0.516166
0.572376
0.516962
0.572392
0.516879
0.568005
0.51348
0.568133
0.563984
0.508389
0.563238
0.514363
0.507002
0.560859
0.50791
0.559931
0.5044
0.559108
0.506697
0.506417
0.557575
0.50914
0.560705
0.509928
0.566207
0.509629
0.513865
0.567186
0.517534
0.570864
0.517354
0.567857
0.512837
0.512069
0.567541
0.506278
0.561492
0.503925
0.570964
0.513372
0.518008
0.572403
0.514798
0.571398
0.516473
0.514837
0.567335
0.515761
0.5048
0.562642
0.507819
0.512647
0.565004
0.509837
0.56926
0.516089
0.512596
0.568287
0.516733
0.569524
0.517095
0.568207
0.51501
0.516582
0.568445
0.507898
0.565211
0.50859
0.565097
0.51423
0.503029
0.560802
0.509722
0.5609
0.50915
0.566353
0.511872
0.563924
0.562699
0.508248
0.55986
0.556684
0.558696
0.569144
0.565672
0.564879
0.563174
0.568026
0.564935
0.562478
0.556303
0.562048
0.565409
0.568707
0.569269
0.499423
0.515994
0.498869
0.555274
0.51734
0.508649
0.508044
0.517157
0.555615
0.490098
0.508687
0.490974
0.551105
0.5114
0.501832
0.505638
0.512905
0.553741
0.494805
0.512656
0.493491
0.555323
0.51582
0.507674
0.503638
0.514344
0.55226
0.618799
0.617714
0.619404
0.517326
0.50027
0.557433
0.518716
0.51183
0.520063
0.559628
0.494819
0.514291
0.557235
0.517545
0.507654
0.517555
0.557254
0.50117
0.518136
0.50007
0.559642
0.52042
0.512014
0.508778
0.519391
0.557561
0.623364
0.623345
0.624166
0.520259
0.50175
0.56175
0.522576
0.515357
0.523911
0.563645
0.50285
0.520825
0.563382
0.523905
0.515224
0.522765
0.561933
0.500874
0.519863
0.500189
0.563169
0.523089
0.514672
0.513781
0.522876
0.562928
0.628336
0.628629
0.628693
0.521751
0.501428
0.565302
0.525334
0.515045
0.525306
0.56534
0.500254
0.520549
0.564891
0.524756
0.514905
0.524616
0.565068
0.50144
0.521516
0.501439
0.565186
0.525024
0.51493
0.514786
0.524909
0.564901
0.631873
0.631578
0.631845
0.519142
0.562918
0.522877
0.52051
0.558388
0.499619
0.519331
0.558635
0.520784
0.510118
0.52288
0.56295
0.511001
0.492647
0.556604
0.515216
0.50727
0.515579
0.556848
0.627132
0.624885
0.624802
0.517626
0.501029
0.556186
0.518446
0.510354
0.51895
0.556725
0.49354
0.512658
0.552201
0.514301
0.50337
0.515807
0.555368
0.491528
0.509699
0.490499
0.555095
0.514194
0.507199
0.501793
0.512166
0.551437
0.619994
0.618241
0.619877
0.510963
0.492994
0.551324
0.513086
0.504146
0.513481
0.55281
0.491223
0.508644
0.552346
0.512042
0.50489
0.511029
0.550569
0.495337
0.513474
0.495986
0.553727
0.515613
0.505948
0.506891
0.515685
0.55392
0.616295
0.617099
0.617684
0.513033
0.49294
0.558109
0.51705
0.510283
0.51822
0.560909
0.49908
0.517799
0.561172
0.520575
0.511116
0.520065
0.559306
0.503421
0.521966
0.503345
0.563323
0.52443
0.514329
0.514068
0.52436
0.56326
0.625965
0.627958
0.62778
0.518988
0.499326
0.562992
0.522696
0.508782
0.520247
0.557787
0.499052
0.518179
0.556969
0.519458
0.507289
0.522273
0.563157
0.490395
0.509544
0.490272
0.555526
0.513559
0.506059
0.501765
0.512144
0.554026
0.627257
0.623687
0.624
0.518753
0.499031
0.564142
0.523066
0.511743
0.522517
0.563104
0.502892
0.522524
0.56519
0.525511
0.515586
0.525475
0.564936
0.49948
0.520201
0.50032
0.563284
0.523469
0.512605
0.514933
0.52429
0.564798
0.630958
0.631098
0.63029
0.50102
0.519562
0.501459
0.559601
0.521361
0.511484
0.512741
0.521888
0.560836
0.490517
0.510048
0.491806
0.554329
0.51366
0.503348
0.506995
0.514996
0.557187
0.497166
0.515395
0.495958
0.560021
0.519255
0.511329
0.506316
0.517413
0.55565
0.623993
0.622297
0.625017
0.520285
0.501665
0.56184
0.522711
0.513189
0.522816
0.562363
0.497279
0.516814
0.561348
0.520661
0.511227
0.520698
0.561232
0.502955
0.521313
0.503176
0.56249
0.523299
0.513536
0.513619
0.523448
0.562229
0.627651
0.627751
0.628098
0.520072
0.501173
0.561916
0.522487
0.511276
0.521952
0.559928
0.503012
0.521048
0.560522
0.522663
0.512526
0.522926
0.56206
0.491227
0.512587
0.49155
0.558024
0.516886
0.507422
0.508279
0.517134
0.558473
0.626943
0.625706
0.62552
0.518812
0.5008
0.558358
0.520454
0.510401
0.520085
0.557813
0.489389
0.508895
0.551857
0.511818
0.501745
0.514718
0.556385
0.49615
0.513532
0.496635
0.555434
0.515572
0.506899
0.505253
0.515202
0.552987
0.62156
0.618769
0.621187
0.518916
0.558176
0.520738
0.521121
0.55942
0.497912
0.514892
0.556504
0.51765
0.508894
0.51759
0.556787
0.512152
0.492142
0.556888
0.515997
0.507103
0.51607
0.555829
0.623013
0.621632
0.623116
0.513458
0.552904
0.51524
0.515234
0.553326
0.508353
0.549831
0.510647
0.511034
0.551142
0.510835
0.552485
0.513175
0.512778
0.550884
0.616063
0.615535
0.616972
0.521605
0.561863
0.523419
0.523618
0.56227
0.515445
0.556631
0.517739
0.519226
0.560336
0.511907
0.560404
0.517451
0.515499
0.555785
0.626318
0.624012
0.626431
0.510396
0.558025
0.516027
0.514944
0.555319
0.521274
0.561649
0.52312
0.522636
0.560284
0.517273
0.556488
0.518923
0.519604
0.55978
0.624286
0.625005
0.622291
0.516067
0.552662
0.516164
0.519638
0.559119
0.507597
0.550353
0.509714
0.509863
0.550423
0.51651
0.558401
0.518317
0.516865
0.553403
0.617112
0.617292
0.620917
0.511976
0.557702
0.516529
0.516998
0.558346
0.518788
0.563479
0.522971
0.520817
0.559222
0.520761
0.560095
0.522186
0.523979
0.563777
0.62593
0.628113
0.626193
SCALARS SignedDistance double 1
LOOKUP_TABLE default
4.09129
3.85405
3.56108
3.77503
4.32176
4.46469
5.41588
4.45781
4.48036
5.0852
4.25258
5.00696
4.47065
4.78004
4.25301
4.25002
4.10239
3.7376
3.67982
3.76666
3.67165
4.606
4.83221
4.31408
4.65438
4.55739
4.14715
4.06027
5.01128
5.05572
3.6219
4.12998
4.32196
4.76414
3.88968
3.89097
4.09965
4.25169
4.31677
5.44751
4.56607
4.56549
4.23069
4.46872
4.27675
4.98673
4.71834
4.79226
4.29637
4.49567
4.61202
4.11154
4.0297
4.30863
4.13596
4.06832
4.12059
4.28133
3.75012
3.70437
3.6252
3.86243
4.00472
4.01782
4.15505
3.5132
3.76603
3.97413
3.6111
3.81689
3.567
3.88882
4.01125
4.44702
4.0267
4.41473
4.90999
4.45144
4.06932
4.61376
4.50012
4.6447
4.72807
5.0323
4.86043
4.73739
4.94414
4.90155
4.3121
4.47398
4.40069
4.5482
4.69773
4.83614
4.59487
3.6757
3.84822
3.72318
4.32936
4.59434
4.62802
4.31132
5.23985
5.00486
5.46794
3.79294
4.29881
3.6246
3.53018
4.22271
3.72149
3.89996
3.92702
4.04233
3.80126
5.00305
4.55965
4.84153
4.12066
4.25248
4.4962
3.8183
3.73983
4.21964
4.00945
3.81848
3.83855
3.70327
4.03114
3.94094
3.82506
4.10054
4.85618
4.65267
4.814
4.34447
4.07534
5.37659
4.82791
5.05103
4.99027
4.95584
4.22994
4.48153
4.97328
4.861
4.80896
4.56882
5.03362
4.90691
3.90449
4.24209
4.42839
4.65608
4.08686
4.65721
4.7906
5.33611
4.82199
4.27445
4.02304
3.90615
4.15511
4.34882
4.28679
4.52469
4.42901
4.33687
4.25786
4.3684
4.35575
5.07391
4.93124
4.98055
4.74474
4.84135
4.88386
4.62519
4.78428
4.65834
4.36176
4.44695
4.5274
4.3637
4.39216
4.26328
4.69258
4.54538
4.63549
4.58841
4.60751
4.47242
4.20922
4.11009
4.16995
4.17969
4.00093
4.12684
4.08511
4.37396
4.26353
4.17303
4.20501
4.26703
4.19388
4.16944
3.93718
4.19427
4.09411
4.09698
4.16259
4.0722
4.25954
4.1965
4.16768
4.10827
4.10979
4.07448
3.89853
3.8915
3.84541
3.82281
3.64425
3.79096
3.7957
3.69612
3.79407
3.86116
3.7636
3.64483
3.90458
3.94442
4.23297
4.28385
4.40167
3.89461
4.05621
3.81401
3.92196
4.12327
3.9856
3.87953
3.91737
3.82319
3.70141
3.91133
3.54908
3.57099
3.68261
3.58604
3.55454
4.2153
3.95686
3.66511
3.7509
3.82554
3.73728
3.61291
4.00422
3.8016
4.04862
3.58246
3.65089
3.72419
3.78686
3.67204
3.63185
3.52064
3.55021
3.51137
4.00132
3.84294
3.8936
4.09945
4.22858
4.34246
4.11874
4.29637
4.21546
4.48907
3.96843
3.87484
4.83923
4.98393
4.4219
4.61385
4.75432
4.65623
4.48034
3.98203
4.18802
4.18468
4.18598
3.95358
4.35742
4.35884
4.18612
4.28732
4.39459
4.53289
4.45289
4.65603
4.54832
4.71452
4.39472
4.36334
4.8722
4.88505
5.07733
4.54748
4.70082
4.46596
4.95072
4.87732
4.79363
4.47987
4.62967
4.5796
4.66485
4.6086
4.83842
4.74732
4.75803
4.80977
4.68948
4.98578
5.04339
4.74109
4.92608
4.81074
5.04422
4.94878
4.2957
4.315
4.32939
4.4715
4.35403
4.3936
4.51267
4.40784
4.53994
4.87391
4.66967
4.65134
4.89037
4.9277
4.83769
4.86116
4.36223
4.61169
4.25721
4.57033
4.67268
4.31888
4.70601
4.47152
4.72039
4.77943
3.57755
3.60354
3.60386
3.91611
3.72092
3.83851
3.90658
3.74684
3.95852
4.50063
4.1589
4.13472
4.22312
4.4049
4.00087
4.08366
4.81464
4.44385
4.68883
4.53351
4.33161
4.7428
4.48968
4.79543
4.08342
3.97226
5.32606
5.58682
5.64652
5.00637
5.30985
5.22835
5.2399
5.35506
5.07229
4.27566
4.64294
4.63893
4.18423
4.48519
3.72668
3.91108
4.19133
4.01173
3.93015
3.71217
3.58393
3.54265
3.53399
3.59161
3.54813
3.59099
4.33684
4.02564
4.17745
3.89068
3.91584
4.1507
3.71799
3.76968
3.62925
3.61795
3.58657
3.72216
3.80609
3.84038
3.75928
4.16552
3.98173
4.10101
3.83502
3.89345
3.94746
5.09191
4.91074
5.03419
4.67889
4.78826
4.88193
4.61528
4.71007
4.43657
4.30547
4.3231
4.38813
4.0413
4.15933
3.98237
4.6327
4.40248
4.51756
4.27026
4.38688
4.13318
3.76577
3.73523
3.80838
3.7884
3.88521
3.83075
3.94645
4.35986
4.2326
3.96445
4.16547
4.02964
4.0269
3.88959
3.64121
3.70247
3.61858
3.97862
3.84155
3.98144
3.79084
3.75765
3.81709
3.86002
3.9687
3.94344
3.78614
3.82973
4.03001
3.82402
4.10641
3.92799
4.12582
3.66171
3.75651
4.13139
3.92364
4.02469
3.91166
4.13416
5.14966
5.03028
5.13156
4.44393
4.7386
4.5611
4.51131
4.75013
4.45014
4.28169
4.39359
4.3353
3.98421
3.89588
4.29941
4.12257
4.30075
4.19493
4.43731
5.38361
5.08452
5.13553
5.09068
5.43012
4.80159
4.55412
4.772
5.00056
4.70832
4.76689
5.11012
4.88979
5.21488
5.23394
5.24522
4.56887
4.88454
4.64464
3.92806
4.3827
4.13506
4.03206
4.22747
4.46575
4.75925
4.79295
4.76367
4.5093
5.01629
4.75047
5.01889
4.95826
4.556
4.85117
4.67304
4.96964
4.87835
4.57322
4.87493
4.4799
4.37806
4.66949
4.51163
4.41667
4.52941
5.15602
5.00361
5.10322
5.05733
4.87651
4.66491
4.74355
4.81388
4.75957
4.8741
4.78978
4.98111
4.74221
3.66137
3.88549
3.77093
3.78097
3.95753
4.36898
4.5027
4.42043
4.19681
4.03611
4.85524
4.23514
4.55043
4.75905
4.64581
4.06623
4.31881
4.13123
5.00081
4.43116
4.6935
4.9367
4.92398
3.73522
4.08397
3.88363
3.92751
4.1463
4.73141
4.97345
4.91379
4.73887
4.38491
4.3605
4.341
4.63212
4.58628
5.14271
4.86348
4.49251
4.44279
5.60382
5.15573
5.38558
5.56582
5.47496
4.58463
4.45392
4.56391
4.69659
4.89277
5.13672
5.07424
4.77695
4.70071
4.38574
4.5282
4.44898
4.27047
4.17615
3.77411
3.91984
4.22429
4.27841
3.82405
4.09996
3.9663
3.74024
3.71372
4.11104
3.91549
4.07764
