# vtk DataFile Version 4.2
vtk output
ASCII
DATASET POLYDATA
POINTS 642 double
-2.01121 3.87253 -0.110247
2.04922 3.92535 -0.0737981
-2.0746 -2.69546 0.00249552
2.01552 -2.64847 0.00738394
0.00733159 -1.31347 3.1048
-0.00233522 2.59271 3.02975
-0.0363495 -1.30642 -2.82877
-0.0858062 2.65158 -3.12387
3.16641 0.778445 -1.95363
2.9622 0.69355 1.74248
-3.22568 0.738043 -2.02135
-2.94838 0.626054 1.76795
-2.96958 2.49502 1.02153
-1.72578 1.77806 2.83039
-1.10625 3.64587 1.82585
1.11131 3.64826 1.82454
-0.0149982 4.43121 -0.0577301
1.26022 3.80168 -1.95292
-1.25819 3.81263 -1.98105
-1.97469 1.87505 -3.15944
-3.14786 2.62148 -1.25138
-3.65709 0.711457 -0.0656357
1.71565 1.79265 2.81496
3.01197 2.52225 1.05534
-1.76275 -0.548725 2.88999
-0.00842774 0.582842 3.59057
-3.12706 -1.32319 -1.14185
-3.10056 -1.33447 1.13364
-0.112677 0.769269 -3.50796
-1.8783 -0.412433 -2.89819
3.1666 2.62637 -1.22785
1.95212 1.88762 -3.06106
2.99839 -1.30638 1.10673
1.73652 -0.546569 2.85676
1.17768 -2.47311 1.88784
-1.19534 -2.4809 1.88243
0.00656664 -3.19148 0.00457652
-1.19585 -2.43696 -1.81595
1.16475 -2.42089 -1.79237
1.76223 -0.41559 -2.70635
2.97411 -1.27909 -1.08683
3.65874 0.739924 -0.0439049
-2.59195 3.29386 0.478552
-2.1104 3.17251 1.51092
-1.59901 3.85707 0.890729
-2.4278 1.22554 2.36731
-2.4128 2.20023 2.04935
-3.06861 1.58606 1.45434
-0.545935 3.19659 2.56994
-1.49642 2.80758 2.45637
-0.866953 2.26218 3.05374
-0.592211 4.2051 0.962741
-1.07288 4.3039 -0.0769351
0.545236 3.19551 2.56735
-0.000659846 3.81539 1.93303
1.11919 4.29313 -0.0729281
0.595332 4.20458 0.964208
1.64865 3.8712 0.858125
-0.639247 4.32386 -1.02604
-1.74192 4.00909 -1.01729
1.74136 4.02468 -0.99723
0.651565 4.30066 -1.02557
-0.688111 3.30732 -2.72555
-0.0177471 3.9208 -1.99836
0.6634 3.28864 -2.65985
-2.32993 3.36658 -1.69655
-2.66577 3.40447 -0.670635
-1.03895 2.35893 -3.32051
-1.69447 2.9743 -2.7055
-3.34437 1.654 -1.73894
-2.7141 2.34054 -2.32049
-2.75957 1.3015 -2.67427
-3.22861 2.65614 -0.0693145
-3.57193 0.717242 -1.10976
-3.60765 1.688 -0.663942
-3.50191 1.66519 0.499189
-3.39758 0.671195 0.902912
2.15186 3.1825 1.48982
2.62089 3.35037 0.492704
0.86751 2.26327 3.0527
1.50082 2.80922 2.45645
3.12672 1.60388 1.46996
2.44964 2.20781 2.0254
2.44789 1.23754 2.33248
-0.896273 1.17918 3.34414
0.000174564 1.6647 3.38277
-2.44297 -0.00741395 2.38531
-1.7746 0.592969 3.00922
-0.00798318 -0.408145 3.49033
-0.913385 0.0212393 3.43575
-0.900848 -0.983813 3.1418
-3.4714 -0.515284 0.538125
-3.08757 -0.447906 1.50172
-3.14877 -0.306826 -1.5805
-3.50817 -0.4697 -0.59547
-2.69385 -2.14991 0.581508
-3.32741 -1.4382 -0.00205284
-2.69243 -2.14628 -0.57392
-2.01739 0.744872 -3.21897
-2.66555 0.167239 -2.57271
-0.11868 1.72897 -3.47687
-1.0866 1.33342 -3.58363
-0.979892 -0.956867 -2.9686
-1.0796 0.215138 -3.40333
-0.0587132 -0.209089 -3.23859
1.68745 2.95699 -2.65861
1.04761 2.36037 -3.19927
2.69682 3.43052 -0.641334
2.3291 3.36584 -1.67942
2.71153 1.33054 -2.59143
2.70155 2.33473 -2.28869
3.33349 1.6713 -1.70152
2.61665 -2.09877 0.577738
2.21307 -2.00637 1.58623
1.68455 -2.69619 0.947269
2.42962 0.00815909 2.36545
2.46156 -1.02505 2.08239
3.02272 -0.36861 1.50555
0.594875 -1.98953 2.61952
1.57345 -1.61565 2.52948
0.890649 -1.0163 3.12287
0.632705 -3.02645 1.01105
1.10345 -3.07403 -0.00321954
-0.590239 -1.9893 2.60537
0.004853 -2.63139 1.97594
-1.14012 -3.0705 0.00347027
-0.643473 -3.03305 1.00923
-1.72577 -2.72471 0.945791
0.647919 -3.00792 -0.959813
1.6698 -2.68553 -0.913623
-1.72403 -2.71126 -0.922569
-0.656716 -3.00543 -0.969618
0.600361 -1.89425 -2.44745
-0.00968381 -2.53892 -1.85884
-0.630431 -1.90546 -2.48103
2.18653 -1.97272 -1.52763
2.60047 -2.08806 -0.550269
0.929163 -0.977695 -2.87894
1.5545 -1.54793 -2.40519
3.06648 -0.210226 -1.5561
2.45401 -0.97262 -2.02802
2.58396 0.232438 -2.4524
3.19903 -1.3916 0.0159687
3.54543 0.770337 -1.07638
3.36971 -0.346144 -0.534951
3.36321 -0.422199 0.524022
3.43651 0.749075 0.92878
0.887696 0.0226911 3.41591
1.76021 0.601841 2.96648
0.872335 1.1962 3.33651
-2.2692 -2.03382 1.59489
-1.61036 -1.61834 2.5178
-2.53619 -1.05352 2.10283
-1.6136 -1.56376 -2.46432
-2.26743 -2.0119 -1.56171
-2.59349 -1.00066 -2.12385
1.97224 0.79469 -3.05425
0.954033 0.206163 -3.23638
1.04299 1.34587 -3.3733
3.54299 1.67155 0.535857
3.61481 1.70857 -0.666289
3.25472 2.68833 -0.0691202
-2.30705 3.62563 0.167994
-2.11783 3.58217 0.701868
-1.82819 3.87673 0.348376
-2.57446 2.84384 1.26721
-2.37656 3.23281 1.00276
-2.81199 2.92018 0.759149
-1.36514 3.78258 1.37247
-1.8705 3.54084 1.23131
-1.61701 3.44628 1.69599
-2.72077 0.913483 2.05663
-2.75975 1.43653 1.93678
-3.01882 1.10315 1.62625
-2.08366 2.00468 2.47901
-2.43749 1.73256 2.23707
-2.10089 1.50753 2.62256
-3.05447 2.04135 1.25514
-2.7663 1.91055 1.75989
-2.71607 2.36004 1.54347
-0.254359 2.89255 2.84747
-0.733654 2.75811 2.84094
-0.405803 2.45819 3.07036
-1.31641 3.26264 2.16947
-1.03766 3.03634 2.53314
-0.828463 3.44704 2.23131
-1.30779 2.03498 2.9748
-1.20247 2.54892 2.78593
-1.63507 2.30272 2.67739
-2.29608 2.70807 1.80607
-1.97947 2.52344 2.28611
-1.81893 3.02067 2.0187
-1.33195 4.11942 0.41857
-1.58321 4.10216 -0.0968241
-0.865081 3.96038 1.42534
-1.10123 4.06714 0.951713
-0.568096 4.41525 -0.0688444
-0.823722 4.28639 0.439291
-0.309495 4.36641 0.452247
0.250488 2.89154 2.84618
-0.00217831 3.24514 2.59075
0.570145 3.77155 1.90496
0.286144 3.54165 2.27217
0.830808 3.44719 2.22894
-0.288149 3.54185 2.27365
-0.569086 3.77117 1.90646
1.6447 4.13262 -0.0820323
1.38672 4.11719 0.404302
1.89656 3.92873 0.34383
0.30306 4.36288 0.459424
0.839465 4.27991 0.446306
0.566351 4.39623 -0.0537774
1.37916 3.78899 1.36719
1.11868 4.07029 0.944895
0.869909 3.96229 1.42489
-0.298173 4.05344 1.47553
0.29849 4.05344 1.47542
-0.000685176 4.25565 0.98073
-1.40377 4.19981 -0.558541
-1.90416 3.97202 -0.534388
-0.332847 4.44482 -0.543894
-0.858867 4.3686 -0.547391
-1.52229 3.95134 -1.50261
-1.20198 4.19264 -1.04295
-0.966857 4.09539 -1.52231
1.92838 4.01175 -0.499914
1.44496 4.22356 -0.550755
0.981767 4.07932 -1.49975
1.22504 4.18812 -1.03259
1.52215 3.95567 -1.48386
0.893336 4.3461 -0.549652
0.306254 4.42437 -0.54105
-0.38569 2.97182 -2.97157
-0.0405701 3.32012 -2.6695
0.291645 2.95881 -2.91037
-0.668285 3.8928 -2.01088
-0.373019 3.64209 -2.37463
-0.974137 3.58983 -2.3962
0.969429 3.57204 -2.35381
0.335044 3.63247 -2.35133
0.659401 3.87508 -1.98827
-0.0170772 4.35629 -1.03361
0.321373 4.16261 -1.53067
-0.340643 4.17829 -1.53931
-2.23705 3.74342 -0.876074
-2.33712 3.68596 -0.37107
-1.80193 3.63641 -1.86388
-2.04931 3.72955 -1.37769
-2.93622 3.05011 -0.962749
-2.54319 3.41676 -1.19269
-2.78757 3.0203 -1.48673
-0.581437 2.536 -3.25124
-0.895147 2.87089 -3.05412
-1.86007 2.43884 -2.9709
-1.37927 2.68766 -3.06135
-1.49733 2.13963 -3.29285
-1.19786 3.19042 -2.75224
-1.4875 3.44332 -2.37039
-3.31645 1.16223 -1.91248
-3.09189 1.50607 -2.23876
-3.04515 1.00057 -2.34323
-2.98072 2.50963 -1.79751
-3.07241 2.01916 -2.0428
-3.28671 2.14447 -1.51688
-2.40553 1.59043 -2.94674
-2.76541 1.82612 -2.54152
-2.37118 2.1219 -2.7811
-2.04179 3.20781 -2.23364
-2.23784 2.68543 -2.54847
-2.559 2.88643 -2.03658
-2.67409 3.36681 -0.0893398
-3.2229 2.66648 -0.672613
-2.98366 3.04482 -0.383276
-2.94602 2.99829 0.21971
-3.14039 2.59815 0.50035
-3.42065 0.735457 -1.61955
-3.50632 1.20547 -1.4306
-3.6804 1.20304 -0.357996
-3.63272 1.2102 -0.888025
-3.6573 0.713232 -0.591731
-3.50307 1.69447 -1.21518
-3.41137 2.17014 -0.975715
-3.28603 1.17497 1.17622
-3.18161 0.646004 1.38433
-3.27684 2.10413 0.774572
-3.31912 1.64902 0.980159
-3.57142 0.69407 0.433298
-3.49606 1.19742 0.693631
-3.62858 1.19786 0.212395
-3.46872 2.19197 -0.369784
-3.61076 1.68804 -0.0665203
-3.42119 2.16898 0.230558
2.17533 3.64035 0.687213
2.33934 3.68821 0.190284
1.63034 3.45209 1.69224
1.91422 3.55549 1.20344
2.84468 2.96209 0.783414
2.431 3.27856 0.998065
2.63134 2.87477 1.27119
0.405039 2.45581 3.06984
0.735795 2.75545 2.83943
1.63358 2.31021 2.67406
1.20509 2.54953 2.78582
1.30145 2.04498 2.96804
1.04164 3.03531 2.53165
1.32191 3.26422 2.16848
3.07013 1.14324 1.62075
2.81257 1.45261 1.91027
2.75283 0.952117 2.02686
2.77648 2.37946 1.54439
2.82705 1.92512 1.74767
3.10808 2.05823 1.28638
2.09911 1.5163 2.59919
2.46764 1.74191 2.20526
2.08664 2.01629 2.46447
1.83154 3.02504 2.01581
1.98918 2.52943 2.28098
2.33581 2.71442 1.7873
-0.447271 1.97195 3.25945
-0.000981086 2.1848 3.21435
-1.33606 1.50495 3.11659
-0.90649 1.75065 3.21985
-0.00384043 1.11069 3.5112
-0.443835 1.41791 3.40865
-0.443358 0.863167 3.52697
-2.73262 0.317181 2.0691
-2.42838 0.615392 2.41847
-1.77691 0.0222301 2.99632
-2.10451 0.299106 2.74088
-2.12464 -0.292438 2.6637
-2.10098 0.918883 2.70965
-1.76252 1.20338 2.93742
-0.00343828 -0.897043 3.31746
-0.461382 -0.687501 3.36793
-0.420617 -1.16876 3.15675
-0.455609 0.302277 3.56515
-0.465212 -0.187268 3.50917
-0.00915267 0.0806714 3.58306
-1.3481 -0.780801 3.052
-0.924354 -0.478961 3.32693
-1.35076 -0.258747 3.20861
-1.3657 0.884065 3.2226
-1.37081 0.297132 3.26652
-0.913666 0.575522 3.44813
-3.25666 0.0593602 1.20421
-3.01775 0.1175 1.6567
-3.54748 0.0875148 0.23639
-3.43884 0.0618148 0.718243
-3.13286 -0.906405 1.33653
-3.31468 -0.509675 1.02626
-3.34414 -0.947893 0.84434
-3.22656 0.306497 -1.86139
-3.42051 0.214257 -1.34413
-3.38356 -0.924302 -0.863604
-3.38114 -0.41915 -1.05774
-3.18016 -0.882806 -1.36135
-3.54754 0.138726 -0.847655
-3.57286 0.112395 -0.34487
-2.38624 -2.47511 0.273549
-2.74834 -2.17284 0.00222017
-2.38507 -2.4734 -0.26774
-3.26354 -1.4126 0.585187
-3.0486 -1.80972 0.302351
-2.93826 -1.76466 0.870775
-2.94294 -1.75773 -0.865185
-3.05029 -1.80798 -0.299594
-3.27778 -1.40668 -0.58999
-3.55259 -0.51829 -0.0266282
-3.48997 -0.978858 -0.30652
-3.47489 -0.987348 0.285066
-2.73114 0.737375 -2.6743
-2.99359 0.469607 -2.30351
-2.02588 1.3161 -3.24268
-2.40575 1.03243 -2.99244
-2.286 -0.129478 -2.77636
-2.36156 0.447208 -2.92974
-1.96117 0.173259 -3.10233
-0.0997715 2.23007 -3.31871
-0.643678 2.03544 -3.45847
-0.65016 1.05815 -3.57491
-0.659694 1.53021 -3.57344
[...]
POINT_DATA 642
SCALARS Mean_Curvature double 1
LOOKUP_TABLE default
0.513434
0.660645
0.643227
0.604733
0.501162
0.61053
0.297843
0.146734
0.608863
0.185404
0.618336
0.346902
0.539846
0.536485
0.577554
0.568006
0.336247
0.719564
0.704283
0.607027
0.639104
0.523062
0.506441
0.58728
0.508515
0.677782
0.807635
0.812312
0.393529
0.443203
0.594299
0.739095
0.869348
0.364588
0.589769
0.564167
0.345452
0.599352
0.607385
-0.0557514
0.800812
0.600606
0.57037
0.481869
0.463284
0.424652
0.499397
0.482377
0.633843
0.56326
0.535619
0.525753
0.584319
0.610952
0.603844
0.493123
0.517441
0.371986
0.550787
0.710747
0.628754
0.469124
0.608756
0.406053
0.393887
0.585875
0.631962
0.724654
0.55633
0.701933
0.560073
0.659188
0.591935
0.455682
0.654597
0.627844
0.158912
0.379643
0.563882
0.568002
0.567738
0.619391
0.431175
0.374543
0.259064
0.487682
0.274928
0.528607
0.63736
0.648572
0.530694
0.438246
0.376807
-0.256039
0.429397
0.596095
0.853606
0.597964
0.605712
0.507454
0.325644
0.904948
0.696797
0.674633
0.221388
0.586612
0.794034
0.630844
0.586891
0.672602
0.577483
0.724364
0.596405
0.577479
0.560275
0.346334
0.498575
0.437901
0.600644
0.692128
0.479974
0.550395
0.632178
0.594577
0.582335
0.499663
0.562884
0.564983
0.628093
0.614887
0.593353
0.580058
0.453738
0.315798
0.529975
0.563029
0.578049
0.587394
0.689417
0.270403
0.601061
0.515013
0.917637
0.541014
0.0857823
0.271853
0.528906
0.631873
0.440544
0.335368
0.562769
0.663973
0.690209
0.565082
0.529877
0.643676
0.633743
0.354642
0.365524
0.697098
0.597698
0.54703
0.538788
0.33088
0.268876
0.40361
0.380178
0.56756
0.533753
0.481771
0.541495
0.25903
0.430631
0.31128
0.547729
0.498555
0.475474
0.50279
0.448775
0.427558
0.647828
0.611579
0.576291
0.577982
0.598926
0.609322
0.542647
0.559015
0.545239
0.487421
0.537097
0.542379
0.422429
0.49089
0.560205
0.503112
0.607186
0.464975
0.479027
0.630104
0.632447
0.594485
0.613353
0.596192
0.624176
0.604152
0.682992
0.26785
0.6007
0.476744
0.435573
0.463967
0.502526
0.473187
0.55315
0.578777
0.572842
0.541816
0.574702
0.606474
0.715145
0.654938
0.627857
0.487983
0.455659
0.670583
0.810498
0.393741
0.503861
0.697818
0.522339
0.529767
0.429565
0.254862
0.133976
0.451204
0.445088
0.673648
0.653431
0.403735
0.393154
0.50447
0.466751
0.567281
0.690006
0.572936
0.56479
0.617326
0.634954
0.664971
0.608577
0.612894
0.70575
0.518553
0.690751
0.631539
0.728308
0.643843
0.692061
0.681678
0.643313
0.591181
0.601401
0.664659
0.6631
0.625184
0.54538
0.562958
0.556154
0.577482
0.558863
0.523668
0.541644
0.603322
0.618436
0.598063
0.60121
0.606166
0.551424
0.524576
0.5348
0.472383
0.503623
0.322955
0.612219
0.563417
0.501642
0.560127
0.598673
0.590324
0.682457
0.637316
0.535164
0.61947
0.510532
0.377716
0.564126
0.520444
0.527367
0.56442
0.594305
0.571896
0.585121
0.563908
0.590423
0.569322
0.506462
0.461413
0.361588
0.531008
0.520558
0.605182
0.410441
0.424871
0.514521
0.518412
0.525424
0.406925
0.539843
0.524284
0.45999
0.499369
0.476627
0.434037
0.616771
0.32201
0.327468
0.559317
0.38347
0.402908
0.299011
0.431504
0.575726
0.593521
0.515657
0.684974
0.65583
0.701913
0.53262
0.594897
0.58882
0.499226
0.633998
0.634751
0.265039
0.29518
0.195671
0.233407
0.698521
0.3847
0.800021
0.502316
0.383142
0.797284
0.205898
0.615322
0.464773
0.0345717
0.626246
0.597798
0.635614
0.853802
0.580733
0.596694
0.557925
0.571432
0.833146
0.546232
0.887226
0.882338
0.596436
0.56597
0.657906
0.62731
0.489897
0.559303
0.537046
0.187446
0.595449
0.490809
0.691171
0.409525
0.903188
0.816173
0.529533
-0.0612711
-0.213582
0.60691
0.5139
-0.191778
0.332746
0.192657
0.293339
0.747493
0.810744
0.696863
0.65703
0.192161
0.657838
0.712942
0.826235
0.73384
0.636737
0.662319
0.615987
0.589689
0.605336
0.615259
0.590855
0.581966
0.648249
0.699808
0.674502
0.679255
0.711664
0.699479
0.649002
0.698744
0.572738
0.574063
0.574581
0.566767
0.61053
0.586373
0.598189
0.640366
0.577595
0.619351
0.571509
0.568686
0.581457
0.295545
0.455751
0.271464
0.471017
0.529069
0.450268
0.418532
0.464695
0.583734
0.341775
0.634341
0.510908
0.60162
0.614585
0.597504
0.416092
0.716445
0.507196
0.71426
0.615408
0.617556
0.561965
0.59121
0.564149
0.545919
0.587149
0.528289
0.448807
0.398448
0.556188
0.628737
0.357878
0.591837
0.600547
0.586998
0.692867
0.602455
0.607414
0.50278
0.477946
0.495771
0.546249
0.52709
0.555745
0.570762
0.469006
0.532385
0.617501
0.616069
0.533541
0.750959
0.599984
0.629701
0.704623
0.639071
0.570968
0.627813
0.6066
0.549419
0.596662
0.517441
0.49141
0.23479
0.527601
0.564043
0.460096
0.647903
0.61258
0.514667
0.584394
0.394898
0.533417
0.504373
0.599367
0.602067
0.576223
0.593247
0.586
0.572367
0.611849
0.537088
0.642292
0.665847
0.733548
0.219021
0.618318
0.581763
0.522907
0.474328
0.570272
0.739928
0.110405
0.292122
0.463972
0.0504855
0.196505
0.583067
0.730994
0.702364
0.627544
0.835491
0.60395
0.60428
0.913229
0.586515
0.464074
0.503059
0.443707
0.55785
0.0203434
0.48885
0.235959
0.409363
0.555235
0.365222
0.570965
0.14459
0.384282
0.752021
0.219392
0.850251
0.581986
0.53282
0.558669
0.642045
0.67883
0.255943
0.419721
0.374257
0.30847
0.518624
0.549434
0.604123
0.484782
0.509595
0.453788
0.606574
0.307253
0.611096
0.587263
0.554832
0.566169
0.575296
0.608519
0.354277
0.401017
0.387054
0.577877
0.576627
0.364793
0.773288
0.530524
0.371033
0.389385
0.579327
0.783259
0.683838
0.705873
0.515917
0.563247
0.694682
0.648685
0.617182
0.543513
0.572713
0.58126
0.531864
0.514619
0.143542
0.185264
0.550575
0.752174
0.493269
0.626494
0.688496
0.613743
0.510021
0.5797
0.652858
0.694347
0.120569
0.411277
0.338825
0.257752
0.196865
0.275779
0.803818
0.220843
0.411522
0.424614
0.388509
0.383534
0.718026
0.606676
0.66769
0.644023
0.673868
0.612728
0.662243
0.685418
0.715315
0.602013
0.623756
0.630759
0.564135
0.560276
0.647609
0.646846
0.659193
0.522014
0.562961
SCALARS CoVolArea double 1
LOOKUP_TABLE default
0.180138
0.16646
0.175073
0.173076
0.175799
0.153164
0.1852
0.211263
0.159872
0.181888
0.165689
0.188359
0.2708
0.259928
0.26767
0.270806
0.298374
0.292288
0.296449
0.296229
0.292856
0.300916
0.260182
0.269885
0.27514
0.240687
0.271347
0.262665
0.283858
0.302235
0.294275
0.261827
0.250307
0.279809
0.283569
0.288052
0.312453
0.275933
0.266045
0.316738
0.255013
0.266265
0.268647
0.295729
0.285199
0.265207
0.279908
0.251627
0.241916
0.27156
0.244032
0.298393
0.270796
0.244323
0.279107
0.279485
0.301468
0.288164
0.308119
0.271658
0.271297
0.320689
0.273958
0.335189
0.288903
0.314841
0.268156
0.252198
0.314845
0.266325
0.316938
0.265139
0.294269
0.279222
0.293685
0.266477
0.294201
0.305533
0.264028
0.240997
0.272347
0.234639
0.286657
0.270041
0.289709
0.253828
0.286056
0.273118
0.238749
0.257167
0.265965
0.285666
0.264732
0.326996
0.290951
0.277873
0.284679
0.276271
0.28484
0.278101
0.300986
0.24463
0.257639
0.255679
0.334
0.303897
0.258644
0.273226
0.314394
0.249233
0.308806
0.255452
0.266568
0.29281
0.275071
0.267392
0.272334
0.279211
0.259882
0.272921
0.261381
0.311463
0.268697
0.273138
0.30328
0.278704
0.313058
0.279641
0.292574
0.264048
0.271964
0.303894
0.25133
0.306006
0.249402
0.285798
0.264983
0.242086
0.25977
0.296094
0.28317
0.264815
0.259213
0.25684
0.339945
0.296942
0.264441
0.2575
0.281693
0.289934
0.303182
0.286258
0.263322
0.285352
0.301726
0.294074
0.256755
0.304909
0.297307
0.272468
0.290038
0.299473
0.250926
0.28642
0.267018
0.293004
0.279787
0.261923
0.264206
0.278174
0.279517
0.25396
0.258882
0.243376
0.263894
0.252192
0.253027
0.25396
0.259542
0.286374
0.213953
0.239522
0.216404
0.27068
0.247218
0.248603
0.247257
0.246587
0.264194
0.315144
0.298799
0.304957
0.287247
0.253371
0.281855
0.278264
0.269467
0.281538
0.304511
0.215683
0.24201
0.275546
0.251662
0.250419
0.250578
0.274256
0.239407
0.286775
0.243885
0.308869
0.292858
0.289781
0.277455
0.28909
0.285619
0.311784
0.312624
0.325246
0.270571
0.239679
0.290725
0.270297
0.28478
0.287954
0.316207
0.238016
0.264567
0.315182
0.278939
0.278079
0.284722
0.308518
0.261883
0.306411
0.28563
0.315894
0.302202
0.274838
0.276008
0.308828
0.323152
0.339123
0.358444
0.349401
0.263712
0.239125
0.307212
0.280005
0.275207
0.277567
0.304211
0.245826
0.255944
0.314459
0.276704
0.273906
0.269849
0.301502
0.231281
0.265882
0.234615
0.306305
0.282073
0.277939
0.273899
0.28167
0.311696
0.347142
0.349146
0.345875
0.266295
0.300135
0.275772
0.265292
0.274522
0.240988
0.26226
0.276936
0.270975
0.288184
0.275544
0.301401
0.2603
0.266778
0.266683
0.246112
0.285221
0.254713
0.267817
0.322606
0.301438
0.304117
0.272206
0.235315
0.291915
0.287757
0.264361
0.275487
0.288301
0.217422
0.240914
0.262354
0.243977
0.241917
0.248412
0.273501
0.221005
0.248896
0.247636
0.279397
0.252104
0.245142
0.260157
0.260164
0.271962
0.316051
0.307014
0.322958
0.251036
0.221398
0.278768
0.262395
0.248265
0.26574
0.264748
0.263903
0.283322
0.27077
0.273077
0.271051
0.270823
0.277396
0.228064
0.247188
0.243341
0.247845
0.238432
0.229743
0.262874
0.250398
0.267234
0.299489
0.282217
0.287243
0.300748
0.265803
0.332569
0.305595
0.234735
0.264496
0.251988
0.266987
0.305954
0.266566
0.294888
0.273883
0.300637
0.334636
0.248196
0.276831
0.246367
0.275626
0.280752
0.274756
0.277179
0.281731
0.281176
0.31768
0.285814
0.280635
0.261984
0.241438
0.286607
0.266775
0.284641
0.268212
0.284855
0.292395
0.262184
0.25451
0.24388
0.277372
0.240812
0.276173
0.247932
0.322075
0.318755
0.280953
0.271633
0.28461
0.276061
0.285754
0.265549
0.29156
0.266516
0.286791
0.270536
0.286002
0.29497
0.265281
0.244294
0.257333
0.290376
0.240493
0.275611
0.308273
0.285519
0.278812
0.285445
0.303484
0.223516
0.253035
0.223633
0.292447
0.265243
0.252156
0.272384
0.273403
0.307279
0.341353
0.343521
0.339886
0.240658
0.269934
0.245262
0.276389
0.272265
0.259534
0.275065
0.275768
0.291183
0.257351
0.266012
0.261896
0.276385
0.257706
0.261912
0.247911
0.25651
0.263129
0.244267
0.257527
0.237833
0.283719
0.256112
0.263167
0.265273
0.254247
0.273284
0.301006
0.295195
0.309702
0.275362
0.244431
0.297958
0.282386
0.277749
0.283205
0.31597
0.254144
0.270845
0.298029
0.276946
0.268431
0.270975
0.292505
0.245391
0.278271
0.248033
0.31849
0.289146
0.292544
0.280905
0.286432
0.302402
0.333555
0.336187
0.343815
0.264892
0.240891
0.30304
0.264751
0.261091
0.263432
0.279193
0.244277
0.272338
0.288096
0.274863
0.271266
0.281458
0.313294
0.230528
0.269287
0.226005
0.282075
0.272106
0.247669
0.252691
0.271026
0.285741
0.339396
0.333361
0.329721
0.264165
0.239638
0.279625
0.26569
0.259941
0.267392
0.275183
0.247427
0.227325
0.27082
0.225225
0.265418
0.238262
0.269407
0.239159
0.283606
0.227619
0.267499
0.288877
0.272427
0.285844
0.297066
0.299418
0.300819
0.28835
0.295379
0.263842
0.259798
0.262478
0.262516
0.254822
0.226587
0.285459
0.30674
0.304295
0.259039
0.324208
0.289997
0.301754
0.241771
0.255389
0.290902
0.258728
0.305721
0.30116
0.296628
0.324575
0.276601
0.250615
0.273344
0.255877
0.238442
0.247237
0.284086
0.282456
0.275933
0.272226
0.275125
0.247717
0.262591
0.259706
0.256476
0.280671
0.28924
0.31109
0.290816
0.276975
0.298701
0.282581
0.281806
0.29021
0.27859
0.279282
0.273594
0.270694
0.288433
0.275941
0.262204
0.244643
0.264848
0.273757
0.31857
0.298876
0.308286
0.230699
0.284624
0.24935
0.257179
0.296911
0.271513
0.294561
0.278999
0.275698
0.293004
0.301571
0.306923
0.299312
0.291635
0.277751
0.322576
0.31823
0.315483
0.245426
0.289743
0.248827
0.245687
0.255284
0.31262
0.295491
0.295354
0.289383
0.313966
0.308622
0.260451
0.266515
0.300918
0.307213
0.303161
0.319919
0.289863
0.232976
0.263716
0.23793
0.239164
0.27503
0.249436
0.292092
0.261148
0.258499
0.27532
0.26578
0.288922
0.27183
0.27426
0.295904
0.312168
0.324783
0.319806
SCALARS SignedDistance double 1
LOOKUP_TABLE default
2.74443
2.54136
2.2292
2.39838
2.78824
2.90882
3.91959
2.98831
3.12195
3.42272
2.97005
3.28955
2.95843
3.13885
2.72052
2.7186
2.70023
2.49611
2.45147
2.49732
2.3755
3.17676
3.18642
2.84222
3.08631
3.01805
2.94987
2.80438
3.41677
3.70546
2.3041
2.88962
2.99352
3.1835
2.47384
2.49005
2.78936
2.88659
2.91606
3.86906
3.24448
3.13716
2.78045
2.90119
2.77042
3.30361
3.07866
3.21057
2.75926
2.90402
3.00193
2.62817
2.68117
2.77114
2.62727
2.71327
2.64217
2.83046
2.37296
2.47693
2.31939
2.47394
2.7827
2.67752
2.87304
2.19626
2.46745
2.77341
2.3144
2.5693
2.24626
2.64538
2.60963
3.07792
2.68211
2.97159
3.33372
2.93398
2.66537
3.00784
2.91522
3.13462
3.13341
3.34271
3.26528
3.13854
3.26816
3.28753
2.75504
2.9183
2.84389
3.17328
3.16624
3.50772
3.32253
2.34459
2.65084
2.40065
3.05643
3.26629
3.10292
3.11646
3.88444
3.61982
3.78111
2.49873
3.06904
2.31778
2.20203
2.94741
2.41913
2.6623
2.5321
2.64147
2.4046
3.34405
3.0447
3.25245
2.71878
2.83534
2.96578
2.4516
2.37602
2.86259
2.64421
2.49629
2.50277
2.34218
2.72853
2.54953
2.47949
2.81039
3.40469
3.2695
3.42152
2.94942
2.69761
3.89326
3.39986
3.56625
3.59783
3.48904
2.95456
3.08487
3.42663
3.32339
3.28938
3.00266
3.39256
3.28968
2.54903
2.83706
3.05703
3.27471
2.75123
3.43067
3.39759
3.66844
3.30727
2.8689
2.68912
2.54319
2.74081
2.87726
2.8584
2.9798
2.92148
2.85661
2.73245
2.83122
2.80091
3.35947
3.27618
3.36162
3.09219
3.18372
3.21498
3.07781
3.15944
3.06578
2.8234
2.88514
2.94701
2.80332
2.83261
2.72802
3.05907
2.94632
3.00743
2.9845
2.98325
2.88546
2.75719
2.77013
2.66334
2.68303
2.65506
2.67859
2.6365
2.83398
2.733
2.65515
2.68193
2.73109
2.6679
2.6521
2.62603
2.82826
2.72241
2.64892
2.72382
2.70481
2.74488
2.71461
2.66042
2.61346
2.61393
2.5988
2.57972
2.63592
2.5423
2.48653
2.36288
2.45146
2.45489
2.4143
2.55451
2.53494
2.53053
2.35753
2.53894
2.58202
2.96829
2.92955
2.97455
2.55503
2.73434
2.60838
2.68655
2.76125
2.6121
2.54452
2.54767
2.48117
2.4365
2.59674
2.24027
2.26994
2.37857
2.29714
2.24259
2.95796
2.731
2.37098
2.51089
2.56797
2.52174
2.34211
2.77058
2.55222
2.80202
2.27582
2.35661
2.46204
2.54373
2.39045
2.32229
2.20766
2.2342
2.19171
2.60778
2.48315
2.51643
2.67544
2.78693
3.04992
2.85995
2.92897
2.86266
3.10333
2.66822
2.52798
3.27509
3.3028
2.94498
3.09796
3.28371
3.15538
3.04273
2.60156
2.81977
2.77211
2.78159
2.59961
2.81392
2.87066
2.73719
2.83329
2.90462
2.9461
2.88377
3.04508
2.95373
3.09114
2.83193
2.805
3.29995
3.27325
3.41119
3.01835
3.13676
2.97454
3.26911
3.23976
3.16196
2.90756
3.02671
3.02475
3.0527
2.99857
3.20082
3.13496
3.21619
3.21645
3.1276
3.25744
3.32707
3.1394
3.28163
3.22024
3.36616
3.28314
2.74206
2.75
2.77323
2.93109
2.80529
2.85419
2.95357
2.84097
2.96941
3.28347
3.09441
3.08501
3.2459
3.24088
3.32634
3.27736
3.04006
3.15752
2.9973
3.23152
3.32109
3.13767
3.41311
3.26803
3.37034
3.36676
2.23571
2.27836
2.26642
2.701
2.42777
2.53026
2.61538
2.46301
2.77106
3.21698
3.00836
2.95365
2.94223
3.09267
2.76841
2.82773
3.47443
3.13905
3.36138
3.014
3.04597
3.39916
3.22066
3.25722
2.89656
2.77325
3.87636
3.99908
4.0515
3.63798
3.89446
3.88739
3.58621
3.75856
3.58949
3.03947
3.35927
3.33547
2.91348
3.01103
2.43942
2.66088
2.96585
2.75234
2.66402
2.41653
2.28178
2.21713
2.21618
2.2807
2.229
2.27703
3.03158
2.77208
2.90775
2.62848
2.67664
2.89715
2.429
2.50595
2.31011
2.30047
2.26232
2.41882
2.40304
2.44616
2.36431
2.7813
2.59024
2.7229
2.42696
2.49169
2.53637
3.35701
3.28663
3.32935
3.1127
3.1839
3.28119
3.13056
3.12657
3.02729
2.88492
2.91833
2.85585
2.6222
2.74126
2.56935
3.07777
3.01483
3.06296
2.86982
2.9566
2.72045
2.3966
2.35986
2.40388
2.40044
2.58228
2.51024
2.60268
2.86309
2.83967
2.61175
2.81853
2.6392
2.63071
2.48789
2.33519
2.37947
2.28045
2.67535
2.5164
2.66492
2.40503
2.39096
2.43305
2.48388
2.64265
2.62089
2.40966
2.44115
2.72579
2.52628
2.70949
2.56098
2.79072
2.32467
2.43248
2.81844
2.5914
2.65815
2.61225
2.85933
3.65669
3.57723
3.69423
3.0649
3.30285
3.17483
3.15707
3.36611
3.10261
2.97009
3.08501
2.98458
2.60104
2.51007
2.89404
2.7287
2.93576
2.81406
3.07
3.86694
3.62083
3.69884
3.64699
3.89084
3.35526
3.12519
3.32066
3.53337
3.28865
3.41205
3.60067
3.49129
3.7054
3.72443
3.73761
3.15532
3.485
3.26666
2.56139
3.08925
2.79092
2.66962
2.93054
3.0976
3.30608
3.34022
3.29999
3.09459
3.51046
3.39128
3.34149
3.38269
3.17654
3.27246
3.2031
3.38085
3.39655
3.27828
3.36537
3.18835
2.82112
3.07691
2.94145
2.865
2.98662
3.41959
3.30756
3.40228
3.3805
3.2544
3.0516
3.18262
3.21261
3.13939
3.21748
3.19104
3.35177
3.16291
2.31654
2.50237
2.40831
2.44171
2.63468
2.90048
3.09923
2.9918
2.77948
2.62824
3.22871
2.92084
3.11822
3.19642
3.17696
2.68662
2.96537
2.78822
3.60169
3.03518
3.29855
3.57326
3.62852
2.4045
2.79025
2.56163
2.58444
2.78268
3.43243
3.71384
3.62743
3.517
3.17494
2.99871
3.04551
3.34136
3.22319
3.65135
3.43731
3.16629
3.14057
3.9654
3.50004
3.69355
3.92338
3.86948
3.04096
3.17913
3.19422
3.14873
3.30591
3.65606
3.47832
3.42394
3.18771
2.98162
3.0759
2.99489
2.82016
2.87431
2.49259
2.65651
2.87991
2.90751
2.4948
2.67362
2.58293
2.42433
2.39953
2.73832
2.57204
2.66065
