<VTKFile type="ImageData" version="1.0" byte_order="LittleEndian" header_type="UInt64">
	<ImageData WholeExtent="0 53 0 56 0 51" Origin="-231.932 -223.885 -225.521" Spacing="8.75213 8.76086 8.84397">
		<Piece Extent="0 53 0 56 0 51">
			<PointData Scalars="Scalars_">
				<DataArray type="Float32" Name="Scalars_" format="ascii" RangeMin="0" RangeMax="100">
343.168
338.297
333.568
328.986
324.557
320.287
316.182
312.248
308.49
304.915
301.53
298.341
295.353
292.574
290.01
287.667
285.553
283.676
282.042
280.663
279.55
278.719
278.2
278.729
279.581
280.727
282.151
283.836
285.595
286.248
285.84
285.682
286.187
286.999
288.095
289.461
291.086
292.962
295.08
297.434
300.015
302.816
305.83
309.05
312.468
316.077
319.872
323.843
327.987
332.294
336.761
341.379
346.144
351.049
338.636
333.705
328.916
324.274
319.785
315.456
311.292
307.301
303.487
299.857
296.419
293.178
290.141
287.314
284.706
282.321
280.169
278.257
276.592
275.187
274.051
273.204
272.674
273.214
274.082
275.25
276.703
278.419
280.207
280.858
280.442
280.284
280.798
281.626
282.743
284.134
285.789
287.699
289.855
292.249
294.873
297.721
300.783
304.053
307.524
311.187
315.036
319.064
323.264
327.63
332.154
336.831
341.655
346.618
334.262
329.271
324.422
319.72
315.172
310.784
306.562
302.513
298.643
294.959
291.467
288.174
285.087
282.214
279.56
277.134
274.943
272.995
271.3
269.867
268.71
267.845
267.304
267.855
268.741
269.932
271.412
273.16
274.978
275.625
275.202
275.043
275.567
276.411
277.549
278.966
280.651
282.595
284.788
287.223
289.891
292.785
295.896
299.217
302.739
306.456
310.36
314.444
318.701
323.124
327.706
332.441
337.322
342.344
330.052
325.001
320.093
315.332
310.725
306.279
301.999
297.893
293.967
290.228
286.683
283.338
280.202
277.281
274.582
272.114
269.884
267.901
266.174
264.714
263.534
262.652
262.1
262.662
263.565
264.779
266.287
268.068
269.916
270.558
270.128
269.968
270.503
271.363
272.522
273.965
275.68
277.658
279.889
282.365
285.077
288.017
291.176
294.547
298.122
301.892
305.851
309.991
314.304
318.783
323.422
328.215
333.154
338.233
326.012
320.903
315.936
311.117
306.452
301.948
297.611
293.449
289.467
285.673
282.075
278.679
275.493
272.525
269.782
267.271
265.002
262.984
261.225
259.737
258.535
257.636
257.073
257.646
258.566
259.803
261.34
263.153
265.031
265.668
265.229
265.07
265.614
266.49
267.671
269.14
270.886
272.898
275.167
277.683
280.439
283.425
286.632
290.054
293.68
297.503
301.516
305.711
310.079
314.615
319.311
324.159
329.155
334.29
322.149
316.983
311.959
307.083
302.361
297.8
293.406
289.188
285.151
281.304
277.653
274.206
270.971
267.955
265.167
262.615
260.307
258.253
256.462
254.947
253.722
252.805
252.231
252.816
253.754
255.014
256.578
258.424
260.331
260.963
260.517
260.357
260.912
261.804
263.006
264.501
266.277
268.323
270.63
273.187
275.986
279.018
282.273
285.744
289.422
293.297
297.364
301.612
306.036
310.626
315.377
320.282
325.332
330.523
318.471
313.249
308.169
303.237
298.458
293.842
289.393
285.119
281.029
277.128
273.425
269.928
266.644
263.582
260.749
258.155
255.809
253.719
251.897
250.355
249.107
248.173
247.587
248.183
249.138
250.422
252.015
253.893
255.829
256.454
256.001
255.841
256.406
257.314
258.538
260.059
261.865
263.945
266.289
268.886
271.728
274.805
278.108
281.628
285.355
289.283
293.401
297.703
302.18
306.825
311.63
316.589
321.693
326.938
314.984
309.708
304.573
299.586
294.754
290.082
285.579
281.252
277.109
273.156
269.402
265.855
262.523
259.415
256.539
253.904
251.519
249.394
247.541
245.971
244.7
243.749
243.153
243.759
244.732
246.039
247.66
249.57
251.535
252.153
251.693
251.532
252.107
253.032
254.276
255.823
257.659
259.773
262.153
264.791
267.675
270.796
274.146
277.713
281.491
285.468
289.638
293.992
298.521
303.219
308.077
313.088
318.245
323.542
311.696
306.367
301.18
296.14
291.255
286.53
281.975
277.596
273.4
269.397
265.593
261.998
258.619
255.466
252.547
249.871
247.448
245.289
243.405
241.808
240.515
239.547
238.939
239.557
240.547
241.877
243.525
245.467
247.461
248.071
247.604
247.442
248.028
248.968
250.234
251.806
253.671
255.818
258.235
260.911
263.837
267.002
270.396
274.011
277.836
281.863
286.083
290.487
295.067
299.815
304.724
309.786
314.994
320.341
308.613
303.235
297.997
292.906
287.97
283.195
278.588
274.159
269.914
265.861
262.009
258.367
254.943
251.745
248.784
246.069
243.61
241.417
239.502
237.879
236.564
235.578
234.96
235.589
236.596
237.948
239.624
241.597
243.618
244.22
243.746
243.584
244.179
245.136
246.421
248.019
249.913
252.092
254.544
257.258
260.224
263.431
266.87
270.53
274.402
278.476
282.744
287.196
291.826
296.623
301.581
306.691
311.948
317.343
305.742
300.317
295.031
289.892
284.907
280.084
275.429
270.951
266.658
262.559
258.66
254.973
251.505
248.265
245.264
242.51
240.015
237.789
235.845
234.196
232.86
231.858
231.229
231.868
232.892
234.266
235.968
237.972
240.019
240.613
240.132
239.97
240.575
241.546
242.852
244.473
246.395
248.606
251.092
253.843
256.848
260.096
263.577
267.28
271.197
275.317
279.631
284.13
288.805
293.649
298.654
303.811
309.113
314.555
303.089
297.619
292.288
287.105
282.074
277.205
272.505
267.982
263.644
259.499
255.557
251.827
248.317
245.037
241.997
239.207
236.677
234.42
232.448
230.774
229.417
228.399
227.76
228.409
229.45
230.845
232.572
234.605
236.677
237.263
236.775
236.614
237.228
238.214
239.539
241.183
243.132
245.372
247.891
250.677
253.719
257.007
260.528
264.273
268.232
272.395
276.753
281.296
286.015
290.903
295.952
301.152
306.498
311.982
300.653
295.143
289.772
284.547
279.476
274.565
269.823
265.258
260.878
256.692
252.71
248.939
245.39
242.072
238.996
236.171
233.61
231.323
229.323
227.626
226.249
225.217
224.568
225.227
226.283
227.698
229.45
231.51
233.606
234.183
233.69
233.528
234.151
235.151
236.494
238.161
240.135
242.404
244.954
247.774
250.851
254.175
257.734
261.518
265.517
269.721
274.119
278.703
283.464
288.393
293.481
298.722
304.108
309.63
298.419
292.876
287.471
282.212
277.106
272.159
267.381
262.78
258.364
254.141
250.123
246.316
242.732
239.381
236.271
233.416
230.825
228.51
226.486
224.768
223.373
222.326
221.668
222.336
223.407
224.841
226.616
228.703
230.821
231.389
230.89
230.728
231.359
232.373
233.733
235.421
237.419
239.714
242.293
245.144
248.254
251.612
255.206
259.027
263.062
267.303
271.738
276.36
281.157
286.123
291.248
296.524
301.943
307.499
296.325
290.763
285.338
280.057
274.928
269.957
265.154
260.527
256.084
251.835
247.788
243.954
240.342
236.963
233.827
230.946
228.33
225.993
223.948
222.211
220.801
219.742
219.076
219.753
220.838
222.29
224.086
226.197
228.335
228.894
228.391
228.229
228.868
229.893
231.27
232.976
234.997
237.316
239.922
242.801
245.941
249.329
252.956
256.808
260.876
265.149
269.617
274.27
279.099
284.094
289.247
294.549
299.993
305.571
294.187
288.633
283.214
277.937
272.81
267.841
263.036
258.406
253.958
249.702
245.648
241.804
238.182
234.791
231.643
228.748
226.119
223.768
221.711
219.963
218.544
217.48
216.809
217.494
218.591
220.06
221.876
224.008
226.163
226.714
226.208
226.046
226.692
227.729
229.12
230.843
232.883
235.225
237.854
240.757
243.923
247.338
250.99
254.869
258.962
263.259
267.749
272.422
277.267
282.276
287.438
292.745
298.188
303.76
291.633
286.116
280.736
275.499
270.412
265.483
260.719
256.128
251.72
247.502
243.483
239.673
236.082
232.72
229.597
226.724
224.114
221.779
219.735
217.999
216.593
215.544
214.878
215.573
216.682
218.166
220
222.152
224.32
224.863
224.358
224.197
224.85
225.896
227.299
229.038
231.094
233.453
236.1
239.022
242.205
245.636
249.302
253.191
257.29
261.588
266.071
270.73
275.554
280.531
285.652
290.909
296.293
301.796
288.343
282.857
277.512
272.317
267.278
262.404
257.702
253.18
248.847
244.71
240.778
237.061
233.566
230.302
227.279
224.506
221.994
219.753
217.797
216.146
214.828
213.883
213.27
213.983
215.111
216.614
218.467
220.635
222.804
223.343
222.855
222.701
223.36
224.414
225.826
227.574
229.64
232.006
234.656
237.576
240.75
244.163
247.799
251.644
255.685
259.91
264.306
268.865
273.576
278.433
283.428
288.556
293.812
299.191
284.428
278.925
273.57
268.371
263.336
258.473
253.792
249.302
245.011
240.93
237.068
233.435
230.041
226.895
224.008
221.387
219.044
216.987
215.228
213.788
212.711
212.161
211.811
212.591
213.779
215.332
217.222
219.401
221.514
222.068
221.683
221.572
222.242
223.303
224.712
226.448
228.488
230.81
233.395
236.225
239.283
242.555
246.029
249.697
253.551
257.585
261.793
266.17
270.712
275.415
280.273
285.281
290.436
295.731
280.258
274.7
269.292
264.043
258.961
254.057
249.339
244.818
240.505
236.41
232.545
228.923
225.553
222.45
219.624
217.089
214.858
212.942
211.359
210.128
209.302
209.408
209.71
210.702
212.081
213.798
215.807
217.97
219.832
220.499
220.573
220.744
221.488
222.56
223.854
225.419
227.241
229.307
231.611
234.149
236.916
239.91
243.128
246.566
250.22
254.084
258.152
262.417
266.872
271.51
276.324
281.305
286.447
291.742
276.118
270.489
265.009
259.689
254.537
249.563
244.777
240.191
235.815
231.663
227.745
224.074
220.665
217.531
214.687
212.146
209.924
208.039
206.508
205.356
204.627
205.132
205.973
207.235
208.862
210.815
213.005
215.123
216.683
217.601
218.406
219.379
220.578
221.647
222.221
223.248
224.613
226.291
228.27
230.541
233.096
235.925
239.019
242.367
245.96
249.787
253.839
258.103
262.571
267.233
272.079
277.099
282.286
287.63
272.143
266.438
260.882
255.485
250.256
245.205
240.343
235.681
231.23
227.004
223.015
219.276
215.803
212.609
209.71
207.122
204.862
202.947
201.397
200.24
199.516
200.112
201.107
202.487
204.229
206.302
208.602
210.762
212.345
213.495
214.665
216.043
217.611
218.531
218.389
219.163
220.347
221.897
223.788
226.003
228.527
231.345
234.446
237.814
241.437
245.304
249.401
253.716
258.24
262.96
267.867
272.95
278.201
283.609
268.374
262.595
256.964
251.491
246.185
241.057
236.117
231.377
226.85
222.548
218.485
214.675
211.132
207.872
204.912
202.267
199.956
197.998
196.413
195.23
194.49
195.1
196.129
197.551
199.344
201.478
203.851
206.105
207.813
209.1
210.414
211.962
213.683
214.308
213.801
214.532
215.689
217.227
219.123
221.355
223.906
226.761
229.905
233.323
237.001
240.925
245.083
249.463
254.051
258.838
263.812
268.962
274.28
279.756
264.828
258.977
253.273
247.726
242.344
237.141
232.125
227.309
222.706
218.329
214.193
210.31
206.698
203.372
200.348
197.646
195.282
193.278
191.655
190.442
189.684
190.291
191.33
192.774
194.601
196.78
199.215
201.57
203.408
204.802
206.201
207.844
209.623
209.84
209.194
209.924
211.09
212.647
214.57
216.838
219.432
222.335
225.532
229.007
232.745
236.732
240.954
245.399
250.055
254.908
259.95
265.168
270.553
276.096
261.517
255.596
249.822
244.203
238.749
233.472
228.382
223.493
218.816
214.366
210.157
206.203
202.523
199.131
196.045
193.285
190.869
188.818
187.157
185.914
185.137
185.733
186.775
188.236
190.091
192.309
194.8
197.249
199.208
200.696
202.16
203.864
205.632
205.426
204.739
205.481
206.666
208.252
210.211
212.52
215.162
218.117
221.369
224.903
228.702
232.752
237.039
241.55
246.271
251.191
256.299
261.583
267.034
272.641
258.451
252.465
246.622
240.935
235.412
230.064
224.904
219.943
215.195
210.674
206.394
202.373
198.625
195.169
192.022
189.205
186.737
184.641
182.941
181.669
180.872
181.449
182.49
183.963
185.843
188.097
190.64
193.174
195.248
196.828
198.349
200.1
201.795
201.212
200.505
201.262
202.471
204.088
206.084
208.437
211.126
214.134
217.442
221.034
224.893
229.005
233.355
237.93
242.716
247.7
252.872
258.22
263.734
269.404
255.642
249.593
243.688
237.935
232.346
226.932
221.704
216.675
211.859
207.271
202.924
198.836
195.024
191.506
188.3
185.428
182.909
180.769
179.031
177.729
176.913
177.459
178.493
179.976
181.878
184.165
186.756
189.37
191.554
193.226
194.804
196.598
198.143
197.249
196.528
197.3
198.533
200.181
202.215
204.611
207.348
210.406
213.768
217.417
221.335
225.507
229.918
234.554
239.401
244.448
249.681
255.09
260.664
266.393
253.101
246.994
241.03
235.217
229.567
224.09
218.799
213.707
208.827
204.174
199.764
195.613
191.74
188.163
184.901
181.975
179.408
177.224
175.45
174.119
173.284
173.783
174.805
176.294
178.215
180.534
183.168
185.858
188.148
189.915
191.553
193.387
194.673
193.563
192.831
193.618
194.875
196.554
198.624
201.061
203.843
206.951
210.365
214.068
218.042
222.271
226.74
231.435
236.341
241.446
246.737
252.203
257.834
263.619
250.84
244.68
238.662
232.794
227.087
221.554
216.204
211.053
206.114
201.402
196.933
192.725
188.794
185.161
181.846
178.871
176.258
174.032
172.223
170.864
170.009
170.441
171.445
172.937
174.876
177.222
179.898
182.659
185.054
186.919
188.62
190.492
191.362
190.177
189.436
190.238
191.517
193.225
195.329
197.806
200.632
203.786
207.25
211.004
215.03
219.313
223.837
228.586
233.547
238.706
244.051
249.571
255.255
261.092
248.871
242.665
236.599
230.681
224.924
219.339
213.938
208.734
203.741
198.976
194.453
190.191
186.209
182.525
179.161
176.14
173.484
171.22
169.376
167.99
167.116
167.449
168.433
169.926
171.879
174.251
176.966
179.793
182.292
184.26
186.028
187.933
188.302
187.108
186.363
187.178
188.478
190.213
192.351
194.864
197.731
200.928
204.438
208.239
212.314
216.647
221.221
226.02
231.031
236.241
241.636
247.204
252.936
258.82
247.209
240.963
234.854
228.895
223.094
217.464
212.017
206.767
201.728
196.915
192.346
188.038
184.009
180.28
176.873
173.81
171.115
168.815
166.939
165.525
164.631
164.824
165.787
167.281
169.247
171.642
174.393
177.283
179.886
181.962
183.801
185.73
185.572
184.376
183.633
184.46
185.78
187.54
189.707
192.254
195.158
198.395
201.945
205.79
209.909
214.287
218.905
223.75
228.807
234.061
239.5
245.112
250.887
256.813
245.869
239.589
233.447
227.452
221.615
215.948
210.464
205.175
200.097
195.245
190.637
186.289
182.221
178.455
175.01
171.911
169.182
166.849
164.943
163.499
162.579
162.579
163.529
165.025
167.004
169.421
172.204
175.153
177.858
180.048
181.966
183.889
183.19
182.001
181.266
182.105
183.442
185.224
187.417
189.994
192.93
196.202
199.789
203.671
207.829
212.246
216.904
221.788
226.884
232.177
237.655
243.305
249.117
255.08
244.871
238.566
232.397
226.376
220.511
214.816
209.303
203.985
198.877
193.996
189.357
184.978
180.881
177.084
173.61
170.482
167.723
165.36
163.421
161.942
160.978
160.737
161.685
163.186
165.178
167.613
170.426
173.43
176.235
178.546
180.551
182.38
181.169
179.999
179.283
180.131
181.483
183.284
185.499
188.101
191.064
194.366
197.983
201.897
206.087
210.537
215.228
220.145
225.273
230.599
236.109
241.791
247.634
253.627
244.249
237.928
231.743
225.704
219.822
214.109
208.578
203.241
198.114
193.213
188.555
184.157
180.039
176.223
172.729
169.579
166.797
164.402
162.422
160.885
159.834
159.34
160.291
161.8
163.803
166.254
169.092
172.144
175.047
177.489
179.593
181.063
179.517
178.383
177.702
178.557
179.92
181.736
183.969
186.591
189.575
192.899
196.541
200.479
204.695
209.17
213.887
218.83
223.984
229.335
234.87
240.576
246.444
252.461
244.694
238.375
232.191
226.151
220.266
214.547
209.006
203.657
198.512
193.587
188.897
184.46
180.291
176.41
172.836
169.589
166.694
164.176
162.064
160.386
159.172
158.455
159.409
160.924
162.936
165.399
168.256
171.345
174.339
176.924
179.159
179.746
178.234
177.155
176.535
177.396
178.766
180.592
182.837
185.472
188.471
191.811
195.469
199.425
203.658
208.151
212.886
217.847
223.019
228.388
233.94
239.664
245.549
251.583
245.449
239.141
232.966
226.936
221.06
215.349
209.815
204.472
199.332
194.411
189.725
185.29
181.124
177.246
173.677
170.438
167.553
165.047
162.946
161.277
160.07
159.356
160.304
161.809
163.808
166.257
169.098
172.175
175.165
177.755
179.992
178.763
177.304
176.298
175.779
176.642
178.017
179.848
182.099
184.741
187.748
191.097
194.764
198.729
202.972
207.475
212.22
217.191
222.374
227.753
233.316
239.051
244.945
250.99
246.499
240.21
234.055
228.044
222.187
216.496
210.982
205.658
200.538
195.636
190.969
186.552
182.406
178.548
174.999
171.78
168.916
166.429
164.345
162.691
161.494
160.786
161.724
163.215
165.195
167.621
170.439
173.496
176.479
179.074
179.986
178.126
176.707
175.768
175.379
176.244
177.62
179.453
181.707
184.353
187.363
190.715
194.386
198.356
202.603
207.111
211.861
216.837
222.024
227.409
232.977
238.716
244.616
250.665
247.835
241.573
235.446
229.463
223.636
217.974
212.489
207.195
202.105
197.234
192.597
188.212
184.096
180.268
176.749
173.56
170.724
168.263
166.203
164.568
163.385
162.684
163.61
165.081
167.037
169.435
172.222
175.254
178.226
180.824
180.827
178.977
177.565
176.631
176.244
177.103
178.472
180.296
182.538
185.171
188.168
191.505
195.161
199.114
203.346
207.837
212.571
217.531
222.703
228.072
233.624
239.349
245.233
251.268
249.448
243.221
237.129
231.183
225.392
219.768
214.322
209.067
204.016
199.184
194.587
190.242
186.165
182.377
178.896
175.744
172.942
170.513
168.48
166.868
165.701
165.01
165.921
167.371
169.298
171.663
174.413
177.411
180.367
182.933
182.167
180.332
178.932
178.005
177.62
178.472
179.829
181.638
183.863
186.476
189.451
192.766
196.398
200.327
204.534
209
213.709
218.644
223.79
229.134
234.662
240.363
246.224
252.236
251.332
245.146
239.096
233.193
227.446
221.867
216.466
211.257
206.254
201.469
196.92
192.621
188.591
184.849
181.412
178.302
175.54
173.147
171.146
169.56
168.412
167.731
168.626
170.051
171.947
174.273
176.981
179.939
182.87
185.315
183.952
182.137
180.752
179.835
179.453
180.296
181.638
183.428
185.63
188.218
191.165
194.451
198.052
201.949
206.123
210.556
215.232
220.134
225.248
230.559
236.055
241.725
247.555
253.537
253.478
247.339
241.338
235.483
229.787
224.258
218.91
213.754
208.803
204.072
199.576
195.33
191.353
187.662
184.274
181.212
178.493
176.14
174.173
172.615
171.487
170.819
171.697
173.095
174.957
177.241
179.899
182.811
185.706
187.903
186.149
184.357
182.99
182.085
181.707
182.538
183.863
185.63
187.806
190.363
193.278
196.528
200.092
203.951
208.086
212.48
217.116
221.978
227.052
232.324
237.782
243.413
249.206
255.151
255.879
249.792
243.844
238.044
232.403
226.931
221.64
216.541
211.649
206.977
202.539
198.352
194.431
190.795
187.462
184.449
181.778
179.467
177.537
176.009
174.903
174.248
175.108
176.478
178.302
180.54
183.145
186
188.848
190.668
188.728
186.964
185.616
184.725
184.352
185.17
186.476
188.217
190.363
192.886
195.764
198.974
202.496
206.311
210.402
214.75
219.34
224.156
229.185
234.412
239.824
245.411
251.161
257.064
258.526
252.495
246.605
240.865
235.283
229.873
224.643
219.607
214.778
210.168
205.793
201.668
197.808
194.231
190.954
187.995
185.373
183.106
181.215
179.718
178.635
177.994
178.835
180.176
181.961
184.149
186.693
189.484
192.269
193.636
191.664
189.931
188.606
187.729
187.363
188.167
189.451
191.165
193.278
195.763
198.6
201.766
205.242
209.009
213.05
217.348
221.887
226.652
231.63
236.806
242.169
247.706
253.407
259.262
261.412
255.442
249.613
243.935
238.418
233.072
227.909
222.939
218.176
213.633
209.323
205.263
201.467
197.951
194.733
191.829
189.258
187.037
185.185
183.721
182.662
182.035
182.857
184.168
185.912
188.046
190.524
193.239
195.946
196.887
194.935
193.236
191.934
191.074
190.714
191.504
192.765
194.45
196.527
198.973
201.765
204.884
208.31
212.026
216.013
220.257
224.741
229.45
234.372
239.493
244.801
250.284
255.932
261.734
264.527
258.621
252.858
247.247
241.797
236.519
231.424
226.524
221.83
217.356
213.115
209.121
205.391
201.939
198.781
195.934
193.415
191.241
189.429
187.997
186.964
186.351
187.154
188.434
190.134
192.211
194.615
197.246
199.857
200.425
198.519
196.856
195.579
194.736
194.384
195.159
196.396
198.05
200.091
202.495
205.241
208.309
211.683
215.343
219.274
223.459
227.885
232.535
237.398
242.459
247.708
253.133
258.724
264.469
267.865
262.026
256.33
250.788
245.409
240.202
235.178
230.349
225.727
221.324
217.153
213.229
209.565
206.178
203.081
200.292
197.826
195.699
193.928
192.53
191.52
190.923
191.707
192.954
194.608
196.623
198.947
201.484
203.982
204.24
202.395
200.771
199.521
198.695
198.352
199.111
200.324
201.946
203.949
206.309
209.007
212.024
215.342
218.945
222.816
226.941
231.304
235.893
240.692
245.692
250.878
256.241
261.771
267.456
271.416
265.646
260.022
254.551
249.244
244.11
239.159
234.404
229.855
225.524
221.425
217.571
213.975
210.653
207.619
204.887
202.474
200.395
198.665
197.3
196.315
195.733
196.497
197.712
199.316
201.264
203.5
205.933
208.302
208.315
206.543
204.961
203.738
202.931
202.598
203.341
204.529
206.119
208.082
210.398
213.047
216.01
219.272
222.815
226.625
230.687
234.986
239.509
244.243
249.177
254.298
259.597
265.062
270.684
275.173
269.475
263.922
258.525
253.292
248.232
243.357
238.676
234.201
229.944
225.918
222.135
218.608
215.351
212.379
209.706
207.346
205.314
203.624
202.292
201.332
200.765
201.508
202.689
204.242
206.116
208.257
210.576
212.803
212.63
210.944
209.408
208.213
207.425
207.103
207.83
208.993
210.55
212.474
214.744
217.343
220.252
223.456
226.938
230.685
234.682
238.915
243.371
248.038
252.904
257.957
263.188
268.587
274.142
279.127
273.502
268.024
262.701
257.544
252.56
247.76
243.155
238.756
234.573
230.619
226.907
223.449
220.258
217.348
214.732
212.425
210.44
208.79
207.491
206.555
206.002
206.726
207.871
209.367
211.161
213.198
215.397
217.47
217.168
215.582
214.095
212.929
212.16
211.85
212.561
213.699
215.223
217.107
219.332
221.88
224.734
227.879
231.3
234.982
238.913
243.078
247.465
252.063
256.86
261.844
267.005
272.334
277.822
283.271
277.72
272.317
267.071
261.989
257.082
252.359
247.831
243.507
239.399
235.518
231.877
228.487
225.362
222.513
219.955
217.699
215.76
214.15
212.882
211.97
211.432
212.135
213.242
214.676
216.383
218.309
220.381
222.293
221.909
220.439
219.005
217.869
217.12
216.823
217.518
218.63
220.121
221.966
224.145
226.642
229.441
232.527
235.885
239.503
243.366
247.463
251.781
256.308
261.033
265.946
271.037
276.296
281.713
287.597
282.121
276.795
271.625
266.621
261.791
257.144
252.692
248.444
244.41
240.602
237.032
233.71
230.649
227.862
225.36
223.156
221.262
219.69
218.454
217.565
217.04
217.721
218.788
220.153
221.764
223.573
225.515
227.262
226.835
225.498
224.124
223.018
222.288
222.006
222.685
223.773
225.231
227.036
229.17
231.616
234.359
237.386
240.682
244.234
248.031
252.058
256.305
260.761
265.414
270.255
275.273
280.46
285.806
292.097
286.697
281.448
276.355
271.428
266.675
262.106
257.73
253.557
249.598
245.862
242.362
239.107
236.11
233.383
230.936
228.782
226.933
225.399
224.192
223.325
222.814
223.472
224.494
225.782
227.29
228.976
230.787
232.371
231.929
230.744
229.436
228.363
227.652
227.384
228.048
229.111
230.537
232.303
234.392
236.788
239.476
242.444
245.678
249.165
252.893
256.851
261.027
265.411
269.992
274.76
279.705
284.818
290.091
296.763
291.441
286.268
281.253
276.403
271.728
267.236
262.936
258.838
254.952
251.288
247.856
244.668
241.734
239.065
236.673
234.568
232.761
231.264
230.087
229.241
228.742
229.376
230.349
231.55
232.947
234.507
236.19
237.616
237.175
236.16
234.927
233.889
233.198
232.946
233.594
234.633
236.028
237.755
239.799
242.145
244.779
247.688
250.86
254.282
257.943
261.831
265.937
270.248
274.756
279.45
284.321
289.361
294.56
301.59
296.344
291.248
286.31
281.538
276.94
272.524
268.3
264.276
260.463
256.869
253.506
250.383
247.511
244.9
242.56
240.503
238.738
237.276
236.126
235.3
234.813
235.419
236.337
237.44
238.721
240.155
241.716
242.991
242.558
241.732
240.586
239.584
238.913
238.677
239.311
240.326
241.69
243.379
245.38
247.677
250.257
253.108
256.218
259.575
263.169
266.989
271.023
275.262
279.697
284.317
289.114
294.08
299.205
306.569
301.4
296.381
291.52
286.825
282.303
277.963
273.814
269.863
266.122
262.598
259.302
256.242
253.43
250.876
248.587
246.576
244.852
243.423
242.3
241.493
241.016
241.592
242.446
243.441
244.6
245.913
247.36
248.495
248.069
247.444
246.399
245.437
244.787
244.567
245.186
246.179
247.512
249.165
251.122
253.371
255.898
258.692
261.741
265.035
268.562
272.313
276.277
280.444
284.806
289.352
294.075
298.966
304.017
311.694
306.602
301.66
296.876
292.257
287.811
283.546
279.47
275.592
271.921
268.465
265.235
262.238
259.485
256.984
254.746
252.78
251.094
249.697
248.599
247.809
247.34
247.882
248.665
249.539
250.577
251.775
253.117
254.126
253.698
253.281
252.355
251.437
250.807
250.606
251.211
252.181
253.484
255.101
257.016
259.217
261.692
264.43
267.419
270.65
274.112
277.794
281.688
285.784
290.073
294.546
299.195
304.012
308.989
316.959
311.943
307.077
302.369
297.825
293.454
289.263
285.26
281.454
277.852
274.463
271.297
268.361
265.665
263.218
261.028
259.104
257.455
256.089
255.014
254.239
253.777
254.279
254.981
255.723
256.644
257.736
258.985
259.882
259.445
259.23
258.441
257.573
256.965
256.782
257.374
258.322
259.597
261.178
263.052
265.207
267.631
270.313
273.244
276.412
279.809
283.424
287.249
291.275
295.492
299.892
304.467
309.21
314.112
337.481
332.54
327.74
323.089
318.591
314.253
310.082
306.082
302.262
298.626
295.182
291.936
288.895
286.065
283.454
281.068
278.914
277
275.335
273.928
272.792
271.944
271.413
271.955
272.825
273.996
275.452
277.171
278.925
279.384
278.953
278.794
279.308
280.138
281.257
282.651
284.31
286.225
288.386
290.787
293.419
296.274
299.346
302.625
306.106
309.78
313.641
317.68
321.893
326.271
330.808
335.498
340.335
345.312
332.879
327.874
323.012
318.297
313.737
309.337
305.104
301.045
297.165
293.471
289.971
286.671
283.577
280.698
278.039
275.609
273.414
271.463
269.765
268.33
267.17
266.304
265.762
266.315
267.204
268.399
269.884
271.636
273.421
273.873
273.434
273.275
273.8
274.647
275.788
277.209
278.9
280.85
283.052
285.495
288.173
291.078
294.2
297.533
301.069
304.8
308.718
312.817
317.089
321.528
326.126
330.877
335.775
340.814
328.435
323.367
318.442
313.665
309.043
304.581
300.287
296.167
292.227
288.476
284.919
281.564
278.418
275.489
272.783
270.308
268.072
266.083
264.352
262.888
261.705
260.82
260.267
260.831
261.738
262.958
264.472
266.259
268.074
268.518
268.072
267.912
268.448
269.312
270.476
271.925
273.647
275.634
277.875
280.362
283.087
286.04
289.214
292.601
296.191
299.979
303.955
308.113
312.445
316.944
321.602
326.414
331.373
336.473
324.155
319.026
314.038
309.199
304.515
299.992
295.637
291.457
287.458
283.649
280.036
276.626
273.427
270.447
267.693
265.174
262.896
260.87
259.105
257.612
256.405
255.502
254.936
255.513
256.438
257.683
259.227
261.049
262.894
263.329
262.876
262.716
263.263
264.143
265.33
266.807
268.562
270.585
272.866
275.397
278.168
281.171
284.396
287.836
291.482
295.326
299.36
303.576
307.967
312.525
317.244
322.117
327.136
332.295
320.047
314.856
309.808
304.907
300.162
295.578
291.162
286.923
282.865
278.998
275.329
271.865
268.613
265.583
262.781
260.217
257.898
255.834
254.034
252.512
251.28
250.359
249.781
250.37
251.314
252.583
254.158
256.015
257.89
258.315
257.856
257.695
258.253
259.151
260.36
261.865
263.653
265.713
268.034
270.609
273.426
276.478
279.754
283.247
286.948
290.848
294.939
299.214
303.663
308.281
313.059
317.991
323.069
328.288
316.117
310.867
305.758
300.797
295.991
291.347
286.872
282.573
278.458
274.534
270.808
267.29
263.986
260.905
258.056
255.446
253.086
250.984
249.151
247.599
246.342
245.402
244.813
245.413
246.377
247.671
249.276
251.167
253.073
253.488
253.022
252.86
253.429
254.345
255.577
257.11
258.93
261.027
263.389
266.006
268.87
271.971
275.298
278.844
282.599
286.555
290.703
295.034
299.542
304.217
309.054
314.044
319.18
324.457
312.374
307.065
301.897
296.877
292.012
287.309
282.775
278.418
274.245
270.264
266.484
262.912
259.556
256.425
253.528
250.874
248.472
246.332
244.465
242.883
241.602
240.643
240.042
240.654
241.637
242.956
244.592
246.518
248.453
248.857
248.384
248.223
248.803
249.736
250.991
252.552
254.405
256.538
258.94
261.601
264.511
267.659
271.037
274.635
278.444
282.455
286.658
291.046
295.61
300.343
305.236
310.283
315.477
320.81
308.824
303.457
298.232
293.154
288.232
283.471
278.88
274.466
270.237
266.2
262.365
258.74
255.333
252.153
249.21
246.511
244.068
241.89
239.989
238.378
237.073
236.095
235.481
236.106
237.107
238.451
240.118
242.079
244.043
244.436
243.956
243.794
244.385
245.336
246.614
248.203
250.088
252.257
254.698
257.402
260.357
263.554
266.982
270.631
274.492
278.556
282.814
287.257
291.877
296.665
301.614
306.717
311.965
317.353
305.474
300.053
294.772
289.638
284.66
279.843
275.196
270.726
266.442
262.352
258.464
254.787
251.33
248.101
245.111
242.369
239.885
237.67
235.736
234.095
232.766
231.769
231.144
231.78
232.801
234.17
235.866
237.861
239.854
240.235
239.749
239.587
240.189
241.156
242.458
244.074
245.991
248.195
250.676
253.422
256.421
259.665
263.141
266.84
270.753
274.869
279.18
283.677
288.35
293.192
298.196
303.352
308.654
314.095
302.333
296.859
291.525
286.338
281.305
276.434
271.733
267.21
262.872
258.729
254.79
251.062
247.556
244.281
241.246
238.461
235.937
233.685
231.718
230.049
228.696
227.681
227.043
227.692
228.731
230.124
231.85
233.879
235.9
236.269
235.776
235.613
236.226
237.211
238.534
240.178
242.125
244.365
246.884
249.671
252.714
256.002
259.526
263.274
267.237
271.404
275.766
280.314
285.039
289.934
294.988
300.196
305.55
311.041
299.408
293.884
288.498
283.26
278.176
273.254
268.501
263.926
259.538
255.344
251.355
247.579
244.025
240.704
237.625
234.799
232.237
229.949
227.95
226.253
224.876
223.843
223.194
223.854
224.911
226.328
228.083
230.145
232.193
232.549
232.051
231.887
232.511
233.512
234.857
236.527
238.505
240.779
243.335
246.161
249.246
252.579
256.148
259.943
263.953
268.169
272.58
277.178
281.953
286.897
292.001
297.258
302.66
308.2
296.706
291.134
285.701
280.415
275.282
270.311
265.509
260.885
256.448
252.207
248.17
244.348
240.749
237.384
234.263
231.397
228.797
226.476
224.445
222.721
221.322
220.271
219.611
220.282
221.357
222.798
224.581
226.674
228.748
229.091
228.587
228.423
229.057
230.074
231.441
233.136
235.143
237.449
240.041
242.905
246.031
249.406
253.018
256.858
260.914
265.176
269.634
274.279
279.101
284.091
289.242
294.546
299.994
305.579
294.23
288.615
283.138
277.807
272.63
267.613
262.766
258.097
253.615
249.328
245.247
241.381
237.739
234.333
231.173
228.269
225.634
223.28
221.22
219.47
218.048
216.981
216.31
216.992
218.084
219.547
221.357
223.481