# vtk DataFile Version 4.2
vtk output
ASCII
DATASET POLYDATA
POINTS 642 double
-1.05932 2.2709 -0.409388
1.21421 2.35522 -0.386931
-1.43844 -1.66058 -0.00255205
1.07171 -1.46673 0.0969319
-0.0466489 -0.320754 1.36575
-0.00407985 1.75895 1.33821
-0.133419 -0.343097 -0.365535
-0.248967 1.86295 -1.41442
1.28785 1.40843 -0.62667
1.01595 0.767202 0.401111
-1.30302 1.29921 -0.834454
-1.09863 0.557683 0.489901
-1.39575 1.69575 0.139856
-0.617137 1.27569 1.08365
-0.555077 2.41799 0.924188
0.586242 2.41935 0.903321
0.00012814 2.79597 -0.193146
0.93508 2.27333 -0.807486
-0.906664 2.21882 -0.967745
-1.26959 1.76629 -1.21023
-1.914 1.98782 -0.942161
-1.30308 0.944168 -0.286719
0.597974 1.31909 1.05083
1.47625 1.77096 0.105053
-0.469897 -0.153808 1.0839
-0.0487019 0.28209 1.23822
-1.1207 -0.63523 -0.0903279
-1.28312 -0.814552 0.347099
-0.262687 1.27384 -1.15932
-0.906582 0.665442 -0.661783
2.03804 2.01495 -0.865911
1.07969 1.78245 -0.906094
1.14462 -0.681537 0.415322
0.443197 -0.182381 1.02725
0.638204 -1.31054 0.956443
-0.71305 -1.26334 0.749007
0.0103356 -1.28422 0.225273
-0.692755 -0.924404 -0.106237
0.470576 -0.960211 -0.0619467
0.655734 0.457517 -0.497435
0.95343 -0.520656 -0.0708916
1.30161 1.19234 -0.198023
-1.3312 2.07997 -0.141682
-0.929527 2.03313 0.565701
-0.755743 2.38756 0.241739
-0.830161 0.919771 0.728367
-0.916946 1.53209 0.701483
-1.16977 1.17347 0.280366
-0.209501 2.08747 1.22384
-0.656735 1.88753 1.11966
-0.287356 1.57341 1.22983
-0.330833 2.81074 0.464439
-0.555766 2.55068 -0.281186
0.213949 2.09142 1.221
0.00423859 2.56122 1.04171
0.662337 2.49906 -0.289255
0.322878 2.68894 0.42771
0.823473 2.30161 0.129847
-0.46352 2.9472 -0.722478
-0.998863 2.30527 -0.761091
1.15069 2.37128 -0.646873
0.463666 2.94367 -0.717322
-0.663484 2.04415 -1.13798
-0.0662809 2.47842 -0.907464
0.443766 2.10562 -1.07002
-1.61256 2.53755 -1.23076
-1.57647 2.30406 -0.646393
-0.896931 1.78867 -1.17879
-1.36365 2.03297 -1.28319
-1.61708 1.55138 -1.02024
-1.88444 1.81683 -1.64997
-1.36645 1.58078 -1.10059
-1.81321 1.89124 -0.314682
-1.33499 1.14859 -0.599657
-1.68036 1.50012 -0.586045
-1.46997 1.37669 -0.174746
-1.22721 0.705521 0.107712
0.998486 2.03561 0.458589
1.45452 2.24791 -0.0721879
0.274996 1.5923 1.24279
0.623562 1.89099 1.04324
1.25174 1.29762 0.25053
0.969938 1.57291 0.591104
0.833605 1.00652 0.642369
-0.236435 0.76889 1.12337
-0.0187481 1.19908 1.2044
-0.918448 0.127927 0.859056
-0.467456 0.445476 1.03441
0.000430637 -0.0760799 1.79191
-0.232808 0.0800543 1.42098
-0.194143 -0.268009 1.40338
-1.28608 -0.268822 0.112415
-1.27438 -0.196683 0.488616
-1.10327 0.447351 -0.419448
-1.19481 -0.0585764 -0.139694
-1.46187 -1.28257 0.24153
-1.27281 -0.842605 0.0665186
-1.26228 -1.29589 0.0257759
-1.08368 1.41902 -1.05355
-1.12041 1.09756 -0.791981
-0.277109 1.59494 -1.31862
-0.871104 1.54364 -1.14548
-0.59176 0.0130627 -0.476568
-0.736368 1.14921 -0.984089
-0.194817 0.695102 -0.804207
1.15828 2.08467 -0.901207
0.567879 1.81902 -1.10349
1.72448 2.55166 -0.499341
1.65505 2.45469 -1.0619
1.27168 1.63049 -0.806679
1.55606 2.02013 -0.972017
1.58844 1.66885 -0.778421
1.00983 -1.13036 0.292231
1.02365 -1.06458 0.70619
1.13209 -1.6221 0.554581
0.857762 0.178162 0.810769
0.939497 -0.518757 0.792907
1.14558 -0.00745225 0.512493
0.214425 -0.81644 0.974753
0.618979 -0.776244 0.962192
0.111832 -0.276793 1.28503
0.385722 -1.60811 0.594182
0.743102 -1.65899 0.0506733
-0.230293 -0.750925 0.948299
0.0342708 -1.16581 0.774847
-0.87838 -1.48906 0.119638
-0.477163 -1.3647 0.520985
-1.21743 -1.6596 0.53559
0.394318 -1.19916 0.0412392
0.787082 -1.3355 0.033784
-1.08053 -1.35132 -0.0627227
-0.485584 -1.12818 0.0192741
0.193452 -0.678202 -0.220583
-0.0639741 -0.925979 -0.106307
-0.420236 -0.651324 -0.249561
0.705282 -0.854694 -0.0416469
0.881788 -1.08228 0.117243
0.293842 -0.107853 -0.409976
0.509749 -0.554885 -0.203876
0.995527 0.673669 -0.321117
0.769412 -0.138578 -0.221739
1.01165 1.13161 -0.599591
1.07166 -0.677493 0.125798
1.35465 1.32729 -0.458575
1.03695 0.286309 -0.0750094
1.14825 0.0345865 0.16112
1.18147 0.978558 0.0916901
0.122766 0.0869378 1.34279
0.429425 0.5057 0.989405
0.181863 0.838532 1.10879
-1.22415 -1.12578 0.693235
-0.634851 -0.755548 0.836092
-1.03646 -0.591372 0.706769
-0.755037 -0.503641 -0.249496
-0.970809 -0.877986 -0.0784609
-0.960983 -0.146105 -0.293741
0.901555 1.39849 -0.838657
0.32172 1.01941 -0.894493
0.494221 1.49943 -1.09594
1.56898 1.51142 -0.0884291
1.76786 1.57638 -0.484992
2.00248 2.00363 -0.221672
-1.18913 2.19913 -0.309848
-1.01327 2.17106 0.0271528
-0.910753 2.29133 -0.173046
-1.18462 1.85584 0.336265
-1.13925 2.05156 0.209866
-1.45654 1.95604 0.0657427
-0.67643 2.4495 0.606146
-0.886464 2.25494 0.440392
-0.763044 2.24895 0.775063
-0.990426 0.698285 0.577699
-0.99362 1.05267 0.5261
-1.09685 0.828693 0.397479
-0.779754 1.42183 0.938917
-0.872169 1.25122 0.725042
-0.704943 1.11549 0.898772
-1.27909 1.444 0.196502
-1.04914 1.35215 0.461075
-1.13617 1.6094 0.410712
-0.0825468 1.90059 1.33938
-0.258366 1.84421 1.26741
-0.121215 1.6968 1.33792
-0.617761 2.17155 1.0526
-0.437416 2.02185 1.21184
-0.374567 2.27298 1.12619
-0.476067 1.42792 1.21041
-0.463847 1.73355 1.21101
-0.653573 1.58662 1.11987
-0.98744 1.79955 0.679089
-0.834495 1.7127 0.952285
-0.854281 2.01194 0.916738
-0.649363 2.48295 -0.00208025
-0.828601 2.37133 -0.359706
-0.441152 2.60509 0.717339
-0.614415 2.6587 0.384834
-0.32051 2.68916 -0.231691
-0.448099 2.68704 0.0778584
-0.164187 2.81608 0.122623
0.0774178 1.90261 1.33941
-0.0010795 2.10513 1.21678
0.31676 2.55624 1.0297
0.137299 2.35382 1.21227
0.408308 2.29371 1.15614
-0.134144 2.34938 1.21234
-0.30354 2.55185 1.03757
1.00795 2.38222 -0.36744
0.750022 2.40448 -0.0750855
1.0768 2.31485 -0.22869
0.158868 2.71519 0.126739
0.475372 2.60537 0.0633066
0.339325 2.62907 -0.220035
0.713174 2.42656 0.553495
0.600592 2.54488 0.329877
0.473408 2.60508 0.696438
-0.149893 2.68959 0.775478
0.166171 2.68949 0.769764
0.013922 2.81659 0.477727
-0.736208 2.45554 -0.557106
-1.03922 2.30034 -0.56442
-0.203746 2.69427 -0.486784
-0.474672 2.65199 -0.535471
-0.958204 2.27081 -0.883421
-0.62956 2.52739 -0.719712
-0.572479 2.49836 -0.816381
1.20688 2.38209 -0.517332
0.895128 2.45045 -0.512769
0.620988 2.50579 -0.733767
0.707169 2.51277 -0.645342
1.06844 2.32896 -0.740703
0.547026 2.6262 -0.510558
0.197057 2.69463 -0.472678
-0.427012 1.92565 -1.25725
-0.126953 2.11069 -1.1558
0.0882352 1.99014 -1.31949
-0.489025 2.40855 -0.92299
-0.364446 2.26975 -1.02943
-0.818173 2.14281 -1.04828
0.718003 2.20885 -0.908475
0.217587 2.30661 -1.02772
0.461929 2.40371 -0.862271
-0.00965794 2.67112 -0.670527
0.164037 2.58798 -0.762761
-0.249588 2.71292 -0.905399
-1.33098 2.30827 -0.762491
-1.27014 2.25464 -0.512804
-1.34322 2.23314 -1.09897
-1.3753 2.28555 -1.00159
-1.88287 2.28262 -0.781398
-1.61698 2.35866 -0.936957
-1.91403 2.31037 -1.10158
-0.558342 1.80471 -1.24798
-0.825241 1.90218 -1.17165
-1.38586 1.94133 -1.30068
-1.12542 1.90701 -1.20001
-1.12404 1.78744 -1.19164
-1.03595 2.01148 -1.15297
-1.19672 2.12017 -1.14496
-1.41344 1.42645 -0.911443
-1.49402 1.58941 -1.09417
-1.34299 1.42326 -0.95157
-1.91324 1.95338 -1.25442
-1.69402 1.78573 -1.24859
-1.85983 1.70295 -1.05738
-1.34039 1.70406 -1.18993
-1.56111 1.79903 -1.29663
-1.49948 1.87923 -1.36276
-1.48167 2.20743 -1.31605
-1.51659 2.05635 -1.58572
-1.81287 2.27125 -1.49457
-1.48973 2.25336 -0.353872
-2.02361 1.98004 -0.611032
-1.82156 2.22404 -0.432481
-1.60086 2.02676 -0.22815
-1.62739 1.79319 -0.0869198
-1.32103 1.24927 -0.754259
-1.47504 1.40169 -0.799755
-1.4612 1.28447 -0.447486
-1.49366 1.34709 -0.62047
-1.3265 1.05123 -0.444041
-1.69096 1.5309 -0.825362
-1.90979 1.69119 -0.767106
-1.21576 0.973409 0.163
-1.15634 0.594558 0.342204
-1.48957 1.53237 -0.0292934
-1.32737 1.28468 0.0360013
-1.2698 0.83037 -0.108596
-1.31913 1.09766 -0.0648294
-1.39904 1.19738 -0.262782
-1.89191 1.64324 -0.452456
-1.5901 1.47997 -0.393258
-1.65908 1.62123 -0.256309
1.15507 2.20677 -0.0559327
1.31364 2.32003 -0.284997
0.767647 2.2284 0.704776
0.904256 2.18089 0.303915
1.51353 2.0147 0.0451232
1.232 2.06552 0.0984183
1.3021 1.90962 0.276338
0.11074 1.70183 1.33797
0.25762 1.85196 1.26828
0.614919 1.61662 1.05376
0.459267 1.75149 1.20339
0.45814 1.46284 1.20359
0.452289 2.02762 1.20858
0.616434 2.15836 1.00109
1.09277 1.02242 0.322651
1.04514 1.16441 0.432669
0.961187 0.852496 0.481002
1.23708 1.66801 0.327206
1.15624 1.42707 0.382723
1.39954 1.52867 0.20026
0.698618 1.1689 0.839299
0.898374 1.31297 0.615751
0.768501 1.4619 0.863235
0.769667 1.98522 0.780573
0.770676 1.73116 0.827808
1.04001 1.82363 0.57371
-0.141927 1.40596 1.23198
-0.00736195 1.57032 1.33771
-0.409488 1.07869 1.09478
-0.297269 1.2348 1.21156
-0.0373196 0.684217 1.14117
-0.144643 0.969306 1.21023
-0.121563 0.46394 1.14649
-1.07969 0.373298 0.67095
-0.857866 0.523524 0.780874
-0.444322 0.101753 1.09833
-0.666146 0.296229 0.968198
-0.680091 -0.0418793 0.950289
-0.664532 0.719443 0.899619
-0.519757 0.909147 0.993334
-0.0220704 -0.355583 1.60772
-0.258407 -0.282039 1.77981
-0.107574 -0.305956 1.41267
-0.135513 0.135804 1.38226
-0.176104 0.00679933 1.61055
-0.0535495 0.0517519 1.48237
-0.304931 -0.219403 1.24478
-0.256599 -0.118261 1.50384
-0.2997 -0.0300338 1.29134
-0.337756 0.598339 1.08051
-0.295336 0.206549 1.18471
-0.204004 0.313835 1.18292
-1.27679 0.223203 0.327523
-1.24804 0.275465 0.54586
-1.23777 0.349227 -0.063988
-1.26061 0.253016 0.112682
-1.33689 -0.542879 0.433852
-1.28012 -0.268748 0.284587
-1.3994 -0.603549 0.234035
-1.20766 1.0713 -0.695556
-1.19454 0.849293 -0.527601
-1.16707 -0.419652 -0.100635
-1.13742 0.144135 -0.259025
-1.09337 -0.226263 -0.203209
-1.19714 0.654813 -0.368783
-1.21187 0.491032 -0.217799
-1.54896 -1.56389 0.125971
-1.37921 -1.33257 0.0935143
-1.53852 -1.49255 -0.138369
-1.28041 -0.851461 0.186226
-1.25893 -1.09197 0.173482
-1.28419 -1.08146 0.291476
-1.12912 -0.987683 0.0218154
-1.20881 -1.06685 0.0980637
-1.2359 -0.783698 -0.0469391
-1.28596 -0.20737 -0.0332454
-1.26146 -0.545316 -0.0249201
[...]
POINT_DATA 642
SCALARS Mean_Curvature double 1
LOOKUP_TABLE default
-0.446097
-0.336245
9.21017
8.82837
0.645999
-0.0436898
0.236327
8.16011
0.629498
0.0663987
1.35942
-0.367203
1.15791
2.51081
2.29683
2.78934
2.69072
0.678006
0.719511
0.980469
-0.0758605
1.00023
2.31504
-1.58893
-0.0655446
-0.444226
-0.342103
-1.07049
0.984296
0.30109
4.72028
0.805315
2.86816
-0.163329
1.66157
-0.120545
0.872249
0.797114
0.646196
0.463678
0.872956
0.605669
-1.01694
-0.803439
-0.68205
-0.312644
-0.731413
0.189445
0.071564
2.10143
-1.24751
3.07097
-0.329221
-0.413825
1.71681
-0.441938
0.860969
-0.927308
6.35541
0.518165
0.660546
6.48119
0.709576
-0.730238
0.291929
6.31349
0.719853
0.43945
1.05221
2.89911
6.02804
0.872384
2.38258
1.66296
0.716028
0.59518
0.578066
0.940659
3.1156
-0.562814
1.30385
1.63396
-0.340869
-0.184879
-0.523019
0.244376
1.94067
-0.253199
8.00423
6.2201
3.22584
-0.381807
3.06048
0.956351
0.498959
5.3792
3.06498
-0.439336
1.18777
1.25416
0.471159
0.427113
0.527828
0.222143
0.182421
0.776019
0.794626
4.52092
4.70128
0.460023
0.344056
1.95794
-0.040876
0.581073
5.82997
2.71696
1.89493
4.35736
0.354293
0.165342
0.395306
3.56763
5.42004
-0.125731
0.576799
1.98159
1.16961
3.83615
0.785019
0.000646252
2.72952
0.717403
0.743424
0.172998
0.756384
0.0628345
-0.281605
0.47963
0.678987
0.55157
0.428814
0.856309
-1.80115
0.437473
0.214083
4.08722
0.874486
3.87879
-0.00525032
0.00127137
3.55666
0.0452186
0.665189
0.756512
0.795486
1.13491
0.52432
0.205908
0.966044
-0.868199
1.4905
4.54685
-0.807356
-1.12433
-0.468032
1.42435
1.06593
4.30761
0.742827
1.81676
1.12461
-0.12955
-0.155933
0.119503
1.09114
0.061988
-0.0168988
0.200606
-0.652157
0.258652
4.66891
-0.0254623
3.69205
2.07179
2.6844
0.671182
2.91384
1.2752
1.98107
1.79078
1.84766
3.30463
-0.423848
-0.504656
0.803227
3.47592
0.271368
0.96036
2.16382
4.63017
-2.16003
3.51546
3.27408
2.95787
3.6093
3.90187
-0.275786
-0.633771
-0.380559
-0.346752
0.955661
-0.771072
2.09923
1.40853
2.18006
1.07164
1.46009
2.50982
0.0571359
-0.0660172
-0.667831
0.0847953
0.874391
2.65228
1.1746
0.140572
1.00921
0.877126
3.23377
1.02398
0.244744
-0.582437
0.355395
-0.800836
0.798251
0.483066
0.15746
0.35194
0.741536
1.56244
0.452835
1.32094
-0.285714
5.20276
0.853658
-0.978532
0.855028
0.835674
3.86852
0.970139
4.01505
0.872816
0.615535
1.03205
1.22181
1.18541
1.18305
1.21238
0.756554
0.74566
1.12846
2.87548
0.518032
4.3619
0.707384
2.09105
1.57946
0.641653
6.72784
4.86329
3.66786
4.36477
4.5702
0.291405
3.1954
1.50881
0.538661
0.840469
0.748921
1.2419
1.34725
2.66195
0.278321
-0.148677
1.44291
-0.112878
0.30966
0.559986
0.487843
5.03073
-0.623619
0.633457
-0.764123
-0.477953
1.40483
-0.873954
0.462938
-1.20486
3.46268
3.49689
0.326524
0.785228
2.37403
3.5391
3.58658
1.56783
0.270719
0.27935
0.0718502
-0.452949
0.305325
2.67296
-0.0692843
-0.625179
1.26426
-0.391803
-0.294079
2.63151
-1.04625
5.15143
-0.617764
2.07647
-0.666936
4.94484
-0.3296
1.47881
0.0918241
-0.328332
0.775498
0.00992349
0.271608
-0.360891
8.31494
7.9739
1.57052
3.00027
7.00387
-0.181545
-0.0024089
3.64999
-0.37894
-0.146359
-0.0590421
-0.179083
1.44213
4.38961
0.410895
0.593457
3.05607
-0.759497
5.6353
1.47425
1.10537
0.664629
0.635048
3.13867
0.766539
0.88311
7.21482
-0.352094
9.60965
-0.540933
-0.209195
-0.643234
-0.501385
-0.158544
10.1109
7.00489
2.34799
3.36211
1.35887
1.52494
1.09669
1.11099
0.561422
1.30654
0.832082
3.42014
1.18797
1.10951
1.20179
0.681007
0.470008
1.09414
0.389656
0.276463
0.249206
0.290748
0.266147
0.525913
0.649338
0.225453
0.76017
1.06314
0.283473
0.772767
0.447275
6.88236
0.838444
0.504647
0.243226
0.117688
0.775433
-0.92464
5.18633
5.17768
5.3157
2.54328
1.09693
0.624134
0.460691
0.691199
0.228545
0.510061
0.227766
0.752548
-0.0792933
-0.511465
4.79367
0.902871
6.82479
0.612408
-0.490364
3.52947
8.24202
5.33406
-1.48108
-0.980585
4.71092
-0.514448
4.58802
1.07064
1.08628
1.13566
-0.600417
-0.372305
-0.34005
-0.803366
1.80561
0.917543
0.759749
0.12972
0.293397
0.180399
0.102486
1.39615
0.263116
0.380512
-0.0195104
2.0694
3.41259
4.19347
1.87518
1.669
5.74255
1.36535
0.715118
2.97614
0.54865
0.718299
0.328148
0.521302
-0.453455
0.207534
0.224189
1.60431
5.24102
2.21582
2.26607
0.99322
0.216975
0.761097
5.92803
4.30721
4.02873
0.113039
0.829736
1.04909
8.8895
10.2927
1.03854
3.04609
0.313708
0.684562
0.639336
2.38826
7.07853
0.713683
0.0969075
0.243148
0.340384
0.908866
0.382201
0.0661167
0.409922
0.742136
0.732165
0.779357
0.929733
0.846736
0.908706
0.310709
0.86655
0.753592
-0.339527
-0.474426
0.517853
0.130678
-0.405844
0.317268
2.18379
0.35065
0.700668
0.539206
0.65236
0.458064
0.784751
0.758998
1.14555
0.636695
1.12036
-0.104584
0.575775
0.102043
0.244194
0.652124
0.587459
0.585279
0.421091
0.019336
0.427033
8.30233
3.49943
-0.390316
5.14423
0.789615
1.08079
0.721519
1.13835
0.304306
0.641052
2.50121
-0.186067
0.132559
0.286268
0.87221
0.796774
0.473039
0.614625
8.054
-0.438238
1.39074
6.48808
-0.189116
1.14808
6.87479
-0.0802415
-0.0838634
-0.211638
-0.195051
-0.376733
-0.0895633
-0.797681
-0.382256
-0.677339
2.82972
0.059535
-0.226929
1.41885
-0.327828
6.22851
1.96766
2.62681
-1.08423
1.03496
0.735182
0.0638992
0.506249
0.408494
-0.551258
1.32434
3.70786
0.702522
-0.619504
-0.251352
2.80647
-0.600815
1.67574
0.616347
0.82365
0.835046
0.671712
0.804626
7.03153
1.11191
-0.494438
-0.248536
0.709148
0.643032
0.733928
0.816249
0.827325
0.0792759
0.383509
0.118178
0.793323
0.965347
0.21738
0.819243
0.904023
0.86918
0.249352
0.835798
0.204871
0.168364
0.214522
3.58749
0.662809
0.938975
0.769693
0.655394
0.164223
0.845031
0.391285
0.401316
-0.436783
1.16856
1.19482
4.28021
-0.582785
2.65095
5.24831
6.57405
1.26388
0.594497
3.68611
4.17584
1.62923
2.32902
1.87868
2.3345
4.73188
SCALARS CoVolArea double 1
LOOKUP_TABLE default
0.0363986
0.0246124
0.0341775
0.0193106
0.0168619
0.0182223
0.0534799
0.0476467
0.011976
0.032947
0.012607
0.0419096
0.0798265
0.0674513
0.0806557
0.0868609
0.110593
0.0604284
0.0588188
0.0262741
0.0983311
0.0610314
0.0727008
0.0648563
0.0722565
0.0325095
0.0333087
0.0490519
0.0774241
0.0665113
0.0977199
0.0327404
0.048353
0.0750879
0.0858964
0.0713243
0.0737393
0.0335591
0.0276299
0.106815
0.0431056
0.0440989
0.083199
0.0919676
0.0990419
0.0868337
0.0832496
0.0768311
0.0535517
0.0721307
0.0540148
0.111055
0.0865173
0.0564456
0.0862333
0.089417
0.104412
0.0922236
0.10369
0.0677534
0.0534573
0.115335
0.0776605
0.103419
0.093852
0.106266
0.084675
0.0339497
0.0435394
0.0508806
0.113716
0.0298324
0.0877274
0.0472958
0.0615976
0.0563562
0.0855678
0.0916341
0.0738511
0.0520808
0.0695519
0.0506593
0.0854792
0.0882546
0.0607506
0.0566295
0.102577
0.0786196
0.0613607
0.0353258
0.0473803
0.0718915
0.0865279
0.0512722
0.0567622
0.0587471
0.0287788
0.0313157
0.0264103
0.0348376
0.0718969
0.0299313
0.10581
0.0690091
0.15691
0.0382106
0.0631615
0.0936114
0.084265
0.0279795
0.0458393
0.03678
0.0360518
0.066438
0.0985205
0.0951731
0.0647294
0.0830084
0.0548756
0.0627089
0.0462839
0.108426
0.0750152
0.0653338
0.0690558
0.0757201
0.079553
0.108511
0.041146
0.0333348
0.0363001
0.0513101
0.0443152
0.0490346
0.0477666
0.0294399
0.026505
0.100822
0.0387147
0.0592967
0.0604337
0.0490813
0.034875
0.0376729
0.0629338
0.0728714
0.0537322
0.0393309
0.0912199
0.0624928
0.0693526
0.064326
0.0740789
0.0416505
0.0280285
0.047461
0.0517086
0.117076
0.0678814
0.0461882
0.0543479
0.0976156
0.0650962
0.0950837
0.078433
0.0903267
0.0935932
0.082662
0.0883866
0.0940534
0.0843481
0.0718689
0.0822497
0.0650624
0.0716145
0.0795461
0.0761555
0.075421
0.0840889
0.0879582
0.0356066
0.0496082
0.0367159
0.0750216
0.0617387
0.0686111
0.0616209
0.0600553
0.0663586
0.0904543
0.0787942
0.085483
0.0952978
0.0697691
0.0939096
0.10116
0.0923756
0.10248
0.113661
0.0360451
0.051957
0.0897302
0.0712358
0.0745997
0.0687538
0.0848579
0.0544695
0.0894027
0.059011
0.113278
0.103754
0.104608
0.0937789
0.0995647
0.0961991
0.0989583
0.0992244
0.112235
0.0717
0.0572113
0.0966178
0.0811177
0.0536829
0.0651729
0.0723384
0.0398735
0.0606409
0.0874042
0.0615758
0.0503994
0.0927455
0.109019
0.0732586
0.118158
0.0966083
0.0817081
0.105596
0.0653564
0.0693015
0.112751
0.090409
0.101261
0.104132
0.0991456
0.0701342
0.057695
0.0602603
0.0659213
0.100506
0.0881289
0.117074
0.041946
0.0446302
0.0334267
0.0331154
0.0275717
0.045468
0.0512927
0.0250621
0.0356606
0.0203176
0.112992
0.0683984
0.0758165
0.028066
0.045383
0.0533987
0.0845046
0.0897102
0.14241
0.0782098
0.108361
0.100395
0.0786504
0.0714296
0.0302116
0.0410026
0.0481024
0.0476155
0.0528597
0.0604476
0.0876542
0.0706369
0.0707984
0.0656129
0.0631956
0.0744086
0.0613798
0.0537107
0.0836302
0.0563208
0.0664568
0.0757928
0.0505342
0.0881139
0.0917079
0.0746282
0.0809079
0.0802743
0.0358351
0.0495077
0.0674771
0.0587288
0.0616549
0.063149
0.0759964
0.0436646
0.0673061
0.0624814
0.0767982
0.0704397
0.0550467
0.0843601
0.0827158
0.0791474
0.0841906
0.0810082
0.0898722
0.0532303
0.0383109
0.0686942
0.0627104
0.0490729
0.059446
0.0442498
0.0821599
0.0969907
0.0697617
0.0945378
0.0902872
0.091289
0.0771011
0.0466643
0.0650547
0.0361378
0.0306616
0.045948
0.0336834
0.0551599
0.0460765
0.0485494
0.0649391
0.0517182
0.0425498
0.0982998
0.0812977
0.0817493
0.0956089
0.0629976
0.0819833
0.0547417
0.0319766
0.0505913
0.0389268
0.0535891
0.0427357
0.0608142
0.0701842
0.0650429
0.047355
0.0486957
0.036192
0.0312063
0.0418009
0.0291757
0.0278539
0.0322231
0.06281
0.0388578
0.0432354
0.025708
0.0233655
0.0221915
0.0247792
0.0458135
0.0300211
0.0427699
0.0635821
0.0453665
0.0518599
0.0444277
0.0698456
0.0289541
0.0228228
0.0971426
0.156897
0.143369
0.0716137
0.114175
0.0875612
0.097221
0.114833
0.0687763
0.0256167
0.0402859
0.0395791
0.0695446
0.0800622
0.0430563
0.0499209
0.0433596
0.0436455
0.0374649
0.0498777
0.0708187
0.121889
0.111675
0.116575
0.0650973
0.0457954
0.0211683
0.0303433
0.0218835
0.032234
0.0319078
0.0279641
0.0558641
0.0410745
0.0811148
0.0503549
0.0814454
0.0406405
0.0347793
0.063609
0.0593799
0.0554563
0.0514782
0.039553
0.106259
0.0789027
0.0808484
0.0713573
0.0830369
0.0662932
0.073312
0.0764062
0.0881187
0.0631059
0.0677474
0.0581736
0.0399304
0.05107
0.0328745
0.0660066
0.0575865
0.0582565
0.0577242
0.0590247
0.0661795
0.06458
0.0665795
0.0692956
0.0876145
0.0464667
0.112199
0.114226
0.0733397
0.0989016
0.0881191
0.0429521
0.0622857
0.0658279
0.0710438
0.0657236
0.0627181
0.0720017
0.0585277
0.0958212
0.0725158
0.0776506
0.088754
0.0727764
0.107998
0.108764
0.0775718
0.0869454
0.073596
0.0839717
0.0531396
0.0335107
0.0583559
0.0488599
0.0268622
0.0316171
0.0341283
0.0397932
0.0498686
0.0402683
0.0398386
0.0334852
0.0567699
0.0644026
0.0519528
0.053971
0.0539009
0.0367519
0.0458839
0.0317313
0.0362634
0.0487365
0.0430342
0.0543845
0.0508151
0.0451958
0.0264689
0.0243087
0.0258952
0.0254385
0.0315398
0.0291867
0.0353352
0.0911801
0.0551059
0.0686669
0.0552231
0.10636
0.0359701
0.0284917
0.0324139
0.0515655
0.0276239
0.0492904
0.0619179
0.0591824
0.0767309
0.0669865
0.0777513
0.0325083
0.0507897
0.0411173
0.026836
0.0389412
0.0277342
0.0297386
0.0382554
0.0246291
0.0452729
0.0553151
0.0495933
0.0410535
0.0624196
0.0572626
0.0763219
0.0498083
0.0565816
0.0803953
0.0474248
0.0709644
0.0636913
0.0554186
0.0682356
0.0531869
0.0453341
0.057522
0.0423707
0.03895
0.0313905
0.0964129
0.0859646
0.0983296
0.101245
0.0822168
0.0517021
0.0431045
0.0567868
0.0605207
0.0722835
0.0635302
0.0758304
0.0488377
0.0858461
0.0833594
0.091908
0.064114
0.0552811
0.0489554
0.0739497
0.0590513
0.0584504
0.0628558
0.094686
0.0599739
0.074295
0.0908374
0.0853725
0.0686449
0.0741744
0.0661924
0.0611649
0.0323001
0.040261
0.0612287
0.0628174
0.0341455
0.0282033
0.0246757
0.0300484
0.0304833
0.0420878
0.0582909
0.0487489
0.0476273
0.0364383
0.0335238
0.0351989
0.0470208
0.0319727
0.0897643
0.0491904
0.0325649
0.0360543
0.153043
0.0910876
0.12771
0.140728
0.132414
0.0864538
0.0467033
0.063169
0.0800576
0.0811405
0.0913668
0.0824791
0.0586304
0.0442071
0.0406956
0.040703
0.0428601
0.0548983
0.0345544
0.0669199
0.0470981
0.04287
0.0430574
0.0744709
0.0817946
0.0912783
0.0942122
0.0904082
0.0543333
0.0766245
0.0733853
SCALARS SignedDistance double 1
LOOKUP_TABLE default
1.23401
1.18218
0.0160453
-0.882674
1.11234
0.00213972
1.60407
0.0667114
1.1531
1.27167
1.33075
1.12989
0.00358819
0.0754783
-0.027951
-0.0302601
0.0310254
1.45316
1.42963
1.30837
0.00418498
1.45336
0.057456
0.719073
1.26864
0.971863
0.560495
0.115026
1.36974
1.71318
-0.0452323
1.38671
0.0200229
1.30757
0.0212443
0.726433
1.51739
1.19492
1.29859
1.51106
0.21034
1.1812
0.555535
0.0211203
0.146576
1.22262
0.459337
1.21654
-0.021669
0.0166616
0.0612022
0.0151863
1.1454
-0.0203654
0.00175365
1.22705
-0.00614957
1.07611
-0.049683
1.31863
1.27317
-0.0116318
1.43403
0.829717
1.16173
-0.64191
0.00338385
1.55841
1.22287
0.058767
0.0607198
1.08276
0.13563
1.37351
0.121084
0.694868
1.371
0.0353305
0.0980449
0.0363521
0.0108432
0.213747
0.339757
1.23544
0.746508
0.103615
0.0436621
1.14537
0.0729012
0.000758418
0.349298
0.114823
0.00731083
1.5119
1.10405
0.0990436
0.0320935
0.189437
1.46403
1.5492
0.74486
1.60467
1.49277
1.66355
1.59115
1.35623
1.25573
-0.0437084
-0.87867
1.19765
0.636049
0.137051
0.188599
-0.0129671
0.00425935
0.0361044
0.158951
0.00156225
1.28526
0.146953
0.795016
0.10467
-0.0062094
1.55799
1.41186
0.326474
1.22792
0.0103654
1.32407
0.979135
0.0517567
1.31951
1.51699
1.67176
1.48815
1.14034
1.08121
1.44634
1.2803
1.53364
1.23258
1.46377
0.498393
1.14932
1.11218
0.0406258
1.36899
0.181022
0.661504
0.441828
0.000978888
1.2339
0.145145
1.28997
0.417149
1.2499
1.52753
1.53604
1.32291
0.191375
-0.00188849
-0.0139263
0.918258
1.1285
0.863997
0.0180584
0.0596469
0.0567894
0.00531602
0.0245604
0.0235471
1.11872
1.26753
1.2969
0.0824413
0.45361
0.734571
0.245117
1.14138
0.114735
0.0211881
0.00138387
-0.00254756
0.0307757
0.0231979
-0.0115844
0.00338065
0.0109457
0.0209177
-0.00362185
-0.0189041
-0.0409733
0.245127
1.257
-0.00716826
0.0113874
0.0206351
-0.0175669
-0.00503307
0.021615
0.00329971
-0.0126452
0.0323802
-0.124915
0.0337583
-0.0126176
1.35386
1.16624
1.28428
0.0553841
0.147424
0.613913
-0.0053611
0.0113972
-0.0394052
0.0126106
0.0121972
0.00315821
1.22594
1.28175
0.0996732
0.700352
1.36822
0.53674
1.08611
1.21065
1.33724
0.840986
0.831226
1.36523
0.672895
0.119392
1.24441
1.05966
-0.0140627
1.20232
1.15431
1.5118
1.37081
0.106847
1.14144
0.064355
0.446426
0.2272
0.189391
1.09655
1.11465
0.649328
-0.00515966
0.28231
0.0173691
1.3513
1.56581
1.20921
1.40018
1.4136
1.42809
1.28178
1.20083
0.379996
1.246
0.00355486
0.228648
-0.0147285
1.24713
0.349174
0.649314
0.953366
0.345964
-0.00779439
-0.145754
0.0189594
0.0895353
-0.0149988
0.0154936
1.33366
1.17053
1.1963
1.13473
1.41923
0.212673
-0.0620174
1.3802
1.18946
0.091061
1.08528
1.52419
1.30254
1.2466
-0.308226
0.837391
0.0151491
1.1935
0.496194
0.0743196
0.521127
0.0438658
0.956465
0.0408149
-0.00186446
-0.00296915
0.0140191
0.000933014
-0.00485424
0.0159008
-0.0441682
1.32201
1.20143
1.28743
0.187871
0.173308
-0.0348766
0.582475
1.03475
0.101356
0.100095
0.128646
0.0361493
0.114142
-0.00579255
0.857035
0.0260414
1.07331
0.0261506
1.17741
0.115339
0.513683
1.20827
0.272739
0.975447
0.580279
0.708041
0.114643
0.0967198
0.802026
0.160045
0.132719
0.148268
1.03322
0.0858222
0.85384
0.998324
0.936628
1.05255
0.0572342
-0.00811613
1.23383
0.513206
0.0927942
0.109885
0.00457872
1.49996
1.61415
0.353019
1.26952
0.32898
1.60543
1.41397
-0.998047
0.123673
0.0375247
0.108134
0.673536
0.200633
0.873541
0.894713
0.0184235
0.0683868
0.0504276
-0.0116936
1.34397
1.41126
1.35921
1.32224
1.6685
1.47419
1.60118
0.147226
1.43225
1.51635
1.47402
1.2195
1.56719
1.44979
1.51895
1.61574
1.51213
1.66616
1.66486
1.58205
1.55366
1.61285
1.58558
1.5128
1.66407
1.61142
1.23929
-0.0259111
1.38269
1.47174
1.4987
1.48634
1.35813
0.67038
0.0878129
-0.000831738
-0.174942
0.137997
0.748272
1.1817
1.05352
0.507683
0.679836
1.23617
1.0529
1.27729
0.0640758
0.611905
-0.00210343
1.14246
0.286472
1.1602
0.54747
-0.0851368
-0.0545853
0.0100369
0.20092
0.132693
0.0332921
0.00890371
-0.146943
0.295087
0.0335738
0.26209
1.19547
1.09482
1.13274
0.143916
0.0216059
0.160021
1.33821
1.4062
1.09983
0.0378004
0.554036
0.161193
1.2484
1.33278
1.22668
-0.00314843
0.103995
0.0151167
0.00312604
-1
-0.20064
0.00612339
1.07118
-0.0186739
1.2807
1.30301
1.48418
1.36652
1.53091
1.32731
1.27656
0.371817
-0.0159867
-0.0131105
0.0156076
1.47753
1.12424
1.27792
-0.271194
-0.0546994
0.421249
1.18389
1.47172
1.41981
0.154176
0.120925
1.37035
0.319811
1.22085
0.626709
1.30097
-0.711596
0.0586793
1.23337
1.16421
1.12232
1.1694
1.48193
1.62572
1.68463
1.59782
1.42496
1.58572
1.40743
1.34893
1.54387
1.37379
1.60017
1.49398
1.4834
1.1447
1.1092
1.22172
1.181
0.399507
0.658767
0.19053
1.54936
1.46108
1.31966
1.33725
1.45556
1.37816
1.29674
1.29405
1.53158
1.27294
1.13595
1.27091
1.15069
1.57657
1.49056
1.35872
1.18844
1.21695
1.13173
0.430792
-0.00514902
0.0498297
0.136529
-0.013226
0.925114
1.3304
1.48789
1.38903
1.17513
1.33325
0.160314
0.952556
1.37157
0.026297
0.038989
1.25876
1.28023
1.43533
0.0109107
0.879691
0.0206384
0.08995
1.17183
0.229009
0.122128
0.541634
0.918894
0.592317
1.15233
0.939828
1.17775
0.083176
1.1596
0.689512
0.0110804
0.248681
1.16145
0.246297
1.15317
-0.140428
-0.016237
-0.00294894
0.350639
0.0007762
1.32593
1.37578
1.40923
1.39565
1.15198
0.0344139
-0.0187513
0.0564928
0.882274
1.23011
0.0741768
1.13092
0.0422583
1.45298
1.23365
1.36323
1.36606
1.40165
7.91544e-06
0.325074
1.1446
1.13173
0.58009
1.68299
1.48007
1.63225
1.34215
1.07714
1.16886
1.16485
1.25284
1.28945
1.53659
1.46533
1.34619
1.43765
1.50376
1.45933
1.57996
1.56097
1.54738
0.043717
1.53377
1.26655
0.461273
1.25037
1.54348
1.44295
1.54393
1.17958
0.729878
0.357444
0.075351
0.0039258
0.535197
0.107253
-0.0419857
0.0168924
0.236418
0.0747623
-0.0672248
-0.0124214
-0.0551623
-0.0242456
0.0483402
0.0232988
0.0673853
