# vtk DataFile Version 4.2
vtk output
ASCII
DATASET POLYDATA
POINTS 642 double
-1.0685 2.29779 -0.406793
1.2187 2.38223 -0.382573
-1.44865 -1.65993 -0.00127831
1.13062 -1.47177 0.064167
-0.0457268 -0.363792 1.39466
-0.00411047 1.76264 1.3384
-0.131453 -0.38028 -0.445664
-0.246326 1.86348 -1.41961
1.32392 1.37496 -0.670085
1.05844 0.76291 0.425873
-1.35708 1.25411 -0.892085
-1.12959 0.563678 0.509538
-1.39929 1.69718 0.137333
-0.619472 1.27987 1.09036
-0.551508 2.41913 0.924832
0.581739 2.42123 0.904936
-0.00118062 2.79796 -0.190258
0.933475 2.32212 -0.868024
-0.90981 2.27409 -1.01814
-1.26111 1.7429 -1.28679
-1.91404 1.99034 -0.944421
-1.38369 0.925427 -0.292682
0.598854 1.32341 1.05661
1.48246 1.77242 0.105767
-0.498709 -0.161139 1.1224
-0.0493546 0.289631 1.2776
-1.13436 -0.643886 -0.112124
-1.28938 -0.819235 0.343884
-0.265671 1.24196 -1.22578
-0.945026 0.624788 -0.743482
2.03841 2.02363 -0.870346
1.09996 1.77423 -0.977297
1.14578 -0.686865 0.415353
0.467814 -0.186214 1.06263
0.640998 -1.31938 0.956962
-0.714294 -1.27823 0.777983
0.00208725 -1.3557 0.18103
-0.705575 -0.957677 -0.173722
0.484646 -0.992535 -0.134156
0.69407 0.427495 -0.570771
0.962304 -0.527469 -0.0837161
1.35598 1.16035 -0.202731
-1.3377 2.08849 -0.138215
-0.929343 2.03508 0.568496
-0.757648 2.39547 0.245734
-0.860913 0.925059 0.759544
-0.929048 1.5325 0.711335
-1.20895 1.17606 0.301329
-0.209283 2.09203 1.22165
-0.656048 1.89167 1.1207
-0.28839 1.57542 1.23362
-0.329967 2.81128 0.467115
-0.564684 2.56582 -0.2831
0.213878 2.09629 1.21898
0.00416933 2.56137 1.04171
0.675099 2.52503 -0.289017
0.321442 2.68924 0.430833
0.833799 2.31869 0.135483
-0.459245 2.94725 -0.725003
-1.01152 2.35331 -0.776495
1.15757 2.42573 -0.670096
0.461539 2.94424 -0.716047
-0.668476 2.07813 -1.19954
-0.0648231 2.49339 -0.926262
0.463792 2.12207 -1.10061
-1.6197 2.59253 -1.24907
-1.58191 2.30527 -0.650933
-0.908583 1.78952 -1.26784
-1.32449 2.05163 -1.35013
-1.6248 1.55249 -1.02897
-1.89293 1.82784 -1.65557
-1.37851 1.55078 -1.15066
-1.82465 1.89655 -0.315101
-1.41253 1.10817 -0.634414
-1.69349 1.49715 -0.587671
-1.50287 1.36657 -0.169074
-1.287 0.706978 0.120961
0.999243 2.03798 0.459995
1.46346 2.25295 -0.071026
0.2757 1.59479 1.2452
0.622217 1.89525 1.04557
1.26854 1.29848 0.256208
0.981183 1.57258 0.601
0.867608 1.00762 0.675833
-0.244566 0.772826 1.15292
-0.0175429 1.19866 1.21134
-0.919955 0.125328 0.862505
-0.487231 0.447125 1.07503
-0.00641082 -0.0804925 1.80226
-0.22856 0.0743962 1.43535
-0.214629 -0.288415 1.42892
-1.29454 -0.274852 0.112524
-1.2755 -0.202439 0.488387
-1.16824 0.41542 -0.477105
-1.22859 -0.0707105 -0.16269
-1.47345 -1.29213 0.238072
-1.27287 -0.84885 0.0620997
-1.27615 -1.30325 0.0168856
-1.10921 1.3788 -1.13207
-1.17498 1.05175 -0.868406
-0.282376 1.58166 -1.35146
-0.888762 1.51974 -1.23048
-0.611669 -0.0233044 -0.559807
-0.75976 1.11032 -1.06658
-0.19273 0.660542 -0.886455
1.16301 2.10164 -0.977774
0.604967 1.82321 -1.15313
1.73094 2.55293 -0.508051
1.64146 2.5499 -1.15795
1.29377 1.61053 -0.859598
1.55625 2.01427 -1.01211
1.5969 1.66927 -0.790087
1.01968 -1.13416 0.285461
1.0232 -1.0691 0.704299
1.13 -1.62419 0.555814
0.860207 0.174402 0.813969
0.946399 -0.523069 0.800178
1.14563 -0.0136064 0.513839
0.217285 -0.835806 1.01069
0.622741 -0.782122 0.971277
0.137457 -0.301608 1.30893
0.391441 -1.6171 0.599508
0.749276 -1.65892 0.0476023
-0.242702 -0.777652 0.995604
0.0283726 -1.19689 0.813395
-0.873142 -1.50775 0.104643
-0.466268 -1.42313 0.535167
-1.21912 -1.65949 0.535744
0.393201 -1.24092 -0.0311028
0.799825 -1.33941 -0.0121666
-1.08868 -1.36339 -0.0690207
-0.484004 -1.17722 -0.0448771
0.206859 -0.71626 -0.297552
-0.0611557 -0.971834 -0.181919
-0.430169 -0.690234 -0.328635
0.72509 -0.872519 -0.0884366
0.898832 -1.08433 0.0882777
0.315649 -0.139894 -0.488689
0.534379 -0.583335 -0.272498
1.06106 0.649422 -0.371388
0.805413 -0.160664 -0.278445
1.06641 1.09639 -0.664952
1.07382 -0.682994 0.124696
1.40012 1.29335 -0.482986
1.08467 0.277245 -0.100385
1.15214 0.0295201 0.160781
1.23974 0.96433 0.104318
0.12798 0.0888471 1.36547
0.450937 0.505516 1.02597
0.187153 0.83682 1.13646
-1.22633 -1.13183 0.691928
-0.647905 -0.767992 0.880595
-1.04286 -0.596656 0.714534
-0.77979 -0.535649 -0.322728
-0.985359 -0.893496 -0.113413
-1.00071 -0.174325 -0.357265
0.93903 1.36864 -0.910308
0.346561 0.983114 -0.970186
0.52412 1.47969 -1.15555
1.5833 1.50919 -0.0892185
1.77293 1.58179 -0.486263
2.00291 2.0074 -0.225714
-1.19529 2.21759 -0.306611
-1.01981 2.18329 0.0311054
-0.919392 2.30982 -0.169803
-1.1866 1.85567 0.335995
-1.14194 2.05383 0.211083
-1.46162 1.95731 0.0648843
-0.673974 2.45183 0.608713
-0.885233 2.25747 0.443913
-0.761653 2.25141 0.777834
-1.0236 0.707743 0.605657
-1.03102 1.05851 0.554073
-1.14104 0.836356 0.422431
-0.783419 1.42547 0.944652
-0.892198 1.25369 0.742301
-0.723737 1.11701 0.920984
-1.29479 1.44385 0.203796
-1.07633 1.35302 0.480658
-1.14262 1.60866 0.415347
-0.0825833 1.90516 1.33941
-0.259209 1.84783 1.26713
-0.121177 1.69995 1.33815
-0.616504 2.17478 1.05398
-0.438044 2.026 1.21193
-0.372879 2.27629 1.12498
-0.476813 1.43185 1.2111
-0.464823 1.73728 1.21142
-0.653542 1.591 1.12172
-0.986038 1.80119 0.681829
-0.832758 1.71711 0.953952
-0.850432 2.01445 0.918094
-0.653894 2.49364 0.000689993
-0.840501 2.39747 -0.359796
-0.438912 2.60545 0.718655
-0.610946 2.66233 0.389434
-0.322292 2.69032 -0.230949
-0.446686 2.68778 0.0821248
-0.164991 2.8162 0.12634
0.0774958 1.90725 1.33943
-0.00106911 2.11045 1.21614
0.31489 2.55622 1.02969
0.137355 2.35882 1.21225
0.405075 2.29659 1.1524
-0.133967 2.35462 1.21242
-0.301569 2.55217 1.03733
1.01828 2.41369 -0.363889
0.762522 2.42594 -0.0726273
1.08423 2.33955 -0.221872
0.159272 2.71868 0.129473
0.477727 2.61323 0.0660654
0.345346 2.64385 -0.218263
0.709976 2.42898 0.55788
0.599234 2.5467 0.334421
0.470408 2.60401 0.699473
-0.149654 2.68962 0.776943
0.165457 2.68952 0.771928
0.0127274 2.81661 0.480427
-0.752841 2.48722 -0.561065
-1.05022 2.33631 -0.565898
-0.209379 2.70145 -0.490354
-0.487941 2.67369 -0.536047
-0.967767 2.32623 -0.917291
-0.650456 2.55443 -0.731484
-0.593757 2.52897 -0.846297
1.21232 2.42039 -0.5169
0.914038 2.49376 -0.516831
0.641301 2.53518 -0.766833
0.74675 2.55048 -0.664875
1.07016 2.38406 -0.78723
0.558989 2.65164 -0.510537
0.201394 2.70238 -0.474269
-0.437548 1.94266 -1.29953
-0.130881 2.12679 -1.17745
0.094611 1.9875 -1.32383
-0.507375 2.43769 -0.963133
-0.371089 2.29538 -1.0657
-0.818685 2.19032 -1.10967
0.730562 2.24311 -0.964633
0.219148 2.3136 -1.03467
0.473669 2.43146 -0.89712
-0.00793758 2.67522 -0.674312
0.171752 2.60182 -0.780145
-0.255993 2.73433 -0.915278
-1.33365 2.32223 -0.769345
-1.27717 2.27431 -0.514319
-1.32223 2.28072 -1.13406
-1.36471 2.3227 -1.01402
-1.88341 2.28211 -0.783705
-1.6216 2.38157 -0.939151
-1.91419 2.31216 -1.10624
-0.5802 1.8135 -1.30955
-0.833182 1.92199 -1.25462
-1.35444 1.93085 -1.36793
-1.11461 1.9165 -1.29254
-1.11876 1.77482 -1.28224
-1.02399 2.04612 -1.23656
-1.17063 2.16725 -1.2082
-1.44861 1.38684 -0.953119
-1.50422 1.5754 -1.1217
-1.37683 1.37996 -1.00536
-1.91328 1.95611 -1.26104
-1.69968 1.78159 -1.26732
-1.8606 1.70688 -1.06053
-1.34435 1.67596 -1.25262
-1.56611 1.78703 -1.32724
-1.49598 1.86463 -1.40936
-1.46352 2.24005 -1.35226
-1.51571 2.0641 -1.63782
-1.8146 2.27042 -1.49383
-1.49897 2.25251 -0.359784
-2.02401 1.98418 -0.613836
-1.83057 2.22825 -0.435331
-1.60591 2.02799 -0.233562
-1.63113 1.79562 -0.0904568
-1.38481 1.20441 -0.804682
-1.51732 1.36531 -0.82807
-1.51724 1.25571 -0.449739
-1.54369 1.3141 -0.634192
-1.40958 1.02086 -0.462468
-1.70535 1.52521 -0.831765
-1.91077 1.69747 -0.767852
-1.26866 0.974797 0.182223
-1.20054 0.602609 0.359592
-1.49873 1.53361 -0.0296173
-1.36558 1.27999 0.0495441
-1.34161 0.821507 -0.103196
-1.37766 1.08883 -0.0519026
-1.45892 1.1783 -0.257846
-1.90145 1.65016 -0.455866
-1.6148 1.46566 -0.391373
-1.66621 1.62316 -0.260478
1.16075 2.22401 -0.0485493
1.3181 2.33524 -0.281535
0.767804 2.2336 0.709343
0.911633 2.19262 0.30925
1.52095 2.01772 0.0441152
1.2367 2.0742 0.105122
1.30521 1.91061 0.276552
0.110853 1.70507 1.33818
0.258424 1.85609 1.26768
0.61426 1.62038 1.05616
0.459322 1.75596 1.20355
0.45751 1.4673 1.20446
0.452195 2.03288 1.20869
0.612498 2.16201 1.00181
1.13674 1.01896 0.345844
1.07844 1.16456 0.457515
1.00173 0.853264 0.51196
1.24539 1.66818 0.332282
1.16738 1.42817 0.390216
1.40407 1.53204 0.196474
0.716918 1.16886 0.859693
0.9229 1.31219 0.637822
0.772617 1.46402 0.869611
0.771734 1.98857 0.785529
0.774843 1.73346 0.833773
1.04179 1.82426 0.575183
-0.142244 1.4065 1.23859
-0.00737054 1.57247 1.33805
-0.420167 1.07844 1.11776
-0.298226 1.23722 1.21397
-0.037038 0.699447 1.17703
-0.144387 0.970396 1.21321
-0.12551 0.478072 1.19412
-1.08602 0.370953 0.677423
-0.875002 0.527193 0.805334
-0.468971 0.104462 1.13741
-0.675614 0.296238 0.988987
-0.69916 -0.0468872 0.982495
-0.682788 0.720919 0.929504
-0.536546 0.906227 1.02426
-0.0259856 -0.360303 1.63043
-0.252207 -0.27931 1.79329
-0.11756 -0.346147 1.44769
-0.134312 0.139679 1.39841
-0.176826 0.00675267 1.63503
-0.0538678 0.055661 1.4968
-0.335816 -0.234277 1.27553
-0.258687 -0.124085 1.52597
-0.319873 -0.0314657 1.31976
-0.353759 0.599157 1.12046
-0.315471 0.212508 1.22447
-0.213323 0.32169 1.22908
-1.28238 0.21731 0.329471
-1.24872 0.268819 0.547523
-1.2916 0.339245 -0.0717181
-1.28992 0.247156 0.112356
-1.34358 -0.548651 0.43378
-1.28831 -0.274591 0.284238
-1.3994 -0.608457 0.234407
-1.28022 1.03113 -0.758617
-1.27608 0.815825 -0.579867
-1.18168 -0.426381 -0.119191
-1.18892 0.123515 -0.297395
-1.11983 -0.239606 -0.234349
-1.27781 0.630931 -0.40643
-1.28453 0.477249 -0.241435
-1.67662 -1.61402 0.133389
-1.39339 -1.33945 0.0856175
-1.55222 -1.50357 -0.133178
-1.28583 -0.857573 0.182981
-1.27701 -1.10244 0.160662
-1.29686 -1.08705 0.287098
-1.14591 -0.977974 -0.00495464
-1.22555 -1.07665 0.0772702
-1.23623 -0.786763 -0.0477219
-1.29163 -0.212839 -0.0364716
-1.2642 -0.550975 -0.028008
-1.33358 -0.605793 0.0808551
[...]
POINT_DATA 642
SCALARS Mean_Curvature double 1
LOOKUP_TABLE default
-0.30619
-0.294722
6.4865
10.2935
0.679949
-0.0352479
0.201386
6.84333
0.819446
0.390577
1.42299
-0.150561
0.879047
2.05207
2.25013
2.78787
2.54588
1.01803
0.862314
1.16893
-0.0670877
0.974978
1.91245
-1.40712
0.0882892
-0.0350746
-0.0647713
-0.903255
0.996838
0.338215
4.63857
0.851167
2.66966
-0.0856946
1.51611
-0.182595
1.01858
1.02068
0.811465
0.506001
0.47342
0.787968
-0.878957
-0.754591
-0.625745
-0.0328057
-0.58658
0.313863
-0.0366651
2.12576
-1.11551
3.08948
-0.284938
-0.482913
1.68291
-0.375373
0.822164
-0.747783
6.36
0.528845
0.645933
6.53307
0.761004
-0.592443
0.284183
6.00049
0.360166
0.397607
1.30043
1.34328
6.01613
0.887124
2.63636
1.69554
-0.0695237
0.554594
0.745354
0.715088
2.9659
-0.493445
1.26732
0.916686
-0.270981
0.0806864
-0.223792
0.136613
1.34386
0.183724
7.99417
4.02533
2.3447
-0.0181005
2.80873
1.13991
0.990519
4.78687
2.22935
0.046973
1.17561
1.36302
0.362139
0.446673
0.524921
0.205148
0.15048
0.885781
0.883546
4.45527
5.89784
0.636569
0.196358
1.07262
-0.323256
0.444238
5.83495
1.84944
1.80287
4.14723
0.478859
-0.166663
0.329112
3.0168
4.68777
-0.0633796
0.681157
1.76646
0.982778
3.82908
1.22996
0.347577
1.64826
0.7801
0.757436
0.230752
0.804246
0.545962
0.010845
0.494985
0.848075
0.72716
0.695225
1.0731
-1.44283
0.687294
0.516009
2.31369
1.06651
2.4787
0.232902
0.265671
3.41696
0.253421
0.364558
0.923976
0.468787
1.54594
0.674443
0.280323
1.00936
-0.71727
1.37079
4.55032
-0.717423
-0.981781
-0.450024
1.28174
0.958056
4.26074
0.726186
1.70726
1.16978
0.098777
0.0976777
0.269561
0.838727
0.0265485
0.0938033
-0.0566884
-0.348518
0.0413466
4.66732
-0.0515745
3.6009
2.1316
2.72889
0.633068
2.7729
1.2301
1.94152
1.59183
1.69594
3.2326
-0.385898
-0.389542
0.777327
3.46714
0.0134391
0.803147
2.1303
4.62882
-2.09626
3.53794
3.39607
2.84728
3.71532
3.9042
-0.360992
-0.517012
-0.296521
-0.342657
0.870297
-0.639312
1.98262
1.22739
2.13599
1.07942
1.4887
2.49982
0.245329
0.0591506
-0.720214
0.365312
0.845462
1.89113
1.33379
0.117489
1.15677
0.699349
2.98885
1.08727
0.117838
-0.663462
0.434558
-0.598146
0.330335
0.724705
0.200111
0.436096
0.8659
0.682512
0.944485
0.798446
-0.177897
5.03544
0.111355
-0.763393
1.14888
0.449839
3.71286
1.24025
3.80152
1.02246
0.672692
1.31729
1.36914
1.28877
1.20538
1.40726
0.976908
0.242562
1.27922
2.78071
0.444266
4.07777
0.920791
1.30896
1.29509
0.816627
6.36043
4.44512
3.26809
4.32431
4.67802
0.0899865
3.04658
1.46836
0.686799
0.859345
0.872104
1.35129
1.19981
2.42518
0.347675
0.232327
0.910934
0.0821495
0.329435
0.654074
0.623537
4.92159
-0.315045
0.081916
-0.659868
-0.583772
1.49416
-0.677898
0.442728
-1.09508
3.18894
3.42983
0.291727
0.689586
2.34259
3.41185
3.68821
1.4795
0.492888
0.518007
0.266543
-0.240225
0.0375916
2.11429
-0.0280008
-0.310873
0.948377
-0.301936
-0.216447
2.37375
-0.785595
4.87745
-0.0409024
1.57646
-0.24044
3.22431
0.0851573
1.0731
0.222594
-0.0223514
0.405231
0.240017
0.181928
-0.107007
7.81948
8.15216
2.76055
2.25678
7.3536
-0.580216
0.219234
2.70139
-0.077279
0.144296
0.204006
0.151087
0.810939
3.9166
0.696174
0.355829
3.20974
-0.555179
5.46396
1.62358
1.2836
0.623784
1.0554
1.11714
0.943171
1.10817
7.03226
-0.822539
9.54509
-0.403279
-0.0817091
-0.599941
-0.199482
0.00949194
8.63714
4.50735
1.79113
2.93341
1.41212
1.55179
1.10675
1.17514
0.705616
1.33972
0.97217
2.48255
1.25335
1.12881
1.20365
0.757153
0.393468
1.03761
0.375261
0.24147
0.206935
0.243659
0.220692
0.529273
0.845351
0.235082
0.915891
0.967438
0.392094
0.908787
0.536216
6.63977
0.950193
0.470432
0.121023
0.0797825
0.828214
-0.825288
4.14016
4.45483
4.51813
2.75171
0.672098
0.878959
0.625302
0.370902
0.185454
0.660705
0.392725
0.818787
-0.362952
-0.410672
4.40964
0.831314
6.09084
0.671786
-0.782063
3.00957
7.97045
5.13802
-1.24152
-0.84014
4.75544
-0.509702
4.49289
0.724458
0.883895
0.408038
-0.353399
-0.182057
-0.029803
-0.50994
1.26197
1.29771
0.788854
0.159864
0.35554
0.03728
-0.10332
0.775874
0.454349
0.508492
0.21085
1.86885
3.14674
4.14127
1.35459
3.3124
5.77801
1.29291
0.900089
2.42171
0.571336
0.822023
0.411414
0.52808
-0.37316
0.290242
0.343777
1.59299
4.57675
1.90455
1.65775
0.935278
0.381903
0.765353
5.96086
3.61387
4.1664
0.208888
0.869418
1.0213
8.79589
8.71162
1.41761
1.85843
0.680434
1.08902
0.927941
5.26645
6.3893
0.819562
0.55251
0.609252
0.737334
0.879505
0.413119
0.0940728
0.411521
0.803235
0.721117
0.838345
1.01823
0.87394
0.929412
0.420722
0.852384
0.819631
-0.0389537
-0.504189
0.780721
0.458836
-0.0866789
0.308331
0.757349
0.365164
0.700068
0.640669
0.690656
0.48354
0.863171
0.906993
1.23219
0.942815
1.1564
0.334847
0.80006
0.552422
0.224225
0.759468
0.714264
0.833635
0.668282
0.521394
0.2112
7.19416
1.63707
-0.262574
4.68533
0.73684
1.15394
1.04385
1.16231
0.61147
0.908727
1.20946
0.243923
0.261136
0.251573
0.839648
1.00089
0.771414
0.750851
7.28246
-0.0994901
1.54793
5.93927
0.163579
0.564192
6.74157
0.364241
0.239727
-0.0941
0.134869
-0.0198516
0.114517
-0.422461
0.0529634
-0.106385
2.12225
0.100588
0.0745531
0.630375
0.0686875
5.94789
1.53176
2.4978
-0.544112
0.649514
0.82919
0.201285
0.56331
0.511943
-0.374047
1.08417
3.37068
0.490464
-0.360725
0.014643
2.16567
-0.288474
1.58993
0.625279
1.03448
0.923144
0.743166
1.03787
5.28359
0.417698
-0.155115
0.0233661
0.740336
0.810692
0.904716
0.936824
1.385
0.78589
0.84692
0.677202
1.08869
1.01569
0.205249
0.916511
0.92298
0.771189
0.203067
0.986098
0.216042
0.147128
0.199068
2.6908
0.716769
0.922068
0.446193
0.711395
0.2161
1.02142
0.618422
0.718586
-0.239715
0.686364
0.539864
3.98093
-0.416484
2.84854
4.54092
4.85651
0.930274
0.543273
3.56655
4.14851
1.48959
2.24188
1.64095
2.30244
4.87536
SCALARS CoVolArea double 1
LOOKUP_TABLE default
0.0370437
0.0251102
0.0397218
0.023243
0.0186123
0.0183668
0.0569563
0.0476209
0.0124217
0.0349777
0.0135285
0.0432636
0.0801786
0.0673089
0.0799261
0.0853403
0.112027
0.0631263
0.0618089
0.0287081
0.0982595
0.0659397
0.0726247
0.0652607
0.0736526
0.0325637
0.0321302
0.0488724
0.0812297
0.0717282
0.0960496
0.0340151
0.0481157
0.0761428
0.0845514
0.0729581
0.0807946
0.034425
0.0285256
0.111808
0.0426097
0.0455015
0.0841584
0.0925303
0.099291
0.0881865
0.0827607
0.0778607
0.0536474
0.0714562
0.0542055
0.109789
0.0869539
0.0563444
0.0849949
0.0905655
0.104168
0.0921729
0.102631
0.0699367
0.0573377
0.115745
0.0809679
0.106587
0.0965835
0.116155
0.0848889
0.0365444
0.0502792
0.051921
0.114806
0.0316585
0.0876075
0.0521022
0.062037
0.0571077
0.0893252
0.0925336
0.0747367
0.0522002
0.0693087
0.0517745
0.0855305
0.0893886
0.0613804
0.0556676
0.10347
0.0790134
0.0585581
0.0358572
0.0506136
0.0724542
0.0867852
0.0579458
0.0600261
0.0643703
0.0292057
0.0319368
0.0283332
0.0389839
0.0747264
0.0315018
0.111029
0.0717058
0.163615
0.0410729
0.0647414
0.0922189
0.108259
0.0291622
0.0482357
0.0372617
0.0367721
0.066587
0.097184
0.0952393
0.0652909
0.0829891
0.0560452
0.0626565
0.0494482
0.108725
0.0765582
0.0670412
0.0717165
0.0777706
0.0872947
0.107069
0.0443057
0.0345501
0.0373128
0.054398
0.0464996
0.0517108
0.0504284
0.0300155
0.0274126
0.105178
0.0405568
0.0646611
0.0634458
0.0527178
0.0345766
0.0385963
0.0666903
0.075052
0.0564174
0.0408179
0.0920358
0.0634527
0.0699865
0.0646091
0.0741428
0.0440324
0.0291322
0.0515593
0.0537474
0.120637
0.071369
0.0462085
0.0544378
0.0956798
0.0662064
0.0960179
0.0790952
0.0913847
0.0945386
0.083193
0.0880655
0.0945495
0.0840987
0.0738491
0.0831068
0.0671796
0.0713751
0.0793438
0.0767761
0.075563
0.0836723
0.088164
0.0358614
0.0499209
0.0369063
0.0743575
0.0615299
0.0679425
0.0612159
0.0598967
0.0660124
0.0907121
0.0783005
0.084868
0.0955745
0.0704068
0.0928761
0.100277
0.0933153
0.102114
0.113397
0.0363109
0.0520228
0.0880047
0.0703338
0.0732177
0.0680392
0.0836393
0.0552146
0.0899461
0.059276
0.113375
0.104338
0.105697
0.0929976
0.0994038
0.095005
0.098048
0.0983982
0.111662
0.0727052
0.0585803
0.097808
0.0812697
0.0577362
0.0676394
0.0743065
0.0418177
0.0635258
0.0895406
0.0671942
0.0553174
0.0946188
0.109859
0.0757434
0.12117
0.0973762
0.084621
0.107693
0.0678827
0.0715142
0.11462
0.09146
0.102367
0.105736
0.101458
0.0716474
0.0584599
0.0664433
0.0714179
0.100003
0.0927201
0.120203
0.0452653
0.0484573
0.0388648
0.0365139
0.0291983
0.0492541
0.0557354
0.0265431
0.0372483
0.0216869
0.112004
0.0690704
0.0762984
0.0305091
0.0475626
0.0581605
0.0929954
0.0977857
0.146488
0.0785255
0.106466
0.0995006
0.0789972
0.0719257
0.032937
0.043131
0.0497261
0.0499114
0.0579378
0.0611452
0.08695
0.0729011
0.0732377
0.0660879
0.0641831
0.0789795
0.0634247
0.0553062
0.0830391
0.0567804
0.0672415
0.0765853
0.0513402
0.0882335
0.0919876
0.075047
0.081941
0.0811489
0.0361025
0.0497403
0.0672862
0.0584662
0.0612958
0.0626454
0.0753075
0.045834
0.0685909
0.0650272
0.0769348
0.0706543
0.0553783
0.0844912
0.0826421
0.0790902
0.0848867
0.0814242
0.0906408
0.0534554
0.0382921
0.0689214
0.0625241
0.0486032
0.0584872
0.0440539
0.0831695
0.0988342
0.0706632
0.0952432
0.0910244
0.0925319
0.0779689
0.0451605
0.0626449
0.0382931
0.0303478
0.0452729
0.0332789
0.0573485
0.047007
0.0497576
0.0667038
0.0529161
0.043985
0.0997404
0.0816884
0.0867831
0.0985578
0.0628494
0.0818424
0.0539399
0.036319
0.0573072
0.0398199
0.0589005
0.0454308
0.0680132
0.0767323
0.0835276
0.053306
0.0541322
0.0365841
0.0325184
0.0427986
0.0285149
0.0280225
0.0304466
0.0649805
0.0392813
0.0436143
0.0276509
0.025969
0.0239909
0.0264636
0.0505864
0.0323905
0.0456811
0.0652941
0.0488402
0.0548878
0.0472304
0.0729875
0.030342
0.0240354
0.10246
0.16466
0.15104
0.0752063
0.119341
0.0926345
0.100978
0.119651
0.0719686
0.0273926
0.0424303
0.0416917
0.0715979
0.0794622
0.0465845
0.0522162
0.0446241
0.0452122
0.0386572
0.0502484
0.0710701
0.130398
0.119309
0.114133
0.0734258
0.0533071
0.0220229
0.0309162
0.0226242
0.0337317
0.0328963
0.029293
0.0564679
0.0420376
0.0814195
0.0608516
0.0942548
0.0447458
0.0370456
0.063708
0.0619213
0.0551605
0.0519706
0.0393487
0.103838
0.0786024
0.080188
0.0734383
0.083359
0.0682924
0.0735736
0.0765197
0.0880572
0.0631895
0.0682727
0.0585267
0.0419941
0.0533456
0.0356555
0.0659331
0.0579703
0.0586001
0.0594345
0.0598271
0.0666456
0.0647351
0.0667927
0.0692944
0.0885817
0.0506073
0.109429
0.112385
0.0769676
0.0994774
0.0940937
0.0453289
0.064158
0.0694836
0.0728866
0.0666305
0.0639791
0.0722188
0.0594223
0.0956721
0.0797709
0.0867814
0.0926209
0.0786246
0.10785
0.109096
0.0827016
0.0888815
0.0802537
0.0915529
0.0545195
0.0355614
0.0631594
0.0515684
0.0277607
0.0337322
0.0353394
0.0404043
0.0508165
0.0422355
0.0420026
0.0347938
0.0600831
0.0691782
0.0548218
0.0568941
0.0569775
0.0382768
0.0481142
0.0331214
0.0382598
0.0514453
0.0454355
0.0582582
0.0538995
0.0478698
0.0280122
0.0265733
0.0269645
0.0265436
0.0312761
0.0292589
0.0352414
0.095974
0.0577759
0.0719676
0.0578257
0.110861
0.0377457
0.0298398
0.0348618
0.0563074
0.0293246
0.0504315
0.0667413
0.0614947
0.0813481
0.0726181
0.0821877
0.0338197
0.0529174
0.0420162
0.0282731
0.0383371
0.0280869
0.0299362
0.0380247
0.0256818
0.0488891
0.0590864
0.053205
0.0419603
0.0668954
0.0579916
0.0788007
0.0525229
0.0568632
0.0810299
0.0495041
0.07452
0.0679088
0.0555184
0.0708693
0.0530973
0.0466351
0.0590193
0.0449285
0.0396716
0.0322367
0.0982981
0.0869833
0.0992935
0.101644
0.0830633
0.0515066
0.0443925
0.0565697
0.0604788
0.0729525
0.0648767
0.0776637
0.0505908
0.0917014
0.0832636
0.0913725
0.0641468
0.0558985
0.0522464
0.0750036
0.0609202
0.0591122
0.0628628
0.0950551
0.0602752
0.0746711
0.0911724
0.0858105
0.0690785
0.0744707
0.0666317
0.0642015
0.0337182
0.0423504
0.0646137
0.0673681
0.035414
0.0287379
0.0265353
0.0315278
0.0311961
0.0481941
0.0640195
0.05503
0.0526995
0.0379294
0.035091
0.0367434
0.050264
0.0336253
0.0930487
0.0515578
0.0342457
0.0378863
0.159472
0.094613
0.131925
0.145675
0.136944
0.0868486
0.0487409
0.0658267
0.0827075
0.0847941
0.0941599
0.0860627
0.0612601
0.0458477
0.0410286
0.0414981
0.043533
0.0550305
0.0347631
0.0672504
0.0470964
0.0423832
0.0431721
0.0748149
0.0805885
0.0900789
0.0935339
0.0899558
0.0543913
0.0764448
0.0724581
SCALARS SignedDistance double 1
LOOKUP_TABLE default
1.25339
1.20227
0.0104443
-0.20729
1.14166
0.0058906
1.68657
0.0855271
1.2123
1.30236
1.37121
1.15411
0.0392798
0.128031
-0.0248234
-0.0320231
0.0336424
1.47994
1.46156
1.35708
0.00557669
1.49995
0.0924901
0.741096
1.28943
1.16322
0.9603
0.239978
1.40038
1.80158
-0.0389518
1.42846
0.0283232
1.33142
0.0305683
0.925922
1.55312
1.25172
1.36754
1.58567
0.456993
1.23066
0.700556
0.0607785
0.21533
1.25495
0.674931
1.24457
-0.0147205
0.0191408
0.121893
0.0151353
1.15827
-0.0121506
0.00442628
1.2459
-0.000605993
1.13763
-0.0293126
1.34219
1.28903
-0.00302204
1.47427
1.08118
1.20016
-0.419252
0.0272008
1.59604
1.26711
0.221692
0.0249964
1.23356
0.12993
1.38895
0.373059
0.946228
1.40624
0.0821722
0.0766754
0.0644722
0.0182287
0.428057
0.518838
1.27354
1.12341
0.223844
0.115133
1.1884
0.0620716
0.0573708
0.487975
0.255329
0.0300117
1.57426
1.03159
0.0485786
0.0764826
0.301186
1.51009
1.60506
0.984639
1.63582
1.57649
1.74577
1.68005
1.40213
1.29239
-0.0503801
-0.915224
1.2361
1.10622
0.254549
0.371971
-0.00235956
-0.00126616
0.122129
0.178513
0.0169061
1.30054
0.320499
1.10625
0.103064
-0.00792543
1.58094
1.4193
0.419783
1.23799
0.011552
1.36101
1.12744
0.16664
1.38466
1.57621
1.72267
1.54826
1.18878
1.13444
1.52318
1.33981
1.59267
1.29042
1.51173
0.616204
1.18607
1.23222
0.122549
1.38424
0.293537
1.14044
0.979975
0.00336036
1.26832
0.291538
1.35371
1.07925
1.28097
1.57712
1.61589
1.35279
0.413073
0.0106219
-0.0178351
1.03718
1.1378
0.988754
0.0384506
0.101064
0.0542161
0.0107918
0.0319504
0.0249205
1.19508
1.29644
1.33572
0.155368
0.731683
0.861863
0.509386
1.1767
0.262913
0.0218594
0.0133463
0.00179777
0.0310153
0.024985
-0.00857865
0.0166097
0.0188272
0.0277208
0.0189137
-0.00700803
-0.0403695
0.327436
1.27946
-0.0056012
0.0111277
0.0620371
-0.00958461
-0.00271417
0.0220883
0.0446438
-0.0129239
0.0318291
-0.117608
0.0352735
-0.0123456
1.36526
1.18942
1.29946
0.0871469
0.193228
0.687708
0.00101649
0.0222846
-0.0381591
0.0133189
0.0128118
0.00347273
1.23027
1.30066
0.2331
0.701159
1.40237
0.649902
0.985459
1.22758
1.33389
1.1365
0.695842
1.3975
0.869787
0.264175
1.26937
1.10957
0.0977252
1.22513
1.19903
1.55249
1.39626
0.305653
1.15036
0.167672
0.77106
0.218344
0.41551
1.10563
1.14707
0.995575
-0.00544673
0.362036
0.0195422
1.38011
1.60497
1.24546
1.44817
1.46439
1.47941
1.32466
1.22433
0.875295
1.27514
0.00410839
0.312558
-0.0113945
1.29028
0.46852
0.732299
1.09014
0.332728
0.0017141
-0.117897
-0.00961649
0.0905643
-0.00933835
0.016446
1.3733
1.21113
1.23302
1.16679
1.45472
0.320362
-0.0444862
1.40862
1.22733
0.180903
1.17633
1.55215
1.33752
1.28445
-0.173534
1.00836
0.107666
1.2061
0.679311
0.0780423
0.635772
0.0663596
1.03335
0.0592681
0.0021881
0.00535795
0.0374299
0.00443956
0.0035084
0.0170588
-0.038056
1.33778
1.2188
1.32036
0.282339
0.402143
0.0471759
0.867716
1.16304
0.181916
0.139337
0.206781
0.0644454
0.21337
0.00066133
1.02217
0.0746575
1.15834
0.0923369
1.21099
0.21872
0.787342
1.2344
0.678823
1.10611
0.980249
1.12147
0.125165
0.0421356
0.539773
0.239688
0.136713
0.441443
1.18111
0.126503
1.13337
1.13414
1.17652
1.16944
0.171302
0.0238816
1.26947
0.745719
0.0933143
0.263714
0.0123544
1.54318
1.67404
0.7519
1.30719
0.915866
1.65587
1.46227
-0.584914
0.321348
0.0638897
0.213658
0.896232
0.430005
1.10261
1.06677
0.0380386
0.13308
0.137358
0.0345625
1.38318
1.4555
1.4153
1.36785
1.75365
1.52005
1.66047
0.243574
1.46665
1.54924
1.50836
1.25586
1.60568
1.49899
1.59923
1.70013
1.60217
1.76103
1.75725
1.66622
1.60006
1.70549
1.6327
1.56172
1.71629
1.66666
1.28587
-0.0329933
1.42287
1.51367
1.5367
1.53857
1.40567
0.720882
0.0950913
-0.0131359
-0.124745
0.125126
0.853183
1.20766
1.19695
0.775621
1.00499
1.28004
1.19023
1.31818
0.220156
0.899704
0.0216087
1.16237
0.235652
1.19989
0.610423
-0.0599698
-0.349043
0.0116482
0.340447
0.272929
0.0318138
0.0193555
-0.124222
0.617964
0.102216
0.645313
1.21709
1.11717
1.16655
0.29252
0.0671184
0.185235
1.36559
1.43108
1.14335
0.0846403
0.782714
0.269925
1.28249
1.34161
1.24281
0.0103573
0.112901
0.0205432
0.00304128
-1
-0.131351
0.00586341
1.13715
-0.00733788
1.301
1.3322
1.50177
1.38644
1.55818
1.35965
1.29621
0.376579
-0.00992274
-0.00740297
0.0116794
1.49705
1.13692
1.33117
-0.245906
-0.0295301
0.43771
1.19032
1.48757
1.43316
0.14156
0.125827
1.40822
0.583732
1.26636
0.993706
1.36366
-0.702275
0.107608
1.29841
1.19584
1.18123
1.21933
1.53583
1.69179
1.74843
1.6694
1.49303
1.64021
1.46643
1.40318
1.59712
1.42968
1.65846
1.55233
1.54846
1.16773
1.1166
1.2751
1.22747
0.78602
1.14799
0.590801
1.62512
1.5261
1.39174
1.40596
1.53288
1.43637
1.35612
1.33885
1.58955
1.31764
1.17744
1.32092
1.18743
1.66331
1.55624
1.42697
1.24395
1.28033
1.18042
0.714993
0.0111478
0.200208
0.27741
-0.00184028
1.18698
1.38073
1.51423
1.43213
1.22363
1.39105
0.378537
1.17167
1.4108
0.0883803
0.0974686
1.28021
1.32041
1.48392
0.0253983
0.998001
0.0409266
0.10788
1.19746
0.413873
0.134614
0.727247
1.15515
0.947478
1.19384
1.1367
1.21675
0.144936
1.19493
0.747121
0.0527932
0.441584
1.20501
0.629769
1.19855
-0.129527
-0.00102092
-0.000739332
0.481977
0.04492
1.35561
1.40682
1.43589
1.42587
1.17957
0.0873636
-0.00207109
0.10912
1.12937
1.26517
0.112691
1.13666
0.0690087
1.52689
1.29009
1.42318
1.44207
1.46829
0.074485
0.837429
1.17772
1.16815
1.15136
1.75291
1.55664
1.70113
1.38926
1.17993
1.23199
1.21739
1.31484
1.33271
1.62859
1.51203
1.38827
1.47962
1.5952
1.49674
1.65792
1.64745
1.63618
0.0658344
1.55059
1.30176
0.757334
1.27513
1.61905
1.47136
1.59703
1.19339
1.08739
0.696138
0.225442
0.0165114
0.868097
0.0991479
-0.0170892
0.0525052
0.391197
0.0372347
-0.068205
-0.01468
-0.0521429
-0.0137486
0.0735193
0.032434
0.0605886
