# vtk DataFile Version 4.2
vtk output
ASCII
DATASET POLYDATA
POINTS 642 double
-2.4491 4.59631 -0.0300897
2.46867 4.63021 -0.0157548
-2.48078 -3.36753 0.000301051
2.45608 -3.33821 0.00155563
0.00312723 -1.76661 3.88564
-0.000887273 3.04772 3.861
-0.011523 -1.73165 -3.73963
-0.0237603 3.07247 -3.89284
3.92959 0.674175 -2.42784
3.79701 0.660218 2.3197
-3.9582 0.665618 -2.45216
-3.78825 0.639159 2.32671
-3.70646 2.9354 1.38613
-2.24115 2.04511 3.63453
-1.4101 4.36051 2.29127
1.41085 4.36093 2.2912
-0.00523852 5.28047 -0.0158831
1.46818 4.45293 -2.35512
-1.46879 4.45538 -2.36379
-2.35553 2.0992 -3.8018
-3.80808 3.00385 -1.46463
-4.57808 0.664325 -0.0144188
2.23738 2.04863 3.6303
3.72759 2.95022 1.40172
-2.26372 -0.782247 3.66398
-0.00191592 0.627876 4.54809
-3.78242 -1.69729 -1.43106
-3.78378 -1.70123 1.43395
-0.0389984 0.669905 -4.49698
-2.29231 -0.743152 -3.67204
3.81218 3.005 -1.45954
2.3443 2.09714 -3.77428
3.73825 -1.67948 1.41987
2.24857 -0.775399 3.64464
1.43957 -3.13388 2.32557
-1.44416 -3.13706 2.32518
0.00350805 -4.01227 -0.000282643
-1.43784 -3.11182 -2.30011
1.42828 -3.10348 -2.29205
2.22797 -0.726552 -3.57109
3.71833 -1.66795 -1.40842
4.58672 0.665806 -0.00919774
-3.19802 3.90005 0.703349
-2.67113 3.78422 1.92989
-1.99487 4.60805 1.16477
-3.13967 1.36185 3.07955
-3.09596 2.57214 2.64272
-3.89894 1.8075 1.941
-0.717441 3.81626 3.226
-1.92503 3.32639 3.12369
-1.14851 2.63133 3.90059
-0.74495 5.0315 1.20966
-1.2936 5.11955 -0.0205618
0.716936 3.81504 3.22421
-0.00024739 4.56384 2.41673
1.30659 5.11128 -0.0173772
0.745178 5.03073 1.20988
2.00942 4.61439 1.15199
-0.760849 5.09805 -1.23141
-2.06416 4.70734 -1.20976
2.05981 4.71217 -1.20643
0.767008 5.08235 -1.23204
-0.762613 3.88528 -3.30973
-0.0053728 4.61153 -2.44451
0.756689 3.86965 -3.28177
-2.78151 3.89762 -2.01528
-3.24834 3.96326 -0.757519
-1.20927 2.6954 -4.05103
-2.01239 3.42109 -3.24621
-4.05418 1.84879 -2.05644
-3.2495 2.65695 -2.776
-3.31767 1.39549 -3.24904
-3.95698 3.09207 -0.015872
-4.4293 0.662612 -1.29865
-4.42281 1.87591 -0.766013
-4.37451 1.86359 0.724471
-4.3295 0.65197 1.22514
2.68453 3.78783 1.92452
3.21643 3.92837 0.710597
1.14963 2.6312 3.90127
1.92615 3.32673 3.12436
3.93445 1.81613 1.9595
3.1092 2.57468 2.63763
3.14425 1.36359 3.06667
-1.17467 1.36086 4.27049
0.000692273 1.90253 4.33027
-3.14742 -0.0968088 3.08615
-2.34317 0.628115 3.83116
-0.00182413 -0.632195 4.38989
-1.18876 -0.103446 4.33214
-1.16243 -1.35403 3.93908
-4.38902 -0.622813 0.738916
-3.93353 -0.575273 1.96797
-3.9271 -0.531143 -1.97432
-4.40755 -0.614697 -0.750463
-3.25349 -2.68365 0.736629
-3.99999 -1.82892 0.000264314
-3.25195 -2.68219 -0.734788
-2.45057 0.665742 -3.95761
-3.25764 -0.054101 -3.18952
-0.0383778 1.9182 -4.36644
-1.24413 1.41423 -4.44785
-1.17188 -1.33703 -3.87565
-1.22626 -0.0595104 -4.34492
-0.0212339 -0.540897 -4.23524
2.00529 3.41067 -3.22825
1.21119 2.68126 -3.99801
3.25914 3.97147 -0.750472
2.77977 3.89588 -2.01045
3.29457 1.39882 -3.2188
3.24046 2.65108 -2.76363
4.05408 1.85131 -2.04908
3.21798 -2.65377 0.731463
2.72669 -2.56275 1.97029
2.03766 -3.39516 1.18874
3.14813 -0.0914146 3.08622
3.13886 -1.33275 2.67592
3.88152 -0.548177 1.95417
0.733345 -2.56769 3.25535
1.96209 -2.08456 3.16846
1.15804 -1.36047 3.92867
0.76083 -3.80207 1.22872
1.30449 -3.85968 -0.00143838
-0.73301 -2.56589 3.24679
0.00129307 -3.32576 2.44054
-1.31675 -3.86258 0.000367205
-0.76389 -3.80724 1.22884
-2.05291 -3.41251 1.19119
0.764996 -3.80183 -1.21754
2.03232 -3.38953 -1.18025
-2.05159 -3.40741 -1.18533
-0.766645 -3.79474 -1.21822
0.729912 -2.51298 -3.18263
-0.00151796 -3.26427 -2.38973
-0.73666 -2.52084 -3.19576
2.70897 -2.5438 -1.94807
3.20929 -2.64649 -0.724026
1.16368 -1.33715 -3.82764
1.93755 -2.04611 -3.11044
3.90142 -0.506763 -1.9773
3.12829 -1.3129 -2.65588
3.21614 -0.0344232 -3.13913
3.94421 -1.80057 0.00395432
4.42516 0.674167 -1.29028
4.27916 -0.557921 -0.711149
4.31891 -0.590813 0.718327
4.35912 0.675108 1.24113
1.18065 -0.101769 4.32036
2.33345 0.630822 3.80998
1.16646 1.36512 4.26305
-2.74862 -2.57989 1.97822
-1.97078 -2.08658 3.16683
-3.17993 -1.3452 2.70202
-1.95706 -2.0595 -3.13074
-2.74236 -2.57015 -1.96617
-3.182 -1.33536 -2.695
2.42098 0.676812 -3.88976
1.1862 -0.0448145 -4.21705
1.22116 1.41416 -4.29818
4.39234 1.8657 0.735238
4.43311 1.88285 -0.769419
3.97518 3.10691 -0.0168418
-2.8403 4.29048 0.329729
-2.62314 4.27853 0.954866
-2.24048 4.62097 0.550097
-3.22525 3.3823 1.66947
-2.9623 3.85632 1.33141
-3.48764 3.44882 1.05504
-1.7208 4.5235 1.74181
-2.35478 4.23164 1.57456
-2.0615 4.11668 2.13963
-3.49606 0.9942 2.70771
-3.54762 1.61036 2.54188
-3.87474 1.21941 2.15693
-2.6968 2.32729 3.1828
-3.14581 1.98364 2.89834
-2.72264 1.7106 3.38781
-3.84379 2.38023 1.68412
-3.52767 2.21056 2.30679
-3.43418 2.77275 2.03033
-0.350254 3.44688 3.59145
-0.961186 3.25783 3.60687
-0.562971 2.8689 3.92006
-1.68814 3.88633 2.74159
-1.34175 3.60796 3.2027
-1.07114 4.12141 2.79223
-1.70893 2.3558 3.80582
-1.5609 2.99886 3.55039
-2.11087 2.70319 3.42325
-2.92427 3.20941 2.31863
-2.54501 2.97772 2.92208
-2.32655 3.5947 2.56364
-1.64855 4.90737 0.586793
-1.90449 4.88547 -0.0260099
-1.09453 4.74426 1.77916
-1.38148 4.86352 1.20984
-0.66484 5.25707 -0.0192579
-1.01563 5.11035 0.596674
-0.378388 5.21135 0.599436
0.348873 3.44601 3.59014
-0.000676595 3.87048 3.2577
0.720644 4.51156 2.38444
0.369421 4.23194 2.8467
1.07148 4.12089 2.79113
-0.370138 4.23254 2.84756
-0.720609 4.51192 2.38507
1.92846 4.91084 -0.0183645
1.67067 4.91927 0.583966
2.27556 4.66737 0.553423
0.376186 5.20964 0.601716
1.02127 5.10723 0.59904
0.662257 5.24263 -0.0133758
1.72295 4.52465 1.74111
1.38603 4.86496 1.20615
1.09512 4.74449 1.77923
-0.377478 4.85429 1.84003
0.377324 4.85402 1.83993
-0.00027214 5.09388 1.22735
-1.6833 4.96598 -0.625984
-2.2891 4.69685 -0.604188
-0.387848 5.2692 -0.627156
-1.03184 5.16877 -0.627676
-1.78601 4.61979 -1.79731
-1.42037 4.93322 -1.23933
-1.12865 4.81222 -1.81696
2.29646 4.71357 -0.595482
1.69681 4.98223 -0.62767
1.13649 4.81406 -1.81226
1.4331 4.95573 -1.24634
1.78302 4.62427 -1.79288
1.04099 5.15016 -0.628913
0.377064 5.24675 -0.624309
-0.389195 3.49678 -3.66246
-0.0109188 3.90045 -3.29423
0.364321 3.47299 -3.61853
-0.751082 4.57089 -2.42946
-0.396189 4.28 -2.89286
-1.12264 4.20804 -2.87641
1.12061 4.19657 -2.86119
0.385968 4.26969 -2.88173
0.749953 4.55943 -2.41812
-0.00583836 5.15052 -1.24625
0.385445 4.9048 -1.86183
-0.390046 4.91919 -1.86828
-2.69598 4.38282 -1.01236
-2.8645 4.3307 -0.383744
-2.14462 4.2254 -2.21799
-2.44235 4.34379 -1.63619
-3.5635 3.51888 -1.11852
-3.05701 3.96298 -1.40218
-3.34408 3.48388 -1.75966
-0.617688 2.91925 -4.02109
-1.01315 3.33155 -3.72389
-2.21384 2.78237 -3.57025
-1.63146 3.07894 -3.68785
-1.78887 2.41642 -3.96624
-1.4016 3.70031 -3.31476
-1.75823 3.98722 -2.83785
-4.05055 1.24159 -2.28688
-3.7321 1.65044 -2.69134
-3.68822 1.02126 -2.86581
-3.5789 2.86115 -2.14197
-3.69309 2.27754 -2.43659
-3.97266 2.43912 -1.78121
-2.87431 1.75557 -3.56342
-3.31343 2.04136 -3.052
-2.83568 2.39862 -3.33643
-2.43066 3.70186 -2.6684
-2.66851 3.0721 -3.0534
-3.05842 3.31414 -2.42914
-3.27303 3.96058 -0.02166
-3.93029 3.07901 -0.752964
-3.64362 3.54763 -0.396756
-3.62036 3.52455 0.356764
-3.88273 3.0447 0.707629
-4.23548 0.665657 -1.91519
-4.31409 1.27107 -1.69028
-4.56898 1.27013 -0.387966
-4.48039 1.27442 -1.03551
-4.55256 0.663653 -0.663296
-4.27993 1.88488 -1.42344
-4.16431 2.46331 -1.13219
-4.17791 1.25719 1.5922
-4.08135 0.645737 1.8096
-4.09034 2.42752 1.07311
-4.17901 1.85798 1.34613
-4.50616 0.658728 0.623985
-4.40628 1.2673 0.978542
-4.53833 1.26739 0.355295
-4.24922 2.51029 -0.396384
-4.4666 1.88608 -0.0133322
-4.22668 2.49829 0.364617
2.6544 4.31792 0.955462
2.86175 4.32711 0.340159
2.06406 4.11781 2.13939
2.36809 4.23599 1.56601
3.50473 3.4687 1.06549
2.99061 3.88446 1.33629
3.2544 3.40279 1.67898
0.562675 2.86717 3.91863
0.961608 3.25615 3.60519
2.11097 2.70469 3.42411
1.56221 2.9987 3.55118
1.70852 2.3584 3.8058
1.3426 3.60717 3.20175
1.68916 3.88662 2.7415
3.90735 1.22925 2.16736
3.57627 1.61561 2.54404
3.51785 1.0059 2.70544
3.46565 2.78735 2.04115
3.5596 2.22001 2.3145
3.87227 2.3913 1.70295
2.71778 1.71145 3.37844
3.15506 1.98541 2.88881
2.69659 2.32985 3.17944
2.32937 3.59573 2.56351
2.54736 2.97894 2.92163
2.93795 3.21225 2.31468
-0.589014 2.27717 4.16766
-0.000275876 2.51139 4.12246
-1.73381 1.72265 3.99879
-1.18399 2.01288 4.12268
-0.000531271 1.26784 4.47448
-0.589659 1.63144 4.34746
-0.591245 0.991657 4.47636
-3.50633 0.27541 2.71571
-3.15628 0.635159 3.12636
-2.32795 -0.0807987 3.79875
-2.76099 0.263258 3.50185
-2.73939 -0.44953 3.4076
-2.75033 1.00282 3.47882
-2.31052 1.34981 3.76316
-0.00118719 -1.23178 4.17136
-0.596527 -0.998956 4.22428
-0.568459 -1.58467 3.95213
-0.597671 0.260552 4.50186
-0.602047 -0.368615 4.41324
-0.00196824 -0.0112384 4.51784
-1.72911 -1.08729 3.84334
-1.19534 -0.736531 4.17984
-1.74778 -0.450942 4.04832
-1.7899 0.9988 4.11351
-1.79753 0.258143 4.13963
-1.19885 0.624627 4.37227
-4.15803 0.00990146 1.59482
-3.87136 0.0434216 2.16457
-4.47675 0.0168578 0.359555
-4.36857 0.00783194 0.980552
-3.92154 -1.14771 1.73289
-4.20692 -0.621737 1.36746
-4.16109 -1.18621 1.10493
-3.98942 0.0973873 -2.25487
-4.25256 0.051495 -1.65279
-4.16933 -1.18317 -1.107
-4.2396 -0.602972 -1.37461
-3.92555 -1.14758 -1.73074
-4.43122 0.0240776 -1.02104
-4.49906 0.0218535 -0.383012
-2.88522 -3.07447 0.360896
-3.31051 -2.71744 0.000477009
-2.88462 -3.0739 -0.359878
-3.94433 -1.79641 0.733263
-3.66886 -2.28319 0.378251
-3.55249 -2.22499 1.09477
-3.54996 -2.22255 -1.0919
-3.66818 -2.28258 -0.377092
-3.94392 -1.79457 -0.732251
-4.46608 -0.639279 -0.00376835
-4.28989 -1.24754 -0.383652
-4.28712 -1.24848 0.381839
-3.32175 0.665048 -3.27642
-3.65523 0.310568 -2.84014
-2.43941 1.3934 -3.94032
-2.90876 1.03928 -3.6505
-2.80032 -0.411011 -3.47177
-2.88126 0.293722 -3.61528
-2.39646 -0.0521819 -3.86514
-0.0301287 2.52919 -4.15694
-0.652393 2.3152 -4.28911
-0.656001 1.04155 -4.54484
-0.661553 1.67428 -4.47931
-0.0409214 1.30215 -4.48491
[...]
POINT_DATA 642
SCALARS Mean_Curvature double 1
LOOKUP_TABLE default
0.458204
0.505623
0.483202
0.470492
0.414925
0.485406
0.25348
0.183833
0.485072
0.255478
0.489206
0.347398
0.454183
0.440205
0.446857
0.447837
0.329017
0.520953
0.502614
0.40335
0.466487
0.432959
0.448641
0.451954
0.353813
0.496012
0.423604
0.440425
0.30635
0.349883
0.443783
0.488271
0.46209
0.30481
0.44953
0.439214
0.298083
0.428975
0.448641
-0.048357
0.438051
0.46056
0.467545
0.401012
0.406306
0.413998
0.414924
0.421079
0.462585
0.442813
0.433884
0.431348
0.487655
0.453889
0.454605
0.410968
0.427393
0.297546
0.429942
0.514126
0.437065
0.358196
0.505214
0.387411
0.469813
0.44449
0.488438
0.529481
0.428595
0.466748
0.437881
0.480343
0.43591
0.354161
0.424644
0.486778
0.284932
0.339235
0.446636
0.445907
0.444779
0.484406
0.370665
0.356976
0.276922
0.42363
0.271742
0.46129
0.466669
0.468314
0.412691
0.541068
0.440177
-0.131765
0.502405
0.455922
0.419367
0.459293
0.454223
0.426098
0.217457
0.60852
0.625794
0.58699
0.33541
0.436336
0.577219
0.452569
0.447883
0.478951
0.430356
0.507165
0.452869
0.435497
0.435869
0.429664
0.489278
0.373324
0.467476
0.457268
0.361886
0.4301
0.447993
0.494392
0.445626
0.441752
0.44224
0.440665
0.513854
0.45904
0.456664
0.461798
0.481368
0.263744
0.485115
0.440889
0.445819
0.548709
0.438797
0.271062
0.511586
0.428732
0.452709
0.450602
0.00190127
0.376231
0.467441
0.463882
0.431422
0.275587
0.434494
0.455383
0.555925
0.417643
0.441753
0.533626
0.481077
0.330887
0.240694
0.476593
0.434437
0.446428
0.453281
0.333562
0.275698
0.360789
0.359648
0.467724
0.436618
0.407293
0.436782
0.2692
0.407558
0.402271
0.439502
0.433072
0.434241
0.430889
0.378043
0.369363
0.474526
0.462868
0.468573
0.446264
0.452997
0.454567
0.42907
0.443259
0.434937
0.406145
0.435842
0.437192
0.34697
0.434246
0.443404
0.424366
0.509272
0.365094
0.385183
0.467536
0.462
0.452018
0.454536
0.451457
0.458927
0.454421
0.521167
0.356476
0.502733
0.393575
0.34733
0.454062
0.421883
0.396981
0.443002
0.448478
0.447131
0.440513
0.426723
0.496806
0.546057
0.483807
0.454195
0.361234
0.357769
0.475591
0.492789
0.394746
0.57067
0.449522
0.380698
0.404575
0.50769
0.269222
0.228216
0.356857
0.36845
0.536524
0.537113
0.320303
0.314046
0.435527
0.37832
0.470602
0.512624
0.47311
0.440177
0.442703
0.480401
0.454497
0.448225
0.533135
0.527991
0.428806
0.426428
0.383842
0.495766
0.432784
0.494541
0.481564
0.478782
0.445717
0.43229
0.465284
0.481643
0.43989
0.428509
0.441498
0.441323
0.444973
0.427645
0.433004
0.420777
0.453494
0.464557
0.493916
0.525177
0.503661
0.420887
0.429826
0.420597
0.425808
0.458879
0.261466
0.470662
0.46013
0.447703
0.466417
0.473574
0.428235
0.487783
0.457833
0.458292
0.478172
0.425799
0.324103
0.440803
0.443744
0.442019
0.452632
0.451774
0.446347
0.449851
0.452152
0.449604
0.446348
0.476643
0.445748
0.383929
0.444821
0.433374
0.454486
0.396751
0.379087
0.433337
0.42661
0.426231
0.357474
0.41898
0.430668
0.403711
0.425952
0.421596
0.329469
0.483331
0.324105
0.339544
0.452668
0.406712
0.324417
0.284096
0.366184
0.457496
0.455334
0.428808
0.489475
0.468276
0.483331
0.378978
0.449081
0.439469
0.4404
0.484703
0.486404
0.260389
0.284435
0.127699
0.23586
0.563665
0.497489
0.5972
0.449306
0.361701
0.582506
0.483068
0.556466
0.302206
0.137602
0.469492
0.45763
0.471732
0.42716
0.445258
0.438524
0.439622
0.446421
0.417692
0.546359
0.590855
0.599876
0.463923
0.460798
0.477868
0.468311
0.41435
0.45391
0.434921
0.189858
0.525779
0.565284
0.620275
0.293866
0.521682
0.477023
0.521567
-0.0624649
-0.0300016
0.449871
0.52706
0.0356649
0.334532
0.342294
0.517818
0.455269
0.577881
0.454974
0.55862
0.260578
0.437186
0.502643
0.487772
0.446962
0.434449
0.477109
0.454176
0.447655
0.44925
0.452329
0.444771
0.440481
0.477671
0.497802
0.489063
0.421929
0.498819
0.49635
0.430653
0.433078
0.439806
0.443369
0.445335
0.438815
0.46386
0.448501
0.457826
0.429344
0.441529
0.439004
0.442733
0.439159
0.442093
0.287621
0.461946
0.285509
0.409526
0.39795
0.408361
0.530352
0.349559
0.538588
0.408815
0.468597
0.392023
0.450816
0.458281
0.452559
0.32454
0.479351
0.557788
0.450466
0.477761
0.44504
0.43499
0.452397
0.442517
0.430056
0.518631
0.435635
0.368433
0.299004
0.463948
0.477902
0.339801
0.449726
0.456951
0.451367
0.489035
0.446004
0.462115
0.411187
0.430321
0.397458
0.431842
0.418686
0.431252
0.440131
0.406918
0.423547
0.455142
0.462238
0.448658
0.497339
0.453068
0.450887
0.462422
0.472696
0.456646
0.470522
0.425831
0.435916
0.461614
0.414667
0.413333
0.232032
0.486408
0.506245
0.412012
0.474376
0.485139
0.450736
0.480066
0.325106
0.434013
0.432357
0.453406
0.457527
0.445769
0.455447
0.433639
0.447405
0.42528
0.460506
0.50712
0.504774
0.463491
0.532732
0.446607
0.44865
0.441579
0.390261
0.460361
0.484157
0.345359
0.53236
0.403934
0.107446
0.489244
0.440352
0.443123
0.428674
0.473956
0.434517
0.451667
0.443961
0.433348
0.476033
0.420416
0.407548
0.404782
0.440412
0.0584126
0.58291
0.187186
0.448264
0.632341
0.287893
0.461361
0.155389
0.383011
0.615745
0.442723
0.627812
0.450967
0.431197
0.442986
0.469712
0.490969
0.247413
0.361698
0.346789
0.343188
0.433511
0.423018
0.475248
0.372962
0.436361
0.40958
0.487177
0.353576
0.484939
0.450583
0.433361
0.44232
0.444777
0.427641
0.317521
0.498837
0.383065
0.464239
0.447288
0.349853
0.491583
0.535966
0.417404
0.510499
0.434736
0.451196
0.431048
0.50307
0.43172
0.432179
0.400194
0.501545
0.462314
0.425843
0.454294
0.456236
0.438174
0.414296
0.387289
0.128336
0.519338
0.47756
0.43434
0.41799
0.406754
0.466266
0.448379
0.466307
0.47313
0.489034
0.135623
0.411138
0.382538
0.210971
0.320562
0.221767
0.551185
0.597394
0.347024
0.391838
0.521319
0.314081
0.540325
0.496799
0.500473
0.493827
0.477356
0.447609
0.496009
0.46097
0.515965
0.462787
0.456082
0.473657
0.426029
0.441032
0.478477
0.460865
0.426629
0.467118
0.409131
SCALARS CoVolArea double 1
LOOKUP_TABLE default
0.302477
0.300273
0.305816
0.30259
0.297527
0.287098
0.293079
0.310548
0.294026
0.292029
0.297205
0.296119
0.419691
0.409538
0.420669
0.42121
0.434601
0.438807
0.441215
0.442534
0.439613
0.431739
0.408276
0.422786
0.420848
0.407095
0.431833
0.432004
0.419917
0.4305
0.441622
0.429404
0.420192
0.420306
0.432438
0.434178
0.442589
0.427395
0.42328
0.429479
0.41838
0.420893
0.405101
0.442388
0.409357
0.390718
0.432994
0.389709
0.394816
0.433257
0.39014
0.448287
0.408908
0.395479
0.441597
0.412181
0.449209
0.412438
0.457729
0.415142
0.416059
0.461507
0.412041
0.465535
0.413966
0.464946
0.412909
0.406946
0.464697
0.412865
0.464606
0.412281
0.451983
0.411023
0.452324
0.436534
0.405984
0.447046
0.40678
0.389218
0.433579
0.387745
0.436526
0.393414
0.436609
0.393308
0.40129
0.427188
0.392558
0.429244
0.401626
0.441773
0.395097
0.424475
0.446771
0.416348
0.457026
0.415394
0.449384
0.409147
0.418111
0.436008
0.392759
0.422924
0.410092
0.460011
0.401764
0.416632
0.463776
0.404948
0.461847
0.409696
0.40917
0.450832
0.412953
0.391761
0.434108
0.401903
0.402613
0.440715
0.401256
0.457872
0.411698
0.40675
0.45397
0.414481
0.458283
0.416308
0.450498
0.408991
0.41341
0.454459
0.391625
0.450375
0.392448
0.444479
0.40758
0.381625
0.431709
0.40874
0.436083
0.399344
0.441644
0.399943
0.459588
0.438226
0.397371
0.427333
0.42808
0.43655
0.456176
0.445376
0.435674
0.441817
0.452359
0.446047
0.429016
0.433959
0.442107
0.442783
0.451973
0.454368
0.38831
0.411791
0.393066
0.43674
0.409616
0.4002
0.400189
0.40907
0.433308
0.375859
0.391443
0.373116
0.421258
0.391815
0.386958
0.3935
0.397236
0.432765
0.371444
0.393616
0.369474
0.430636
0.398811
0.396272
0.388887
0.395997
0.423738
0.482147
0.475265
0.479746
0.414899
0.390526
0.436678
0.411839
0.406881
0.41506
0.446817
0.372097
0.397585
0.435059
0.403075
0.396566
0.402829
0.434902
0.387306
0.414152
0.386296
0.448021
0.418409
0.41385
0.406075
0.416151
0.437967
0.487822
0.487926
0.49293
0.414379
0.388318
0.444825
0.415201
0.418781
0.424097
0.457269
0.391548
0.414114
0.454171
0.419455
0.415657
0.420605
0.451646
0.391944
0.42305
0.397424
0.455609
0.425608
0.413682
0.412329
0.427597
0.457629
0.50311
0.509006
0.506395
0.414377
0.387583
0.456826
0.423271
0.414961
0.422689
0.456415
0.386735
0.409079
0.458934
0.422933
0.417437
0.419272
0.455057
0.386493
0.416133
0.387602
0.456687
0.424041
0.415832
0.414921
0.423503
0.457551
0.511464
0.511094
0.510968
0.411037
0.450603
0.417953
0.411051
0.436419
0.385237
0.410056
0.436789
0.413164
0.411922
0.417691
0.451128
0.394999
0.384899
0.430904
0.395685
0.404783
0.398006
0.430565
0.498409
0.488562
0.489316
0.40996
0.386361
0.437989
0.414793
0.404076
0.410745
0.43721
0.370204
0.394264
0.422823
0.395248
0.386383
0.399111
0.431221
0.365195
0.389487
0.373914
0.432344
0.396739
0.394286
0.389158
0.395739
0.424321
0.484092
0.478857
0.486064
0.394596
0.370438
0.426542
0.399197
0.390249
0.401564
0.424822
0.381374
0.400256
0.425994
0.399626
0.397061
0.397525
0.424934
0.376316
0.397177
0.382268
0.421481
0.396473
0.388475
0.399898
0.40021
0.42883
0.472527
0.46842
0.471505
0.410536
0.384273
0.45331
0.41542
0.393355
0.401433
0.432643
0.392228
0.420626
0.437032
0.416968
0.406453
0.421845
0.456959
0.394677
0.418694
0.394121
0.448761
0.423356
0.415927
0.415211
0.423204
0.449499
0.491757
0.488097
0.485972
0.409139
0.384907
0.449091
0.415003
0.407228
0.41047
0.438318
0.402438
0.407965
0.424465
0.4019
0.405621
0.407629
0.448117
0.37353
0.413393
0.398752
0.433203
0.399012
0.405787
0.38928
0.395802
0.418326
0.491611
0.472515
0.48274
0.408994
0.396998
0.452027
0.414259
0.401263
0.413324
0.451522
0.39214
0.420486
0.456855
0.4251
0.417454
0.425313
0.455726
0.381555
0.410565
0.38283
0.451473
0.417444
0.4062
0.415736
0.421355
0.456723
0.508713
0.50909
0.50765
0.38869
0.413162
0.39079
0.441731
0.41488
0.408049
0.411323
0.416328
0.445486
0.377362
0.396006
0.381516
0.429136
0.396318
0.391792
0.390568
0.397524
0.430857
0.383102
0.402997
0.380408
0.442376
0.406608
0.405777
0.399745
0.40361
0.431203
0.487056
0.480689
0.491558
0.415947
0.391164
0.448453
0.419361
0.411816
0.419426
0.454446
0.387627
0.408137
0.447521
0.414094
0.406389
0.412567
0.446075
0.392873
0.417927
0.394319
0.455388
0.421415
0.41727
0.414359
0.421521
0.450167
0.500691
0.501266
0.504332
0.413318
0.389296
0.44957
0.413879
0.405665
0.413545
0.440185
0.392994
0.41593
0.443638
0.417349
0.41013
0.418981
0.45349
0.368524
0.401445
0.366765
0.437247
0.406829
0.394308
0.396878
0.406994
0.439283
0.501555
0.498095
0.496288
0.41037
0.388143
0.438014
0.410974
0.405309
0.410922
0.438158
0.373196
0.38072
0.425471
0.384384
0.389074
0.394001
0.432552
0.379817
0.407473
0.377336
0.430136
0.40764
0.399072
0.403326
0.412354
0.435109
0.483483
0.47493
0.482101
0.410319
0.43356
0.412541
0.41373
0.436211
0.378387
0.410179
0.442679
0.419264
0.400587
0.425788
0.438206
0.413848
0.373626
0.425292
0.410838
0.397616
0.417516
0.438068
0.481742
0.483128
0.4743
0.398644
0.427988
0.401004
0.395538
0.420448
0.400311
0.424415
0.398881
0.397188
0.424479
0.393298
0.42379
0.399103
0.396831
0.426062
0.468268
0.474602
0.471347
0.418222
0.448908
0.420362
0.420648
0.450023
0.4095
0.434226
0.408801
0.409647
0.443515
0.400325
0.438962
0.396076
0.398711
0.428543
0.496379
0.485824
0.495188
0.383991
0.438368
0.398924
0.401493
0.439807
0.416159
0.448645
0.418358
0.416842
0.44404
0.419628
0.441983
0.420016
0.417052
0.440508
0.491936
0.492901
0.487065
0.400297
0.429207
0.39816
0.404624
0.432774
0.410316
0.429673
0.402784
0.401834
0.432282
0.420211
0.431253
0.403412
0.417004
0.440631
0.471235
0.481358
0.47704
0.388141
0.432815
0.396011
0.398728
0.43808
0.405734
0.450418
0.414501
0.409574
0.438965
0.413995
0.443825
0.415482
0.419225
0.451284
0.494233
0.499525
0.496265
SCALARS SignedDistance double 1
LOOKUP_TABLE default
3.55122
3.33186
3.03102
3.22481
3.70289
3.84239
4.77201
3.8758
3.94325
4.41188
3.7362
4.30931
3.8707
4.11874
3.64242
3.6392
3.54557
3.23419
3.17451
3.24279
3.1518
4.03186
4.1742
3.72936
4.02475
3.94316
3.63319
3.54198
4.37567
4.4959
3.0957
3.62789
3.77152
4.12445
3.32612
3.3326
3.56343
3.69808
3.75417
4.81403
4.01361
3.99886
3.654
3.83939
3.67029
4.3065
4.06013
4.15971
3.68533
3.86134
3.96889
3.5182
3.49104
3.69678
3.53553
3.52674
3.52773
3.69282
3.20125
3.20554
3.10417
3.3067
3.51499
3.47397
3.64669
2.98912
3.2524
3.49053
3.09051
3.30722
3.04048
3.38935
3.45457
3.89502
3.4784
3.84462
4.2802
3.83842
3.51446
3.97183
3.86762
4.04742
4.08701
4.34955
4.21155
4.09431
4.26927
4.25168
3.69176
3.85222
3.77553
4.03032
4.12138
4.29841
4.10331
3.14383
3.33958
3.19364
3.81773
4.05093
4.0059
3.84537
4.68267
4.46711
4.77144
3.27034
3.78988
3.10378
3.00225
3.71714
3.19685
3.40458
3.36839
3.47987
3.24473
4.34385
3.98026
4.20449
3.55656
3.68177
3.87839
3.26745
3.19534
3.66774
3.45896
3.29328
3.30032
3.16174
3.51106
3.38676
3.28944
3.57811
4.27963
4.08742
4.25153
3.77979
3.52022
4.76808
4.23987
4.45556
4.43202
4.37052
3.69248
3.9295
4.3558
4.27845
4.20411
3.94229
4.37206
4.24931
3.36013
3.67548
3.89942
4.08378
3.54725
4.15159
4.24339
4.66001
4.21204
3.71156
3.49359
3.36921
3.59047
3.75427
3.70329
3.90456
3.82278
3.74866
3.648
3.75085
3.73433
4.37476
4.26339
4.32782
4.08235
4.1731
4.21426
4.00996
4.12959
4.01891
3.74867
3.82413
3.89655
3.7418
3.77087
3.65208
4.0366
3.90791
3.98531
3.94483
3.95826
3.83881
3.61988
3.57163
3.56859
3.5801
3.46341
3.54174
3.50163
3.76
3.65433
3.56936
3.59934
3.6552
3.58784
3.56627
3.41413
3.64375
3.54732
3.51349
3.5802
3.52374
3.65117
3.60031
3.56547
3.51271
3.5138
3.48463
3.36906
3.38994
3.32445
3.28888
3.12417
3.25413
3.25597
3.18445
3.2804
3.34201
3.27676
3.1234
3.35361
3.39457
3.72864
3.73969
3.84149
3.35253
3.52043
3.32713
3.42521
3.57049
3.43019
3.34325
3.36517
3.28474
3.199
3.39258
3.02664
3.05049
3.16831
3.06775
3.03195
3.71217
3.46769
3.14226
3.23716
3.30719
3.24469
3.09672
3.50803
3.29705
3.5482
3.05949
3.12847
3.20993
3.28384
3.15371
3.10644
2.99668
3.02484
2.98663
3.45045
3.3075
3.35098
3.53544
3.6583
3.82217
3.61645
3.7557
3.67413
3.92971
3.44904
3.34551
4.21328
4.30286
3.83793
4.0124
4.16416
4.0617
3.9129
3.43039
3.64128
3.62298
3.62719
3.41789
3.73813
3.75655
3.61184
3.70743
3.79967
3.89931
3.82733
4.01172
3.91204
4.06383
3.77209
3.74165
4.24913
4.24429
4.40415
3.93695
4.07648
3.87404
4.27696
4.21871
4.13835
3.84993
3.9865
3.95246
4.017
3.96572
4.18102
4.09476
4.13526
4.1618
4.06261
4.28691
4.34755
4.09725
4.2632
4.16981
4.36237
4.27604
3.67425
3.69154
3.70347
3.85834
3.73472
3.77938
3.8861
3.78147
3.90919
4.23327
4.04125
4.02545
4.23515
4.25292
4.23649
4.23309
3.85702
4.06726
3.77294
4.02436
4.13393
3.84996
4.20926
3.98595
4.16992
4.20945
3.04585
3.07519
3.07363
3.40597
3.19726
3.3087
3.37938
3.22519
3.45143
4.0048
3.70245
3.67282
3.70932
3.87535
3.50226
3.57936
4.26475
3.91937
4.15247
3.91849
3.81948
4.23056
3.99342
4.17719
3.59755
3.47893
4.70862
4.92475
4.96798
4.44842
4.73635
4.66868
4.57735
4.72681
4.51318
3.77913
4.15015
4.11738
3.67287
3.91106
3.2053
3.40672
3.68745
3.49453
3.41235
3.19728
3.0635
3.01491
3.0089
3.06789
3.02267
3.06653
3.82181
3.52495
3.67554
3.37167
3.41717
3.6492
3.19644
3.24955
3.10115
3.091
3.05845
3.19671
3.24806
3.28514
3.20504
3.60736
3.42369
3.5429
3.27424
3.33399
3.38375
4.39098
4.26153
4.35185
4.06122
4.14586
4.23973
4.06311
4.08219
3.88124
3.73238
3.74787
3.77029
3.47346
3.58963
3.41835
4.00439
3.8258
3.95726
3.70472
3.81454
3.56687
3.2179
3.18798
3.24911
3.23418
3.36338
3.29656
3.40355
3.75379
3.66786
3.41957
3.61356
3.4705
3.4671
3.32883
3.11658
3.17238
3.08641
3.44877
3.31343
3.44602
3.23875
3.21279
3.26399
3.30828
3.43076
3.405
3.23866
3.27768
3.50652
3.29537
3.54824
3.38251
3.57929
3.13113
3.23073
3.60085
3.38678
3.47895
3.38833
3.613
4.537
4.43412
4.54316
3.89543
4.16098
3.99415
3.9639
4.18827
3.90629
3.74685
3.86176
3.79413
3.43227
3.34214
3.73395
3.565
3.7432
3.63772
3.87704
4.73569
4.48853
4.55295
4.4913
4.82768
4.21362
3.97614
4.19557
4.41564
4.14618
4.21239
4.54927
4.35399
4.60842
4.63388
4.66802
3.99296
4.30266
4.07378
3.37973
3.83917
3.588
3.47911
3.68365
3.92582
4.17861
4.21149
4.17351
3.94681
4.40938
4.21344
4.34078
4.32854
4.03095
4.21996
4.09035
4.33327
4.29005
4.06087
4.32596
3.97573
3.756
4.0306
3.88264
3.79735
3.9151
4.45022
4.31903
4.41229
4.38163
4.2233
4.01757
4.11606
4.16419
4.10649
4.21054
4.15163
4.32288
4.11054
3.12752
3.333
3.22812
3.24552
3.42385
3.77326
3.95119
3.8388
3.6264
3.47291
4.21007
3.7098
4.00328
4.15949
4.08523
3.51165
3.76388
3.5878
4.42027
3.86576
4.11802
4.35038
4.37795
3.20667
3.55432
3.3533
3.39182
3.59884
4.19457
4.44973
4.37469
4.23486
3.87021
3.80582
3.80015
4.07582
4.04882
4.54828
4.30054
3.96943
3.92713
4.91535
4.4903
4.69252
4.88656
4.83728
3.96091
3.93996
4.05012
4.07042
4.25524
4.55324
4.43119
4.23435
4.10457
3.83122
3.9564
3.87026
3.69395
3.66272
3.25258
3.41573
3.69408
3.73402
3.29888
3.53492
3.42116
3.21855
3.18831
3.55665
3.38866
3.51296
