# vtk DataFile Version 4.2
vtk output
ASCII
DATASET POLYDATA
POINTS 642 double
-1.06451 2.28662 -0.408082
1.21678 2.37146 -0.384567
-1.44428 -1.65997 -0.00209566
1.11779 -1.46869 0.0694851
-0.0463312 -0.347087 1.3831
-0.00409542 1.76116 1.33831
-0.132295 -0.36523 -0.413166
-0.247346 1.86309 -1.41754
1.3085 1.3886 -0.652216
1.04006 0.764609 0.415039
-1.33517 1.27198 -0.869186
-1.1164 0.561192 0.500997
-1.39774 1.69662 0.1382
-0.618335 1.27832 1.08742
-0.552927 2.41867 0.924563
0.58355 2.42049 0.904296
-0.000652345 2.79716 -0.19139
0.933716 2.30222 -0.843626
-0.908364 2.25116 -0.998157
-1.2636 1.75282 -1.25548
-1.91402 1.98935 -0.943512
-1.35093 0.932945 -0.291136
0.598379 1.32175 1.05418
1.47979 1.77184 0.105165
-0.486327 -0.158309 1.10611
-0.0492475 0.285467 1.26047
-1.12759 -0.63985 -0.102094
-1.28638 -0.817293 0.34512
-0.264698 1.25437 -1.19871
-0.929561 0.641347 -0.710241
2.03826 2.02019 -0.868592
1.0915 1.77755 -0.948499
1.14527 -0.684727 0.415312
0.457286 -0.184702 1.04764
0.639894 -1.31587 0.956712
-0.713667 -1.2724 0.76607
0.00516502 -1.32686 0.198284
-0.699635 -0.943593 -0.145086
0.478223 -0.979215 -0.104228
0.678396 0.439759 -0.540959
0.958045 -0.524424 -0.0773932
1.33292 1.17323 -0.201306
-1.33501 2.08497 -0.139788
-0.929228 2.03423 0.567307
-0.756692 2.39214 0.244088
-0.847682 0.922908 0.745995
-0.923709 1.5323 0.707046
-1.19236 1.17479 0.292237
-0.209362 2.09019 1.22249
-0.656321 1.89001 1.12027
-0.287912 1.57466 1.23183
-0.330314 2.81106 0.466053
-0.560957 2.55941 -0.282386
0.213898 2.09434 1.21974
0.00419885 2.56131 1.04169
0.669902 2.51426 -0.289343
0.322009 2.6891 0.429597
0.82928 2.3114 0.133004
-0.460862 2.94724 -0.723952
-1.00629 2.3336 -0.770889
1.15474 2.40396 -0.661529
0.462219 2.94404 -0.716523
-0.666878 2.06422 -1.17493
-0.0656511 2.48681 -0.917918
0.456442 2.11504 -1.08775
-1.61592 2.57584 -1.24308
-1.57975 2.30465 -0.649138
-0.904464 1.78922 -1.23199
-1.34009 2.04371 -1.32251
-1.62136 1.55291 -1.02494
-1.88977 1.82326 -1.65352
-1.37251 1.56373 -1.12958
-1.8201 1.8944 -0.314922
-1.3813 1.12407 -0.621193
-1.68727 1.4992 -0.58709
-1.4893 1.37042 -0.171724
-1.26228 0.706653 0.115081
0.998749 2.0369 0.459288
1.45988 2.25113 -0.07139
0.275375 1.59382 1.2441
0.622733 1.89354 1.04461
1.26083 1.29836 0.253137
0.976109 1.57269 0.59653
0.852982 1.00712 0.661366
-0.240736 0.771158 1.13901
-0.0180404 1.19896 1.20791
-0.919133 0.126355 0.860711
-0.478158 0.446189 1.05692
-0.00363955 -0.0787235 1.79828
-0.230043 0.0764611 1.4296
-0.205573 -0.28024 1.41862
-1.29043 -0.272526 0.112506
-1.27492 -0.200124 0.488427
-1.14113 0.428795 -0.453818
-1.21381 -0.0656675 -0.152875
-1.46911 -1.28795 0.239719
-1.27256 -0.846201 0.0639485
-1.27038 -1.30061 0.0208361
-1.09881 1.3948 -1.10046
-1.15319 1.07033 -0.83764
-0.280412 1.58707 -1.33738
-0.881899 1.52921 -1.19631
-0.603661 -0.00852472 -0.526034
-0.7505 1.12597 -1.03324
-0.193672 0.674516 -0.853201
1.16132 2.09503 -0.946673
0.5906 1.82129 -1.13271
1.72836 2.55246 -0.504554
1.64845 2.50329 -1.11182
1.28415 1.61879 -0.837868
1.55589 2.01745 -0.995041
1.59329 1.66951 -0.784826
1.01501 -1.13274 0.288349
1.02332 -1.0673 0.705037
1.13086 -1.62338 0.555342
0.858951 0.175812 0.812184
0.943522 -0.521376 0.797237
1.14554 -0.0111573 0.513275
0.215805 -0.827722 0.995731
0.621135 -0.779708 0.966861
0.126236 -0.291427 1.29868
0.389208 -1.61374 0.597385
0.746831 -1.65897 0.0488732
-0.23759 -0.766532 0.976147
0.03063 -1.18458 0.797748
-0.875416 -1.49973 0.1109
-0.469997 -1.40066 0.529481
-1.21849 -1.65953 0.535644
0.39343 -1.22352 -0.00132645
0.794307 -1.33789 0.00771259
-1.08528 -1.35878 -0.0658291
-0.484428 -1.157 -0.0186715
0.20128 -0.700768 -0.266135
-0.0622613 -0.95313 -0.151128
-0.426055 -0.674333 -0.296398
0.715589 -0.864988 -0.0681797
0.890669 -1.0836 0.100628
0.306722 -0.126898 -0.456763
0.523702 -0.571552 -0.244187
1.03372 0.65991 -0.351164
0.789961 -0.15136 -0.255069
1.04422 1.11088 -0.638421
1.07274 -0.680673 0.125192
1.38114 1.30719 -0.473169
1.06385 0.281133 -0.0900732
1.15004 0.0315257 0.160994
1.2158 0.969914 0.0987305
0.125289 0.0876126 1.35587
0.4405 0.505307 1.0082
0.184287 0.837557 1.12285
-1.22545 -1.12944 0.692444
-0.64204 -0.76276 0.862166
-1.03983 -0.594621 0.710815
-0.769042 -0.522245 -0.292456
-0.977796 -0.88646 -0.0958918
-0.983234 -0.162297 -0.330679
0.923863 1.38049 -0.881425
0.336457 0.997832 -0.939267
0.512615 1.48725 -1.13133
1.57706 1.51051 -0.0892468
1.77088 1.57968 -0.485753
2.00277 2.0059 -0.224113
-1.19261 2.20985 -0.308163
-1.01687 2.17804 0.0293381
-0.915606 2.302 -0.171294
-1.18571 1.85573 0.336034
-1.14069 2.05279 0.210473
-1.45959 1.95682 0.0652386
-0.674925 2.4509 0.607683
-0.885685 2.25646 0.442482
-0.7622 2.25043 0.776728
-1.00933 0.703993 0.593444
-1.01518 1.05602 0.542044
-1.12252 0.833236 0.411756
-0.781605 1.4241 0.942115
-0.88315 1.25268 0.734539
-0.715662 1.11643 0.911415
-1.28749 1.44395 0.200087
-1.0645 1.35246 0.472088
-1.13941 1.60896 0.413014
-0.0825727 1.90333 1.3394
-0.258835 1.84638 1.26719
-0.121179 1.69869 1.33804
-0.617008 2.17349 1.05343
-0.437773 2.02434 1.21188
-0.373558 2.27496 1.12545
-0.476495 1.43029 1.21077
-0.464409 1.73579 1.21122
-0.653533 1.58925 1.12096
-0.986494 1.80052 0.680686
-0.83341 1.71535 0.953262
-0.851978 2.01343 0.917547
-0.651888 2.48912 -0.000434182
-0.835467 2.38654 -0.359981
-0.439792 2.6053 0.71813
-0.612357 2.66088 0.387581
-0.321533 2.68964 -0.231197
-0.447239 2.68746 0.0804387
-0.164664 2.81615 0.124856
0.0774694 1.90539 1.33942
-0.0010697 2.10826 1.21619
0.315646 2.55623 1.02969
0.137342 2.35681 1.21226
0.406377 2.29544 1.15389
-0.134043 2.3525 1.21239
-0.302364 2.55204 1.03741
1.01421 2.40127 -0.365578
0.757261 2.41687 -0.0738305
1.08109 2.32947 -0.224868
0.159064 2.71714 0.12839
0.476695 2.60985 0.0649646
0.342923 2.63762 -0.219041
0.71122 2.42803 0.556116
0.599739 2.54595 0.332613
0.471602 2.60444 0.698258
-0.149745 2.6896 0.776358
0.165737 2.6895 0.771065
0.0132154 2.8166 0.479352
-0.745956 2.47405 -0.559728
-1.0455 2.32151 -0.565575
-0.207177 2.69798 -0.489078
-0.482607 2.66461 -0.535992
-0.963748 2.30339 -0.904266
-0.641881 2.54332 -0.727039
-0.585367 2.51653 -0.834802
1.21009 2.40532 -0.517561
0.906937 2.47684 -0.515682
0.632881 2.52258 -0.752627
0.7326 2.53581 -0.657534
1.06941 2.36165 -0.769021
0.554195 2.64132 -0.51085
0.199744 2.69866 -0.473808
-0.433945 1.93564 -1.2827
-0.12977 2.11977 -1.16818
0.0920836 1.98794 -1.32195
-0.500232 2.42553 -0.946913
-0.368801 2.28469 -1.05081
-0.818486 2.17079 -1.08517
0.725798 2.22919 -0.941868
0.218382 2.31008 -1.03079
0.469147 2.41971 -0.882515
-0.00856651 2.67295 -0.672805
0.168085 2.59518 -0.772293
-0.253467 2.7259 -0.911569
-1.33249 2.3155 -0.766818
-1.27418 2.26581 -0.513945
-1.33099 2.26046 -1.12043
-1.36926 2.30665 -1.00974
-1.88321 2.28231 -0.782775
-1.61957 2.37169 -0.938713
-1.91414 2.31137 -1.10436
-0.572386 1.80986 -1.28469
-0.830591 1.91386 -1.22122
-1.36668 1.93565 -1.34022
-1.11906 1.91275 -1.25518
-1.12051 1.78011 -1.24561
-1.02878 2.03177 -1.20305
-1.18078 2.14737 -1.1828
-1.43352 1.40233 -0.936168
-1.4991 1.58246 -1.10922
-1.36239 1.39689 -0.983512
-1.91326 1.95505 -1.25842
-1.69719 1.78367 -1.25978
-1.86032 1.70534 -1.05924
-1.34174 1.68792 -1.22698
-1.56371 1.79244 -1.31495
-1.49655 1.87077 -1.39106
-1.47092 2.22642 -1.33735
-1.51536 2.06096 -1.61763
-1.81398 2.27062 -1.49414
-1.49528 2.25295 -0.357401
-2.02401 1.98253 -0.612741
-1.82694 2.22658 -0.434209
-1.60389 2.02749 -0.231422
-1.62963 1.79464 -0.0890464
-1.3591 1.22215 -0.784926
-1.49956 1.3794 -0.816763
-1.49429 1.26658 -0.449305
-1.52296 1.3268 -0.629073
-1.37595 1.03283 -0.455888
-1.69911 1.52791 -0.829118
-1.91035 1.69501 -0.767578
-1.24679 0.974108 0.173957
-1.18184 0.599425 0.351996
-1.49466 1.53326 -0.0298276
-1.34937 1.28168 0.0434037
-1.31236 0.825171 -0.106036
-1.35356 1.09209 -0.0576809
-1.4345 1.18551 -0.260391
-1.89854 1.64679 -0.454181
-1.60416 1.47195 -0.392655
-1.663 1.6226 -0.259119
1.15828 2.2168 -0.0517962
1.31623 2.32897 -0.283084
0.76773 2.23152 0.707502
0.908388 2.1877 0.306896
1.51794 2.01649 0.0444142
1.23463 2.07053 0.102167
1.30386 1.91019 0.276394
0.110793 1.70377 1.33808
0.258068 1.85444 1.26789
0.614423 1.61887 1.05512
0.45928 1.75416 1.20348
0.457743 1.46552 1.20408
0.452222 2.03078 1.20865
0.614052 2.16056 1.00152
1.11807 1.0202 0.335813
1.06411 1.16437 0.446737
0.984365 0.853041 0.498606
1.24172 1.66813 0.32991
1.16201 1.42781 0.38632
1.402 1.53076 0.197681
0.708702 1.1689 0.850571
0.911964 1.31238 0.627978
0.770569 1.46319 0.866764
0.770751 1.9872 0.783433
0.772881 1.73251 0.831131
1.04095 1.824 0.574469
-0.142059 1.40637 1.23552
-0.0073616 1.57163 1.33789
-0.415269 1.07866 1.1071
-0.297795 1.23631 1.21273
-0.0374342 0.693799 1.16092
-0.144486 0.970045 1.21156
-0.123653 0.472061 1.17309
-1.08311 0.371727 0.674337
-0.867026 0.52559 0.794167
-0.45801 0.103122 1.12037
-0.670457 0.295974 0.978595
-0.690557 -0.0449474 0.968545
-0.674142 0.720276 0.915732
-0.528416 0.907497 1.00956
-0.0244781 -0.358509 1.62146
-0.255107 -0.280734 1.78847
-0.113343 -0.330968 1.43438
-0.134627 0.13767 1.39147
-0.176558 0.00672582 1.62518
-0.0538354 0.0533641 1.49019
-0.322417 -0.228383 1.26233
-0.257657 -0.121909 1.51716
-0.310607 -0.0312905 1.30751
-0.346537 0.598591 1.10244
-0.306436 0.209525 1.20698
-0.208832 0.317771 1.20907
-1.27946 0.219631 0.328708
-1.24833 0.271398 0.54681
-1.26884 0.343333 -0.0692067
-1.27708 0.249604 0.112211
-1.34091 -0.546348 0.4338
-1.28435 -0.272348 0.284321
-1.39935 -0.606509 0.234187
-1.25103 1.04774 -0.733603
-1.24264 0.829901 -0.559461
-1.17404 -0.423113 -0.110302
-1.16659 0.132284 -0.281274
-1.10614 -0.23302 -0.21934
-1.24425 0.641135 -0.391944
-1.25406 0.48329 -0.232686
-1.63445 -1.59651 0.13013
-1.38739 -1.33719 0.0892091
-1.54584 -1.49912 -0.135371
-1.28314 -0.855022 0.184356
-1.26905 -1.09849 0.16617
-1.29111 -1.0853 0.288825
-1.13808 -0.981938 0.00700511
-1.21809 -1.073 0.0863545
-1.2361 -0.785466 -0.0472265
-1.28881 -0.210655 -0.035032
-1.26263 -0.548666 -0.026414
-1.3331 -0.603265 0.0800966
[...]
POINT_DATA 642
SCALARS Mean_Curvature double 1
LOOKUP_TABLE default
-0.365023
-0.318901
7.35429
10.8563
0.647388
-0.040575
0.216739
7.46879
0.758455
0.262847
1.41293
-0.246506
1.00374
2.25703
2.26874
2.78933
2.61143
0.888463
0.791312
1.0968
-0.0717299
0.9869
2.09987
-1.49085
0.0330916
-0.256551
-0.175231
-0.984568
0.992377
0.329261
4.67401
0.83418
2.76193
-0.118236
1.57419
-0.153034
0.961641
0.980294
0.758327
0.492484
0.615004
0.71891
-0.934725
-0.780139
-0.651337
-0.140712
-0.643278
0.25846
0.00869489
2.11649
-1.17755
3.08234
-0.302976
-0.45447
1.69631
-0.410848
0.838804
-0.828905
6.36314
0.523311
0.643867
6.51942
0.741837
-0.656407
0.286957
6.10714
0.511395
0.40918
1.21817
1.94605
6.01646
0.831051
2.53223
1.71173
0.179839
0.578686
0.680613
0.804002
3.04049
-0.525258
1.28608
1.17645
-0.297754
-0.0237524
-0.403565
0.1787
1.61279
0.0160664
7.99743
4.98576
2.58982
-0.173933
2.9296
1.09055
0.857636
4.98997
2.56993
-0.115896
1.18588
1.32277
0.377632
0.431199
0.530566
0.203748
0.163958
0.838763
0.846491
4.47873
5.71724
0.564539
0.180891
1.41286
-0.235212
0.499751
5.84702
2.22815
1.85067
4.26131
0.427106
-0.05752
0.314054
3.23505
5.02379
-0.0895746
0.63596
1.84101
1.07283
3.83101
1.06262
0.250193
2.07715
0.760343
0.75683
0.211209
0.789877
0.37348
-0.0892502
0.49375
0.787672
0.661854
0.590086
0.997842
-1.59057
0.588498
0.362039
3.04252
1.03927
3.05789
0.0994407
0.0871508
3.4815
0.169112
0.471795
0.878428
0.434767
1.42293
0.623139
0.241325
1.00751
-0.7926
1.4182
4.54987
-0.756252
-1.04548
-0.462054
1.35157
1.00043
4.28666
0.73299
1.75787
1.1534
0.00287275
-0.00302309
0.216739
0.944139
0.0223498
0.0653577
0.022469
-0.478018
0.121877
4.67247
-0.0426182
3.64343
2.10818
2.71227
0.647982
2.8411
1.25096
1.96403
1.68125
1.76279
3.2637
-0.401942
-0.438362
0.78778
3.47351
0.117129
0.869679
2.14547
4.6339
-2.13554
3.52897
3.34898
2.89256
3.67411
3.90374
-0.330444
-0.569951
-0.339076
-0.346292
0.904176
-0.691285
2.03227
1.3059
2.15403
1.07631
1.47734
2.50462
0.16405
0.00819932
-0.708055
0.254789
0.86219
2.15811
1.32608
0.119428
1.10646
0.65281
3.23505
1.05074
0.141509
-0.639942
0.405429
-0.690218
0.503125
0.62314
0.182136
0.404365
0.829994
1.0093
0.779592
1.01323
-0.246174
5.12013
0.368269
-0.857566
1.05136
0.572201
3.77687
1.1271
3.87689
0.966668
0.6466
1.20687
1.31016
1.24523
1.20242
1.34026
0.889928
0.327382
1.23258
2.82334
0.478065
4.20929
0.846403
1.57431
1.4557
0.736849
6.51672
4.60784
3.44243
4.34159
4.63432
0.169036
3.11826
1.50172
0.635343
0.859505
0.836458
1.32138
1.27626
2.52223
0.319441
0.0748751
1.11761
-0.00692671
0.327193
0.613989
0.572165
4.99885
-0.456095
0.290145
-0.708617
-0.555285
1.46322
-0.758141
0.449805
-1.14563
3.31131
3.46061
0.304503
0.731032
2.35887
3.47291
3.64888
1.51579
0.407049
0.429309
0.203127
-0.322871
0.128203
2.36521
-0.0543612
-0.456253
1.0834
-0.339645
-0.251363
2.48944
-0.897889
5.0045
-0.283204
1.80477
-0.420316
4.02736
-0.0801555
1.23995
0.163604
-0.144261
0.509772
0.14211
0.206429
-0.256368
8.02672
8.08605
2.53594
2.6959
7.23291
-0.50976
0.128372
3.0942
-0.245409
0.0408987
0.081921
0.000780115
1.05726
4.14234
0.573318
0.433642
3.16356
-0.653154
5.54972
1.58451
1.20676
0.597137
0.904334
1.52863
0.890631
1.03156
7.23138
-0.822693
9.60502
-0.471893
-0.12443
-0.632723
-0.363508
-0.0596198
9.43575
5.56476
2.10031
3.1284
1.41287
1.54418
1.10181
1.1544
0.642357
1.3402
0.919313
2.83234
1.24411
1.11408
1.21136
0.736792
0.417202
1.05687
0.383673
0.257427
0.224817
0.261145
0.240136
0.536196
0.765966
0.223135
0.881469
1.00933
0.342079
0.856297
0.49333
6.77376
0.89535
0.484104
0.138015
0.0798138
0.808841
-0.871994
4.55625
4.72717
4.82743
2.66847
0.826614
0.748274
0.540041
0.468324
0.165089
0.61254
0.312087
0.796693
-0.271314
-0.450715
4.56737
0.900791
6.38125
0.652164
-0.79565
3.2296
8.04988
5.22857
-1.33566
-0.907923
4.73714
-0.511677
4.53444
0.843228
0.971959
0.647183
-0.463456
-0.255825
-0.164319
-0.645037
1.48561
1.14293
0.776611
0.135829
0.336353
0.100291
-0.0237647
1.00395
0.386033
0.454298
0.116459
1.95029
3.27871
4.16789
1.59104
2.34677
5.76628
1.32054
0.858785
2.64786
0.578513
0.782102
0.383603
0.524572
-0.409313
0.253747
0.293842
1.6158
4.93223
2.03825
1.75683
0.963626
0.339766
0.754468
5.95027
3.88901
4.11317
0.162926
0.848849
1.04188
8.85085
9.26794
1.27698
2.24278
0.555597
0.853888
0.816232
3.76317
6.72247
0.789315
0.361861
0.482493
0.568265
0.895147
0.401356
0.0823194
0.412226
0.777312
0.731223
0.823519
0.995667
0.873407
0.930126
0.367104
0.858423
0.780826
-0.158274
-0.559599
0.698121
0.364023
-0.186963
0.208379
1.14152
0.360801
0.7033
0.601939
0.680486
0.477307
0.837547
0.858769
1.20934
0.828919
1.1602
0.153777
0.718399
0.375708
0.23613
0.721974
0.668897
0.746759
0.576816
0.32891
0.265122
7.73528
2.35315
-0.298486
4.89402
0.6931
1.11851
0.977386
1.16691
0.483589
0.804524
1.63041
0.0254395
0.212575
0.256866
0.870923
0.91898
0.658559
0.711678
7.69595
-0.260871
1.49096
6.17183
0.0181762
0.770238
6.8558
0.196678
0.0948142
-0.153938
0.0264026
-0.161703
0.0398458
-0.584186
-0.124255
-0.3093
2.43772
0.0873076
-0.0320508
0.917711
-0.0944402
6.01256
1.70624
2.55206
-0.789982
0.809868
0.786292
0.146864
0.533493
0.471478
-0.454213
1.1872
3.51901
0.581811
-0.486804
-0.0883951
2.43176
-0.424145
1.63327
0.624976
0.979657
0.900449
0.727208
0.957738
6.15493
0.580573
-0.302899
-0.110904
0.561611
0.73173
0.849839
0.899534
1.20184
0.504156
0.697855
0.47685
1.0049
1.00002
0.208372
0.881259
0.912927
0.787258
0.221821
0.938726
0.207316
0.156988
0.207068
3.0767
0.781584
0.92939
0.530125
0.69478
0.187845
0.950535
0.517512
0.592806
-0.354474
0.809765
0.805779
4.12781
-0.504723
2.78456
4.85971
5.63495
1.04626
0.577227
3.6173
4.15754
1.54212
2.27457
1.75698
2.3128
4.82201
SCALARS CoVolArea double 1
LOOKUP_TABLE default
0.0367825
0.0249227
0.0379523
0.022164
0.0178762
0.0183061
0.0555378
0.0474873
0.0121915
0.0341227
0.013088
0.042661
0.0800378
0.0673342
0.0802133
0.0859427
0.111514
0.0620023
0.0605525
0.0276813
0.0982795
0.0639215
0.0726414
0.065099
0.0730573
0.0324926
0.0325807
0.0489626
0.0796159
0.0695569
0.0966867
0.0334795
0.0482104
0.0756704
0.0851159
0.0723128
0.0779023
0.0339611
0.028092
0.109734
0.0427299
0.044806
0.0837918
0.0923054
0.0991948
0.0875829
0.0829505
0.0773956
0.0536076
0.0717239
0.0541285
0.110296
0.0867656
0.0563835
0.0854913
0.090143
0.104257
0.0921915
0.103066
0.0691164
0.0558038
0.115711
0.0795418
0.105258
0.0954915
0.113066
0.0848012
0.035461
0.0474721
0.0514288
0.114533
0.030883
0.0877149
0.0500368
0.061845
0.0567838
0.0877435
0.0921651
0.0744119
0.0521449
0.0694076
0.0512718
0.0855101
0.0888287
0.0610543
0.0559848
0.103049
0.0787577
0.0597364
0.0355909
0.0493456
0.0721625
0.0866497
0.0550043
0.0585003
0.0628338
0.0290021
0.0316458
0.0275287
0.0372491
0.0735608
0.030832
0.108885
0.0705952
0.16091
0.0398995
0.0640619
0.0927276
0.0965836
0.0286561
0.0473075
0.0370614
0.0365018
0.0665216
0.0972822
0.0951037
0.0650524
0.0829382
0.0555538
0.0626549
0.0481851
0.108573
0.0758798
0.0663038
0.070705
0.0768528
0.0842326
0.107599
0.0429381
0.0339573
0.0367533
0.053079
0.0455776
0.0505822
0.0493034
0.0296987
0.0270227
0.103387
0.0397293
0.0623215
0.0621191
0.0511752
0.0346769
0.0380964
0.0650831
0.074086
0.0552813
0.0401705
0.0915811
0.0629941
0.0697176
0.0644289
0.0740893
0.0429381
0.0286344
0.0496823
0.0528693
0.119149
0.0699089
0.0462058
0.0543745
0.0964534
0.0657675
0.0956562
0.0788307
0.0909566
0.0941684
0.0829935
0.0881942
0.0943581
0.0841996
0.0729842
0.0826846
0.0662579
0.0714475
0.0793868
0.0764963
0.0754943
0.0838065
0.0880822
0.0357606
0.0497934
0.0368308
0.0746231
0.0616139
0.0682082
0.0613582
0.0599587
0.0661308
0.0906081
0.0784864
0.085111
0.0954561
0.0701419
0.0932858
0.100628
0.0929403
0.10225
0.113501
0.0362053
0.0520033
0.0886926
0.0706989
0.0737652
0.0683309
0.0841247
0.0549394
0.0897302
0.0591816
0.113338
0.104098
0.105277
0.0933069
0.0994567
0.0954735
0.0984072
0.0987232
0.11189
0.0723215
0.0580426
0.0973673
0.0811955
0.0561323
0.0666839
0.0734751
0.0410559
0.0624034
0.0887457
0.065035
0.0533249
0.0939358
0.109535
0.0746781
0.120018
0.0970653
0.0833859
0.106773
0.0667514
0.0705254
0.113797
0.0908613
0.101838
0.105026
0.100484
0.0710496
0.0581554
0.0640654
0.069384
0.100195
0.0912112
0.119352
0.043854
0.0468498
0.0365859
0.0350983
0.0285055
0.0476517
0.0538551
0.0258625
0.0365775
0.0210641
0.112393
0.0688226
0.0760856
0.0295094
0.0467347
0.0563277
0.0898737
0.0946598
0.145347
0.0784006
0.10728
0.0998649
0.0788662
0.0717234
0.0317124
0.0421463
0.0490113
0.0488865
0.0558018
0.0607803
0.0872704
0.0719233
0.0721596
0.0658842
0.0637554
0.0771298
0.0625511
0.0546408
0.0833735
0.056572
0.0669365
0.0762804
0.0510402
0.0881899
0.0918732
0.0749007
0.0815406
0.0807959
0.0359919
0.0496446
0.0673471
0.0585692
0.0614253
0.0628473
0.0755811
0.0449111
0.0680045
0.0639191
0.0768751
0.0705433
0.05522
0.0843845
0.0826308
0.0790953
0.0846039
0.0812512
0.0903187
0.0533611
0.0382969
0.0687712
0.0625492
0.0487213
0.0587736
0.0440486
0.0826936
0.0980467
0.0702514
0.0948764
0.0906555
0.0919773
0.0775579
0.0456748
0.0635908
0.0373515
0.0303907
0.0455637
0.0334166
0.0564557
0.0466299
0.0492558
0.0659416
0.0524041
0.0433637
0.0990948
0.0814441
0.0847013
0.0973629
0.0629205
0.0818903
0.0542539
0.0344162
0.0543953
0.0394196
0.0565949
0.0441631
0.064939
0.0739276
0.0785028
0.0517845
0.0524708
0.0364239
0.0319723
0.0423765
0.0288022
0.0279465
0.0311675
0.0639095
0.0390262
0.0434231
0.0268049
0.0248372
0.0232409
0.0257495
0.0486036
0.0313943
0.0444803
0.0644749
0.0474181
0.0536199
0.0460802
0.0717046
0.0297393
0.0235115
0.100295
0.16153
0.147949
0.0737519
0.117264
0.0905307
0.0993938
0.117689
0.070613
0.0266508
0.0415151
0.040808
0.0707273
0.0795648
0.0451418
0.0512621
0.0441023
0.0445791
0.0381695
0.0501028
0.070949
0.126111
0.115261
0.115073
0.0694203
0.0498231
0.0216279
0.0306738
0.0223005
0.0331072
0.0324813
0.0287424
0.0562316
0.0416385
0.0813909
0.0561033
0.0885965
0.0430855
0.0362605
0.0633361
0.0604096
0.0552812
0.0517755
0.0394402
0.104824
0.0787131
0.0804551
0.0725033
0.0831803
0.0674157
0.0734221
0.0764217
0.0879988
0.0631362
0.0680368
0.0583777
0.0411085
0.0524151
0.0345224
0.0659702
0.0578157
0.058459
0.0587292
0.0594864
0.0664045
0.064657
0.0666842
0.0692881
0.0877951
0.0489086
0.110568
0.113128
0.0753912
0.0991593
0.0916787
0.0443106
0.0633638
0.0680532
0.0721672
0.0662728
0.0634593
0.0721434
0.058852
0.0956421
0.0777176
0.0831849
0.09106
0.0762135
0.107929
0.108907
0.0806196
0.0881332
0.0776276
0.0885636
0.0538084
0.0347936
0.0610968
0.0503273
0.0273275
0.0327338
0.0347954
0.0396598
0.0502229
0.0413667
0.0410207
0.0341648
0.0586126
0.0671275
0.0536367
0.0556806
0.0557081
0.0375819
0.047174
0.0325004
0.0373846
0.0503077
0.0444055
0.0565909
0.052594
0.0467059
0.0273405
0.025855
0.0264674
0.0260256
0.0313463
0.0291628
0.0351863
0.0940196
0.0566551
0.0705303
0.0567069
0.108987
0.0369705
0.0292264
0.03378
0.054258
0.0285642
0.0498854
0.0646582
0.0603392
0.0794429
0.0702502
0.0802928
0.0332047
0.0519394
0.041533
0.0277098
0.0385767
0.0279265
0.0298599
0.0381177
0.025182
0.0473098
0.0574162
0.0516052
0.041447
0.0648909
0.0575387
0.0777041
0.0513865
0.0567433
0.0806995
0.0485831
0.0729762
0.0660836
0.0554471
0.06972
0.0530915
0.0461193
0.0583797
0.0438877
0.0393807
0.0318462
0.097394
0.0865038
0.0987641
0.101346
0.0826455
0.0515678
0.0438727
0.056606
0.060469
0.072653
0.0642958
0.0768497
0.0498511
0.0901698
0.0833098
0.0915616
0.0640964
0.0556508
0.0508727
0.0744941
0.0601017
0.0587947
0.0628414
0.0948529
0.0601502
0.0745154
0.0909959
0.08556
0.0688748
0.0742932
0.0664333
0.0629225
0.0330528
0.0414253
0.0631432
0.0653773
0.0346731
0.0284803
0.0257684
0.030905
0.0308072
0.0455918
0.0615409
0.0523646
0.0503958
0.0371543
0.0343436
0.0359754
0.0487611
0.0329009
0.0916919
0.0505584
0.0335355
0.0371146
0.156887
0.0931121
0.130206
0.143667
0.135083
0.0866056
0.0478787
0.0647494
0.0816377
0.0832766
0.092953
0.0845212
0.0601138
0.0451256
0.0408489
0.0411224
0.0432244
0.0549775
0.0346204
0.0671201
0.0470718
0.0424821
0.0430598
0.0746922
0.0810825
0.0905713
0.0938034
0.090129
0.0543663
0.0765071
0.0728394
SCALARS SignedDistance double 1
LOOKUP_TABLE default
1.24533
1.19477
0.00977913
-0.335193
1.13054
0.00398411
1.65334
0.0748811
1.19514
1.28901
1.35541
1.14311
0.0206135
0.10231
-0.0262121
-0.0313182
0.0321576
1.4692
1.4492
1.34136
0.00489053
1.48154
0.0736611
0.726603
1.27905
1.10965
0.777511
0.180499
1.38858
1.76463
-0.0415121
1.41158
0.0240381
1.32071
0.0260166
0.913287
1.5425
1.22586
1.33941
1.55513
0.337421
1.2078
0.64041
0.0415907
0.183744
1.24098
0.579631
1.23226
-0.0179427
0.0179591
0.0928815
0.0151362
1.15281
-0.0159804
0.00327755
1.23819
-0.00331309
1.13049
-0.0370022
1.3325
1.284
-0.00598499
1.45811
0.979465
1.18521
-0.489193
0.0151232
1.58102
1.24907
0.130016
0.0418589
1.18585
0.132449
1.38334
0.2439
0.855784
1.39196
0.0596386
0.0883199
0.0506966
0.0144508
0.319335
0.437731
1.2573
1.03583
0.163636
0.0767752
1.16924
0.0663047
0.0248724
0.444061
0.186435
0.0182516
1.54957
1.04608
0.0532755
0.0515501
0.241002
1.49187
1.58295
0.894863
1.62217
1.54261
1.71345
1.64428
1.38354
1.27824
-0.0479547
-1
1.22023
0.906089
0.194874
0.29093
-0.00776939
0.00115833
0.0754958
0.168902
0.00920205
1.29306
0.236855
0.997586
0.103447
-0.00691651
1.57024
1.41653
0.379555
1.23462
0.0110251
1.3492
1.11503
0.110242
1.35795
1.55167
1.69953
1.52366
1.16789
1.11419
1.49206
1.31589
1.56906
1.26661
1.49207
0.563116
1.17115
1.19453
0.0778801
1.37885
0.233707
1.02506
0.714381
0.0020701
1.25429
0.221804
1.32743
0.768017
1.26839
1.55715
1.58221
1.34011
0.31027
0.0036025
-0.0164069
0.986778
1.13366
0.937776
0.0280229
0.0819801
0.0556538
0.0083448
0.0281333
0.0241054
1.17399
1.28407
1.31974
0.120586
0.615202
0.806899
0.388036
1.16152
0.19058
0.0215238
0.00740671
-0.000285463
0.0308385
0.0241724
-0.0100483
0.0101094
0.0149593
0.024219
0.0076436
-0.0127942
-0.0410921
0.291132
1.27009
-0.0062863
0.0111287
0.0409274
-0.0155301
-0.00382413
0.0218366
0.0239602
-0.0128351
0.0322061
-0.12089
0.0346199
-0.0124975
1.36049
1.17967
1.29308
0.0738717
0.173079
0.657291
-0.00190516
0.0169689
-0.038942
0.0129678
0.0125079
0.00329021
1.22831
1.29294
0.169417
0.697737
1.38868
0.602131
0.999235
1.22101
1.33501
1.05676
0.713139
1.38989
0.78952
0.195385
1.26066
1.1025
0.0451601
1.21608
1.18104
1.53666
1.38662
0.204988
1.14651
0.118222
0.630961
0.221549
0.305733
1.09974
1.135
0.875475
-0.00532671
0.366549
0.0188893
1.37067
1.59051
1.23107
1.43296
1.44662
1.45894
1.30833
1.21572
0.66615
1.26434
0.00387891
0.270871
-0.0137355
1.27248
0.413391
0.686005
1.09911
0.353981
-0.00127457
-0.129348
0.00369983
0.0904368
-0.0129188
0.0154922
1.35764
1.19514
1.21897
1.15449
1.44154
0.269561
-0.0518007
1.39676
1.21147
0.135514
1.1631
1.54044
1.32326
1.26931
-0.215977
0.961291
0.0617891
1.20073
0.601898
0.076333
0.587972
0.0554784
1.00192
0.0505456
0.000247454
0.0011178
0.0254258
0.0026313
-0.000649125
0.0165491
-0.0410661
1.33066
1.21111
1.30506
0.238166
0.292707
0.00914078
0.74888
1.12677
0.141887
0.120647
0.170022
0.0506775
0.166648
-0.00243284
0.955767
0.0494785
1.14205
0.0561095
1.19573
0.164952
0.672952
1.22203
0.477744
1.05611
0.81456
1.01206
0.120881
0.0466068
0.619871
0.199266
0.134238
0.299558
1.16468
0.106331
1.05287
1.0763
1.09992
1.13194
0.111405
0.00864685
1.25482
0.638823
0.0932027
0.189548
0.00850691
1.52633
1.65103
0.556456
1.29229
0.642708
1.63543
1.44319
-0.850649
0.23216
0.048583
0.161539
0.807904
0.32685
1.07773
1.00714
0.0265672
0.0966793
0.0900946
0.0114121
1.36529
1.43874
1.39301
1.34831
1.71961
1.50156
1.63698
0.197418
1.45418
1.53661
1.49317
1.2379
1.58934
1.47908
1.56691
1.66593
1.56598
1.7231
1.72003
1.63207
1.58044
1.66796
1.61637
1.5408
1.70624
1.64503
1.26704
-0.0318602
1.40721
1.49652
1.52163
1.51694
1.38655
0.698301
0.0905001
-0.00912594
-0.139156
0.130361
0.794815
1.19691
1.16364
0.661122
0.887216
1.26223
1.17504
1.30103
0.149694
0.804489
0.00809763
1.15167
0.259659
1.18375
0.598538
-0.0712047
-0.218118
0.0107436
0.278876
0.20809
0.0324108
0.0143362
-0.133248
0.470141
0.0665248
0.44885
1.2078
1.10904
1.1521
0.225969
0.0428081
0.174006
1.35321
1.42081
1.13178
0.0610861
0.670154
0.217481
1.26848
1.33718
1.23583
0.00409804
0.107837
0.0180243
0.00301359
-1
-0.154311
0.0059231
1.13451
-0.0116763
1.29396
1.32038
1.49466
1.37756
1.54695
1.34672
1.28827
0.378098
-0.0113575
-0.00959256
0.0126744
1.4897
1.13309
1.31227
-0.257482
-0.0380959
0.448344
1.18767
1.48162
1.42833
0.146397
0.124756
1.39473
0.451729
1.24792
0.964953
1.33917
-0.693505
0.0843174
1.27168
1.18213
1.15593
1.19926
1.51436
1.66466
1.724
1.63951
1.46488
1.61766
1.44204
1.38052
1.575
1.4049
1.63442
1.52849
1.52251
1.15821
1.11395
1.25247
1.20778
0.601783
0.975649
0.396326
1.59472
1.49959
1.36223
1.37795
1.50148
1.4119
1.33184
1.31974
1.5645
1.29852
1.15996
1.30025
1.17208
1.62848
1.52976
1.39909
1.22103
1.25414
1.15969
0.593829
0.00245636
0.118796
0.20911
-0.00779699
1.11188
1.35742
1.50494
1.41034
1.20387
1.36767
0.272922
1.15329
1.39379
0.0584673
0.0672446
1.27148
1.30346
1.46443
0.0182222
0.947748
0.0305017
0.100667
1.18624
0.324984
0.129144
0.635811
1.08884
0.800627
1.17558
1.11788
1.19935
0.115415
1.17867
0.718608
0.0314001
0.351528
1.18573
0.439737
1.17855
-0.138052
-0.00813787
-0.00174964
0.424578
0.0220394
1.34093
1.3935
1.42426
1.41342
1.16838
0.0594567
-0.0101052
0.0817608
1.09162
1.25058
0.0940502
1.13515
0.0565265
1.49706
1.26654
1.39855
1.41092
1.44297
0.0393932
0.588845
1.16392
1.15226
1.08352
1.72461
1.52559
1.67327
1.37001
1.15879
1.20521
1.19497
1.28908
1.31474
1.59138
1.49292
1.37124
1.46271
1.55847
1.48214
1.6254
1.61219
1.60025
0.0497545
1.54404
1.28793
0.638301
1.26552
1.58826
1.46008
1.57563
1.18724
0.969386
0.551107
0.149222
0.00995578
0.763538
0.102007
-0.0286314
0.0339902
0.320374
0.0574757
-0.0687687
-0.0140206
-0.0535045
-0.0179125
0.0620036
0.0286401
0.0626122
