# vtk DataFile Version 4.2
vtk output
ASCII
DATASET POLYDATA
POINTS 642 double
-1.05034 2.23799 -0.410085
1.20903 2.31632 -0.388923
-1.4288 -1.66239 0.000403955
1.01845 -1.44914 0.131555
-0.0467927 -0.281158 1.33604
-0.00407096 1.75389 1.33812
-0.135442 -0.294198 -0.260551
-0.252874 1.86448 -1.40579
1.25117 1.44841 -0.574809
0.972253 0.774598 0.377252
-1.23115 1.35843 -0.75264
-1.06479 0.551392 0.470389
-1.39178 1.69364 0.144485
-0.615554 1.26859 1.07645
-0.560175 2.41642 0.923421
0.592421 2.41659 0.900978
0.00185846 2.79316 -0.197349
0.943929 2.21181 -0.727642
-0.905813 2.15292 -0.895251
-1.29072 1.78908 -1.11585
-1.91399 1.98406 -0.939023
-1.20075 0.968873 -0.266905
0.597422 1.31253 1.04358
1.46967 1.76899 0.107534
-0.441655 -0.142995 1.04247
-0.0472397 0.280187 1.19727
-1.11312 -0.627785 -0.0742328
-1.27945 -0.808631 0.351869
-0.255327 1.32333 -1.07172
-0.855622 0.716676 -0.557111
2.03753 2.00245 -0.859607
1.05711 1.79358 -0.810727
1.14333 -0.674208 0.415608
0.416995 -0.176353 0.988188
0.634103 -1.29793 0.956108
-0.709394 -1.24264 0.720988
0.0242529 -1.19201 0.287315
-0.685896 -0.888513 -0.0372383
0.462035 -0.92145 0.0219761
0.607634 0.495582 -0.401808
0.945802 -0.513688 -0.0642969
1.24438 1.23064 -0.186387
-1.32305 2.06906 -0.144129
-0.931632 2.03099 0.562438
-0.755124 2.37816 0.236685
-0.799286 0.912661 0.698323
-0.905592 1.53155 0.691416
-1.12586 1.17213 0.259861
-0.209869 2.08128 1.22729
-0.657705 1.88182 1.11836
-0.286499 1.57014 1.22715
-0.332037 2.80999 0.460583
-0.545198 2.5333 -0.278012
0.214117 2.0847 1.22429
0.00431204 2.56104 1.04193
0.645739 2.46702 -0.286841
0.324927 2.68874 0.423168
0.813086 2.28237 0.12441
-0.470617 2.94651 -0.719561
-0.983357 2.24414 -0.732109
1.14098 2.29837 -0.605787
0.469045 2.94238 -0.719313
-0.652242 2.00221 -1.05199
-0.0648141 2.46294 -0.888898
0.410957 2.0888 -1.03755
-1.62788 2.36312 -1.17849
-1.56869 2.30344 -0.63983
-0.873 1.78784 -1.0577
-1.4128 2.01232 -1.20485
-1.60643 1.5459 -1.01036
-1.86994 1.80339 -1.63957
-1.36014 1.61052 -1.04283
-1.79688 1.88414 -0.314262
-1.23458 1.20118 -0.542738
-1.66916 1.49588 -0.582312
-1.43307 1.39075 -0.176636
-1.15437 0.701261 0.0969765
0.999178 2.03348 0.457985
1.44236 2.23851 -0.0748831
0.27439 1.58847 1.24066
0.625586 1.88512 1.0402
1.23638 1.29379 0.249618
0.960317 1.57316 0.582533
0.799309 1.00464 0.609325
-0.229695 0.766418 1.1006
-0.0199447 1.19851 1.20022
-0.917685 0.131653 0.85755
-0.453122 0.446425 1.00035
0.00941728 -0.0698812 1.77596
-0.239508 0.0888667 1.40042
-0.189198 -0.256034 1.37347
-1.28055 -0.259537 0.112448
-1.27387 -0.188842 0.489272
-1.02924 0.480713 -0.345197
-1.16192 -0.0439389 -0.119385
-1.43697 -1.27522 0.242916
-1.27439 -0.835568 0.0720069
-1.24484 -1.28317 0.0357583
-1.05013 1.47586 -0.946156
-1.04423 1.15488 -0.688964
-0.268689 1.60912 -1.28545
-0.84362 1.57841 -1.0282
-0.566134 0.0595868 -0.368711
-0.702521 1.20162 -0.873786
-0.196207 0.741302 -0.694238
1.14889 2.05891 -0.803013
0.510283 1.81699 -1.04225
1.71495 2.54789 -0.488427
1.65581 2.39507 -0.997916
1.25095 1.65373 -0.741576
1.555 2.01595 -0.934823
1.57771 1.66531 -0.766978
1.00505 -1.12368 0.299078
1.02478 -1.05814 0.708915
1.13478 -1.61896 0.552741
0.855788 0.184239 0.810167
0.930913 -0.512475 0.782823
1.14596 0.00120588 0.51094
0.214682 -0.793274 0.931297
0.614117 -0.768071 0.956966
0.0928718 -0.252933 1.2605
0.377914 -1.59138 0.586952
0.734476 -1.65903 0.0543766
-0.21524 -0.719071 0.890043
0.0441626 -1.11822 0.722965
-0.882059 -1.46968 0.136084
-0.49729 -1.27823 0.50438
-1.21436 -1.65991 0.535711
0.398031 -1.14956 0.126603
0.774798 -1.32821 0.076844
-1.07018 -1.33212 -0.0573531
-0.490161 -1.06814 0.09796
0.178279 -0.629411 -0.12286
-0.0680737 -0.867723 -0.00962239
-0.409265 -0.602648 -0.149443
0.694812 -0.834485 0.00218284
0.87364 -1.07763 0.143219
0.266896 -0.0661097 -0.306968
0.487183 -0.521246 -0.12156
0.919989 0.69663 -0.25332
0.732878 -0.114056 -0.153455
0.940595 1.17327 -0.514694
1.07012 -0.671029 0.127125
1.3026 1.36711 -0.426556
0.989188 0.297609 -0.0427104
1.1465 0.0422542 0.160797
1.11394 0.997794 0.0830129
0.119644 0.0879383 1.31437
0.416681 0.508045 0.966845
0.181032 0.839167 1.09276
-1.22112 -1.11693 0.695115
-0.624567 -0.740832 0.78356
-1.03162 -0.583055 0.701958
-0.733638 -0.46823 -0.163917
-0.963615 -0.864765 -0.0647594
-0.924975 -0.116728 -0.223959
0.853142 1.43911 -0.744285
0.289316 1.06749 -0.796776
0.446698 1.53016 -1.02012
1.55468 1.50903 -0.0836467
1.76073 1.56848 -0.48306
2.00137 1.99819 -0.215776
-1.18252 2.17727 -0.311427
-1.00753 2.15775 0.0236332
-0.902338 2.27007 -0.175399
-1.18275 1.85595 0.337172
-1.13731 2.04974 0.209388
-1.44947 1.95401 0.0669109
-0.68025 2.44629 0.602571
-0.88855 2.25131 0.435707
-0.765069 2.2454 0.771142
-0.956145 0.685759 0.551179
-0.953049 1.04598 0.498021
-1.04627 0.819348 0.3719
-0.777875 1.41585 0.932953
-0.857021 1.24704 0.710634
-0.685503 1.11266 0.875843
-1.26779 1.4425 0.195004
-1.02244 1.35248 0.442447
-1.13269 1.60998 0.408546
-0.0824302 1.89423 1.33936
-0.257548 1.83911 1.26824
-0.121356 1.6924 1.33778
-0.61949 2.16697 1.05069
-0.43679 2.016 1.21175
-0.376862 2.26839 1.12803
-0.475248 1.42229 1.20997
-0.462731 1.72831 1.21076
-0.65378 1.58043 1.11745
-0.990254 1.79732 0.675652
-0.837307 1.70659 0.950136
-0.8595 2.00859 0.914856
-0.645332 2.47064 -0.00569542
-0.815308 2.34029 -0.356972
-0.444487 2.60459 0.715476
-0.618932 2.65362 0.378576
-0.318217 2.68926 -0.233277
-0.450014 2.68595 0.0717761
-0.163117 2.816 0.11739
0.0772359 1.89611 1.3394
-0.0011348 2.09827 1.21956
0.319273 2.55623 1.02976
0.137107 2.34701 1.21225
0.412695 2.28967 1.16135
-0.134321 2.34234 1.21226
-0.3062 2.55135 1.03803
0.993036 2.33637 -0.368231
0.735294 2.37902 -0.076104
1.06806 2.28111 -0.234854
0.159043 2.71249 0.122712
0.473102 2.59692 0.0593731
0.331185 2.61264 -0.221527
0.718037 2.42291 0.547518
0.602901 2.54245 0.323428
0.477661 2.60649 0.692204
-0.15028 2.68957 0.773412
0.167224 2.68947 0.766711
0.0154578 2.8166 0.473877
-0.716349 2.41722 -0.548518
-1.02781 2.25468 -0.558914
-0.195657 2.69025 -0.480817
-0.456665 2.62659 -0.532738
-0.948024 2.20307 -0.829814
-0.606854 2.49478 -0.700804
-0.54685 2.46325 -0.77436
1.19832 2.32572 -0.509561
0.867738 2.39237 -0.501462
0.60014 2.47506 -0.700665
0.655329 2.47347 -0.623717
1.06775 2.26033 -0.673628
0.53178 2.59392 -0.506548
0.190387 2.69009 -0.468776
-0.404187 1.90585 -1.19782
-0.118027 2.09566 -1.13327
0.0790796 2.00022 -1.31297
-0.46314 2.37627 -0.873081
-0.351229 2.24129 -0.986184
-0.819664 2.08512 -0.962476
0.697985 2.16605 -0.835902
0.216635 2.30272 -1.0265
0.444545 2.37637 -0.825099
-0.0118398 2.67116 -0.665079
0.158717 2.57976 -0.750661
-0.24008 2.68182 -0.887918
-1.32725 2.29968 -0.751419
-1.26195 2.23406 -0.508233
-1.35638 2.18899 -1.04847
-1.37579 2.25914 -0.977674
-1.88188 2.28347 -0.77788
-1.61251 2.33969 -0.928489
-1.9132 2.31002 -1.09589
-0.515902 1.79501 -1.16784
-0.806721 1.87857 -1.05983
-1.42795 1.9477 -1.22101
-1.13748 1.89396 -1.07883
-1.13534 1.80137 -1.07284
-1.05213 1.97228 -1.04137
-1.23168 2.07299 -1.06251
-1.37751 1.48316 -0.857677
-1.48604 1.58963 -1.0759
-1.30845 1.48674 -0.882529
-1.91321 1.94913 -1.24484
-1.68809 1.78767 -1.22309
-1.85823 1.69712 -1.05328
-1.34619 1.73158 -1.11214
-1.55894 1.80815 -1.25477
-1.51075 1.89015 -1.30139
-1.50271 2.16753 -1.27066
-1.52049 2.04685 -1.51539
-1.80897 2.27631 -1.49384
-1.47681 2.25292 -0.34599
-2.02116 1.97396 -0.606517
-1.80934 2.21807 -0.428158
-1.59362 2.02487 -0.220619
-1.62204 1.78987 -0.0819727
-1.23608 1.30751 -0.679706
-1.43025 1.4541 -0.761366
-1.39563 1.32833 -0.437884
-1.44211 1.38962 -0.599235
-1.22105 1.09253 -0.407935
-1.67532 1.53494 -0.816656
-1.90859 1.68173 -0.765146
-1.14969 0.973361 0.143316
-1.10764 0.584827 0.32588
-1.4797 1.52929 -0.0259694
-1.2869 1.29177 0.0267795
-1.17815 0.840841 -0.106223
-1.2467 1.11262 -0.0740773
-1.32533 1.22756 -0.261142
-1.84278 1.65803 -0.463007
-1.5638 1.4904 -0.389511
-1.65234 1.61642 -0.248079
1.14891 2.18543 -0.0631151
1.30813 2.30149 -0.287305
0.767534 2.22103 0.698569
0.897142 2.1669 0.298855
1.5036 2.01046 0.0475329
1.22721 2.05495 0.0919934
1.29887 1.90841 0.276731
0.110709 1.69727 1.33782
0.256848 1.84615 1.26936
0.616671 1.61141 1.051
0.459413 1.74538 1.20321
0.459187 1.45656 1.20264
0.452565 2.02021 1.20835
0.622109 2.15309 1.0001
1.04399 1.02883 0.299394
1.01037 1.1648 0.408274
0.918973 0.850379 0.450259
1.22868 1.66738 0.323441
1.14921 1.42418 0.381469
1.39525 1.52345 0.208003
0.683114 1.16783 0.820925
0.876017 1.31462 0.595273
0.766241 1.45866 0.856658
0.76828 1.98081 0.774715
0.767795 1.7282 0.821914
1.03871 1.82273 0.572763
-0.141998 1.4043 1.22699
-0.00739768 1.56705 1.33747
-0.400997 1.07755 1.07674
-0.296437 1.23097 1.21032
-0.0364465 0.665812 1.1121
-0.14496 0.966782 1.20923
-0.118482 0.448238 1.10252
-1.07317 0.378254 0.665798
-0.845336 0.520705 0.761832
-0.42224 0.101483 1.05991
-0.663594 0.298855 0.957953
-0.663916 -0.0344747 0.918198
-0.65189 0.717722 0.876059
-0.508454 0.910651 0.970312
-0.0161759 -0.348169 1.57499
-0.260676 -0.280528 1.75259
-0.105834 -0.274281 1.375
-0.138108 0.134495 1.36309
-0.174435 0.0073537 1.57715
-0.0514356 0.0569267 1.46839
-0.280076 -0.203214 1.21448
-0.25542 -0.109157 1.47271
-0.282773 -0.0250657 1.25996
-0.324642 0.599201 1.04692
-0.278197 0.205405 1.14652
-0.198066 0.310864 1.13603
-1.27403 0.231977 0.323871
-1.24785 0.285668 0.54396
-1.17754 0.362676 -0.0468707
-1.23136 0.260294 0.115512
-1.32785 -0.534722 0.434109
-1.27528 -0.259621 0.285471
-1.39986 -0.596421 0.234544
-1.11161 1.11492 -0.605375
-1.09593 0.882611 -0.448113
-1.16102 -0.414502 -0.0904074
-1.08777 0.16726 -0.219533
-1.08585 -0.220516 -0.191025
-1.10542 0.678907 -0.310838
-1.13111 0.504178 -0.178458
-1.42505 -1.52018 0.126771
-1.36305 -1.31566 0.099123
-1.52968 -1.4784 -0.141085
-1.27749 -0.843912 0.190278
-1.24259 -1.07767 0.185898
-1.27527 -1.06885 0.297628
-1.11729 -0.995868 0.0460866
-1.19379 -1.05387 0.117444
-1.2351 -0.779999 -0.0471959
-1.28146 -0.199381 -0.0299594
-1.2607 -0.537674 -0.0233654
[...]
POINT_DATA 642
SCALARS Mean_Curvature double 1
LOOKUP_TABLE default
-0.582817
-0.371654
12.1216
2.34117
-0.149489
-0.0419598
0.251392
9.01531
0.563136
-0.317407
1.07002
-0.62609
1.39166
2.90603
2.36353
2.78299
2.80823
0.274801
0.539888
0.603094
-0.0692995
1.00104
2.57717
-1.69565
-0.35863
-0.655353
-0.919253
-1.12874
0.842104
0.203581
4.80792
0.735203
3.00198
-0.390267
1.91096
0.215012
0.673759
0.196959
0.259763
0.32885
1.30989
0.261149
-1.20417
-0.809482
-0.729508
-0.65568
-0.953015
0.0919361
0.20895
2.06557
-1.33886
3.04388
-0.387556
-0.318678
1.76549
-0.475489
0.898162
-1.05684
6.30252
0.513774
0.771184
6.34205
0.617451
-0.835223
0.394342
5.85882
1.04732
0.44854
0.422228
4.26578
6.06082
0.963724
2.32787
1.12563
2.50099
0.644331
0.333053
1.26066
3.17276
-0.623424
1.31341
2.63132
-0.443534
-0.52231
-0.657195
0.341424
2.44111
-0.713352
7.99794
8.24654
5.64383
-0.729123
3.22803
0.501981
-0.167716
5.85643
3.89532
-1.67132
1.12774
0.963459
1.23227
0.420695
0.428132
0.287021
0.217567
0.615572
0.65073
4.66837
2.73748
0.259931
1.39287
2.89278
0.602804
0.751615
5.80481
3.3949
1.89522
4.42665
0.189046
0.865895
0.953606
4.3193
6.01165
-0.229918
0.34918
2.32899
0.9359
3.85566
0.24966
-0.555205
3.76085
0.512054
0.65788
0.0475019
0.59935
-0.547225
-0.783312
0.404612
0.345157
0.288219
0.0135041
0.487312
-2.23888
0.0754337
-0.0184126
5.99484
0.316775
5.12827
0.0694736
-0.00651064
3.67336
-0.236926
1.15498
0.287784
2.08798
0.199822
0.324161
0.194764
0.823029
-0.803069
1.67341
4.53061
-0.914593
-1.25135
-0.448968
1.49874
1.22669
4.31458
0.767445
1.89653
1.04326
-0.363453
-0.490616
-0.106765
1.35433
0.35369
-0.384129
0.79419
-0.961903
0.550152
4.62842
0.019818
3.76167
1.98296
2.61197
0.726805
3.01891
1.30967
1.97376
1.96215
1.99775
3.38238
-0.449634
-0.626507
0.838828
3.46094
0.603895
1.12385
2.19335
4.5888
-2.12186
3.48411
3.08988
3.09855
3.45127
3.89326
-0.311381
-0.73474
-0.427703
-0.311223
1.07657
-0.944529
2.23163
1.59219
2.23599
1.06062
1.41994
2.51324
-0.170185
-0.201009
-0.497954
-0.352493
0.755337
4.15738
0.483914
0.240426
0.500258
2.07635
2.46347
0.922117
0.574241
-0.376761
0.213923
-0.841355
1.52735
0.161417
0.141111
0.25533
0.386363
2.74986
-0.167451
1.95306
-0.138133
5.20477
2.03158
-1.15211
0.27446
2.43767
4.01486
1.49325
4.79137
0.623777
0.607975
0.343554
0.943307
0.97691
1.03617
0.708308
0.326141
4.00088
0.784478
2.96484
0.52398
4.64331
0.402632
3.31305
1.59545
1.21967
7.0365
5.54306
4.05971
4.48381
4.43346
0.576182
3.29745
1.23964
0.114312
0.467276
1.19286
1.02674
1.41886
3.20528
0.0397454
-0.510236
2.09518
-0.0903149
0.165392
0.442196
0.227563
4.06024
-0.649989
1.64332
-0.833281
-0.0755872
1.23441
-1.12358
0.49435
-1.29721
3.72168
3.55622
0.381342
0.886846
2.38696
3.63946
3.4341
1.68011
-0.19024
-0.0276399
-0.274324
-0.770498
0.837054
3.16963
-0.0513213
-0.886215
1.56943
-0.500573
-0.356317
2.85758
-1.28467
5.35999
-1.14615
2.45022
-0.898257
6.13349
-0.750847
1.88086
0.030549
-0.701812
1.5045
-0.227974
0.474076
-0.347442
8.45996
7.82907
-0.339421
2.62413
6.28922
1.46769
-0.09677
4.23166
-0.66177
-0.500293
-0.199703
-0.531197
2.25039
4.7358
0.033733
1.12559
2.70787
-0.847525
5.73052
1.0199
0.729583
0.0369294
0.0060799
10.0428
0.422396
0.453596
1.62513
2.30055
9.3175
-0.627665
-0.52582
-0.321374
-0.807463
-0.409139
10.7424
8.99577
2.22019
3.80204
1.17964
1.29163
1.0773
0.998949
0.434512
1.1686
0.648691
4.48408
0.974409
0.993247
1.1386
0.453411
0.516163
1.13206
0.349836
0.288939
0.282542
0.327061
0.286898
0.415959
0.377711
0.259082
0.502701
1.12332
0.240624
0.589601
0.378195
6.88683
0.738998
0.434301
0.384704
0.282379
0.640691
-1.03564
6.61256
5.71446
5.84881
2.31704
0.943413
0.0703763
0.489317
1.55473
1.38218
0.129404
0.319255
0.572068
0.486977
-0.528832
5.21248
0.292697
7.35428
0.361614
-0.261348
4.19426
8.63778
5.47344
-1.80919
-0.993652
4.68306
-0.516999
4.67698
1.66532
1.28595
2.27076
-0.853544
-0.610184
-0.546361
-0.948668
2.4057
0.427696
0.56428
0.281379
0.15705
0.308403
0.335391
2.42284
-0.0893156
0.132391
-0.275684
2.33858
3.4961
4.21927
2.63001
0.0418071
5.64911
1.51068
0.43505
3.56915
0.313027
0.43146
0.173246
0.413884
-0.50614
0.0876383
0.031613
1.58573
5.55007
2.49752
4.29026
0.881491
-0.199709
0.810494
5.83174
5.0759
4.21144
0.00831412
0.657404
0.860444
8.82422
11.7169
0.52538
4.56312
-0.356003
1.51286
0.177632
1.34088
7.55937
0.381738
-0.34222
-0.0796794
0.0232751
0.8472
0.319845
0.00227113
0.364469
0.599761
0.670922
0.593888
0.616697
0.711347
0.7249
0.209791
0.810453
0.653039
-0.826457
-0.676021
-0.00315839
-0.492575
-1.12956
1.96844
4.94258
0.307148
0.64369
0.334716
0.517699
0.373622
0.591754
0.405906
0.854657
0.253229
0.861922
-0.265132
0.231834
-0.291478
0.204085
0.452954
0.356301
0.268757
-0.0174537
0.111852
0.871742
8.95745
5.52884
-0.662183
5.55413
1.5267
0.912033
0.0321625
0.826632
0.106957
0.27913
4.61584
-0.148513
-0.164927
0.384326
0.777653
0.330322
0.0673455
0.265662
8.15248
-0.491836
1.15965
6.9606
-0.585212
1.89291
6.65958
-0.744616
-0.346993
-0.244432
-0.742702
-0.588359
-0.385274
-1.15203
-0.752162
-1.36718
3.4206
-0.0199151
-0.706387
2.49197
-0.682288
6.60295
2.41271
2.80408
-1.52425
1.4554
0.495644
-0.104787
0.32542
0.250385
-0.737172
1.57126
4.04047
0.901783
-0.785572
-0.597878
3.48783
-0.842248
1.70823
0.519071
0.273813
0.527601
0.412974
0.377368
8.14896
3.00807
-0.780946
-0.469517
3.30285
0.441857
0.367387
0.554867
0.0081534
-0.745679
-0.205559
-0.612831
0.0903963
0.795974
0.213762
0.518786
0.816214
0.875275
0.302851
0.618986
0.218576
0.179132
0.219008
4.35876
0.291423
0.832028
1.92341
0.433993
0.158241
0.55584
0.241027
-0.0938375
-0.486907
2.85622
1.74875
4.40065
-0.663366
2.17767
5.88729
7.74745
1.7865
0.573937
3.82121
4.22603
1.85793
2.47855
2.00636
2.42187
4.48514
SCALARS CoVolArea double 1
LOOKUP_TABLE default
0.035482
0.02374
0.0333291
0.01525
0.0158165
0.0180426
0.0491207
0.0493551
0.0120928
0.0306368
0.0123011
0.0406223
0.0793447
0.0679001
0.081738
0.0890498
0.108002
0.0577757
0.0550669
0.0237784
0.0987053
0.0550747
0.0729112
0.0642342
0.0706404
0.0326581
0.0345564
0.0490256
0.07329
0.0602045
0.100394
0.031369
0.0486438
0.0739741
0.0865357
0.0695838
0.0650264
0.0338148
0.0273858
0.100963
0.044612
0.0435998
0.0816652
0.0911716
0.0986207
0.0854934
0.0839192
0.0758136
0.0534478
0.0730778
0.0537544
0.112805
0.0860847
0.0566157
0.0879522
0.0875262
0.104852
0.0921901
0.105211
0.0636259
0.0481544
0.114479
0.0743068
0.099518
0.0899858
0.076387
0.0843406
0.0308507
0.0363406
0.0504328
0.1124
0.0281359
0.0858147
0.0427551
0.0601183
0.0555214
0.0811053
0.0904358
0.0723168
0.0519979
0.0698582
0.0497998
0.0853121
0.0874668
0.0603912
0.0581924
0.101872
0.0785636
0.0643032
0.0349213
0.0441942
0.0716136
0.086521
0.0466162
0.0545281
0.0534038
0.0286793
0.0307033
0.0240809
0.0302054
0.0682273
0.0283922
0.0997131
0.0656858
0.147935
0.0346606
0.0614743
0.0947513
0.0751219
0.0267438
0.0427296
0.0360195
0.0350113
0.0662881
0.100748
0.0957647
0.064065
0.0834788
0.0534338
0.0631224
0.042466
0.107949
0.0741601
0.063537
0.0642639
0.0740903
0.0703142
0.111484
0.0378551
0.0327028
0.0360252
0.0479543
0.0420032
0.0460867
0.0450535
0.0294905
0.0258107
0.0955891
0.0372621
0.0540797
0.0575933
0.0450292
0.0354801
0.037923
0.059066
0.0711393
0.0506434
0.0376642
0.0909046
0.0619123
0.0686768
0.0646375
0.0742201
0.0402443
0.0270107
0.0441703
0.0497114
0.112752
0.0640978
0.0459686
0.0544842
0.100304
0.0634672
0.0935953
0.0774384
0.0889124
0.0921443
0.0817485
0.0888311
0.0932651
0.0846783
0.0697479
0.0816726
0.0627602
0.0721916
0.080118
0.0756184
0.075301
0.0848245
0.0876405
0.0352394
0.0492072
0.0364375
0.0759406
0.0620276
0.0695717
0.06226
0.0602853
0.0670513
0.090104
0.0795977
0.086353
0.0949656
0.0689384
0.0953996
0.102388
0.0911228
0.103112
0.114028
0.0356679
0.051805
0.0921743
0.0724594
0.0766032
0.0696942
0.0865904
0.0531538
0.0885863
0.0583959
0.113075
0.103029
0.102931
0.0948739
0.0999026
0.0979778
0.100293
0.100449
0.113045
0.0699222
0.0550795
0.0946594
0.0811143
0.0477973
0.0615775
0.070531
0.0369938
0.0569716
0.0844839
0.0543997
0.0444222
0.0905827
0.107799
0.0705554
0.113199
0.0952783
0.0789346
0.103823
0.0632498
0.0677839
0.11124
0.0908373
0.100588
0.102532
0.0965579
0.0680712
0.0566253
0.0497102
0.0566954
0.101448
0.0763804
0.105314
0.0384032
0.04026
0.0280208
0.029083
0.0258177
0.0414161
0.0464834
0.024419
0.0342162
0.0196211
0.114615
0.0671181
0.0754516
0.0251149
0.0422156
0.0477913
0.0675488
0.0809138
0.129621
0.0777424
0.109009
0.101548
0.0780708
0.0708219
0.0283997
0.0401417
0.0467673
0.0462292
0.0473719
0.0605943
0.0870444
0.0680883
0.0684377
0.0651111
0.0621281
0.068324
0.0591098
0.0518375
0.0800256
0.0551531
0.0644488
0.0744924
0.0491312
0.0878841
0.0912877
0.0737852
0.0793244
0.079054
0.035501
0.0492168
0.0678885
0.0591051
0.0622557
0.0638442
0.076977
0.041124
0.0661786
0.0596975
0.0766542
0.0703974
0.0549331
0.0846068
0.0830765
0.0793234
0.0832591
0.0804863
0.0889381
0.052984
0.0383246
0.0687861
0.0630977
0.0500017
0.0609444
0.0447218
0.0814004
0.0948542
0.0689887
0.0942716
0.0898894
0.0899025
0.0762779
0.0485299
0.067523
0.0351358
0.03146
0.0462635
0.0345732
0.0525085
0.0447549
0.0471439
0.0631347
0.0502792
0.041023
0.0970432
0.0817393
0.0755021
0.0914889
0.0630646
0.0821021
0.0558234
0.028507
0.0445391
0.0380438
0.0485209
0.0425887
0.0530939
0.0634286
0.0524744
0.0411018
0.0476399
0.0358097
0.0294805
0.0406427
0.0296984
0.0274043
0.0340533
0.0620001
0.0392285
0.0431689
0.0240042
0.0211593
0.0199143
0.0228263
0.0398958
0.0273293
0.0390571
0.0625341
0.0409448
0.0484725
0.0409768
0.0658003
0.0276195
0.0215329
0.090553
0.146717
0.133228
0.0668158
0.107323
0.0817014
0.0929622
0.108602
0.065416
0.0235248
0.0381239
0.037069
0.0671081
0.0824697
0.038866
0.0470824
0.0418853
0.0413979
0.0358061
0.0492415
0.0700974
0.120457
0.110555
0.119122
0.0607844
0.0410944
0.0207428
0.0294661
0.0210819
0.0305998
0.0306418
0.0263384
0.0551777
0.0398937
0.0801588
0.0433414
0.0717624
0.0362475
0.0321833
0.0635823
0.0568192
0.0557966
0.0506989
0.0396574
0.108407
0.0793657
0.0817015
0.0695775
0.0831191
0.0644175
0.0733555
0.0766913
0.0886643
0.0631099
0.0672417
0.0577313
0.0380637
0.0482795
0.0301193
0.0660607
0.0569895
0.0578384
0.0554752
0.0578541
0.0660416
0.0645138
0.0665634
0.0694012
0.0861994
0.0430563
0.113299
0.115697
0.0701635
0.0995237
0.0808064
0.040899
0.06009
0.060209
0.0679435
0.064134
0.0609786
0.070866
0.05868
0.0973128
0.0682282
0.0652336
0.0844074
0.0658123
0.108597
0.109918
0.0723814
0.0835584
0.0647134
0.0740289
0.0534706
0.0318986
0.0535626
0.0469799
0.0264123
0.0301604
0.0330601
0.0420864
0.0504642
0.0385779
0.0380888
0.0329091
0.0538998
0.059502
0.048545
0.050612
0.0502815
0.035733
0.0435014
0.0307066
0.034596
0.0458213
0.0406511
0.0502844
0.047356
0.0424795
0.024867
0.0213966
0.0252465
0.0248584
0.0321732
0.0297577
0.0362588
0.0851561
0.0521981
0.0655358
0.0526893
0.101195
0.0344023
0.027585
0.0303729
0.0467215
0.0262594
0.048443
0.056939
0.0583238
0.0710791
0.0604742
0.0730027
0.0316837
0.0492432
0.0411245
0.025442
0.0399636
0.0274657
0.0294628
0.0385435
0.0242168
0.0420932
0.0524277
0.0466662
0.0415412
0.0584344
0.0582926
0.0735348
0.0465436
0.056273
0.0801347
0.0456037
0.0669683
0.0595879
0.0558069
0.0658934
0.0536586
0.0438676
0.0557218
0.0393577
0.0384153
0.0306093
0.0949838
0.0851695
0.0981039
0.101449
0.0815531
0.0519939
0.0416931
0.0575248
0.0606962
0.0716098
0.0619765
0.0740285
0.046736
0.0834105
0.0835892
0.0932193
0.0643417
0.0544362
0.0458963
0.073329
0.0573047
0.0580923
0.0630512
0.0946352
0.0596131
0.0737661
0.0906243
0.0853968
0.0683155
0.0743162
0.0657823
0.0580715
0.031594
0.038764
0.0583122
0.058679
0.0339272
0.0280432
0.0227396
0.0282997
0.0305951
0.036047
0.0522878
0.0414058
0.0449523
0.037127
0.0327515
0.0349018
0.0449304
0.0304587
0.085816
0.0465657
0.03071
0.0341103
0.144416
0.0872347
0.122193
0.134252
0.126756
0.0868166
0.04484
0.0599709
0.0767081
0.0767151
0.0885575
0.0787947
0.0563981
0.0426722
0.0408616
0.0405034
0.0424546
0.0546718
0.0347562
0.0664983
0.0473232
0.0444461
0.0435659
0.0737634
0.0832553
0.09279
0.0951931
0.0912095
0.0541705
0.0769956
0.0744652
SCALARS SignedDistance double 1
LOOKUP_TABLE default
1.20999
1.15681
0.0487877
-0.684953
0.55978
0.000273935
1.49768
0.0623821
0.902537
1.24215
1.27163
0.829433
-0.0111873
0.0406537
-0.0311258
-0.0277098
0.0309466
1.41435
1.3763
1.23516
0.00349908
1.38634
0.0449066
0.750311
1.25787
0.70897
0.261216
0.0380569
1.31998
1.60813
-0.0536354
1.33183
0.016021
1.27331
0.0156247
0.307422
1.45532
1.13979
1.21903
1.41545
0.0789885
1.03229
0.37237
-0.00417382
0.095766
1.18964
0.25747
1.18737
-0.0277895
0.014847
0.0227904
0.0154209
1.1308
-0.0274984
-0.00117671
1.20004
-0.00954205
0.929669
-0.0897518
1.29209
1.23189
-0.0317192
1.37873
0.475201
0.68142
-1
-0.00866851
1.51187
1.15676
0.0300296
0.091972
0.894942
0.140909
1.31806
-0.00508054
0.425187
1.3255
0.00527886
0.125547
0.0197983
0.00734734
0.0993689
0.186041
1.20077
0.331515
0.0403341
0.0127579
0.818514
0.0763188
0.0143371
0.0937342
0.0300208
-0.0028948
1.43264
0.993444
0.185612
0.0216794
0.176501
1.39878
1.4653
0.373998
1.55207
1.38344
1.54098
1.47127
1.29361
1.19865
0.0192606
-1.00358
1.07062
0.185678
0.0832349
0.0407274
-0.0176789
0.00746098
0.000438103
0.150422
-0.0064451
1.26707
0.0452247
0.34209
0.141312
-0.00521927
1.54554
1.3937
0.186454
1.20497
0.0100328
1.242
0.651437
0.0433125
1.24252
1.44663
1.61365
1.41735
1.09823
0.804972
1.3451
1.20215
1.45328
1.16232
1.39865
0.382704
0.891754
0.940508
0.00611661
1.3462
0.137256
0.229995
0.136754
0.000452576
1.19048
0.0532431
1.21553
0.104367
1.20488
1.4654
1.42935
1.27529
0.0321816
-0.00202387
-0.00696671
0.791258
1.11977
0.705403
0.0082538
0.026651
0.0570813
-0.000206309
0.0214281
0.0238466
0.903761
1.23692
1.25198
0.0334274
0.188373
0.524281
0.0629619
1.10299
0.0335668
0.0207629
-0.00493948
-0.00534105
0.0311306
0.0215529
-0.0131418
-0.00494075
0.00609008
0.018122
-0.0154263
-0.0264923
-0.0373015
0.170829
1.22835
-0.00895305
0.012691
0.00634635
-0.0175313
-0.00661141
0.0213914
-0.0188648
-0.0121132
0.0320306
-0.130935
0.0321698
-0.0125766
1.33715
1.13875
1.26532
0.0201431
0.104886
0.430791
-0.0106982
0.00434161
-0.0381572
0.0122167
0.011843
0.00322282
1.22214
1.2564
0.0223345
0.732598
1.32899
0.354867
1.11442
1.18462
1.34294
0.446027
0.591366
1.30517
0.434491
0.0322579
1.19665
0.592738
-0.101917
1.17336
0.740187
1.45816
1.32368
0.0171956
1.12068
-0.00322842
0.151303
0.234355
0.072379
0.982796
0.896607
0.171821
-0.00536185
0.159677
0.00587634
1.2922
1.50094
1.15217
1.32569
1.33652
1.35105
1.21119
1.15113
0.0430509
1.19642
0.00288236
0.185411
-0.0104765
1.17953
0.247893
0.468283
0.591317
0.286391
-0.0506974
-0.184953
0.0398253
0.0861484
0.000770141
0.0190165
1.28291
1.12026
1.16005
0.621529
1.33843
0.136269
-0.0818199
1.35517
1.14719
0.0505194
0.671473
1.48607
1.25525
1.18849
-0.985705
0.330082
-0.0347259
1.17887
0.295136
0.0710807
0.381925
0.0295729
0.857584
0.0266032
-0.00458325
-0.00648378
0.00291028
-0.000691605
-0.00974332
0.0146327
-0.0469679
1.30443
1.18604
1.25448
0.117992
0.0245565
-0.108249
0.31929
0.802633
0.0570465
0.0735157
0.0741463
0.0182025
0.04585
-0.0102299
0.675905
0.00188916
0.54483
-0.00281313
1.14981
0.0687467
0.235331
1.17542
0.0670972
0.771387
0.292056
0.285562
0.103429
0.14662
0.422331
0.128065
0.136048
-0.0334448
0.593303
0.0628921
0.547912
0.851672
0.532901
0.796204
0.00343921
-0.0350236
1.19295
0.322461
0.087371
0.0177312
-0.000294256
1.43479
1.53921
0.129565
1.22332
0.0625647
1.53665
1.35239
-1
0.0330274
0.0513318
0.0501405
0.347281
0.0301657
0.590024
0.633999
0.0122004
0.046476
0.0171062
-0.0409684
1.28725
1.353
1.29993
1.26221
1.55282
1.40505
1.50995
0.138359
1.36942
1.45763
1.41648
1.1732
1.51912
1.38485
1.41342
1.50515
1.39032
1.5357
1.53999
1.47366
1.47688
1.48695
1.51236
1.45006
1.5701
1.52945
1.17546
-0.00375298
1.32364
1.40927
1.46232
1.4276
1.29406
0.631425
0.12349
0.011493
-0.49488
0.139632
0.897765
1.13611
0.740395
0.266089
0.228481
1.1788
0.717126
1.22732
-0.0582954
0.238103
-1.95889e-05
1.07481
0.279818
0.924716
0.306289
-0.0132176
0.205265
0.00975274
0.0819915
0.0328135
0.0348459
0.00148645
-0.18402
0.119662
0.00258266
0.107758
1.17218
0.753458
0.671872
0.00968946
0.00429402
0.135404
1.32409
1.38875
0.44601
0.0128437
0.405606
0.0963397
1.21651
1.32865
1.2116
-0.0142155
0.104059
0.0108343
0.00390409
-1
-0.486973
0.00670685
0.847543
-0.00799304
1.24696
1.2836
1.46273
1.33903
1.49817
1.28461
1.26813
0.336782
-0.034809
-0.0234437
0.0312901
1.43796
1.09974
1.19633
-0.277279
-0.120659
0.272199
1.17593
1.44832
1.3835
0.185791
0.116498
1.29893
0.192796
1.16605
0.259053
1.21344
-0.750616
-0.00266218
1.08009
0.923225
0.611017
0.933175
1.41681
1.54256
1.60655
1.50866
1.35149
1.51772
1.33403
1.28313
1.47817
1.31136
1.52969
1.41852
1.40272
1.11985
0.942671
1.14588
1.0588
0.146656
0.147738
0.0333719
1.45012
1.38142
1.22865
1.24995
1.35432
1.30725
1.22643
1.24342
1.4549
1.22455
0.563881
1.20328
0.836547
1.46144
1.40585
1.27179
0.995097
1.14193
0.446494
0.16557
-0.0126549
0.000143561
0.0536561
-0.00422188
0.543196
1.27852
1.44743
1.3511
0.831455
1.2575
0.0545226
0.567678
1.33337
-0.0121772
0.00981713
1.23441
1.23985
1.37688
0.00213558
0.476916
0.0105598
0.0677863
1.14796
0.125132
0.0203722
0.445912
0.529128
0.233895
1.11588
0.433973
0.976125
0.0413104
0.956025
0.466765
-0.01123
0.113943
1.12617
0.06148
0.857298
-0.0809909
-0.0291277
-0.00438995
0.226317
-0.0182247
1.30184
1.33648
1.3766
1.3612
0.950565
0.0121574
-0.0298279
0.0327794
0.524165
1.18923
0.0504103
0.861549
0.0213839
1.35571
1.13456
1.29095
1.26699
1.30696
-0.0174239
0.0886484
1.02657
0.918371
0.121576
1.58046
1.38518
1.54443
1.28513
0.927705
0.769098
0.907633
1.18187
1.23472
1.41326
1.39541
1.29019
1.38848
1.38208
1.40146
1.47
1.44712
1.42869
0.0552686
1.47896
1.20929
0.232634
1.21464
1.43151
1.379
1.47388
1.1685
0.314662
0.106098
-0.0105506
0.000490701
0.204566
0.12298
-0.0472397
0.0467156
0.125284
0.0823032
-0.0547449
-0.00637337
-0.0578174
-0.0397152
0.0234782
0.0115003
0.0656174
