# vtk DataFile Version 4.2
vtk output
ASCII
DATASET POLYDATA
POINTS 642 double
-1.51069 3.05724 -0.239668
1.57444 3.12259 -0.189689
-1.62257 -1.91833 0.0105819
1.50324 -1.86731 0.0235458
0.000856025 -0.843226 2.20626
-0.00353793 2.09772 2.05513
-0.0807769 -0.888603 -1.72627
-0.15748 2.19838 -2.24286
2.27506 0.995721 -1.38214
2.04778 0.723737 1.09238
-2.3571 0.880113 -1.54291
-2.04045 0.598446 1.14498
-2.12744 2.0306 0.559755
-1.13393 1.50002 1.9236
-0.745234 2.85224 1.26738
0.764753 2.86157 1.26252
-0.0173095 3.47667 -0.127682
1.04954 3.04904 -1.46877
-1.04264 3.06037 -1.52564
-1.55236 1.66524 -2.37431
-2.35644 2.18827 -1.04177
-2.60116 0.782232 -0.168812
1.12126 1.53363 1.89669
2.19018 2.06946 0.592402
-1.163 -0.324195 2.02001
-0.0231601 0.506087 2.4813
-2.25482 -0.967401 -0.738271
-2.19979 -1.00868 0.697667
-0.196854 0.942565 -2.4074
-1.43157 0.0380352 -1.92827
2.38824 2.20972 -0.983494
1.52766 1.73976 -2.13968
2.03725 -0.959584 0.691144
1.12493 -0.337419 1.97069
0.870032 -1.73963 1.36227
-0.920603 -1.75967 1.35739
4.48098e-06 -2.26817 0.030165
-0.963844 -1.69803 -1.22981
0.883882 -1.67248 -1.1624
1.26323 -0.0392724 -1.72065
1.9953 -0.915841 -0.626736
2.57753 0.887388 -0.120945
-1.90336 2.62401 0.173647
-1.4683 2.51709 1.00637
-1.147 3.03731 0.548385
-1.6455 1.07919 1.58463
-1.64411 1.82307 1.3633
-2.14872 1.37328 0.882303
-0.343401 2.51426 1.77584
-0.993435 2.25107 1.67654
-0.546257 1.86376 2.07908
-0.416261 3.2793 0.653574
-0.819321 3.37429 -0.173858
0.344667 2.51473 1.77293
0.000829351 2.96843 1.35119
0.908621 3.36915 -0.161017
0.430096 3.28218 0.657071
1.24411 3.05652 0.498738
-0.518595 3.43121 -0.823594
-1.35145 3.17315 -0.852341
1.39955 3.22447 -0.797524
0.523838 3.41088 -0.812236
-0.652672 2.66954 -2.01181
-0.0361767 3.15482 -1.48401
0.575398 2.66815 -1.92726
-1.80395 2.75686 -1.35308
-1.98641 2.74783 -0.626592
-0.942758 1.99414 -2.40694
-1.36498 2.46873 -2.07407
-2.47208 1.48542 -1.38723
-2.09365 1.99616 -1.80567
-2.09594 1.26155 -2.00032
-2.37117 2.17051 -0.19798
-2.57177 0.829624 -0.908383
-2.62249 1.51016 -0.599813
-2.49906 1.47017 0.181468
-2.39249 0.68708 0.517854
1.54727 2.53951 0.959688
1.9452 2.69978 0.196424
0.539694 1.87212 2.07159
1.00437 2.26222 1.66999
2.20869 1.41982 0.860281
1.70372 1.84601 1.30452
1.6755 1.11623 1.52026
-0.563255 0.974712 2.30412
-0.00559834 1.39975 2.30333
-1.66061 0.0648351 1.61331
-1.12672 0.536358 2.0891
-0.0213735 -0.183006 2.44074
-0.577494 0.122527 2.40018
-0.595174 -0.612322 2.22589
-2.40396 -0.428305 0.293419
-2.14168 -0.333219 0.959635
-2.25424 -0.0265243 -1.13248
-2.43106 -0.330985 -0.428881
-2.05505 -1.54914 0.383045
-2.39128 -1.06496 -0.0240715
-2.07855 -1.5449 -0.381747
-1.56197 0.920595 -2.32184
-1.98487 0.488175 -1.8567
-0.211002 1.58706 -2.43443
-1.00585 1.32738 -2.50576
-0.821813 -0.54677 -1.8309
-0.974064 0.584559 -2.32391
-0.123522 0.159456 -2.14368
1.36705 2.46158 -1.97865
0.886713 2.04004 -2.21385
2.03386 2.7952 -0.563974
1.81444 2.7621 -1.30452
2.01593 1.36309 -1.81065
2.06544 2.01717 -1.71321
2.43563 1.55623 -1.27556
1.9115 -1.4905 0.392659
1.5827 -1.41525 1.09331
1.26991 -1.90694 0.666566
1.63219 0.0936099 1.57448
1.67012 -0.733703 1.39264
2.04691 -0.194626 0.978069
0.434538 -1.38085 1.86666
1.07819 -1.13767 1.73395
0.561547 -0.649754 2.18842
0.48406 -2.14765 0.756122
0.872576 -2.16966 0.00944681
-0.437305 -1.36139 1.84444
0.00713413 -1.86324 1.42777
-0.943215 -2.17497 0.016346
-0.515647 -2.16205 0.752023
-1.35675 -1.94178 0.65807
0.514576 -2.10308 -0.623352
1.25035 -1.89129 -0.579818
-1.36518 -1.92029 -0.604245
-0.548356 -2.11436 -0.64953
0.442414 -1.28696 -1.56593
-0.0322643 -1.76697 -1.22166
-0.550044 -1.29037 -1.61008
1.56578 -1.37297 -0.974563
1.88572 -1.47726 -0.324977
0.64283 -0.603813 -1.74158
1.09099 -1.07087 -1.46471
2.1295 0.173591 -1.03604
1.65504 -0.614768 -1.22302
1.87462 0.609145 -1.63986
2.15583 -1.01142 0.0409008
2.52206 0.950662 -0.819325
2.31185 -0.0763888 -0.347562
2.27714 -0.229164 0.314578
2.39773 0.840858 0.526776
0.523792 0.121355 2.37962
1.1077 0.558342 2.03001
0.517967 1.00845 2.29242
-1.69918 -1.44633 1.10457
-1.16053 -1.15557 1.73349
-1.76291 -0.798944 1.37245
-1.24845 -1.06598 -1.59687
-1.76145 -1.41131 -1.07376
-1.85064 -0.651997 -1.35329
1.50273 1.02639 -2.05008
0.684025 0.528812 -2.15758
0.833159 1.35454 -2.30029
2.53045 1.50452 0.23715
2.62088 1.56415 -0.568618
2.4052 2.2243 -0.17878
-1.7046 2.88562 -0.0570292
-1.54405 2.83106 0.368759
-1.36095 3.06052 0.0891111
-1.83044 2.2754 0.778864
-1.70935 2.56451 0.59035
-2.0407 2.34139 0.372635
-0.949495 2.96617 0.92942
-1.31698 2.79343 0.806565
-1.10354 2.7143 1.16308
-1.8784 0.819406 1.34654
-1.89872 1.25286 1.25854
-2.09027 0.976761 1.02971
-1.38943 1.67712 1.67536
-1.65241 1.47796 1.49021
-1.40045 1.29801 1.77515
-2.16234 1.70406 0.730702
-1.91743 1.61055 1.12585
-1.90319 1.93554 0.969289
-0.146862 2.28968 1.95062
-0.459497 2.21324 1.93846
-0.234371 2.01011 2.08346
-0.876781 2.5774 1.49206
-0.672383 2.41087 1.73941
-0.540031 2.69896 1.5518
-0.846207 1.69416 2.0249
-0.780075 2.0675 1.89979
-1.08248 1.8874 1.82075
-1.58124 2.18224 1.20163
-1.33128 2.04899 1.54908
-1.23177 2.40511 1.3756
-0.978625 3.24093 0.193436
-1.21 3.22098 -0.214079
-0.593472 3.0859 0.991896
-0.781864 3.18457 0.62417
-0.445409 3.44838 -0.150905
-0.609007 3.35651 0.236492
-0.228106 3.41308 0.264543
0.141539 2.28953 1.9504
-0.00297791 2.54588 1.78996
0.38964 2.94129 1.3284
0.186449 2.76446 1.58138
0.549598 2.70315 1.54785
-0.186991 2.76278 1.58319
-0.381869 2.93707 1.33103
1.32229 3.24416 -0.188185
1.08363 3.24253 0.171704
1.4689 3.11358 0.0773865
0.224808 3.41335 0.275465
0.645057 3.35486 0.246798
0.454597 3.44513 -0.127157
0.990508 2.98123 0.915548
0.826215 3.19294 0.615764
0.612918 3.09371 0.990255
-0.202415 3.15035 1.0334
0.208882 3.15238 1.03344
0.00157898 3.31496 0.674271
-1.0837 3.31305 -0.526828
-1.44923 3.12801 -0.511137
-0.269975 3.49053 -0.483051
-0.673498 3.44015 -0.499979
-1.21999 3.16118 -1.19148
-0.956952 3.33054 -0.857611
-0.802927 3.27407 -1.19414
1.51433 3.19144 -0.443253
1.16992 3.3128 -0.488698
0.819481 3.25573 -1.15924
1.0103 3.3204 -0.824613
1.24506 3.17607 -1.14587
0.727534 3.42446 -0.484175
0.23508 3.48629 -0.47461
-0.409657 2.41022 -2.15476
-0.0795941 2.69701 -1.93331
0.212536 2.42044 -2.09924
-0.593812 3.13109 -1.52123
-0.363246 2.94082 -1.75602
-0.850009 2.88434 -1.80667
0.827648 2.87071 -1.73442
0.276143 2.93816 -1.72286
0.561046 3.11396 -1.48192
-0.0286313 3.44585 -0.814988
0.255716 3.32509 -1.16397
-0.299674 3.33577 -1.17473
-1.69916 2.99554 -0.768691
-1.73749 2.94378 -0.411004
-1.4281 2.96273 -1.47073
-1.59322 3.01376 -1.11978
-2.19483 2.49996 -0.83381
-1.92967 2.77568 -0.994101
-2.12398 2.48786 -1.20595
-0.586908 2.1156 -2.31769
-0.830205 2.35372 -2.24162
-1.48338 2.06546 -2.27077
-1.15214 2.23526 -2.28874
-1.23381 1.8449 -2.43577
-1.02468 2.59799 -2.06728
-1.2157 2.80852 -1.81964
-2.42742 1.14328 -1.49449
-2.32053 1.39079 -1.71713
-2.27434 1.04714 -1.74823
-2.27007 2.11782 -1.42873
-2.33052 1.7519 -1.60395
-2.44973 1.83398 -1.23395
-1.85485 1.46488 -2.21337
-2.11919 1.62028 -1.94638
-1.84424 1.83712 -2.13831
-1.60477 2.64819 -1.74178
-1.75222 2.25558 -1.97372
-1.98067 2.40291 -1.60006
-1.98201 2.69805 -0.222819
-2.39221 2.20353 -0.626721
-2.21274 2.47183 -0.422571
-2.16439 2.41219 -0.00467952
-2.2787 2.11246 0.18844
-2.46471 0.866611 -1.29127
-2.54736 1.18578 -1.15938
-2.641 1.16478 -0.381204
-2.62952 1.18195 -0.75663
-2.6173 0.809087 -0.535334
-2.57133 1.52105 -1.00718
-2.52639 1.85836 -0.836306
-2.30667 1.08039 0.68323
-2.20851 0.630393 0.882011
-2.34296 1.76683 0.370907
-2.35209 1.44018 0.522686
-2.51664 0.740415 0.170612
-2.47685 1.12881 0.331123
-2.58601 1.14576 -0.00369846
-2.53867 1.85256 -0.401677
-2.59409 1.49739 -0.195644
-2.47017 1.82185 0.00150856
1.63402 2.89886 0.340689
1.74822 2.96224 -0.0266366
1.14029 2.73071 1.14928
1.40302 2.82019 0.755391
2.09353 2.40093 0.407359
1.7965 2.62318 0.56979
1.91869 2.316 0.759006
0.230115 2.01022 2.0821
0.46259 2.21428 1.93704
1.07862 1.91117 1.80336
0.781216 2.07748 1.89265
0.830656 1.71867 2.00913
0.682605 2.41404 1.73673
0.894774 2.58566 1.48725
2.13954 1.07168 0.983462
1.96564 1.2991 1.18389
1.90641 0.898974 1.27405
1.98991 1.9641 0.93258
1.9986 1.64147 1.06644
2.2278 1.73645 0.739395
1.40719 1.32493 1.73245
1.70118 1.50627 1.42362
1.39981 1.70756 1.64071
1.26238 2.42032 1.36182
1.3513 2.0705 1.52749
1.6506 2.20043 1.15314
-0.280491 1.64365 2.21487
-0.0035481 1.82591 2.17265
-0.868523 1.27057 2.12895
-0.578125 1.46682 2.19628
-0.014227 0.919582 2.4044
-0.278296 1.18025 2.33376
-0.276673 0.707562 2.43662
-1.88682 0.346322 1.36054
-1.64165 0.581392 1.63476
-1.13672 0.100131 2.09901
-1.37671 0.314711 1.89491
-1.41268 -0.152407 1.83393
-1.38202 0.823087 1.85488
-1.14364 1.0426 2.01572
-0.012017 -0.550946 2.33305
-0.300758 -0.379283 2.37251
-0.264223 -0.74437 2.24175
-0.289283 0.314339 2.47513
-0.30072 -0.0208682 2.45196
-0.0246009 0.157848 2.48909
-0.88936 -0.475501 2.15017
-0.595325 -0.23085 2.34118
-0.86817 -0.0841268 2.25127
-0.863358 0.747165 2.22082
-0.86178 0.304353 2.27977
-0.568908 0.497585 2.39533
-2.26549 0.114956 0.753061
-2.08727 0.184559 1.07735
-2.48111 0.180839 0.0700118
-2.40193 0.127315 0.402984
-2.17674 -0.715906 0.827652
-2.3015 -0.411847 0.626985
-2.32048 -0.769294 0.491341
-2.33419 0.577822 -1.41267
-2.44954 0.43733 -1.03225
-2.35773 -0.714761 -0.561527
-2.37077 -0.22035 -0.745638
-2.23052 -0.621941 -0.887323
-2.4985 0.325193 -0.66893
-2.51711 0.249412 -0.31737
-1.82824 -1.78237 0.172665
-2.11325 -1.56663 -0.000107114
-1.83335 -1.77932 -0.158068
-2.33153 -1.05635 0.340757
-2.282 -1.30729 0.183144
-2.1729 -1.27992 0.554444
-2.21866 -1.26279 -0.575096
-2.29831 -1.30229 -0.204264
-2.36265 -1.03531 -0.387091
-2.44798 -0.412739 -0.0655537
-2.42277 -0.779762 -0.218104
-2.4095 -0.797441 0.137273
-2.05444 0.888845 -1.96815
-2.21833 0.711224 -1.69813
-1.57387 1.30051 -2.38251
-1.83599 1.09705 -2.2055
-1.71586 0.270628 -1.94262
-1.79106 0.699579 -2.11978
-1.51886 0.522268 -2.18695
[...]
POINT_DATA 642
SCALARS Mean_Curvature double 1
LOOKUP_TABLE default
0.61894
1.06497
1.05405
0.883352
0.787697
0.802706
-0.0982108
0.375478
0.82068
0.348855
0.898025
0.416896
0.648366
0.647933
0.832644
0.813646
0.513451
0.827626
0.889071
1.34961
0.90408
0.785145
0.585375
0.84324
0.746795
1.03711
1.23522
1.06204
0.50178
0.107086
1.12685
1.27137
0.705617
0.486594
0.895357
0.81215
0.573541
0.869867
0.936651
0.231343
0.518082
0.819932
0.743499
0.658644
0.651126
0.500261
0.661715
0.535271
1.00326
0.779967
0.802316
0.738261
0.720942
0.921555
0.905608
0.701792
0.702806
0.557947
0.898095
0.681613
1.32899
0.677759
0.679543
0.571519
0.505522
0.950969
0.790989
1.08914
1.14862
1.0186
0.93499
1.03754
0.91514
0.706881
0.938163
0.82471
0.43241
0.5459
0.775737
0.80801
0.815541
0.69088
0.555413
0.484832
0.425049
0.761511
0.377542
0.566374
0.963783
0.996584
0.809147
0.543907
0.513932
0.327016
0.429682
1.26856
1.50311
1.30236
1.11832
0.90447
0.621934
1.10128
0.179694
0.61193
0.382868
1.44957
0.442262
0.986605
0.91519
1.03413
1.21928
1.1202
1.50831
1.05385
0.830705
0.37427
0.684759
0.450712
1.13424
0.797167
0.810613
0.763421
1.06614
0.279859
0.878969
0.708575
0.841365
0.828395
0.813415
0.958491
0.788114
0.823581
1.06539
0.507802
1.01324
1.25832
1.36566
0.255789
1.00665
0.184757
0.406927
0.642553
1.10698
0.788448
0.461472
0.489527
0.669412
0.934488
0.317721
0.533103
1.10921
0.831051
0.580431
1.15868
1.24588
0.30531
0.840817
0.454736
0.594279
0.995518
1.021
0.833817
0.732127
0.422272
0.395357
0.532094
0.481423
0.684574
0.74004
0.65241
0.752092
0.378439
0.481317
0.1944
0.669456
0.581681
0.583545
0.620974
0.547162
0.5613
0.884105
0.829934
0.822728
0.823795
0.850232
0.924637
0.718628
0.794682
0.780038
0.65882
0.730265
0.743211
0.645985
0.637778
0.791505
0.705811
0.521495
0.695511
0.663344
0.869865
1.01824
0.878209
0.942007
0.881692
0.965605
0.908252
0.906772
0.484075
0.900849
0.655876
0.591708
0.476214
0.703996
0.660616
0.78761
0.831652
0.814674
0.760333
0.889395
0.569771
0.870007
0.962548
0.96076
0.866323
0.832045
1.24347
0.635716
0.675405
0.663641
1.13564
0.785491
0.796034
0.297393
0.205864
0.33685
0.783069
0.657783
0.761997
0.602301
0.646622
0.638175
0.600332
0.732649
0.792536
1.06905
0.861058
1.19508
1.21073
0.887031
0.996353
0.984724
0.284259
1.00816
1.17196
1.18922
1.41998
1.06956
1.19731
0.99786
1.14093
1.05017
1.05594
1.17767
0.859992
1.12048
1.10129
1.06451
0.900586
0.86267
0.911718
0.848089
0.82618
0.834651
0.874708
0.846912
0.689036
0.760492
0.838071
0.830123
0.737053
0.839038
0.902407
0.525561
0.423399
0.74082
0.683476
0.423583
0.712587
0.833475
0.979671
0.870932
0.885138
0.731565
0.820884
0.718082
0.566651
0.820315
0.715556
0.691646
0.822991
0.864151
0.742608
0.840457
0.695956
0.859277
0.812032
0.559048
0.522104
0.269166
0.650508
0.595471
0.825287
0.517248
0.487097
0.586913
0.726806
0.72292
0.545524
0.759094
0.821105
0.619682
0.668289
0.510529
0.679255
0.948696
0.394132
0.407472
0.754226
0.376301
0.36047
0.308169
0.604944
0.870252
0.896304
0.788453
1.05641
1.01259
1.08683
0.78031
0.903168
0.85003
0.477241
0.898699
0.943338
0.378031
0.385613
0.349864
0.386997
0.560528
0.54733
0.608252
0.657662
0.660645
0.646458
0.39869
0.398221
0.293924
0.341262
0.94378
1.35668
0.948375
1.29802
1.60512
1.31019
1.45674
1.63791
1.39547
0.464545
0.887288
0.824035
0.968132
0.935834
1.22356
1.05053
0.946558
1.00709
1.00159
0.460667
0.451012
0.503227
0.468685
0.576176
1.21343
1.34776
0.167623
-0.157845
-0.142124
0.866789
-0.0826559
0.295887
0.437663
0.396905
0.494999
1.18796
0.941488
1.02143
0.294375
0.443845
1.12138
1.22686
1.06495
1.22279
1.35249
0.973167
0.946278
0.979173
0.952422
1.00367
1.01434
1.09986
0.934991
1.09711
0.971472
1.26203
1.1566
1.14237
1.23905
1.21155
1.14814
0.986801
0.955188
1.23885
0.987653
0.933838
0.891626
0.840612
1.34866
1.28797
0.85775
0.95901
1.05052
0.402961
0.413743
0.425774
0.712832
0.64414
0.400789
0.686272
0.685048
0.689836
0.725592
0.428854
0.819287
1.17755
1.08886
1.05027
0.712657
0.551727
0.655448
0.77449
0.728945
0.834949
0.870032
0.903488
0.838706
0.866298
0.733559
0.650475
0.74636
0.710746
0.567485
0.90116
0.523958
1.08389
0.940139
0.853625
0.843304
0.770924
0.948349
0.678322
0.698749
0.776431
0.777185
0.821079
0.862489
0.905767
0.499064
0.677281
1.09333
0.953181
0.789103
0.891579
1.03565
1.067
0.788519
0.884529
0.879328
0.832881
0.925156
0.840321
0.866134
0.584855
0.716189
0.780399
0.310685
0.714752
0.908456
1.05356
1.09562
0.877606
0.745476
0.644966
0.642094
0.724301
1.05144
0.988658
1.18634
1.09798
1.28663
1.29435
1.13114
0.174699
0.604556
0.361602
0.368703
0.321743
1.05974
1.26169
0.674826
0.609849
0.738939
0.428173
0.394656
0.462153
0.526859
0.206679
0.351157
1.20824
0.465788
0.914791
1.5398
0.769896
1.51111
1.65386
0.965312
0.797861
0.66993
0.692025
0.711848
0.813107
0.392728
0.505623
0.46456
0.285471
0.694017
0.475305
0.778799
0.504552
0.223463
0.560105
0.460964
0.600262
0.905473
0.778589
0.845391
0.991405
1.02373
0.36747
0.564532
0.393833
0.346681
0.622979
0.76497
0.870281
0.715196
0.700171
0.592606
0.800234
0.340579
0.874445
0.899026
0.93626
0.890932
1.12734
1.15764
0.766205
0.363436
0.696246
1.13498
1.21607
0.395205
0.76515
0.543512
0.513536
0.506458
1.08774
0.631722
0.926898
0.563211
1.29047
1.17447
0.541994
0.25944
0.867939
1.30721
1.26171
0.791802
0.947295
0.60908
0.267816
0.136911
0.254849
0.953757
1.23437
1.18278
0.85797
0.845646
0.523618
0.763091
0.978978
1.09246
-0.0655107
0.496417
0.450237
0.110259
0.251407
0.534985
0.613977
0.634209
0.609023
0.555654
0.383581
0.514574
0.37144
0.712168
0.935375
0.861444
0.889305
0.952032
0.927461
1.01124
1.04513
0.914917
0.945576
0.84629
0.88631
0.81724
0.91453
0.977291
1.05563
0.913622
1.00629
SCALARS CoVolArea double 1
LOOKUP_TABLE default
0.0840247
0.0644598
0.0702997
0.0694435
0.0772468
0.0563183
0.106853
0.121132
0.059776
0.0976291
0.0656258
0.105767
0.146232
0.13936
0.133497
0.138923
0.175433
0.155869
0.15402
0.131941
0.149854
0.174973
0.143996
0.134283
0.153046
0.103943
0.112506
0.108211
0.177737
0.17898
0.141782
0.104797
0.112101
0.157669
0.143208
0.152816
0.184098
0.14304
0.126403
0.215877
0.122268
0.136193
0.149364
0.166788
0.169918
0.164657
0.153037
0.146989
0.107872
0.134401
0.119874
0.163146
0.149519
0.110988
0.133974
0.159257
0.16923
0.169672
0.167485
0.137111
0.13389
0.18766
0.159564
0.20474
0.179364
0.163737
0.13614
0.11428
0.158832
0.125912
0.166167
0.123897
0.145179
0.15815
0.143344
0.129399
0.190476
0.175873
0.137934
0.116602
0.135119
0.118207
0.160626
0.169587
0.157371
0.130073
0.187098
0.153046
0.104945
0.112649
0.139443
0.168224
0.163006
0.211421
0.178959
0.131692
0.10138
0.132941
0.123886
0.150721
0.179959
0.100512
0.177312
0.140283
0.260133
0.139979
0.146766
0.134459
0.165171
0.105294
0.143885
0.108205
0.116009
0.13548
0.143588
0.172488
0.142154
0.171608
0.131911
0.128965
0.132543
0.173544
0.135121
0.152893
0.164754
0.153575
0.17795
0.149196
0.151823
0.126609
0.142145
0.165174
0.121995
0.175612
0.122197
0.121491
0.11543
0.162204
0.110683
0.192098
0.17018
0.146963
0.0951267
0.12872
0.210652
0.183393
0.147988
0.117698
0.171112
0.157529
0.144161
0.141798
0.137234
0.130558
0.147835
0.167239
0.127232
0.207105
0.167119
0.119568
0.132927
0.150272
0.132185
0.171866
0.151587
0.167951
0.16608
0.143657
0.144522
0.162603
0.146747
0.155083
0.15693
0.145317
0.139319
0.144554
0.146629
0.140157
0.149335
0.161325
0.0868395
0.109208
0.0937126
0.132803
0.116869
0.117144
0.128312
0.120433
0.133003
0.171203
0.152233
0.15615
0.166535
0.133981
0.145937
0.156732
0.151925
0.160562
0.175317
0.0883134
0.105176
0.134867
0.116553
0.120664
0.114656
0.131975
0.11331
0.166028
0.122393
0.182183
0.176926
0.17474
0.158642
0.170836
0.151834
0.156799
0.158682
0.175752
0.141341
0.116432
0.158389
0.143069
0.145908
0.152022
0.17295
0.103301
0.134857
0.1815
0.155162
0.144423
0.163328
0.176619
0.160417
0.20405
0.183783
0.181401
0.186962
0.148273
0.15727
0.196067
0.191988
0.189376
0.21116
0.200093
0.129473
0.114996
0.155814
0.139486
0.141662
0.139373
0.155367
0.131151
0.129435
0.154644
0.127085
0.114261
0.131858
0.150498
0.0991546
0.120517
0.0996012
0.156404
0.137993
0.139904
0.129499
0.137897
0.15845
0.181685
0.185801
0.182808
0.136768
0.153822
0.14221
0.135381
0.135275
0.119937
0.130699
0.13728
0.139257
0.166571
0.138504
0.153067
0.154304
0.165077
0.132849
0.130797
0.175004
0.140341
0.135243
0.15525
0.140285
0.142128
0.149546
0.109838
0.160999
0.168934
0.138332
0.154943
0.157642
0.0937808
0.109877
0.133046
0.117586
0.125031
0.118279
0.137168
0.116837
0.142564
0.147452
0.149286
0.137032
0.119599
0.156959
0.153265
0.150691
0.168507
0.161618
0.179027
0.125511
0.099166
0.154847
0.141632
0.12395
0.140948
0.126528
0.164474
0.184309
0.144785
0.171477
0.166749
0.168519
0.157918
0.101564
0.115114
0.118907
0.104124
0.102804
0.0954798
0.141034
0.118043
0.128106
0.159404
0.134255
0.134624
0.198644
0.164098
0.214701
0.203985
0.120384
0.161163
0.116047
0.144561
0.191185
0.129345
0.191758
0.156233
0.195605
0.217101
0.11447
0.128874
0.113615
0.102907
0.113656
0.115261
0.118029
0.114971
0.104874
0.185402
0.123216
0.118998
0.123845
0.113838
0.120967
0.124192
0.16458
0.130305
0.137894
0.172502
0.137793
0.13979
0.126891
0.166555
0.0988922
0.104321
0.166553
0.255186
0.245164
0.154235
0.191231
0.181883
0.187698
0.203418
0.158938
0.112367
0.119615
0.122553
0.15322
0.174609
0.146543
0.132918
0.110209
0.116579
0.121275
0.106421
0.132705
0.157571
0.146589
0.139367
0.144667
0.153533
0.0894008
0.104563
0.0887863
0.124274
0.112859
0.103781
0.122459
0.119478
0.14796
0.171866
0.17451
0.160291
0.106569
0.131672
0.114929
0.121814
0.123716
0.102755
0.144471
0.138203
0.141255
0.158901
0.162397
0.158786
0.151746
0.148146
0.159198
0.138158
0.143208
0.131299
0.123027
0.130127
0.113082
0.131746
0.120854
0.129177
0.142016
0.128915
0.145186
0.141503
0.145708
0.141882
0.141853
0.111547
0.158039
0.153305
0.15485
0.156798
0.183126
0.132694
0.149497
0.162515
0.15553
0.143817
0.14369
0.151925
0.116559
0.148373
0.117052
0.186393
0.166266
0.171657
0.153542
0.159233
0.165942
0.179295
0.184971
0.193387
0.124454
0.108243
0.168254
0.131778
0.124671
0.125509
0.138732
0.11423
0.140047
0.151333
0.143469
0.144414
0.154121
0.179071
0.113096
0.139177
0.112758
0.151262
0.150738
0.1209
0.127663
0.150062
0.155548
0.187576
0.183658
0.179637
0.124459
0.105219
0.125093
0.125492
0.104356
0.117679
0.115592
0.159355
0.112803
0.159144
0.116304
0.185274
0.102664
0.114293
0.122358
0.16897
0.105259
0.142517
0.188487
0.176213
0.180531
0.19463
0.195583
0.121904
0.142137
0.1296
0.111447
0.108078
0.0976346
0.0954665
0.0969175
0.101015
0.164738
0.178685
0.17809
0.131248
0.213906
0.171286
0.188758
0.136281
0.13208
0.181477
0.138914
0.191571
0.184491
0.152378
0.193756
0.133168
0.116384
0.140212
0.123921
0.10429
0.105708
0.186549
0.17026
0.176988
0.176381
0.157997
0.122013
0.125063
0.134704
0.135604
0.159661
0.149955
0.177771
0.142068
0.140278
0.15302
0.14845
0.136006
0.125069
0.150881
0.155888
0.149286
0.140255
0.141876
0.174047
0.119257
0.138575
0.163475
0.159272
0.146694
0.147122
0.13635
0.117548
0.135461
0.111898
0.135332
0.169358
0.138555
0.127678
0.138458
0.147622
0.15219
0.179841
0.191308
0.190529
0.182108
0.132053
0.14832
0.142126
0.157431
0.111288
0.176567
0.125919
0.106613
0.108781
0.238639
0.187945
0.21051
0.21336
0.222222
0.193267
0.12159
0.15175
0.182595
0.185319
0.184863
0.190259
0.149315
0.116482
0.118366
0.11073
0.108855
0.126271
0.110687
0.135991
0.116046
0.120336
0.125501
0.130746
0.142536
0.139309
0.136878
0.144619
0.138929
0.154736
0.148992
SCALARS SignedDistance double 1
LOOKUP_TABLE default
1.87723
1.6971
1.33623
1.46717
1.781
1.82913
2.96046
1.97673
2.17612
2.33163
2.1777
2.18338
1.92143
2.03572
1.65815
1.66376
1.74073
1.73808
1.71916
1.75267
1.5183
2.26136
2.07126
1.83132
2.05947
2.00445
2.20726
1.91921
2.36225
2.84432
1.42665
2.11223
1.98862
2.16566
1.49479
1.5513
1.99351
2.07601
2.06447
2.77604
2.29667
2.16328
1.81554
1.8497
1.78169
2.23079
1.99775
2.17739
1.69634
1.8049
1.92412
1.6152
1.80359
1.70864
1.56856
1.83581
1.65128
1.90394
1.45732
1.73699
1.56774
1.54583
2.03878
1.82002
2.05489
1.27899
1.55991
1.99735
1.51053
1.80084
1.34314
1.84949
1.62694
2.1762
1.7851
1.97344
2.30659
1.93688
1.69706
1.92351
1.834
2.10144
2.06072
2.25612
2.24048
2.06428
2.14815
2.25744
1.68768
1.86993
1.80453
2.09494
2.08117
2.57233
2.24913
1.47239
1.93644
1.58024
2.25907
2.44635
2.08614
2.29733
2.80892
2.73886
2.7712
1.7775
2.18717
1.40391
1.26834
2.0705
1.60923
1.81348
1.6606
1.73915
1.43254
2.20636
1.95887
2.14749
1.88183
1.8922
1.94118
1.56733
1.53752
2.0924
1.78614
1.59797
1.65307
1.40974
1.85458
1.60984
1.56414
2.01374
2.57585
2.44936
2.64166
2.11575
1.86489
2.7722
2.51144
2.57383
2.45442
2.49021
2.13327
2.12124
2.34796
2.21636
2.28675
1.95592
2.33139
2.22909
1.673
2.02004
2.01141
2.51529
2.00771
2.53807
2.47875
2.60618
2.28649
1.88929
1.77074
1.55332
1.83769
1.91859
1.95917
1.93606
1.91089
1.84805
1.6954
1.80901
1.73824
2.26294
2.21886
2.31945
1.99947
2.09533
2.11683
2.03719
2.10418
2.00513
1.78687
1.81267
1.84687
1.72597
1.7573
1.65747
1.97446
1.84641
1.90958
1.90975
1.88015
1.80067
1.81979
1.91624
1.62676
1.67091
1.77658
1.71968
1.67721
1.78657
1.67743
1.59589
1.61318
1.66079
1.58699
1.58987
1.87138
1.94309
1.88212
1.68665
1.78391
1.80552
1.73456
1.7386
1.63002
1.58444
1.58572
1.59155
1.71029
1.85564
1.68308
1.5926
1.67616
1.54684
1.56182
1.61717
1.76736
1.62103
1.63151
1.63419
1.62692
1.70216
2.073
2.00789
1.9796
1.68678
1.89024
1.87523
1.9169
1.90108
1.6994
1.6747
1.65367
1.59381
1.61578
1.73152
1.39896
1.45915
1.47026
1.4057
1.3411
2.13647
1.95652
1.56383
1.77567
1.85924
1.76583
1.59287
2.00671
1.7657
2.01705
1.43483
1.53409
1.61919
1.76147
1.57736
1.49103
1.30899
1.3617
1.27076
1.64477
1.51492
1.52808
1.6855
1.7892
2.1861
1.98329
1.99135
1.95638
2.19835
1.7838
1.58848
2.27526
2.21354
1.93097
2.08319
2.35359
2.18101
2.08172
1.65726
1.85098
1.79879
1.87462
1.69819
1.77493
1.90436
1.73629
1.87526
1.91425
1.84462
1.8044
1.96667
1.87443
1.99665
1.7485
1.73516
2.25238
2.19398
2.33926
1.98543
2.08701
1.95895
2.14993
2.14537
2.07006
1.84943
1.96136
1.98694
1.98087
1.91901
2.10411
2.05811
2.23227
2.18082
2.12498
2.12994
2.21084
2.10286
2.2074
2.18604
2.28955
2.19711
1.68272
1.66524
1.73675
1.89477
1.73272
1.81086
1.91558
1.77809
1.91678
2.26657
2.05572
2.05772
2.13589
2.11697
2.28615
2.21044
2.01789
2.07102
2.04526
2.38199
2.43967
2.30136
2.37118
2.39917
2.49571
2.41325
1.28826
1.41086
1.33834
1.90843
1.69645
1.72737
1.92461
1.77226
2.05033
2.16086
2.17747
2.08497
2.13393
2.27621
1.99636
2.02738
2.65235
2.32312
2.54313
1.98528
2.2148
2.44708
2.33835
2.21739
2.13102
2.04989
2.86915
2.95648
2.96176
2.77453
2.96277
2.78629
2.53965
2.73634
2.58313
2.25955
2.5036
2.50411
2.15673
1.98267
1.66183
1.91588
2.20975
2.06744
1.95455
1.54126
1.38264
1.28683
1.30987
1.35322
1.32159
1.42836
2.12264
1.91542
2.02198
1.85155
1.8535
2.05711
1.59631
1.68415
1.42486
1.42915
1.35802
1.62388
1.46411
1.4898
1.38281
1.89898
1.71679
1.90983
1.44494
1.53438
1.57839
2.22392
2.16545
2.20693
2.0469
2.12163
2.22771
2.05464
2.05933
1.95157
1.97194
2.05847
1.8374
1.7173
1.9005
1.6418
2.05493
2.07323
2.02905
1.8567
1.90719
1.77333
1.48419
1.40453
1.42379
1.47415
1.70918
1.60545
1.76287
1.89344
2.02653
1.7669
1.99633
1.79629
1.75086
1.53337
1.46684
1.51325
1.37451
1.89375
1.63874
1.85529
1.43981
1.49483
1.52732
1.58937
1.82643
1.82847
1.4582
1.48359
1.88758
1.65876
1.79798
1.70456
1.9172
1.40713
1.53777
2.00532
1.75718
1.79254
1.78881
2.0877
2.83584
2.78932
2.84625
2.17399
2.45952
2.30898
2.37235
2.56774
2.28919
2.16734
2.29317
2.12754
1.69638
1.59764
2.03181
1.84178
2.11846
1.9789
2.2296
2.84883
2.71784
2.59419
2.65561
2.76087
2.51625
2.29
2.31898
2.53342
2.30355
2.36318
2.49624
2.35884
2.71244
2.67693
2.59823
2.30609
2.50171
2.37698
1.7296
2.21908
2.01542
1.90536
2.06664
2.14567
2.32167
2.38935
2.34001
2.13291
2.47012
2.25818
2.23892
2.34549
2.10318
2.1548
2.21528
2.33111
2.41088
2.19026
2.25625
2.15747
1.75918
2.01848
1.87916
1.80361
1.95503
2.29091
2.20302
2.31155
2.27083
2.20846
1.97442
2.18025
2.16743
2.04989
2.10911
2.14683
2.29364
2.13725
1.37531
1.57438
1.4731
1.55713
1.77349
1.95971
2.13611
2.06229
2.02324
1.76701
2.12428
1.95646
2.01958
2.12269
2.1437
1.84048
2.01164
1.89015
2.74533
2.27469
2.54394
2.71739
2.66084
1.51629
2.10373
1.78416
1.72138
1.94162
2.61179
2.64708
2.71847
2.49571
2.39423
2.27037
2.32497
2.54901
2.27809
2.68637
2.46658
2.25977
2.28412
2.91465
2.43455
2.65036
2.88118
2.83313
2.00362
2.35698
2.21316
2.11181
2.24923
2.62331
2.41587
2.49184
2.16312
2.00606
2.07539
1.98937
1.82444
1.96456
1.59749
1.77813
1.9413
1.96172
1.56561
1.67119
1.58948
1.50713
1.5075
1.79757
1.60092
1.67753
