# vtk DataFile Version 4.2
vtk output
ASCII
DATASET POLYDATA
POINTS 642 double
-1.07539 2.31572 -0.40414
1.22196 2.39866 -0.378933
-1.45493 -1.66006 0.000390133
1.13786 -1.47816 0.0640103
-0.0440988 -0.387741 1.41211
-0.00414053 1.76489 1.33863
-0.130058 -0.403216 -0.495436
-0.244933 1.86462 -1.4231
1.34933 1.35449 -0.697675
1.08969 0.760302 0.444624
-1.39078 1.22822 -0.925945
-1.1518 0.56739 0.52436
-1.40221 1.69799 0.13665
-0.622007 1.28184 1.09576
-0.549404 2.41984 0.925269
0.578999 2.42232 0.905878
-0.00197763 2.79921 -0.188646
0.934027 2.35276 -0.904666
-0.912371 2.31072 -1.04783
-1.25986 1.727 -1.3352
-1.9141 1.99178 -0.945799
-1.43301 0.914518 -0.293129
0.600213 1.32564 1.06091
1.48705 1.77329 0.107672
-0.519346 -0.1652 1.14903
-0.0489638 0.299693 1.30739
-1.149 -0.651795 -0.130905
-1.29546 -0.822349 0.342251
-0.266588 1.22428 -1.26755
-0.968161 0.599476 -0.794392
2.03865 2.02871 -0.872909
1.1134 1.76912 -1.02127
1.14675 -0.690076 0.415488
0.485588 -0.188541 1.0875
0.642616 -1.32459 0.957501
-0.716096 -1.28625 0.794802
-0.00188124 -1.39858 0.157114
-0.715966 -0.980365 -0.219141
0.496098 -1.01328 -0.181036
0.71828 0.408548 -0.616564
0.97158 -0.533179 -0.0963456
1.39395 1.14126 -0.203747
-1.3421 2.09417 -0.135339
-0.930161 2.03659 0.570537
-0.759672 2.40095 0.248358
-0.883009 0.928479 0.78251
-0.938657 1.53303 0.718938
-1.23635 1.1787 0.316845
-0.209196 2.09483 1.2205
-0.655651 1.89417 1.12139
-0.28934 1.57645 1.23715
-0.329443 2.81161 0.468686
-0.570741 2.57654 -0.283983
0.213886 2.09924 1.21799
0.00412012 2.56149 1.04178
0.683227 2.54247 -0.287869
0.320624 2.68956 0.432652
0.841619 2.33087 0.139852
-0.457063 2.94728 -0.726652
-1.01987 2.38422 -0.78356
1.16198 2.45793 -0.681079
0.46089 2.94447 -0.715466
-0.669812 2.0996 -1.23638
-0.0630747 2.50513 -0.941408
0.473428 2.13398 -1.12191
-1.62636 2.60894 -1.25583
-1.58515 2.30669 -0.653516
-0.91346 1.78985 -1.32217
-1.30253 2.06463 -1.39289
-1.63257 1.54809 -1.03761
-1.89702 1.83519 -1.65808
-1.39103 1.52934 -1.18489
-1.83135 1.89985 -0.315422
-1.45923 1.08578 -0.65253
-1.70639 1.49173 -0.588509
-1.52535 1.36102 -0.163672
-1.32606 0.706737 0.131197
1.00068 2.04007 0.461574
1.4688 2.25496 -0.0709275
0.276352 1.59614 1.24736
0.62155 1.89784 1.04712
1.28397 1.29815 0.26375
0.990638 1.57261 0.609397
0.892046 1.00871 0.700239
-0.251445 0.775248 1.17879
-0.0168556 1.19776 1.21904
-0.922487 0.123842 0.867067
-0.503896 0.449238 1.10692
-0.0106204 -0.0831457 1.80782
-0.22779 0.0725616 1.44468
-0.229218 -0.300001 1.4444
-1.30371 -0.278092 0.112355
-1.27695 -0.205927 0.488576
-1.21102 0.394514 -0.511778
-1.25456 -0.0788638 -0.177913
-1.4799 -1.29859 0.235312
-1.27484 -0.853246 0.0588932
-1.28592 -1.30571 0.00912766
-1.12529 1.3551 -1.17997
-1.20755 1.02371 -0.914804
-0.284859 1.57358 -1.37537
-0.898551 1.50574 -1.28233
-0.623623 -0.0459247 -0.611437
-0.773398 1.08664 -1.11754
-0.191062 0.639228 -0.937183
1.16523 2.11121 -1.02555
0.625313 1.82657 -1.18525
1.73481 2.55354 -0.513307
1.63911 2.60139 -1.20737
1.31015 1.59761 -0.893405
1.55792 2.00742 -1.03976
1.60352 1.66738 -0.800051
1.02858 -1.1361 0.280763
1.02323 -1.07181 0.703278
1.1288 -1.62535 0.556173
0.8639 0.172581 0.81902
0.951112 -0.5255 0.804738
1.14606 -0.0172213 0.514779
0.220422 -0.849005 1.03505
0.625658 -0.786097 0.980303
0.156315 -0.317241 1.32653
0.394606 -1.62165 0.602639
0.752849 -1.65884 0.0456711
-0.250713 -0.795515 1.0262
0.0252446 -1.21539 0.837567
-0.869331 -1.52147 0.0946288
-0.462265 -1.45373 0.543257
-1.21997 -1.65945 0.536008
0.393434 -1.26863 -0.0767062
0.809752 -1.34219 -0.0435294
-1.09441 -1.36967 -0.0768849
-0.483867 -1.20911 -0.0851879
0.215674 -0.740076 -0.346103
-0.0595968 -1.00074 -0.229439
-0.436564 -0.714806 -0.378275
0.74332 -0.88477 -0.121611
0.914594 -1.08545 0.0687736
0.329436 -0.159751 -0.537537
0.552295 -0.601923 -0.316861
1.10443 0.631943 -0.401734
0.831363 -0.175864 -0.31514
1.09995 1.07422 -0.70522
1.07636 -0.686848 0.123687
1.4307 1.27247 -0.497723
1.12104 0.270077 -0.115852
1.15812 0.026364 0.160278
1.2783 0.956053 0.114293
0.134497 0.0924988 1.38241
0.468945 0.506441 1.05694
0.193857 0.836126 1.16515
-1.2277 -1.13535 0.69119
-0.658345 -0.776574 0.909548
-1.04904 -0.599514 0.722025
-0.79754 -0.556977 -0.36996
-1.00228 -0.906288 -0.147563
-1.03006 -0.19377 -0.398804
0.962215 1.35114 -0.954314
0.362158 0.96049 -1.01843
0.54027 1.4693 -1.19255
1.5943 1.506 -0.0880704
1.77616 1.5847 -0.487069
2.00304 2.00963 -0.228076
-1.20007 2.23031 -0.303507
-1.02523 2.19226 0.0343504
-0.92609 2.32288 -0.166969
-1.18832 1.85566 0.336234
-1.1444 2.05585 0.212425
-1.46461 1.95796 0.0642978
-0.672646 2.45326 0.61027
-0.884715 2.25903 0.446134
-0.760873 2.2529 0.779494
-1.04765 0.713114 0.626606
-1.05704 1.06275 0.574256
-1.17091 0.84111 0.440161
-0.787363 1.4273 0.949409
-0.908525 1.25553 0.756429
-0.737728 1.11795 0.937558
-1.30864 1.44397 0.211514
-1.0966 1.35466 0.495493
-1.14962 1.60842 0.420475
-0.0825917 1.90792 1.33945
-0.259895 1.85003 1.26725
-0.121231 1.70184 1.33838
-0.615746 2.17671 1.05483
-0.438504 2.02848 1.21201
-0.371857 2.2783 1.12434
-0.477366 1.43413 1.21185
-0.465518 1.7395 1.21186
-0.653641 1.59358 1.12297
-0.985782 1.80225 0.683734
-0.831947 1.71975 0.955092
-0.848116 2.01602 0.918934
-0.657458 2.50112 0.00240909
-0.848806 2.41524 -0.358886
-0.43764 2.60566 0.71944
-0.608774 2.66452 0.392241
-0.323641 2.69218 -0.230705
-0.44595 2.68845 0.0845661
-0.165495 2.81633 0.128559
0.0775258 1.91004 1.33946
-0.00107908 2.11394 1.21675
0.313734 2.5562 1.02971
0.137346 2.36186 1.21219
0.403101 2.29832 1.15018
-0.133839 2.35786 1.21248
-0.300358 2.55234 1.03723
1.02456 2.43276 -0.360566
0.771147 2.44101 -0.0701631
1.08955 2.35566 -0.216563
0.15973 2.72147 0.131074
0.479529 2.619 0.0677247
0.349015 2.65408 -0.216917
0.70822 2.43038 0.56055
0.598614 2.54794 0.337104
0.468643 2.60339 0.7013
-0.149528 2.68966 0.777822
0.165051 2.68955 0.77322
0.0119699 2.81663 0.482028
-0.763823 2.50846 -0.562442
-1.05812 2.35961 -0.565663
-0.212451 2.70833 -0.491646
-0.496031 2.68841 -0.535609
-0.974314 2.36241 -0.935593
-0.664075 2.57221 -0.737717
-0.60642 2.5487 -0.862966
1.21592 2.4425 -0.51492
0.923939 2.51828 -0.517572
0.653918 2.55606 -0.789316
0.765465 2.57178 -0.674488
1.0717 2.41831 -0.813215
0.566475 2.66794 -0.509232
0.203521 2.70972 -0.474374
-0.441558 1.95386 -1.32503
-0.131509 2.13888 -1.19323
0.0983232 1.98872 -1.32759
-0.517585 2.45755 -0.988135
-0.373623 2.31256 -1.08909
-0.818757 2.22083 -1.14634
0.736976 2.2642 -0.999084
0.220729 2.32139 -1.04436
0.479811 2.44979 -0.91963
-0.0074573 2.68081 -0.676605
0.178849 2.61551 -0.794532
-0.259691 2.74656 -0.920305
-1.33582 2.33545 -0.772326
-1.28223 2.28852 -0.51425
-1.30942 2.3134 -1.15328
-1.35836 2.34923 -1.01895
-1.88369 2.28185 -0.78513
-1.62511 2.39615 -0.93961
-1.91424 2.31348 -1.10904
-0.589736 1.81936 -1.34804
-0.835586 1.93457 -1.30492
-1.33786 1.92223 -1.41127
-1.10781 1.92201 -1.34897
-1.11703 1.76641 -1.33795
-1.01676 2.0687 -1.28671
-1.15672 2.19903 -1.24604
-1.47386 1.3645 -0.979107
-1.51547 1.56136 -1.14373
-1.40073 1.35557 -1.03877
-1.9133 1.95762 -1.26488
-1.70426 1.77694 -1.27871
-1.86097 1.70903 -1.06256
-1.35097 1.6566 -1.29241
-1.57066 1.77695 -1.34603
-1.49694 1.8545 -1.43637
-1.45423 2.2604 -1.37388
-1.51973 2.06827 -1.66174
-1.8154 2.27034 -1.49337
-1.50449 2.25166 -0.363382
-2.02361 1.98668 -0.61542
-1.83607 2.2307 -0.436991
-1.60901 2.02885 -0.23664
-1.63342 1.79712 -0.0925398
-1.4239 1.17887 -0.833235
-1.54607 1.34535 -0.844922
-1.55323 1.24081 -0.449332
-1.57654 1.29645 -0.641073
-1.45996 1.00396 -0.470472
-1.71648 1.51987 -0.836124
-1.91146 1.701 -0.76824
-1.30344 0.976197 0.196114
-1.23097 0.60687 0.372566
-1.50651 1.53372 -0.028008
-1.39221 1.27818 0.0604692
-1.38654 0.815841 -0.0974297
-1.41522 1.08475 -0.0419432
-1.4966 1.16859 -0.252729
-1.9047 1.65587 -0.458656
-1.63373 1.45477 -0.387883
-1.67237 1.62335 -0.261357
1.16514 2.23588 -0.0427506
1.32119 2.34519 -0.278762
0.76796 2.23669 0.712144
0.917427 2.20074 0.313469
1.52562 2.01966 0.0440406
1.24052 2.08042 0.110418
1.30759 1.91138 0.277062
0.110998 1.707 1.3384
0.259072 1.85857 1.2675
0.614426 1.62264 1.05806
0.459452 1.75867 1.20371
0.457235 1.46992 1.20516
0.452185 2.03603 1.20875
0.610248 2.16416 1.00229
1.16755 1.01754 0.362839
1.10248 1.16537 0.475732
1.03052 0.853501 0.534319
1.25211 1.66827 0.337015
1.17855 1.4287 0.398904
1.40827 1.53367 0.19595
0.731997 1.16891 0.876531
0.942107 1.3125 0.655268
0.777186 1.46528 0.875118
0.773749 1.99078 0.789071
0.778783 1.73502 0.838625
1.04355 1.82475 0.576738
-0.142738 1.40649 1.2446
-0.00740019 1.57363 1.3384
-0.428885 1.07797 1.13756
-0.299051 1.2384 1.21709
-0.0359219 0.706811 1.20609
-0.144343 0.970763 1.21824
-0.129061 0.488055 1.23078
-1.09222 0.370254 0.684143
-0.89049 0.529802 0.82603
-0.488196 0.106934 1.16653
-0.688653 0.297342 1.01163
-0.715016 -0.0496265 1.00632
-0.699591 0.722246 0.955106
-0.551194 0.90485 1.05033
-0.0281258 -0.36279 1.64357
-0.247757 -0.277033 1.8001
-0.123574 -0.365641 1.46597
-0.134611 0.144609 1.41094
-0.177277 0.00697374 1.64991
-0.053987 0.0603937 1.51003
-0.357586 -0.242681 1.29724
-0.261049 -0.126876 1.53917
-0.336443 -0.0305356 1.34039
-0.366556 0.600819 1.15271
-0.331164 0.218199 1.25461
-0.222016 0.329568 1.26322
-1.28984 0.213872 0.330949
-1.24984 0.265191 0.54884
-1.32946 0.332715 -0.0738889
-1.3132 0.243137 0.11362
-1.34761 -0.552084 0.433801
-1.29662 -0.277684 0.284383
-1.39968 -0.611353 0.234885
-1.32412 1.00557 -0.795482
-1.32749 0.793735 -0.609188
-1.19947 -0.433241 -0.136237
-1.2265 0.10926 -0.322151
-1.14837 -0.252388 -0.261818
-1.33027 0.614477 -0.426371
-1.33315 0.466963 -0.252495
-1.70594 -1.628 0.13709
-1.40343 -1.34185 0.0792092
-1.56267 -1.50997 -0.130437
-1.29179 -0.861779 0.180571
-1.29117 -1.10714 0.151556
-1.30735 -1.08832 0.284583
-1.16038 -0.973222 -0.0257288
-1.23903 -1.08065 0.062026
-1.23686 -0.78901 -0.0493854
-1.29895 -0.216303 -0.0393012
-1.26908 -0.55477 -0.0319548
-1.3354 -0.609744 0.0815259
-1.29938 1.30813 -1.07111
-1.32019 1.16149 -0.931727
[...]
POINT_DATA 642
SCALARS Mean_Curvature double 1
LOOKUP_TABLE default
-0.210286
-0.227461
4.78753
8.12233
0.80505
-0.0186469
0.176727
5.65566
0.888815
0.537652
1.41343
0.0433513
0.663688
1.70858
2.22226
2.7826
2.425
1.20666
0.998849
1.26951
-0.0575518
0.945031
1.56055
-1.25472
0.167621
0.361944
0.294151
-0.75145
0.995543
0.335649
4.57658
0.843155
2.4938
-0.0288638
1.42581
-0.207258
1.08983
1.03984
0.870965
0.516138
0.370785
0.884202
-0.792649
-0.697583
-0.580584
0.105936
-0.493567
0.413336
-0.111723
2.13718
-0.995719
3.09917
-0.257265
-0.528333
1.66347
-0.30485
0.793588
-0.604046
6.34003
0.527028
0.665762
6.52715
0.776432
-0.50559
0.285087
5.87877
0.130814
0.391351
1.43468
0.675093
6.03252
0.995418
2.78513
1.58283
-0.270633
0.526051
0.833526
0.588295
2.7975
-0.432355
1.22538
0.657037
-0.221731
0.228931
0.0597809
0.106032
0.872043
0.355613
7.99199
2.49909
2.10757
0.225323
2.55117
1.17568
1.10114
4.44647
1.76376
0.232751
1.15816
1.40892
0.39736
0.448627
0.511738
0.227284
0.129784
0.977863
0.918609
4.42247
5.79382
0.741291
0.261019
0.681846
-0.403727
0.361846
5.80271
1.2671
1.68963
3.84497
0.581345
-0.270534
0.424913
2.69994
4.03266
-0.0138073
0.757134
1.68531
0.863105
3.82833
1.43213
0.456565
1.13063
0.809902
0.748257
0.241845
0.814005
0.735529
0.149428
0.486835
0.912958
0.788897
0.847195
1.11992
-1.21201
0.854353
0.801055
1.29493
1.10203
1.66969
0.353889
0.583012
3.29239
0.371051
0.255644
0.958592
0.740741
1.59328
0.733373
0.379508
0.992708
-0.551688
1.2911
4.54823
-0.639196
-0.866508
-0.413676
1.13768
0.896672
4.19267
0.715028
1.6108
1.18902
0.244872
0.241635
0.340425
0.677601
0.0821021
0.141486
-0.114642
-0.147562
-0.0433352
4.64397
-0.0580866
3.5164
2.16501
2.74927
0.611954
2.61909
1.19021
1.88356
1.42788
1.5742
3.17785
-0.356716
-0.312936
0.761284
3.44819
-0.134511
0.691921
2.10072
4.60565
-1.99252
3.55118
3.45998
2.77708
3.77282
3.90349
-0.375473
-0.421864
-0.211405
-0.328816
0.818984
-0.567254
1.89809
1.0936
2.10773
1.08414
1.50526
2.48982
0.377792
0.13194
-0.718381
0.520129
0.838475
1.53755
1.31487
0.133185
1.18384
0.852964
2.51741
1.14353
0.138019
-0.681642
0.489338
-0.444939
0.129863
0.869466
0.217364
0.476112
0.884155
0.309712
1.0794
0.470415
0.0285811
4.8523
-0.169214
-0.615169
1.26249
0.34434
3.61538
1.38911
3.7058
1.10881
0.68373
1.44497
1.43964
1.35287
1.23856
1.48235
1.0664
0.339605
1.28272
2.69965
0.381341
3.8095
1.02514
0.984037
1.0961
0.886085
6.09875
4.23432
2.96723
4.29247
4.74319
-0.0208397
2.89457
1.40558
0.755549
0.867271
0.88844
1.35355
1.02609
2.25875
0.39018
0.43549
0.635826
0.226452
0.331529
0.711302
0.685889
4.72949
-0.038885
-0.194723
-0.564024
-0.599417
1.52366
-0.550783
0.437766
-0.995059
2.96143
3.3686
0.277699
0.617402
2.30357
3.27422
3.74161
1.42201
0.606186
0.618194
0.329075
-0.12441
-0.0386933
1.66372
0.0625337
-0.0705476
0.738254
-0.239742
-0.154226
2.16153
-0.600832
4.62573
0.394342
1.16514
0.060602
1.91461
0.321777
0.845101
0.313258
0.127165
0.469419
0.399306
0.218009
0.04881
7.5126
8.22915
2.61159
1.50079
7.45902
-0.568385
0.365557
2.10813
0.209779
0.32672
0.37408
0.405529
0.496801
3.43905
0.906399
0.314857
3.22702
-0.375712
5.25747
1.61957
1.41531
0.732573
1.19401
1.2947
0.948838
1.17226
6.90707
-0.649987
9.14049
-0.264231
0.00500556
-0.53139
0.161347
0.127279
6.60011
2.96525
1.2738
2.54293
1.3967
1.55409
1.11898
1.19975
0.791609
1.32983
1.03328
2.02905
1.27417
1.11877
1.17339
0.798963
0.392731
1.04575
0.359301
0.213114
0.179033
0.233624
0.190142
0.51181
0.913813
0.281142
0.969191
0.925789
0.497994
0.896634
0.600452
6.30486
1.06072
0.434578
0.153877
0.109968
0.853766
-0.734965
3.52656
4.23445
4.25033
2.87213
0.602221
1.14049
0.727624
0.29894
0.32715
0.71548
0.504563
0.84268
-0.444565
-0.319184
4.15291
0.812867
5.83865
0.748776
-0.676367
2.6665
7.80889
4.96534
-1.10534
-0.715548
4.78293
-0.505533
4.41975
0.613217
0.725065
0.376881
-0.166568
-0.0364765
0.189382
-0.270624
0.917953
1.5316
0.802933
0.175525
0.396242
-0.06657
-0.18531
0.495283
0.5204
0.608955
0.352388
1.7429
2.879
4.07963
0.888435
5.28653
5.78868
1.25376
0.877602
2.09267
0.517482
0.895199
0.444913
0.551233
-0.312461
0.361484
0.430169
1.48841
3.54597
1.68419
1.61326
0.87702
0.391616
0.799535
5.97815
3.24427
4.1244
0.311099
0.926884
0.988094
8.64915
7.71436
1.57105
1.60612
0.854428
1.2774
1.10515
8.31318
5.64195
0.864945
0.864516
0.818702
0.965675
0.851018
0.429032
0.111454
0.40841
0.82973
0.700856
0.846344
1.02273
0.862163
0.916454
0.548936
0.854834
0.955517
0.145447
-0.36322
0.861287
0.554969
0.141419
0.46866
0.554677
0.368607
0.688553
0.684278
0.695378
0.484749
0.885701
0.955429
1.26647
1.02044
1.15055
0.617709
0.887293
0.785072
0.216567
0.809719
0.769821
0.938086
0.788195
0.771644
0.163506
6.06562
0.865102
-0.257668
4.28541
0.839458
1.22316
1.00395
1.1724
0.811071
1.05985
0.849697
0.529014
0.305288
0.277517
0.739559
1.07467
0.91396
0.772206
6.35513
0.225707
1.59882
5.54047
0.373341
0.333894
6.38246
0.617405
0.414655
0.0657855
0.244891
0.20401
0.199833
-0.165297
0.285253
0.107357
1.5775
0.127881
0.222991
0.433747
0.294385
5.90337
1.28129
2.4067
-0.120511
0.413263
0.901716
0.239913
0.645103
0.575818
-0.211244
0.929403
3.10369
0.356864
-0.155249
0.173429
1.7507
-0.0599147
1.49607
0.618494
1.08049
0.940733
0.755024
1.11805
3.11484
0.677952
0.160816
0.351321
0.898039
0.968541
0.982622
0.963748
1.4635
1.04383
0.980614
0.899576
1.15372
1.03021
0.21375
0.967953
0.934052
0.776724
0.174881
0.998456
0.254332
0.128339
0.178846
2.08564
0.617576
0.931711
0.401863
0.743911
0.275582
1.08366
0.748047
0.862703
0.0052258
0.60923
0.220151
3.66922
-0.23121
2.90743
3.95258
3.52265
0.810453
0.468991
3.48041
4.13928
1.41669
2.19794
1.40641
2.29049
4.9404
SCALARS CoVolArea double 1
LOOKUP_TABLE default
0.0374543
0.0253697
0.0427168
0.0249527
0.0197517
0.0184699
0.0591413
0.0482153
0.0128886
0.0363939
0.0143569
0.044363
0.0803926
0.0674096
0.0795084
0.0844554
0.112603
0.0649993
0.0639158
0.0303749
0.0982495
0.069079
0.0726779
0.0655151
0.074692
0.0329519
0.0318043
0.04872
0.0838735
0.0751715
0.0951493
0.0348894
0.047987
0.0770384
0.083671
0.0736849
0.0852296
0.0354092
0.0293753
0.115105
0.0426599
0.046904
0.0846587
0.0928704
0.0994358
0.0892986
0.0825164
0.0787517
0.0537096
0.0710666
0.0543255
0.109029
0.0872753
0.0562883
0.0842477
0.0911301
0.104058
0.0921782
0.101961
0.0710907
0.0595049
0.11561
0.0833454
0.108741
0.0982319
0.119125
0.0850328
0.0383072
0.0545595
0.0528005
0.114384
0.0329263
0.0873513
0.05548
0.0623918
0.057683
0.0919435
0.093124
0.0751255
0.0523055
0.0691612
0.0526699
0.0855957
0.0905735
0.062195
0.0554179
0.10439
0.0798098
0.0566985
0.0365378
0.0524654
0.0731843
0.0871026
0.0629397
0.0629303
0.0651599
0.029582
0.03251
0.0296377
0.0417802
0.0766203
0.0326141
0.114331
0.0734744
0.167713
0.0428743
0.0659385
0.0915643
0.119154
0.0300121
0.0496891
0.037607
0.037129
0.0667042
0.0975681
0.0958458
0.0656956
0.0832748
0.0568702
0.062718
0.0513639
0.109039
0.0781814
0.0683154
0.0731717
0.0795105
0.0914929
0.106319
0.0466478
0.0356417
0.0393594
0.056643
0.0479936
0.0535709
0.0522434
0.0307235
0.0280507
0.107954
0.0420332
0.0686908
0.0658164
0.0552379
0.0344922
0.0396916
0.0694582
0.0767206
0.0583556
0.0419564
0.0930947
0.0644368
0.0704322
0.0650903
0.0743297
0.045984
0.0300756
0.0549249
0.0552438
0.123072
0.0737063
0.04624
0.054624
0.0945271
0.0668541
0.0965407
0.0795042
0.0920399
0.09508
0.0834565
0.0878729
0.0948212
0.0839461
0.075391
0.0840054
0.0688133
0.0713418
0.0794157
0.0773043
0.0757257
0.0836128
0.0882983
0.0360101
0.0501179
0.0370203
0.0739622
0.0614023
0.0675483
0.0611033
0.0598117
0.0658969
0.0908735
0.0780602
0.0845192
0.0957785
0.0708429
0.0922724
0.0997613
0.0938601
0.101941
0.113247
0.036468
0.0520311
0.0869792
0.0697717
0.0724107
0.0675841
0.0829175
0.0555853
0.0902912
0.0594139
0.113432
0.104722
0.106297
0.0925523
0.0993661
0.0943288
0.0975232
0.0979266
0.111323
0.0732861
0.0593758
0.098347
0.0814468
0.0601497
0.0690734
0.0757214
0.0429069
0.065064
0.0906904
0.0702427
0.0583423
0.0955264
0.110321
0.0775546
0.122794
0.0979189
0.0866694
0.109261
0.069915
0.0732193
0.115975
0.0928304
0.10343
0.107048
0.103056
0.072518
0.0589126
0.0698369
0.0740702
0.0997271
0.0943069
0.120748
0.0476253
0.0510643
0.0423606
0.0388148
0.0303696
0.0518896
0.0587999
0.0277463
0.0383507
0.0227888
0.11143
0.0694202
0.0766273
0.0320572
0.0487572
0.0603825
0.0968374
0.101214
0.146805
0.0787095
0.105176
0.0989273
0.0791678
0.072228
0.0350566
0.0448696
0.0509549
0.0516382
0.0613407
0.0618607
0.086418
0.0746093
0.0751626
0.0664315
0.0649371
0.0818368
0.0649005
0.0563862
0.0824452
0.0572317
0.0677163
0.0770184
0.0517349
0.0882909
0.0921805
0.0752068
0.0825047
0.0816983
0.03628
0.0498911
0.0672469
0.0583226
0.0611626
0.0623428
0.0749052
0.0473888
0.069692
0.06696
0.0770473
0.0709051
0.0556829
0.0848523
0.0828385
0.0791737
0.0853268
0.0817065
0.0911779
0.0536028
0.0383043
0.0694425
0.0627125
0.0486897
0.058449
0.0444105
0.0841352
0.100251
0.0714924
0.0961738
0.0918717
0.0936353
0.0788634
0.0445712
0.0613313
0.0397906
0.0306614
0.0448368
0.0331924
0.0587648
0.0476833
0.0506487
0.0680772
0.0538487
0.0450835
0.100934
0.082316
0.0901785
0.100507
0.0627238
0.081862
0.0535256
0.0395054
0.062137
0.0407925
0.062918
0.0478918
0.0730559
0.0813605
0.0858478
0.0539991
0.0572656
0.0368316
0.0333737
0.0434794
0.0281802
0.0282412
0.0296088
0.0671412
0.0399623
0.0440206
0.0290983
0.0278747
0.0252146
0.0276626
0.053755
0.0340167
0.0475694
0.0669136
0.0510989
0.0569538
0.0490566
0.0750258
0.0313782
0.0249404
0.105765
0.169393
0.155708
0.0774196
0.122473
0.0959241
0.103524
0.122698
0.074223
0.0285913
0.0439491
0.0431042
0.0730479
0.0796847
0.0488358
0.0537562
0.0455022
0.0462369
0.0394499
0.0504718
0.0712782
0.133627
0.122317
0.112818
0.0777798
0.0579751
0.022743
0.0313446
0.0232029
0.0347366
0.0335833
0.0301789
0.056787
0.0426608
0.0814536
0.0663142
0.0998386
0.0472668
0.0380509
0.064584
0.0653646
0.054985
0.0522706
0.0391967
0.102375
0.0784819
0.0797831
0.0751506
0.0838145
0.0698762
0.073959
0.0768439
0.0884677
0.0633524
0.0687203
0.0587827
0.0434436
0.0548127
0.037383
0.0658536
0.0582255
0.0588196
0.0606042
0.060444
0.0671809
0.0649081
0.0670297
0.0693214
0.0909154
0.0547841
0.107744
0.111308
0.0795204
0.100075
0.0976332
0.046999
0.0654965
0.0714943
0.073975
0.0671858
0.0648279
0.0723438
0.0623194
0.0959365
0.0808949
0.091887
0.0949153
0.0823843
0.107493
0.109311
0.0854394
0.089988
0.0839988
0.0958124
0.0561181
0.0370675
0.0665634
0.0537497
0.0286277
0.0355791
0.0363923
0.0466154
0.0532413
0.043755
0.0438534
0.0360102
0.0627197
0.0726058
0.056683
0.0588133
0.058962
0.0395504
0.0496411
0.0342099
0.0397443
0.0532715
0.0471484
0.0611023
0.0560848
0.0499209
0.0291192
0.0274512
0.0278911
0.027488
0.0312964
0.0295922
0.0355901
0.0989744
0.0595716
0.0744236
0.0596835
0.113832
0.0390623
0.0309445
0.0367578
0.0597503
0.0306665
0.0515675
0.0702841
0.0638348
0.0843452
0.0764634
0.0853615
0.0349942
0.0547448
0.0430761
0.0290385
0.0380136
0.0283724
0.0300282
0.0378907
0.0266295
0.0516214
0.0619705
0.056004
0.0431061
0.0705385
0.0590786
0.0808687
0.054445
0.057066
0.081776
0.0511531
0.0772273
0.0709862
0.055748
0.0728842
0.0532416
0.0473774
0.0601257
0.0465138
0.0401249
0.033065
0.100107
0.0879137
0.100492
0.102556
0.0839632
0.0514925
0.0452659
0.0567187
0.0606183
0.073555
0.0659185
0.0791535
0.0518812
0.0920764
0.0831543
0.0910964
0.06431
0.0562862
0.0544262
0.076019
0.0623393
0.0597593
0.0629498
0.0955607
0.06048
0.0749508
0.0916316
0.0864332
0.0694887
0.0749274
0.0670034
0.0662428
0.0349641
0.0439252
0.0670546
0.0707247
0.0386989
0.0292909
0.0277116
0.0325742
0.032057
0.0524516
0.0681767
0.059429
0.056747
0.039534
0.0365327
0.0382736
0.0529851
0.0348761
0.0952017
0.0531936
0.0354217
0.0391524
0.163371
0.0970525
0.134588
0.148771
0.139879
0.0874858
0.0501638
0.0674947
0.0843625
0.0872114
0.0962328
0.0886374
0.063232
0.0471034
0.0414469
0.0422157
0.0440955
0.0551239
0.0351734
0.0674404
0.0472151
0.0425279
0.0435402
0.0749703
0.0798317
0.0893099
0.0931377
0.0897114
0.054463
0.0763816
0.0718831
SCALARS SignedDistance double 1
LOOKUP_TABLE default
1.26643
1.2138
0.012359
-0.121159
1.09082
0.0103892
1.7368
0.115535
1.24356
1.32577
1.38973
1.1765
0.0860525
0.185021
-0.0222286
-0.0330916
0.0376322
1.49702
1.47946
1.37756
0.00712641
1.52665
0.142257
0.781161
1.3104
1.18492
1.13599
0.3595
1.41824
1.85749
-0.0349403
1.45456
0.0390018
1.35118
0.0406356
0.936737
1.56495
1.29787
1.41104
1.63445
0.686613
1.26512
0.798659
0.10158
0.274473
1.27679
0.848095
1.26809
-0.00808012
0.0216627
0.181064
0.0152107
1.16744
-0.00416747
0.00642061
1.25815
0.00530508
1.14966
-0.0183956
1.35317
1.29376
0.000481692
1.49864
1.13241
1.22256
-0.327369
0.0550081
1.61372
1.294
0.441313
-0.00807377
1.26604
0.124998
1.40243
0.665713
1.05921
1.42881
0.12957
0.0552771
0.0945182
0.0272651
0.643644
0.672179
1.30016
1.14952
0.359208
0.22518
1.22196
0.0561122
0.165157
0.534116
0.412906
0.0596591
1.61137
1.05261
0.0498133
0.147705
0.455977
1.5407
1.63475
1.10628
1.6593
1.62808
1.79784
1.7339
1.42854
1.31228
-0.043831
-0.681725
1.26332
1.13436
0.382359
0.511001
0.010274
-0.00339091
0.252142
0.198393
0.0359116
1.31567
0.488243
1.19917
0.103812
-0.00894735
1.59568
1.42281
0.486523
1.24154
0.01242
1.37687
1.14326
0.30889
1.42513
1.61455
1.75836
1.58505
1.22315
1.16238
1.573
1.37676
1.62716
1.32775
1.54468
0.71922
1.20831
1.26797
0.251102
1.39185
0.432788
1.18095
1.09519
0.00666017
1.28972
0.430385
1.39493
1.17211
1.30448
1.60772
1.6643
1.37261
0.604473
0.0292629
-0.0195495
1.1198
1.1454
1.06673
0.063659
0.138282
0.0504652
0.0154794
0.0412027
0.0272135
1.22579
1.31707
1.36137
0.227211
0.906607
0.950843
0.731481
1.19836
0.409587
0.0226552
0.0264945
0.00618761
0.0316058
0.0265921
-0.00544644
0.0313913
0.0274475
0.0360883
0.0447502
0.00574549
-0.0376249
0.415924
1.29464
-0.00431412
0.0115034
0.111255
0.00289386
-0.000374764
0.0227487
0.0900701
-0.012955
0.030552
-0.109257
0.0363996
-0.0119668
1.3732
1.20549
1.30777
0.114914
0.228328
0.736238
0.00680013
0.0341327
-0.0360633
0.0141022
0.0134905
0.00396187
1.23824
1.31267
0.356928
0.715233
1.42198
0.742961
1.0159
1.23725
1.33239
1.1453
0.725741
1.40705
0.997285
0.397228
1.28221
1.12247
0.20247
1.23858
1.22627
1.57461
1.41141
0.511249
1.15849
0.268621
1.00497
0.213924
0.630962
1.11979
1.16285
1.12116
-0.00562002
0.35782
0.0202142
1.39289
1.62245
1.26653
1.47036
1.48714
1.50606
1.34606
1.24174
1.1612
1.29941
0.00453682
0.402941
-0.00410278
1.31108
0.582487
0.84182
1.05193
0.274292
0.00489831
-0.0988545
-0.0345639
0.0892143
0.00148685
0.0202113
1.39523
1.23464
1.25297
1.18594
1.47264
0.418881
-0.0324459
1.42774
1.25248
0.281009
1.19788
1.57124
1.35946
1.31117
-0.124698
1.08441
0.212064
1.21529
0.809162
0.0814365
0.713881
0.0896414
1.08159
0.0777614
0.00629691
0.0150909
0.0662992
0.0088626
0.0131666
0.0180292
-0.0316373
1.35095
1.23811
1.34856
0.370855
0.620869
0.126706
1.05214
1.18375
0.270701
0.177469
0.280518
0.0946407
0.307592
0.00732228
1.10336
0.138918
1.18707
0.202738
1.23894
0.342878
0.957315
1.25181
1.11679
1.17473
1.17146
1.14817
0.13163
0.0362895
0.49012
0.416137
0.144084
0.741759
1.20531
0.173446
1.15095
1.20485
1.20743
1.20543
0.32448
0.0592314
1.29304
0.964842
0.0969637
0.420356
0.0214484
1.56834
1.70568
0.953737
1.33846
1.14368
1.68745
1.49064
-0.361606
0.476746
0.0897637
0.329303
1.01959
0.618688
1.12015
1.12734
0.0810059
0.245524
0.26436
0.0919125
1.41057
1.4765
1.44835
1.40157
1.79793
1.54898
1.6943
0.332233
1.48357
1.5734
1.53246
1.2823
1.6296
1.52727
1.64949
1.75275
1.65704
1.81776
1.81498
1.7184
1.62774
1.75374
1.65661
1.5932
1.73563
1.6984
1.3116
-0.0285805
1.44604
1.54016
1.56164
1.56897
1.43382
0.762392
0.107821
-0.0163006
-0.10881
0.117183
0.964945
1.2265
1.22935
0.958745
1.13304
1.30736
1.21374
1.3448
0.344732
1.04241
0.0413229
1.18764
0.222336
1.22336
0.61562
-0.0373879
-0.32828
0.0141478
0.448111
0.39612
0.0309522
0.0302217
-0.110384
0.868797
0.191221
1.08623
1.23255
1.13165
1.19086
0.392324
0.131115
0.202653
1.38437
1.43749
1.1576
0.138698
0.997874
0.378032
1.3042
1.35027
1.25496
0.0229604
0.126926
0.025593
0.003339
-0.862283
-0.103731
0.00594183
1.1483
-0.000894113
1.30728
1.34991
1.51536
1.39924
1.57745
1.37904
1.30851
0.394512
-0.0089639
-0.00417156
0.0109353
1.50773
1.14163
1.35805
-0.226785
-0.019244
0.375585
1.19464
1.49537
1.43932
0.129884
0.130314
1.42276
0.726842
1.29324
1.0364
1.39796
-0.990978
0.168238
1.34358
1.21718
1.2225
1.24678
1.56745
1.73501
1.78659
1.71555
1.53702
1.67765
1.50586
1.43956
1.63207
1.47167
1.69264
1.59268
1.58843
1.1822
1.12036
1.31193
1.25766
1.03207
1.17916
0.924322
1.67133
1.56894
1.43754
1.45271
1.58099
1.47425
1.39306
1.36693
1.62394
1.34652
1.20566
1.36134
1.21205
1.71843
1.59657
1.47012
1.27986
1.32158
1.21419
0.881797
0.0360002
0.386804
0.417103
0.0134901
1.21829
1.41381
1.53112
1.46701
1.25375
1.43026
0.575841
1.20387
1.43955
0.151186
0.174288
1.30107
1.34787
1.51211
0.042831
1.07512
0.0669329
0.11885
1.21661
0.586504
0.145268
0.918012
1.18818
1.15254
1.22636
1.16916
1.24895
0.207667
1.22483
0.81327
0.107156
0.613273
1.23829
1.00589
1.23351
-0.113779
0.0137593
0.00116672
0.470982
0.100446
1.3776
1.42763
1.45679
1.44525
1.19682
0.158861
0.015317
0.178156
1.14721
1.28807
0.152192
1.13945
0.0944956
1.57268
1.32836
1.4618
1.49394
1.50559
0.169139
1.13898
1.20278
1.19549
1.19896
1.79431
1.60105
1.74501
1.41755
1.20641
1.27487
1.2538
1.35529
1.36158
1.68091
1.54114
1.41528
1.50567
1.6506
1.51716
1.70961
1.70181
1.69242
0.115307
1.56639
1.32104
0.922611
1.29086
1.66896
1.49041
1.62007
1.20451
1.12571
0.913535
0.406212
0.0321531
1.01782
0.0961962
0.00683994
0.105347
0.519613
0.0340244
-0.0646672
-0.0148877
-0.0495548
-0.00753486
0.101818
0.0387618
0.0578683
