# vtk DataFile Version 4.2
vtk output
ASCII
DATASET POLYDATA
POINTS 642 double
-1.06645 2.29213 -0.407482
1.21772 2.37684 -0.383611
-1.44645 -1.65992 -0.00172336
1.12554 -1.47006 0.0659443
-0.0460787 -0.355531 1.38888
-0.00410246 1.7619 1.33835
-0.131883 -0.372728 -0.429344
-0.246828 1.86325 -1.41856
1.31605 1.3818 -0.661081
1.04901 0.763761 0.420294
-1.34607 1.263 -0.880662
-1.12285 0.562428 0.505145
-1.39848 1.6969 0.137736
-0.61886 1.27911 1.08884
-0.552216 2.4189 0.924695
0.582646 2.42086 0.904617
-0.000915909 2.79756 -0.190819
0.933526 2.31212 -0.855808
-0.909059 2.26248 -1.00817
-1.26219 1.74795 -1.27103
-1.91403 1.98985 -0.943965
-1.36728 0.929171 -0.292044
0.598587 1.3226 1.05537
1.48109 1.77213 0.105407
-0.492378 -0.159741 1.11411
-0.049338 0.287307 1.26875
-1.13072 -0.641759 -0.106879
-1.28779 -0.818251 0.344491
-0.265221 1.2481 -1.21217
-0.937289 0.633108 -0.72678
2.03833 2.02192 -0.869473
1.09568 1.7759 -0.962843
1.14552 -0.685795 0.415328
0.462422 -0.185458 1.05498
0.640448 -1.31763 0.956828
-0.713924 -1.27536 0.772086
0.0035864 -1.34127 0.189553
-0.702492 -0.950526 -0.159214
0.481308 -0.985819 -0.119043
0.686181 0.433667 -0.555788
0.960019 -0.525882 -0.0803396
1.34422 1.16679 -0.202096
-1.33634 2.08671 -0.139034
-0.929249 2.03464 0.567887
-0.757134 2.39378 0.244902
-0.854144 0.923975 0.75259
-0.926286 1.53239 0.709124
-1.2005 1.17538 0.296662
-0.209321 2.0911 1.22206
-0.656184 1.89084 1.12048
-0.288138 1.57504 1.23267
-0.330141 2.81117 0.466585
-0.562792 2.56255 -0.282754
0.213886 2.09531 1.21935
0.0041844 2.56134 1.0417
0.672481 2.51957 -0.289221
0.321724 2.68916 0.430217
0.831477 2.31497 0.134205
-0.460038 2.94725 -0.724472
-1.00887 2.34336 -0.773783
1.15614 2.41488 -0.66594
0.461852 2.94414 -0.716278
-0.667747 2.07113 -1.18724
-0.0652766 2.48998 -0.921924
0.460215 2.11847 -1.09405
-1.61771 2.58485 -1.24625
-1.58083 2.30493 -0.650041
-0.906613 1.78938 -1.24987
-1.33224 2.04759 -1.33621
-1.62297 1.5529 -1.02682
-1.8914 1.82552 -1.65458
-1.37528 1.55743 -1.13992
-1.82238 1.89547 -0.315009
-1.39689 1.11605 -0.627915
-1.69018 1.49833 -0.587388
-1.49596 1.36849 -0.170488
-1.2745 0.706862 0.117925
0.998958 2.03742 0.459613
1.46167 2.25208 -0.0711856
0.275529 1.59431 1.24462
0.62247 1.89439 1.04509
1.26447 1.29846 0.254508
0.978538 1.57263 0.598667
0.860126 1.00736 0.668419
-0.242535 0.771994 1.14555
-0.0177914 1.19884 1.20949
-0.91949 0.125839 0.861519
-0.482491 0.446611 1.06566
-0.0050205 -0.0796077 1.80029
-0.229246 0.0753785 1.43247
-0.210015 -0.284369 1.42377
-1.29233 -0.273705 0.112523
-1.27518 -0.20128 0.488395
-1.15451 0.422187 -0.465451
-1.22098 -0.0681567 -0.157722
-1.47128 -1.29002 0.238926
-1.27265 -0.847499 0.0630426
-1.27321 -1.302 0.018949
-1.10397 1.38678 -1.11623
-1.16409 1.06107 -0.852998
-0.281421 1.58437 -1.34426
-0.885364 1.52446 -1.21336
-0.607664 -0.0158809 -0.54285
-0.75515 1.11815 -1.04986
-0.193219 0.667554 -0.86977
1.16219 2.09836 -0.962152
0.597862 1.82222 -1.14282
1.72965 2.5527 -0.5063
1.64481 2.5261 -1.13459
1.28883 1.6147 -0.848648
1.55601 2.01601 -1.0034
1.59504 1.66947 -0.787337
1.01722 -1.13347 0.286933
1.02325 -1.0682 0.704664
1.13043 -1.62379 0.55559
0.859507 0.175089 0.812965
0.944938 -0.522229 0.7987
1.14557 -0.0123849 0.513552
0.216487 -0.831702 1.0031
0.621914 -0.780898 0.968922
0.131699 -0.296487 1.30368
0.390336 -1.61545 0.598449
0.748059 -1.65895 0.0482436
-0.240122 -0.772018 0.985786
0.0294843 -1.19074 0.805529
-0.874307 -1.50364 0.107814
-0.468021 -1.41208 0.53234
-1.21881 -1.65951 0.535687
0.393277 -1.2321 -0.016113
0.79697 -1.33862 -0.00208034
-1.08695 -1.36112 -0.0672814
-0.484182 -1.16701 -0.0316982
0.204037 -0.708473 -0.281745
-0.0617035 -0.962423 -0.166434
-0.428093 -0.682232 -0.312425
0.720065 -0.868686 -0.0780762
0.894513 -1.08397 0.0945561
0.311156 -0.133369 -0.472659
0.528907 -0.57738 -0.258207
1.04721 0.654793 -0.361264
0.797506 -0.155931 -0.266645
1.05528 1.10368 -0.651635
1.07324 -0.681811 0.124957
1.39049 1.3003 -0.478073
1.07393 0.279256 -0.0952083
1.15096 0.0305235 0.160901
1.22767 0.967101 0.101439
0.126502 0.0881302 1.36055
0.445426 0.505358 1.01657
0.185566 0.837184 1.12913
-1.22589 -1.13064 0.692184
-0.644862 -0.765329 0.871282
-1.04125 -0.595652 0.712559
-0.774291 -0.528857 -0.307452
-0.981238 -0.889837 -0.104086
-0.991724 -0.168197 -0.343809
0.931432 1.37453 -0.895854
0.341482 0.990506 -0.954617
0.518448 1.48341 -1.1434
1.58009 1.50992 -0.0892962
1.7719 1.58075 -0.486007
2.00284 2.00665 -0.224917
-1.1939 2.21365 -0.307434
-1.01828 2.1806 0.0301869
-0.917438 2.30583 -0.170584
-1.18613 1.8557 0.336
-1.14128 2.05328 0.210754
-1.46061 1.95707 0.0650641
-0.674444 2.45136 0.608197
-0.88545 2.25696 0.443194
-0.761925 2.25092 0.777281
-1.0163 0.705881 0.599379
-1.02295 1.05723 0.547917
-1.13164 0.83479 0.416981
-0.782444 1.4248 0.943333
-0.887496 1.25317 0.738266
-0.719576 1.11672 0.916055
-1.29096 1.4439 0.201803
-1.07025 1.3527 0.476244
-1.14089 1.60881 0.414086
-0.0825786 1.90424 1.3394
-0.259015 1.84711 1.26715
-0.121175 1.69932 1.33809
-0.616756 2.17414 1.0537
-0.437905 2.02517 1.2119
-0.373219 2.27563 1.12521
-0.47665 1.43108 1.21092
-0.464612 1.73653 1.21131
-0.653533 1.59013 1.12133
-0.986244 1.80085 0.681248
-0.833075 1.71623 0.953602
-0.851206 2.01394 0.91782
-0.652857 2.49134 0.000125359
-0.837935 2.39192 -0.359928
-0.439349 2.60537 0.718392
-0.611656 2.6616 0.388506
-0.321902 2.68994 -0.231064
-0.446958 2.68761 0.0812867
-0.164827 2.81617 0.125598
0.0774833 1.90632 1.33942
-0.00106875 2.10934 1.21612
0.315269 2.55622 1.02969
0.13735 2.35781 1.21226
0.405727 2.29601 1.15315
-0.134006 2.35356 1.21241
-0.301968 2.55211 1.03737
1.01624 2.40747 -0.364786
0.759845 2.42132 -0.0732689
1.08263 2.33446 -0.223419
0.15916 2.71788 0.128933
0.477195 2.6115 0.0655151
0.344132 2.64068 -0.218664
0.710592 2.42851 0.556996
0.599479 2.54632 0.333519
0.471004 2.60422 0.698865
-0.149699 2.68961 0.776651
0.165596 2.68951 0.771497
0.0129731 2.8166 0.479891
-0.749357 2.48054 -0.560439
-1.0478 2.32883 -0.565782
-0.20829 2.69961 -0.489749
-0.485268 2.66908 -0.536052
-0.965725 2.31469 -0.910863
-0.646131 2.54882 -0.729301
-0.589591 2.52273 -0.840636
1.21119 2.4129 -0.517303
0.910548 2.48536 -0.51633
0.637005 2.52867 -0.759512
0.739894 2.54321 -0.66129
1.06977 2.37281 -0.778209
0.556582 2.64645 -0.510745
0.200587 2.70041 -0.474073
-0.435847 1.93912 -1.29113
-0.1304 2.12318 -1.1727
0.0933518 1.98761 -1.32285
-0.503838 2.43152 -0.954989
-0.370007 2.28996 -1.05819
-0.818595 2.18047 -1.09743
0.728225 2.23613 -0.953214
0.218738 2.31169 -1.0325
0.471441 2.4255 -0.889735
-0.00823339 2.67396 -0.673558
0.169811 2.59828 -0.776058
-0.254736 2.73013 -0.91346
-1.33304 2.31866 -0.768127
-1.27564 2.26995 -0.514173
-1.32663 2.27041 -1.12732
-1.36699 2.3145 -1.01199
-1.88331 2.28221 -0.783239
-1.62055 2.37664 -0.938949
-1.91417 2.31176 -1.1053
-0.576445 1.81166 -1.29707
-0.831986 1.9179 -1.23789
-1.36047 1.93335 -1.35396
-1.11685 1.91463 -1.27382
-1.11957 1.7775 -1.26386
-1.02639 2.03887 -1.21981
-1.17564 2.15715 -1.1955
-1.44089 1.39452 -0.9446
-1.50145 1.57916 -1.11523
-1.36946 1.38836 -0.994384
-1.91327 1.95558 -1.25973
-1.69839 1.78271 -1.26354
-1.86046 1.70612 -1.05988
-1.34286 1.68205 -1.23971
-1.56484 1.78984 -1.32108
-1.49612 1.86773 -1.40029
-1.46716 2.23319 -1.3448
-1.51536 2.06254 -1.62797
-1.8143 2.2705 -1.49399
-1.49712 2.25275 -0.358589
-2.02404 1.98336 -0.613293
-1.82875 2.22742 -0.434773
-1.6049 2.02774 -0.232498
-1.63038 1.79513 -0.0897529
-1.37192 1.21323 -0.794871
-1.5083 1.37228 -0.822422
-1.50567 1.26105 -0.449597
-1.5332 1.32036 -0.631691
-1.39273 1.02679 -0.459308
-1.70213 1.52664 -0.830421
-1.91056 1.69625 -0.767718
-1.2576 0.974429 0.17799
-1.19102 0.601037 0.355686
-1.49661 1.53346 -0.0297924
-1.35731 1.2808 0.0463498
-1.32691 0.823354 -0.104723
-1.36552 1.0904 -0.0548832
-1.44663 1.18183 -0.259211
-1.9001 1.64841 -0.454993
-1.60933 1.4689 -0.392108
-1.66453 1.62291 -0.259861
1.15948 2.22034 -0.0502275
1.31715 2.33208 -0.282337
0.767765 2.23256 0.70842
0.909956 2.19012 0.308032
1.51944 2.0171 0.0442441
1.23563 2.07233 0.103594
1.30451 1.91039 0.276459
0.11082 1.70442 1.33813
0.258239 1.85526 1.26777
0.614321 1.61963 1.05562
0.459297 1.75506 1.20351
0.457623 1.46641 1.20426
0.452206 2.03183 1.20867
0.613271 2.16129 1.00166
1.12722 1.01955 0.340698
1.0711 1.16444 0.451985
0.992859 0.853164 0.505125
1.24349 1.66816 0.33103
1.16452 1.428 0.388098
1.40298 1.53142 0.197012
0.712648 1.16888 0.854952
0.917226 1.31226 0.63271
0.771512 1.46361 0.868124
0.771212 1.98788 0.784459
0.773805 1.73298 0.832402
1.04134 1.82413 0.5748
-0.14214 1.40645 1.23697
-0.00736504 1.57206 1.33797
-0.417614 1.07857 1.11217
-0.298001 1.23678 1.21329
-0.0372817 0.696704 1.16866
-0.144435 0.970234 1.21228
-0.12453 0.475 1.18326
-1.08448 0.37131 0.675773
-0.870803 0.526373 0.799501
-0.463297 0.103752 1.12864
-0.672753 0.29606 0.983392
-0.69468 -0.0459294 0.975335
-0.678217 0.720584 0.922292
-0.532196 0.906865 1.01645
-0.0252409 -0.359421 1.62597
-0.253664 -0.280034 1.79091
-0.115456 -0.338765 1.44117
-0.134433 0.138586 1.39484
-0.176693 0.00673023 1.6301
-0.0538596 0.0544114 1.49332
-0.328993 -0.231362 1.2688
-0.258131 -0.123026 1.52157
-0.314979 -0.0314632 1.31344
-0.35001 0.598827 1.1111
-0.310785 0.210918 1.21544
-0.210941 0.319594 1.2188
-1.28077 0.218465 0.329083
-1.2485 0.270094 0.547156
-1.28 0.341309 -0.0705655
-1.28329 0.248399 0.112227
-1.34225 -0.547501 0.433789
-1.2862 -0.273487 0.284267
-1.39937 -0.607486 0.234286
-1.26561 1.0395 -0.746146
-1.25924 0.822957 -0.569745
-1.1775 -0.424631 -0.114492
-1.17749 0.127979 -0.289257
-1.11247 -0.236117 -0.226482
-1.26084 0.63613 -0.399295
-1.26908 0.480356 -0.237192
-1.65858 -1.60633 0.131829
-1.39033 -1.33839 0.0874793
-1.54893 -1.50135 -0.134263
-1.28438 -0.856276 0.183686
-1.2729 -1.10052 0.163474
-1.29387 -1.08627 0.287957
-1.14182 -0.979906 0.00121653
-1.22168 -1.0749 0.0819284
-1.23616 -0.786099 -0.047433
-1.29009 -0.211744 -0.0357198
-1.2633 -0.549809 -0.0271324
-1.33329 -0.604521 0.0804949
-1.26823 1.34361 -1.01658
[...]
POINT_DATA 642
SCALARS Mean_Curvature double 1
LOOKUP_TABLE default
-0.336138
-0.308275
6.91127
10.687
0.65631
-0.0383404
0.20923
7.17328
0.791662
0.327292
1.42347
-0.200536
0.943537
2.15769
2.25943
2.78877
2.58005
0.953787
0.824886
1.13322
-0.0695925
0.982552
2.01088
-1.45081
0.0611711
-0.151894
-0.12341
-0.946207
0.994574
0.334656
4.65683
0.845545
2.71814
-0.102386
1.5451
-0.166542
0.990735
1.00423
0.786779
0.499909
0.538824
0.754053
-0.906986
-0.76849
-0.639099
-0.0856785
-0.614901
0.285029
-0.0135647
2.12124
-1.14823
3.08596
-0.294037
-0.468516
1.68958
-0.394631
0.830696
-0.789714
6.36248
0.526093
0.643468
6.5276
0.752087
-0.626012
0.285294
6.05081
0.436359
0.402646
1.26051
1.6339
6.01522
0.85366
2.58439
1.70911
0.0437304
0.565022
0.713449
0.759226
3.00617
-0.510144
1.27749
1.03905
-0.284517
0.0286198
-0.315473
0.156873
1.48325
0.10213
7.99572
4.51332
2.45556
-0.0974106
2.87322
1.11936
0.943605
4.88741
2.39834
-0.0303662
1.1814
1.34317
0.365855
0.43838
0.528235
0.20268
0.157373
0.861166
0.866553
4.46661
5.86384
0.600155
0.172077
1.23706
-0.283126
0.47204
5.84445
2.04243
1.8291
4.21081
0.45205
-0.11631
0.316222
3.12536
4.86674
-0.0769831
0.657957
1.80121
1.02827
3.82989
1.15077
0.303801
1.85917
0.770714
0.758343
0.222261
0.797417
0.464829
-0.0363059
0.495267
0.819474
0.696032
0.643
1.03826
-1.51722
0.637682
0.433948
2.67836
1.05334
2.76773
0.175171
0.152734
3.45097
0.211457
0.415081
0.904285
0.397035
1.49267
0.647983
0.258721
1.01253
-0.756528
1.39454
4.55026
-0.737669
-1.01486
-0.457052
1.31906
0.979107
4.2752
0.729631
1.73382
1.1619
0.0502341
0.0474772
0.244857
0.89192
0.0213255
0.0797155
-0.0211587
-0.414437
0.0798771
4.67078
-0.0474342
3.62334
2.11998
2.72082
0.640456
2.80961
1.24106
1.9541
1.63834
1.73056
3.2486
-0.393937
-0.414329
0.782573
3.47087
0.065138
0.837013
2.13826
4.63224
-2.11856
3.53346
3.37288
2.87009
3.69495
3.90405
-0.347329
-0.544505
-0.319244
-0.344903
0.887233
-0.665041
2.00802
1.26768
2.14508
1.07786
1.48304
2.50237
0.203795
0.033669
-0.7156
0.310526
0.853564
2.01954
1.33689
0.117236
1.1334
0.666868
3.12426
1.06833
0.125932
-0.653105
0.420056
-0.645581
0.413645
0.673253
0.191599
0.420603
0.849844
0.839371
0.869471
0.906561
-0.217509
5.08131
0.232443
-0.811039
1.10237
0.505531
3.74492
1.18508
3.83781
0.993719
0.660255
1.26403
1.34014
1.26575
1.20409
1.37517
0.933751
0.270318
1.25692
2.80297
0.461892
4.14742
0.884997
1.4363
1.37534
0.779158
6.44012
4.5248
3.35774
4.33328
4.65612
0.129149
3.08488
1.48582
0.662737
0.859509
0.856859
1.33886
1.24156
2.47469
0.333231
0.15373
1.01304
0.0367937
0.328319
0.634338
0.598966
4.96532
-0.388694
0.184064
-0.685587
-0.571682
1.47964
-0.718444
0.445966
-1.12166
3.25261
3.44602
0.297858
0.710911
2.3515
3.44461
3.66883
1.49782
0.450972
0.475459
0.237842
-0.281052
0.0797035
2.24487
-0.0437904
-0.385862
1.0169
-0.321126
-0.234567
2.43392
-0.842933
4.94436
-0.1677
1.69546
-0.331446
3.63973
0.00150416
1.15622
0.192039
-0.0830523
0.447653
0.189803
0.189539
-0.178939
7.92338
8.12049
2.68652
2.50183
7.29697
-0.557905
0.172895
2.89779
-0.16352
0.0910869
0.140706
0.0731494
0.931776
4.03697
0.6327
0.391418
3.1896
-0.606761
5.51055
1.60772
1.24396
0.58785
0.979886
1.26553
0.920881
1.07192
7.12016
-0.842102
9.58533
-0.440151
-0.103082
-0.617819
-0.285898
-0.0261437
9.08157
5.03766
1.96194
3.03618
1.41795
1.5475
1.10426
1.16423
0.673252
1.34416
0.946313
2.65275
1.24742
1.11994
1.21261
0.747211
0.403624
1.04635
0.379798
0.249739
0.215989
0.251859
0.23065
0.533785
0.80665
0.226934
0.9039
0.987389
0.364932
0.884807
0.513746
6.71417
0.920917
0.477614
0.122936
0.0774925
0.818476
-0.850269
4.34714
4.57745
4.65873
2.71027
0.736188
0.805434
0.583307
0.414281
0.168172
0.638653
0.353891
0.808028
-0.320888
-0.429031
4.49092
0.862128
6.22374
0.661778
-0.794344
3.12422
8.01348
5.18551
-1.28827
-0.875702
4.74624
-0.510748
4.5143
0.77868
0.929557
0.51282
-0.409945
-0.221115
-0.0985948
-0.580502
1.37528
1.21995
0.783089
0.147168
0.345243
0.0696393
-0.0646705
0.885877
0.421949
0.480552
0.163506
1.90981
3.21728
4.15575
1.48271
2.78286
5.77255
1.30653
0.887456
2.53477
0.577663
0.801923
0.399015
0.525224
-0.391805
0.271205
0.317821
1.60905
4.77498
1.97278
1.69473
0.951046
0.365954
0.757072
5.95576
3.74957
4.14369
0.18404
0.857776
1.03208
8.82621
8.99285
1.34935
2.01754
0.620432
0.985926
0.872015
4.44768
6.56711
0.805102
0.455283
0.545282
0.652576
0.887999
0.407182
0.0879067
0.412138
0.790752
0.726271
0.831988
1.00856
0.876346
0.930076
0.391754
0.855048
0.795622
-0.099114
-0.536893
0.743512
0.417158
-0.135803
0.246482
0.919048
0.363179
0.701943
0.622161
0.686315
0.480928
0.851384
0.884537
1.22197
0.889078
1.16112
0.243696
0.761063
0.465227
0.230457
0.741626
0.692393
0.792007
0.623645
0.427933
0.235404
7.48356
1.98119
-0.277249
4.79463
0.706573
1.13485
1.02554
1.16513
0.546784
0.857068
1.40149
0.133856
0.238274
0.2525
0.858282
0.96217
0.715781
0.731807
7.50862
-0.185314
1.52091
6.05839
0.0907456
0.662069
6.80949
0.280072
0.167874
-0.12714
0.0831195
-0.0929363
0.0780173
-0.50499
-0.0332916
-0.196754
2.2849
0.095687
0.0207511
0.763591
-0.0134225
5.9742
1.61825
2.52576
-0.67289
0.730412
0.806038
0.174667
0.546953
0.491631
-0.416538
1.13595
3.4474
0.536433
-0.424778
-0.0368572
2.30005
-0.35806
1.61331
0.625444
1.01106
0.913361
0.736824
1.00017
5.75713
0.482575
-0.232556
-0.0499803
0.663555
0.768394
0.879006
0.920362
1.30261
0.648668
0.779722
0.581457
1.05248
1.00805
0.20615
0.899557
0.91785
0.775313
0.212446
0.966173
0.210506
0.152274
0.203422
2.887
0.756874
0.923687
0.481487
0.703333
0.20072
0.986289
0.57004
0.658256
-0.307482
0.740024
0.670806
4.0595
-0.462485
2.81906
4.70688
5.25942
0.985722
0.563111
3.59249
4.15259
1.51519
2.25787
1.70283
2.30727
4.84945
SCALARS CoVolArea double 1
LOOKUP_TABLE default
0.0369122
0.0250183
0.0389313
0.0227248
0.018241
0.0183358
0.0562428
0.0475292
0.0122982
0.0345426
0.0132966
0.0429507
0.0801081
0.0673143
0.0800689
0.0856404
0.111782
0.0625562
0.0611683
0.0281861
0.0982682
0.0649226
0.0726298
0.0651795
0.0733472
0.0325146
0.0323428
0.0489199
0.080408
0.0706289
0.0963631
0.0337433
0.0481627
0.0758961
0.0848369
0.0726437
0.0793388
0.0341738
0.0282958
0.110758
0.0426563
0.0451298
0.0839783
0.0924178
0.0992433
0.087873
0.0828539
0.0776173
0.0536273
0.0715896
0.0541668
0.110042
0.0868572
0.0563637
0.0852432
0.0903599
0.104211
0.092181
0.10285
0.0695335
0.056579
0.115746
0.0802379
0.105912
0.096037
0.114732
0.0848441
0.0359941
0.0488647
0.0516631
0.114717
0.0312636
0.0876687
0.0510475
0.0619371
0.0569407
0.0885197
0.0923475
0.0745801
0.0521712
0.0693583
0.0515133
0.0855193
0.0890877
0.0611998
0.0558128
0.103245
0.0788629
0.0591536
0.0357107
0.0499841
0.0722938
0.0867112
0.0564334
0.0592246
0.063744
0.0290988
0.0317837
0.0279247
0.038104
0.0741364
0.0311598
0.10995
0.071145
0.162259
0.0404841
0.0643919
0.0924646
0.102539
0.0289035
0.047768
0.0371592
0.0366397
0.0665532
0.0971256
0.0951488
0.0651691
0.0829521
0.0557948
0.0626519
0.0488162
0.108644
0.0761932
0.0666625
0.0712174
0.0772928
0.0857804
0.10733
0.0436038
0.0342375
0.0369959
0.0537231
0.0460309
0.0511365
0.0498568
0.0298418
0.0272134
0.104276
0.0401275
0.0634573
0.0627597
0.0519317
0.0346231
0.038324
0.0658678
0.0745541
0.0558364
0.0404839
0.0917853
0.0632075
0.0698494
0.0645063
0.0741101
0.0434631
0.0288721
0.0505812
0.0532969
0.119882
0.07063
0.0462068
0.054401
0.0960663
0.0659878
0.0958388
0.0789626
0.0911698
0.0943547
0.0830955
0.0881298
0.0944549
0.0841493
0.0734025
0.0828803
0.0667043
0.0714069
0.0793578
0.07663
0.0755258
0.0837321
0.0881229
0.0358112
0.0498567
0.0368686
0.0744902
0.061572
0.0680751
0.0612819
0.0599273
0.0660678
0.09066
0.0783912
0.0849888
0.0955137
0.0702721
0.0930803
0.100452
0.0931284
0.10218
0.113449
0.0362582
0.0520143
0.0883483
0.0705172
0.0734906
0.0681862
0.0838816
0.0550805
0.0898376
0.05923
0.113357
0.104217
0.10549
0.0931514
0.0994279
0.0952376
0.0982267
0.0985597
0.111776
0.0725147
0.0583126
0.0975947
0.0812292
0.056936
0.067165
0.0738827
0.0414402
0.0629737
0.0891511
0.06613
0.0543203
0.0942881
0.109699
0.0751975
0.120602
0.0972183
0.083992
0.10722
0.0672957
0.0710042
0.114198
0.0911304
0.102086
0.105369
0.100963
0.0713503
0.0583079
0.0652671
0.0704283
0.100098
0.0920144
0.119833
0.0445442
0.0476401
0.0377147
0.0357956
0.0288442
0.0484379
0.0547786
0.0261893
0.0369065
0.0213638
0.112197
0.0689488
0.0761897
0.0300055
0.0471535
0.0572712
0.0914849
0.0962816
0.146005
0.0784632
0.106879
0.0996842
0.0789332
0.0718242
0.0323037
0.0426185
0.049358
0.0493836
0.0568539
0.0609497
0.0871147
0.0723981
0.0726797
0.0659835
0.0639627
0.0780509
0.0629778
0.0549685
0.0832162
0.0566692
0.0670887
0.0764347
0.0511942
0.0882123
0.0919296
0.0749777
0.0817432
0.0809716
0.0360465
0.049692
0.0673136
0.0585172
0.0613574
0.0627464
0.0754438
0.0453618
0.0682839
0.0644563
0.0769039
0.0705937
0.0552948
0.0844267
0.0826271
0.0790883
0.0847444
0.0813364
0.0904768
0.0534077
0.0382937
0.0688313
0.0625236
0.0486479
0.0586068
0.0440315
0.0829173
0.0984296
0.0704464
0.0950417
0.0908244
0.0922407
0.0777475
0.0454032
0.06311
0.0378137
0.0303497
0.0454192
0.0333412
0.0568983
0.0468129
0.0495006
0.0663113
0.0526522
0.0436668
0.0994046
0.0815503
0.0857287
0.0979551
0.0628867
0.0818631
0.0540946
0.0353426
0.0558164
0.0396047
0.0577134
0.044764
0.0664451
0.0753004
0.0814998
0.0527007
0.0533973
0.0365038
0.0322421
0.0425842
0.0286589
0.0279801
0.0308004
0.0644095
0.0391378
0.0435115
0.0272166
0.0253889
0.0236101
0.0260991
0.0495821
0.0318843
0.0450745
0.0648604
0.0481224
0.0542442
0.0466498
0.0723405
0.0300323
0.0237662
0.101372
0.163092
0.149491
0.0744763
0.118301
0.0915721
0.100173
0.118664
0.0712784
0.027016
0.0419633
0.0412431
0.0711534
0.0794893
0.0458595
0.0517325
0.0443593
0.0448926
0.038411
0.050176
0.0710079
0.128318
0.117342
0.114595
0.0714417
0.0515524
0.0218168
0.0307918
0.0224569
0.0334159
0.0326851
0.0290143
0.0563513
0.0418348
0.0814055
0.0585048
0.0914936
0.043913
0.0366376
0.0634391
0.0609736
0.0552209
0.0518728
0.0393958
0.104331
0.0786551
0.0803219
0.0729525
0.0832602
0.0678401
0.0734889
0.0764608
0.0880103
0.0631586
0.0681496
0.0584506
0.0415425
0.0528763
0.0350868
0.0659532
0.0578922
0.0585292
0.0590763
0.0596515
0.0665147
0.0646929
0.0667342
0.0692902
0.0880678
0.0496767
0.109999
0.112755
0.0761605
0.0993063
0.0928865
0.0448098
0.0637525
0.0687748
0.0725283
0.0664513
0.0637156
0.072182
0.0590823
0.0956427
0.0789222
0.084998
0.0918418
0.0774081
0.107899
0.108999
0.0816694
0.0885109
0.0789505
0.0900702
0.0541362
0.0351765
0.0621058
0.0509225
0.0275291
0.0332057
0.0350534
0.0399017
0.0504705
0.0417877
0.0414901
0.0344618
0.0593214
0.0681292
0.0542233
0.0562805
0.0563369
0.0379147
0.0476363
0.0328002
0.0378101
0.0508684
0.0449094
0.0574035
0.0532337
0.0472702
0.0276682
0.0262365
0.0267038
0.0262724
0.0313041
0.0291983
0.0351971
0.0949915
0.0572072
0.0712291
0.0572537
0.109913
0.0373475
0.0295207
0.0343033
0.0552567
0.0289308
0.0501408
0.0656723
0.0608767
0.080386
0.0714143
0.0812192
0.0334961
0.0524057
0.0417531
0.0279951
0.0384567
0.0280036
0.0298991
0.0380711
0.0254186
0.048077
0.0582261
0.0523798
0.0416785
0.0658542
0.0577389
0.0782291
0.0519431
0.056802
0.0808492
0.0490269
0.0737244
0.0669738
0.0554776
0.0702787
0.0530864
0.0463788
0.0586908
0.0444055
0.0395253
0.0320293
0.0978176
0.0867311
0.0990031
0.101468
0.0828381
0.0515332
0.0441308
0.0565768
0.0604667
0.0727958
0.0645771
0.0772418
0.0502118
0.0911115
0.0832892
0.0914652
0.064116
0.0557743
0.0515513
0.0747327
0.0604986
0.0589434
0.062849
0.0949425
0.0602118
0.0745912
0.0910736
0.0856705
0.0689707
0.0743706
0.0665281
0.0635526
0.0333685
0.0418742
0.063861
0.0663458
0.034985
0.0286003
0.0261508
0.031211
0.0309831
0.0468679
0.062749
0.0536702
0.0515055
0.0375129
0.0346963
0.0363342
0.0494792
0.0332522
0.092363
0.0510489
0.0338836
0.0374938
0.158178
0.0938485
0.13106
0.144666
0.136005
0.0867112
0.048303
0.0652866
0.082171
0.084026
0.0935404
0.0852744
0.0606714
0.0454751
0.0409303
0.0413004
0.0433719
0.0550036
0.0346802
0.0671857
0.0470792
0.0424151
0.0431041
0.0747563
0.0808371
0.0903274
0.0936686
0.0900413
0.0543777
0.0764742
0.0726499
SCALARS SignedDistance double 1
LOOKUP_TABLE default
1.2493
1.1985
0.00983972
-0.262161
1.13619
0.00485254
1.66993
0.0795155
1.20373
1.2955
1.36413
1.14801
0.0290071
0.114194
-0.0255455
-0.0316703
0.0328086
1.47457
1.45542
1.35016
0.00520664
1.4908
0.0820213
0.732787
1.28385
1.15554
0.864802
0.208465
1.39456
1.78282
-0.0402414
1.41999
0.0259725
1.32585
0.0281235
0.920334
1.54819
1.23727
1.3534
1.5703
0.393635
1.21921
0.670053
0.0505223
0.198803
1.24779
0.625578
1.23801
-0.0164246
0.0185108
0.106481
0.0151318
1.15548
-0.0141802
0.00383666
1.24201
-0.00205862
1.13398
-0.0331023
1.33733
1.28672
-0.00443115
1.46618
1.03034
1.1927
-0.452805
0.0206417
1.58899
1.25804
0.170628
0.0339297
1.22295
0.131243
1.38606
0.302787
0.902369
1.39907
0.070154
0.0831884
0.0570763
0.0161671
0.368828
0.476481
1.26526
1.11601
0.191288
0.0936865
1.17849
0.0641688
0.038755
0.467915
0.218226
0.0235534
1.56199
1.03596
0.0504034
0.0624208
0.267865
1.50102
1.59406
0.940722
1.6288
1.55949
1.72936
1.66225
1.3928
1.28545
-0.0492104
-0.983231
1.22808
1.00341
0.222283
0.330229
-0.00530345
-0.000101185
0.0959969
0.173376
0.0127111
1.29677
0.276055
1.05513
0.103193
-0.00738799
1.57533
1.41795
0.399203
1.23641
0.0112821
1.3552
1.1212
0.135837
1.37123
1.56384
1.71104
1.53587
1.17811
1.12447
1.50751
1.32778
1.58088
1.27841
1.50181
0.588428
1.1786
1.21925
0.0974329
1.38163
0.260591
1.12816
0.836476
0.00264377
1.26127
0.254597
1.34045
0.916954
1.27466
1.56683
1.59875
1.34611
0.358975
0.00669461
-0.0171462
1.01151
1.13565
0.963111
0.0327566
0.0910357
0.0550196
0.00951515
0.0298615
0.0244576
1.18536
1.29012
1.32763
0.136873
0.672961
0.833814
0.446075
1.16893
0.224324
0.0216771
0.0101452
0.000687625
0.03091
0.0245585
-0.00936544
0.0131059
0.0167458
0.0258085
0.0128142
-0.0101127
-0.0408247
0.308691
1.27471
-0.00595655
0.0111076
0.0505426
-0.0127478
-0.00330565
0.0219486
0.033476
-0.0128845
0.0320521
-0.119314
0.0349379
-0.0124299
1.36283
1.18446
1.2962
0.0800715
0.182835
0.672324
-0.000518593
0.0194269
-0.0386041
0.0131297
0.012648
0.00337003
1.22925
1.29677
0.199422
0.698891
1.39556
0.62513
0.988594
1.22433
1.33442
1.13325
0.699859
1.39382
0.82932
0.227841
1.26504
1.1059
0.0699231
1.22061
1.19002
1.54465
1.39177
0.251453
1.14805
0.141367
0.69899
0.219904
0.357219
1.10232
1.14129
0.939083
-0.00538637
0.364068
0.0192426
1.37548
1.59765
1.23832
1.44097
1.4569
1.46919
1.31667
1.22016
0.770252
1.26989
0.00399081
0.290101
-0.0127682
1.28128
0.439352
0.700786
1.10312
0.347042
0.000322404
-0.123697
-0.00262287
0.0905674
-0.0114066
0.0158496
1.36557
1.20318
1.22609
1.16073
1.44829
0.293516
-0.0482035
1.4026
1.2193
0.156346
1.16961
1.54612
1.33036
1.2768
-0.193448
0.984095
0.0828611
1.20335
0.639839
0.0771431
0.611506
0.0605413
1.01754
0.0546285
0.00115355
0.00305497
0.0308722
0.00344929
0.00125845
0.0167938
-0.0396694
1.33407
1.21483
1.3117
0.259009
0.344078
0.0270426
0.807559
1.15299
0.160326
0.129422
0.187343
0.0570603
0.188655
-0.000990689
0.98958
0.0608043
1.14989
0.0718711
1.20304
0.189274
0.729707
1.22785
0.570899
1.08152
0.897827
1.11357
0.123016
0.0443135
0.573982
0.217892
0.135293
0.365778
1.17299
0.115589
1.12819
1.10471
1.14448
1.15558
0.138221
0.0157092
1.26207
0.689413
0.0930949
0.224167
0.0102712
1.5348
1.66267
0.646978
1.29982
0.77368
1.6456
1.45279
-0.702424
0.275297
0.0557148
0.185606
0.85247
0.376445
1.09782
1.03899
0.0313651
0.112388
0.110918
0.0219527
1.3738
1.44779
1.40418
1.35685
1.73663
1.51045
1.64878
0.219278
1.46054
1.54301
1.4999
1.24693
1.59735
1.48898
1.58304
1.68293
1.58405
1.74209
1.73859
1.64908
1.59009
1.6867
1.62499
1.55126
1.7109
1.65608
1.27639
-0.0327682
1.41506
1.50504
1.52968
1.52795
1.39609
0.709153
0.0924815
-0.0113655
-0.131349
0.127751
0.821935
1.20205
1.18617
0.717355
0.948859
1.27109
1.18258
1.30955
0.183593
0.851528
0.0148957
1.15574
0.239559
1.19186
0.605814
-0.0659151
-0.279688
0.0111395
0.308685
0.238927
0.0321118
0.0166721
-0.128741
0.541142
0.0825985
0.538964
1.21235
1.11297
1.15916
0.257849
0.0536227
0.179391
1.35936
1.42608
1.13759
0.0718684
0.724015
0.241996
1.27543
1.33925
1.23924
0.00705521
0.110049
0.0192147
0.00301443
-1
-0.142248
0.0058839
1.1355
-0.00948641
1.29792
1.32628
1.49812
1.38176
1.55251
1.35319
1.29222
0.378033
-0.0104794
-0.00848842
0.0121112
1.49338
1.13509
1.3218
-0.251873
-0.0336032
0.446151
1.18898
1.48466
1.43082
0.144041
0.125219
1.40178
0.511959
1.25715
0.980344
1.35156
-0.693148
0.0948758
1.28481
1.18891
1.16835
1.20941
1.52513
1.67779
1.73611
1.65423
1.47883
1.62878
1.45408
1.39151
1.58572
1.41597
1.64637
1.54007
1.53545
1.16294
1.1153
1.26342
1.21755
0.688403
1.08867
0.489081
1.60991
1.5127
1.37688
1.39187
1.51711
1.42406
1.3439
1.32932
1.57686
1.30806
1.16856
1.31002
1.1796
1.64571
1.54298
1.41293
1.23238
1.2671
1.16986
0.655101
0.00629347
0.155215
0.240984
-0.00512441
1.1584
1.36921
1.51006
1.42072
1.2137
1.37935
0.32277
1.16216
1.40207
0.0724281
0.0808571
1.27583
1.3118
1.47455
0.0215074
0.972543
0.0352141
0.104266
1.19168
0.366788
0.131759
0.678283
1.13568
0.873923
1.18445
1.12702
1.20773
0.129202
1.18643
0.731598
0.0410543
0.394202
1.19508
0.528475
1.18823
-0.134169
-0.00479215
-0.00126685
0.455312
0.0323818
1.34825
1.40001
1.42988
1.4196
1.17395
0.0719504
-0.00636614
0.0940777
1.1243
1.25779
0.102731
1.13597
0.062408
1.5119
1.27817
1.41076
1.426
1.45567
0.0554223
0.705856
1.17056
1.15999
1.13792
1.73872
1.54116
1.68717
1.37927
1.17201
1.21838
1.20597
1.30182
1.32371
1.61018
1.50243
1.37967
1.47113
1.57681
1.48952
1.64143
1.62965
1.618
0.0564653
1.54697
1.29496
0.698313
1.27038
1.6034
1.46574
1.58736
1.1902
1.02792
0.622785
0.183874
0.0129276
0.819525
0.100504
-0.0231936
0.0422093
0.354265
0.0484096
-0.0686563
-0.0143961
-0.0528541
-0.0158263
0.0674138
0.030506
0.0615845
