# vtk DataFile Version 4.2
vtk output
ASCII
DATASET POLYDATA
POINTS 642 double
-1.05139 2.24243 -0.410155
1.20976 2.3219 -0.389002
-1.43001 -1.66227 -0.000184403
1.02254 -1.45176 0.128964
-0.0469282 -0.28476 1.33944
-0.00407029 1.75461 1.33813
-0.135198 -0.300901 -0.274952
-0.252321 1.86412 -1.40717
1.25548 1.44335 -0.581521
0.977616 0.77336 0.380041
-1.24108 1.3508 -0.764305
-1.06889 0.552053 0.472613
-1.39232 1.69394 0.143791
-0.615718 1.26966 1.07738
-0.55944 2.41665 0.923522
0.591547 2.417 0.901318
0.00162063 2.79356 -0.196747
0.942074 2.22 -0.73857
-0.90562 2.16141 -0.905618
-1.28741 1.78662 -1.12808
-1.91399 1.98461 -0.939473
-1.21438 0.965499 -0.270475
0.597502 1.31348 1.04459
1.47049 1.76927 0.106995
-0.444921 -0.14453 1.0476
-0.047405 0.280281 1.20241
-1.11379 -0.628733 -0.0758528
-1.27974 -0.809457 0.351192
-0.256591 1.31603 -1.08374
-0.86262 0.70984 -0.5713
2.03761 2.00426 -0.8605
1.05988 1.79204 -0.823997
1.1435 -0.675243 0.41555
0.420103 -0.177276 0.992941
0.634706 -1.29973 0.956136
-0.710165 -1.24554 0.72399
0.0222039 -1.2043 0.27893
-0.686272 -0.892963 -0.0454765
0.462535 -0.926522 0.0112473
0.614024 0.490476 -0.414884
0.946789 -0.514606 -0.0648169
1.25109 1.22612 -0.188223
-1.32416 2.07057 -0.14394
-0.931247 2.03127 0.562878
-0.755114 2.37942 0.237376
-0.802947 0.913659 0.701813
-0.906897 1.53165 0.692653
-1.13149 1.17222 0.262237
-0.209814 2.08215 1.22677
-0.657567 1.88263 1.11854
-0.286599 1.57064 1.22742
-0.331865 2.8101 0.461141
-0.546581 2.53557 -0.278489
0.214091 2.08565 1.22379
0.00430309 2.56107 1.04188
0.647946 2.47122 -0.287357
0.324634 2.68876 0.423828
0.814383 2.28492 0.125057
-0.469552 2.94669 -0.719938
-0.985398 2.25243 -0.736695
1.14255 2.3083 -0.612109
0.468135 2.94259 -0.719029
-0.653999 2.00764 -1.06415
-0.0652526 2.46489 -0.891097
0.415348 2.09073 -1.04127
-1.62442 2.38916 -1.18675
-1.56981 2.30349 -0.640782
-0.876944 1.78785 -1.0746
-1.40655 2.01497 -1.21476
-1.60803 1.54671 -1.01177
-1.87216 1.8052 -1.64125
-1.36075 1.60688 -1.05041
-1.79923 1.88512 -0.314302
-1.24799 1.19457 -0.551255
-1.67056 1.49683 -0.582973
-1.43762 1.38891 -0.176765
-1.164 0.701889 0.0979743
0.999006 2.03374 0.458012
1.44406 2.24012 -0.0743494
0.274462 1.58903 1.24092
0.625296 1.88595 1.04063
1.23832 1.29448 0.249485
0.961373 1.57316 0.583489
0.803406 1.00499 0.613224
-0.230439 0.766533 1.10298
-0.019814 1.19864 1.20062
-0.917768 0.131117 0.85765
-0.454459 0.446128 1.0039
0.00815074 -0.0708028 1.77819
-0.238716 0.0877191 1.40345
-0.188906 -0.256844 1.37751
-1.28109 -0.260899 0.112402
-1.27391 -0.189945 0.489174
-1.03872 0.476844 -0.355309
-1.16598 -0.0459184 -0.121647
-1.44116 -1.27598 0.2428
-1.27415 -0.836482 0.0712604
-1.24723 -1.28509 0.0343593
-1.0548 1.46779 -0.961304
-1.05492 1.14742 -0.703249
-0.269875 1.60765 -1.28932
-0.847706 1.57339 -1.04473
-0.569515 0.0533307 -0.383367
-0.707419 1.1943 -0.889191
-0.196116 0.734873 -0.709556
1.15039 2.06269 -0.816338
0.518767 1.81697 -1.0503
1.71636 2.5486 -0.489832
1.65646 2.40168 -1.00495
1.25325 1.65087 -0.750064
1.55557 2.01739 -0.938723
1.57926 1.66588 -0.768456
1.00525 -1.1247 0.298288
1.0246 -1.05908 0.708531
1.13439 -1.61942 0.553076
0.856056 0.183343 0.810128
0.932097 -0.513377 0.784278
1.1459 -2.84388e-05 0.511141
0.214386 -0.796344 0.937054
0.61483 -0.769276 0.957412
0.0942716 -0.255247 1.26344
0.378725 -1.59439 0.587951
0.735683 -1.65904 0.0539161
-0.217223 -0.723279 0.897772
0.0426981 -1.12529 0.730038
-0.882045 -1.47183 0.134254
-0.494591 -1.29014 0.506356
-1.21485 -1.65985 0.535682
0.397446 -1.15618 0.115678
0.776113 -1.32942 0.071949
-1.07159 -1.33491 -0.0584389
-0.489435 -1.07606 0.0877949
0.18016 -0.636007 -0.136017
-0.067481 -0.875544 -0.0226427
-0.410565 -0.60912 -0.162852
0.695469 -0.837062 -0.00271575
0.873936 -1.07833 0.140702
0.270444 -0.0718122 -0.321107
0.489595 -0.52561 -0.132317
0.929701 0.694069 -0.262778
0.737184 -0.117114 -0.162343
0.950288 1.16795 -0.526324
1.07032 -0.671895 0.126919
1.30886 1.36236 -0.430754
0.994978 0.296003 -0.0470789
1.14665 0.0411161 0.160879
1.12243 0.99519 0.0836065
0.120004 0.0876756 1.31837
0.417725 0.507667 0.968891
0.1809 0.839207 1.09415
-1.22156 -1.11822 0.694846
-0.625562 -0.742799 0.79028
-1.03216 -0.584291 0.702384
-0.735756 -0.472593 -0.174738
-0.964323 -0.866328 -0.06554
-0.929207 -0.120332 -0.232676
0.85973 1.43349 -0.757277
0.293767 1.06082 -0.810197
0.453862 1.5256 -1.03033
1.55641 1.5097 -0.0845061
1.76178 1.5696 -0.483358
2.00157 1.99897 -0.216635
-1.18338 2.18017 -0.311369
-1.00817 2.15945 0.0240283
-0.903336 2.27285 -0.175187
-1.18298 1.85596 0.337028
-1.13749 2.04994 0.209399
-1.45047 1.95431 0.0667398
-0.679681 2.44674 0.603081
-0.888238 2.25184 0.436362
-0.764777 2.24592 0.771706
-0.96033 0.687411 0.554243
-0.958059 1.04688 0.501307
-1.05274 0.820541 0.374935
-0.778007 1.41675 0.933728
-0.85844 1.24774 0.712178
-0.687789 1.11313 0.87858
-1.26893 1.44287 0.194805
-1.0256 1.35241 0.444599
-1.13299 1.60994 0.408689
-0.0824519 1.89513 1.33936
-0.257649 1.83984 1.26811
-0.121335 1.69303 1.33779
-0.619246 2.16763 1.05096
-0.436863 2.01684 1.21176
-0.37654 2.26904 1.12776
-0.475352 1.4231 1.21002
-0.462876 1.72906 1.21078
-0.653746 1.58132 1.11779
-0.989825 1.79764 0.676128
-0.83689 1.70745 0.950438
-0.858771 2.00906 0.915126
-0.645774 2.47226 -0.00520083
-0.816988 2.34439 -0.357514
-0.443998 2.60466 0.715744
-0.618311 2.65434 0.379457
-0.318562 2.68921 -0.233025
-0.449744 2.68611 0.0726461
-0.163267 2.81601 0.11814
0.0772672 1.89704 1.3394
-0.00112458 2.09923 1.21909
0.31892 2.55623 1.02975
0.137141 2.34797 1.21226
0.412078 2.29025 1.16061
-0.1343 2.34332 1.21227
-0.305827 2.55143 1.03796
0.995044 2.3427 -0.368464
0.737247 2.38244 -0.0760914
1.06919 2.28588 -0.234221
0.158981 2.71277 0.123301
0.473369 2.59799 0.0599403
0.332313 2.61469 -0.221383
0.717321 2.42345 0.548359
0.602549 2.54281 0.324351
0.477052 2.6063 0.692808
-0.150222 2.68957 0.773709
0.167071 2.68947 0.767149
0.0152477 2.8166 0.474432
-0.718851 2.42225 -0.549902
-1.02918 2.26088 -0.559927
-0.1968 2.69057 -0.481678
-0.459119 2.62985 -0.533245
-0.949185 2.21193 -0.837742
-0.60912 2.49882 -0.70344
-0.549742 2.46738 -0.779825
1.19983 2.33387 -0.511371
0.871025 2.39965 -0.503309
0.602161 2.47856 -0.704374
0.660302 2.47751 -0.625932
1.06766 2.26931 -0.683102
0.533617 2.59806 -0.507391
0.191348 2.69046 -0.469406
-0.407951 1.90833 -1.20626
-0.119165 2.0974 -1.13607
0.0803982 1.99848 -1.31406
-0.466567 2.38005 -0.879241
-0.35318 2.24449 -0.991265
-0.819101 2.09259 -0.974621
0.700857 2.1716 -0.845653
0.216732 2.30309 -1.02643
0.446983 2.37941 -0.829582
-0.0115889 2.67092 -0.665859
0.15933 2.58052 -0.751705
-0.241495 2.68619 -0.890511
-1.32787 2.30051 -0.753022
-1.26304 2.23662 -0.509004
-1.35576 2.19371 -1.05549
-1.37687 2.26081 -0.980944
-1.88204 2.28334 -0.778425
-1.61304 2.34179 -0.929758
-1.91339 2.30985 -1.0966
-0.522691 1.79616 -1.17868
-0.809812 1.88154 -1.07538
-1.42255 1.94733 -1.23113
-1.13608 1.89574 -1.09524
-1.13362 1.79966 -1.08895
-1.04992 1.9771 -1.05664
-1.2272 2.07823 -1.07357
-1.38177 1.47537 -0.865005
-1.48735 1.59042 -1.07757
-1.31245 1.47777 -0.89186
-1.91321 1.94976 -1.24623
-1.68888 1.78755 -1.22667
-1.85851 1.69797 -1.05385
-1.34488 1.72853 -1.12232
-1.55902 1.80738 -1.26058
-1.50907 1.88943 -1.30942
-1.49999 2.17285 -1.27692
-1.52001 2.04814 -1.52495
-1.80966 2.2752 -1.49421
-1.47865 2.25312 -0.347073
-2.02164 1.97488 -0.607231
-1.81105 2.21893 -0.428804
-1.59471 2.0252 -0.22163
-1.62283 1.79034 -0.0826751
-1.24773 1.30012 -0.690452
-1.43543 1.44702 -0.766609
-1.40369 1.32234 -0.439661
-1.448 1.38419 -0.602236
-1.23498 1.08698 -0.413676
-1.67735 1.53453 -0.817931
-1.90878 1.68312 -0.765566
-1.15849 0.973242 0.145588
-1.11374 0.585961 0.3277
-1.48105 1.52977 -0.026544
-1.29196 1.29079 0.0275591
-1.19049 0.839461 -0.107271
-1.25631 1.11042 -0.0733945
-1.33477 1.22332 -0.26199
-1.85384 1.65316 -0.459683
-1.56708 1.48945 -0.390338
-1.65315 1.6172 -0.249274
1.14972 2.18837 -0.0622563
1.3089 2.3039 -0.287183
0.767545 2.22209 0.699443
0.897985 2.16878 0.299447
1.50499 2.01108 0.0471431
1.22782 2.05642 0.0927518
1.29928 1.90858 0.276642
0.110709 1.69792 1.33784
0.256941 1.84698 1.2692
0.616392 1.61215 1.05137
0.45938 1.74624 1.20324
0.45903 1.45746 1.20277
0.452516 2.02127 1.20839
0.621294 2.15386 1.00024
1.05006 1.02787 0.302057
1.01467 1.16478 0.411132
0.924094 0.850716 0.453856
1.22974 1.6675 0.323825
1.14993 1.42467 0.381274
1.3958 1.5242 0.206826
0.684831 1.16809 0.823075
0.878619 1.3144 0.597703
0.766432 1.45914 0.857523
0.768411 1.98143 0.775504
0.768069 1.72862 0.822649
1.03884 1.82287 0.572854
-0.14197 1.40458 1.2275
-0.00739142 1.56753 1.3375
-0.401914 1.07779 1.07873
-0.29653 1.23153 1.21043
-0.036452 0.667717 1.11533
-0.144917 0.967195 1.20928
-0.118816 0.450307 1.10759
-1.07407 0.377468 0.666405
-0.846559 0.520923 0.763747
-0.424718 0.101298 1.06448
-0.663668 0.298372 0.958726
-0.665696 -0.0355261 0.922025
-0.653207 0.717949 0.878676
-0.509511 0.910669 0.972672
-0.0170002 -0.349231 1.57968
-0.260551 -0.280944 1.75677
-0.105642 -0.276926 1.37901
-0.137753 0.134527 1.36577
-0.17474 0.00724832 1.58186
-0.0518423 0.0555767 1.47026
-0.282604 -0.205119 1.2182
-0.255523 -0.110431 1.47712
-0.284652 -0.0258589 1.26402
-0.326003 0.599028 1.05055
-0.280063 0.205184 1.15101
-0.198704 0.31097 1.14151
-1.27428 0.230688 0.324476
-1.24786 0.28416 0.544207
-1.18518 0.360731 -0.0496092
-1.23493 0.25928 0.115025
-1.3291 -0.535892 0.434061
-1.27569 -0.260964 0.285336
-1.39977 -0.597459 0.2344
-1.12456 1.10992 -0.618245
-1.1086 0.879061 -0.45975
-1.1615 -0.415149 -0.0912142
-1.0937 0.164108 -0.224488
-1.08625 -0.22097 -0.191636
-1.11692 0.67604 -0.319315
-1.14118 0.502577 -0.184292
-1.43254 -1.52365 0.12594
-1.36523 -1.31841 0.0984949
-1.53064 -1.48038 -0.140985
-1.27772 -0.844946 0.189706
-1.24435 -1.07941 0.184505
-1.27601 -1.07081 0.296778
-1.11842 -0.995252 0.0433232
-1.19548 -1.05545 0.11526
-1.23523 -0.780507 -0.0471166
-1.28203 -0.200554 -0.0303867
-1.26074 -0.538756 -0.023495
-1.33406 -0.592399 0.0761081
[...]
POINT_DATA 642
SCALARS Mean_Curvature double 1
LOOKUP_TABLE default
-0.566063
-0.363086
12.0813
2.57581
-0.0519547
-0.0424767
0.253261
8.94077
0.592716
-0.269963
1.1309
-0.614385
1.36609
2.86411
2.35389
2.78428
2.79565
0.328608
0.570394
0.649477
-0.0719874
1.01282
2.55531
-1.69004
-0.317648
-0.638835
-0.830101
-1.12921
0.869485
0.215965
4.79697
0.747931
2.98957
-0.35292
1.86235
0.155465
0.699448
0.280687
0.320364
0.350729
1.26535
0.304054
-1.17862
-0.811682
-0.724028
-0.613552
-0.921164
0.10217
0.189389
2.07057
-1.32989
3.04778
-0.378926
-0.332818
1.7585
-0.466526
0.893806
-1.04368
6.31178
0.517451
0.76645
6.36323
0.637174
-0.822061
0.352177
6.20738
1.00875
0.459418
0.530664
4.14836
6.05655
0.951565
2.28005
1.21775
2.18363
0.631305
0.369631
1.21536
3.17824
-0.616102
1.31399
2.50876
-0.43083
-0.478881
-0.640341
0.33262
2.38559
-0.677109
8.00597
8.01333
5.32553
-0.690365
3.21167
0.560443
-0.103614
5.89538
3.80879
-1.46811
1.14325
1.01948
1.06488
0.415039
0.450522
0.277158
0.2134
0.64009
0.677937
4.63487
2.92887
0.266647
1.17915
2.79889
0.521252
0.729037
5.80049
3.32577
1.90344
4.42331
0.213255
0.758753
0.846962
4.21795
5.96244
-0.21282
0.393425
2.26605
1.00622
3.85243
0.314958
-0.476951
3.69407
0.554504
0.67509
0.0682631
0.628359
-0.474879
-0.703131
0.418034
0.392976
0.327418
0.0735731
0.548798
-2.18037
0.0852078
0.0119084
5.77116
0.391094
5.01983
0.0435993
-0.0231929
3.66019
-0.19416
1.08879
0.363593
1.93419
0.314037
0.346976
0.192093
0.843237
-0.833273
1.64327
4.53385
-0.899658
-1.23695
-0.453629
1.49354
1.20311
4.3154
0.763597
1.88889
1.05585
-0.329822
-0.448063
-0.0748384
1.32506
0.300007
-0.329423
0.700126
-0.925075
0.514369
4.63607
0.0133604
3.75419
1.99591
2.62269
0.718849
3.00705
1.30602
1.97756
1.94332
1.97938
3.37243
-0.448046
-0.61089
0.833749
3.46443
0.560393
1.10338
2.18988
4.59662
-2.13243
3.48855
3.11656
3.07943
3.47411
3.89481
-0.291901
-0.719964
-0.418288
-0.318511
1.05956
-0.921163
2.21422
1.56949
2.22843
1.06222
1.42561
2.51331
-0.13274
-0.186615
-0.525778
-0.283289
0.784137
3.91218
0.594196
0.236017
0.587476
1.93441
2.45372
0.935411
0.558424
-0.407544
0.23698
-0.845416
1.42483
0.204465
0.120461
0.26835
0.448472
2.60592
-0.0958008
1.86862
-0.170837
5.22257
1.88874
-1.13826
0.363751
2.06327
3.99768
1.33868
4.63553
0.658492
0.60691
0.46508
0.986253
1.01354
1.07098
0.794273
0.399384
3.40827
0.845271
2.95376
0.534167
4.60601
0.428757
3.16309
1.5911
1.05736
7.01107
5.44703
4.01347
4.45339
4.45138
0.538355
3.28638
1.3043
0.182449
0.537502
1.05021
1.06641
1.41754
3.08494
0.0801433
-0.470405
2.01677
-0.105944
0.199033
0.461461
0.261116
4.38924
-0.671478
1.45953
-0.826875
-0.156833
1.26069
-1.09063
0.488489
-1.28687
3.69005
3.54905
0.37365
0.873849
2.38619
3.62757
3.45615
1.66479
-0.123907
0.0115927
-0.228293
-0.725469
0.758895
3.1127
-0.0544151
-0.85461
1.53474
-0.485805
-0.349895
2.83223
-1.25943
5.33841
-1.0845
2.41144
-0.869974
6.00861
-0.699304
1.84069
0.0276726
-0.655067
1.40949
-0.200425
0.45352
-0.364066
8.47224
7.83893
-0.200897
2.73933
6.40804
1.20525
-0.0948537
4.20321
-0.616634
-0.455417
-0.189801
-0.48806
2.14731
4.69947
0.0885517
1.03919
2.76218
-0.845025
5.72233
1.09433
0.785123
0.160211
0.0716661
9.15518
0.465966
0.512146
2.25793
1.99065
9.3769
-0.616386
-0.478257
-0.395714
-0.757777
-0.368776
10.6859
8.8124
2.27286
3.74285
1.21027
1.35026
1.08711
1.03011
0.450732
1.1981
0.678167
4.37958
1.00544
1.01111
1.15979
0.493262
0.520008
1.13469
0.36159
0.290457
0.280175
0.324375
0.287269
0.437073
0.414608
0.253228
0.541723
1.12327
0.241989
0.609114
0.394794
6.90029
0.758694
0.456123
0.389623
0.260451
0.663992
-1.01936
6.41002
5.66414
5.80485
2.33327
1.03857
0.134861
0.487629
1.41317
1.07511
0.186582
0.311149
0.607572
0.400589
-0.523038
5.1635
0.413311
7.30796
0.388522
-0.183887
4.11301
8.57951
5.46067
-1.76632
-1.00456
4.6795
-0.517836
4.66749
1.58839
1.26142
2.11667
-0.821231
-0.579348
-0.533664
-0.948421
2.33396
0.494657
0.600535
0.25684
0.175729
0.293794
0.309836
2.27485
-0.0357764
0.171408
-0.240985
2.30065
3.4999
4.21691
2.53382
0.268631
5.66804
1.48098
0.47034
3.50048
0.348375
0.480128
0.196529
0.442308
-0.500006
0.107527
0.0609455
1.57891
5.51885
2.47269
4.13121
0.92891
-0.130805
0.803369
5.84846
4.99184
4.14642
0.0253757
0.700966
0.903315
8.82387
11.6182
0.581823
4.4036
-0.264417
1.34909
0.252102
1.40709
7.51101
0.42054
-0.30231
-0.0973802
0.0484254
0.865728
0.329883
0.0140087
0.375301
0.62709
0.684212
0.624954
0.671627
0.73637
0.761212
0.22557
0.826713
0.671531
-0.749263
-0.607496
0.0692573
-0.41234
-1.02254
1.59335
4.61865
0.315127
0.655099
0.368949
0.544988
0.389624
0.623214
0.456718
0.901322
0.29302
0.904239
-0.288675
0.285085
-0.292822
0.212666
0.486628
0.393221
0.318701
0.0428497
0.0164423
0.823893
8.89873
5.31366
-0.618837
5.5088
1.40672
0.950235
0.107537
0.916467
0.114342
0.327959
4.36957
-0.164532
-0.118705
0.371584
0.792194
0.415029
0.115458
0.313181
8.17206
-0.513328
1.18903
6.92621
-0.534083
1.83758
6.66391
-0.65659
-0.32074
-0.250419
-0.67426
-0.566208
-0.357464
-1.11119
-0.709712
-1.28117
3.35516
-0.00528162
-0.643674
2.36566
-0.655281
6.58784
2.36398
2.77915
-1.47722
1.40481
0.532899
-0.0828447
0.368366
0.274927
-0.728274
1.54042
3.99961
0.878914
-0.765305
-0.553516
3.41315
-0.828415
1.70739
0.539645
0.353826
0.583177
0.457488
0.436375
8.02201
2.75726
-0.750582
-0.439532
2.86782
0.484559
0.41743
0.593213
0.0912249
-0.661568
-0.213225
-0.562594
0.191521
0.829345
0.216817
0.573969
0.836558
0.891557
0.297265
0.646995
0.215518
0.178771
0.219994
4.27448
0.320958
0.855421
1.73319
0.476634
0.157001
0.593785
0.258402
-0.0233469
-0.4797
2.58386
1.69889
4.40024
-0.653119
2.25748
5.81152
7.66617
1.71658
0.576946
3.8046
4.21813
1.82389
2.45576
1.99697
2.40656
4.52067
SCALARS CoVolArea double 1
LOOKUP_TABLE default
0.0356168
0.0238815
0.0329266
0.0156884
0.0158632
0.0180677
0.0496978
0.0490169
0.0120207
0.0309386
0.0122838
0.0407818
0.0794116
0.0678274
0.0815793
0.0887342
0.108396
0.0580402
0.0555853
0.024061
0.0986159
0.0558482
0.0728784
0.06433
0.0708594
0.0326346
0.0344091
0.0490451
0.0738081
0.0610629
0.0999869
0.0315338
0.0486089
0.0741349
0.0866839
0.0697784
0.0661846
0.033715
0.0273535
0.101714
0.0443908
0.0436081
0.0818957
0.091286
0.098687
0.0856696
0.0838294
0.0759493
0.0534599
0.0729438
0.0537909
0.112557
0.0861331
0.0565888
0.0877077
0.0877778
0.104783
0.0922063
0.104957
0.0642873
0.0489496
0.114378
0.074721
0.100063
0.0905188
0.0800868
0.0843761
0.0312629
0.0371802
0.0504191
0.112484
0.0282931
0.0863405
0.0432397
0.0605038
0.0556249
0.0817046
0.090606
0.07256
0.0520051
0.0698173
0.0498844
0.085346
0.0875682
0.060426
0.0579977
0.101951
0.0785877
0.063877
0.034974
0.0444832
0.0716375
0.0865027
0.0469159
0.0547545
0.0537782
0.0286568
0.0307942
0.0243968
0.0307668
0.0687363
0.0285553
0.100474
0.0661317
0.149177
0.0351516
0.0616758
0.0948738
0.0760327
0.0268902
0.0431191
0.0361409
0.0351515
0.0663069
0.100774
0.0956658
0.0641572
0.083403
0.0536305
0.0630371
0.042934
0.108177
0.0741568
0.0637618
0.0650387
0.0742281
0.0713815
0.110998
0.0382713
0.0327789
0.0360333
0.0483816
0.0422764
0.0464528
0.045361
0.0294523
0.0258741
0.0962636
0.0374028
0.0546821
0.0579064
0.0455532
0.0353863
0.0378136
0.0595303
0.071306
0.0510524
0.0378916
0.0909434
0.0619589
0.0687589
0.0645533
0.0741938
0.0403344
0.0271274
0.0445809
0.0499386
0.113337
0.0645661
0.0460131
0.0544633
0.0999205
0.0637048
0.0938204
0.0775885
0.0891101
0.0923606
0.0818905
0.0887679
0.0933836
0.0846325
0.0700282
0.0817459
0.0630672
0.0720996
0.0800314
0.075681
0.0753163
0.0847262
0.0876888
0.0352922
0.0492616
0.036478
0.0758107
0.0619863
0.0694327
0.0621713
0.0602523
0.0669425
0.0901534
0.0794783
0.08623
0.0950119
0.069056
0.0951841
0.102215
0.0912923
0.103015
0.113977
0.0357218
0.0518287
0.0918234
0.0722861
0.0763125
0.0695628
0.0863412
0.0533606
0.0887023
0.0585045
0.113112
0.103124
0.103168
0.0947193
0.0998471
0.0977175
0.100099
0.10027
0.112929
0.0701952
0.0554039
0.094945
0.0810783
0.0486243
0.0620467
0.0706819
0.0374258
0.0574576
0.0847259
0.0551896
0.045225
0.0906982
0.107957
0.0709072
0.113938
0.0954881
0.0792131
0.103999
0.06347
0.0678836
0.111374
0.0906551
0.100643
0.102706
0.096883
0.068341
0.0567783
0.0510155
0.0577137
0.101285
0.077805
0.106725
0.038834
0.0408203
0.0286199
0.0296044
0.0260334
0.0418969
0.047063
0.0243932
0.0343182
0.0196204
0.114358
0.0673094
0.0754807
0.0254978
0.0426296
0.0484499
0.0697438
0.0818805
0.131099
0.077814
0.109154
0.101394
0.0781621
0.0709
0.0285244
0.040108
0.0468864
0.0462918
0.0480265
0.0605192
0.0873277
0.0684326
0.0687261
0.0651718
0.0622658
0.0691643
0.0594062
0.052072
0.081113
0.0554203
0.0648616
0.0746942
0.0493534
0.0879214
0.0913531
0.0739262
0.0795598
0.0792299
0.0355466
0.049256
0.067824
0.0590517
0.0621681
0.0637457
0.0768365
0.0414743
0.0663175
0.0600748
0.0766727
0.0703909
0.0549265
0.0845628
0.0830223
0.0792977
0.0833899
0.0805586
0.089065
0.0530147
0.038326
0.0687615
0.0630558
0.0498722
0.0607747
0.0446897
0.0814855
0.0951392
0.0690819
0.0942898
0.0899257
0.0901006
0.0763899
0.0483547
0.0672307
0.0351553
0.031368
0.0462323
0.0343988
0.052848
0.0449228
0.047321
0.0633476
0.0504726
0.0412188
0.0971795
0.0816264
0.0763417
0.0920772
0.0630626
0.0820987
0.0556776
0.0288237
0.0451851
0.0381136
0.0490631
0.0422796
0.0540816
0.0642597
0.0525774
0.0414513
0.0471986
0.0358423
0.0297217
0.0407969
0.029645
0.0274919
0.0338401
0.0620137
0.0391257
0.0431504
0.0241643
0.0213611
0.0202352
0.0230858
0.0407026
0.0276683
0.0395729
0.0626169
0.0415415
0.0488908
0.0414304
0.0663526
0.027773
0.0216968
0.0914097
0.148094
0.134611
0.0674895
0.108259
0.0824523
0.0935122
0.109454
0.0658253
0.0237976
0.0383705
0.0374024
0.0674413
0.0820398
0.0394106
0.0474738
0.0420707
0.0417234
0.0360534
0.0493543
0.0703791
0.120618
0.111108
0.119039
0.0613691
0.0415653
0.0207457
0.0296004
0.021186
0.0307978
0.030816
0.02655
0.0552572
0.0400512
0.0802847
0.0440858
0.0728928
0.0367543
0.0325937
0.0638743
0.0577029
0.0557548
0.0508152
0.0396567
0.108343
0.079296
0.0815871
0.0697812
0.0830817
0.064636
0.0733417
0.0766387
0.0885926
0.0631099
0.0673055
0.0577939
0.0382613
0.0486444
0.0304096
0.0660527
0.0570797
0.0578955
0.0557927
0.0580398
0.0660435
0.064517
0.0665484
0.0693787
0.0866254
0.0434797
0.113753
0.115738
0.0705023
0.0993453
0.0817498
0.0411052
0.0603856
0.0610495
0.0684367
0.0643941
0.061237
0.0711968
0.0586204
0.0970079
0.0681429
0.0668892
0.0848825
0.0666984
0.108461
0.109606
0.0729241
0.0841699
0.0658718
0.0753002
0.0534341
0.0321645
0.0541324
0.047166
0.0264205
0.0303052
0.0331625
0.0417044
0.0503019
0.0387677
0.038267
0.0329324
0.0541943
0.0600992
0.0489819
0.0510325
0.0507392
0.0358083
0.0437858
0.0307898
0.0347547
0.0461707
0.0409306
0.0508089
0.0478031
0.0428148
0.0250679
0.0217504
0.0252868
0.0248852
0.0320797
0.0296537
0.0361251
0.0859552
0.052549
0.0658884
0.0529725
0.101846
0.0345629
0.0276534
0.030565
0.0473152
0.026389
0.0485344
0.0575222
0.0583687
0.0718301
0.0613209
0.0735907
0.0317474
0.0493861
0.0410741
0.0255882
0.0397977
0.0274917
0.029502
0.0385089
0.0241967
0.0423958
0.0526877
0.0469364
0.041398
0.0589102
0.0580703
0.0739206
0.0469815
0.056313
0.0801473
0.0458061
0.0675154
0.0600796
0.0557124
0.066142
0.0535873
0.0440157
0.0559731
0.0397206
0.0383989
0.0307041
0.09516
0.0852651
0.0981211
0.101424
0.0816469
0.051961
0.0418407
0.0573957
0.0606703
0.0716981
0.0621831
0.0742518
0.0470203
0.0831434
0.0835472
0.0929913
0.0643109
0.0545532
0.0462027
0.0733765
0.0574969
0.0581075
0.0630209
0.0946247
0.05966
0.0738436
0.0906516
0.085376
0.0683593
0.0742756
0.065837
0.0584183
0.0316114
0.0388749
0.0586034
0.0591536
0.0339279
0.0280312
0.0229599
0.0285306
0.0305276
0.0367195
0.0530731
0.0423994
0.045039
0.0368576
0.032789
0.0348674
0.0451264
0.0306255
0.0863311
0.0468967
0.0309393
0.0343425
0.145606
0.0877282
0.12296
0.135141
0.127514
0.0867116
0.0450342
0.0603746
0.0771501
0.0773097
0.0888898
0.0792407
0.0566159
0.0428565
0.0407938
0.0404657
0.0424746
0.0547071
0.034731
0.0665495
0.0472921
0.0442343
0.0434807
0.0738854
0.0830637
0.0925893
0.09505
0.0910776
0.0542003
0.0769311
0.0743213
SCALARS SignedDistance double 1
LOOKUP_TABLE default
1.21327
1.16068
0.0458567
-0.72829
0.626585
0.000421376
1.51279
0.0624869
0.925707
1.24554
1.27971
0.90076
-0.0102675
0.0442811
-0.0307154
-0.0280838
0.0308402
1.42007
1.38434
1.24585
0.00355808
1.39598
0.0455954
0.742543
1.26009
0.741262
0.291159
0.0445352
1.32751
1.62305
-0.0524431
1.33956
0.0163418
1.2777
0.0160858
0.350452
1.46353
1.14666
1.22929
1.4287
0.0892569
1.10661
0.397592
-0.00176641
0.100683
1.1935
0.28073
1.19098
-0.0270337
0.0150418
0.026221
0.015382
1.13269
-0.0266177
-0.000797974
1.20375
-0.00922987
0.95119
-0.082793
1.29572
1.23713
-0.0282913
1.38634
0.536277
0.76374
-1
-0.00766188
1.51788
1.1654
0.0322711
0.0877668
0.911385
0.140444
1.32702
0.00637435
0.457956
1.33168
0.0080608
0.118886
0.0212497
0.00760528
0.108883
0.203145
1.20465
0.375042
0.0455195
0.0151942
0.882689
0.0780086
-0.00812578
0.109389
0.0375838
-0.00218219
1.44317
1.03238
0.177299
0.0218635
0.171345
1.4081
1.4783
0.419855
1.55939
1.39831
1.55832
1.4881
1.30212
1.20708
0.0131606
-1.00189
1.11611
0.229291
0.0871769
0.054861
-0.0173886
0.00693785
0.0032705
0.150682
-0.00632566
1.26973
0.0538644
0.390687
0.124378
-0.00525461
1.54607
1.3969
0.208906
1.2083
0.00996399
1.25313
0.69185
0.0318287
1.25311
1.45605
1.62161
1.42674
1.10292
0.857692
1.35905
1.21273
1.46432
1.17148
1.41221
0.397657
0.966344
0.959737
0.00905005
1.3492
0.140439
0.269169
0.162368
0.000426712
1.19624
0.0613565
1.22505
0.123443
1.21103
1.47356
1.44381
1.28269
0.0472652
-0.00265844
-0.00804455
0.806677
1.12081
0.72698
0.00899142
0.0301983
0.0571444
0.000509576
0.0216137
0.023725
0.940448
1.24073
1.25772
0.0381008
0.215639
0.550389
0.0792548
1.10787
0.0400803
0.0208085
-0.0044485
-0.00508859
0.0310541
0.021754
-0.0130468
-0.00412836
0.00655055
0.0182664
-0.0145115
-0.0257731
-0.0380108
0.179053
1.23218
-0.00870588
0.0124675
0.00610407
-0.0174193
-0.00645456
0.021414
-0.0169337
-0.0121895
0.0321082
-0.130325
0.0323677
-0.0126017
1.33965
1.14245
1.26794
0.0232334
0.109759
0.458716
-0.0101082
0.00504298
-0.0384869
0.0122502
0.0118748
0.00319364
1.22255
1.25999
0.0284153
0.726073
1.33403
0.382922
1.11567
1.18831
1.34218
0.482477
0.62768
1.31393
0.461335
0.0394677
1.20368
0.661154
-0.0917382
1.17655
0.824156
1.46458
1.33089
0.0236384
1.12605
0.00305089
0.176139
0.238603
0.0806911
1.02594
0.914177
0.218585
-0.00526552
0.170118
0.00864326
1.30096
1.51028
1.16039
1.3364
1.3475
1.36164
1.22066
1.16027
0.064866
1.20491
0.00295257
0.188582
-0.0114152
1.19433
0.258608
0.496837
0.643993
0.294865
-0.0405348
-0.178797
0.0376029
0.0866863
-0.00415416
0.0183353
1.29009
1.12892
1.16515
0.67174
1.35037
0.144
-0.0791239
1.3581
1.15243
0.0530334
0.727922
1.4916
1.26189
1.20057
-0.817192
0.382154
-0.0316508
1.18084
0.319633
0.071464
0.400649
0.0309067
0.871225
0.028177
-0.0043204
-0.00629906
0.00375085
-0.00057029
-0.00929547
0.0148039
-0.0468482
1.30681
1.18773
1.25852
0.125134
0.0361362
-0.0990823
0.34507
0.835132
0.0607955
0.0760629
0.0793825
0.0199053
0.0522912
-0.00978483
0.697644
0.00393694
0.602835
-0.000252779
1.14445
0.072302
0.268845
1.179
0.082649
0.801153
0.316609
0.329104
0.104608
0.143968
0.470813
0.129584
0.135101
-0.0152105
0.644677
0.0648593
0.581619
0.869851
0.585986
0.885131
0.00810886
-0.0317329
1.19788
0.342854
0.0883713
0.0254852
0.00017763
1.44466
1.5489
0.149301
1.22937
0.0761788
1.54656
1.36086
-1
0.0340997
0.0492555
0.0548623
0.393868
0.0449788
0.620684
0.669167
0.0126514
0.0480983
0.0195142
-0.0379272
1.29665
1.36058
1.30798
1.26961
1.56891
1.41583
1.52362
0.139723
1.37931
1.46665
1.42645
1.18767
1.52562
1.39409
1.42782
1.52033
1.40718
1.55411
1.55747
1.48834
1.4877
1.50485
1.52476
1.45913
1.58437
1.54074
1.18442
-0.00697574
1.33164
1.42
1.46824
1.43533
1.30298
0.634698
0.116224
0.0105206
-0.396476
0.14067
0.850743
1.14217
0.781559
0.290019
0.278068
1.18662
0.756192
1.23421
-0.0457197
0.273614
-0.00179818
1.11528
0.282096
0.968966
0.335657
-0.0229057
0.235396
0.00973706
0.0940897
0.0422093
0.0347218
0.00226911
-0.177895
0.132232
0.00488657
0.117447
1.17506
0.795489
0.733149
0.024977
0.00538711
0.138444
1.32554
1.39021
0.510816
0.0149631
0.420199
0.101802
1.21979
1.32893
1.21319
-0.0129619
0.103556
0.0113013
0.0038083
-1
-0.411695
0.00663991
0.877345
-0.012941
1.25138
1.285
1.46557
1.34299
1.5018
1.29004
1.26943
0.342593
-0.0317059
-0.0217504
0.0285581
1.44314
1.10288
1.20479
-0.27886
-0.108019
0.292874
1.17691
1.4532
1.38888
0.179393
0.11384
1.31052
0.201055
1.17315
0.287962
1.22538
-0.745575
0.00335996
1.12961
0.977867
0.699289
1.03528
1.42532
1.55328
1.61696
1.52007
1.36095
1.52625
1.34352
1.29145
1.48649
1.3197
1.539
1.42822
1.41319
1.12254
0.985616
1.16666
1.08913
0.170545
0.192863
0.042059
1.46417
1.39147
1.24092
1.26167
1.36828
1.31682
1.23563
1.25021
1.46946
1.23041
0.642815
1.21278
0.918357
1.4769
1.41712
1.28355
1.00987
1.15158
0.525482
0.196909
-0.0120359
0.00299481
0.0606979
-0.00861187
0.584124
1.28506
1.45459
1.35287
0.902301
1.26705
0.0616071
0.606034
1.33744
-0.00878499
0.0123071
1.23725
1.24469
1.38466
0.00293819
0.527698
0.0113848
0.0703688
1.15061
0.133391
0.0315917
0.452746
0.578241
0.272479
1.11979
0.487173
1.0154
0.0453653
0.969917
0.491987
-0.00922199
0.126742
1.12981
0.0752956
0.904907
-0.0934019
-0.0275636
-0.00429088
0.241792
-0.0169766
1.30469
1.34147
1.38156
1.36584
1.02332
0.0137255
-0.0287554
0.0345132
0.568039
1.1945
0.0525437
0.924644
0.0236245
1.3683
1.15461
1.30118
1.28048
1.31964
-0.0183226
0.103717
1.04914
0.960801
0.147847
1.59561
1.39768
1.55627
1.29251
0.945121
0.879404
0.996472
1.19084
1.24205
1.43024
1.40733
1.29763
1.3953
1.39787
1.40964
1.48491
1.46291
1.44492
0.0532188
1.49106
1.21802
0.240264
1.21932
1.44643
1.38906
1.48699
1.16939
0.358375
0.125527
-0.00201998
0.000374228
0.237746
0.120457
-0.0551663
0.0404616
0.135672
0.0828444
-0.057121
-0.00742264
-0.0575282
-0.0374281
0.0267259
0.0131612
0.0671356
