# vtk DataFile Version 4.2
vtk output
ASCII
DATASET POLYDATA
POINTS 642 double
-1.08066 2.32856 -0.401836
1.22447 2.4101 -0.37602
-1.45826 -1.66008 0.00159568
1.14017 -1.48275 0.0654124
-0.0427271 -0.403032 1.42382
-0.0041658 1.7664 1.33886
-0.129044 -0.418712 -0.529275
-0.244107 1.86584 -1.42609
1.36786 1.34093 -0.716598
1.1128 0.758561 0.458728
-1.41387 1.21172 -0.948144
-1.16866 0.569703 0.535865
-1.40482 1.69853 0.136859
-0.624521 1.28292 1.10042
-0.548022 2.42032 0.925587
0.577155 2.42304 0.906493
-0.00250667 2.80009 -0.187649
0.934887 2.37372 -0.929018
-0.914311 2.33657 -1.06744
-1.26065 1.71595 -1.36827
-1.91417 1.9927 -0.946731
-1.46581 0.907617 -0.292397
0.601885 1.32691 1.06458
1.49063 1.77389 0.109796
-0.534457 -0.167885 1.16826
-0.0485086 0.309061 1.33056
-1.16202 -0.658179 -0.145351
-1.30082 -0.824562 0.341394
-0.266821 1.21308 -1.2962
-0.983423 0.582438 -0.828791
2.03881 2.03205 -0.874568
1.12287 1.76563 -1.05117
1.14761 -0.692214 0.415624
0.498801 -0.190213 1.10568
0.643671 -1.32801 0.958026
-0.7178 -1.29107 0.805381
-0.00405272 -1.42642 0.142857
-0.723689 -0.99651 -0.250903
0.504863 -1.02757 -0.213403
0.734823 0.395581 -0.647786
0.980319 -0.537961 -0.106649
1.42145 1.12893 -0.203751
-1.34535 2.09833 -0.133038
-0.93127 2.03784 0.572134
-0.761499 2.405 0.250241
-0.899227 0.930975 0.799563
-0.946522 1.53362 0.725106
-1.25624 1.18103 0.328378
-0.209171 2.09673 1.21985
-0.655402 1.89585 1.1219
-0.290179 1.57706 1.24022
-0.329092 2.81183 0.469719
-0.575139 2.58459 -0.284398
0.21393 2.10124 1.21747
0.00408374 2.56158 1.04187
0.688898 2.5551 -0.286624
0.320113 2.68987 0.433842
0.847642 2.34 0.143292
-0.455788 2.94733 -0.727783
-1.02581 2.40558 -0.78739
1.16505 2.47912 -0.687222
0.460658 2.94459 -0.71519
-0.669996 2.11418 -1.26082
-0.0618041 2.51383 -0.952709
0.479044 2.14287 -1.13752
-1.63099 2.6153 -1.25915
-1.58732 2.30811 -0.655109
-0.915906 1.79003 -1.35858
-1.28933 2.07416 -1.42204
-1.64043 1.54232 -1.04548
-1.89931 1.84038 -1.65935
-1.40165 1.5143 -1.20901
-1.8357 1.9021 -0.315699
-1.48981 1.07214 -0.663448
-1.71799 1.48664 -0.589116
-1.5419 1.35759 -0.159038
-1.35353 0.706104 0.138973
1.00228 2.04189 0.463107
1.47232 2.25598 -0.0710249
0.276943 1.59697 1.24928
0.621221 1.89958 1.04827
1.29734 1.29779 0.271082
0.99852 1.5729 0.616483
0.909941 1.00975 0.718278
-0.256591 0.777078 1.19975
-0.0164982 1.19681 1.22669
-0.926007 0.1229 0.872298
-0.516744 0.451126 1.13086
-0.0134348 -0.0849064 1.81126
-0.229483 0.0731712 1.45267
-0.239429 -0.307355 1.4548
-1.31327 -0.280143 0.112037
-1.27858 -0.20824 0.489003
-1.24064 0.380291 -0.534455
-1.2757 -0.0849564 -0.188256
-1.48419 -1.3029 0.233399
-1.27808 -0.856452 0.0561548
-1.29383 -1.30549 0.00189957
-1.13636 1.33937 -1.21238
-1.22916 1.00514 -0.945745
-0.286121 1.56833 -1.39363
-0.90472 1.49656 -1.31717
-0.631492 -0.0612558 -0.646427
-0.782415 1.07067 -1.15231
-0.189804 0.624801 -0.97158
1.16662 2.11751 -1.0582
0.638144 1.82913 -1.20796
1.73741 2.55396 -0.516777
1.64207 2.62019 -1.2249
1.32239 1.5887 -0.916674
1.5601 2.00215 -1.0584
1.60918 1.66486 -0.808295
1.03582 -1.1373 0.277459
1.02348 -1.07364 0.702688
1.12807 -1.62612 0.556194
0.868812 0.171552 0.825101
0.954587 -0.527038 0.807918
1.14673 -0.0195813 0.515527
0.223198 -0.858699 1.05292
0.628132 -0.789102 0.988121
0.169789 -0.327659 1.33987
0.396573 -1.62442 0.604672
0.755168 -1.65884 0.0444491
-0.256282 -0.80829 1.04762
0.0233119 -1.22795 0.854238
-0.866576 -1.53192 0.0875802
-0.460449 -1.47205 0.548211
-1.22048 -1.65942 0.536265
0.394047 -1.28807 -0.107055
0.817651 -1.34443 -0.0648301
-1.09878 -1.37301 -0.0859169
-0.484081 -1.2315 -0.112594
0.221809 -0.756306 -0.379396
-0.0586396 -1.02057 -0.262048
-0.440927 -0.731596 -0.41211
0.758033 -0.89355 -0.145093
0.927542 -1.08634 0.0554483
0.338851 -0.173221 -0.570766
0.565379 -0.614881 -0.347588
1.1348 0.619159 -0.422066
0.850563 -0.186851 -0.34064
1.12243 1.05932 -0.732292
1.07899 -0.689717 0.122727
1.45269 1.25864 -0.507591
1.14894 0.264002 -0.12587
1.16553 0.023883 0.159919
1.30583 0.950668 0.121977
0.140827 0.0962751 1.39604
0.48266 0.50744 1.08042
0.199222 0.836322 1.18755
-1.22866 -1.13764 0.690735
-0.666446 -0.782846 0.929675
-1.05459 -0.601319 0.728513
-0.810233 -0.571895 -0.402461
-1.01676 -0.91591 -0.173228
-1.05111 -0.207368 -0.426916
0.977848 1.3398 -0.983862
0.37285 0.945053 -1.05198
0.550521 1.46288 -1.21812
1.60297 1.50295 -0.08638
1.77852 1.58636 -0.487662
2.00309 2.0111 -0.229625
-1.20394 2.23977 -0.3008
-1.02966 2.19914 0.0370085
-0.931381 2.33271 -0.164592
-1.18987 1.85577 0.336712
-1.14654 2.05761 0.213698
-1.46655 1.95832 0.0638481
-0.671839 2.45424 0.611322
-0.884529 2.26014 0.447682
-0.760392 2.2539 0.780606
-1.06553 0.716476 0.64234
-1.07586 1.06598 0.58912
-1.19237 0.844323 0.45319
-0.79107 1.42839 0.953505
-0.921352 1.25713 0.767721
-0.748414 1.11877 0.9503
-1.32008 1.44444 0.218242
-1.11173 1.35644 0.506679
-1.15608 1.60857 0.425219
-0.082595 1.90978 1.3395
-0.260462 1.85152 1.26753
-0.12132 1.7031 1.3386
-0.615243 2.178 1.05541
-0.438849 2.03014 1.21208
-0.371177 2.27966 1.12397
-0.477814 1.43557 1.21262
-0.466049 1.74098 1.2123
-0.653796 1.59527 1.12393
-0.986054 1.80303 0.68521
-0.831575 1.72149 0.955963
-0.84659 2.01711 0.919514
-0.660456 2.50691 0.0035423
-0.85492 2.42818 -0.357794
-0.436828 2.60581 0.719964
-0.607294 2.66597 0.394128
-0.324752 2.69422 -0.23062
-0.445546 2.68907 0.0861176
-0.165841 2.81644 0.13003
0.0775415 1.91191 1.3395
-0.00109458 2.11642 1.21767
0.312949 2.55619 1.02974
0.137319 2.3639 1.21211
0.401785 2.29948 1.14873
-0.133745 2.36006 1.21253
-0.299539 2.55245 1.03719
1.02899 2.44609 -0.357786
0.777426 2.4522 -0.0680066
1.09362 2.36729 -0.212392
0.160162 2.72374 0.132127
0.480914 2.62338 0.0688499
0.351473 2.66153 -0.215894
0.707142 2.43132 0.562344
0.598326 2.54891 0.338873
0.46749 2.60299 0.702522
-0.149453 2.68969 0.778409
0.164794 2.68958 0.774078
0.0114483 2.81666 0.483086
-0.771613 2.52372 -0.562926
-1.06394 2.37583 -0.565008
-0.214296 2.71408 -0.491955
-0.501489 2.69901 -0.53493
-0.979103 2.38803 -0.94705
-0.673907 2.58517 -0.74171
-0.615331 2.56327 -0.874269
1.21855 2.45715 -0.513042
0.930152 2.53401 -0.517576
0.661977 2.57087 -0.804151
0.777076 2.58599 -0.680099
1.07314 2.44162 -0.82962
0.571895 2.67984 -0.507667
0.204625 2.71583 -0.473987
-0.44337 1.96185 -1.34248
-0.131319 2.148 -1.20517
0.100736 1.99095 -1.33111
-0.52398 2.472 -1.00532
-0.374736 2.32469 -1.10531
-0.818566 2.24189 -1.17081
0.74073 2.27833 -1.0221
0.22206 2.32842 -1.05371
0.483568 2.46278 -0.935394
-0.00768333 2.68635 -0.678167
0.184435 2.62774 -0.80626
-0.262086 2.75435 -0.923311
-1.33766 2.34618 -0.773658
-1.28607 2.29894 -0.513742
-1.30159 2.33621 -1.16529
-1.35491 2.36843 -1.02137
-1.88384 2.2817 -0.786102
-1.62777 2.4057 -0.939832
-1.91426 2.31441 -1.11089
-0.594648 1.82355 -1.37454
-0.836242 1.94314 -1.33829
-1.32849 1.91587 -1.44124
-1.10335 1.92564 -1.38646
-1.11643 1.76062 -1.37538
-1.0119 2.08433 -1.31995
-1.14859 2.22103 -1.27077
-1.49237 1.3502 -0.996664
-1.52578 1.54987 -1.16046
-1.41809 1.33992 -1.06134
-1.91332 1.95857 -1.26737
-1.70806 1.77254 -1.28634
-1.86122 1.71033 -1.06399
-1.35713 1.64294 -1.31977
-1.57433 1.76852 -1.35903
-1.49848 1.84668 -1.4548
-1.44941 2.27369 -1.38771
-1.52393 2.07077 -1.67414
-1.81587 2.27041 -1.49307
-1.50814 2.251 -0.365767
-2.02312 1.98837 -0.616431
-1.83973 2.23226 -0.438113
-1.61117 2.02953 -0.238539
-1.63502 1.79813 -0.0938823
-1.45028 1.16279 -0.851475
-1.56669 1.33272 -0.856057
-1.57841 1.23167 -0.448444
-1.59962 1.28555 -0.645241
-1.49293 0.993672 -0.474719
-1.72531 1.51546 -0.83934
-1.91198 1.70323 -0.768499
-1.32795 0.977395 0.206336
-1.25292 0.609162 0.382326
-1.51328 1.53355 -0.025767
-1.4116 1.2776 0.0689
-1.41713 0.812034 -0.0927319
-1.44129 1.08259 -0.0345041
-1.52263 1.16277 -0.248495
-1.90642 1.65983 -0.460527
-1.649 1.44667 -0.384364
-1.67773 1.62302 -0.260908
1.16867 2.24471 -0.0381151
1.3235 2.35236 -0.276528
0.768105 2.23874 0.714041
0.922055 2.20677 0.316849
1.52888 2.02107 0.0443378
1.24371 2.08524 0.114687
1.3095 1.91202 0.277677
0.111144 1.70828 1.3386
0.259602 1.86023 1.26753
0.614956 1.62414 1.05971
0.4596 1.7605 1.20387
0.457133 1.47163 1.20576
0.4522 2.03813 1.20879
0.608822 2.16558 1.00264
1.18993 1.01697 0.375454
1.12037 1.16638 0.489373
1.05149 0.8537 0.550745
1.25773 1.66842 0.341229
1.18863 1.42922 0.406971
1.41226 1.53452 0.196939
0.744278 1.16917 0.890434
0.9567 1.31329 0.668702
0.781598 1.4662 0.880025
0.775569 1.99237 0.791791
0.782275 1.73621 0.84265
1.04523 1.82519 0.578255
-0.143278 1.40632 1.24986
-0.00743074 1.57433 1.33873
-0.435428 1.07781 1.15313
-0.299799 1.23903 1.22062
-0.0350773 0.711276 1.22912
-0.144545 0.971057 1.22503
-0.131926 0.495353 1.25855
-1.09832 0.370051 0.690659
-0.903455 0.531578 0.842477
-0.502633 0.108718 1.18809
-0.701939 0.298518 1.03234
-0.727895 -0.0513966 1.02429
-0.712963 0.72351 0.974879
-0.562153 0.90452 1.06969
-0.0294854 -0.364332 1.65213
-0.244737 -0.275457 1.80435
-0.12734 -0.376799 1.47737
-0.13587 0.151211 1.423
-0.177707 0.00730599 1.6599
-0.0543087 0.0645629 1.52184
-0.373085 -0.248079 1.31306
-0.263499 -0.12837 1.54808
-0.349234 -0.0291132 1.35602
-0.376227 0.602592 1.17749
-0.343004 0.222698 1.27741
-0.229033 0.336123 1.28897
-1.29812 0.211539 0.332619
-1.25129 0.262952 0.550064
-1.35775 0.327956 -0.0742468
-1.33313 0.24011 0.115567
-1.35038 -0.554348 0.433895
-1.30445 -0.279575 0.28481
-1.40008 -0.613275 0.235263
-1.35319 0.988607 -0.819357
-1.36184 0.778946 -0.627696
-1.21547 -0.438975 -0.148939
-1.25417 0.0991481 -0.338411
-1.17117 -0.262102 -0.281268
-1.36567 0.603211 -0.438327
-1.36705 0.459436 -0.258512
-1.71409 -1.63297 0.138912
-1.4112 -1.34271 0.0741126
-1.56932 -1.51402 -0.129416
-1.29765 -0.864908 0.17861
-1.30275 -1.10907 0.144867
-1.31593 -1.08826 0.282968
-1.17266 -0.971269 -0.0417323
-1.25054 -1.08179 0.0505796
-1.23851 -0.790868 -0.0517428
-1.30806 -0.219029 -0.041955
-1.27534 -0.557817 -0.036103
-1.33793 -0.612562 0.0813395
-1.31588 1.29096 -1.09873
-1.34354 1.14354 -0.958013
[...]
POINT_DATA 642
SCALARS Mean_Curvature double 1
LOOKUP_TABLE default
-0.146106
-0.161501
3.99422
6.36364
0.830994
0.0013735
0.16072
4.7396
0.938045
0.588569
1.40401
0.209709
0.508287
1.48286
2.20357
2.77615
2.32742
1.32471
1.08331
1.33575
-0.0502962
0.937196
1.28803
-1.13653
0.220026
0.571465
0.639259
-0.637756
0.981637
0.324671
4.5289
0.826888
2.3507
0.0137962
1.35082
-0.173885
1.12322
1.03481
0.901813
0.516867
0.406101
0.936684
-0.733205
-0.645365
-0.54827
0.191104
-0.405486
0.477099
-0.163985
2.14189
-0.898238
3.10467
-0.241232
-0.55752
1.6512
-0.251362
0.771587
-0.492663
6.31328
0.502752
0.681442
6.49553
0.770465
-0.483118
0.292735
5.81198
-0.0153699
0.394536
1.52865
0.4329
6.04505
1.04105
2.87242
1.46567
-0.259529
0.507497
0.870701
0.510623
2.65738
-0.381781
1.18563
0.574827
-0.170491
0.312052
0.266082
0.102444
0.569236
0.417004
7.99178
1.58072
1.96543
0.378479
2.30487
1.16913
1.17955
4.15481
1.47753
0.353158
1.15269
1.42607
0.47449
0.433714
0.502568
0.258957
0.116203
1.04144
0.942223
4.3991
5.718
0.791751
0.293619
0.512348
-0.433853
0.309612
5.79162
0.940183
1.57617
3.51944
0.650726
-0.317669
0.512042
2.49386
3.55921
0.0270127
0.808406
1.62912
0.809763
3.82893
1.56038
0.515363
0.922773
0.843709
0.740045
0.242842
0.811778
0.817333
0.240326
0.478792
0.939924
0.806722
0.940394
1.12061
-1.03559
0.968669
0.973877
0.778641
1.1134
1.19359
0.387757
0.677645
3.18489
0.451014
0.220499
0.963453
0.901892
1.57228
0.722814
0.463322
0.987015
-0.420585
1.21552
4.54467
-0.559808
-0.775404
-0.376345
1.01315
0.857464
4.11766
0.706394
1.53039
1.19744
0.335114
0.328762
0.379765
0.57304
0.146702
0.184441
-0.101122
-0.0173023
-0.0693789
4.61612
-0.0551267
3.44208
2.18578
2.75843
0.598997
2.46453
1.15701
1.82278
1.29445
1.4729
3.13372
-0.322939
-0.256732
0.750251
3.42725
-0.220476
0.606022
2.07463
4.57834
-1.89906
3.55965
3.49684
2.72986
3.80842
3.90186
-0.354802
-0.34926
-0.143397
-0.311243
0.782883
-0.525828
1.83303
0.993768
2.08788
1.08735
1.51577
2.48062
0.463745
0.171319
-0.706609
0.612278
0.888125
1.33477
1.32087
0.158148
1.15837
0.942239
2.21005
1.16951
0.196696
-0.688026
0.537722
-0.334833
0.0459893
0.950475
0.222293
0.510559
0.863427
0.143273
1.12418
0.260259
0.239842
4.69231
-0.298073
-0.513007
1.29747
0.328538
3.54774
1.47666
3.65023
1.15636
0.677018
1.48958
1.47834
1.39801
1.27138
1.51143
1.08447
0.451419
1.26066
2.63098
0.338429
3.5763
1.10079
0.810124
1.01566
0.917523
5.90411
4.10544
2.73734
4.26896
4.7839
-0.0858162
2.75482
1.37147
0.801099
0.886963
0.877926
1.3178
0.880507
2.125
0.414493
0.551821
0.488015
0.326672
0.331145
0.744122
0.730528
4.54414
0.174996
-0.343466
-0.485723
-0.599026
1.52804
-0.460693
0.432635
-0.90739
2.77151
3.3133
0.273588
0.562098
2.26305
3.13142
3.77125
1.38084
0.66653
0.678476
0.354339
-0.05499
-0.032936
1.32623
0.177945
0.0855637
0.602145
-0.193927
-0.106568
1.98877
-0.467139
4.39973
0.652334
0.871874
0.280422
1.14988
0.438616
0.728565
0.386006
0.190411
0.592075
0.512899
0.246836
0.131229
7.31017
8.2631
2.3404
1.21639
7.42771
-0.508558
0.462976
1.71132
0.394619
0.433901
0.488408
0.543853
0.330448
2.99709
1.01513
0.420909
3.19046
-0.248394
5.02544
1.56716
1.47351
0.855384
1.25568
1.40963
0.906631
1.16665
6.89417
-0.50486
8.89353
-0.159176
0.0802134
-0.47986
0.529358
0.272185
4.74853
2.14565
1.04051
2.20911
1.38408
1.54942
1.15098
1.21151
0.846376
1.32533
1.0754
1.76055
1.28399
1.09264
1.16164
0.832625
0.404733
1.06986
0.346908
0.191428
0.160603
0.239812
0.169358
0.502486
0.92415
0.322676
1.00301
0.917081
0.552743
0.863111
0.636096
5.96092
1.1657
0.40965
0.201641
0.137752
0.863863
-0.665473
3.11633
4.14273
4.12366
2.94813
0.604335
1.3112
0.788343
0.305405
0.462271
0.748192
0.568816
0.853493
-0.473067
-0.207988
3.97096
0.83011
5.71574
0.789734
-0.555749
2.45254
7.71194
4.82077
-1.01796
-0.61239
4.8
-0.501634
4.36184
0.592809
0.613646
0.504857
-0.0277415
0.0832936
0.331883
-0.0962937
0.707244
1.67344
0.824939
0.128283
0.436511
-0.137614
-0.145425
0.330023
0.549866
0.698463
0.441388
1.65792
2.65494
4.01805
0.590597
6.34451
5.78822
1.22855
0.848584
1.88426
0.466474
0.968396
0.467655
0.587331
-0.262956
0.420683
0.488189
1.41708
2.99729
1.52428
1.60621
0.829607
0.394083
0.817086
5.99443
3.03541
3.96533
0.392038
0.981333
0.963659
8.48428
7.02743
1.58904
1.51218
0.968851
1.36014
1.24045
8.74578
5.09211
0.891071
1.07774
0.959078
1.07437
0.825364
0.43743
0.122501
0.407802
0.846358
0.683219
0.844593
1.00872
0.850455
0.898067
0.706879
0.856219
1.06843
0.26624
-0.236306
0.893993
0.608813
0.337105
0.5507
0.662224
0.367231
0.677166
0.701328
0.691043
0.479885
0.888821
0.971765
1.27983
1.0498
1.14953
0.821373
0.929531
0.915538
0.22109
0.826401
0.794845
0.977005
0.85524
0.897905
0.156159
5.07743
0.58234
-0.267125
3.9439
0.907546
1.26637
0.980268
1.16704
0.947448
1.13612
0.758875
0.669356
0.317405
0.325386
0.639123
1.08603
0.982111
0.759897
5.52056
0.499294
1.59051
5.23472
0.493556
0.24335
5.98246
0.819723
0.497988
0.18592
0.288494
0.337081
0.239072
0.00649992
0.409735
0.230133
1.18209
0.188534
0.305917
0.502555
0.39237
5.88116
1.11901
2.33798
0.187179
0.27175
0.951363
0.226664
0.720211
0.614987
-0.0732824
0.829718
2.88691
0.283659
-0.00281309
0.280448
1.46915
0.100694
1.41109
0.611205
1.09175
0.942893
0.752786
1.14907
2.01402
0.958724
0.439971
0.646071
0.965828
1.05496
1.03317
0.971445
1.47032
1.143
1.0429
1.03752
1.17262
1.02708
0.227179
0.997625
0.94124
0.783924
0.155778
1.00249
0.295781
0.112511
0.158048
1.7005
0.568223
0.939753
0.408574
0.770879
0.332987
1.06312
0.851379
0.919736
0.182639
0.611534
0.118263
3.39006
-0.0294872
2.92243
3.47517
2.60789
0.749013
0.414969
3.41367
4.1307
1.36857
2.1717
1.22085
2.28227
4.96791
SCALARS CoVolArea double 1
LOOKUP_TABLE default
0.0377466
0.0255354
0.0450176
0.0263381
0.0205292
0.0185502
0.0606302
0.0488976
0.0132826
0.037455
0.0150094
0.0452611
0.0805417
0.0676027
0.0792397
0.083882
0.112843
0.0664391
0.0655068
0.0315718
0.0982646
0.0712477
0.0728152
0.0657002
0.0755188
0.0334444
0.0319847
0.048637
0.0857991
0.0775822
0.0945697
0.0355294
0.0479213
0.0777902
0.0830864
0.0739169
0.0881871
0.0362641
0.0300822
0.117424
0.0429095
0.0480768
0.0849578
0.0931031
0.0995422
0.0902101
0.0824019
0.0795025
0.0537539
0.0708205
0.05441
0.108526
0.0875146
0.0562539
0.0837479
0.0914779
0.104002
0.092224
0.101513
0.0718391
0.0608705
0.115508
0.0850675
0.110269
0.099341
0.120197
0.0851345
0.0395785
0.0575126
0.0534285
0.113893
0.0338259
0.08713
0.057848
0.0626879
0.0581504
0.0938963
0.0935556
0.0753514
0.0523913
0.069068
0.0533624
0.0856904
0.0916187
0.0630102
0.0554195
0.105289
0.080645
0.0554286
0.0372513
0.0536906
0.0739826
0.0874267
0.0665839
0.0653005
0.0652268
0.0298867
0.0330098
0.0305853
0.0437817
0.0780376
0.0334276
0.116569
0.0747421
0.170463
0.0441407
0.0668847
0.0911852
0.122989
0.0306468
0.0506968
0.0378842
0.0373317
0.0667978
0.0975489
0.0965711
0.0660066
0.0836646
0.0574981
0.0628063
0.0526661
0.109311
0.0797197
0.0692997
0.0741527
0.0809919
0.0939201
0.105829
0.0484265
0.0364648
0.0414248
0.0583611
0.0490574
0.0549386
0.0535264
0.0313547
0.0285114
0.109845
0.043172
0.0717402
0.067699
0.0570456
0.0344965
0.0406697
0.0716551
0.077973
0.0598349
0.0428193
0.0940996
0.0653216
0.0707619
0.0655744
0.0745499
0.0474729
0.0308822
0.0574998
0.0563595
0.124872
0.0753668
0.0463105
0.0548253
0.0937685
0.0672827
0.0968875
0.0797952
0.0924874
0.0954382
0.0836046
0.0877455
0.0949948
0.0838452
0.0766207
0.084815
0.0701062
0.0713847
0.0795853
0.0777469
0.0758968
0.0837014
0.0884103
0.0361103
0.0502533
0.0370994
0.0737034
0.0613165
0.0672885
0.0611186
0.0597649
0.0658685
0.0909915
0.0779335
0.0843036
0.0959366
0.0711638
0.0918788
0.0994327
0.0942004
0.101844
0.11315
0.036575
0.0520276
0.0863008
0.0693883
0.0718842
0.0672698
0.0824409
0.0558202
0.0905536
0.0595222
0.113474
0.104999
0.106685
0.0922757
0.0993777
0.0938985
0.0971838
0.0976242
0.111101
0.0737029
0.0599048
0.098605
0.0816218
0.0618034
0.070078
0.0768294
0.0435942
0.0659995
0.0915278
0.0721902
0.0604102
0.0961053
0.11062
0.0789199
0.12383
0.0983813
0.0881912
0.110411
0.071495
0.0744959
0.116918
0.0940754
0.104321
0.108163
0.104219
0.0730867
0.0592143
0.072008
0.0755978
0.0995506
0.0949833
0.120729
0.0493595
0.0529172
0.0447939
0.0404822
0.0312538
0.0537915
0.0609904
0.0286422
0.0391358
0.0236258
0.111066
0.0696627
0.0768322
0.0331172
0.0495772
0.0617359
0.0990566
0.103131
0.146423
0.0788287
0.104313
0.098521
0.0792578
0.0724194
0.036616
0.046154
0.0518872
0.0528712
0.0636897
0.0624209
0.0860552
0.0759387
0.0766792
0.066688
0.0655338
0.0838497
0.0660136
0.0571859
0.0820375
0.0576705
0.0680499
0.077308
0.0519818
0.0883267
0.0923359
0.0752923
0.0828698
0.0820883
0.0364077
0.0499972
0.067263
0.0582398
0.0611302
0.062143
0.0746457
0.0485518
0.0705974
0.0684407
0.0771502
0.0711464
0.0559388
0.0852746
0.0831388
0.0793227
0.0856357
0.081916
0.0915873
0.0537021
0.0383325
0.0700457
0.0629995
0.0489646
0.0586919
0.0449012
0.0849948
0.101433
0.0722298
0.0971405
0.0927039
0.0945903
0.0796655
0.0442723
0.0605188
0.0408156
0.0311811
0.0445708
0.0332292
0.0597769
0.0482192
0.0513844
0.0692005
0.0546219
0.0459875
0.101942
0.0829473
0.0927328
0.102058
0.0626402
0.0820166
0.0533174
0.0417982
0.0655699
0.0417973
0.0659631
0.049916
0.0766212
0.0847054
0.0857618
0.0540404
0.0598316
0.0370196
0.0339617
0.0439655
0.0281788
0.0285037
0.0294017
0.0690086
0.0406635
0.0443915
0.0301906
0.0292751
0.0261091
0.0285606
0.0559992
0.035204
0.0488974
0.068288
0.0527122
0.0584509
0.0503614
0.0765047
0.0321617
0.0256323
0.107991
0.172561
0.15883
0.0789248
0.124586
0.0981922
0.10534
0.124815
0.0758865
0.029454
0.0450617
0.0441088
0.0741135
0.0800971
0.0504429
0.054865
0.0461793
0.0469989
0.0400443
0.0506348
0.0714575
0.134099
0.122739
0.111985
0.079839
0.0608392
0.0233119
0.0316928
0.0236706
0.0354631
0.0340953
0.0308167
0.0569758
0.0430951
0.0814611
0.0691818
0.102072
0.0489995
0.0383944
0.0648593
0.0674426
0.0548796
0.0524749
0.0390912
0.101419
0.0784247
0.079511
0.0765282
0.0843045
0.0711869
0.0743505
0.0772117
0.0890148
0.0635383
0.0691009
0.0589802
0.0444825
0.055844
0.038551
0.0657862
0.0584242
0.0589849
0.061486
0.0609585
0.0676757
0.0650701
0.0672528
0.0693552
0.0927927
0.058742
0.106691
0.110628
0.0812656
0.100503
0.0998747
0.0482068
0.0665108
0.0727115
0.0747412
0.0675902
0.0654546
0.0724927
0.0651636
0.0962603
0.0810022
0.0950444
0.0964056
0.0849537
0.107015
0.109307
0.0867783
0.0907911
0.0863372
0.0984811
0.0575478
0.0384399
0.0689986
0.0553532
0.0293541
0.036997
0.0372832
0.0528936
0.055891
0.0449377
0.0454
0.0370079
0.0647843
0.0751139
0.0579741
0.0601529
0.0603312
0.0405667
0.050735
0.035036
0.0408364
0.0545615
0.0484038
0.0632658
0.0577321
0.0515409
0.0299119
0.0279857
0.0286331
0.0282209
0.0314251
0.0299417
0.0360249
0.101007
0.0608335
0.0762571
0.0610288
0.115899
0.0400339
0.0318002
0.0382133
0.0622801
0.031697
0.052605
0.0729451
0.0657975
0.0864409
0.0792289
0.0877168
0.0359528
0.0562228
0.0440316
0.0294901
0.037899
0.0285956
0.0300727
0.037814
0.0274006
0.0537142
0.064173
0.0581678
0.0441279
0.0734395
0.0601179
0.082578
0.055912
0.0572263
0.0824476
0.0524414
0.0792945
0.0732675
0.056072
0.074497
0.0534479
0.04785
0.0609643
0.0475612
0.0404417
0.0338151
0.101619
0.0887393
0.10157
0.103513
0.0847708
0.0515512
0.0459742
0.0569862
0.060815
0.0741217
0.0667705
0.0803962
0.0529021
0.0917072
0.0830644
0.0909102
0.0644777
0.0565693
0.0559632
0.0768702
0.0634192
0.0603311
0.0630621
0.0960756
0.0606367
0.0751946
0.092117
0.0870424
0.0698507
0.0753795
0.0673123
0.0676672
0.0359541
0.0450827
0.0688121
0.073182
0.0417136
0.0298382
0.0285574
0.0334126
0.0328311
0.0555008
0.0712167
0.0626134
0.0597963
0.0409145
0.0377156
0.0395646
0.0550909
0.0358185
0.0967232
0.0543692
0.0362773
0.0400736
0.165981
0.0988388
0.136454
0.150899
0.141938
0.0881371
0.0512205
0.0686731
0.0855375
0.0889343
0.0978047
0.0905308
0.0647255
0.0480529
0.0418458
0.0428003
0.044539
0.0552116
0.0356089
0.0675688
0.0473611
0.0428564
0.0439418
0.0750772
0.079326
0.0887955
0.0928848
0.0895582
0.0545595
0.0763647
0.0715207
SCALARS SignedDistance double 1
LOOKUP_TABLE default
1.2759
1.22183
0.0121007
-0.0895026
1.07466
0.0150481
1.77205
0.1506
1.26723
1.34348
1.40102
1.19378
0.136957
0.240139
-0.020021
-0.0338214
0.0420658
1.50477
1.49098
1.39183
0.0086852
1.54443
0.198456
0.823749
1.32602
1.20343
1.15111
0.465303
1.43884
1.8939
-0.0321143
1.47276
0.0509097
1.36734
0.0506293
0.942845
1.5705
1.33032
1.44088
1.66681
0.870567
1.28804
0.871257
0.139746
0.323102
1.29327
0.99274
1.28487
-0.00180817
0.024099
0.233806
0.0153383
1.17465
0.00344769
0.00799071
1.26696
0.0110271
1.15869
-0.0113464
1.36071
1.29528
0.00237199
1.5144
1.14546
1.23771
-0.271977
0.0826234
1.62605
1.30274
0.621994
-0.0350085
1.28774
0.120341
1.41922
0.95283
1.1184
1.44561
0.173544
0.0648566
0.123434
0.0367766
0.810875
0.803034
1.31923
1.17063
0.491395
0.370671
1.24663
0.0525806
0.313971
0.560456
0.581604
0.0935881
1.63782
1.09483
0.0573643
0.235455
0.617683
1.56282
1.65388
1.1816
1.67703
1.66265
1.82823
1.7708
1.44365
1.32481
-0.037227
-0.526386
1.28233
1.14446
0.491247
0.614733
0.0231284
-0.00384174
0.400868
0.215733
0.0582642
1.32688
0.631159
1.21686
0.105713
-0.0082663
1.60451
1.42477
0.534063
1.24313
0.0130387
1.38573
1.14066
0.476578
1.45005
1.64163
1.7839
1.61097
1.24823
1.17925
1.6063
1.40206
1.65233
1.35364
1.567
0.81222
1.22336
1.29353
0.407853
1.39729
0.553765
1.21072
1.11632
0.0102254
1.30419
0.549561
1.42329
1.20356
1.32314
1.6274
1.6874
1.38504
0.672383
0.0501438
-0.020346
1.17415
1.15166
1.11788
0.0908349
0.170693
0.0464584
0.0196161
0.0510358
0.0298264
1.24871
1.3322
1.37969
0.292203
1.00389
1.01254
0.909641
1.21368
0.532725
0.0234974
0.0392017
0.0103362
0.0323301
0.0280569
-0.00252435
0.046717
0.0360224
0.0448685
0.071069
0.0184274
-0.0343402
0.503539
1.30566
-0.00317905
0.0120969
0.160263
0.0146659
0.00182229
0.0234952
0.112349
-0.0128698
0.0289202
-0.10052
0.037271
-0.0115776
1.37925
1.21727
1.3139
0.140444
0.254921
0.770895
0.0120574
0.0459878
-0.0338883
0.0148708
0.0141594
0.00449494
1.24531
1.32076
0.458589
0.73128
1.43178
0.830728
1.06596
1.24371
1.33163
1.15045
0.772343
1.41225
1.08957
0.505912
1.29077
1.13289
0.291912
1.24745
1.24455
1.58595
1.4247
0.672989
1.16512
0.355687
1.09276
0.211368
0.807491
1.13238
1.17157
1.16156
-0.00571409
0.356358
0.0205533
1.40048
1.63423
1.28047
1.4855
1.50256
1.52137
1.3576
1.25714
1.18268
1.31672
0.00494762
0.486201
0.00440288
1.32434
0.689162
0.916211
1.07572
0.262146
0.00642786
-0.0838848
-0.0376818
0.086277
0.0143202
0.02516
1.40872
1.24995
1.26585
1.2053
1.48512
0.514516
-0.0234499
1.44139
1.27027
0.372595
1.2136
1.58481
1.37459
1.32903
-0.0983179
1.12225
0.314979
1.22236
0.908523
0.0844915
0.771615
0.111675
1.1136
0.0956879
0.0102052
0.0247549
0.0967234
0.0136355
0.0233827
0.0189019
-0.0256787
1.36171
1.25257
1.36907
0.450038
0.808709
0.204003
1.14882
1.19803
0.355529
0.211815
0.345964
0.124338
0.392669
0.0138617
1.1253
0.211975
1.20915
0.349556
1.26109
0.460318
1.05802
1.26711
1.14859
1.20255
1.19637
1.16841
0.135957
0.0329956
0.490411
0.615122
0.15202
1.01197
1.22154
0.222451
1.16443
1.23181
1.22839
1.22684
0.492037
0.0993705
1.31294
1.15327
0.103519
0.570048
0.0314437
1.58462
1.71814
1.07233
1.36277
1.16325
1.71043
1.51178
-0.275709
0.595394
0.103369
0.444268
1.09089
0.775181
1.13517
1.15435
0.154246
0.395606
0.404169
0.159429
1.42816
1.49069
1.46859
1.42395
1.823
1.56844
1.71699
0.405501
1.49374
1.59173
1.54769
1.2998
1.64722
1.54737
1.68333
1.78865
1.69412
1.85507
1.85431
1.75373
1.64276
1.7884
1.67315
1.61463
1.75092
1.72012
1.32803
-0.0200765
1.46295
1.55748
1.58164
1.59063
1.45209
0.796241
0.121977
-0.0171006
-0.0998369
0.111771
1.05266
1.23659
1.25241
1.08506
1.17717
1.32458
1.22998
1.36322
0.438414
1.12212
0.054227
1.20274
0.212593
1.23877
0.612119
-0.0183809
-0.285401
0.0170637
0.531483
0.499095
0.0304338
0.0408072
-0.100732
1.02693
0.287195
1.14271
1.2439
1.14323
1.20895
0.462124
0.203637
0.212524
1.39691
1.44053
1.14556
0.192422
1.14326
0.474405
1.31909
1.35722
1.26442
0.0344852
0.143199
0.0301837
0.00379135
-0.768314
-0.0882685
0.00615046
1.15817
0.00370443
1.31044
1.36162
1.52645
1.40612
1.59086
1.39267
1.31704
0.437722
-0.00722166
-0.00195856
0.0107379
1.51422
1.14436
1.37479
-0.21373
-0.0134966
0.316267
1.19783
1.49851
1.44284
0.111475
0.136227
1.4303
0.803975
1.31059
1.07548
1.41894
-0.604852
0.23763
1.37496
1.23164
1.25352
1.26536
1.58909
1.76332
1.81444
1.7465
1.56751
1.70408
1.5338
1.46494
1.65598
1.50155
1.7087
1.62027
1.61429
1.19344
1.12283
1.33764
1.27792
1.10848
1.20339
1.15052
1.70283
1.59807
1.46902
1.48472
1.61375
1.50134
1.41962
1.38504
1.64644
1.36576
1.2257
1.39257
1.22923
1.75589
1.62633
1.49971
1.30485
1.35031
1.23827
0.979435
0.0687482
0.540185
0.536475
0.03126
1.24073
1.43473
1.54627
1.49065
1.27373
1.45798
0.726391
1.22758
1.46064
0.209668
0.262191
1.3214
1.36881
1.53143
0.0632834
1.12375
0.0964239
0.126419
1.23009
0.726315
0.155546
1.08258
1.21247
1.1788
1.25172
1.19365
1.27408
0.268135
1.24845
0.878352
0.169883
0.753921
1.26327
1.16209
1.25994
-0.103194
0.0278135
0.00279712
0.469814
0.158509
1.392
1.44046
1.47373
1.45865
1.20941
0.238446
0.0324244
0.256115
1.16209
1.30436
0.188965
1.14429
0.118151
1.60386
1.3553
1.4892
1.52829
1.53018
0.282264
1.16066
1.2209
1.21629
1.2359
1.81834
1.62912
1.77421
1.436
1.23051
1.3051
1.27942
1.38349
1.38162
1.71629
1.56099
1.43364
1.52347
1.68775
1.53039
1.73724
1.73833
1.73029
0.172095
1.58141
1.33299
1.01865
1.3095
1.69893
1.50595
1.6364
1.2134
1.14091
1.04566
0.591617
0.0485464
1.11183
0.0955256
0.029935
0.174687
0.621568
0.0424612
-0.0603259
-0.0144181
-0.0473529
-0.00336978
0.133604
0.0436729
0.0563799
