# vtk DataFile Version 4.2
vtk output
ASCII
DATASET POLYDATA
POINTS 642 double
-2.28002 4.31649 -0.0560409
2.30684 4.36057 -0.0324254
-2.32404 -3.1097 0.000763735
2.28748 -3.07211 0.00315343
0.00503451 -1.58869 3.58449
-0.0014745 2.86924 3.54321
-0.0198454 -1.56067 -3.38437
-0.0455554 2.90631 -3.59284
3.63763 0.705134 -2.24681
3.47055 0.672887 2.09708
-3.67755 0.68793 -2.28487
-3.45997 0.635661 2.11087
-3.4223 2.76314 1.25127
-2.04399 1.93929 3.32421
-1.29487 4.08348 2.11346
1.29661 4.08432 2.11309
-0.00895427 4.95088 -0.0294626
1.38536 4.20346 -2.20157
-1.38538 4.20856 -2.21665
-2.20746 2.00972 -3.55403
-3.55655 2.85614 -1.37952
-4.22311 0.68073 -0.029556
2.03746 1.9461 3.31592
3.45161 2.78339 1.27465
-2.07452 -0.689332 3.36535
-0.00380753 0.613842 4.18048
-3.53267 -1.54887 -1.32413
-3.52857 -1.55451 1.32601
-0.0667411 0.699059 -4.11604
-2.12844 -0.61795 -3.37529
3.56511 2.85829 -1.36898
2.19176 2.01091 -3.50711
3.46295 -1.52885 1.30689
2.05394 -0.682015 3.33967
1.33906 -2.87805 2.15907
-1.34756 -2.88273 2.15724
0.00525832 -3.69391 0.000485918
-1.34178 -2.84948 -2.11818
1.32539 -2.83816 -2.10539
2.04516 -0.607498 -3.24079
3.43975 -1.512 -1.29215
4.2318 0.687637 -0.0188882
-2.96349 3.66601 0.62187
-2.45534 3.54499 1.77026
-1.84273 4.31529 1.06126
-2.8637 1.30732 2.80215
-2.83239 2.42434 2.41518
-3.57772 1.71718 1.75756
-0.652218 3.57525 2.9767
-1.76182 3.12315 2.86799
-1.04025 2.48628 3.57498
-0.686488 4.71151 1.11649
-1.20937 4.8052 -0.0385928
0.651556 3.57393 2.97444
-0.00042967 4.27499 2.23212
1.23365 4.7954 -0.0342225
0.687455 4.71071 1.11703
1.86925 4.32556 1.04053
-0.712169 4.80045 -1.15044
-1.9413 4.44141 -1.13168
1.9358 4.45011 -1.12417
0.722332 4.78118 -1.15168
-0.728498 3.66204 -3.08897
-0.00950969 4.34306 -2.27241
0.717668 3.64309 -3.04584
-2.60798 3.6935 -1.89173
-3.02582 3.75058 -0.718938
-1.1357 2.56591 -3.77482
-1.88855 3.24845 -3.03844
-3.78422 1.76948 -1.93273
-3.04348 2.53411 -2.6004
-3.1049 1.35408 -3.02908
-3.67803 2.92373 -0.0312714
-4.09973 0.679635 -1.22476
-4.11199 1.80059 -0.723083
-4.04112 1.78383 0.645033
-3.96517 0.659223 1.10455
2.47831 3.55059 1.75973
2.98659 3.70601 0.632049
1.04165 2.48627 3.57545
1.76387 3.12369 2.86873
3.62366 1.72856 1.77848
2.85418 2.42834 2.40427
2.87393 1.31184 2.78178
-1.06895 1.29108 3.91077
0.000804189 1.81057 3.96505
-2.87485 -0.0578298 2.81318
-2.12548 0.616437 3.51185
-0.00365503 -0.544738 4.04441
-1.08511 -0.0520562 3.9875
-1.06191 -1.20884 3.63191
-4.04271 -0.574329 0.66746
-3.60684 -0.518567 1.79035
-3.62411 -0.442471 -1.81851
-4.07621 -0.555418 -0.693191
-3.03742 -2.4781 0.677958
-3.74062 -1.67204 0.000156221
-3.03537 -2.47596 -0.674333
-2.28217 0.688916 -3.67593
-3.02784 0.0281637 -2.95099
-0.0665422 1.83959 -4.02304
-1.17551 1.37555 -4.12765
-1.0903 -1.18677 -3.53019
-1.15956 0.0397849 -3.98555
-0.033589 -0.408963 -3.84364
1.88039 3.23493 -3.011
1.14365 2.55326 -3.69888
3.04392 3.76472 -0.704993
2.60606 3.69175 -1.88323
3.07251 1.36412 -2.98197
3.03265 2.52712 -2.58178
3.78173 1.77553 -1.91684
2.98686 -2.43899 0.672471
2.53034 -2.3456 1.82484
1.90246 -3.12525 1.09603
2.87102 -0.0485206 2.80693
2.87975 -1.20641 2.44905
3.55049 -0.474563 1.78349
0.678775 -2.34172 3.01397
1.81497 -1.89846 2.92555
1.0551 -1.22352 3.61824
0.711223 -3.50209 1.14515
1.22702 -3.55684 -0.00242387
-0.677461 -2.34022 3.00219
0.00251022 -3.05645 2.26353
-1.24766 -3.55767 0.00103554
-0.716666 -3.5083 1.14465
-1.92631 -3.14756 1.09761
0.718807 -3.49673 -1.12206
1.89384 -3.11762 -1.0801
-1.92472 -3.13963 -1.08655
-0.722518 -3.48997 -1.12539
0.677844 -2.26777 -2.90387
-0.00360317 -2.98016 -2.18982
-0.690893 -2.27831 -2.92464
2.50715 -2.32056 -1.78969
2.97488 -2.42987 -0.658859
1.0736 -1.19404 -3.46645
1.78739 -1.8476 -2.84314
3.58065 -0.397447 -1.81891
2.87403 -1.17667 -2.42411
2.97137 0.0611679 -2.87672
3.66052 -1.63585 0.00793314
4.0875 0.703896 -1.20828
3.92698 -0.47448 -0.641002
3.95194 -0.522293 0.643093
4.00194 0.700804 1.12622
1.0714 -0.050169 3.9722
2.11366 0.621144 3.48249
1.05556 1.29962 3.90317
-2.56365 -2.36756 1.83367
-1.83154 -1.90063 2.92114
-2.93772 -1.2238 2.47975
-1.8186 -1.86323 -2.87346
-2.55664 -2.35349 -1.81362
-2.95425 -1.20301 -2.47881
2.24474 0.71128 -3.5741
1.09584 0.0478003 -3.83587
1.14897 1.38309 -3.94192
4.06857 1.78681 0.664676
4.12087 1.81134 -0.727345
3.69986 2.94462 -0.0325958
-2.63368 4.0335 0.272226
-2.42759 4.00666 0.861648
-2.08087 4.33048 0.475673
-2.97395 3.17119 1.51755
-2.73587 3.61286 1.20843
-3.22661 3.24422 0.946366
-1.5853 4.23576 1.60045
-2.1684 3.96213 1.44463
-1.89135 3.8557 1.97023
-3.19362 0.962691 2.45414
-3.24141 1.54062 2.30882
-3.54164 1.17278 1.95379
-2.46088 2.19864 2.91166
-2.87213 1.88302 2.6438
-2.48349 1.62926 3.09033
-3.53928 2.24522 1.52412
-3.23287 2.0906 2.09799
-3.15663 2.60968 1.84516
-0.313437 3.23032 3.30867
-0.875538 3.06241 3.31415
-0.502228 2.70793 3.5945
-1.54692 3.64376 2.52259
-1.22687 3.38518 2.94678
-0.979028 3.85972 2.57882
-1.55472 2.2292 3.48544
-1.42471 2.82204 3.25712
-1.92906 2.54487 3.13648
-2.68217 3.01218 2.12274
-2.3281 2.79871 2.67794
-2.1323 3.3701 2.35504
-1.52608 4.60108 0.525416
-1.78134 4.58247 -0.0487462
-1.00749 4.44072 1.64459
-1.27392 4.55416 1.11297
-0.628237 4.93331 -0.0354647
-0.941361 4.79117 0.538539
-0.351512 4.88424 0.544471
0.311106 3.22933 3.30719
-0.00121749 3.62842 3.00337
0.663976 4.22546 2.20138
0.338108 3.96515 2.62745
0.979868 3.85926 2.5772
-0.339336 3.96572 2.6286
-0.663768 4.22573 2.20233
1.81842 4.61115 -0.0372859
1.55944 4.60754 0.518405
2.12843 4.3825 0.476775
0.34774 4.88172 0.548491
0.950711 4.78672 0.542712
0.625343 4.91596 -0.0257992
1.59059 4.23854 1.59847
1.28254 4.55653 1.10759
1.00906 4.44135 1.64453
-0.347451 4.54508 1.70103
0.347292 4.5448 1.70091
-0.000469083 4.76972 1.13397
-1.57538 4.67219 -0.595753
-2.14217 4.41959 -0.57145
-0.365955 4.95351 -0.592215
-0.964168 4.86247 -0.593276
-1.68319 4.36207 -1.68122
-1.33481 4.64823 -1.16104
-1.06376 4.53518 -1.70226
2.15507 4.44576 -0.554309
1.59792 4.69347 -0.596207
1.07467 4.52885 -1.68973
1.35158 4.66614 -1.16481
1.67969 4.36773 -1.67222
0.982365 4.84105 -0.596208
0.348945 4.92989 -0.589317
-0.382895 3.29315 -3.40049
-0.0205165 3.67365 -3.05597
0.335868 3.26967 -3.34452
-0.716427 4.30837 -2.26821
-0.384781 4.03226 -2.69449
-1.0612 3.97041 -2.69427
1.05873 3.95593 -2.67007
0.36605 4.02124 -2.67919
0.713754 4.29405 -2.25265
-0.00990663 4.84479 -1.16297
0.360251 4.61742 -1.73339
-0.369216 4.6332 -1.74089
-2.52088 4.1391 -0.956115
-2.66177 4.08438 -0.373022
-2.01156 3.99899 -2.08098
-2.29106 4.10847 -1.53478
-3.32402 3.33924 -1.05438
-2.86124 3.75412 -1.31892
-3.1317 3.30525 -1.65272
-0.597369 2.77001 -3.72635
-0.961485 3.15491 -3.47025
-2.07645 2.6486 -3.33924
-1.53083 2.92823 -3.44895
-1.67136 2.30782 -3.70695
-1.31932 3.50566 -3.10132
-1.65136 3.77775 -2.65776
-3.77194 1.20508 -2.14207
-3.48805 1.59155 -2.51768
-3.44321 1.00722 -2.66478
-3.3499 2.72518 -2.00778
-3.45533 2.17648 -2.28409
-3.71062 2.32328 -1.67691
-2.69502 1.68782 -3.32727
-3.10304 1.95623 -2.85617
-2.65614 2.29033 -3.12277
-2.28053 3.51127 -2.50084
-2.50219 2.92231 -2.85903
-2.86652 3.14905 -2.27762
-3.04312 3.73207 -0.042126
-3.65958 2.91925 -0.718483
-3.39095 3.35389 -0.386993
-3.36141 3.32159 0.310234
-3.59781 2.87168 0.635028
-3.92377 0.687389 -1.80044
-4.00823 1.24149 -1.58831
-4.22954 1.23984 -0.371315
-4.15626 1.24547 -0.975471
-4.20872 0.679637 -0.632516
-3.98285 1.80822 -1.34017
-3.87535 2.34877 -1.06849
-3.83216 1.22359 1.43548
-3.73063 0.647053 1.64789
-3.77795 2.30058 0.965461
-3.84801 1.77399 1.2113
-4.14448 0.671539 0.557173
-4.05503 1.2371 0.874535
-4.18933 1.23658 0.306211
-3.95079 2.38641 -0.381922
-4.14162 1.80671 -0.0278466
-3.91889 2.36963 0.319593
2.46902 4.05535 0.857193
2.66024 4.08242 0.287892
1.89685 3.85807 1.96916
2.1921 3.97007 1.42933
3.24975 3.27299 0.96225
2.77404 3.64867 1.21074
3.01352 3.19642 1.52655
0.501857 2.70574 3.59332
0.876593 3.06023 3.31241
1.92865 2.54783 3.13654
1.42669 2.82181 3.25797
1.55278 2.23401 3.48363
1.22868 3.38417 2.94558
1.54907 3.64428 2.52229
3.58264 1.19165 1.96077
3.27992 1.5487 2.3026
3.22018 0.983291 2.44273
3.19923 2.6267 1.85452
3.27628 2.10181 2.10094
3.57809 2.25892 1.54999
2.47887 1.63234 3.07646
2.8887 1.88682 2.62682
2.46148 2.20394 2.90527
2.13795 3.372 2.3543
2.3327 2.80116 2.67645
2.70499 3.01608 2.11418
-0.535052 2.15678 3.81708
-0.000474669 2.38325 3.77268
-1.58191 1.63719 3.65683
-1.07871 1.90992 3.77416
-0.00136345 1.20926 4.10335
-0.533767 1.54832 3.98406
-0.534761 0.943984 4.1102
-3.20494 0.294493 2.46407
-2.87239 0.628811 2.85062
-2.11824 -0.0368241 3.48767
-2.50766 0.280219 3.20582
-2.5052 -0.38455 3.11918
-2.49906 0.970345 3.17899
-2.09962 1.29274 3.44228
-0.00197615 -1.10088 3.84229
-0.545348 -0.876333 3.89501
-0.510935 -1.42108 3.64532
-0.543907 0.280268 4.14273
-0.550506 -0.296176 4.06689
-0.00402795 0.0262013 4.15976
-1.58449 -0.967228 3.53881
-1.0928 -0.63442 3.85157
-1.59791 -0.373229 3.72445
-1.62877 0.955956 3.76893
-1.63633 0.276967 3.80259
-1.09133 0.6088 4.01591
-3.80779 0.0309571 1.44545
-3.5386 0.0750829 1.96926
-4.11763 0.0458063 0.316179
-4.00765 0.0307721 0.88347
-3.6262 -1.04291 1.5883
-3.86636 -0.570914 1.23994
-3.85733 -1.08372 1.01167
-3.69441 0.175852 -2.10105
-3.93266 0.110235 -1.53165
-3.87654 -1.07524 -1.01763
-3.92084 -0.53082 -1.25512
-3.64209 -1.03793 -1.59085
-4.09626 0.0644757 -0.953511
-4.14584 0.0563184 -0.365385
-2.69283 -2.84451 0.327483
-3.09435 -2.50716 0.0009941
-2.69196 -2.84365 -0.325258
-3.68504 -1.6424 0.679941
-3.42893 -2.09948 0.350137
-3.3155 -2.04649 1.01096
-3.31322 -2.04279 -1.00624
-3.42832 -2.09854 -0.348011
-3.6872 -1.63933 -0.679151
-4.1263 -0.586978 -0.00999561
-3.99419 -1.13602 -0.354731
-3.98713 -1.13876 0.348813
-3.0941 0.686919 -3.04586
-3.4006 0.367159 -2.6319
-2.27984 1.35843 -3.67457
-2.71517 1.03077 -3.3995
-2.59879 -0.305751 -3.20391
-2.67914 0.346534 -3.35232
-2.22482 0.0282059 -3.57241
-0.0542793 2.4099 -3.83097
-0.64315 2.20344 -3.97267
-0.647192 1.03761 -4.18044
-0.654482 1.61151 -4.13966
[...]
POINT_DATA 642
SCALARS Mean_Curvature double 1
LOOKUP_TABLE default
0.472771
0.563931
0.535272
0.513657
0.437479
0.529698
0.245435
0.128345
0.5272
0.209525
0.532097
0.339419
0.486725
0.483224
0.491054
0.489217
0.314847
0.600795
0.575641
0.452006
0.528764
0.453575
0.478443
0.497975
0.400692
0.559129
0.535987
0.563112
0.34015
0.368193
0.488865
0.571093
0.61483
0.316432
0.495651
0.481255
0.302835
0.478994
0.497929
-0.0987668
0.55532
0.51174
0.506807
0.426339
0.423885
0.417155
0.442764
0.448402
0.518531
0.48385
0.467431
0.462798
0.525876
0.505133
0.503766
0.435978
0.456852
0.312919
0.468668
0.593916
0.493923
0.390213
0.54827
0.387434
0.459794
0.489139
0.54505
0.607848
0.465265
0.538954
0.476666
0.541704
0.484804
0.371317
0.498055
0.546467
0.220261
0.345866
0.488677
0.487422
0.486397
0.54407
0.38778
0.357805
0.258597
0.455268
0.264356
0.48762
0.52213
0.52601
0.447622
0.542091
0.395305
-0.2492
0.531201
0.502888
0.495727
0.508062
0.505133
0.444208
0.227077
0.731853
0.691789
0.658926
0.283731
0.480917
0.700074
0.508299
0.492895
0.543039
0.469312
0.581538
0.499692
0.477549
0.476543
0.412383
0.46838
0.40291
0.518687
0.515881
0.388261
0.465656
0.497434
0.536467
0.491432
0.464687
0.484561
0.482476
0.560983
0.51063
0.504057
0.502144
0.484532
0.26981
0.519765
0.4791
0.489661
0.572155
0.481482
0.278845
0.572787
0.449058
0.551981
0.482984
-0.0249096
0.32675
0.490408
0.52174
0.441383
0.28257
0.472935
0.510283
0.635537
0.431014
0.477184
0.578749
0.537069
0.329799
0.255797
0.551564
0.475133
0.480313
0.483619
0.327303
0.261346
0.370555
0.363233
0.506026
0.47062
0.431861
0.472455
0.255646
0.41719
0.381018
0.475778
0.464968
0.447668
0.45642
0.399054
0.384647
0.532935
0.514425
0.510331
0.490396
0.501637
0.505055
0.463451
0.483278
0.472249
0.431567
0.47109
0.473033
0.365457
0.454338
0.483592
0.449899
0.554669
0.392838
0.413573
0.521914
0.517198
0.499718
0.505877
0.499352
0.512465
0.503959
0.575285
0.318473
0.544196
0.419611
0.374376
0.467282
0.446982
0.422418
0.480782
0.49259
0.489952
0.475423
0.476137
0.541875
0.615599
0.546239
0.495912
0.392143
0.381302
0.537673
0.593045
0.364623
0.611294
0.513866
0.41746
0.442864
0.5203
0.265391
0.173597
0.381375
0.387937
0.593165
0.593423
0.339227
0.332042
0.461277
0.4045
0.505957
0.576602
0.513499
0.481016
0.495114
0.531342
0.523513
0.498679
0.567929
0.600573
0.456758
0.505466
0.424299
0.581569
0.48645
0.563255
0.548406
0.536484
0.491808
0.480868
0.524833
0.543118
0.496538
0.463991
0.481699
0.479762
0.488415
0.471344
0.46129
0.456915
0.504701
0.518094
0.539758
0.579876
0.544282
0.459878
0.453437
0.446976
0.434035
0.480205
0.279292
0.522379
0.502868
0.471665
0.505096
0.518459
0.476584
0.563341
0.514087
0.486566
0.531365
0.453259
0.332745
0.482871
0.470317
0.471834
0.492471
0.49975
0.489629
0.495791
0.493709
0.496427
0.488238
0.49696
0.459367
0.377214
0.475563
0.465068
0.504732
0.399517
0.396177
0.465162
0.45679
0.458648
0.36875
0.449035
0.45953
0.417913
0.459059
0.446426
0.350207
0.52673
0.317501
0.329258
0.488766
0.401574
0.35311
0.283191
0.382949
0.497034
0.50076
0.455093
0.556435
0.533679
0.555092
0.423889
0.493422
0.48446
0.469456
0.540047
0.538833
0.251514
0.276883
0.106496
0.214536
0.635706
0.474175
0.698585
0.461553
0.356281
0.669542
0.465021
0.571224
0.349132
0.0905215
0.522836
0.507029
0.527578
0.516157
0.48695
0.476481
0.470053
0.48657
0.495786
0.580526
0.707366
0.722573
0.511179
0.497446
0.539139
0.523126
0.430528
0.490894
0.464861
0.169309
0.554423
0.595712
0.679605
0.319917
0.651387
0.562397
0.560782
-0.0875611
-0.151246
0.496081
0.546784
-0.0483412
0.349868
0.233392
0.445914
0.532571
0.694803
0.524117
0.603781
0.174561
0.496919
0.589254
0.616075
0.520851
0.483437
0.539391
0.506774
0.492791
0.497938
0.505473
0.491227
0.486321
0.535979
0.564967
0.554325
0.484425
0.57102
0.564108
0.482775
0.513553
0.478762
0.485344
0.487374
0.476988
0.513206
0.494134
0.504498
0.476846
0.48271
0.478497
0.48505
0.480634
0.485924
0.280986
0.47313
0.260782
0.426084
0.443756
0.42724
0.447504
0.375491
0.646757
0.397836
0.50757
0.42718
0.499431
0.507644
0.501447
0.345456
0.572284
0.553779
0.511341
0.579326
0.492725
0.474824
0.498344
0.483219
0.466848
0.55283
0.478073
0.386969
0.321671
0.497525
0.533152
0.341064
0.496011
0.505252
0.499151
0.553699
0.493171
0.511824
0.43737
0.452197
0.425558
0.469603
0.453966
0.471033
0.482633
0.422335
0.458795
0.506049
0.51313
0.475654
0.593235
0.500303
0.503558
0.542309
0.529571
0.500557
0.529901
0.475765
0.473783
0.508785
0.446195
0.414382
0.235471
0.487679
0.537142
0.426652
0.554849
0.543841
0.476307
0.520024
0.338343
0.466265
0.455061
0.502346
0.506601
0.489431
0.502202
0.465009
0.488069
0.460824
0.511554
0.526618
0.554569
0.57266
0.52898
0.49815
0.49217
0.467182
0.416484
0.497083
0.597028
0.197763
0.547558
0.413872
0.0789139
0.474188
0.476927
0.538095
0.475452
0.527606
0.524439
0.494082
0.486749
0.544426
0.517966
0.428121
0.446986
0.404307
0.481712
0.000968251
0.606224
0.185871
0.440573
0.690435
0.310349
0.500792
0.112041
0.420784
0.700468
0.330768
0.757675
0.492479
0.46348
0.478325
0.530179
0.556286
0.23838
0.375948
0.354075
0.328852
0.466828
0.456538
0.517242
0.397367
0.468119
0.420016
0.534685
0.342833
0.529821
0.49674
0.472397
0.483117
0.485671
0.468998
0.305784
0.503537
0.392758
0.504256
0.491642
0.355093
0.612226
0.573135
0.376422
0.482751
0.475685
0.560968
0.486482
0.536066
0.46397
0.482154
0.490436
0.569485
0.515704
0.452633
0.49716
0.501632
0.474046
0.441144
0.333548
0.135858
0.534951
0.609062
0.457768
0.443079
0.486007
0.517011
0.461921
0.505566
0.534601
0.556101
0.128467
0.413176
0.357184
0.218913
0.239625
0.238642
0.653343
0.475773
0.364418
0.395261
0.537442
0.328042
0.608475
0.545852
0.559824
0.550535
0.550578
0.497698
0.558077
0.534804
0.590608
0.509813
0.511039
0.529135
0.467732
0.480548
0.536749
0.519653
0.497402
0.491427
0.449833
SCALARS CoVolArea double 1
LOOKUP_TABLE default
0.250595
0.244142
0.251706
0.248596
0.245922
0.229994
0.246686
0.268052
0.237384
0.243869
0.241431
0.249442
0.35802
0.346774
0.358041
0.35939
0.378539
0.379989
0.383483
0.385507
0.380869
0.377927
0.345545
0.360438
0.360538
0.338445
0.369353
0.366862
0.361657
0.377424
0.383508
0.363766
0.352364
0.361728
0.37241
0.375101
0.389826
0.365747
0.359502
0.380926
0.35283
0.357361
0.348774
0.381592
0.357978
0.336802
0.369097
0.330974
0.332706
0.366507
0.329523
0.3869
0.352372
0.334027
0.375572
0.358042
0.388564
0.361387
0.397265
0.357943
0.358651
0.404225
0.355208
0.412523
0.361253
0.4054
0.354818
0.344925
0.40542
0.354673
0.40572
0.353618
0.388829
0.357554
0.38899
0.366821
0.35825
0.388532
0.34857
0.327808
0.367024
0.323698
0.374137
0.340664
0.375605
0.335573
0.352158
0.361833
0.329872
0.358742
0.346116
0.375486
0.33843
0.383739
0.381642
0.360842
0.391281
0.359354
0.383808
0.35552
0.371234
0.35877
0.33505
0.350143
0.375091
0.398501
0.342236
0.359879
0.404194
0.342968
0.401614
0.348829
0.351772
0.387787
0.357389
0.337703
0.366747
0.350397
0.343912
0.37264
0.344841
0.398581
0.354272
0.351792
0.392821
0.35927
0.399179
0.361417
0.386508
0.350849
0.356655
0.393472
0.332012
0.391163
0.331953
0.380381
0.349883
0.321363
0.362645
0.360386
0.37189
0.343778
0.37027
0.34087
0.410423
0.37619
0.341773
0.357069
0.36524
0.3758
0.395213
0.38064
0.364251
0.378368
0.39077
0.383416
0.357043
0.37738
0.382151
0.37484
0.387559
0.391947
0.331191
0.359665
0.340682
0.376963
0.35546
0.34312
0.34403
0.354571
0.369753
0.323211
0.334466
0.316955
0.355075
0.332357
0.330105
0.335456
0.339289
0.371849
0.306309
0.330284
0.305457
0.364911
0.336696
0.336316
0.329939
0.334201
0.357337
0.412821
0.401862
0.407389
0.362635
0.333782
0.373054
0.356862
0.350506
0.360418
0.388455
0.307463
0.334484
0.369918
0.341601
0.337056
0.341077
0.36945
0.326483
0.361194
0.326857
0.390757
0.366509
0.36304
0.353338
0.363762
0.375293
0.415782
0.416107
0.42415
0.356333
0.327135
0.381646
0.356386
0.365741
0.370038
0.400799
0.329939
0.35443
0.397123
0.362088
0.360488
0.365671
0.393421
0.336591
0.374174
0.349448
0.398982
0.375234
0.35779
0.356788
0.379018
0.403152
0.436341
0.447529
0.442316
0.353876
0.326381
0.397224
0.366385
0.359217
0.365162
0.395954
0.327632
0.346461
0.401785
0.365658
0.362358
0.359723
0.393986
0.323269
0.356708
0.325365
0.396856
0.368056
0.361133
0.359137
0.367323
0.399344
0.445778
0.445952
0.44488
0.352253
0.389952
0.360788
0.351886
0.370493
0.325327
0.350086
0.371391
0.35562
0.361854
0.36069
0.390958
0.337443
0.334709
0.363374
0.333001
0.354815
0.337445
0.363068
0.428191
0.413156
0.414816
0.353344
0.32433
0.377633
0.362562
0.347127
0.354844
0.375576
0.306495
0.331362
0.355853
0.332744
0.325964
0.337321
0.366198
0.30273
0.329314
0.319403
0.368985
0.336225
0.333387
0.334223
0.338189
0.360184
0.414551
0.407522
0.418447
0.335114
0.308014
0.364491
0.342293
0.331592
0.345548
0.358564
0.331146
0.350143
0.361386
0.345633
0.343754
0.343414
0.362711
0.314853
0.335752
0.324826
0.350183
0.332178
0.324045
0.34388
0.339305
0.363049
0.399762
0.390663
0.394987
0.363354
0.333945
0.403643
0.368278
0.327457
0.341563
0.358795
0.339921
0.373032
0.367553
0.364557
0.351636
0.372105
0.407068
0.335406
0.361713
0.334378
0.382555
0.367666
0.361367
0.361061
0.367676
0.384964
0.419651
0.407131
0.403347
0.349308
0.325321
0.385261
0.355454
0.356366
0.352211
0.375741
0.357749
0.348451
0.351851
0.336933
0.353442
0.341429
0.381732
0.31929
0.373962
0.364745
0.369774
0.3436
0.355468
0.337824
0.345252
0.349513
0.412923
0.386343
0.403319
0.35145
0.351023
0.389429
0.353617
0.338076
0.351377
0.388961
0.331059
0.363359
0.397562
0.369678
0.362676
0.369927
0.395299
0.317221
0.348252
0.318112
0.389331
0.357657
0.345584
0.359859
0.363597
0.397606
0.441941
0.442763
0.441081
0.328323
0.355404
0.331561
0.376376
0.357718
0.350632
0.35645
0.359598
0.383351
0.325542
0.340589
0.330669
0.364879
0.337567
0.336592
0.329687
0.337807
0.361667
0.32505
0.343767
0.321365
0.378588
0.345781
0.348167
0.3448
0.343047
0.36502
0.41212
0.404449
0.418892
0.359367
0.331715
0.387519
0.363983
0.357265
0.36412
0.398133
0.33249
0.35142
0.386716
0.357887
0.350128
0.354756
0.383886
0.333025
0.361601
0.335153
0.399672
0.367352
0.366629
0.360661
0.366834
0.390225
0.432857
0.434077
0.439083
0.354161
0.329043
0.3899
0.353812
0.347735
0.353536
0.374996
0.332835
0.358146
0.380531
0.360015
0.354293
0.363173
0.396638
0.309062
0.345617
0.305751
0.373301
0.350588
0.333691
0.337105
0.350314
0.376169
0.435634
0.430999
0.428263
0.351303
0.327586
0.37362
0.351984
0.348259
0.352714
0.373577
0.319601
0.315062
0.36058
0.317566
0.33465
0.329757
0.366281
0.321056
0.355667
0.315273
0.363326
0.355634
0.344404
0.35413
0.36318
0.376921
0.410246
0.39898
0.407584
0.351086
0.36487
0.353418
0.354647
0.365419
0.315345
0.35848
0.385889
0.372352
0.34281
0.383578
0.377116
0.367908
0.316944
0.353664
0.36013
0.340288
0.371248
0.379397
0.405439
0.413807
0.391512
0.338188
0.363958
0.341695
0.331321
0.349075
0.35043
0.363722
0.346248
0.343163
0.361289
0.332958
0.357083
0.341579
0.338421
0.364634
0.392617
0.405235
0.396027
0.361505
0.388254
0.364779
0.365006
0.387829
0.355948
0.369105
0.35273
0.35246
0.380715
0.347012
0.368741
0.331432
0.340757
0.362298
0.425822
0.410007
0.421765
0.318459
0.375111
0.337158
0.342395
0.381097
0.358016
0.387325
0.361773
0.359494
0.382099
0.371718
0.385113
0.370444
0.365395
0.375108
0.422707
0.422334
0.41688
0.337332
0.369439
0.33637
0.340607
0.361462
0.368458
0.372011
0.355391
0.352614
0.379417
0.373817
0.361238
0.343809
0.36865
0.385997
0.398388
0.413968
0.399997
0.322681
0.364364
0.330818
0.333743
0.372692
0.342553
0.3877
0.353546
0.348549
0.373232
0.354603
0.381387
0.357477
0.36127
0.389225
0.421839
0.429404
0.425774
SCALARS SignedDistance double 1
LOOKUP_TABLE default
3.23786
3.0281
2.72335
2.9066
3.34779
3.48161
4.41992
3.53176
3.62813
4.02596
3.4374
3.91203
3.51985
3.73889
3.28798
3.28486
3.21913
2.94712
2.89115
2.94523
2.85038
3.69957
3.7929
3.38848
3.66246
3.58607
3.35422
3.25314
4.00696
4.18324
2.79043
3.34293
3.46659
3.75779
2.99812
3.00815
3.25977
3.37954
3.42897
4.45358
3.71222
3.66803
3.31697
3.47626
3.32133
3.91551
3.68037
3.79299
3.32982
3.49251
3.59553
3.17421
3.17727
3.34113
3.18671
3.21152
3.18467
3.35722
2.88139
2.92207
2.80165
2.98509
3.23076
3.16304
3.34921
2.68436
2.95211
3.21268
2.7897
3.01967
2.73546
3.10013
3.13072
3.57822
3.17027
3.51237
3.91264
3.48757
3.18868
3.5993
3.50022
3.69737
3.71812
3.95752
3.84132
3.72589
3.88067
3.87655
3.33109
3.49022
3.41488
3.7135
3.75962
4.00841
3.81564
2.83508
3.05391
2.88651
3.52218
3.74226
3.65358
3.57031
4.3674
4.14147
4.37679
2.96997
3.50533
2.80295
2.69499
3.42189
2.89556
3.11913
3.04505
3.15515
2.92153
3.95972
3.62062
3.8365
3.22965
3.35393
3.52381
2.94873
2.87909
3.35109
3.14226
2.98651
2.9895
2.84681
3.20845
3.06452
2.97795
3.27769
3.94012
3.76687
3.92564
3.45533
3.20024
4.42257
3.90536
4.11463
4.11261
4.03068
3.38859
3.6048
3.99569
3.91748
3.84984
3.57805
3.99101
3.87382
3.04608
3.34999
3.58139
3.75992
3.23626
3.8661
3.91969
4.27369
3.86038
3.38878
3.18421
3.0541
3.26168
3.41299
3.37238
3.54731
3.47344
3.40473
3.29472
3.39498
3.37459
3.981
3.87955
3.95151
3.69888
3.7901
3.82624
3.65083
3.75291
3.64965
3.39135
3.46293
3.5312
3.38075
3.40986
3.29748
3.6581
3.53817
3.6084
3.57323
3.58233
3.47131
3.28273
3.26034
3.21998
3.23323
3.15094
3.2055
3.16559
3.4027
3.30017
3.21876
3.24689
3.30041
3.23468
3.21587
3.10839
3.32705
3.2276
3.17793
3.24653
3.20684
3.30034
3.25678
3.21663
3.16651
3.16738
3.14243
3.06417
3.09796
3.02239
2.97963
2.82475
2.94403
2.94604
2.88799
2.98757
3.0375
2.99359
2.82115
3.03904
3.07999
3.4343
3.42701
3.50747
3.04226
3.21456
3.0464
3.13742
3.25577
3.11247
3.03353
3.04829
2.97344
2.90635
3.08782
2.72342
2.74905
2.86467
2.76869
2.72834
3.4171
3.18241
2.84216
2.95034
3.01084
2.96303
2.7999
3.22176
3.00676
3.25818
2.75703
2.82711
2.91578
2.99613
2.85737
2.80362
2.69273
2.72023
2.6808
3.12777
2.99241
3.03206
3.20622
3.3237
3.52188
3.32708
3.43847
3.36116
3.60819
3.14658
3.03225
3.84883
3.91407
3.49582
3.66222
3.82186
3.71179
3.57882
3.11107
3.32673
3.29657
3.29989
3.10426
3.3809
3.4122
3.27617
3.36997
3.45404
3.53258
3.4647
3.63857
3.54339
3.68792
3.41042
3.38101
3.88286
3.86992
4.01698
3.58218
3.71344
3.52865
3.8864
3.83927
3.76008
3.48568
3.6155
3.59258
3.64336
3.59262
3.80019
3.72292
3.77828
3.79252
3.69984
3.88654
3.94994
3.72578
3.88125
3.80184
3.97419
3.89037
3.31432
3.32947
3.34412
3.50149
3.37535
3.42346
3.52617
3.41923
3.54574
3.86442
3.67566
3.66207
3.85322
3.86124
3.8857
3.86355
3.55038
3.73007
3.48153
3.71243
3.82066
3.57731
3.91892
3.7056
3.86147
3.89027
2.73578
2.76819
2.76458
3.11796
2.89633
3.00536
3.07881
2.92588
3.16773
3.70999
3.4385
3.40175
3.41108
3.56979
3.21623
3.2875
3.95221
3.61574
3.84311
3.5659
3.51993
3.91907
3.69872
3.8234
3.3192
3.19832
4.37674
4.55675
4.60035
4.12897
4.40446
4.36039
4.19168
4.34622
4.16299
3.49233
3.85238
3.8135
3.37332
3.56096
2.90515
3.11646
3.40623
3.20133
3.11871
2.89796
2.76459
2.70815
2.70414
2.76433
2.71742
2.7622
3.51957
3.23466
3.38127
3.07764
3.13042
3.36018
2.89676
2.95856
2.79621
2.78555
2.75136
2.89424
2.92404
2.96192
2.88179
3.28672
3.10125
3.22356
2.94857
3.00941
3.05708
3.98866
3.88454
3.95508
3.69739
3.77369
3.86848
3.71225
3.7161
3.56878
3.40307
3.41846
3.41641
3.145
3.26091
3.09154
3.64507
3.49808
3.6219
3.37869
3.48594
3.23998
2.90053
2.86975
2.92394
2.912
3.06126
2.99268
3.09231
3.40737
3.34403
3.10517
3.30329
3.14776
3.14325
3.00336
2.81171
2.8652
2.77645
3.14619
3.00636
3.14077
2.91818
2.89556
2.94307
2.98969
3.12285
3.09782
2.92038
2.95563
3.2042
2.99802
3.22471
3.06495
3.26995
2.82135
2.92487
3.29653
3.07498
3.16256
3.08719
3.31741
4.18583
4.096
4.20483
3.5752
3.82703
3.67678
3.64992
3.86621
3.59231
3.44249
3.55788
3.4806
3.11107
3.02158
3.40842
3.24141
3.42585
3.31694
3.55883
4.39029
4.14459
4.22296
4.16091
4.48279
3.87637
3.64411
3.85904
4.07693
3.81709
3.90602
4.21019
4.04333
4.26019
4.28953
4.33644
3.66456
3.98342
3.75161
3.06214
3.53195
3.27527
3.16264
3.3759
3.60782
3.84151
3.87449
3.83379
3.61837
4.06173
3.90243
3.95323
3.961
3.71512
3.85497
3.74931
3.96536
3.94716
3.76045
3.96611
3.67747
3.39583
3.66204
3.519
3.43781
3.55774
4.04872
3.9261
4.01808
3.99296
3.84716
3.64381
3.75352
3.79329
3.73221
3.82533
3.78025
3.94834
3.7436
2.81626
3.01249
2.91253
2.93474
3.1178
3.43276
3.63091
3.50872
3.2974
3.14689
3.83141
3.41491
3.67138
3.79342
3.74352
3.1918
3.44641
3.27619
4.08858
3.54094
3.79282
4.03062
4.08156
2.89839
3.25272
3.04569
3.08032
3.2821
3.89245
4.15777
4.0793
3.95069
3.59933
3.48815
3.49477
3.7722
3.73244
4.20124
3.96955
3.66249
3.62524
4.53874
4.10614
4.29904
4.50883
4.46398
3.60468
3.64326
3.73082
3.71178
3.88804
4.21113
4.0626
3.91966
3.75255
3.50642
3.61929
3.5357
3.35868
3.36118
2.95452
3.12404
3.38246
3.41671
2.99115
3.20431
3.10109
2.91343
2.88541
3.24055
3.07885
3.18593
