# vtk DataFile Version 4.2
vtk output
ASCII
DATASET POLYDATA
POINTS 642 double
-1.0431 2.19642 -0.406957
1.19812 2.26091 -0.379815
-1.41813 -1.66216 0.00471789
1.0021 -1.42818 0.145421
-0.0415983 -0.261269 1.30711
-0.00409801 1.74683 1.33809
-0.137362 -0.233969 -0.130353
-0.254583 1.8671 -1.38332
1.221 1.48697 -0.518979
0.929385 0.791226 0.357596
-1.13917 1.41004 -0.640348
-1.03339 0.547795 0.455633
-1.38644 1.69047 0.151543
-0.614524 1.25729 1.06825
-0.567645 2.41416 0.922549
0.600997 2.41232 0.897484
0.00404499 2.78897 -0.203226
0.971704 2.13849 -0.625997
-0.913445 2.08614 -0.794269
-1.3201 1.80552 -1.01279
-1.91401 1.97824 -0.934334
-1.08684 0.999256 -0.220547
0.596217 1.30331 1.03362
1.46163 1.76619 0.113632
-0.418461 -0.128105 1.00043
-0.0467607 0.278184 1.15708
-1.10903 -0.618727 -0.0646694
-1.27834 -0.800308 0.358299
-0.239936 1.39589 -0.963417
-0.790638 0.776819 -0.427763
2.03675 1.98427 -0.851051
1.03744 1.80735 -0.686853
1.14162 -0.664056 0.416303
0.39511 -0.166357 0.952541
0.626758 -1.28213 0.956196
-0.69803 -1.21378 0.702513
0.0444497 -1.0846 0.356606
-0.686682 -0.853909 0.0249256
0.46515 -0.87863 0.106803
0.553273 0.54024 -0.282094
0.936814 -0.504903 -0.06185
1.19903 1.25766 -0.168295
-1.31277 2.05592 -0.143043
-0.936408 2.02829 0.558286
-0.75619 2.36629 0.230254
-0.772997 0.90344 0.673691
-0.896919 1.52966 0.681686
-1.0755 1.17227 0.24242
-0.210438 2.07269 1.23274
-0.659083 1.87384 1.11667
-0.285644 1.56488 1.22551
-0.333763 2.80889 0.454885
-0.53122 2.51066 -0.272698
0.214381 2.07522 1.22965
0.00438366 2.56084 1.0426
0.627219 2.43217 -0.279222
0.327831 2.68862 0.416417
0.802339 2.2591 0.119772
-0.480128 2.93993 -0.715609
-0.967017 2.16924 -0.681482
1.12196 2.20693 -0.537499
0.479734 2.93962 -0.721825
-0.638061 1.96219 -0.936138
-0.0588095 2.44857 -0.876726
0.386047 2.07804 -1.0187
-1.63006 2.25492 -1.13023
-1.55744 2.30312 -0.629915
-0.826062 1.792 -0.901108
-1.45241 1.99287 -1.13008
-1.59048 1.53936 -0.994787
-1.84534 1.78824 -1.61725
-1.35579 1.64812 -0.97077
-1.7732 1.87509 -0.31381
-1.11639 1.24639 -0.454936
-1.65598 1.48428 -0.572817
-1.39963 1.40315 -0.170127
-1.07275 0.698927 0.0960793
1.00154 2.03136 0.458312
1.42619 2.21974 -0.0811506
0.273782 1.58257 1.23852
0.628432 1.87689 1.03603
1.21794 1.28557 0.253003
0.954036 1.57218 0.576694
0.768946 0.999548 0.580987
-0.225904 0.766441 1.08702
-0.0207721 1.19701 1.19767
-0.916978 0.137076 0.857451
-0.444672 0.450297 0.974148
0.0220917 -0.059751 1.75661
-0.23901 0.0943335 1.36574
-0.195567 -0.251589 1.33437
-1.27717 -0.245668 0.113871
-1.27381 -0.178071 0.490163
-0.947753 0.505931 -0.248051
-1.12775 -0.025829 -0.0987024
-1.39099 -1.26966 0.24577
-1.27613 -0.827441 0.0787169
-1.22395 -1.26058 0.0485082
-1.00583 1.5496 -0.803111
-0.946952 1.21593 -0.557027
-0.259177 1.61198 -1.25545
-0.801241 1.62869 -0.870933
-0.538662 0.114354 -0.237205
-0.653982 1.26912 -0.728814
-0.19561 0.801928 -0.549458
1.13077 2.02018 -0.682375
0.42997 1.82343 -0.979939
1.70177 2.54207 -0.479843
1.64951 2.32233 -0.924729
1.23606 1.6758 -0.66693
1.54227 1.9943 -0.905475
1.56191 1.65911 -0.753463
1.00672 -1.11338 0.304263
1.02675 -1.04858 0.712495
1.13868 -1.61417 0.548257
0.853068 0.193365 0.811472
0.919192 -0.503686 0.767571
1.14603 0.0135007 0.509209
0.220605 -0.765506 0.880058
0.606488 -0.755042 0.954679
0.0914264 -0.239808 1.23663
0.376316 -1.55226 0.579617
0.723375 -1.65764 0.0555688
-0.198496 -0.68252 0.823978
0.0567152 -1.04765 0.666251
-0.877501 -1.45062 0.14972
-0.511753 -1.17376 0.489601
-1.20845 -1.66032 0.536111
0.401782 -1.08605 0.213819
0.768336 -1.31296 0.114313
-1.05713 -1.30464 -0.0405211
-0.494525 -1.00207 0.17664
0.164362 -0.571208 -0.00811972
-0.0744341 -0.799041 0.104833
-0.400988 -0.546956 -0.0330251
0.695358 -0.814741 0.0345864
0.876787 -1.07095 0.15723
0.237691 -0.0147247 -0.177726
0.47557 -0.486116 -0.0391676
0.840189 0.710829 -0.165258
0.705138 -0.0922394 -0.0875123
0.852385 1.21433 -0.408218
1.06724 -0.662838 0.129926
1.26609 1.39964 -0.392749
0.94557 0.314808 -0.00389127
1.14555 0.0541554 0.159873
1.04484 1.01976 0.0863942
0.116035 0.0915375 1.27532
0.413744 0.511588 0.95668
0.184222 0.837665 1.08612
-1.21673 -1.10357 0.697773
-0.619746 -0.722516 0.731153
-1.02746 -0.570213 0.699837
-0.723943 -0.434452 -0.078763
-0.95856 -0.851131 -0.0622675
-0.887401 -0.0869989 -0.149378
0.794255 1.4897 -0.623715
0.248243 1.13103 -0.671145
0.371575 1.57777 -0.931901
1.5408 1.4986 -0.0737517
1.74956 1.55745 -0.479569
1.99844 1.99008 -0.206886
-1.17461 2.15071 -0.309708
-1.00311 2.1429 0.0210819
-0.894092 2.24401 -0.175909
-1.18086 1.85549 0.338642
-1.13668 2.04843 0.209884
-1.4397 1.95079 0.0687684
-0.686314 2.44176 0.597484
-0.891794 2.24573 0.429374
-0.768052 2.24007 0.765473
-0.926786 0.674686 0.531259
-0.913325 1.03709 0.474791
-0.993402 0.810741 0.350939
-0.777651 1.40653 0.92584
-0.85018 1.23836 0.700045
-0.668263 1.10702 0.854651
-1.25961 1.43673 0.200378
-0.998538 1.35264 0.427187
-1.13094 1.60959 0.408444
-0.0821201 1.88513 1.33933
-0.256703 1.83169 1.26961
-0.121488 1.68608 1.33772
-0.621893 2.16027 1.04794
-0.436309 2.00759 1.21167
-0.379979 2.26184 1.13073
-0.474424 1.41413 1.20969
-0.461472 1.72079 1.21061
-0.6541 1.57162 1.11396
-0.994653 1.79405 0.671012
-0.841597 1.69813 0.947125
-0.866445 2.004 0.912084
-0.642573 2.45607 -0.0101484
-0.80179 2.30398 -0.349588
-0.449591 2.60399 0.712794
-0.62473 2.64637 0.370014
-0.314374 2.6897 -0.235989
-0.452688 2.6843 0.0631516
-0.161643 2.81594 0.109839
0.0768298 1.88678 1.33938
-0.00126604 2.08899 1.22506
0.322478 2.55559 1.02952
0.13668 2.33765 1.21221
0.418688 2.28383 1.16863
-0.134453 2.33281 1.21217
-0.309817 2.55051 1.03892
0.9752 2.27746 -0.360136
0.718966 2.34901 -0.0744184
1.05898 2.23476 -0.236668
0.159969 2.71055 0.116614
0.471193 2.58784 0.0537025
0.321215 2.59713 -0.221916
0.725454 2.41702 0.539355
0.60672 2.53871 0.314246
0.483729 2.60814 0.686183
-0.150921 2.68957 0.770419
0.168825 2.68966 0.762388
0.0174069 2.81663 0.468236
-0.697547 2.37396 -0.533191
-1.01721 2.19665 -0.54505
-0.18476 2.68909 -0.472521
-0.436536 2.60041 -0.525061
-0.942432 2.12926 -0.749657
-0.595154 2.46138 -0.676114
-0.531922 2.43512 -0.733729
1.17407 2.24392 -0.477539
0.841154 2.32898 -0.479383
0.585947 2.44714 -0.671875
0.615702 2.43943 -0.605638
1.06755 2.17972 -0.581197
0.517226 2.5589 -0.495117
0.181072 2.6885 -0.461783
-0.362353 1.89002 -1.11979
-0.113605 2.08598 -1.11205
0.0659287 2.01967 -1.29819
-0.436677 2.35094 -0.82932
-0.335006 2.22486 -0.955799
-0.83549 2.02699 -0.845086
0.672373 2.12267 -0.752018
0.215753 2.30067 -1.02813
0.422373 2.35697 -0.791397
-0.0132337 2.67521 -0.657729
0.153377 2.57445 -0.747023
-0.225393 2.64293 -0.865541
-1.31926 2.29271 -0.735234
-1.25228 2.21045 -0.499816
-1.35428 2.16386 -0.993446
-1.3576 2.2568 -0.954828
-1.88 2.28495 -0.771488
-1.60725 2.32504 -0.916477
-1.91126 2.31384 -1.08936
-0.442881 1.78984 -1.07554
-0.771471 1.85852 -0.914894
-1.46262 1.94754 -1.1419
-1.14269 1.8794 -0.931556
-1.14801 1.81639 -0.927401
-1.0696 1.9371 -0.904156
-1.26194 2.04375 -0.970484
-1.35048 1.5395 -0.798109
-1.46723 1.58197 -1.06317
-1.28692 1.55815 -0.805442
-1.91323 1.94259 -1.23085
-1.68025 1.78775 -1.18843
-1.8546 1.68855 -1.04764
-1.36042 1.75458 -1.02351
-1.55973 1.81046 -1.20044
-1.5232 1.88822 -1.23435
-1.51535 2.13327 -1.22054
-1.52358 2.03397 -1.42608
-1.79876 2.28591 -1.48344
-1.45873 2.24971 -0.335111
-2.01437 1.96422 -0.598185
-1.79259 2.20951 -0.42108
-1.5821 2.02081 -0.211192
-1.61385 1.78534 -0.0751353
-1.12842 1.35725 -0.574779
-1.39802 1.50504 -0.720448
-1.33672 1.37705 -0.41446
-1.39771 1.43722 -0.569114
-1.10339 1.13722 -0.344231
-1.6572 1.53739 -0.803112
-1.90618 1.66741 -0.758684
-1.0737 0.976923 0.129561
-1.05892 0.579306 0.314726
-1.46604 1.52451 -0.0196457
-1.24962 1.29787 0.0269875
-1.07354 0.854935 -0.0833776
-1.16533 1.132 -0.0704637
-1.25246 1.26297 -0.244713
-1.78819 1.66889 -0.469203
-1.54034 1.49126 -0.377526
-1.64536 1.6078 -0.23744
1.14127 2.15728 -0.0692752
1.29939 2.28175 -0.284367
0.76746 2.21044 0.690035
0.891267 2.14997 0.294727
1.49008 2.00376 0.0519425
1.22164 2.0402 0.0867679
1.29558 1.90665 0.278048
0.110717 1.69071 1.33774
0.256113 1.83777 1.2708
0.619639 1.6041 1.04725
0.459922 1.73691 1.20285
0.460832 1.44759 1.2014
0.4532 2.00957 1.20788
0.630184 2.1452 0.998468
0.996236 1.03891 0.282615
0.975695 1.16368 0.388069
0.880062 0.848152 0.424829
1.21936 1.66563 0.321243
1.14369 1.41828 0.38654
1.38957 1.51622 0.219393
0.670778 1.16371 0.804198
0.856074 1.31623 0.576279
0.765301 1.45366 0.848499
0.767606 1.97464 0.76727
0.766384 1.72397 0.815478
1.03784 1.82102 0.572254
-0.142335 1.40087 1.22383
-0.00744409 1.56213 1.33732
-0.395129 1.07439 1.06294
-0.295835 1.22527 1.20976
-0.0387482 0.659027 1.09137
-0.145387 0.96211 1.20929
-0.116425 0.430081 1.07014
-1.06405 0.386798 0.660681
-0.838531 0.521199 0.750831
-0.405037 0.10601 1.02442
-0.663805 0.30447 0.954808
-0.651692 -0.0244058 0.88904
-0.643808 0.715958 0.858222
-0.504539 0.907436 0.957578
-0.00877997 -0.337536 1.52808
-0.261225 -0.275324 1.70884
-0.107248 -0.258712 1.3445
-0.139983 0.135103 1.33533
-0.169871 0.00861655 1.53074
-0.0470584 0.0741964 1.44743
-0.265488 -0.18869 1.18419
-0.254862 -0.0976023 1.42961
-0.269189 -0.0171748 1.22428
-0.315709 0.600712 1.02197
-0.264475 0.210381 1.11085
-0.189693 0.309778 1.10237
-1.27237 0.245508 0.316764
-1.2475 0.301391 0.542041
-1.11492 0.384613 -0.0165657
-1.20241 0.270825 0.121065
-1.31632 -0.522957 0.434751
-1.27348 -0.245979 0.286839
-1.40082 -0.585713 0.237136
-1.00002 1.14459 -0.48011
-0.991259 0.898661 -0.330645
-1.15836 -0.408562 -0.0875456
-1.04045 0.198767 -0.169604
-1.08094 -0.2167 -0.187635
-1.01338 0.701327 -0.223243
-1.05106 0.520225 -0.117495
-1.40311 -1.49715 0.136396
-1.34097 -1.28943 0.107605
-1.51958 -1.45727 -0.140383
-1.27653 -0.834069 0.195935
-1.23357 -1.06436 0.195366
-1.27292 -1.05007 0.305207
-1.11142 -0.991642 0.0647254
-1.18268 -1.04137 0.132187
-1.23345 -0.775016 -0.0483409
-1.27621 -0.187039 -0.0259078
-1.26045 -0.527014 -0.0228663
[...]
POINT_DATA 642
SCALARS Mean_Curvature double 1
LOOKUP_TABLE default
-0.699501
-0.420797
11.3656
1.19504
-1.123
-0.0374113
0.180899
8.88716
-0.181556
-0.696566
0.0968896
-0.68158
1.58537
3.18016
2.4618
2.76986
2.89026
0.0820764
0.313562
0.230107
-0.0136641
0.629179
2.63241
-1.67005
-0.712043
-0.847706
-1.43904
-1.0627
0.511354
0.100135
4.90158
0.518658
3.06212
-0.677406
3.3863
0.936967
0.400558
-0.333197
-0.395843
0.0945068
1.34655
-0.00604904
-1.38681
-0.751338
-0.77591
-0.96031
-1.21561
-0.135396
0.415302
2.02064
-1.39657
3.00465
-0.62846
-0.158578
1.83838
-0.533166
0.933422
-1.18133
6.21018
0.373584
0.661537
6.12331
0.422814
-0.866457
1.73543
1.35061
1.37545
0.215078
-0.600951
4.82065
6.12243
0.116609
2.38813
0.482004
4.79619
0.904435
-0.0533283
1.69405
2.88536
-0.688227
1.28844
3.44577
-0.477644
-0.857466
-0.628886
0.417079
2.84155
-1.00699
7.82996
9.26709
7.80035
-0.994315
3.33015
0.185116
-0.452929
4.36497
4.32129
-2.5842
0.841684
0.485571
3.53104
0.377598
0.173587
0.314017
0.227494
0.475216
0.19901
5.82348
2.42642
0.0846047
3.98887
3.29881
1.06219
0.964629
5.78499
3.82853
1.67541
4.41322
-0.0534591
1.91989
2.29085
5.46669
6.29128
-0.424768
-0.128984
2.74451
0.0823765
3.92632
-0.23416
-1.21612
3.36553
0.109785
0.441201
-0.260127
0.261368
-0.799873
-1.6177
0.167495
-0.0456138
-0.0487125
-0.210519
0.0411585
-2.85721
0.241795
-0.451345
7.45662
-0.335636
5.30633
0.433983
0.381744
3.76335
-0.464568
1.73507
-0.180055
3.03505
-0.428947
0.120883
0.244013
0.450854
-0.310264
2.01772
4.48118
-1.04979
-1.34624
-0.453855
1.50127
1.47389
4.28781
0.816084
1.93076
0.904303
-0.506101
-0.823872
-0.408013
1.53237
0.940958
-0.967222
1.65982
-1.20869
0.79756
4.53178
0.0779628
3.81555
1.85061
2.50217
0.80336
3.11324
1.3368
1.90771
2.07873
2.14511
3.46683
-0.40528
-0.73016
0.891506
3.41024
0.983704
1.30693
2.2236
4.49006
-1.96993
3.42424
2.82617
3.27752
3.22271
3.87302
-0.444001
-0.865351
-0.557184
-0.230845
1.21856
-1.12785
2.38599
1.77657
2.30391
1.04272
1.37462
2.50671
-0.553991
-0.246674
-0.24661
-0.99985
0.505407
6.31511
-0.0424217
0.162984
-0.17029
3.72974
1.69419
0.77527
0.716704
-0.104773
-0.0460348
-0.734767
2.45111
-0.396882
0.851211
0.091124
-0.180757
3.59637
-0.537971
2.64594
0.191668
4.83762
2.91328
-1.28181
-0.41968
6.4004
4.14328
2.53817
5.67673
0.416102
0.378576
-0.685118
0.424325
0.490768
0.601027
-0.175596
0.722418
8.9287
0.671281
3.09223
0.282277
4.99642
0.505454
4.01069
1.82422
2.88912
6.87909
5.96743
4.43364
4.60926
4.28161
0.880867
3.3882
0.430403
0.386081
-0.015453
1.6565
0.646027
1.20916
3.97973
-0.358342
-0.724366
2.53447
0.370421
-0.183105
0.08955
0.196866
1.75247
-0.00501801
2.88067
-0.878857
1.17353
0.954559
-1.38603
0.594915
-1.38576
4.00508
3.61802
0.448344
1.00137
2.38855
3.74187
3.21386
1.82054
-0.680945
-0.324086
-0.633989
-1.18038
1.5231
3.57107
-0.0675539
-1.19842
1.80541
-0.640204
-0.403185
3.0236
-1.42946
5.49867
-1.70189
2.70684
-1.23738
7.0123
-1.15216
2.0452
0.175164
-1.01351
2.25586
-0.420353
0.571585
0.0644343
8.23542
7.80799
-1.21406
1.81233
5.01696
4.08038
0.160039
4.42971
-1.01043
-0.999787
-0.342424
-0.280011
3.09602
4.98701
-0.408559
2.02449
2.15289
-0.796155
5.7669
0.31866
0.0918313
-0.422382
-0.339126
13.6372
0.0933994
0.011548
0.218484
3.72205
8.92076
-0.772653
-0.592512
0.55105
-1.35143
-0.953846
11.1179
10.0629
1.42853
4.3785
0.598759
0.497643
0.62422
0.5505
0.305995
0.675847
0.374647
5.099
0.619311
0.702787
0.843449
0.318138
0.407158
0.813281
0.163463
0.218065
0.240732
0.300409
0.258013
0.195889
0.161821
0.280595
0.208045
0.857848
0.242508
0.386163
0.00751606
6.64664
0.525267
0.163065
0.130603
0.151122
0.384112
-1.25573
8.77464
6.07808
4.51277
3.18171
-0.282803
0.0973531
0.928553
3.25768
5.73979
-0.276186
0.365229
0.160323
1.39165
-0.561058
5.5978
-0.402678
7.61534
-0.497129
-1.17498
4.46067
8.75183
5.52416
-2.11635
-0.719636
5.14533
-0.460381
4.67902
2.19454
1.50873
3.524
-1.09604
-0.926701
-0.57729
-0.599376
2.94173
-0.185242
0.33697
0.0687171
0.664034
0.433248
0.418823
3.76909
-0.463236
-0.145512
-0.541697
2.71347
3.25826
4.25362
3.15967
-0.758941
3.66403
2.35195
0.189291
4.10953
0.0517076
0.131096
-0.0541453
0.10185
-0.598098
-0.18134
-0.272929
2.17942
5.80806
2.63666
4.56787
0.232751
-0.577111
0.0703918
5.71273
5.41106
4.97954
-0.135129
0.12661
0.416528
9.37077
12.754
0.0862923
5.05369
-0.91802
2.84912
-0.234483
0.988716
8.00862
0.451936
-0.989227
1.07943
0.920977
0.624291
0.173731
-0.128554
0.204834
0.296017
0.477401
0.243421
0.0711239
0.401472
0.265173
-0.0239406
0.526642
0.427225
-1.29093
-1.48313
-0.508317
-0.902899
-1.80284
5.69968
6.71889
0.198277
0.445349
-0.196843
0.238517
0.148186
0.208994
-0.0892822
0.180063
-0.0477441
0.300628
0.330121
-0.334396
0.362577
0.111028
0.0816412
-0.0920383
-0.391602
0.534147
1.74598
1.76453
9.27463
6.77098
-1.15876
5.85587
1.92574
0.180133
-0.430059
-0.0834157
1.24339
-0.197744
6.14039
0.00350888
-0.578267
0.423713
0.671174
-0.371082
-0.290324
-0.0746764
7.77159
0.276979
0.974792
7.08189
-0.937881
1.7708
6.66744
-1.03186
-0.489882
-0.0240858
-1.20705
-0.713748
-0.589631
-1.45836
-1.12058
-2.18661
3.91045
-0.229725
-1.114
3.2702
-0.950621
6.61538
2.71499
3.01321
-1.76198
1.83934
0.168297
-0.362968
-0.0996021
-0.0161672
-0.760524
1.80664
4.38366
1.04566
-0.913695
-0.938016
3.97022
-0.954521
1.70319
0.272259
-0.41008
0.0184414
-0.0176869
-0.0599865
8.65753
4.64021
-1.03511
-0.980147
6.35629
0.125179
0.011226
0.12182
-0.432713
-1.15629
1.26679
-0.904113
-0.430661
0.348867
0.141942
0.096144
0.552371
0.471167
0.303864
0.398548
0.22361
0.151293
0.188222
5.01892
0.0841336
0.685704
3.45947
0.0608004
0.176472
0.340455
0.0516471
-0.575766
-0.340618
4.54391
2.20319
4.1406
-0.62527
1.22716
6.34708
7.88431
2.10069
0.597734
3.94448
4.30561
2.19666
2.72318
2.07541
2.62332
4.1773
SCALARS CoVolArea double 1
LOOKUP_TABLE default
0.0340812
0.0220137
0.0373705
0.0121725
0.0162117
0.0177883
0.0443236
0.0527644
0.0139764
0.0278244
0.0128356
0.0391812
0.0787085
0.0686479
0.0833962
0.0922089
0.103884
0.0563255
0.050186
0.0219867
0.100125
0.0488972
0.0732058
0.063107
0.0684739
0.0326532
0.0358
0.0487696
0.0688494
0.0518931
0.105178
0.0303403
0.0488438
0.0718092
0.0790359
0.0681048
0.0552512
0.0346917
0.0285123
0.0948342
0.0460484
0.0431795
0.079177
0.0900179
0.0978598
0.0836311
0.0846597
0.0743075
0.0533821
0.074378
0.0534168
0.115229
0.0857575
0.0569351
0.0903623
0.0851476
0.105638
0.0917905
0.108425
0.0568402
0.0410722
0.116925
0.0711828
0.0941729
0.0858787
0.0653819
0.0843386
0.0270217
0.0312257
0.0513471
0.111949
0.0282282
0.0833748
0.0403453
0.059206
0.0546187
0.0753056
0.0886916
0.0696252
0.0519867
0.0702178
0.0491702
0.084798
0.0860778
0.0603253
0.0594917
0.101234
0.0779952
0.0692642
0.0331619
0.0425154
0.0714811
0.0869668
0.0481225
0.0526333
0.0500299
0.0293636
0.0296779
0.0211613
0.0268007
0.0638875
0.0281308
0.0939382
0.061871
0.13662
0.0298244
0.0605243
0.0855016
0.0592639
0.0257802
0.0397279
0.0347662
0.0336678
0.0660974
0.104033
0.0968312
0.0631386
0.0839972
0.0515656
0.0643746
0.0384041
0.0995131
0.0740517
0.0615438
0.0547792
0.0727767
0.0639489
0.116075
0.0340798
0.0300502
0.0361269
0.044511
0.0402344
0.0431175
0.0432316
0.030224
0.0252137
0.0903523
0.0367288
0.0504904
0.0556486
0.040235
0.0364868
0.0402569
0.0558237
0.0702916
0.0466211
0.0354733
0.090173
0.0616721
0.0680382
0.0658805
0.0744492
0.0402346
0.0262611
0.0398262
0.0482734
0.107345
0.060374
0.0453459
0.0545859
0.104131
0.0610848
0.091164
0.0758117
0.0869973
0.0898191
0.0801312
0.0894654
0.0919991
0.0851091
0.0669995
0.0804959
0.0596624
0.0731713
0.0808449
0.0750764
0.0751536
0.0855171
0.087088
0.0347123
0.0487193
0.0360291
0.0772073
0.0624453
0.0709915
0.0630621
0.0606187
0.0682233
0.0896054
0.0808165
0.0875347
0.0945201
0.0677434
0.0975977
0.104065
0.0896001
0.104187
0.114495
0.0351339
0.0515652
0.0956446
0.0741626
0.0795572
0.0709759
0.0891117
0.050316
0.0874088
0.0567594
0.112578
0.102135
0.100537
0.0963573
0.10057
0.100647
0.102302
0.102293
0.114223
0.0671643
0.0515327
0.0918101
0.0820005
0.0402541
0.0579453
0.0704774
0.0326467
0.0523711
0.0832465
0.0483621
0.0370427
0.0908208
0.106501
0.0671394
0.106461
0.0929165
0.0777341
0.102958
0.0620485
0.0681988
0.110831
0.0935283
0.100818
0.10152
0.094594
0.0664134
0.0551473
0.0431754
0.0534049
0.103568
0.0724889
0.103614
0.0353612
0.0356611
0.0243122
0.0245991
0.0239836
0.0382929
0.0430907
0.0259781
0.0353914
0.0213926
0.116742
0.065355
0.075469
0.02168
0.0390852
0.0429487
0.0562788
0.0743005
0.126946
0.0770013
0.110282
0.102855
0.0769819
0.0702221
0.0284025
0.0420952
0.0465733
0.0474295
0.0430034
0.0616144
0.0875488
0.064453
0.0659596
0.0646415
0.0608407
0.0604697
0.0560142
0.0497111
0.0763939
0.0538331
0.0624399
0.0721792
0.0466434
0.0874322
0.0904956
0.0720761
0.0768936
0.0772583
0.0350754
0.0488646
0.0685667
0.059625
0.0631237
0.0648167
0.0783797
0.0373159
0.0646205
0.0557714
0.0764617
0.070536
0.0552469
0.0848675
0.0834849
0.0795399
0.0819892
0.0797689
0.0877351
0.0527299
0.0382416
0.0690078
0.0633289
0.0513306
0.0620051
0.0439458
0.0806714
0.0922889
0.0681803
0.0941336
0.0894866
0.0878219
0.0751454
0.0495873
0.0701534
0.0357266
0.0305636
0.0466315
0.0362991
0.0495383
0.0429234
0.04512
0.0620384
0.0487111
0.038843
0.0963492
0.0833491
0.0678874
0.0858721
0.0629974
0.0819124
0.0571192
0.0269233
0.0404835
0.0382409
0.0457306
0.0496375
0.0443312
0.0564128
0.0540675
0.0391674
0.0523665
0.0358159
0.0274034
0.039237
0.0299302
0.0264017
0.0355795
0.0625007
0.0407094
0.0437797
0.0243527
0.0210154
0.016771
0.020473
0.0329783
0.0249366
0.0341635
0.0628759
0.0360722
0.0456106
0.0372221
0.0605107
0.0265228
0.0202616
0.0837527
0.13478
0.121113
0.0601997
0.0988919
0.075097
0.0881725
0.100942
0.0625087
0.0214028
0.0370336
0.0341525
0.0641023
0.0874569
0.0340843
0.0430925
0.0405729
0.0382132
0.0333319
0.048151
0.0627821
0.11205
0.0827178
0.110222
0.0493654
0.0368472
0.0218179
0.0282901
0.0205099
0.0292509
0.0290132
0.0247008
0.054596
0.0383778
0.0798661
0.0369685
0.0626918
0.0327217
0.029433
0.0627501
0.0539594
0.056114
0.0495589
0.0395154
0.103127
0.0802775
0.0827792
0.0679008
0.0837075
0.0625887
0.0732785
0.0773146
0.0890135
0.0629985
0.0666753
0.0570916
0.0369487
0.0451016
0.0279878
0.0663226
0.0560734
0.0572078
0.0521047
0.0557844
0.0658256
0.0645395
0.066949
0.0697107
0.0856632
0.0382596
0.092391
0.108772
0.0683619
0.102578
0.073209
0.0397998
0.0571747
0.0509673
0.0618987
0.0608876
0.0577992
0.0630176
0.0599338
0.100773
0.0703698
0.0518432
0.0814209
0.058193
0.110145
0.11306
0.0689286
0.073521
0.0554287
0.0643487
0.0483481
0.0253557
0.0493455
0.0451582
0.0270172
0.0288272
0.0327149
0.0457661
0.0523438
0.0372052
0.0379461
0.0332276
0.0519698
0.0549032
0.0451246
0.0474349
0.0468084
0.0356764
0.0415293
0.0307629
0.0341597
0.0433749
0.0386416
0.0451635
0.0431721
0.0393913
0.0227482
0.0179068
0.0255127
0.0249343
0.0331866
0.0306889
0.0373885
0.0785259
0.0498481
0.0634298
0.0511229
0.0962229
0.0337589
0.027678
0.0305318
0.0419703
0.0261732
0.0488476
0.0543349
0.0582262
0.0643925
0.053612
0.0686025
0.0315774
0.0484663
0.0417805
0.0240541
0.0418919
0.0273743
0.0290802
0.0387579
0.0262891
0.0426149
0.0516504
0.0464526
0.0426702
0.0536466
0.0592537
0.069462
0.0423229
0.0559286
0.0802327
0.0435219
0.0614834
0.0552842
0.0572751
0.0644887
0.0541271
0.0428066
0.0531808
0.036349
0.0392014
0.0295113
0.0930888
0.0841608
0.0974313
0.101249
0.0802843
0.0521985
0.0412169
0.0592192
0.060972
0.0707723
0.0601687
0.0722184
0.0442115
0.0864856
0.084168
0.09602
0.0642938
0.0533929
0.0441923
0.0733857
0.0560911
0.0583487
0.0632116
0.0948406
0.0592237
0.0729485
0.0901927
0.0855858
0.0677723
0.0749372
0.0651921
0.0561085
0.0323402
0.0389405
0.0568096
0.0545286
0.0336091
0.0282996
0.0212657
0.0264857
0.0313845
0.0320851
0.0447562
0.0329439
0.0470064
0.0410851
0.0327888
0.0350763
0.042931
0.0292858
0.0813789
0.0435198
0.0288477
0.0325998
0.133751
0.082786
0.114979
0.126251
0.120114
0.0889801
0.0440696
0.0570127
0.0726403
0.0709572
0.0862821
0.0754895
0.0559399
0.0409111
0.0416743
0.0412374
0.0427568
0.0541775
0.0346691
0.0661991
0.0472566
0.0452592
0.0436581
0.0726819
0.0848066
0.0945183
0.0970387
0.0929069
0.0538387
0.0778971
0.0757619
SCALARS SignedDistance double 1
LOOKUP_TABLE default
1.17829
1.12054
0.0481931
-0.384978
0.19561
-0.000360215
1.36549
0.111807
0.82443
1.22099
1.21677
0.279778
-0.0118189
0.0148054
-0.0350384
-0.0237427
0.0324269
1.34696
1.30744
1.14385
0.00319425
1.34574
0.0448691
0.746092
1.22665
0.435266
0.0842537
0.010812
1.24324
1.45973
-0.0513087
1.25712
0.01471
1.24248
0.0173505
0.0884858
1.38432
0.810255
1.13732
1.28979
0.0316011
0.508947
0.148057
-0.0187388
0.0677013
1.16217
0.10143
1.1633
-0.0347509
0.0134566
0.00624779
0.0158454
1.11269
-0.0357205
-0.00448957
1.16788
-0.0112807
0.710637
-0.206702
1.26728
1.19756
-0.0752614
1.31305
0.0942713
0.128706
-1.01518
-0.01449
1.46003
0.904015
0.0570319
0.168308
0.874039
0.144627
1.23288
-0.0981205
0.197467
1.27092
-0.0089145
0.141563
0.0127678
0.00650249
0.0570336
0.0535534
1.17332
0.0796795
0.0165436
0.00178757
0.357575
0.0621546
0.0871698
0.0486156
-0.00689294
-0.0046549
1.32671
0.65587
0.227978
0.0293208
0.362604
1.31157
1.33637
0.136799
1.44874
1.24894
1.37406
1.31021
1.2222
0.96446
0.0433923
-1.01439
0.837356
0.0190378
0.0583144
-0.0272435
-0.0176537
0.0133947
-0.0132384
0.157529
-0.00387297
1.24366
0.00190851
0.121581
0.182321
-0.0237055
1.5156
1.35698
0.0994014
1.17309
0.0161272
1.14859
0.412083
0.108204
1.00415
1.37624
1.54561
1.3361
0.431252
0.50669
1.22746
0.926536
1.35132
0.531073
1.27269
0.217786
0.318167
0.799642
-0.0112467
1.31414
0.119332
0.0353232
0.0236711
0.00135665
0.971143
0.0133028
0.987982
0.0383548
1.14702
1.36093
1.29626
1.1905
-0.0481879
0.00916198
0.00516465
0.681216
1.11152
0.4902
0.0057097
0.00319365
0.0557647
-0.00699944
0.021647
0.0196081
0.346463
1.20914
1.20517
0.00990063
0.0468473
0.345317
-0.0152213
1.0663
0.00480599
0.0203713
-0.00670744
-0.00646313
0.0321071
0.0198448
-0.0127129
-0.0100706
0.00332445
0.0187377
-0.0181908
-0.0302485
-0.0291838
0.118599
1.19423
-0.0143077
0.0151679
0.00900821
-0.0189829
-0.00762246
0.0211333
-0.0307429
0.00197019
0.0312091
-0.133163
0.0305647
-0.0121267
1.31413
0.995637
1.24074
0.00480902
0.0703495
0.188282
-0.0144088
-3.22962e-05
-0.0331108
0.0120525
0.00834324
0.00366484
1.21924
1.22438
-0.000248066
0.712377
1.27453
0.242295
0.86661
1.15085
1.3298
0.27783
0.54802
1.25177
0.277292
0.00116923
0.945461
0.148141
-0.190233
1.05561
0.172359
1.3935
1.2611
-0.00558212
0.799194
-0.0315314
0.0267788
0.19353
0.0452422
0.594042
0.511835
-0.00158361
-0.00723384
0.101838
-0.0268624
1.1936
1.41904
1.0675
1.23684
1.24289
1.25695
1.02151
0.376768
-0.0630105
0.653645
0.00316233
0.176422
0.000548059
0.861855
0.195223
0.239448
0.267324
0.231921
-0.240439
-0.0606068
0.0564058
0.0802104
0.0182057
0.0270566
1.22444
0.409901
0.812036
0.457454
1.25817
0.0889761
-0.118288
1.3289
0.736849
0.0493041
0.214636
1.43259
1.21387
0.692484
-1.01246
0.0227112
-0.0347934
1.16056
0.138344
0.0679709
0.215822
0.0227088
0.728231
0.0151412
-0.00605748
-0.00603095
-0.00031843
-0.0011521
-0.0122457
0.012954
-0.0451291
1.28459
1.17604
1.22401
0.0764326
-0.0423134
-0.199439
0.178976
0.505765
0.0388019
0.0598809
0.0466667
0.00866647
0.0129698
-0.0129767
0.51696
-0.00859997
0.167526
-0.0152296
0.93346
0.0513104
0.0699045
1.15103
0.00370412
0.454223
0.141779
0.0469823
0.10155
0.157312
0.144534
0.131957
0.14973
-0.206899
0.241545
0.0524069
0.307292
0.679686
0.305174
0.207826
-0.0262876
-0.0634582
1.15004
0.185618
0.0754917
-0.015991
-0.00275046
1.33131
1.44577
0.0167872
1.17493
0.0423633
1.44021
1.27492
-1
0.0688475
0.0756999
0.029623
0.0349986
-0.020988
0.331679
0.328554
0.0103879
0.0303303
0.00624799
-0.0634261
1.20057
1.27392
1.23202
1.19348
1.38934
1.30878
1.36187
0.122341
1.25503
1.36575
1.31032
0.736929
1.45341
1.29716
1.28163
1.35854
1.23884
1.35703
1.3814
1.34101
1.36741
1.31373
1.40801
1.3569
1.44635
1.41259
0.69348
0.0204074
1.2553
1.307
1.36318
1.33977
1.21393
0.457909
0.241642
0.0164221
-1.01697
0.126039
0.783511
0.539699
0.333236
0.103456
0.0283853
0.892803
0.388975
1.16377
-0.14653
0.0306168
0.0273536
0.846223
0.234585
0.771351
0.10678
0.0491909
0.0818366
0.0101476
0.0202034
-0.0158278
0.0256418
-0.00372324
-0.235992
0.0709362
-0.00653734
0.0813289
1.15
0.400003
0.243687
-0.0981843
0.00146729
0.110558
1.31696
1.37564
0.0929991
0.00197661
0.33231
0.0741866
1.19592
1.33018
1.20593
-0.0237836
0.115162
0.00754491
0.00213239
-1
-1.02491
0.0032057
0.539748
0.0123123
1.19776
1.27807
1.43783
1.305
1.46745
1.24311
1.25382
0.293169
-0.0722374
-0.0430144
0.0427685
1.39726
0.615435
1.13816
-0.216391
-0.456589
0.156231
1.17576
1.3938
1.31793
0.214094
0.255881
1.20623
0.18828
1.07476
0.18699
0.832421
-0.811865
-0.0477342
0.534532
0.373049
0.0588003
0.172512
1.34293
1.44581
1.52414
1.39945
1.27662
1.45047
1.25647
1.2097
1.40548
1.24186
1.45748
1.35408
1.32615
0.997133
0.654262
0.988036
0.726694
0.0225278
-0.00395471
0.00216463
1.31903
1.29604
1.05294
1.00585
1.2273
1.22958
1.09338
1.20849
1.33581
1.18643
0.107176
1.11942
0.207242
1.32009
1.30271
1.16785
0.886238
0.271766
0.0675646
-0.0339574
-0.0156071
-0.00800673
0.0216309
0.0131176
0.298469
1.2566
1.38306
1.32832
0.145513
1.17576
0.0276231
0.366157
1.30374
-0.0270254
-0.00383191
1.22078
1.20291
1.30985
-0.00162899
0.15064
0.00683187
0.0537001
1.1316
0.0854591
-0.0554891
0.145762
0.188009
0.0338641
1.09196
0.114464
0.67357
0.018959
0.979217
0.269611
-0.0222097
0.046883
1.08545
0.00152418
0.465021
0.0171824
-0.0428378
-0.00378285
0.102825
-0.0207767
1.28585
1.29306
1.335
1.31909
0.413135
0.00641026
-0.0357922
0.0269759
0.196259
1.14522
0.0388716
0.353284
0.00701833
1.24197
0.959551
1.20867
1.14576
1.19565
0.0837039
0.0337965
0.76275
0.52989
0.0336983
1.45357
1.27431
1.43788
1.21312
0.623248
0.135068
0.326418
0.862791
1.18215
1.25659
1.29716
1.21971
1.3229
1.23867
1.31929
1.32413
1.29706
1.27631
0.0619471
1.37803
0.903986
0.181969
1.16135
1.29169
1.2812
1.35869
1.16652
0.0584016
0.0771633
-0.071531
0.0564885
0.0294169
0.15254
0.0249416
0.0654904
0.0732444
0.0645902
-0.0269079
0.0073057
-0.0588868
-0.0646943
-0.00462273
-0.00496773
0.0469313
