# vtk DataFile Version 4.2
vtk output
ASCII
DATASET POLYDATA
POINTS 642 double
-1.08968 2.3492 -0.397535
1.22889 2.42841 -0.370823
-1.46233 -1.66003 0.00326116
1.14263 -1.48949 0.0679484
-0.0405672 -0.425444 1.44176
-0.00421196 1.76869 1.33942
-0.127404 -0.442221 -0.581016
-0.242975 1.86866 -1.43276
1.39819 1.32074 -0.74584
1.14989 0.755931 0.481695
-1.4496 1.18809 -0.980864
-1.19746 0.572567 0.555785
-1.4105 1.69946 0.138834
-0.630123 1.28428 1.10989
-0.545989 2.42108 0.926115
0.574371 2.4241 0.907403
-0.00328479 2.8016 -0.186301
0.936666 2.40564 -0.964949
-0.917518 2.37682 -1.09636
-1.26405 1.69898 -1.41905
-1.91434 1.99403 -0.948151
-1.51532 0.897821 -0.290179
0.606427 1.32852 1.07243
1.49711 1.77488 0.114758
-0.558986 -0.172078 1.19927
-0.0478302 0.325824 1.37006
-1.18871 -0.669363 -0.17022
-1.31166 -0.828045 0.340673
-0.266601 1.1969 -1.34083
-1.00615 0.556606 -0.881144
2.03908 2.03696 -0.87698
1.13786 1.76026 -1.097
1.14956 -0.695396 0.41588
0.52067 -0.193052 1.13535
0.645234 -1.33308 0.959221
-0.72077 -1.29778 0.821238
-0.00660204 -1.46629 0.124366
-0.736105 -1.02214 -0.300615
0.519552 -1.0497 -0.263366
0.760114 0.375674 -0.695626
0.999099 -0.54719 -0.125146
1.4657 1.11128 -0.202833
-1.35095 2.10538 -0.128906
-0.934075 2.04021 0.57503
-0.76514 2.41186 0.253353
-0.925723 0.935197 0.827731
-0.96185 1.53518 0.737081
-1.28836 1.18548 0.347353
-0.209205 2.09967 1.21912
-0.655071 1.89838 1.12277
-0.291876 1.5779 1.2462
-0.32856 2.81217 0.471244
-0.582324 2.59833 -0.284636
0.214077 2.10428 1.21699
0.00402313 2.56174 1.04205
0.697829 2.57584 -0.283947
0.319433 2.69053 0.435594
0.858051 2.35547 0.149431
-0.454192 2.94748 -0.729498
-1.03535 2.43849 -0.791841
1.16995 2.51032 -0.694751
0.460549 2.94474 -0.714959
-0.669323 2.13607 -1.29697
-0.0600097 2.5276 -0.970698
0.486489 2.15772 -1.1634
-1.6377 2.6198 -1.26279
-1.59069 2.31126 -0.657175
-0.918484 1.79038 -1.41342
-1.27226 2.08966 -1.46581
-1.65649 1.53071 -1.05977
-1.9022 1.84845 -1.66079
-1.42065 1.49147 -1.2465
-1.84195 1.90557 -0.316295
-1.53552 1.05325 -0.678526
-1.74069 1.47684 -0.590052
-1.56969 1.35306 -0.150282
-1.39672 0.704624 0.151997
1.00611 2.04553 0.466464
1.47759 2.25766 -0.0708741
0.278195 1.5981 1.2532
0.621038 1.90221 1.05027
1.3229 1.29748 0.28607
1.01384 1.57417 0.630475
0.938866 1.0119 0.747698
-0.265063 0.780858 1.2375
-0.0161858 1.19511 1.2441
-0.937564 0.121561 0.886672
-0.537903 0.454584 1.16953
-0.0176062 -0.0875119 1.81604
-0.237727 0.0787707 1.47108
-0.255209 -0.318027 1.47061
-1.33812 -0.283512 0.111314
-1.28301 -0.211626 0.490595
-1.28637 0.358764 -0.567679
-1.31537 -0.0956964 -0.204125
-1.49078 -1.3091 0.230515
-1.2891 -0.861533 0.0499974
-1.30944 -1.3009 -0.0137129
-1.15359 1.31572 -1.26202
-1.26164 0.977564 -0.992109
-0.287231 1.56097 -1.42544
-0.91351 1.48287 -1.37047
-0.643096 -0.0845845 -0.699708
-0.795867 1.04644 -1.20575
-0.18774 0.602812 -1.02408
1.16882 2.12691 -1.10787
0.656179 1.83345 -1.244
1.74138 2.55464 -0.521912
1.64938 2.6338 -1.237
1.34281 1.57488 -0.952803
1.56512 1.99353 -1.08647
1.62026 1.6591 -0.822979
1.04888 -1.139 0.272391
1.02435 -1.07642 0.702024
1.12707 -1.62726 0.556047
0.882663 0.170082 0.840535
0.96057 -0.529197 0.813102
1.14907 -0.0230939 0.517132
0.228452 -0.8746 1.08193
0.633 -0.794286 1.0028
0.190863 -0.343198 1.36259
0.399285 -1.6283 0.607621
0.758532 -1.65901 0.0428465
-0.264979 -0.828814 1.08134
0.0205956 -1.24742 0.880153
-0.86232 -1.54956 0.0767545
-0.458548 -1.49683 0.555112
-1.22116 -1.6594 0.536773
0.395636 -1.31885 -0.151898
0.831475 -1.34856 -0.0967271
-1.10554 -1.37689 -0.110539
-0.484774 -1.26689 -0.154234
0.231336 -0.781114 -0.430664
-0.0573483 -1.05104 -0.312218
-0.447562 -0.757354 -0.463998
0.783843 -0.907715 -0.182009
0.950911 -1.08799 0.0351727
0.35323 -0.193728 -0.621562
0.586424 -0.635069 -0.395162
1.18206 0.598515 -0.452823
0.88218 -0.204603 -0.380334
1.15663 1.0367 -0.773653
1.0857 -0.694705 0.120434
1.48844 1.23826 -0.522494
1.19628 0.252393 -0.140152
1.18531 0.0187535 0.159843
1.34926 0.942963 0.134822
0.1534 0.103702 1.42078
0.505225 0.509338 1.11852
0.208296 0.837938 1.22589
-1.2302 -1.14093 0.690152
-0.680479 -0.793226 0.961298
-1.06581 -0.603997 0.740939
-0.830228 -0.595107 -0.452489
-1.04335 -0.9318 -0.215633
-1.08458 -0.228531 -0.469502
1.00163 1.32322 -1.02858
0.389079 0.921847 -1.10364
0.565227 1.45394 -1.25804
1.61812 1.49709 -0.082308
1.78269 1.58812 -0.488712
2.00312 2.01329 -0.231912
-1.21112 2.25568 -0.295627
-1.03785 2.21106 0.0419534
-0.940792 2.34947 -0.160116
-1.1932 1.85636 0.338275
-1.15076 2.06109 0.216406
-1.46929 1.95873 0.0630395
-0.670784 2.45576 0.612936
-0.884637 2.262 0.450162
-0.759771 2.25547 0.782297
-1.09503 0.721172 0.668391
-1.10617 1.07152 0.613399
-1.22679 0.849229 0.474427
-0.798756 1.42994 0.961691
-0.943337 1.26035 0.78758
-0.766737 1.12054 0.97247
-1.34196 1.4462 0.231662
-1.13699 1.36038 0.525514
-1.169 1.60973 0.434708
-0.0826025 1.91261 1.3396
-0.261534 1.85381 1.2684
-0.121571 1.70497 1.33907
-0.614502 2.17994 1.05631
-0.439431 2.03263 1.21224
-0.370171 2.28173 1.12352
-0.478719 1.43759 1.21449
-0.466993 1.7432 1.2133
-0.65425 1.59774 1.12568
-0.987576 1.80442 0.687967
-0.83144 1.72405 0.957564
-0.844368 2.01881 0.920428
-0.666104 2.51715 0.00520765
-0.865045 2.44945 -0.355328
-0.435675 2.60605 0.720756
-0.605037 2.66817 0.396973
-0.326848 2.69901 -0.23055
-0.445133 2.69042 0.0882963
-0.166379 2.81669 0.132218
0.0775647 1.91474 1.33959
-0.00113435 2.1203 1.21954
0.31175 2.55617 1.0298
0.137238 2.36695 1.21189
0.399832 2.30127 1.14667
-0.133594 2.36342 1.21262
-0.298294 2.55261 1.03717
1.03627 2.46771 -0.352651
0.787671 2.47096 -0.0638642
1.1007 2.38642 -0.205042
0.16106 2.72804 0.133691
0.483299 2.6309 0.0706027
0.355208 2.67395 -0.214141
0.705717 2.43276 0.565059
0.598178 2.55073 0.341512
0.46581 2.60245 0.704363
-0.149357 2.68978 0.779297
0.16443 2.68966 0.775364
0.0106426 2.81672 0.484662
-0.784071 2.54852 -0.562943
-1.07345 2.4009 -0.563318
-0.216737 2.72446 -0.491452
-0.509782 2.71624 -0.533262
-0.987168 2.42913 -0.963292
-0.690462 2.60748 -0.747646
-0.629876 2.58852 -0.892245
1.22294 2.47944 -0.509498
0.939529 2.55825 -0.516781
0.673533 2.5946 -0.826071
0.793972 2.60821 -0.687663
1.07595 2.47703 -0.852583
0.580635 2.69964 -0.50431
0.20572 2.72677 -0.472705
-0.444903 1.9746 -1.36975
-0.13025 2.1633 -1.22554
0.104286 1.99652 -1.33867
-0.532694 2.49547 -1.03176
-0.375589 2.34378 -1.13043
-0.817853 2.27409 -1.20738
0.745579 2.29973 -1.05683
0.224337 2.34157 -1.07174
0.488652 2.48324 -0.959981
-0.00916796 2.69759 -0.680515
0.192647 2.64873 -0.824932
-0.265522 2.76542 -0.927402
-1.34125 2.36501 -0.774511
-1.29268 2.31593 -0.512222
-1.29164 2.37087 -1.18215
-1.35149 2.39913 -1.02394
-1.88403 2.28152 -0.787597
-1.63225 2.4199 -0.940038
-1.91429 2.31585 -1.11364
-0.599929 1.83031 -1.41512
-0.835998 1.95612 -1.38745
-1.31728 1.90599 -1.48754
-1.09694 1.93116 -1.44203
-1.11621 1.75186 -1.43188
-1.00481 2.10801 -1.36832
-1.13838 2.25421 -1.30639
-1.52243 1.32963 -1.0231
-1.54466 1.53142 -1.18687
-1.44622 1.31723 -1.09551
-1.91337 1.95996 -1.271
-1.71531 1.76349 -1.29782
-1.86171 1.71196 -1.06629
-1.36889 1.62153 -1.3621
-1.58104 1.75249 -1.37973
-1.50201 1.83299 -1.48387
-1.44373 2.29368 -1.40836
-1.53102 2.07438 -1.68954
-1.81651 2.27062 -1.49263
-1.5136 2.25 -0.369241
-2.02233 1.99096 -0.617855
-1.84514 2.23435 -0.439917
-1.61465 2.03085 -0.240983
-1.6376 1.79967 -0.0957457
-1.49062 1.14004 -0.877747
-1.59989 1.3146 -0.872591
-1.61847 1.21883 -0.446373
-1.6364 1.27013 -0.651149
-1.5422 0.979384 -0.479978
-1.74175 1.50724 -0.844869
-1.91288 1.70637 -0.76891
-1.36655 0.979644 0.222975
-1.28899 0.611582 0.398989
-1.52658 1.53318 -0.0201865
-1.44341 1.27784 0.0833077
-1.46404 0.806449 -0.0846798
-1.48206 1.08018 -0.0222467
-1.56357 1.15489 -0.240935
-1.90858 1.66568 -0.463192
-1.67588 1.43429 -0.377445
-1.68809 1.62202 -0.258385
1.17516 2.25969 -0.0297383
1.32749 2.36434 -0.272356
0.768415 2.24178 0.71694
0.930474 2.21704 0.32303
1.5341 2.02348 0.0455475
1.24988 2.09389 0.122602
1.31311 1.91335 0.279288
0.11147 1.71018 1.33904
0.260597 1.86274 1.26793
0.61678 1.62641 1.06319
0.45996 1.76325 1.20429
0.457209 1.47405 1.20708
0.45226 2.04128 1.20885
0.606849 2.16772 1.00328
1.22619 1.01669 0.396269
1.1505 1.16869 0.512521
1.08515 0.854174 0.577344
1.26864 1.66904 0.349801
1.20949 1.43071 0.423814
1.42127 1.53542 0.201646
0.76561 1.17031 0.915207
0.981125 1.31561 0.691608
0.790926 1.46794 0.890126
0.779288 1.99507 0.796632
0.789298 1.73837 0.850366
1.04895 1.82623 0.581693
-0.14459 1.40587 1.26061
-0.00749026 1.57518 1.3395
-0.445461 1.07827 1.17813
-0.301554 1.23981 1.22984
-0.0340144 0.718139 1.26979
-0.145679 0.972213 1.24482
-0.136782 0.507099 1.30435
-1.11215 0.369899 0.70471
-0.927003 0.534156 0.870881
-0.526176 0.111365 1.22294
-0.724932 0.300238 1.06601
-0.750723 -0.0540793 1.05418
-0.735547 0.726065 1.00763
-0.580236 0.905117 1.10153
-0.0314307 -0.366501 1.66466
-0.240168 -0.273053 1.81031
-0.132858 -0.392013 1.49408
-0.13993 0.166898 1.44769
-0.178662 0.00811682 1.67483
-0.055045 0.073694 1.54395
-0.39738 -0.256048 1.33874
-0.269318 -0.130035 1.56204
-0.370854 -0.0260727 1.38285
-0.392162 0.606431 1.21871
-0.362577 0.2302 1.31529
-0.240954 0.347341 1.33136
-1.3181 0.207791 0.337557
-1.25591 0.259868 0.553199
-1.40464 0.320101 -0.0733333
-1.37191 0.234815 0.121064
-1.35496 -0.557687 0.434297
-1.32191 -0.282316 0.286534
-1.40127 -0.61617 0.235791
-1.39628 0.963908 -0.85378
-1.41258 0.757437 -0.65371
-1.24703 -0.44959 -0.169759
-1.29965 0.083048 -0.36229
-1.20977 -0.27797 -0.310769
-1.41841 0.586494 -0.454493
-1.41908 0.447593 -0.2659
-1.71908 -1.63755 0.141036
-1.42552 -1.34257 0.0649324
-1.57911 -1.51998 -0.128936
-1.31123 -0.870117 0.174884
-1.32499 -1.10965 0.133942
-1.33256 -1.0869 0.28077
-1.19804 -0.970749 -0.0697206
-1.27391 -1.08085 0.0310929
-1.24802 -0.794871 -0.0598821
-1.33527 -0.224881 -0.0479733
-1.29262 -0.564028 -0.0454024
-1.34609 -0.617402 0.0791776
-1.34192 1.2658 -1.14061
-1.37888 1.11743 -0.996893
[...]
POINT_DATA 642
SCALARS Mean_Curvature double 1
LOOKUP_TABLE default
-0.0458693
-0.0407723
3.49221
4.19107
0.797175
0.0524561
0.136954
3.32441
1.00513
0.64127
1.38319
0.467032
0.275386
1.21066
2.17493
2.76184
2.15063
1.45069
1.16631
1.43238
-0.039509
0.935592
0.895669
-0.934565
0.29108
0.76477
1.15499
-0.463856
0.94934
0.309529
4.44749
0.798831
2.07991
0.0733143
1.20823
-0.0709969
1.11885
1.00041
0.941101
0.513413
0.801788
1.00266
-0.627181
-0.544926
-0.495394
0.300924
-0.188694
0.548767
-0.238574
2.14092
-0.734418
3.11073
-0.222
-0.590934
1.63444
-0.165388
0.731801
-0.303742
6.24188
0.416744
0.677477
6.39505
0.729588
-0.467057
0.338634
5.71419
-0.214493
0.428322
1.64317
0.277969
6.05561
1.10157
2.9752
1.30489
-0.0945905
0.495973
0.888798
0.409116
2.40598
-0.295384
1.10256
0.569408
-0.0128256
0.412429
0.565485
0.113906
0.358593
0.466515
7.9727
0.79817
1.69166
0.642162
1.77597
1.14103
1.14712
3.57839
0.992973
0.53132
1.15112
1.4479
0.654643
0.435392
0.489289
0.327743
0.0972716
1.10862
0.967634
4.35778
5.63842
0.840274
0.345188
0.379216
-0.448536
0.23983
5.78154
0.653214
1.35418
2.78164
0.725332
-0.342065
0.643559
2.18783
2.92355
0.0999473
0.888814
1.49112
0.753637
3.83063
1.70825
0.571641
1.06814
0.924056
0.727306
0.23901
0.803776
0.903239
0.369212
0.462999
0.954437
0.78409
1.04786
1.11624
-0.632159
1.10122
1.16264
0.424932
1.07651
0.778413
0.425106
0.783697
2.97142
0.574928
0.234793
0.943177
1.06451
1.47306
0.685742
0.577142
0.967057
-0.228205
1.02216
4.53527
-0.408298
-0.614619
-0.292279
0.787822
0.800978
3.93503
0.690421
1.38276
1.20164
0.439493
0.438631
0.418594
0.427655
0.268058
0.275087
0.0619256
0.156826
-0.0666689
4.55152
-0.0335658
3.29326
2.21377
2.76194
0.581733
2.12163
1.09544
1.68564
1.0548
1.27945
3.04966
-0.252915
-0.168964
0.732982
3.37942
-0.316879
0.459315
2.02179
4.51598
-1.73844
3.57135
3.54082
2.65863
3.85829
3.89716
-0.293545
-0.228998
-0.0379083
-0.267948
0.725346
-0.462625
1.71776
0.829595
2.05556
1.09232
1.53038
2.46155
0.582808
0.192476
-0.674874
0.721482
1.05317
1.13651
1.40653
0.216113
1.13434
1.06707
1.79119
1.17934
0.312103
-0.688389
0.635067
-0.155992
0.000580033
1.02321
0.220537
0.577031
0.812097
-0.00158144
1.14342
0.0216582
0.512788
4.39624
-0.381517
-0.357507
1.28731
0.36009
3.43946
1.59357
3.575
1.17818
0.630934
1.52196
1.53871
1.46434
1.31995
1.5234
1.06045
0.58256
1.21632
2.50007
0.285496
3.14847
1.23625
0.674643
0.965378
0.989958
5.57273
3.92286
2.34609
4.23352
4.83503
-0.161029
2.47763
1.31043
0.861567
0.939874
0.854393
1.27224
0.719919
1.87787
0.441302
0.699747
0.326378
0.455622
0.328949
0.780654
0.795464
4.1831
0.474399
-0.483442
-0.348636
-0.559425
1.50154
-0.313443
0.416842
-0.731968
2.41278
3.19683
0.279466
0.472796
2.16792
2.78932
3.80118
1.31256
0.732753
0.750427
0.3716
0.0177762
0.142864
0.81214
0.375956
0.280184
0.428095
-0.118106
-0.0275977
1.66689
-0.2435
3.91441
0.822683
0.48941
0.593075
0.497145
0.53493
0.615716
0.50083
0.250043
0.701427
0.639351
0.305334
0.262842
6.98558
8.28005
1.85245
0.985983
7.14447
-0.300771
0.621294
1.15746
0.597811
0.536464
0.62519
0.689045
0.269608
2.14228
1.06141
0.639102
3.02289
-0.0746172
4.39923
1.48721
1.49426
1.04751
1.26239
1.40632
0.81547
1.12132
6.92089
-0.294096
8.77443
-0.0228811
0.21408
-0.330122
1.10536
0.543324
2.32917
1.67782
0.777189
1.66178
1.35406
1.50354
1.20852
1.23299
0.95247
1.30353
1.11477
1.40154
1.28103
1.06805
1.16099
0.881725
0.458981
1.14137
0.326156
0.159324
0.132617
0.264984
0.13302
0.493405
0.929213
0.399831
0.994227
0.934605
0.545721
0.837622
0.681965
5.20553
1.39753
0.367664
0.317731
0.188075
0.869223
-0.5482
2.50846
4.053
3.97202
3.05465
0.665597
1.55009
0.866841
0.44695
0.638617
0.789714
0.643282
0.860921
-0.477287
-0.0219235
3.68487
0.875202
5.56039
0.833216
-0.359226
2.13908
7.62073
4.53989
-0.891831
-0.387284
4.82112
-0.493212
4.25624
0.676698
0.497377
0.649875
0.197713
0.284554
0.497833
0.169305
0.471501
1.84239
0.882518
0.0711932
0.4927
-0.228335
0.0295331
0.124891
0.609412
0.821508
0.563023
1.52305
2.25373
3.88073
0.280121
7.05372
5.77206
1.19101
0.783496
1.58752
0.40417
1.11795
0.489188
0.6685
-0.173967
0.522955
0.578418
1.33066
2.51747
1.27079
1.60685
0.735597
0.394473
0.83503
6.01982
2.7575
3.62243
0.528902
1.05809
0.919539
8.14332
6.26898
1.56483
1.46675
1.13251
1.46258
1.45332
8.54627
4.44077
0.913667
1.34389
1.11931
1.16364
0.786084
0.447535
0.140698
0.409594
0.873456
0.656419
0.836179
0.977116
0.829233
0.861018
1.01133
0.843244
1.25609
0.493604
-0.00452077
0.917413
0.679825
0.640398
0.682397
0.902813
0.362843
0.659214
0.709975
0.676205
0.465737
0.876565
0.979039
1.27501
1.06473
1.14428
1.10594
0.973069
1.07948
0.24633
0.834807
0.80593
0.999996
0.934022
1.03008
0.182746
3.30913
0.432405
-0.252941
3.25954
1.00855
1.32852
0.935967
1.18249
1.10025
1.17159
0.800595
0.843932
0.296717
0.44475
0.495019
1.0733
1.04573
0.717764
3.94332
0.942885
1.46775
4.69138
0.624217
0.203092
5.12876
0.993261
0.569404
0.349556
0.343796
0.484291
0.273664
0.264247
0.533257
0.393982
0.614969
0.362208
0.414616
0.578447
0.49341
5.83727
0.871936
2.21867
0.664466
0.0937464
1.05003
0.228522
0.753327
0.666647
0.158643
0.687106
2.48093
0.232722
0.224325
0.417228
1.05593
0.333929
1.24697
0.598939
1.06996
0.933369
0.737324
1.16604
1.24337
1.27386
0.816643
1.05834
1.00428
1.09295
1.10202
0.963234
1.42728
1.22785
1.08659
1.18858
1.15457
1.02375
0.257204
1.00037
0.943122
0.811746
0.127745
0.989263
0.367
0.0854149
0.120476
1.22843
0.536518
0.948595
0.460428
0.812211
0.440905
1.02765
0.938741
0.942693
0.429346
0.683139
0.191265
2.84342
0.311075
2.9067
2.65344
1.48232
0.737244
0.322599
3.29182
4.10939
1.29605
2.13602
0.908882
2.26183
4.96848
SCALARS CoVolArea double 1
LOOKUP_TABLE default
0.0382297
0.025785
0.0462186
0.0283629
0.0217433
0.0186967
0.0629045
0.0503702
0.014006
0.0392535
0.0161161
0.0469109
0.0807962
0.0681132
0.0788543
0.0830574
0.112991
0.068945
0.0681995
0.0335176
0.0983319
0.0746483
0.0732628
0.0660097
0.0770085
0.03448
0.0330311
0.0486165
0.0889466
0.0813829
0.0937152
0.0365889
0.0478905
0.0791928
0.0822364
0.0741125
0.0925205
0.0378274
0.0313684
0.121064
0.0438172
0.0501796
0.0853593
0.093473
0.0997401
0.0918944
0.0823708
0.0808935
0.053827
0.0704869
0.0545428
0.10778
0.08792
0.0562087
0.082996
0.0920387
0.10395
0.0924041
0.10088
0.0729803
0.0628273
0.115549
0.0877955
0.112597
0.101061
0.120848
0.0852845
0.0416295
0.0620246
0.0543777
0.113115
0.0352311
0.0867154
0.061521
0.0632969
0.0590125
0.0971712
0.0942897
0.0756695
0.0525426
0.0689492
0.0545894
0.0859971
0.0935883
0.0646398
0.0556642
0.107165
0.0823195
0.0536315
0.0386114
0.0555536
0.0759597
0.0882204
0.0724285
0.069517
0.0651051
0.030493
0.0341072
0.0321521
0.0470018
0.0805147
0.0347651
0.119957
0.0767854
0.174627
0.0461729
0.0685524
0.0906802
0.124654
0.031716
0.0522411
0.0384128
0.0375929
0.0669671
0.0973172
0.0981748
0.0665847
0.0846512
0.0585783
0.0630422
0.0546986
0.109813
0.0819604
0.0710185
0.0757134
0.0837152
0.0971361
0.105106
0.0514994
0.0377607
0.0445124
0.061324
0.0507462
0.0571964
0.0555433
0.0325535
0.0292753
0.11271
0.0450927
0.0768097
0.071045
0.0599314
0.0346358
0.0425153
0.075669
0.0801191
0.0623447
0.0442225
0.0960344
0.0670063
0.071313
0.0665747
0.0750805
0.0499408
0.0324757
0.0618193
0.0581913
0.127878
0.0780278
0.0465554
0.055253
0.0926569
0.0679479
0.0974427
0.0803017
0.0931852
0.095992
0.0837801
0.0875583
0.0952554
0.0837006
0.0788246
0.0863797
0.0723832
0.0715867
0.080082
0.0786066
0.0763105
0.084089
0.0886709
0.0362692
0.0504639
0.0372278
0.0733289
0.0611887
0.0669041
0.061278
0.0597199
0.0659137
0.0912164
0.0778218
0.0840213
0.0962289
0.0717115
0.0913055
0.0989746
0.0946612
0.101727
0.113009
0.0367461
0.052019
0.0852934
0.0688005
0.0711141
0.0667847
0.0817348
0.0562112
0.0910404
0.0597487
0.113549
0.105459
0.107266
0.0919124
0.0994725
0.0932907
0.0966936
0.0971921
0.110777
0.0744333
0.0606985
0.0988239
0.0819935
0.0644378
0.071787
0.0788787
0.0445717
0.0673581
0.0931149
0.0750719
0.0636148
0.0970024
0.111036
0.0812256
0.1254
0.0993355
0.0907528
0.112252
0.0741362
0.0766073
0.118333
0.0963827
0.105775
0.110182
0.105968
0.0739243
0.0596813
0.0751588
0.0776185
0.099286
0.0955831
0.120324
0.0521701
0.0558137
0.0485686
0.0431845
0.0327662
0.0567982
0.0644179
0.0300937
0.0403501
0.0250207
0.110592
0.0701127
0.0771325
0.0347625
0.0509235
0.063712
0.102018
0.105608
0.145282
0.0790012
0.103048
0.0978376
0.0793407
0.072682
0.0391261
0.0482141
0.0534888
0.0548253
0.0673259
0.0633872
0.0855992
0.0782335
0.0793448
0.0671373
0.0666019
0.0870956
0.0678926
0.0585716
0.0814868
0.0585707
0.0685622
0.0777773
0.0523482
0.0883869
0.0926433
0.0754107
0.0834303
0.0827332
0.0366167
0.0501673
0.0673621
0.0581499
0.0611931
0.0618516
0.0742777
0.0505061
0.07226
0.0709694
0.0773947
0.071704
0.0564388
0.0862472
0.0839242
0.079741
0.0861337
0.0822845
0.0923213
0.0538655
0.0384129
0.0713181
0.0636111
0.0497165
0.0593916
0.0459484
0.0867217
0.10366
0.0736364
0.0991123
0.0944104
0.0963862
0.0811788
0.0439409
0.0593969
0.0424026
0.0322806
0.0442135
0.0334745
0.0613935
0.0491103
0.0527269
0.0712325
0.0560301
0.0475914
0.103965
0.0843594
0.0971711
0.105042
0.062562
0.0826957
0.0531691
0.0454271
0.0709187
0.0438764
0.0710316
0.053477
0.0821733
0.0900971
0.0846486
0.053985
0.0611195
0.0374046
0.0348941
0.0447481
0.0287602
0.0291751
0.0298261
0.0726238
0.0421115
0.0451816
0.0320234
0.0315567
0.0276032
0.0300756
0.0595881
0.0371606
0.0510249
0.0708435
0.0553266
0.0608772
0.0524952
0.0789847
0.033491
0.0268274
0.111347
0.17732
0.163511
0.0812556
0.127812
0.101695
0.108281
0.128144
0.0786037
0.0308629
0.0468639
0.0457304
0.0758664
0.0811291
0.0531002
0.0566736
0.0473659
0.0482928
0.0410493
0.0509095
0.0718062
0.132849
0.121551
0.11077
0.0819173
0.0648139
0.0243116
0.032355
0.0245324
0.0366316
0.0349659
0.0318533
0.0572368
0.043802
0.0814358
0.0725908
0.103656
0.0516525
0.0386406
0.0650138
0.0700724
0.0547626
0.052788
0.0389435
0.100024
0.0783601
0.0790984
0.07898
0.0854161
0.0735809
0.0752017
0.0780541
0.0902842
0.063989
0.0698478
0.0593495
0.0461708
0.0574944
0.0403437
0.0656842
0.0588111
0.0592848
0.0630207
0.0619408
0.0686619
0.0654126
0.0677326
0.0694489
0.0954919
0.0645904
0.105266
0.109677
0.0838992
0.101146
0.103003
0.0501919
0.0682528
0.074463
0.0760119
0.0682968
0.0665035
0.0728663
0.067667
0.0968911
0.080778
0.0993572
0.0985751
0.0888049
0.106084
0.109177
0.0883678
0.0921722
0.0896783
0.102216
0.059492
0.0404265
0.0728884
0.0579098
0.0306955
0.0393701
0.0389689
0.057354
0.0598053
0.0469891
0.0482264
0.0387538
0.0682967
0.0791734
0.0599806
0.0622467
0.0624466
0.0423632
0.052487
0.0364186
0.0426007
0.0565907
0.0504425
0.0670119
0.0605456
0.0544374
0.0311896
0.0287747
0.0299361
0.0294778
0.031882
0.0306691
0.0370507
0.104089
0.0628061
0.0792727
0.0631765
0.119083
0.0416132
0.0332499
0.0406831
0.0663785
0.0334496
0.0547234
0.0773964
0.0693334
0.0897248
0.083673
0.0916142
0.0376512
0.0588379
0.0458935
0.0301117
0.0381011
0.0289945
0.0301262
0.037749
0.0287883
0.0572691
0.0679258
0.0618779
0.046032
0.0784866
0.0622901
0.0856289
0.0583936
0.0575718
0.0837767
0.0546565
0.0827683
0.0770436
0.0570446
0.0774762
0.0539909
0.0485422
0.0623887
0.0491089
0.0409409
0.0351785
0.104338
0.0903398
0.103593
0.105459
0.0863034
0.0517619
0.0472924
0.0576917
0.0613125
0.0752935
0.0683002
0.0826349
0.0546962
0.0908172
0.0829616
0.0906399
0.0648229
0.0570637
0.0584136
0.0784144
0.0652181
0.0614299
0.0633755
0.097243
0.060933
0.0757248
0.0932153
0.0883028
0.0705611
0.0763168
0.067887
0.0698721
0.0376476
0.0469432
0.071598
0.0771575
0.0444612
0.0311134
0.0301265
0.0350643
0.0343176
0.0603437
0.0761547
0.0677277
0.0648023
0.0434955
0.0398266
0.04197
0.0586544
0.0373965
0.0991374
0.0562432
0.0376633
0.041571
0.1699
0.101808
0.139414
0.154166
0.145167
0.0895292
0.0529717
0.0705821
0.0874836
0.0917414
0.100471
0.0936956
0.0672207
0.0496535
0.0426673
0.0438507
0.0453386
0.0554257
0.0365551
0.0677816
0.047703
0.0437263
0.0448209
0.0752599
0.0785858
0.08804
0.092523
0.0893453
0.0548219
0.0763861
0.0710544
SCALARS SignedDistance double 1
LOOKUP_TABLE default
1.28957
1.23469
0.0112204
-0.0513225
1.11657
0.02606
1.82504
0.239725
1.30199
1.37187
1.41616
1.223
0.259423
0.356463
-0.0156641
-0.0308734
0.0529928
1.51182
1.50504
1.4139
0.0122911
1.57199
0.335875
0.921603
1.35385
1.23566
1.1774
0.681653
1.46918
1.94101
-0.0275681
1.50078
0.0825518
1.39685
0.0737582
0.959817
1.57701
1.38176
1.48663
1.71528
1.13215
1.32159
0.996748
0.220522
0.411631
1.32096
1.12515
1.31158
0.0121148
0.0296035
0.339981
0.0157162
1.18716
0.0204657
0.0108515
1.28146
0.0213439
1.17392
-0.0010696
1.37411
1.30037
0.00479151
1.53413
1.16607
1.26105
-0.20021
0.143001
1.64403
1.31183
0.878642
-0.0793487
1.32015
0.109588
1.44258
1.09823
1.18241
1.47191
0.26574
0.0862946
0.187045
0.0598146
1.07444
1.06766
1.34927
1.20818
0.780839
0.861786
1.2857
0.0483101
0.653447
0.613006
0.914412
0.18863
1.67619
1.19574
0.0827682
0.481725
0.887251
1.59623
1.68146
1.21619
1.70665
1.71449
1.87037
1.82573
1.46545
1.34233
-0.0273995
-0.299878
1.31312
1.15934
0.675143
0.788103
0.0527885
-0.00334228
0.718533
0.287849
0.127627
1.34463
0.897181
1.24391
0.111777
-0.00428104
1.62215
1.42752
0.605601
1.24478
0.0140274
1.39775
1.1567
0.940234
1.48856
1.68485
1.82377
1.65117
1.28771
1.20309
1.65579
1.44326
1.69543
1.39385
1.60091
0.985801
1.25036
1.33463
0.812646
1.41715
0.849534
1.25773
1.15244
0.0189312
1.32624
0.777531
1.46841
1.25624
1.35589
1.65731
1.72718
1.40251
0.796898
0.103364
-0.0209145
1.18847
1.1634
1.18625
0.159988
0.235296
0.0418969
0.0282216
0.0750557
0.0363964
1.28608
1.35671
1.40906
0.422043
1.13815
1.10513
1.12948
1.23549
0.747807
0.0255494
0.066918
0.0195049
0.034226
0.0312224
0.00364325
0.0849842
0.0557749
0.0662612
0.132943
0.0481018
-0.0264683
0.649959
1.32374
-0.000781024
0.0137303
0.265826
0.0404
0.00656976
0.0253951
0.14663
-0.0124932
0.0244675
-0.0868031
0.0388308
-0.0107023
1.38984
1.23672
1.32543
0.193294
0.310698
0.828532
0.0234404
0.0734709
-0.0290779
0.0165829
0.0156615
0.00576622
1.25713
1.33463
0.640424
0.766303
1.44787
1.03487
1.15411
1.25379
1.33078
1.15734
0.873659
1.41842
1.09897
0.69849
1.30397
1.15183
0.456453
1.26154
1.27201
1.59884
1.44824
0.917771
1.17687
0.513746
1.05509
0.209973
1.12811
1.15434
1.18317
1.17418
-0.00576913
0.355976
0.0210256
1.41721
1.65248
1.30031
1.49734
1.52305
1.54399
1.37046
1.28365
1.21523
1.34161
0.00594199
0.654292
0.0255647
1.34754
0.919248
1.03231
1.11904
0.239238
0.00821197
-0.0553217
-0.0394066
0.0753744
0.0470825
0.0388868
1.43741
1.27397
1.2939
1.2401
1.50209
0.701764
-0.00774537
1.46619
1.29853
0.54622
1.23951
1.60701
1.39999
1.35613
-0.0645585
1.14506
0.533861
1.23474
1.08861
0.0908488
0.870683
0.158928
1.15737
0.136748
0.0188879
0.0463602
0.169505
0.0255927
0.0495985
0.0208113
-0.0131741
1.3844
1.27785
1.40211
0.611496
1.11107
0.380324
1.17931
1.21845
0.531682
0.281933
0.477913
0.192171
0.573051
0.0292829
1.14766
0.401932
1.24764
0.751962
1.29539
0.688736
1.1708
1.29728
1.18319
1.23195
1.23729
1.20586
0.143153
0.0290453
0.533642
0.938962
0.167786
1.10449
1.24586
0.337575
1.18686
1.27573
1.25846
1.26149
0.889689
0.216956
1.34537
1.18818
0.125484
0.908837
0.0588865
1.60854
1.73612
1.15814
1.39887
1.19776
1.74747
1.5431
-0.192182
0.791534
0.12186
0.714404
1.16403
1.0892
1.16373
1.19113
0.424098
0.753677
0.711369
0.326413
1.45522
1.51212
1.50001
1.45739
1.85948
1.59933
1.75061
0.540499
1.51644
1.6186
1.57287
1.32689
1.6755
1.58041
1.73524
1.84334
1.75014
1.90902
1.91375
1.80701
1.66505
1.83859
1.70399
1.64794
1.77695
1.75434
1.35248
0.00568696
1.48045
1.58343
1.61239
1.6248
1.47922
0.858091
0.156175
-0.0172023
-0.0875706
0.103172
1.1329
1.25235
1.2868
1.19253
1.20811
1.35032
1.25525
1.39209
0.590537
1.1374
0.0736141
1.22212
0.196948
1.26094
0.619213
0.0172351
-0.233622
0.0248136
0.6791
0.668438
0.0298085
0.0646227
-0.0853211
1.1747
0.509991
1.17649
1.26248
1.1642
1.23838
0.581112
0.383017
0.238784
1.41715
1.44986
1.15834
0.309673
1.16306
0.662177
1.34368
1.3686
1.28501
0.059206
0.18548
0.0399895
0.00519744
-0.528818
-0.0679115
0.00681969
1.17063
0.0118448
1.31408
1.3751
1.5433
1.41595
1.6117
1.41361
1.33012
0.518054
-0.00351644
0.00171591
0.0107425
1.51729
1.14784
1.39788
-0.194764
-0.00576921
0.290082
1.20305
1.49976
1.44706
0.0442267
0.149779
1.43892
0.915854
1.33614
1.17398
1.4467
-0.305074
0.394261
1.42366
1.25657
1.30123
1.29131
1.6194
1.80744
1.85807
1.79118
1.61521
1.74601
1.57763
1.50507
1.69369
1.54713
1.73121
1.66235
1.65101
1.21154
1.12659
1.37775
1.30844
1.13445
1.24081
1.18555
1.75056
1.64293
1.51745
1.53407
1.6638
1.54466
1.46102
1.41651
1.67972
1.39504
1.25755
1.43872
1.25581
1.80284
1.6713
1.54515
1.34426
1.39502
1.27614
1.09991
0.176287
0.77542
0.753287
0.0813388
1.27361
1.46675
1.57621
1.52819
1.29793
1.49948
1.00927
1.26526
1.48546
0.336245
0.498822
1.35191
1.40297
1.56157
0.126749
1.18691
0.178799
0.138593
1.25189
0.973289
0.181037
1.15033
1.25195
1.21527
1.29118
1.23443
1.31101
0.406629
1.28694
1.01982
0.337365
0.929424
1.30305
1.2096
1.29484
-0.0883578
0.0594036
0.00609319
0.477112
0.292518
1.41311
1.46278
1.49497
1.47968
1.22919
0.433368
0.072644
0.441663
1.18864
1.33055
0.266176
1.16378
0.169573
1.65278
1.39785
1.53162
1.57976
1.56678
0.549924
1.19656
1.25236
1.2533
1.29387
1.84993
1.66939
1.81834
1.46337
1.26858
1.35275
1.32051
1.42588
1.41247
1.7703
1.59476
1.463
1.55235
1.74401
1.54985
1.7822
1.79158
1.78685
0.302157
1.60692
1.3496
1.13446
1.33749
1.7361
1.5288
1.65928
1.24274
1.16735
1.18427
0.872155
0.0889892
1.13308
0.0976599
0.0841533
0.369187
0.867343
0.0630117
-0.0504566
-0.012673
-0.0430748
0.00301966
0.213058
0.0528058
0.0549446
