# vtk DataFile Version 4.2
vtk output
ASCII
DATASET POLYDATA
POINTS 642 double
-1.65722 3.29499 -0.198978
1.71078 3.35332 -0.151715
-1.75045 -2.14412 0.00787077
1.65239 -2.0927 0.0175373
0.00543185 -0.97295 2.47062
-0.00321289 2.24036 2.34202
-0.0671105 -1.00441 -2.06466
-0.138049 2.32479 -2.50421
2.53734 0.92171 -1.55428
2.31171 0.716184 1.28028
-2.61788 0.829476 -1.68309
-2.29902 0.606978 1.32412
-2.37306 2.16068 0.697637
-1.30533 1.57885 2.1867
-0.851152 3.08018 1.43467
0.865291 3.08691 1.43119
-0.0188742 3.75418 -0.105192
1.10821 3.27043 -1.61435
-1.10331 3.28581 -1.66281
-1.67046 1.71781 -2.61508
-2.59327 2.3142 -1.09851
-2.91015 0.760115 -0.134088
1.29301 1.60672 2.16274
2.43153 2.19521 0.734754
-1.33925 -0.383155 2.27098
-0.0179127 0.530777 2.80743
-2.53341 -1.05845 -0.868233
-2.47556 -1.09057 0.832736
-0.171812 0.88766 -2.72386
-1.5578 -0.107316 -2.2254
2.62285 2.32754 -1.05181
1.64886 1.76891 -2.42531
2.32399 -1.05276 0.810696
1.30522 -0.393504 2.22773
0.961548 -1.94871 1.51788
-0.998857 -1.96409 1.5098
0.00311662 -2.53681 0.0193925
-1.02434 -1.90749 -1.40144
0.965456 -1.88725 -1.35372
1.40622 -0.152115 -2.00708
2.29416 -1.01688 -0.770491
2.8956 0.838786 -0.0953777
-2.10509 2.81523 0.267645
-1.6556 2.7026 1.15732
-1.27848 3.27211 0.652204
-1.86883 1.12199 1.81013
-1.86604 1.92834 1.56415
-2.41228 1.43302 1.04819
-0.402588 2.70967 2.01312
-1.1404 2.40931 1.90631
-0.639334 1.97841 2.36542
-0.467459 3.54682 0.747438
-0.893232 3.64611 -0.142345
0.402861 2.70965 2.01049
-8.36516e-05 3.21324 1.52538
0.970527 3.63681 -0.134061
0.476752 3.54815 0.750594
1.36195 3.29037 0.607489
-0.55233 3.69263 -0.877892
-1.46942 3.42527 -0.894328
1.497 3.45752 -0.849904
0.559308 3.66963 -0.870746
-0.659204 2.85152 -2.2248
-0.0306725 3.37582 -1.63531
0.600991 2.84647 -2.15138
-1.95802 2.9335 -1.44838
-2.18469 2.93866 -0.633168
-0.9586 2.09384 -2.68367
-1.45435 2.61588 -2.26133
-2.73648 1.52722 -1.48882
-2.27608 2.09298 -1.95424
-2.29304 1.26354 -2.19954
-2.62425 2.30885 -0.151642
-2.86604 0.790964 -0.965212
-2.91604 1.55694 -0.611549
-2.78952 1.52431 0.278223
-2.6816 0.683367 0.630111
1.72422 2.72091 1.11922
2.14178 2.88581 0.28689
0.635252 1.98366 2.35968
1.14942 2.41611 1.90265
2.47574 1.46818 1.04025
1.92031 1.945 1.51603
1.89795 1.1501 1.75387
-0.661371 1.03353 2.60763
-0.00307751 1.47641 2.61962
-1.88528 0.0452916 1.8358
-1.31406 0.554774 2.35787
-0.0163674 -0.242878 2.75016
-0.676676 0.098493 2.70363
-0.684809 -0.712168 2.49469
-2.71474 -0.455949 0.364075
-2.41552 -0.367733 1.11742
-2.51838 -0.116705 -1.2705
-2.74288 -0.373833 -0.475272
-2.24319 -1.7185 0.445531
-2.69237 -1.15866 -0.0145041
-2.25455 -1.71302 -0.43757
-1.68736 0.85738 -2.5944
-2.1867 0.381395 -2.06975
-0.186733 1.62071 -2.74212
-1.02221 1.32151 -2.82289
-0.861735 -0.663896 -2.16411
-1.00436 0.466628 -2.64126
-0.103585 0.0454716 -2.46358
1.45387 2.60144 -2.18456
0.93257 2.12559 -2.49484
2.22903 2.98014 -0.579767
1.96389 2.93596 -1.41165
2.22218 1.33884 -2.04656
2.25777 2.10128 -1.88929
2.70769 1.57688 -1.4046
2.12454 -1.65937 0.44926
1.77841 -1.58131 1.24879
1.39204 -2.13458 0.749086
1.8612 0.0698505 1.80116
1.90203 -0.813818 1.5934
2.32909 -0.243554 1.13152
0.484595 -1.54961 2.08834
1.22803 -1.26879 1.97113
0.66132 -0.754139 2.46195
0.527551 -2.40271 0.831296
0.941046 -2.4374 0.00258499
-0.480498 -1.54382 2.07416
0.00692957 -2.08339 1.58835
-1.00048 -2.43328 0.0111509
-0.550963 -2.41357 0.827944
-1.46383 -2.16878 0.742121
0.554752 -2.3645 -0.725876
1.37141 -2.12044 -0.680512
-1.46543 -2.14747 -0.696743
-0.577676 -2.37259 -0.747014
0.495065 -1.45099 -1.84651
-0.0241413 -1.98479 -1.40746
-0.570659 -1.45818 -1.8944
1.76036 -1.53967 -1.15486
2.10558 -1.64915 -0.39714
0.723993 -0.712135 -2.07033
1.23384 -1.1964 -1.76141
2.39896 0.0581195 -1.1934
1.88246 -0.719954 -1.45825
2.08036 0.49373 -1.87975
2.48884 -1.11036 0.0319575
2.82479 0.890456 -0.897191
2.62357 -0.159986 -0.399719
2.59565 -0.290244 0.372479
2.70019 0.814943 0.647313
0.631686 0.0975664 2.68251
1.29662 0.571779 2.30081
0.621695 1.0628 2.59847
-1.87388 -1.61017 1.25734
-1.30449 -1.28359 1.97139
-1.98839 -0.868437 1.58396
-1.35913 -1.20044 -1.88592
-1.9114 -1.57914 -1.22501
-2.07983 -0.753172 -1.59805
1.63719 0.951057 -2.34711
0.763138 0.430099 -2.46726
0.899422 1.34093 -2.61465
2.83002 1.54586 0.331654
2.92004 1.59807 -0.595165
2.65666 2.35714 -0.140872
-1.88114 3.10031 0.0126134
-1.71192 3.0451 0.470906
-1.49763 3.29616 0.167177
-2.04807 2.43499 0.924144
-1.90457 2.75344 0.714836
-2.26663 2.50557 0.490048
-1.07094 3.20021 1.06244
-1.47837 3.00614 0.935131
-1.25314 2.9232 1.32276
-2.11865 0.847389 1.54987
-2.14427 1.30656 1.45378
-2.35412 1.01409 1.20045
-1.5897 1.76899 1.90955
-1.87697 1.55014 1.70645
-1.6018 1.35779 2.0198
-2.42054 1.7974 0.885005
-2.16169 1.69436 1.3105
-2.13912 2.05391 1.13777
-0.177405 2.46283 2.21888
-0.539806 2.36988 2.20511
-0.282484 2.13935 2.37321
-1.00557 2.77358 1.69341
-0.779756 2.59005 1.97502
-0.624655 2.91372 1.75537
-0.980717 1.79168 2.30288
-0.903513 2.2048 2.16003
-1.24361 2.00422 2.07141
-1.78904 2.32998 1.3802
-1.51939 2.18218 1.76535
-1.40285 2.57965 1.56624
-1.08068 3.49569 0.262385
-1.32057 3.47772 -0.176958
-0.673045 3.33774 1.12293
-0.874327 3.43885 0.723918
-0.48269 3.72958 -0.124549
-0.670953 3.62671 0.297899
-0.252845 3.68981 0.321529
0.172084 2.46189 2.21784
-0.00302557 2.74686 2.02889
0.442329 3.18049 1.50119
0.215417 2.98866 1.78799
0.631327 2.91633 1.75209
-0.217091 2.9876 1.78959
-0.437569 3.17776 1.50337
1.41703 3.50496 -0.154464
1.1711 3.49607 0.241964
1.59376 3.348 0.156596
0.24632 3.68778 0.331966
0.699763 3.62228 0.307794
0.487208 3.71997 -0.103353
1.10298 3.21248 1.05138
0.909489 3.44498 0.716145
0.68684 3.34321 1.12176
-0.230859 3.41119 1.16649
0.234319 3.41237 1.16651
0.000182711 3.58644 0.767218
-1.17827 3.5731 -0.531425
-1.58442 3.37811 -0.512354
-0.289078 3.76957 -0.496408
-0.726388 3.71155 -0.508159
-1.31269 3.40721 -1.28209
-1.03023 3.58544 -0.907109
-0.85073 3.51624 -1.2898
1.632 3.42805 -0.452024
1.24609 3.57251 -0.500192
0.865667 3.49454 -1.2589
1.07039 3.57043 -0.879503
1.32374 3.40467 -1.2439
0.77539 3.69091 -0.499102
0.254113 3.75944 -0.490824
-0.402372 2.56273 -2.39245
-0.0684383 2.8728 -2.14897
0.237661 2.57181 -2.34079
-0.6147 3.35139 -1.66609
-0.36546 3.14081 -1.93958
-0.881373 3.08839 -1.98297
0.865962 3.06992 -1.9167
0.29362 3.13698 -1.90937
0.589953 3.33286 -1.63186
-0.0260343 3.71228 -0.875042
0.273822 3.56839 -1.26955
-0.310649 3.58164 -1.27967
-1.85573 3.21433 -0.793749
-1.91111 3.16006 -0.393848
-1.53314 3.15981 -1.58285
-1.72634 3.22511 -1.18854
-2.41411 2.6617 -0.865148
-2.10998 2.96202 -1.04516
-2.32142 2.64309 -1.28233
-0.582243 2.23086 -2.59562
-0.841555 2.49872 -2.4843
-1.58556 2.16908 -2.47829
-1.20733 2.36537 -2.5236
-1.29921 1.92512 -2.70403
-1.06645 2.76992 -2.27198
-1.28868 2.99614 -1.98354
-2.69531 1.13943 -1.61674
-2.55194 1.41636 -1.86894
-2.50592 1.02353 -1.92168
-2.48184 2.2299 -1.5317
-2.55168 1.82376 -1.7288
-2.69949 1.91886 -1.3131
-2.01594 1.49162 -2.43265
-2.31114 1.67299 -2.12162
-1.99684 1.91374 -2.32762
-1.72955 2.80968 -1.8835
-1.89209 2.37846 -2.14024
-2.1498 2.54217 -1.72389
-2.18451 2.89003 -0.177872
-2.63781 2.33733 -0.633979
-2.43932 2.63757 -0.404384
-2.39366 2.57914 0.0682795
-2.53135 2.24936 0.286947
-2.74597 0.821408 -1.38744
-2.83075 1.18513 -1.23605
-2.94584 1.1726 -0.368424
-2.92637 1.18542 -0.790184
-2.92234 0.77721 -0.549697
-2.84958 1.56581 -1.06453
-2.78929 1.94552 -0.872164
-2.58722 1.10998 0.826797
-2.48532 0.636357 1.02924
-2.61421 1.86129 0.49292
-2.63071 1.49911 0.657531
-2.82537 0.726207 0.24971
-2.77175 1.14927 0.438251
-2.88943 1.15886 0.0634708
-2.81498 1.94721 -0.383761
-2.89125 1.54863 -0.151065
-2.75017 1.91891 0.0766022
1.79153 3.10938 0.445316
1.91941 3.17011 0.0399388
1.28232 2.93605 1.31268
1.55194 3.02965 0.890804
2.31311 2.56044 0.522729
1.98194 2.80857 0.699148
2.12827 2.4724 0.913855
0.279669 2.13813 2.37239
0.542842 2.36886 2.20384
1.24053 2.02237 2.05901
0.905743 2.21082 2.15586
0.967636 1.81146 2.28901
0.787859 2.59102 1.97281
1.0192 2.77904 1.69023
2.40863 1.09142 1.16787
2.21011 1.34173 1.39352
2.15037 0.914372 1.48979
2.22047 2.07819 1.11523
2.24 1.71851 1.2668
2.48604 1.82249 0.905217
1.60646 1.37817 1.98237
1.92213 1.57129 1.64992
1.59778 1.79301 1.88081
1.4282 2.5906 1.5569
1.53697 2.19791 1.75017
1.85115 2.34331 1.3421
-0.328879 1.73779 2.5214
-0.00244506 1.93038 2.47878
-1.0056 1.33751 2.41529
-0.674133 1.54872 2.49538
-0.0100898 0.976268 2.73109
-0.325794 1.24932 2.65068
-0.323996 0.753401 2.75744
-2.12883 0.338587 1.56368
-1.86517 0.59226 1.86149
-1.32249 0.081781 2.35904
-1.58441 0.312382 2.14004
-1.61937 -0.18924 2.0733
-1.58722 0.851112 2.10294
-1.32202 1.08857 2.28367
-0.00757352 -0.64558 2.62238
-0.347296 -0.461095 2.66574
-0.307392 -0.860845 2.51101
-0.337289 0.314769 2.7955
-0.348668 -0.0630156 2.76298
-0.0192709 0.139402 2.81088
-1.02516 -0.556343 2.41254
-0.692652 -0.295586 2.63062
-1.01054 -0.128572 2.52972
-1.01155 0.787231 2.51289
-1.01107 0.306394 2.56661
-0.670627 0.52198 2.70309
-2.5504 0.0964391 0.884736
-2.35334 0.165121 1.24557
-2.79053 0.151487 0.120212
-2.70207 0.105874 0.494154
-2.45705 -0.767966 0.976935
-2.59651 -0.443358 0.743552
-2.62645 -0.816753 0.597113
-2.60045 0.49113 -1.54781
-2.7374 0.367961 -1.12132
-2.6767 -0.772922 -0.654479
-2.66726 -0.283071 -0.834509
-2.52478 -0.699682 -1.03693
-2.80422 0.266718 -0.718824
-2.825 0.205815 -0.324289
-1.98711 -1.98331 0.202472
-2.29636 -1.73518 0.0024777
-1.98838 -1.98013 -0.189158
-2.62454 -1.14498 0.420457
-2.53177 -1.44815 0.225727
-2.41672 -1.41364 0.659239
-2.45467 -1.40312 -0.670346
-2.54498 -1.44552 -0.233917
-2.65734 -1.12923 -0.451247
-2.76661 -0.445639 -0.0530309
-2.75249 -0.831012 -0.243619
-2.73454 -0.845835 0.183292
-2.254 0.834201 -2.17789
-2.45073 0.630092 -1.87573
-1.699 1.29484 -2.64479
-2.00055 1.06796 -2.44119
-1.88016 0.13817 -2.19772
-1.95509 0.613107 -2.36298
-1.64096 0.403409 -2.4658
-0.16219 2.0139 -2.63838
-0.661936 1.84453 -2.73912
[...]
POINT_DATA 642
SCALARS Mean_Curvature double 1
LOOKUP_TABLE default
0.585192
0.840824
0.891102
0.776085
0.661277
0.710957
0.0229734
0.31637
0.752117
0.291798
0.847303
0.383702
0.615606
0.602534
0.73906
0.719984
0.45101
0.878015
0.876676
1.03066
0.844281
0.683438
0.549771
0.751176
0.650985
0.899626
1.08642
1.0254
0.443934
0.354651
0.899125
1.10995
0.640041
0.447855
0.773239
0.704515
0.48864
0.745812
0.859628
0.122693
0.734049
0.736989
0.680668
0.593928
0.568635
0.468276
0.610445
0.514493
0.857971
0.702069
0.707435
0.657493
0.691419
0.810602
0.794339
0.637765
0.63453
0.492725
0.745547
0.779671
1.05902
0.600585
0.693351
0.499556
0.505797
0.792582
0.728507
0.980896
0.890227
0.983644
0.775251
0.884741
0.797459
0.615227
0.870229
0.740816
0.296624
0.483058
0.692301
0.723021
0.718897
0.676607
0.506881
0.441358
0.337254
0.624222
0.337553
0.584124
0.853367
0.872486
0.684171
0.445322
0.471649
0.112042
0.291036
0.849298
1.31162
0.812471
0.900073
0.7398
0.53565
1.03048
0.0873307
0.680169
0.326961
1.02561
0.242348
0.858655
0.789718
0.908827
0.981902
0.986485
0.916969
0.934884
0.727737
0.336369
0.603809
0.430391
0.858712
0.791233
0.715687
0.698537
0.989067
0.538843
0.768061
0.613024
0.731103
0.737035
0.729864
0.815962
0.715422
0.743147
0.884026
0.411811
0.897086
0.99231
0.909073
0.189107
1.00886
0.197315
0.298698
0.600561
1.25994
0.689366
0.339511
0.414718
0.615614
0.822749
0.385035
0.470498
0.862367
0.932016
0.574709
1.00223
0.822613
0.586076
0.810059
0.409059
0.527079
0.90061
0.877333
0.708556
0.683923
0.379709
0.337819
0.48536
0.437168
0.656044
0.659354
0.586751
0.673489
0.324799
0.45829
0.206954
0.639763
0.545223
0.538236
0.583359
0.521373
0.514007
0.857857
0.758164
0.704365
0.73751
0.770598
0.808388
0.674744
0.701337
0.692609
0.597936
0.656619
0.670974
0.556285
0.585565
0.705878
0.624829
0.565049
0.608955
0.603387
0.815427
0.859494
0.773404
0.820931
0.77823
0.837632
0.796102
0.969706
0.405286
0.76764
0.58474
0.531222
0.466172
0.622418
0.575975
0.695398
0.738172
0.725158
0.674035
0.752726
0.656991
0.832726
0.837166
1.03638
0.694119
0.655499
0.966598
0.641734
0.559188
0.560848
1.01528
0.696143
0.703018
0.192762
0.201558
0.240162
0.629752
0.571656
0.722555
0.541366
0.543464
0.538239
0.575786
0.618644
0.699882
0.888926
0.715971
0.837507
0.930734
0.820426
0.856737
0.852599
0.460932
0.899991
0.791076
1.03116
1.20361
0.953708
0.99817
0.938419
0.947173
0.869384
0.864655
0.900367
0.77567
0.929182
0.915799
0.817235
0.741863
0.731487
0.768643
0.723331
0.700161
0.722474
0.773489
0.77637
0.606845
0.661575
0.745096
0.731537
0.657738
0.735029
0.709864
0.519945
0.379985
0.706332
0.640741
0.517045
0.653035
0.747977
0.838144
0.788889
0.832546
0.637106
0.741079
0.636736
0.496234
0.721131
0.636237
0.638756
0.707606
0.764357
0.697733
0.754557
0.655678
0.761702
0.722354
0.532497
0.486127
0.295204
0.617065
0.588166
0.763375
0.467202
0.458157
0.562613
0.646949
0.657783
0.498984
0.67747
0.726741
0.546162
0.5981
0.523746
0.603634
0.81809
0.362699
0.371775
0.6886
0.362715
0.394307
0.30165
0.54329
0.752909
0.776119
0.667661
0.918212
0.873852
0.944777
0.677007
0.796725
0.751315
0.517119
0.797488
0.82237
0.327844
0.351129
0.294851
0.326008
0.57388
0.468061
0.735175
0.62449
0.544541
0.829698
0.219697
0.578688
0.345571
0.226424
0.825672
0.822385
0.829638
1.1839
1.29306
1.14005
1.20246
1.29895
1.20716
0.365242
1.01631
0.962496
0.805603
0.794366
0.971416
0.855706
0.793908
0.785906
0.852104
0.381174
0.519609
0.382936
0.512307
0.515499
1.15506
1.25345
0.234139
-0.107891
-0.174876
0.829755
0.0617214
0.0897998
0.375066
0.340055
0.386167
1.09202
0.877936
0.92947
0.71454
0.355027
0.958555
0.937759
1.0208
1.16407
1.15576
0.863014
0.82063
0.815842
0.83752
0.839452
0.78334
0.858001
0.846363
0.959051
0.875932
1.02868
0.993119
0.961173
1.04268
1.02625
0.866844
0.772198
0.785521
0.859527
0.812958
0.777405
0.776964
0.973049
0.91243
1.26649
0.748867
0.765182
0.80434
0.35952
0.39811
0.368268
0.612709
0.619372
0.428704
0.583453
0.627556
0.604617
0.496464
0.488435
0.71669
0.906572
1.08323
0.789699
0.609866
0.5869
0.589813
0.701111
0.677334
0.912216
0.744165
0.775214
0.728922
0.723995
0.644842
0.595523
0.625435
0.564814
0.643797
0.80389
0.418835
0.779711
0.778702
0.749417
0.818561
0.740611
0.809017
0.621349
0.585385
0.673976
0.690322
0.70158
0.746519
0.771628
0.513797
0.648232
0.850558
0.813482
0.689929
0.868308
0.809667
0.982598
0.787459
0.823301
0.759974
0.769294
0.83079
0.724341
0.771079
0.580941
0.825962
0.594854
0.704947
0.611482
0.555635
0.645908
0.698396
0.568642
0.664409
0.556277
0.631582
0.638286
0.806783
0.795299
0.831298
0.802403
1.14683
0.943742
1.06228
0.271807
0.826223
0.303531
0.63433
0.253838
1.0017
0.990056
0.615723
0.559656
0.689887
0.429015
0.341101
0.345351
0.484876
0.0902297
0.283055
1.05333
0.731861
0.997728
0.950484
1.04219
1.30083
1.40013
1.12558
0.718775
0.581071
0.624445
0.608366
0.717804
0.233034
0.354745
0.374394
0.306153
0.600199
0.402666
0.702561
0.38958
0.22422
0.44363
0.384158
0.616337
0.788166
0.681728
0.746715
0.859074
0.896193
0.324229
0.510171
0.395146
0.31218
0.59496
0.687483
0.784562
0.650922
0.620297
0.529753
0.721514
0.295753
0.770958
0.771863
0.720133
0.745604
0.845695
1.0061
0.574223
0.355089
0.529134
1.01963
0.78596
0.371553
0.844358
0.480562
0.479615
0.428802
0.994085
0.703494
0.945693
0.828494
0.842481
1.04904
0.91482
0.386354
0.774723
1.11362
0.785474
0.681699
0.616128
0.672678
0.0814929
-0.0478434
0.145591
0.96913
0.981241
1.03884
0.935552
0.77869
0.582828
0.681535
0.851267
0.977307
0.0147704
0.448492
0.402817
0.191572
0.231358
0.424416
0.870444
0.513097
0.536419
0.501567
0.296995
0.465671
0.429203
0.68022
0.843108
0.788879
0.821154
0.847388
0.833897
0.854329
0.923139
0.798363
0.832542
0.781708
0.764504
0.717606
0.833493
0.904864
0.927911
0.721512
0.832181
SCALARS CoVolArea double 1
LOOKUP_TABLE default
0.107769
0.0884678
0.0953243
0.0947429
0.102315
0.0786571
0.122282
0.145448
0.0830474
0.118974
0.0897493
0.126661
0.177435
0.16957
0.167908
0.173045
0.207827
0.19121
0.192534
0.177874
0.188305
0.209214
0.173071
0.169001
0.184244
0.137531
0.152707
0.144279
0.206239
0.211947
0.18385
0.143755
0.144309
0.18969
0.180932
0.189086
0.219584
0.178612
0.163394
0.244997
0.152615
0.16942
0.180585
0.200624
0.201579
0.190809
0.185008
0.172664
0.141563
0.169088
0.151605
0.198705
0.180951
0.144741
0.171187
0.190306
0.204087
0.20266
0.205298
0.172059
0.170274
0.223983
0.188826
0.24157
0.20937
0.205303
0.170307
0.147724
0.202597
0.162474
0.208485
0.16193
0.18407
0.190248
0.182396
0.162574
0.220039
0.21084
0.170495
0.148024
0.169887
0.145959
0.192641
0.195752
0.192925
0.162624
0.213594
0.182623
0.138595
0.148281
0.173955
0.197951
0.189491
0.248003
0.208585
0.17426
0.146658
0.175206
0.166973
0.186815
0.213443
0.132828
0.192863
0.167607
0.28308
0.185752
0.17497
0.170657
0.206088
0.141823
0.190448
0.146071
0.159837
0.177406
0.178989
0.197127
0.174874
0.200276
0.166025
0.163585
0.165295
0.210348
0.170135
0.184819
0.201212
0.186749
0.214028
0.183991
0.187728
0.163295
0.175518
0.201175
0.159181
0.211275
0.158208
0.167327
0.159391
0.178158
0.144657
0.222567
0.198357
0.177591
0.132119
0.162763
0.249562
0.214808
0.178923
0.152468
0.198485
0.192899
0.188209
0.179356
0.165801
0.172027
0.194259
0.198292
0.157924
0.23268
0.200477
0.157608
0.174349
0.190566
0.16327
0.203213
0.182905
0.200539
0.196262
0.173812
0.175951
0.193438
0.180963
0.18119
0.182728
0.170196
0.170038
0.171214
0.173514
0.16839
0.176803
0.193373
0.117485
0.141788
0.123893
0.167799
0.149687
0.150671
0.158648
0.152299
0.165813
0.208305
0.189078
0.194066
0.199507
0.164928
0.181121
0.189246
0.181607
0.192451
0.209365
0.119192
0.139505
0.170936
0.151041
0.153912
0.149296
0.168381
0.144356
0.199487
0.154078
0.216066
0.208571
0.205625
0.190639
0.203274
0.186648
0.196648
0.198281
0.214767
0.174635
0.146984
0.191938
0.175677
0.184315
0.188921
0.212932
0.136576
0.16673
0.218438
0.188246
0.180446
0.194678
0.211327
0.186998
0.232699
0.212367
0.21818
0.218126
0.180942
0.188381
0.227566
0.227852
0.228956
0.252147
0.241244
0.163628
0.146294
0.197796
0.177244
0.17682
0.175548
0.195104
0.158911
0.160564
0.200956
0.16723
0.156848
0.167399
0.191085
0.13223
0.158836
0.134355
0.19722
0.17705
0.176855
0.169536
0.177527
0.202364
0.22778
0.23207
0.227567
0.17045
0.193409
0.177366
0.168681
0.16982
0.151037
0.164914
0.1727
0.173737
0.199541
0.174733
0.193286
0.181553
0.192635
0.165323
0.158785
0.204665
0.169282
0.168021
0.199007
0.180008
0.182148
0.182156
0.14109
0.195719
0.201342
0.171293
0.186955
0.191797
0.124185
0.142796
0.164982
0.149195
0.154299
0.151246
0.172148
0.142157
0.168909
0.173395
0.182309
0.165305
0.150474
0.183363
0.180132
0.180914
0.207017
0.19856
0.216725
0.158181
0.12976
0.186978
0.173661
0.156228
0.174512
0.162131
0.190938
0.210928
0.175925
0.197485
0.193619
0.19488
0.188073
0.133739
0.149029
0.151814
0.13934
0.136438
0.128343
0.173208
0.151704
0.162835
0.194621
0.170312
0.172901
0.227985
0.19113
0.248082
0.233121
0.146391
0.188073
0.146328
0.178592
0.225324
0.162377
0.2227
0.187387
0.224854
0.251063
0.149802
0.172315
0.148225
0.144418
0.161821
0.159394
0.165086
0.164092
0.149168
0.219308
0.160472
0.155032
0.161541
0.147308
0.164926
0.163286
0.199691
0.169131
0.17725
0.206402
0.167705
0.168112
0.15418
0.195556
0.131567
0.14665
0.181598
0.270721
0.263947
0.185684
0.208627
0.207806
0.21317
0.225699
0.187699
0.155391
0.153996
0.16236
0.182419
0.205944
0.186018
0.167088
0.143031
0.151526
0.166713
0.139894
0.170483
0.199361
0.183989
0.177016
0.182746
0.193612
0.122138
0.142479
0.121812
0.170053
0.153177
0.141762
0.162988
0.160999
0.192977
0.219327
0.222223
0.211713
0.142718
0.170112
0.148631
0.160119
0.16549
0.143555
0.179751
0.17649
0.181935
0.18505
0.188976
0.186292
0.183716
0.175681
0.185222
0.166419
0.172192
0.16342
0.155309
0.161727
0.144929
0.171715
0.154873
0.165204
0.174332
0.158699
0.177298
0.180367
0.182219
0.18403
0.177483
0.145767
0.195082
0.187903
0.187614
0.190649
0.219385
0.165244
0.181769
0.198004
0.187073
0.177276
0.177347
0.188927
0.148627
0.182301
0.15029
0.222556
0.199531
0.204837
0.187825
0.193368
0.201944
0.219763
0.224451
0.23324
0.161
0.142482
0.203897
0.165515
0.160882
0.160637
0.173815
0.14661
0.174289
0.185841
0.177336
0.177405
0.187716
0.215038
0.141872
0.17867
0.139335
0.185692
0.187418
0.156405
0.163544
0.186168
0.189557
0.227734
0.22256
0.218673
0.163499
0.141555
0.168682
0.165268
0.145313
0.161093
0.155372
0.177096
0.13839
0.184839
0.138847
0.205807
0.136477
0.156285
0.152018
0.200067
0.135226
0.170944
0.216638
0.203268
0.209673
0.224584
0.224056
0.167777
0.174837
0.16867
0.156084
0.143128
0.142198
0.140436
0.132547
0.132493
0.198926
0.214066
0.215213
0.164933
0.2497
0.203698
0.220789
0.163493
0.16182
0.212683
0.17026
0.225162
0.216729
0.186521
0.228559
0.165025
0.151031
0.174417
0.158257
0.137766
0.140298
0.212774
0.19888
0.202446
0.200797
0.187174
0.154348
0.159974
0.167542
0.167036
0.191319
0.184464
0.212354
0.179678
0.177729
0.19341
0.18562
0.177665
0.167921
0.186765
0.187094
0.183971
0.176787
0.182036
0.200944
0.151548
0.163931
0.189314
0.18724
0.191439
0.182346
0.177758
0.142707
0.179716
0.149108
0.164137
0.200854
0.173921
0.175504
0.180182
0.182742
0.193096
0.213688
0.222962
0.221173
0.210484
0.167678
0.199626
0.189624
0.198069
0.14459
0.206086
0.156106
0.140949
0.143172
0.256598
0.216456
0.233135
0.232104
0.247942
0.227962
0.154171
0.18313
0.216495
0.21762
0.214389
0.22288
0.181456
0.144435
0.15434
0.141575
0.140102
0.16402
0.146015
0.177749
0.153593
0.156228
0.163898
0.165168
0.181272
0.173992
0.172858
0.185325
0.183747
0.200665
0.194255
SCALARS SignedDistance double 1
LOOKUP_TABLE default
2.13079
1.92042
1.57638
1.7318
2.06768
2.15084
3.28225
2.27442
2.4514
2.64302
2.393
2.49802
2.22279
2.35247
1.96972
1.97235
2.01995
1.94203
1.91669
1.94698
1.75996
2.51478
2.39348
2.12324
2.34673
2.28924
2.42555
2.17836
2.66074
3.10143
1.66658
2.32418
2.31195
2.45119
1.77813
1.81348
2.20985
2.29014
2.29583
3.09194
2.60338
2.44216
2.08825
2.15348
2.0632
2.53264
2.30467
2.46836
2.00353
2.12649
2.22815
1.91055
2.05138
2.01652
1.87998
2.07863
1.93858
2.16401
1.70667
1.94007
1.74668
1.80614
2.23169
2.06058
2.27727
1.54495
1.82323
2.21702
1.71868
2.01779
1.59772
2.0695
1.91335
2.43186
2.04395
2.25679
2.59666
2.22332
1.97568
2.23336
2.14686
2.39798
2.37169
2.56309
2.52934
2.36906
2.4729
2.547
1.99817
2.16961
2.10106
2.40943
2.39323
2.84459
2.56504
1.7054
2.14255
1.78493
2.47442
2.67424
2.3804
2.51872
3.15096
2.9816
3.05744
1.92766
2.4618
1.67001
1.54222
2.31964
1.82986
2.05736
1.87588
1.97518
1.7176
2.53617
2.27737
2.47391
2.08507
2.1815
2.23524
1.82413
1.76868
2.28307
2.01863
1.85496
1.88829
1.67501
2.10156
1.87558
1.82695
2.22933
2.79353
2.66402
2.85173
2.33991
2.0761
3.10109
2.76748
2.85654
2.79608
2.77766
2.37756
2.40085
2.66391
2.53731
2.57105
2.25366
2.6355
2.538
1.90694
2.25866
2.32545
2.74211
2.17167
2.85093
2.73158
2.90576
2.58349
2.17446
2.0364
1.84734
2.08395
2.19539
2.2089
2.23925
2.20395
2.13972
1.99638
2.10208
2.04798
2.57307
2.51518
2.60757
2.31532
2.40545
2.42971
2.33358
2.40298
2.3097
2.08299
2.12779
2.1704
2.04106
2.07053
1.97083
2.29067
2.16691
2.22154
2.21871
2.19988
2.11693
2.08223
2.15381
1.92895
1.9652
2.03265
1.99595
1.9557
2.08844
1.98117
1.90636
1.92733
1.97531
1.90738
1.90175
2.06909
2.19325
2.09552
1.96558
2.05288
2.05899
2.02501
2.01827
1.92849
1.88421
1.88504
1.88431
1.95548
2.06797
1.92742
1.84539
1.84095
1.80708
1.8199
1.81077
1.98571
1.88542
1.88752
1.81254
1.88551
1.94916
2.34463
2.27906
2.27378
1.93118
2.12379
2.06673
2.11947
2.13777
1.96081
1.91874
1.90726
1.84763
1.8373
1.96444
1.6213
1.67638
1.73706
1.66324
1.60287
2.39
2.16358
1.76186
1.96285
2.04283
1.96832
1.79044
2.21193
1.97904
2.23043
1.66907
1.74927
1.86693
1.9752
1.80255
1.71788
1.5678
1.60114
1.54208
1.92147
1.79893
1.82146
1.97267
2.077
2.43766
2.23571
2.25917
2.21539
2.45356
2.03945
1.85697
2.55397
2.52291
2.22163
2.36848
2.61253
2.45193
2.35193
1.92706
2.13196
2.0805
2.12288
1.94787
2.07611
2.17925
2.02648
2.14431
2.19595
2.16885
2.11797
2.27784
2.18354
2.31548
2.06583
2.04746
2.55054
2.50211
2.64324
2.28445
2.38963
2.25224
2.47082
2.46016
2.38529
2.15503
2.26532
2.2879
2.29535
2.22738
2.41948
2.3676
2.51071
2.4791
2.4035
2.45293
2.53042
2.39108
2.51697
2.47964
2.5977
2.5054
1.99148
1.98344
2.0334
2.18888
2.04137
2.1098
2.20944
2.07981
2.21855
2.55393
2.34809
2.34713
2.45612
2.44042
2.58707
2.51278
2.33117
2.38496
2.33892
2.63304
2.68673
2.55392
2.66641
2.70043
2.73303
2.68935
1.5678
1.64234
1.60663
2.14037
1.88243
1.95497
2.10633
1.94208
2.2611
2.47888
2.42227
2.34239
2.35597
2.50209
2.20564
2.24696
2.8803
2.54605
2.77037
2.28988
2.44648
2.71922
2.59177
2.51225
2.34073
2.24958
3.19967
3.26246
3.30404
3.02088
3.24709
3.11296
2.83545
3.02956
2.86741
2.47459
2.73405
2.7352
2.38214
2.28581
1.86785
2.10518
2.41456
2.24813
2.14089
1.78463
1.63756
1.55995
1.56967
1.62919
1.58119
1.65473
2.38518
2.16033
2.27847
2.06325
2.08648
2.29109
1.83267
1.91652
1.67011
1.67047
1.62005
1.82308
1.72918
1.76648
1.67216
2.16947
1.93412
2.13786
1.73332
1.81077
1.85349
2.54841
2.49487
2.52962
2.3499
2.42417
2.53185
2.36051
2.36259
2.26413
2.23168
2.30873
2.12832
1.94719
2.12202
1.89355
2.34447
2.33991
2.32886
2.16109
2.21463
2.07015
1.74135
1.68314
1.71271
1.73175
1.95897
1.86914
1.99484
2.16531
2.23106
1.99587
2.2057
2.01785
1.98654
1.80952
1.71906
1.76546
1.6304
2.10402
1.88366
2.07626
1.72213
1.74148
1.78053
1.83974
2.04403
2.04504
1.72929
1.76035
2.11871
1.91188
2.04955
1.93816
2.17007
1.67063
1.7861
2.22338
1.9863
2.02313
2.01458
2.29557
3.07778
2.99632
3.12801
2.41309
2.67454
2.531
2.56576
2.773
2.50221
2.38487
2.50459
2.3598
1.94708
1.85213
2.2543
2.07793
2.35622
2.19551
2.47596
3.18108
2.98564
2.9398
2.97774
3.07686
2.75744
2.5026
2.61076
2.82048
2.58946
2.70813
2.81753
2.68271
2.99183
2.97784
2.92304
2.54875
2.81679
2.63916
1.93238
2.48608
2.23298
2.1061
2.32893
2.42339
2.60716
2.65797
2.61491
2.40944
2.76981
2.59545
2.55511
2.64095
2.41601
2.48141
2.4956
2.62628
2.68914
2.5356
2.58001
2.49092
2.06715
2.32029
2.18426
2.10683
2.24674
2.61408
2.51769
2.62107
2.59143
2.50086
2.29044
2.46059
2.46869
2.36273
2.42918
2.43902
2.60186
2.42447
1.65096
1.83609
1.74382
1.79932
2.0256
2.22484
2.40448
2.32141
2.20286
1.97428
2.44611
2.24528
2.34564
2.42926
2.43725
2.06938
2.30539
2.15753
3.02102
2.44125
2.75753
2.99163
3.00624
1.76307
2.29552
1.96676
1.95532
2.16397
2.85144
2.97989
2.98486
2.82439
2.6262
2.46369
2.54013
2.79241
2.55039
2.96184
2.74328
2.51529
2.51773
3.22681
2.73538
2.94405
3.1789
3.12362
2.30167
2.58876
2.49684
2.41257
2.55172
2.91595
2.71773
2.76771
2.45551
2.28736
2.36252
2.27951
2.11154
2.22986
1.85432
2.03447
2.21434
2.23513
1.8332
1.96529
1.88476
1.77293
1.7622
2.07053
1.87998
1.96149
