# vtk DataFile Version 4.2
vtk output
ASCII
DATASET POLYDATA
POINTS 642 double
-1.03948 2.06639 -0.350404
1.07585 2.05616 -0.254546
-1.3953 -1.65948 -0.00309778
0.927403 -1.35839 0.178952
-0.0131259 -0.253857 1.21875
-0.00414783 1.72306 1.33808
-0.13788 -0.128959 0.05925
-0.241518 1.88826 -1.28027
1.19614 1.49954 -0.451303
0.805022 0.888072 0.351984
-0.9625 1.40029 -0.365419
-1.00861 0.589045 0.458033
-1.36583 1.67904 0.173758
-0.615053 1.21849 1.05062
-0.591632 2.40365 0.919023
0.625238 2.39287 0.883009
0.0095242 2.77467 -0.218268
0.977344 1.93839 -0.329862
-0.956104 1.95873 -0.475358
-1.30259 1.80821 -0.83748
-1.9138 1.95528 -0.914991
-0.915646 1.03099 -0.0196125
0.586458 1.27639 1.00126
1.4128 1.7522 0.120417
-0.40341 -0.0842648 0.92441
-0.0455319 0.269966 1.12644
-1.09926 -0.593304 -0.0607843
-1.27768 -0.768792 0.375454
-0.189316 1.53191 -0.753549
-0.67133 0.87218 -0.18158
2.00344 1.93583 -0.821982
0.996673 1.81158 -0.410146
1.1358 -0.632081 0.417816
0.372772 -0.127695 0.891975
0.583723 -1.22117 0.955771
-0.657689 -1.10353 0.668148
0.131503 -0.855053 0.440428
-0.666145 -0.799698 0.0904536
0.463069 -0.807071 0.189547
0.486076 0.593753 -0.0971342
0.91676 -0.476299 -0.0607645
1.12917 1.23874 -0.117272
-1.2921 2.04649 -0.112922
-0.959125 2.01992 0.546192
-0.770391 2.33317 0.213942
-0.746941 0.890089 0.64561
-0.891626 1.51481 0.663457
-0.961855 1.15589 0.24694
-0.212903 2.0454 1.25549
-0.663897 1.84782 1.11135
-0.282805 1.54461 1.22251
-0.340047 2.8046 0.434376
-0.49293 2.442 -0.24236
0.21555 2.04421 1.25362
0.00469366 2.56033 1.04719
0.583695 2.34854 -0.233864
0.337989 2.68833 0.392625
0.794602 2.20334 0.125407
-0.301113 2.56386 -0.610701
-0.968734 1.98172 -0.461802
0.981514 1.95217 -0.314797
0.309609 2.5613 -0.570234
-0.648985 1.94727 -0.662302
-0.0455557 2.43948 -0.8818
0.376896 2.07833 -1.02589
-1.54099 2.17728 -1.024
-1.51394 2.3011 -0.584413
-0.667507 1.84174 -0.610523
-1.40124 1.9662 -1.0119
-1.53948 1.53894 -0.930239
-1.75946 1.78998 -1.51073
-1.33513 1.69353 -0.832953
-1.69918 1.84938 -0.302428
-0.951387 1.27125 -0.241141
-1.56379 1.53788 -0.519733
-1.33645 1.40783 -0.129506
-0.937941 0.795279 0.164962
1.01214 2.02438 0.461998
1.37686 2.15651 -0.0812658
0.272023 1.56082 1.23219
0.637033 1.84958 1.02179
1.12215 1.27811 0.261867
0.949371 1.55998 0.574958
0.714437 0.981032 0.541035
-0.231316 0.762094 1.08181
-0.0212186 1.19119 1.19273
-0.915067 0.157867 0.859336
-0.445121 0.468748 0.954142
0.0648269 -0.0297554 1.70181
-0.227583 0.112114 1.25732
-0.214955 -0.236208 1.2123
-1.27254 -0.198858 0.130278
-1.27394 -0.143497 0.492647
-0.842209 0.499693 -0.0507015
-1.11215 0.00309979 -0.0589959
-1.29371 -1.23764 0.266112
-1.27606 -0.803256 0.0934345
-1.16897 -1.24339 0.129479
-0.894437 1.64105 -0.512664
-0.819191 1.30932 -0.286662
-0.240807 1.57901 -1.14102
-0.665286 1.74698 -0.573706
-0.498144 0.190916 -0.0620729
-0.555929 1.36595 -0.453337
-0.186261 0.88416 -0.316885
0.998567 1.88483 -0.386248
0.375609 1.84316 -0.9509
1.64916 2.54126 -0.482026
1.56078 2.2018 -0.780911
1.19002 1.67797 -0.556313
1.50742 1.93813 -0.793075
1.50617 1.63287 -0.719035
1.01801 -1.08257 0.306476
1.03454 -1.01191 0.720343
1.14979 -1.59263 0.523065
0.84456 0.225742 0.817388
0.888842 -0.472163 0.722854
1.14394 0.0569492 0.512939
0.256726 -0.695979 0.765376
0.577272 -0.698886 0.951702
0.111584 -0.217353 1.15904
0.379131 -1.401 0.579223
0.756454 -1.45306 0.189099
-0.165139 -0.598682 0.700222
0.172527 -0.845279 0.602266
-0.8505 -1.38014 0.177563
-0.395417 -0.88493 0.480468
-1.17765 -1.65842 0.55204
0.361586 -0.944296 0.295203
0.749642 -1.24545 0.206204
-1.00449 -1.22667 0.100365
-0.462738 -0.875253 0.264489
0.140229 -0.459658 0.161859
-0.093294 -0.664676 0.278247
-0.386661 -0.445807 0.134201
0.688731 -0.782607 0.043659
0.890836 -1.03874 0.178551
0.208307 0.0646419 -0.00377354
0.468692 -0.417562 0.0320171
0.737432 0.719294 -0.00695078
0.687052 -0.0747677 -0.0601573
0.701597 1.2223 -0.200338
1.07373 -0.644545 0.136133
1.24819 1.39821 -0.34927
0.915608 0.335141 0.0424295
1.13592 0.0955824 0.167088
0.81766 1.0187 0.201364
0.119454 0.115309 1.18736
0.42854 0.519172 0.953121
0.197734 0.829703 1.08314
-1.19615 -1.05226 0.701188
-0.615086 -0.663728 0.663973
-1.01825 -0.524845 0.698889
-0.71671 -0.374584 -0.0132681
-0.94653 -0.811569 -0.0619178
-0.839189 -0.0528106 -0.0611656
0.693745 1.5457 -0.382329
0.187933 1.23346 -0.44564
0.261002 1.65576 -0.805867
1.50708 1.44959 -0.0393335
1.70083 1.52581 -0.46142
1.96081 1.95816 -0.178423
-1.1498 2.07401 -0.279243
-1.00354 2.10761 0.0263264
-0.884956 2.17334 -0.154842
-1.17665 1.84959 0.342701
-1.14191 2.04711 0.214572
-1.40887 1.93872 0.0780412
-0.711061 2.42712 0.580601
-0.902509 2.22249 0.4101
-0.786135 2.22418 0.7494
-0.900644 0.681589 0.52275
-0.851171 1.00316 0.459943
-0.916865 0.818249 0.353609
-0.776291 1.37554 0.904093
-0.845719 1.20326 0.681584
-0.639498 1.08407 0.817845
-1.23234 1.41109 0.227491
-0.958595 1.34021 0.414939
-1.12513 1.60101 0.413565
-0.0799774 1.85369 1.33918
-0.254447 1.80533 1.27378
-0.120664 1.66414 1.33774
-0.629668 2.13606 1.03796
-0.43709 1.97866 1.2114
-0.3893 2.2393 1.13874
-0.473706 1.38573 1.2093
-0.4591 1.69497 1.21038
-0.653753 1.54249 1.1007
-1.00775 1.78086 0.655628
-0.855612 1.67085 0.936616
-0.886032 1.98794 0.901636
-0.642287 2.41088 -0.0148292
-0.768866 2.19258 -0.29187
-0.468856 2.60305 0.703506
-0.638728 2.61976 0.344018
-0.306343 2.68912 -0.244516
-0.462818 2.67765 0.0371468
-0.157211 2.81584 0.0838989
0.0745446 1.85455 1.33921
-0.00176408 2.06019 1.25097
0.332297 2.55079 1.02772
0.134934 2.30835 1.21219
0.437784 2.26379 1.19164
-0.134391 2.30372 1.21206
-0.321015 2.54637 1.04297
0.931596 2.07702 -0.253554
0.693514 2.27617 -0.0507593
1.04638 2.06162 -0.177985
0.164776 2.70612 0.0946465
0.471846 2.56714 0.0380778
0.312699 2.59366 -0.21517
0.751019 2.39085 0.515312
0.622756 2.52123 0.286747
0.503586 2.60844 0.666388
-0.153778 2.69025 0.760249
0.17466 2.69058 0.748092
0.0225226 2.8167 0.447898
-0.633685 2.23563 -0.436735
-1.00551 2.03062 -0.422492
-0.169974 2.68942 -0.463311
-0.389615 2.51415 -0.461033
-0.961512 1.96827 -0.470145
-0.503891 2.3083 -0.557438
-0.454643 2.31647 -0.625336
1.0131 1.99815 -0.284537
0.770946 2.15782 -0.365908
0.517895 2.3786 -0.589016
0.537045 2.36997 -0.543366
0.98001 1.94668 -0.320829
0.469762 2.48445 -0.443531
0.169663 2.68735 -0.443183
-0.324352 1.90825 -1.04196
-0.122188 2.10765 -1.08692
0.0258675 2.05343 -1.23028
-0.392693 2.30301 -0.758487
-0.331636 2.24982 -0.943552
-0.941498 1.93921 -0.487443
0.582508 2.0801 -0.594483
0.204954 2.30753 -1.01982
0.395209 2.33871 -0.743929
-0.0152219 2.68655 -0.641926
0.155371 2.5628 -0.757989
-0.221885 2.59902 -0.834384
-1.28468 2.25678 -0.667036
-1.22127 2.1694 -0.44498
-1.29469 2.12727 -0.918632
-1.28498 2.24584 -0.903848
-1.87127 2.29159 -0.738816
-1.56581 2.30549 -0.87582
-1.84897 2.24796 -1.0617
-0.354059 1.82874 -0.999145
-0.666241 1.87572 -0.624787
-1.40452 1.93043 -1.01567
-1.03007 1.83406 -0.564195
-1.04148 1.81606 -0.569331
-1.00438 1.86931 -0.548919
-1.24974 2.02516 -0.838963
-1.30211 1.55422 -0.71261
-1.40751 1.59407 -1.00137
-1.26762 1.5731 -0.712058
-1.91441 1.91784 -1.19836
-1.64918 1.76015 -1.09759
-1.82266 1.6641 -1.01416
-1.34103 1.76926 -0.862827
-1.51769 1.78066 -1.08238
-1.49029 1.86471 -1.08709
-1.47797 2.07423 -1.092
-1.5225 1.97918 -1.15562
-1.68803 2.02227 -1.15921
-1.40726 2.16633 -0.327361
-1.96615 1.93099 -0.564019
-1.7377 2.17997 -0.384947
-1.54471 2.00938 -0.176243
-1.58018 1.77159 -0.0540698
-0.958147 1.36558 -0.326989
-1.34295 1.53559 -0.65694
-1.30055 1.40414 -0.343835
-1.33628 1.49049 -0.48353
-0.935383 1.14517 -0.135065
-1.6031 1.53594 -0.752404
-1.81026 1.69009 -0.731734
-0.929988 1.01644 0.166804
-0.998883 0.608388 0.329125
-1.42215 1.50847 0.00682896
-1.18702 1.27975 0.0716069
-0.893468 0.95434 0.0712021
-0.990918 1.09422 0.0519182
-1.20442 1.28404 -0.182792
-1.69198 1.66761 -0.44158
-1.50421 1.45142 -0.327943
-1.60773 1.58517 -0.207966
1.11975 2.05913 -0.0617065
1.26611 2.18165 -0.235073
0.767593 2.17464 0.663251
0.896053 2.11294 0.295222
1.44532 1.97319 0.065857
1.20653 1.98679 0.0907561
1.29095 1.89862 0.285854
0.110383 1.66776 1.33767
0.254625 1.80886 1.27392
0.629426 1.57984 1.03393
0.463275 1.7096 1.20061
0.467113 1.41713 1.19677
0.456771 1.97332 1.20538
0.654836 2.11572 0.989976
0.871066 1.08747 0.293635
0.878837 1.16212 0.36578
0.788841 0.885344 0.395953
1.19713 1.65518 0.327064
1.12721 1.38896 0.416049
1.31834 1.50565 0.209479
0.639954 1.14665 0.767981
0.823026 1.30843 0.551576
0.76428 1.4346 0.824449
0.774923 1.95401 0.748983
0.766179 1.70718 0.795678
1.03686 1.81103 0.572068
-0.1422 1.38659 1.21946
-0.00722053 1.54394 1.3371
-0.391846 1.05802 1.0438
-0.295146 1.20657 1.20537
-0.0454381 0.658843 1.08274
-0.147394 0.947821 1.2022
-0.122287 0.42203 1.05659
-1.03458 0.419572 0.64854
-0.828066 0.534712 0.737004
-0.397247 0.13201 0.972033
-0.662074 0.325739 0.954089
-0.649144 -0.00406244 0.873916
-0.637292 0.714171 0.838841
-0.513768 0.886801 0.953573
-0.00528315 -0.25472 1.35856
-0.260836 -0.264185 1.55969
-0.0962038 -0.252202 1.24613
-0.141965 0.151775 1.24471
-0.142682 -0.0139395 1.37253
-0.049222 0.0176107 1.34399
-0.251016 -0.147223 1.09079
-0.25505 -0.067544 1.29716
-0.258192 0.0123548 1.13318
-0.307921 0.610174 0.990044
-0.2519 0.237493 1.05393
-0.18484 0.322643 1.08328
-1.26908 0.301318 0.298023
-1.23052 0.354139 0.539559
-1.01907 0.504209 0.0795981
-1.15951 0.324785 0.144737
-1.28933 -0.482343 0.438079
-1.27295 -0.200891 0.292415
-1.40164 -0.546171 0.253313
-0.844579 1.09889 -0.196841
-0.854818 0.804624 -0.0451768
-1.16159 -0.3883 -0.0987586
-0.98387 0.241169 -0.0594907
-1.04851 -0.203537 -0.165886
-0.883217 0.713324 0.00269508
-0.938833 0.611854 0.0444479
-1.38332 -1.454 0.167123
-1.24359 -1.25531 0.160994
-1.38674 -1.40202 -0.0276271
-1.28266 -0.806263 0.211103
-1.24864 -1.02443 0.196531
-1.27424 -1.00554 0.321436
-1.11792 -0.936958 0.055675
-1.19357 -1.00849 0.130402
-1.22863 -0.7563 -0.0521779
-1.27132 -0.136859 -0.013175
[...]
POINT_DATA 642
SCALARS Mean_Curvature double 1
LOOKUP_TABLE default
-0.707925
-0.807082
10.0035
19.3748
-1.41444
-0.0242853
-0.456835
7.17167
-4.43847
-0.891995
6.2254
2.65468
1.95901
3.59922
2.61648
2.62581
2.75739
-0.0807206
-0.0495563
-1.61799
1.15829
-0.883474
2.14974
-1.83082
-1.23351
-1.15119
-1.25592
-1.05405
0.0698069
-0.874507
5.17522
0.143206
2.78206
-0.967595
4.56538
4.24649
-0.265293
0.534346
-1.80865
-1.41215
0.707742
-1.23174
0.0642844
-0.263384
-0.597145
-1.20057
-1.43602
-1.07552
1.31943
1.94793
-1.52322
2.8785
-1.33581
0.68263
2.09153
-0.778193
1.06143
-1.18051
1.64447
0.491508
-0.442924
2.05253
-1.03432
-0.369257
4.82325
1.48961
2.76556
-0.946662
0.508668
5.18375
6.74455
-2.07209
1.44841
-0.528729
1.58458
-0.981209
-1.02777
2.75434
2.54001
-0.884368
1.09381
2.268
-0.274099
-1.08727
0.770004
0.652976
3.26761
-0.568983
7.28565
10.1071
8.418
-1.87148
3.52179
-0.688979
2.19141
0.488368
3.24566
-0.618304
-0.830795
-1.18144
5.6963
-0.838916
0.133457
-0.272111
0.447474
0.854754
3.67943
6.63879
1.642
1.11257
-0.0472356
3.27593
3.32813
1.41956
5.78787
4.16086
0.478384
4.57786
-0.576589
5.00004
2.58232
5.40087
1.53836
-0.890388
-0.242079
3.91014
-0.848769
4.69132
-1.21761
-1.21505
0.893699
-0.582975
-0.354385
-1.27343
-0.739734
1.69172
-0.910399
-1.26386
-0.00489546
-1.00786
0.743125
-0.667801
-2.80634
-1.74354
2.77532
7.73218
-0.911743
3.8818
1.35217
1.21487
3.54105
-0.810151
2.2487
-1.47275
3.52744
0.98417
-0.838265
0.597755
0.32643
2.88587
2.46028
4.1689
-1.68368
-1.49268
0.188927
1.28075
2.35075
3.85288
1.06327
1.59051
0.740571
-0.45079
-1.33883
-0.834313
1.44951
2.05769
-2.60263
2.76598
-1.49792
0.952051
3.98754
0.173191
3.92269
1.3529
2.12192
0.996256
3.40554
1.43921
1.53458
2.0252
2.46558
3.56041
-0.120546
-1.02802
1.12094
3.06255
2.00003
1.86274
2.31416
3.93697
-1.05575
3.2059
1.96095
3.74277
2.46344
3.77729
-0.727857
-0.662486
-0.668125
-0.11542
1.4072
-0.393468
2.71567
2.06248
2.44289
0.993802
1.29101
2.45727
-0.93456
0.813604
1.93348
1.07287
0.206898
0.782106
-0.633759
-0.567361
-0.984787
6.44995
-0.470171
-0.0754379
2.80036
2.51358
2.02799
-1.07572
2.7634
-0.472777
5.3377
-0.200893
-0.941216
3.46127
1.79209
3.75357
4.18501
7.16865
3.0906
1.77745
3.45907
9.35028
4.6095
3.25759
6.70077
6.23583
-0.947383
5.45036
-0.261717
-0.518891
-0.147329
-1.7578
7.26393
11.1151
6.73179
7.30899
-0.718
6.35315
-1.51393
4.8569
0.845083
5.2768
8.62725
0.36643
2.16691
4.73896
4.21086
2.30991
3.56174
1.55884
1.5753
1.21013
-1.14707
-1.22609
3.28298
2.1504
-1.00074
-1.82786
2.74162
2.4677
-0.844193
-1.11907
5.14668
1.50311
5.62495
3.65933
-0.516728
1.13214
-0.120372
-1.45848
1.19739
-1.66132
5.16269
3.80324
0.505073
1.30797
2.4068
4.05142
2.49447
2.10875
-0.933942
-0.922519
-0.907193
-1.15486
4.12868
1.8859
-0.668107
-1.46443
2.10884
-0.666319
-0.69209
3.10425
-1.50216
5.75595
-2.86864
2.91226
-1.053
7.14067
-1.78614
1.30667
0.192906
-1.28444
2.99447
0.492209
0.356961
1.76069
3.72467
8.21378
0.963168
4.53242
2.29874
2.12291
-0.873001
6.36623
-1.63343
-3.31668
-2.19242
3.53297
4.93949
4.94679
-1.20759
4.2844
0.751623
-0.556802
6.14867
-1.54993
-1.08807
2.56627
-0.443534
10.8684
-0.760888
-0.920242
1.18989
1.50691
12.0671
-0.207056
3.5578
0.901298
0.262602
1.20899
11.2829
10.2831
0.569427
3.81963
-0.984645
-1.48794
-0.268087
0.0670337
-0.975728
-1.13698
5.65201
5.34022
-1.52289
-0.752074
-1.23969
3.79454
-0.902363
-0.429796
-0.585303
-1.21396
0.219712
0.529563
-0.960817
-1.24204
-0.940319
2.76955
-0.982954
-0.74267
-0.794394
-0.951903
0.499285
6.03345
0.291873
-1.0213
-0.780707
-0.91924
1.14018
3.888
5.20541
5.63646
0.514468
4.10711
3.26548
3.59813
6.01936
5.81014
5.97177
4.01115
1.90945
-1.67766
2.07936
2.99045
5.47634
-1.02978
7.56733
-1.30851
3.15404
4.33003
1.87447
5.32198
-1.94422
1.06335
5.03072
-0.0342067
4.63763
3.94632
1.77868
3.05774
-1.40355
-0.659389
0.107938
2.04482
3.11602
-1.69981
-0.302113
-0.755844
6.84767
0.921131
-0.93095
6.86406
-0.775799
-0.798302
-1.14025
3.79589
0.833344
4.28474
6.79075
3.08071
1.38607
3.38834
0.087033
6.06756
1.32693
-0.442783
-0.350942
-0.0494866
-0.382908
-0.230653
-0.707921
0.450345
2.40653
5.14547
6.06258
0.492994
3.77755
-0.512788
6.43489
1.21016
3.50045
-0.414285
0.323219
0.582363
13.6384
-0.885621
-0.743362
3.27804
-1.9918
-0.546207
8.6986
2.24924
4.16958
0.558977
0.326089
4.25552
4.98747
-0.241604
-0.511634
-0.719012
-0.799022
-0.617005
-0.410051
-0.630641
-1.11803
-0.429248
-0.676071
-0.452637
-0.298302
-0.453042
-1.38119
-1.57886
-1.92274
3.1589
-1.12008
7.56227
6.88054
-0.29414
-0.629386
2.87118
-0.704368
0.120952
-0.495728
-1.40434
-1.14278
-0.925331
-0.898444
0.153989
3.17705
2.57487
-0.814127
-1.19887
0.3524
-1.73837
3.08955
3.35212
2.29225
8.98425
7.69984
-2.75322
5.87294
5.08849
-0.892794
-0.834225
-0.602475
9.55054
-1.24467
4.78608
-1.3607
-0.631172
-0.059748
0.902632
-1.20687
-0.869165
-0.780823
7.19814
0.169585
0.656558
11.6332
-1.20901
2.12643
1.96867
8.29547
-0.350699
0.922424
-1.74352
-0.730857
-0.985291
-1.94291
-1.90152
-3.27368
4.70515
-0.948385
-1.74978
3.67869
-1.57646
6.30495
3.37457
3.238
-0.701032
2.60025
-0.48406
-0.882596
-0.632284
-0.421641
0.212365
2.06054
5.2097
0.744725
-0.621207
-1.7265
3.50562
0.0410456
1.61884
-0.697436
-2.3191
-1.00353
4.69304
0.165865
4.39905
3.87135
-4.41305
1.80693
6.82382
-1.0589
-1.32841
-1.02601
-1.81874
-4.23048
5.59397
-0.543319
5.02115
-1.17705
2.46675
-0.531788
-1.05293
-0.897172
2.3201
-1.13399
-0.145818
-1.40786
0.592383
5.77028
-0.907524
-1.10152
2.80524
1.05879
0.415845
-0.902714
-0.745259
-1.1383
2.84099
4.76541
2.13734
2.15773
2.55667
0.128293
6.54487
6.77491
-0.661518
1.17228
3.72644
4.03794
3.23909
3.49059
2.75197
3.16127
4.15534
SCALARS CoVolArea double 1
LOOKUP_TABLE default
0.0265191
0.0161595
0.0391952
0.00662417
0.0185451
0.016818
0.0357209
0.0498494
0.027465
0.018116
0.0116723
0.033995
0.0763996
0.0703957
0.0896386
0.10216
0.0938211
0.0438856
0.0286423
0.0242374
0.0997517
0.0408402
0.0732178
0.0568059
0.0595198
0.0312152
0.0371262
0.0488708
0.0531613
0.0451534
0.117214
0.0298627
0.0485445
0.0588221
0.0841601
0.0555993
0.0503198
0.0376824
0.0340106
0.0883711
0.0492387
0.0369628
0.0671417
0.0860715
0.0932055
0.074545
0.0850984
0.062817
0.0539353
0.0781475
0.0526975
0.12272
0.0814115
0.0587361
0.0984146
0.0798479
0.109104
0.0853921
0.0498305
0.0393923
0.0286685
0.0461754
0.0776474
0.0852572
0.0819262
0.0486583
0.0835976
0.0180695
0.026961
0.0491085
0.0740217
0.0330087
0.0779971
0.0428361
0.0499897
0.054273
0.0539572
0.0820983
0.0582756
0.0524593
0.0709356
0.0423335
0.0822035
0.0747155
0.0587202
0.0603972
0.0986529
0.0734908
0.0753757
0.0259485
0.0418025
0.0725907
0.0894133
0.0519264
0.0529275
0.0453165
0.0314324
0.0201388
0.0156469
0.0300097
0.0658414
0.0373959
0.0849763
0.0588519
0.118439
0.0218193
0.068825
0.0913771
0.0423234
0.0256996
0.0291708
0.0321013
0.0283274
0.067603
0.116557
0.0978916
0.0604674
0.0839153
0.0435847
0.0697865
0.0285374
0.0825648
0.0485292
0.0543513
0.0334569
0.0618974
0.0494421
0.12509
0.0289025
0.0209907
0.0253767
0.0359856
0.0399694
0.030738
0.0435517
0.0319634
0.0227524
0.0853946
0.0375614
0.0428443
0.0550956
0.0313078
0.0394999
0.0454
0.0522369
0.0746727
0.0319116
0.032537
0.0854426
0.0602458
0.0653307
0.0682467
0.072825
0.0410398
0.0276317
0.0357667
0.0471102
0.0971734
0.0579732
0.0422201
0.0540576
0.111486
0.0502559
0.0803687
0.0671037
0.0811032
0.0804159
0.0731281
0.0915514
0.0866327
0.0864026
0.0557163
0.0686827
0.0452343
0.0758646
0.0791475
0.072851
0.0741993
0.0838514
0.084212
0.0330318
0.0477416
0.0347097
0.0810833
0.0640404
0.0760679
0.064911
0.0618075
0.0719925
0.0878103
0.0846049
0.090808
0.0919645
0.0604124
0.105373
0.108424
0.085712
0.108006
0.115771
0.0334138
0.0510382
0.107114
0.0799621
0.0900499
0.0752228
0.0979411
0.0382366
0.0824363
0.0430789
0.10962
0.0990659
0.0916854
0.0989337
0.102894
0.109773
0.109856
0.109214
0.118561
0.0558842
0.0374144
0.0645455
0.0576879
0.0235043
0.0358958
0.044256
0.0291148
0.0441439
0.0472702
0.0283633
0.0152348
0.0635801
0.0700991
0.06002
0.103482
0.0806346
0.0720662
0.108628
0.0571706
0.0712777
0.109916
0.0923064
0.0626103
0.0667958
0.066764
0.0646265
0.0461523
0.036358
0.0556799
0.113515
0.0758882
0.0868161
0.0316654
0.0252151
0.0228341
0.0155515
0.0192848
0.0337994
0.0362151
0.0263277
0.0369614
0.0308438
0.0883393
0.0622831
0.0716624
0.0183249
0.036697
0.0323418
0.028402
0.0339707
0.0617202
0.066372
0.111121
0.102777
0.0688057
0.0679514
0.029507
0.0470251
0.0442717
0.0528838
0.0442423
0.0578158
0.0807952
0.0414023
0.0560233
0.0633615
0.0540202
0.0410709
0.0405627
0.0420349
0.0674477
0.0473096
0.0588842
0.0584634
0.0375878
0.0847518
0.0841329
0.0626368
0.067359
0.0708099
0.0338636
0.0481211
0.0706471
0.0612381
0.0658141
0.0681328
0.0827667
0.0204659
0.0522317
0.0386686
0.0736662
0.0686155
0.0523445
0.0825853
0.0808363
0.0788451
0.0780446
0.0773176
0.0841166
0.0518803
0.0374112
0.0685012
0.0628872
0.0552715
0.0612274
0.0396497
0.0771947
0.0855574
0.0640227
0.0913727
0.0847225
0.0809471
0.0711981
0.0449308
0.0747392
0.0361299
0.023872
0.0454786
0.0303048
0.0416751
0.0367898
0.0378557
0.0600087
0.0444059
0.0328445
0.0972629
0.0871406
0.0572065
0.0742705
0.0622736
0.0796748
0.0590243
0.026316
0.0355398
0.0439378
0.045929
0.0613115
0.0328242
0.0465183
0.0516349
0.0280276
0.0391378
0.0366937
0.0248635
0.0371081
0.0304127
0.0246355
0.0376229
0.0657029
0.0447981
0.0470089
0.0373474
0.0267577
0.0135748
0.0193861
0.0318412
0.0258284
0.027851
0.0765493
0.0349562
0.0482195
0.0357446
0.0456158
0.0226163
0.0209888
0.0732696
0.117041
0.100908
0.0488763
0.0847271
0.0653387
0.0769853
0.0890853
0.0609117
0.0227891
0.0471438
0.0298485
0.0620774
0.106266
0.0304529
0.0360439
0.0357134
0.0289314
0.0263193
0.0511495
0.0635677
0.123142
0.0738503
0.118442
0.035001
0.028836
0.0324893
0.0262667
0.0199949
0.0303871
0.0252175
0.0244824
0.0495376
0.0317763
0.0804999
0.030213
0.0496652
0.0293873
0.017793
0.0521985
0.039238
0.0564111
0.0465525
0.0386554
0.125705
0.0867149
0.0909561
0.0618309
0.0851137
0.0541271
0.0697338
0.0779737
0.0847849
0.0630268
0.0661614
0.0554143
0.0377053
0.0361727
0.0226939
0.0691858
0.0523203
0.0501618
0.0409302
0.0471334
0.0613358
0.0652548
0.0700857
0.0732711
0.081152
0.0163451
0.099016
0.127618
0.0635822
0.109806
0.0624819
0.0405401
0.0463025
0.025085
0.0431124
0.0444556
0.0381721
0.0516105
0.0490414
0.0916117
0.0763772
0.0386053
0.0734032
0.0583985
0.107289
0.102941
0.0476527
0.0522559
0.0259991
0.0223497
0.0213939
0.0126332
0.0408313
0.0319053
0.0304904
0.0244957
0.036229
0.0339807
0.0327375
0.0345627
0.0325806
0.0336993
0.044803
0.0468477
0.0402489
0.0424895
0.0419201
0.0328393
0.0370291
0.0343619
0.0372359
0.038568
0.0341273
0.0317242
0.0291048
0.027497
0.0196877
0.0125496
0.027581
0.0245206
0.0368388
0.0307528
0.0405619
0.0681211
0.0490941
0.0619546
0.0517774
0.0912772
0.0368627
0.0316309
0.0457515
0.037542
0.0399897
0.0496841
0.0539981
0.0538775
0.0523705
0.0469694
0.0628425
0.0322567
0.0473361
0.0420325
0.0188633
0.0488649
0.0275143
0.0274957
0.0387867
0.0383598
0.0553557
0.033594
0.0429454
0.0361835
0.046502
0.0614158
0.0562141
0.0244275
0.055937
0.0875872
0.0393814
0.0532666
0.0379933
0.0630831
0.061446
0.0543398
0.0348613
0.0461355
0.0306213
0.0348933
0.024168
0.0837697
0.0798796
0.0900531
0.0954912
0.0725543
0.0521467
0.0410559
0.0647461
0.0617894
0.0683493
0.0571182
0.0694323
0.0386804
0.0959536
0.0857475
0.107037
0.0633199
0.0507595
0.0454069
0.0727597
0.0533331
0.0564075
0.0579992
0.0946588
0.0587659
0.0701132
0.0857514
0.0823501
0.0641797
0.07578
0.0620725
0.0562882
0.0378963
0.0434074
0.0574203
0.0489573
0.0218801
0.0281038
0.0213727
0.0267512
0.0361036
0.0308651
0.0394587
0.0289961
0.0497303
0.0452047
0.0335642
0.0329791
0.0381201
0.029854
0.0725994
0.0339229
0.022579
0.0365504
0.118013
0.070418
0.103164
0.11545
0.109573
0.111313
0.0491907
0.0601578
0.0668308
0.0544567
0.0847739
0.0721215
0.064953
0.0322158
0.045387
0.0424404
0.0414175
0.0507222
0.0320377
0.0667462
0.0449934
0.0407046
0.0420626
0.0730904
0.0820857
0.0931956
0.108735
0.100794
0.0535418
0.0819208
0.0771676
SCALARS SignedDistance double 1
LOOKUP_TABLE default
0.325882
1.13732
0.00850139
0.100992
0.0588806
-0.000508158
1.18637
0.116824
0.0417976
1.18654
0.0575603
-0.0658955
0.00874428
-0.0244195
-0.0133304
0.0111768
0.0316015
1.01759
0.615732
0.483607
-0.00241594
1.21999
0.0460055
0.118382
1.1664
0.00567606
0.0103149
0.0126031
0.193363
1.21544
0.07656
0.619531
0.0160782
1.18161
0.0155346
0.0674512
1.22361
0.0433652
0.0749862
0.650509
0.011665
0.803208
-0.0239384
-0.0438911
-0.0019233
1.13437
0.00555035
1.13655
-0.0636189
0.0110268
0.00200309
0.0174932
0.357567
-0.0732164
-0.0124146
0.788843
-0.0147443
0.0299827
-1.00113
0.371639
1.04191
-1
1.17929
-0.00853954
-0.0130804
-0.986238
-0.046658
1.19441
0.10435
0.0681352
0.156652
0.169127
0.057726
0.300115
-1
0.063728
1.17802
-0.0108986
0.0752782
0.0100587
0.00818981
0.159896
-0.00247356
1.13043
-0.0176978
0.0106549
-0.000390409
-0.010055
0.0368524
0.0552796
0.0204043
-0.0293407
-0.00224028
0.444276
-0.0261074
0.0741276
0.0258656
0.618643
1.13093
0.963913
0.0731861
1.18339
0.0404454
0.196297
0.0191529
0.609819
0.0174022
0.00467284
-0.453245
-0.00269407
0.0739257
0.00734023
-0.0138828
-0.0147334
0.0456479
-0.017492
0.0954296
-0.0239792
1.1855
-0.0311184
0.0850158
0.13543
-0.958699
1.46077
1.19965
0.0805197
1.17893
-0.0146064
0.382943
0.659872
0.869757
0.848124
1.29928
1.45343
1.24749
-0.0288975
0.0163391
0.813402
0.00984485
1.18048
0.00163865
0.164698
-0.0407748
0.0153075
0.017542
0.0323539
1.20856
0.0591905
-0.0306772
-0.00578254
0.0307942
0.590152
-0.00381569
-0.0293476
0.0307634
0.0213698
0.961442
0.049185
0.154999
-0.0875627
0.0257369
0.0666549
0.306121
0.978823
0.160837
0.00789335
-0.0196241
0.0477077
-0.0205361
0.023572
-0.0110791
0.0122793
1.18254
1.07371
0.0158576
0.0194695
0.0617124
-0.00217945
1.08593
0.00503831
0.0178352
-0.00759302
-0.00617625
0.0360959
0.0149681
-0.0051633
-0.0166333
-0.000513424
0.0277804
-0.0102979
-0.0278054
-0.00890929
0.103697
0.830416
-0.0160233
0.0550678
-0.00274981
-0.0208176
-0.00933669
0.0183455
-0.0652091
0.00620788
0.0301917
-0.0892327
0.028126
-0.00300417
1.19272
0.0816482
1.1395
-0.000953044
0.0245097
-0.0184323
-0.00570463
0.00237227
-0.00851982
0.00705475
0.00817834
0.00495468
0.452999
0.187286
0.00562047
0.147674
0.521808
0.154607
0.138415
1.13804
1.17061
0.130604
0.491233
1.0296
0.172462
-0.0166773
0.0330118
-0.0119734
0.0851334
0.170822
-0.0198502
0.833387
1.1195
0.0490371
0.0188
-0.0145302
-0.050199
-0.0875001
0.0576629
-0.106673
0.0228646
0.0443237
-0.0135918
0.0119382
-0.850492
-0.0494989
1.18865
0.0463296
1.13139
1.12781
1.13576
0.107708
0.0458226
0.109966
0.0355723
0.0217678
-0.0409708
0.0855567
0.615145
-0.135619
-0.101047
0.062734
0.221818
-1.06891
0.153965
0.0887568
0.0380345
-0.00890402
0.0442213
0.0251132
0.0980699
0.0523079
0.464275
1.1712
-0.0122597
-1.00403
1.21649
0.00922077
0.0167423
0.116206
1.23977
1.19927
0.048445
-1.01792
-0.142214
0.0543542
0.554297
0.309564
0.0628772
0.0486342
0.0652633
0.39007
-0.00469635
-0.00733049
-0.0037311
0.000691227
-0.000958043
-0.0150616
0.00692137
-0.0269585
1.20326
1.14824
1.17249
0.0145086
-0.0813595
-1.00105
0.185849
0.0306625
0.0209178
0.0145156
0.0395732
0.00487359
0.0015555
-0.0166902
0.334845
0.0121794
0.00305598
0.0136533
0.761048
0.0186001
0.025137
0.867411
0.00863068
-0.0380225
0.0236466
-0.0285127
0.0679602
0.151227
0.0306991
0.0343523
-1.00394
-1.01112
0.332531
0.0532903
0.107265
0.0694936
0.0914627
-0.00215738
-0.081837
0.0425779
1.13425
0.0528354
0.0350884
-0.021348
0.00114667
1.19061
1.2848
-0.110852
0.0849461
0.0725893
1.2213
1.16648
-0.940058
0.156442
0.292028
-0.0118428
-0.0606643
0.00107977
-0.025316
-0.19372
0.0158632
-0.00475745
0.00264773
0.0620941
1.11469
0.260081
0.638277
0.493645
1.09141
0.683691
0.0681128
0.130449
0.590766
1.13545
1.10476
0.0263636
1.1916
1.12885
0.589043
0.998778
0.0305592
0.227402
1.09058
0.884034
1.12592
-0.00155694
1.16415
1.14602
1.15246
0.644805
0.013141
0.0748588
0.853851
1.11693
1.13034
1.12423
0.450048
-0.196843
-0.0247485
-0.402927
-1.03172
0.0615052
-0.882668
-0.825979
0.00811937
-0.0635674
0.0375214
0.0449032
-0.0209558
0.197869
-0.950129
-0.625829
0.20935
0.577408
0.0579977
0.690845
0.14393
0.113315
-0.884782
0.0106306
-0.0231993
-0.0506759
-0.0215233
-0.00446137
0.00304556
0.0282256
-0.0148152
0.116173
1.12424
-0.0495297
0.0167975
-0.191741
0.00226206
0.0449175
1.31823
1.33686
0.0222295
-0.0136175
0.436917
0.127753
1.20818
1.29994
1.19872
-0.0492469
0.103536
-0.00866823
-0.184174
-0.485408
-1.04137
-0.0391857
0.0663601
0.019268
0.181457
1.28192
1.39203
1.22037
1.42461
1.20261
1.18888
0.246708
-1.0102
-0.433636
0.0273212
1.27544
-0.0302151
0.311579
0.173422
-1.00224
0.170816
0.465482
1.22256
0.323064
0.258386
0.32162
1.17677
0.314429
0.019774
0.598362
0.0743004
-1.00424
-0.883002
0.0854303
-0.0358289
-0.193193
-0.00183667
1.31327
1.32194
1.40654
1.25033
1.21737
1.398
1.17594
1.00037
1.31948
1.16563
1.42508
1.31244
1.30115
0.810434
0.636912
0.45598
-0.12955
-0.00843405
0.0214573
0.0187016
1.12927
1.21275
-0.00297371
0.618156
0.0374523
0.938584
0.634618
0.565519
1.17184
1.1002
-0.000262343
0.0044221
0.00258174
1.00038
1.00609
0.0159282
0.0794386
-0.00378086
0.0101243
-0.524867
-0.0232546
-0.0033653
0.0175001
0.0128323
-0.00951292
1.15583
1.17791
1.18432
-0.219762
0.753645
0.00815274
0.201503
1.2226
-0.0206793
-0.0192878
1.22539
1.18916
1.1797
-0.00179333
0.0419101
0.00515449
0.0568828
1.12863
0.0898002
-1.00485
-0.0572379
0.0387659
-0.0116686
0.55543
-0.00294749
0.010837
0.00755287
0.56324
-0.0180973
-0.029524
0.0184159
0.639691
-0.012347
0.0243899
0.0181206
0.00899922
0.00761712
-0.0588455
-0.0142433
1.26661
1.20662
1.26091
1.23685
0.0281895
0.00519673
-0.0405328
0.0392948
0.0231942
0.429583
0.0328944
-0.00660642
0.00323243
1.1212
0.187775
1.03153
0.0121639
0.0327913
0.307018
0.0256515
0.0614218
-0.0853922
0.038176
1.25711
0.509091
1.22632
0.327111
0.032759
0.0139848
-0.00103214
-0.0102644
0.997336
0.0161608
0.224506
1.11578
1.14944
0.00721518
1.13147
0.178155
0.190485
0.0586903
-0.102653
1.15598
0.577085
0.0926402
0.0893282
0.0499684
1.14317
0.99461
1.17992
-0.181892
0.068654
-0.986768
0.0837523
-0.0812308
-0.00658227
0.0535102
0.0565996
0.0762092
-0.0778995
0.0781552
0.117349
-0.0682978
-0.264669
-0.0397655
0.0292827
0.0140398
