# vtk DataFile Version 4.2
vtk output
ASCII
DATASET POLYDATA
POINTS 642 double
-1.03973 2.1564 -0.399166
1.1712 2.20453 -0.353429
-1.41039 -1.66128 0.00514178
0.989742 -1.40926 0.15048
-0.0327278 -0.255009 1.28113
-0.00413465 1.73986 1.33808
-0.138271 -0.188814 -0.032537
-0.252022 1.87184 -1.35426
1.20896 1.5006 -0.487348
0.896848 0.814231 0.348593
-1.0541 1.419 -0.536421
-1.01861 0.553277 0.451737
-1.38089 1.6872 0.158445
-0.61419 1.24563 1.06173
-0.575335 2.41186 0.921927
0.609234 2.40762 0.893826
0.00589661 2.78464 -0.208628
1.00502 2.07115 -0.526738
-0.927321 2.04096 -0.693576
-1.33352 1.81396 -0.937017
-1.91403 1.97202 -0.929069
-1.00818 1.02142 -0.162101
0.594129 1.29473 1.02385
1.45193 1.76302 0.118174
-0.407956 -0.11459 0.970748
-0.047208 0.274446 1.13523
-1.10623 -0.610361 -0.061831
-1.27827 -0.791545 0.364045
-0.221258 1.46339 -0.874142
-0.735708 0.82473 -0.319
2.03137 1.96814 -0.84209
1.02843 1.81566 -0.584872
1.13993 -0.654265 0.416972
0.383732 -0.155445 0.92972
0.616139 -1.26784 0.956171
-0.684458 -1.18358 0.691953
0.0668248 -0.997188 0.399004
-0.686755 -0.83309 0.0585725
0.470641 -0.848569 0.154197
0.517448 0.571485 -0.185352
0.929651 -0.496345 -0.0611806
1.17608 1.26156 -0.153346
-1.30477 2.04895 -0.136759
-0.942261 2.0257 0.554412
-0.758602 2.35543 0.224608
-0.759115 0.896458 0.660504
-0.893514 1.52632 0.675046
-1.0342 1.17167 0.234416
-0.211054 2.06439 1.23874
-0.660463 1.86603 1.11507
-0.284839 1.55919 1.22456
-0.335521 2.80773 0.449
-0.519787 2.49109 -0.266502
0.214655 2.0659 1.23574
0.00445414 2.56067 1.04363
0.613312 2.40591 -0.268628
0.330708 2.68855 0.409467
0.794526 2.23838 0.117959
-0.438895 2.83197 -0.691353
-0.959906 2.10256 -0.623297
1.07413 2.12494 -0.464063
0.491422 2.93343 -0.722634
-0.638115 1.9443 -0.832924
-0.0533934 2.44253 -0.876899
0.37915 2.07527 -1.01915
-1.60896 2.22896 -1.09842
-1.54591 2.30283 -0.618985
-0.7716 1.80368 -0.775492
-1.4576 1.98481 -1.08263
-1.57501 1.53863 -0.975749
-1.81446 1.78595 -1.57539
-1.35113 1.67832 -0.911417
-1.74916 1.8666 -0.31299
-1.02614 1.2638 -0.366957
-1.63845 1.47932 -0.559893
-1.378 1.4072 -0.158837
-1.01496 0.71162 0.109553
1.00444 2.02947 0.459181
1.41128 2.20046 -0.0854211
0.273246 1.57637 1.23664
0.631129 1.86879 1.03189
1.19534 1.27918 0.25612
0.952124 1.56967 0.574973
0.750517 0.992954 0.564672
-0.226353 0.765688 1.08318
-0.0211327 1.19538 1.1961
-0.916339 0.142738 0.857976
-0.44168 0.455257 0.959896
0.0333645 -0.0504588 1.73844
-0.235205 0.0988332 1.33092
-0.201768 -0.247073 1.29731
-1.27523 -0.231771 0.116998
-1.27389 -0.167692 0.490835
-0.889344 0.511568 -0.159845
-1.10788 -0.013461 -0.0769399
-1.34619 -1.26521 0.25162
-1.2763 -0.820107 0.0842686
-1.20579 -1.24164 0.0634039
-0.965831 1.59992 -0.686652
-0.872877 1.26145 -0.44392
-0.253818 1.60033 -1.22693
-0.75986 1.67466 -0.740815
-0.52148 0.154754 -0.13639
-0.609942 1.32351 -0.60428
-0.193418 0.854213 -0.422953
1.09919 1.97909 -0.578546
0.388949 1.83469 -0.958015
1.68749 2.5403 -0.479887
1.63864 2.25718 -0.854171
1.22717 1.68427 -0.613781
1.53136 1.9728 -0.871225
1.54578 1.65218 -0.741744
1.01032 -1.10388 0.30622
1.02887 -1.03856 0.71549
1.14229 -1.60892 0.543172
0.850506 0.202573 0.813276
0.908118 -0.495141 0.751957
1.14568 0.0259076 0.508452
0.228852 -0.742057 0.839049
0.598239 -0.740237 0.953729
0.0974354 -0.232304 1.21564
0.376911 -1.50819 0.57721
0.714304 -1.65243 0.0496594
-0.186502 -0.654348 0.775944
0.0722847 -0.980258 0.635319
-0.870157 -1.43083 0.15957
-0.482783 -1.09298 0.479206
-1.20043 -1.65982 0.53852
0.395335 -1.02819 0.261614
0.765524 -1.29237 0.145057
-1.04432 -1.2797 -0.0164884
-0.490707 -0.957698 0.220413
0.156705 -0.526971 0.0728966
-0.081743 -0.748615 0.186703
-0.397957 -0.50631 0.049779
0.697877 -0.802354 0.0472362
0.882661 -1.06297 0.165165
0.221422 0.0224183 -0.081514
0.475054 -0.459976 0.00348097
0.78906 0.708717 -0.0948805
0.698918 -0.0847622 -0.0647182
0.780142 1.23327 -0.318057
1.06412 -0.655561 0.133327
1.25968 1.40671 -0.375536
0.923276 0.329402 0.0219923
1.14521 0.0666628 0.159728
0.988854 1.03107 0.104996
0.114772 0.0980003 1.2422
0.41678 0.514421 0.954142
0.188416 0.835442 1.08421
-1.21207 -1.08935 0.700168
-0.61844 -0.705117 0.699431
-1.02437 -0.557034 0.699262
-0.724421 -0.413841 -0.0350295
-0.955187 -0.838885 -0.0619806
-0.854133 -0.0674063 -0.0969055
0.749465 1.52611 -0.523889
0.21491 1.18762 -0.561003
0.311472 1.62018 -0.879385
1.53031 1.4847 -0.0634521
1.73681 1.54725 -0.475169
1.99228 1.98147 -0.198105
-1.1678 2.12663 -0.304352
-1.00129 2.13073 0.0206002
-0.888603 2.22079 -0.173665
-1.17939 1.85433 0.339992
-1.13746 2.04777 0.210981
-1.4303 1.94732 0.070985
-0.693005 2.43734 0.592448
-0.894897 2.23946 0.423334
-0.772484 2.23528 0.760382
-0.913238 0.672214 0.524211
-0.886359 1.02754 0.463403
-0.958705 0.807869 0.343194
-0.777888 1.3971 0.919239
-0.848681 1.22815 0.693348
-0.656818 1.10056 0.840217
-1.25285 1.42913 0.208011
-0.982592 1.35141 0.418881
-1.12964 1.60807 0.40947
-0.0816501 1.87599 1.3393
-0.255999 1.8241 1.27092
-0.121438 1.67973 1.33772
-0.624234 2.15337 1.04513
-0.436208 1.99911 1.21159
-0.382909 2.25527 1.13335
-0.473942 1.40587 1.20952
-0.460508 1.71323 1.21052
-0.654279 1.5629 1.1103
-0.998903 1.79054 0.666448
-0.845919 1.68994 0.944077
-0.872778 1.99944 0.909157
-0.641635 2.44291 -0.0135208
-0.79242 2.27288 -0.339285
-0.455133 2.60374 0.710184
-0.629867 2.63908 0.361879
-0.310416 2.69 -0.238629
-0.455391 2.68259 0.0548322
-0.160203 2.8159 0.102193
0.0762783 1.87739 1.33935
-0.00142495 2.08009 1.23153
0.325371 2.55435 1.02897
0.136164 2.32867 1.21218
0.424423 2.27794 1.17568
-0.134488 2.3238 1.21212
-0.313247 2.54951 1.03999
0.959418 2.21979 -0.341644
0.707162 2.32401 -0.0705455
1.05397 2.18743 -0.230155
0.161161 2.70921 0.110234
0.470351 2.58066 0.0482902
0.315268 2.59101 -0.220833
0.733125 2.4103 0.531668
0.610994 2.53442 0.305354
0.489703 2.60917 0.680226
-0.15165 2.68957 0.76738
0.170495 2.68997 0.758124
0.0191141 2.81666 0.462426
-0.684541 2.33684 -0.514699
-1.00967 2.1406 -0.522992
-0.175562 2.6891 -0.46501
-0.422265 2.5786 -0.511746
-0.944709 2.07147 -0.665972
-0.582553 2.43089 -0.649797
-0.523889 2.41438 -0.703008
1.12488 2.16581 -0.421985
0.817307 2.27481 -0.450701
0.56944 2.4239 -0.64657
0.583026 2.4172 -0.591402
1.04906 2.10524 -0.492289
0.504873 2.53112 -0.481467
0.172775 2.68824 -0.45418
-0.332451 1.8872 -1.07418
-0.116177 2.08873 -1.10111
0.0534055 2.03914 -1.28002
-0.421951 2.3385 -0.807252
-0.328254 2.22755 -0.95023
-0.868311 1.99334 -0.731773
0.649822 2.0969 -0.687802
0.214153 2.30107 -1.02855
0.405265 2.34618 -0.768171
-0.0136506 2.67972 -0.651822
0.149153 2.56983 -0.749608
-0.212342 2.61338 -0.848969
-1.30908 2.2845 -0.717971
-1.24507 2.18828 -0.49025
-1.34319 2.15388 -0.961702
-1.33556 2.25724 -0.940295
-1.87766 2.28666 -0.763165
-1.59951 2.31543 -0.904203
-1.90965 2.31894 -1.08382
-0.382632 1.79744 -1.01833
-0.7339 1.85468 -0.794874
-1.4664 1.94492 -1.08896
-1.12783 1.86899 -0.809554
-1.14096 1.82826 -0.808637
-1.07003 1.91511 -0.789712
-1.26563 2.03548 -0.907503
-1.33541 1.54723 -0.770485
-1.44493 1.58132 -1.05021
-1.28438 1.58022 -0.765799
-1.91344 1.9357 -1.21751
-1.67225 1.78715 -1.15558
-1.84873 1.68027 -1.04138
-1.36864 1.76909 -0.954801
-1.55979 1.8101 -1.15268
-1.52622 1.88174 -1.18084
-1.52007 2.11171 -1.17391
-1.52479 2.02075 -1.34338
-1.76281 2.2107 -1.38603
-1.44164 2.23548 -0.329166
-2.00442 1.95469 -0.588547
-1.77643 2.20097 -0.412738
-1.57037 2.01661 -0.201632
-1.60485 1.7811 -0.0686584
-1.03628 1.36918 -0.474059
-1.38048 1.52171 -0.699482
-1.31018 1.40349 -0.390081
-1.36598 1.46955 -0.539808
-1.01763 1.15953 -0.274329
-1.64112 1.5383 -0.789096
-1.90219 1.65337 -0.750635
-1.01829 0.985719 0.12887
-1.02976 0.580925 0.313177
-1.45196 1.52017 -0.0128379
-1.23077 1.29439 0.0368043
-0.999356 0.875674 -0.0408665
-1.10902 1.13786 -0.0509996
-1.21958 1.2811 -0.225563
-1.76414 1.66047 -0.459529
-1.52745 1.48057 -0.360771
-1.63717 1.599 -0.227652
1.13394 2.13014 -0.0717089
1.28757 2.26492 -0.274153
0.76744 2.19983 0.68184
0.889811 2.13654 0.293172
1.47712 1.99609 0.0568901
1.2167 2.02506 0.085151
1.29329 1.90465 0.279951
0.110686 1.68407 1.33771
0.255586 1.82932 1.27197
0.622654 1.59693 1.04344
0.460692 1.72869 1.20235
0.462586 1.43864 1.20014
0.454062 1.9989 1.20728
0.637964 2.13688 0.996462
0.961226 1.05127 0.277602
0.947703 1.16161 0.376169
0.854651 0.850738 0.411208
1.21124 1.66313 0.320806
1.13905 1.41097 0.394914
1.37982 1.51063 0.225649
0.662046 1.15831 0.791953
0.841784 1.31645 0.563284
0.76496 1.44842 0.840801
0.768582 1.9686 0.761013
0.766097 1.71943 0.809644
1.03744 1.81875 0.572078
-0.14252 1.39691 1.2222
-0.00743588 1.557 1.33724
-0.392791 1.07018 1.05515
-0.2957 1.21957 1.20957
-0.0416619 0.659563 1.08468
-0.145788 0.957527 1.20796
-0.116708 0.41807 1.0588
-1.05477 0.395968 0.656452
-0.835244 0.524282 0.745805
-0.397517 0.113376 1.00168
-0.663664 0.310647 0.954444
-0.64685 -0.0163227 0.874249
-0.640402 0.714948 0.848778
-0.506454 0.901711 0.954378
-0.0109322 -0.2986 1.47554
-0.261093 -0.270188 1.66376
-0.106183 -0.253316 1.31699
-0.139809 0.136096 1.30509
-0.174341 0.0229886 1.49505
-0.045789 0.0737116 1.41088
-0.261052 -0.177348 1.1594
-0.254497 -0.0876923 1.38832
-0.262194 -0.00940995 1.19465
-0.311664 0.602878 1.00913
-0.257194 0.218035 1.08765
-0.184249 0.310903 1.09237
-1.27119 0.260301 0.309164
-1.24627 0.3179 0.541315
-1.0726 0.413686 0.0158379
-1.18372 0.283653 0.12696
-1.3066 -0.511094 0.435599
-1.27313 -0.232412 0.288215
-1.40171 -0.574521 0.241403
-0.91909 1.14957 -0.36631
-0.919948 0.888329 -0.222197
-1.15792 -0.403089 -0.0891901
-1.01038 0.22587 -0.118123
-1.07303 -0.212973 -0.183701
-0.952593 0.713507 -0.138545
-1.00057 0.540042 -0.055959
-1.39938 -1.48232 0.146129
-1.3115 -1.2733 0.120977
-1.5049 -1.43362 -0.135926
-1.27684 -0.825065 0.201156
-1.23608 -1.05119 0.198646
-1.27344 -1.03483 0.310924
-1.11155 -0.97309 0.0710116
-1.17811 -1.03181 0.139319
-1.23153 -0.770007 -0.0497739
-1.27363 -0.173166 -0.0228684
-1.26013 -0.516598 -0.0230405
-1.34257 -0.568798 0.0699189
[...]
POINT_DATA 642
SCALARS Mean_Curvature double 1
LOOKUP_TABLE default
-0.726975
-0.258125
10.6189
5.29368
-1.97339
-0.0347177
0.0274727
8.25306
-0.982242
-0.852075
-0.856986
-0.155802
1.7345
3.32925
2.54986
2.75677
2.91157
0.171315
0.215927
-0.644557
0.0816336
-0.0548813
2.53623
-1.60428
-0.961195
-1.11533
-1.36222
-0.990729
0.15823
0.0524248
4.93448
0.185297
3.02723
-0.817601
4.21405
1.94867
0.339728
-0.328838
-0.738332
-0.254471
1.09077
-1.10053
-1.26716
-0.650871
-0.797746
-1.10614
-1.34246
-0.600352
0.649022
1.9867
-1.43369
2.96402
-0.912131
0.0409974
1.91471
-0.488039
0.964459
-1.33907
6.89567
0.256836
0.517469
5.93
-0.0458119
-0.709696
3.20116
1.0537
1.73059
-0.0925134
-0.149735
4.80294
6.40218
-0.819937
1.89715
0.118538
5.44017
0.792985
-0.384239
2.06229
2.47374
-0.748352
1.24093
3.55006
-0.383733
-1.02885
-0.301162
0.580737
3.06644
-1.16893
7.64536
9.4415
8.3824
-1.29093
3.3878
-0.0818709
-0.376196
2.16309
4.14337
-1.16517
0.261967
0.1161
5.43881
0.102832
-0.231953
0.266641
0.183804
0.162315
0.682814
6.99752
1.7986
-0.589533
4.43425
3.23291
1.16759
1.14825
5.70387
4.00105
1.29651
4.39709
-0.298656
2.92995
3.07159
5.74071
6.51361
-0.563931
-0.301795
2.28335
-0.784211
4.43451
-0.361579
-1.21337
2.42701
0.00374059
0.134238
-0.630254
-0.11789
-0.469776
-2.26187
-0.206896
-0.499411
-0.367693
0.561853
-0.190788
-3.48688
0.0338998
-0.498066
7.95779
-0.681489
4.53672
0.7661
0.803396
3.79833
-0.624703
2.06434
-0.438221
3.27715
-0.621986
-0.101175
0.26451
0.057815
0.396464
2.29962
4.39507
-1.16006
-1.40506
-0.473682
1.45743
1.72984
4.20375
0.868165
1.89475
0.81663
-0.411183
-1.05642
-0.67067
1.57752
1.4331
-1.54414
2.18375
-1.34135
0.913971
4.40732
0.121452
3.85286
1.70394
2.39057
0.869839
3.18872
1.36108
1.81308
2.1084
2.25312
3.51748
-0.335898
-0.747217
0.956741
3.33772
1.27677
1.46792
2.25163
4.36336
-1.76356
3.34858
2.5696
3.43476
2.99667
3.84448
-0.469794
-0.924544
-0.631907
-0.16951
1.29505
-1.09297
2.50751
1.90884
2.35677
1.02037
1.3445
2.49491
-0.809401
-0.214399
-0.140851
-1.37509
0.341061
7.4329
-0.135148
0.361733
-0.561393
4.97965
0.432169
0.731144
0.816742
0.0780852
0.463032
-0.670246
2.99046
-0.735935
2.14317
-0.0202831
-0.374367
3.77515
-0.556479
3.10492
0.497787
4.55581
3.34693
-1.37758
0.046897
8.54145
4.22868
2.50857
5.87462
0.363892
0.0177431
-0.664132
0.0566811
-0.061369
0.368201
-0.713085
5.80993
10.6082
0.992147
3.86194
-0.0515495
5.33121
-0.302755
3.37033
2.13064
2.67866
7.26589
6.48144
4.48179
4.55439
4.19331
1.19158
3.46378
-0.0510805
1.21609
0.105075
-0.187361
0.271378
0.853139
4.2807
-0.715098
-0.86274
2.56475
1.37002
-0.502628
-0.405188
1.37864
1.38736
1.28094
3.30743
-0.891543
2.84266
0.646981
-1.48036
0.733278
-1.47753
4.29523
3.67346
0.492074
1.10096
2.38973
3.83456
2.99777
1.93106
-0.857597
-0.562866
-0.826863
-1.4864
2.1935
3.60086
-0.166674
-1.50699
1.93238
-0.719946
-0.462817
3.08975
-1.49279
5.58023
-2.16661
2.87318
-1.32517
7.31564
-1.53265
1.90615
0.281999
-1.16614
2.68976
-0.419968
0.557479
0.640673
7.08478
7.903
-0.709812
1.73095
5.37818
2.91014
0.526742
4.15354
-1.33682
-1.5959
-0.784349
1.07635
3.68915
5.10801
-0.701116
2.99516
1.64279
-0.709878
5.77002
-0.133063
-0.381931
0.250248
-0.609168
12.8116
-0.124266
-0.34401
0.68719
3.34142
8.82019
-0.84589
0.983603
1.05843
-1.73071
-1.834
11.3578
10.7456
0.473278
4.89437
0.109875
-0.0976429
-0.105145
-0.224652
0.188645
0.021749
0.116227
5.2275
0.0176976
0.291585
0.251561
1.01538
0.00963225
0.235922
-0.0519986
0.0523455
0.0426013
0.2452
0.219922
-0.106036
0.0892705
0.299263
-0.00871898
0.266489
0.157964
0.153753
0.186756
6.35796
0.255841
-0.254205
-0.207489
-0.235406
0.0957319
1.27608
5.84425
6.04359
1.4741
4.17836
2.27699
4.18442
2.94325
4.47558
7.88429
0.490285
1.01169
-0.319944
2.22587
0.24119
6.03448
-1.27697
7.49531
-1.19703
-1.18284
4.19573
8.66147
5.50193
-2.26446
-0.271984
5.2811
-0.348416
4.62368
2.43181
1.6805
4.38479
-1.23184
-1.19489
-0.390206
0.209715
3.21075
-0.705774
0.124051
-0.348673
2.56441
0.558833
0.154741
4.85535
-0.568221
-0.337499
-0.747694
3.08011
2.72468
4.29335
3.51709
-0.210325
1.83422
2.88366
-0.308507
4.50824
-0.345006
-0.0929906
-0.244737
-0.0725036
-0.654502
-0.43459
-0.491139
2.38943
5.96973
3.62765
4.48133
-0.0727064
1.31174
-0.769784
6.32834
2.91199
6.75535
-0.318485
0.0720439
0.213375
10.2006
7.54541
-0.142693
4.66218
-1.11572
2.32203
1.1801
0.956082
8.5312
0.603241
-2.3056
3.09459
2.99882
0.245184
0.0146364
-0.31355
-0.0571374
-0.0468604
0.196609
-0.185114
-0.462283
0.0344591
-0.237142
-0.329895
0.222403
0.0992832
-1.3018
-1.57342
-0.939804
-1.07372
-1.82359
7.71168
7.22305
0.075101
0.145669
0.503047
0.267714
-0.325493
-0.168012
-0.545901
-0.427978
-0.24543
-0.289285
0.363364
-0.280981
2.03033
-0.0314859
-0.372444
-0.520837
-0.819575
2.17999
2.703
3.79762
9.36248
7.26757
-1.71405
6.07408
2.28703
-0.42013
-0.536914
-0.415915
4.54876
-0.635679
6.08638
-0.348677
-0.808758
0.289466
0.636127
-0.773106
-0.479051
-0.262282
7.37495
1.23062
0.907792
7.74493
-1.0985
1.13493
7.35927
0.743876
-0.473558
0.265001
-1.4125
-0.712043
-0.793813
-1.66483
-1.33839
-2.93306
4.25076
-0.465974
-1.3059
3.56219
-1.29893
6.55992
2.86804
3.11513
-1.62236
2.10514
-0.112606
-0.551085
-0.359024
-0.226141
-0.697994
1.91868
4.66264
1.05044
-0.868256
-1.17276
4.06991
-0.860368
1.6859
-0.065436
-0.945318
-0.455128
0.950093
-0.572212
7.35709
4.99942
-1.40746
-1.74065
7.20735
-0.0792582
-0.372025
-0.141625
-0.772793
-1.80087
3.74658
-1.24366
0.996088
-0.217154
0.0166066
-0.143239
0.0442238
-0.0443225
0.191333
0.117205
0.165589
0.0368173
0.108176
5.40027
-0.235833
0.475091
4.18365
-0.0975095
0.19274
0.116722
-0.0904578
-0.758089
0.392403
4.29932
3.1949
3.41262
-0.129526
0.172459
6.48404
7.68228
1.539
0.788714
4.01129
4.35313
2.52472
3.00501
2.19169
2.882
4.01193
SCALARS CoVolArea double 1
LOOKUP_TABLE default
0.0325803
0.0200124
0.0411229
0.0102324
0.016991
0.0175194
0.0411475
0.0542202
0.0176894
0.0250397
0.013408
0.0377871
0.0780785
0.0693016
0.0851972
0.0953322
0.0997638
0.0538463
0.0444139
0.0216789
0.102004
0.0456769
0.0733674
0.0615426
0.0660001
0.0316803
0.0364729
0.0486411
0.0644067
0.044792
0.110422
0.0302475
0.0488738
0.0683921
0.0794251
0.0659858
0.050186
0.0354659
0.0301763
0.0908716
0.046904
0.0420942
0.0760058
0.0888587
0.0968983
0.0812965
0.0850918
0.0722152
0.053419
0.0755906
0.0531449
0.117565
0.085176
0.0573471
0.092726
0.082874
0.106565
0.0908424
0.09415
0.0501498
0.0326266
0.119671
0.0717516
0.0892441
0.0835589
0.0597088
0.084245
0.0232876
0.0289709
0.0515707
0.0974142
0.0303971
0.0823872
0.0404967
0.059731
0.053706
0.0687874
0.0868132
0.0669308
0.0520593
0.0704981
0.0481401
0.0840943
0.0837749
0.060222
0.0600838
0.100588
0.0769784
0.0732614
0.031
0.0416603
0.0717327
0.0877455
0.0522976
0.0514719
0.0474011
0.0303092
0.0278164
0.018638
0.0269591
0.0620904
0.030286
0.0904593
0.0592399
0.127825
0.0257718
0.0616607
0.079579
0.0493199
0.0255469
0.0367777
0.0337415
0.0322081
0.0661374
0.109991
0.0976715
0.0622375
0.0840547
0.0496411
0.0661042
0.0349448
0.0963333
0.075765
0.0593598
0.0443348
0.0721792
0.0589312
0.115397
0.0302876
0.0265179
0.0357489
0.0415977
0.0398139
0.0405356
0.0429062
0.0311049
0.0242641
0.0878761
0.0369501
0.0488166
0.05465
0.0364503
0.0375615
0.0437964
0.0543634
0.0706981
0.0420117
0.0337036
0.0889151
0.0613987
0.0674932
0.0672167
0.0743279
0.0406444
0.0262989
0.0360489
0.0478046
0.102981
0.0586936
0.0444447
0.0546356
0.107624
0.0584585
0.0883947
0.0739599
0.085174
0.0872113
0.0781959
0.0901231
0.0905995
0.0855338
0.0639482
0.0782808
0.0563191
0.0741313
0.0811104
0.0745325
0.0750407
0.0857507
0.0863951
0.0341937
0.0483307
0.0356269
0.0784278
0.0628801
0.0724638
0.0637187
0.0609604
0.0694224
0.0890779
0.0820075
0.0886187
0.0940428
0.0663396
0.0998761
0.105617
0.0881542
0.105354
0.11487
0.0346103
0.0513475
0.0990527
0.0758372
0.0825841
0.0722244
0.0916882
0.0460612
0.0861958
0.053754
0.111833
0.101211
0.0979154
0.0976375
0.101383
0.103385
0.104417
0.104221
0.115438
0.0641568
0.0475553
0.0835993
0.0764624
0.033041
0.0506716
0.0648106
0.0270966
0.0480773
0.0810289
0.0434476
0.0291736
0.0916042
0.105385
0.0643199
0.103172
0.0901377
0.0770034
0.104109
0.0616893
0.069803
0.111051
0.0957852
0.0962483
0.10081
0.0860077
0.0657318
0.0534085
0.0401469
0.0533876
0.106287
0.0732089
0.0993534
0.0333865
0.0318459
0.0229696
0.0208696
0.0226253
0.0366787
0.0410363
0.0279602
0.0379463
0.0255726
0.10659
0.0629303
0.0754619
0.0192154
0.0368895
0.0386514
0.0459945
0.0612287
0.104747
0.0751927
0.112718
0.103466
0.0752306
0.069666
0.0297436
0.0449527
0.0471643
0.0500662
0.0413787
0.0623836
0.0896756
0.0596107
0.0634124
0.0641365
0.0594051
0.0541344
0.0519522
0.047764
0.0761729
0.052509
0.0612877
0.0691747
0.0440804
0.0868224
0.0893185
0.0700136
0.074408
0.0754207
0.0346895
0.0485783
0.0692345
0.0601187
0.0639573
0.0657776
0.0797547
0.0326811
0.0621595
0.05132
0.0761491
0.0705279
0.055486
0.0846532
0.0834917
0.0796171
0.0807733
0.0790408
0.0866146
0.0525042
0.0380579
0.0690477
0.0633565
0.0527625
0.0622627
0.0423272
0.0798775
0.0900382
0.0672969
0.0937226
0.0885281
0.0856811
0.0740093
0.046549
0.070945
0.0353088
0.0280909
0.0481654
0.0368867
0.0469329
0.0415198
0.0430262
0.0615566
0.0474764
0.0366321
0.0963083
0.0851603
0.0622881
0.0811352
0.0628238
0.0814156
0.0581675
0.0259055
0.0384421
0.0395696
0.0457932
0.0581787
0.0379759
0.051269
0.0556134
0.0374115
0.0551936
0.0360054
0.0260288
0.0381352
0.0298193
0.0254612
0.0363195
0.0634007
0.0424817
0.0450271
0.0281639
0.0229896
0.0143661
0.0187893
0.0295521
0.0243411
0.030034
0.0660551
0.0334817
0.0450305
0.0349551
0.0552928
0.0258346
0.020183
0.0797013
0.126151
0.112552
0.0538772
0.091932
0.0692869
0.0839271
0.0948501
0.0612604
0.0204853
0.0385082
0.0317332
0.0625099
0.0935581
0.0310271
0.0391852
0.0396154
0.0346522
0.0311977
0.0424839
0.0494752
0.112176
0.0692447
0.109125
0.0370518
0.0327845
0.0245756
0.0273313
0.0203732
0.0290314
0.0275167
0.0239579
0.0541905
0.0366609
0.0807707
0.0328576
0.0565552
0.0308851
0.027089
0.0626212
0.0549442
0.0563162
0.0485195
0.0393135
0.107358
0.0816689
0.0844048
0.0663173
0.0843801
0.0605163
0.0726156
0.0779388
0.0885257
0.0628084
0.0662961
0.0564744
0.0368281
0.0423891
0.0258954
0.0670706
0.0552447
0.0561374
0.0484642
0.0534762
0.0648969
0.0646413
0.0676571
0.0703141
0.0880497
0.0344356
0.0916636
0.111082
0.0700941
0.108274
0.0689475
0.0396765
0.0539652
0.0409967
0.054481
0.0564856
0.0528822
0.0586029
0.0623991
0.0958647
0.0729433
0.0451836
0.0744127
0.0554839
0.106247
0.0986802
0.0606418
0.0665772
0.0471531
0.0555565
0.042428
0.0180059
0.04667
0.0444916
0.0280086
0.0276056
0.0327789
0.0486671
0.0537039
0.0364345
0.0387275
0.0337786
0.05103
0.0519176
0.0431316
0.0456414
0.0448896
0.0357085
0.0405877
0.0318275
0.0350022
0.0421588
0.0375689
0.0393352
0.0388639
0.0357399
0.0208686
0.0146469
0.0262501
0.0248835
0.0342555
0.0308201
0.038527
0.0744439
0.0491983
0.0626519
0.0511913
0.0939572
0.0343061
0.028644
0.0340963
0.0393903
0.0290159
0.0496318
0.0538056
0.0579395
0.0588647
0.0497263
0.0665359
0.0317848
0.048291
0.0419212
0.0223954
0.0440134
0.0274248
0.0287333
0.0389051
0.0306874
0.0474696
0.051133
0.0482651
0.0426361
0.0494034
0.0586583
0.065033
0.0375594
0.055774
0.0811888
0.0412311
0.0569393
0.0512948
0.0592707
0.0641066
0.0542883
0.0407129
0.0507624
0.0342325
0.0399581
0.0273966
0.0906973
0.082952
0.0957332
0.100142
0.0784298
0.0522887
0.04128
0.0614431
0.0612947
0.0700053
0.0589535
0.0710297
0.0418842
0.0888933
0.085612
0.0999798
0.0638822
0.0525744
0.0438355
0.0736706
0.0554256
0.0586146
0.0628714
0.0950222
0.0589545
0.0720637
0.0892284
0.0851888
0.0669206
0.0755425
0.0643994
0.0559522
0.0339109
0.0402059
0.0562176
0.0507713
0.0320735
0.0283938
0.0206955
0.025777
0.0324955
0.0311248
0.0389924
0.0286976
0.0510545
0.0453934
0.033031
0.0342981
0.0399716
0.0289687
0.0778245
0.0404029
0.0273328
0.0325077
0.126136
0.07861
0.108995
0.120393
0.115269
0.0935865
0.0450438
0.0561998
0.0695383
0.0655462
0.0855533
0.0742115
0.0581377
0.0386755
0.0422123
0.0414267
0.0433185
0.0532436
0.0340683
0.0663751
0.0467443
0.0443009
0.0427422
0.0721116
0.0854687
0.0957545
0.0997692
0.094893
0.0535854
0.0791837
0.0766933
SCALARS SignedDistance double 1
LOOKUP_TABLE default
1.14495
0.817734
0.0338384
-0.152556
0.08189
-0.000474583
1.27219
0.11352
0.41337
1.21353
1.17712
0.0110631
-0.00672739
-0.0017803
-0.0390323
-0.0169731
0.0334061
1.26006
1.25519
1.1088
0.00303423
1.30224
0.0489795
0.677676
1.20159
0.175689
0.0300823
0.00827834
1.16668
1.34779
0.0362855
1.19169
0.014923
1.22309
0.0179809
0.0541529
1.32119
0.292654
0.726649
1.18918
0.0191023
0.417477
0.022428
-0.0269521
0.0462209
1.14755
0.0389999
1.14962
-0.0419236
0.0125522
0.00268508
0.0162861
1.05041
-0.0444973
-0.00722098
1.14202
-0.0121413
0.470076
-1
1.23625
1.18242
-0.166556
1.27207
-0.00464695
-0.00161146
-1.00569
-0.0190051
1.35663
0.140845
0.0735859
0.222994
0.933717
0.154336
1.11288
-0.305401
0.118515
1.23239
-0.012041
0.125425
0.0110985
0.0067726
0.126819
0.0100179
1.15835
0.00721307
0.0112889
-0.000209061
0.100896
0.066404
0.0850288
0.0401407
-0.0169091
-0.00326834
1.23012
0.299843
0.265454
0.0324534
0.648367
1.24437
1.21433
0.0553446
1.34834
1.14449
1.23535
1.1674
1.17817
0.290641
0.0229628
-1.0105
0.552402
0.159608
0.0407194
-0.0372969
-0.0158846
0.0150171
-0.015892
0.144412
-0.00935626
1.23081
-0.0147711
0.0849354
0.17254
-0.101278
1.49519
1.3146
0.0855895
1.16802
0.00964435
0.564844
0.374689
0.182503
0.637706
1.33156
1.4989
1.2814
0.0796288
0.338467
0.995372
0.68322
1.2704
0.0931291
1.13432
0.0520817
0.086923
0.324692
-0.0176382
1.28985
0.0785725
-0.0126752
0.00572408
0.0128317
0.76977
0.00257458
0.570487
0.0320025
0.675568
1.24675
1.18746
1.06503
-0.0813769
0.0239065
0.0470778
0.640055
1.10565
0.39204
0.00618663
-0.00839389
0.0541112
-0.0138773
0.0299781
0.00233617
0.0939507
1.19298
1.17585
0.00763266
0.00838223
0.244756
-0.0298394
1.05329
-0.00177743
0.0199157
-0.00670882
-0.00648007
0.0332686
0.0182922
-0.0108808
-0.0128745
0.00188497
0.020926
-0.0163664
-0.0307075
-0.0216503
0.0992749
1.16485
-0.017907
0.0176554
0.0105463
-0.0201231
-0.00824761
0.0206854
-0.0393849
0.00467333
0.0305701
-0.128606
0.0294461
-0.0114819
1.29276
0.783611
1.21853
0.00063854
0.0506587
0.0448226
-0.0148483
-0.00169423
-0.0262141
0.0119848
0.00783284
0.00416431
1.19921
1.18948
-0.000125792
0.670106
1.24498
0.27244
0.765975
0.882132
1.29965
0.249024
0.656129
1.21389
0.219561
-0.00382531
0.267091
0.0203515
-0.139006
0.820792
0.00088487
1.29827
1.20997
0.00345636
0.441308
-0.0277477
-0.0166615
0.157014
0.0466222
0.227035
0.109486
-0.047884
-0.0105383
0.0827862
-0.0530073
0.632116
1.34278
0.175371
1.1398
1.17062
1.18971
0.827492
0.0241807
0.0193491
0.172665
0.00583508
0.181033
0.0310203
0.667929
0.187768
0.169822
0.26404
0.207811
-0.995616
0.140895
0.0703228
0.0728229
0.0146582
0.0359776
1.08638
0.133413
0.272186
0.671333
1.19921
0.0695204
-0.178412
1.29083
0.235339
0.0447236
0.04747
1.3647
1.20275
0.168695
-1.01363
-0.092099
0.00244028
1.14336
0.104925
0.065645
0.107405
0.0228023
0.618207
0.00795924
-0.0066063
-0.00458917
-0.000367134
-0.00115859
-0.0133257
0.0112331
-0.0403561
1.26797
1.17178
1.20627
0.0482902
-0.0762138
-0.34712
0.146915
0.257746
0.032559
0.0278659
0.0402115
0.00538528
0.0047974
-0.0143497
0.430832
-0.0121314
0.040598
0.00900603
0.744137
0.0420886
0.0348857
1.06646
-0.00410548
0.150193
0.0793199
-0.0135911
0.214502
0.156429
0.0475523
0.144692
-0.0203097
-0.710884
0.15898
0.0466057
0.182003
0.432565
0.193131
0.048009
-0.0462521
-0.0883345
1.01865
0.114226
0.0625509
-0.0213836
-0.00258533
1.24457
1.38192
-0.0293979
1.05888
0.0539589
1.3538
1.21851
-1
0.182252
0.104016
0.0096921
-0.0696808
-0.0134315
0.0772717
0.101558
0.0106357
0.00720082
0.00310316
-0.00953663
1.02389
1.14924
1.16253
1.14061
1.25848
1.22402
1.23218
0.11278
1.16904
1.2699
1.21093
0.271322
1.3571
1.21247
1.1805
1.23631
1.12005
1.2043
1.25129
1.23652
1.26375
1.1698
1.31043
1.28134
1.32928
1.28941
0.181225
0.0503616
1.211
1.23193
1.26791
1.25399
1.09995
0.101227
0.281539
-0.0104506
-1.04545
0.117919
0.0788329
0.0123682
0.091612
0.0440411
-0.00881583
0.217705
0.107038
0.894137
-0.239861
-0.133199
0.0536669
0.839837
0.273865
0.869139
0.033079
0.0793916
-0.0102372
0.0105266
0.00851577
-0.031319
0.00855613
-0.00590644
-0.214975
0.0622383
-0.00805632
0.097655
1.13645
0.140153
0.0729309
-0.164796
0.00303872
0.0931089
1.3158
1.37538
0.0151113
-0.0024763
0.340927
0.0764545
1.19297
1.33906
1.21019
-0.0309983
0.135482
0.00494726
-0.00276516
-1
-1.05725
-0.00864199
0.38938
0.0187407
1.18093
1.27839
1.4177
1.27778
1.44731
1.22316
1.24179
0.280232
-0.141051
-0.0718027
0.0373675
1.37728
0.0602022
1.1171
-0.035931
-1.00163
0.16943
1.17572
1.33619
1.24208
0.130989
0.289061
1.1581
0.152909
0.468211
0.248531
0.141463
-0.89445
-0.0923044
0.287015
0.0126535
-0.0694962
0.0010768
1.30746
1.38049
1.46703
1.32215
1.23194
1.41129
1.20735
1.16075
1.35624
1.19385
1.43398
1.31938
1.29518
0.880991
0.460209
0.816265
0.353094
-0.00444733
-0.0126457
0.00616019
1.21922
1.24182
0.205144
0.689937
1.12998
1.1267
0.886396
1.1687
1.24726
1.17511
0.0186224
0.377972
0.0298772
1.21369
1.22373
0.675012
0.473792
0.0368461
0.0153838
-0.12843
-0.0171619
-0.00772154
0.0151172
0.0144848
0.104291
1.21096
1.31885
1.27886
-0.0247107
1.12193
0.0195525
0.418974
1.28313
-0.0270457
-0.0103166
1.22277
1.17268
1.2678
-0.00178548
0.062816
0.00642692
0.0533578
1.12633
0.0711123
-0.172245
0.000268727
0.0718512
-0.00559047
0.902121
0.0220961
0.441352
0.0118322
1.02509
0.120533
-0.0261624
0.0285779
0.971569
-0.0101169
0.215707
0.0304036
-0.0549838
-0.000818734
0.0366829
-0.0179912
1.27769
1.26125
1.30516
1.29006
0.130972
0.00575955
-0.0377286
0.0288358
0.0602656
0.875298
0.0340404
0.0798067
0.00117052
1.13139
0.732019
1.15395
0.249441
0.931215
0.134057
0.0255364
0.498453
0.244754
0.012581
1.3537
1.18543
1.34621
1.14819
0.350961
0.0174067
0.0803203
0.153518
1.0672
1.12583
1.20726
1.17492
1.26342
0.960118
1.24607
1.18896
1.17235
1.07251
0.0380068
1.29278
0.689114
0.142778
0.682596
1.18334
1.20293
1.26018
1.1713
-0.0284157
0.0878364
-0.123025
0.0880222
-0.019922
0.123368
0.0408271
0.060378
0.064887
0.0355195
0.0350469
0.0272012
-0.0572511
-0.0955715
-0.0210334
-0.00269161
0.0288117
