# vtk DataFile Version 4.2
vtk output
ASCII
DATASET POLYDATA
POINTS 642 double
-1.08352 2.33526 -0.400515
1.22585 2.41603 -0.374405
-1.4597 -1.66006 0.00216549
1.14106 -1.48504 0.0662319
-0.0420163 -0.410514 1.42971
-0.00418006 1.76716 1.33902
-0.128513 -0.426516 -0.546391
-0.24372 1.86663 -1.42795
1.37763 1.33417 -0.726237
1.12486 0.757687 0.466159
-1.42562 1.2037 -0.959124
-1.17779 0.570757 0.542152
-1.40644 1.69881 0.137256
-0.626111 1.2834 1.10318
-0.547338 2.42057 0.925756
0.576228 2.42339 0.906797
-0.00276881 2.80057 -0.187178
0.935428 2.38432 -0.941107
-0.915346 2.34986 -1.07716
-1.2615 1.71033 -1.38504
-1.91422 1.99315 -0.947202
-1.48224 0.904281 -0.291789
0.603075 1.32747 1.06681
1.49261 1.7742 0.11118
-0.542399 -0.169252 1.17832
-0.0482677 0.314392 1.34316
-1.1698 -0.661692 -0.153172
-1.304 -0.825705 0.341064
-0.266823 1.20761 -1.31084
-0.991015 0.573868 -0.846133
2.0389 2.03369 -0.875382
1.12776 1.76386 -1.06632
1.14816 -0.693279 0.415704
0.505823 -0.19111 1.11526
0.644193 -1.32971 0.958359
-0.718755 -1.29336 0.810609
-0.0049965 -1.44001 0.136295
-0.727739 -1.00488 -0.267216
0.509562 -1.03486 -0.229882
0.743198 0.389003 -0.663602
0.985678 -0.540718 -0.112363
1.43582 1.12293 -0.203564
-1.34711 2.10055 -0.131761
-0.932035 2.03855 0.573023
-0.762584 2.40717 0.251235
-0.907776 0.932312 0.808613
-0.951083 1.53403 0.72867
-1.26664 1.18239 0.334482
-0.209172 2.0977 1.21957
-0.655285 1.89669 1.12218
-0.290679 1.57735 1.24202
-0.328915 2.81194 0.470231
-0.577454 2.58893 -0.284536
0.213966 2.10224 1.21726
0.00406438 2.56163 1.04192
0.691823 2.56177 -0.28584
0.319873 2.69006 0.43443
0.85092 2.3449 0.145198
-0.455211 2.94737 -0.728353
-1.0289 2.41647 -0.789048
1.16664 2.48962 -0.68995
0.460592 2.94464 -0.715088
-0.669889 2.1215 -1.27297
-0.0611845 2.51834 -0.958593
0.481644 2.1476 -1.14579
-1.63328 2.61737 -1.26052
-1.58842 2.309 -0.655848
-0.916906 1.79013 -1.37683
-1.28324 2.07918 -1.43669
-1.64524 1.53875 -1.04997
-1.90033 1.84305 -1.65988
-1.40758 1.50672 -1.22133
-1.83783 1.90325 -0.315868
-1.50498 1.06568 -0.668605
-1.72504 1.48351 -0.589436
-1.55077 1.35598 -0.156362
-1.36769 0.705668 0.143141
1.00334 2.04296 0.464064
1.47407 2.25651 -0.0710204
0.277304 1.59736 1.25043
0.62111 1.90045 1.04889
1.30508 1.29764 0.275516
1.00308 1.57319 0.620616
0.919328 1.01039 0.727789
-0.259308 0.778167 1.21147
-0.0163629 1.19626 1.23157
-0.928758 0.122445 0.875978
-0.523557 0.452199 1.14341
-0.0148351 -0.0857812 1.81291
-0.231424 0.0743746 1.4578
-0.244634 -0.310947 1.46004
-1.31976 -0.281188 0.111811
-1.27971 -0.209384 0.489369
-1.25573 0.373131 -0.545636
-1.28779 -0.0882955 -0.193492
-1.48635 -1.30501 0.232436
-1.2807 -0.85812 0.054456
-1.29846 -1.30455 -0.00260444
-1.14202 1.3315 -1.22878
-1.23996 0.99591 -0.961199
-0.286607 1.56578 -1.40366
-0.907709 1.492 -1.33477
-0.635388 -0.0689881 -0.664081
-0.786914 1.06261 -1.16997
-0.189139 0.617519 -0.988959
1.16732 2.12065 -1.07469
0.644328 1.8305 -1.21971
1.73873 2.55418 -0.518498
1.64422 2.6267 -1.23081
1.32892 1.58415 -0.928555
1.56154 1.99936 -1.06775
1.6125 1.66319 -0.8129
1.03986 -1.13788 0.275778
1.02369 -1.07456 0.702432
1.12773 -1.6265 0.556163
0.872437 0.17107 0.829316
0.956439 -0.527781 0.809558
1.14727 -0.0207501 0.515973
0.224804 -0.863816 1.06231
0.629582 -0.790734 0.992606
0.176705 -0.332838 1.34705
0.39751 -1.62574 0.60567
0.756308 -1.65887 0.0438794
-0.259136 -0.814951 1.05866
0.0223834 -1.23434 0.862752
-0.865159 -1.53755 0.0839806
-0.459726 -1.48064 0.550566
-1.22072 -1.65941 0.536418
0.394491 -1.2981 -0.122111
0.821994 -1.34569 -0.075483
-1.10103 -1.37439 -0.0922795
-0.484268 -1.24306 -0.126435
0.224944 -0.764517 -0.396312
-0.0581888 -1.03064 -0.278614
-0.443129 -0.740109 -0.429257
0.766167 -0.898145 -0.157217
0.934792 -1.08684 0.0487183
0.343614 -0.180019 -0.587575
0.572221 -0.621515 -0.363261
1.15037 0.612447 -0.432296
0.860736 -0.192603 -0.353687
1.13378 1.0518 -0.745989
1.08075 -0.691266 0.122113
1.46423 1.25179 -0.512546
1.164 0.260488 -0.130734
1.17078 0.0224113 0.159795
1.32006 0.948043 0.126098
0.144516 0.0984761 1.40356
0.489943 0.508025 1.09279
0.202123 0.83667 1.19973
-1.22915 -1.13875 0.690524
-0.67087 -0.786172 0.940025
-1.0579 -0.602207 0.732267
-0.81679 -0.579533 -0.418981
-1.02497 -0.921026 -0.186854
-1.06204 -0.214334 -0.44107
0.985735 1.33422 -0.998725
0.37825 0.937299 -1.06907
0.555511 1.45981 -1.23123
1.6077 1.50119 -0.0852478
1.7798 1.58706 -0.487986
2.00311 2.01183 -0.230392
-1.20615 2.24487 -0.299216
-1.03217 2.20288 0.038517
-0.934309 2.33801 -0.163231
-1.19081 1.8559 0.337095
-1.14779 2.05864 0.21448
-1.46749 1.95848 0.063599
-0.671465 2.45473 0.611854
-0.884503 2.26072 0.448484
-0.760169 2.25441 0.781166
-1.07503 0.718087 0.650722
-1.0857 1.06773 0.596958
-1.20356 0.845945 0.460054
-0.793324 1.42891 0.955924
-0.928307 1.25808 0.773934
-0.754201 1.11927 0.957252
-1.32661 1.44486 0.222181
-1.11982 1.35758 0.512686
-1.15992 1.6088 0.428046
-0.0825968 1.91072 1.33952
-0.260786 1.85228 1.26775
-0.121386 1.70372 1.33873
-0.614994 2.17864 1.0557
-0.439034 2.03097 1.21212
-0.370839 2.28034 1.1238
-0.478077 1.43627 1.21312
-0.466341 1.74172 1.21258
-0.653911 1.5961 1.12446
-0.986383 1.80345 0.68604
-0.831462 1.72235 0.956449
-0.845838 2.01767 0.919812
-0.662182 2.5101 0.00410084
-0.858164 2.43501 -0.357087
-0.436434 2.60589 0.720227
-0.606546 2.6667 0.395075
-0.325389 2.69556 -0.230594
-0.445378 2.68946 0.0868655
-0.166018 2.81651 0.130763
0.077549 1.91285 1.33952
-0.00110548 2.11769 1.21823
0.312552 2.55618 1.02976
0.137298 2.36492 1.21205
0.40113 2.30007 1.14803
-0.133696 2.36117 1.21256
-0.299126 2.55251 1.03718
1.03132 2.45306 -0.356207
0.78073 2.45818 -0.0667537
1.09584 2.37343 -0.210093
0.160424 2.72504 0.13265
0.481664 2.62574 0.0694229
0.352708 2.66549 -0.215341
0.706638 2.43179 0.563245
0.598233 2.54946 0.339754
0.466923 2.6028 0.703135
-0.149419 2.68972 0.778704
0.164669 2.6896 0.774507
0.0111827 2.81667 0.483613
-0.775639 2.53168 -0.563035
-1.06702 2.38412 -0.564534
-0.215152 2.71731 -0.491919
-0.504239 2.70457 -0.534463
-0.981672 2.40142 -0.952601
-0.679136 2.59214 -0.743685
-0.619996 2.57115 -0.880078
1.21994 2.46452 -0.511953
0.933248 2.54193 -0.517421
0.665896 2.57857 -0.811493
0.782757 2.59324 -0.682718
1.07398 2.45339 -0.837508
0.574792 2.68625 -0.506632
0.205068 2.71924 -0.473651
-0.444032 1.96599 -1.35139
-0.131061 2.15289 -1.21162
0.101924 1.99251 -1.33329
-0.527017 2.4796 -1.01405
-0.375126 2.33095 -1.11359
-0.818387 2.25257 -1.18303
0.74245 2.28543 -1.03363
0.222789 2.33247 -1.05921
0.485339 2.46948 -0.943484
-0.00801612 2.68971 -0.678952
0.187247 2.63454 -0.812485
-0.263255 2.75812 -0.924722
-1.33873 2.35207 -0.774107
-1.28816 2.30442 -0.513339
-1.29802 2.34773 -1.17105
-1.35352 2.37843 -1.02236
-1.88391 2.28164 -0.786595
-1.62919 2.41045 -0.939916
-1.91427 2.31488 -1.11181
-0.596679 1.82575 -1.38798
-0.836311 1.94745 -1.35484
-1.32436 1.91258 -1.45652
-1.10116 1.92746 -1.4051
-1.11628 1.75769 -1.39417
-1.00951 2.09222 -1.33631
-1.14492 2.23212 -1.28287
-1.50209 1.34323 -1.00547
-1.53162 1.54386 -1.1691
-1.4272 1.33225 -1.07269
-1.91333 1.95904 -1.26859
-1.71024 1.76988 -1.29016
-1.86135 1.71091 -1.06474
-1.36071 1.63593 -1.33369
-1.57638 1.76368 -1.36573
-1.49949 1.84238 -1.46427
-1.44733 2.28031 -1.39458
-1.52621 2.072 -1.67971
-1.81609 2.27047 -1.49292
-1.50997 2.25066 -0.366944
-2.02286 1.98922 -0.616918
-1.84156 2.233 -0.438691
-1.61229 2.02992 -0.239419
-1.63584 1.79864 -0.0945293
-1.4636 1.15504 -0.860361
-1.57746 1.32657 -0.86159
-1.59143 1.22728 -0.447844
-1.61158 1.2803 -0.647244
-1.50929 0.988789 -0.476592
-1.73034 1.51292 -0.841084
-1.91226 1.70431 -0.768632
-1.34058 0.978082 0.211716
-1.26453 0.610112 0.387612
-1.51726 1.53343 -0.0242202
-1.42184 1.27753 0.073471
-1.43263 0.810148 -0.090171
-1.45465 1.08167 -0.0305596
-1.53601 1.16003 -0.246132
-1.90719 1.6618 -0.46144
-1.65748 1.44249 -0.382257
-1.68085 1.62274 -0.260319
1.17066 2.24946 -0.0355251
1.32475 2.35615 -0.275265
0.768194 2.23976 0.715
0.924645 2.21001 0.318746
1.53057 2.02182 0.0446243
1.24556 2.08792 0.1171
1.31059 1.91241 0.278104
0.111237 1.70892 1.33872
0.259904 1.86106 1.26761
0.615401 1.6249 1.0607
0.459698 1.76141 1.20398
0.45712 1.47246 1.20614
0.452215 2.03918 1.20881
0.608139 2.1663 1.00284
1.20167 1.0168 0.382144
1.12998 1.16704 0.496728
1.06243 0.85383 0.559365
1.26099 1.66855 0.343747
1.19468 1.42959 0.411839
1.41478 1.53486 0.198008
0.751091 1.16942 0.898247
0.964514 1.3139 0.675968
0.784315 1.46671 0.88298
0.77666 1.99323 0.793289
0.784349 1.73687 0.844968
1.04627 1.82547 0.579217
-0.143636 1.40619 1.253
-0.00744893 1.57464 1.33894
-0.438773 1.07785 1.16133
-0.300272 1.2393 1.22305
-0.0346862 0.713498 1.24184
-0.144785 0.971307 1.23012
-0.13348 0.49918 1.27333
-1.10221 0.369995 0.69471
-0.910755 0.532452 0.851455
-0.51025 0.109612 1.1994
-0.709212 0.2991 1.04324
-0.735042 -0.0522817 1.03387
-0.72013 0.724267 0.985347
-0.567956 0.904564 1.07991
-0.0301469 -0.365072 1.65635
-0.243216 -0.274659 1.80639
-0.129181 -0.382007 1.48295
-0.136923 0.15572 1.43036
-0.177982 0.00753664 1.66489
-0.0545378 0.0672094 1.52877
-0.381059 -0.25074 1.32136
-0.265105 -0.129002 1.55262
-0.356146 -0.0281901 1.3645
-0.381351 0.603705 1.19073
-0.349308 0.225119 1.28959
-0.232846 0.339712 1.30265
-1.30363 0.210333 0.333852
-1.2524 0.26189 0.550872
-1.37289 0.325424 -0.0741181
-1.34514 0.238436 0.117055
-1.35183 -0.55547 0.433984
-1.30935 -0.280488 0.285194
-1.40038 -0.614237 0.235454
-1.36757 0.980284 -0.830989
-1.37886 0.771674 -0.636585
-1.22494 -0.442241 -0.155662
-1.26882 0.0939015 -0.346438
-1.18349 -0.267232 -0.29108
-1.38332 0.597592 -0.443929
-1.3843 0.455531 -0.261168
-1.71644 -1.63478 0.139688
-1.41556 -1.34287 0.0712655
-1.57256 -1.51602 -0.129144
-1.3014 -0.866582 0.177487
-1.30943 -1.10959 0.141331
-1.32087 -1.08798 0.282193
-1.18001 -0.970762 -0.0505142
-1.25741 -1.08182 0.0443925
-1.24032 -0.791991 -0.0536417
-1.31482 -0.220659 -0.0436336
-1.27986 -0.559624 -0.038764
-1.33991 -0.614068 0.0809201
-1.32438 1.28249 -1.11264
[...]
POINT_DATA 642
SCALARS Mean_Curvature double 1
LOOKUP_TABLE default
-0.113482
-0.123473
3.78011
5.52167
0.821152
0.0151507
0.15286
4.26362
0.96128
0.60846
1.3998
0.297832
0.428978
1.38367
2.19414
2.77178
2.27281
1.37169
1.11705
1.36935
-0.0466273
0.934412
1.14966
-1.07279
0.244797
0.642455
0.827534
-0.579452
0.97156
0.319461
4.50312
0.81824
2.2693
0.0341027
1.30761
-0.145764
1.12956
1.02642
0.915422
0.516178
0.480703
0.958415
-0.701668
-0.614773
-0.531276
0.230722
-0.34029
0.505131
-0.18953
2.14289
-0.845142
3.10702
-0.234171
-0.570337
1.64535
-0.223869
0.759555
-0.432464
6.29441
0.481677
0.684683
6.46931
0.760976
-0.477433
0.30189
5.77982
-0.0844606
0.400522
1.571
0.359586
6.05018
1.0627
2.91094
1.40875
-0.221801
0.50078
0.88084
0.474562
2.57987
-0.353854
1.16138
0.557273
-0.133069
0.348779
0.372568
0.102453
0.450624
0.438939
7.98989
1.2368
1.88479
0.460048
2.15151
1.16057
1.20004
3.98286
1.32592
0.415534
1.15141
1.4331
0.528408
0.431607
0.497673
0.279652
0.10952
1.06774
0.952335
4.3864
5.68829
0.811093
0.309376
0.451554
-0.442953
0.284956
5.78773
0.814603
1.50308
3.31023
0.679813
-0.334108
0.556834
2.39145
3.32856
0.0501064
0.834278
1.59364
0.788476
3.82943
1.61682
0.537657
0.875207
0.868522
0.735971
0.242105
0.809587
0.849698
0.28448
0.474085
0.948247
0.807468
0.981306
1.12007
-0.928213
1.01996
1.04971
0.596123
1.10839
1.00205
0.40219
0.718687
3.12162
0.491554
0.214815
0.959378
0.969998
1.54887
0.712568
0.504014
0.980992
-0.358012
1.16408
4.54213
-0.512796
-0.725075
-0.352487
0.942549
0.838459
4.06765
0.701545
1.48485
1.20008
0.374848
0.368872
0.395602
0.522176
0.181336
0.211385
-0.0672756
0.0431757
-0.074346
4.59804
-0.050577
3.39811
2.19559
2.76119
0.592929
2.3665
1.13818
1.78389
1.21833
1.41363
3.1085
-0.301896
-0.227509
0.744603
3.41372
-0.25753
0.559375
2.05909
4.56079
-1.84829
3.56374
3.51326
2.70622
3.82557
3.90063
-0.338344
-0.310459
-0.107712
-0.299219
0.763292
-0.50513
1.79725
0.941015
2.07755
1.08898
1.52081
2.47503
0.505594
0.184318
-0.69803
0.653537
0.934464
1.2481
1.33867
0.174394
1.14826
0.984286
2.06265
1.17761
0.233923
-0.68977
0.566549
-0.277067
0.0202466
0.982322
0.222796
0.531971
0.847125
0.0823492
1.13577
0.168286
0.343679
4.60089
-0.344709
-0.460582
1.30101
0.333333
3.51263
1.51793
3.62423
1.17256
0.668352
1.50453
1.49777
1.42148
1.28631
1.51983
1.083
0.498183
1.24719
2.59133
0.319602
3.44339
1.14188
0.743927
0.989993
0.938461
5.79931
4.04305
2.61327
4.25707
4.8026
-0.114235
2.67174
1.35393
0.821351
0.900178
0.87045
1.30175
0.818752
2.04864
0.424743
0.606033
0.426005
0.374104
0.330761
0.757677
0.753139
4.43457
0.279819
-0.401902
-0.442505
-0.594033
1.52428
-0.413522
0.428602
-0.855505
2.66253
3.27971
0.273698
0.532673
2.23672
3.03715
3.78353
1.35916
0.69263
0.707096
0.363123
-0.0251008
-0.00144086
1.14947
0.242985
0.15669
0.539944
-0.169614
-0.0810733
1.89099
-0.396443
4.26186
0.727401
0.73805
0.390357
0.855815
0.481216
0.684032
0.426412
0.214813
0.641858
0.566769
0.265671
0.175497
7.20644
8.27383
2.18394
1.11001
7.36348
-0.440788
0.5122
1.51689
0.473386
0.476945
0.540074
0.599031
0.27502
2.73576
1.04731
0.500331
3.1519
-0.189708
4.86132
1.53585
1.48825
0.932044
1.27072
1.43202
0.879887
1.15163
6.89877
-0.432897
8.83656
-0.109339
0.124254
-0.448309
0.739389
0.360484
3.80759
1.87092
0.945386
2.029
1.37637
1.53593
1.17014
1.2177
0.879895
1.32087
1.0941
1.63527
1.28543
1.08213
1.15877
0.848865
0.4163
1.08826
0.340295
0.180677
0.151324
0.246175
0.158086
0.498763
0.927836
0.345717
1.01057
0.920132
0.55524
0.852357
0.653136
5.74375
1.2374
0.397059
0.233668
0.152706
0.866496
-0.627857
2.91023
4.10798
4.06927
2.98469
0.622728
1.38939
0.815671
0.34154
0.524783
0.762952
0.595261
0.856391
-0.479691
-0.146428
3.87721
0.843672
5.66193
0.806401
-0.489565
2.34733
7.67045
4.73705
-0.975302
-0.549188
4.80779
-0.499218
4.32944
0.611024
0.564432
0.557149
0.0459628
0.148772
0.395668
-0.00749401
0.616265
1.73818
0.840304
0.105474
0.455351
-0.170824
-0.0995871
0.255389
0.568144
0.74316
0.483695
1.61505
2.53091
3.97916
0.461758
6.70115
5.78515
1.21604
0.829714
1.78312
0.443131
1.01362
0.477616
0.610696
-0.235267
0.453135
0.517522
1.38419
2.82411
1.44108
1.60539
0.801887
0.394142
0.824921
6.00312
2.93899
3.86123
0.435873
1.00934
0.949754
8.37967
6.7168
1.58529
1.48567
1.02552
1.39194
1.31158
8.70631
4.85869
0.900189
1.18115
1.02218
1.11087
0.810742
0.440534
0.12841
0.408019
0.854489
0.673798
0.842337
0.998936
0.843606
0.886546
0.803465
0.853256
1.12921
0.335687
-0.164723
0.905094
0.633905
0.437374
0.593098
0.74683
0.366063
0.671205
0.70606
0.686871
0.475883
0.885864
0.976518
1.2819
1.05452
1.14845
0.925925
0.946281
0.974645
0.226832
0.832238
0.802351
0.988845
0.885963
0.94822
0.15933
4.51798
0.501436
-0.267274
3.74343
0.941237
1.28816
0.968243
1.16473
1.00925
1.16029
0.746823
0.735297
0.315221
0.35929
0.585531
1.08533
1.00829
0.749112
5.03815
0.647344
1.56741
5.06678
0.543394
0.215322
5.72448
0.927925
0.528286
0.241807
0.309566
0.394146
0.254437
0.0911681
0.46134
0.286109
0.981784
0.24314
0.343626
0.530746
0.428989
5.86871
1.0374
2.30059
0.346055
0.208347
0.97795
0.221805
0.748286
0.632516
0.00225288
0.782188
2.76357
0.258544
0.0754489
0.330458
1.32913
0.180414
1.36135
0.607345
1.08987
0.940975
0.749003
1.15857
1.69718
1.08717
0.582201
0.800807
0.986702
1.08278
1.05766
0.966718
1.46168
1.17799
1.06411
1.09711
1.17295
1.02491
0.235507
1.00436
0.942125
0.790119
0.14628
1.00127
0.31843
0.103796
0.146035
1.52525
0.550118
0.943091
0.420114
0.784345
0.365661
1.0515
0.896419
0.935442
0.270015
0.623061
0.12399
3.22528
0.0853943
2.92257
3.21277
2.1819
0.73679
0.385895
3.37649
4.12492
1.34451
2.15938
1.11953
2.27705
4.97463
SCALARS CoVolArea double 1
LOOKUP_TABLE default
0.037901
0.0256178
0.0456606
0.0271024
0.0209256
0.018595
0.0613831
0.0493287
0.0135057
0.038026
0.0153624
0.0457688
0.08062
0.0677414
0.0791087
0.0836013
0.112919
0.0672256
0.0663643
0.0321985
0.0982809
0.0723607
0.0729292
0.0657988
0.0759812
0.0337574
0.0322296
0.0486118
0.0868148
0.0788238
0.0942834
0.0358689
0.0478992
0.0782202
0.0827982
0.0739912
0.089651
0.0367505
0.0304802
0.118617
0.0431273
0.0487344
0.0850972
0.0932229
0.0996017
0.0907268
0.0823669
0.0799297
0.0537773
0.0707037
0.0544536
0.108276
0.0876427
0.056238
0.0834976
0.0916559
0.10398
0.0922664
0.101293
0.0722158
0.0615336
0.115491
0.0859612
0.111045
0.099903
0.120521
0.0851858
0.040243
0.0590119
0.0537451
0.113628
0.0342876
0.0870041
0.0590587
0.0628657
0.0584151
0.0949421
0.0937869
0.0754596
0.0524388
0.0690248
0.0537428
0.0857639
0.092222
0.0634998
0.0554689
0.105839
0.0811499
0.0548062
0.0376769
0.0543067
0.0745214
0.0876401
0.0684884
0.0666237
0.0652025
0.0300655
0.0333211
0.0310869
0.0448254
0.0788106
0.0338561
0.117696
0.075404
0.171845
0.0447998
0.0674069
0.0910091
0.123971
0.0309868
0.0512083
0.0380434
0.0374237
0.0668501
0.0974941
0.0970367
0.0661777
0.0839338
0.0578386
0.0628689
0.0533307
0.109466
0.0805721
0.0698385
0.0746575
0.0818319
0.0950424
0.105587
0.0493933
0.0368933
0.0424088
0.0592958
0.049608
0.0556632
0.0541871
0.0317196
0.0287546
0.110797
0.0437851
0.0733688
0.0687426
0.0579853
0.0345225
0.0412358
0.0728887
0.0786446
0.0606329
0.0432777
0.0946892
0.0658337
0.0709377
0.0658705
0.0746969
0.0482678
0.0313583
0.0588828
0.0569517
0.125835
0.0762323
0.0463698
0.054951
0.0933938
0.0674999
0.0970657
0.0799523
0.0927155
0.0956191
0.0836689
0.0876824
0.0950808
0.0837958
0.0773059
0.0852891
0.0708201
0.0714308
0.0797148
0.0780031
0.0760089
0.0837925
0.0884802
0.0361619
0.0503225
0.0371407
0.0735763
0.0612736
0.0671596
0.0611538
0.0597458
0.065871
0.0910571
0.0778831
0.0842031
0.0960253
0.0713363
0.0916852
0.0992747
0.0943612
0.101801
0.113103
0.0366304
0.0520252
0.0859634
0.0691943
0.0716247
0.06711
0.0822043
0.055943
0.0907007
0.0595872
0.113496
0.105144
0.106878
0.0921464
0.0993975
0.0936903
0.0970178
0.0974772
0.110992
0.0739284
0.0601697
0.0987003
0.0817295
0.0626577
0.0706129
0.0774528
0.0439267
0.0664552
0.0920066
0.0731536
0.061464
0.0963987
0.110764
0.0796534
0.124345
0.0986583
0.0890065
0.111011
0.0723447
0.0751727
0.117389
0.0947904
0.104798
0.108795
0.104807
0.0733685
0.0593671
0.0730718
0.0763024
0.0994637
0.09523
0.120635
0.050271
0.0538705
0.0460386
0.0413568
0.0317312
0.0547772
0.0621194
0.0291128
0.0395365
0.0240729
0.110896
0.069796
0.0769313
0.0336565
0.0500053
0.0623963
0.10009
0.104009
0.146106
0.0788872
0.103887
0.0983062
0.0792933
0.0725101
0.0374323
0.0468248
0.0523922
0.0535083
0.0648874
0.0627265
0.0858874
0.076664
0.0775132
0.0668268
0.0658653
0.084901
0.0666123
0.0576205
0.0818428
0.0579373
0.0682195
0.077458
0.0521038
0.0883451
0.0924263
0.0753323
0.0830532
0.0822939
0.0364749
0.0500522
0.0672855
0.0582044
0.0611351
0.0620444
0.0745195
0.0491745
0.0711085
0.0692422
0.0772157
0.0712989
0.0560881
0.0855516
0.0833517
0.079434
0.0857964
0.0820298
0.0918131
0.0537524
0.0383538
0.07042
0.063181
0.0491694
0.0588831
0.0452123
0.0855047
0.102111
0.0726586
0.097729
0.0932109
0.0951385
0.0801266
0.0441466
0.0601313
0.041336
0.0315175
0.0444442
0.033283
0.0603038
0.0485066
0.051802
0.06983
0.0550591
0.0464924
0.102537
0.0833452
0.0941255
0.102957
0.0626041
0.0821705
0.0532429
0.0429844
0.0673309
0.0424205
0.0675943
0.0510408
0.0784499
0.086454
0.0854807
0.0540221
0.0605349
0.0371304
0.0342636
0.0442188
0.0282893
0.0286867
0.0294456
0.0700956
0.0410958
0.044618
0.0307758
0.0300119
0.0265848
0.0290422
0.0571644
0.0358322
0.0495875
0.0690726
0.0535561
0.0592352
0.0510458
0.0772922
0.0325828
0.026008
0.109108
0.174146
0.160391
0.0796908
0.125653
0.099347
0.106292
0.125904
0.0767653
0.0299068
0.0456448
0.044633
0.0746765
0.0803851
0.0512922
0.0554471
0.0465507
0.0474091
0.0403641
0.0507217
0.071563
0.133886
0.122529
0.111576
0.0806358
0.0621946
0.0236248
0.0318931
0.0239351
0.0358427
0.0343715
0.0311514
0.0570645
0.0433219
0.0814579
0.0704078
0.102788
0.0498783
0.0385059
0.0649396
0.0684732
0.0548336
0.0525783
0.0390392
0.100949
0.078401
0.0793742
0.0772922
0.0846188
0.0719261
0.0745946
0.0774493
0.0893786
0.0636618
0.0693217
0.0590899
0.0450267
0.0563786
0.0391418
0.0657511
0.0585384
0.0590766
0.0619676
0.0612558
0.0679705
0.0651684
0.0673892
0.0693793
0.0938151
0.0609764
0.106193
0.110301
0.0821442
0.100718
0.100952
0.0488431
0.0670608
0.0732995
0.0751457
0.0678102
0.0657889
0.0725945
0.066178
0.0964555
0.0809627
0.0965414
0.0971393
0.0862434
0.106726
0.109276
0.087348
0.0912247
0.0874696
0.0997624
0.0583097
0.0391938
0.070264
0.0561896
0.0297664
0.0377575
0.0377959
0.0548973
0.057161
0.0455845
0.0462716
0.0375602
0.0659021
0.0764302
0.0586336
0.0608396
0.0610284
0.0411285
0.0513041
0.0354779
0.0414093
0.055226
0.0490637
0.0644436
0.0586221
0.052441
0.030325
0.0282478
0.0290419
0.0286186
0.0315361
0.030156
0.0363129
0.102031
0.061481
0.0772291
0.0617289
0.116952
0.0405448
0.0322618
0.0389989
0.063609
0.0322535
0.0532292
0.0743675
0.0668971
0.0875172
0.0806717
0.0889681
0.0364843
0.0570419
0.0445922
0.0297028
0.0379029
0.0287184
0.0300912
0.0377833
0.0278313
0.0548439
0.0653636
0.0593426
0.0447158
0.0750321
0.0607503
0.0835306
0.0567023
0.0573212
0.0828405
0.0531426
0.0804022
0.0744779
0.0563181
0.0754056
0.0535918
0.0480815
0.0614174
0.04808
0.0406052
0.0342462
0.102467
0.0892227
0.102192
0.104096
0.0852399
0.0516041
0.0463776
0.057177
0.0609518
0.0744661
0.0672476
0.0810926
0.0534662
0.0914372
0.0830232
0.0908179
0.0645799
0.0567227
0.05676
0.0773497
0.0639981
0.0606645
0.0631444
0.0964029
0.060725
0.0753445
0.0924284
0.0874142
0.0700636
0.0756553
0.0674879
0.0683943
0.0364935
0.0456884
0.0697231
0.0744711
0.0427883
0.0301948
0.0290298
0.033902
0.0332839
0.0570823
0.0728142
0.0642758
0.0614152
0.0417074
0.0383764
0.0403034
0.0562286
0.0363226
0.0975106
0.0549803
0.0367261
0.0405583
0.167288
0.0997908
0.13742
0.15198
0.142997
0.0885425
0.0517833
0.0692889
0.0861577
0.0898387
0.0986542
0.0915438
0.0655277
0.0485616
0.0420888
0.0431265
0.0447853
0.0552693
0.0358845
0.067636
0.0474581
0.043098
0.0441972
0.0751346
0.0790757
0.088541
0.0927617
0.0894847
0.0546286
0.0763653
0.0713526
SCALARS SignedDistance double 1
LOOKUP_TABLE default
1.28082
1.22599
0.0118149
-0.0763061
1.07972
0.0180831
1.78975
0.174624
1.27892
1.35271
1.4063
1.20311
0.170762
0.274093
-0.0187282
-0.0341958
0.0450335
1.50709
1.49654
1.39931
0.00968734
1.55363
0.236266
0.851156
1.3347
1.21378
1.15939
0.528442
1.44902
1.9094
-0.0306445
1.48201
0.0591362
1.37644
0.0570389
0.947107
1.57264
1.34724
1.45604
1.68298
0.972469
1.29945
0.910295
0.163099
0.35047
1.30211
1.07858
1.29358
0.00211753
0.0256396
0.26513
0.0154349
1.17866
0.0082362
0.00886806
1.27161
0.0146184
1.16353
-0.00787162
1.36491
1.29561
0.00322231
1.52122
1.15221
1.24532
-0.246402
0.0999488
1.63232
1.30632
0.712326
-0.0495325
1.29855
0.117368
1.42722
1.01002
1.14299
1.45424
0.200329
0.0708773
0.141495
0.043051
0.898445
0.880211
1.32907
1.18235
0.573968
0.483849
1.25936
0.0510059
0.416365
0.574549
0.697858
0.117648
1.65079
1.12417
0.0636978
0.298926
0.704094
1.57392
1.66321
1.19685
1.68648
1.6799
1.84171
1.78953
1.45104
1.33083
-0.0339527
-0.434703
1.29198
1.14945
0.550801
0.669987
0.0313944
-0.00381921
0.496389
0.225661
0.0748276
1.33268
0.71243
1.22565
0.107242
-0.00729924
1.61013
1.42571
0.558194
1.24376
0.0133597
1.38993
1.14309
0.59555
1.46296
1.65587
1.79709
1.62417
1.26116
1.18688
1.62296
1.41531
1.66594
1.36688
1.5781
0.8706
1.23251
1.30707
0.516562
1.40068
0.647934
1.22612
1.12696
0.0125905
1.3115
0.618339
1.43752
1.22045
1.33266
1.63729
1.70002
1.39102
0.710749
0.0643326
-0.0206271
1.17872
1.15523
1.14229
0.109186
0.189812
0.0438694
0.0221079
0.0575549
0.0315964
1.26083
1.34002
1.38923
0.330888
1.04823
1.04362
1.01084
1.22049
0.601027
0.0240547
0.0471174
0.0129236
0.0328335
0.0289579
-0.000739451
0.0569254
0.0415129
0.0506651
0.088141
0.0265958
-0.0321569
0.550612
1.31148
-0.00249056
0.0125275
0.190831
0.0219811
0.00317933
0.0240032
0.122679
-0.0127828
0.0277568
-0.0960517
0.0377524
-0.0113301
1.38256
1.22351
1.31759
0.155884
0.269319
0.78926
0.0152904
0.0536125
-0.0325145
0.0153552
0.0145826
0.00484564
1.24908
1.32511
0.515169
0.741468
1.43698
0.886617
1.09903
1.247
1.33131
1.15284
0.802202
1.41451
1.09541
0.566107
1.2951
1.13873
0.342733
1.25188
1.2537
1.5903
1.43243
0.756099
1.1688
0.404918
1.09696
0.210591
0.906314
1.1394
1.17498
1.16556
-0.00574785
0.356031
0.0207103
1.40399
1.64026
1.28724
1.48972
1.50988
1.52898
1.3623
1.26472
1.19351
1.32516
0.00521662
0.536192
0.0101501
1.33158
0.754921
0.954034
1.10055
0.254965
0.00707635
-0.0753554
-0.0385025
0.0837494
0.0231282
0.0287134
1.41732
1.25746
1.27414
1.21704
1.49098
0.575099
-0.0185666
1.44943
1.2795
0.425966
1.22192
1.59186
1.38233
1.33801
-0.0864271
1.1296
0.378723
1.22622
0.963447
0.0863383
0.802703
0.125268
1.12906
0.1071
0.0126513
0.0308616
0.116718
0.0168394
0.0302762
0.0194405
-0.0220527
1.36849
1.26034
1.37979
0.497488
0.917858
0.253339
1.15865
1.20427
0.407288
0.232392
0.38488
0.143264
0.444372
0.0180752
1.13244
0.26236
1.22129
0.456462
1.27214
0.529896
1.10169
1.27618
1.15981
1.21203
1.20958
1.17927
0.138132
0.0315432
0.499075
0.725026
0.156583
1.09446
1.22965
0.25448
1.17165
1.24603
1.23801
1.238
0.601944
0.128443
1.32334
1.16423
0.108798
0.664822
0.038421
1.59265
1.72412
1.12668
1.37488
1.1731
1.72241
1.52217
-0.243281
0.65893
0.109605
0.518485
1.12095
0.866479
1.1439
1.16633
0.218425
0.507787
0.494331
0.207367
1.43673
1.49798
1.4789
1.43512
1.83518
1.57802
1.72825
0.446951
1.49962
1.60071
1.5551
1.30854
1.65659
1.55835
1.70032
1.80676
1.71274
1.87299
1.87407
1.77152
1.65028
1.80648
1.68161
1.62559
1.7592
1.73148
1.33623
-0.0135649
1.46951
1.56616
1.5927
1.60182
1.46118
0.815285
0.131356
-0.0172364
-0.0956254
0.108992
1.10628
1.24186
1.26391
1.14624
1.18695
1.33314
1.23828
1.37266
0.487755
1.12717
0.0606574
1.20967
0.207572
1.24631
0.612701
-0.00755095
-0.267029
0.0190918
0.577309
0.558559
0.0302011
0.0475025
-0.0957426
1.0948
0.350024
1.15363
1.24988
1.1497
1.21854
0.499587
0.252677
0.21953
1.40345
1.44298
1.14641
0.22611
1.14945
0.530887
1.32698
1.36098
1.27087
0.0415525
0.154418
0.0329908
0.00413952
-0.703598
-0.0811617
0.00631805
1.16263
0.00620402
1.31179
1.36745
1.5319
1.40947
1.59771
1.39965
1.32142
0.462153
-0.00607056
-0.000799648
0.0107018
1.51532
1.1456
1.38279
-0.207278
-0.0108331
0.303449
1.19951
1.49922
1.44445
0.0954505
0.140053
1.43353
0.842055
1.31936
1.10174
1.42872
-0.475596
0.283251
1.39099
1.23924
1.26937
1.27427
1.59969
1.77758
1.82879
1.7608
1.58321
1.71773
1.54816
1.47791
1.66811
1.51665
1.71645
1.63417
1.62685
1.19952
1.12408
1.35081
1.28803
1.11561
1.21574
1.16195
1.71868
1.6128
1.48501
1.50075
1.63032
1.5155
1.43322
1.39478
1.65763
1.37533
1.23608
1.40805
1.23799
1.77224
1.6413
1.51474
1.31783
1.36502
1.25068
1.02331
0.0941086
0.619363
0.603783
0.0439063
1.25179
1.44484
1.55494
1.50253
1.28245
1.47187
0.810956
1.2399
1.46955
0.245696
0.323675
1.33159
1.37997
1.54132
0.0784407
1.14632
0.117242
0.130346
1.23715
0.803479
0.162362
1.12743
1.22536
1.19065
1.26452
1.20671
1.2872
0.306524
1.26128
0.918874
0.21386
0.833434
1.27656
1.17759
1.27168
-0.0980841
0.036662
0.00376106
0.471059
0.19609
1.39907
1.44748
1.48156
1.46548
1.21592
0.291999
0.0434413
0.310549
1.17035
1.31286
0.211378
1.14863
0.132782
1.62004
1.36921
1.50318
1.54544
1.54241
0.357932
1.17221
1.23086
1.22777
1.25489
1.82955
1.64275
1.78905
1.44515
1.24295
1.32069
1.29276
1.39784
1.39169
1.73415
1.57191
1.44294
1.53279
1.70645
1.53694
1.75167
1.75593
1.74903
0.209244
1.59036
1.3387
1.06134
1.31882
1.71062
1.51358
1.64485
1.22206
1.14923
1.10562
0.712532
0.0594136
1.11864
0.0957396
0.0447674
0.226014
0.703675
0.0480603
-0.0575056
-0.0139825
-0.0460725
-0.00126562
0.155138
0.0464348
0.0557762
