# vtk DataFile Version 4.2
vtk output
ASCII
DATASET POLYDATA
POINTS 642 double
-1.17132 2.50337 -0.355407
1.27935 2.57508 -0.320305
-1.48058 -1.66027 0.0117688
1.17898 -1.51518 0.073455
-0.0260616 -0.558006 1.59249
-0.00457448 1.78456 1.37284
-0.11593 -0.578858 -0.896361
-0.221839 1.92771 -1.60293
1.62021 1.21299 -0.928104
1.39564 0.742679 0.639853
-1.68481 1.07123 -1.15981
-1.41777 0.57909 0.709348
-1.53794 1.73999 0.220533
-0.728958 1.31521 1.27558
-0.537862 2.42879 0.932447
0.562475 2.43299 0.914925
-0.00649333 2.83991 -0.182885
0.950631 2.58898 -1.14627
-0.93878 2.58437 -1.23602
-1.3165 1.62041 -1.7187
-1.92261 2.00042 -0.957113
-1.82198 0.851342 -0.263183
0.713353 1.36083 1.24421
1.60616 1.80554 0.217786
-0.723313 -0.203265 1.41044
-0.0418652 0.413131 1.66458
-1.46758 -0.752713 -0.346034
-1.50183 -0.849371 0.384614
-0.254759 1.1114 -1.63086
-1.13312 0.406274 -1.18881
2.04146 2.06219 -0.88915
1.23861 1.73193 -1.37896
1.2908 -0.732766 0.439932
0.677811 -0.220631 1.34602
0.661498 -1.3654 0.998871
-0.74593 -1.35199 0.956756
-0.0105105 -1.65588 0.0718337
-0.810398 -1.19457 -0.619134
0.629124 -1.19518 -0.564964
0.907194 0.255965 -0.985452
1.24406 -0.642814 -0.264154
1.76492 1.02974 -0.184932
-1.42998 2.19084 -0.0730747
-1.01812 2.09835 0.633276
-0.827713 2.49596 0.292131
-1.11067 0.971254 1.02776
-1.11515 1.58166 0.871408
-1.51122 1.22938 0.483583
-0.214851 2.12316 1.23696
-0.663318 1.9156 1.14318
-0.330456 1.60056 1.37131
-0.325704 2.81531 0.479399
-0.638792 2.74034 -0.266008
0.220269 2.12743 1.23682
0.00349411 2.5647 1.04561
0.755897 2.74641 -0.248709
0.322876 2.71198 0.446912
0.948968 2.49916 0.218545
-0.454932 2.95207 -0.737371
-1.10306 2.61886 -0.797196
1.20959 2.68597 -0.713646
0.464603 2.94676 -0.716411
-0.656013 2.25998 -1.49018
-0.0511002 2.63797 -1.09731
0.517701 2.27415 -1.36481
-1.66346 2.61131 -1.27231
-1.62118 2.36508 -0.654354
-0.919025 1.81173 -1.72229
-1.23951 2.17792 -1.65673
-1.82569 1.46066 -1.15443
-1.9115 1.89057 -1.66362
-1.58933 1.36375 -1.47834
-1.87041 1.92646 -0.322407
-1.82235 0.962885 -0.755496
-1.92119 1.43588 -0.593399
-1.79395 1.35515 -0.0655467
-1.67012 0.69636 0.245343
1.10311 2.121 0.549655
1.51931 2.2961 -0.0423531
0.315268 1.61774 1.36139
0.658244 1.92884 1.10523
1.54809 1.31557 0.42631
1.1745 1.62141 0.784986
1.13433 1.03586 0.951747
-0.334163 0.82779 1.52975
-0.0141914 1.22002 1.499
-1.12134 0.109684 1.07479
-0.685239 0.479909 1.42046
-0.0363612 -0.0970635 1.83613
-0.340407 0.135715 1.68082
-0.372508 -0.401808 1.61025
-1.6168 -0.327297 0.136646
-1.46901 -0.238787 0.583867
-1.56493 0.236769 -0.746212
-1.62737 -0.175597 -0.288216
-1.57048 -1.32058 0.224545
-1.55715 -0.894917 -0.0123374
-1.50802 -1.25111 -0.162125
-1.26702 1.17495 -1.57053
-1.45743 0.827132 -1.25433
-0.272501 1.54479 -1.68768
-0.953758 1.40574 -1.704
-0.70432 -0.223294 -1.01926
-0.866645 0.909269 -1.52481
-0.172283 0.470107 -1.34353
1.19315 2.18236 -1.37574
0.736075 1.87213 -1.49441
1.76451 2.55987 -0.548318
1.68688 2.63289 -1.23198
1.50167 1.49432 -1.18682
1.63738 1.94123 -1.25515
1.76853 1.59702 -0.941548
1.22561 -1.15963 0.258877
1.07922 -1.09996 0.724135
1.12277 -1.63342 0.55592
1.07465 0.152348 1.02631
1.0926 -0.554751 0.915183
1.34593 -0.0655442 0.61008
0.279347 -0.990546 1.28061
0.712234 -0.849893 1.16408
0.307901 -0.425135 1.54587
0.408498 -1.65689 0.622202
0.769899 -1.66609 0.0373929
-0.319541 -0.970386 1.29788
0.00841181 -1.38661 1.04634
-0.850303 -1.65296 0.0397671
-0.454723 -1.62434 0.593085
-1.22424 -1.65947 0.542112
0.417667 -1.51737 -0.355217
0.945775 -1.40874 -0.2728
-1.16983 -1.45915 -0.346116
-0.494283 -1.50622 -0.37549
0.291393 -0.929161 -0.750876
-0.0529252 -1.24422 -0.623534
-0.485623 -0.912705 -0.782831
0.989592 -1.01258 -0.413522
1.18062 -1.12475 -0.0807711
0.438316 -0.314605 -0.929952
0.724128 -0.761212 -0.689362
1.45747 0.472534 -0.626748
1.09679 -0.322583 -0.622563
1.36037 0.908391 -1.02225
1.3103 -0.763259 0.0845823
1.75144 1.13522 -0.609074
1.51445 0.154851 -0.209982
1.47492 -0.0515097 0.188008
1.63516 0.906994 0.231718
0.259609 0.144496 1.64394
0.660185 0.523691 1.36884
0.281363 0.875079 1.51381
-1.2602 -1.15572 0.710298
-0.797207 -0.875156 1.16622
-1.21832 -0.635074 0.879775
-0.952799 -0.737501 -0.762367
-1.25332 -1.03942 -0.500117
-1.29837 -0.358312 -0.720962
1.14632 1.23482 -1.30306
0.477884 0.800117 -1.40009
0.6461 1.4149 -1.52956
1.79423 1.44855 -0.0100648
1.89222 1.55614 -0.507044
2.00361 2.02566 -0.243932
-1.29624 2.3882 -0.240496
-1.13675 2.33342 0.107102
-1.03036 2.49904 -0.107915
-1.30342 1.91516 0.419456
-1.23762 2.13489 0.278548
-1.51214 1.98013 0.0814088
-0.676682 2.47369 0.627872
-0.929764 2.31082 0.487853
-0.769888 2.27486 0.799163
-1.30037 0.747563 0.848644
-1.31178 1.1172 0.782338
-1.45484 0.882053 0.619289
-0.916833 1.46491 1.10186
-1.11853 1.30573 0.961156
-0.921589 1.15573 1.17292
-1.53882 1.49307 0.354566
-1.33208 1.41408 0.675635
-1.33423 1.66631 0.556482
-0.0846563 1.93168 1.34807
-0.280646 1.87499 1.31273
-0.131214 1.71899 1.37894
-0.613787 2.19367 1.06616
-0.446119 2.04862 1.22093
-0.367734 2.29698 1.12928
-0.530832 1.46653 1.33848
-0.49326 1.76333 1.26882
-0.700986 1.62345 1.2054
-1.0819 1.84899 0.76258
-0.885997 1.75163 1.02161
-0.846431 2.03393 0.934997
-0.730033 2.63511 0.024261
-0.943377 2.61651 -0.320752
-0.432723 2.61043 0.726829
-0.594684 2.68266 0.412682
-0.351175 2.80284 -0.221653
-0.458115 2.73848 0.0979328
-0.170537 2.82771 0.142865
0.0795707 1.93365 1.34786
-0.00181519 2.14841 1.24884
0.304873 2.55673 1.0312
0.135974 2.38395 1.2092
0.391566 2.31359 1.14068
-0.133011 2.38399 1.21446
-0.291271 2.55412 1.03863
1.09652 2.63693 -0.303784
0.862693 2.635 -0.0129431
1.17047 2.54399 -0.135833
0.175888 2.79975 0.144826
0.511588 2.72634 0.0910984
0.379731 2.80278 -0.195712
0.718866 2.4622 0.58958
0.621567 2.60647 0.366822
0.460287 2.60517 0.715755
-0.149515 2.69304 0.785438
0.163444 2.69276 0.783293
0.00616593 2.81969 0.493338
-0.865424 2.72765 -0.544721
-1.14849 2.56491 -0.541111
-0.226759 2.8481 -0.474494
-0.554326 2.84649 -0.511322
-1.04157 2.63747 -1.02674
-0.794249 2.79585 -0.772159
-0.697692 2.76864 -0.993704
1.26683 2.63546 -0.477321
0.99842 2.7303 -0.498306
0.723358 2.75452 -0.939085
0.878467 2.77986 -0.720234
1.10525 2.67207 -0.944519
0.626641 2.844 -0.478063
0.2052 2.84902 -0.457267
-0.435079 2.0692 -1.57164
-0.113839 2.28612 -1.39972
0.134999 2.08139 -1.49606
-0.5536 2.63773 -1.17225
-0.368678 2.47515 -1.28974
-0.810158 2.43968 -1.38812
0.76156 2.43317 -1.26355
0.238171 2.46859 -1.23665
0.505411 2.62231 -1.11031
-0.0288799 2.83081 -0.697414
0.221309 2.77176 -0.91369
-0.277999 2.82693 -0.955517
-1.38665 2.5046 -0.761913
-1.35959 2.44476 -0.485143
-1.27766 2.5495 -1.26046
-1.36975 2.56548 -1.03003
-1.88485 2.28204 -0.797554
-1.66663 2.49316 -0.942231
-1.9147 2.32457 -1.1278
-0.600779 1.88808 -1.66975
-0.821889 2.04269 -1.64926
-1.30915 1.88261 -1.7371
-1.07734 1.97826 -1.7132
-1.12666 1.72342 -1.74631
-0.978344 2.23466 -1.5934
-1.1177 2.41378 -1.46375
-1.74429 1.23056 -1.17296
-1.72471 1.4257 -1.34826
-1.65341 1.19971 -1.29481
-1.91604 1.9671 -1.28837
-1.82282 1.68515 -1.36798
-1.89931 1.70926 -1.0865
-1.48386 1.50152 -1.62774
-1.68663 1.62051 -1.54006
-1.55486 1.75346 -1.68185
-1.44424 2.39171 -1.50694
-1.56538 2.09032 -1.72792
-1.8194 2.2732 -1.49077
-1.55663 2.27742 -0.364903
-2.01866 2.007 -0.624239
-1.87016 2.23793 -0.455383
-1.66221 2.06361 -0.21982
-1.69186 1.82098 -0.0730136
-1.7502 1.0306 -1.01561
-1.83534 1.23487 -0.962895
-1.88823 1.16979 -0.427127
-1.88966 1.20603 -0.68345
-1.84498 0.911607 -0.501303
-1.89783 1.46402 -0.883507
-1.93767 1.71626 -0.773868
-1.61773 1.00279 0.339168
-1.53621 0.6155 0.524029
-1.69386 1.55816 0.0671529
-1.67365 1.30545 0.193535
-1.75506 0.780536 -0.0226987
-1.74769 1.08268 0.0671207
-1.8369 1.13016 -0.17863
-1.92674 1.68727 -0.470668
-1.88401 1.40056 -0.322171
-1.81912 1.62735 -0.20102
1.25507 2.3947 0.0566128
1.37894 2.48198 -0.217168
0.799787 2.27768 0.753464
1.0294 2.32707 0.403835
1.59316 2.06236 0.0987747
1.34215 2.19149 0.220212
1.40036 1.96358 0.353984
0.121325 1.72359 1.37687
0.279551 1.88318 1.30747
0.692285 1.65937 1.17633
0.486368 1.78433 1.2524
0.507967 1.50125 1.31906
0.456082 2.05967 1.21458
0.612327 2.18584 1.02142
1.47324 1.02517 0.544998
1.36599 1.19721 0.683377
1.30776 0.862514 0.758597
1.42089 1.71293 0.476553
1.40599 1.46981 0.581729
1.5887 1.55887 0.32195
0.928279 1.20117 1.12239
1.16497 1.355 0.875524
0.926613 1.50915 1.05295
0.860631 2.04404 0.880842
0.901903 1.78526 0.976446
1.15518 1.87902 0.681035
-0.171397 1.42691 1.448
-0.00737993 1.58511 1.4175
-0.540845 1.11225 1.41403
-0.355025 1.27308 1.44432
-0.0290116 0.772378 1.57885
-0.173489 1.01292 1.52659
-0.171314 0.575658 1.61438
-1.30431 0.364791 0.869566
-1.11116 0.548837 1.07546
-0.685494 0.120369 1.4547
-0.89006 0.308408 1.28904
-0.919667 -0.075169 1.25924
-0.899597 0.751632 1.23677
-0.720133 0.93412 1.3453
-0.0349389 -0.381447 1.73591
-0.220567 -0.260581 1.83202
-0.17149 -0.493824 1.63044
-0.181831 0.270586 1.69515
-0.198252 0.0257185 1.77331
-0.046224 0.154011 1.73203
-0.550039 -0.308757 1.53141
-0.36407 -0.12839 1.69517
-0.51801 -0.0157624 1.59062
-0.507752 0.645009 1.49551
-0.497212 0.270723 1.57377
-0.325978 0.41311 1.62271
-1.56625 0.177884 0.435833
-1.44392 0.238809 0.669364
-1.70741 0.271518 -0.0477338
-1.6541 0.197864 0.18597
-1.48708 -0.584418 0.484165
-1.56644 -0.31458 0.352691
-1.55912 -0.645745 0.262244
-1.65488 0.835713 -1.03385
-1.7043 0.648794 -0.780678
-1.54013 -0.534015 -0.299392
-1.6029 -0.0167967 -0.490757
-1.48886 -0.384417 -0.485299
-1.723 0.499129 -0.529557
-1.73276 0.380441 -0.292185
-1.71376 -1.64763 0.145938
-1.58173 -1.32579 0.0146142
-1.63112 -1.55196 -0.123411
-1.55495 -0.896758 0.170534
-1.56205 -1.09912 0.0937565
-1.52764 -1.07676 0.302241
-1.47472 -1.00369 -0.250999
-1.53762 -1.07162 -0.0830536
-1.52543 -0.846421 -0.178973
-1.6341 -0.286636 -0.0757744
-1.57337 -0.629523 -0.121677
-1.58411 -0.665655 0.0596628
-1.52478 1.1283 -1.38946
-1.60092 0.982338 -1.21247
-1.29982 1.40334 -1.66194
[...]
POINT_DATA 642
SCALARS Mean_Curvature double 1
LOOKUP_TABLE default
0.44879
0.617876
2.36895
-0.0976348
1.09258
0.443027
0.000459866
0.585508
1.11248
0.549111
1.05073
0.629222
0.648009
0.876339
1.82389
2.06976
0.450466
1.66876
1.56733
1.7018
-0.12225
1.048
0.804576
0.603815
0.558744
1.35533
1.03185
0.588377
0.755241
0.234193
3.49275
1.04036
1.01509
0.277302
0.230838
0.88641
0.682707
1.27869
1.61294
0.433063
1.02534
1.12554
0.562314
0.596778
0.289452
0.485593
0.788257
0.653571
-0.0436349
0.992678
0.825607
2.92008
0.286482
-0.100792
1.59579
0.544365
0.234437
0.724977
4.12009
0.0334512
0.647508
4.01975
0.162331
0.128327
0.537742
4.80882
-0.375774
0.804706
1.41445
0.810881
5.51859
1.49278
2.10372
1.12749
0.968233
0.898442
0.757989
0.530807
0.645816
0.854826
0.55786
0.796101
0.639758
0.576388
0.762781
1.02865
0.511741
0.444705
5.19966
1.20447
1.05349
0.862814
0.632558
0.897414
1.04781
0.589111
0.91335
1.60663
1.29035
1.14642
0.908702
0.833429
0.415857
0.427186
0.23684
1.38499
0.919301
3.46067
4.89462
1.08565
1.03665
0.868324
0.882117
0.384102
5.38429
0.555358
1.00825
0.744954
0.828051
0.69897
1.11732
0.650492
0.681651
0.476768
1.34162
0.675177
0.762775
3.7397
1.5833
1.48323
1.8058
1.45025
0.612903
0.898433
0.660345
0.942496
1.00714
0.34416
0.753548
0.432847
0.891767
0.962031
0.973283
1.11291
0.98802
0.7862
0.8561
1.14546
0.399316
0.77805
0.399589
1.02903
0.733612
0.749862
1.27931
0.796945
0.669101
0.656658
0.856784
0.97207
0.581247
4.18329
0.636922
0.440027
0.310341
0.629433
0.591419
0.959883
0.307117
0.558048
0.810252
0.50734
0.588832
0.319486
0.811716
0.734647
0.780816
0.706726
0.611093
0.657789
2.33545
0.702259
0.601084
1.98916
1.76419
0.563684
0.871285
0.593871
0.772481
0.656309
0.65081
1.18001
0.441068
0.249625
0.578445
2.08018
0.21499
-0.0639823
0.912462
2.36897
-0.457527
3.4937
3.29604
2.00776
3.79369
3.69872
0.217076
0.512778
0.55632
0.548339
0.481468
0.191165
0.556509
0.431621
1.45319
1.12717
1.50582
2.00233
1.0289
0.300598
0.203501
1.02519
0.923454
1.90278
1.86686
0.720174
0.942173
1.33689
1.28357
0.826583
0.891517
0.0433079
0.645437
0.337456
0.587605
0.873971
0.398825
0.776603
0.655174
0.266907
1.0398
0.227121
0.642199
2.1066
0.0293631
0.513655
1.41841
0.691988
2.51754
1.9391
3.21543
0.847926
0.909597
1.47051
1.43344
1.59855
1.51634
1.30052
1.02628
1.10315
1.07149
1.17865
0.754476
0.692245
1.78264
1.47358
1.3457
1.4927
3.08884
3.13667
0.204547
3.85327
4.46184
0.141934
0.429974
1.11023
1.08344
1.2107
1.09611
1.12159
0.798549
0.271164
0.484376
0.705542
0.737002
0.757866
0.279057
0.800047
1.02297
0.937837
1.19746
0.678102
0.572009
0.473716
0.766567
0.579204
0.516453
0.481626
0.572563
0.627321
0.780799
0.747352
0.559749
0.808422
2.28953
0.481356
0.753321
0.754746
0.303288
0.706495
0.697621
0.709701
0.773188
0.651363
0.693761
0.87259
0.730275
0.689766
1.08966
0.82218
0.967062
0.858618
0.760693
0.781541
0.722505
0.574685
0.553713
0.434443
0.567425
0.539347
0.366983
0.688575
3.44372
6.06003
0.94366
1.44215
2.46845
1.27542
1.17619
0.817874
1.10197
0.492236
0.979395
1.1822
0.641834
0.573617
0.783118
0.588752
0.738087
0.833161
0.881609
1.1129
1.05385
1.00829
0.986784
0.923208
0.358224
0.843152
7.13671
0.799047
7.29753
0.776934
1.06342
0.62499
1.10507
1.16377
1.02295
0.947979
1.07711
1.04209
1.19611
1.06673
1.63762
1.51448
1.06971
1.19105
1.00553
0.779088
1.00545
0.881903
0.983891
0.842354
1.21413
1.57466
0.217436
-0.016835
-0.00219465
0.539225
-0.0411972
0.683778
0.681958
0.602219
0.765715
1.32914
0.479246
0.96303
0.846699
0.694349
1.78376
0.625018
0.373266
0.201983
1.27137
0.421232
1.0565
3.77135
3.03617
3.42007
1.14873
1.89927
1.09283
1.10647
1.10233
1.29279
1.2397
1.09951
0.350609
0.963809
1.85431
1.14805
4.0704
1.16918
0.712901
0.298594
7.34989
0.935845
0.606645
0.992819
4.5328
-0.324437
2.35303
0.633276
0.640535
0.712942
0.994261
0.607496
0.543886
0.793571
0.734004
1.01772
1.14815
0.154035
0.995583
0.3913
0.628065
0.723854
1.03811
0.765589
1.00238
0.737596
0.984713
1.14029
-0.118045
6.97428
4.91381
0.901763
0.591698
0.30237
0.563448
1.30453
0.433514
1.25287
0.454393
1.07397
1.05232
1.79827
0.71615
0.139573
1.64758
0.595119
0.463656
0.748845
5.59402
1.22736
1.6318
1.02124
0.96473
0.617477
4.49886
3.16702
1.08771
1.34269
1.75561
1.60437
1.87171
5.46157
1.69266
1.64432
1.61514
1.96069
1.05388
0.699668
0.410881
0.192293
0.413837
1.65724
0.939291
1.01789
0.757119
0.659024
0.918306
1.42115
1.03479
1.73268
1.59053
1.15841
1.16415
1.7373
0.953356
1.03724
0.957271
0.304898
0.542336
0.644732
0.597755
0.374448
0.724649
0.858201
1.11311
1.00046
1.04909
0.990126
0.823002
0.89944
0.541831
0.650561
0.718178
0.84879
0.925012
0.923089
0.925612
1.02934
0.922457
0.916645
0.994749
1.12539
1.14622
0.827474
1.17364
1.14908
0.889532
1.03284
0.835816
0.298603
0.916769
0.836511
1.00733
0.855403
0.558024
1.0369
0.947796
0.960804
0.800683
1.09981
1.06124
0.943485
1.24437
0.538546
0.697887
0.379882
0.532731
0.360879
1.08638
0.588523
0.814832
0.869611
0.891962
0.828879
0.577414
0.925598
4.67013
0.058949
0.962554
2.11511
0.465862
1.29445
0.270194
1.0007
0.821018
1.01979
0.552597
0.695891
0.74063
0.52476
0.635179
0.455312
0.71989
0.57616
0.530667
0.845475
0.749806
0.578109
0.771963
1.28259
1.02275
1.64639
2.00542
1.57263
1.01591
0.92335
0.731945
0.961575
0.92655
0.940677
0.972142
0.827783
0.995155
0.53605
0.887574
0.970903
0.859496
9.61347e-05
0.734417
0.621965
-0.0382507
0.0252155
0.88513
0.563569
0.929045
0.885988
0.806753
0.654008
0.770782
0.739504
0.858522
1.14749
0.982354
0.864501
0.791096
1.02402
1.43191
0.52332
0.978528
1.04512
-0.0732521
1.17906
3.15653
0.754511
1.78114
0.665338
1.31369
2.39161
SCALARS CoVolArea double 1
LOOKUP_TABLE default
0.0435322
0.0285849
0.044535
0.0310197
0.0310402
0.0210713
0.0763272
0.0664561
0.0214057
0.0531149
0.0247665
0.0609863
0.0876669
0.0790785
0.0777352
0.0806346
0.114218
0.0901315
0.0870608
0.04973
0.0997673
0.0986934
0.0846428
0.0716368
0.0901714
0.0449402
0.0475501
0.0551637
0.111456
0.106526
0.0898287
0.0455529
0.0547135
0.0935541
0.0805428
0.0803166
0.112884
0.0533751
0.0453064
0.144907
0.0614311
0.0676615
0.0911992
0.0993425
0.104516
0.10816
0.0908836
0.0947446
0.0547468
0.0716681
0.0593684
0.104406
0.0927312
0.056639
0.0791297
0.0993035
0.105286
0.100327
0.100195
0.0818939
0.0740867
0.11914
0.104525
0.125378
0.116355
0.118803
0.086771
0.0564576
0.0838352
0.0629426
0.11192
0.0478156
0.0847511
0.0849052
0.0724738
0.0691066
0.12123
0.104086
0.0795929
0.0574233
0.0716548
0.0665913
0.0972541
0.111635
0.0824087
0.0660601
0.126673
0.097185
0.0498689
0.0492077
0.0696727
0.0988195
0.104382
0.110564
0.100505
0.0665416
0.0393179
0.0472048
0.0459205
0.0700853
0.104888
0.0462563
0.139351
0.0912958
0.199282
0.0599264
0.084903
0.0896602
0.119912
0.0417971
0.0627949
0.0459004
0.041178
0.0703218
0.0944617
0.116467
0.0776965
0.104457
0.0688741
0.0701355
0.0688206
0.114524
0.0858705
0.0871105
0.0906688
0.0978346
0.11236
0.101956
0.0770559
0.0491729
0.0683589
0.0879299
0.0628901
0.0773354
0.0686738
0.0446959
0.0375597
0.128608
0.0590698
0.110395
0.0986066
0.0801576
0.0430887
0.0593366
0.110039
0.10586
0.0817847
0.054719
0.113357
0.084705
0.0764279
0.0787047
0.0853351
0.0664587
0.0488595
0.0918785
0.07205
0.14885
0.098554
0.054147
0.0610976
0.0887642
0.075278
0.105918
0.0883905
0.102583
0.104166
0.0885279
0.0874001
0.0998137
0.0846981
0.0971861
0.102009
0.0903175
0.0800751
0.0911826
0.0912435
0.0856908
0.0949163
0.0979966
0.0382672
0.052968
0.040679
0.0731903
0.0615438
0.0653029
0.0686838
0.0622281
0.0714229
0.0986473
0.0829993
0.0859974
0.101609
0.0781545
0.0891349
0.0978812
0.0977932
0.102385
0.113446
0.0388986
0.0524583
0.0805141
0.0655333
0.0679663
0.0639781
0.0783003
0.0620266
0.0992281
0.0655675
0.116516
0.111546
0.113165
0.0943925
0.10405
0.0915512
0.0948426
0.0957919
0.110105
0.0831652
0.0669292
0.0998374
0.0861772
0.0826695
0.0866398
0.0975835
0.0509909
0.0774611
0.108971
0.0921846
0.0839303
0.103699
0.113989
0.100066
0.141294
0.117317
0.107315
0.124145
0.0900763
0.0928855
0.129866
0.115037
0.115007
0.124984
0.116839
0.0788925
0.0645544
0.0912355
0.0863129
0.0976624
0.0963229
0.116435
0.0714209
0.072766
0.0699785
0.0600617
0.0460212
0.0735242
0.0832226
0.0413601
0.0511993
0.0364975
0.109315
0.0770472
0.0817588
0.0497343
0.0649654
0.0785568
0.114537
0.114895
0.136838
0.08203
0.0977511
0.092873
0.0809154
0.0770388
0.0564945
0.0633325
0.0684533
0.0699168
0.091541
0.0726291
0.0875992
0.0960983
0.101018
0.0746389
0.0777724
0.109595
0.0829759
0.0723444
0.0831059
0.0696352
0.0746651
0.085172
0.0567103
0.0925118
0.100807
0.0781899
0.091038
0.09153
0.0403994
0.0527665
0.0735192
0.0608164
0.068031
0.0617229
0.074629
0.0656863
0.0879586
0.0901145
0.0864355
0.0826857
0.0643417
0.100576
0.0973758
0.0905965
0.0933419
0.0910339
0.104135
0.0616123
0.0435307
0.0872182
0.0752328
0.0624085
0.0729034
0.0588866
0.105293
0.12359
0.0861274
0.116236
0.110064
0.112978
0.0971932
0.0458881
0.0571708
0.0545211
0.0426111
0.0460656
0.0397789
0.0746449
0.0568602
0.0637357
0.0895136
0.0688584
0.0623514
0.127792
0.103312
0.129402
0.131742
0.0711093
0.0999142
0.062686
0.0695144
0.103445
0.0638453
0.105071
0.0804975
0.11562
0.125641
0.0757451
0.0570256
0.0613833
0.0452924
0.0425961
0.0517826
0.0387233
0.0378584
0.0402669
0.102446
0.0587475
0.0586301
0.0471927
0.048314
0.041845
0.0443228
0.0846255
0.0529882
0.0669235
0.0954331
0.0757628
0.078848
0.0700765
0.100556
0.0455848
0.038593
0.130191
0.20413
0.189876
0.0969306
0.147358
0.123574
0.128391
0.149638
0.0977647
0.0431742
0.0603837
0.0583739
0.0918535
0.100597
0.0725123
0.0694075
0.0580768
0.0586347
0.0499643
0.0549193
0.0761666
0.119233
0.110714
0.104298
0.0907665
0.0875129
0.0341672
0.0410125
0.0338327
0.046548
0.0437882
0.040703
0.0602169
0.0511913
0.0817777
0.0893393
0.104711
0.06749
0.0400893
0.0651796
0.0695416
0.0592293
0.0563049
0.042499
0.0936818
0.0780916
0.0780524
0.0993042
0.103106
0.0950375
0.0882887
0.0918886
0.10526
0.0767796
0.0829719
0.068371
0.0597096
0.0701342
0.0526302
0.0679931
0.0651117
0.0648109
0.0770197
0.0730525
0.0813711
0.0733018
0.078009
0.0744116
0.0973347
0.0685393
0.102287
0.10622
0.0964682
0.104603
0.116077
0.0663112
0.0837218
0.0882942
0.0887799
0.0768683
0.0770534
0.0818369
0.074136
0.100873
0.0788967
0.116867
0.108308
0.107278
0.101341
0.108945
0.0992788
0.106258
0.109649
0.120283
0.06468
0.0461206
0.0971731
0.0738187
0.045011
0.0576371
0.0584872
0.0653021
0.0811357
0.0675998
0.0722146
0.058085
0.0906952
0.105871
0.0727788
0.0765186
0.0755295
0.0611138
0.0671077
0.0486559
0.0552923
0.0712588
0.0673607
0.0991372
0.0869346
0.0826075
0.0422784
0.0351633
0.0419683
0.0411913
0.0419497
0.0404127
0.0510698
0.121652
0.0752281
0.100072
0.0769808
0.13743
0.0527676
0.0449582
0.059738
0.0937991
0.0479136
0.0775021
0.109761
0.0992649
0.112092
0.11406
0.119708
0.0517486
0.0797169
0.0640993
0.0354017
0.0509194
0.0358013
0.0342999
0.0442284
0.0421046
0.0839771
0.0957944
0.0900752
0.0625758
0.115157
0.0888798
0.111706
0.0771058
0.0707715
0.106261
0.072614
0.110332
0.105215
0.0780744
0.107472
0.0698556
0.055001
0.0747624
0.0599206
0.0468881
0.0455794
0.125706
0.107951
0.121533
0.123088
0.100482
0.0594106
0.0609486
0.0706388
0.0721057
0.0912446
0.0826687
0.102943
0.070165
0.0876207
0.084852
0.0902128
0.0700482
0.0631921
0.0768941
0.0930074
0.0800499
0.0739381
0.0708272
0.114426
0.068246
0.0871359
0.108074
0.102112
0.0788566
0.0881006
0.0754203
0.083105
0.0508656
0.0590124
0.0890067
0.103244
0.0604834
0.0456971
0.0456339
0.0544491
0.0505679
0.0925928
0.109346
0.102062
0.0987248
0.0647766
0.0566619
0.0617122
0.0835227
0.0505501
0.116662
0.0701988
0.0485029
0.0526824
0.191982
0.123426
0.158755
0.172528
0.16521
0.111304
0.0667192
0.0877599
0.108285
0.114217
0.120747
0.117321
0.0856676
0.06302
0.0532724
0.0543387
0.0542683
0.0611027
0.0475223
0.0705634
0.0534168
0.0541854
0.0553415
0.0781262
0.0767509
0.0853811
0.0912205
0.0893121
0.0610679
0.0783944
0.0720782
SCALARS SignedDistance double 1
LOOKUP_TABLE default
1.39934
1.33213
0.0170174
0.624393
1.26378
0.719251
2.14192
1.26917
1.51254
1.60616
1.61214
1.45201
1.21864
1.26143
0.102545
0.0889873
0.636566
1.51348
1.51658
1.49429
0.176269
1.7416
1.27886
1.19798
1.52954
1.44802
1.50021
1.27678
1.68293
2.21481
0.0145553
1.67021
1.22251
1.58474
0.695697
1.21651
1.6197
1.6959
1.65499
2.00779
1.39922
1.52524
1.19584
1.17002
1.18586
1.54386
1.28843
1.51355
0.488654
0.479201
1.18643
0.0438049
1.31556
0.486281
0.0666249
1.38381
0.441826
1.31133
0.0672906
1.46101
1.34257
0.0448991
1.66392
1.32156
1.45564
-0.0159356
1.10965
1.71066
1.26021
1.30781
-0.00143609
1.49912
0.200243
1.62037
1.21511
1.37605
1.65749
1.22011
0.811456
1.17288
0.961483
1.37679
1.32116
1.56402
1.48957
1.34494
1.36366
1.5604
0.0819642
1.29207
1.24322
1.34466
1.30558
1.91301
1.48729
0.926389
1.38139
1.26496
1.80868
1.86291
1.42112
1.90012
2.01231
2.10556
2.11481
1.53289
1.52577
0.0362346
-0.0210491
1.52236
1.25136
1.26644
1.26749
1.11654
0.017075
1.39978
1.22999
1.32284
1.47537
1.282
1.3755
0.360774
0.135443
1.74343
1.47201
0.97952
1.26667
0.0256354
1.43869
1.25944
1.19639
1.64185
1.96856
2.05801
1.91782
1.56623
1.3981
1.95047
1.72522
1.93688
1.64497
1.82041
1.31546
1.44623
1.60167
1.40827
1.62079
1.33146
1.55832
1.44314
0.637922
1.46675
1.25885
1.77899
1.57068
1.65035
1.85651
1.93234
1.60382
1.23607
1.16297
0.0112024
1.30861
1.30289
1.3673
1.20509
1.18344
0.724969
0.388424
1.00322
0.406686
1.53328
1.55817
1.63108
1.25355
1.38544
1.39304
1.34449
1.43371
1.30856
0.211793
0.723245
0.864131
0.168721
0.213501
0.196908
1.20324
1.12775
1.15178
1.20335
1.1503
0.387795
1.22809
1.45738
0.109319
0.119309
1.18071
0.988512
0.233057
0.207319
0.687443
0.0140052
0.0492756
0.0696572
0.0754161
0.0189006
1.48988
1.39096
1.42517
0.813819
1.06653
1.22457
0.672408
1.00625
0.119155
0.0806823
0.0772132
0.065475
1.32889
1.4331
1.16326
1.12896
1.4692
0.945613
1.1126
1.32616
1.37187
1.20235
1.20095
1.4405
1.1507
1.19084
1.45548
1.34272
1.26319
1.32764
1.43643
1.64034
1.58131
1.34316
1.25558
1.17008
1.17183
0.413689
1.26217
1.24832
1.19709
1.22952
0.0134891
0.324191
0.0287126
1.56534
1.6975
1.33293
1.50244
1.58318
1.51118
1.38862
1.49095
1.40629
1.56214
0.0593841
1.1743
0.637934
1.45881
1.25366
1.21638
1.0561
0.191607
0.0183639
0.781547
0.010775
0.0459889
0.888297
0.936336
1.60712
1.42295
1.44293
1.40738
1.65547
1.22352
0.480106
1.65069
1.50203
1.269
1.43719
1.7802
1.584
1.52606
0.288652
1.26256
1.16387
1.357
1.24409
0.843744
1.24333
1.01962
1.28617
1.19752
0.824279
0.682841
1.20959
0.986496
1.21617
0.183682
0.49027
1.57213
1.48432
1.63466
1.26175
1.3276
1.27553
1.40849
1.41776
1.3157
1.16042
1.24662
1.23114
1.24467
1.1552
1.36012
1.30942
1.52187
1.3968
1.55036
1.35481
1.44901
1.50595
1.4341
1.46683
1.52493
1.47096
0.32972
0.0453453
1.18155
1.32241
0.527702
1.21942
1.36729
1.17862
1.35287
1.56206
1.479
1.4904
1.36896
1.32541
1.57695
1.45829
1.22062
1.32594
1.23742
1.77917
1.89326
1.46967
1.6543
1.53195
1.92406
1.75739
-0.0180313
1.17988
0.114643
1.32871
1.32436
1.265
1.46326
1.39135
1.43239
1.35322
1.39418
1.31761
1.66777
1.70265
1.65523
1.65014
2.05936
1.81464
1.97075
1.29321
1.67642
1.8259
1.76036
1.54221
1.79553
1.70625
2.05396
2.17021
2.09096
2.16452
2.24766
2.09183
1.86658
2.07447
1.91977
1.83794
1.99724
1.97566
1.53579
1.22522
1.47083
1.69196
1.73882
1.71862
1.60188
1.17787
0.767204
-0.0108227
-0.0264727
0.0566697
1.14165
1.191
1.50021
1.38531
1.40241
1.48564
1.41397
1.57874
1.14122
1.23691
0.335814
1.246
0.108215
1.3612
1.14994
0.79399
-0.00485152
1.13515
1.19019
1.24864
0.0394526
0.951721
0.109465
1.44733
1.35045
1.44054
1.39825
1.38943
1.46895
1.3123
1.31031
1.18897
1.50646
1.5683
1.28936
1.19251
1.34698
1.24868
1.4923
1.48382
1.43439
1.11933
1.17539
0.546361
0.0961353
-0.0533572
0.0158729
0.0512517
1.23973
0.245877
1.35635
1.43193
1.66072
1.47196
1.73172
1.51871
1.43411
0.841684
0.0530441
0.109885
0.0244309
1.54773
1.2026
1.46513
-0.00825193
0.0745173
0.633422
1.23015
1.51106
1.47144
0.111222
0.364501
1.477
0.979654
1.4588
1.26404
1.52389
0.00386453
0.544981
1.63633
1.38715
1.47639
1.377
1.72774
2.09035
2.12659
2.07345
1.78765
2.01772
1.8546
1.80337
1.976
1.84197
1.80015
1.90314
1.7531
1.29438
1.18965
1.61894
1.46237
1.42306
1.49542
1.47768
2.04597
1.92949
1.81401
1.83807
1.96753
1.83031
1.73493
1.62853
1.89581
1.62256
1.49849
1.71675
1.54472
2.06446
1.94976
1.82027
1.64538
1.67006
1.54738
1.33429
1.34119
1.37513
1.32346
1.26943
1.47163
1.65343
1.7821
1.71783
1.48187
1.75805
1.42366
1.51084
1.67491
1.31099
1.35905
1.56612
1.63341
1.76991
1.32784
1.46187
1.31446
0.728801
1.40992
1.2262
1.01109
1.35341
1.51855
1.46686
1.56502
1.48961
1.55846
1.22833
1.5541
1.40242
1.29553
1.34908
1.52459
1.51344
1.52682
-0.0109805
0.993265
0.160886
0.608448
1.20569
1.50049
1.63048
1.61348
1.62255
1.35212
1.33464
1.1883
1.2563
1.41564
1.51327
1.22377
1.3314
1.17467
1.94539
1.7178
1.8153
1.88173
1.81938
1.19179
1.53924
1.43987
1.40115
1.60928
2.01979
1.89947
2.06818
1.71516
1.57923
1.67448
1.61168
1.71365
1.63383
2.03226
1.81102
1.67132
1.74311
2.08268
1.75
2.00086
2.11567
2.11422
1.27273
1.76717
1.54208
1.39731
1.54452
1.95131
1.72679
1.83732
1.46816
1.3635
1.41178
1.31637
1.11223
1.31717
0.409111
1.18255
1.28621
1.32058
0.658736
0.22173
0.0449917
0.0513714
0.0668422
1.1863
0.364153
0.191313
