# vtk DataFile Version 4.2
vtk output
ASCII
DATASET POLYDATA
POINTS 642 double
-1.04762 2.22507 -0.409592
1.20662 2.2997 -0.387829
-1.42531 -1.66251 0.00206854
1.00992 -1.44197 0.137254
-0.0459233 -0.272649 1.32666
-0.00407587 1.75176 1.33811
-0.136105 -0.274775 -0.21875
-0.254205 1.86549 -1.40072
1.23977 1.4623 -0.55593
0.957528 0.778764 0.369887
-1.20222 1.37873 -0.718031
-1.05359 0.549721 0.464586
-1.39017 1.6927 0.146593
-0.615144 1.26529 1.07378
-0.562393 2.41575 0.923133
0.595026 2.41535 0.899946
0.0025513 2.79193 -0.199144
0.950609 2.18842 -0.69587
-0.907044 2.12948 -0.864381
-1.3006 1.79524 -1.08148
-1.91399 1.98236 -0.937658
-1.16224 0.978645 -0.254892
0.597146 1.30971 1.04056
1.46731 1.76818 0.109334
-0.433038 -0.138425 1.02825
-0.046878 0.279858 1.18306
-1.11152 -0.625002 -0.0702559
-1.27885 -0.806159 0.353869
-0.2512 1.34527 -1.03701
-0.835183 0.736231 -0.515966
2.03732 1.99701 -0.856961
1.04972 1.79805 -0.77174
1.14281 -0.671124 0.415802
0.408817 -0.173483 0.975424
0.632215 -1.29266 0.956076
-0.706606 -1.234 0.713591
0.0303888 -1.15696 0.311028
-0.685508 -0.876292 -0.0149358
0.461686 -0.90713 0.0516825
0.589489 0.510211 -0.363785
0.942938 -0.510999 -0.0631613
1.22693 1.24207 -0.180794
-1.31977 2.06469 -0.144378
-0.932909 2.03016 0.561152
-0.755287 2.37448 0.234666
-0.789581 0.909732 0.689158
-0.902211 1.53115 0.688032
-1.10994 1.17195 0.253634
-0.210036 2.07867 1.22886
-0.658119 1.87941 1.11784
-0.286223 1.56862 1.22651
-0.332553 2.80966 0.458896
-0.541098 2.52659 -0.276532
0.214195 2.08184 1.22582
0.00433605 2.56098 1.04209
0.639522 2.45526 -0.284984
0.325803 2.68869 0.421171
0.809464 2.275 0.122687
-0.473817 2.94567 -0.71847
-0.977631 2.2202 -0.717699
1.13588 2.26962 -0.586159
0.471979 2.94168 -0.720142
-0.647082 1.98742 -1.01611
-0.0631997 2.45763 -0.883365
0.399768 2.08397 -1.02832
-1.63469 2.30571 -1.15799
-1.56533 2.30331 -0.636937
-0.860232 1.78822 -1.00813
-1.42918 2.00518 -1.17811
-1.60162 1.54351 -1.00604
-1.86306 1.79821 -1.63405
-1.35858 1.62141 -1.02057
-1.78979 1.8813 -0.314164
-1.19616 1.21865 -0.516759
-1.66517 1.49268 -0.58
-1.42095 1.39565 -0.175564
-1.12704 0.699628 0.0950107
0.999784 2.03278 0.457987
1.43734 2.23324 -0.0767174
0.274191 1.58674 1.23996
0.626453 1.88264 1.03894
1.23078 1.29153 0.250313
0.95763 1.57306 0.580078
0.788343 1.0034 0.598969
-0.227894 0.766332 1.0948
-0.0202724 1.1981 1.19923
-0.917458 0.133264 0.857384
-0.449816 0.447449 0.991008
0.0132297 -0.0669985 1.76958
-0.240494 0.0912604 1.39053
-0.190777 -0.254336 1.3615
-1.27923 -0.255412 0.112689
-1.27381 -0.185561 0.489562
-1.00241 0.490737 -0.315412
-1.15053 -0.0381666 -0.113086
-1.42363 -1.27328 0.243428
-1.27505 -0.832966 0.0741626
-1.23789 -1.27714 0.0399042
-1.03635 1.49961 -0.901367
-1.01302 1.17563 -0.647258
-0.265483 1.61189 -1.27556
-0.831105 1.59357 -0.979197
-0.556688 0.0774885 -0.326411
-0.687799 1.22304 -0.828434
-0.196294 0.760212 -0.649144
1.14413 2.04743 -0.764394
0.484678 1.81773 -1.01969
1.71076 2.54573 -0.484684
1.65325 2.37484 -0.977415
1.24509 1.66157 -0.717327
1.55232 2.01044 -0.924845
1.57303 1.66353 -0.762694
1.00501 -1.12057 0.301111
1.02535 -1.05532 0.710043
1.13598 -1.61758 0.551563
0.854977 0.186955 0.810422
0.927401 -0.509784 0.778404
1.14606 0.00489942 0.510355
0.215963 -0.784445 0.914818
0.611919 -0.764353 0.955961
0.09056 -0.247537 1.25246
0.376535 -1.58086 0.584114
0.730936 -1.6589 0.055489
-0.209624 -0.707054 0.868045
0.0484104 -1.09683 0.703035
-0.881369 -1.46379 0.140883
-0.504136 -1.24422 0.499142
-1.21278 -1.66008 0.53581
0.399696 -1.13022 0.156915
0.771727 -1.32421 0.0897945
-1.0661 -1.32376 -0.0532824
-0.492224 -1.0457 0.12607
0.173201 -0.610461 -0.0851689
-0.0698852 -0.845318 0.0277194
-0.405925 -0.584246 -0.111144
0.693912 -0.827528 0.0144824
0.873731 -1.07561 0.149087
0.256905 -0.0495731 -0.265786
0.481483 -0.509176 -0.0920142
0.892816 0.703029 -0.225521
0.721532 -0.105707 -0.128629
0.912493 1.18789 -0.480924
1.06947 -0.668504 0.127811
1.28657 1.37977 -0.414696
0.973486 0.302481 -0.0300448
1.14612 0.0457353 0.160517
1.09055 1.00521 0.0823551
0.118596 0.0888665 1.30242
0.414602 0.509172 0.962193
0.181716 0.838882 1.08967
-1.21982 -1.11301 0.69592
-0.622294 -0.735114 0.765011
-1.03019 -0.579278 0.700995
-0.728812 -0.456326 -0.13398
-0.961777 -0.860384 -0.0633265
-0.913126 -0.106741 -0.199527
0.834074 1.45549 -0.706245
0.27637 1.0871 -0.757598
0.424491 1.54419 -0.99073
1.54995 1.5065 -0.0808586
1.75753 1.56511 -0.482113
2.00067 1.99579 -0.213164
-1.18002 2.16887 -0.311328
-1.00587 2.15294 0.0226177
-0.899527 2.26189 -0.175852
-1.18211 1.85589 0.337615
-1.13692 2.04924 0.209436
-1.4465 1.95308 0.0674376
-0.682 2.44492 0.601041
-0.889505 2.24968 0.433767
-0.765947 2.24383 0.769445
-0.945203 0.681393 0.543399
-0.939334 1.04331 0.489371
-1.02825 0.816115 0.36392
-0.777645 1.41311 0.930719
-0.853817 1.24472 0.706696
-0.679382 1.11111 0.868433
-1.26487 1.44111 0.196102
-1.01398 1.35265 0.436806
-1.13199 1.61 0.408309
-0.0823548 1.8915 1.33935
-0.257269 1.8369 1.26865
-0.121411 1.6905 1.33775
-0.620219 2.16498 1.04987
-0.436599 2.01349 1.21173
-0.377818 2.26642 1.12884
-0.474962 1.41986 1.20986
-0.462317 1.72606 1.2107
-0.653883 1.57778 1.11642
-0.991566 1.79636 0.674242
-0.838576 1.70401 0.949233
-0.86165 2.0072 0.914039
-0.644217 2.46601 -0.00713073
-0.810681 2.32859 -0.355103
-0.445974 2.60438 0.714669
-0.620749 2.65145 0.375961
-0.317129 2.68939 -0.234063
-0.450819 2.68546 0.0691711
-0.162671 2.81598 0.115135
0.0771313 1.89332 1.33939
-0.00116916 2.09544 1.22108
0.320303 2.55617 1.02978
0.136993 2.34415 1.21224
0.414525 2.28792 1.16356
-0.134373 2.33942 1.21223
-0.307307 2.55111 1.03827
0.987282 2.31799 -0.366862
0.729754 2.36919 -0.0759114
1.06491 2.26704 -0.236232
0.159273 2.71178 0.12092
0.472393 2.59391 0.0576662
0.327907 2.60702 -0.221834
0.720217 2.42123 0.545021
0.603991 2.54138 0.320658
0.479487 2.60704 0.690393
-0.150463 2.68957 0.77252
0.167692 2.68949 0.765403
0.0160711 2.81661 0.472202
-0.709674 2.40311 -0.544177
-1.02412 2.23665 -0.555458
-0.192274 2.68962 -0.478261
-0.449716 2.61761 -0.530979
-0.945223 2.17823 -0.805828
-0.601896 2.48376 -0.693194
-0.540131 2.45274 -0.759828
1.19282 2.30127 -0.502594
0.858701 2.37173 -0.495528
0.595188 2.46565 -0.690828
0.642183 2.46218 -0.617634
1.06802 2.23477 -0.645467
0.526837 2.58234 -0.503597
0.187522 2.6893 -0.466791
-0.392133 1.89925 -1.17286
-0.115369 2.09119 -1.12557
0.0751144 2.00581 -1.30925
-0.45368 2.36649 -0.856683
-0.345541 2.2334 -0.973116
-0.82236 2.0645 -0.926494
0.689629 2.15076 -0.808129
0.216374 2.30181 -1.02691
0.437476 2.36878 -0.813175
-0.0124603 2.67213 -0.662766
0.156985 2.57788 -0.748471
-0.235714 2.66921 -0.880551
-1.32519 2.29747 -0.746604
-1.2588 2.22673 -0.505815
-1.35694 2.17774 -1.0287
-1.37132 2.25679 -0.969134
-1.88137 2.28389 -0.776148
-1.61103 2.33427 -0.92482
-1.91257 2.31087 -1.09396
-0.494637 1.79217 -1.13713
-0.796794 1.87064 -1.01418
-1.44219 1.94815 -1.19332
-1.14081 1.88891 -1.03154
-1.14031 1.80613 -1.02631
-1.0584 1.95938 -0.997255
-1.24367 2.06014 -1.03121
-1.36661 1.50421 -0.837069
-1.48142 1.58695 -1.07161
-1.29854 1.51203 -0.856137
-1.9132 1.9472 -1.24066
-1.68576 1.78786 -1.21248
-1.85732 1.69457 -1.05159
-1.35051 1.73961 -1.08318
-1.55898 1.80965 -1.23774
-1.51551 1.89103 -1.27885
-1.50875 2.15425 -1.25384
-1.5217 2.04301 -1.48754
-1.80666 2.28007 -1.49208
-1.47132 2.25191 -0.342878
-2.01949 1.97108 -0.604212
-1.80423 2.21551 -0.426157
-1.59025 2.02376 -0.217709
-1.61966 1.78848 -0.0798827
-1.20215 1.32707 -0.647657
-1.41723 1.47323 -0.7468
-1.37392 1.3453 -0.431789
-1.42644 1.40504 -0.590242
-1.18171 1.10816 -0.389854
-1.6695 1.53594 -0.812735
-1.90798 1.67749 -0.763531
-1.12466 0.973948 0.13757
-1.09067 0.582029 0.321227
-1.47568 1.52781 -0.0241469
-1.27314 1.29446 0.0253849
-1.1431 0.844873 -0.10169
-1.21952 1.11908 -0.0748983
-1.29943 1.23966 -0.257519
-1.81783 1.66709 -0.469099
-1.55508 1.49223 -0.386606
-1.65016 1.61397 -0.244678
1.14656 2.17676 -0.0654072
1.30575 2.29478 -0.287216
0.767504 2.21786 0.695969
0.894903 2.16148 0.297294
1.49947 2.00855 0.048768
1.22545 2.05056 0.0899906
1.29775 1.9079 0.27705
0.110712 1.69531 1.33779
0.256594 1.84365 1.26982
0.617537 1.6092 1.04987
0.459534 1.74281 1.20312
0.459667 1.45387 1.20226
0.452728 2.01703 1.20823
0.624549 2.15077 0.999641
1.02743 1.03176 0.292612
0.998561 1.16474 0.400749
0.905136 0.849418 0.440792
1.22567 1.66695 0.322509
1.14733 1.42258 0.382477
1.39363 1.5212 0.211559
0.678642 1.16685 0.815124
0.869036 1.31524 0.588678
0.765814 1.45719 0.854138
0.767976 1.97896 0.772409
0.767156 1.72695 0.819842
1.03837 1.82227 0.572548
-0.142098 1.40336 1.22573
-0.00741579 1.5656 1.33741
-0.39867 1.07675 1.07159
-0.296196 1.22927 1.21008
-0.0367574 0.661739 1.10381
-0.145088 0.965466 1.20915
-0.117642 0.44236 1.08961
-1.07048 0.380708 0.664114
-0.842465 0.520401 0.757257
-0.415791 0.102387 1.04753
-0.663572 0.300422 0.956341
-0.659335 -0.0313684 0.907916
-0.648629 0.717096 0.869311
-0.506158 0.910186 0.964674
-0.0137838 -0.345011 1.56092
-0.260926 -0.279115 1.73977
-0.106464 -0.267928 1.36453
-0.139029 0.134546 1.35498
-0.173361 0.00770561 1.56313
-0.0501025 0.0617691 1.46271
-0.273868 -0.198102 1.20418
-0.255183 -0.105456 1.4596
-0.277815 -0.0226669 1.24839
-0.321236 0.5997 1.03762
-0.273204 0.20645 1.13417
-0.195921 0.310634 1.12214
-1.27342 0.235915 0.321915
-1.2478 0.290269 0.543272
-1.15631 0.368693 -0.0382728
-1.22147 0.263339 0.117075
-1.3242 -0.531205 0.434274
-1.2744 -0.255553 0.285881
-1.40013 -0.593269 0.23511
-1.07461 1.12749 -0.56697
-1.06039 0.891007 -0.412776
-1.15991 -0.41263 -0.0887198
-1.07151 0.176738 -0.204905
-1.08465 -0.219292 -0.189703
-1.07364 0.686736 -0.284978
-1.10339 0.508813 -0.160638
-1.41195 -1.51169 0.129579
-1.35655 -1.3074 0.101178
-1.52689 -1.47233 -0.141191
-1.277 -0.840872 0.191988
-1.23831 -1.0731 0.189512
-1.2738 -1.06294 0.300088
-1.11463 -0.996545 0.053274
-1.18946 -1.0496 0.12309
-1.23465 -0.778493 -0.0474831
-1.27979 -0.195798 -0.0287146
-1.26062 -0.534447 -0.0230872
[...]
POINT_DATA 642
SCALARS Mean_Curvature double 1
LOOKUP_TABLE default
-0.629192
-0.400632
11.9799
1.77762
-0.424742
-0.0403797
0.239533
9.14118
0.410189
-0.451334
0.824378
-0.650501
1.45895
3.01194
2.39269
2.77866
2.84041
0.14662
0.43847
0.486288
-0.0573063
0.920137
2.62066
-1.69826
-0.471242
-0.69413
-1.16199
-1.11732
0.744383
0.171574
4.83833
0.694924
3.0319
-0.495233
2.16632
0.40995
0.593359
-0.0211562
0.0298807
0.262944
1.407
0.231321
-1.27523
-0.798345
-0.74464
-0.769337
-1.0448
0.0615547
0.268488
2.05105
-1.36099
3.03218
-0.419822
-0.274444
1.78648
-0.501858
0.910045
-1.09292
6.27144
0.488215
0.783644
6.27759
0.562954
-0.867192
0.611156
3.93812
1.15507
0.397392
0.0588192
4.52642
6.07389
0.929449
2.47781
0.870034
3.43441
0.705156
0.218407
1.395
3.12233
-0.64404
1.30901
2.94869
-0.474375
-0.641814
-0.693744
0.363541
2.58616
-0.80936
7.9636
8.75164
6.49261
-0.827605
3.26807
0.365387
-0.304248
5.57357
4.0995
-2.25504
1.06762
0.796547
1.84631
0.432648
0.353044
0.305741
0.226673
0.54049
0.558203
4.8884
2.48703
0.262637
2.15945
3.105
0.805799
0.816764
5.80812
3.56806
1.85569
4.42881
0.120313
1.18792
1.33645
4.64138
6.11812
-0.2932
0.203345
2.5241
0.701462
3.86695
0.0770784
-0.789961
3.78789
0.372673
0.601692
-0.0182274
0.50296
-0.699805
-1.04539
0.357682
0.232207
0.181894
-0.163772
0.323539
-2.41075
0.0964463
-0.116437
6.57801
0.109163
5.34973
0.166269
0.077228
3.70765
-0.352276
1.34621
0.0794799
2.47943
-0.0786496
0.257368
0.209241
0.741913
-0.686843
1.77056
4.51893
-0.957495
-1.28778
-0.439799
1.50746
1.29862
4.3104
0.779986
1.91394
1.00391
-0.446759
-0.607901
-0.201345
1.4276
0.527196
-0.553109
1.07622
-1.0589
0.644117
4.6029
0.0386387
3.7811
1.94377
2.57941
0.75047
3.05092
1.31914
1.95862
2.00969
2.04821
3.4104
-0.44986
-0.670345
0.854098
3.44844
0.72489
1.18177
2.20307
4.56272
-2.08388
3.47061
3.00968
3.1541
3.3826
3.88809
-0.366306
-0.781326
-0.460884
-0.28751
1.12548
-1.01192
2.28155
1.65501
2.25774
1.05574
1.40352
2.51228
-0.292251
-0.225904
-0.414545
-0.570428
0.667403
4.91466
0.194482
0.235978
0.267015
2.52966
2.43719
0.90051
0.610988
-0.287382
0.130402
-0.82307
1.82847
0.0122109
0.258517
0.212562
0.193509
3.11712
-0.33985
2.18847
-0.0353971
5.12791
2.38488
-1.18437
-0.0226494
3.76942
4.06107
2.07683
5.28284
0.536851
0.589339
-0.0197132
0.798539
0.859966
0.913264
0.433305
0.199604
5.75287
0.606739
2.99722
0.473223
4.75206
0.372027
3.68751
1.63208
1.96445
7.0655
5.78529
4.18173
4.56638
4.38386
0.680596
3.32761
1.01345
-0.00789327
0.256558
1.58452
0.908995
1.39611
3.55602
-0.0851943
-0.606222
2.29161
-0.0231893
0.0564003
0.37495
0.15912
2.95177
-0.524
2.17135
-0.849885
0.21936
1.15312
-1.21574
0.517575
-1.325
3.81037
3.57624
0.403546
0.923742
2.38822
3.6726
3.36782
1.72468
-0.372984
-0.134925
-0.401019
-0.901628
1.062
3.3189
-0.0464853
-0.977684
1.65936
-0.543798
-0.372362
2.92315
-1.34605
5.41376
-1.32074
2.54855
-0.998071
6.45997
-0.892689
1.97094
0.0607596
-0.824093
1.76544
-0.298888
0.520442
-0.267929
8.40657
7.8111
-0.688013
2.31947
5.92182
2.29397
-0.074435
4.29306
-0.779726
-0.6282
-0.228092
-0.571347
2.53711
4.82939
-0.118919
1.38989
2.54139
-0.843044
5.74867
0.802917
0.541754
-0.266522
-0.140903
12.0382
0.310577
0.297854
0.596803
2.97806
9.16082
-0.665385
-0.64938
-0.0637661
-0.957287
-0.539925
10.8836
9.42557
2.02682
3.97709
1.05367
1.07995
1.00559
0.896475
0.398546
1.05434
0.55828
4.71481
0.875696
0.941065
1.06678
0.352199
0.494925
1.09948
0.303266
0.278061
0.283114
0.327614
0.281667
0.350323
0.285565
0.272104
0.390282
1.0938
0.240156
0.533742
0.299048
6.8291
0.677789
0.369433
0.309017
0.324513
0.565799
-1.0925
7.29368
5.84769
5.88557
2.39257
0.504698
-0.0311968
0.492231
1.99095
2.59905
-0.0301532
0.33853
0.46355
0.75139
-0.553341
5.34425
0.0334153
7.44906
0.134195
-0.543227
4.3624
8.72896
5.50137
-1.92438
-0.939356
4.74677
-0.510077
4.69717
1.86989
1.35654
2.70248
-0.941291
-0.702191
-0.574377
-0.908324
2.59844
0.23268
0.476014
0.303586
0.154184
0.348124
0.392129
2.85704
-0.23719
0.0303838
-0.373024
2.45166
3.45976
4.22631
2.85218
-0.439506
5.51274
1.66062
0.345793
3.75579
0.224624
0.300505
0.108859
0.316383
-0.527816
0.0198466
-0.0608131
1.66648
5.6352
2.54654
4.52281
0.716706
-0.390743
0.707054
5.77991
5.27453
4.43217
-0.0470087
0.487077
0.718723
8.87987
11.9779
0.372387
4.89956
-0.587797
2.02494
-0.0376767
1.19222
7.69168
0.334964
-0.44409
0.0636068
0.0527649
0.794097
0.280902
-0.0350387
0.324429
0.515894
0.62296
0.496416
0.450209
0.627757
0.605591
0.155194
0.747246
0.592873
-1.02862
-0.912928
-0.173601
-0.686679
-1.4225
3.19928
5.72495
0.279703
0.601562
0.219702
0.426538
0.319849
0.491498
0.256028
0.666777
0.150792
0.744696
-0.127472
0.0783358
-0.224715
0.174586
0.348636
0.245734
0.0795861
-0.163379
0.543046
1.03289
9.09373
6.04934
-0.800309
5.66425
1.84864
0.699776
-0.163042
0.527185
0.150525
0.137117
5.24825
-0.0932404
-0.303668
0.414772
0.737772
0.0781256
-0.0616787
0.141122
8.06424
-0.37336
1.08278
7.03174
-0.721274
1.96443
6.64714
-0.983635
-0.410791
-0.204242
-0.921497
-0.645285
-0.453761
-1.26085
-0.876676
-1.61776
3.59382
-0.0723636
-0.865927
2.81035
-0.753982
6.62154
2.53419
2.87534
-1.63918
1.59105
0.394871
-0.179906
0.190717
0.175974
-0.738849
1.65585
4.15409
0.960803
-0.841264
-0.716772
3.67596
-0.873874
1.708
0.450996
0.0575303
0.361936
0.275052
0.218246
8.50897
3.66143
-0.859199
-0.569332
4.50794
0.324783
0.237837
0.406576
-0.179876
-0.912565
-0.0416057
-0.693652
-0.156167
0.687931
0.198368
0.362295
0.751324
0.783998
0.313394
0.546446
0.223745
0.177174
0.212497
4.59185
0.233411
0.757973
2.4549
0.307794
0.165321
0.470359
0.180455
-0.282844
-0.504463
3.59382
1.87171
4.37641
-0.701096
1.91968
6.08062
7.88674
1.96293
0.569952
3.86518
4.25122
1.96072
2.549
2.02702
2.47303
4.38173
SCALARS CoVolArea double 1
LOOKUP_TABLE default
0.0350703
0.0232784
0.0345944
0.0142142
0.0157955
0.0179672
0.047494
0.0504828
0.0124327
0.029765
0.0124242
0.040169
0.0791487
0.0681257
0.0822219
0.0900002
0.106791
0.0571748
0.0535695
0.0230568
0.0990531
0.0529223
0.0730088
0.0639318
0.0699909
0.0327203
0.034971
0.0489517
0.0718567
0.0576665
0.101683
0.0309426
0.0487301
0.0734489
0.0847287
0.0690774
0.0617082
0.034132
0.0275926
0.0988716
0.0451967
0.0435843
0.0809496
0.0908273
0.0984102
0.0849666
0.0841729
0.0754011
0.0534173
0.0734761
0.0536473
0.113542
0.0859639
0.0567017
0.0886837
0.0867945
0.105069
0.0921177
0.106145
0.0615891
0.0457711
0.115019
0.0731613
0.0979052
0.0884902
0.0685461
0.0842741
0.0296606
0.034225
0.050614
0.112311
0.0278504
0.0845221
0.041604
0.0592607
0.0552407
0.0793554
0.0899228
0.0715373
0.0519836
0.0699751
0.0495886
0.0851901
0.0871359
0.0603271
0.0586988
0.101659
0.0784494
0.0656513
0.0345935
0.0435144
0.0715576
0.0866079
0.0463377
0.0539105
0.0523824
0.028811
0.0304398
0.0231631
0.0287526
0.0667593
0.0280402
0.0976543
0.0644133
0.144317
0.0332012
0.0609647
0.0924892
0.0710675
0.0263614
0.0416708
0.0356395
0.0346021
0.0662337
0.101246
0.0960791
0.0637892
0.0836883
0.0528597
0.0634256
0.0411529
0.105902
0.0742283
0.0629091
0.061744
0.073762
0.0676834
0.112994
0.036672
0.0323724
0.036033
0.0467629
0.0412941
0.0450814
0.0442853
0.0296514
0.0256456
0.0937227
0.0369414
0.0525417
0.0568451
0.0435186
0.0357684
0.0383939
0.0578312
0.070751
0.0494504
0.0369794
0.0907562
0.061812
0.0684553
0.0649514
0.0743008
0.0401159
0.0267087
0.0428978
0.0491316
0.111052
0.0627932
0.0458197
0.0545367
0.101457
0.0627482
0.092898
0.0769727
0.0883266
0.0914774
0.0813007
0.0890207
0.0928997
0.0848125
0.0689264
0.081422
0.0618483
0.0724777
0.0803697
0.0754455
0.0752563
0.0850892
0.0874887
0.0350809
0.04905
0.0363152
0.076327
0.0621517
0.0699919
0.0625174
0.0603846
0.0673903
0.0899561
0.079961
0.0867176
0.094828
0.0685841
0.0960509
0.102902
0.0906366
0.103415
0.114177
0.0355067
0.0517328
0.0932293
0.0729775
0.0774829
0.0700842
0.0873411
0.0524586
0.0882395
0.0580192
0.112951
0.102753
0.102224
0.0953322
0.100083
0.0987691
0.100884
0.100994
0.113395
0.0690943
0.0540654
0.0938079
0.0813266
0.0454214
0.0603444
0.0703444
0.0356721
0.0555294
0.0839782
0.0522798
0.0420771
0.09045
0.10736
0.0695392
0.111013
0.0946425
0.0783399
0.103403
0.0627194
0.0676751
0.11097
0.0915405
0.100541
0.10212
0.0957923
0.0673777
0.0561633
0.0465784
0.0546211
0.102005
0.0734526
0.10269
0.0372697
0.0387025
0.0265219
0.0276205
0.0252174
0.0401815
0.0450392
0.0246991
0.0341735
0.0198253
0.115401
0.0665606
0.0754136
0.024017
0.0410832
0.0460592
0.0621697
0.0784851
0.126814
0.0775075
0.108861
0.101978
0.0777706
0.0706139
0.0282037
0.0404898
0.0465322
0.0462863
0.0456645
0.0608815
0.0865701
0.0670556
0.0676335
0.064956
0.0617348
0.0658672
0.0582352
0.0511808
0.0775411
0.0545167
0.0634727
0.0738532
0.0484211
0.0877638
0.0910784
0.0733187
0.0786033
0.0785215
0.0353681
0.0491037
0.0680878
0.059264
0.0625187
0.0641381
0.0773986
0.0400565
0.0657636
0.0585629
0.0766003
0.070431
0.0549901
0.0847279
0.0832304
0.079398
0.0828709
0.0802713
0.0885663
0.0528989
0.0383127
0.0688635
0.0631964
0.0503868
0.0613701
0.0446853
0.0811672
0.0940331
0.0687299
0.0942299
0.0897887
0.0892954
0.0759396
0.0489504
0.0683541
0.0352012
0.0315159
0.0463467
0.0351415
0.0515473
0.0442409
0.0465796
0.0626236
0.0497379
0.0404037
0.0967144
0.0821468
0.0730723
0.089745
0.0630594
0.0820855
0.0562421
0.0278076
0.0429258
0.0379521
0.0472223
0.0440754
0.0502604
0.0611039
0.0528096
0.0403822
0.0491321
0.0357588
0.028788
0.0401959
0.0298244
0.0271182
0.0346183
0.0620618
0.0396006
0.0432745
0.0237242
0.0207736
0.0189506
0.0220796
0.0375692
0.0264193
0.0375368
0.0624233
0.0392624
0.0473648
0.0397091
0.0641896
0.027217
0.0210718
0.0881787
0.142777
0.129247
0.0648104
0.104618
0.0795791
0.0914156
0.106139
0.064331
0.0227657
0.0375246
0.036116
0.0661122
0.0838835
0.0373074
0.0458926
0.0413853
0.0404226
0.035059
0.048874
0.0680271
0.118339
0.104037
0.117227
0.0578317
0.0397963
0.0208557
0.0290687
0.0208101
0.0300781
0.0301294
0.025754
0.0549665
0.0394324
0.0798513
0.0412903
0.0686175
0.034936
0.0312389
0.0631025
0.0552518
0.0559093
0.050352
0.0396367
0.107201
0.0795947
0.0820291
0.0690232
0.0832628
0.0638225
0.0733848
0.0768629
0.088846
0.0630981
0.0670586
0.0575424
0.0375811
0.0472393
0.0293636
0.0660925
0.0567109
0.0576632
0.054508
0.057265
0.0660341
0.0645122
0.066637
0.0694804
0.0855272
0.0419617
0.108273
0.114089
0.06932
0.100163
0.0781375
0.0404119
0.0592236
0.0576062
0.0663496
0.0632876
0.0601588
0.0689328
0.0589286
0.098392
0.068788
0.0605802
0.083296
0.0633055
0.109097
0.111108
0.071102
0.0808687
0.0615338
0.0705764
0.0531521
0.030834
0.0520326
0.0464738
0.0264817
0.0297793
0.0328477
0.0432393
0.0510231
0.0380714
0.0377266
0.032912
0.0531722
0.0578695
0.0473391
0.0494705
0.049035
0.0356116
0.0427537
0.0305666
0.0342635
0.0449012
0.0399096
0.0487638
0.0460699
0.0415347
0.0242834
0.0203965
0.0252127
0.0248431
0.0324619
0.0300823
0.036626
0.0828989
0.0512734
0.0646362
0.0519847
0.0994143
0.0340322
0.027478
0.0300232
0.0450783
0.0259901
0.048293
0.0555346
0.0582314
0.0689258
0.0581017
0.0713968
0.0315778
0.0489206
0.041342
0.0250384
0.0404972
0.0274101
0.0293446
0.0386271
0.0244771
0.0415747
0.051877
0.0461465
0.041986
0.0570444
0.0589071
0.0723652
0.045265
0.0561574
0.0801218
0.045032
0.0653266
0.0582176
0.0561563
0.065286
0.0538516
0.0434922
0.0549651
0.0383516
0.0385653
0.030322
0.094456
0.0848855
0.0980136
0.101485
0.081239
0.0520759
0.0413641
0.057959
0.0607753
0.0713509
0.0613801
0.073408
0.0459041
0.0843991
0.0837253
0.093968
0.0643983
0.0540977
0.0451627
0.0732564
0.0568236
0.058108
0.0631281
0.0946851
0.0594815
0.0735294
0.0905333
0.0854675
0.0681753
0.0744677
0.0656172
0.0572172
0.0316659
0.0386052
0.0576376
0.0573722
0.0339343
0.0281141
0.0221772
0.0276507
0.0308319
0.0343747
0.0499749
0.0385427
0.0450983
0.0381232
0.0327058
0.0350139
0.0443892
0.0300268
0.0843595
0.0456266
0.0300809
0.0334999
0.140957
0.0858397
0.119941
0.131671
0.124585
0.0872357
0.0443832
0.0588609
0.0754217
0.0749711
0.0876822
0.0775935
0.0559322
0.0421484
0.0411094
0.0407024
0.0424645
0.0545621
0.0347945
0.066365
0.0473836
0.0449644
0.04378
0.0733761
0.0837943
0.0933561
0.0956497
0.091646
0.0540734
0.0772163
0.0748846
SCALARS SignedDistance double 1
LOOKUP_TABLE default
1.20043
1.14534
0.0526397
-0.576557
0.403157
-3.97029e-05
1.45517
0.0851989
0.865305
1.2334
1.25066
0.634706
-0.0126579
0.0312752
-0.0323168
-0.0265678
0.03137
1.39727
1.35332
1.20464
0.00336171
1.3712
0.0439194
0.757374
1.24978
0.618913
0.187956
0.024196
1.29698
1.55997
-0.057244
1.30862
0.0153335
1.26192
0.0149679
0.207303
1.43187
1.12085
1.19043
1.37653
0.05676
0.824862
0.298768
-0.00998387
0.0842901
1.17945
0.197017
1.17749
-0.0299474
0.0143421
0.0150724
0.0155432
1.1254
-0.0300218
-0.0022529
1.18948
-0.0102753
0.864427
-0.114064
1.28388
1.21744
-0.0428526
1.35696
0.318926
0.443766
-1.00728
-0.0109896
1.49594
1.13412
0.0261872
0.104816
0.852846
0.141658
1.29085
-0.0338223
0.336828
1.30764
-0.00114284
0.137937
0.0165376
0.00683655
0.0786487
0.14211
1.19055
0.224817
0.0290099
0.00746964
0.652658
0.0697048
0.0674902
0.0619391
0.0129744
-0.00423281
1.40108
0.888073
0.203848
0.0219138
0.20508
1.37325
1.4267
0.248624
1.52692
1.34014
1.48713
1.42148
1.26921
1.17318
0.0327434
-1.00901
0.967292
0.0931224
0.0744235
0.00862857
-0.0181136
0.00956078
-0.00586741
0.151076
-0.00409057
1.25903
0.0258857
0.233619
0.172666
-0.00643788
1.5372
1.38362
0.14152
1.19548
0.0115206
1.21019
0.549254
0.0680252
1.21229
1.42252
1.59143
1.3908
0.91948
0.680739
1.30583
1.11827
1.42173
1.13653
1.35693
0.338858
0.692948
0.898252
-0.000886214
1.33779
0.130149
0.140818
0.0811241
0.00063938
1.17426
0.0349858
1.18902
0.0681825
1.18693
1.44206
1.38825
1.25194
-0.0028028
0.000598075
-0.00358107
0.750143
1.11694
0.641429
0.00677168
0.017628
0.0567847
-0.00228584
0.0211722
0.0242974
0.713894
1.22703
1.23594
0.0225555
0.124605
0.456914
0.0264396
1.08962
0.0196053
0.020639
-0.00593604
-0.00590206
0.0313907
0.0209933
-0.0132436
-0.00694142
0.00497943
0.0179884
-0.0172426
-0.0281801
-0.0349825
0.149992
1.21738
-0.00969616
0.0134021
0.00711776
-0.0179369
-0.00699988
0.0213254
-0.0234511
-0.00777867
0.0317825
-0.132325
0.031623
-0.0124745
1.32993
1.12808
1.25765
0.0131631
0.092115
0.350298
-0.012202
0.00260337
-0.0369426
0.0121417
0.0103816
0.00333318
1.22122
1.24586
0.00989809
0.756797
1.313
0.293673
1.08539
1.17412
1.34501
0.365674
0.536036
1.27902
0.369143
0.0167111
1.17547
0.414516
-0.130232
1.16241
0.528027
1.43908
1.30298
0.00409388
1.04215
-0.0174487
0.0956334
0.222821
0.0563822
0.861192
0.8596
0.0779112
-0.0057645
0.134303
-0.00409734
1.26529
1.47324
1.13041
1.29547
1.30478
1.32051
1.18452
0.944443
0.000141675
1.09812
0.00277862
0.179393
-0.00734676
1.11454
0.223459
0.386334
0.410321
0.264955
-0.0901135
-0.206161
0.0456961
0.0844744
0.0107598
0.0212561
1.26226
0.960764
1.14496
0.517327
1.3084
0.117202
-0.0909087
1.34703
1.13292
0.0466165
0.5099
1.46996
1.23598
1.09749
-1.00514
0.205128
-0.0386224
1.17313
0.231227
0.0700306
0.327833
0.0264509
0.81737
0.0224644
-0.00520902
-0.00667987
0.00118185
-0.000939182
-0.0107966
0.0141271
-0.0469229
1.2978
1.18185
1.24354
0.10056
-0.00125753
-0.134797
0.257931
0.708058
0.0487015
0.067526
0.0618846
0.0141562
0.0309714
-0.0113245
0.617723
-0.00275824
0.395476
-0.00896884
1.09363
0.0610474
0.158749
1.16627
0.0347172
0.682139
0.231242
0.180749
0.100512
0.151716
0.307877
0.126667
0.139566
-0.0844637
0.458637
0.0584036
0.459944
0.802758
0.44597
0.569723
-0.0078302
-0.0442541
1.17884
0.27173
0.0840953
0.00101826
-0.001415
1.40526
1.5088
0.0826444
1.20794
0.0467284
1.50681
1.32761
-1
0.0392033
0.0549016
0.0400394
0.225748
-0.000135609
0.507232
0.53631
0.0112526
0.0427685
0.0119981
-0.0488696
1.25781
1.33084
1.27763
1.23935
1.50199
1.37512
1.46468
0.133908
1.3357
1.43005
1.38512
1.05797
1.50044
1.35748
1.37092
1.46099
1.3423
1.48063
1.48928
1.43131
1.44512
1.43376
1.47949
1.42273
1.53074
1.49477
1.14925
0.00513323
1.30144
1.37733
1.43769
1.40639
1.26784
0.626889
0.136934
0.0137335
-0.866905
0.135664
1.10203
1.11863
0.631578
0.19541
0.122577
1.15606
0.610319
1.20699
-0.0900277
0.152785
0.00703078
0.97859
0.273718
0.83374
0.23161
0.0119859
0.153545
0.00984484
0.053631
0.0111353
0.034622
-0.000513617
-0.205452
0.0940951
-0.00215916
0.0899334
1.16433
0.635954
0.510511
-0.0301454
0.00230597
0.126979
1.32062
1.38573
0.291795
0.00805272
0.371423
0.084645
1.20807
1.32861
1.20801
-0.0175586
0.106293
0.00962002
0.00392775
-1
-0.914241
0.0067413
0.758081
0.00234051
1.22849
1.28045
1.45465
1.32749
1.48825
1.26874
1.26396
0.319511
-0.044699
-0.0288672
0.0380212
1.42344
1.09161
1.17321
-0.267625
-0.169114
0.220656
1.1737
1.43288
1.36733
0.210812
0.129617
1.26638
0.179913
1.14643
0.207904
1.17988
-0.766374
-0.018415
0.919374
0.747155
0.385268
0.637769
1.39209
1.51075
1.5789
1.47284
1.32593
1.49395
1.30725
1.25926
1.45421
1.28745
1.50442
1.39475
1.37273
1.11365
0.836228
1.09623
0.962902
0.0907869
0.0607042
0.017001
1.40819
1.35215
1.19336
1.21647
1.31371
1.28297
1.20021
1.22687
1.41476
1.20879
0.362608
1.17755
0.608127
1.41629
1.37293
1.23787
0.960314
0.920431
0.25959
0.0858956
-0.0140185
-0.00496897
0.0382336
0.00502389
0.452836
1.26941
1.42674
1.34545
0.600177
1.2303
0.0406798
0.475799
1.32249
-0.0196512
0.00407284
1.22769
1.22664
1.35443
0.000312485
0.344823
0.0087534
0.0617042
1.14136
0.107174
-0.00523086
0.38516
0.398418
0.142163
1.10615
0.301253
0.871609
0.0316826
0.935348
0.399129
-0.0159319
0.0841178
1.11712
0.0322259
0.723524
-0.0425375
-0.0335082
-0.00450542
0.183296
-0.020428
1.29439
1.32267
1.36348
1.34774
0.758727
0.00903211
-0.032385
0.0293281
0.404607
1.17444
0.0455284
0.687755
0.0157344
1.31908
1.08417
1.26187
1.22804
1.27078
-0.0100715
0.0595028
0.952744
0.796006
0.0741611
1.53858
1.34944
1.5106
1.26363
0.881685
0.495199
0.685601
1.15723
1.21443
1.36433
1.36094
1.26793
1.36811
1.33562
1.37918
1.42517
1.40068
1.38074
0.0602944
1.44515
1.18212
0.21304
1.19975
1.38674
1.34908
1.43641
1.16668
0.207278
0.0682584
-0.032426
0.00158897
0.126647
0.131102
-0.0158119
0.0590265
0.101423
0.0788947
-0.0468655
-0.00288246
-0.0584549
-0.0467748
0.0140334
0.00653874
0.06037
