# vtk DataFile Version 4.2
vtk output
ASCII
DATASET POLYDATA
POINTS 642 double
-1.58196 3.17286 -0.219687
1.64061 3.23474 -0.17063
-1.68428 -2.02814 0.00928228
1.57576 -1.97665 0.0204695
0.00337653 -0.905689 2.33556
-0.00340471 2.16717 2.19531
-0.074341 -0.94488 -1.8912
-0.147925 2.25891 -2.37053
2.40329 0.958598 -1.46682
2.17628 0.720168 1.18379
-2.48524 0.854229 -1.61156
-2.16596 0.602577 1.23211
-2.24716 2.09345 0.627199
-1.21729 1.5383 2.05188
-0.79687 2.9629 1.34947
0.813668 2.97092 1.34534
-0.018366 3.61185 -0.116526
1.07795 3.15779 -1.54057
-1.07218 3.17158 -1.59301
-1.60903 1.68963 -2.49334
-2.47283 2.24971 -1.06892
-2.75215 0.771252 -0.151389
1.20479 1.56912 2.02636
2.30808 2.12993 0.662527
-1.24898 -0.352256 2.14206
-0.0204779 0.518483 2.6408
-2.39373 -1.01047 -0.80321
-2.33535 -1.04751 0.763897
-0.184591 0.915173 -2.56149
-1.49179 -0.0333614 -2.07285
2.50429 2.26688 -1.01662
1.58645 1.75233 -2.28109
2.17795 -1.0048 0.74877
1.21295 -0.364306 2.0959
0.914944 -1.84067 1.43823
-0.958496 -1.85836 1.43133
0.0016506 -2.39903 0.0245194
-0.99253 -1.79918 -1.31383
0.924009 -1.7764 -1.25671
1.33285 -0.0946372 -1.86056
2.14078 -0.964738 -0.696455
2.73309 0.863224 -0.108272
-2.00201 2.71696 0.220077
-1.55962 2.60692 1.08041
-1.21108 3.15137 0.599427
-1.754 1.10015 1.69455
-1.75205 1.874 1.46134
-2.27677 1.40233 0.962993
-0.372179 2.60895 1.89206
-1.06502 2.3278 1.78887
-0.591562 1.91956 2.21905
-0.441214 3.40941 0.699746
-0.855476 3.50704 -0.158159
0.372927 2.60926 1.88938
0.000318401 3.08734 1.4366
0.938866 3.49942 -0.147567
0.452659 3.41148 0.703128
1.30166 3.17038 0.552279
-0.53501 3.55878 -0.84957
-1.40884 3.29628 -0.872243
1.44705 3.33866 -0.822628
0.540883 3.53698 -0.84039
-0.655612 2.75823 -2.11662
-0.0335029 3.26232 -1.55793
0.587916 2.75528 -2.03909
-1.87893 2.84263 -1.39877
-2.08294 2.84054 -0.629096
-0.949495 2.04139 -2.5421
-1.40746 2.54024 -2.16555
-2.60191 1.50471 -1.43655
-2.18277 2.04281 -1.87783
-2.19251 1.26122 -2.09779
-2.49477 2.2374 -0.17446
-2.71563 0.810144 -0.936041
-2.76608 1.53236 -0.604823
-2.64051 1.49634 0.228965
-2.53331 0.685326 0.572429
1.63373 2.62731 1.03812
2.041 2.78985 0.240919
0.586241 1.92629 2.21236
1.07506 2.33661 1.78383
2.33894 1.44298 0.948099
1.80928 1.89368 1.40775
1.7837 1.13263 1.63388
-0.611048 1.00331 2.45234
-0.00427877 1.43708 2.45819
-1.76979 0.0553685 1.7216
-1.21784 0.545594 2.22047
-0.0187647 -0.211415 2.59185
-0.625854 0.111489 2.54825
-0.638963 -0.66018 2.35729
-2.55586 -0.442528 0.327824
-2.2751 -0.350301 1.03643
-2.38394 -0.0716373 -1.20087
-2.58389 -0.352964 -0.451793
-2.14768 -1.63052 0.414347
-2.54161 -1.10905 -0.0192249
-2.16517 -1.62568 -0.409196
-1.62229 0.88804 -2.45647
-2.08373 0.434524 -1.96144
-0.199417 1.60274 -2.58463
-1.01357 1.32377 -2.66041
-0.841701 -0.604814 -1.99366
-0.989177 0.525834 -2.479
-0.113801 0.102954 -2.29981
1.40912 2.52987 -2.08163
0.90938 2.0813 -2.35113
2.12906 2.88488 -0.570874
1.88705 2.84621 -1.35626
2.11686 1.34962 -1.92655
2.16002 2.05675 -1.80005
2.56938 1.56472 -1.3391
2.01791 -1.57186 0.420863
1.68066 -1.4961 1.17131
1.32953 -2.01745 0.706867
1.74356 0.0820621 1.68472
1.78337 -0.772394 1.49047
2.18426 -0.218442 1.05272
0.459582 -1.46261 1.97577
1.15148 -1.20055 1.84938
0.61055 -0.700016 2.32167
0.505206 -2.27164 0.792758
0.906084 -2.30071 0.00570963
-0.458389 -1.45001 1.95758
0.00708031 -1.96995 1.50593
-0.971008 -2.30036 0.0136206
-0.532566 -2.28422 0.789072
-1.40885 -2.05212 0.699018
0.534412 -2.23009 -0.673694
1.30904 -2.0026 -0.629315
-1.41329 -2.03036 -0.649048
-0.562332 -2.23993 -0.6974
0.468885 -1.36499 -1.70713
-0.0281575 -1.87247 -1.31242
-0.559871 -1.37046 -1.75464
1.66342 -1.45328 -1.06576
1.99637 -1.56058 -0.361621
0.682317 -0.657276 -1.90203
1.16159 -1.13116 -1.61194
2.26038 0.117048 -1.11322
1.7655 -0.66678 -1.33827
1.97493 0.552454 -1.7572
2.32174 -1.05943 0.0361213
2.67038 0.920477 -0.857737
2.46435 -0.117681 -0.372904
2.43276 -0.259544 0.342494
2.54538 0.828289 0.585729
0.576463 0.110287 2.52744
1.1995 0.564939 2.16173
0.568322 1.03493 2.44197
-1.7861 -1.52536 1.1808
-1.23221 -1.21732 1.85062
-1.87283 -0.83268 1.4752
-1.30304 -1.13017 -1.7431
-1.83725 -1.49343 -1.15112
-1.961 -0.701394 -1.47263
1.56857 0.988836 -2.19569
0.722688 0.480021 -2.30829
0.866111 1.3471 -2.45355
2.67694 1.52386 0.283894
2.76784 1.57962 -0.581382
2.52832 2.28869 -0.159716
-1.7911 2.99068 -0.0225286
-1.62609 2.93502 0.41907
-1.42765 3.17513 0.127308
-1.93663 2.35253 0.849973
-1.80469 2.65601 0.651498
-2.15102 2.42089 0.430345
-1.00868 3.0798 0.994742
-1.3957 2.8966 0.869797
-1.17642 2.81563 1.24146
-1.9952 0.833124 1.44555
-2.01787 1.27917 1.35351
-2.2183 0.995059 1.11263
-1.48666 1.72158 1.78947
-1.7614 1.51306 1.59552
-1.49823 1.32708 1.89431
-2.288 1.74914 0.805967
-2.03611 1.65114 1.2158
-2.01805 1.99271 1.05148
-0.1616 2.37379 2.0821
-0.498548 2.28935 2.06882
-0.257559 2.07305 2.22498
-0.939538 2.67259 1.59068
-0.724715 2.49785 1.85476
-0.581272 2.80316 1.65163
-0.911642 1.74155 2.16054
-0.840156 2.13411 2.02688
-1.161 1.944 1.94321
-1.68245 2.25368 1.28894
-1.42275 2.11336 1.65462
-1.31509 2.48966 1.46891
-1.02834 3.36511 0.227332
-1.26409 3.34605 -0.195822
-0.632258 3.20823 1.05631
-0.826863 3.30822 0.67325
-0.463747 3.58506 -0.137848
-0.639194 3.48816 0.266648
-0.240313 3.5478 0.292555
0.156204 2.37323 2.08149
-0.00304533 2.64324 1.90691
0.415265 3.05743 1.41318
0.200516 2.87331 1.68266
0.589334 2.80655 1.64805
-0.2017 2.87191 1.68433
-0.409092 3.05395 1.41555
1.36838 3.37108 -0.171217
1.12619 3.36581 0.206149
1.52988 3.22797 0.116328
0.235118 3.54686 0.30332
0.671602 3.48507 0.276857
0.470466 3.57894 -0.11529
1.0453 3.09354 0.982295
0.866669 3.31546 0.665182
0.648805 3.21484 1.05492
-0.216338 3.2771 1.09877
0.22117 3.27869 1.09881
0.000788002 3.44687 0.719976
-1.13014 3.44008 -0.528696
-1.51525 3.25037 -0.511264
-0.279411 3.62661 -0.489113
-0.699295 3.57257 -0.503386
-1.26547 3.28272 -1.23543
-0.993248 3.45536 -0.881497
-0.826716 3.39275 -1.24091
1.57149 3.30659 -0.44665
1.20655 3.43839 -0.493518
0.841932 3.37206 -1.20802
1.03937 3.44216 -0.850981
1.28295 3.28742 -1.19357
0.750655 3.55396 -0.490974
0.244094 3.61945 -0.482198
-0.406106 2.48319 -2.27051
-0.0739834 2.78201 -2.03849
0.225449 2.49371 -2.21781
-0.604125 3.23821 -1.59194
-0.364326 3.03758 -1.8456
-0.8649 2.9836 -1.89294
0.845924 2.96692 -1.82344
0.28475 3.03485 -1.81458
0.575208 3.22035 -1.55526
-0.027501 3.57585 -0.843837
0.264413 3.44363 -1.2153
-0.30503 3.45574 -1.22575
-1.77515 3.10233 -0.780176
-1.82219 3.04972 -0.401966
-1.4787 3.05945 -1.52509
-1.65768 3.11721 -1.15246
-2.30199 2.57868 -0.848386
-2.01748 2.86614 -1.01812
-2.22064 2.56332 -1.24239
-0.5847 2.16935 -2.45078
-0.835202 2.42325 -2.35996
-1.53189 2.11505 -2.37223
-1.17758 2.29804 -2.40404
-1.26409 1.88288 -2.56831
-1.04406 2.68151 -2.16748
-1.25038 2.90023 -1.89977
-2.55942 1.14016 -1.55443
-2.43408 1.40207 -1.79095
-2.38831 1.03426 -1.83281
-2.37413 2.1723 -1.4784
-2.43917 1.78612 -1.66453
-2.57217 1.87461 -1.27208
-1.93323 1.47658 -2.32089
-2.21312 1.6449 -2.03192
-1.91841 1.8735 -2.23081
-1.66501 2.72655 -1.81052
-1.82012 2.31512 -2.05474
-2.06304 2.47036 -1.65978
-2.08076 2.7913 -0.200215
-2.51231 2.26853 -0.629605
-2.32332 2.55229 -0.412989
-2.27626 2.493 0.0316658
-2.40201 2.17862 0.237169
-2.60242 0.843643 -1.33865
-2.6862 1.18477 -1.19675
-2.78979 1.16825 -0.374425
-2.77473 1.18315 -0.772531
-2.76629 0.793173 -0.542107
-2.70765 1.54212 -1.03479
-2.65509 1.90036 -0.853212
-2.44341 1.09509 0.753254
-2.34291 0.633368 0.953789
-2.47503 1.81251 0.430665
-2.48771 1.4688 0.588501
-2.6674 0.733408 0.209329
-2.62066 1.13879 0.383425
-2.73395 1.15186 0.0294092
-2.67398 1.89821 -0.392009
-2.73888 1.52193 -0.173299
-2.60686 1.86872 0.0389011
1.71086 3.00102 0.392173
1.83146 3.06297 0.00615057
1.20947 2.83027 1.22958
1.47572 2.9219 0.822062
2.20072 2.47806 0.464222
1.88711 2.71295 0.633462
2.0212 2.39149 0.835171
0.254031 2.07242 2.22389
0.501679 2.28931 2.06755
1.15751 1.96494 1.92827
0.841955 2.14207 2.02136
0.897306 1.76374 2.14568
0.733868 2.49979 1.8523
0.955365 2.67939 1.58673
2.27063 1.08128 1.07311
2.0847 1.31978 1.28579
2.02515 0.90649 1.37882
2.10255 2.01895 1.02203
2.11637 1.67851 1.16418
2.3539 1.77755 0.82073
1.50406 1.35067 1.85408
1.8087 1.53768 1.53376
1.49604 1.74886 1.75778
1.34322 2.50266 1.45746
1.44183 2.13202 1.63647
1.74856 2.26936 1.24573
-0.303986 1.6894 2.36467
-0.00297304 1.87689 2.32235
-0.935361 1.30308 2.26857
-0.624883 1.50673 2.34247
-0.0120627 0.947486 2.5649
-0.301379 1.21407 2.48964
-0.29951 0.730075 2.59368
-2.00437 0.342559 1.45929
-1.75003 0.586779 1.74525
-1.22709 0.091705 2.22573
-1.47739 0.313819 2.01438
-1.51327 -0.169981 1.95035
-1.48155 0.836776 1.97595
-1.23032 1.06489 2.14648
-0.00958364 -0.596259 2.47436
-0.323341 -0.418205 2.51587
-0.28503 -0.800445 2.37346
-0.312568 0.315041 2.63168
-0.324014 -0.0406302 2.6039
-0.0218933 0.14939 2.64625
-0.955774 -0.514099 2.27811
-0.642803 -0.261479 2.48248
-0.937627 -0.105024 2.38698
-0.935615 0.766665 2.36312
-0.934565 0.305851 2.41962
-0.618528 0.509693 2.54558
-2.40414 0.105531 0.817241
-2.21652 0.174972 1.15926
-2.6319 0.16631 0.09461
-2.54823 0.116536 0.447335
-2.31336 -0.741336 0.900134
-2.44545 -0.427774 0.683768
-2.46986 -0.792364 0.542629
-2.46448 0.534665 -1.47914
-2.59045 0.402868 -1.07592
-2.51549 -0.743372 -0.607609
-2.51592 -0.252113 -0.789405
-2.37401 -0.660277 -0.960489
-2.64772 0.296201 -0.693228
-2.66743 0.227801 -0.320629
-1.90494 -1.87984 0.187332
-2.2027 -1.64688 0.00147433
-1.90787 -1.87662 -0.172984
-2.47679 -1.09811 0.380221
-2.4077 -1.37459 0.204817
-2.29398 -1.34335 0.606604
-2.33784 -1.33 -0.623101
-2.42325 -1.37104 -0.219065
-2.51014 -1.07958 -0.419127
-2.604 -0.42972 -0.059494
-2.58632 -0.804769 -0.230876
-2.56964 -0.820917 0.159716
-2.1522 0.860742 -2.07099
-2.33261 0.670334 -1.78496
-1.63392 1.29641 -2.51196
-1.91599 1.08145 -2.3213
-1.79552 0.204036 -2.06902
-1.87075 0.655547 -2.23954
-1.57764 0.462032 -2.32458
-0.173716 1.97092 -2.4912
-0.667139 1.80916 -2.58279
[...]
POINT_DATA 642
SCALARS Mean_Curvature double 1
LOOKUP_TABLE default
0.579625
0.939247
0.977777
0.824783
0.71635
0.752923
-0.0720767
0.351364
0.786917
0.320314
0.886986
0.397167
0.631633
0.625003
0.784641
0.764984
0.482367
0.886745
0.904824
1.18418
0.884686
0.733717
0.56698
0.794715
0.693766
0.964589
1.17018
1.05563
0.469805
0.218465
1.01874
1.20886
0.655265
0.468201
0.827893
0.748889
0.530881
0.782844
0.89162
0.170533
0.587288
0.775816
0.713225
0.625386
0.60638
0.484916
0.638021
0.5224
0.925166
0.740191
0.756878
0.696524
0.712946
0.865307
0.84754
0.675378
0.667438
0.529063
0.813818
0.732747
1.21345
0.638072
0.707147
0.531978
0.553419
0.862201
0.753134
1.04441
1.00958
1.00478
0.848759
0.957466
0.852699
0.657692
0.905597
0.779725
0.358242
0.513198
0.730268
0.766479
0.763992
0.684966
0.529751
0.462086
0.371582
0.684448
0.357064
0.583523
0.90547
0.930979
0.739988
0.489825
0.493422
0.223966
0.351978
1.0234
1.41092
1.00693
1.0104
0.814803
0.583504
1.0664
0.118288
0.655218
0.360455
1.24903
0.330114
0.919287
0.850352
0.970511
1.09618
1.05311
1.1724
1.04303
0.775797
0.353634
0.640465
0.43493
0.996931
0.782804
0.761174
0.730009
1.04454
0.433894
0.824045
0.656491
0.782525
0.782153
0.766568
0.878542
0.747038
0.785055
1.00303
0.446706
1.0064
1.13619
1.12773
0.226643
1.03971
0.18176
0.345986
0.620129
1.24587
0.737336
0.396668
0.45225
0.640331
0.875936
0.350566
0.497455
0.991089
0.900163
0.567027
1.0845
1.04499
0.384836
0.840747
0.426767
0.561227
0.946401
0.94773
0.766662
0.725501
0.399534
0.36143
0.508164
0.457623
0.67159
0.697461
0.618602
0.711568
0.353901
0.467839
0.195387
0.651857
0.562006
0.55885
0.602177
0.534326
0.536777
0.882559
0.793252
0.755748
0.779772
0.812163
0.864442
0.694643
0.744006
0.739935
0.627904
0.689511
0.706256
0.600841
0.608875
0.746887
0.663048
0.538307
0.651288
0.633596
0.849787
0.930066
0.823834
0.879352
0.828154
0.898834
0.849751
0.944892
0.440818
0.839983
0.618056
0.562074
0.471841
0.661101
0.614858
0.738049
0.783508
0.7683
0.713915
0.818754
0.631286
0.85351
0.896095
1.02637
0.77819
0.740186
1.09762
0.617773
0.612017
0.610697
1.06973
0.736099
0.749124
0.231979
0.197615
0.290403
0.695573
0.606518
0.734254
0.541486
0.591734
0.582085
0.588699
0.671434
0.743516
0.969334
0.794053
0.996986
1.05834
0.855035
0.917353
0.918324
0.31654
0.956722
0.948147
1.1172
1.32821
1.01091
1.09193
0.985039
1.03151
0.953326
0.958678
1.02951
0.81268
1.01424
1.0016
0.926524
0.809969
0.794159
0.831833
0.776946
0.759349
0.775559
0.819884
0.813276
0.643522
0.707103
0.788586
0.779603
0.694632
0.786231
0.797051
0.52805
0.399364
0.722831
0.661589
0.48133
0.681749
0.788978
0.909717
0.823525
0.863397
0.68065
0.775344
0.675502
0.530197
0.768214
0.673802
0.666875
0.757508
0.812442
0.722903
0.797891
0.67431
0.807937
0.765593
0.54405
0.502151
0.280836
0.635169
0.594044
0.79433
0.489709
0.471247
0.573191
0.684719
0.691818
0.522844
0.71166
0.777451
0.580136
0.630853
0.533452
0.65709
0.878001
0.376754
0.387712
0.721134
0.365795
0.378752
0.304799
0.574848
0.806512
0.833461
0.722454
0.984612
0.939849
1.01165
0.723222
0.84718
0.797814
0.495675
0.846638
0.879837
0.351611
0.36713
0.316901
0.355981
0.55469
0.508288
0.657075
0.639096
0.599885
0.756814
0.305388
0.452537
0.310807
0.281909
0.8784
1.01477
0.878906
1.25437
1.47452
1.23019
1.34471
1.49375
1.30559
0.40398
0.97451
0.904494
0.881137
0.866238
1.09117
0.940426
0.889065
0.884061
0.939145
0.429231
0.490081
0.427254
0.477611
0.544141
1.19057
1.30739
0.165975
-0.13685
-0.155535
0.863974
-0.0355752
0.204339
0.405365
0.370542
0.444901
1.14222
0.912241
0.9774
0.458941
0.406814
1.0309
1.07348
1.05272
1.20028
1.2639
0.910261
0.876834
0.889717
0.895591
0.913032
0.865001
0.971459
0.89241
1.02781
0.925026
1.1354
1.07246
1.04362
1.1356
1.11728
0.991251
0.850852
0.860006
1.02308
0.878574
0.838765
0.826249
0.898249
1.12572
1.30972
0.800797
0.83905
0.899824
0.380069
0.401158
0.395198
0.662716
0.632985
0.413837
0.631137
0.658225
0.647303
0.607708
0.444494
0.762333
1.06286
1.11115
0.886352
0.664778
0.565703
0.617421
0.732486
0.708461
0.86991
0.807682
0.833774
0.778872
0.794234
0.683337
0.619818
0.683239
0.628134
0.638513
0.85361
0.450535
0.884856
0.839089
0.798393
0.830543
0.755947
0.873175
0.649509
0.635847
0.725061
0.732135
0.766886
0.801145
0.834667
0.509957
0.665844
0.954447
0.873918
0.738125
0.878435
0.901463
1.04841
0.784279
0.862627
0.820048
0.800101
0.877302
0.781648
0.818991
0.583415
0.810025
0.736302
0.511226
0.646233
0.692301
0.814081
0.864772
0.68682
0.690538
0.600912
0.636293
0.678116
0.897281
0.866463
0.992028
0.915582
1.23247
1.12368
1.11538
0.181368
0.773925
0.316161
0.460208
0.293532
1.04447
1.14298
0.643198
0.581087
0.714557
0.387598
0.367439
0.405224
0.500793
0.147084
0.32041
1.13498
0.57173
1.01686
1.20874
0.937028
1.42776
1.54967
1.06244
0.757423
0.623598
0.652743
0.658093
0.763796
0.31633
0.429115
0.416161
0.291766
0.650275
0.435463
0.740614
0.455963
0.215557
0.487064
0.418848
0.576024
0.846371
0.727635
0.795745
0.923384
0.957092
0.345118
0.536791
0.396145
0.327399
0.612002
0.720431
0.826041
0.688039
0.659431
0.558173
0.758809
0.314624
0.820885
0.826976
0.78989
0.80803
0.984155
1.07814
0.661856
0.356059
0.611904
1.11637
0.981794
0.380065
0.814413
0.508894
0.501903
0.463404
1.07282
0.653703
0.953221
0.745374
1.08117
1.12975
0.790264
0.249265
0.810619
1.21459
0.988835
0.710789
0.713882
0.646081
0.188854
0.00646266
0.196269
1.00094
1.11386
1.11508
0.97779
0.814142
0.557611
0.715319
0.905694
1.04824
-0.0337298
0.470267
0.425445
0.159464
0.249022
0.478833
0.745638
0.582365
0.571402
0.52663
0.342299
0.485988
0.378183
0.696221
0.888206
0.82436
0.854875
0.903818
0.880045
0.923632
0.981411
0.855373
0.888526
0.813363
0.82224
0.763816
0.877443
0.948512
0.991242
0.808059
0.915227
SCALARS CoVolArea double 1
LOOKUP_TABLE default
0.0951712
0.075608
0.0819223
0.0813237
0.089113
0.0666256
0.113683
0.132761
0.0705297
0.107752
0.076839
0.115706
0.160928
0.153637
0.149778
0.155122
0.190873
0.172649
0.172371
0.153906
0.168191
0.191388
0.157759
0.150675
0.167879
0.119677
0.13113
0.12471
0.191579
0.194488
0.162
0.122831
0.127025
0.172899
0.161303
0.170342
0.201176
0.160488
0.144255
0.230134
0.136183
0.151987
0.164251
0.182915
0.185196
0.177169
0.168122
0.159112
0.123687
0.150772
0.13489
0.180085
0.164457
0.126871
0.151556
0.173975
0.185878
0.185592
0.185639
0.153513
0.151285
0.205132
0.173558
0.222646
0.193657
0.183782
0.152398
0.129722
0.179906
0.143198
0.186636
0.14211
0.163589
0.173587
0.161822
0.14494
0.204833
0.192636
0.153408
0.131441
0.151532
0.131164
0.175777
0.182098
0.174425
0.145591
0.199819
0.16693
0.120764
0.129352
0.156087
0.182467
0.175686
0.229526
0.193458
0.152402
0.122248
0.153755
0.144364
0.168327
0.196017
0.115369
0.184537
0.153009
0.271387
0.162054
0.160314
0.15159
0.184854
0.122465
0.166308
0.126033
0.137319
0.155293
0.160585
0.184302
0.15766
0.185415
0.148284
0.144988
0.148003
0.191109
0.151696
0.16803
0.182113
0.16938
0.195172
0.165804
0.168785
0.144231
0.157965
0.182184
0.139694
0.193198
0.13923
0.143334
0.136848
0.169514
0.126121
0.207036
0.18377
0.161585
0.11181
0.144975
0.229915
0.198653
0.162787
0.134049
0.184046
0.174433
0.16523
0.15948
0.150505
0.150039
0.170815
0.181876
0.141588
0.219412
0.182844
0.137382
0.152597
0.169536
0.146997
0.186976
0.166622
0.183449
0.180527
0.157927
0.159513
0.177388
0.16298
0.167615
0.169204
0.157198
0.153769
0.157138
0.159381
0.153445
0.162287
0.176497
0.101077
0.124512
0.107859
0.14932
0.132316
0.132958
0.142674
0.135461
0.148464
0.188793
0.169607
0.174082
0.182387
0.14865
0.162635
0.172303
0.165952
0.175768
0.191547
0.102691
0.121269
0.151925
0.132821
0.136377
0.130986
0.149171
0.127812
0.182048
0.13742
0.198414
0.192134
0.189538
0.173997
0.186457
0.168403
0.175665
0.177441
0.194309
0.157091
0.130745
0.17425
0.158567
0.164091
0.169606
0.19217
0.118959
0.149918
0.199262
0.171043
0.161598
0.178271
0.19314
0.173285
0.218012
0.197474
0.199125
0.201982
0.163796
0.172234
0.211393
0.209298
0.208267
0.230963
0.21998
0.145625
0.129799
0.175988
0.157466
0.158346
0.156604
0.174289
0.144116
0.144022
0.177064
0.146045
0.134214
0.14862
0.169877
0.114661
0.138702
0.116012
0.17598
0.156706
0.157549
0.148764
0.156951
0.179775
0.203969
0.208256
0.204338
0.152802
0.172716
0.158937
0.151139
0.151465
0.134708
0.146953
0.154007
0.15565
0.182424
0.155711
0.17228
0.167326
0.178388
0.148033
0.14395
0.189176
0.154049
0.150664
0.17597
0.158918
0.160858
0.165178
0.12457
0.177588
0.18454
0.154013
0.170271
0.173889
0.108035
0.125366
0.148056
0.132457
0.138847
0.133825
0.153738
0.128764
0.155019
0.15984
0.164872
0.15031
0.134045
0.169527
0.166001
0.164968
0.186821
0.179082
0.19696
0.141054
0.113574
0.17015
0.156956
0.139274
0.157046
0.143415
0.177173
0.197126
0.159439
0.183849
0.17953
0.181075
0.17217
0.116746
0.131181
0.134647
0.120613
0.118582
0.110844
0.156453
0.13396
0.144465
0.176017
0.151128
0.152666
0.212931
0.177059
0.231002
0.218181
0.132482
0.174058
0.129966
0.160842
0.207962
0.144726
0.207045
0.17111
0.210017
0.233859
0.131427
0.150123
0.130215
0.121932
0.136593
0.136084
0.140693
0.138553
0.125389
0.20183
0.140441
0.135545
0.141953
0.129696
0.141788
0.143006
0.181753
0.149039
0.156457
0.188786
0.151682
0.153363
0.139653
0.180492
0.113814
0.123852
0.173322
0.262843
0.254245
0.16886
0.199522
0.194013
0.200117
0.214165
0.172832
0.132274
0.135642
0.14101
0.166654
0.189693
0.165469
0.149038
0.125486
0.132885
0.142777
0.122142
0.150677
0.17769
0.16444
0.15733
0.16288
0.172661
0.104647
0.122371
0.10419
0.14605
0.131947
0.121615
0.141777
0.139199
0.16967
0.194871
0.197625
0.185235
0.124103
0.150385
0.130941
0.139606
0.1438
0.121672
0.161403
0.156721
0.160649
0.171457
0.175094
0.172013
0.16691
0.161193
0.171556
0.151717
0.157001
0.146436
0.138545
0.145078
0.12818
0.150612
0.13679
0.146424
0.157358
0.142785
0.160326
0.159636
0.162782
0.161462
0.158846
0.127722
0.175698
0.169875
0.170502
0.172978
0.200528
0.148238
0.164936
0.179461
0.170531
0.159926
0.1598
0.169585
0.131593
0.164479
0.13271
0.203748
0.182223
0.187589
0.169998
0.175559
0.183087
0.198497
0.203683
0.212335
0.141752
0.124543
0.18524
0.147661
0.142052
0.142059
0.155292
0.129415
0.156228
0.167649
0.159453
0.160239
0.170074
0.196219
0.126069
0.158104
0.124493
0.168087
0.169202
0.138317
0.145503
0.168198
0.172143
0.206662
0.202144
0.198237
0.14352
0.122851
0.146173
0.144942
0.123344
0.138672
0.134071
0.167432
0.124231
0.171279
0.126435
0.195221
0.118284
0.134259
0.136427
0.183943
0.119307
0.155967
0.202354
0.189509
0.194634
0.209403
0.20946
0.143179
0.157074
0.147614
0.133224
0.123943
0.118347
0.116356
0.113046
0.115844
0.181334
0.195789
0.196186
0.147305
0.231802
0.187064
0.204323
0.149273
0.146144
0.196673
0.153873
0.207951
0.200139
0.168634
0.210669
0.148049
0.132732
0.156405
0.140153
0.119998
0.121893
0.199178
0.183884
0.189106
0.188004
0.171775
0.137347
0.141528
0.150317
0.150553
0.174796
0.166241
0.19429
0.159856
0.158366
0.172563
0.166447
0.156166
0.145094
0.168173
0.170693
0.166013
0.157779
0.161225
0.186945
0.134059
0.150546
0.175794
0.17251
0.167735
0.163396
0.155471
0.128605
0.157309
0.129336
0.148268
0.184011
0.155674
0.150563
0.159134
0.164891
0.172548
0.196318
0.20671
0.205847
0.195987
0.148569
0.17319
0.164467
0.176445
0.126915
0.190606
0.140084
0.122681
0.124674
0.247218
0.201668
0.22137
0.222312
0.234721
0.210379
0.136503
0.166825
0.198959
0.200814
0.19899
0.205859
0.164317
0.129589
0.135237
0.125164
0.12341
0.14402
0.12735
0.155929
0.133802
0.137341
0.143617
0.146988
0.160964
0.155794
0.153929
0.164053
0.160094
0.176692
0.170497
SCALARS SignedDistance double 1
LOOKUP_TABLE default
2.00274
1.80271
1.44686
1.59419
1.91991
1.98716
3.12094
2.12161
2.31036
2.48259
2.2801
2.33598
2.06739
2.18979
1.81046
1.81422
1.87677
1.83583
1.81472
1.83834
1.63805
2.38326
2.2278
1.97281
2.19785
2.14145
2.31443
2.04402
2.50686
2.9743
1.54306
2.21252
2.14747
2.30348
1.63224
1.67379
2.0966
2.17785
2.17685
2.92826
2.45946
2.29842
1.94757
1.99751
1.91759
2.37661
2.14666
2.31812
1.844
1.96136
2.07255
1.75906
1.92347
1.85723
1.72106
1.952
1.79128
2.03076
1.57812
1.82827
1.64988
1.67272
2.13003
1.9358
2.171
1.4039
1.68699
2.10202
1.61079
1.90601
1.46827
1.95508
1.76474
2.29967
1.91101
2.11026
2.44781
2.07549
1.83184
2.07431
1.98503
2.24575
2.21241
2.40455
2.3807
2.21208
2.30647
2.39758
1.83931
2.0156
1.94904
2.24808
2.23275
2.70531
2.40414
1.578
2.0362
1.66912
2.36155
2.55513
2.2279
2.40172
2.97543
2.85565
2.9099
1.84855
2.32183
1.53305
1.40329
2.19048
1.71574
1.93249
1.74764
1.86026
1.57141
2.36689
2.11468
2.3073
1.97169
2.03109
2.08252
1.6922
1.64934
2.19183
1.89557
1.72113
1.76565
1.53849
1.97365
1.73639
1.69157
2.11666
2.68308
2.55087
2.74708
2.22413
1.95971
2.93065
2.6364
2.70934
2.62065
2.6297
2.25422
2.25774
2.50171
2.37316
2.42466
2.09903
2.48
2.37951
1.78613
2.13965
2.16504
2.62827
2.08658
2.70519
2.60096
2.751
2.43093
2.02827
1.9001
1.69834
1.95559
2.05238
2.08134
2.08315
2.05406
1.99035
1.84215
1.9509
1.88904
2.41346
2.362
2.45759
2.15301
2.24597
2.26829
2.18082
2.24893
2.1518
1.93504
1.96696
2.00523
1.87943
1.90992
1.80966
2.12887
2.00207
2.06029
2.05953
2.03492
1.9542
1.9464
2.0296
1.77475
1.81375
1.90248
1.85312
1.8128
1.93537
1.8242
1.74762
1.76635
1.81389
1.74349
1.7423
1.96628
2.06331
1.98471
1.82248
1.91458
1.92791
1.87558
1.8744
1.77612
1.73039
1.73172
1.73487
1.82892
1.95329
1.80151
1.71335
1.7503
1.67194
1.6866
1.69915
1.8816
1.75013
1.75609
1.71704
1.75216
1.82121
2.20651
2.13942
2.12346
1.80414
2.00195
1.96454
2.01188
2.01485
1.82502
1.79294
1.77716
1.71768
1.72135
1.83888
1.49898
1.56348
1.60088
1.52718
1.47009
2.26248
2.0548
1.65765
1.8646
1.94679
1.8619
1.68569
2.10743
1.8658
2.11927
1.54698
1.63137
1.73917
1.86287
1.68361
1.59903
1.43545
1.47238
1.40213
1.7785
1.65365
1.67243
1.82416
1.92974
2.30787
2.10574
2.12082
2.08115
2.32144
1.90799
1.71999
2.40961
2.36403
2.07234
2.22
2.47867
2.31123
2.21191
1.78929
1.98762
1.93543
1.9906
1.81615
1.92147
2.03802
1.87671
2.0051
2.05064
2.00338
1.95812
2.11817
2.02489
2.15255
1.90324
1.88708
2.39691
2.34356
2.48643
2.13156
2.23485
2.10222
2.30477
2.29843
2.22354
1.9976
2.10861
2.13371
2.13422
2.06975
2.25702
2.20922
2.37107
2.32701
2.25865
2.28694
2.36611
2.24127
2.35823
2.32826
2.44098
2.34668
1.83308
1.81947
1.88075
2.03573
1.88168
1.9554
2.05766
1.92561
2.06257
2.40465
2.19612
2.19767
2.29282
2.27416
2.43248
2.35754
2.17196
2.22447
2.19174
2.50512
2.55895
2.42789
2.51519
2.55347
2.60629
2.5463
1.42619
1.51628
1.46945
2.0201
1.78707
1.83625
2.01092
1.85474
2.15252
2.31662
2.29946
2.21426
2.24047
2.38374
2.09502
2.13291
2.7622
2.42889
2.65183
2.133
2.32619
2.57816
2.46418
2.36
2.23019
2.14521
3.03238
3.10484
3.13024
2.89393
3.10416
2.94298
2.6834
2.87799
2.72096
2.36218
2.61367
2.61531
2.26737
2.13187
1.75886
2.0024
2.30793
2.1531
2.04386
1.65695
1.50581
1.4213
1.43626
1.48757
1.44864
1.53523
2.25024
2.03351
2.14678
1.9522
1.96556
2.16909
1.71206
1.79697
1.54491
1.54452
1.48513
1.71619
1.59208
1.62404
1.52413
2.03191
1.8131
2.02059
1.58687
1.66907
1.71027
2.38157
2.32599
2.36325
2.19387
2.26837
2.37594
2.20325
2.20618
2.1034
2.09847
2.17945
1.97722
1.82088
2.00689
1.75913
2.19455
2.19945
2.17339
2.00568
2.05755
1.92011
1.60904
1.54078
1.56271
1.5948
1.8299
1.73392
1.87387
2.02399
2.12397
1.87598
2.09355
1.90025
1.86184
1.66734
1.58931
1.63582
1.49432
1.99359
1.75626
1.96073
1.57805
1.61326
1.64815
1.7097
1.92925
1.93171
1.58598
1.61673
1.99837
1.78293
1.91942
1.81766
2.04017
1.53289
1.65559
2.10859
1.86728
1.89879
1.89697
2.18652
2.95446
2.89205
2.99043
2.2873
2.55869
2.40236
2.45646
2.6636
2.39001
2.27126
2.39289
2.23743
1.81587
1.71943
2.13586
1.95179
2.23541
2.08309
2.34859
3.01118
2.85108
2.76123
2.82061
2.91528
2.63502
2.38904
2.46157
2.67252
2.44283
2.53192
2.65294
2.51538
2.84658
2.82107
2.75647
2.42365
2.66914
2.50699
1.80946
2.35312
2.12148
2.00176
2.19711
2.28144
2.45999
2.5192
2.47307
2.26727
2.61406
2.42364
2.39352
2.48876
2.25579
2.3151
2.35037
2.47449
2.54268
2.35974
2.41416
2.3219
1.90794
2.16501
2.02767
1.95038
2.09611
2.4479
2.35546
2.46156
2.42704
2.34962
2.1288
2.31548
2.31463
2.20251
2.26375
2.28783
2.44298
2.27435
1.51062
1.69911
1.60481
1.66639
1.89548
2.08707
2.26395
2.18704
2.11188
1.85534
2.2816
2.09912
2.17823
2.27093
2.28535
1.95335
2.15563
2.0217
2.88758
2.35672
2.65036
2.85807
2.8356
1.63382
2.19848
1.85647
1.83314
2.04774
2.72921
2.80984
2.8454
2.65542
2.50845
2.3638
2.43118
2.67181
2.41033
2.82121
2.6011
2.38156
2.39562
3.06608
2.57971
2.79206
3.02804
2.97513
2.14929
2.46615
2.35143
2.25833
2.39537
2.76705
2.56199
2.61929
2.3045
2.14286
2.21512
2.12985
1.96332
2.09403
1.72344
1.90281
2.07448
2.09453
1.69505
1.81349
1.73495
1.63566
1.63237
1.92968
1.73738
1.81716
