# vtk DataFile Version 4.2
vtk output
ASCII
DATASET POLYDATA
POINTS 642 double
-2.05877 3.95083 -0.0996724
2.09483 4.00271 -0.0651438
-2.11874 -2.76917 0.00205974
2.06401 -2.72349 0.00644995
0.00703287 -1.36139 3.18979
-0.00220081 2.64105 3.12132
-0.0330659 -1.35004 -2.92692
-0.0784973 2.6962 -3.20656
3.25037 0.763244 -2.00605
3.05123 0.690028 1.80518
-3.30613 0.728002 -2.06763
-3.03794 0.628126 1.82847
-3.04978 2.54178 1.06343
-1.78247 1.80601 2.91779
-1.14007 3.72299 1.87726
1.14435 3.72501 1.87617
-0.013995 4.52281 -0.0521965
1.28176 3.87301 -1.99735
-1.28018 3.88298 -2.02298
-2.01571 1.89802 -3.22949
-3.22105 2.66307 -1.27337
-3.75746 0.705601 -0.0581898
1.77281 1.819 2.90355
3.08987 2.56794 1.09573
-1.81885 -0.572986 2.97407
-0.00745314 0.589013 3.69539
-3.20116 -1.36249 -1.17588
-3.17952 -1.3721 1.17029
-0.104658 0.755094 -3.61537
-1.92177 -0.449649 -2.98362
3.23785 2.6673 -1.25249
1.99408 1.90785 -3.14216
3.08423 -1.3444 1.14449
1.79348 -0.569328 2.942
1.20639 -2.54455 1.93647
-1.22214 -2.55169 1.93176
0.00654155 -3.28007 0.00351323
-1.22094 -2.50953 -1.87059
1.19271 -2.49411 -1.84919
1.81159 -0.450067 -2.80125
3.06001 -1.31858 -1.12568
3.7608 0.7291 -0.0385527
-2.65759 3.35949 0.505073
-2.17156 3.23762 1.55736
-1.64223 3.93741 0.921523
-2.5045 1.23971 2.44362
-2.48701 2.23884 2.11441
-3.15836 1.60818 1.50872
-0.564964 3.26316 2.64294
-1.54386 2.86269 2.52967
-0.897699 2.30128 3.14622
-0.608979 4.29445 0.990521
-1.09718 4.39266 -0.0693642
0.564242 3.26199 2.64037
-0.000637221 3.89673 1.98655
1.1393 4.38195 -0.0651628
0.611619 4.29384 0.991783
1.68755 3.95113 0.890881
-0.651718 4.40852 -1.0475
-1.77759 4.08626 -1.03642
1.77548 4.10098 -1.01924
0.664183 4.38586 -1.04759
-0.694031 3.36988 -2.79106
-0.0161614 3.99508 -2.04694
0.672428 3.35044 -2.72855
-2.37941 3.42469 -1.73089
-2.72998 3.46642 -0.677954
-1.054 2.39548 -3.40227
-1.72838 3.02276 -2.76466
-3.42333 1.67328 -1.77299
-2.77261 2.3746 -2.37006
-2.82133 1.30947 -2.73751
-3.30876 2.70344 -0.061206
-3.66596 0.709494 -1.1299
-3.69815 1.70722 -0.673396
-3.59795 1.68542 0.526686
-3.49662 0.669174 0.939214
2.20955 3.24673 1.53831
2.68558 3.41339 0.518585
0.898564 2.30207 3.14557
1.54776 2.86403 2.52997
3.21473 1.62456 1.52612
2.52117 2.24564 2.09311
2.52289 1.2501 2.41154
-0.927307 1.199 3.44404
0.000380512 1.69039 3.48581
-2.51911 -0.0154964 2.46044
-1.8369 0.597517 3.09773
-0.00709609 -0.431888 3.58888
-0.944384 0.00910865 3.53377
-0.929625 -1.02293 3.22873
-3.57357 -0.524371 0.561899
-3.17903 -0.459249 1.5531
-3.23293 -0.330691 -1.62156
-3.61276 -0.484086 -0.613368
-2.7546 -2.20813 0.598905
-3.40291 -1.47865 -0.00135995
-2.75281 -2.20482 -0.592062
-2.06376 0.733193 -3.30069
-2.72946 0.141801 -2.63967
-0.1091 1.74692 -3.57402
-1.09988 1.3387 -3.68303
-0.997999 -0.996633 -3.06929
-1.09168 0.183239 -3.50635
-0.053638 -0.243379 -3.34415
1.72091 3.00597 -2.72158
1.06405 2.39396 -3.29099
2.75878 3.49024 -0.651697
2.37818 3.42365 -1.71559
2.77615 1.33427 -2.66194
2.76022 2.36812 -2.34091
3.41441 1.68799 -1.74019
2.68243 -2.15885 0.594633
2.26979 -2.06577 1.62926
1.7234 -2.7721 0.973721
2.50744 -0.00103813 2.44304
2.53616 -1.0556 2.14782
3.11625 -0.38653 1.55531
0.609492 -2.05111 2.69008
1.61684 -1.66398 2.60012
0.920101 -1.05214 3.21089
0.646645 -3.11049 1.03489
1.1253 -3.15955 -0.0032467
-0.605565 -2.05056 2.67605
0.00444251 -2.70623 2.02738
-1.15898 -3.15678 0.0028586
-0.656288 -3.11703 1.03332
-1.7612 -2.79963 0.972924
0.660338 -3.09469 -0.989484
1.70976 -2.76195 -0.943766
-1.75944 -2.78726 -0.952195
-0.667997 -3.09108 -0.997997
0.61374 -1.95857 -2.5284
-0.00832624 -2.61598 -1.91857
-0.640041 -1.97002 -2.55978
2.24316 -2.03353 -1.57494
2.6668 -2.14828 -0.569939
0.955841 -1.01509 -2.98522
1.59559 -1.5993 -2.48459
3.1575 -0.244751 -1.60337
2.5304 -1.00792 -2.10185
2.65236 0.200225 -2.52828
3.28429 -1.43387 0.0144141
3.64172 0.756949 -1.0999
3.46865 -0.369041 -0.553542
3.46697 -0.43941 0.545004
3.53625 0.740181 0.964902
0.921047 0.0107401 3.51456
1.82291 0.60554 3.05729
0.905376 1.2144 3.43638
-2.32141 -2.09246 1.63804
-1.64933 -1.66636 2.58959
-2.60869 -1.08152 2.17136
-1.64813 -1.61491 -2.5362
-2.31773 -2.07202 -1.60682
-2.65748 -1.03556 -2.18796
2.01954 0.777307 -3.14783
0.979311 0.177324 -3.34178
1.06139 1.35094 -3.47441
3.63716 1.69089 0.560326
3.70549 1.7257 -0.676611
3.33414 2.7335 -0.0615795
-2.36469 3.69752 0.187458
-2.17258 3.65644 0.731159
-1.87285 3.95632 0.371649
-2.6452 2.90091 1.31225
-2.44011 3.2993 1.04003
-2.88533 2.97721 0.793482
-1.40444 3.86227 1.41319
-1.92331 3.61463 1.26973
-1.66583 3.51815 1.74503
-2.80367 0.922211 2.12636
-2.84437 1.45448 2.00255
-3.11044 1.11522 1.68425
-2.15044 2.03801 2.5556
-2.51418 1.75837 2.30906
-2.16864 1.52849 2.70481
-3.1403 2.07634 1.30385
-2.84861 1.94141 1.82015
-2.79399 2.40325 1.59743
-0.264838 2.95168 2.93016
-0.759217 2.81137 2.92537
-0.422796 2.50189 3.16361
-1.35769 3.32961 2.23246
-1.07169 3.09755 2.607
-0.855457 3.51972 2.29363
-1.3516 2.0687 3.06516
-1.24224 2.59653 2.8697
-1.68748 2.34467 2.75887
-2.36446 2.76096 1.86259
-2.04141 2.57124 2.35576
-1.87471 3.08174 2.07868
-1.36621 4.20423 0.438275
-1.61842 4.18692 -0.0873776
-0.8906 4.0451 1.4647
-1.13187 4.15283 0.980961
-0.579002 4.50721 -0.0623324
-0.844502 4.37556 0.457433
-0.316927 4.45788 0.469027
0.261223 2.95067 2.92881
-0.00201255 3.31279 2.66461
0.587048 3.85173 1.95798
0.295513 3.61651 2.33575
0.857451 3.5197 2.29138
-0.297407 3.61682 2.33719
-0.58622 3.85151 1.95938
1.67523 4.21689 -0.073017
1.41672 4.2028 0.425172
1.93745 4.00876 0.368191
0.310932 4.45449 0.475641
0.859004 4.36934 0.463967
0.576866 4.4881 -0.0481233
1.41659 3.868 1.40859
1.14752 4.15585 0.974292
0.894665 4.04672 1.46434
-0.307029 4.14039 1.51593
0.30719 4.1403 1.51581
-0.000669119 4.34643 1.00835
-1.43417 4.28384 -0.564103
-1.94665 4.05165 -0.539618
-0.338632 4.53528 -0.551761
-0.877255 4.45654 -0.554618
-1.55054 4.02393 -1.53353
-1.22528 4.27361 -1.06311
-0.98343 4.17315 -1.55392
1.96868 4.08937 -0.508473
1.47213 4.30917 -0.558614
0.99785 4.15843 -1.53274
1.24697 4.27332 -1.0557
1.54949 4.02905 -1.51677
0.908913 4.43409 -0.557501
0.313628 4.51395 -0.548958
-0.384301 3.02857 -3.04863
-0.036734 3.38201 -2.7386
0.29934 3.01284 -2.98688
-0.676251 3.96618 -2.05661
-0.374609 3.71072 -2.43181
-0.98851 3.65721 -2.44974
0.98443 3.63981 -2.4108
0.340537 3.70063 -2.40996
0.66883 3.94891 -2.03534
-0.0157835 4.4429 -1.0561
0.328103 4.24291 -1.56632
-0.345299 4.25876 -1.57479
-2.28777 3.8141 -0.889267
-2.39468 3.75687 -0.370107
-1.83885 3.70077 -1.90219
-2.09224 3.79695 -1.4049
-3.00544 3.10163 -0.977952
-2.60027 3.47716 -1.21439
-2.84911 3.07086 -1.51564
-0.583079 2.57711 -3.33584
-0.905354 2.92133 -3.12879
-1.89812 2.47578 -3.03623
-1.40515 2.73062 -3.13104
-1.52678 2.16907 -3.36686
-1.21828 3.24665 -2.81499
-1.51582 3.50264 -2.42141
-3.3982 1.16833 -1.95293
-3.16283 1.52029 -2.28836
-3.11633 1.00031 -2.4002
-3.04657 2.54773 -1.83438
-3.14088 2.04664 -2.08551
-3.36264 2.17565 -1.54475
-2.45722 1.6065 -3.01456
-2.82555 1.84852 -2.59752
-2.42161 2.15127 -2.8417
-2.08404 3.26154 -2.28096
-2.28461 2.72722 -2.60351
-2.61366 2.93292 -2.07918
-2.73966 3.43152 -0.0796739
-3.30069 2.71109 -0.679822
-3.05621 3.09963 -0.382784
-3.01986 3.05545 0.237274
-3.22172 2.64626 0.52596
-3.51059 0.725841 -1.65144
-3.59635 1.21069 -1.45806
-3.77833 1.20858 -0.359048
-3.72621 1.21542 -0.902775
-3.75547 0.706365 -0.598291
-3.5889 1.71369 -1.23666
-3.49382 2.20134 -0.991252
-3.38209 1.18338 1.22279
-3.27784 0.646564 1.4315
-3.36587 2.13826 0.810056
-3.41274 1.67036 1.02233
-3.67256 0.689968 0.456603
-3.59475 1.20397 0.726821
-3.72815 1.20396 0.230403
-3.55491 2.22607 -0.370741
-3.70612 1.70833 -0.0580889
-3.51014 2.20401 0.248036
2.22722 3.7134 0.718353
2.39611 3.75831 0.208796
1.67749 3.52322 1.74189
1.96328 3.62811 1.24418
2.9163 3.01698 0.816349
2.49159 3.34347 1.03674
2.69892 2.93092 1.31746
0.422145 2.49948 3.16297
0.761185 2.80875 2.92381
1.68618 2.35112 2.75633
1.24481 2.59685 2.86989
1.34619 2.07765 3.05944
1.07523 3.09647 2.60556
1.36243 3.33091 2.23163
3.16031 1.15105 1.68157
2.89481 1.46877 1.98009
2.83508 0.957375 2.10022
2.85126 2.42229 1.6004
2.90644 1.95523 1.81124
3.19146 2.09262 1.33483
2.16617 1.53606 2.6833
2.54189 1.76653 2.28015
2.15297 2.04836 2.54285
1.88587 3.08554 2.07631
2.05011 2.57642 2.35151
2.40108 2.76675 1.84588
-0.462972 2.00413 3.35816
-0.000866988 2.2195 3.31323
-1.37999 1.52804 3.21189
-0.937412 1.77848 3.31795
-0.00328073 1.12843 3.61584
-0.459848 1.44091 3.51075
-0.459585 0.877764 3.63027
-2.81551 0.313699 2.13844
-2.50615 0.618053 2.4944
-1.83786 0.0126963 3.08293
-2.17565 0.296398 2.82266
-2.19253 -0.307873 2.74402
-2.17125 0.927995 2.79224
-1.82223 1.21908 3.02633
-0.00315767 -0.932548 3.41051
-0.476468 -0.720159 3.46158
-0.43646 -1.21253 3.24333
-0.471434 0.29921 3.66792
-0.480581 -0.205828 3.60852
-0.00807576 0.0715563 3.68588
-1.39066 -0.813321 3.13833
-0.954695 -0.505731 3.42012
-1.39538 -0.278171 3.30009
-1.41281 0.897007 3.31905
-1.41852 0.294457 3.3613
-0.945688 0.582031 3.54863
-3.35351 0.0545461 1.24712
-3.10911 0.110542 1.71213
-3.64902 0.0799735 0.251316
-3.53907 0.0564005 0.748222
-3.22195 -0.928035 1.38285
-3.41225 -0.519173 1.0644
-3.43738 -0.969147 0.875584
-3.30937 0.283028 -1.90337
-3.51161 0.194807 -1.37633
-3.4739 -0.948484 -0.891744
-3.47872 -0.438394 -1.09193
-3.26324 -0.908668 -1.40227
-3.64688 0.123925 -0.866258
-3.67457 0.10174 -0.348099
-2.44047 -2.54083 0.283132
-2.8096 -2.23203 0.00198182
-2.43932 -2.53932 -0.278137
-3.34134 -1.45238 0.603722
-3.11593 -1.86079 0.311252
-3.00556 -1.81427 0.896589
-3.00816 -1.80807 -0.890752
-3.11691 -1.85923 -0.30838
-3.35289 -1.44723 -0.606866
-3.65785 -0.529342 -0.0233089
-3.58314 -1.00392 -0.315284
-3.56904 -1.01124 0.297419
-2.79536 0.727085 -2.74042
-3.06573 0.450488 -2.36131
-2.07077 1.32214 -3.32006
-2.46057 1.03067 -3.06518
-2.34073 -0.161653 -2.85235
-2.41726 0.427978 -3.00488
-2.00676 0.146078 -3.18599
-0.0913154 2.26088 -3.40911
-0.64251 2.06384 -3.55054
-0.648421 1.0523 -3.68333
[...]
POINT_DATA 642
SCALARS Mean_Curvature double 1
LOOKUP_TABLE default
0.503307
0.643793
0.620976
0.586716
0.487276
0.595986
0.309828
0.135142
0.592768
0.183081
0.599171
0.344321
0.530022
0.530373
0.560598
0.552557
0.327729
0.698393
0.681382
0.569429
0.619564
0.50676
0.503169
0.56985
0.489322
0.655051
0.764012
0.774992
0.387171
0.423925
0.570384
0.705503
0.843837
0.35514
0.570895
0.548047
0.334613
0.575497
0.582083
-0.0739831
0.764557
0.585471
0.55843
0.470398
0.454544
0.421827
0.488205
0.47733
0.610571
0.547799
0.521727
0.512792
0.573459
0.589607
0.583832
0.480926
0.505054
0.360232
0.534227
0.690282
0.600678
0.454374
0.59915
0.400089
0.405514
0.565963
0.616936
0.702866
0.534915
0.667856
0.542333
0.636806
0.570175
0.435257
0.624668
0.615011
0.161391
0.371258
0.549646
0.552375
0.551733
0.608224
0.422237
0.369231
0.255675
0.481457
0.270744
0.520468
0.613934
0.623697
0.514243
0.458793
0.371131
-0.270953
0.470299
0.576469
0.768753
0.579887
0.585003
0.491115
0.30193
0.88031
0.701669
0.677126
0.226528
0.563685
0.812139
0.605722
0.567542
0.646945
0.549549
0.696432
0.575379
0.554951
0.543231
0.357645
0.48729
0.433855
0.584293
0.64123
0.45714
0.532495
0.600179
0.583877
0.564589
0.492722
0.548111
0.548658
0.616442
0.594151
0.576443
0.56458
0.460094
0.305254
0.532146
0.543822
0.558907
0.608423
0.638002
0.278832
0.626502
0.501635
0.843402
0.528785
0.0541787
0.274503
0.520854
0.610878
0.442651
0.321565
0.54277
0.620215
0.690827
0.510836
0.520979
0.628933
0.614528
0.347559
0.344627
0.670275
0.569272
0.53335
0.527587
0.328519
0.264813
0.396036
0.376072
0.556179
0.521301
0.471652
0.527886
0.256354
0.428351
0.324377
0.532452
0.494451
0.469087
0.494223
0.438813
0.4183
0.625222
0.593003
0.564535
0.560688
0.579793
0.588233
0.524386
0.544307
0.531013
0.475901
0.524457
0.528705
0.410151
0.482842
0.545227
0.491947
0.600534
0.450241
0.46566
0.608775
0.609203
0.575578
0.591708
0.576795
0.601851
0.584
0.652728
0.269294
0.591745
0.465521
0.424739
0.465794
0.490627
0.463498
0.538955
0.561865
0.556564
0.528481
0.556035
0.59675
0.698101
0.634693
0.594906
0.467616
0.438192
0.641808
0.783595
0.379235
0.531035
0.658005
0.498644
0.511576
0.459508
0.258373
0.133768
0.436382
0.432605
0.65881
0.646006
0.390097
0.380282
0.496337
0.453145
0.555139
0.668885
0.562181
0.547698
0.590437
0.613314
0.639887
0.585345
0.603859
0.686894
0.504355
0.655821
0.5783
0.701506
0.607798
0.667226
0.654954
0.622496
0.569717
0.577115
0.635665
0.639118
0.597974
0.527478
0.546493
0.540697
0.559362
0.541678
0.509728
0.523882
0.58444
0.599087
0.592716
0.60246
0.593504
0.531773
0.50889
0.515405
0.459295
0.500879
0.315527
0.596161
0.553541
0.496283
0.550416
0.582771
0.566436
0.663924
0.612501
0.525642
0.604011
0.49851
0.367343
0.548118
0.509833
0.516031
0.550469
0.575869
0.555996
0.567617
0.550455
0.571839
0.553331
0.50521
0.461358
0.36694
0.52053
0.510557
0.58522
0.407219
0.42022
0.506407
0.505794
0.511958
0.398084
0.517728
0.509962
0.450698
0.493681
0.468733
0.419457
0.59733
0.319616
0.325569
0.545062
0.386686
0.396258
0.297459
0.420166
0.559803
0.574456
0.502225
0.659731
0.632251
0.673837
0.512976
0.573557
0.56867
0.496197
0.61624
0.615736
0.261225
0.290033
0.175529
0.225976
0.693963
0.395533
0.786949
0.490506
0.372751
0.774862
0.26071
0.600498
0.454219
0.0301124
0.605954
0.579477
0.614644
0.787234
0.552143
0.563839
0.532572
0.544622
0.763263
0.569003
0.8534
0.855709
0.579788
0.55061
0.633938
0.60704
0.473415
0.544593
0.519149
0.178011
0.583721
0.523509
0.703264
0.392305
0.860309
0.758542
0.54398
-0.061059
-0.216212
0.585894
0.527748
-0.161517
0.33764
0.188067
0.307177
0.699292
0.80068
0.662335
0.644066
0.179173
0.623774
0.693239
0.794838
0.679334
0.598711
0.638654
0.593645
0.569379
0.582944
0.593552
0.570036
0.562351
0.62624
0.672434
0.651554
0.637385
0.68321
0.67221
0.608829
0.663672
0.551629
0.555766
0.556483
0.547261
0.590632
0.567587
0.579639
0.594831
0.55751
0.580697
0.554063
0.550477
0.561251
0.29098
0.461224
0.264904
0.459357
0.514751
0.447913
0.40705
0.44628
0.606762
0.352174
0.605934
0.491392
0.581067
0.590436
0.57885
0.398295
0.714767
0.506647
0.674407
0.631194
0.590288
0.544309
0.572391
0.547989
0.529469
0.58252
0.522282
0.434304
0.382258
0.545915
0.611033
0.353153
0.572566
0.581746
0.570389
0.667589
0.579353
0.588126
0.488466
0.473379
0.480536
0.531174
0.512187
0.53824
0.552712
0.457621
0.517012
0.59515
0.595677
0.520632
0.72607
0.579556
0.599724
0.677664
0.617917
0.556511
0.609704
0.57916
0.534517
0.579586
0.502522
0.452435
0.238743
0.496622
0.560291
0.453722
0.643658
0.604171
0.509471
0.573026
0.381438
0.519874
0.492959
0.57991
0.583093
0.559105
0.575133
0.549558
0.554514
0.565051
0.535942
0.599357
0.654961
0.714878
0.283209
0.585432
0.563212
0.512112
0.46298
0.555445
0.718964
0.0925794
0.349233
0.458239
0.0558074
0.241339
0.553186
0.702019
0.648235
0.606337
0.776171
0.569944
0.567963
0.847862
0.573416
0.454831
0.492594
0.431543
0.543008
0.00381225
0.543266
0.223308
0.417526
0.59034
0.359355
0.558365
0.129005
0.398021
0.747162
0.222199
0.841149
0.562837
0.518626
0.541464
0.620384
0.655076
0.250165
0.410149
0.37083
0.311565
0.509358
0.527762
0.586221
0.467211
0.503669
0.446446
0.594174
0.313278
0.595428
0.569414
0.537819
0.549276
0.555932
0.573203
0.338167
0.418987
0.389934
0.565114
0.561039
0.363505
0.746243
0.549662
0.364319
0.401472
0.556511
0.757448
0.634666
0.655919
0.505805
0.550216
0.672022
0.6316
0.597857
0.514493
0.55908
0.566794
0.522096
0.496024
0.190695
0.181302
0.552301
0.731291
0.485513
0.568297
0.662217
0.594396
0.498995
0.564757
0.629649
0.665439
0.12573
0.411028
0.338187
0.253202
0.196986
0.268747
0.781057
0.230606
0.402071
0.41705
0.428074
0.370769
0.711037
0.596867
0.647138
0.626759
0.65292
0.589013
0.64302
0.662799
0.691385
0.583294
0.601385
0.611667
0.543895
0.544277
0.626017
0.619973
0.627047
0.512784
0.537882
SCALARS CoVolArea double 1
LOOKUP_TABLE default
0.191579
0.179072
0.187719
0.185476
0.187217
0.165487
0.195161
0.220724
0.172424
0.191806
0.177915
0.198161
0.285242
0.274143
0.282793
0.285597
0.311826
0.307234
0.311395
0.312056
0.307934
0.31402
0.27402
0.285101
0.289241
0.256843
0.288538
0.280832
0.296229
0.314872
0.309811
0.279384
0.267453
0.293383
0.298649
0.302784
0.325662
0.290952
0.281714
0.327037
0.271402
0.281313
0.281975
0.310027
0.297402
0.27678
0.294607
0.264399
0.257183
0.287327
0.258191
0.313255
0.284435
0.259413
0.295355
0.292764
0.316057
0.300513
0.323232
0.286375
0.286278
0.334782
0.287358
0.3484
0.300698
0.330474
0.282853
0.267924
0.330543
0.281493
0.332231
0.280242
0.310438
0.29253
0.310023
0.283051
0.304784
0.319447
0.278197
0.255362
0.288076
0.249075
0.301131
0.281524
0.304058
0.26746
0.296914
0.287504
0.254021
0.274095
0.279489
0.299951
0.276498
0.336801
0.305279
0.292125
0.30406
0.290431
0.301821
0.291194
0.31318
0.263401
0.269926
0.270417
0.340635
0.320342
0.272389
0.288161
0.329839
0.265249
0.325035
0.27153
0.281203
0.30925
0.289085
0.27856
0.287795
0.291057
0.273915
0.289631
0.275667
0.326246
0.283257
0.286313
0.318408
0.292292
0.327595
0.293588
0.308416
0.278844
0.286364
0.319076
0.264457
0.320293
0.262782
0.30208
0.279484
0.25443
0.27737
0.306514
0.297549
0.27803
0.278747
0.270855
0.352198
0.309339
0.277257
0.273929
0.295083
0.304313
0.319153
0.302086
0.279739
0.301211
0.316744
0.308937
0.27304
0.316395
0.311592
0.289902
0.306833
0.315223
0.264219
0.298642
0.27934
0.306955
0.292332
0.275409
0.2775
0.29086
0.294518
0.265154
0.27101
0.255112
0.278762
0.265128
0.26555
0.267379
0.272568
0.300553
0.229191
0.254615
0.230993
0.286396
0.26216
0.26338
0.260906
0.261111
0.279538
0.331372
0.315809
0.321952
0.299989
0.266749
0.297084
0.291442
0.282979
0.294807
0.318635
0.230854
0.257583
0.291371
0.266823
0.264982
0.265843
0.29025
0.253936
0.299198
0.257525
0.322612
0.305175
0.302136
0.290236
0.30162
0.300586
0.329199
0.329938
0.341819
0.285048
0.254157
0.305873
0.284743
0.298814
0.302116
0.330771
0.253617
0.279884
0.328999
0.292745
0.29214
0.2984
0.322868
0.273905
0.31754
0.296136
0.330022
0.314536
0.288886
0.289471
0.320665
0.336828
0.355505
0.37359
0.365102
0.278941
0.253563
0.322717
0.294848
0.289588
0.29261
0.319993
0.259244
0.270911
0.329739
0.292187
0.289745
0.28514
0.317403
0.246608
0.281502
0.249812
0.321908
0.29701
0.292358
0.288621
0.296464
0.326827
0.36409
0.3657
0.362833
0.280746
0.315466
0.290246
0.279871
0.290606
0.254936
0.276994
0.292773
0.285347
0.300871
0.290136
0.316783
0.272729
0.277925
0.282687
0.260223
0.2969
0.268142
0.283501
0.340695
0.320244
0.322823
0.28576
0.250062
0.306245
0.300371
0.278277
0.288723
0.302829
0.232065
0.255996
0.277692
0.258678
0.255679
0.263259
0.288933
0.233954
0.261787
0.259212
0.294267
0.265861
0.259857
0.272181
0.272823
0.286354
0.332464
0.323669
0.338881
0.265043
0.23563
0.292864
0.275695
0.26213
0.279166
0.280344
0.274914
0.294235
0.2857
0.284869
0.282958
0.282631
0.291355
0.242453
0.262035
0.256992
0.26483
0.254142
0.245525
0.276423
0.265391
0.283341
0.315876
0.299977
0.305018
0.311063
0.277029
0.344672
0.3159
0.249684
0.276568
0.269518
0.279293
0.317203
0.283293
0.305766
0.286799
0.312444
0.346922
0.262907
0.291324
0.261201
0.294767
0.296288
0.290233
0.292
0.297045
0.299933
0.334199
0.306253
0.301166
0.276681
0.255365
0.303788
0.281824
0.296678
0.282347
0.300265
0.303828
0.276654
0.269602
0.259032
0.29008
0.257922
0.294795
0.25935
0.330576
0.326568
0.295574
0.282959
0.296296
0.285559
0.294957
0.278229
0.312349
0.285583
0.306229
0.283933
0.297215
0.311088
0.280026
0.260031
0.273329
0.307667
0.255792
0.290802
0.323654
0.300039
0.293327
0.300063
0.319315
0.239198
0.269386
0.239424
0.309461
0.281301
0.268309
0.287751
0.289197
0.323016
0.358661
0.36057
0.357487
0.255367
0.284467
0.259788
0.293567
0.287006
0.275694
0.288932
0.290046
0.30693
0.268396
0.278109
0.273234
0.290827
0.270681
0.274024
0.261012
0.269724
0.279194
0.257621
0.272158
0.251798
0.299903
0.271329
0.277551
0.278734
0.269263
0.288248
0.319761
0.313175
0.328379
0.289672
0.259192
0.313127
0.296235
0.291135
0.296862
0.329913
0.267267
0.284238
0.312973
0.290499
0.282143
0.285014
0.307936
0.260148
0.292435
0.262754
0.33227
0.302298
0.305129
0.29449
0.300057
0.317248
0.350354
0.352715
0.359961
0.280179
0.25574
0.3177
0.279791
0.275873
0.27879
0.295351
0.259193
0.286898
0.303662
0.289339
0.285366
0.295271
0.327486
0.243286
0.28177
0.238819
0.297183
0.284938
0.261773
0.266489
0.283989
0.300763
0.355716
0.349845
0.346328
0.278916
0.254385
0.295517
0.280261
0.27556
0.281958
0.29231
0.259214
0.241507
0.285205
0.240081
0.275839
0.253506
0.285781
0.252678
0.295742
0.242112
0.283351
0.299634
0.283441
0.2971
0.307831
0.311468
0.319746
0.306802
0.314728
0.27872
0.278064
0.278609
0.27894
0.274005
0.24122
0.297776
0.319976
0.316136
0.273083
0.33417
0.304257
0.313112
0.253946
0.271027
0.30229
0.272231
0.316823
0.313781
0.314842
0.338931
0.29524
0.265372
0.2884
0.270335
0.253944
0.264073
0.294889
0.295596
0.287353
0.283579
0.289111
0.261888
0.278282
0.273424
0.270069
0.294409
0.305979
0.326399
0.308111
0.29138
0.313949
0.296571
0.296146
0.30738
0.291719
0.293787
0.286683
0.284366
0.30405
0.287481
0.280094
0.258358
0.276943
0.2879
0.3371
0.317482
0.327926
0.244861
0.299706
0.263942
0.271431
0.311003
0.286169
0.31059
0.292993
0.28976
0.307869
0.313785
0.31974
0.311289
0.304132
0.294255
0.339582
0.336059
0.332641
0.260876
0.302673
0.263359
0.261721
0.273125
0.321787
0.307805
0.304939
0.29927
0.324142
0.319701
0.277183
0.278894
0.312386
0.320545
0.318114
0.335387
0.308003
0.247435
0.280613
0.253233
0.254878
0.291658
0.265098
0.308629
0.276999
0.273727
0.291959
0.28087
0.304674
0.286343
0.289128
0.311901
0.331018
0.342681
0.338
SCALARS SignedDistance double 1
LOOKUP_TABLE default
2.83053
2.62653
2.31718
2.48804
2.88686
3.01029
4.00539
3.08396
3.21162
3.52843
3.05232
3.39918
3.05855
3.24537
2.82128
2.81898
2.79198
2.57449
2.52709
2.57529
2.46023
3.2685
3.29396
2.93914
3.18802
3.11833
3.02206
2.88729
3.52115
3.78825
2.39049
2.96999
3.07884
3.28458
2.56728
2.58255
2.87122
2.97257
3.00545
3.97483
3.32833
3.23125
2.8753
3.00282
2.86804
3.41089
3.18441
3.31331
2.8598
3.00771
3.10717
2.72485
2.76858
2.87167
2.72667
2.80114
2.73792
2.92358
2.46383
2.55545
2.40399
2.56498
2.86065
2.7623
2.95698
2.28362
2.5534
2.85051
2.39799
2.64708
2.33317
2.72579
2.70254
3.16589
2.76827
3.06852
3.43518
3.0316
2.75872
3.11265
3.01797
3.23475
3.23612
3.45059
3.36879
3.24247
3.37606
3.39068
2.85662
3.01929
2.94487
3.27236
3.27204
3.59774
3.41521
2.43068
2.71797
2.48569
3.13764
3.3482
3.20078
3.19821
3.96862
3.71098
3.88336
2.58029
3.14618
2.40424
2.29047
3.03178
2.50255
2.74333
2.62329
2.73201
2.49614
3.45314
3.1475
3.35603
2.80875
2.92642
3.06389
2.53942
2.46549
2.94745
2.73096
2.58311
2.58851
2.43234
2.81314
2.6403
2.56854
2.89162
3.49701
3.35583
3.50779
3.03837
2.78649
3.98722
3.4853
3.66346
3.69127
3.58518
3.0293
3.17696
3.52791
3.43125
3.38809
3.10463
3.49748
3.39406
2.63548
2.92655
3.15122
3.35498
2.83511
3.50652
3.49111
3.77498
3.40459
2.96156
2.77645
2.63423
2.83241
2.97115
2.94823
3.07957
3.01867
2.95348
2.832
2.93009
2.90217
3.46847
3.38167
3.46469
3.19954
3.2908
3.32269
3.17902
3.26372
3.16918
2.92426
2.9877
3.05036
2.90635
2.93478
2.82909
3.16455
3.05151
3.11323
3.08834
3.08966
2.98974
2.84976
2.85586
2.76221
2.78023
2.74198
2.77141
2.72857
2.93497
2.83424
2.75603
2.78232
2.83212
2.76867
2.75305
2.71023
2.9158
2.8105
2.74148
2.81573
2.79344
2.84262
2.80996
2.7592
2.71082
2.7113
2.69466
2.66507
2.71677
2.62688
2.57415
2.44128
2.53903
2.54205
2.49698
2.63079
2.62291
2.61074
2.43508
2.62747
2.66912
3.05055
3.01768
3.06871
2.64104
2.81902
2.685
2.76468
2.84852
2.70031
2.63101
2.63626
2.56806
2.51967
2.68421
2.3243
2.35291
2.4641
2.37988
2.32826
3.03758
2.81112
2.45368
2.58714
2.64274
2.5987
2.42121
2.8505
2.63189
2.88126
2.36181
2.4396
2.54168
2.62261
2.47169
2.4081
2.29234
2.32052
2.27929
2.7002
2.57397
2.60863
2.77016
2.88282
3.13258
2.94337
3.01937
2.95078
3.19227
2.75278
2.6177
3.37568
3.41065
3.04333
3.19811
3.37791
3.25315
3.13729
2.69155
2.91049
2.8648
2.87257
2.68932
2.9137
2.96601
2.83337
2.92776
3.00193
3.04973
2.9871
3.14914
3.0583
3.19643
2.93425
2.9078
3.40275
3.3782
3.51729
3.11811
3.2383
3.07268
3.37793
3.34548
3.26758
3.01026
3.13089
3.12423
3.15701
3.10321
3.30682
3.23895
3.3142
3.31748
3.22858
3.36787
3.43644
3.24256
3.3868
3.32222
3.47228
3.38941
2.8428
2.8535
2.87336
3.03235
2.90719
2.95475
3.0549
2.94317
3.07069
3.38551
3.1971
3.18615
3.35279
3.35027
3.42585
3.38053
3.13152
3.2612
3.08474
3.31455
3.40888
3.21604
3.51308
3.34413
3.45818
3.46134
2.32534
2.36468
2.3557
2.77267
2.50947
2.61333
2.69531
2.54317
2.83785
3.30834
3.08647
3.03505
3.02513
3.17609
2.84639
2.90796
3.55694
3.22298
3.44585
3.1114
3.12913
3.49301
3.30631
3.35798
2.97161
2.84411
3.96205
4.09541
4.1454
3.72354
3.98225
3.97225
3.69175
3.86004
3.68958
3.11542
3.44762
3.41761
2.993
3.10823
2.52067
2.74029
3.04321
2.82925
2.7435
2.50241
2.36829
2.30408
2.30279
2.36633
2.31437
2.36211
3.119
2.85427
2.99135
2.70746
2.75667
2.97969
2.51008
2.58605
2.39752
2.38513
2.3492
2.50265
2.49542
2.53746
2.45651
2.86918
2.68058
2.81156
2.52001
2.58371
2.62852
3.46803
3.39178
3.43981
3.21668
3.28823
3.38437
3.23352
3.23153
3.12669
2.97765
3.00018
2.95452
2.71477
2.83343
2.6616
3.17763
3.10102
3.16104
2.95384
3.05627
2.81263
2.48561
2.45072
2.49504
2.4906
2.66684
2.59627
2.68872
2.95901
2.92701
2.69867
2.90737
2.72753
2.72155
2.57943
2.41724
2.46197
2.36785
2.75738
2.60306
2.74793
2.49642
2.48021
2.52171
2.57368
2.72681
2.70444
2.50005
2.53296
2.80943
2.60928
2.80047
2.64913
2.87488
2.41244
2.5197
2.90224
2.67572
2.74805
2.6951
2.93846
3.74645
3.66608
3.7809
3.15462
3.39414
3.26351
3.24303
3.45243
3.18768
3.05202
3.16736
3.07186
2.69073
2.60013
2.98447
2.81947
3.02167
2.90153
3.15344
3.95652
3.7083
3.79167
3.73729
4.00412
3.44485
3.2152
3.41614
3.63025
3.38193
3.49933
3.70738
3.59669
3.80418
3.82712
3.85172
3.2428
3.57299
3.34953
2.64946
3.16818
2.87527
2.75572
3.00958
3.1883
3.40099
3.43407
3.39363
3.18729
3.60705
3.48855
3.44914
3.48449
3.27645
3.37679
3.29958
3.48393
3.49276
3.36458
3.47106
3.27599
2.92358
3.18037
3.04345
2.96731
3.08769
3.53015
3.41646
3.51023
3.48841
3.35849
3.1563
3.28266
3.3144
3.24434
3.32468
3.29502
3.45653
3.26504
2.4063
2.59261
2.49729
2.52887
2.72086
2.99458
3.1927
3.08291
2.87083
2.7197
3.33479
3.0109
3.21895
3.30219
3.27791
2.7762
3.05236
2.87154
3.68108
3.12188
3.38244
3.651
3.70652
2.49315
2.86992
2.64688
2.6717
2.87004
3.51208
3.78833
3.70723
3.59229
3.24913
3.08367
3.11537
3.41625
3.31323
3.74762
3.5314
3.25519
3.22689
4.06512
3.6063
3.79868
4.02655
3.97444
3.14031
3.26055
3.28848
3.2483
3.40889
3.75505
3.5817
3.5116
3.28758
3.07481
3.17203
3.09152
2.91641
2.96133
2.57558
2.73943
2.96907
2.998
2.58346
2.76869
2.67544
2.51095
2.48512
2.82701
2.66308
2.75362
