# vtk DataFile Version 4.2
vtk output
ASCII
DATASET POLYDATA
POINTS 642 double
-1.03902 2.13982 -0.39423
1.15553 2.18335 -0.339472
-1.40805 -1.66088 0.00436564
0.980391 -1.39978 0.149567
-0.0291649 -0.25415 1.271
-0.00414609 1.73708 1.33808
-0.138346 -0.175346 -0.00526326
-0.25052 1.87445 -1.34214
1.20679 1.50226 -0.479395
0.884032 0.824667 0.347034
-1.02264 1.41635 -0.49554
-1.01598 0.558127 0.451994
-1.37857 1.68586 0.161119
-0.614194 1.24099 1.0595
-0.578333 2.41081 0.921639
0.612272 2.4055 0.892221
0.00655043 2.7829 -0.210596
1.01195 2.04599 -0.486506
-0.933323 2.02519 -0.652473
-1.33196 1.81465 -0.914246
-1.91403 1.96941 -0.926834
-0.985367 1.0263 -0.137939
0.593029 1.2915 1.01995
1.44708 1.76158 0.119147
-0.406045 -0.109522 0.961242
-0.0473097 0.272667 1.13121
-1.10512 -0.607219 -0.0614311
-1.27826 -0.787902 0.366161
-0.213675 1.48635 -0.844365
-0.717804 0.840052 -0.2818
2.02776 1.96236 -0.838399
1.02597 1.81684 -0.549192
1.13924 -0.650447 0.417194
0.380742 -0.150881 0.922252
0.611209 -1.26137 0.956141
-0.679288 -1.17097 0.68802
0.0776266 -0.96612 0.411544
-0.6849 -0.826812 0.0668128
0.470984 -0.839933 0.164373
0.508459 0.579279 -0.156029
0.927195 -0.49296 -0.0610553
1.16894 1.25949 -0.147724
-1.30221 2.04775 -0.133262
-0.944818 2.02469 0.552931
-0.759955 2.35135 0.22255
-0.755707 0.89446 0.656975
-0.892886 1.52469 0.672834
-1.02067 1.17027 0.23394
-0.211318 2.06114 1.2413
-0.661022 1.86296 1.11444
-0.284511 1.55684 1.22422
-0.336239 2.80725 0.446603
-0.515763 2.48365 -0.263632
0.214773 2.06221 1.23839
0.0044859 2.56061 1.04412
0.608338 2.39624 -0.263789
0.331867 2.68852 0.406656
0.792055 2.23051 0.118021
-0.366155 2.69103 -0.658269
-0.959672 2.07667 -0.597005
1.05025 2.0932 -0.436191
0.49435 2.92617 -0.720861
-0.641454 1.941 -0.795683
-0.0517604 2.44147 -0.877907
0.378177 2.07507 -1.02063
-1.59813 2.2181 -1.08251
-1.54109 2.30264 -0.614138
-0.749328 1.80952 -0.734843
-1.45036 1.98254 -1.06971
-1.56902 1.53865 -0.96807
-1.80347 1.78656 -1.55954
-1.34821 1.68546 -0.892724
-1.7393 1.86333 -0.312641
-0.99953 1.2659 -0.335045
-1.62443 1.49305 -0.554156
-1.37056 1.40775 -0.15399
-0.997199 0.722221 0.118077
1.00567 2.02869 0.459597
1.40551 2.19301 -0.0861735
0.273038 1.57383 1.2359
0.632166 1.86557 1.03022
1.18381 1.2785 0.25638
0.951707 1.56838 0.574742
0.744607 0.990354 0.559839
-0.227008 0.765156 1.08262
-0.0212057 1.19471 1.19555
-0.916101 0.145102 0.85822
-0.44163 0.457488 0.95721
0.0380907 -0.0471559 1.73183
-0.233409 0.100857 1.31706
-0.204134 -0.245255 1.28293
-1.2746 -0.226254 0.118688
-1.27392 -0.163621 0.491074
-0.873278 0.509921 -0.130493
-1.1054 -0.0106303 -0.0697008
-1.33087 -1.26278 0.25437
-1.27628 -0.8173 0.0861676
-1.19779 -1.23891 0.0718048
-0.950585 1.61353 -0.647833
-0.85074 1.27668 -0.403521
-0.251715 1.59528 -1.21376
-0.743284 1.69106 -0.698305
-0.516672 0.166044 -0.108726
-0.594505 1.34113 -0.560989
-0.192117 0.871606 -0.379633
1.08104 1.96192 -0.538727
0.38175 1.83816 -0.95561
1.68093 2.54032 -0.480843
1.62937 2.2407 -0.832394
1.22296 1.68465 -0.598885
1.53032 1.9656 -0.854224
1.53927 1.6492 -0.737421
1.01174 -1.10035 0.306494
1.02975 -1.0344 0.716521
1.1437 -1.60669 0.541153
0.849558 0.206293 0.813976
0.904263 -0.491586 0.746241
1.14547 0.0309544 0.508548
0.232504 -0.733609 0.824823
0.594838 -0.733863 0.953419
0.100084 -0.229609 1.2069
0.377216 -1.49008 0.577054
0.711806 -1.6476 0.0470907
-0.182489 -0.64446 0.760215
0.0829853 -0.952626 0.62775
-0.866967 -1.42266 0.163022
-0.461244 -1.06088 0.477108
-1.19685 -1.65945 0.540373
0.390369 -1.01142 0.271132
0.763582 -1.28413 0.157432
-1.03854 -1.27071 -0.00530628
-0.487945 -0.943798 0.232483
0.154287 -0.512752 0.0962368
-0.084611 -0.732678 0.210547
-0.396963 -0.493533 0.0730885
0.697403 -0.798743 0.0480632
0.884713 -1.05922 0.168501
0.21777 0.0325291 -0.0560394
0.475235 -0.450899 0.0139827
0.775575 0.706036 -0.0724832
0.697324 -0.0830891 -0.0623164
0.755956 1.23528 -0.28635
1.06428 -0.653252 0.134233
1.25819 1.40627 -0.370587
0.918942 0.331434 0.0288569
1.14473 0.0716872 0.160195
0.96539 1.03278 0.116695
0.114821 0.101151 1.23064
0.418528 0.515389 0.953756
0.190088 0.834498 1.08372
-1.20974 -1.08347 0.700685
-0.61797 -0.698216 0.69091
-1.02327 -0.551735 0.699158
-0.724559 -0.407144 -0.0270939
-0.953933 -0.834172 -0.0619438
-0.845386 -0.0626071 -0.0841901
0.735098 1.53653 -0.48992
0.204231 1.20749 -0.522045
0.294985 1.63314 -0.865014
1.52666 1.47866 -0.0593847
1.73123 1.54346 -0.473175
1.98817 1.97783 -0.194937
-1.16503 2.11716 -0.30126
-1.00109 2.12635 0.0209136
-0.886972 2.21193 -0.171983
-1.17888 1.85371 0.340488
-1.13801 2.0476 0.211503
-1.42662 1.94589 0.0719873
-0.69585 2.43561 0.590452
-0.896009 2.2367 0.420974
-0.774531 2.23343 0.758454
-0.910386 0.672783 0.523347
-0.878378 1.02344 0.461153
-0.949256 0.80816 0.342938
-0.777869 1.39339 0.916655
-0.848476 1.22391 0.691152
-0.653089 1.09788 0.835515
-1.25 1.42598 0.211222
-0.977697 1.35035 0.416939
-1.12907 1.60719 0.410041
-0.0814209 1.87232 1.33929
-0.255732 1.82102 1.27142
-0.121367 1.67716 1.33773
-0.625158 2.15055 1.04398
-0.436256 1.99571 1.21156
-0.384032 2.25262 1.13434
-0.473833 1.40254 1.20947
-0.460192 1.7102 1.2105
-0.654291 1.55945 1.10878
-1.00052 1.78906 0.664629
-0.847619 1.68673 0.942844
-0.87516 1.99759 0.907947
-0.641518 2.43776 -0.0145181
-0.789001 2.26047 -0.334194
-0.457403 2.60366 0.70912
-0.631765 2.63614 0.358739
-0.309018 2.69003 -0.239618
-0.456506 2.68187 0.0516379
-0.159642 2.81589 0.0991179
0.0760241 1.87362 1.33933
-0.00148937 2.07663 1.23436
0.326508 2.55381 1.02875
0.135949 2.32518 1.21218
0.426679 2.27559 1.17845
-0.134484 2.32031 1.2121
-0.314574 2.54907 1.04046
0.953652 2.19602 -0.330955
0.703184 2.3145 -0.0684563
1.0528 2.16774 -0.224969
0.161689 2.70871 0.107633
0.470259 2.57813 0.0462684
0.314028 2.59056 -0.220106
0.7362 2.40738 0.528731
0.612812 2.53252 0.301931
0.492059 2.60937 0.677868
-0.151965 2.68958 0.766157
0.171173 2.6901 0.756429
0.0197413 2.81667 0.460056
-0.67908 2.32153 -0.505561
-1.00712 2.11741 -0.510601
-0.173333 2.6893 -0.463238
-0.414804 2.56578 -0.503287
-0.947059 2.05014 -0.630663
-0.572316 2.41468 -0.636556
-0.516883 2.40175 -0.690142
1.09988 2.13915 -0.397922
0.808075 2.25367 -0.437375
0.561633 2.41593 -0.636613
0.570935 2.41113 -0.585794
1.03609 2.07569 -0.458293
0.499779 2.52136 -0.475917
0.169843 2.68821 -0.451102
-0.328041 1.88872 -1.06594
-0.117467 2.0914 -1.09807
0.0485339 2.04612 -1.27289
-0.41718 2.33415 -0.800072
-0.327411 2.23049 -0.949645
-0.883716 1.98336 -0.686436
0.63939 2.09043 -0.666164
0.213144 2.30178 -1.02803
0.400511 2.3429 -0.760883
-0.0149411 2.68118 -0.65009
0.147766 2.56797 -0.751468
-0.209407 2.60542 -0.843898
-1.30478 2.28057 -0.710506
-1.2423 2.1815 -0.48539
-1.33547 2.15084 -0.953408
-1.32658 2.25668 -0.935043
-1.87662 2.2874 -0.759293
-1.59549 2.31217 -0.899186
-1.90846 2.32034 -1.08572
-0.367237 1.80332 -1.00614
-0.719056 1.85612 -0.754676
-1.45888 1.94263 -1.07444
-1.11577 1.86419 -0.76574
-1.13076 1.8303 -0.766747
-1.06378 1.90703 -0.747422
-1.26089 2.03324 -0.888474
-1.32923 1.5467 -0.761521
-1.43686 1.58268 -1.04411
-1.28329 1.58014 -0.755583
-1.91377 1.93303 -1.21283
-1.66909 1.7864 -1.14304
-1.84535 1.67746 -1.03832
-1.36737 1.77181 -0.933693
-1.55773 1.80826 -1.13635
-1.52577 1.87996 -1.16073
-1.51953 2.10352 -1.15503
-1.52487 2.01584 -1.31089
-1.74029 2.14439 -1.30712
-1.43533 2.22387 -0.329615
-1.9995 1.95097 -0.584449
-1.76997 2.19752 -0.408935
-1.56579 2.01509 -0.197648
-1.60099 1.77945 -0.0661694
-1.00609 1.3682 -0.435285
-1.37347 1.52456 -0.692999
-1.30644 1.40685 -0.381712
-1.35596 1.47533 -0.528831
-0.992315 1.16191 -0.246824
-1.63474 1.53849 -0.783474
-1.8993 1.64857 -0.747061
-1.00113 0.990271 0.131872
-1.02257 0.583278 0.314482
-1.44653 1.51838 -0.00990027
-1.22482 1.29143 0.0418478
-0.976715 0.886548 -0.0210423
-1.0908 1.13459 -0.0391591
-1.21542 1.28299 -0.218718
-1.75393 1.65889 -0.455822
-1.52334 1.47515 -0.353934
-1.63283 1.59604 -0.224022
1.13111 2.11921 -0.0716584
1.28218 2.25726 -0.268229
0.767447 2.1956 0.678645
0.890261 2.13208 0.293095
1.47202 1.99278 0.058918
1.21487 2.01898 0.085319
1.29259 1.90378 0.280831
0.110657 1.68139 1.3377
0.255407 1.82593 1.27236
0.623837 1.59408 1.04189
0.461058 1.72546 1.20211
0.463313 1.43505 1.19961
0.454459 1.99462 1.207
0.640961 2.13345 0.995545
0.947849 1.05704 0.277686
0.936891 1.161 0.372732
0.845575 0.853508 0.407382
1.20856 1.66197 0.321358
1.13717 1.40773 0.398616
1.37232 1.50931 0.224223
0.6587 1.15612 0.787625
0.837184 1.31601 0.559502
0.76485 1.44626 0.837845
0.769465 1.96622 0.758866
0.766087 1.71752 0.807328
1.03734 1.81768 0.572046
-0.142536 1.39526 1.22169
-0.00741682 1.5549 1.33722
-0.392347 1.0683 1.05283
-0.295706 1.21731 1.20942
-0.0425281 0.659621 1.08378
-0.145975 0.955807 1.20707
-0.117365 0.415757 1.05715
-1.05114 0.399757 0.654925
-0.83409 0.525822 0.744222
-0.396306 0.116592 0.994976
-0.663449 0.313164 0.954443
-0.646357 -0.0137712 0.871695
-0.639584 0.714686 0.846205
-0.50766 0.899227 0.953948
-0.0117874 -0.283978 1.45433
-0.260907 -0.268863 1.64603
-0.105253 -0.252651 1.30565
-0.140064 0.136429 1.29245
-0.177953 0.0310295 1.48241
-0.0461237 0.0729665 1.3951
-0.260364 -0.172947 1.14962
-0.254297 -0.0838915 1.37226
-0.260637 -0.00617544 1.18377
-0.310647 0.60403 1.00537
-0.255395 0.221384 1.08052
-0.1835 0.312229 1.0904
-1.27078 0.26661 0.306409
-1.24547 0.324616 0.541336
-1.06042 0.42678 0.0282203
-1.17801 0.289574 0.129582
-1.30318 -0.506329 0.435978
-1.27308 -0.227058 0.288796
-1.40188 -0.569928 0.24339
-0.894319 1.14692 -0.325635
-0.899532 0.878782 -0.184145
-1.15825 -0.400873 -0.0903476
-1.00296 0.233399 -0.100708
-1.06928 -0.211477 -0.181543
-0.934934 0.715111 -0.108349
-0.986965 0.548852 -0.0337814
-1.39687 -1.47742 0.149792
-1.2978 -1.26961 0.126931
-1.49733 -1.42353 -0.13268
-1.27752 -0.821762 0.203028
-1.23827 -1.04606 0.198907
-1.27369 -1.02954 0.312809
-1.11268 -0.965325 0.069976
-1.17776 -1.02824 0.140775
-1.23077 -0.767952 -0.0503501
-1.27293 -0.16727 -0.0216173
-1.26006 -0.512482 -0.0231151
[...]
POINT_DATA 642
SCALARS Mean_Curvature double 1
LOOKUP_TABLE default
-0.714678
-0.279195
10.3948
8.03264
-2.06384
-0.0335804
-0.0406041
8.00598
-1.41622
-0.864746
-0.979896
0.263656
1.78499
3.37759
2.57964
2.74534
2.9038
0.270214
0.157613
-0.95234
0.138481
-0.297054
2.47843
-1.58716
-1.0338
-1.07588
-1.29832
-0.982782
-0.0127396
-0.00926604
4.9266
0.0877643
2.9968
-0.851497
4.32497
2.34731
0.346754
-0.243307
-0.949197
-0.47366
1.01222
-1.46101
-1.10291
-0.59853
-0.790972
-1.14022
-1.37053
-0.747436
0.750621
1.97624
-1.4475
2.94795
-0.964964
0.132105
1.9451
-0.452045
0.977668
-1.41056
7.78987
0.221629
0.254397
5.89595
-0.284411
-0.624607
3.64085
1.29787
1.9149
-0.221052
0.64781
4.82526
6.52184
-1.05658
1.69711
0.152358
4.90324
0.533522
-0.524306
2.18879
2.32703
-0.771897
1.2173
3.31751
-0.345705
-1.06377
-0.133112
0.647236
3.12346
-1.13479
7.5618
9.42593
8.41404
-1.39941
3.40722
-0.265119
-0.141407
1.3541
4.02199
-0.993713
0.00221265
0.00026419
5.73676
-0.0249335
-0.441182
0.242644
0.0714688
0.0631749
1.26019
7.03451
1.52682
-0.763358
3.50871
3.11843
1.24698
1.21035
5.66248
4.03906
1.15394
4.40012
-0.360869
3.3306
3.17097
5.70139
6.59912
-0.624624
-0.23485
1.98827
-0.758583
4.54874
-0.557451
-1.12073
1.98594
-0.0721441
0.0237515
-0.75335
-0.279948
-0.0958526
-2.48036
-0.385806
-0.627561
-0.492275
0.896581
-0.234229
-3.56793
-0.159781
-0.23661
8.04595
-0.758558
4.19857
0.878803
0.924686
3.78255
-0.701751
2.12423
-0.739673
3.31612
-0.708424
-0.175984
0.221736
0.0318388
0.711116
2.3654
4.34896
-1.20114
-1.42219
-0.466943
1.43306
1.83363
4.15378
0.89321
1.85721
0.794236
-0.371666
-1.13564
-0.741112
1.57248
1.58754
-1.75919
2.31283
-1.38563
0.937153
4.34993
0.134865
3.86589
1.64309
2.34585
0.893451
3.21735
1.37189
1.77087
2.10586
2.29121
3.53074
-0.312026
-0.736806
0.983396
3.30374
1.39206
1.52953
2.26276
4.30513
-1.66761
3.32031
2.46771
3.49279
2.90705
3.8322
-0.490898
-0.934117
-0.656166
-0.153305
1.31389
-1.00938
2.54852
1.95283
2.37468
1.01143
1.33433
2.48953
-0.803052
-0.194157
0.104366
-1.00717
0.31606
7.54835
0.155944
0.551449
-0.642897
5.292
0.0641102
0.646465
0.83143
0.122222
1.09212
-0.76224
3.14079
-0.764164
2.66148
-0.0376201
-0.413456
3.77157
-0.469614
3.41239
0.626004
5.28136
3.45055
-1.22028
0.690185
8.96065
4.26829
2.56873
6.1939
0.43457
-0.155883
0.0904363
-0.0524805
-0.251068
0.290531
-0.972307
7.56528
10.7894
1.49888
4.93503
-0.224489
5.44303
-0.778853
3.19861
1.731
2.68378
8.48244
6.18638
4.25493
4.52869
4.1917
1.37785
3.49678
-0.0852731
1.26133
0.235009
-0.594363
0.0948269
0.950514
4.38827
-0.823454
-0.953992
2.55828
1.71345
-0.596932
-0.589895
2.24174
1.41502
2.08303
3.38868
-0.878326
3.2694
0.516686
-1.4667
0.813846
-1.51416
4.41638
3.69529
0.502856
1.13866
2.3912
3.87159
2.91246
1.96694
-0.871467
-0.638551
-0.8651
-1.52029
2.51716
3.35298
-0.225115
-1.59556
1.97048
-0.722905
-0.49586
3.10038
-1.51216
5.60916
-2.32187
2.92903
-1.28698
7.32695
-1.67116
1.79697
0.291569
-1.20558
2.78902
-0.346142
0.529119
0.860725
6.27202
7.92251
-0.271401
1.71082
5.86356
1.91662
0.572485
3.91442
-1.44405
-1.87183
-1.02097
1.69604
3.899
5.13225
-0.744258
3.30106
1.46041
-0.677549
5.80519
-0.322461
-0.570199
0.603211
-0.645868
12.2921
-0.227392
-0.472348
0.824339
2.99733
8.84092
-0.795406
1.85224
1.15247
-1.51031
-2.12438
11.4005
10.9226
0.283501
4.89783
-0.0784855
-0.205109
-0.370876
-0.386885
0.136669
-0.149126
0.0311075
5.24351
-0.254135
0.107405
-0.0519863
1.64644
-0.147557
0.105673
-0.0826391
-0.0811055
-0.186432
0.285589
0.185002
-0.310901
0.0530758
0.289678
-0.0947382
0.00949148
0.0689558
0.0707007
0.264605
6.25458
0.157773
-0.382217
-0.330542
-0.373783
0.00732939
1.77218
4.74955
5.97876
0.965874
4.28215
3.29902
5.58909
3.8051
4.72843
8.14726
1.33281
1.16587
-0.368972
2.42229
1.12353
6.27237
-1.49045
7.03312
-1.34465
-1.04306
4.01048
8.57691
5.48325
-2.29773
-0.0656213
5.25042
-0.298487
4.61445
2.53794
1.72536
4.61406
-1.2745
-1.21688
-0.284973
0.57248
3.24631
-0.896468
0.0521093
-0.467654
3.42555
0.611458
-0.0414981
5.25981
-0.573908
-0.437106
-0.818174
3.22154
2.42281
4.30571
3.65676
-0.13222
1.63241
2.98392
-0.563392
4.63415
-0.446698
-0.176183
-0.285424
-0.109182
-0.645112
-0.461141
-0.539354
2.25306
5.98017
3.94144
4.49059
-0.0894761
2.10523
-0.903706
6.43827
1.90928
6.69975
-0.384687
0.0576655
0.243346
10.4635
2.88745
-0.343217
5.02485
-1.3624
0.877439
2.96173
1.00367
8.73703
0.664182
-2.42549
3.62714
3.54714
0.129407
-0.0974657
-0.398434
-0.216401
-0.184738
0.0857393
-0.346099
-0.653812
-0.110474
-0.376164
-0.400816
0.106854
-0.0405318
-1.27412
-1.55673
-1.12193
-1.07224
-1.75146
8.12333
7.24109
0.0853598
-0.000623321
1.15842
0.168174
-0.42866
-0.255549
-0.720373
-0.644911
-0.304722
-0.518194
0.216871
0.0911253
2.55345
-0.11459
-0.560853
-0.517415
-0.982703
2.49973
2.92043
4.64298
9.34068
7.39296
-1.9363
6.10486
2.65413
-0.52925
-0.541826
-0.46341
5.73555
-0.775954
5.86852
-0.658582
-0.841147
0.215237
0.639203
-0.88741
-0.540151
-0.311707
7.27142
1.38113
0.874425
8.20099
-1.12992
0.970147
7.37491
1.9369
-0.448563
0.374091
-1.46771
-0.70315
-0.874644
-1.73044
-1.40038
-3.14854
4.35975
-0.553323
-1.36689
3.6216
-1.43692
6.52834
2.93743
3.13615
-1.49074
2.20197
-0.199327
-0.613182
-0.429883
-0.290583
-0.605545
1.94222
4.76383
1.02371
-0.827349
-1.25507
4.01556
-0.72692
1.6763
-0.219023
-1.13835
-0.633654
2.10699
-0.622118
6.83755
4.90316
-1.66142
-2.01771
7.27815
-0.198879
-0.563326
-0.271474
-0.941154
-2.18559
4.40188
-1.33083
2.18191
-0.359538
-0.0489744
-0.207281
-0.164693
-0.223134
0.518124
-0.0202126
0.173002
-0.206094
0.171594
5.50142
-0.343833
0.16104
4.22496
0.0563215
0.168339
-0.0412381
-0.138037
-0.7924
0.751836
4.02704
3.77949
3.11638
0.144842
-0.0852048
6.48881
7.57024
1.19649
0.824348
3.97772
4.36678
2.65587
3.11097
2.2578
2.96333
4.00351
SCALARS CoVolArea double 1
LOOKUP_TABLE default
0.0318814
0.0191792
0.0425542
0.0104169
0.0173169
0.0174074
0.0401712
0.0540253
0.0194903
0.0238531
0.0134958
0.037216
0.077819
0.0695291
0.0859459
0.0965498
0.0982651
0.0518741
0.0415852
0.0217831
0.102973
0.0450428
0.0733884
0.0607508
0.0649065
0.0312469
0.0365865
0.0486398
0.0625462
0.0428484
0.112449
0.03032
0.0488594
0.0667802
0.0802011
0.0648611
0.0492829
0.0358419
0.0308417
0.0899085
0.0472714
0.0415276
0.0744522
0.0883896
0.0964462
0.0802434
0.0851857
0.0710951
0.0534625
0.0760499
0.0530549
0.118472
0.0846122
0.0575383
0.0936677
0.0820578
0.106963
0.0902769
0.0648855
0.0474962
0.0313095
0.119901
0.0729893
0.0876435
0.0829996
0.0545039
0.0839349
0.0218512
0.0284119
0.0514671
0.0862853
0.031472
0.0818564
0.0407824
0.0585051
0.0534275
0.0660099
0.0860253
0.0658155
0.0521065
0.07059
0.0473921
0.0837892
0.0826166
0.0600622
0.0602287
0.100292
0.0764579
0.0749001
0.0300907
0.0414932
0.0718376
0.0881074
0.0534772
0.0511897
0.0467688
0.0306341
0.0268914
0.017859
0.0274919
0.062159
0.031476
0.0895344
0.0584798
0.125159
0.0246986
0.0624689
0.0808351
0.0468801
0.0255389
0.035133
0.033402
0.0315639
0.0662652
0.112717
0.0978871
0.0618985
0.0840164
0.0487655
0.0668326
0.0337348
0.0943861
0.0764633
0.0583459
0.0406678
0.0722992
0.0582825
0.116981
0.0291553
0.0256574
0.0353802
0.0404332
0.0398526
0.039355
0.0429946
0.031337
0.0239442
0.0873285
0.0370239
0.0476013
0.0546702
0.0353489
0.0379361
0.0449633
0.0539597
0.0712069
0.0401309
0.0330162
0.0883512
0.0612438
0.067215
0.0676539
0.0741482
0.0407246
0.0264974
0.0350974
0.0477405
0.101588
0.0585242
0.0441157
0.0546158
0.108647
0.057197
0.0871904
0.0731198
0.0844674
0.0861078
0.0773637
0.0903858
0.0899899
0.0856963
0.062611
0.0770824
0.0547986
0.0744877
0.0810458
0.074298
0.0749932
0.0856984
0.0860754
0.0339902
0.0482008
0.0354694
0.0789014
0.0630608
0.073064
0.0639512
0.0610993
0.0698866
0.0888611
0.0824667
0.0890222
0.0938166
0.065627
0.100802
0.106196
0.0874784
0.105814
0.115003
0.0344041
0.0512712
0.10041
0.0765102
0.0838139
0.0727199
0.0927298
0.0441842
0.0856842
0.0521609
0.11148
0.100835
0.0968313
0.09806
0.101733
0.104483
0.105288
0.105018
0.115937
0.0626248
0.0458047
0.0725832
0.0655171
0.0303031
0.0428692
0.0544027
0.0268097
0.0466974
0.079296
0.0414289
0.0257643
0.0915404
0.10475
0.0634096
0.103079
0.0889302
0.0762132
0.105076
0.0614507
0.0703293
0.111113
0.0961085
0.086977
0.100316
0.0721089
0.0655282
0.0523694
0.0390798
0.0533784
0.107858
0.0737199
0.0935759
0.0326308
0.0303098
0.0227478
0.019635
0.0221569
0.0361137
0.0401733
0.0285086
0.0386352
0.0274439
0.0970239
0.0621428
0.0753802
0.0186358
0.0362972
0.0370526
0.0397868
0.0522526
0.0836343
0.0736338
0.11346
0.103338
0.0741469
0.069405
0.0302748
0.0460508
0.0471135
0.0507866
0.0413549
0.0622544
0.0899495
0.0570825
0.0622076
0.0639501
0.0587247
0.0521435
0.0500631
0.0470362
0.075344
0.051455
0.0607876
0.0677199
0.0430379
0.0865284
0.0887008
0.0690165
0.0733673
0.0746702
0.0345432
0.0484804
0.0694892
0.0603102
0.0642802
0.0661627
0.0802859
0.0306227
0.0608491
0.0493909
0.0758753
0.0703478
0.0553013
0.0844464
0.0833386
0.07959
0.080296
0.0787485
0.0861748
0.0524138
0.0379655
0.0690125
0.0633312
0.0533468
0.0622095
0.0417361
0.079524
0.0891973
0.0668589
0.0934285
0.0879618
0.0848413
0.07355
0.0453575
0.0715844
0.0351525
0.0270688
0.0492275
0.0368904
0.0459494
0.041154
0.0421611
0.0613084
0.0469407
0.0357718
0.0963774
0.0858364
0.0607184
0.0796209
0.0627342
0.0811575
0.058466
0.0254959
0.0377421
0.0403089
0.0461393
0.0605988
0.0363204
0.0496356
0.0561949
0.0366679
0.0556692
0.0360901
0.0256912
0.0378378
0.0297832
0.0252341
0.0365136
0.0635164
0.0430079
0.0454822
0.0303889
0.0238807
0.013746
0.0185011
0.0292082
0.0245831
0.0288039
0.0678411
0.0330252
0.0453433
0.0345303
0.05335
0.0254534
0.0204055
0.0785718
0.123568
0.11008
0.0516422
0.0895659
0.0674275
0.082374
0.0928878
0.0611365
0.0204507
0.0396576
0.030879
0.0621976
0.0960717
0.0305112
0.0379538
0.0391219
0.033174
0.0305274
0.0431587
0.0512283
0.113595
0.0689747
0.110155
0.0361196
0.0318741
0.0260024
0.0270004
0.020341
0.0292332
0.0269474
0.023844
0.054038
0.0359044
0.0812147
0.0320688
0.0541851
0.0303686
0.026422
0.062554
0.0562642
0.0563761
0.0481423
0.0392387
0.110006
0.0823416
0.0852672
0.0656103
0.0845868
0.0593965
0.0722085
0.0781017
0.0881043
0.0627672
0.0662027
0.05626
0.0369355
0.0413333
0.0251823
0.0674401
0.0549062
0.0554484
0.0470472
0.0525027
0.0643702
0.0647016
0.0679981
0.0706639
0.0894932
0.0341065
0.093075
0.113021
0.0714519
0.110712
0.0674848
0.0397745
0.0525818
0.0373737
0.0515296
0.054518
0.0503442
0.0570462
0.0634683
0.0955831
0.074137
0.0434388
0.0740882
0.055188
0.107239
0.0983024
0.0584188
0.063668
0.0434859
0.0505667
0.0412796
0.0170413
0.0457467
0.0443755
0.0284674
0.0272975
0.0331469
0.0495081
0.0539204
0.0361826
0.0386901
0.0338851
0.0505644
0.0508641
0.0425625
0.045139
0.0443715
0.0355303
0.0402821
0.0323525
0.0354604
0.0417851
0.0371903
0.0371746
0.0371414
0.0342686
0.0205101
0.0140554
0.0264968
0.0248043
0.0346839
0.0307694
0.03893
0.0732691
0.0491564
0.0625039
0.0514433
0.0936725
0.0346899
0.0291318
0.0361557
0.0388424
0.0309381
0.0497022
0.0535062
0.0571636
0.0570499
0.0489399
0.06578
0.0318912
0.0481054
0.0419551
0.0217993
0.0448404
0.0274497
0.0285827
0.0389345
0.032528
0.049547
0.0498343
0.048669
0.0422186
0.0482522
0.0587347
0.0633441
0.0353104
0.055775
0.0820393
0.0405858
0.0558451
0.0495385
0.0600017
0.0638827
0.0543328
0.0398126
0.049852
0.0334835
0.0397984
0.0263504
0.0896403
0.0824391
0.0948815
0.0995206
0.0775617
0.0523035
0.0412473
0.0623082
0.0614223
0.0697126
0.0585769
0.0706702
0.0409731
0.0899294
0.0863495
0.10173
0.0637401
0.0522791
0.0439064
0.073682
0.0551663
0.0585352
0.0624962
0.0950794
0.0588785
0.0717115
0.088711
0.0848063
0.0665018
0.0756919
0.0640226
0.0561692
0.0346095
0.0407749
0.0561336
0.0495207
0.0312368
0.0283801
0.020636
0.0257343
0.0330962
0.0310694
0.037823
0.0280879
0.0520864
0.0464114
0.0331073
0.0338594
0.0390434
0.0291471
0.0765591
0.0391832
0.0266986
0.0328026
0.124023
0.0770324
0.107182
0.118773
0.113852
0.0960267
0.0457224
0.0564195
0.0686366
0.063577
0.0855261
0.074084
0.0593758
0.0376194
0.0424769
0.0414941
0.0434687
0.0527858
0.0337776
0.0665622
0.0464948
0.0437583
0.0424631
0.0720832
0.0852613
0.0959316
0.101067
0.0956939
0.0535242
0.0797039
0.0768681
SCALARS SignedDistance double 1
LOOKUP_TABLE default
1.1302
0.774439
0.0273152
-0.0315275
0.0657633
-0.000488458
1.24346
0.113831
0.296349
1.21179
1.1038
-0.0372272
-0.00428254
-0.00694412
-0.0291648
-0.00923938
0.0334816
1.22666
1.23664
1.10249
0.00282239
1.28769
0.0523654
0.622306
1.19443
0.103328
0.022413
0.00876063
1.06386
1.314
0.0469311
1.16859
0.0151551
1.21643
0.0178702
0.0533405
1.29597
0.178052
0.542794
1.15863
0.0168174
0.444159
0.000116367
-0.0298385
0.0378897
1.14387
0.0274908
1.14605
-0.045035
0.0122557
0.00228018
0.0164637
0.989131
-0.0484092
-0.00819951
1.13235
-0.0124746
0.337544
-1
1.21862
1.17761
-0.262749
1.25855
-0.012649
-0.0204598
-1.00134
-0.0218651
1.32151
-0.00153633
0.0734335
0.214974
0.972682
0.158668
0.902899
-0.538668
0.106899
1.22215
-0.0122661
0.117091
0.0108315
0.00695552
0.142236
0.00367818
1.15383
-0.00328361
0.0105633
-0.000358456
0.0500474
0.0620949
0.0842134
0.0369736
-0.0191771
-0.00271701
1.19502
0.173695
0.217188
0.031593
0.70399
1.22655
1.1761
0.0711433
1.30978
0.908209
1.18874
1.12107
1.16692
0.154111
0.0109864
-1.01095
0.373599
0.16445
0.0343317
-0.0365553
-0.0152437
0.0151159
-0.0159897
0.135336
-0.0126693
1.22461
-0.0199727
0.0817696
0.167901
-0.169584
1.48859
1.2936
0.0840264
1.12923
0.0033483
0.395501
0.383964
0.22568
0.584913
1.32016
1.48565
1.26897
0.0286968
0.27065
0.901061
0.505979
1.24573
0.0446903
1.03317
0.0119932
0.059825
0.194933
0.00622517
1.28255
0.069777
-0.019809
0.00450804
0.0223443
0.718525
0.000710475
0.437714
0.0312664
0.447644
1.20853
1.14783
0.766961
-0.0923734
0.0299386
0.0581025
0.641377
1.10369
0.356892
0.00652024
-0.0113115
0.0533703
-0.0167263
0.0309768
-0.000445672
0.0557755
1.1892
1.14673
0.00886511
0.00125485
0.214147
-0.0291677
1.05717
-0.00307041
0.0196633
-0.00671358
-0.0064117
0.0337595
0.0176947
-0.00994845
-0.0137298
0.00142469
0.0219615
-0.0153276
-0.0304478
-0.0190706
0.0961759
1.15324
-0.018065
0.0186101
0.0102586
-0.0203773
-0.00846688
0.0204131
-0.0430032
0.00500191
0.0303912
-0.124553
0.0291032
-0.0111969
1.28005
0.686265
1.20828
-5.06408e-05
0.0448594
0.0183231
-0.0142229
-0.00184737
-0.0232466
0.0110693
0.00785495
0.00434476
1.18438
1.17284
0.00312877
0.589505
1.23213
0.342641
0.798199
0.931749
1.28278
0.220561
0.688185
1.1983
0.208002
-0.00426531
0.123261
0.00469436
-0.05658
0.734484
-0.0191776
1.26244
1.19159
0.00961696
0.296592
-0.0228574
-0.0272482
0.127087
0.048029
0.107536
0.0305762
-0.0347947
-0.0121613
0.0777879
-0.0700016
0.429432
1.31622
-0.0146234
1.13255
1.14961
1.17364
0.787541
0.0388062
0.031307
0.112126
0.0105676
0.14744
0.0416907
0.670578
0.112991
0.170197
0.261288
0.204996
-1.02552
0.167961
0.076539
0.0693176
0.0116922
0.0396713
0.953682
0.110019
0.137921
0.811765
1.18248
0.0650686
-0.220385
1.27785
0.125531
0.0406942
0.0303157
1.33943
1.2035
0.0886286
-1.01385
-0.119416
0.0185939
1.13634
0.108747
0.0649243
0.0833772
0.0240869
0.582045
0.0057096
-0.00674591
-0.00414667
-0.000204849
-0.00113337
-0.0136451
0.010525
-0.0380912
1.25899
1.16864
1.20094
0.0321631
-0.083729
-0.459002
0.147018
0.17769
0.03064
0.0226467
0.0396013
0.00477888
0.00359775
-0.0147738
0.407894
-0.00520433
0.0230803
0.0111179
0.702855
0.038541
0.0309298
1.03191
-0.00423868
0.0832076
0.0645208
-0.0216557
0.198128
0.153286
0.0358186
0.147856
-0.0744907
-0.891719
0.145768
0.0433351
0.153656
0.357331
0.165394
0.0274937
-0.0532286
-0.0925044
0.979379
0.0970564
0.0574813
-0.0217967
0.00283995
1.22322
1.36209
-0.0426595
0.788304
0.0581393
1.32443
1.20114
-1
0.206527
0.117505
0.00295938
-0.0798368
-0.00918058
0.0112037
0.0335207
0.0110781
0.0036948
0.00261344
0.0290808
1.11278
0.98029
1.11789
0.969842
1.21266
1.19609
1.16226
0.112671
1.0823
1.23467
1.1781
0.158363
1.31885
1.18866
1.15246
1.19639
0.944256
1.07205
1.21012
1.20336
1.22798
1.08063
1.27302
1.25548
1.28602
1.24174
0.109182
0.0545303
1.19604
1.20881
1.23104
1.22245
1.09025
0.0366588
0.0785039
-0.0285766
-1.04301
0.111995
-0.0318351
-0.045288
0.053559
0.0263954
-0.0184247
0.106797
0.064177
0.689606
-0.299692
-0.173999
0.0614248
0.796307
0.171041
0.925767
0.0316612
0.0901715
-0.0614833
0.0106429
0.00412157
-0.0350037
0.00334714
-0.00623069
-0.193151
0.0589482
-0.00859843
0.109683
1.13274
0.0598173
0.046796
-0.171587
0.00362443
0.0876319
1.31635
1.37357
0.0101352
-0.00401898
0.362464
0.0792955
1.19516
1.33539
1.20827
-0.0337618
0.145694
0.00351616
-0.00450415
-1
-1.0565
-0.0136895
0.3193
0.0221305
1.14873
1.27885
1.41201
1.2761
1.44158
1.22168
1.23399
0.27522
-0.199154
-0.0899542
0.0348455
1.36945
0.0166134
1.08662
0.0236364
-1.00623
0.168844
1.15688
1.31475
1.20575
0.121491
0.330896
1.14841
0.140204
0.318641
0.290753
0.00355149
-0.930403
-0.122932
0.209271
-0.0538684
-0.0950107
-0.0173399
1.30733
1.36786
1.4517
1.30371
1.22258
1.40398
1.19512
1.14715
1.34309
1.17981
1.43228
1.30974
1.28996
0.909966
0.41897
0.766284
0.1864
-0.00716334
-0.0105247
0.0127449
1.18994
1.23376
0.0935672
0.622501
0.738671
1.07677
0.815989
1.14803
1.22132
1.15866
0.00928675
0.199938
0.0148399
1.16656
1.20005
0.415054
0.349583
0.0164492
0.0207037
-0.16802
-0.0180001
-0.00737317
0.014227
0.0143242
0.0642379
1.19404
1.29548
1.26832
-0.0437204
1.10765
0.0171234
0.430368
1.27454
-0.0259168
-0.0123701
1.22407
1.18611
1.25665
-0.00162392
0.0531163
0.00645721
0.0555582
1.12588
0.0682581
-0.318021
-0.0245514
0.0558384
-0.00960782
0.848085
0.0100373
0.35635
0.0104812
0.904854
0.0738907
-0.0270658
0.0255431
0.948265
-0.0114001
0.150862
0.0287645
-0.0597532
0.000590887
-0.000281259
-0.0168776
1.27529
1.25074
1.29637
1.28059
0.0811214
0.00563284
-0.0382338
0.0302263
0.0404411
0.768198
0.0328866
0.0360609
0.000365368
1.09683
0.587448
1.13796
0.10682
0.622199
0.193898
0.0247828
0.410985
0.158089
0.00767892
1.32435
1.15842
1.31571
1.12858
0.274686
0.00472226
0.0398996
0.0640221
1.01791
0.946777
1.16692
1.16043
1.24139
0.443617
1.21229
0.96394
1.13385
0.809427
0.0211418
1.26016
0.659476
0.12751
0.435179
1.14718
1.17491
1.22065
1.17335
-0.0494631
0.0876281
-0.151928
0.0900328
-0.0302056
0.075763
0.0434782
0.0591318
0.0657779
0.0219208
0.0615054
0.0569415
-0.0566655
-0.110923
-0.0262444
0.00133673
0.0227979
