# vtk DataFile Version 4.2
vtk output
ASCII
DATASET POLYDATA
POINTS 642 double
-1.39969 2.87817 -0.271812
1.47203 2.9463 -0.222907
-1.53306 -1.7529 0.0128538
1.3933 -1.70321 0.0294253
-0.00410987 -0.748896 2.00375
-0.00371685 1.9905 1.83575
-0.0912515 -0.798878 -1.46918
-0.174088 2.10864 -2.04426
2.07339 1.05735 -1.24685
1.8476 0.729032 0.950721
-2.15343 0.925751 -1.43401
-1.84635 0.592119 1.00954
-1.94132 1.93498 0.454253
-1.00517 1.44095 1.72338
-0.665105 2.68254 1.13778
0.689055 2.69396 1.13143
-0.0146237 3.26702 -0.14563
1.00774 2.88226 -1.35833
-0.997617 2.88682 -1.42283
-1.46746 1.63279 -2.18014
-2.17348 2.09446 -1.00214
-2.36419 0.800368 -0.197533
0.992076 1.47872 1.69451
2.00538 1.97886 0.480308
-1.02942 -0.282941 1.83141
-0.0277921 0.484802 2.23101
-2.0236 -0.902843 -0.628919
-1.98442 -0.951349 0.594016
-0.215999 0.988437 -2.16736
-1.34117 0.149942 -1.70458
2.20193 2.12428 -0.933422
1.43766 1.72653 -1.91251
1.81263 -0.888556 0.604653
0.987398 -0.297456 1.77619
0.79937 -1.59078 1.24534
-0.86325 -1.61514 1.24555
-0.00310033 -2.0657 0.0404998
-0.921137 -1.54466 -1.0909
0.818269 -1.51707 -1.00916
1.1546 0.0488499 -1.49947
1.7677 -0.83804 -0.518354
2.33186 0.927181 -0.141137
-1.74821 2.47975 0.0986094
-1.32611 2.37968 0.889372
-1.04696 2.86099 0.467309
-1.47742 1.04612 1.41268
-1.47712 1.74517 1.21022
-1.95013 1.32814 0.757254
-0.298692 2.36852 1.59157
-0.882653 2.13352 1.50052
-0.476225 1.77724 1.8588
-0.377406 3.07865 0.580352
-0.762352 3.16748 -0.199526
0.301165 2.37002 1.58912
0.0018758 2.78618 1.2168
0.861149 3.16753 -0.183666
0.395599 3.08289 0.583774
1.1536 2.87966 0.413343
-0.492878 3.23288 -0.78514
-1.26541 2.98468 -0.823483
1.32631 3.04353 -0.76038
0.498501 3.21524 -0.769839
-0.649256 2.53173 -1.8449
-0.0405135 2.98852 -1.36813
0.557093 2.5385 -1.75418
-1.69508 2.63231 -1.28933
-1.83891 2.60671 -0.625913
-0.933686 1.92716 -2.19756
-1.30378 2.35888 -1.93079
-2.26633 1.46043 -1.31114
-1.95644 1.92795 -1.69693
-1.94359 1.26839 -1.84697
-2.17809 2.06927 -0.238054
-2.34499 0.863087 -0.864745
-2.39722 1.47789 -0.594621
-2.27874 1.43033 0.10621
-2.17076 0.689649 0.432524
1.41115 2.40485 0.834448
1.79658 2.56237 0.125284
0.467502 1.78836 1.85025
0.894375 2.14895 1.4909
2.00519 1.38514 0.723623
1.53899 1.77355 1.14299
1.50768 1.09095 1.34401
-0.489385 0.92992 2.0703
-0.0079653 1.34201 2.05874
-1.49177 0.0794201 1.44522
-0.985845 0.520781 1.88282
-0.0260976 -0.142323 2.20506
-0.502609 0.136645 2.16916
-0.526805 -0.54077 2.0206
-2.16504 -0.40262 0.240869
-1.93359 -0.305442 0.840582
-2.04909 0.0475675 -1.02206
-2.18933 -0.29152 -0.39149
-1.90211 -1.42755 0.328953
-2.14518 -1.00279 -0.0307344
-1.92868 -1.41891 -0.333537
-1.471 0.979609 -2.10434
-1.82703 0.580367 -1.68616
-0.228947 1.56613 -2.20144
-0.993345 1.33749 -2.26487
-0.788833 -0.45216 -1.57854
-0.948186 0.680885 -2.07927
-0.138664 0.250509 -1.90019
1.30306 2.35764 -1.8071
0.848441 1.98025 -1.99739
1.88621 2.65955 -0.556911
1.71609 2.64944 -1.23601
1.85676 1.39107 -1.62585
1.91612 1.96366 -1.57414
2.22269 1.54991 -1.17378
1.72272 -1.36365 0.344201
1.42432 -1.29492 0.968672
1.17806 -1.73809 0.603791
1.4594 0.11161 1.40348
1.49275 -0.674613 1.24081
1.83281 -0.157101 0.862467
0.392137 -1.25387 1.68901
0.963219 -1.04238 1.55472
0.484208 -0.574545 1.98179
0.451354 -1.9573 0.699958
0.820308 -1.96493 0.0167581
-0.404703 -1.23388 1.67454
0.00691616 -1.70183 1.30837
-0.900999 -1.98282 0.0213192
-0.490421 -1.97431 0.694726
-1.27769 -1.77398 0.595218
0.48272 -1.90818 -0.544113
1.16114 -1.72268 -0.500987
-1.29473 -1.7538 -0.536532
-0.528118 -1.92108 -0.574057
0.398488 -1.17342 -1.32899
-0.0391257 -1.60726 -1.07615
-0.534028 -1.17265 -1.36475
1.40198 -1.25392 -0.81898
1.6918 -1.34932 -0.259767
0.58106 -0.517819 -1.49054
0.976802 -0.977039 -1.22421
1.92533 0.263175 -0.913204
1.48368 -0.529648 -1.04125
1.71793 0.698848 -1.45465
1.89232 -0.937339 0.0502189
2.2874 1.00116 -0.757357
2.07169 -0.00970005 -0.308107
2.03289 -0.179063 0.272428
2.16577 0.860409 0.434427
0.441869 0.136179 2.14883
0.966387 0.547921 1.82606
0.440885 0.966932 2.05655
-1.55622 -1.32867 0.978803
-1.04565 -1.06208 1.54976
-1.59133 -0.746212 1.21382
-1.16006 -0.968495 -1.34831
-1.62863 -1.28494 -0.934129
-1.68139 -0.570902 -1.16402
1.39772 1.08823 -1.81977
0.622915 0.607954 -1.92323
0.779465 1.36895 -2.06157
2.30028 1.47767 0.162066
2.38746 1.54494 -0.549158
2.21144 2.12639 -0.210609
-1.56937 2.72216 -0.112481
-1.41523 2.67052 0.288693
-1.25553 2.88121 0.0284885
-1.66479 2.15784 0.667201
-1.56005 2.42421 0.493509
-1.86818 2.21959 0.28105
-0.857498 2.79146 0.825969
-1.19421 2.63498 0.706075
-0.99051 2.55898 1.03915
-1.69757 0.79765 1.19228
-1.71474 1.21132 1.11079
-1.89213 0.947789 0.901342
-1.23956 1.60896 1.49747
-1.48423 1.42358 1.32614
-1.24942 1.25303 1.58933
-1.9672 1.63537 0.613416
-1.73397 1.54811 0.985905
-1.72498 1.84844 0.841075
-0.124765 2.16119 1.74471
-0.39945 2.09612 1.73423
-0.199428 1.91251 1.86125
-0.779556 2.43149 1.33691
-0.591455 2.27746 1.55829
-0.476167 2.53964 1.39455
-0.745167 1.62085 1.81264
-0.687191 1.96517 1.70078
-0.960674 1.80059 1.62878
-1.42415 2.07336 1.06481
-1.18985 1.95083 1.38408
-1.10272 2.2758 1.22907
-0.901079 3.04732 0.139706
-1.1248 3.02565 -0.243459
-0.533231 2.89782 0.889751
-0.712163 2.99378 0.546302
-0.416122 3.23808 -0.171882
-0.561731 3.15204 0.1887
-0.208455 3.20449 0.220045
0.119621 2.16149 1.74453
-0.00269779 2.39648 1.60493
0.350112 2.76332 1.19469
0.164809 2.5979 1.422
0.48829 2.54487 1.38959
-0.164028 2.5959 1.42423
-0.339405 2.75799 1.19803
1.24948 3.04527 -0.21811
1.01659 3.05083 0.116938
1.37267 2.93263 0.0144756
0.209431 3.20688 0.231016
0.604043 3.15298 0.198748
0.430152 3.23781 -0.146664
0.905073 2.8082 0.809595
0.76334 3.00324 0.53683
0.557566 2.90754 0.887535
-0.180551 2.95571 0.930089
0.190244 2.95846 0.930048
0.00328544 3.11186 0.601766
-1.01088 3.11562 -0.525486
-1.34793 2.93967 -0.513153
-0.254806 3.2791 -0.475158
-0.633098 3.23479 -0.49678
-1.14915 2.96596 -1.12388
-0.898816 3.13617 -0.821285
-0.763522 3.08929 -1.12212
1.42554 3.01038 -0.442406
1.11406 3.12031 -0.484508
0.784736 3.07572 -1.08276
0.966034 3.13223 -0.784663
1.18699 2.9966 -1.06956
0.692681 3.2247 -0.475511
0.222242 3.27879 -0.463992
-0.415785 2.29982 -1.97435
-0.08926 2.56709 -1.76918
0.190581 2.30947 -1.91352
-0.577105 2.96897 -1.41371
-0.361921 2.79249 -1.61497
-0.828593 2.73402 -1.67376
0.801428 2.72665 -1.59693
0.262495 2.78752 -1.57547
0.539201 2.95191 -1.36834
-0.0297503 3.24343 -0.771916
0.242751 3.14124 -1.08479
-0.291136 3.14919 -1.09637
-1.58279 2.82948 -0.754402
-1.60469 2.77584 -0.428465
-1.35402 2.81139 -1.38897
-1.49718 2.85348 -1.07282
-2.02823 2.37995 -0.814396
-1.79568 2.63878 -0.961148
-1.97616 2.37587 -1.15449
-0.590202 2.03963 -2.11717
-0.823447 2.24947 -2.05835
-1.41058 1.99 -2.105
-1.11762 2.14094 -2.10629
-1.19217 1.79159 -2.22435
-0.998754 2.47027 -1.91119
-1.16618 2.66607 -1.69559
-2.2181 1.15385 -1.40027
-2.13865 1.37885 -1.60212
-2.09119 1.07402 -1.61571
-2.10284 2.03396 -1.35336
-2.15586 1.70197 -1.51026
-2.2556 1.77369 -1.17614
-1.73327 1.45294 -2.04161
-1.97143 1.58717 -1.81288
-1.7296 1.78489 -1.99203
-1.51563 2.52961 -1.63792
-1.64926 2.16606 -1.84914
-1.8563 2.30351 -1.51266
-1.82953 2.55488 -0.260905
-2.20362 2.10402 -0.62479
-2.04071 2.34904 -0.44036
-1.99001 2.28888 -0.064524
-2.08583 2.01169 0.109866
-2.24771 0.906452 -1.21463
-2.32822 1.19061 -1.10058
-2.40823 1.16104 -0.393621
-2.40109 1.18228 -0.733216
-2.38286 0.835877 -0.525288
-2.3562 1.49144 -0.965394
-2.32228 1.79461 -0.812213
-2.09324 1.05661 0.574388
-2.00005 0.625559 0.770161
-2.13792 1.69722 0.277141
-2.14103 1.39618 0.419929
-2.28117 0.751641 0.109998
-2.25193 1.11333 0.249169
-2.35499 1.1375 -0.0565989
-2.32404 1.78309 -0.420328
-2.36852 1.46068 -0.232607
-2.25696 1.75076 -0.0592678
1.51327 2.73943 0.257536
1.62031 2.80723 -0.0796988
1.03253 2.57801 1.02181
1.28876 2.66287 0.648649
1.92624 2.28396 0.316204
1.65399 2.48508 0.467335
1.75711 2.20113 0.637103
0.19385 1.91391 1.85934
0.401969 2.09883 1.73151
0.956271 1.82904 1.60791
0.686841 1.97858 1.69051
0.727696 1.64892 1.79566
0.603308 2.28317 1.55504
0.800812 2.4423 1.3304
1.93509 1.05669 0.844998
1.78029 1.26704 1.02643
1.72176 0.887251 1.11234
1.81341 1.88154 0.79173
1.8148 1.58557 0.914372
2.03024 1.67563 0.611063
1.2572 1.28546 1.54328
1.5342 1.45817 1.25265
1.25093 1.64423 1.45803
1.13632 2.29493 1.21083
1.21027 1.97692 1.35611
1.49695 2.09571 1.00691
-0.244584 1.57309 1.97937
-0.00456182 1.74672 1.9375
-0.764748 1.22033 1.91067
-0.506135 1.4048 1.96648
-0.0180838 0.875363 2.15255
-0.243504 1.12751 2.08777
-0.242293 0.671239 2.18874
-1.70498 0.352159 1.20745
-1.47467 0.572431 1.46229
-0.997037 0.11093 1.90153
-1.22223 0.314917 1.70847
-1.25739 -0.126469 1.6543
-1.22898 0.801539 1.66522
-1.00977 1.00838 1.81098
-0.0167566 -0.483853 2.11252
-0.266262 -0.322721 2.14842
-0.232709 -0.659912 2.03561
-0.253812 0.310775 2.23013
-0.265107 0.00638452 2.21476
-0.0292763 0.168327 2.24355
-0.785654 -0.418263 1.95143
-0.521788 -0.186991 2.1209
-0.760317 -0.0548558 2.04045
-0.750476 0.716655 1.99799
-0.748749 0.299786 2.06188
-0.491981 0.477456 2.15982
-2.04973 0.131441 0.653238
-1.88712 0.200159 0.950009
-2.2456 0.204922 0.0316456
-2.17304 0.145741 0.33419
-1.96375 -0.675506 0.716255
-2.07629 -0.384826 0.539108
-2.08732 -0.732593 0.413965
-2.12926 0.64886 -1.30622
-2.22593 0.494662 -0.962029
-2.10978 -0.668008 -0.488689
-2.1406 -0.16584 -0.674814
-2.00614 -0.558072 -0.771004
-2.26138 0.373538 -0.629823
-2.28055 0.2852 -0.31183
-1.73183 -1.66224 0.152633
-1.96311 -1.44582 -0.0033896
-1.72568 -1.63891 -0.135795
-2.09728 -0.99654 0.279269
-2.07201 -1.21233 0.147222
-1.97604 -1.18962 0.47004
-2.01458 -1.16529 -0.492689
-2.08499 -1.20403 -0.17908
-2.11924 -0.972244 -0.334035
-2.20139 -0.381341 -0.0737544
-2.16331 -0.739766 -0.196521
-2.15741 -0.76026 0.104788
-1.89979 0.940063 -1.80478
-2.03424 0.781607 -1.55966
-1.4837 1.31341 -2.17266
-1.71198 1.12857 -2.0195
-1.59109 0.382763 -1.73567
-1.66686 0.778049 -1.92545
[...]
POINT_DATA 642
SCALARS Mean_Curvature double 1
LOOKUP_TABLE default
0.789108
1.2353
0.898225
1.05618
0.927627
0.926137
-0.0882508
0.414573
0.876438
0.397902
0.889215
0.463318
0.690219
0.692479
0.921594
0.908922
0.565059
0.689232
0.831756
1.62624
0.91456
0.874813
0.621616
0.931238
0.858995
1.16895
1.16073
1.01158
0.561446
0.0846715
1.20522
1.34917
0.850632
0.503728
1.23108
1.18169
0.642198
1.27602
1.25601
0.320967
0.611578
0.909043
0.753854
0.717102
0.740728
0.504586
0.694835
0.566304
1.09752
0.8523
0.853159
0.816433
0.701599
1.01631
1.01731
0.742971
0.772807
0.613569
1.07099
0.71116
1.43227
0.751487
0.480172
0.660218
0.398842
1.21727
0.93381
1.16854
1.44235
1.04
1.16879
1.22934
1.05418
0.80769
1.01298
0.905079
0.538722
0.595823
0.891625
0.866537
0.909989
0.700475
0.593371
0.527539
0.530081
0.896635
0.410135
0.501709
1.08213
1.12508
0.938976
0.639239
0.540362
0.482835
0.564528
1.58797
1.53582
1.83135
1.27777
1.06517
0.668029
1.15416
0.231519
0.478592
0.40304
1.58181
0.609394
1.08024
1.24219
1.14164
1.4502
1.22994
1.91891
0.987249
0.933681
0.413581
0.777812
0.502158
1.2287
0.877359
0.90638
0.821114
1.02076
0.252546
0.980129
0.810579
0.942019
0.916212
0.903972
1.27199
0.888081
0.88336
1.07413
0.807639
0.765464
1.42332
1.63955
0.276149
0.651337
0.191403
0.519181
0.720039
0.826519
0.881757
0.584733
0.553286
0.712964
1.04306
0.291141
0.600112
1.22889
0.735746
0.621235
1.05377
1.47917
0.394995
0.76428
0.502244
0.65151
1.08779
1.15269
0.960311
0.708922
0.469644
0.424218
0.575161
0.527212
0.702029
0.821383
0.713248
0.827356
0.414044
0.511771
0.210562
0.710542
0.622193
0.634379
0.650579
0.573292
0.606955
0.909383
0.908051
0.941909
0.898283
0.917206
1.04681
0.771688
0.901341
0.831953
0.713737
0.814231
0.811702
0.727734
0.656283
0.872723
0.793406
0.538884
0.762743
0.709605
0.908435
1.16799
0.984031
1.0707
0.976196
1.11282
1.02315
0.728912
0.584537
0.907479
0.727994
0.642012
0.480511
0.78995
0.741804
0.886609
0.922989
0.904404
0.854548
1.00692
0.493594
0.882429
1.09168
0.601064
1.0145
0.98764
1.4304
0.776613
0.792346
0.801378
1.03881
0.896839
0.862466
0.425204
0.246874
0.378196
1.05126
0.734038
0.932793
0.795163
0.640679
0.78942
0.616721
0.851673
0.875509
1.2384
0.81511
1.57981
1.53341
0.911528
1.14139
1.19363
0.426544
1.11808
1.56261
1.27609
1.50803
1.17025
1.35653
0.984577
1.34886
1.22806
1.12331
1.4267
0.965688
1.35789
1.32607
1.37703
1.13579
1.02906
1.1014
1.03851
0.951498
0.947969
0.983943
0.879192
0.784414
0.862354
0.940707
0.924926
0.829598
0.943023
1.08672
0.503631
0.482029
0.785168
0.719515
0.329735
0.760735
0.913174
1.04146
0.990814
0.91714
0.798107
0.967322
0.801915
0.627318
0.935186
0.784978
0.711987
0.944035
0.937274
0.774887
0.908793
0.748449
0.969452
0.900062
0.595352
0.565891
0.257455
0.674778
0.599726
0.870486
0.572101
0.52232
0.617006
0.811471
0.763879
0.582523
0.857965
0.875782
0.704181
0.733515
0.49535
0.698242
1.05109
0.431446
0.446305
0.8019
0.410022
0.346247
0.318138
0.654566
0.996286
1.016
0.916854
1.19383
1.15466
1.23338
0.893903
1.01827
0.959349
0.442226
1.0008
1.06742
0.431667
0.424602
0.433975
0.438476
0.613557
0.612415
0.627003
0.732121
0.784715
0.598199
0.562521
0.497136
0.202459
0.482299
1.95987
2.0333
1.26094
1.25732
1.7729
1.45838
1.64537
1.81681
1.46218
0.565544
0.738604
0.749178
1.18885
0.993525
1.42695
1.29984
0.879487
1.23463
1.07039
0.496632
0.43273
0.635696
0.581849
0.631717
1.24368
1.41448
0.178804
-0.166054
-0.114901
0.793511
-0.0737464
0.44549
0.491606
0.441521
0.565441
1.2739
0.933857
1.0919
0.365035
0.487657
1.35277
1.4337
0.81009
1.25335
1.47329
1.1715
1.23768
1.32053
0.93347
1.17897
1.45906
1.29462
0.99507
1.21494
1.03826
1.49921
1.32099
1.32542
1.39585
1.38445
1.41668
1.47556
1.28432
1.58792
1.62964
1.42779
1.10884
0.827027
1.43747
1.13603
1.01464
1.32527
1.19052
0.448809
0.455253
0.484084
0.784915
0.645013
0.394852
0.785518
0.725231
0.781636
0.923451
0.462407
0.944271
1.11409
1.01519
1.34589
0.81253
0.541102
0.756656
0.836389
0.759671
0.895983
0.933425
1.00247
0.973461
0.954197
0.842945
0.714741
0.854635
0.843764
0.368787
1.02804
0.710547
1.39066
1.20269
1.01058
0.835918
0.783772
0.963457
0.725176
0.832222
0.859976
0.872408
0.850469
0.981759
1.04761
0.461956
0.696279
1.33759
1.22278
0.8772
0.954373
1.31112
1.03133
0.856359
0.842199
0.994335
0.908155
0.996024
1.04062
0.942251
0.586244
0.372696
0.626697
0.282224
1.06951
1.21835
1.30621
1.33051
1.08719
1.05188
0.716286
0.670213
0.817425
1.47149
1.47758
1.49119
1.4774
1.21568
1.51364
1.01437
0.223355
0.412936
0.497191
0.398896
0.335955
0.972919
1.39524
0.742973
0.68404
0.787339
0.54993
0.454263
0.565343
0.541964
0.344781
0.40802
1.24123
0.493302
0.645624
1.94057
0.687017
1.4671
1.68899
0.914898
0.871234
0.762361
0.713084
0.823067
0.905625
0.550818
0.634583
0.546629
0.288587
0.745021
0.559015
0.845727
0.599467
0.278134
0.668692
0.547796
0.681596
1.0215
0.873897
0.930236
1.12392
1.14719
0.407281
0.608688
0.384361
0.385142
0.616197
0.862721
0.924478
0.723478
0.765981
0.666037
0.875786
0.392611
0.966494
1.15751
1.31111
1.14916
1.31755
1.21902
0.914822
0.350567
0.898587
1.01908
1.34204
0.430599
0.717677
0.610221
0.524864
0.582855
0.986971
0.658026
0.846633
0.378802
1.49105
1.00481
0.374482
0.346972
1.2221
1.47727
1.62748
1.22858
1.45965
0.625979
0.407459
0.326153
0.401162
0.681324
1.38633
1.23567
0.555039
0.906113
0.502329
0.798275
1.09337
1.11168
-0.0854341
0.54758
0.491008
0.0178231
0.247634
0.619519
0.49099
0.706858
0.671773
0.609409
0.467338
0.570767
0.428328
0.740573
1.02503
0.923986
0.943189
1.03624
1.01146
1.19894
1.16614
1.01882
1.04488
0.915445
1.0136
0.932237
0.93341
1.03204
1.17335
1.138
1.1544
SCALARS CoVolArea double 1
LOOKUP_TABLE default
0.0683132
0.0491505
0.0546123
0.0522266
0.0602213
0.0423912
0.0975338
0.103538
0.0451828
0.082798
0.0502617
0.0910408
0.12519
0.118679
0.110076
0.115346
0.152709
0.131909
0.127945
0.0998582
0.123302
0.150295
0.123941
0.110796
0.13118
0.0819327
0.0873948
0.086358
0.156389
0.156009
0.112271
0.0806254
0.0911909
0.135468
0.116134
0.125608
0.158569
0.114376
0.0988156
0.193465
0.102272
0.112955
0.127601
0.143064
0.146721
0.146012
0.131326
0.129352
0.0855883
0.110961
0.0981977
0.13832
0.127871
0.0884884
0.108784
0.13772
0.144597
0.145635
0.140567
0.114132
0.108379
0.161401
0.13912
0.17698
0.158564
0.133884
0.112459
0.0930956
0.127323
0.101073
0.135025
0.0966717
0.118688
0.134713
0.116642
0.107404
0.168363
0.150874
0.115146
0.0952738
0.111581
0.0999898
0.138698
0.150858
0.131886
0.107532
0.167874
0.133376
0.0825491
0.0890855
0.114494
0.146587
0.143978
0.182051
0.156134
0.100248
0.0745106
0.0995132
0.0945787
0.123459
0.156119
0.0803367
0.167108
0.122676
0.2422
0.107793
0.126187
0.109904
0.136302
0.0810622
0.110569
0.0830169
0.0838412
0.107815
0.117828
0.154668
0.119677
0.150452
0.107828
0.106799
0.11015
0.1478
0.111536
0.130977
0.139224
0.130486
0.152747
0.124777
0.12745
0.0996891
0.118618
0.140725
0.0977133
0.146121
0.0993896
0.0908572
0.0834333
0.15193
0.0906721
0.168257
0.149112
0.12507
0.074437
0.104748
0.179833
0.159584
0.125985
0.0945172
0.1522
0.132514
0.113852
0.117373
0.11859
0.104626
0.111722
0.144851
0.107199
0.188485
0.14429
0.0945924
0.104436
0.121953
0.110735
0.149107
0.129113
0.145264
0.144597
0.123038
0.122428
0.140483
0.123182
0.136242
0.138761
0.127523
0.118615
0.126332
0.127974
0.121087
0.130627
0.139345
0.0672887
0.0875747
0.0738205
0.109201
0.0949474
0.0946215
0.107479
0.0989434
0.11088
0.145672
0.127323
0.130313
0.142814
0.112755
0.121701
0.133598
0.131624
0.138212
0.151401
0.068485
0.0825745
0.110341
0.0933424
0.0981264
0.0913962
0.107363
0.0930219
0.142288
0.100749
0.158019
0.154083
0.152713
0.135644
0.147229
0.127541
0.129597
0.13155
0.148621
0.11879
0.0963138
0.135523
0.12056
0.12068
0.126756
0.14489
0.0810816
0.112948
0.155111
0.131403
0.119589
0.141126
0.152461
0.140571
0.182958
0.163221
0.154733
0.164238
0.125825
0.135177
0.172792
0.165872
0.161561
0.181086
0.169913
0.106285
0.0939212
0.126468
0.113585
0.117628
0.114308
0.128076
0.111915
0.108616
0.120703
0.100282
0.0868423
0.108252
0.122395
0.077527
0.0940989
0.0761807
0.127558
0.110216
0.11398
0.100485
0.109147
0.125557
0.14807
0.151215
0.150646
0.113442
0.12622
0.117723
0.112602
0.112461
0.0984198
0.107049
0.11311
0.115191
0.14253
0.113387
0.124849
0.134959
0.144686
0.11147
0.112033
0.153896
0.120468
0.113161
0.125452
0.113868
0.115847
0.126213
0.0886673
0.136428
0.145388
0.115327
0.132048
0.133876
0.0737209
0.087933
0.111695
0.0964483
0.105094
0.0960814
0.113175
0.0996016
0.124417
0.128954
0.126931
0.118119
0.0993266
0.13837
0.134606
0.130038
0.141742
0.136493
0.152843
0.102915
0.0786875
0.132187
0.118941
0.102022
0.117317
0.102227
0.145344
0.164863
0.123824
0.15321
0.14787
0.150027
0.137294
0.0798418
0.0918839
0.0956673
0.0810163
0.0805579
0.0740281
0.11802
0.0950597
0.104666
0.135376
0.110511
0.108757
0.176453
0.144563
0.188926
0.181791
0.103212
0.141615
0.0969128
0.120335
0.164563
0.107681
0.16677
0.133349
0.172354
0.19002
0.089506
0.0957796
0.0885001
0.0782474
0.0815513
0.0863929
0.0851293
0.0813379
0.077946
0.160102
0.100191
0.0969243
0.0967152
0.0907638
0.0911784
0.0959395
0.138012
0.102393
0.111728
0.148131
0.118097
0.11937
0.108516
0.145402
0.0791419
0.0782156
0.156774
0.242073
0.230052
0.133915
0.178507
0.164132
0.168607
0.186964
0.138152
0.0854274
0.0974076
0.0976165
0.133671
0.151529
0.119095
0.109733
0.0894442
0.0937872
0.0913655
0.0841204
0.106631
0.1283
0.120829
0.113608
0.118091
0.125918
0.0683809
0.0796221
0.0675129
0.0931049
0.0856164
0.07887
0.0944875
0.091154
0.115841
0.137392
0.139788
0.122862
0.0792245
0.102408
0.0912053
0.0973249
0.0943637
0.077183
0.118852
0.110149
0.112954
0.139925
0.14334
0.138662
0.129794
0.129109
0.141096
0.117687
0.122832
0.1093
0.100178
0.108295
0.0910817
0.105101
0.0985977
0.1037
0.119671
0.109275
0.123287
0.116246
0.121505
0.114882
0.117192
0.088419
0.131998
0.128857
0.131848
0.133105
0.157267
0.110086
0.127035
0.137114
0.133172
0.119232
0.119656
0.125561
0.0956118
0.125141
0.0950325
0.160607
0.142578
0.14795
0.128534
0.135337
0.140762
0.151523
0.157991
0.165872
0.0996185
0.0838337
0.143391
0.109311
0.0981065
0.101912
0.114182
0.092837
0.117013
0.12687
0.120526
0.119397
0.131079
0.154016
0.0973188
0.113004
0.0987351
0.123729
0.120519
0.0939767
0.0997168
0.120604
0.128267
0.15973
0.155756
0.151436
0.0943974
0.0778031
0.0935722
0.0950492
0.0788527
0.0868979
0.090663
0.147978
0.0987738
0.140736
0.10284
0.169996
0.0821623
0.0862415
0.101716
0.146012
0.0852962
0.122329
0.165935
0.154202
0.158806
0.170737
0.173277
0.0935955
0.121509
0.105815
0.0786425
0.087431
0.0704259
0.0678974
0.076146
0.0798886
0.139104
0.152466
0.149993
0.107615
0.184476
0.146399
0.164674
0.116911
0.111477
0.157892
0.116747
0.16617
0.160129
0.128541
0.167339
0.112004
0.0930183
0.116898
0.100669
0.0821761
0.0830613
0.167348
0.15005
0.159041
0.159149
0.138098
0.0997991
0.10166
0.112104
0.113701
0.137049
0.126475
0.153112
0.116407
0.11314
0.123128
0.120925
0.105977
0.0977309
0.12541
0.134208
0.124776
0.115196
0.113198
0.154669
0.0993508
0.121139
0.145186
0.139761
0.117613
0.124876
0.110852
0.104957
0.102248
0.0891171
0.119198
0.148465
0.111399
0.095011
0.104935
0.118918
0.118449
0.153726
0.167
0.164587
0.158974
0.108926
0.112386
0.111394
0.131603
0.0891556
0.156194
0.105854
0.0842363
0.0872217
0.225251
0.167122
0.194178
0.200301
0.203384
0.166854
0.101496
0.129655
0.158069
0.162051
0.163856
0.166735
0.127839
0.0978193
0.0945104
0.0903775
0.0886311
0.101209
0.0869445
0.10688
0.0905864
0.0958036
0.0995964
0.10737
0.115695
0.115245
0.112444
0.116389
0.108705
0.12248
0.11788
SCALARS SignedDistance double 1
LOOKUP_TABLE default
1.70006
1.56957
1.16804
1.28245
1.57222
1.58271
2.71128
1.75092
1.96688
2.10045
2.01047
1.94901
1.69393
1.79518
1.42246
1.43126
1.53085
1.60432
1.59425
1.64116
1.32888
2.08119
1.82674
1.61207
1.86544
1.80058
2.03782
1.72773
2.14387
2.6462
1.23907
1.96281
1.74839
1.96509
1.28438
1.37499
1.84538
1.94568
1.91159
2.54283
2.02698
1.95653
1.61617
1.62252
1.57572
2.00834
1.76912
1.96248
1.48153
1.56113
1.69302
1.39083
1.62663
1.48187
1.3309
1.66301
1.4386
1.70589
1.27528
1.58427
1.4583
1.34885
1.90825
1.64651
1.87141
0.774536
1.36837
1.87258
1.37219
1.63741
1.02284
1.70151
1.41313
1.99004
1.59104
1.77124
2.09802
1.72035
1.49378
1.68656
1.60349
1.87691
1.83061
2.03026
2.01173
1.83499
1.90356
2.04392
1.45171
1.65339
1.58409
1.85672
1.84472
2.36732
2.01015
1.346
1.78889
1.4866
2.11023
2.2842
1.86989
2.14951
2.55282
2.55905
2.56139
1.68334
1.97709
1.20469
0.579527
1.8893
1.46123
1.63385
1.53457
1.52919
1.2144
1.95578
1.72108
1.89549
1.75827
1.68206
1.72926
1.37533
1.36482
1.96004
1.63251
1.42126
1.49736
1.21017
1.68254
1.42265
1.38246
1.86807
2.40994
2.30337
2.46142
1.94803
1.71633
2.52056
2.30221
2.36454
2.19792
2.27406
1.92053
1.9078
2.11264
1.97028
2.07572
1.73767
2.09733
1.98866
1.4934
1.82254
1.77208
2.33515
1.88156
2.27025
2.28621
2.3867
2.06678
1.67641
1.57149
1.32876
1.64047
1.71058
1.77492
1.70502
1.68557
1.62519
1.47043
1.58959
1.50516
2.03092
2.00164
2.10537
1.7602
1.86709
1.88392
1.8158
1.88502
1.77835
1.54955
1.57431
1.6078
1.48726
1.51741
1.42277
1.73388
1.60314
1.67402
1.67848
1.64117
1.56208
1.62796
1.7504
1.39797
1.44795
1.57878
1.51907
1.46812
1.54949
1.46962
1.35623
1.37372
1.42236
1.3459
1.34977
1.73796
1.75957
1.72875
1.48011
1.58601
1.61289
1.51938
1.53793
1.40403
1.3573
1.36058
1.37417
1.53647
1.69737
1.50289
1.41091
1.54054
1.35708
1.37004
1.5047
1.59987
1.42828
1.43971
1.51938
1.43913
1.52399
1.87018
1.80026
1.75354
1.52986
1.73378
1.7656
1.7895
1.73305
1.51621
1.49421
1.46887
1.40395
1.47963
1.56029
1.26459
1.34152
1.26733
1.22813
1.14517
1.94669
1.83734
1.43048
1.65931
1.74174
1.63196
1.47223
1.84957
1.62945
1.87281
1.26605
1.39935
1.44224
1.6292
1.42319
1.36196
1.15043
1.18836
0.889833
1.44637
1.30239
1.3028
1.47323
1.57883
1.99953
1.79646
1.79846
1.76972
2.01362
1.59371
1.40007
2.07094
1.98465
1.71428
1.87456
2.16722
1.98488
1.88954
1.46152
1.6431
1.58801
1.69803
1.52795
1.54965
1.69798
1.52414
1.68454
1.70458
1.60438
1.57313
1.73067
1.63876
1.7543
1.50766
1.49937
2.03117
1.96421
2.11405
1.76031
1.85505
1.74378
1.91299
1.90973
1.83235
1.62005
1.7341
1.75687
1.74237
1.68207
1.86552
1.82495
2.01896
1.94999
1.92706
1.88692
1.97134
1.89842
1.96908
1.96907
2.05239
1.96723
1.4516
1.41931
1.51384
1.68291
1.50484
1.59282
1.70426
1.55232
1.69671
2.06182
1.84865
1.85299
1.89406
1.87257
2.06001
1.98036
1.77066
1.83528
1.80432
2.19089
2.26027
2.06519
2.14808
2.14304
2.30816
2.20572
0.412974
1.32974
1.1449
1.73889
1.56319
1.56259
1.78876
1.64823
1.89632
1.91388
1.96565
1.86845
1.97928
2.11811
1.86652
1.88595
2.47829
2.17156
2.37595
1.75577
2.03327
2.24854
2.1484
1.99987
1.99307
1.91367
2.61901
2.72767
2.6957
2.59284
2.75175
2.55154
2.32045
2.51988
2.36999
2.1095
2.34407
2.33651
1.95718
1.75041
1.5339
1.82733
2.05935
1.94783
1.82788
1.37974
1.20875
0.688598
1.03156
1.00614
1.19097
1.28924
1.92646
1.73753
1.82965
1.71321
1.69091
1.89703
1.42823
1.51641
1.25011
1.31748
1.18276
1.51868
1.28764
1.30421
1.16077
1.66929
1.5611
1.72775
1.22898
1.35493
1.41153
1.97963
1.91381
1.96572
1.82664
1.89687
1.99597
1.82354
1.83273
1.71298
1.78713
1.87716
1.62353
1.5472
1.73637
1.50234
1.84524
1.87883
1.80751
1.62026
1.67318
1.53764
1.29982
1.19073
1.21855
1.28947
1.52933
1.40659
1.60181
1.70016
1.89496
1.61916
1.88104
1.70086
1.608
1.34158
1.27947
1.32491
1.19808
1.75251
1.46588
1.70334
1.22185
1.31149
1.34496
1.41729
1.68157
1.68114
1.29525
1.2863
1.72696
1.46878
1.65909
1.53176
1.73673
1.21999
1.36051
1.85843
1.60186
1.64547
1.63089
1.94767
2.62629
2.62368
2.5992
2.01013
2.32634
2.16454
2.23865
2.43342
2.14234
2.02088
2.15246
1.97197
1.54581
1.43779
1.8867
1.69397
1.94053
1.81782
2.04099
2.59737
2.48644
2.34379
2.39449
2.51767
2.33106
2.13377
2.09843
2.32063
2.08696
2.09582
2.25145
2.11185
2.50566
2.45272
2.35324
2.12734
2.23284
2.15945
1.6098
1.9709
1.85057
1.7591
1.84479
1.93426
2.10654
2.18999
2.13531
1.92493
2.24641
2.00048
2.00382
2.12571
1.86258
1.90697
2.00741
2.10926
2.20788
1.92545
2.00894
1.90017
1.52581
1.79646
1.65098
1.57875
1.74259
2.04768
1.9689
2.081
2.02691
1.99746
1.73318
1.97917
1.93488
1.81371
1.86978
1.93628
2.06177
1.92968
1.16998
1.41971
1.28168
1.38056
1.58736
1.77254
1.95322
1.88302
1.89088
1.6364
1.87876
1.72499
1.77268
1.89595
1.929
1.65805
1.78437
1.67531
2.49774
2.14015
2.36894
2.45724
2.39025
1.35067
1.95611
1.67548
1.58093
1.83877
2.42342
2.40287
2.51511
2.24351
2.18726
2.1173
2.1586
2.32349
2.07602
2.47659
2.26651
2.08001
2.11547
2.66888
2.2121
2.43519
2.65638
2.61843
1.77406
2.17677
1.99848
1.88381
2.02478
2.40563
2.19236
2.27873
1.94509
1.79508
1.86369
1.77473
1.60501
1.76329
1.40153
1.58473
1.73448
1.75759
1.37057
1.45109
1.36339
1.30713
1.29885
1.59491
1.3914
1.46816
