# vtk DataFile Version 4.2
vtk output
ASCII
DATASET POLYDATA
POINTS 642 double
-1.44296 2.94777 -0.25908
1.5117 3.01523 -0.209395
-1.56545 -1.81483 0.0116746
1.43551 -1.76573 0.0268857
-0.0019982 -0.78516 2.08267
-0.00364121 2.03209 1.92144
-0.0870067 -0.834274 -1.56939
-0.1673 2.14298 -2.12159
2.1523 1.03279 -1.30012
1.9257 0.726985 1.00584
-2.2334 0.907074 -1.47689
-1.92186 0.59457 1.06231
-2.01379 1.97191 0.495408
-1.05517 1.4639 1.80151
-0.696262 2.74819 1.18849
0.718474 2.7588 1.18278
-0.015813 3.34853 -0.138568
1.02356 2.94652 -1.40072
-1.01489 2.95387 -1.4621
-1.50008 1.64456 -2.25728
-2.24475 2.13044 -1.0171
-2.45691 0.793109 -0.186135
1.04227 1.50007 1.77338
2.07757 2.01362 0.524422
-1.08131 -0.298643 1.90455
-0.0259247 0.49345 2.32886
-2.1159 -0.927852 -0.672902
-2.06922 -0.973378 0.634537
-0.208553 0.970023 -2.26097
-1.37614 0.106277 -1.7916
2.27493 2.1565 -0.952488
1.47256 1.73079 -2.00226
1.90119 -0.916498 0.637848
1.04102 -0.312721 1.85186
0.827086 -1.64729 1.29072
-0.885414 -1.66977 1.28867
-0.00180835 -2.14428 0.0362501
-0.937803 -1.60442 -1.14752
0.844627 -1.57677 -1.07048
1.19701 0.0142022 -1.5862
1.8569 -0.868922 -0.560864
2.42818 0.911335 -0.133238
-1.80896 2.53597 0.128317
-1.38147 2.43283 0.935168
-1.08608 2.92963 0.499157
-1.54275 1.05907 1.47978
-1.542 1.77531 1.26991
-2.02746 1.34571 0.805902
-0.316067 2.42502 1.66386
-0.925705 2.17902 1.5693
-0.503387 1.81085 1.94495
-0.392546 3.15647 0.60904
-0.784652 3.24793 -0.189346
0.31801 2.42598 1.66109
0.001434 2.85664 1.26931
0.879722 3.24587 -0.174549
0.408956 3.16016 0.612532
1.18909 2.94858 0.44694
-0.502936 3.3101 -0.799831
-1.29814 3.0571 -0.834393
1.35525 3.11621 -0.774831
0.508177 3.29132 -0.786139
-0.650346 2.58532 -1.91048
-0.0387757 3.05319 -1.41349
0.563983 2.58796 -1.82102
-1.73379 2.67672 -1.31162
-1.89579 2.6611 -0.625639
-0.937186 1.95232 -2.27903
-1.32691 2.40146 -1.98691
-2.34699 1.46938 -1.34071
-2.00914 1.95349 -1.73827
-2.0032 1.26467 -1.90691
-2.2534 2.10822 -0.221941
-2.43387 0.849512 -0.881895
-2.48523 1.49013 -0.596276
-2.36463 1.4457 0.135719
-2.25762 0.688659 0.465841
1.46455 2.45712 0.883797
1.85432 2.61543 0.153317
0.495549 1.82089 1.93681
0.937218 2.19268 1.56095
2.08463 1.39846 0.776826
1.60322 1.80154 1.20602
1.57301 1.10077 1.41263
-0.518135 0.947473 2.1622
-0.00699087 1.36444 2.1546
-1.55741 0.073765 1.51064
-1.04055 0.527051 1.96347
-0.0241588 -0.157597 2.29685
-0.531688 0.131648 2.25922
-0.553408 -0.568151 2.10054
-2.25855 -0.413164 0.261137
-2.01476 -0.316445 0.886876
-2.12917 0.0182571 -1.06546
-2.28412 -0.307678 -0.406365
-1.96329 -1.47345 0.350973
-2.24259 -1.02609 -0.0284296
-1.99077 -1.46859 -0.353738
-1.50605 0.955235 -2.19031
-1.88947 0.54282 -1.75429
-0.221883 1.57368 -2.29198
-0.998406 1.3327 -2.35884
-0.801914 -0.489568 -1.67655
-0.958701 0.642737 -2.17499
-0.132749 0.21457 -1.99525
1.32755 2.39717 -1.87532
0.864015 2.0027 -2.08238
1.94354 2.71159 -0.55901
1.74732 2.68523 -1.2575
1.91913 1.37907 -1.69863
1.97446 1.98301 -1.62893
2.30633 1.55128 -1.21386
1.79998 -1.41264 0.363622
1.48637 -1.34053 1.01712
1.21371 -1.80343 0.628343
1.52668 0.104579 1.47003
1.56205 -0.697472 1.29986
1.91639 -0.171841 0.907425
0.409257 -1.30329 1.75949
1.00813 -1.07922 1.62449
0.51447 -0.603372 2.06213
0.464055 -2.0309 0.721598
0.840617 -2.04457 0.0137011
-0.41743 -1.28165 1.73928
0.00706906 -1.76365 1.35428
-0.917212 -2.05709 0.0192878
-0.500075 -2.04694 0.716901
-1.30784 -1.83825 0.61943
0.495254 -1.98354 -0.575045
1.19564 -1.78749 -0.532118
-1.32143 -1.81778 -0.562627
-0.535754 -1.99595 -0.603573
0.416025 -1.21682 -1.42397
-0.0363752 -1.66892 -1.13424
-0.540503 -1.21802 -1.46351
1.46748 -1.29931 -0.881519
1.77068 -1.39847 -0.286327
0.605195 -0.551718 -1.58851
1.02136 -1.01343 -1.31833
2.00489 0.228098 -0.961356
1.55048 -0.563465 -1.11247
1.77912 0.663659 -1.52733
1.99501 -0.966234 0.0463579
2.37945 0.980939 -0.781849
2.1658 -0.0360858 -0.323551
2.12841 -0.199046 0.288637
2.25655 0.852777 0.470476
0.473747 0.130803 2.23882
1.02118 0.552004 1.90539
0.470709 0.983184 2.14907
-1.61297 -1.37345 1.02876
-1.09056 -1.09805 1.621
-1.65825 -0.766822 1.27542
-1.19502 -1.00637 -1.44793
-1.68278 -1.33357 -0.991602
-1.74734 -0.603374 -1.23859
1.43903 1.06375 -1.90978
0.646867 0.576652 -2.01452
0.800756 1.36294 -2.15463
2.3903 1.48763 0.191629
2.47913 1.55164 -0.55671
2.28721 2.16408 -0.197896
-1.62178 2.7854 -0.0907597
-1.46556 2.73285 0.3201
-1.29669 2.95096 0.0521988
-1.72937 2.20328 0.710831
-1.61837 2.47858 0.531462
-1.93551 2.26677 0.316973
-0.893315 2.85916 0.86651
-1.24207 2.69638 0.745502
-1.03447 2.6191 1.08769
-1.76789 0.806191 1.25242
-1.78627 1.2276 1.1684
-1.96921 0.959147 0.951268
-1.29773 1.63538 1.56686
-1.54956 1.44473 1.39012
-1.30809 1.27051 1.66182
-2.04317 1.66191 0.659117
-1.80529 1.57233 1.04044
-1.79432 1.8821 0.891061
-0.133247 2.21087 1.82507
-0.422713 2.14152 1.81399
-0.212871 1.95045 1.94815
-0.817338 2.48795 1.39757
-0.622851 2.3291 1.62907
-0.500955 2.60117 1.45604
-0.784398 1.64936 1.89558
-0.723278 2.00483 1.77855
-1.00807 1.83424 1.70383
-1.48524 2.11541 1.11821
-1.24483 1.98879 1.44853
-1.15288 2.32581 1.28633
-0.931369 3.12282 0.160772
-1.15805 3.10163 -0.23185
-0.556673 2.97067 0.929784
-0.739273 3.06781 0.576817
-0.42766 3.31968 -0.163609
-0.580217 3.23158 0.207436
-0.216213 3.28556 0.237508
0.128032 2.21099 1.82495
-0.00284439 2.45446 1.67764
0.365453 2.83214 1.247
0.173187 2.66224 1.48432
0.512075 2.60606 1.45155
-0.172962 2.66028 1.48632
-0.355949 2.82723 1.25002
1.27796 3.12268 -0.205916
1.04289 3.12548 0.138464
1.41004 3.003 0.0391773
0.215327 3.28711 0.248483
0.620001 3.23148 0.21765
0.439624 3.31838 -0.138917
0.938432 2.87537 0.851182
0.787862 3.07697 0.567864
0.579063 2.97964 0.927815
-0.189093 3.03104 0.970512
0.197431 3.0335 0.970523
0.00254733 3.19068 0.630216
-1.03924 3.19234 -0.525742
-1.38724 3.01275 -0.511938
-0.260779 3.36136 -0.478021
-0.648873 3.31456 -0.497724
-1.17616 3.04146 -1.14961
-0.921619 3.21164 -0.835295
-0.779225 3.16098 -1.14988
1.46017 3.08159 -0.441992
1.13575 3.19494 -0.48566
0.798288 3.14556 -1.11253
0.983237 3.20547 -0.800175
1.20964 3.06845 -1.09988
0.706081 3.30226 -0.478601
0.227057 3.35968 -0.467956
-0.413259 2.3426 -2.04488
-0.0853784 2.61752 -1.83333
0.199316 2.35215 -1.98593
-0.583689 3.03153 -1.45526
-0.362301 2.85011 -1.67042
-0.836646 2.792 -1.72546
0.811226 2.78174 -1.65014
0.267783 2.84633 -1.63367
0.547553 3.01388 -1.41207
-0.0294139 3.32226 -0.788407
0.247701 3.21269 -1.11548
-0.294488 3.22183 -1.1267
-1.62794 2.89433 -0.75936
-1.65632 2.84142 -0.421141
-1.38177 2.86986 -1.42002
-1.53371 2.9156 -1.09043
-2.09288 2.42605 -0.821374
-1.84696 2.69106 -0.973112
-2.03308 2.41833 -1.17361
-0.588896 2.06837 -2.19471
-0.82596 2.28965 -2.12976
-1.43851 2.01904 -2.17083
-1.13043 2.17709 -2.17776
-1.2077 1.81138 -2.3072
-1.0082 2.5195 -1.97186
-1.18472 2.72127 -1.74364
-2.30013 1.1488 -1.43716
-2.21057 1.38258 -1.64712
-2.16383 1.06233 -1.66778
-2.16856 2.06621 -1.38228
-2.22507 1.72092 -1.54679
-2.33175 1.7967 -1.19844
-1.78054 1.45656 -2.10931
-2.02927 1.59919 -1.86496
-1.77402 1.80447 -2.04941
-1.54999 2.57582 -1.67845
-1.68879 2.20029 -1.89741
-1.90345 2.34071 -1.54536
-1.88885 2.61051 -0.245548
-2.27727 2.1424 -0.625148
-2.10763 2.39638 -0.432986
-2.05797 2.33654 -0.0406885
-2.16109 2.05061 0.140859
-2.33271 0.890248 -1.245
-2.41407 1.18819 -1.12361
-2.49914 1.16222 -0.388532
-2.49047 1.18178 -0.742178
-2.47465 0.82509 -0.529164
-2.44046 1.50248 -0.98151
-2.40233 1.81915 -0.821247
-2.17652 1.06598 0.616731
-2.0813 0.627462 0.81376
-2.21773 1.72411 0.313754
-2.2233 1.41322 0.459999
-2.3732 0.747201 0.133722
-2.3398 1.11932 0.281203
-2.44517 1.14052 -0.0357862
-2.40812 1.80985 -0.412565
-2.45651 1.47478 -0.217898
-2.34004 1.77815 -0.0352628
1.56034 2.80147 0.290346
1.66984 2.86744 -0.0586214
1.07455 2.63715 1.07183
1.33356 2.72412 0.690734
1.99149 2.32905 0.35216
1.71007 2.53901 0.508052
1.82044 2.24556 0.685174
0.207846 1.95133 1.94648
0.425521 2.14354 1.8119
1.00385 1.86081 1.68421
0.723541 2.01684 1.76952
0.767673 1.67604 1.87904
0.634078 2.33368 1.62603
0.837352 2.49772 1.39177
2.01487 1.06253 0.898774
1.85254 1.27953 1.0876
1.79373 0.891817 1.17517
1.88233 1.91329 0.846811
1.88646 1.6071 0.973564
2.10744 1.69886 0.661302
1.31552 1.30076 1.617
1.59921 1.47681 1.31919
1.30881 1.66879 1.52928
1.18547 2.34334 1.26995
1.2652 2.01304 1.42309
1.55698 2.13612 1.06416
-0.258445 1.60046 2.07145
-0.00414714 1.7775 2.02938
-0.805124 1.23986 1.99598
-0.534036 1.42894 2.05642
-0.0165081 0.892748 2.25113
-0.256901 1.14809 2.18422
-0.255543 0.685646 2.28598
-1.7757 0.349888 1.26704
-1.5395 0.576024 1.5296
-1.05131 0.107102 1.97855
-1.2821 0.315039 1.78123
-1.31761 -0.136363 1.72395
-1.28833 0.80998 1.73933
-1.06178 1.02164 1.89102
-0.0147753 -0.509432 2.19838
-0.279572 -0.344117 2.23573
-0.244825 -0.692316 2.11594
-0.267496 0.312594 2.32575
-0.278855 -0.00366176 2.30717
-0.0273832 0.164705 2.33928
-0.826026 -0.440108 2.02868
-0.550334 -0.203483 2.20669
-0.802255 -0.0657427 2.12249
-0.794574 0.728621 2.08526
-0.792737 0.30194 2.14685
-0.521886 0.485561 2.2519
-2.13389 0.124743 0.692109
-1.96502 0.193967 0.999611
-2.33759 0.19527 0.0465742
-2.26256 0.138297 0.360994
-2.0469 -0.691419 0.759456
-2.16426 -0.395674 0.573244
-2.17832 -0.74709 0.443707
-2.20953 0.620569 -1.34828
-2.31377 0.471719 -0.989773
-2.20651 -0.686731 -0.517322
-2.23103 -0.187825 -0.702886
-2.09402 -0.583848 -0.816997
-2.35379 0.354328 -0.645211
-2.37322 0.270885 -0.314127
-1.75864 -1.69386 0.15864
-2.02465 -1.49254 -0.00217616
-1.76538 -1.69005 -0.144553
-2.18966 -1.01913 0.303081
-2.15588 -1.24764 0.161398
-2.05405 -1.22348 0.503387
-2.0971 -1.20222 -0.526178
-2.17097 -1.24085 -0.189377
-2.21606 -0.996108 -0.35531
-2.29797 -0.394328 -0.070818
-2.26447 -0.755588 -0.205217
-2.25573 -0.774917 0.116926
-1.96051 0.918782 -1.86905
-2.10704 0.75304 -1.61434
-1.51834 1.30731 -2.25568
-1.76026 1.11503 -2.09303
-1.63989 0.337957 -1.81768
-1.7155 0.745685 -2.00274
-1.4641 0.583651 -2.05296
[...]
POINT_DATA 642
SCALARS Mean_Curvature double 1
LOOKUP_TABLE default
0.719082
1.17958
1.09122
0.947928
0.86976
0.871721
-0.0947368
0.396063
0.853378
0.377999
0.887598
0.442928
0.670608
0.672667
0.884146
0.867868
0.543814
0.743565
0.851625
1.52019
0.911304
0.837084
0.606047
0.89435
0.809056
1.11132
1.22636
1.04994
0.537223
0.0690886
1.20524
1.3189
0.789009
0.49891
1.06198
0.976249
0.615323
1.08975
1.09257
0.286104
0.552214
0.872735
0.762582
0.692852
0.706035
0.504259
0.681327
0.552919
1.06899
0.822622
0.83551
0.783122
0.713098
0.978086
0.969019
0.727268
0.741829
0.593025
0.998274
0.674747
1.43791
0.720338
0.584303
0.619123
0.428704
1.05388
0.861976
1.13901
1.32176
1.02624
1.05606
1.13476
0.992918
0.766002
0.978754
0.87205
0.501153
0.577363
0.834473
0.845052
0.872793
0.696235
0.579161
0.50999
0.491555
0.841859
0.397773
0.53064
1.03153
1.07059
0.888164
0.601183
0.530496
0.409182
0.510785
1.54751
1.54433
1.65842
1.21465
1.01415
0.650975
1.13385
0.217327
0.539035
0.398921
1.55189
0.546815
1.05423
0.973924
1.0999
1.35477
1.18677
1.7957
0.995221
0.890155
0.397006
0.736553
0.477499
1.21932
0.843402
0.862285
0.799263
1.05206
0.216169
0.938478
0.767935
0.902311
0.877847
0.864622
1.10382
0.839291
0.859709
1.10071
0.640865
0.911163
1.36045
1.54666
0.273897
0.797098
0.180501
0.475116
0.685766
0.912397
0.843159
0.529623
0.527366
0.697203
0.997812
0.296167
0.574043
1.19269
0.762508
0.603795
1.14024
1.39163
0.345771
0.80103
0.482006
0.627381
1.04891
1.09788
0.907841
0.711204
0.449732
0.415371
0.557454
0.50827
0.694575
0.786914
0.68738
0.796466
0.399697
0.49933
0.201895
0.692243
0.605452
0.61288
0.638646
0.562462
0.588029
0.887965
0.874819
0.896721
0.867824
0.888156
0.992822
0.749222
0.85541
0.815172
0.69028
0.779216
0.782944
0.696268
0.651918
0.839299
0.754604
0.526468
0.736428
0.691746
0.885666
1.12225
0.939255
1.01328
0.937662
1.0446
0.974482
0.811855
0.542658
0.903286
0.698195
0.621655
0.478297
0.754043
0.70874
0.843577
0.883847
0.866192
0.815626
0.960124
0.522864
0.879557
1.03623
0.777002
0.956433
0.92647
1.38072
0.69713
0.74254
0.730827
1.14763
0.847264
0.839183
0.375713
0.225965
0.364397
0.923812
0.713202
0.842363
0.708011
0.672856
0.705268
0.610608
0.803105
0.84208
1.1813
0.856052
1.41634
1.40802
0.907858
1.08357
1.08675
0.353183
1.07042
1.41252
1.24348
1.4748
1.12502
1.29307
0.984004
1.26817
1.17045
1.11151
1.33628
0.920176
1.25334
1.22577
1.23758
1.04235
0.943591
1.02979
0.955269
0.900863
0.898651
0.937424
0.870927
0.742979
0.819895
0.895972
0.88464
0.79143
0.899328
1.01411
0.512653
0.455995
0.764632
0.705274
0.368271
0.74233
0.879939
1.02497
0.938186
0.903611
0.775276
0.904677
0.766008
0.602987
0.883442
0.768705
0.707257
0.897784
0.910639
0.761754
0.880892
0.725911
0.918843
0.862395
0.578758
0.546769
0.260805
0.664078
0.596508
0.854582
0.54874
0.50663
0.604426
0.774673
0.748163
0.56687
0.814031
0.854005
0.666593
0.706556
0.494774
0.691382
1.01558
0.415179
0.430375
0.785742
0.394949
0.34677
0.313678
0.634368
0.941758
0.96489
0.865903
1.13476
1.09271
1.17106
0.846152
0.969669
0.911924
0.459711
0.957347
1.01379
0.40816
0.407539
0.394169
0.419977
0.586445
0.585782
0.603618
0.696527
0.741438
0.583317
0.503284
0.443164
0.232097
0.425873
1.06714
1.82107
1.0972
1.29146
1.70589
1.39867
1.56702
1.74555
1.45105
0.527152
0.782199
0.762972
1.07845
0.985087
1.3482
1.19118
0.929463
1.14799
1.05075
0.482362
0.41573
0.586213
0.522676
0.609138
1.23009
1.3866
0.176667
-0.166724
-0.12629
0.831364
-0.0857476
0.385106
0.469932
0.421707
0.53879
1.23777
0.948483
1.06521
0.298751
0.469972
1.23471
1.36999
0.974024
1.24034
1.43055
1.06572
1.0783
1.08132
0.996108
1.11669
1.26151
1.22769
0.974127
1.1675
1.0134
1.40551
1.24965
1.2525
1.33807
1.31369
1.32749
1.26024
1.13705
1.46276
1.29566
1.18192
0.976199
0.828747
1.43925
1.20527
0.932504
1.17752
1.16473
0.42905
0.435284
0.459892
0.756139
0.650702
0.393868
0.748669
0.709695
0.740174
0.843627
0.455423
0.888931
1.14848
1.05445
1.24153
0.770594
0.537631
0.708362
0.81426
0.746774
0.865
0.915175
0.976217
0.905268
0.926958
0.794965
0.688588
0.811805
0.787467
0.463534
0.958057
0.621127
1.2936
1.08551
0.927777
0.853228
0.784772
1.02895
0.707072
0.777097
0.8269
0.829928
0.846549
0.934635
0.989125
0.481181
0.689046
1.2366
1.06964
0.841653
0.923896
1.19081
1.05331
0.8124
0.883912
0.944142
0.869602
0.971142
0.91664
0.912783
0.585525
0.491819
0.730675
0.252335
0.888247
1.12637
1.23384
1.27318
1.05344
0.886013
0.688244
0.651481
0.773372
1.29416
1.25403
1.37586
1.32968
1.26073
1.42878
1.10678
0.205904
0.456673
0.438373
0.371301
0.332973
1.02544
1.36458
0.71296
0.645007
0.765835
0.497374
0.424212
0.522534
0.535791
0.298957
0.380931
1.25758
0.462582
0.730961
1.8231
0.675115
1.52594
1.71468
0.918872
0.840989
0.723164
0.706356
0.776245
0.867566
0.495094
0.581097
0.513335
0.285844
0.722543
0.522603
0.818536
0.560478
0.247815
0.627306
0.511221
0.64918
0.971424
0.833836
0.894826
1.06712
1.09499
0.390989
0.591374
0.388848
0.368709
0.62487
0.81908
0.914262
0.723348
0.741019
0.634206
0.844231
0.370066
0.928318
1.02407
1.15547
1.03621
1.25882
1.20978
0.855139
0.363531
0.801739
1.08661
1.34488
0.415243
0.728438
0.581397
0.521104
0.554555
1.04162
0.641253
0.88246
0.405981
1.42966
1.10862
0.392723
0.311843
1.02666
1.40986
1.50754
1.01687
1.25849
0.599015
0.352965
0.249397
0.339076
0.795144
1.33704
1.23321
0.659682
0.875969
0.504684
0.791347
1.05614
1.11269
-0.084227
0.526285
0.474411
0.0551774
0.252134
0.586251
0.527393
0.677477
0.646982
0.587353
0.434052
0.546963
0.393124
0.728725
0.987384
0.89895
0.92293
1.00115
0.976873
1.12036
1.11624
0.976654
1.00463
0.883993
0.957778
0.882309
0.936132
1.00853
1.12378
1.043
1.09575
SCALARS CoVolArea double 1
LOOKUP_TABLE default
0.0741816
0.0547983
0.0602348
0.0588194
0.0666221
0.0475248
0.101048
0.110334
0.0505675
0.0884535
0.0559554
0.0966844
0.133134
0.126529
0.11892
0.124294
0.161374
0.140902
0.137676
0.111989
0.133307
0.159811
0.131572
0.119653
0.139521
0.0901545
0.096606
0.0943525
0.164662
0.164844
0.123324
0.0894818
0.0990507
0.143895
0.126477
0.136167
0.168339
0.125823
0.109567
0.202227
0.109927
0.121816
0.135866
0.152106
0.15567
0.153155
0.139538
0.136062
0.0939251
0.119803
0.106391
0.147765
0.13606
0.0969303
0.118283
0.145921
0.154009
0.154863
0.150833
0.122713
0.118138
0.171491
0.146858
0.187773
0.166513
0.145221
0.121432
0.100993
0.139384
0.110455
0.147052
0.107132
0.12868
0.143761
0.126744
0.11567
0.176933
0.160458
0.12385
0.10332
0.12046
0.106823
0.147001
0.158061
0.141658
0.116069
0.175294
0.140768
0.0909487
0.0979205
0.124031
0.154968
0.151301
0.193709
0.165078
0.112152
0.0841387
0.112659
0.105584
0.134023
0.165253
0.0878081
0.171056
0.129215
0.249263
0.119859
0.134122
0.119129
0.147006
0.0901333
0.12324
0.0924378
0.0960463
0.118078
0.127819
0.161542
0.128197
0.158667
0.116947
0.115042
0.118659
0.15757
0.12036
0.139326
0.148938
0.139237
0.162302
0.134043
0.136665
0.110149
0.12771
0.149966
0.106594
0.158039
0.107649
0.102205
0.0955233
0.155834
0.0978429
0.177657
0.157361
0.133486
0.0818297
0.11389
0.191943
0.16888
0.134409
0.103218
0.15942
0.142063
0.125194
0.12636
0.125593
0.113981
0.125695
0.153577
0.114666
0.195672
0.152982
0.103926
0.115217
0.132721
0.118826
0.15785
0.137703
0.153898
0.152818
0.13084
0.130857
0.148973
0.132114
0.143489
0.145716
0.13437
0.126438
0.133245
0.135078
0.128297
0.137719
0.147679
0.0745433
0.0956883
0.0812623
0.118091
0.103181
0.103086
0.115381
0.107043
0.119226
0.155353
0.136727
0.14008
0.151896
0.120775
0.130887
0.142448
0.139325
0.146727
0.160528
0.0758512
0.0910265
0.119603
0.102077
0.106626
0.100139
0.116639
0.100564
0.151334
0.108865
0.167274
0.162861
0.161148
0.144475
0.156321
0.136789
0.13988
0.141822
0.158939
0.127297
0.103862
0.14417
0.129089
0.129932
0.136239
0.155485
0.0894406
0.121297
0.165184
0.140543
0.128963
0.149649
0.161642
0.148267
0.191053
0.171175
0.165017
0.17299
0.134336
0.143593
0.181725
0.175895
0.172156
0.192686
0.181558
0.115038
0.10182
0.137477
0.123298
0.126691
0.123772
0.138343
0.119345
0.11648
0.133708
0.110308
0.0969647
0.117077
0.133013
0.0856013
0.10413
0.0850059
0.138511
0.120826
0.123824
0.111635
0.120231
0.138306
0.160989
0.164642
0.162971
0.122285
0.136671
0.127036
0.121228
0.121009
0.1066
0.116032
0.122275
0.124368
0.15181
0.122932
0.135558
0.142364
0.152589
0.119488
0.119106
0.162008
0.128001
0.121508
0.136674
0.123797
0.125673
0.135131
0.0966504
0.145822
0.154453
0.124098
0.140841
0.142919
0.0812243
0.0961602
0.119732
0.104391
0.112644
0.104438
0.122262
0.106143
0.131326
0.136063
0.135364
0.125246
0.106913
0.145483
0.14172
0.137867
0.151914
0.145979
0.162785
0.111472
0.0863729
0.140861
0.127608
0.110293
0.126311
0.111404
0.152713
0.17237
0.131734
0.160197
0.155093
0.157083
0.145117
0.0880177
0.100663
0.104503
0.089648
0.08889
0.0820286
0.126829
0.103752
0.113512
0.144489
0.11941
0.118518
0.185088
0.152095
0.199053
0.190461
0.109707
0.149175
0.104057
0.129644
0.174989
0.11588
0.176706
0.142288
0.181503
0.200707
0.0986688
0.108526
0.098082
0.0871431
0.0934185
0.0970274
0.0974861
0.0938783
0.0877002
0.169928
0.108655
0.105028
0.107132
0.0995381
0.10237
0.106783
0.14827
0.113046
0.121515
0.157499
0.125579
0.127218
0.115519
0.153572
0.0863944
0.0877718
0.160582
0.247396
0.236111
0.141507
0.183491
0.170999
0.175986
0.193352
0.146086
0.0953401
0.105653
0.106778
0.14123
0.160496
0.129426
0.1185
0.0970461
0.102262
0.102392
0.0925007
0.116526
0.139091
0.130386
0.123172
0.128097
0.136243
0.07618
0.0889257
0.0754073
0.1048
0.0958492
0.0881608
0.105008
0.101797
0.127963
0.150485
0.152955
0.137113
0.0899295
0.113864
0.100357
0.106384
0.105376
0.0865211
0.128728
0.120954
0.123628
0.147248
0.150682
0.146448
0.13811
0.136353
0.147993
0.125587
0.130629
0.117673
0.108845
0.116606
0.0994345
0.114969
0.106869
0.113362
0.12816
0.116689
0.131601
0.125681
0.130629
0.124887
0.1265
0.0971144
0.141929
0.138155
0.140594
0.142082
0.16714
0.118656
0.135567
0.146859
0.141769
0.128685
0.128854
0.135676
0.103346
0.133865
0.103109
0.170452
0.15161
0.157008
0.138215
0.144379
0.150356
0.162021
0.168176
0.176291
0.108982
0.0932691
0.152838
0.11773
0.108424
0.110816
0.123685
0.100828
0.125653
0.13639
0.129203
0.12933
0.139781
0.163525
0.102863
0.122601
0.103712
0.134754
0.132369
0.104313
0.110446
0.132117
0.13922
0.17031
0.166626
0.162436
0.106171
0.0884991
0.105578
0.106883
0.0881616
0.0984787
0.0998052
0.152284
0.103775
0.147859
0.107804
0.175924
0.0895378
0.0966031
0.109593
0.15495
0.0928229
0.130127
0.174893
0.163015
0.167219
0.180192
0.182103
0.103869
0.129238
0.114502
0.0910706
0.0950183
0.0802275
0.0778478
0.0836939
0.0878373
0.149065
0.162604
0.160919
0.116618
0.196178
0.15621
0.17404
0.124342
0.119348
0.167076
0.125232
0.176061
0.169632
0.137655
0.177634
0.120002
0.101821
0.125703
0.109435
0.090452
0.0915174
0.174773
0.157799
0.165918
0.165757
0.145637
0.108199
0.11046
0.120652
0.122031
0.145729
0.135361
0.162578
0.126109
0.123361
0.134624
0.131536
0.117339
0.107762
0.135081
0.142457
0.134043
0.124534
0.123983
0.162126
0.106693
0.127782
0.152194
0.147212
0.128312
0.133115
0.120156
0.109352
0.114839
0.0972528
0.125052
0.156381
0.122121
0.107169
0.118118
0.130449
0.131872
0.164015
0.176506
0.174954
0.168259
0.117561
0.125805
0.122718
0.141117
0.0974571
0.163933
0.113366
0.0925539
0.0951928
0.230505
0.175148
0.200462
0.205267
0.210652
0.177052
0.108931
0.13802
0.167469
0.170989
0.171927
0.175802
0.135988
0.104854
0.103465
0.0980117
0.0961715
0.110598
0.0958707
0.117899
0.100171
0.105075
0.109356
0.116208
0.125874
0.124388
0.121619
0.127045
0.120076
0.134746
0.129635
SCALARS SignedDistance double 1
LOOKUP_TABLE default
1.76009
1.61847
1.23179
1.35221
1.65247
1.68017
2.81001
1.83934
2.04904
2.18929
2.07573
2.04072
1.78065
1.88862
1.51392
1.52232
1.61232
1.65269
1.63836
1.68316
1.40401
2.14985
1.92186
1.69736
1.93637
1.87823
2.10538
1.80036
2.22809
2.72692
1.3128
2.01899
1.8391
2.04172
1.36598
1.44149
1.90108
1.98761
1.9593
2.63276
2.13353
2.03655
1.69343
1.71171
1.65325
2.0944
1.8576
2.04486
1.56186
1.65617
1.78291
1.47854
1.69422
1.57005
1.4218
1.72838
1.52032
1.7834
1.34507
1.64368
1.49733
1.42547
1.95786
1.71346
1.94421
1.16191
1.44338
1.91595
1.42349
1.69932
1.22615
1.75615
1.49268
2.06175
1.66621
1.84855
2.17824
1.80508
1.57053
1.77943
1.69192
1.96458
1.92018
2.11762
2.10179
1.92405
1.99827
2.12611
1.54356
1.73662
1.66789
1.94848
1.93662
2.44725
2.10148
1.3933
1.84495
1.52036
2.16737
2.3469
1.95329
2.20505
2.65222
2.63159
2.64266
1.7171
2.05918
1.28136
1.06904
1.95933
1.51227
1.70397
1.58225
1.61369
1.29668
2.05393
1.81096
1.99409
1.80459
1.76505
1.81071
1.44963
1.43264
2.00458
1.69008
1.48864
1.55628
1.2862
1.74745
1.49265
1.448
1.9224
2.47441
2.35837
2.53715
2.01159
1.77538
2.61974
2.3877
2.44897
2.29524
2.35867
2.01212
1.99089
2.20343
2.06651
2.15753
1.82225
2.18944
2.08346
1.56415
1.90082
1.86545
2.40414
1.92944
2.37565
2.36136
2.47116
2.15148
1.75931
1.64853
1.41686
1.71768
1.79263
1.84819
1.79484
1.77294
1.71249
1.5571
1.67436
1.59567
2.12067
2.08545
2.19228
1.85355
1.95469
1.97397
1.9021
1.96944
1.86711
1.64406
1.6673
1.69874
1.57851
1.61214
1.51266
1.82775
1.69754
1.76692
1.76709
1.73218
1.6548
1.70142
1.81264
1.48672
1.53608
1.6553
1.59639
1.54935
1.64398
1.5442
1.44977
1.46779
1.51527
1.44061
1.44282
1.7866
1.83025
1.78832
1.55837
1.66299
1.68799
1.60156
1.61607
1.49245
1.44577
1.44836
1.45357
1.60322
1.75285
1.57225
1.48072
1.59414
1.43064
1.44302
1.54425
1.6638
1.5024
1.51448
1.56474
1.50996
1.59211
1.94831
1.88223
1.84137
1.58555
1.78964
1.80237
1.83482
1.79605
1.58429
1.5641
1.53976
1.47692
1.53086
1.62791
1.3113
1.38365
1.34644
1.29279
1.22291
2.01908
1.88157
1.47981
1.7005
1.78431
1.68222
1.51435
1.91021
1.67338
1.92596
1.3323
1.4489
1.51114
1.67873
1.48178
1.40922
1.2057
1.2573
1.15052
1.52239
1.38494
1.39129
1.55484
1.66105
2.07164
1.86877
1.87187
1.84131
2.08414
1.66734
1.47239
2.14966
2.07412
1.79707
1.95524
2.23905
2.06026
1.9633
1.53819
1.72249
1.6702
1.7655
1.59208
1.63754
1.77892
1.60543
1.75658
1.78454
1.69582
1.66288
1.82326
1.73088
1.8492
1.60154
1.58952
2.11666
2.0532
2.20134
1.84878
1.94558
1.82657
2.00471
2.00049
1.92474
1.7074
1.82278
1.84713
1.83351
1.77467
1.95781
1.91502
2.10039
2.04059
2.00227
1.98127
2.06427
1.9766
2.0626
2.05279
2.14472
2.05559
1.54172
1.51652
1.59962
1.76395
1.59297
1.67643
1.78197
1.63929
1.78039
2.13998
1.92674
1.93178
1.9892
1.96708
2.14791
2.0704
1.86693
1.92746
1.90072
2.26488
2.32946
2.16408
2.23442
2.24474
2.38184
2.28665
0.997585
1.35945
1.21793
1.80434
1.61434
1.62335
1.84012
1.69665
1.955
2.01083
2.05215
1.95535
2.0359
2.1778
1.91615
1.94115
2.54959
2.22685
2.43975
1.84433
2.10453
2.32521
2.22091
2.08382
2.04419
1.96472
2.71657
2.81365
2.80002
2.66362
2.83534
2.63951
2.40502
2.60337
2.4531
2.16618
2.40437
2.40106
2.03337
1.84097
1.57895
1.85918
2.11853
1.99222
1.87634
1.43617
1.27378
1.10435
1.19204
1.22559
1.2283
1.33972
2.0021
1.8058
1.90376
1.76144
1.75038
1.95402
1.49189
1.5808
1.31564
1.34938
1.24576
1.55309
1.35361
1.37171
1.24594
1.75977
1.62341
1.7996
1.31365
1.40913
1.47506
2.07471
2.01225
2.0592
1.91074
1.98405
2.08626
1.91376
1.92037
1.8062
1.85771
1.94556
1.70586
1.61157
1.80166
1.55754
1.92609
1.95141
1.89243
1.71336
1.76418
1.63021
1.37143
1.27596
1.29436
1.36121
1.59772
1.48382
1.66248
1.77387
1.94919
1.67362
1.919
1.73617
1.65633
1.41025
1.35175
1.39777
1.26456
1.80502
1.53093
1.76042
1.3093
1.38256
1.41343
1.48309
1.73606
1.73625
1.35636
1.36146
1.7871
1.5425
1.70722
1.59975
1.80398
1.29226
1.42803
1.91214
1.6598
1.70008
1.69059
1.99953
2.70999
2.69095
2.69604
2.07343
2.37778
2.22141
2.29233
2.4874
2.19904
2.07592
2.20426
2.02945
1.60154
1.49642
1.9406
1.74642
2.0096
1.88118
2.1168
2.69536
2.58583
2.438
2.49565
2.61275
2.4036
2.19431
2.18467
2.40259
2.17169
2.20083
2.34729
2.20861
2.58628
2.54111
2.44958
2.19685
2.33787
2.24626
1.65539
2.07651
1.91421
1.81517
1.93774
2.01697
2.18928
2.26657
2.21478
2.00606
2.33272
2.09901
2.09566
2.21065
1.95747
2.00391
2.08792
2.19546
2.29318
2.02967
2.10561
2.00092
1.617
1.88253
1.73939
1.66538
1.82388
2.14249
2.05962
2.17044
2.12224
2.07834
1.826
2.05654
2.02611
1.90599
1.96328
2.01755
2.15324
2.00951
1.24474
1.47252
1.35512
1.45153
1.65964
1.84262
2.02225
1.94928
1.94267
1.68795
1.97477
1.81677
1.86869
1.9837
2.01214
1.73027
1.87366
1.76236
2.59623
2.19201
2.43922
2.56117
2.49584
1.41304
2.014
1.71788
1.62453
1.8773
2.49643
2.49691
2.59257
2.34237
2.27632
2.17612
2.22411
2.42429
2.15459
2.55844
2.34558
2.14711
2.18034
2.76775
2.29805
2.51791
2.74498
2.70248
1.86387
2.25917
2.08198
1.97271
2.1121
2.48938
2.27936
2.36258
2.02951
1.87719
1.94578
1.85735
1.69059
1.84122
1.47682
1.65994
1.81502
1.83652
1.44497
1.53511
1.45104
1.38468
1.38169
1.67313
1.46967
1.55004
