# vtk DataFile Version 4.2
vtk output
ASCII
DATASET POLYDATA
POINTS 642 double
-1.15253 2.47045 -0.364769
1.26648 2.54333 -0.331486
-1.47764 -1.66009 0.0103984
1.16587 -1.51154 0.0755868
-0.0292252 -0.536391 1.55945
-0.0045499 1.77996 1.35626
-0.118213 -0.554469 -0.837896
-0.227816 1.9118 -1.55823
1.57585 1.23121 -0.894274
1.34913 0.744619 0.609149
-1.63843 1.0907 -1.12809
-1.37486 0.577982 0.679329
-1.50266 1.72561 0.198406
-0.703169 1.30458 1.232
-0.538321 2.42645 0.930444
0.563416 2.43065 0.912911
-0.0060845 2.82376 -0.183397
0.947641 2.55891 -1.11894
-0.934632 2.55133 -1.21436
-1.30471 1.62936 -1.66711
-1.91904 1.99934 -0.955306
-1.76473 0.858506 -0.269264
0.686655 1.35053 1.19985
1.57553 1.79471 0.191672
-0.691889 -0.196815 1.36933
-0.0434346 0.400565 1.60649
-1.41122 -0.736637 -0.313971
-1.45591 -0.844229 0.369498
-0.257841 1.12606 -1.57615
-1.11058 0.433363 -1.13333
2.04085 2.0582 -0.887174
1.21894 1.73614 -1.32486
1.23957 -0.719928 0.427988
0.646879 -0.214299 1.30412
0.656222 -1.35796 0.98531
-0.739238 -1.33708 0.925122
-0.0105868 -1.6229 0.0770642
-0.797119 -1.16046 -0.558614
0.607165 -1.16624 -0.510412
0.880889 0.277911 -0.931836
1.19127 -0.622531 -0.237554
1.70729 1.04241 -0.188946
-1.40743 2.1689 -0.0880451
-0.991169 2.0781 0.613739
-0.809061 2.47137 0.28045
-1.07461 0.963762 0.988927
-1.08077 1.56774 0.839326
-1.46772 1.21992 0.456727
-0.212539 2.11733 1.22834
-0.657859 1.91101 1.13367
-0.318521 1.59037 1.3308
-0.326111 2.81438 0.478002
-0.62737 2.70635 -0.272306
0.218021 2.12187 1.22834
0.00361005 2.56363 1.04445
0.745013 2.70914 -0.257116
0.320147 2.70263 0.444011
0.929339 2.46567 0.201134
-0.453715 2.95037 -0.736426
-1.08811 2.5836 -0.797478
1.20086 2.65261 -0.711787
0.463476 2.94588 -0.715993
-0.658402 2.23724 -1.45708
-0.0526734 2.61175 -1.07106
0.512719 2.24971 -1.32378
-1.66027 2.61333 -1.2711
-1.61322 2.35038 -0.656918
-0.91926 1.80474 -1.66922
-1.23988 2.16333 -1.6298
-1.78698 1.47041 -1.13794
-1.91062 1.88431 -1.66354
-1.5528 1.38504 -1.43552
-1.86455 1.92258 -0.322644
-1.76749 0.977247 -0.742133
-1.88617 1.43864 -0.593096
-1.74787 1.35103 -0.0831011
-1.61894 0.69745 0.22705
1.07472 2.0979 0.524391
1.50741 2.28147 -0.0539579
0.302932 1.6087 1.32313
0.642367 1.91952 1.08313
1.50262 1.30999 0.3977
1.13934 1.60814 0.750645
1.09674 1.03059 0.912268
-0.319845 0.817555 1.47344
-0.0148684 1.20969 1.4428
-1.08462 0.112393 1.03783
-0.656251 0.475284 1.37312
-0.0342462 -0.0966774 1.83303
-0.321386 0.128442 1.63716
-0.351899 -0.385997 1.57773
-1.55992 -0.318059 0.128553
-1.42248 -0.232126 0.559629
-1.51351 0.258264 -0.715062
-1.56789 -0.161147 -0.274586
-1.54727 -1.32146 0.222635
-1.49858 -0.88756 -0.00421784
-1.46437 -1.25407 -0.137067
-1.24514 1.20065 -1.51266
-1.42082 0.853529 -1.20761
-0.276808 1.54528 -1.63531
-0.94786 1.4185 -1.64259
-0.694048 -0.198218 -0.960964
-0.855084 0.933578 -1.46694
-0.17548 0.494485 -1.28426
1.18699 2.171 -1.32915
0.722601 1.86305 -1.44348
1.76046 2.55875 -0.544184
1.6821 2.63396 -1.23378
1.46846 1.50843 -1.14145
1.61856 1.94946 -1.22323
1.73136 1.60904 -0.917742
1.17995 -1.15175 0.257159
1.05575 -1.093 0.712454
1.12334 -1.63239 0.555584
1.03574 0.156336 0.988795
1.05358 -0.545567 0.885574
1.29584 -0.0556173 0.585755
0.268172 -0.967367 1.24186
0.690965 -0.83563 1.12801
0.288101 -0.411115 1.50738
0.407597 -1.64918 0.619739
0.769 -1.66311 0.0383192
-0.309631 -0.943107 1.25746
0.0101013 -1.35844 1.01627
-0.850967 -1.6354 0.0433869
-0.454609 -1.60008 0.586026
-1.22372 -1.65938 0.54089
0.412454 -1.48065 -0.327166
0.922528 -1.39139 -0.242689
-1.15682 -1.43561 -0.310142
-0.491919 -1.46083 -0.341832
0.280072 -0.902562 -0.690843
-0.0535538 -1.20633 -0.564811
-0.478942 -0.884474 -0.723422
0.948061 -0.990931 -0.370199
1.1302 -1.1125 -0.0605418
0.422921 -0.292756 -0.872823
0.698188 -0.737852 -0.634697
1.40773 0.495187 -0.595823
1.05668 -0.30049 -0.57852
1.32288 0.931128 -0.976482
1.25319 -0.746379 0.0904053
1.69881 1.15182 -0.593559
1.45573 0.173072 -0.198341
1.41709 -0.0373093 0.180856
1.5805 0.912614 0.212177
0.239581 0.140068 1.59728
0.630137 0.521051 1.32161
0.266445 0.866363 1.45809
-1.24766 -1.15261 0.698779
-0.773222 -0.858345 1.12799
-1.18424 -0.626805 0.850144
-0.930465 -0.711516 -0.704124
-1.21206 -1.01837 -0.446931
-1.25844 -0.334425 -0.674646
1.11955 1.25019 -1.2514
0.462209 0.821087 -1.34655
0.63129 1.42094 -1.47611
1.75172 1.45405 -0.0269449
1.85579 1.56607 -0.502213
2.00324 2.02347 -0.241975
-1.2747 2.35886 -0.253332
-1.11239 2.30428 0.0904992
-1.01039 2.46567 -0.120466
-1.27095 1.8955 0.396046
-1.21111 2.11206 0.259828
-1.49405 1.96918 0.0704036
-0.672401 2.46741 0.623287
-0.911118 2.29152 0.474434
-0.763801 2.26787 0.793419
-1.26084 0.742478 0.814064
-1.27205 1.10783 0.749566
-1.41122 0.875518 0.591318
-0.886336 1.45294 1.06391
-1.08293 1.29473 0.924986
-0.88965 1.14666 1.13099
-1.49753 1.48077 0.329155
-1.29266 1.40155 0.644948
-1.29673 1.65039 0.528761
-0.0835887 1.92729 1.34345
-0.274522 1.8684 1.29486
-0.127457 1.71379 1.35711
-0.612643 2.19027 1.0628
-0.443927 2.04499 1.21664
-0.367111 2.29326 1.12607
-0.511877 1.45503 1.29436
-0.481966 1.75575 1.24347
-0.680418 1.61304 1.17138
-1.05091 1.83249 0.737215
-0.862476 1.74064 0.99475
-0.840742 2.02891 0.928393
-0.714599 2.60395 0.0178149
-0.927103 2.58112 -0.329111
-0.432366 2.6086 0.725207
-0.595456 2.6792 0.409928
-0.345174 2.77085 -0.225126
-0.452282 2.71941 0.0957768
-0.169491 2.82251 0.141368
0.0785466 1.92933 1.34335
-0.00166124 2.1421 1.23952
0.306017 2.5564 1.0307
0.13619 2.38081 1.20927
0.392224 2.31083 1.14033
-0.132986 2.38013 1.2137
-0.292417 2.55364 1.03805
1.08338 2.60112 -0.314206
0.847606 2.59803 -0.0255866
1.15393 2.50949 -0.151256
0.172285 2.77939 0.142041
0.503952 2.69869 0.0845943
0.374865 2.76899 -0.200541
0.710018 2.44903 0.58134
0.611678 2.58438 0.358522
0.460171 2.60299 0.713416
-0.149333 2.69168 0.784013
0.163393 2.69142 0.781653
0.00680926 2.81837 0.491806
-0.850627 2.69259 -0.549473
-1.13202 2.5318 -0.545993
-0.225197 2.81698 -0.477883
-0.546802 2.81841 -0.516292
-1.03138 2.60444 -1.01793
-0.781025 2.76489 -0.769318
-0.690229 2.73936 -0.979106
1.2562 2.60307 -0.483928
0.98744 2.69565 -0.502577
0.717112 2.72615 -0.922139
0.867071 2.7473 -0.71566
1.09878 2.63749 -0.931257
0.619459 2.81458 -0.48271
0.205365 2.81856 -0.46021
-0.437984 2.04938 -1.5317
-0.117197 2.26002 -1.36318
0.128148 2.06063 -1.45408
-0.552481 2.61158 -1.14839
-0.370551 2.44797 -1.25896
-0.811235 2.4124 -1.35933
0.759166 2.40717 -1.22552
0.235861 2.44035 -1.20264
0.503459 2.59297 -1.08159
-0.0267074 2.80002 -0.693542
0.218205 2.74513 -0.896442
-0.27686 2.81351 -0.948256
-1.37521 2.47677 -0.765275
-1.34291 2.41692 -0.492113
-1.27584 2.52038 -1.24801
-1.36305 2.53704 -1.02901
-1.88458 2.28167 -0.795585
-1.66002 2.48206 -0.941184
-1.91455 2.32294 -1.1255
-0.602365 1.87516 -1.62217
-0.825558 2.02255 -1.59763
-1.30583 1.88101 -1.69785
-1.07802 1.96748 -1.6714
-1.12329 1.72411 -1.69393
-0.980517 2.21368 -1.56005
-1.11806 2.38939 -1.44045
-1.69838 1.24598 -1.14639
-1.68469 1.44221 -1.31944
-1.61056 1.2196 -1.25862
-1.91486 1.96598 -1.28582
-1.79606 1.69611 -1.3555
-1.88415 1.711 -1.08186
-1.45916 1.51938 -1.57923
-1.65991 1.64035 -1.5092
-1.54215 1.76218 -1.6467
-1.44128 2.37714 -1.49252
-1.56104 2.088 -1.72415
-1.8189 2.27259 -1.49102
-1.54457 2.26276 -0.372055
-2.01895 2.00405 -0.623297
-1.86613 2.23752 -0.452625
-1.64689 2.05228 -0.231295
-1.67014 1.8123 -0.086341
-1.69987 1.04814 -0.99171
-1.78792 1.24566 -0.947348
-1.83705 1.17486 -0.430776
-1.84054 1.21364 -0.677905
-1.78825 0.922219 -0.498012
-1.86235 1.46878 -0.876404
-1.92669 1.71577 -0.7723
-1.56992 0.997668 0.316404
-1.48942 0.614761 0.499734
-1.65376 1.54844 0.0463457
-1.62786 1.29789 0.171406
-1.70093 0.784404 -0.0353445
-1.69708 1.08065 0.0493535
-1.78471 1.13201 -0.191097
-1.91959 1.68532 -0.470869
-1.84214 1.40084 -0.332072
-1.78547 1.62296 -0.215931
1.23473 2.3645 0.0368746
1.36448 2.45468 -0.230943
0.785681 2.26433 0.740353
1.00609 2.30004 0.383109
1.57555 2.05005 0.0807914
1.31726 2.16736 0.196269
1.37107 1.94542 0.328145
0.117379 1.7188 1.35599
0.273175 1.8771 1.29031
0.668544 1.64738 1.13853
0.473948 1.77724 1.22799
0.488069 1.49033 1.27502
0.454157 2.0561 1.21132
0.60629 2.18003 1.01309
1.42592 1.02263 0.515751
1.32416 1.19069 0.649702
1.26548 0.860405 0.723539
1.38438 1.69918 0.446443
1.36574 1.45961 0.549432
1.54794 1.55068 0.293731
0.895681 1.19338 1.08007
1.12835 1.34546 0.838282
0.895399 1.49734 1.01381
0.83567 2.02715 0.854324
0.873757 1.77079 0.942969
1.12412 1.86158 0.651869
-0.165018 1.41652 1.39763
-0.0076428 1.57781 1.379
-0.51953 1.10242 1.36336
-0.341297 1.26201 1.39236
-0.0300314 0.761518 1.51966
-0.167272 1.00234 1.46948
-0.164418 0.563733 1.5548
-1.26429 0.366016 0.835838
-1.0753 0.546158 1.03629
-0.65467 0.119671 1.41031
-0.857972 0.307235 1.24671
-0.886692 -0.0706617 1.21979
-0.867496 0.746413 1.19298
-0.691946 0.926902 1.29734
-0.0361978 -0.377285 1.72103
-0.222281 -0.262394 1.82966
-0.164882 -0.474353 1.59958
-0.174233 0.257311 1.6433
-0.192621 0.0209558 1.75084
-0.0491421 0.141545 1.69085
-0.522885 -0.298878 1.49263
-0.344581 -0.128721 1.66489
-0.490618 -0.0158079 1.5487
-0.484619 0.637317 1.44333
-0.470984 0.264667 1.52397
-0.309059 0.402574 1.56626
-1.51696 0.183531 0.414738
-1.39938 0.243054 0.641595
-1.65117 0.27991 -0.0541752
-1.60082 0.20443 0.172193
-1.44072 -0.57699 0.464468
-1.51414 -0.306876 0.335744
-1.5058 -0.637889 0.250882
-1.60621 0.857607 -1.00263
-1.64965 0.667452 -0.758946
-1.48144 -0.517994 -0.276614
-1.54605 0.000975083 -0.468633
-1.43518 -0.364562 -0.453576
-1.66623 0.514294 -0.516969
-1.67481 0.392035 -0.288656
-1.71519 -1.64647 0.145574
-1.54752 -1.32758 0.0199545
-1.62408 -1.54688 -0.126042
-1.50145 -0.891231 0.166073
-1.51166 -1.09846 0.0956578
-1.48581 -1.07596 0.293255
-1.41803 -0.994273 -0.220279
-1.48171 -1.06933 -0.0663648
-1.46572 -0.835271 -0.158269
-1.57466 -0.274769 -0.0730992
-1.51291 -0.616571 -0.109793
-1.52533 -0.6555 0.0596057
-1.48774 1.1527 -1.34372
-1.55803 1.00564 -1.17394
[...]
POINT_DATA 642
SCALARS Mean_Curvature double 1
LOOKUP_TABLE default
0.355946
0.536288
2.49419
0.0886058
1.01959
0.531092
0.0196788
0.599477
1.13193
0.572637
1.07748
0.651863
0.494461
0.887834
1.95364
2.39215
0.708706
1.79532
1.57441
1.7187
-0.0816527
1.03441
0.798549
0.386156
0.501271
1.2501
1.08678
0.566971
0.788173
0.24461
3.7797
0.967366
0.936925
0.244623
0.262392
0.681506
0.709437
1.1037
1.47067
0.449286
1.08858
1.11782
0.404179
0.323972
0.0476773
0.48032
0.744383
0.658789
-0.199692
1.39392
0.531414
3.02291
0.199498
-0.282146
1.59623
0.421079
0.311147
0.594767
4.78244
-0.112568
0.639446
4.74741
0.307174
-0.0382737
0.547088
5.01908
-0.454213
0.774264
1.46076
0.694402
5.70725
1.3748
2.50732
1.1186
0.906119
0.837673
0.782988
0.425311
0.801235
0.590544
0.478392
0.798475
0.607099
0.573757
0.776312
0.980628
0.519789
0.453251
6.29989
1.07686
1.03848
0.896735
0.650442
0.932297
1.10759
0.716818
0.934395
1.60121
1.2373
1.20934
0.961382
0.712646
0.442297
0.450769
0.185727
1.3105
0.949431
3.76057
5.07824
1.02698
0.906143
0.797163
0.606359
0.234061
5.56492
0.573439
0.997183
0.776674
0.794135
0.566417
1.05155
0.864325
0.966939
0.418341
1.27935
0.738352
0.714719
3.7981
1.68934
1.29463
1.72717
1.48536
0.640224
0.668243
0.700885
0.929188
0.861219
0.364581
0.800095
0.473369
0.963003
0.992656
0.990765
1.13117
1.03054
0.824823
0.875393
1.04038
0.412587
0.806361
0.712218
1.0093
0.76098
0.774836
1.17714
0.874997
0.682333
0.673582
0.889699
0.858318
0.359659
4.33593
0.490387
0.319301
0.241202
0.562804
0.605531
1.41247
0.414015
0.528779
0.920573
0.514833
0.596566
0.33756
0.72719
0.734154
0.780482
0.679241
0.593197
0.612419
3.19625
0.554654
0.977168
2.1647
2.21402
0.549781
0.789384
0.423038
0.625629
0.523266
0.431821
1.69914
0.292374
0.193463
0.621515
2.52914
-0.0382188
-0.165048
1.24854
3.2156
-0.739964
3.55154
3.4309
2.21274
3.90292
3.78209
0.139818
0.409055
0.446621
0.410997
0.471064
0.00886869
0.702215
0.303887
1.69392
1.12106
1.54282
2.16471
0.913642
0.304576
-0.00644712
0.89404
0.885785
2.00033
1.90826
0.66973
0.939798
1.36091
1.33902
0.771312
0.788793
-0.184146
0.711795
0.32165
0.639051
0.84634
0.328071
0.748143
0.646875
0.214495
0.99741
0.153344
0.547334
2.49556
-0.0611254
0.408613
1.37252
0.61417
2.73728
1.98822
3.27599
0.989487
0.493108
1.4813
1.55974
1.61765
1.62912
1.3466
0.996452
1.0037
1.04868
1.45728
0.652047
0.940445
1.70833
1.37025
1.32528
1.44285
3.5481
3.25253
0.356804
4.00255
4.67729
0.0158119
0.539849
1.13081
1.06265
1.19954
1.04903
1.14784
0.690962
0.436127
0.483554
0.743636
0.624536
0.745143
0.293168
0.802573
0.992797
1.54468
1.15747
0.361757
0.4491
0.274402
0.826102
0.501259
0.383157
0.353596
0.56692
1.04133
0.672345
0.572105
0.632615
0.699717
2.9859
0.604933
0.768882
0.776772
0.316707
0.663993
0.691276
0.619481
0.786237
0.655517
0.661784
0.627238
0.656567
0.721048
0.944093
0.449924
0.982915
0.835481
0.789949
0.805382
0.654288
0.59536
0.565093
0.394923
0.598778
0.563238
0.374626
0.672004
4.21157
6.92061
0.821953
1.35481
3.16858
1.15272
1.13087
0.697438
0.981624
0.519507
0.889033
1.07888
0.665936
0.597126
0.838451
0.624495
0.741298
0.850287
0.911133
1.14951
1.08878
1.06315
1.03938
0.989689
0.388207
0.89853
7.14006
0.621981
7.78013
0.777725
0.858107
0.46979
1.06824
1.0184
1.06945
1.01012
1.13555
1.07082
1.21217
1.12963
1.57132
1.43356
1.09191
1.20146
1.02272
0.80821
1.07828
0.914929
1.02724
0.880586
1.13091
1.55064
0.230106
0.0150599
0.0170463
0.498408
-0.0277346
0.643487
0.718234
0.612316
0.799064
1.26668
0.459604
0.895888
0.866256
0.714292
1.81444
0.41905
0.397063
0.223945
1.16652
0.271674
0.90636
3.82939
3.25381
3.38282
1.06866
2.0263
1.07306
1.03591
1.09164
1.18767
1.10438
1.03585
0.133202
0.817084
2.11479
1.10258
4.46809
1.07843
0.479476
0.52524
7.51659
1.12327
0.351953
0.865578
4.68095
-0.40252
3.00686
0.66014
0.664796
0.749256
0.97587
0.616925
0.576258
0.78648
0.731497
1.02805
1.15176
0.10992
0.919121
0.123011
0.578779
0.543067
0.98003
0.788305
0.966523
0.598192
0.921029
1.79191
-0.10374
7.13121
5.19309
0.974264
0.554435
0.4776
0.478971
1.33284
0.474141
1.15157
0.321595
0.998562
0.963558
1.77817
0.91034
0.28373
1.64867
0.583846
0.426603
0.743094
5.80642
1.52739
1.91506
0.968809
1.08098
0.624218
5.38217
3.74898
1.15603
1.47842
1.67951
1.59143
1.86739
6.1576
2.27754
1.52116
1.62313
1.84927
1.09736
0.718013
0.438706
0.20087
0.418878
1.58875
0.819497
0.940327
0.793755
0.702131
0.839284
1.54652
0.917292
1.74835
1.46987
1.04111
1.01416
1.46304
0.984638
0.936033
0.994137
0.317536
0.562617
0.656781
0.607388
0.385891
0.755021
0.856138
1.14918
1.03451
1.06678
1.07714
0.88379
0.955666
0.483705
0.683022
0.740918
0.874781
0.950576
0.989642
0.728703
1.062
0.913217
0.863284
0.970248
1.15853
1.2299
0.877523
1.21091
1.15726
0.931053
1.0826
0.863954
0.294172
0.924864
0.870096
1.01795
0.893474
0.571575
1.08228
1.0196
0.997664
1.07914
1.03179
0.975343
1.16461
1.18645
0.555742
0.695228
0.386043
0.554599
0.340528
0.924652
0.579741
0.833033
0.825842
0.899004
0.75522
0.595648
0.843806
5.01727
0.0137878
1.26959
2.2007
0.351508
1.34783
0.265515
0.926908
0.809012
0.960662
0.565917
0.694839
0.730948
0.513944
0.61765
0.371046
0.738756
0.578288
0.54345
0.859616
0.791887
0.606448
0.851381
1.25853
1.06306
1.44888
1.99371
1.29596
1.12906
0.984241
0.789944
1.03316
0.976783
0.9734
1.04294
0.890352
1.0032
0.501812
0.913727
0.967219
0.790489
0.0192264
0.769568
0.619029
-0.024406
0.0201677
0.907415
0.625451
0.958398
0.929513
0.839789
0.681096
0.801956
0.755257
0.869356
1.0877
0.954168
0.784241
0.667501
1.01369
1.78369
0.399819
0.908782
0.966882
-0.0748762
1.72647
3.53147
0.872332
1.9115
0.420316
1.52845
3.23957
SCALARS CoVolArea double 1
LOOKUP_TABLE default
0.0421117
0.0277575
0.0448159
0.0307886
0.0290642
0.0203246
0.0739345
0.0629873
0.0196783
0.0503463
0.0229012
0.0581626
0.0853132
0.0759373
0.0776601
0.0805937
0.113228
0.0859796
0.0834472
0.0461995
0.0994229
0.0938291
0.0813846
0.0698212
0.0872701
0.0424743
0.0444496
0.0532734
0.107099
0.101677
0.0901774
0.043461
0.0521115
0.0902137
0.0802075
0.0781633
0.109622
0.0494473
0.0417972
0.14028
0.0576067
0.0639226
0.0892085
0.0971452
0.102824
0.104659
0.0879886
0.0916809
0.054405
0.0706164
0.0572634
0.104755
0.0912671
0.0563158
0.0796637
0.0971962
0.104661
0.0976728
0.0996162
0.0799568
0.0718114
0.11818
0.101512
0.122742
0.112805
0.119183
0.0863333
0.0534767
0.0805781
0.0606667
0.111693
0.0446297
0.0845034
0.0802503
0.0701081
0.0665615
0.116587
0.10118
0.0783442
0.0554053
0.0702565
0.0638617
0.0940154
0.10786
0.0782881
0.062953
0.122669
0.094081
0.0496404
0.0468343
0.0667666
0.0939956
0.100696
0.103291
0.0944832
0.065874
0.0372386
0.0442243
0.0426886
0.0654661
0.0997177
0.0437048
0.13592
0.0884509
0.194729
0.0571672
0.081226
0.0895126
0.120643
0.0393533
0.060359
0.0439303
0.0398177
0.0690415
0.0949797
0.112672
0.0743784
0.100001
0.0664602
0.0678998
0.0658506
0.113465
0.0854945
0.0835166
0.0870956
0.0959535
0.109749
0.102161
0.0718598
0.0463194
0.0636161
0.0821341
0.0603695
0.0723967
0.0661765
0.0419204
0.0354374
0.125882
0.0563181
0.104119
0.0931848
0.076062
0.0407113
0.0557012
0.103199
0.100412
0.0778012
0.0522911
0.109758
0.0806876
0.0752147
0.0758434
0.082808
0.063335
0.0450335
0.0862006
0.0691583
0.144883
0.0942804
0.052002
0.0593917
0.0888893
0.073262
0.103315
0.085968
0.09967
0.101569
0.0866578
0.0870869
0.0981009
0.0838867
0.093486
0.0986326
0.0867484
0.0772813
0.08821
0.0880485
0.0830322
0.091974
0.0950089
0.0376044
0.0520223
0.0392809
0.072644
0.0610948
0.0653809
0.0660427
0.0609154
0.069237
0.0958861
0.0807787
0.0845892
0.0998601
0.076342
0.0892586
0.0977277
0.0967497
0.101872
0.112909
0.0381942
0.0521786
0.081093
0.0659934
0.0681949
0.0643967
0.0787532
0.0603517
0.0967596
0.0636678
0.115317
0.109637
0.111397
0.092961
0.102384
0.0914878
0.0949544
0.0958074
0.1099
0.0810733
0.065383
0.0990544
0.0850695
0.0792518
0.0838817
0.0939797
0.049514
0.0752044
0.105666
0.0891034
0.0802659
0.102169
0.113018
0.0962217
0.137615
0.112793
0.104276
0.121773
0.0873628
0.0895119
0.127048
0.111153
0.112875
0.121826
0.114256
0.07787
0.0632552
0.0884641
0.0848945
0.0978846
0.0962738
0.117069
0.0676345
0.0696131
0.066348
0.0570902
0.0432351
0.0707862
0.0800653
0.0388123
0.0484237
0.0338748
0.109423
0.0752203
0.0804503
0.0460987
0.0616409
0.0753874
0.112526
0.113403
0.137995
0.0809703
0.098225
0.0934897
0.0801084
0.0754594
0.0529175
0.060021
0.0650653
0.0665641
0.0866938
0.0704
0.0866232
0.0925033
0.0967551
0.0723569
0.075112
0.105238
0.0798027
0.0691603
0.0818646
0.0668881
0.0726559
0.0829125
0.0553853
0.0907279
0.0981592
0.0770769
0.0887471
0.0890056
0.0389998
0.051788
0.0712288
0.0595027
0.0655368
0.0613068
0.0738951
0.0625763
0.0845798
0.0863314
0.0836642
0.0798128
0.0621323
0.0971214
0.0940678
0.0874642
0.09082
0.0881613
0.100738
0.0588513
0.0415996
0.0833086
0.0717938
0.0592636
0.0693679
0.0557054
0.101457
0.119584
0.0834267
0.112817
0.106823
0.109512
0.0935746
0.044795
0.0568564
0.0519286
0.0401868
0.0449515
0.0380319
0.0716106
0.0550787
0.0612958
0.085542
0.0659327
0.0589305
0.122933
0.0993253
0.123203
0.126534
0.0685066
0.095914
0.0598626
0.064795
0.097307
0.0596619
0.0985811
0.0751541
0.109412
0.118834
0.0770318
0.0559873
0.0609871
0.0433459
0.0409343
0.0502506
0.0363915
0.0358171
0.0378572
0.096486
0.0550437
0.0553537
0.0438044
0.0448815
0.0384411
0.040874
0.0797026
0.0495031
0.0635365
0.0902132
0.0716373
0.0752518
0.0664595
0.0961597
0.0429453
0.0358667
0.126925
0.19945
0.185222
0.0937692
0.143797
0.11941
0.124493
0.145638
0.0940418
0.0403111
0.0575528
0.0555958
0.0882009
0.0956352
0.0688427
0.0668009
0.0558001
0.0564711
0.0478383
0.0537157
0.0749346
0.121317
0.112185
0.105313
0.0891238
0.0837045
0.0318299
0.0387271
0.0316007
0.0440774
0.0415214
0.0385492
0.0592262
0.049219
0.0812441
0.0863769
0.104355
0.0643398
0.0392536
0.0647388
0.07022
0.0570806
0.0550336
0.0407396
0.094515
0.0780216
0.0777269
0.0952826
0.0992037
0.0907227
0.0848818
0.0885504
0.101998
0.0733235
0.0795773
0.0653568
0.0567878
0.0674267
0.0500681
0.0668167
0.0633748
0.0631282
0.0737772
0.0703332
0.078083
0.0705879
0.0748897
0.0724911
0.0976718
0.0691482
0.102208
0.106549
0.0945157
0.103914
0.113988
0.0628914
0.0803107
0.0850724
0.0856412
0.0745728
0.0744101
0.0793406
0.0732791
0.100099
0.0790271
0.114165
0.106756
0.104414
0.101658
0.10869
0.0967709
0.103113
0.105835
0.117219
0.0635569
0.0448072
0.0929061
0.0710907
0.0414691
0.0539027
0.0537228
0.0639088
0.078043
0.0624688
0.067233
0.0531282
0.0868639
0.101001
0.070393
0.0736531
0.0731338
0.0564438
0.0636264
0.0457765
0.0526052
0.0680515
0.0632961
0.0924982
0.0807076
0.0761436
0.0395562
0.0335389
0.0390902
0.0382768
0.0395134
0.0379352
0.047979
0.118586
0.0729259
0.0960533
0.0744001
0.134175
0.0505344
0.0423893
0.0558429
0.0884927
0.0447976
0.0728953
0.103618
0.0934294
0.107611
0.108185
0.114182
0.0487957
0.0755555
0.0603464
0.0339506
0.0478262
0.0339388
0.0327634
0.0419886
0.0391304
0.0786943
0.0903607
0.0845076
0.059015
0.108123
0.0832652
0.106483
0.0733628
0.0672259
0.101256
0.0688015
0.104852
0.0997093
0.0732604
0.101372
0.0659348
0.0532682
0.0718215
0.0573767
0.0452835
0.0432569
0.121529
0.103988
0.117859
0.119571
0.0974005
0.0567476
0.0578331
0.0672949
0.0688808
0.0872541
0.0793648
0.0985356
0.0667342
0.0877192
0.0839974
0.0900495
0.0687931
0.061634
0.0730401
0.0897578
0.0766726
0.0709579
0.0686438
0.110655
0.0662358
0.0842746
0.104757
0.099074
0.0769139
0.0854006
0.0735302
0.0807286
0.0479363
0.0567345
0.0858043
0.0983811
0.0568273
0.0425342
0.0420598
0.0497036
0.0463895
0.0864258
0.103117
0.0955498
0.0922724
0.060584
0.0530905
0.0577751
0.078825
0.0476489
0.113079
0.0672677
0.0460984
0.0502682
0.188106
0.119183
0.155102
0.169404
0.161532
0.105933
0.0638344
0.0839501
0.103522
0.109615
0.116693
0.112605
0.0818949
0.0601139
0.0505821
0.0517816
0.0520276
0.0593948
0.0449505
0.0696246
0.0518244
0.0516541
0.0527139
0.0772964
0.0764022
0.0854682
0.0912755
0.0890374
0.0591516
0.0774399
0.0711671
SCALARS SignedDistance double 1
LOOKUP_TABLE default
1.37451
1.31166
0.0132897
0.384124
1.24168
0.373817
2.08379
1.22323
1.46975
1.5591
1.56985
1.40524
1.17677
1.21232
0.0545774
0.0394674
0.380102
1.51528
1.51973
1.48667
0.106032
1.71109
1.22508
1.16836
1.49913
1.41527
1.43703
1.23139
1.6407
2.17407
0.00348694
1.63829
1.16981
1.54443
0.486399
1.19632
1.60711
1.64256
1.63131
1.95389
1.33378
1.48413
1.17556
1.08117
1.11422
1.50042
1.25057
1.47148
0.320875
0.22267
1.14831
0.0301689
1.28434
0.321886
0.0461992
1.36711
0.258352
1.28072
0.0452339
1.44671
1.33339
0.0267166
1.63868
1.29089
1.41218
-0.0319739
0.84548
1.70048
1.27322
1.28107
-0.0152614
1.47168
0.129217
1.589
1.18861
1.34156
1.61994
1.16724
0.578122
1.01904
0.68402
1.32753
1.27276
1.5209
1.43455
1.2963
1.30877
1.50886
0.0571833
1.26779
1.21529
1.29345
1.25007
1.86873
1.43399
0.674186
1.32082
1.22959
1.77255
1.82734
1.37866
1.87273
1.95843
2.06198
2.06603
1.5229
1.484
0.0224735
-0.0379269
1.48063
1.2356
1.22613
1.23135
0.713945
0.0112374
1.34505
1.18463
1.2646
1.44828
1.24511
1.35264
0.26864
0.0753615
1.73289
1.46478
0.915935
1.25313
0.0216889
1.43382
1.24694
1.18923
1.62802
1.91381
2.03112
1.86622
1.50966
1.36529
1.89573
1.66456
1.8867
1.59308
1.77545
1.25634
1.40247
1.55075
1.34999
1.57779
1.30122
1.50168
1.38921
0.37179
1.44008
1.21914
1.72078
1.51568
1.58671
1.8176
1.89191
1.56246
1.19932
1.12921
-0.00254056
1.28348
1.27024
1.32881
1.16086
1.13637
0.433964
0.222715
0.727976
0.242286
1.48565
1.51737
1.58737
1.20817
1.33907
1.34703
1.29991
1.39346
1.26408
0.107423
0.520144
0.409897
0.1022
0.122336
0.117432
1.15789
0.665117
0.912332
1.09398
0.891923
0.179404
1.1963
1.42816
0.0582297
0.0670514
1.1493
0.62965
0.123981
0.105282
0.50989
0.00216473
0.0314723
0.0180809
0.0599474
0.00681299
1.473
1.35781
1.40228
0.706409
0.861305
1.19576
0.379574
0.688286
0.0572887
0.0537586
0.0505367
0.038552
1.31738
1.41238
1.14186
1.06975
1.46838
1.0414
1.18256
1.31112
1.35861
1.19646
1.1967
1.44408
1.14042
1.16764
1.42037
1.3005
1.21558
1.31033
1.40226
1.63563
1.55884
1.30049
1.23794
1.14964
1.14724
0.332254
1.23726
1.22807
1.2037
1.22189
0.00414186
0.343145
0.0259682
1.53225
1.70312
1.3325
1.49893
1.57796
1.52605
1.38638
1.45119
1.37643
1.51703
0.035768
1.16355
0.460153
1.44628
1.24139
1.20966
1.07294
0.181892
0.0157037
0.511993
-0.00831682
0.0404204
0.666515
0.612146
1.57135
1.3946
1.41389
1.37569
1.62533
1.19334
0.26253
1.61284
1.45695
1.22759
1.39679
1.74433
1.54697
1.49534
0.138327
1.23246
1.13988
1.3299
1.21787
0.55368
1.2026
0.811603
1.25181
1.02008
0.386281
0.472572
1.16213
0.582877
1.16326
0.0929634
0.257358
1.5312
1.44051
1.58944
1.21332
1.27874
1.22615
1.36249
1.37231
1.26474
1.13004
1.20251
1.17871
1.2
0.85768
1.31414
1.25774
1.46965
1.33966
1.50392
1.30317
1.39658
1.4622
1.38042
1.41755
1.47096
1.42004
0.254684
0.0301618
1.16239
1.30343
0.419673
1.20268
1.34751
1.15953
1.32394
1.50779
1.43951
1.44933
1.31922
1.2693
1.53125
1.40559
1.09729
1.2766
1.18177
1.73982
1.85751
1.40698
1.60544
1.46664
1.88781
1.71487
-0.0355364
1.16121
0.113506
1.27914
1.29884
1.2365
1.4152
1.35872
1.36546
1.29979
1.33525
1.26077
1.62418
1.65996
1.63425
1.62043
2.02247
1.77107
1.92697
1.25013
1.64348
1.7847
1.72211
1.49868
1.78336
1.69176
1.99537
2.11103
2.02863
2.12109
2.18894
2.04374
1.82571
2.03234
1.87684
1.80733
1.95204
1.93364
1.49494
1.0996
1.47028
1.67489
1.70302
1.69925
1.58181
1.16182
0.736911
-0.0123498
-0.0368288
0.0580504
1.14349
1.20477
1.45919
1.35218
1.36608
1.46322
1.38609
1.54331
1.12336
1.21369
0.234753
1.23838
0.118012
1.34492
0.975599
0.50187
-0.0402418
0.585394
1.15923
1.20056
0.0341619
0.600943
0.0408908
1.39397
1.29274
1.38966
1.37128
1.34093
1.41598
1.25654
1.25597
0.955836
1.49141
1.54204
1.26612
1.16287
1.30867
1.21643
1.46531
1.45643
1.40351
0.768023
1.14242
0.309134
0.0562578
-0.0975763
0.00313093
0.0311639
1.2232
0.149161
1.34457
1.42153
1.64414
1.46427
1.70985
1.50095
1.41405
0.866305
0.0303634
0.0628483
0.0184416
1.53799
1.18909
1.45001
-0.0282128
0.044356
0.53263
1.22691
1.50704
1.45969
0.0789593
0.273782
1.46373
0.950166
1.43862
1.25112
1.51133
-0.0131414
0.440833
1.60887
1.3748
1.45579
1.36611
1.71399
2.03684
2.07588
2.02217
1.76579
1.97947
1.80485
1.74314
1.91972
1.79171
1.79072
1.86691
1.73759
1.27592
1.17642
1.5881
1.44311
1.36338
1.44634
1.41348
1.99045
1.87523
1.7591
1.78177
1.91121
1.77513
1.6849
1.58991
1.85508
1.58003
1.4444
1.66474
1.48797
2.0194
1.89791
1.77052
1.58766
1.61937
1.48775
1.29877
1.27623
1.31799
1.27175
1.21165
1.43155
1.61251
1.74738
1.68268
1.43968
1.70828
1.36412
1.46414
1.63579
1.25578
1.30365
1.52366
1.58879
1.72311
1.26528
1.40769
1.25553
0.496304
1.38056
1.20664
0.821778
1.31883
1.46704
1.41705
1.51177
1.43596
1.50962
1.18273
1.50903
1.35007
1.24318
1.2994
1.48125
1.45489
1.48613
-0.0294752
0.73188
0.0884259
0.535331
1.17544
1.48546
1.59944
1.59214
1.59468
1.33
1.2815
1.14807
1.19687
1.36912
1.47404
1.18317
1.29343
1.13167
1.89049
1.64978
1.75973
1.82536
1.76999
1.14731
1.46808
1.41779
1.37515
1.57239
1.9859
1.85626
2.02223
1.66472
1.51492
1.61083
1.54786
1.65513
1.59116
1.99001
1.76767
1.63
1.70479
2.02066
1.70912
1.96135
2.05737
2.05883
1.2232
1.72921
1.50183
1.35047
1.50157
1.91086
1.6857
1.79635
1.42138
1.32475
1.36779
1.27192
0.969789
1.27124
0.283029
1.07001
1.24364
1.27963
0.486316
0.100385
0.0229883
0.0164619
0.0468896
1.12369
0.223456
0.109917
