# vtk DataFile Version 4.2
vtk output
ASCII
DATASET POLYDATA
POINTS 642 double
-1.07796 2.32205 -0.403044
1.22318 2.40432 -0.377527
-1.45669 -1.66008 0.00100277
1.13914 -1.48045 0.0646517
-0.0434264 -0.395445 1.41796
-0.00415263 1.76564 1.33874
-0.129559 -0.410945 -0.512289
-0.24451 1.86517 -1.4245
1.35842 1.34771 -0.707076
1.10106 0.759431 0.451541
-1.40226 1.21989 -0.937085
-1.16 0.568574 0.529936
-1.40343 1.69825 0.136669
-0.623163 1.2824 1.09796
-0.54871 2.42008 0.925425
0.578079 2.42268 0.906187
-0.00224273 2.79964 -0.188139
0.934415 2.36319 -0.916858
-0.91332 2.32351 -1.05765
-1.2601 1.72151 -1.35166
-1.91413 1.99224 -0.946264
-1.44941 0.911027 -0.292851
0.600947 1.3263 1.06263
1.48878 1.77359 0.108635
-0.52677 -0.166538 1.1585
-0.0487437 0.304137 1.31863
-1.15514 -0.654884 -0.137952
-1.29799 -0.823443 0.341793
-0.266743 1.21863 -1.28179
-0.975806 0.590974 -0.811544
2.03873 2.03039 -0.873744
1.11808 1.76739 -1.03616
1.14715 -0.691146 0.415552
0.492056 -0.18936 1.09642
0.643146 -1.3263 0.957742
-0.716907 -1.28871 0.800134
-0.00301454 -1.4126 0.149801
-0.719758 -0.988336 -0.234873
0.500372 -1.02038 -0.197116
0.726516 0.402096 -0.632108
0.97565 -0.535457 -0.101314
1.40749 1.13505 -0.203814
-1.34369 2.0962 -0.13423
-0.93065 2.03719 0.571307
-0.760531 2.40293 0.249284
-0.89097 0.9297 0.790862
-0.942409 1.53329 0.721885
-1.24614 1.1798 0.322499
-0.20918 2.09577 1.22016
-0.655525 1.89501 1.12164
-0.289735 1.57676 1.23861
-0.329268 2.81172 0.469204
-0.572902 2.58046 -0.284212
0.213903 2.10024 1.21771
0.0041023 2.56153 1.04182
0.686034 2.54867 -0.287298
0.320364 2.6897 0.433249
0.844544 2.33532 0.141513
-0.456406 2.9473 -0.727216
-1.0228 2.39484 -0.785562
1.1635 2.46856 -0.684266
0.460757 2.94453 -0.715316
-0.669973 2.10687 -1.24862
-0.0624396 2.50941 -0.946966
0.476309 2.13833 -1.12956
-1.62868 2.61252 -1.25759
-1.58623 2.30734 -0.654329
-0.91476 1.78994 -1.34036
-1.29577 2.06931 -1.40742
-1.63621 1.54546 -1.04135
-1.8982 1.83776 -1.65876
-1.39613 1.52185 -1.19686
-1.83354 1.90097 -0.315552
-1.4746 1.07882 -0.658105
-1.71184 1.48934 -0.588806
-1.53343 1.35928 -0.161473
-1.33964 0.706465 0.134988
1.0014 2.04093 0.462283
1.47056 2.25546 -0.0709922
0.276628 1.59656 1.24827
0.62137 1.8987 1.04768
1.29032 1.29797 0.267169
0.994394 1.57272 0.612763
0.90084 1.0092 0.709088
-0.253969 0.776118 1.18887
-0.0166637 1.19732 1.22255
-0.92398 0.123366 0.869386
-0.510187 0.450139 1.11868
-0.0120287 -0.0840274 1.80957
-0.228316 0.072604 1.44837
-0.234287 -0.30371 1.44959
-1.30802 -0.27912 0.11222
-1.27767 -0.207086 0.488748
-1.22574 0.387418 -0.523172
-1.26467 -0.0818242 -0.183066
-1.48204 -1.30075 0.234359
-1.27619 -0.854824 0.0576121
-1.28968 -1.30585 0.0057821
-1.13079 1.34724 -1.19611
-1.21837 1.01441 -0.930278
-0.285535 1.57094 -1.38423
-0.901668 1.50114 -1.2997
-0.627569 -0.0535671 -0.628877
-0.777909 1.07868 -1.13483
-0.190446 0.632037 -0.954321
1.16593 2.11437 -1.04181
0.631803 1.82782 -1.19647
1.73611 2.55375 -0.515046
1.64033 2.61181 -1.21715
1.31614 1.59318 -0.904967
1.5589 2.00485 -1.04906
1.6062 1.66625 -0.804008
1.03206 -1.13671 0.279123
1.02333 -1.07272 0.702971
1.12843 -1.62574 0.5562
0.866018 0.172052 0.821709
0.952813 -0.526278 0.806312
1.14634 -0.0184061 0.515135
0.221739 -0.853765 1.04383
0.62683 -0.787558 0.984022
0.162991 -0.322465 1.33304
0.395605 -1.62306 0.603662
0.754015 -1.65883 0.045049
-0.253474 -0.801811 1.0368
0.0242651 -1.22164 0.845844
-0.86797 -1.52656 0.0911356
-0.461287 -1.46309 0.545779
-1.22023 -1.65944 0.536129
0.393694 -1.27825 -0.0919118
0.813572 -1.34326 -0.0541743
-1.09656 -1.37144 -0.0808785
-0.483947 -1.22019 -0.0988455
0.218718 -0.748158 -0.362659
-0.0591093 -1.01061 -0.245655
-0.438738 -0.723162 -0.395118
0.750414 -0.889092 -0.133218
0.920816 -1.08588 0.0621345
0.334124 -0.166464 -0.554086
0.558732 -0.608348 -0.332117
1.11947 0.625665 -0.411875
0.840771 -0.181271 -0.327789
1.11116 1.0668 -0.718699
1.07755 -0.688249 0.123245
1.44152 1.26554 -0.50265
1.13462 0.26719 -0.120904
1.16137 0.025185 0.160089
1.29189 0.953341 0.118037
0.137468 0.094264 1.38898
0.475641 0.506908 1.06843
0.196445 0.836145 1.17597
-1.22817 -1.1365 0.690957
-0.662273 -0.779649 0.919517
-1.05165 -0.600424 0.725107
-0.80381 -0.564372 -0.386116
-1.0092 -0.910996 -0.160133
-1.04045 -0.200512 -0.41283
0.970027 1.34543 -0.969096
0.367481 0.952793 -1.03509
0.545444 1.46604 -1.20524
1.59852 1.50455 -0.0873142
1.77731 1.58557 -0.487358
2.00307 2.01036 -0.228853
-1.20192 2.23492 -0.302226
-1.02735 2.1956 0.0356234
-0.928645 2.32767 -0.165835
-1.18905 1.8557 0.336431
-1.14541 2.05668 0.213017
-1.46559 1.95815 0.0640803
-0.672234 2.45374 0.610794
-0.884602 2.25958 0.4469
-0.760627 2.2534 0.780049
-1.0564 0.714819 0.634299
-1.06631 1.06432 0.58155
-1.18148 0.842711 0.446556
-0.789092 1.42786 0.951345
-0.914742 1.25628 0.761878
-0.742927 1.11833 0.943745
-1.31411 1.44415 0.214704
-1.104 1.35547 0.50095
-1.15265 1.60845 0.422702
-0.0825934 1.90885 1.33947
-0.260166 1.85077 1.26736
-0.121269 1.70247 1.33848
-0.615494 2.17735 1.05512
-0.438672 2.02931 1.21204
-0.371517 2.27898 1.12415
-0.47758 1.43486 1.2122
-0.465776 1.74024 1.21206
-0.653707 1.59443 1.12343
-0.985861 1.80263 0.684446
-0.83174 1.72063 0.955513
-0.84735 2.01656 0.919222
-0.658883 2.50392 0.00297852
-0.851802 2.42159 -0.358392
-0.43723 2.60574 0.719702
-0.608037 2.66524 0.393183
-0.324172 2.6931 -0.230656
-0.445737 2.68874 0.0853506
-0.165667 2.81638 0.129296
0.0775339 1.91097 1.33948
-0.00108583 2.11517 1.21717
0.313343 2.5562 1.02973
0.137335 2.36288 1.21215
0.402442 2.2989 1.14945
-0.133793 2.35896 1.21251
-0.299949 2.5524 1.03721
1.02674 2.43934 -0.359237
0.774231 2.44648 -0.0691408
1.09153 2.36137 -0.214546
0.159931 2.72256 0.131602
0.480203 2.62113 0.0682844
0.350244 2.65774 -0.216419
0.70767 2.43085 0.561445
0.598455 2.54841 0.33799
0.468064 2.60319 0.701911
-0.14949 2.68967 0.778115
0.164921 2.68956 0.773649
0.0117107 2.81664 0.482558
-0.767672 2.51597 -0.562728
-1.06098 2.36766 -0.565385
-0.213395 2.71109 -0.491862
-0.498753 2.69363 -0.535311
-0.976659 2.37505 -0.941389
-0.668898 2.57855 -0.739724
-0.610814 2.5558 -0.868578
1.21721 2.44982 -0.514032
0.927078 2.5262 -0.517615
0.657985 2.56337 -0.796759
0.771322 2.57885 -0.67736
1.07238 2.42992 -0.821517
0.569129 2.67375 -0.508528
0.204108 2.71266 -0.474229
-0.442547 1.9578 -1.3337
-0.13147 2.14333 -1.19905
0.0995358 1.98969 -1.32922
-0.520831 2.46465 -0.996675
-0.374236 2.31856 -1.09715
-0.818689 2.23129 -1.15856
0.738904 2.27125 -1.01057
0.22137 2.32472 -1.04875
0.481722 2.4562 -0.927431
-0.00750242 2.68338 -0.677384
0.181579 2.62128 -0.800159
-0.260896 2.75049 -0.921842
-1.33669 2.34064 -0.773063
-1.2841 2.29364 -0.514045
-1.30541 2.32474 -1.15936
-1.35654 2.35868 -1.02024
-1.88377 2.28177 -0.785614
-1.6264 2.40094 -0.93973
-1.91425 2.31394 -1.10997
-0.592336 1.82142 -1.36122
-0.836003 1.93884 -1.32163
-1.33299 1.91909 -1.42616
-1.10557 1.92383 -1.36774
-1.11668 1.76353 -1.35664
-1.01432 2.07649 -1.30341
-1.15253 2.20998 -1.25848
-1.48295 1.3573 -0.987872
-1.52039 1.55572 -1.152
-1.40927 1.34769 -1.05003
-1.91331 1.9581 -1.26613
-1.70607 1.77489 -1.28252
-1.86109 1.7097 -1.06327
-1.35388 1.64983 -1.30601
-1.57243 1.77293 -1.35247
-1.49763 1.85072 -1.44551
-1.4517 2.26706 -1.38083
-1.52177 2.06953 -1.66814
-1.81564 2.27037 -1.49322
-1.50632 2.25133 -0.364578
-2.02337 1.98752 -0.615932
-1.8379 2.23149 -0.437548
-1.61008 2.02917 -0.23761
-1.63421 1.79762 -0.0932176
-1.43706 1.17073 -0.842437
-1.55623 1.33897 -0.850502
-1.56568 1.23617 -0.448944
-1.58795 1.29092 -0.643191
-1.47654 0.998708 -0.472693
-1.72074 1.51774 -0.837701
-1.91172 1.70213 -0.768369
-1.31557 0.976768 0.201133
-1.24173 0.608076 0.377312
-1.50971 1.53366 -0.027022
-1.40173 1.27783 0.0645667
-1.40177 0.813934 -0.0951566
-1.42814 1.08361 -0.0383005
-1.5095 1.16562 -0.250696
-1.9056 1.65784 -0.459597
-1.64107 1.45078 -0.386248
-1.67491 1.62323 -0.26125
1.16683 2.24019 -0.0405194
1.32232 2.34871 -0.27769
0.768027 2.23772 0.71309
0.919655 2.20368 0.315095
1.52723 2.02035 0.0441476
1.24204 2.08275 0.112466
1.3085 1.91168 0.277335
0.111065 1.70764 1.33849
0.259326 1.8594 1.2675
0.614638 1.62339 1.05883
0.459519 1.75959 1.20378
0.457173 1.47078 1.20544
0.45219 2.03708 1.20877
0.609526 2.16487 1.00246
1.17856 1.01722 0.369018
1.11121 1.16583 0.482377
1.04085 0.853592 0.542391
1.25478 1.66833 0.338997
1.18329 1.42893 0.402682
1.41011 1.53412 0.196275
0.737888 1.169 0.883176
0.949224 1.31282 0.661799
0.779232 1.46572 0.87742
0.774603 1.99156 0.790389
0.780428 1.7356 0.840544
1.04433 1.82495 0.577437
-0.142982 1.40642 1.24708
-0.00741444 1.57399 1.33855
-0.432109 1.07786 1.14516
-0.299398 1.23873 1.21866
-0.0354957 0.709063 1.21721
-0.144406 0.970889 1.22115
-0.130449 0.491642 1.24435
-1.09502 0.370132 0.687157
-0.896706 0.530693 0.834003
-0.495275 0.107822 1.17712
-0.695065 0.297929 1.02178
-0.721213 -0.0505123 1.01509
-0.706142 0.722839 0.964833
-0.556566 0.904618 1.05983
-0.0288118 -0.363571 1.64787
-0.246251 -0.276249 1.80225
-0.125475 -0.371365 1.47172
-0.135106 0.147501 1.41652
-0.177472 0.00711692 1.6549
-0.054119 0.0623384 1.5156
-0.365254 -0.245396 1.30502
-0.262162 -0.127662 1.5436
-0.342662 -0.0299014 1.34799
-0.371294 0.601633 1.16481
-0.336949 0.220385 1.26574
-0.225415 0.332731 1.27581
-1.29357 0.212715 0.331677
-1.25047 0.264052 0.549401
-1.34326 0.330385 -0.074175
-1.32255 0.241671 0.114444
-1.34898 -0.553219 0.433837
-1.30025 -0.278644 0.28455
-1.39985 -0.612314 0.235072
-1.3387 0.997046 -0.807514
-1.34473 0.786303 -0.61857
-1.20702 -0.435986 -0.142477
-1.24006 0.104266 -0.330316
-1.15946 -0.257154 -0.271513
-1.34799 0.608843 -0.432486
-1.34998 0.463254 -0.25563
-1.71072 -1.63076 0.138051
-1.40718 -1.34236 0.0767554
-1.56604 -1.512 -0.129837
-1.29448 -0.863307 0.179634
-1.2967 -1.10825 0.148276
-1.31145 -1.08838 0.283768
-1.16617 -0.972099 -0.033487
-1.24446 -1.08139 0.056452
-1.23746 -0.789887 -0.0503777
-1.3029 -0.217598 -0.0405265
-1.27181 -0.556216 -0.0338475
-1.33648 -0.611127 0.0815225
-1.30754 1.2995 -1.08489
[...]
POINT_DATA 642
SCALARS Mean_Curvature double 1
LOOKUP_TABLE default
-0.177836
-0.196127
4.30789
7.26046
0.828086
-0.00975761
0.168713
5.20601
0.91429
0.564918
1.40883
0.124251
0.586679
1.59281
2.21294
2.77973
2.37806
1.26852
1.04388
1.30252
-0.0539534
0.940256
1.42646
-1.19719
0.194154
0.478573
0.457259
-0.695349
0.990237
0.330741
4.55339
0.834961
2.42518
-0.00736131
1.39015
-0.196271
1.10895
1.03919
0.887174
0.516928
0.376293
0.912114
-0.763152
-0.672962
-0.564691
0.149257
-0.454437
0.446113
-0.138006
2.13992
-0.9486
3.10204
-0.249022
-0.543439
1.65725
-0.277828
0.782914
-0.549868
6.32828
0.518132
0.674571
6.51476
0.775311
-0.492243
0.287659
5.84462
0.0565689
0.391885
1.4823
0.535648
6.03901
1.01852
2.83033
1.52617
-0.285117
0.516168
0.856032
0.548614
2.72972
-0.40803
1.20686
0.607177
-0.199111
0.27242
0.161757
0.103524
0.713068
0.38898
7.99194
2.00823
2.03832
0.303067
2.43716
1.17468
1.14282
4.30872
1.62076
0.289772
1.15509
1.41981
0.428468
0.440583
0.507294
0.241416
0.123025
1.01092
0.930878
4.41106
5.75377
0.767826
0.278334
0.588991
-0.420831
0.33532
5.7965
1.09274
1.63766
3.69615
0.618148
-0.295569
0.467995
2.59669
3.79815
0.00570996
0.782771
1.65862
0.833528
3.82854
1.49724
0.488554
1.01254
0.823285
0.74413
0.242899
0.813312
0.782726
0.195407
0.483052
0.928151
0.800517
0.895125
1.12114
-1.12813
0.912575
0.891154
1.01397
1.11048
1.42967
0.371562
0.63152
3.24154
0.410934
0.234151
0.963217
0.82385
1.58638
0.729488
0.421425
0.990885
-0.485891
1.25699
4.54669
-0.603079
-0.822446
-0.396504
1.07828
0.876875
4.15887
0.710868
1.57233
1.19373
0.291085
0.286261
0.361347
0.624675
0.11336
0.161233
-0.114786
-0.0818597
-0.0592903
4.63131
-0.0575217
3.48133
2.17558
2.75439
0.605347
2.54816
1.17432
1.85578
1.36394
1.52604
3.15672
-0.341287
-0.285492
0.755808
3.43867
-0.179244
0.650214
2.08843
4.59318
-1.9471
3.55546
3.47901
2.75349
3.79082
3.90281
-0.367162
-0.38637
-0.17811
-0.321018
0.801347
-0.546093
1.86657
1.04468
2.09793
1.08574
1.51058
2.48552
0.422089
0.153261
-0.713419
0.567504
0.853811
1.43186
1.31414
0.144507
1.17035
0.898855
2.36304
1.15824
0.162183
-0.68504
0.512131
-0.390757
0.0825813
0.91225
0.220488
0.492615
0.876259
0.218566
1.10552
0.361436
0.133579
4.77613
-0.23912
-0.564351
1.28543
0.331675
3.58196
1.43367
3.67736
1.1344
0.681777
1.47
1.45878
1.37502
1.25563
1.49861
1.07946
0.399717
1.27245
2.66698
0.359125
3.69851
1.06207
0.89108
1.05104
0.901141
6.00372
4.16909
2.85539
4.28078
4.764
-0.0545033
2.82897
1.38731
0.779244
0.876416
0.885892
1.33577
0.952239
2.19543
0.40297
0.494722
0.557996
0.276746
0.331164
0.728536
0.708041
4.64355
0.0694827
-0.273724
-0.526238
-0.600364
1.52765
-0.506379
0.435661
-0.953674
2.87085
3.34272
0.274995
0.590429
2.2851
3.20947
3.75718
1.40176
0.638173
0.648344
0.342877
-0.0885773
-0.0432811
1.49766
0.115418
0.00919247
0.668922
-0.217297
-0.130982
2.07866
-0.535146
4.51996
0.535385
1.01701
0.169606
1.50829
0.385294
0.782351
0.347512
0.160998
0.533883
0.456109
0.231608
0.0903935
7.41172
8.24807
2.48529
1.34691
7.45842
-0.552126
0.4146
1.90936
0.305557
0.383207
0.432554
0.478791
0.409207
3.23168
0.969848
0.348632
3.21466
-0.311518
5.15469
1.60135
1.44832
0.786064
1.22897
1.36156
0.930275
1.17496
6.89612
-0.577593
8.98871
-0.211713
0.0406256
-0.506506
0.332505
0.193169
5.70418
2.52054
1.14722
2.38224
1.39084
1.55213
1.13323
1.20569
0.816409
1.32789
1.05478
1.89308
1.28013
1.10592
1.16685
0.816425
0.39739
1.0561
0.35324
0.202261
0.169836
0.235521
0.179977
0.506788
0.919763
0.301333
0.988046
0.919241
0.530918
0.878843
0.618418
6.14696
1.10778
0.421989
0.175277
0.123505
0.859748
-0.701168
3.32165
4.18497
4.184
2.9106
0.599062
1.22736
0.759502
0.294244
0.395075
0.732051
0.538776
0.848941
-0.460755
-0.269159
4.06303
0.820058
5.77484
0.77081
-0.618864
2.55879
7.75982
4.89647
-1.06132
-0.666868
4.79167
-0.503723
4.39186
0.592157
0.668004
0.447119
-0.0985402
0.0213654
0.262357
-0.184461
0.808932
1.60447
0.81393
0.153533
0.415682
-0.102384
-0.177183
0.410696
0.533583
0.652972
0.397706
1.70051
2.77125
4.0513
0.737301
5.85524
5.78933
1.2411
0.864194
1.98743
0.491427
0.928578
0.456353
0.567003
-0.28869
0.389912
0.459181
1.45198
3.22297
1.60544
1.60859
0.854413
0.393292
0.808552
5.98583
3.13622
4.05734
0.350462
0.953175
0.976506
8.57486
7.37125
1.58874
1.55196
0.912076
1.32278
1.17111
8.68223
5.3532
0.8794
0.971375
0.890006
1.02641
0.839771
0.433627
0.116918
0.407865
0.838084
0.692421
0.846099
1.01687
0.856726
0.908219
0.618198
0.857279
1.01086
0.203042
-0.302494
0.879888
0.58263
0.239976
0.510271
0.576297
0.368121
0.683074
0.694113
0.693919
0.482885
0.88857
0.964888
1.27493
1.03737
1.15032
0.717442
0.909578
0.852292
0.217656
0.819541
0.783816
0.962003
0.822946
0.842133
0.157734
5.5955
0.703624
-0.263085
4.12343
0.874052
1.24495
0.991899
1.17059
0.879003
1.10167
0.792805
0.599528
0.313201
0.298181
0.691662
1.08277
0.950284
0.767533
5.95944
0.357659
1.60021
5.39214
0.43666
0.28155
6.2008
0.702198
0.459966
0.125987
0.267146
0.2731
0.220602
-0.0790005
0.350752
0.17064
1.38147
0.151947
0.265175
0.470446
0.347378
5.89241
1.20009
2.37327
0.0312967
0.340238
0.926604
0.233413
0.683417
0.596259
-0.144802
0.878789
2.99984
0.317361
-0.0799023
0.227665
1.60998
0.020276
1.45596
0.614996
1.08851
0.942922
0.754922
1.13564
2.46316
0.81939
0.296307
0.493906
0.936309
1.01382
1.00821
0.970874
1.47144
1.1007
1.01466
0.970167
1.16611
1.02904
0.219998
0.985194
0.938264
0.781302
0.165348
1.00129
0.274197
0.1207
0.169102
1.88869
0.590803
0.935971
0.40248
0.757453
0.303261
1.07414
0.800409
0.895824
0.091731
0.606299
0.154196
3.53735
-0.140736
2.91735
3.72271
3.05968
0.780567
0.442633
3.44817
4.13544
1.39261
2.18454
1.31543
2.28661
4.95619
SCALARS CoVolArea double 1
LOOKUP_TABLE default
0.0375981
0.0254529
0.0440284
0.0256002
0.0201384
0.0185086
0.0598828
0.0485267
0.0130771
0.0369113
0.0146739
0.0447934
0.0804662
0.0674922
0.079373
0.0841669
0.112738
0.0656978
0.0646906
0.0309644
0.0982542
0.0701541
0.0727329
0.0656057
0.0750899
0.0331747
0.0318462
0.0486744
0.0848187
0.0763651
0.094858
0.0352031
0.0479512
0.077397
0.0833776
0.0738237
0.0867118
0.0358165
0.0297142
0.116253
0.0427575
0.0474668
0.0848116
0.0929859
0.0994874
0.0897351
0.0824528
0.0791102
0.0537313
0.0709418
0.0543672
0.108777
0.0873923
0.0562706
0.083998
0.091305
0.104028
0.0921955
0.101736
0.0714645
0.0601945
0.115549
0.0841945
0.1095
0.0987848
0.119739
0.0850833
0.0389332
0.0560265
0.0531126
0.114148
0.0333718
0.0872454
0.056655
0.0625321
0.0579065
0.0928965
0.0933352
0.0752402
0.0523468
0.0691137
0.0530058
0.0856358
0.0910693
0.0625743
0.0554021
0.104808
0.080198
0.056063
0.0368685
0.0530774
0.0735431
0.0872502
0.0647328
0.0640695
0.0652187
0.029727
0.0327431
0.0301027
0.0427669
0.0773093
0.0330136
0.115448
0.0740985
0.169085
0.0434993
0.0663955
0.0913698
0.121352
0.0303221
0.0501897
0.0377396
0.0372336
0.0667493
0.097576
0.0961746
0.0658463
0.0834464
0.0571757
0.0627566
0.0520115
0.109169
0.0788964
0.0687926
0.0736584
0.0802185
0.0927433
0.106073
0.0475134
0.0360458
0.0404107
0.0574774
0.0485191
0.0542413
0.0528782
0.0310225
0.028277
0.108896
0.0425877
0.0701796
0.0667247
0.0561292
0.0344871
0.040155
0.0705149
0.0773328
0.0590758
0.0423789
0.0935677
0.0648569
0.0705935
0.0653147
0.0744285
0.0467107
0.0304568
0.0561796
0.0557896
0.123951
0.0745246
0.0462684
0.0547162
0.0941465
0.0670682
0.0967133
0.0796468
0.0922624
0.0952588
0.0835336
0.087809
0.0949085
0.0838954
0.0759832
0.0843875
0.0694376
0.0713557
0.0794865
0.0775151
0.0758034
0.0836425
0.0883507
0.0360598
0.0501851
0.0370594
0.0738321
0.0613595
0.0674181
0.0611013
0.059787
0.0658774
0.0909308
0.0779929
0.0844092
0.0958547
0.0709998
0.0920746
0.0995951
0.0940331
0.10189
0.113198
0.036521
0.0520296
0.0866394
0.0695807
0.0721462
0.0674278
0.0826787
0.0557018
0.0904179
0.0594651
0.113452
0.104858
0.106492
0.0924114
0.0993676
0.0941115
0.0973524
0.0977741
0.111212
0.07349
0.05964
0.098487
0.081528
0.0609688
0.0695674
0.076255
0.0432545
0.0655372
0.09109
0.0712204
0.0593697
0.0958151
0.110471
0.0782206
0.123315
0.0981368
0.087413
0.109827
0.0706836
0.0738446
0.116446
0.0934207
0.103863
0.10758
0.103635
0.0728032
0.0590631
0.0709308
0.0748558
0.0996381
0.0946785
0.12077
0.048477
0.0519808
0.0435667
0.0396348
0.0308005
0.0528278
0.0598825
0.0281862
0.0387399
0.0231975
0.111245
0.0695388
0.0767313
0.0325844
0.0491625
0.0610659
0.0979744
0.102199
0.146661
0.0787695
0.104742
0.0987272
0.0792156
0.0723252
0.0358235
0.0455013
0.0514081
0.0522481
0.0625079
0.0621323
0.0862354
0.0752539
0.0758961
0.0665566
0.0652249
0.0828285
0.0654432
0.0567755
0.0822408
0.0574343
0.0678815
0.077162
0.0518591
0.0883088
0.0922546
0.0752507
0.0826873
0.0818902
0.0363429
0.0499435
0.0672503
0.0582795
0.0611398
0.0622425
0.0747744
0.0479569
0.0701259
0.0676805
0.0770949
0.0710166
0.0558046
0.0850424
0.0829688
0.0792368
0.0854793
0.0818087
0.0913763
0.0536525
0.0383161
0.0697178
0.0628414
0.0488048
0.0585455
0.0446326
0.0845402
0.100815
0.0718417
0.0966225
0.0922584
0.0940904
0.0792439
0.0444134
0.0609188
0.0403008
0.0308919
0.0447019
0.0332007
0.0592636
0.0479437
0.051
0.0686162
0.0542187
0.0455171
0.101411
0.082607
0.091419
0.101245
0.0626809
0.081918
0.0534128
0.0406379
0.063837
0.0412553
0.0644034
0.0488653
0.0748218
0.0830068
0.0859027
0.0540393
0.0587315
0.0369214
0.0336655
0.0437191
0.0281472
0.0283572
0.0294599
0.0680272
0.0402862
0.0441941
0.0296315
0.0285624
0.0256531
0.0281011
0.0548632
0.0345991
0.0482253
0.0675693
0.0518936
0.0576901
0.0496989
0.0757503
0.0317605
0.0252769
0.106876
0.170976
0.157269
0.0781681
0.123526
0.0970511
0.104417
0.123746
0.0750381
0.0290157
0.0444955
0.0435993
0.0735707
0.079864
0.0496258
0.0543018
0.0458303
0.0466087
0.0397396
0.0505516
0.0713631
0.134
0.122656
0.112398
0.0788773
0.0594252
0.0230182
0.0315111
0.0234271
0.0350941
0.0338332
0.0304927
0.0568835
0.0428753
0.0814592
0.0678078
0.101077
0.048128
0.0382453
0.0647433
0.0663863
0.0549305
0.0523723
0.039144
0.101895
0.0784514
0.0796473
0.0758155
0.0840381
0.0705047
0.0741395
0.0770108
0.0887115
0.0634361
0.0689011
0.0588782
0.0439554
0.0553228
0.0379652
0.0658208
0.0583209
0.0588997
0.0610328
0.0606889
0.067413
0.0649838
0.0671337
0.0693363
0.0917984
0.056606
0.107208
0.110964
0.0803905
0.100288
0.0987676
0.0475927
0.0659899
0.0721139
0.0743519
0.067383
0.0651345
0.0724098
0.0638664
0.0960858
0.0809869
0.0934923
0.0956644
0.0836655
0.107277
0.109324
0.086157
0.0903798
0.085183
0.097164
0.0567936
0.0377082
0.0677661
0.0545386
0.0289751
0.0362701
0.0368167
0.0501044
0.0545786
0.0443281
0.0445945
0.0364907
0.0637227
0.0738383
0.0573238
0.0594774
0.0596423
0.0400409
0.0501805
0.0346131
0.0402808
0.0539098
0.047765
0.0621539
0.056887
0.0507023
0.0295102
0.027721
0.0282494
0.0278441
0.0313461
0.0297537
0.0357842
0.0999883
0.0601968
0.0753214
0.0603464
0.114859
0.0395393
0.0313609
0.0374661
0.0609926
0.031168
0.0520536
0.071584
0.0647767
0.0853833
0.0778258
0.0865146
0.0354559
0.0554572
0.0435267
0.0292692
0.0379399
0.0284802
0.0300519
0.0378503
0.0270005
0.05264
0.0630424
0.0570552
0.0435913
0.0719413
0.0595633
0.081691
0.0551596
0.0571424
0.082094
0.051778
0.0782361
0.0721038
0.055886
0.0736593
0.0533324
0.0476156
0.0605351
0.0470396
0.0402815
0.0334208
0.100833
0.0883039
0.101004
0.102999
0.0843451
0.0515143
0.045605
0.0568346
0.0607047
0.0738197
0.0663272
0.0797498
0.0523742
0.0919282
0.0831095
0.0910033
0.0643878
0.0564243
0.0551855
0.0764266
0.0628655
0.0600296
0.0629987
0.0957971
0.0605556
0.0750648
0.0918531
0.0867164
0.0696597
0.0751375
0.0671511
0.0669496
0.0354436
0.0444943
0.0679218
0.0719325
0.0403485
0.0295406
0.0281225
0.0329734
0.0324225
0.0539564
0.0696703
0.0609968
0.0582382
0.0401909
0.0371011
0.0388891
0.054009
0.0353363
0.0959535
0.0537731
0.0358424
0.039605
0.164676
0.0979263
0.13551
0.149828
0.140898
0.0877861
0.0506807
0.0680755
0.0849402
0.0880591
0.0969975
0.0895621
0.0639596
0.0475669
0.0416332
0.0424972
0.0443099
0.055164
0.0353727
0.067504
0.0472806
0.042667
0.0437241
0.0750226
0.0795783
0.0890521
0.0930101
0.0896338
0.0545048
0.0763703
0.0716983
SCALARS SignedDistance double 1
LOOKUP_TABLE default
1.27108
1.21777
0.012316
-0.104112
1.07829
0.0125109
1.7544
0.13115
1.25542
1.33449
1.3955
1.18491
0.109018
0.21058
-0.021182
-0.033454
0.0396274
1.50248
1.48527
1.38459
0.00784009
1.53533
0.16745
0.800597
1.31792
1.19378
1.14333
0.409323
1.42859
1.87669
-0.0335449
1.46361
0.0443168
1.35893
0.0452191
0.939566
1.56794
1.31379
1.42587
1.65064
0.775444
1.27659
0.834115
0.119363
0.297793
1.28483
0.916664
1.27637
-0.00517615
0.0227863
0.205908
0.0152648
1.17081
-0.000648369
0.0071774
1.26248
0.00794817
1.15407
-0.0148545
1.3568
1.29468
0.00146223
1.50679
1.13885
1.2301
-0.299025
0.0677362
1.61984
1.29862
0.530493
-0.0211186
1.2769
0.122853
1.41099
0.796843
1.09045
1.4371
0.150092
0.0597059
0.107898
0.0315781
0.725565
0.734145
1.30958
1.15969
0.420294
0.287323
1.2341
0.054289
0.229883
0.547227
0.48849
0.0746751
1.62468
1.07091
0.0528087
0.186082
0.53308
1.55174
1.64439
1.14427
1.66797
1.64543
1.81534
1.75225
1.43619
1.31863
-0.0405165
-0.602716
1.27277
1.13942
0.434792
0.561765
0.0161545
-0.00370345
0.319338
0.20664
0.0456751
1.32121
0.556484
1.20803
0.104588
-0.00880378
1.59971
1.4238
0.510093
1.2424
0.0127256
1.38149
1.14082
0.382789
1.43763
1.62773
1.77082
1.59794
1.23554
1.17104
1.58964
1.38934
1.63943
1.34059
1.55586
0.762493
1.2156
1.28045
0.32038
1.39454
0.491376
1.19565
1.10597
0.00827204
1.29693
0.487071
1.40914
1.18745
1.31375
1.61753
1.67548
1.3789
0.637031
0.0386188
-0.0199844
1.14922
1.1484
1.09257
0.0758899
0.153597
0.0486414
0.0174222
0.0456525
0.0283841
1.23685
1.3245
1.37041
0.257759
0.960218
0.981556
0.81707
1.20603
0.468762
0.0230367
0.0323758
0.00811085
0.0319265
0.0272752
-0.00408391
0.0383338
0.0313812
0.0400709
0.0567621
0.0115553
-0.0361513
0.458574
1.30005
-0.00378187
0.0117595
0.133868
0.00835502
0.000646371
0.0230828
0.103024
-0.0129256
0.0298371
-0.104915
0.0368215
-0.0117884
1.37613
1.21127
1.31071
0.126858
0.24132
0.753263
0.00925229
0.0395619
-0.0350646
0.0144565
0.0137983
0.00420314
1.24172
1.31667
0.405852
0.722551
1.42676
0.783436
1.03815
1.24047
1.33199
1.14794
0.746753
1.40976
1.04261
0.449602
1.28648
1.12748
0.245161
1.24303
1.2354
1.5812
1.4171
0.590754
1.16168
0.310205
1.08466
0.212504
0.71592
1.12581
1.16753
1.14953
-0.00567054
0.356942
0.0203899
1.39678
1.62828
1.27356
1.47791
1.49482
1.51372
1.35221
1.24949
1.1719
1.30813
0.00472443
0.441918
-0.000296022
1.31751
0.632105
0.878923
1.05941
0.268643
0.00570729
-0.0916695
-0.0366386
0.0880356
0.0071973
0.0223734
1.40209
1.24234
1.25943
1.19337
1.47902
0.45753
-0.0280619
1.43448
1.26126
0.324232
1.20559
1.57793
1.36696
1.32008
-0.111022
1.10822
0.259648
1.21874
0.857297
0.0828679
0.742079
0.0998779
1.0977
0.0860121
0.00810623
0.0195395
0.080103
0.0110136
0.017773
0.0184362
-0.0288551
1.35611
1.24517
1.35866
0.408052
0.710141
0.162227
1.11262
1.19167
0.310173
0.193599
0.311342
0.108291
0.347422
0.0103217
1.11806
0.171459
1.19775
0.266221
1.24967
0.39795
1.00958
1.25899
1.1377
1.19341
1.18368
1.15805
0.133789
0.0345793
0.487359
0.51078
0.147915
0.873735
1.21342
0.195707
1.15752
1.21807
1.21906
1.21614
0.400247
0.0769003
1.30282
1.06458
0.0996814
0.489434
0.0259041
1.57651
1.71218
1.01021
1.35062
1.15344
1.69878
1.50126
-0.314495
0.534565
0.0968572
0.381955
1.05678
0.693159
1.12727
1.14166
0.110457
0.310134
0.327754
0.121433
1.41944
1.48323
1.45841
1.41277
1.81086
1.55876
1.70566
0.367368
1.48876
1.58263
1.54015
1.29106
1.63823
1.53688
1.66638
1.77064
1.67555
1.83677
1.83462
1.73601
1.63524
1.77082
1.66483
1.60378
1.74306
1.70913
1.31982
-0.0249988
1.45494
1.54881
1.57129
1.57968
1.44296
0.778641
0.114211
-0.0168083
-0.104216
0.114496
1.00745
1.23148
1.24088
1.02071
1.15981
1.31605
1.2218
1.35394
0.390657
1.08804
0.0477901
1.19538
0.217511
1.23111
0.613344
-0.0283037
-0.305479
0.0154426
0.488512
0.445218
0.0306853
0.035099
-0.105608
0.950707
0.234682
1.13241
1.23812
1.13722
1.19971
0.426424
0.163569
0.206962
1.39058
1.43871
1.14905
0.163459
1.08948
0.423556
1.3115
1.35364
1.25962
0.028337
0.134169
0.0277374
0.00353165
-0.795601
-0.0957684
0.00602726
1.15339
0.00135217
1.30894
1.35578
1.52089
1.40272
1.5841
1.3857
1.31274
0.415218
-0.00821296
-0.00307759
0.0108142
1.51113
1.14304
1.36654
-0.22025
-0.0162893
0.343996
1.19621
1.49751
1.44113
0.122466
0.132974
1.42672
0.765449
1.30182
1.05417
1.40867
-0.775877
0.1995
1.35915
1.2244
1.23788
1.25619
1.57794
1.74915
1.80029
1.73112
1.55213
1.69072
1.5197
1.45215
1.64396
1.48656
1.70081
1.60643
1.60147
1.18731
1.12159
1.32467
1.26779
1.08131
1.19119
1.03826
1.68705
1.58345
1.45319
1.46871
1.59731
1.48771
1.40623
1.37606
1.6352
1.35615
1.21556
1.37701
1.22058
1.73708
1.61142
1.48484
1.2922
1.33582
1.22609
0.932173
0.0500012
0.46198
0.474207
0.0213396
1.22955
1.42438
1.53832
1.47882
1.26376
1.4441
0.649597
1.21556
1.44992
0.178413
0.213296
1.31122
1.35815
1.5217
0.0517649
1.09993
0.0800119
0.122595
1.22325
0.654015
0.149943
0.996236
1.1999
1.16732
1.23901
1.18112
1.2613
0.235537
1.23628
0.843357
0.134938
0.680761
1.25052
1.14695
1.24645
-0.108439
0.0202548
0.001938
0.469787
0.126898
1.38484
1.43385
1.46493
1.45191
1.203
0.194574
0.0231626
0.212837
1.1544
1.2961
0.169348
1.14137
0.105496
1.5882
1.34169
1.4754
1.51115
1.51791
0.219814
1.14958
1.21156
1.20563
1.21724
1.8066
1.6152
1.75965
1.42679
1.21834
1.28982
1.26644
1.3693
1.37158
1.69854
1.55092
1.42442
1.51448
1.66913
1.52379
1.72336
1.72021
1.71139
0.140929
1.57343
1.32711
0.972295
1.30018
1.68667
1.49823
1.62813
1.20879
1.13308
0.981484
0.49088
0.0395833
1.06942
0.0956993
0.0174535
0.135229
0.567909
0.0378367
-0.0627064
-0.0147176
-0.0485091
-0.00545762
0.116054
0.0411283
0.0570828
