# vtk DataFile Version 4.2
vtk output
ASCII
DATASET POLYDATA
POINTS 642 double
-2498.74 6282.02 -437.17
717.267 6101.1 -353.767
-2547.26 203.966 -35.2979
1540.37 214.323 24.7644
-621.356 1313.48 2834.94
-1092.42 4858.87 2241.01
-517.285 1613.51 -2485.13
-1060.85 5270.27 -2946.44
1994.92 3195.76 -1389.91
2201.33 3115.48 1519.16
-3267.6 3825.33 -1716.32
-3692.19 3497.59 1870.39
-3537.08 5195.31 1086.37
-2435.33 4460.31 2626.4
-1819.28 5837.38 1528.74
102.621 5727.55 887.047
-593.551 6786.57 -186.919
271.132 6164.79 -1581.94
-1909.13 6536.97 -2038.68
-2378.88 4875.17 -2935.37
-3537.81 5440.48 -1404.9
-4025.34 3470.78 112.585
984.211 4057.37 2222.88
1786.87 4576.06 862.701
-2214.44 2108.49 2453.02
-489.939 3156.82 2894.32
-3212.15 1479.26 -884.474
-3298.58 1486.86 1086.12
-910.916 3793.14 -2588.16
-2048.21 2463.77 -2155.6
1522.34 4817.3 -752.669
690.819 4622.79 -1899.42
2553.8 1423.5 1068.82
1123.99 2207.66 2537.98
652.042 358.225 1785.36
-1811.05 286.234 1846.33
-531.777 -29.1242 -55.2834
-1605.26 492.655 -1692.75
566.998 512.812 -1648.59
978.46 2211.3 -2223.51
2404.65 1527.55 -927.114
2677.93 2895.58 88.2163
-3084.39 5749.32 543.487
-2732.07 5685.61 1400.98
-2114.11 6044.66 805.374
-3162.72 4013.74 2375.31
-3108.82 4889.05 2014.66
-3731.68 4376.03 1556.3
-1467.87 5435.6 1981.34
-2192.39 5274.97 2177.82
-1773.86 4718.26 2555.22
-1011.61 6509.18 498.964
-1395.95 6645.65 -267.645
-296.216 5172.81 1688.28
-839.601 5971.97 1124.23
121.505 6557.04 -271.77
-238.091 6448.55 438.478
339.575 6115.98 324.193
-1357.81 6666.73 -1127.07
-2263.5 6629.29 -1326.91
610.329 6272.94 -908.118
-104.126 6678.46 -956.111
-1489.07 6010.14 -2610.78
-817.843 6362.29 -1898.37
-304.931 5792.23 -2192.63
-2879.61 6196.33 -1797.43
-3090.75 6034.17 -958.844
-1670.43 5160.53 -3224.37
-2267.26 5821.8 -2717.95
-3519.67 4787.66 -1689.05
-3189.21 5248.42 -2326.44
-2951.29 4377.64 -2446.7
-3581.05 5321.08 -68.2458
-3762.24 3499.6 -763.513
-3756.81 4503.98 -614.834
-3975.64 4423.01 607.593
-3979.94 3494.58 1022.46
1104.68 5065.19 1093.68
1199.17 5262.11 274.11
271.617 4372.51 2265.22
705.744 4808.42 1782.86
2071.53 3959.23 1235.21
1503.09 4391.14 1602.51
1628.87 3676.2 1988.95
-1802.73 3924.75 2842.12
-820.433 3908.6 2644.72
-3118.02 3039.27 2300.96
-2483.87 3517.93 2764.55
-454.372 2326.1 2970.09
-1482.78 2984.08 2835.41
-1468.43 1526.07 2719.43
-3911.94 2496.95 547.866
-3595.54 2610.37 1462.18
-3376.82 2512.83 -1274.63
-3787.34 2502.03 -443.326
-3062.3 718.018 598.621
-3423.92 1404.57 -26.7513
-3068.04 728.522 -566.774
-2321.27 3910.92 -2749.16
-2606.12 3192.93 -2066.13
-1119.74 4873.1 -2983.05
-1681.99 4510.29 -3100.44
-1265.69 1792.93 -2389.47
-1485.96 3235.89 -2664.43
-507.959 2356.9 -2593.67
526.803 5396.61 -1992.46
-179.883 5026.02 -2466.53
1101.69 5678.18 -736.741
942.497 5683.71 -1280.53
1446.16 3646.79 -1762.03
1022.28 4731.11 -1557.21
1940.79 3902.72 -1095.05
2197.69 697.715 583.402
1763.11 782.709 1449.89
1189.81 179.39 918.837
1780.2 2643.27 2073.21
2011.51 1707.7 1854.56
2567.58 2231.94 1336.59
-16.9047 799.919 2418.97
979.815 1183.1 2285.9
354.605 1747.29 2776.98
171.33 -4.3634 1038.21
658.766 -3.84463 5.41113
-1122.62 757.118 2520.52
-581.573 212.707 1973.22
-1703.5 -32.4977 33.7377
-1294.07 2.19578 1034.32
-2225.75 118.911 1046.42
131.274 33.9058 -963.862
1092.72 299.108 -856.813
-2196.18 251.858 -860.384
-1187.69 17.1674 -993.85
26.3831 981.434 -2108
-576.268 410.183 -1751.36
-1145.29 932.67 -2171.53
1570.36 939.761 -1282.34
2120.22 766.421 -507.151
263.935 1898.11 -2437.79
853.292 1329.75 -2079.55
2358.02 2172.44 -1111.84
1748.25 1841.78 -1642.91
1555.83 2707.2 -1873.5
2685.06 1344.38 37.1969
2449.92 3040.77 -674.377
2799.18 2228.41 -429.791
2929.96 2250.25 529.452
2604.61 2942.92 777.053
310.689 2683.33 2893.69
1116.7 3181.02 2523.66
292.222 3589.65 2711.25
-2746.46 692.161 1594.47
-2158.47 1097.06 2453.04
-2856.41 1644.89 1943.45
-1864.96 1245.36 -2098.71
-2617.89 876.026 -1318.81
-2717.57 1874.26 -1643.89
964.455 3166.59 -2193.05
180.731 2751.32 -2555.57
-199.83 4021.51 -2497.71
2304.29 3944.06 490.852
2258.51 3925.78 -408.928
1842.57 4614.27 17.6951
-2771.5 5945.21 71.2959
-2665.37 5945.39 725.734
-2243.4 6118.16 264.026
-3162.92 5486.18 1263.83
-2935.91 5742.18 1004.91
-3339.75 5503.65 837.738
-2009.5 5976.47 1184.62
-2477.87 5897.02 1136.73
-2277.39 5801.65 1481.45
-3464.17 3752.2 2153.32
-3495.45 4189.42 2012.86
-3750.54 3918.22 1745.17
-2795.65 4681.41 2376.01
-3157.68 4465.56 2232.6
-2811.91 4262.53 2541.36
-3665.18 4817.85 1328.94
-3453.04 4661.49 1808.95
-3363.51 5063.07 1575.45
-1352.28 5176.87 2141.57
-1630.59 5101.43 2294.16
-1498.57 4837.84 2406.97
-2012.18 5592.25 1863.27
-1820.94 5375.82 2100.38
-1631.17 5661.66 1778.84
-2083.28 4602.37 2632.71
-1980.55 5008.81 2403.39
-2329.23 4891.66 2439.1
-2949.36 5337.42 1730.72
-2655.35 5131.52 2146.85
-2477.68 5514.11 1831.71
-1666.11 6401.4 206.777
-1946.62 6406.82 -441.035
-1413.08 6080.53 985.171
-1545.6 6282.74 603.458
-957.809 6773.15 -168.655
-1155.29 6631.64 175.802
-824.047 6702.36 166.677
-756.701 4953.35 1926.62
-1106.36 5407.46 1844.11
-372.199 5997.54 984.619
-740.17 5612.84 1379.19
-17.2852 5426.16 1300.62
-1241.12 5647.44 1658.46
-1291.49 5854.54 1417.58
440.511 6351.02 -314.227
270.559 6347.72 65.7138
541.719 6131.13 -10.2186
-404.801 6658.39 149.318
-68.654 6536.91 121.355
-243.15 6708.29 -234.147
204.231 5998.6 619.442
75.4773 6294.61 401.361
-114.162 6207.77 649.927
-863.33 6280.5 854.937
-470.873 6286.93 761.785
-626.092 6535.46 492.602
-1925.19 6571.2 -977.677
-2392.47 6470.27 -959.954
-810.212 6784.1 -568.989
-1418.19 6678.95 -699.293
-2109.28 6667.64 -1652.92
-1911.74 6671.41 -1325.28
-1776.33 6654.61 -1647.38
690.258 6212.7 -638.733
392.025 6459.09 -619.847
98.8799 6464.39 -1287.75
260.321 6508.19 -947.833
451.184 6250.24 -1255.23
21.5196 6660.43 -617.407
-324.382 6774.29 -596.905
-1287.84 5654.69 -2801.76
-1032.48 5895.27 -2461.49
-805.152 5509.72 -2558.93
-1498.89 6441.67 -2055.18
-1263.84 6210.97 -2290.18
-1698.78 6305.93 -2364.29
65.4348 6016.66 -1870.93
-567.368 6101.7 -2066.03
-159.129 6313.94 -1689.14
-557.308 6753.33 -993.09
-341.913 6582.52 -1375.17
-1068.92 6561.9 -1542.34
-2705.13 6382.26 -1163.25
-2788.5 6217.43 -695.719
-2385.58 6443.06 -1947.8
-2587.33 6491.28 -1542.22
-3345.27 5778.2 -1190.41
-3032.01 6168.85 -1392.88
-3270.3 5856.78 -1605.94
-1383.4 5239.24 -3098.96
-1579.74 5612.63 -2951.17
-2382.03 5319.1 -2902.4
-1945.27 5494.42 -2996.47
-1991.84 5039.07 -3156.73
-1839.38 5983.2 -2718.15
-2085.85 6245.08 -2433.29
-3383.86 4312.94 -1772.79
-3283.51 4609.49 -2075.08
-3129.69 4162.04 -2145.99
-3441.24 5357.73 -1879.79
-3415.23 5026.06 -2007.76
-3597.7 5095.2 -1583.55
-2694.64 4656.11 -2709.36
-3082.35 4891.46 -2391.57
-2823.11 5091.49 -2668.15
-2614.68 6054.62 -2315.15
-2785.7 5555.01 -2579.38
-3091.63 5739.98 -2120.14
-3068.83 5858.3 -259.448
-3522.67 5414.68 -824.617
-3340.83 5665.71 -555.312
-3364.82 5550.31 237.504
-3616.32 5261.43 574.919
-3458.16 3604.35 -1264
-3531.82 4241.82 -1239
-3957.07 3960.63 -165.256
-3790.81 4024.13 -697.264
-3933.36 3456.46 -341.979
-3626.79 4716.25 -1216.67
-3641.86 5018.86 -1114.77
-3920.46 3931.53 1343.35
-3889.78 3497.52 1487.99
-3816.94 4835.36 877.141
-3892.6 4428.76 1101.28
-4079.69 3492.68 522.96
-4008.32 3951.41 804.171
-4069.45 3960.51 360.086
-3736.93 4935.55 -351.662
-3976.06 4437.97 85.8261
-3846.81 4878.02 333.691
760.982 5733.66 164.814
868.448 5825.42 -164.064
594.758 5363.72 1090.21
615.203 5531.01 659.731
1581.17 4843.86 666.79
1210.84 5140.13 726.226
1459.5 4848.04 991.275
-252.951 4538.97 2225.03
92.5017 4760.4 2017.94
857.714 4467.01 2013.67
520.503 4619.06 2026.62
645.962 4217.55 2263.71
349.377 4954.22 1770.85
509.526 5136.03 1486.53
2149.09 3593.5 1400.48
1888.62 3828.75 1628.27
1910.03 3459.07 1800.11
1677.26 4497.26 1245.14
1803.75 4189.87 1436.73
1953.33 4276.67 1053.3
1318.66 3873.09 2128.69
1585.57 4052.5 1806.41
1274.54 4244.16 1927.37
926.669 4960.53 1460.69
1114.06 4627.69 1717.8
1322.52 4755.89 1366.12
-1521.09 4401.14 2615.82
-968.522 4448.16 2314
-2055.02 4183.85 2798.6
-1784.46 4302.05 2732.75
-585.857 3595.98 2781.66
-1417.94 4053.4 2732.95
-1289.04 3623.8 2692.58
-3436.23 3268.1 2124.16
-3194.05 3506.85 2380.65
-2448.79 3069.56 2665.32
-2831.37 3287.79 2555.15
-2686.87 2701.46 2382.48
-2851.22 3758.72 2591.23
-2482.53 3977.47 2730.52
-576.228 1737.1 2844.22
-901.587 1807.91 2817.93
-985.149 1410.33 2845.23
-1009.73 3019.55 2889.41
-838.394 2511.65 2898.62
-435.184 2743.8 2958.42
-1886.23 1664.48 2606.79
-1397.67 2048.95 2703.84
-1901.2 2561.82 2628.76
-2071.11 3723.79 2915.45
-2055.58 3337.18 2875
-1761.76 3472.99 2899.83
-3862.76 3080.74 1306.75
-3698.38 3114.83 1710.56
-4004.62 2984.89 326.316
-3956.65 3023.52 780.867
-3489.77 2009.37 1254.11
-3788.34 2529.47 1007.5
-3684.35 2058.32 797.081
-3318.93 3011.75 -1434.6
-3572.14 2948.52 -1033.74
-3540.81 2021.16 -713.633
-3604.14 2479.36 -883.501
-3345.12 2057.48 -1095.78
-3786.23 2963.37 -586.424
-3938.37 2962.73 -175.342
-2839.04 415.161 280.698
-3100.6 684.503 -38.4783
-2842.38 421.565 -320.074
-3422.79 1440.12 528.472
-3292.9 982.593 264.499
-3196.49 1017.36 877.939
-3195.19 1034.94 -764.024
-3297.04 982.313 -318.83
-3351.76 1393.03 -499.257
-3921.45 2485.12 60.0392
-3674.57 1987.66 -226.567
-3755.4 2014.8 292.915
-2815.79 3934.03 -2398.98
-2981.79 3559.03 -1816.43
-2361.46 4347.85 -2886.13
-2629.17 4102.08 -2655.12
-2382.76 2911.38 -2172.99
-2503.46 3690.39 -2523.66
-2257.15 3463.9 -2505.65
-1082.79 5022.77 -3013.32
-1414.82 4976.92 -3135.85
-1489.81 4345.42 -2988.44
-1452.11 4722.07 -3073.45
-1137.81 4531.4 -2924.94
-1665.21 4878.35 -3197.78
-1919.98 4676.6 -3131.92
-901.469 1703.58 -2460.53
-858.589 2128.01 -2575.19
-503.869 1981.28 -2580.14
-1696.57 2921.18 -2468.52
-1223.01 2377.73 -2525.7
-1612.19 1964.82 -2276.75
-540.592 2911.85 -2628.88
-936.258 2638.9 -2599.38
-1298.52 3512.78 -2667.32
-1967.78 4164.81 -2998.39
-1727.32 4043.04 -2948.26
-1959.52 3750.02 -2811.26
-202.299 5349.13 -2397.68
[...]
POINT_DATA 642
SCALARS Mean_Curvature double 1
LOOKUP_TABLE default
0.000721839
0.000842984
0.000786407
0.00091798
0.00149897
0.00151054
0.00104892
0.00160054
0.000785488
0.000454655
0.000930863
0.00124637
0.000880017
0.000887527
0.000794687
-0.000722223
0.00129075
0.000910972
0.00150884
0.000539768
0.00120217
0.000356163
0.00059196
0.000736147
-0.000102373
0.000285412
-2.62846e-05
9.98984e-06
-0.000890462
-0.000268438
2.47997e-05
4.91932e-05
0.00102149
0.000512049
0.000886734
0.00102101
7.42578e-05
0.000904542
0.00101695
0.000444595
0.000861306
8.60044e-05
0.000716836
0.000834036
-5.96115e-05
0.000821157
0.00074558
0.000692329
0.000968969
0.000891156
0.00104454
0.00079129
0.0006298
0.000275461
5.46713e-06
0.000787269
0.00101141
0.000523704
0.000189503
0.00156088
0.00131419
0.00121515
0.000856131
0.000725777
0.000358298
0.000973663
0.000531223
0.00300876
0.000915138
0.000602077
0.00153119
0.000786339
0.000612628
0.000468522
-5.44741e-05
0.000636653
0.000356356
0.000522365
-1.66621e-06
0.00044078
0.000711882
0.000745445
0.000706965
0.000681147
0.000648354
-0.000164238
0.00078134
0.000900879
0.000933803
0.000135588
0.000395899
0.000880041
0.000103731
0.00082162
0.000610138
0.000520467
-5.62935e-06
0.00105128
0.000750791
-0.000439846
4.32056e-05
0.00154649
0.000332659
0.00114629
4.34529e-05
0.000989527
0.00159712
0.00104065
0.000855431
0.000506029
-0.000366814
0.00061136
0.000880919
0.000718501
0.000543792
0.000335243
0.000983716
0.00127006
0.000251771
0.000477415
0.000701442
0.000552163
0.000347034
0.000827768
0.000986446
0.000275641
1.36923e-05
0.000930487
0.000842676
0.0003771
0.00054549
0.000973529
0.000265981
0.000850076
0.0011397
0.000307272
0.000880744
0.000455575
0.00081265
0.000580514
0.00053431
0.000518597
0.000818083
0.000360538
0.00145055
0.00176312
0.000234709
0.000505916
0.000634126
0.000745676
0.000925846
0.00136239
9.56915e-05
0.00153469
0.000706257
0.00023285
0.00040348
0.000581169
0.000585453
0.000714402
0.000800267
0.000415405
-0.000205431
0.000826408
-0.000277516
0.000861053
0.000772357
0.000854258
0.000762481
0.000812944
0.000806577
0.000972759
0.000783944
0.00091678
0.000844263
0.000797781
0.000916141
0.000792851
0.000740261
0.000772611
0.000467957
0.000988806
0.000434769
0.000765649
0.000822037
0.000999997
0.00100496
0.000932945
0.000892902
0.000809351
0.000893013
0.000822932
0.000357178
-0.000534756
-0.000358054
0.000352027
0.0012324
0.00090014
0.0013053
-0.00123398
0.000754153
0.000681826
-0.00062198
-0.000153485
0.000682257
0.000876572
0.000718389
0.000972045
0.000719192
0.0011278
0.000963094
0.000788524
0.00125927
0.00101479
0.000712246
0.00131041
0.000940974
0.00124338
-0.000147446
0.000483934
0.000531447
0.000607447
0.00196755
0.00129232
0.000943224
0.00120543
0.00124789
0.000957918
0.00108184
0.000853464
0.00107081
0.00119956
0.00059957
0.000381707
-0.000470963
0.000524257
0.00059368
0.00118508
0.000760914
0.000302136
0.000769645
0.000934398
0.000863296
0.0002271
0.000841183
0.000717025
0.000889721
0.00147807
0.000778977
0.00127822
0.00113839
0.00127366
0.00132649
0.000961496
0.000824887
0.00168394
0.00136431
0.00125721
0.000626525
0.00046251
0.000746884
0.00128176
0.00130496
0.00169596
0.000404259
0.000396074
0.00114545
0.000895344
0.00108782
0.000887323
0.000331523
0.000478043
0.000492814
0.000400058
0.000876295
-0.000198202
-0.00046004
0.000276867
0.000558026
0.000634562
0.000578585
0.00066424
0.000847134
0.00113456
0.000930658
0.000726177
0.00108668
0.000257692
0.000971921
0.000432059
0.000859581
0.000729039
1.89925e-05
0.000899558
0.000814298
-0.000763043
0.000619329
0.000604511
0.000714279
0.000443125
0.000490504
0.000705107
0.000602434
0.000475023
0.000509719
0.000578207
0.000713228
0.00072495
0.000699048
0.000698381
0.000729893
0.00070643
0.000603616
0.00069231
0.000652198
0.000674456
0.000741987
0.000742383
0.000431849
-0.00117199
0.00119816
0.000856398
0.00114659
0.00151177
-0.00159585
0.0010461
0.000990492
0.000629991
0.00069833
-0.00011005
0.000714065
0.000572167
-4.32614e-05
-3.99574e-05
0.00157256
0.000779726
0.000175617
0.000619058
0.000287036
-0.000319507
-0.000266091
0.00187912
0.000989819
0.00147511
0.000752033
0.000953544
0.000562412
0.000244105
0.00052723
0.000491808
0.000527248
0.000604666
0.000319376
0.000595262
0.000706289
0.000582638
0.000220485
0.000580269
0.00081668
0.000640083
0.00106544
0.000101286
0.000973789
0.000628428
0.0015965
0.00141161
0.00023836
0.000975128
0.000453984
0.000739104
0.000742704
-0.000891694
0.000798441
0.00107911
0.000576923
0.00111336
-8.2316e-05
0.0029163
0.00172341
0.000263497
-0.000102833
0.000592855
0.00221932
0.00107708
0.000479984
0.000866635
0.000940629
-0.000134019
0.000550567
2.5863e-05
0.000217665
0.000166467
-0.000122641
0.00147667
0.00102483
0.000832626
0.00058601
0.00162203
0.000818723
0.000601956
0.000430876
0.00156686
0.00172991
0.000557472
0.00197716
0.000769612
0.00133924
0.00162812
0.000810352
0.00086804
0.000702863
0.000538319
0.000722849
0.000443422
0.000485723
0.000432546
0.000414521
0.000475828
-0.000340983
0.00086485
0.000998574
0.00152745
0.000732407
0.000771803
0.000884927
0.000852111
0.000836243
0.000947236
0.000760329
0.00058122
0.000548294
0.000288503
0.000621491
0.000434808
0.000214963
0.000150709
0.000515149
0.000787053
0.000720616
0.00111272
0.000601809
0.000600873
0.000699123
0.000833381
0.000584174
0.000642621
0.000624492
0.000646866
0.000395708
0.000848508
0.000581204
0.000436084
0.000838294
0.00102718
0.000883113
0.00079863
4.72799e-05
0.000139719
2.04771e-05
0.00130608
0.00108077
0.000705385
0.000970189
-8.36376e-05
0.000681415
0.000571393
0.000874566
0.00065124
0.000507591
-0.000117476
0.0013181
-9.81259e-05
0.00120133
0.000494098
0.000662372
0.000505566
0.000963533
0.000281681
0.000462276
0.000812149
0.000322202
0.000648774
0.00085641
0.000892845
0.001049
0.00128521
0.000699725
0.00098418
0.000645746
0.000647148
0.000433873
0.000196943
0.000492944
0.000732241
0.000174247
0.000584024
0.000479849
0.000916844
0.00101061
0.000542387
0.000954734
0.000811594
0.000635945
0.000410108
0.000745671
0.000797571
0.000679998
0.000368935
0.000928103
0.000792254
0.000724838
0.000763076
0.000339968
0.00102441
0.000549961
0.000342853
0.000629091
0.000882538
0.000188421
0.000139516
0.00058792
0.000964104
0.000483889
0.00154745
0.000478996
0.00029358
0.000627599
0.000556647
0.000795981
0.000391614
0.000796737
0.000823191
0.000851818
0.000897083
0.000849342
0.000556611
0.000130186
0.000906524
0.000566555
0.000198588
0.00116131
0.00137166
0.000970072
0.000226895
0.000646839
0.00139463
0.000358499
0.00102527
0.00120816
0.000763497
0.0017032
0.00109065
0.000197644
0.00061354
0.000513006
0.00145579
0.000325872
0.000660478
0.000544887
0.000639093
0.000655907
0.000727987
0.000143818
0.000798268
0.000440189
0.000356135
0.000548531
0.000882906
0.000705872
0.00091768
0.000523185
0.00099745
0.000948282
0.000983086
0.00109724
0.00093782
0.00133419
0.00153763
0.000447458
0.00105179
0.00040463
0.000121768
0.000453264
0.000199269
-3.85504e-05
0.000906563
0.0015475
0.00140537
0.000483693
0.000884254
0.00148605
0.00076543
8.5017e-06
0.00107927
0.00136086
0.000912501
0.000651817
0.000457556
0.000535572
8.04241e-05
0.000560809
0.000664282
0.000118477
0.00101928
0.000563437
0.00031023
0.000668558
0.000581997
0.000685811
0.000564816
0.000287935
0.000843881
0.00071188
0.000448024
0.000646491
0.000373942
0.000103079
-0.00111879
-0.000563649
0.000158681
0.000287664
0.00064013
0.000693762
0.000212232
0.000687477
0.000440895
0.000508489
0.000787631
0.00068042
0.000750393
0.000588483
0.000695841
0.000736516
0.000613386
-6.00027e-05
0.000544752
0.000279221
-0.00060613
0.000985353
0.000883922
0.00067239
0.00059607
SCALARS CoVolArea double 1
LOOKUP_TABLE default
262592
105036
189622
181797
140065
201096
147912
135791
158105
189309
226135
151435
216475
190556
207038
253330
153089
166064
185574
216389
213856
234557
175451
152465
342945
253449
238751
301312
404901
383582
259590
244282
229461
246025
250281
246918
400783
210205
194722
183131
196040
211489
247045
206173
268457
202087
231730
222550
131011
185718
133685
203165
264155
350701
202464
148037
130777
179131
308789
155605
131964
166172
175545
285384
270723
255231
236525
129724
260119
198923
214609
201637
293949
305397
313677
239141
231837
217610
254321
199891
156665
159989
163416
165941
160645
305581
237756
195423
214601
358896
199534
248060
285879
204173
246456
237222
294480
181870
164276
339807
89619.6
111105
203586
290023
179986
140606
148429
136346
141725
186720
231873
158636
231086
268795
245246
241785
222550
166413
252172
266807
219772
289719
255182
239512
256478
244779
304554
234975
241364
249055
220341
248834
215295
237566
163255
264014
215678
186896
192274
162697
211693
205724
247065
221021
153653
163196
205935
198870
185020
164482
231065
198618
272800
155752
215262
276824
194308
183498
407263
189785
166444
229286
306451
257909
373182
218830
191339
204212
223753
186725
190943
190591
217267
199831
213034
210953
195618
212384
220920
232012
161588
128810
167401
177522
148177
147335
149433
150640
189060
250687
238675
227914
324198
354983
280343
261684
178145
196307
142404
302102
242732
254830
316815
334193
170533
213050
130300
134490
146435
146082
140948
144863
185783
118170
149092
215635
158123
157912
226954
220455
247092
238722
155710
172570
222819
109318
133620
173594
146261
150153
142925
166249
186741
243610
262234
235179
214118
167372
195321
254373
225628
284987
265650
347560
189874
240579
246910
192682
215004
198126
234899
125585
172070
239395
209506
165515
194472
234313
250955
198004
221667
215847
166933
160427
209388
199270
213349
304117
278962
292100
285145
280866
267122
259889
243762
331974
316032
285139
295291
245586
232039
252920
228534
191914
230720
233050
223740
238767
236141
345407
304778
288832
265447
173709
255045
294506
180271
251288
161378
296169
254955
164554
156376
165403
218787
228897
194858
162855
194915
158918
150928
143261
161722
156815
169991
195514
178936
176779
215828
334420
162127
130474
238524
197651
298889
183925
188398
306462
209325
322882
197135
204276
205249
252221
161975
288089
321240
183751
245721
396824
410648
166528
251428
220201
238249
202109
240436
250840
295965
268885
297446
278147
268803
263880
221996
234757
234891
237697
244525
218248
205495
324463
245519
244497
171530
202867
249188
262049
305981
310578
247512
335923
212948
170096
291775
191036
288845
79515.2
80890.8
228820
100564
235848
93630.9
174316
181946
181844
143298
401029
289177
308105
315842
275139
351303
166774
194952
245866
253026
163661
166853
196029
219505
143725
120013
114009
100798
195633
105862
156169
136971
163578
152163
177670
155633
170118
226548
206079
230579
236411
309150
164717
206231
162206
229898
243722
222115
241263
235246
219668
239135
253219
272589
228325
208144
196162
261708
227474
233130
189437
187658
216643
204657
239613
221357
261316
245135
240260
214263
228898
267178
273705
289734
306743
232598
213543
261796
240773
326322
286617
394520
173758
215358
266188
233592
264239
233394
268444
228039
236715
257312
388145
255456
322662
211837
225939
260913
306898
310514
364321
244576
226331
303441
252220
213001
224005
218757
197885
228230
223318
233265
225877
266382
319780
210358
206864
194901
225690
210295
181847
164138
191468
206366
287809
265221
280976
233143
220497
240036
245097
199843
221040
229832
171630
214771
174976
179848
171547
184279
199101
225643
221875
200223
200472
167930
136526
186059
206936
194853
273696
240930
278869
232670
232230
222171
226836
245523
209858
202709
162225
172591
211069
132691
184873
171390
217630
223627
160899
185369
146619
146362
242375
177850
247409
233193
217092
203987
174621
183936
207500
186137
173080
201450
210172
300997
191010
205209
181939
182347
212542
196547
199779
252754
237408
224792
222297
242922
201563
196851
162248
242905
252690
275589
281019
322281
329332
308740
250917
228359
249828
166510
201482
136305
151531
243667
197978
208051
180499
219749
244777
282904
322453
291625
228672
268847
231856
252787
242241
162671
190679
165887
174418
315928
158051
286012
177376
176347
199871
96924.4
507792
315976
219483
336592
209622
263031
369340
207563
237046
212869
166744
162249
174590
193669
149226
190051
226760
244644
180927
271861
268837
223583
206962
194043
187653
SCALARS SignedDistance double 1
LOOKUP_TABLE default
1132.63
1407.26
862.194
869.854
1164.05
1547.65
1254.68
1438.58
1311.3
1166.27
1376.6
913.95
924.582
1157.15
1280.74
1585.17
1125.89
1159.99
1029.59
1067.13
971.084
1042.84
1320.51
1347.45
1204.71
1275.52
1149.29
1026.36
1780.19
1356.63
1510.67
1665.14
888.288
1096.58
878.355
872.63
1018.54
1008.42
1032.5
1310.45
1070.91
1259
1078.23
1076.5
1261.34
968.246
962.437
902.741
1394.4
1212.13
1368.74
1243.21
1101.22
1537.66
1473.93
1253.03
1339.08
1457.28
1242.22
1139.71
1254.63
1087.03
1124.01
1258.35
1263.65
791.904
954.755
1312.39
840.774
1119.65
969.823
1135.79
1045.83
1161.36
1142.96
995.052
994.585
1403.21
1527.3
1381.27
1379.87
1264.16
1309.97
1246.66
1361.75
1494.17
1057.31
1118.59
1188.07
1442.94
1285.15
967.527
1015.39
1153.36
1068
925.771
1051.78
941.29
1376.81
1494.54
1517.14
1410.71
1275.32
1720.31
1362.65
1390.63
1594.92
1471.68
1342.81
1423.65
1631.42
1369.34
818.719
882.042
885.244
1137.83
1081.24
1094.09
967.494
1002.36
1094.03
992.212
992.109
934.277
875.977
1010.85
985.611
877.526
978.137
961.711
962.957
969.243
1161.83
1041.22
1210.36
1068.94
911.638
1278.03
1182.6
1258.24
1239.65
1311.4
896.602
1235.43
1171.57
1107.36
1213.15
1201.25
1229.1
1325.97
843.301
1052.58
1138.25
1309.33
1121.74
1244.93
1421.27
1355.18
1810.2
1292.85
1320.61
1391.48
1130.25
1173.33
1179.26
988.547
1062.19
981.795
1240.43
1148.55
1176.09
927.166
910.027
893.362
1032.2
951.51
1031.28
903.819
918.177
931.389
1434.43
1378.06
1427.93
1232.14
1301.03
1340.18
1272.42
1289.95
1178.18
1007.31
1080.7
1124.88
1163.31
1201.71
1335.61
1236.23
1083.36
1162.4
1166.83
1544.68
1495.17
1505.84
1561.94
1581.32
1454.56
1454.35
1329.92
1368.65
1430.09
1230.34
1293.14
1175.44
1521.24
1405.63
1432.11
1380.74
1397.47
1286.5
1287.32
1120.04
1049.66
1147.24
1105.31
1267.05
1210.36
1343.6
1264.62
1100.54
1155.27
1172.81
1174.64
1117.39
1228.14
1320.98
1436.07
1167.12
1237.65
1057.32
1177.59
1207.22
1098.77
1021.08
1038.17
1237.38
1007.24
1039.92
843.932
951.839
935.696
907.93
850.279
1336.69
1138.35
940.989
979.468
1174.6
999.412
895.046
1205.29
1099.49
1210.77
928.297
1047.78
1063.58
1061.85
1028.12
1009.23
749.016
844.784
780.629
1070.18
1004.89
1025.4
1024.78
958.211
1315.63
1211.13
1039.69
1149.04
1086.15
1142.74
1085.4
942.066
928.942
906.996
926.523
1018.11
957.266
1010.73
1073.75
1030.52
935.382
1558.83
1510.13
1507.54
1583.92
1391.68
1434.54
1374.53
1438.29
1422.3
1351.55
1376.33
1357.66
1413.27
1430.87
1216.65
1246.19
1209.26
1324.36
1286.62
1305.45
1283.61
1279.36
1307.62
1388.37
1345.44
1356.1
1435.03
1532.65
1290.85
1371.44
1387.17
1492.11
1465.32
973.585
996.086
1189.56
1074.91
1145.29
1022.25
1109.54
1158.78
1205.12
1201.21
1315.72
1209.19
1258.66
1329.67
1250.44
1246.05
1283.39
1333.35
1432.14
1013.05
970.738
1027.36
1032.84
976.248
980.986
977.961
1252.69
1159.22
1054.11
1099.32
1101.57
1117.58
1082.63
858.254
908.343
855.798
1008.67
1000.46
1037.92
1095.65
1006.63
1121.62
1010.91
1022.33
994.488
1293.15
1410.15
1221
1264.26
1485.57
1428.35
1559.42
1530.71
1422.47
1481.55
1420.5
1560.77
1375.19
1284.58
1258.98
1342.01
1347.52
1547.26
1360.99
1323.31
1429.67
1368.08
1771.77
1411.75
1517.24
1551.27
1442.17
1653.42
1248.14
1287.57
1525.94
1473.17
1536.14
1427.72
1388.2
1457.15
1409.35
1570.68
1273.25
1242.29
1364.93
1394.27
1342.79
1671.4
1510.35
1542.49
1397.1
1446.77
1567.41
1344.45
1451.31
1511.68
847.493
841.77
866.127
861.287
833.486
822.935
867.31
877.038
895.257
1152.79
1154.61
1168.09
1106.37
1123.21
1122.65
988.331
1063.32
986.62
1066.24
1007.92
1115.49
936.138
978.275
915.309
1086.24
1039.22
1068.12
950.959
1049.89
974.159
968.551
944.187
906.812
945.593
1008.63
993.839
1003.7
1046.26
934.889
873.892
862.256
915.395
921.077
901.384
961.378
890.173
865.825
1006.67
1037.43
1011.09
834.67
967.719
921.464
924.135
955.015
1014.08
955.761
929.839
1018.91
998.977
973.634
936.97
979.701
888.458
954.019
949.05
937.412
966.532
997.932
1011.7
1194.84
1171.87
1219.76
1070.87
1109.91
1120.91
1090.36
1109.31
1038.68
978.548
979.487
1003.75
957.146
880.532
1033.27
1010.58
974.61
1003.52
1070.16
1269.98
1222.36
1280.04
1268.46
1300.79
1194.81
1123.67
1252.06
1261.36
1313.02
1197.83
1261.67
1206.86
1303.99
1262.63
1268.59
1101.73
1197.55
1151.2
848.936
955.005
880.272
834.889
865.574
1266.7
1250.41
1206.94
1227.35
1237.6
1210.62
1131.8
1167.2
1176.59
949.727
1081.63
1249.29
1175.54
1191.68
1019.07
1137.19
956.055
1105.55
1144.21
1147.61
1212.95
1239.32
1197.66
1280.85
1241.29
1188.69
1168.32
1418.59
1324.92
1380.31
1366.57
1337.09
1206.42
1279.81
1262.06
871.984
795.616
815.945
884.318
961.173
1133.11
1224.52
1235.9
1046.75
881.857
1036.43
1074.36
1003.02
1062.68
1181.41
883.039
1111.28
1009.1
1300.35
1137.42
1244.25
1353.71
1403.53
912.701
1185.95
1015.21
1011.54
1051.38
1252.35
1313.94
1280.43
1178.22
1178.97
1240.17
1325.14
1390.04
1369.81
1370.75
1376.46
1424.15
1493.95
1347.33
1464.4
1371.4
1330.66
1349.54
1617.25
1652.79
1706.77
1652.83
1867.33
1402.94
1476.47
1479.62
1212.61
1223.1
1224.44
1276.9
1323.28
1313.24
1364.85
1343.25
1279.63
1247.62
1546.89
1384.69
1432.9
1546.02
1428.23
1308.19
1351.03
1351.25
