# vtk DataFile Version 4.2
vtk output
ASCII
DATASET POLYDATA
POINTS 642 double
-2670.81 6698.05 -309.801
1117.24 6491.41 -233.99
-2733.28 -115.845 -39.4518
1714.64 -113.497 -2.8819
-589.732 1188.78 3269.28
-902.845 5157.72 2744.14
-523.844 1422.84 -2971.38
-860.923 5488.99 -3335.52
2427.75 3272.19 -1729.14
2606.31 3210.7 1797.51
-3679.97 3689.24 -2003.18
-4017.2 3470.9 2086.06
-3839.85 5419.45 1207.45
-2584 4615.96 3036.61
-1853.86 6287.46 1781.06
328.354 6144.3 1299.08
-561.903 7245.41 -131.741
494.305 6504.28 -1850.45
-1941.6 6866.41 -2212.63
-2592.63 4881.6 -3311.74
-3885.16 5593.38 -1453.52
-4463.69 3455.59 50.9317
1217.65 4309.06 2668.44
2208.6 4935.53 1009.47
-2429.25 2057.71 2881.29
-504.514 3253.14 3424.72
-3604.91 1340.61 -1098.67
-3673.19 1330.17 1211.53
-796.269 3706.66 -3218.29
-2279.76 2320.78 -2652.36
2003.79 5073.86 -981.096
1020.15 4667.37 -2488.15
2863.26 1277.03 1209.36
1358.22 2133.53 2936.77
764.02 64.0828 1991.67
-1890.48 -8.17983 2045.17
-531.214 -465.268 -52.3735
-1739.85 183.422 -1949.13
694.059 201.355 -1920.38
1227.6 2157.48 -2718.71
2735.43 1359 -1147.55
3178.56 3073.49 42.2907
-3335.98 6109.65 599.781
-2923.6 6040.1 1594.43
-2261.14 6534.57 929.923
-3411.81 4077.29 2692.37
-3352.21 5088.91 2275.83
-4063.89 4483.81 1725.89
-1372.28 5821.7 2383.98
-2286.69 5595.64 2530.64
-1723.84 4965.97 3040.75
-1096.72 6951.4 734.675
-1553.19 7078.66 -196.553
-166.778 5591.63 2119.79
-712.747 6381.9 1542.47
345.903 7006.87 -182.818
-67.1043 6893.58 697.482
701.995 6501.56 590.053
-1355.83 7089.98 -1181.36
-2395.57 7020.17 -1298.43
912.106 6653.86 -1014.13
21.9051 7096.66 -1061.87
-1400.4 6299.95 -2921.16
-728.1 6715.11 -2126.59
-140.065 6064.4 -2577.14
-3079.87 6428.07 -1918.85
-3371.89 6321.75 -911.3
-1691.08 5280.99 -3613.58
-2390.03 6002.24 -2981.08
-3944.44 4735.99 -1852.13
-3463.12 5329.04 -2559.48
-3276.2 4313.43 -2762.89
-3932.3 5544.93 -66.9572
-4194.69 3479.11 -962.47
-4205.77 4566.17 -704.661
-4376.15 4517.2 651.336
-4391.02 3471.17 1106.5
1412.72 5520.35 1324.07
1625 5679.62 387.891
378.829 4687.57 2753.63
907.183 5203.95 2172.14
2506.18 4181.33 1459.04
1844.79 4701.16 1920.71
1968.8 3843.05 2360.67
-1743.35 4022.94 3376.22
-728.564 4181.23 3154.4
-3370.5 2908.02 2634.62
-2665.2 3484.18 3176.47
-490.082 2266.01 3453.47
-1561.59 2885.57 3331
-1574.68 1495.65 3196.02
-4308.23 2388.88 609.352
-3949 2469.96 1654.21
-3764.8 2418.35 -1545.82
-4207.62 2401.79 -575.897
-3354.99 479.391 648.067
-3825.97 1238 -41.6974
-3355.05 487.638 -660.867
-2544.83 3727.56 -3189.49
-2982.36 3042.9 -2445.48
-887.757 4768.57 -3530.37
-1660.34 4384.79 -3632.37
-1418.99 1684.03 -2900.66
-1544.72 3085.33 -3185.47
-513.016 2315.36 -3174
821.303 5619.5 -2385.16
96.3584 5085.6 -2990.29
1604.13 5983.58 -727.994
1353.24 5964.84 -1509.81
1809.66 3813.05 -2206.57
1537.2 4919.89 -1941.76
2386.71 4133.5 -1387.24
2438.2 446.391 637.97
1963.59 537.604 1651.15
1328.93 -154.364 1021.68
2106.25 2652.2 2435.72
2283.48 1611.57 2185.31
2931.44 2230.17 1587.61
75.0436 559.215 2737.12
1164.51 993.354 2620
471.335 1628.63 3204.93
200.032 -414.598 1096.43
702.951 -422.304 -10.3584
-1189.79 518.973 2812.19
-560.723 -108.173 2162.18
-1748.02 -452.997 3.25458
-1301.94 -408.71 1096.22
-2371.29 -206.807 1109.26
172.775 -365.051 -1078.57
1256.62 -45.7978 -1006.77
-2344.59 -92.4192 -1015.87
-1227.75 -377.64 -1096.86
93.836 725.013 -2523.13
-556.881 71.0396 -2028.26
-1187.41 688.009 -2583.07
1813.91 676.816 -1555.17
2374.99 505.133 -624.903
400.775 1760.65 -2944.35
1048.97 1123.56 -2482
2757.45 2205.95 -1452.7
2072.58 1728.82 -2032.92
1911.84 2703.87 -2299.78
3018.31 1175.81 4.31294
2927.1 3153.86 -875.06
3241.29 2237.91 -583.355
3347.76 2239.65 605.655
3068.5 3103.68 918.546
433.444 2688.07 3378.87
1373.34 3273.74 2966.27
408.821 3794.3 3217.59
-2979.97 470.603 1747.4
-2304.9 924.132 2754.67
-3196.44 1560.46 2242.41
-2093.63 1085.38 -2520.65
-2864.03 629.965 -1583.66
-3035.27 1738.65 -2022.35
1235.95 3262.91 -2719.98
329.502 2737.69 -3113.01
63.3119 4104.16 -3063.13
2794.46 4172.74 555.265
2750.57 4158.65 -536.81
2297.49 4992.09 -1.29189
-2986.07 6356.35 156.616
-2842.78 6366.6 803.686
-2422.65 6572.17 361.898
-3415.14 5775.64 1422.81
-3159.47 6101.99 1125.38
-3618.64 5796.06 922.282
-2092.68 6443.87 1367.86
-2627.28 6321.32 1285.42
-2394.26 6213.2 1707.88
-3752.57 3774.61 2421.91
-3788.75 4282.2 2254.14
-4081.38 3968.98 1934.87
-2994.64 4861.28 2705.08
-3409.01 4599.43 2520.19
-3014.63 4364.86 2899.86
-3986.57 4978.59 1478.61
-3743.94 4813.63 2027.04
-3639.55 5276.85 1769.16
-1178.79 5513.39 2595.16
-1557.28 5422.77 2743.96
-1345.77 5100.3 2907.32
-2079.33 5983.64 2175.71
-1825.72 5737.06 2483.55
-1606.73 6085.6 2111.25
-2141.88 4810.25 3079.5
-2011.74 5297.81 2825.32
-2453.98 5133.54 2825.38
-3171.65 5612.05 1962.35
-2834.58 5388.92 2452.45
-2627.88 5854.92 2104.9
-1851.07 6841.3 327.714
-2111.71 6849.63 -323.231
-1476.73 6552.71 1237.47
-1670.67 6737.94 804.368
-1030.47 7220.25 -119.874
-1288.92 7071.94 318.349
-850.452 7157.31 316.637
-577.874 5339.36 2411.97
-909.275 5786.8 2272.96
-189.892 6382.94 1411.93
-551.783 6033.3 1811.28
144.106 5865.14 1704.56
-1100.59 6078.42 2031.25
-1252.89 6325.43 1733.14
755.911 6777.19 -207.504
570.862 6777.58 244.1
926.228 6522.47 186.795
-301.134 7121.3 305.244
134.656 6990.52 284.981
-107.074 7167.06 -160.237
508.253 6386.94 967.704
346.166 6717.47 669.12
118.429 6606.99 1008.89
-863.298 6719.52 1185.68
-347.088 6709.66 1117.51
-581.228 6988.52 742.266
-2051.29 7026.91 -867.797
-2546.01 6877.49 -855.762
-842.668 7229.42 -597.623
-1494.82 7119.6 -690.515
-2191.5 7013.66 -1743.2
-1954.28 7123.31 -1311.87
-1749.93 7062.52 -1747.93
1048.99 6614.6 -618.48
660.901 6889.54 -616.033
276.014 6847.67 -1480.76
478.836 6912.23 -1054.4
717.331 6614.23 -1449.57
198.331 7105.23 -623.061
-250.1 7226.19 -614.34
-1131.83 5917.73 -3161.48
-857.972 6184.85 -2810.82
-590.195 5774.39 -2960.46
-1425.59 6816.28 -2249.37
-1145.18 6547.08 -2566.98
-1673.4 6622.56 -2609.65
244.536 6324.32 -2210.04
-432.893 6412.16 -2377.78
-25.1017 6664.3 -1962.22
-539.186 7176.08 -1094.09
-262.075 6974.05 -1564.9
-1029.46 6958.06 -1682.62
-2922.73 6722.4 -1122
-3024.77 6566.05 -609.095
-2519.96 6707.1 -2093.63
-2764.35 6789.28 -1605.18
-3666.7 6004.84 -1189.84
-3284.93 6438.02 -1421.46
-3540.44 6054.67 -1694.37
-1269.73 5414.83 -3496.79
-1548.71 5840.07 -3303.62
-2543.92 5428.91 -3216.03
-2035.91 5658.67 -3306.24
-2138.49 5095.25 -3519.89
-1873.45 6219.09 -3009.28
-2173.16 6492.3 -2647.33
-3817.37 4228.38 -1974.73
-3658.17 4549.52 -2326.41
-3511.35 4036.24 -2422.99
-3739.58 5480.1 -2023.06
-3772.93 5038.45 -2220.4
-3993.6 5150.98 -1689.88
-2958.81 4623.51 -3057.84
-3398.05 4867.65 -2685.31
-3070.43 5131.28 -2989.5
-2776.4 6261.94 -2503.99
-2974.41 5695.11 -2820.57
-3319.24 5911.55 -2287.12
-3343.25 6199.72 -189.475
-3893 5599.43 -823.176
-3665.67 5933.55 -520.525
-3665.56 5847.05 269.022
-3942.96 5496.82 618.135
-3898.73 3560.06 -1492.67
-3988.89 4187.34 -1419.83
-4387.32 3992.84 -265.081
-4229.75 4042.32 -845.841
-4368.47 3445.65 -465.486
-4087.35 4701.84 -1326.57
-4072.47 5105.29 -1155.07
-4292.02 3975.58 1458.25
-4257.25 3471.43 1625.95
-4165.6 4991.71 955.143
-4258.72 4523.78 1204.31
-4494.57 3470.92 550.299
-4406.54 3989.09 873.115
-4483.88 3995.66 352.591
-4140.32 5074.48 -396.531
-4386.57 4529.42 34.5648
-4214.45 5039.77 336.792
1159.84 6132.66 402.46
1319.48 6191.94 -5.4871
863.54 5826.76 1372.67
975.494 5970.87 904.764
1987.69 5257.57 770.876
1564.76 5594.67 892.59
1829.73 5258.77 1182.48
-181.098 4876.68 2727.36
182.845 5140.77 2476.04
1076.75 4788.33 2440.24
672.014 4972 2474.05
814.367 4506.39 2736.35
484.145 5378.42 2174.47
693.007 5590.82 1838.62
2576.92 3738.94 1652.17
2279.31 4022.72 1931.56
2293.46 3575.43 2122.86
2063.3 4835.43 1481.85
2196.38 4458.86 1710.37
2384.51 4572.19 1241.62
1608.76 4084.72 2541.34
1929.26 4291.79 2157.12
1563.67 4523.46 2316.71
1185.07 5390.1 1774.94
1391.15 4982.74 2076.13
1651.61 5143.18 1642.7
-1370.31 4633.34 3130.94
-830.427 4711.96 2880.04
-2124.61 4321.92 3268.96
-1737.09 4488.14 3245.28
-582.82 3756.25 3322.69
-1319.9 4180.78 3287.31
-1236.71 3699.06 3286.55
-3728.07 3184.16 2398.67
-3446.33 3476.03 2710.7
-2625.31 2939.54 3079.85
-3047.49 3198.17 2937.97
-2920.12 2558.01 2774.6
-3063.88 3776.31 2967.72
-2652.16 4046.01 3144.45
-577.022 1675.42 3330.34
-985.079 1787.85 3317.18
-1046.96 1336.83 3298.68
-1045.77 3055.47 3415.69
-932.959 2469.88 3396.66
-465.538 2773.65 3490.8
-2043.48 1664.31 3098.17
-1508.18 2025.02 3188.57
-2033.41 2462.96 3106.5
-2161.5 3760.38 3381.52
-2164.34 3239.98 3339.66
-1734.24 3480.09 3439.14
-4242.51 2984.82 1432.54
-4036.77 3003.09 1908.04
-4428.88 2924.99 327.862
-4364.06 2949.03 857.293
-3843.77 1859.96 1422.23
-4166.69 2408.56 1139.87
-4056.06 1894.67 900.232
-3719.3 2959.31 -1735.58
-3996.12 2907.88 -1265.19
-3935.59 1874.16 -873.068
-4015.57 2386.73 -1080.77
-3717.96 1905.88 -1334.99
-4221.63 2913.38 -757.996
-4376.3 2911.5 -272.156
-3078.87 135.885 306.394
-3394.3 440.922 -41.4757
-3079.98 142.303 -364.245
-3799.97 1269.39 587.428
-3642.58 797.106 292.904
-3551.17 838.296 958.163
-3535.7 873.31 -913.595
-3645.35 805.956 -363.873
-3775.83 1240.07 -612.104
-4333.05 2377.97 17.952
-4073.75 1826.25 -304.57
-4141 1842.74 307.694
-3170.74 3757.97 -2720.12
-3365.98 3394.2 -2187.61
-2583.77 4280.09 -3292.94
-2916.15 3989.13 -3034.52
-2680.03 2735.38 -2630.35
-2795.16 3470.35 -2922.87
-2468.19 3225.86 -2970.59
-847.5 5071.42 -3534.05
-1274.9 4985.77 -3662.08
-1346.1 4186.34 -3538.32
-1300.94 4603.89 -3615.48
-939.803 4405.34 -3480.92
-1676.59 4839.89 -3705.56
-2060.76 4623.98 -3558.25
-985.611 1546.58 -2964.93
-941.404 2032.39 -3120.2
-511.838 1868.48 -3130.12
-1889.76 2743.24 -2966.87
-1377.91 2269.71 -3063.25
-1828.24 1878.48 -2782.71
-536.279 2886.81 -3215.82
-979.679 2574.6 -3175.35
-1209.65 3407.42 -3256.57
-2095.49 4027.91 -3473.9
-1712.64 3855.45 -3489.64
-2098.92 3529.39 -3291.57
-2.44862 5565.64 -2829.9
-438.501 5245.33 -3233.74
673.304 6088.59 -2155.04
[...]
POINT_DATA 642
SCALARS Mean_Curvature double 1
LOOKUP_TABLE default
0.000753708
0.000760017
0.00062714
0.000720819
0.00128107
0.000974173
0.000716179
0.000863154
0.000635226
0.000323181
0.000687736
0.000904391
0.000671402
0.000749326
0.000605088
-0.000252087
0.000864938
0.00069376
0.00103258
0.000649111
0.000850965
0.000456823
0.000509861
0.000592009
-0.000245474
0.000278033
0.000200656
9.04586e-05
-0.000522053
-0.000224237
-7.72304e-05
0.000184726
0.000731998
0.000398654
0.000672301
0.00083107
0.0001211
0.000681581
0.00074101
0.000453477
0.000657405
0.00031453
0.000631735
0.00065821
0.000315406
0.000650686
0.000602001
0.000575887
0.00074214
0.000683301
0.000844012
0.000645662
0.000513945
0.000126155
0.000246766
0.000629674
0.000761555
0.000598652
3.61086e-06
0.00120461
0.000728701
0.0008118
0.00078943
0.000364989
0.000321519
0.000684967
0.000469834
0.00139721
0.000682822
0.000717819
0.000983384
0.000533974
0.000448009
0.000470828
9.09379e-05
0.000655048
0.000492987
0.000492992
2.22179e-05
0.000383268
0.000589379
0.000613123
0.000574792
0.000573679
0.000877555
-9.45823e-05
0.000657348
0.000638065
0.000597686
7.28572e-05
0.000632338
0.000667874
0.000169219
0.000629876
0.000538235
0.000415626
0.00011007
0.000800709
0.000745187
-0.000409046
0.000824029
0.00114425
0.000204227
0.00023126
0.000255753
0.000594007
0.000816762
0.00100503
0.000705653
0.000431976
0.00016425
0.00053297
0.000682179
0.000588457
0.000472643
0.000280813
0.00083201
0.000844701
0.000293029
0.000455309
0.000625705
0.000593543
0.000429298
0.000605703
0.000748734
0.000462244
0.000146858
0.000702124
0.000680749
0.000331322
0.000547253
0.000734216
0.000327051
0.000626759
0.000861944
0.000348194
0.000676296
0.000377475
0.000595037
0.000788454
0.000505311
0.000412899
0.00065809
0.000237108
0.0010036
0.00108475
0.000260168
0.000398185
0.000564302
0.000627888
0.00070973
0.00072638
0.000349253
0.000952183
0.000544412
0.000123101
0.000427232
0.00040894
0.000342131
0.000590192
0.000654698
0.000411682
-8.87814e-05
0.000646403
-0.000207381
0.000664548
0.000637918
0.000655095
0.000566623
0.000645997
0.000651793
0.000729555
0.000624577
0.000692665
0.000612984
0.000632773
0.000661263
0.000630271
0.000605249
0.000616976
0.000572877
0.000753001
0.000582635
0.000643536
0.000640205
0.000713111
0.00065636
0.000701644
0.000718144
0.00062855
0.000650382
0.000658476
0.000291509
-0.00038433
-0.000211159
0.000210977
0.000832455
0.000710555
0.000882998
-0.000699401
0.000680615
0.000675724
-0.000260257
-0.000160964
0.000595781
0.000551698
0.000616953
0.000738491
0.000696057
0.000816798
0.000715026
0.000633114
0.000768979
0.000789332
0.000719102
0.000797805
0.000772684
0.000867906
0.000378013
0.000527642
0.000474407
0.000292859
0.00106403
0.00121212
0.000930453
0.000944984
0.000922751
0.000731756
0.00070993
0.000682312
0.000829545
0.000873215
0.000726201
0.000448549
-0.000125792
0.000629758
0.000629862
0.000984581
0.000630884
0.000167822
0.000635185
0.00071007
0.000678004
9.08954e-05
0.00077818
0.00053777
0.000602037
0.00090777
0.00074798
0.00100578
0.000765989
0.000598948
0.000973274
0.000670359
0.000417283
0.000934357
0.000950985
0.0007804
0.000536402
0.000426629
0.000639174
0.000718428
0.00111986
0.0011894
0.000321389
0.000588684
0.0010179
0.000686979
0.000714668
0.000662577
0.000287954
0.000345514
0.000400249
0.000325045
0.000707957
-0.000175177
-0.00021675
0.000293371
0.000375609
0.000500658
0.000602873
0.000571303
0.000672326
0.000819718
0.00068731
0.00058269
0.000793037
0.000231301
0.000725762
0.000323696
0.000718321
0.000542411
8.05e-05
0.000663591
0.000418903
-0.000471287
0.000509307
0.000447649
0.000592523
0.000269997
0.000438222
0.000578841
0.000513517
0.000455799
0.00045938
0.000494038
0.000572593
0.000595857
0.000568403
0.000572241
0.000597624
0.000589675
0.000530897
0.000577364
0.00054042
0.000559981
0.000596266
0.000601214
0.000530219
-0.000672996
0.000747496
0.00079005
0.000615836
0.000867963
-0.000811385
0.000786606
0.000758753
0.000483027
0.000647273
0.000108412
0.00060251
0.000476474
0.000138029
0.000244113
0.00121507
0.000441878
0.000155445
0.000769302
0.000835978
-0.000367108
-0.000181253
0.00101624
0.000770105
0.00118539
0.000621933
0.00076311
0.000465289
0.000262063
0.000406498
0.000420443
0.00047298
0.000411845
0.000332374
0.000429869
0.000583301
0.000458591
0.000301698
0.000552203
0.00062711
0.000563846
0.000767329
8.69912e-05
0.000776945
0.000670028
0.000992144
0.000912421
0.000538969
0.0007447
0.000375195
0.000608507
0.000697549
-0.000464836
0.000567587
0.000789356
0.000507422
0.000845775
0.000153558
0.00164986
0.00154152
0.000498826
0.00048586
0.000463513
0.00177277
0.000487475
0.000345238
0.000653781
0.00090315
-0.000110457
0.00047592
-4.16385e-05
0.000179949
0.000250146
-8.29461e-06
0.000846637
0.000915493
0.000633729
0.000200614
0.00049168
0.000659629
0.00056448
0.000906009
0.000682562
0.00113342
0.000769955
0.00108579
0.000641952
0.000713972
0.000901159
0.000640752
0.000673089
0.00059016
0.000465901
0.000604537
0.000441618
0.000290897
0.000290946
0.000439029
0.000416292
-0.000324362
0.000668215
0.000751404
0.00090169
0.000621111
0.000631357
0.000653534
0.000660729
0.000663279
0.000706984
0.000563928
0.000520685
0.000456271
0.000241084
0.000642902
0.000577178
0.000336028
0.000294968
0.000403558
0.000688574
0.000657895
0.000779289
0.000564882
0.000444835
0.000541237
0.000651599
0.000537382
0.000527252
0.000494568
0.000539265
0.000399151
0.000646528
0.000518652
0.000433706
0.000777493
0.000771834
0.000669934
0.000609806
0.000111154
0.000236136
6.44628e-05
0.00076547
0.000810151
0.000492964
0.00073647
8.71076e-05
0.000579651
0.000449708
0.000678632
0.000427082
0.000418684
-4.70781e-05
0.00106995
-1.29579e-05
0.00078838
0.000673081
0.000574911
0.000382395
0.000742536
0.000418703
0.000410058
0.000678834
0.000359724
0.000573359
0.000645224
0.000630389
0.000764801
0.000871292
0.000675686
0.000721936
0.000443894
0.000486067
0.000420704
0.000292269
0.000427853
0.000639819
0.000214657
0.000532239
0.000428953
0.000741233
0.000722448
0.000477427
0.000767449
0.000578774
0.000532547
0.000368319
0.000640552
0.000633518
0.000544957
0.000357375
0.000707661
0.000664602
0.000627545
0.00053026
0.000343475
0.000826418
0.000561166
0.000410514
0.000641072
0.000693642
0.000112914
0.000151889
0.00047636
0.000662362
0.000738707
0.000987449
0.000373491
0.000312793
0.000613478
0.000473529
0.000545501
0.000376048
0.000644656
0.000641122
0.000655816
0.000698509
0.000664812
0.000393213
0.0003115
0.000875245
0.000649191
0.000167943
0.0010453
0.000821741
0.000899498
0.000189789
0.000534901
0.000877732
0.000479031
0.000933446
0.00105021
0.000538739
0.00111715
0.000744384
0.000177929
0.000545918
0.000507773
0.00101053
0.000392379
0.00054207
0.000493311
0.000552413
0.000559192
0.000599396
0.00027799
0.000636049
0.000487173
0.000383348
0.000510092
0.000663073
0.000610311
0.000714187
0.000520902
0.000728009
0.000725107
0.000729141
0.000824748
0.000535263
0.00117107
0.00100702
0.000453199
0.000778902
0.000405668
0.000302562
0.000279145
9.9243e-05
7.71509e-05
0.000672455
0.0011291
0.000930701
0.000784239
0.000641058
0.000808434
0.000897653
0.000554171
0.000793534
0.000850444
0.000760555
0.0005896
0.000417634
0.00054163
7.94492e-05
0.00048404
0.000544318
8.80072e-05
0.000501516
0.000847706
0.000620679
0.000570791
0.000516633
0.000593151
0.000481514
0.000307829
0.000705784
0.000602494
0.000445755
0.000551064
0.000389182
0.00136945
-0.000924299
-0.000180461
0.000180628
-1.68051e-05
0.000518119
0.000518433
0.000295069
0.000505574
0.000292108
0.000398384
0.000643303
0.000566825
0.000615133
0.0005
0.000600063
0.000565519
0.000432224
0.000135332
0.000541285
0.000292404
-0.000452689
0.000593689
0.000697731
0.000569955
0.000561531
SCALARS CoVolArea double 1
LOOKUP_TABLE default
286936
159903
249762
242057
205182
224329
204200
201463
211159
235987
264876
217393
295169
274443
277591
293389
240656
244571
279417
296769
301237
301463
240828
221582
379342
302242
296827
350394
400721
394726
317873
273999
310631
308394
324241
323395
419030
288585
275478
246292
283516
268511
309250
289509
312511
276535
311391
293272
204283
271308
209747
282373
317446
361512
268141
224626
218217
230708
378634
239633
217177
255878
252214
358798
318495
344440
301399
244709
347522
263519
314561
273160
364279
344963
370983
317343
295501
279997
303267
253685
227774
230309
236956
233585
234654
334378
301109
281312
274751
408138
259287
324432
340050
273198
318298
306443
352615
266996
244150
366318
146284
204661
256825
377091
232675
232925
241508
202486
223812
249442
280290
222808
304338
342567
313004
295763
300146
246058
312359
334178
283780
351328
310304
309701
336449
304744
360550
306265
318384
311896
290035
325082
273245
312497
237415
329212
290288
248785
273076
223809
284590
263709
329959
277891
252781
268767
264230
275330
260220
237751
321297
298097
328656
243415
296575
332374
256331
253748
430767
265842
244371
285781
347459
310138
382291
299762
266772
276343
279490
256507
271150
267375
290144
275071
295582
284482
268558
283748
291990
310629
215612
207004
217807
260007
227058
222716
231313
232464
275874
340784
331172
320317
357477
363661
339328
315700
258076
270309
234330
317821
274491
286713
324788
344807
233127
290501
203948
208533
206383
236319
219690
223728
240280
191918
216724
307567
248259
258366
280238
273304
325079
310824
251271
254519
305965
189745
216593
258122
229298
226512
225540
254569
251561
292951
303921
311092
280834
250511
263574
316309
304335
370596
355949
422846
271053
301407
341431
288068
287527
282934
326859
228373
269366
328503
304618
265201
285044
329062
300615
267491
278123
317299
255685
248775
278355
273983
302445
396707
379654
391550
340165
351281
328917
323026
321475
365244
347147
347135
342131
301443
292466
327039
297310
266408
310462
301274
289020
303978
311739
415926
382764
373613
298035
226119
314251
324151
239431
295609
232185
319167
298385
234918
219524
224031
271859
287326
259874
232775
259425
231738
219270
210761
225294
223966
241104
274510
260003
257544
257634
327810
256648
206655
296124
257569
326952
259385
265711
360648
276533
355446
270414
291002
262062
288676
238322
343383
356144
250475
290036
396763
435624
275267
341658
304291
301403
272284
313740
312203
342996
327138
357876
325714
320108
326853
287099
292295
292557
306388
310426
295157
282514
374874
309310
304455
248794
277908
312275
348432
378160
385019
298940
349375
299515
249264
339906
259987
331663
178220
181839
270767
165879
258553
197766
275348
244828
242111
213788
428803
339130
329787
337276
325800
387668
270753
290870
326288
324783
254186
246262
267015
253281
237291
205958
179237
187292
260946
186553
236571
217989
243867
217640
241665
222366
237715
279070
261753
273225
280881
337021
260173
278504
252949
300049
313258
294009
324516
307783
295372
307560
319243
343677
283688
270074
256804
321144
283569
289297
270409
261875
304193
276921
304441
284513
333124
307934
304972
276739
293887
329117
363026
366063
383699
300967
284056
337368
309214
358004
333246
418492
260271
290630
343245
305554
322703
303405
342463
297717
307237
320889
415701
314270
355203
288138
295458
334600
386709
389836
419003
309203
293557
358303
312906
283916
295957
299916
274721
295363
305183
302720
293224
321095
368450
268006
270474
255195
301362
277143
251984
244129
264588
288373
368169
351655
362548
301026
291528
313218
307470
275456
290405
304946
239465
271877
252491
244464
230266
251114
279468
274360
270473
259583
282031
234879
223130
244690
260803
265596
352106
326505
354737
306111
317139
297832
302752
328012
268951
255456
242105
236183
265363
213362
283772
243929
273831
313099
251526
243854
226730
234000
346426
294037
351682
294661
289711
271525
250017
256888
271554
254911
239963
267421
284626
320903
262655
263808
237512
249170
298612
280394
285806
319635
323546
301893
297775
317992
287922
279043
249437
314211
331460
334970
337053
365941
367407
352819
356194
327412
343110
233903
290391
221559
217201
287145
276858
285633
262656
288843
318493
324405
357514
338036
289955
326513
324776
333992
314260
229045
255811
230474
236689
335252
224635
338362
236085
237750
262304
165727
450371
306206
254722
394902
283669
350285
398712
272168
301749
274894
237687
235096
243407
261981
217269
257798
294804
279950
245180
306525
310025
299222
292946
272895
266679
SCALARS SignedDistance double 1
LOOKUP_TABLE default
1608.72
1986.39
1254.49
1263
1599.57
2154.93
1791.72
1885.18
1891.08
1693.17
1867.49
1331.3
1347.63
1616.29
1806.04
2167.7
1602.13
1675.55
1385.88
1505.89
1347.97
1497.29
1909.35
1946.1
1684.09
1836.69
1619.75
1456.23
2301.92
1934.94
2092.36
2292.25
1275.89
1589.96
1281.65
1252.97
1469.53
1457.62
1489.23
1887.39
1510.47
1779.29
1528.57
1537.35
1772.41
1392.87
1397.2
1313.52
1973.2
1697.35
1916.34
1764.46
1587.6
2154.09
2069.19
1775.2
1896.75
2062.33
1628.28
1522.77
1748.04
1550.41
1557.23
1649.27
1762.14
1140.78
1382.11
1647.92
1194.1
1579.32
1326.78
1605.5
1464.85
1648.55
1591.91
1408.03
1418.53
2027.32
2126.43
1999.87
2004.23
1826.72
1904.03
1804.79
1909.25
2064.83
1513.46
1576.97
1686.21
1900.47
1753.72
1403.04
1445.97
1656.23
1533.02
1319.15
1482.68
1347.44
1894.03
1979.65
2121.02
1947.35
1850.33
2180.1
1964.5
1927.43
2158.49
2057.21
1903.96
2043.74
2234.47
1977.74
1192.54
1281.52
1278.1
1648.24
1520.19
1545.96
1388.44
1448.42
1567.6
1415.52
1424.32
1332.44
1272.23
1434.28
1409.77
1249.46
1414.66
1389.78
1377.53
1396.09
1670.47
1501.2
1689.51
1527.89
1317.28
1840.58
1694.43
1794.23
1767.38
1889.51
1282.84
1790.56
1641.13
1520.05
1723.89
1705.52
1769.32
1905.52
1225.57
1409.85
1583.24
1807.75
1555.51
1771.05
2040.71
1958.53
2365.98
1855.81
1903.03
2003.88
1600.1
1630.54
1688.41
1424.98
1513.94
1414.49
1759.7
1633.66
1667.39
1344.04
1326.38
1303.35
1472.03
1381.17
1469.75
1319.65
1337.71
1359
2044.52
1943.34
2023.64
1750.66
1835.81
1888.6
1759.9
1799.96
1655.72
1451.59
1526.71
1597.24
1673.1
1661.3
1862.37
1762.42
1559.56
1662.51
1660.38
2148.37
2113.66
2114.61
2167.09
2169.53
2049.49
2002.58
1880.41
1933.8
2023.97
1743.31
1829.08
1675.07
2126.9
1988.7
2034.85
1928.97
1976.36
1816.34
1721.34
1556.28
1510.08
1587.4
1425.43
1685.64
1592.62
1885.48
1776.75
1591.92
1637.88
1689.27
1663.29
1582.3
1695.87
1781.24
1899.71
1580.19
1669.85
1453.82
1693.77
1661.28
1591.81
1473.11
1508.17
1620.43
1416.76
1484.08
1178.23
1289.9
1342.68
1288.48
1198.79
1740.41
1543.89
1312.45
1322.57
1528.37
1366.87
1225.59
1691.78
1566.38
1710.09
1269.4
1461.09
1464.44
1518.69
1473.76
1415.19
1104.07
1188.46
1135.1
1525.16
1427.04
1458.9
1462.17
1382.41
1789.36
1701.87
1498.18
1616.64
1552.15
1619.66
1521.44
1338.37
1340.01
1321.73
1332.22
1439.12
1377.84
1433.22
1497.48
1458.63
1358.82
2146.7
2110.05
2114.01
2144.5
2002.54
2053.56
1987.24
2073.47
2050.29
1959.4
1998.73
1959.33
2045.02
2060.44
1759.73
1807.38
1750.27
1919.04
1865.36
1887.41
1857.1
1855.91
1900.04
2011.64
1955.45
1965.72
2027.9
2129.11
1769.68
1917.5
1958.5
2055.57
2007.52
1407.24
1428.24
1659.42
1539.07
1619.72
1470.71
1566.67
1660.27
1728.11
1651.13
1849.35
1724.59
1801.6
1819.85
1748.16
1729.31
1733.95
1790.14
1950.4
1431.21
1402.63
1464.65
1451.79
1419.74
1418.86
1414.55
1762.77
1658.57
1530.03
1584.33
1596.51
1600.54
1544.38
1252.34
1307.72
1257.44
1437.57
1397.83
1427.19
1490.55
1406.55
1572.24
1456.9
1477.47
1430.51
1808.48
1899.63
1681.42
1749.63
2032.38
1956.45
2081.12
2072.91
1946.29
2077.87
2003.8
2157.35
1852.51
1697.46
1814.54
1907.71
1916.21
2067.62
1947.59
1902.76
2025.16
1971.44
2253.02
1890.64
2073.02
2055.87
1935.98
2122.75
1786.44
1824.35
2166.77
2008.37
2132.05
2019.82
1924
2026.92
1955.86
2119.31
1812.58
1779.78
1968.5
2009.1
1938.53
2280.83
2137.94
2176.02
2016.24
2071.97
2145.29
1899.11
2022.65
2071.89
1225.37
1222.74
1251.92
1252.09
1216.43
1201.56
1265.73
1265.95
1297.51
1671.04
1643.42
1669.51
1590.11
1607.67
1623.03
1412.02
1517.82
1386.67
1477.08
1458.04
1561.2
1352.11
1410.39
1330.97
1570.43
1495.47
1535.68
1364.38
1488.84
1385.63
1368.68
1335.36
1300.84
1340.7
1454.73
1427.44
1447.84
1430.48
1340.8
1262.03
1258.13
1300.37
1326.5
1303.2
1343.57
1286.93
1255.09
1450.93
1434.46
1458.05
1202.88
1366.51
1308.69
1331.15
1335.22
1441.31
1375.39
1339.12
1459.63
1425.87
1416.6
1366.87
1413.46
1287.17
1376.34
1383.31
1361.75
1403.61
1427.76
1457.2
1722.78
1668.7
1745.37
1533.42
1592.59
1593.38
1551.23
1581.45
1490.72
1414.49
1425.54
1451.29
1373.11
1274.07
1494.13
1450.88
1396.01
1435.08
1518.8
1814.67
1760.82
1816.69
1796.77
1875.68
1700.97
1601.66
1811.65
1826.03
1891.34
1667.42
1795.42
1673.97
1883.88
1827.15
1826.44
1593.93
1708.34
1636.66
1231.85
1365.82
1274.17
1212.01
1242.9
1833.16
1796.67
1714.86
1752.82
1773.38
1717.56
1554.99
1656.95
1699.67
1357.92
1508.04
1762.98
1656.69
1679.2
1420.89
1565.21
1337.68
1604.8
1651.51
1642.12
1712.9
1783.88
1729.31
1847.23
1791.44
1711.05
1681.76
2035.8
1890.94
1972.11
1965.34
1919.55
1733.27
1838.16
1808.11
1263.6
1175.07
1189.94
1267.63
1347.46
1531.87
1660.59
1642.41
1429.98
1261.53
1478.87
1510.39
1457.5
1530.12
1643.53
1263.35
1503.62
1380.87
1834.26
1597.11
1710.26
1895.32
1971.07
1324.5
1586.02
1436.4
1438.35
1499.58
1780.83
1874.92
1817.32
1696.35
1675.74
1675.1
1788.23
1906.76
1972.36
1964.96
1976.48
2047.34
2133.23
1916.42
2058.27
1969.74
1916.49
1940.8
2227.99
2269.58
2281.59
2254.7
2377.25
2014.53
2083.75
2112.69
1753.24
1770.47
1764.11
1838.76
1903.77
1893.32
1972.9
1938.75
1843.94
1801.75
2137
1990.69
2055.02
2110.06
2040.01
1878.2
1950.91
1941.39
