# vtk DataFile Version 4.2
vtk output
ASCII
DATASET POLYDATA
POINTS 642 double
-2247.99 5508.42 -715.119
-115.315 5480.44 -689.737
-2255.49 790.691 -29.3734
1261.19 806.269 98.7543
-691.933 1415.16 1911.26
-1629.09 4324.9 1274
-489.609 1860.72 -1531.23
-1533.48 5188.87 -2194.4
1252.66 3005.04 -743.469
1468.86 2914.74 1029.83
-2632.92 4184.66 -1198.82
-3132.41 3579.12 1487.03
-3024.75 4767.88 879.279
-2325.94 4142.02 1804.21
-1876.71 5000.68 1036.63
-319.92 5103.21 222.699
-732.252 5957.2 -360.946
-192.646 5625.3 -1080.73
-2019.45 5803.25 -1773.18
-2005.22 4979.13 -2279.39
-2797.34 5235.16 -1369.36
-3221.71 3510.98 285.674
620.294 3557.47 1405.23
1046.22 3871.44 652.626
-1858.32 2212.09 1582.53
-450.436 2922.18 1941.86
-2469.41 1702.9 -456.244
-2601.04 1767.36 848.201
-970.555 4083.51 -1370.23
-1587.52 2741.53 -1229.88
872.735 4311.64 -466.224
132.093 4605.64 -1018.18
1978.82 1624.6 776.317
695.148 2296.43 1812.53
460.205 866.433 1406.39
-1716.54 825.92 1483.03
-531.99 766.605 -59.3338
-1367.81 984.199 -1185.46
359.195 1008.53 -1083.89
554.761 2246.96 -1286.79
1820.19 1727.62 -405.233
1721.77 2488.64 151.219
-2699.62 5016.41 459.399
-2477.06 4984.48 1051.26
-1841.35 5096.04 608.702
-2758.51 3914.09 1758.98
-2729.88 4509.1 1528.69
-3133.55 4183.65 1261.93
-1829.5 4783.3 1236.43
-2178.79 4656.91 1471
-2100.48 4276.65 1651.82
-909.528 5753.92 -56.9258
-1071.56 5884.93 -425.782
-477.483 4345.85 848.288
-1117.68 5380.24 374.752
-404.536 5806.65 -532.412
-645.814 5753.29 -157.288
-419.678 5509.48 -260.876
-1316.52 5777.53 -1028.56
-2138.37 5777.38 -1553.74
-70.438 5606.99 -893.039
-409.974 5911.56 -829.895
-1805.46 5499.79 -2035.61
-996.627 5686.43 -1437.4
-648.149 5377.89 -1472.28
-2512.03 5755.19 -1651.12
-2612.57 5518.44 -1108.82
-1896.51 5102.62 -2395.46
-2089.98 5494.33 -2180.96
-2719.46 5013.44 -1414.58
-2616.32 5259.17 -1842.97
-2358.3 4614.24 -1888.35
-2900.22 4884.38 -40.8449
-2988.89 3541.92 -326.184
-2876 4401.44 -408.593
-3203.05 4275.97 569.202
-3204.98 3572.57 898.733
583.415 4200.59 722.336
387.992 4504.27 117.508
129.169 3794.55 1385.69
390.596 4072.5 1106.41
1306.55 3489.85 856.417
924.805 3793.65 1056.19
1057.84 3316.69 1311.09
-2118.96 3720.34 1984.69
-908.694 3463.49 1777.43
-2726.43 3331.72 1656.51
-2241.24 3608.66 1946.41
-345.321 2357.64 2052.11
-1390.81 3083.93 1952.07
-1214.09 1397.81 1769.01
-3192.17 2678.6 446.361
-2942.67 2881.8 1086.8
-2703.07 2638.4 -721.211
-3021.72 2648.78 -148.287
-2488.17 1074.86 495.748
-2668.34 1674.19 56.6948
-2503.65 1078.24 -347.855
-1948.02 4355.63 -1982.68
-1880.66 3483.53 -1403.15
-1521.69 5237.64 -2198.52
-1913.24 4773.86 -2292.58
-956.72 1963.23 -1486.41
-1731.4 3227.82 -1712.01
-507.782 2382.17 -1531.57
-123.274 5278.01 -1263.92
-604.396 5272.61 -1640.39
293.645 5213.32 -795.445
178.766 5318.01 -839.236
853.41 3264.82 -920.508
4.35502 4402.9 -854.112
1189.69 3425.83 -538.469
1779.69 1148.77 495.784
1431.69 1195.05 1055.85
975.783 796.136 752.414
1186.97 2594.77 1422.52
1520.41 1780.7 1164.41
1928.25 2103.7 841.661
-189.544 1183.84 1790.98
632.926 1463.25 1662.76
158.236 1903.46 1956.18
155.904 768.332 988.612
621.659 769.395 31.7596
-970.005 1117.6 1929.51
-633.13 793.925 1658.26
-1680.21 761.224 115.292
-1304.55 770.191 960.826
-1998.06 766.367 958.281
85.4206 768.422 -773.805
783.388 904.967 -565.205
-1944.5 869.586 -539.205
-1140.64 764.46 -837.722
-99.4937 1382.13 -1311.7
-631.129 957.861 -1194.37
-1078.03 1232.36 -1265.3
1117.13 1364.38 -715.607
1683.56 1215.54 -236.542
6.85188 2069.57 -1507.19
551.839 1609.89 -1260.3
1669.49 2004.94 -421.539
1136.61 1948.31 -910.13
940.615 2651.01 -1074.14
2034.47 1613.1 134.724
1602.57 2819.78 -300.257
2005.74 2040.63 -77.5
2106.55 2049.16 408.355
1697.41 2572.52 595.44
117.924 2608.8 1970.59
670.485 2927.12 1720.46
124.762 3118.03 1826.26
-2290.86 1039.13 1324.68
-1879.04 1238.37 1700.64
-2223 1719.8 1306.02
-1404.14 1258.06 -1213.28
-2100.14 1146.06 -650.688
-2223.29 2148.18 -865.211
500.35 2900.11 -1213.23
-63.7141 2718.23 -1537.9
-708.31 3792.56 -1615.59
1441.05 3450.04 399.531
1406.24 3435.35 -150.14
1037.11 3890.13 28.4479
-2461.99 5132.99 -117.775
-2418.39 5056.56 587.725
-1949.31 5288.59 38.0273
-2763.91 4904.75 979.36
-2610.64 5015.58 814.726
-2884.1 4914.21 707.996
-1923.96 5066.49 877.352
-2306.43 5045.12 895.644
-2168.25 5008.46 1064.35
-2985.59 3729.29 1638.29
-2996.31 4018.64 1565.83
-3168.25 3831.2 1424.83
-2530.06 4318.13 1711.51
-2754.16 4218.58 1691.16
-2526.6 4060.98 1817.62
-3098.98 4529.2 1059.98
-2953.57 4379.34 1409.55
-2908.15 4663.38 1224.22
-1821.91 4641.82 1319.09
-1972.63 4572.61 1443.22
-1964.01 4401.77 1499.39
-2032.15 4871.48 1264.66
-1993.6 4740.79 1362.08
-1861.53 4910.29 1138.17
-2202.93 4203.52 1743.76
-2140.12 4478.68 1576.18
-2275.54 4418.28 1668.03
-2623.62 4795.7 1295.2
-2437.75 4605.98 1533.28
-2319.72 4843.49 1303.19
-1312.36 5619.91 -73.4547
-1634.83 5588.81 -679.304
-1344.94 5231.14 480.263
-1336.09 5476.53 150.35
-835.013 5964.68 -321.286
-916.456 5870.92 -178.325
-829.196 5909.21 -225.893
-1160.36 4123 975.099
-1606.34 4752 1060.06
-774.752 5357.44 76.1109
-1215.33 4835.02 506.586
-225.195 4572.57 493.312
-1715.5 5011.82 965.236
-1548.03 5103.98 820.034
-262.517 5675.46 -627.572
-404.059 5681.68 -370.73
-258.381 5507.22 -463.967
-693.039 5876.99 -249.277
-546.377 5798.16 -284.295
-593.799 5920.12 -453.1
-506.982 5363.63 37.1327
-525.26 5653.79 -202.442
-606.679 5587.49 -100.995
-943.813 5545.6 150.735
-819.444 5643.13 -9.50308
-794.439 5789.82 -101.074
-1713.96 5755.63 -1200.11
-2199.61 5649.26 -1235.23
-757.595 5966.78 -543.755
-1229.84 5833.31 -719.136
-2104.95 5804.41 -1656.31
-1906.36 5718.08 -1402.06
-1913.82 5735.02 -1571.88
-48.5857 5607.48 -894.504
-224.985 5735.48 -782.801
-289.273 5816.47 -952.915
-246.914 5787.52 -854.976
-106.929 5647.53 -932.559
-404.921 5884.25 -722.182
-538.581 5944.48 -645.763
-1656.99 5207.78 -2184.91
-1389.29 5429.49 -1804.67
-1235.29 5242.2 -1979.45
-1709.77 5686.58 -1704.29
-1542.73 5614.92 -1735.18
-1921.83 5705.11 -1908.09
-317.549 5542 -1229.8
-849.082 5612.54 -1454.08
-454.011 5747.39 -1178.87
-604.247 5964.81 -841.034
-516.819 5908.11 -1033
-1122.21 5762.14 -1276.72
-2389.65 5697.43 -1370.84
-2428.43 5536.53 -925.048
-2209.87 5861.42 -1743.79
-2309.09 5813.01 -1594.63
-2744.29 5393.79 -1261.27
-2584.6 5663.26 -1452.1
-2732.49 5506.98 -1521.52
-1764.87 5153.91 -2318.26
-1868.84 5211.39 -2291.68
-2053.77 5223.59 -2286.35
-1920.92 5217.5 -2349.3
-1914.39 5102.08 -2413.19
-1957.41 5517.58 -2140.41
-2054.27 5741.19 -2000.37
-2560.75 4550.35 -1419.71
-2567.85 4817.04 -1654.99
-2435.69 4522.1 -1685.36
-2777.08 5268.3 -1613.64
-2728.94 5191.78 -1631.22
-2785.13 5165.67 -1410.45
-2230.56 4800.32 -2079.81
-2506.09 5045.09 -1870.21
-2346.96 5157.27 -2054.73
-2355.55 5706.77 -1981.72
-2412.27 5391.09 -2077.81
-2657.01 5484.93 -1823.86
-2612.31 5198.56 -438.214
-2797.39 5114.06 -845.756
-2748.7 5155.38 -659.688
-2845.26 4950.53 192.769
-3055.42 4805.17 526.791
-2589.76 3678.32 -812.494
-2692.24 4403.46 -843.218
-3187.11 3909.97 72.2561
-2981.04 3987.31 -356.192
-3144.62 3488.6 -65.652
-2773.46 4844.67 -993.34
-2796.14 4984.05 -1035.24
-3198.77 3867.52 1170.06
-3196.34 3575.22 1285.09
-3186.58 4572.52 761.129
-3200.22 4273.97 942.161
-3290.47 3557.78 504.973
-3275.22 3898.66 704.183
-3285.33 3899.79 419.82
-2924.71 4723.43 -202.612
-3188.63 4291.83 240.261
-3184.88 4610.76 372.42
80.7639 5005.48 -364.782
-9.95027 5179.77 -530.995
102.22 4483.37 714.884
-332.17 4676.48 419.14
860.873 4052.71 533.843
605.1 4255.88 452.138
823.093 4063.09 691.414
-297.98 3899.01 1325.99
-5.95298 4044.92 1198
517.499 3864.5 1241.62
296.195 3969.21 1231.65
391.598 3664.46 1392.37
159.086 4158.84 1060.3
238.477 4299.97 857.643
1390 3275.33 959.449
1219.18 3423.82 1096.4
1244.08 3197.56 1217.84
1007.99 3836.88 853.491
1122.78 3650.48 968.841
1201.25 3685.38 753.957
840.425 3443.19 1376.81
1005.06 3577.52 1179.84
803.873 3712.33 1234.25
494.083 4149.24 921.562
660.976 3952.44 1093.21
764.029 4011.33 900.611
-1911.15 3876.72 1757.37
-1209.48 4003.84 1165.52
-2169.04 3874.53 1851.82
-2069.6 3930.5 1785.97
-541.8 3323.14 1785.63
-1720.18 3819.89 1771.99
-1375.61 3531.81 1475.02
-2965.41 3471.53 1605.86
-2787.39 3607.05 1724.46
-2179.22 3376.05 1852.3
-2490.26 3511 1836.9
-2278.17 3012.39 1579.27
-2518.01 3749.48 1869.54
-2300.03 3811.08 1909.82
-519.328 1813.37 1946.86
-716.59 1805.6 1906.64
-837.155 1377.06 1919.55
-1007.21 2791.35 1952.04
-665.853 2537.77 1966.29
-358.07 2596.65 1981.27
-1670.9 1543.35 1568.73
-1160.89 2106.15 1776.81
-1711.41 2754.82 1724.5
-2104.56 3617.5 1938.92
-1974.76 3508.3 1935.6
-1920.9 3464.79 1946.26
-3135.76 3288.92 1109.83
-3110.44 3368.15 1368.71
-3203.22 3071.78 350.985
-3139.4 3162.58 634.528
-2864.54 2280.07 945.857
-3110.09 2730.7 759.651
-3011.86 2362.56 612.1
-2616.51 3057.78 -782.634
-2814.95 2984.85 -562.935
-2848.25 2280.28 -397.393
-2860.13 2606.31 -481.734
-2711.07 2315.8 -615.591
-2997.77 3034.87 -220.267
-3134.59 3034.55 62.5382
-2408.54 893.036 231.772
-2525.04 1069.65 -36.9865
-2417.37 898.32 -231.448
-2720.99 1749.59 425.039
-2574.13 1273.45 205.497
-2396.8 1296.39 724.598
-2458.87 1197.78 -375.304
-2550.33 1212.22 -192.575
-2523.19 1603.9 -230.55
-3173.66 2660.12 186.651
-2953.91 2285.39 -45.1725
-3049.99 2339.07 290.413
-2199.09 4387.89 -1834.37
-2293.43 3971.43 -948.819
-1993.78 4615.8 -2129.28
-2137.28 4473.91 -1948.12
-1819.38 3256.59 -1293.98
-2033.02 4208.95 -1768.4
-1884.77 3965.33 -1629.5
-1538.74 5196.54 -2191.99
-1789.4 5141.23 -2336.28
-1975.73 4638.77 -2083.42
-1946.21 5055.04 -2203.99
-1611.6 4810.03 -1893.53
-1916.91 5093.17 -2425.11
-1913.35 4905.34 -2342.46
-732.74 1918.21 -1518.76
-738.926 2230.09 -1535.68
-482.588 2071.27 -1531.54
-1435.42 3026.37 -1712.41
-976.982 2538.89 -1517.54
-1153.11 2131.26 -1382.29
-557.196 2888.25 -1526.86
-892.938 2716.59 -1545.27
-1882.99 3513.65 -1595.82
-1887.76 4502.91 -2176.87
-1878.95 4364.55 -2130.19
-1843.43 4120.08 -2031.82
-582.243 5278.49 -1630.65
[...]
POINT_DATA 642
SCALARS Mean_Curvature double 1
LOOKUP_TABLE default
0.000643047
-0.000845146
0.00243224
0.00269195
-0.000154291
0.00266978
0.00151716
-0.0303557
0.00161306
0.00105079
0.00733892
0.00414132
0.00223097
0.00230356
0.00172779
-0.00838536
0.0052435
0.00203272
0.00382655
-0.000438612
0.00279963
-0.000187576
0.000681574
0.00132787
0.000718835
0.000401118
0.000344278
0.000375916
-0.00270636
-0.00147029
-0.0142116
-0.00563166
0.00241565
0.000968727
0.00259768
0.00298389
1.15831e-05
0.00370559
0.00279387
4.17808e-07
0.00339953
-0.00154102
0.00165338
0.00195814
-0.00200224
0.00155408
0.0020976
0.00153126
0.00193561
0.00147085
0.000616808
0.00139176
0.00230952
0.000564981
0.00251528
0.00200511
0.00281678
-0.000660241
-0.00028596
0.00214859
-0.0422823
0.00419819
0.000118665
0.00243172
-0.0023138
0.00388626
0.00225361
-0.0234286
0.00311669
4.41888e-07
0.00186951
0.00226367
0.00174847
0.000449953
-0.00120571
-0.000311859
-0.000129296
-4.71934e-05
-0.00360181
0.00103763
0.00183872
0.000946611
0.0017121
0.000914582
0.00383508
-0.00534619
0.00145306
0.004211
0.00153989
-0.00537271
-0.00102403
0.00205763
-0.000558204
0.00172837
0.000672249
0.00290746
0.0005194
0.00585909
-0.00305701
0.00228371
-0.00597956
0.0120422
0.00246633
-0.00636525
-9.58052e-05
-0.0232274
0.00995032
0.00420348
-0.00433106
0.000478792
-0.0042979
0.000926688
0.00178681
0.00195925
0.00161933
0.000516528
0.000150243
0.00375741
0.000163027
0.000914901
0.000429495
8.31466e-05
0.000119511
0.00392066
0.00307599
-0.000384365
-4.92902e-05
0.00136141
0.0018287
0.000902198
0.000940212
0.00116293
0.000327898
0.003244
-5.56654e-05
2.88413e-05
0.00219719
0.00147177
0.00197762
-5.15796e-05
0.0007764
0.00100779
0.000942802
0.00273597
0.00448132
0.0055888
-0.00125008
0.00028153
0.000656956
0.0014034
0.00322479
0.00642171
-0.000536086
0.00185244
0.00199908
0.000591477
-8.70463e-05
0.0028682
-0.00410048
0.00107059
0.00136246
-0.000118487
-0.000968907
1.37361e-05
-4.52276e-05
0.00152766
0.0017267
0.0015175
0.00334928
0.000972606
0.0018172
0.00231952
0.00148264
0.00310951
0.00156774
0.00222166
0.00183135
0.0016344
0.00121376
0.00183392
0.00120655
0.00166519
-1.39886e-06
0.00258241
0.00259251
0.00475484
0.00193537
0.00147134
0.00268898
0.00181215
0.00153956
0.00133077
0.000721903
-0.000885118
-0.0041602
0.00144048
0.00423067
0.00326839
0.00397078
-0.00329409
0.000908684
-0.00144873
-0.00192298
-0.00174497
-0.00827077
-0.020667
0.000757261
0.00190291
0.000485851
0.00287686
0.00311697
0.00207663
-0.0055692
0.00252801
0.00285501
0.00964596
-0.00177702
0.00632383
0.0071487
-0.000661344
0.0011738
-0.00211828
0.00138098
-0.0137465
0.000678853
0.0128172
0.00202611
0.00369258
0.0043139
0.00679239
0.00188428
0.00376615
-0.0017991
-0.00128418
0.00339201
0.00138461
0.0015108
0.00155487
0.000687148
0.00170025
0.00190757
0.00182353
0.00328808
0.000889774
0.00125534
0.00129957
0.0053992
0.00353741
0.00186084
0.00295976
0.00338924
-0.036907
-0.00301898
0.00224987
0.0107046
0.00900072
0.00314874
0.0048359
-0.0017863
0.00083839
0.00088446
0.00538366
0.00087374
0.0030843
0.00143318
0.000602152
0.000110421
0.00347704
0.00309024
0.00360491
0.00127697
0.00249417
0.00171693
0.00125192
0.00195311
-0.00280685
-0.00112547
0.000686358
0.00174788
0.00122642
0.00129734
0.00177192
0.000427041
0.00206477
0.00252502
0.000912366
0.0023188
0.000998927
0.00157341
0.000594601
0.000660151
0.00254899
-0.000432835
0.0016132
0.00238417
-0.00321419
0.00102771
0.00163633
0.00175191
0.00225176
0.000419583
0.00115213
0.00128535
-0.000120966
0.000564494
0.00662304
0.00111904
0.00169804
0.00133784
0.0011016
0.00120589
0.00166565
0.000734734
0.00110787
0.00164707
0.00124654
0.00164142
0.00116262
-0.00335281
-0.00266962
-0.00135889
0.000413364
-0.00440491
0.00578782
-0.00351771
0.00263447
0.00092644
0.00136734
0.00121331
-0.00166818
0.00187382
0.00297892
0.000429323
-2.02586e-05
0.00124135
-0.00397996
0.00125742
-0.000367722
-0.00174486
-0.000221738
-0.000583601
-0.00916611
0.00377731
-0.00667201
0.0010309
0.00270818
0.00149809
-0.00112372
0.00111711
0.00154798
0.000585992
0.00194624
0.000608081
0.00156498
0.000886502
0.00146129
-8.31642e-05
0.000496656
0.00236499
0.0017916
0.00322798
0.000580251
0.000491422
-0.00219874
0.00109079
0.00204404
-0.000933581
0.00206456
0.000543681
0.00112823
0.00156466
-0.00279922
-0.000965986
0.000686705
-0.00266768
-0.000394796
-0.00340699
-0.0364909
-0.0166722
-0.00299711
-0.00544747
0.00117856
-0.0174432
0.0142897
0.000884954
0.000829008
3.13592e-05
-0.0036558
-0.0008375
0.000801617
0.000190026
7.22035e-05
-0.00241928
0.0218168
0.0102975
0.00604899
-0.0117309
0.0951872
0.00111995
-0.00893945
0.00109849
0.196656
0.00997597
-0.00705825
-0.036614
-0.0122478
0.0738734
-0.0672761
0.0164754
0.00204035
0.00124037
0.000876681
0.00137578
-0.0110732
0.000569327
-0.00384201
-0.00133976
0.000328583
-0.00310498
0.00326738
-0.00154804
-0.00543578
0.000531316
0.00146515
0.00190206
0.00216426
0.00141812
0.0027059
0.00276619
0.000315185
0.00153144
0.000859298
-2.92066e-05
-0.00063613
2.18093e-05
4.6561e-05
0.00103609
0.00173438
0.00130597
0.00146419
-0.000571784
0.00216695
0.000135937
0.000911822
0.000629835
0.00179951
0.00158258
0.000941951
0.000283437
0.00187365
0.000607449
-0.000232097
0.00019353
0.000924939
0.00164557
0.000345261
-1.03873e-05
9.01432e-05
5.13633e-05
0.00362124
0.00365293
0.00342785
0.00271684
-0.000470228
0.00136835
0.00172111
0.000170271
0.00293855
0.000763382
-1.81133e-05
0.000297661
-6.54833e-05
0.00185123
-0.000566474
0.000404982
0.00115673
0.000609973
-0.000425272
0.00126905
0.00156699
-1.72459e-05
0.000182507
0.00270718
0.00282869
0.00259714
0.00306807
0.00117136
0.00313683
0.00216558
0.00238468
6.35922e-05
-5.76827e-05
0.00157727
0.000521288
0.00139892
0.00118335
-0.000294956
0.000529108
0.00335333
0.000533221
0.0026677
0.00180989
0.00192832
0.00116823
0.000924252
0.00150815
0.000879098
0.000553523
0.00188294
0.00118987
0.00151233
0.00118487
0.000827558
0.000573171
-0.000545947
0.000523908
4.85724e-05
0.00108965
0.00079682
0.00028248
0.000785603
-0.000232885
-0.000623936
0.0027305
0.00157542
0.000412299
0.000983505
0.00175195
0.00160666
0.000588338
0.00133957
0.00264215
0.00213486
0.00197676
0.00132607
0.00100205
-0.00079201
0.00159931
0.00217597
0.000189728
0.000592577
0.00426807
0.00283854
0.00224582
0.00241784
0.00382273
-6.44313e-06
0.00113676
0.00044267
0.0016962
0.00474955
0.00414688
0.00157954
0.001274
-0.000174681
0.00250623
0.000250388
0.0012403
0.000929256
0.000778721
0.000855715
0.000905927
-0.00080646
0.00177992
-0.00146875
-5.85863e-05
0.000589824
0.00250838
0.000413971
0.00219212
0.00136263
0.00395146
0.00299359
0.00299513
0.00179511
0.00369085
0.00236863
0.00173382
0.00201371
0.00290194
0.00035941
0.000547015
0.00159781
0.000913524
-0.00031041
0.00478288
0.00161271
0.00189713
-0.000730404
0.0039888
0.00563563
-0.000387114
-0.00126788
0.00405739
0.00112743
0.00450964
0.00253499
0.00289096
0.000641762
0.000314574
0.000197485
0.00189066
0.0012876
0.00192468
-0.00220742
-0.000886032
0.00100603
0.00030873
0.000682263
0.00186024
0.00075017
0.000311194
-0.000318414
0.000162854
0.0014193
0.000318829
-0.00416103
-0.00178583
-0.00181377
-0.00224374
-0.00768272
0.00162715
0.000653062
6.45151e-05
0.00150134
0.00159252
0.000710428
0.00136754
0.000617763
0.000899429
0.00137035
0.000935898
0.00120253
0.00122974
-0.00172028
0.000176632
-0.00048645
-0.00284576
-0.0127073
0.00146802
0.00169124
0.000268752
SCALARS CoVolArea double 1
LOOKUP_TABLE default
251575
69469.5
82476.5
83575.7
60361.2
188255
59253.6
9957.88
72541.5
104641
189046
46003.3
85274.9
56088.2
66289.4
119176
24449.2
52937.1
42025.4
74857
61350.1
130150
87822.3
59696.3
271219
237225
132395
222509
686730
415807
98395.8
263258
89312.2
142560
111745
109737
392817
65951.2
69667.9
103644
55375.2
157459
139808
77270.6
220345
82559.5
96170.4
104370
43571.1
57663.5
52869.8
71988.5
166020
427156
139404
45003.9
27872.5
191412
185224
63045.4
8319.34
31379.8
95954.1
113701
157142
77665.8
117560
5830.68
74316.4
132539
61746.6
83838.4
129633
263440
228522
121223
141031
128546
153697
125422
58537.7
59986.1
60067.4
71088.6
94481.2
292096
150935
49938.6
116097
240137
193088
118453
187470
90231.5
135733
120956
198486
40395.5
68368
352959
90265.6
36882.6
117569
176735
123950
13228.2
108110
57477
25024.3
98560.3
333195
75631.1
109772
141939
130686
159096
121707
58336.5
151761
168578
117553
211947
186588
85410.7
109078
173442
246313
111975
109804
132023
101172
119797
142568
105531
66977.3
163795
93982.3
98900.7
74786.3
108849
115177
110332
101211
108893
30586.7
19905.7
120949
87413.4
81526
73925.4
73113.1
33915
186452
65688.8
83646
224278
119673
68870.9
505764
79281.8
59102.8
176591
248879
212215
420709
86900.6
78637.1
87244.7
119726
91871.1
69533.5
68311.1
97231.5
76211.9
74170.2
87246.2
70795.1
94360.9
104347
101226
106624
36060.7
151108
54897.8
37530.4
31019
40160.3
39061.5
55867.1
102377
87618.3
85960.8
267959
376706
135801
143068
45832.6
66720.9
17668.2
352149
295404
273049
451531
368551
121774
45889.7
48811.3
42804.7
81631.8
25958.3
34685.6
34992.9
105321
35705.7
61240.9
50454.8
50883.6
26503.6
154049
178221
104006
89970.2
27501.9
58453.2
107962
32984
28343.2
42686.7
20716.2
25364.8
31287.2
33979.7
77382.3
168106
93223
97432.6
98399.7
56561.3
94232.9
129255
85513.7
125326
95358.9
184023
76026.2
134860
54468.1
40428.6
87743.6
64621.2
69172.5
10975
38037.1
66958.7
26082.9
16585.3
46991.8
58315.6
187659
102609
151154
44776.4
58328.7
38941.6
102144
96385.2
93585.5
105759
97392.7
93072.8
164321
117324
125243
130301
104235
294346
305989
189262
207603
159552
137696
122130
120299
77567.9
98777.1
124055
120932
137111
117662
211295
191859
139713
317916
111953
109194
423069
98045.1
249690
61248
284902
191727
67392.9
65971.7
89269.3
138302
99155.8
87151.9
63659.6
90644.4
58016.9
57033
52154.6
75051.4
63682
69247.5
71441.5
65012.5
64900.5
244510
449162
37638.1
48577.4
163023
125719
391344
69049.1
74791.7
199354
109166
283595
72540.2
52727.2
120678
221799
72831.3
253385
234711
93097.5
269800
461640
376652
21447.2
109918
152807
143438
88949.8
119841
160236
203928
172577
189220
211927
191692
163376
117689
118089
153055
137302
118282
83083.4
68672.3
244125
153296
176453
55944.2
87579.4
165836
120592
191505
177298
212120
461783
66165
59801.3
199528
63983.4
247737
8277.72
19211.7
371096
105885
252823
18158.6
24284.3
90859.3
94318.3
61862.7
348160
150802
270853
436557
207944
624738
29800.2
96113.5
148672
43104.8
9955.64
43705.2
51816.4
324029
3026.04
39887.2
74158.5
5719.46
76498.6
4589.81
11167
11829.5
40973.4
59638.6
86142.9
60470.5
123720
181245
115564
135009
238300
336038
32330.1
167659
82207.8
114015
128214
106244
98038.7
113740
90452.4
112688
137384
145959
140912
129894
106135
180564
156933
144506
61336
90221.5
81543.4
97673.9
132788
132543
144507
143381
128307
116039
124601
175834
131399
185187
185892
138867
107090
125276
136605
297768
237719
386082
40565.9
80586.9
119396
96267
142130
108018
122089
118790
125460
137637
370491
182700
293983
89552.3
134495
148919
172132
185972
310726
133049
114945
227732
162677
88300.5
95707.9
81577.8
75551.3
129671
81848.9
108121
98768.6
195492
256538
108390
120563
101289
100861
114828
89992.4
35413.1
79109.3
70761.8
143562
110753
127762
123922
105599
121608
141239
74560.1
114107
111936
68847.1
128256
77626.5
103221
98593.8
104699
79618.8
147432
158091
103190
86539.1
102595
35718
97275.1
135478
99131.8
139639
106212
156030
110630
79284.5
93998.2
100005
98729.5
107942
133324
73717.9
83361.3
114543
52142.6
36663.4
71561.1
112521
66865.2
32105.3
129352
55573.7
63093.6
65952.4
25409.1
67179.9
125347
104159
102863
66506.7
85412.8
106401
94972
81353.8
101666
94947.8
304602
89682.9
115834
123947
97743.6
84635.2
83112
76627.8
127563
80649.4
89507.1
98621.9
124793
51086.3
102517
54668.9
76717.1
95434.7
165081
179517
227576
268675
244391
62540.6
85287.9
99835
81770.9
36821.9
28304.3
92527.4
274484
63975
107555
41367.6
82524.6
76958.8
259016
335347
210995
114970
178051
103217
220315
226995
67649.8
104151
76794.6
90025.7
349381
77459
160677
99987.4
84236
106653
143685
870326
638744
245001
163491
99141.6
79234.9
389397
100870
139443
118612
64891.6
69958.2
73121.6
66481
61075.2
79766.6
117939
249711
109552
268918
209846
88660.7
80913.4
94204.7
94461.6
SCALARS SignedDistance double 1
LOOKUP_TABLE default
270.507
283.873
170.367
154.286
279.536
343.964
259.94
586.805
234.408
226.959
496.545
150.557
162.323
227.825
264.728
583.415
216.002
199.468
281.276
331.204
210.377
216.256
263.691
261.087
268.507
238.067
334.783
249.756
937.636
364.42
620.545
789.744
165.511
206.968
160.367
152.449
195.718
193.258
213.928
266.342
224.527
296.748
217.19
194.868
306.226
183.539
164.535
168.301
258.906
249.291
274.277
258.456
220.106
401.406
457.71
246.364
256.681
316.828
568.702
280.757
271.882
216.235
271.832
667.885
515.435
179.407
176.249
466.465
181.543
226.138
205.345
222.249
249.997
233.682
272.379
201.668
201.31
260.207
528.679
253.899
243.518
234.934
228.47
234.604
358.716
548.786
201.111
296.838
249.819
662.555
308.09
190.636
226.219
211.103
209.999
257.949
285.519
254.52
529.759
721.747
588.652
467.267
225.711
904.085
260.468
366.303
698.223
575.421
440.24
271.484
719.258
250.944
144.552
150.092
164.845
215.384
222.043
200.179
212.274
186.941
231.02
197.344
192.783
219.71
173.002
200.384
191.996
195.564
193.66
184.404
176.665
197.838
224.259
193.604
268.684
225.592
152.291
234.876
262.269
260.132
235.68
246.268
188.546
226.593
207.978
226.452
287.926
245.611
245.123
251.733
196.248
255.619
350.036
258.202
300.438
260.298
285.088
266.759
940.392
246.834
244.684
267.986
247.638
258.997
233.772
199.527
218.267
198.864
268.767
247.166
218.154
171.018
163.251
165.554
222.184
172.325
226.727
165.464
166.933
158.45
275.676
279.972
287.445
226.495
244.934
254.093
257.537
263.445
241.709
193.123
216.291
217.511
230.015
457.243
402.329
249.706
203.696
220.123
215.793
375.889
324.928
349.608
389.085
600.577
344.891
488.253
268.682
287.955
288.833
224.289
246.998
207.169
439.797
302.284
319.974
365.56
294.611
245.507
633.402
274.594
204.63
349.654
277.813
403.873
353.529
290.628
249.051
213.372
235.592
252.05
213.709
216.505
469.116
656.476
813.917
438.383
549.17
258.278
239.549
598.244
204.089
202.627
168.249
621.07
227.837
211.782
259.836
242.409
174.482
170.04
153.157
482.209
368.995
260.661
378.253
482.446
210.001
208.95
264.29
246.571
235.973
205.94
192.508
217.149
217.924
204.81
186.718
113.876
179.725
153.117
199.989
212.377
199.659
212.87
172.817
485.114
283.088
193.579
249.611
218.881
220.458
216.616
197.49
194.881
184.467
198.813
229.927
196.47
213.126
256.891
221.756
182.833
568.272
397.982
510.502
682.503
263.249
296.339
253.972
261.693
262.611
243.685
246.904
270.897
265.744
326.705
231.905
220.125
219.093
243.722
239.974
241.181
237.466
230.983
227.505
258.352
243.545
253.483
333.061
392.136
263.821
273.579
379.433
477.269
372.734
176.136
198.111
331.678
217.065
320.183
196.107
245.633
221.642
256.881
271.291
366.033
241.739
251.828
340.293
359.556
339.426
348.35
448.722
489.382
235.705
176.243
229.083
247.629
178.477
184.089
192.986
277.463
227.479
187.709
218.197
193.649
226.056
224.895
146.601
213.231
150.048
237.701
286.357
331.562
255.707
243.564
332.992
193.535
212.074
197.234
352.624
455.715
395.737
352.795
522.242
540.955
793.767
591.63
474.062
356.459
293.281
455.147
487.942
457.547
247.028
264.693
260.436
790.886
264.222
253.164
324.351
274.176
909.331
565.918
634.757
801.521
668.063
792.724
266.224
416.674
422.928
419.951
346.714
415.982
412.342
658.047
539.611
785.147
378.376
273.59
254.765
258.35
241.525
815.8
290.181
354.268
268.722
271.698
625.775
304.453
361.186
318.895
169.628
151.882
181.436
158.918
146.028
133.279
161.171
184.485
174.679
210.752
241.449
267.172
226.269
220.542
209.022
175.46
211.712
203.489
262.045
218.321
224.714
201.038
176.301
169.825
203.23
195.018
208.551
194.894
206.646
202.331
190.931
192.108
189.953
190.344
193.818
197.928
192.922
235.465
212.712
167.306
147.245
230.363
179.466
164.868
194.751
179.492
173.334
194.611
270.85
194.861
188.883
194.514
178.156
184.434
192.711
216.797
177.082
169.329
211.92
194.902
159.594
186.785
174.156
180.682
191.464
161.138
184.392
173.891
193.592
194.556
215.419
242.148
245.916
213.993
223.643
214.281
260.711
253.681
204.849
202.76
166.319
182.889
186.995
159.871
196.353
201.346
187.524
200.839
216.501
261.501
225.04
268.664
258.665
247.485
250.884
215.245
235.965
240.688
249.234
281.885
264.434
239.072
240.272
234.314
231.942
186.043
227.811
236.69
165.079
164.072
158.148
151.525
172.857
242.461
268.019
228.07
241.904
285.642
219.037
224.673
235.115
240.793
194.61
227.452
287.913
218.619
220.345
214.786
220.503
212.046
207.614
210.61
233.11
257.524
249.027
217.642
240.158
230.757
223.999
231.259
310.335
252.731
270.722
280.499
258.842
218.985
251.534
227.819
163.258
112.283
130.662
214.013
258.024
252.538
271.198
283.252
339.353
221.352
241.441
321.609
179.935
221.076
339.638
214.709
248.375
253.598
307.585
255.165
264.404
302.172
362.054
158.301
280.991
270.19
272.071
270.338
282.413
255.11
289.392
228.099
229.061
272.034
341.634
380.485
254.954
274.434
270.764
259.341
293.065
262.058
361.599
263.717
254.352
256.931
706.18
585.102
755.545
585.967
969.921
259.895
394.574
294.258
228.76
220.345
235.226
239.011
254.991
247.086
254.136
245.3
240.277
238.512
633.589
266.04
277.619
785.248
489.94
249.426
257.399
260.792
