# vtk DataFile Version 4.2
vtk output
ASCII
DATASET POLYDATA
POINTS 642 double
-2262.24 5562.11 -695.348
-59.7188 5517.79 -657.005
-2271.16 749.616 -29.7295
1276.32 768.906 93.6038
-686.251 1413.59 1979.45
-1578.87 4360.64 1340.73
-491.789 1850.29 -1598.98
-1501.13 5176.17 -2237.21
1297.09 3019.06 -785.692
1518.45 2929.19 1061.07
-2706.26 4175.06 -1188.87
-3165.74 3572.25 1509.41
-3054.91 4796.49 891.564
-2321.53 4163.79 1859.97
-1868.91 5055.61 1070.08
-255.504 5169.99 271.387
-717.423 6010.44 -345.581
-161.402 5654.77 -1112.58
-1999.09 5866.14 -1781.69
-2030.59 4969.94 -2310.63
-2851.9 5240.95 -1370.49
-3275.93 3507.48 271.66
640.396 3592.59 1461.37
1094.24 3920.37 662.336
-1882.42 2203.1 1645.14
-453.004 2939.98 2003.02
-2527.22 1683.02 -488.667
-2650.61 1744.51 865.374
-992.831 4047.83 -1435.26
-1629.1 2717.13 -1291.34
929.561 4324.77 -452.17
172.132 4605.59 -1066.05
2016.16 1615.92 797.127
723.31 2292.79 1859.41
472.009 834.635 1430.94
-1719.46 791.816 1504.52
-531.959 714.217 -59.2616
-1383.02 959.269 -1222.24
371.532 979.698 -1127.55
581.291 2246.89 -1352.52
1855.85 1723.79 -447.29
1790.81 2521.16 150.446
-2719.05 5068.73 464.047
-2487.67 5031.06 1071.88
-1865.59 5158.9 617.268
-2780.99 3919.33 1801.3
-2748.97 4533.7 1560.28
-3173.32 4195.55 1279.28
-1797.57 4819.96 1283.53
-2170.69 4696.97 1521.05
-2068.51 4304.57 1709.75
-912.396 5800.28 -14.4431
-1093.85 5933.38 -415.968
-469.02 4410.38 911.235
-1076.87 5445.85 461.319
-363.306 5848.69 -510.555
-614.734 5787.79 -112.681
-360.505 5543.96 -217.037
-1322.41 5854.12 -1039.13
-2136.92 5842.59 -1532.66
-32.6687 5649.59 -881.871
-384.901 5961.72 -831.56
-1780.96 5530.91 -2070.34
-984.602 5742.15 -1475.45
-627.343 5411.04 -1511.18
-2535.66 5788.45 -1654.95
-2639.91 5551.44 -1096.64
-1871.29 5119.22 -2431.21
-2097.23 5516.41 -2221.12
-2772.61 4993.43 -1430.86
-2656.08 5249.11 -1875.75
-2394.84 4593.22 -1921.7
-2951.05 4915.01 -45.9006
-3038.03 3539.24 -358.552
-2938.66 4409.99 -421.974
-3256.12 4283.12 569.152
-3257.43 3564.61 905.304
615.972 4257.68 742.316
446.408 4541.71 113.469
136.221 3830.83 1442.71
408.078 4120.02 1147.91
1355.24 3523.36 878.854
959.78 3832.8 1088.25
1092.25 3342.65 1356.03
-2138.1 3725.24 2017.32
-916.097 3481.59 1829.96
-2747.31 3309.66 1700.19
-2250.91 3601.89 2011.55
-354.994 2360.43 2115.63
-1381.73 3098.29 1995.02
-1236.42 1416.47 1835.78
-3241.03 2668.02 452.455
-2988.08 2862.89 1114.34
-2743.98 2633.91 -758.6
-3072.65 2641.22 -170.478
-2535.02 1058.33 505.752
-2722.09 1654.98 46.167
-2554.33 1063.83 -371.094
-1978.18 4332.59 -2012.1
-1908.76 3469.07 -1443.37
-1518.61 5240.15 -2201.42
-1901.05 4757.46 -2341.3
-977.533 1952.53 -1542.73
-1707.64 3249.46 -1711.44
-507.206 2382.03 -1601.33
-110.474 5256.08 -1264.58
-581.827 5268.85 -1694.07
343.681 5239.8 -795.716
204.803 5319.86 -875.61
888.593 3293.74 -976.387
53.9845 4422.99 -858.826
1235 3459.13 -575.399
1805.07 1120.08 500.429
1450.4 1171.4 1081.7
987.109 755.371 761.465
1225.88 2598.83 1464.64
1551.84 1781.13 1213.46
1966.59 2118.58 872.773
-179.891 1163.94 1833.87
656.273 1447.78 1703.41
169.851 1895.46 2014.53
155.343 716.693 989.332
622.585 718.252 30.6071
-984.033 1100.8 1978.16
-628.947 754.099 1676.74
-1678.79 708.261 109.422
-1303.31 718.964 963.404
-2009.71 717.503 962.821
86.4879 718.375 -784.502
804.836 866.845 -584.811
-1959.2 831.991 -560.658
-1141.87 712.61 -844.854
-90.5773 1357.91 -1364.88
-626.665 928.946 -1233.65
-1082.7 1223.13 -1333.36
1148.41 1339.41 -756.768
1709.09 1189.27 -256.331
22.6488 2062.15 -1567.2
568.803 1596.19 -1323.19
1713.6 2020.45 -471.977
1178.5 1944.75 -957.147
978.643 2658.21 -1127.05
2081.16 1598.62 126.339
1656.79 2834.26 -323.06
2053.4 2057.9 -101.213
2159.98 2075.91 413.806
1764.06 2601.89 599.385
127.546 2615.91 2034.19
699.16 2948.28 1773.96
133.326 3154.06 1881.38
-2327.48 1020.92 1344.1
-1895.61 1246.3 1762.78
-2268.67 1718.24 1360.97
-1435.31 1274.08 -1271.73
-2142.97 1146.87 -711.822
-2251.44 2127.03 -923.082
529.529 2922.35 -1279.74
-50.5121 2724.81 -1606.58
-678.454 3798.78 -1686.53
1495.27 3486.58 404.11
1459.23 3470.13 -167.578
1089.39 3938.17 34.5702
-2476.85 5191.31 -102.382
-2429.38 5122.75 595.932
-1968.06 5343.21 55.7586
-2787.49 4948.1 998.03
-2626.14 5068.16 824.335
-2911.39 4958.32 715.271
-1927.2 5131.06 895.531
-2312.76 5108 907.742
-2169.92 5060.65 1089.05
-3012.88 3729.72 1673.79
-3026.52 4029.85 1595.33
-3206.21 3836.56 1443.11
-2540.57 4345.11 1761.77
-2775.72 4234.5 1727.85
-2540.03 4076.58 1872.54
-3135.54 4546.9 1076.9
-2984.53 4397.44 1435.24
-2933.62 4688.58 1245.48
-1784.63 4669.36 1372.15
-1939.6 4601.11 1501.16
-1922.81 4427.2 1557.42
-2022.77 4916.02 1304.47
-1972.94 4777 1411.51
-1838.43 4954.61 1181
-2180.4 4228.83 1802.73
-2116.73 4510.75 1632.12
-2267.24 4449.8 1721.52
-2639.67 4833.6 1324.63
-2443.93 4642.49 1576.72
-2323.45 4888.22 1339.86
-1336.77 5670.23 -52.5176
-1658.46 5645.75 -660.914
-1356.61 5279.39 500.599
-1348.01 5527.74 184.226
-840.557 6016.41 -307.587
-928.643 5916.2 -149.764
-823.992 5956.58 -193.877
-1127.52 4191.06 1038.43
-1562.84 4791.36 1112.06
-742.392 5395.59 148.424
-1169.74 4882.33 572.792
-232.533 4630.08 566.268
-1671.35 5009.73 999.341
-1506.94 5130.05 869.244
-208.595 5711.81 -599.395
-350.115 5715.62 -334.423
-201.008 5543.54 -428.537
-670.001 5920.63 -218.662
-510.037 5837.02 -253.304
-566.537 5966.3 -435.808
-446.935 5387.59 37.0837
-476.817 5686.79 -156.689
-572.521 5624.92 -42.6102
-900.555 5588.88 221.881
-777.777 5672.03 46.3616
-778.359 5830.11 -57.288
-1687.09 5825.24 -1208.31
-2207.75 5710.48 -1214.25
-761.152 6020.66 -545.257
-1238.03 5897.75 -725.942
-2091.66 5871.94 -1640.3
-1891.24 5790.63 -1418.25
-1899.77 5808.68 -1568.48
-23.7925 5622.68 -873.717
-178.67 5775.96 -763.478
-259.087 5857.46 -970.636
-205.917 5832.86 -849.9
-65.1614 5687.94 -945.995
-372.504 5928.61 -709.303
-519.735 5997.35 -638.028
-1641.64 5241.12 -2216.06
-1366.51 5468.25 -1848.59
-1156.96 5185.48 -2019.12
-1691.9 5753.47 -1725.37
-1519.84 5662.74 -1778.39
-1896.91 5747.87 -1935.51
-291.46 5568.05 -1271.42
-824.337 5651.31 -1508.85
-434.748 5777.52 -1211.44
-601.857 6018.22 -848.529
-506.281 5947.94 -1052.72
-1123.16 5824.76 -1295.01
-2401.48 5750.12 -1350.24
-2446.52 5585.65 -906.759
-2213.37 5917.11 -1749.18
-2318.56 5869.55 -1577.37
-2784.71 5414.8 -1254.75
-2609.32 5696.29 -1442.87
-2768.29 5526.6 -1522.92
-1740.22 5134.03 -2360.81
-1840.07 5242.87 -2331.23
-2076.04 5227.25 -2322.46
-1910.85 5244.04 -2397.4
-1911.87 5104.4 -2453.89
-1939.21 5548.4 -2178.94
-2046.13 5777.59 -2029.16
-2615.41 4538.01 -1439.6
-2619.62 4798.28 -1680.74
-2477.98 4494.66 -1711.94
-2827.99 5263.83 -1630.84
-2772.13 5172.59 -1652.92
-2840.53 5151.94 -1420.95
-2259.72 4786.4 -2118.81
-2544.03 5032.08 -1902.67
-2378.31 5147.43 -2092.69
-2368.68 5726.8 -2001.52
-2438.53 5395.06 -2114.27
-2687.6 5496.6 -1843.34
-2638.67 5242.65 -424.006
-2849.99 5130.23 -844.088
-2787.46 5188.36 -650.851
-2879.06 4994.19 194.573
-3088.18 4836.07 527.935
-2653.68 3676.38 -831.462
-2749.16 4387.4 -875.712
-3236 3913.47 54.7886
-3034.05 3990.43 -382.287
-3196.47 3485.71 -86.4973
-2828.12 4831.2 -1010.08
-2853.17 4979.79 -1041.52
-3250.17 3870.67 1177.8
-3245.62 3568.33 1294.08
-3230 4588.17 767.734
-3249.98 4282.63 951.157
-3346.52 3551.04 504.689
-3324.29 3901.42 709.448
-3339.24 3903.92 413.491
-2985.23 4735.05 -217.3
-3243.96 4300.27 226.183
-3229.04 4626.5 366.39
106.067 5048.17 -327.535
49.2623 5224.04 -501.409
130.533 4575.56 753.945
-252.308 4719.31 397.259
907.118 4105.75 538.727
642.486 4317.15 469.307
862.923 4115.72 707.232
-300.547 3941.27 1382.5
-3.99812 4093.47 1249.14
535.868 3902.51 1291.81
307.868 4010.59 1282.22
406.116 3701.54 1452.24
166.221 4212.59 1105.54
247.945 4350.77 903.346
1439.24 3298.55 987.025
1259.51 3451.54 1128.5
1285.27 3216.35 1254.95
1050.14 3881.95 875.857
1166.16 3688.1 997.297
1248.32 3726.01 769.831
868.354 3472.47 1425.99
1040.4 3609.23 1219.78
830.513 3746.09 1277.89
521.852 4202.93 954.956
687.739 3997.55 1131.72
798.868 4062.36 928.676
-1883.66 3924.22 1797.98
-1199.03 4022.52 1250.33
-2155.88 3902.65 1912.24
-2047.21 3961.67 1844.37
-551.604 3323.73 1839.21
-1679.08 3831.12 1819.92
-1371.25 3521.22 1557.23
-2991.15 3455.87 1640.59
-2810.49 3598.01 1771.19
-2196.44 3348.29 1913.52
-2509.06 3492.44 1886.04
-2306.69 2985.65 1645.38
-2536 3749.46 1918.62
-2301.22 3825.8 1970.46
-526.278 1807.74 2005.18
-732.417 1805.96 1968.1
-849.491 1388.38 1984.53
-994.024 2822.29 2001.01
-676.291 2536.69 2029.15
-363.41 2609.94 2046.47
-1677.1 1555.95 1651.59
-1180.97 2099.41 1845.94
-1725.24 2739.07 1786.73
-2113.6 3615.34 2005.94
-1965.22 3511.62 2007.11
-1908.08 3472.36 2006.86
-3185.9 3273.53 1119.14
-3147.17 3349.04 1388.19
-3260.22 3067.93 349.585
-3201.47 3153.5 645.572
-2904.18 2262.18 965.546
-3153.48 2720.16 775.843
-3056.18 2341.5 623.672
-2661.67 3058.35 -832.43
-2863.53 2984.78 -596.569
-2891.24 2263.82 -418.243
-2909.95 2600.7 -510.323
-2748.71 2299.97 -647.714
-3050.36 3031.11 -247.049
-3189.33 3031.1 43.53
-2435.6 864.736 234.888
-2571.56 1049.07 -37.3426
-2444.46 870.392 -237.113
-2769.39 1726.2 432.443
-2630.56 1257.12 210.793
-2471.81 1282.18 737.108
-2513.61 1201.1 -410.953
-2606.97 1205.14 -205.703
-2584.79 1590.07 -254.771
-3222.83 2649.99 175.629
-3003.16 2264.46 -59.1483
-3096.43 2316.74 289.221
-2235.55 4351.14 -1871.2
-2331.39 3930.21 -1029.11
-2023 4594.45 -2168.84
-2167.91 4440.57 -1994.96
-1853.87 3224.74 -1363.04
-2059.35 4165.37 -1827.5
-1922.02 3921.81 -1695.23
-1493.9 5173.59 -2248.07
-1766.18 5136.67 -2379.4
-1915.27 4633.97 -2106.65
-1892.48 5023.28 -2231.98
-1569.85 4782.16 -1962.95
-1909.36 5104.42 -2459.61
-1915.85 4889 -2386.53
-742.162 1907.18 -1582.16
-744.024 2227.03 -1606.02
-483.566 2070.3 -1601.26
-1460.79 3043.49 -1700.82
-984.469 2527.85 -1584.48
-1188.85 2117.99 -1437.17
-554.057 2893.7 -1602.9
-891.28 2713.42 -1614.36
-1784.5 3532.91 -1660.27
-1880.73 4483.52 -2220.52
-1871.94 4348.65 -2175.65
-1828.43 4107.39 -2063.67
-552.34 5270.81 -1681.82
[...]
POINT_DATA 642
SCALARS Mean_Curvature double 1
LOOKUP_TABLE default
0.000644563
7.28521e-05
0.00225345
0.00235843
0.000206812
0.00298613
0.00169682
0.00465846
0.00140911
0.00105127
0.00666177
0.00349328
0.00195224
0.00185326
0.00167533
0.00881925
0.00468469
0.00177766
0.0036776
8.50398e-06
0.00257911
-0.000128366
0.000770971
0.00133827
0.000499226
0.00043812
0.000540294
0.000299308
-0.00267207
-0.0011895
-0.004767
0.00640263
0.00224353
0.000921919
0.00223613
0.00243388
1.26989e-05
0.00299646
0.00272016
0.000170909
0.00302123
-0.00133481
0.00139252
0.00164741
-0.00175148
0.0014131
0.00181588
0.0013749
0.00164539
0.00143745
0.000712075
0.00116419
0.0017363
0.000648298
0.00698923
0.00174587
0.0023799
-0.000235287
0.000106653
0.00184407
0.014533
0.00380489
5.65087e-05
0.00205876
-0.0019837
0.00335612
0.00182741
0.0205623
0.00271223
7.49721e-05
0.00211214
0.00199625
0.00160949
0.000481859
-0.00103407
-0.000213072
-0.000117166
-7.74719e-05
-0.00194588
0.000917644
0.00158247
0.000972629
0.0014877
0.000963214
0.00322433
-0.00126513
0.0012943
0.00386902
0.00156623
0.00127853
-0.000958754
0.0019499
-0.000411909
0.00152865
0.000667963
0.00254924
0.000409511
0.00518152
-0.00251484
-0.000607611
-0.00589144
-0.0140545
0.00199772
-0.00923941
-0.000122034
0.00632343
0.00740976
-0.0113727
-0.00122069
0.00056964
-0.0044499
0.000892118
0.00166913
0.00169458
0.00140979
0.000520418
0.000299316
0.0032809
8.67351e-05
0.000834871
0.000561893
0.000117649
0.000143412
0.00335651
0.00276512
-0.000364444
-6.35753e-05
0.00145971
0.00174792
0.000815855
0.000630324
0.00129188
0.000307498
0.00267486
5.3332e-05
8.01439e-05
0.00194601
0.00127541
0.0020986
0.000111814
0.0007217
0.00093459
0.00102524
0.00203934
0.0036686
0.00522003
-0.000866124
0.000397703
0.000726456
0.00132725
0.00286013
0.00516727
-0.000448642
0.00188945
0.00235498
0.000652848
3.52128e-05
0.00248589
-0.000551143
0.0010423
0.00128514
0.00030779
-0.000810237
0.000175688
-7.28607e-05
0.00157265
0.00158113
0.0015733
0.00305346
0.00113654
0.00151115
0.00213954
0.00139659
0.00273347
0.00166049
0.00193464
0.0018936
0.00151066
0.00117685
0.00159789
0.000853607
0.00182249
-9.05741e-05
0.00220286
0.00217204
0.00491614
0.00204985
0.00143665
0.00233004
0.00171863
0.00149841
0.00130448
0.000663084
-0.000781862
-0.00254819
0.00151238
0.00373453
0.00258883
0.00394185
-0.00319623
0.00108854
-0.00132954
-0.00192455
-0.00145009
-0.0057725
0.0134547
0.000861989
0.00201085
0.000402714
0.00248888
0.00252331
0.00168268
-0.00518112
0.00213582
0.00309224
0.00735786
-0.00249572
0.00465183
-0.00179595
-0.000480158
0.00108252
0.00176809
0.00208005
8.248e-05
0.00086961
-0.00384772
0.00196781
0.00312119
0.00397132
0.00492809
0.00152671
0.00329767
-0.00124199
-0.000628498
0.00728458
0.00137225
0.00141125
0.0013111
0.000912403
0.00207333
0.00153487
0.00180273
0.00271919
0.000659854
0.0013319
0.00131936
0.00461933
0.00358626
0.00157298
0.0024789
0.0029538
0.0157239
-0.00134078
0.00193244
0.00843225
-0.00766532
0.00304879
0.00413247
-0.0015843
0.00096693
0.000988118
0.00490366
0.00075973
0.0030139
0.0013789
0.000500464
0.000265816
0.00289273
0.00287345
0.00311145
0.00101273
0.00222169
0.00137709
0.00110523
0.00168187
-0.00279962
-0.000982692
0.000586214
0.00152778
0.00116281
0.00107989
0.00158727
0.00056426
0.00212791
0.00235764
0.000984284
0.00220145
0.000872654
0.00155405
0.000636323
0.000751331
0.00228185
-0.000174787
0.0017527
0.00698111
-0.00318998
0.000904692
0.00146446
0.0015572
0.00196915
0.000408222
0.00105976
0.00118262
4.55104e-05
0.000638935
-0.00286786
0.00111825
0.00146053
0.0012393
0.0010601
0.00122625
0.00143159
0.000689571
0.00107204
0.00142668
0.00149685
0.00151058
0.00119476
-0.00207075
-0.0025698
-0.000406154
0.000295462
0.00351515
0.00979479
-0.00360037
0.00240273
0.00106329
0.00132912
0.00109591
-0.00138757
0.0015566
0.00264895
0.000234458
-2.20507e-05
0.00113617
0.000684992
0.000788702
-0.000275525
-0.00151685
-0.00018164
-0.000536859
-0.00496586
0.000985966
0.00452707
0.000993567
0.00233908
0.00134227
-0.000844918
0.00102258
0.00131983
0.000598349
0.00189424
0.000536304
0.00138578
0.000946682
0.00130729
-4.54488e-05
0.000523988
0.00193317
0.00173193
0.00266654
0.000501563
0.000596456
-0.00169507
0.00119182
0.00188177
-0.000784722
0.00190999
0.00059509
0.00106204
0.00123687
-0.00242625
-0.000167435
0.00136259
0.000700379
0.00405185
-0.00300918
-0.0269384
0.00656506
-0.00269777
-0.00484651
0.00143201
-0.0162955
-0.0172476
0.000874666
0.000941026
9.3636e-05
-0.00376881
-0.000299505
0.00064093
0.000221252
0.000326654
-0.00208701
0.0107713
0.00632962
0.00339307
0.00497147
-0.00268885
0.00247703
-9.91695e-05
-0.000738536
0.0673672
-0.00586967
-0.00548794
-0.040688
0.0117723
-0.0656493
0.0541458
-0.00323534
0.00120223
0.00119636
0.000849813
0.00125142
-0.00214985
0.000759733
-0.00277351
-0.00089991
0.000306336
-0.00236253
0.00400892
-0.000731063
-0.00190568
0.000644842
0.00133964
0.00186332
0.00196541
0.00137795
0.00240443
0.00240157
0.000427807
0.00137424
0.000743562
4.10469e-05
-0.000324391
7.15118e-05
1.0079e-05
0.000960393
0.00150231
0.00126569
0.00152965
-0.00022825
0.00206786
0.000197954
0.00106495
0.000584378
0.00158792
0.00141479
0.000870974
0.000301252
0.00181181
0.000579646
-0.000109034
0.000290346
0.00103886
0.00165907
0.000488755
-1.15552e-05
8.21295e-05
4.11264e-05
0.00340378
0.00333611
0.00284671
0.00229119
-0.000399394
0.00119422
0.00148714
0.000301487
0.00259873
0.000799739
-4.37763e-05
0.000556546
-7.83024e-05
0.0020893
-0.000523345
0.000486812
0.0011166
0.000727406
-0.000341948
0.00113265
0.0014216
2.68403e-05
0.000258449
0.00228806
0.0026122
0.00224341
0.00299151
0.00114131
0.00271261
0.00199259
0.0018545
0.000111961
-5.4074e-05
0.00131758
0.000509054
0.00116848
0.00113541
-6.42537e-05
0.000556723
0.00351124
0.000949448
0.00209096
0.00177718
0.00161103
0.000932187
0.000902627
0.00143169
0.000933876
0.00051886
0.00181332
0.00119053
0.00129194
0.00128187
0.000739513
0.000743827
-0.000466663
0.000464855
0.00017292
0.00101393
0.000721828
0.000276021
0.000801922
0.00034695
-0.000638936
0.00244397
0.00135772
0.000404146
0.000846492
0.00147021
0.00151061
0.000595704
0.00131883
0.00224642
0.00194073
0.00182075
0.00128616
0.00104031
-0.000646777
0.00156298
0.00160035
0.000507762
0.000604141
0.00391542
0.00230404
0.00173953
0.00209307
0.0037574
7.37441e-05
0.000964357
0.000523428
0.0017
0.00416034
0.00368296
0.00132068
0.00113399
-3.63717e-05
0.00247389
0.000255361
0.00113906
0.000854714
0.000761468
0.000822525
0.000955893
-0.000625671
0.00149959
0.000310063
1.44914e-05
0.000556378
0.00221112
0.00053777
0.00194271
0.00104272
0.00321773
0.00244932
0.0026753
0.00173547
0.00314793
0.00198299
0.00185772
0.00218483
0.00265544
0.000403099
0.000461246
0.00136754
0.000809117
-9.74221e-05
0.00411389
0.00157574
0.00192048
-0.000374824
0.00348207
0.00447346
-0.00024389
-0.00113562
0.00308818
0.000911436
0.00440696
0.00186422
0.00256032
0.000657657
0.000225803
0.000274413
0.00167279
0.000974188
0.00192317
-0.00204951
-0.00074034
0.0009756
0.000370703
0.000745566
0.00143418
0.000694534
0.000411021
-0.000222403
0.000185075
0.00131726
0.000302661
0.00584705
-0.00173534
-0.00172958
-0.00187395
0.010759
0.0014489
0.00143831
-9.04346e-06
0.0013935
0.00138933
0.000739909
0.00127376
0.000705379
0.000937927
0.00265122
0.000905497
0.00116924
0.00121051
-0.00136564
0.000225122
-0.000284609
-0.00429595
-0.00796419
0.00141525
0.00133219
0.000337749
SCALARS CoVolArea double 1
LOOKUP_TABLE default
249780
66371.1
89470.5
89239.9
63354.5
186875
63875.2
19779.3
77671.2
110962
193899
52141.4
93360.4
62970.3
82166.3
155106
30826.7
59481.1
49212.9
81953.8
70441.5
136744
92164.9
64351.8
275935
227175
140237
226831
631073
385930
109108
263398
97812.4
149201
121444
119690
392729
76392.7
76774.7
107249
62654.7
157066
146901
84659.6
221855
89526.9
104596
111721
46846.4
64557.8
55315.5
85376
175199
405339
141952
50454.7
31718.8
174727
185590
67271.6
12359.2
38258.7
96780.3
129708
176081
90161.9
127110
7446.22
86584.1
133596
68860.7
90700.7
143739
261655
233073
127822
145470
143095
158092
129540
63716
65362.3
65775.3
76155.1
100612
281606
154796
57301
122149
249648
184521
126552
194356
97274.9
142224
128469
205139
49254.1
69997.5
344259
90215.7
38469.2
124327
138132
125619
15617.2
102829
63789
31624.7
101103
308847
79166.1
116986
150117
137938
163992
126038
63854.4
158585
173974
123502
214912
189398
97606.6
119277
176113
247301
119606
118233
140543
110646
127262
146035
114979
70778.2
169898
101251
103986
80672.9
110301
119705
116376
110071
117886
35741.1
25659.1
125019
93180.9
86916.8
78150.8
83566.6
42839.7
191781
66558.5
89852.9
224348
122458
76084
474782
85239.2
64534
175921
250871
210368
411893
94844.9
84607.9
94389
126575
96286.9
76583.9
75422.1
104864
83743.5
82400.5
94901.2
78748.5
101681
111790
109379
108160
40060.4
146268
61780.5
43163.2
39599.2
44309.6
44232.2
63004.7
111226
96137
94029.7
272440
380577
161548
150966
53285.5
75011.6
22861.2
340562
278191
280048
428713
370665
119370
68263.3
50935.7
46583.9
82975.1
31296.5
40077.8
40656.4
110047
38889.5
69527.1
70589.6
51830.9
33392.1
162916
183928
111518
94003
31092.5
55963.7
109156
35248.4
32196.8
50410.7
26376.9
33699.8
36405.3
41153.9
91672.9
190771
135240
108874
107586
62758.6
97242.4
136327
94993
134556
106943
195558
81566.4
141638
66603.6
47411.1
97170
72647.7
79338.1
15252
42126.1
76413.8
34198.4
21195.3
53974
69259.3
186281
107562
161288
53558.8
62817.5
44703.7
106633
101919
98682.4
120701
107992
105928
174914
130960
138338
141108
113809
286726
299949
194963
214797
164916
144417
130430
126285
83850.8
107157
130224
126964
142895
124620
219557
196968
149508
301877
112226
132909
396579
101544
241693
66532.4
283747
194790
72580.5
71072.9
92738.3
139561
115287
93811.8
69038.5
97066.4
63413
62052.6
56878.4
79628.8
68757.2
74925.9
80789.9
71277.8
70806.9
228999
431493
39576.1
53043.7
159195
128020
375161
75582.8
80949.5
208541
114961
282239
80755.8
60133.3
126152
222237
76265.4
243953
243593
97668.8
259239
454330
383575
22023.2
119409
146664
148251
96076.3
127372
164201
211592
178341
196894
214718
195326
169485
123968
127250
157729
143254
128728
92431.2
78378.6
248219
156875
175190
61345.1
93618.9
169362
129350
198678
186743
207914
448443
73401.8
62619.4
198464
69135.3
222787
10675.9
22333.4
329399
99880.4
247434
18457.3
30689.5
96091.7
98696.7
64909.4
309347
152291
269552
405290
206204
541056
35227.5
77123.8
132846
61597.3
24137.5
49273.2
62839.8
310294
8482.09
38079.6
76552.7
10638.5
82767.9
7502.05
15623.5
19946.9
49331.9
64567.7
90567
65664.8
123078
183265
119774
139119
227108
317274
35216
157863
77748.1
120830
135235
112917
106685
121185
98265.7
121459
145225
154537
146106
133561
112206
184944
160487
149841
68422.4
94952.8
88577.3
102728
139411
136526
151540
149954
135934
121965
131057
181215
139241
190122
192617
143167
112728
134105
141975
298456
239112
385536
46860.1
89518.5
130213
106977
153636
117311
133059
124799
131697
146180
369857
185111
294328
96201.4
138326
154863
180067
192502
311416
140442
121975
231324
167392
96390.8
104284
90386.3
82766.2
135294
91241.8
116642
109648
198597
259360
115343
124643
106729
108997
119016
93871.6
42161.4
84698.8
79889.7
152977
121674
139342
130648
112442
128704
147884
82307.3
120465
118322
74217.9
133657
81768.7
106564
102217
107917
85943.9
152054
161778
108987
91063.9
104659
39217.2
102663
139898
104445
148089
113827
162950
118016
88576.7
101895
107610
108042
114558
137662
77578.9
90370.1
121005
55026.2
43533.1
77720.7
120717
76042.7
38223.6
129374
59128.8
64810.3
75308
31540.7
77178
132166
110788
108174
71807.5
90410.1
112433
99666.6
86088.7
107254
101560
301958
95226.9
121290
125252
101679
91740.1
88954.7
83304
137940
91459.9
98713.7
106524
131139
59929.4
105586
57654.5
91005.6
107309
173367
188182
236140
270950
246417
74182.6
92036.6
108785
87116.4
45865.2
33053.3
94468.3
263011
73876.9
110439
49918
95063
90744.8
256738
325584
215652
122723
183757
106248
212542
219375
72820.5
108403
81372.9
94703
346650
81045.6
173750
103744
90252.5
112455
132099
825481
585270
229138
184115
105614
89620
381787
106995
144350
123198
70340.9
74119.4
78684.4
75432.7
65142.7
86285.1
123519
242913
111324
262097
210804
95307.1
87604.4
99193.2
97813
SCALARS SignedDistance double 1
LOOKUP_TABLE default
324.426
359.975
212.656
197.665
339.982
437.113
330.156
638.848
304.412
286.191
542.701
199.414
212.942
294.549
334.511
695.226
276.144
262.65
348.232
350.897
266.497
271.825
331.151
332.124
333.634
307.718
390.578
305.444
967.341
430.079
646.591
841.276
217.203
263.502
205.592
201.729
249.89
238.112
261.348
337.199
287.296
359.261
271.068
255.73
364.348
237.8
218.905
215.722
334.707
315.089
346.503
323.291
276.225
485.173
572.358
313.834
329.871
396.77
615.682
349.155
334.687
277.128
323.665
694.221
547.101
220.823
226.663
521.274
229.036
286.991
259.807
284.858
307.109
298.114
332.85
256.161
255.446
335.154
569.201
325.803
315.049
303.458
300.021
297.608
376.414
610.165
255.916
357.361
315.646
717.513
381.594
240.938
282.419
274.092
268.622
303.491
334.549
309.028
554.655
748.529
592.634
523.101
294.545
912.191
332.868
387.998
744.49
616.71
460.28
347.444
730.239
322.712
185.828
199.066
206.873
274.951
280.626
262.163
258.873
237.204
291.458
250.545
245.66
275.24
216.242
254.994
244.955
245.885
245.341
232.945
229.318
251.377
285.747
252.206
338.752
281.452
204.596
297.048
327.323
324.382
301.688
314.954
237.16
290.129
272.205
292.291
356.39
311.257
303.95
320.864
235.645
323.277
400.97
336.588
371.374
322.851
362.1
337.946
1010.74
316.24
314.586
341.287
306.057
327.278
295.264
251.015
274.501
248.579
335.375
311.978
283.133
216.597
209.179
204.477
279.059
224.485
283.781
211.334
211.04
209.188
348.407
351.959
365.422
294.931
317.161
326.51
331.946
336.531
310.537
246.743
276.477
279.25
291.562
497.401
441.403
315.394
265.167
278.626
280.442
468.408
403.132
429.318
469.894
659.693
392.327
555.536
339.608
357.075
372.308
289.848
319.662
275.133
482.96
375.445
396.459
460.019
369.567
318.944
690.364
335.15
260.346
399.87
350.956
465.635
422.562
330.55
316.194
266.181
303.777
310.418
280.163
277.36
489.394
679.979
912.514
493.082
591.762
309.013
291.768
633.915
255.561
257.796
226.697
657.549
287.918
269.791
312.207
301.977
224.837
216.53
202.489
542.21
408.226
300.165
413.702
514.006
269.352
260.931
320.764
301.352
302.463
261.73
252.823
277.804
270.336
256.884
241.016
155.778
228.362
192.25
259.55
267.363
254.701
270.317
224.63
527.65
348.434
250.607
312.053
277.221
282.371
276.346
250.407
245.547
229.079
249.973
284.261
246.936
268.713
315.558
275.547
228.257
598.934
464.454
609.353
714.596
337.598
374.446
325.657
339.372
338.882
318.458
320.027
344.27
342.645
378.141
291.357
285.461
281.959
315.595
305.807
306.785
305.593
298.887
297.615
332.373
313.185
324.194
396.949
465.856
337.135
345.497
428.159
547.871
447.589
222.851
254.092
394.86
272.394
371.179
251.992
309.471
282.844
321.258
337.998
415.233
306.922
319.169
413.699
418.83
392.452
405.68
513.91
556.306
290.555
228.883
283.494
307.928
231.748
234.948
243.611
346.764
287.561
245.162
274.23
253.558
282.98
281.578
192.509
260.792
195.429
291.22
333.723
386.359
327.651
306.83
384.89
248.195
263.626
250.145
408.696
529.866
429.572
406.105
576.561
591.937
833.144
647.87
533.752
408.642
354.939
527.273
513.459
506.674
314.709
337.653
332.798
798.861
335.564
324.791
399.522
345.899
980.43
610.596
676.919
832.286
721.844
816.192
330.101
441.175
496.548
501.013
370.533
422.198
474.193
693.288
585.037
816.615
446.505
309.474
323.656
332.758
313.806
850.406
372.336
418.779
340.038
349.278
661.373
387.055
429.534
394.859
216.341
196.912
227.48
198.787
191.568
179.092
200.919
227.379
217.517
271.349
304.288
313.744
281.446
281.404
268.239
230.39
263.966
254.425
318.911
272.307
285.901
250.431
230.036
209.165
258.344
251.876
263.616
248.647
264.544
253.07
243.635
244.374
239.723
242.638
247.476
250.353
246.296
298.485
262.585
212.676
193.419
264.913
230.174
211.889
248.067
227.126
217.33
248.327
324.55
248.747
237.883
247.311
228.293
234.665
245.71
270.328
227.436
219.337
265.983
248.781
214.357
233.28
228.199
225.136
242.57
213.75
232.444
223.46
247.154
248.4
281.462
303.672
311.83
267.821
283.383
278.305
324.409
315.663
257.962
256.544
220.886
235.125
238.839
206.573
252.459
255.566
238.682
252.526
274.303
332.507
291.748
335.137
326.199
318.831
312.962
278.519
302.636
307.219
319.302
347.609
331.335
303.189
310.386
301.243
299.019
248.014
292.84
299.332
206.334
219.903
202.002
196.873
219.2
305.689
326.667
293.705
304.52
352.454
281.762
289.495
295.998
304.125
248.821
289.386
349.811
280.368
286.014
271.399
285.702
266.447
265.744
267.771
295.522
322.652
314.543
282.135
306.913
297.632
289.69
293.479
387.82
326.388
344.487
352.958
331.232
284.366
315.557
297.633
206.08
157.513
173.087
260.074
312.809
324.053
340.829
361.914
389.169
267.379
289.29
370.075
232.351
275.454
404.299
266.467
319.572
311.8
376.433
325.418
335.225
375.528
431.728
207.557
354.414
336.199
318.806
326.684
338.172
324.581
356.516
280.88
292.459
348.817
420.941
451.579
328.457
346.194
341.953
337.687
375.38
334.741
437.879
337.016
322.923
329.237
777.048
659.438
829.547
657.201
1046.07
337.448
468.845
375.12
289.862
287.319
299.248
308.485
326.311
316.236
325.011
318.147
308.424
304.073
674.083
339.55
354.733
809.263
495.169
319.095
329.202
332.661
