# vtk DataFile Version 4.2
vtk output
ASCII
DATASET POLYDATA
POINTS 642 double
-3042.7 7454.06 -135.529
1782.68 7279.9 -99.6355
-3096.94 -723.29 -45.1553
2061.07 -728.574 -34.6107
-545.401 877.007 4007.49
-649.185 5734.65 3684.46
-526.648 1006.99 -3862.53
-617.103 5934.88 -4076.97
3267.63 3373.18 -2341.08
3381.09 3352.5 2329.05
-4465.41 3516.64 -2497.13
-4642.56 3442.21 2489.71
-4431.58 5827.68 1440.96
-2918.89 4885.89 3754.59
-2002.65 7109.27 2246.92
757.442 6963.71 2021.73
-533.6 8109.07 -71.8463
863.067 7185.23 -2339.12
-2078.99 7438.25 -2536.2
-2974.72 4986.97 -3982.02
-4497.03 5910.07 -1597.55
-5284.2 3438.31 -19.1185
1694.97 4739.62 3514.26
3031.3 5569.63 1312.84
-2856.97 1923.65 3670.73
-521.756 3376.83 4430.84
-4338.68 1015.09 -1469.65
-4375.34 999.984 1444.41
-630.156 3545 -4360.94
-2746.23 2044.57 -3574.59
2926.68 5592.64 -1364.09
1621.69 4844.59 -3519.88
3440.18 964.208 1455.4
1799.11 1951.62 3687.51
981.506 -508.505 2374.46
-2063.6 -557.564 2406.69
-528.741 -1291.35 -48.5553
-1992.84 -430.739 -2403.05
941.508 -419.678 -2391.63
1716.32 1986.09 -3622.6
3363.26 1010.78 -1490.83
4120.36 3317.23 -20.8411
-3844.83 6742.47 718.142
-3336.31 6666.64 1956.35
-2571.92 7391.38 1159.38
-3912.57 4201.71 3267.4
-3843.3 5451.75 2757.86
-4699.96 4685.07 2049.82
-1330.71 6545.8 3112.62
-2551.74 6161.11 3162.41
-1786.39 5411.15 3904.45
-1263.16 7806.13 1102.45
-1808.62 7912.39 -99.0287
95.6325 6377.57 2927.11
-577.086 7213.52 2229.94
695.405 7872.32 -86.0749
182.609 7770.58 1089.47
1319.08 7294.61 1025.89
-1365.08 7888.29 -1319.85
-2675.65 7680.39 -1366.24
1418.99 7407.43 -1242.83
218.042 7896.3 -1279.18
-1363.89 6827.01 -3473.51
-597.567 7413 -2539.32
137.131 6636.91 -3263.39
-3457.54 6867.31 -2173.76
-3903.6 6855.77 -891.686
-1813.94 5562.58 -4254.3
-2645.18 6362.57 -3460.05
-4690.88 4758.76 -2166.94
-3935.75 5553.51 -2960.66
-3871.98 4276.34 -3352.7
-4595.31 5955.97 -57.5138
-5019.48 3449.35 -1287.39
-5020.04 4710.97 -836.768
-5107.85 4702.46 749.849
-5150.19 3443.85 1283.3
2021.24 6355.96 1779.65
2424.72 6451.48 608.656
618.57 5256.43 3686.24
1324.86 5925.87 2921.97
3345.6 4545.93 1891.58
2521.25 5246.97 2534.01
2636.33 4105.15 3060.13
-1799.36 4183.45 4326.66
-598.548 4588.32 4156.4
-3885.86 2701.58 3236.66
-3039.41 3445.82 3937.17
-521.61 2113.66 4358.21
-1742.78 2700.33 4245.17
-1769.29 1311.96 4015.57
-5060.86 2180.22 731.854
-4629.04 2218.41 2010.93
-4517.93 2216.55 -2015.03
-5003.42 2193.44 -784.391
-3889.28 1.50507 745.25
-4562.39 884.63 -47.396
-3886.88 6.7044 -814.534
-2988.63 3515.68 -3996.2
-3673.83 2779.43 -3146.51
-617.342 4776.05 -4530.25
-1789.8 4292.77 -4540.74
-1690.32 1413.31 -3860.42
-1713.41 2802.69 -4179.7
-521.294 2166.35 -4253.8
1336.26 6109.18 -3114.83
534.025 5393.16 -3888.06
2482.22 6600.31 -797.173
2059.95 6558.35 -1944.77
2533 4079.67 -3021.91
2417.83 5315.66 -2601.41
3264.47 4517.21 -1913.22
2901.47 -31.333 745.134
2358.77 60.7732 2005.18
1609.42 -779.723 1217.16
2726.22 2626.86 3119.19
2798.34 1361.57 2740.15
3614.74 2140.32 2006.49
232.533 73.1726 3313.83
1506.04 592.771 3220.64
694.897 1351.72 3986.97
281.697 -1163.33 1243.04
830.535 -1196.22 -34.4244
-1307.85 44.6402 3351.47
-535.588 -718.724 2526.95
-1877.88 -1212.88 -31.9382
-1348.58 -1161.77 1245.1
-2662.25 -811.387 1249.54
269.376 -1116.88 -1296.84
1570.55 -709.301 -1266.73
-2638.94 -741.3 -1276.15
-1320.93 -1122.91 -1302.45
225.536 184.913 -3253.97
-534.112 -599.102 -2514.45
-1290.25 160.066 -3288.98
2276.06 149.92 -2013.11
2865.34 3.9731 -805.145
650.296 1437.66 -3876.4
1434 678.449 -3191.2
3520.39 2151.72 -2009.33
2672.54 1436.4 -2701.62
2603.5 2653.89 -3083.45
3636.82 836.842 -32.8366
3846.41 3331.07 -1233.85
4033.47 2137.4 -799.906
4085.83 2128.86 739.319
3948.65 3325.81 1201.04
675.72 2639.51 4289.41
1867.48 3383.36 3799.02
652.45 4098.39 4184.76
-3408.17 28.6826 2041.55
-2599.82 545.239 3292.61
-3820.48 1329.67 2776.71
-2488.78 665.775 -3213.23
-3331.18 127.114 -2027.2
-3668.33 1444.51 -2676.4
1772.73 3378.49 -3701.52
614.972 2667.81 -4167.91
505.381 4211.73 -4106.44
3734.01 4548.22 693.008
3703.24 4541 -751.207
3182.53 5666.61 -31.7988
-3442.4 7088.17 294.697
-3242.76 7121.06 961.28
-2795.77 7408.97 528.014
-3925.81 6292.53 1723.21
-3624.27 6737.96 1359.77
-4174.41 6317.81 1093.79
-2311.49 7291.53 1723.25
-2979.76 7071.49 1577.01
-2686.06 6942.95 2128.92
-4318.35 3826.22 2913.08
-4361.86 4453.64 2702.15
-4715.69 4066.56 2296.23
-3416.99 5186.36 3305.09
-3912.5 4844.88 3048.8
-3441.46 4558.47 3549.81
-4606.55 5278.71 1762.38
-4312.62 5093.01 2433.21
-4186.09 5666.81 2129.95
-996.285 6165.6 3437.22
-1568.08 6017.12 3553.02
-1217.19 5603.02 3830.03
-2293.5 6684.84 2738.82
-1947.8 6391.08 3173.04
-1672.08 6864.13 2711.63
-2358.98 5170.33 3871.83
-2183.92 5807.86 3573.13
-2761.51 5554.97 3508.16
-3631.84 6103.9 2390.78
-3227.79 5848.36 3007.92
-2975.89 6455.18 2601.4
-2182.06 7682.39 518.065
-2433.89 7691.81 -143.982
-1637.88 7440.66 1670.75
-1916.66 7604.29 1127.74
-1162.71 8067.92 -67.4741
-1524.98 7917.44 528.411
-913.394 8023.64 530.134
-289.965 6059.35 3313.83
-649.228 6524.03 3069.59
103.86 7169.28 2148.38
-269.817 6841.69 2591.05
454.33 6684.28 2470.6
-973.335 6898.27 2706.22
-1280.56 7193.38 2283.35
1263.97 7615.64 -92.3231
1048.03 7633.06 497.344
1573.06 7322.9 474.985
-163.289 8004.21 525.674
443.001 7870.07 516.968
88.7679 8039.35 -79.8844
1045.61 7180.41 1550.27
777.007 7571.21 1080.66
489.766 7432.32 1590.82
-908.502 7574.65 1707.08
-182.018 7560.38 1682.26
-538.966 7862.93 1120.24
-2288.74 7854.36 -768.255
-2882.46 7604.03 -763.659
-910.808 8067.79 -679.956
-1610.04 7949.94 -713.377
-2395.69 7602.86 -1958.74
-2064.42 7890.85 -1389.12
-1771.04 7771.9 -1968.14
1634.31 7396.57 -669.762
1089.9 7710.47 -675.829
560.125 7596.25 -1836.79
836.347 7697.35 -1277.5
1159.85 7337.85 -1810.37
470.364 7944.48 -686.194
-146.011 8070.19 -686.231
-989.622 6407.2 -3818.53
-629.027 6771.99 -3435.45
-268.569 6307.95 -3699.91
-1368.72 7502.16 -2607.31
-1009.89 7186.52 -3056.32
-1731.33 7178.38 -3046.73
536.012 6952.39 -2819.02
-222.557 7061.84 -2936.5
178.799 7359.71 -2454.79
-525.047 7976.58 -1304.09
-149.89 7728.45 -1917.96
-979.847 7714.02 -1958.62
-3336.83 7326.79 -1143.5
-3494.69 7202.98 -514.191
-2794.79 7205.13 -2384.44
-3093.37 7318.65 -1782.61
-4245.75 6426.76 -1256.05
-3738.79 6920.92 -1544.53
-4029 6430.85 -1903.55
-1212.63 5783.77 -4214.08
-1601.56 6243.5 -3921.31
-2847.04 5691.71 -3777.31
-2242.57 5987.68 -3887.1
-2407.28 5285.85 -4156.37
-2011.26 6646.47 -3516.34
-2381.75 6949.95 -3041.33
-4605.99 4147.05 -2360.52
-4335.52 4534.72 -2798.63
-4213.68 3904.29 -2952.41
-4271.91 5760.17 -2305.92
-4378.57 5173.67 -2596.31
-4654.61 5342.05 -1909.5
-3451.81 4645.95 -3696.89
-3959.51 4936.22 -3210.2
-3499.39 5295.01 -3529.23
-3092.48 6664.56 -2864.8
-3334.97 5997.58 -3259.89
-3745.3 6253.83 -2609.95
-3885.62 6812.59 -96.5541
-4571.8 5963.38 -851.668
-4278.87 6421.87 -488.955
-4257.34 6377.31 335.026
-4571.86 5921.76 714.955
-4731.75 3483.67 -1892.82
-4844.19 4135.89 -1738.7
-5202 4071.47 -407.518
-5056.31 4090.14 -1075.81
-5193.92 3434.67 -660.061
-4907.98 4764.99 -1528.67
-4825.38 5331.03 -1252.98
-4991.25 4068.4 1696.88
-4948.2 3442.55 1908.43
-4830.05 5290 1115.92
-4950.26 4711.72 1414.46
-5271.55 3444.01 625.652
-5160.47 4074.27 1019.29
-5259.4 4076.06 369.4
-4878.96 5357.29 -455.321
-5144.12 4715.37 -23.1866
-4913.52 5350.32 364.822
1894.05 6918.19 795.673
2114.39 6928 234.264
1390.97 6678.41 1922.07
1634.26 6808.24 1375.55
2777.8 6009.3 994.495
2259.42 6427.12 1220.07
2558.04 5998.91 1566.31
-3.40245 5484.72 3677.71
389.332 5843.5 3351.03
1530.03 5363.51 3253.23
994.64 5616.22 3331.43
1171.27 5013.67 3635.43
766.068 6166.06 2954
1071.24 6432.6 2517.37
3396.56 3969.29 2132.37
3039.93 4337.25 2507.34
3032.13 3749.74 2730.6
2820.65 5431.85 1947.29
2964.19 4917.9 2238.25
3223.1 5077.76 1615.11
2188.01 4434.47 3321.29
2608.27 4696.97 2823.6
2144.12 5012.63 3059.09
1705.12 6177.21 2385.2
1949.84 5620.67 2766.21
2304.79 5839.56 2184.4
-1231.37 5036.19 4099.92
-629.666 5188.46 3927.56
-2359.87 4546.93 4092.67
-1805.37 4806.99 4157.46
-556.046 3996.04 4342.43
-1230.33 4415.21 4300.67
-1200.85 3803.73 4357.91
-4303.72 3064.19 2900.58
-3955.35 3443.53 3303.99
-2994.26 2729.55 3854.78
-3493.04 3070.34 3630.6
-3388.16 2318.53 3483.86
-3503.47 3824.44 3646.68
-3013.4 4171.86 3894.8
-550.106 1472.61 4219.82
-1131.76 1660.74 4250.32
-1152.71 1077.53 4071.04
-1136.91 3043.07 4397.76
-1105.18 2361.66 4330.79
-504.904 2755 4468.94
-2354.3 1556.46 3928.99
-1735.26 1940.76 4109.41
-2320.61 2290.86 3992.58
-2420.74 3822.16 4200.46
-2424.62 3086.88 4176.16
-1816.43 3457.65 4391.59
-4961.53 2826.62 1685.33
-4689.45 2831 2281.68
-5227.11 2806.97 359.103
-5129.67 2814.72 1010.71
-4527.02 1582.46 1731.93
-4889.75 2181.97 1385.4
-4765.44 1588.62 1092.3
-4496.5 2839.37 -2248.18
-4807.93 2813.21 -1666.6
-4696.48 1593.54 -1141.86
-4801.26 2187.48 -1417.55
-4445.56 1614.65 -1750.24
-5049.25 2807.89 -1036.71
-5198.27 2804.45 -410.55
-3528.48 -406.051 354.88
-3933.46 -44.0688 -45.8207
-3527.82 -402.324 -437.778
-4509.51 919.22 703.747
-4280.22 400.543 348.47
-4182.97 455.993 1115.38
-4162.59 483.505 -1164.31
-4281.32 405.533 -436.831
-4518.61 904.042 -782.515
-5109.99 2166.02 -28.8864
-4834.93 1523.78 -418.79
-4871.24 1523.47 352.795
-3833.4 3534.64 -3333.04
-4106.07 3149.07 -2835.99
-3005.11 4247.97 -4030.28
-3452.85 3888.33 -3724.95
-3243.43 2422.97 -3422.53
-3373.58 3166.63 -3651.45
-2908.17 2845.3 -3836.11
-609.614 5347.92 -4364.45
-1212.9 5178.77 -4491.99
-1226.64 3962.55 -4562.46
-1212.3 4551.12 -4591.33
-664.022 4223.6 -4524.5
-1825.77 4936.3 -4498.52
-2376.02 4644.51 -4317.62
-1121.77 1193.99 -3897.17
-1098.77 1786.43 -4121.16
-521.535 1580.98 -4111.74
-2243.11 2425.33 -3923.89
-1675.1 2045.26 -4061.87
-2222.93 1671.95 -3740.6
-531.876 2810.59 -4322.25
-1103.35 2427.38 -4253.59
-1176.39 3179.08 -4330.78
-2408.76 3899.9 -4320.78
-1810.59 3575.47 -4465.09
-2394.15 3190.57 -4199.41
346.97 6042.59 -3625.89
-53.2526 5670.34 -4036.09
[...]
POINT_DATA 642
SCALARS Mean_Curvature double 1
LOOKUP_TABLE default
0.000609484
0.000557579
0.00048955
0.000521206
0.000693038
0.000650745
0.000496593
0.000657572
0.000448172
0.00029728
0.000535584
0.000579971
0.000467324
0.000477626
0.000453164
0.000222194
0.000519102
0.00047786
0.000559937
0.000603188
0.000537036
0.000456673
0.000414988
0.000443839
-7.90146e-05
0.000304918
0.000492619
0.000304481
-9.69723e-05
9.04489e-06
6.58189e-06
0.000522574
0.000476973
0.000332015
0.000469242
0.000533141
0.000208759
0.000466208
0.000487243
0.000432355
0.000476489
0.000501429
0.000461355
0.000466407
0.000401705
0.000462948
0.000448262
0.000439078
0.000482029
0.000481232
0.000534022
0.000491418
0.00033147
6.14712e-05
0.000301667
0.000461995
0.000498606
0.00054774
1.12719e-05
0.000662502
0.000456657
0.000504583
0.000538673
0.000150628
0.000225909
0.000467051
0.000444789
0.000502657
0.000471542
0.000603454
0.000472899
0.000371691
0.000331317
0.000412803
0.000189333
0.000486418
0.000481102
0.000430789
3.95241e-05
0.000355509
0.000445795
0.000452613
0.000436594
0.000439819
0.00064113
-2.61449e-05
0.000491347
0.000472666
0.000285794
7.35921e-05
0.000491358
0.000467116
0.000265946
0.000453445
0.000429355
0.000343196
0.000298273
0.000503689
0.00052533
-0.000140816
0.000820728
0.000596113
0.000309538
-9.92263e-05
0.000443419
0.000456806
0.000153008
0.00069008
0.000477697
0.000398059
0.000389061
0.000434518
0.000474086
0.000448103
0.00040837
0.000286738
0.000521614
0.000475471
0.000324954
0.000404698
0.000476899
0.000502649
0.000465262
0.000423347
0.000513067
0.000461874
0.000303673
0.000473216
0.000498382
0.000331357
0.000466533
0.000494725
0.000365877
0.000437694
0.000545526
0.00036735
0.000469657
0.000340859
0.000443045
0.000675607
0.000386632
0.00032061
0.000478083
0.000261956
0.000559466
0.000548201
0.000409251
0.000365789
0.000445811
0.000474356
0.000481442
0.000460434
0.000617046
0.000459991
0.000452498
0.000199471
0.000403626
0.000349282
-4.56517e-06
0.000435167
0.000467923
0.000410117
9.94563e-05
0.000479846
6.59379e-05
0.000467938
0.000459452
0.000465653
0.000494915
0.000463679
0.000455378
0.000488289
0.000455794
0.000474069
0.000445801
0.00045851
0.000466823
0.000456657
0.0004503
0.000452206
0.000500897
0.000500693
0.00050725
0.000478601
0.000475926
0.000468585
0.000453783
0.000451059
0.000489819
0.000454154
0.000451839
0.000460543
0.000246182
8.367e-05
6.56873e-05
0.000209522
0.000517358
0.000504163
0.000528695
-2.05684e-05
0.000568515
0.000577073
0.000181038
-2.93074e-05
0.000457598
0.000373287
0.000462582
0.000485072
0.000519438
0.000516914
0.000479236
0.000461891
0.000533376
0.000512664
0.000536643
0.000478373
0.000519124
0.000532361
0.000653342
0.000467502
0.000419916
0.000127734
0.00045638
0.000864122
0.000716949
0.000575024
0.000556119
0.000492409
0.000469615
0.000478118
0.000530763
0.000544115
0.000534261
0.000529438
0.000336426
0.000640977
0.00059845
0.000605932
0.000467678
0.000166483
0.000479851
0.000509325
0.000499945
7.59275e-05
0.000584558
0.000422226
0.000453528
0.000458651
0.000565981
0.000607641
0.0004591
0.000460543
0.00056492
0.00046267
0.000376371
0.000389343
0.000535353
0.000449005
0.000462098
0.000439882
0.000463205
0.000433947
0.000657042
0.000565253
0.000376651
0.000593973
0.000586024
0.000478865
0.000466863
0.000472925
0.000307751
0.000347624
0.000357217
0.000303351
0.000499219
-3.32031e-05
0.000197435
0.000338891
0.000239986
0.000389333
0.00058801
0.00051438
0.000474657
0.000513449
0.000473048
0.000443151
0.000498199
0.000291502
0.000484119
0.000265237
0.000496366
0.000422506
0.000287449
0.000518148
0.000200818
-6.84943e-05
0.000426725
0.000337851
0.000449995
0.000176739
0.000363213
0.000437857
0.000416856
0.00039957
0.000419559
0.000392364
0.000408261
0.000446661
0.000418278
0.000435705
0.000449332
0.000448212
0.000427906
0.0004428
0.000423482
0.000441092
0.000443619
0.000446908
0.000531457
6.7371e-05
0.000431592
0.000530014
0.000307393
0.000573299
5.30589e-05
0.000514192
0.000503695
0.000429145
0.000488705
0.00022442
0.000455757
0.000426639
0.000432906
0.000659694
0.000608625
0.000233369
0.00017743
0.0006587
0.000866152
-4.29877e-05
-3.25758e-06
0.000448107
0.000510778
0.000767131
0.000485824
0.000526475
0.000399356
0.000269132
0.000276686
0.000365012
0.000380264
0.000285688
0.000359188
0.000310233
0.000437087
0.000316762
0.000359379
0.000453806
0.000441756
0.000429878
0.000499153
0.000197618
0.000523601
0.000530559
0.000533947
0.000533512
0.000513978
0.0004982
0.000319724
0.000437295
0.00055941
8.60832e-05
0.000389231
0.000476334
0.00021118
0.000601162
0.000443022
0.000498017
0.000689492
0.000653544
0.000619137
0.000610934
0.000876854
0.000395013
0.000308627
0.000434669
0.000529643
-5.2752e-05
0.000433381
0.000179323
0.000223405
0.000376986
-6.74892e-05
0.000457451
0.000742012
0.000586612
0.000158147
0.000392783
0.000469028
0.000454604
0.000662988
0.000423645
0.000455502
0.000580176
0.000485324
0.000523879
0.000480683
0.000502262
0.000470113
0.000470686
0.000450018
0.000412701
0.000452159
0.000536298
0.000173809
0.000149788
0.00040953
0.00029542
0.000106255
0.000469575
0.000512442
0.000466934
0.000464229
0.00046334
0.000462459
0.000467219
0.000471888
0.00048054
0.000415025
0.000428055
0.000383606
0.00028122
0.000524605
0.000566472
0.000424395
0.000427221
0.000315575
0.000493752
0.000526932
0.000481193
0.00047448
0.000370232
0.000354862
0.000460545
0.000434087
0.00041516
0.000403183
0.000420254
0.000368931
0.000461211
0.000418991
0.0003897
0.000511516
0.000502466
0.000463296
0.000415021
0.00023081
0.000356778
0.000195067
0.000485184
0.000526481
0.000372454
0.000492424
0.000268603
0.000454701
0.000362792
0.000436589
0.000340008
0.000359617
0.000154495
0.000644492
0.000209359
0.000490179
0.0005783
0.00045646
0.000341552
0.000468808
0.000423208
0.000387835
0.000495495
0.000372148
0.0004028
0.00044593
0.000425015
0.000496785
0.000522787
0.000546725
0.000480991
0.000338969
0.000374817
0.000358237
0.000352474
0.000380834
0.000464953
0.000338566
0.000447398
0.000371907
0.000497733
0.000478481
0.000406987
0.000519817
0.0004084
0.00042458
0.000343987
0.000481353
0.000457491
0.000408949
0.000358213
0.000482098
0.000487443
0.000473021
0.000397603
0.000372742
0.000485661
0.000453754
0.000467823
0.000494094
0.000480744
0.000232344
0.000339057
0.000343022
0.00047852
0.000571614
0.000463874
0.00034312
0.000382822
0.000489974
0.000390831
0.000387289
0.000376612
0.000468411
0.000461469
0.000463829
0.000482307
0.000468161
0.000276432
0.000504762
0.000609152
0.000571482
0.000340189
0.000623312
0.000448731
0.000621045
0.000309223
0.000445293
0.000484258
0.000529868
0.000605321
0.000634134
0.000416062
0.000586225
0.000458143
0.000291924
0.00043543
0.000424823
0.000515578
0.000416014
0.000409091
0.000416531
0.000434872
0.00042598
0.000448123
0.000337116
0.000456444
0.000447105
0.000386656
0.000429084
0.000453043
0.000463112
0.000479728
0.000465663
0.000485324
0.00048564
0.000485292
0.000508198
0.000330002
0.00068274
0.000481728
0.000453456
0.000510988
0.000401732
0.00050328
0.000141104
4.30831e-05
0.000488797
0.000472473
0.000509057
0.00048972
0.000594328
0.000458717
0.000476062
0.000623164
0.000678451
0.000510279
0.000534287
0.000505304
0.000468524
0.000369284
0.000425426
0.000182711
0.00044764
0.00040999
0.000275416
0.00039029
0.000534419
0.000523833
0.000441907
0.000411184
0.000446126
0.000408711
0.000295882
0.000479683
0.000442472
0.000420715
0.000408001
0.000376294
0.000857549
-0.000282525
0.000390022
0.000627468
-0.000188634
0.000405275
0.000436718
0.000369369
0.000346704
0.000241539
0.000299219
0.000461452
0.000437375
0.000436027
0.000437901
0.000457144
0.00037977
0.000289287
0.000372342
0.000447993
0.000282762
-9.50321e-05
0.000353888
0.00047531
0.00044932
0.000452304
SCALARS CoVolArea double 1
LOOKUP_TABLE default
364603
303202
365621
362858
342073
314985
326620
334732
325639
340592
354099
349858
455548
441698
429653
410694
423985
419199
462398
461821
468562
451293
400203
389796
473168
430213
444147
471391
456456
465406
428730
398772
469214
447491
470585
474691
491917
448906
442645
405633
452467
423855
439365
462954
429634
429824
475327
438428
379011
452584
388369
448196
437212
423956
429690
395121
419586
376661
504403
423968
392407
445575
425644
493758
432841
507267
443073
436530
505962
423570
496632
426899
498749
444853
497942
480028
436042
425583
408524
387057
401994
389077
412114
389815
426243
423133
438111
457755
414526
500316
415112
480071
452410
417980
471990
447461
488367
432873
434663
444561
355866
428979
392175
488320
380453
421859
404616
369064
414852
386904
424734
376928
450198
494549
450263
422042
471209
418767
443349
482889
424505
492655
440685
446979
492968
441506
496091
449910
477536
443138
436562
480855
413236
470705
403555
476827
441182
394599
447776
392282
451627
397668
492242
408257
458505
471556
407989
443899
433912
416592
492757
483309
478069
438256
467191
464344
415170
417037
493377
434286
422297
428460
444828
436792
447457
466870
425886
425882
411437
415673
445598
422776
439899
426664
463979
436142
420545
431020
440340
472659
367964
388953
370642
440005
400258
387894
400656
406365
453568
524752
519571
512513
448695
438388
462652
433673
414410
421110
430316
397946
394223
420020
411167
411994
388936
443467
377093
384721
366308
430124
395091
394808
375418
374095
399948
492850
463081
476767
428529
417879
473581
447372
431592
430832
477477
372855
396191
440089
403708
392153
403366
441623
411129
429675
414818
476025
433890
426621
409702
442730
462010
534278
528080
559475
440847
433338
503291
456681
438738
450758
495510
416959
442802
494007
459126
437626
452218
498031
423622
429429
414290
494149
438777
427281
428822
439422
482997
566958
561709
566063
455356
491140
454838
451063
477988
446153
446700
482705
451886
428863
436503
481895
442133
421724
474112
444344
429485
443633
471173
557290
544005
542296
401574
369028
436800
412396
378951
405210
403127
402988
405927
404941
373403
370716
395009
423508
399461
392507
399445
405941
381708
371613
378391
383885
410806
459034
453640
452126
396386
400217
445104
390478
410868
400842
444847
417122
427877
480801
428614
446553
427139
460057
403756
415257
407071
467172
446052
402094
421439
453321
504319
494252
518937
496111
440183
421284
470055
444925
449110
450657
487235
429850
437804
470921
427447
420591
428748
462978
443283
446419
433304
492517
447548
438973
416259
436614
468645
526577
536487
540761
428402
428952
468373
418549
434194
411362
454961
388925
408859
424587
375961
380669
416494
465297
389763
389425
376384
493501
432015
414815
417790
427537
473213
491539
489590
499625
436411
404164
426166
412920
384608
403883
400896
356403
378325
416538
371619
381912
391635
425639
371306
386539
375786
406409
402306
387586
388747
399588
438702
468542
463971
458550
441359
454979
438399
486736
454109
443587
443969
455895
489607
411105
420548
404258
466488
425079
418376
431239
427361
477258
425422
441341
420579
483239
444276
439728
416244
435123
471456
541860
534896
546164
446328
431169
488001
450604
451100
452216
505646
424408
442237
492750
450456
448647
447720
489305
437664
451396
447322
505102
449142
449353
441152
447938
488645
549734
551586
555306
445877
433968
485896
445724
427840
441087
465952
428940
442489
469484
444391
431850
448415
488188
401630
416968
397507
462394
424198
407822
408191
420995
459718
534702
528435
531245
444688
436432
468039
442834
430080
439311
466984
389161
410071
429580
400083
380756
408614
451574
397015
403470
391869
456243
403997
405804
386065
402598
433059
520605
507144
521503
453087
480964
449373
453310
488633
398731
402671
438576
403649
400765
404548
468064
413561
405467
483036
431373
397192
411493
440315
538607
520437
543231
427698
449144
419574
410991
428954
412924
421462
396286
413321
446572
414673
427610
401680
383935
415069
489118
475395
480005
456596
489360
453515
450089
479751
444907
460984
429364
452852
488679
455106
480314
466305
463609
475430
547878
528010
536040
398286
458671
403141
388747
437640
437729
455681
430965
437682
470774
433602
467120
438999
422973
460768
513212
512534
499996
383762
416005
383736
383988
434749
384777
453992
384424
387607
418508
367640
465805
402067
388082
486953
462206
505739
503760
412297
447675
413516
395779
410686
395773
418811
380432
403899
444102
396008
409241
409046
410727
436155
481440
463343
461489
SCALARS SignedDistance double 1
LOOKUP_TABLE default
2476.99
3024.68
2001.26
2000.56
2374.05
3273.7
2800.5
2733.26
2971.13
2684.19
2774.19
2114.72
2145.37
2446.4
2769.68
3305.55
2484.36
2627.05
2029.18
2271.11
2047.26
2334.15
3014.14
3069.05
2608.06
2881.83
2490.46
2265.94
3334.37
3028.29
3213.71
3434.78
2005.47
2518.08
2048.52
1952.99
2323.73
2302.82
2344.02
2957.85
2314.68
2743.44
2359.05
2392.15
2682.99
2199.37
2215.53
2094.7
3000.64
2585.7
2866.76
2727.61
2497.19
3321.23
3140.25
2720.78
2894.8
3170.71
2418.96
2193.66
2704.69
2432.58
2296.18
2453.34
2711.03
1809.71
2157.49
2282.32
1874.92
2368.97
1970.4
2449.17
2258.32
2550.82
2410.01
2167.91
2204.17
3204.77
3254.46
3162.28
3179.07
2877.89
3018.51
2847.8
2847.14
3150.91
2357.18
2440.11
2624.65
2816.5
2572.85
2228.86
2277.9
2598.05
2404.82
2069.08
2290.57
2110.63
2812.08
2928.44
3098.57
2801.81
2929.07
3166.22
3082.52
2959.19
3142.53
3124.72
2942.51
3202.2
3316.16
3110.26
1905.17
2031.34
2018.79
2607.38
2314.69
2354.14
2184.6
2272.18
2446.13
2187.12
2222.58
2091.92
2021.25
2201.88
2186.07
1957.7
2233.35
2199.14
2158.96
2202.32
2611.61
2362.86
2576.9
2380.4
2072.77
2889.6
2641.65
2733.43
2709.73
2972.19
2010.19
2829.37
2444.11
2250.33
2681.02
2678.48
2775.1
2976.15
1947.5
2132.97
2403.94
2684.05
2377.38
2751.38
3196.78
3099.48
3432.64
2903.99
2984.02
3151.47
2474.1
2505.14
2622.96
2245.59
2356.2
2228.85
2711.23
2523.1
2570.9
2130.51
2117.15
2082.44
2303.69
2191.94
2298.25
2107.03
2132.56
2164.18
3132.86
2936.22
3076.85
2675.33
2791.19
2875.19
2640.76
2705.77
2506.37
2283.95
2369.37
2463.1
2623.53
2566.28
2847.16
2734.41
2447.16
2590.48
2570.29
3315.29
3237.93
3238.06
3296
3313.67
3115.23
3002.38
2869.19
2947.84
3098.3
2673.37
2796.61
2587.79
3251.3
3035.18
3123.73
2923.37
3014.56
2775.35
2521.28
2347.39
2381.18
2431.36
2034.51
2394.78
2279.05
2855.85
2703.63
2505.97
2555.68
2643.71
2556.62
2447.97
2496.86
2626
2802.49
2328.94
2456.27
2137.77
2648.95
2560.41
2507.14
2334.29
2391.52
2408.54
2141.59
2296.79
1842.36
1926.7
2070.43
1964.76
1876.56
2492.29
2246.45
2003.54
2035.09
2192.3
2027.38
1877.38
2563.46
2390.68
2599.48
1943.05
2158.88
2150.18
2336.2
2237.55
2099.43
1779.45
1859.6
1809.95
2359.35
2211.98
2258.35
2284.56
2177.65
2695.72
2601.27
2350.92
2482.23
2421.27
2446.3
2292.57
2110.75
2117.73
2107.41
2109.83
2230.19
2178.67
2228.18
2291.11
2245.08
2161.08
3267.45
3215.21
3273.85
3273.82
3157.22
3223.93
3139.53
3247.41
3238.38
3103.1
3170.31
3092.96
3241.81
3254.63
2776.19
2854.72
2763.54
3036.48
2949.57
2975.35
2931.71
2936.97
3011.77
3186.97
3101.66
3114.12
3079.38
3253.49
2625.97
2857.86
3018.8
3072.49
3019.54
2215.01
2236.61
2553.58
2391.24
2506.81
2304.27
2417.71
2590.09
2693.04
2443.34
2847.17
2709.38
2786.83
2663.93
2727.56
2706.6
2564.1
2650.57
2861.14
2228.65
2208.39
2287
2255.63
2260.93
2249.31
2245.05
2712.83
2595.13
2423.3
2492.69
2523.58
2498.14
2396.86
1996.13
2064.48
2009.19
2251.6
2161.07
2175.37
2280.24
2175.5
2362.48
2290.37
2335.7
2254.69
2734.64
2850.78
2516.19
2613.73
3011.9
2910.18
3080.54
2866.46
2691.47
3110.41
2931.98
3229.33
2560.52
2479.61
2855.47
2974.29
2938.66
3118.51
3039.51
3000.13
3160.15
3099.98
3243.12
2755.18
3050.31
3032.85
2912.36
3010.61
2780.36
2824.59
3274.52
3030.21
3167.91
3074.54
2899.05
3118.41
3002.66
3188.75
2811.69
2774.77
3090.92
3156.67
3043.61
3377.92
3289.15
3333.71
3171.88
3230.68
3260.05
2932.36
3108.04
3127.2
1941.94
1945.23
1984.28
1989.97
1942.53
1921.69
2024.19
2005.54
2061.13
2646.35
2527.66
2574.87
2472.75
2500.99
2560.75
2165.96
2332.31
2136.05
2264.39
2301.24
2410.18
2136.96
2219.81
2113.95
2480.74
2351.71
2407.26
2132.21
2304.45
2163.76
2092.04
2080.4
2053.97
2082.91
2296.63
2233.69
2286.2
2188.83
2102.98
2008.2
2007.61
2050.01
2091.64
2071.89
2072.08
2037.49
1996.45
2290.08
2172.05
2303.35
1910.38
2078
2036.35
2101.64
2062.77
2230.31
2166.64
2105.61
2292.22
2222.68
2252.47
2184.6
2244.32
2039.98
2137.12
2207.96
2169.7
2229.24
2222.89
2292.98
2706.13
2591.83
2716.77
2394.77
2490.13
2476.28
2415.62
2462.74
2328.97
2244.17
2262.64
2297.63
2148.13
2017.47
2356.91
2276.71
2171.8
2231
2345.24
2841.58
2758.12
2798.01
2783.9
2937.8
2630.65
2490.93
2865.46
2881.31
2972.58
2532.42
2722.67
2494.88
2966.47
2867.97
2843.32
2503.91
2662.15
2532.51
1954.54
2129.37
2015.59
1924.14
1959.99
2893.23
2794.34
2590.67
2683.36
2779.02
2579.27
2332.32
2520.52
2677.59
2101.05
2273.38
2705.01
2491.35
2507.92
2177.41
2305.61
2055.77
2545.79
2595.6
2568.29
2639.04
2787.33
2726.74
2904.08
2818
2687.44
2642.46
3178.2
2935.06
3063.62
3087.18
3009.45
2715.81
2873.1
2819.34
1993.9
1892.15
1905.08
1996.66
2090.23
2283.9
2407.68
2352.45
2157.34
1987.49
2310.02
2307.41
2311.07
2404.09
2525.5
1989.08
2212.32
2108.8
2773.77
2464.09
2599.36
2844.14
2955.75
2092.78
2407.16
2224.7
2237.32
2342.86
2754.6
2907.95
2825.05
2661.98
2618.84
2537.05
2611.85
2798.12
3093.82
3076.19
3092.02
3207.43
3319.56
2969.28
3180.68
3088.41
3002.19
3045.85
3202.56
3432.16
3374.06
3348.77
3383.21
3158.99
3234.81
3296.45
2766.32
2796.86
2780.12
2885.37
2990.81
2970.7
3108.35
3046.24
2898.3
2840.74
3250.94
3119.54
3216.43
3225.27
3184.61
2935.59
3067.23
3038.37
