# vtk DataFile Version 4.2
vtk output
ASCII
DATASET POLYDATA
POINTS 642 double
-2240.75 5480.23 -725.46
-142.227 5462.16 -709.876
-2247.77 812.333 -29.1736
1253.51 825.761 101.352
-695.468 1416.26 1875.65
-1655.63 4306.1 1240.24
-488.414 1865.55 -1496.27
-1554.42 5199.04 -2164.46
1230.34 2997.84 -721.997
1443.28 2907.29 1013.98
-2584.36 4198.42 -1198.5
-3115.81 3582.61 1476.07
-3009.92 4753.47 873.262
-2328.9 4131.03 1776.04
-1880.16 4972.43 1019.56
-322.668 5102.27 224.734
-740.298 5930.08 -368.953
-208.305 5610.87 -1065.09
-2031.27 5769.87 -1770.52
-1992.23 4983.51 -2265
-2769.07 5233.13 -1368.69
-3193.6 3512.9 292.97
610.451 3539.41 1376.16
1021.62 3846.21 648.053
-1845.63 2216.96 1549.97
-449.475 2913.48 1910.87
-2437.85 1713.8 -439.565
-2574.9 1779.95 839.024
-958.152 4101 -1343.3
-1564.1 2754.83 -1198.14
829.069 4294.04 -462.098
102.985 4604.31 -988.93
1959.85 1628.65 765.574
680.511 2298.19 1788.3
454.246 882.391 1394
-1715.31 842.883 1472.43
-532.014 793.411 -59.3457
-1359.75 996.41 -1165.55
352.895 1023.32 -1060.29
541.396 2246.91 -1252.83
1802.21 1728.68 -382.826
1684.99 2471.04 151.222
-2690.02 4988.96 457.009
-2472.06 4960.94 1041.21
-1827.75 5064.14 605.14
-2747.47 3911.5 1737.3
-2720.74 4496.75 1512.71
-3113.11 4177.68 1253.31
-1846.11 4765.69 1212.25
-2183.53 4636.51 1444.96
-2117.41 4262.17 1622.23
-908.707 5730.02 -80.5765
-1060.06 5860.03 -430.401
-481.575 4311.54 815.485
-1155.18 5365.94 329.702
-426.436 5786.12 -544.136
-662.512 5736.77 -181.119
-450.873 5491.69 -282.59
-1313.16 5733.72 -1022.05
-2140.01 5743.2 -1564.82
-79.2985 5592.1 -883.672
-423.165 5886.15 -829.651
-1817.74 5484.1 -2018.58
-1003.61 5653.86 -1414.13
-657.638 5359.49 -1453.88
-2500.21 5737.49 -1649.79
-2598.97 5501.47 -1115.2
-1905.48 5089.88 -2378.87
-2086.97 5483.08 -2160.19
-2692.31 5023.96 -1406.4
-2595.86 5265.03 -1826.15
-2340.32 4625.09 -1871.9
-2873.23 4868.71 -37.8099
-2964.03 3543.28 -309.567
-2843.39 4396.58 -402.119
-3175.76 4272.51 569.42
-3178.07 3576.89 895.502
567.056 4171.7 712.416
363.543 4494.58 124.479
125.685 3776.39 1356.68
381.95 4048.38 1085.59
1281.97 3472.72 845.265
907.357 3774.01 1040.48
1040.38 3303.17 1287.85
-2108.19 3717.1 1960.59
-914.239 3445.15 1755.92
-2716.26 3343.22 1634.21
-2236.64 3612.63 1911.54
-340.148 2355.8 2019.43
-1390.46 3085.62 1910.74
-1202.03 1387.32 1734.4
-3166.9 2683.87 443.296
-2919.29 2891.55 1072.39
-2682.5 2640.35 -702.051
-2995.79 2652.45 -136.829
-2462.19 1082.58 489.944
-2639.95 1684.43 62.7145
-2476.08 1084.34 -334.681
-1935.06 4363.69 -1973.28
-1851.94 3494.43 -1377.28
-1559.19 5218.51 -2207.03
-1912.29 4781.42 -2268.96
-946.321 1968.73 -1458.24
-1730.08 3229.14 -1711.46
-508.097 2382.14 -1495.9
-130.859 5286.54 -1256.94
-621.488 5283.17 -1610.32
266.524 5194.56 -792.055
175.105 5316.69 -835.231
835.517 3249.83 -892.042
-19.5693 4392.6 -853.932
1166.86 3408.76 -519.639
1766.94 1163.35 493.561
1422.52 1206.69 1042.88
970.088 817.39 747.841
1167.02 2592.69 1400.97
1504.28 1780.1 1138.97
1909.42 2095.83 826.434
-194.058 1193.18 1769.48
620.842 1471.13 1641.93
152.477 1907.46 1925.9
156.272 794.738 988.343
621.257 795.486 32.2806
-962.411 1125.14 1903.78
-635.372 814.797 1648.97
-1681.16 788.397 118.236
-1305.19 796.436 959.721
-1992.59 791.95 956.102
85.0288 794.265 -768.617
772.227 924.527 -555.088
-1937.2 888.122 -528.403
-1140.19 791.217 -834.546
-104.157 1394.47 -1284.47
-633.441 972.051 -1173.54
-1075.57 1236.49 -1230
1100.63 1377.17 -693.857
1671.19 1228.24 -226.642
-1.16355 2073.14 -1476.2
543.535 1616.44 -1227.07
1646.94 1996.48 -395.112
1115 1950.04 -886.298
921.423 2647.05 -1047.15
2010.18 1620.16 139.102
1574.73 2812.39 -288.912
1981.72 2031.85 -65.5709
2079.77 2034.74 405.766
1662.33 2556.88 594.672
113.369 2605.18 1937.77
655.628 2915.75 1692.49
120.48 3099.11 1798.32
-2270.87 1047.79 1314.34
-1871.05 1232.74 1668.47
-2198.36 1720.18 1275.25
-1388.62 1248.73 -1184.33
-2077.7 1143.13 -618.1
-2209.09 2159.47 -834.575
485.503 2888.52 -1179.05
-70.0565 2714.28 -1502.47
-740.206 3781.03 -1552.56
1413.65 3431.09 397.295
1379.39 3417.48 -141.321
1010.58 3865.64 23.7005
-2455 5102.4 -126.039
-2413.24 5022.22 583.616
-1939.66 5260.55 28.8021
-2751.96 4881.95 969.854
-2603.05 4988.08 810.08
-2870.32 4890.77 704.298
-1922.1 5032.99 868.288
-2303.57 5012.31 890.161
-2167.74 4981.99 1052.34
-2971.62 3729.11 1619.47
-2980.9 4012.89 1550.63
-3148.1 3828.38 1415.47
-2525.38 4304.08 1685.06
-2743.82 4210.57 1672.48
-2520.27 4052.75 1788.83
-3080.26 4520.4 1051.5
-2937.52 4370.03 1396.24
-2895.33 4650.45 1213.42
-1841.58 4628.23 1291.55
-1990.41 4558.71 1413.19
-1985.75 4388.84 1470
-2037.45 4849.39 1244.56
-2004.65 4723.28 1337.03
-1871.41 4888.01 1116.25
-2215.52 4190.78 1714.28
-2153.14 4462.75 1547.76
-2280.65 4402.44 1640.9
-2615.85 4776.13 1280.1
-2435.35 4587.38 1510.95
-2318.26 4820.85 1284.31
-1299.67 5594.22 -84.2498
-1622.09 5559.02 -689.168
-1337.67 5212.95 475.323
-1329.99 5450.48 133.255
-832.838 5938.5 -328.609
-911.016 5848.21 -193.577
-832.355 5885.78 -242.486
-1177.88 4086.56 943.235
-1630.64 4733.45 1032.59
-790.368 5337.53 36.9544
-1239.89 4810.1 472.624
-218.073 4542.52 452.421
-1721.6 5010.05 967.216
-1562.06 5109.57 794.52
-290.317 5657.52 -643.413
-432.921 5665.31 -390.25
-287.442 5488.74 -482.129
-704.856 5855.45 -264.999
-565.434 5779.69 -300.416
-607.3 5897.48 -461.632
-508.652 5362.69 37.405
-551.422 5637.24 -226.353
-621.637 5568.02 -131.696
-969.424 5528.7 113.838
-841.624 5630.35 -39.8508
-802.664 5770.59 -124.012
-1722.85 5712.11 -1192.81
-2195.84 5616.67 -1246.25
-755.705 5939.21 -542.849
-1226.63 5797.88 -713.221
-2113.14 5769.87 -1665.87
-1919.18 5680.46 -1389.06
-1921.77 5695.74 -1574.08
-63.181 5592.67 -882.357
-247.658 5714.18 -793.64
-305.52 5795.28 -944.513
-267.813 5764.9 -858.519
-127.62 5627.35 -924.802
-421.542 5862.37 -728.92
-548.397 5917.52 -649.888
-1662.38 5190.14 -2172.06
-1401.42 5406.33 -1781.29
-1249.5 5248.18 -1953.8
-1719.41 5649.32 -1694.26
-1555.47 5588.1 -1711.99
-1936.02 5681.79 -1894.49
-330.677 5528.36 -1208.73
-863.296 5589.24 -1421.15
-463.675 5732.54 -1161.91
-605.179 5937.33 -837.538
-521.828 5888.69 -1023.59
-1120.97 5725.43 -1266.05
-2384.9 5669.89 -1381.76
-2419.97 5511.14 -934.558
-2209.51 5830.62 -1742.55
-2305.7 5783.24 -1604.69
-2723.49 5383.59 -1264.62
-2572.05 5645.53 -1457.35
-2714.5 5497.49 -1521.02
-1777.5 5143.01 -2294.85
-1884.68 5192.48 -2270.49
-2042.42 5221.47 -2267.79
-1928.31 5200.93 -2322.15
-1907.37 5088.31 -2388.33
-1967.15 5502.34 -2121.15
-2059.55 5722.16 -1985.99
-2532.37 4556.87 -1409.67
-2540.7 4826.95 -1641.87
-2414.31 4536.26 -1672.16
-2750.82 5271.33 -1605.01
-2707.37 5201.67 -1620.59
-2756.98 5173.23 -1405.17
-2215.61 4807.77 -2060.2
-2486.62 5051.85 -1853.83
-2330.93 5162.53 -2035.78
-2349.47 5697.11 -1972.29
-2398.86 5389.66 -2059.19
-2640.86 5479.38 -1813.68
-2599.38 5176.19 -445.61
-2769.93 5106.36 -846.539
-2728.69 5138.73 -664.29
-2828.08 4928.09 191.997
-3039.11 4789.37 526.351
-2553.61 3678.94 -801.812
-2662.64 4412.41 -825.65
-3162.44 3908.14 81.1345
-2954.27 3985.65 -342.673
-3118.05 3490.19 -54.8542
-2745.72 4852.04 -984.485
-2766.96 4986.57 -1031.98
-3172.2 3866.03 1166.5
-3170.67 3578.8 1281.05
-3163.81 4564.63 757.794
-3174.31 4269.69 937.715
-3261.1 3561.56 505.219
-3250.17 3897.32 701.612
-3257.66 3897.7 423.193
-2892.93 4717.63 -194.695
-3159.75 4287.52 247.858
-3161.88 4602.78 375.895
57.2149 4990.53 -369.743
-40.8887 5156.16 -546.331
118.763 4466.76 729.557
-374.986 4655.47 434.491
837.268 4025.72 531.615
586.532 4224.73 442.597
802.81 4036.19 683.64
-296.251 3877.72 1297.48
-6.59156 4020.03 1172.38
508.671 3845.77 1216.49
290.493 3948.24 1205.9
384.279 3645.61 1361.41
156.051 4131.41 1037.64
234.975 4273.99 832.899
1364.34 3263.21 945.235
1199.13 3409.86 1080.49
1223.25 3187.93 1199.03
986.647 3813.9 842.525
1100.48 3630.97 954.424
1177.18 3664.33 746.134
826.462 3428.2 1351.61
987.173 3561.42 1159.54
790.833 3695.56 1212.36
480.008 4121.88 904.874
647.541 3929.36 1073.91
746.488 3985.28 886.6
-1923.94 3851.38 1747.51
-1214.11 3996.34 1121.08
-2174.97 3859.12 1821.59
-2079.87 3913.33 1756.88
-541.977 3285.85 1766.33
-1763.18 3794.41 1763.22
-1377.5 3539.94 1433.43
-2952.54 3479.85 1587.73
-2776.07 3611.82 1700.58
-2170.16 3391.49 1819.53
-2481.08 3520.99 1811.29
-2263.13 3027.06 1543.33
-2509.35 3749.49 1844.37
-2300.08 3803.34 1878.52
-515.431 1816.32 1917.01
-707.994 1805.36 1875.16
-830.626 1370.49 1886.1
-998.031 2793.74 1932.66
-660.625 2539.25 1934.02
-355.585 2589.81 1947.8
-1669.21 1536.36 1524.02
-1149.75 2110.09 1739.65
-1703.35 2763.88 1690.67
-2096.62 3621.51 1906.11
-1973.22 3515.12 1907.19
-1921.88 3479.1 1908.74
-3110.39 3296.74 1105.55
-3092.03 3377.96 1359.22
-3173.43 3073.56 351.547
-3106.86 3167.14 628.801
-2844.57 2289.23 935.974
-3087.94 2735.83 751.425
-2989.06 2373.53 606.252
-2593.52 3057.19 -756.208
-2789.87 2984.75 -545.357
-2826.71 2288.59 -386.961
-2834.14 2608.91 -466.855
-2692.35 2323.77 -599.402
-2970.37 3036.79 -206.237
-3106.04 3036.21 72.6086
-2394.89 906.915 230.213
-2499.96 1079.56 -36.7495
-2403.52 912.03 -228.606
-2695.9 1762.07 421.134
-2544.17 1281.68 202.421
-2355.32 1303 717.916
-2431.27 1194.94 -356.428
-2521.32 1215.26 -185.341
-2490.93 1610.98 -217.291
-3148.74 2665.13 192.41
-2928.21 2296.43 -37.852
-3026.1 2350.69 291.163
-2180.83 4408.08 -1814.68
-2277.43 3994.02 -906.067
-1978.41 4625.81 -2111.52
-2120.89 4491.7 -1924.39
-1801.44 3275.04 -1254.68
-2019.36 4233.92 -1735.6
-1861.7 3990.3 -1594.78
-1560.24 5205.51 -2164.59
-1806.82 5131.86 -2315.1
-2004.17 4639.14 -2076.81
-1973.24 5072 -2193.97
-1634.49 4826.36 -1858.19
-1916.19 5077.29 -2395.01
-1917.25 4911.34 -2327.73
-728.206 1923.79 -1486.11
-736.689 2231.39 -1499.6
-482.19 2071.57 -1495.88
-1411.66 3005.43 -1722.07
-975.129 2544.79 -1483.48
-1134.13 2138.37 -1354.85
-559.183 2885.18 -1487.32
-894.687 2717.97 -1510.06
-1932.47 3501.23 -1569.06
-1895.41 4510.24 -2158.84
-1880.83 4375.18 -2100.98
-1856.19 4123.37 -2017.6
-602.165 5288.71 -1599.72
[...]
POINT_DATA 642
SCALARS Mean_Curvature double 1
LOOKUP_TABLE default
0.000633886
-0.00157168
0.00250177
0.00286673
-0.000407896
0.00242753
0.0013895
-0.0516978
0.0017525
0.00103851
0.00771828
0.00460025
0.0024308
0.00261985
0.000737406
-0.0106886
0.00540392
0.00224262
0.00388902
-0.000454851
0.00291181
-0.000221964
0.000610615
0.00130396
0.000888035
0.000202315
0.000115324
0.000419879
-0.00274679
-0.0015585
-0.0104575
0.0034392
0.0025201
0.000989099
0.00285298
0.00338491
1.14398e-05
0.00412924
0.00274034
-0.000106057
0.00360494
-0.00166023
0.00180394
0.00217971
-0.00215534
0.00164963
0.00228525
0.00163486
0.00236433
0.00145523
0.000481055
0.00179745
0.00267012
0.000517952
-0.00115263
0.00216563
0.00296639
-0.00122095
-0.00054402
0.00225558
-0.0338912
0.00438822
0.00020591
0.00273035
-0.00258875
0.00423772
0.00253003
0.0163184
0.00338222
-3.96892e-05
0.00168472
0.00245394
0.00179488
0.000446227
-0.00131206
-0.000357638
-0.000134635
-0.000318579
-0.00541955
0.00111071
0.00199784
0.000948505
0.0018699
0.000857911
0.00411046
-7.15991e-06
0.00156709
0.00427153
0.00151569
-0.00352576
-0.00106117
0.00210856
-0.00064292
0.00188695
0.000687019
0.00305665
0.000574892
0.00616398
-0.00281109
-0.00237759
0.00268671
-0.0179454
0.00280955
-0.0059069
-7.77655e-05
-0.010845
-0.0114282
0.00430336
-0.0139609
0.000413992
-0.00431759
0.00094087
0.00184875
0.00213286
0.00173769
0.000508652
6.71394e-05
0.00409628
0.000245657
0.000959727
0.000346012
6.75503e-05
0.000106598
0.00433451
0.00324749
-0.000389405
-4.02214e-05
0.0012843
0.00185746
0.000943292
0.00122496
0.00105869
0.000332016
0.00359124
-7.41402e-05
-1.66758e-05
0.00237971
0.00156683
0.00185571
-0.000148528
0.000808484
0.00105274
0.000879322
0.0032444
0.00506579
0.00574877
-0.00148839
0.000207692
0.000579198
0.00142959
0.0034262
0.00793142
-0.0006145
0.00187581
0.00167732
0.000537264
-0.000161124
0.00308785
-0.000525667
0.00108565
0.00140522
-0.000222143
-0.00107067
-7.10197e-05
-3.11667e-05
0.00147684
0.00180062
0.00145065
0.00345948
0.000849991
0.00203269
0.00239386
0.00153501
0.00330656
0.00146225
0.0024118
0.00174824
0.0017101
0.001214
0.00197913
0.00139525
0.0014549
6.2375e-05
0.00281362
0.00294991
-0.00157692
0.00185261
0.00153262
0.00293934
0.00185625
0.00155788
0.00134184
0.000755155
-0.000957777
-0.00576136
0.00127659
0.00454652
0.00380685
0.00378369
-0.00333181
0.000702316
-0.00160077
-0.00188657
-0.00202286
0.00599679
-0.0265733
0.000655516
0.0017243
0.000545483
0.00317559
0.00355521
0.00252467
-0.00985844
0.00288837
-0.000111266
0.0165559
-0.00279556
0.00786203
0.00566467
-0.000787322
0.00122794
-0.0019813
0.00107472
-0.0093045
0.000520887
0.0149981
0.00134622
0.00400155
0.00483195
0.00440756
0.00222873
0.00395223
-0.00268131
-0.00144637
0.0124838
0.0013162
0.001601
0.00168952
0.000436117
0.0012786
0.00216967
0.00181742
0.00370674
0.00102892
0.00121332
0.00129161
0.00583166
0.00343212
0.00206071
0.00323545
0.00370033
-0.00942498
-0.00421201
0.0026235
0.0124794
0.00688261
0.00321157
0.00529556
-0.00176504
0.0007338
0.000835755
0.0055985
0.00100833
0.003117
0.00143132
0.000667846
2.96038e-05
0.00387073
0.00321202
0.00389158
0.00146655
0.00262494
0.00195794
0.00137886
0.00214043
-0.00278051
-0.00120492
0.000750783
0.00189358
0.00126113
0.00143774
0.00189269
0.000350686
0.00198955
0.0026002
0.000859989
0.00237218
0.00107622
0.00158167
0.000564718
0.000598731
0.00269539
0.00225133
-0.0030128
0.00252957
-0.0032196
0.00122471
0.00147599
0.00185853
0.00240738
0.000427829
0.00124372
0.00133087
-0.000227234
0.000551951
-0.00321474
0.00108646
0.00187361
0.00140522
0.00113632
0.00115904
0.00179042
0.0007662
0.00112565
0.00179644
0.00169123
0.00170071
0.00113631
-0.00300306
-0.00270926
-0.00153167
-0.000293343
0.00463974
0.00807146
-0.00367472
0.00274556
0.000862198
0.0013247
0.00128046
-0.0018334
0.00208706
0.00314952
0.00055704
-1.75354e-05
0.00136002
0.00507702
-0.000809249
-0.000354092
-0.00188274
-0.000248141
-0.000615961
-0.00882842
-0.00209435
0.00731693
0.00106599
0.0029593
0.00158799
-0.00128426
0.00117863
0.00168422
0.000574224
0.00201667
0.000650384
0.0016798
0.000827968
0.00156718
-0.000111231
0.0004751
0.00269178
0.00176308
0.00364602
0.000630734
0.000442955
-0.00245982
0.00108432
0.00218994
-0.00100552
0.00216316
0.000499847
0.00116715
0.00172686
-0.00294289
-0.00120897
0.000147973
-0.00196496
-0.00102176
-0.00341191
-0.00132037
-0.016971
-0.00298345
-0.00575473
0.00103119
-0.0172381
-0.0122761
0.000871843
0.00074628
4.81464e-06
-0.00276311
-0.00128659
0.000882324
0.000169387
-7.46041e-05
-0.00252008
-0.0176456
-0.0120015
-0.00261323
-0.0164609
0.0721737
0.000234708
-0.00336438
-0.00201425
-0.182579
0.0129141
0.00472725
0.0555276
-0.00357618
0.196523
-0.133358
0.0352721
0.00229735
0.00123469
0.000895515
0.00146779
0.0103987
0.000405741
-0.00473342
-0.00153009
0.000338639
-0.00350901
0.00245888
-0.00213793
-0.00655307
0.000465281
0.00154651
0.00191453
0.00226109
0.00144701
0.00289468
0.00297264
0.000233367
0.00161974
0.000929899
-3.06374e-05
-0.000927025
-1.81317e-05
7.4741e-05
0.00108623
0.00190355
0.00129521
0.00139476
-0.000823931
0.00219061
0.000115988
0.000802244
0.000674385
0.00188696
0.00167311
0.000997415
0.000272186
0.0019047
0.0006302
-0.000306113
0.000143558
0.000855371
0.00161687
0.000267364
-9.47243e-06
9.55169e-05
5.75294e-05
0.00373945
0.00381556
0.00380452
0.00301293
-0.000700715
0.00147247
0.00189448
0.000104105
0.0031405
0.000720276
-2.78669e-06
0.000139724
-5.79247e-05
0.00165991
-0.000577006
0.000351169
0.00117323
0.000546105
-0.000473805
0.00135066
0.00166226
-4.22227e-05
0.000143718
0.0030108
0.00292102
0.00286591
0.0030685
0.00117645
0.00344706
0.00224737
0.00277901
3.96455e-05
-5.68404e-05
0.00174329
0.000520843
0.00154423
0.00115929
-0.000407188
0.000566746
0.00312544
0.000231319
0.00302142
0.00180369
0.00217282
0.00134408
0.000942026
0.00155431
0.000833878
0.000585744
0.00190577
0.00116325
0.00166717
0.00111514
0.000891597
0.000447446
-0.000585828
0.000573721
-3.62982e-05
0.0011512
0.000850928
0.000283508
0.000769799
-0.000631278
-0.000590937
0.0029069
0.00171604
0.000415498
0.00107716
0.00193564
0.00166982
0.000582487
0.00133181
0.00291707
0.00223746
0.00207176
0.00134451
0.000948163
-0.000919286
0.00157872
0.00264882
-8.10194e-05
0.000584748
0.00447772
0.00320561
0.00260259
0.00261863
0.0038003
-7.00114e-05
0.00125114
0.0004068
0.00165112
0.00520459
0.00440688
0.00173534
0.00134859
-0.000250573
0.00251146
0.000235537
0.00129123
0.000967718
0.000806358
0.000893329
0.00088333
-0.000932264
0.00194715
-0.00136958
-0.000107362
0.000624638
0.00268779
0.000326863
0.00236703
0.00160413
0.00444996
0.0033491
0.00316825
0.00184205
0.00202759
0.00257612
-0.00895337
0.00937057
0.00294499
0.000296934
0.00058769
0.00174511
0.000969558
-0.000444033
0.00518187
0.0016951
0.00186993
-0.00107954
0.00429107
0.00656057
-0.000505166
-0.00134617
0.00474988
0.00131524
0.00440233
0.00298893
0.00299062
0.000648152
0.000372644
0.000145013
0.0019837
0.00152017
0.00196784
-0.00227001
-0.000989767
0.00102833
0.000264086
0.000621899
0.00220063
0.000757372
0.000258158
-0.00041002
0.000162432
0.00147088
0.000335218
-0.00634973
-0.00184064
-0.00185983
-0.00268853
0.0135811
0.00173982
0.000493641
0.000106486
0.00155052
0.00171476
0.000693018
0.00143427
0.000563872
0.000867087
9.63051e-07
0.000966098
0.00122271
0.00123075
-0.00196148
0.000148403
-0.000703454
-0.00492244
0.00375346
0.00149447
0.00182041
0.000225798
SCALARS CoVolArea double 1
LOOKUP_TABLE default
252874
68327.5
78856.1
80710.5
58975.2
189658
57034
7201.14
69930.8
101353
181853
42910.8
81176.3
52785.1
60493
130868
21402.2
50006.8
38591.2
71094.9
56839.5
126768
85733.7
57427
268964
232111
128378
220464
718576
436678
85075
261602
85023.2
139135
106712
104534
392859
60535.5
66115.8
101958
51832.3
158425
136146
73565.8
219899
79045.2
91914.7
100613
41705.4
54234.7
51737.5
65025.5
159697
440710
143277
42288.9
26035.3
197179
187246
60727.2
8073.55
28067
96111.6
104483
149150
71273.2
112367
4837.91
67996
132231
58358.1
80500.5
122113
264912
226288
117905
138915
129969
155371
123415
55871.7
57296.8
57212
68556.8
85698.5
302894
149212
46674.9
113104
235908
199282
114355
183897
86575.5
132476
117164
194906
36037.2
67051.1
356029
88953.6
37325.1
113807
193736
123294
12348
112435
54264.6
21692.4
97739.7
347357
73965.9
106159
137772
126949
156576
119660
55663.1
148203
165886
114585
210629
185276
79579.9
103756
172224
246082
108142
105512
127551
95812.9
116154
140843
100544
65329.5
160709
90344.6
96273.8
72006.4
108306
112987
107247
96810.6
104053
28061
17249.6
119102
84566.1
78869.8
71916.6
67769
29836.9
183955
65833.4
81006.4
224638
118401
65211.6
519034
76319.2
56426.1
170987
248150
213789
426045
82922.5
75713.5
83639.6
116267
89812.2
66001.1
64675.5
93270.3
72348.2
70114
83391.5
66846
90625.8
100496
97055.8
106330
34205.8
155138
51569.7
34760.5
28245.5
38308.9
36580.8
52344.4
97923.7
83416.1
81906.4
265623
370611
126451
139125
42127.7
62389
15267.2
359548
304220
284760
469841
384238
125374
39212.7
46920
41252.1
82320
23321.4
32016.5
32115.7
116561
34140.3
61124
40633.1
50961.7
23141.8
145129
172852
100664
88982
26127.7
61325.4
108937
30152.4
26572.3
38865.6
18549.8
22507.2
28847.2
30425
73975.4
166546
86335.8
91100.8
93561.5
53321.2
90542.3
126100
80701.8
120894
89253
177820
73361.2
131472
48480.6
37154.5
82711.7
60479.1
64040.3
9094.18
36883
61757.8
21987.7
13643.9
43687.1
52869.1
186787
100127
143902
40553.3
56196.9
36138.5
100194
93661.6
91137.6
98067.7
92111.2
86600.7
158536
110206
118030
124424
99244.2
296700
310014
186367
203802
156814
134159
117988
117330
74464.7
94486
121000
117911
134225
114156
207364
189500
134702
327090
114220
125475
450179
96514.1
253690
58642.2
286015
190251
64816.9
63399.9
87648.6
138134
104117
83767.3
60978.6
87377.7
55344.1
54531.3
49803.4
72765.8
61135.8
66384.6
67122
61846
61985
254839
464711
36280.1
45165.2
163306
123289
393823
65734.1
71671.6
196214
106306
285158
68377.7
49231.1
117721
221838
71091.7
259738
233458
90622.3
277195
465586
371425
20976.9
105214
156861
141145
85323
116017
158459
199798
169692
185220
209196
189877
160501
114510
113232
150710
134279
112634
78332.7
63639.4
242220
151778
178074
53353.1
84550.9
164353
116147
187891
172378
213319
464604
62187.9
58953.9
202651
64010.8
266463
6571.3
15977.3
396229
105312
254452
16439.9
21036.2
88341.4
92295.8
60459.7
370017
148927
271674
452829
207999
668625
26021.9
106426
155059
36947.6
9801.78
40389.2
46556.8
333219
3268.34
38255.5
71007.5
4452.62
70887.2
2405.51
5171.07
8607.43
36689.2
57196.7
84035.4
57876.4
123576
181232
114324
129653
244492
340840
31170.6
174590
86710.8
110613
124680
102900
93660.9
109975
86515.5
108061
133305
141501
138331
128133
103081
178384
155144
141821
57845.1
87874.8
78072.3
95467.9
129454
130699
141001
139974
124273
112987
121295
173057
127510
182791
182576
136795
104301
120790
133945
297478
237125
386402
37593.4
76094.7
113648
90599.9
136665
103037
116317
115813
122405
133184
371016
181735
293929
86338.5
132775
145985
168207
182754
310650
129250
111321
226043
160371
84210.9
91313
77079.9
71852
126824
76918.7
103677
92740.5
194039
255234
104799
118597
98688.3
96660.9
112935
88156.4
32220.2
76585.5
65987
138817
104965
121592
120481
102138
118055
137849
70654.5
110901
108878
66215.8
125501
75722.6
101644
96811.3
103219
76504.3
145196
156224
100267
84587.2
101655
34101.1
94550.5
133174
96447.4
135397
102441
152705
106921
74666.4
90018.3
96183
94024.3
104541
131122
71940.6
79510.5
111468
50762.5
33360
68420.5
108194
62343
29193
129853
53937.6
62506.5
61399.1
22485.6
62293.1
121877
100770
100246
63961.7
83017.9
103316
92649.5
79003.3
98865.3
91629.8
310155
85365.7
116453
123715
95858.6
81067.4
80223.7
73314
121862
75137.4
84694.5
94599.6
121762
47629.2
101422
55559.4
71018.9
89601.2
160686
174731
222923
268154
243970
56755.3
82080.1
95289.3
78928.5
32459.4
25882.5
91664.3
282055
58821.4
106379
37298.1
75734.4
69821
259478
341993
207824
110899
174986
102437
225423
232161
65085
102079
74559.8
87472.5
352225
75708.5
153439
98106.4
81103.4
103689
160765
892068
673738
263329
156145
95858.2
75267.8
390924
97786.3
137153
116489
62166
67966.4
70342.4
62501.5
59157.1
76472.3
115421
253221
109031
273921
203950
74916.2
77625.1
89983.2
93012.8
SCALARS SignedDistance double 1
LOOKUP_TABLE default
242.869
246.624
148.084
134.203
248.174
295.945
223.704
555.862
200.303
195.547
455.914
125.715
135.753
193.381
229.961
582.383
184.95
167.173
243.859
323.559
181.275
187.721
226.806
224.621
234.633
202.267
303.974
221.299
927.49
331.404
585.145
772.027
143.143
179.331
136.304
127.431
168
168.662
189.005
229.479
197.686
266.96
188.905
166.28
277.655
155.464
140.21
144.375
220.126
216.438
236.918
228.674
192.183
355.661
392.031
210.749
222.916
276.697
543.821
244.821
259.149
185.447
247.803
651.482
500.562
157.522
149.962
462.627
156.309
194.43
176.7
189.119
219.259
202.249
241.739
173.65
173.599
223.26
517.109
216.208
206.138
199.505
192.884
202.372
343.362
534.396
170.972
264.188
215.298
624.993
268.766
164.63
196.834
179.89
179.715
232.118
259.143
223.276
522.814
693.952
564.418
447.516
190.244
903.938
223.45
348.235
661.151
555.398
439.403
233.545
718.013
214.069
123.119
125.456
142.924
185.032
192.941
167.439
189.354
161.744
199.642
170.054
165.76
189.757
150.392
172.422
164.862
169.213
166.977
159.251
148.687
170.203
192.227
171.899
233.58
197.024
126.655
202.755
227.912
226.111
202.14
210.569
163.663
194.508
176.358
193.973
253.425
211.692
215.037
215.857
173.772
219.249
323.707
216.548
263.508
227.534
245.648
230.035
892.124
211.032
209.448
230.714
217.493
223.553
201.606
172.969
189.03
173.809
234.197
213.33
184.673
149.199
140.854
144.887
193.339
144.948
196.999
140.665
145.038
137.936
239.068
241.856
247.016
190.267
206.95
217.328
219.082
225.718
205.485
165.693
184.854
185.604
197.666
438.007
392.065
216.908
175.16
190.277
183.163
325.695
283.777
306.309
343.708
569.184
342.09
480.928
232.604
250.751
248.457
190.094
208.267
172.733
437.581
264.749
281.376
317.881
257.207
206.252
596.324
243.017
176.121
321.819
238.948
371.998
317.561
275.81
215.242
184.791
200.332
222.908
180.506
186.064
460.673
644.139
799.207
406.95
527.578
229.731
213.798
576.574
180.601
174.232
139.161
608.076
195.841
181.954
230.394
209.83
148.48
150.902
128.004
452.212
346.567
240.896
357.896
461.204
178.608
180.855
235.016
216.587
207.7
176.759
162.526
185.648
191.363
178.335
158.482
92.8525
154.125
133.204
169.794
183.675
170.828
182.396
145.943
467.365
249.107
164.322
218.595
190.265
188.588
185.897
170.139
168.478
161.08
172.164
202.407
171.356
184.974
226.528
193.236
159.189
553.06
363.648
495.426
667.423
225.055
255.869
217.002
222.606
223.572
204.764
211.268
233.473
226.354
298.934
201.955
184.967
187.516
207.749
207.19
207.345
203.326
198.141
192.908
219.829
207.63
215.266
310.708
356.522
226.468
237.079
349.146
441.322
336.199
152.514
169.826
298.367
188.764
288.693
167.953
211.83
190.668
222.862
236.045
349.75
208.255
216.829
303.103
327.031
311.696
321.736
421.074
462.607
210.541
148.482
200.638
215.735
150.953
158.068
167.916
239.989
196.681
158.493
190.386
163.499
197.639
196.578
122.416
187.562
125.963
212.364
262.07
301.991
218.811
210.422
305.503
165.359
185.164
170.48
323.715
418.621
381.689
326.68
492.025
514.191
775.06
556.667
451.894
336.028
265.825
421.395
468.464
434.355
213.044
227.262
223.428
782.712
228.779
216.491
285.941
237.611
882.064
534.04
612.589
783.672
641.916
767.521
238.254
388.882
380.631
396.524
346.013
412.809
370.584
638.367
504.568
773.333
343.042
256.468
219.673
220.254
204.163
794.543
248.693
326.858
231.724
231.685
613.397
260.352
332.91
284.849
146.268
128.971
157.468
138.967
122.531
114.163
141.174
163.25
151.62
179.953
210.602
242.351
198.09
189.128
178.378
147.331
184.916
178.368
231.594
189.853
193.35
175.987
149.42
149.771
176.434
166.682
182.207
167.954
179.679
176.192
163.927
165.2
164.102
163.484
166.362
171.161
165.613
202.97
185.949
146.745
122.875
208.803
153.189
140.017
167.374
155.112
150.881
167.102
244.07
167.277
163.138
167.367
153.222
158.575
165.505
189.546
151.382
145.475
183.983
167.311
131.022
162.46
146.449
157.192
165.09
134.343
159.65
147.449
166.176
167.005
184.819
210.331
212.799
186.597
193.052
181.308
226.628
220.289
182.314
174.912
138.972
155.632
160.16
135.638
167.965
172.953
161.101
173.094
186.134
224.893
190.578
232.02
224.078
210.589
217.893
183.417
201.653
206.631
214.297
248.222
230.765
208.091
203.966
200.499
197.031
154.61
193.807
203.786
143.858
136.759
135.318
128.025
149.166
210.344
240.501
193.406
209.248
250.454
185.848
190.757
204.29
207.916
166.741
193.93
251.789
186.552
187.42
186.104
187.532
183.316
177.976
182.049
201.385
223.329
215.35
187.548
206.953
195.918
190.039
198.979
270.668
215.014
232.335
242.623
221.542
187.336
216.866
192.535
140.648
94.1837
114.012
188.876
227.92
215.555
233.215
242.72
324.609
196.007
216.156
296.04
152.76
193.338
303.105
186.175
213.178
221.536
269.722
218.116
228.804
262.227
323.138
131.925
242.086
233.092
245.666
240.28
252.474
220.304
253.305
201.891
194.301
233.177
298.854
343.848
218.817
237.637
234.734
218.342
250.861
224.853
321.015
226.24
219.056
220.089
696.071
544.947
717.362
541.923
919.661
220.537
354.504
256.945
197.907
190.504
201.165
203.797
218.931
212.111
217.652
208.309
205.437
203.94
616.72
228.411
237.325
781.508
460.606
213.687
221.258
223.964
