# vtk DataFile Version 4.2
vtk output
ASCII
DATASET POLYDATA
POINTS 642 double
-2793.42 6964.61 -239.254
1360.13 6758.97 -175.132
-2858.05 -325.812 -41.7883
1832.5 -327.335 -16.5543
-572.024 1090.08 3534.6
-799.581 5356.8 3071.82
-525.812 1285.24 -3284.03
-756.034 5645.01 -3594.17
2716.04 3312.91 -1945.14
2873.43 3266.23 1981.54
-3952.29 3618.21 -2179.73
-4232.55 3458.25 2226.49
-4042.47 5562.95 1287.91
-2693.45 4711.47 3290.44
-1894.6 6576.58 1943.12
479.283 6423.29 1557.96
-548.68 7545.14 -105.508
629.183 6735.46 -2022.44
-1981.03 7070.42 -2325.61
-2728.45 4906.38 -3551.51
-4103.07 5700.48 -1496.82
-4749.44 3448.07 20.6328
1378.51 4464.93 2960.95
2490.13 5161.71 1111.58
-2575.3 2018.84 3156.58
-512.124 3304.62 3773.06
-3862.61 1234.7 -1234.89
-3918.98 1220.26 1292.84
-731.038 3648.99 -3618.59
-2436.21 2226.53 -2975.76
2321.03 5249.06 -1119.04
1230.62 4715.31 -2856.81
3064.09 1172.76 1297.07
1511.17 2076.48 3197.74
838.691 -132.25 2125.37
-1947.5 -198.749 2172.05
-530.573 -751.152 -50.7157
-1827.81 -25.7075 -2110.4
779.041 -9.98092 -2088.97
1394.91 2108.21 -3037.03
2952.71 1241.47 -1275.72
3506.5 3172.93 16.1429
-3507.97 6335.01 639.328
-3060.33 6262.66 1720.32
-2364.44 6840.91 1010.64
-3581.43 4120.04 2894.63
-3518.44 5216.64 2444.45
-4283.19 4553.91 1837.74
-1340.07 6074.78 2640.95
-2368.16 5796.84 2753.36
-1726.73 5124.22 3347.95
-1154.56 7245.41 872.112
-1647.17 7365.71 -157.501
-76.5416 5864.14 2400.38
-653.043 6663.82 1793.91
476.3 7305.53 -140.333
28.7564 7194 845.869
926.224 6767.58 751.335
-1354.85 7365.44 -1223.77
-2489.91 7258.34 -1307.83
1095.5 6910.59 -1091.01
95.281 7372.6 -1135.56
-1371.44 6486.4 -3117.76
-676.622 6952.16 -2270.53
-38.6908 6255.52 -2820.36
-3210.79 6579.95 -2004.59
-3557.1 6508.71 -894.293
-1725.04 5373.63 -3838.66
-2475.72 6124.35 -3149.5
-4212.47 4727.68 -1960.78
-3630.7 5398.96 -2701.57
-3485.48 4289.04 -2969.05
-4161.65 5688.6 -64.2593
-4479.49 3467.45 -1082.07
-4492.18 4612.21 -754.753
-4631.89 4580.27 683.714
-4656.37 3459.68 1165.51
1619.84 5813.44 1479.27
1901.98 5948.45 464.27
457.322 4889.1 3075.15
1046.9 5457.85 2430.16
2794.78 4315.22 1607.99
2075.09 4896.1 2131.86
2197.09 3941.31 2603.58
-1742.46 4081.22 3715.05
-677.453 4335.31 3497.7
-3544.36 2830.79 2846.91
-2791.08 3467.35 3442.84
-506.037 2217.65 3767.82
-1619.15 2820.14 3648.25
-1641.2 1448.78 3491.6
-4568.36 2317.01 651.01
-4182.88 2380.71 1778.41
-4023.34 2351.27 -1714.06
-4483.11 2331.75 -653.874
-3542.43 317.239 680.907
-4085.29 1120.15 -45.5344
-3541.28 324.422 -717.409
-2696.38 3635.77 -3473.76
-3222.95 2948.97 -2688.81
-768.515 4742.04 -3888.17
-1689.39 4332.67 -3961.54
-1514.87 1601.51 -3235.57
-1595.61 2985.71 -3525.35
-516.329 2274.31 -3551.43
1005.83 5781.75 -2640.63
258.947 5172.43 -3311.35
1919.05 6190.83 -742.359
1607.9 6162.53 -1660.51
2055.9 3911.26 -2492.22
1856.05 5053.89 -2176.49
2686.47 4273.71 -1573.22
2597.6 281.265 674.677
2098.42 373.961 1777.35
1423.92 -371.475 1089.7
2320.34 2650 2673.5
2461.69 1533.45 2386.8
3169.3 2209.83 1740.51
131.951 394.84 2940.01
1283.67 859.875 2832.59
548.858 1539.7 3480.22
224.995 -678.006 1142.62
741.05 -693.235 -19.8038
-1231.46 357.634 3000.49
-550.042 -319.18 2287.73
-1786.87 -720.763 -11.7422
-1313.41 -673.267 1143.62
-2470.58 -417.578 1155.04
203.882 -625.835 -1154.45
1364.4 -274.347 -1100.37
-2444.54 -317.267 -1110.71
-1257.66 -635.966 -1167.12
138.701 545.073 -2784.06
-547.124 -157.666 -2201.42
-1219.96 512.125 -2836.75
1973.51 497.747 -1721.8
2543.93 332.193 -692.845
488.022 1657.23 -3271.02
1181.19 976.29 -2734.64
3022.65 2203.58 -1659.48
2281.14 1637.37 -2274.56
2149.12 2692.58 -2574.4
3234.04 1060.84 -11.8615
3243.38 3222.11 -1002.91
3522.33 2216.36 -667.828
3609.37 2211.13 653.659
3373.68 3194.06 1016.26
516.379 2679.1 3694.76
1543.59 3320.44 3255.44
490.601 3910.86 3551.77
-3130.16 320.43 1848.83
-2404.95 797.854 2944.11
-3419 1488.74 2434.71
-2233.04 952.239 -2770.19
-3025.86 459.567 -1744.66
-3251.67 1644.13 -2256.28
1418.75 3311.76 -3062.19
428.001 2719.96 -3478.57
222.444 4146.16 -3422.99
3118.45 4310.36 601.018
3077.96 4298.97 -614.896
2600.47 5231.74 -13.098
-3137.77 6615.92 208.001
-2973.6 6634.4 856.537
-2547.45 6865.86 421.364
-3587.91 5958.55 1527.03
-3315.12 6327.96 1205.81
-3807.77 5980.78 980.377
-2159.75 6743.24 1491.07
-2741.07 6588.46 1385.67
-2486.03 6471.92 1854.12
-3946.06 3791.43 2594.19
-3984.96 4342.2 2410.48
-4299.93 4002.63 2059.73
-3135.84 4975.89 2915.55
-3579.83 4685.57 2705.36
-3157.53 4431.84 3128.51
-4199.8 5083.2 1576.86
-3938.56 4911.59 2168.64
-3825.79 5413.9 1894.94
-1094.66 5738.73 2889.96
-1542.3 5632.11 3030.22
-1278.79 5274.78 3231.77
-2142.84 6232.85 2374.76
-1854.19 5968.44 2727.02
-1615.53 6359.24 2322.62
-2204.51 4938.93 3359.67
-2058.04 5479.86 3090.63
-2552.81 5284.92 3068.47
-3326.23 5785.91 2112.09
-2964.45 5551.52 2647.45
-2740.75 6068.39 2279.38
-1968.18 7131.67 398.092
-2222.03 7142.19 -253.022
-1527.54 6861.17 1392.76
-1753.97 7037.73 923.631
-1077.07 7513.69 -96.6574
-1373.22 7363.35 398.734
-871.126 7456.88 399.245
-470.067 5588.82 2725.49
-802.73 6039.87 2551.61
-80.0123 6647.17 1677.87
-443.069 6310.69 2086.81
251.484 6147.88 1968.98
-1038.4 6362.86 2269.55
-1250.64 6629.04 1929
943.251 7064.53 -156.659
748.051 7069.55 342.885
1162.1 6792.17 298.973
-246.483 7426.71 390.761
251.065 7293.26 375.126
-31.8595 7469.18 -125.017
700.529 6653.47 1180.3
506.619 7007.21 824.603
257.179 6884.25 1224.71
-874.355 7013.14 1378.75
-281.152 6998.9 1327.68
-561.817 7289.84 884.96
-2133.29 7320.86 -817.335
-2657.34 7135.33 -808.662
-865.386 7520.12 -622.543
-1536.34 7407.09 -692.611
-2256.66 7222.15 -1812.75
-1988.17 7400.61 -1326.91
-1747.73 7314.99 -1820.49
1263.2 6883.29 -626.9
819.317 7173.24 -629.793
381.126 7104.26 -1605.27
610.119 7181.71 -1129.8
878.757 6860.79 -1575.36
300.122 7396.32 -639.236
-209.897 7519.65 -634.855
-1062.14 6089.28 -3393.89
-763.098 6385.18 -3032.24
-464.614 5956.04 -3220.71
-1394.22 7058.04 -2374.4
-1085 6769.47 -2740.62
-1681.34 6820.88 -2764.66
351.738 6536.25 -2425.41
-352.773 6631.08 -2575.94
52.0474 6901.3 -2136.19
-531.648 7453.18 -1164.61
-218.161 7233.76 -1687.88
-1007.36 7217.53 -1775.62
-3067.38 6937.62 -1116.76
-3185.61 6789.74 -566.045
-2613.18 6879.96 -2193.03
-2878.51 6975.33 -1660.33
-3871.96 6152.13 -1204.14
-3446.03 6608.88 -1456.08
-3711.35 6183.54 -1761.8
-1231.76 5542.89 -3751.04
-1555.08 5982.43 -3524.21
-2648.94 5514.61 -3415.28
-2103.91 5770.23 -3508.44
-2234.47 5152.63 -3748
-1913.71 6368.39 -3189.77
-2240.67 6650.6 -2784.05
-4095.51 4188.57 -2107.84
-3898.11 4530.15 -2491.78
-3757.92 3975.9 -2606.46
-3926.52 5572.1 -2118.77
-3992.25 5072.79 -2354.52
-4233.28 5208.24 -1763.18
-3131.38 4619.02 -3283.05
-3599.07 4876.71 -2873.11
-3223.79 5177.86 -3185.56
-2884.68 6400.14 -2628.61
-3098.32 5796.02 -2974.6
-3467.35 6028.15 -2397.97
-3528.34 6416.21 -151.857
-4131.1 5723.75 -828.187
-3878.47 6104.93 -504.465
-3867.67 6034.54 291.122
-4159.35 5646.54 649.805
-4186.62 3531.97 -1634.88
-4287.41 4161.02 -1532.93
-4669.65 4017.36 -320.548
-4516.38 4056.2 -932.083
-4654.1 3440.64 -538.306
-4380.27 4711.6 -1396.96
-4341.37 5176.67 -1185.08
-4534.54 4006.71 1538.18
-4497.18 3458.8 1721.35
-4395.04 5095.07 1009.33
-4498.4 4587.86 1275.5
-4764.47 3459.74 573.346
-4667.5 4016.69 921.786
-4753.38 4021.3 354.492
-4398.73 5170.27 -419.415
-4650.55 4591.96 9.62628
-4455.99 5147.19 343.743
1417.8 6399.5 547.498
1603.09 6440.68 86.8264
1043.83 6123.97 1561.09
1206.29 6259.02 1068.19
2258.23 5522.27 845.189
1801.66 5886.81 1004.75
2078.18 5520.34 1312.68
-123.991 5092.25 3056.39
249.739 5386.64 2777.54
1228.65 4992.46 2720.98
778.908 5198.83 2769.53
933.002 4688.08 3046.84
578.234 5653.4 2442.35
819.66 5885.02 2072.11
2859.59 3824.83 1818.16
2540.12 4138.96 2130.98
2547.77 3642.08 2333.84
2321.95 5048.19 1641.03
2459.02 4624.95 1892.18
2671.93 4754.86 1369.06
1805.56 4213.18 2811.63
2160.74 4439.01 2387.75
1760.36 4698.71 2573.15
1360.97 5666.29 1984.35
1580.08 5208.57 2313.66
1873.69 5389.53 1828.1
-1301.32 4778.08 3468.86
-750.408 4881.07 3244.84
-2194.68 4403.63 3560.97
-1741.78 4603.31 3569.9
-575.776 3846.98 3676.24
-1274.55 4263.12 3643.65
-1213.47 3739.86 3663.21
-3924.63 3137.57 2574.75
-3618.73 3461.63 2920.16
-2748.22 2861.36 3350.37
-3196.86 3148.43 3182.36
-3078.26 2469.96 3024.6
-3211.35 3791.23 3207.36
-2772.7 4089.43 3408.38
-570.348 1617.92 3643.41
-1037.35 1757.4 3644.51
-1084.24 1262.32 3576.78
-1073.83 3060.58 3757.63
-994.049 2435.68 3720
-481.666 2776.9 3834.62
-2150.88 1641.52 3400.72
-1583.06 2004.41 3506.75
-2127.06 2402.43 3412.65
-2241.93 3781.9 3669.89
-2247.85 3181.99 3632.26
-1746.74 3475.31 3778.27
-4491.71 2926.49 1518.48
-4261.48 2938.07 2037.51
-4706.18 2884.25 335.073
-4629.71 2901.21 909.112
-4078.73 1763.18 1530.6
-4416.02 2329.46 1225.54
-4300.78 1788.1 967.255
-3986.12 2920.19 -1920.16
-4275.91 2877.24 -1409.36
-4197.57 1777.92 -971.263
-4286.64 2320.7 -1202.57
-3967.13 1805.37 -1484
-4507.95 2878.08 -860.985
-4662.07 2875.49 -326.032
-3235.23 -50.1539 323.038
-3583.31 276.068 -43.2802
-3235.48 -44.5073 -391.038
-4046.73 1152.16 627.258
-3867.78 665.518 311.865
-3776.35 711.393 1012.09
-3757.2 747.83 -1006.62
-3870.82 674.153 -390.82
-4044.22 1127.14 -677.734
-4602.37 2305.55 -2.41749
-4336.99 1721.64 -348.341
-4393.68 1731.32 321.206
-3402.51 3665.35 -2931.75
-3621.38 3299.8 -2418.34
-2729.92 4256.79 -3553.03
-3103.64 3940.12 -3277.4
-2872.16 2624.58 -2911.34
-2993.17 3349.95 -3178.53
-2614.83 3082.59 -3274
-739.348 5154.05 -3839.59
-1233.13 5038.07 -3972.72
-1283.63 4095.05 -3897.29
-1245.37 4560.48 -3966.42
-828.815 4329.94 -3844.17
-1719.61 4856.32 -4001.33
-2167.71 4615.51 -3825.78
-1035.36 1432.72 -3291.53
-996.985 1956.58 -3470.08
-515.914 1778.46 -3477.75
-2011.99 2630.4 -3296.59
-1480.91 2194.6 -3411.25
-1965.03 1815.98 -3115.78
-534.022 2864.37 -3599.1
-1017.24 2527.35 -3550.82
-1182.71 3328.7 -3631.19
-2197.6 3966.75 -3773.03
-1732.95 3745.83 -3833.86
-2196.51 3399.23 -3605.66
123.369 5724.09 -3108.76
[...]
POINT_DATA 642
SCALARS Mean_Curvature double 1
LOOKUP_TABLE default
0.000718115
0.000687876
0.000569672
0.00063584
0.00106435
0.000810624
0.000605585
0.000805024
0.000556947
0.000288541
0.000611069
0.000761013
0.000582537
0.000628154
0.00053277
-3.35506e-05
0.000705929
0.000600154
0.000828453
0.00065971
0.000719492
0.00047562
0.000471028
0.000529335
-0.00024125
0.000285732
0.000357791
0.000170555
-0.000347346
-0.000144674
-9.65016e-05
0.000339513
0.000613491
0.000359577
0.000583659
0.000713235
0.000151637
0.000586595
0.000628755
0.000452824
0.00058192
0.000417742
0.000567049
0.000576504
0.000400239
0.000569792
0.000537089
0.000519354
0.000629244
0.000587395
0.000719778
0.000585898
0.000435407
8.03312e-05
0.000278954
0.000559579
0.000647234
0.0006076
-3.38681e-05
0.000976786
0.00058177
0.000669304
0.000702328
0.000227847
0.000271347
0.000584137
0.000460755
0.00086659
0.000590855
0.000711953
0.00073253
0.000445782
0.000387671
0.000457644
0.000135108
0.000602217
0.000513689
0.000474101
1.07317e-05
0.00036599
0.000530099
0.000547484
0.00051591
0.000519608
0.00083489
-8.8534e-05
0.000591632
0.000564476
0.000449716
5.49079e-05
0.00062306
0.000577926
0.000204937
0.000552212
0.000495281
0.000374377
0.000185928
0.000667304
0.000679808
-0.000340528
0.000989642
0.000901103
0.000216382
-4.44064e-06
0.000359111
0.000538574
0.000471318
0.000904241
0.000608055
0.00041206
0.000320457
0.00049387
0.000592306
0.000530363
0.000446018
0.000270738
0.000710406
0.00066921
0.000308137
0.000439914
0.00057839
0.000578896
0.000460772
0.000521741
0.000650616
0.000493134
0.000219092
0.000600916
0.000607964
0.000325281
0.000524951
0.000630828
0.000350946
0.000540041
0.000729185
0.000361233
0.000587479
0.000352576
0.000526585
0.000809532
0.000450392
0.000367326
0.000584798
0.000218529
0.00080501
0.000829763
0.000322145
0.000371929
0.000519275
0.000567734
0.000611184
0.000575151
0.000515949
0.000668819
0.000517877
0.000130731
0.00042506
0.000369961
0.000171262
0.000526827
0.000579094
0.000417255
-2.35745e-05
0.000578169
-0.000121437
0.000579731
0.000562511
0.000572936
0.000540331
0.00056913
0.000559461
0.000624877
0.000553331
0.000596151
0.000535062
0.000558737
0.00057468
0.000556124
0.000540748
0.000546845
0.00057485
0.000643441
0.000589523
0.000590753
0.00056839
0.000600638
0.000543962
0.000593326
0.000641965
0.000552806
0.00055722
0.000575271
0.000261672
-0.00022452
-0.000114424
0.000185159
0.000686269
0.000624772
0.000721163
-0.000438909
0.000650142
0.00065771
-6.66547e-05
-0.000155563
0.000542653
0.000454273
0.000556368
0.000628603
0.000643473
0.000683433
0.000610678
0.000562201
0.000640699
0.00067511
0.000667683
0.000641119
0.000671431
0.000717142
0.000580032
0.00051145
0.000452858
0.000180566
0.000742491
0.00110972
0.000875364
0.000790433
0.00076342
0.000628917
0.000596561
0.000597977
0.000703138
0.000729442
0.000676059
0.00049555
8.81126e-05
0.000671934
0.000639892
0.000836214
0.000563594
0.000156082
0.000572072
0.000623801
0.00060385
5.22224e-05
0.000721566
0.000481217
0.000532666
0.000685302
0.000695515
0.000854278
0.000610045
0.00052864
0.0007957
0.000574374
0.000366798
0.000704413
0.00076517
0.000608043
0.000505954
0.0004355
0.000571986
0.000557675
0.000946798
0.000919368
0.000332917
0.000641061
0.000859854
0.000598055
0.000591907
0.000581847
0.000284833
0.000330774
0.000374645
0.000308591
0.00062277
-0.000145391
-5.70948e-05
0.0003113
0.00030215
0.000447533
0.000618084
0.000546231
0.000588923
0.000684051
0.000591766
0.00052398
0.000662341
0.000245492
0.000620073
0.000288647
0.000628385
0.000484474
0.00015061
0.000592659
0.000290237
-0.000326389
0.000469846
0.000395415
0.00053408
0.000216942
0.00040633
0.00051959
0.000474409
0.000436161
0.000444068
0.000457713
0.00050278
0.000534153
0.000505744
0.000514615
0.000536128
0.000531866
0.00049059
0.00052228
0.000491081
0.00050993
0.000531411
0.000536297
0.000559335
-0.00038373
0.00058843
0.000700272
0.000450525
0.000716761
-0.000440187
0.000668624
0.000650181
0.000462281
0.000591366
0.000178958
0.000544459
0.000459141
0.000259135
0.000449538
0.000963428
0.000323108
0.000152205
0.000772669
0.000965737
-0.000303357
-0.000146255
0.000719202
0.000661283
0.00103253
0.000569814
0.00066796
0.000437251
0.000261429
0.00034086
0.000393781
0.000436916
0.000345332
0.000344245
0.00035908
0.00052171
0.000392579
0.000334353
0.000520481
0.000545946
0.000506721
0.000648291
0.000109932
0.000677348
0.000641283
0.000773457
0.000734363
0.000601404
0.000638934
0.000338792
0.000538341
0.000659759
-0.00023854
0.000481116
0.000650654
0.000365343
0.000738084
0.000304102
0.00107685
0.00118428
0.000603823
0.000644526
0.000493289
0.00140842
0.000396034
0.000310227
0.000550089
0.000773567
-0.000100574
0.000462383
-1.07627e-06
0.000182261
0.000306911
-4.74562e-05
0.000649441
0.000863284
0.000611823
0.000162505
0.000279436
0.000578953
0.000529129
0.000909709
0.000496455
0.000807784
0.000738101
0.000770185
0.000609094
0.000604761
0.000687224
0.000572044
0.000585691
0.000534973
0.000441063
0.000544314
0.000526479
0.000206107
0.000209191
0.000441185
0.000355539
-0.000170323
0.000584811
0.000654586
0.00064797
0.000559077
0.000562467
0.000566545
0.000577428
0.000582542
0.00060806
0.000493499
0.00048585
0.000423065
0.000242409
0.000616096
0.000608734
0.000395506
0.000362031
0.0003569
0.000623575
0.00061753
0.0006383
0.000533697
0.000406702
0.000443951
0.000569292
0.000499768
0.000479595
0.000449053
0.00048748
0.000389599
0.000565449
0.000477849
0.000419436
0.000684997
0.000651793
0.000578937
0.000519349
0.000155135
0.000290813
0.00010653
0.000630198
0.000689565
0.000430977
0.000632715
0.000164137
0.000529745
0.000405697
0.000558734
0.000373243
0.000389349
1.91833e-05
0.000904849
6.31521e-05
0.000647634
0.000682353
0.000523761
0.000355632
0.000616806
0.000442902
0.00040016
0.000608647
0.000370614
0.000502671
0.00055694
0.000533892
0.000645293
0.00070997
0.000651097
0.000615323
0.000381507
0.000429975
0.000397184
0.000325507
0.000406789
0.000571591
0.000267183
0.000503611
0.000403955
0.000637959
0.000611807
0.000448694
0.000667431
0.000496624
0.000487044
0.000355087
0.000579425
0.000558254
0.000484479
0.000357571
0.000610182
0.000595309
0.000568151
0.000465328
0.000357621
0.000677241
0.000526521
0.000456004
0.000597384
0.000603865
0.000124866
0.000207573
0.000418668
0.000578651
0.000737096
0.000721279
0.000346949
0.000343711
0.0005844
0.000438157
0.000463801
0.000377447
0.000571507
0.000565833
0.00057202
0.000607415
0.000578578
0.000327731
0.000415147
0.000798112
0.000657868
0.000218907
0.00089422
0.000621636
0.000812663
0.000219576
0.000505242
0.000684361
0.000522001
0.000819797
0.000895888
0.000477193
0.000874806
0.000604565
0.00021374
0.00050579
0.000484675
0.00078884
0.000414437
0.000485583
0.000464766
0.000506218
0.000505831
0.00053691
0.000323893
0.000560511
0.000483173
0.000389456
0.000481678
0.000570348
0.00055372
0.000614745
0.000508778
0.000619106
0.000621247
0.000619331
0.000692158
0.000393832
0.00100423
0.000762644
0.000477873
0.00066195
0.000407583
0.000422593
0.000193136
5.69581e-05
0.000216502
0.000585687
0.000857026
0.000715732
0.000765499
0.000561716
0.000632253
0.000843026
0.000712238
0.000668982
0.000706193
0.000657121
0.000546196
0.000395715
0.000507949
9.28139e-05
0.000473251
0.000491524
0.000141479
0.000433031
0.000706913
0.000659228
0.000519881
0.000475475
0.000536354
0.00044815
0.000313287
0.000610115
0.000534347
0.000442599
0.000494476
0.000387501
0.00128532
-0.000748079
9.16588e-05
0.000338276
-0.000102742
0.000468367
0.000473824
0.00033628
0.000429571
0.000248761
0.000342812
0.000569121
0.000513412
0.000542105
0.000476984
0.000544962
0.000483758
0.000355662
0.000242843
0.000513561
0.000289254
-0.000340809
0.000471374
0.000605367
0.00052169
0.000524655
SCALARS CoVolArea double 1
LOOKUP_TABLE default
308869
204698
289345
283031
251293
247916
244050
245154
248282
269187
292329
262445
349058
331131
326681
326473
301949
301590
342785
352335
358938
349969
290579
274193
406794
340789
341957
387695
412085
412045
352673
306646
364904
353051
373656
374877
438015
342253
331451
295560
341457
315304
352122
347425
348534
327878
366072
341860
260144
331556
267665
336741
355701
376095
318712
280523
283825
274028
421941
301456
275769
318943
309768
404911
354065
401451
347760
315699
402594
314622
379338
323725
409435
375302
412013
371792
341477
325472
336122
294793
282028
281639
292161
283598
295094
359481
346498
340082
318863
437860
308661
376548
376998
321192
368859
353974
395885
324450
304870
388555
207500
277342
297795
418963
276724
295845
299711
254336
285117
293596
322598
271360
353944
393326
359189
335449
356484
303787
355074
382643
329511
396914
351838
355913
389540
349301
403543
354867
371405
355099
338724
377074
317410
364624
291808
376660
341337
294733
330538
275704
338617
305657
385208
318468
323145
340027
308628
330014
315950
294014
380908
363172
373638
307794
353139
373563
305031
304988
447304
320550
301712
329239
377556
350206
397676
355700
319756
326337
320688
308142
328381
319963
340356
326376
352101
335069
319014
332990
341399
364812
261228
266173
262978
319183
283936
276741
288342
290471
335865
402480
394441
384556
384235
380682
378164
353223
311416
320693
299589
337136
307476
323009
344944
360470
281781
340921
259942
265036
255311
300740
277147
280274
280740
249567
272567
369029
317229
330673
325570
317826
375556
357519
314634
313569
363992
249920
276092
318142
287243
280809
284588
316803
302329
334375
334856
365552
330158
310125
311765
357965
357311
426075
414595
469575
328630
344358
399188
348512
338167
340893
385908
296034
330769
386243
360211
327667
343913
388931
338423
319914
320831
380769
318797
310267
327793
328939
364651
455805
443890
453137
377421
397664
370297
365473
374067
389203
375202
391268
376450
342261
338168
378281
345343
318463
365368
348751
335193
349895
364600
462791
436687
430573
326504
268716
352778
348247
283319
328644
285703
341088
330794
288147
267356
269220
310089
329544
305293
284167
304914
286588
270648
261632
273397
274462
294502
332914
320942
318642
297785
341275
321068
265840
332895
301673
358684
312198
320019
398533
326033
381794
322053
348261
305419
323416
293754
382896
382269
299816
330519
407407
454797
349909
401595
366642
346696
321659
365253
355713
376627
367655
399857
358632
357378
373316
332940
333063
335753
356899
355071
346897
334167
411580
354773
348269
304348
331265
362360
407916
430042
436229
339122
369103
356595
305536
370680
308858
367655
251227
260883
314136
229257
288356
274467
341327
291267
287517
266580
446435
368211
351637
359175
358258
414573
343645
356272
381410
362261
305814
304394
314753
291739
295610
269058
234026
250363
308650
246162
284919
275108
302855
266357
287858
271482
289339
317804
301011
307028
316494
363325
328410
335406
319188
347824
360914
342996
379993
357232
346011
353457
364701
392289
323958
317734
303258
366766
327556
330255
325560
316368
363456
326875
349592
328992
382985
352511
349662
321738
340039
374631
423694
421293
437460
349452
333273
388124
356526
385148
370109
442343
317356
341756
394021
354321
363820
351603
391808
345039
355834
363332
440792
357875
382713
340278
346051
386047
441227
443958
461720
354166
340270
398839
356217
332043
344635
355537
327124
343955
360577
350019
339282
361872
405582
309920
317423
300169
354423
325020
302926
299042
316154
345567
423297
410707
418397
348660
340396
364298
351573
327537
339613
358181
288040
314895
309796
293662
276557
301591
336386
311177
309940
301599
339980
288687
285243
288640
303948
318944
407075
386153
408689
355985
373046
349203
354023
382916
310304
299313
305255
288051
306445
276062
348315
298796
314828
371986
313755
290913
287415
301756
413368
373312
418776
337481
341486
319735
303423
311728
317179
307238
289778
314660
337518
345763
315328
307477
282092
300742
360536
342837
348495
365464
380689
353693
349538
371493
343153
339567
311391
360923
384469
375168
381196
397476
396359
387909
423835
395251
408022
286518
347392
282268
271143
331503
331440
340749
319624
337903
368577
357570
389712
369745
332613
367843
387919
392608
373678
278155
305566
278764
283157
360335
275344
375171
281439
284358
310341
228943
439110
326504
290089
426202
339150
403712
427065
317353
348159
319150
288968
290526
292779
311472
268918
305156
342693
312717
295757
336118
339775
344587
354462
332801
327808
SCALARS SignedDistance double 1
LOOKUP_TABLE default
1914.93
2353.32
1512.71
1519.08
1873.83
2547.76
2142.4
2188.1
2267.19
2037.19
2185.24
1602.76
1623.91
1900.87
2142.41
2558.96
1909.29
2007.96
1611.8
1781.88
1595.14
1790.39
2293.02
2336.87
2002.25
2200.68
1934.04
1739.87
2643.17
2314.84
2477.35
2692.51
1529.05
1911.54
1546.11
1495.77
1765.15
1752.05
1786.83
2261.32
1792.03
2120.57
1818.25
1835.1
2091.24
1672.06
1680.78
1583.63
2337.77
2009.95
2255.86
2101.26
1904.68
2558.99
2446
2108.32
2248.78
2452.24
1893.32
1760.63
2080.39
1855.86
1823.49
1917.74
2091.86
1371.63
1656.34
1855.16
1428.92
1864.32
1549.32
1904.46
1739.38
1963.78
1877.16
1671.13
1694.36
2435.61
2516.9
2403.13
2411.74
2192.84
2290.63
2167.83
2245.9
2440.12
1808.29
1877.11
2009.37
2211.46
2045.98
1688.37
1732.29
1983.39
1835.79
1577.57
1766.46
1611.06
2221.31
2298.51
2488.06
2262.77
2225.78
2504.37
2355.6
2286.92
2504.68
2432.5
2266.49
2446.88
2614.99
2373.12
1439.26
1542.11
1534.32
1981.75
1799.47
1831.14
1664.07
1735.91
1874.01
1687.11
1703.94
1595.39
1531.86
1704.42
1682.61
1492.07
1698.69
1670.17
1648.9
1675.32
1999.72
1800.23
2000.44
1825.54
1580.49
2205.92
2025.36
2131.8
2097.33
2266.31
1535.37
2153.44
1929.2
1776.68
2060.12
2043.26
2120.18
2280.25
1474.8
1657.64
1879.11
2106.43
1840.69
2110.55
2443.47
2353.68
2729.28
2220.91
2280.3
2402.91
1907.19
1935.57
2016.85
1710.85
1807.09
1696.99
2095.74
1946
1982.52
1616.47
1600.43
1573.21
1760.57
1662.82
1757.48
1591.1
1612.36
1638.06
2430.33
2296.92
2400.16
2079.18
2174.03
2236.45
2067.5
2120.41
1955.37
1740.98
1819.07
1899.65
2004.14
1971.36
2204.42
2101.38
1867.18
1985.99
1978.22
2548.54
2509.72
2508.69
2560.09
2557.82
2426.55
2352.78
2229.38
2291.74
2403.88
2069.36
2169.98
1995.42
2519.78
2358.91
2420.07
2278.2
2343.23
2153.3
2005.43
1836.7
1811.64
1877.91
1633.75
1941.13
1831.44
2227.4
2102.05
1910.83
1956.01
2022.66
1975.6
1884.34
1985.55
2079.46
2213.06
1845.15
1947.64
1697.31
2027.66
1972.61
1911.44
1770.25
1815.32
1884.77
1675.25
1770.87
1406.38
1504.79
1600.83
1529.71
1433.57
2008.17
1793.78
1555.31
1570.46
1762.58
1597.66
1448.56
2001.49
1861.17
2025.26
1501.51
1712.04
1709.03
1809.19
1750.91
1660.77
1337.05
1419.48
1367.66
1816.17
1701.56
1739.18
1748.2
1659.23
2101.18
2019.02
1794.66
1918.84
1855.17
1918.2
1797.03
1605.93
1608.43
1593.03
1601.38
1713.6
1654.6
1709.16
1773.3
1731
1637.17
2534.3
2496.94
2513.65
2529.13
2403.78
2459.53
2387.37
2484.13
2461.9
2356.46
2405.14
2353.15
2459.08
2474.65
2112.65
2171.88
2103.26
2307.09
2242.88
2265.85
2230.96
2231.95
2286.41
2418.47
2353.74
2364.33
2402.8
2516.13
2067.83
2254.19
2327.57
2415.42
2360.16
1688.39
1709.25
1970.07
1836.9
1930.24
1761.11
1861.99
1986.93
2068.56
1929.28
2195.42
2066.65
2149.94
2124.35
2082.51
2067.61
2019.73
2085.95
2273.8
1708.21
1683.35
1750.41
1726.01
1710.99
1705.79
1701.64
2092.39
1984.04
1840.09
1899.78
1918.33
1913.46
1842.04
1510.06
1570.17
1518.61
1718.72
1662.4
1688.81
1765.85
1674.25
1858.34
1746.36
1776.01
1716.19
2136.23
2230.88
1975.98
2055.8
2369.88
2293.29
2429.72
2369.19
2228.93
2451.13
2351.33
2540.1
2116.99
1970.52
2176.96
2276.62
2275.09
2424.77
2326.82
2282.24
2417.46
2364.13
2579.25
2194.29
2421.27
2393.33
2271.96
2416.84
2133.05
2173.96
2563.39
2357.89
2495.28
2393.72
2263.19
2407.14
2321.51
2483.55
2160.59
2128.37
2360.36
2408.22
2323.65
2666.91
2539.36
2580.94
2418.79
2476.15
2531.33
2258.85
2401.74
2434.39
1473.49
1471.92
1505.54
1507.93
1468.17
1450.76
1527.61
1521.67
1561.78
2010.51
1956.18
1991.1
1903.17
1921.15
1949.32
1679.77
1807.78
1647.64
1749.53
1751.8
1854.62
1624.01
1691.54
1602.93
1886.43
1793.62
1839.73
1631.43
1773.64
1655.44
1621.19
1592.83
1560.2
1595.95
1746.68
1709.19
1738.57
1691.89
1604.89
1519.68
1518.02
1561.41
1591.68
1566.45
1590.76
1547.76
1511.5
1741.98
1691.69
1751.03
1448.19
1620.58
1561.73
1596.9
1582.03
1715
1650.34
1606.01
1748.7
1701.66
1707.33
1650.11
1701.4
1547.56
1645.11
1669.01
1640.57
1690.49
1705.4
1747.71
2066.3
1990.97
2085.15
1833.24
1904.97
1901.75
1852.32
1888.06
1782.55
1701.29
1716.09
1744.45
1643.2
1533.28
1793.86
1738.36
1666.84
1714
1808.82
2171.93
2109.5
2157.15
2141.03
2248.56
2025.57
1910.85
2178.36
2195.28
2267.46
1972.1
2129.77
1961.53
2260.55
2192.62
2186.55
1911.97
2041.18
1950.26
1482.19
1631.91
1532.83
1458.83
1490.6
2201.6
2149.72
2030.9
2086.76
2126.29
2028.76
1823.88
1965.76
2041.38
1619.87
1776.66
2096.75
1956.94
1979.04
1683.69
1827.69
1583.7
1931.61
1980.74
1965.3
2033.93
2135.11
2076.82
2215.38
2149.29
2050.53
2016.31
2435.57
2256.42
2353.96
2355.98
2299.1
2075.21
2199.59
2161.65
1517.72
1422.77
1437.64
1519.44
1605.55
1786.5
1928.25
1889.95
1683.08
1512.93
1767.58
1793.41
1752.88
1835.26
1953.07
1514.3
1746.81
1632.46
2164.83
1896.85
2018.29
2233.6
2325.13
1592.4
1870.12
1711.73
1715.91
1791.98
2120.33
2235.62
2168.36
2032.77
2002.74
1973.46
2059.93
2228.37
2363.74
2352.09
2364.87
2451.73
2546.88
2283.62
2446.22
2358.62
2295.16
2325.42
2592.43
2654.57
2663.89
2644.47
2721.28
2412.18
2481.93
2524.39
2105.78
2127.85
2118.03
2203.63
2281.9
2268.92
2368.27
2325.38
2211.78
2162.85
2524.6
2383.74
2459.11
2490.65
2437.93
2246.88
2339.07
2324.19
