# vtk DataFile Version 4.2
vtk output
ASCII
DATASET POLYDATA
POINTS 642 double
-2467.1 6198.41 -465.089
633.595 6027.35 -382.049
-2511.56 267.298 -34.4765
1506.96 279.268 31.3383
-628.197 1333.19 2744.03
-1135 4800.84 2141.01
-515.212 1647.44 -2387.72
-1108.77 5233.75 -2866.33
1910.69 3178.34 -1321.36
2121.65 3095.33 1464.63
-3186.23 3857.5 -1655.69
-3628.7 3504.15 1827.6
-3478.35 5150.13 1062.79
-2410.35 4428.06 2541.95
-1817.22 5747.24 1477.67
60.1543 5645.53 801.785
-602.201 6695.7 -200.496
224.24 6100.12 -1528
-1908.16 6468.71 -2004.67
-2335.94 4879.37 -2860.05
-3465.2 5411.88 -1397.86
-3938.63 3474.31 127.298
940.189 4005.68 2134.86
1704.74 4502.86 835.451
-2173.8 2118.09 2366.23
-486.568 3135.16 2789.86
-3135.1 1502.88 -841.824
-3224.76 1516.27 1061.14
-934.509 3811.61 -2456.65
-2002.63 2491.77 -2057.53
1427.09 4768.57 -703.807
623.87 4617.71 -1779.1
2492.27 1450.13 1039.86
1077.53 2220.36 2459.05
630.272 415.404 1744.28
-1796.89 345.011 1806.19
-531.834 57.1309 -55.8711
-1578.74 551.998 -1640.45
542.511 572.206 -1592.4
930.334 2218.98 -2124.39
2339.64 1558.24 -879.449
2578.33 2856.98 97.6086
-3036.56 5675.22 533.081
-2697.29 5612.93 1362.42
-2086.67 5944.74 781.047
-3115.16 4001.6 2311.24
-3062.5 4848.72 1962.43
-3666.39 4354.64 1522.98
-1494.47 5360.09 1900.37
-2179.33 5209.4 2105.61
-1793.28 4668.93 2457.23
-995.847 6423.02 447.8
-1362.88 6561.14 -283.411
-320.067 5089.08 1602.22
-871.666 5895.24 1035.63
72.6948 6469.57 -293.441
-276.009 6363.56 381.922
265.009 6042.97 268.813
-1357.2 6581.41 -1117.54
-2240.16 6547.05 -1339.96
546.233 6199.13 -890.177
-131.606 6595.82 -936.682
-1513.91 5952.74 -2548.18
-836.999 6293.15 -1851.4
-339.004 5742.12 -2115.09
-2840.02 6150.65 -1775.62
-3035.77 5977.22 -971.315
-1674.79 5142.7 -3133.26
-2244.37 5786.61 -2664.52
-3433.94 4803.85 -1657.39
-3131.78 5237.84 -2277.44
-2886.37 4394.87 -2384.21
-3511.03 5275.87 -67.8574
-3677.15 3504.01 -721.487
-3666.1 4492.78 -594.849
-3894.84 4404.89 600.206
-3897.76 3500.21 1006.94
1045.06 4973.92 1049.25
1114.09 5178.2 252.281
252.565 4309.38 2168.96
667.826 4729.1 1706.74
1986.59 3912.54 1191.71
1437.15 4328.05 1540.41
1563.18 3640.65 1915.33
-1824.98 3903.64 2734.9
-841.633 3847.05 2547.36
-3070.39 3067.34 2233.39
-2450.46 3525.76 2682.57
-445.548 2335.28 2873.61
-1467.56 3003.59 2733.82
-1446.06 1525.28 2621.37
-3833.77 2518.02 536.111
-3525.95 2638.77 1423.6
-3301.1 2530.12 -1218.41
-3704.27 2520.62 -414.966
-3003.3 763.688 588.769
-3343.52 1435.16 -22.0477
-3011.09 774.948 -546.837
-2278.92 3953.36 -2661.95
-2529.71 3224.28 -1989
-1172 4900.56 -2876.17
-1700.19 4541.35 -2992.39
-1234.01 1812.74 -2288.9
-1479.9 3263.74 -2557.44
-507.144 2362.4 -2478.54
466.252 5358.36 -1913.64
-237.825 5028.66 -2358.91
999.145 5619.16 -745.117
858.298 5631.58 -1235.4
1376.61 3610.94 -1672.69
917.843 4697.27 -1475.11
1854.66 3854.5 -1036.01
2150.59 747.332 572.907
1724.42 830.278 1408.7
1163.45 245.864 898.923
1715.75 2639.85 2001.79
1957.72 1722.8 1785.4
2495.85 2227.21 1284.48
-35.7658 845.765 2354.56
942.804 1218.14 2218.61
332.129 1768.01 2691.7
167.219 77.9524 1028.84
652.12 79.5025 8.62437
-1108.64 802.496 2462.01
-586.337 276.026 1936.46
-1697.05 52.1818 41.0062
-1293.86 84.3845 1023.7
-2198.26 183.953 1035.22
124.049 112.965 -941.591
1060.18 366.639 -826.171
-2167.38 320.274 -827.8
-1180.62 95.6213 -974.34
13.0578 1029.18 -2023.58
-580.836 475.336 -1694.46
-1137.91 976.35 -2085.97
1522.07 989.845 -1225.5
2070.49 817.49 -481.542
236.12 1922.03 -2336.54
816.266 1367.04 -1997.25
2280.53 2160.54 -1041.32
1683.31 1859.61 -1563.52
1486.54 2705.53 -1788.1
2618.45 1376.39 45.0582
2356.48 3017.48 -633.973
2710.58 2218.93 -395.563
2844.19 2245.57 514.286
2512.58 2908.24 751.055
287.214 2679.46 2796.77
1066.66 3159.22 2436.08
270.758 3545.05 2612.11
-2699.68 734.56 1564.66
-2129.45 1127.43 2388.81
-2788.82 1657.88 1882.46
-1817.53 1267.39 -2008.87
-2570 919.956 -1263.74
-2657.46 1901.32 -1565.33
912.037 3143.97 -2088.27
151.758 2751.95 -2445.47
-256.908 4000.64 -2381.58
2208.18 3895.79 479.063
2162.59 3876.79 -382.32
1753.73 4537.78 21.3931
-2731.98 5861.52 53.4556
-2633.43 5858.95 710.398
-2209.71 6027.89 243.219
-3115.18 5427.17 1232.51
-2894.07 5668.4 981.551
-3286.41 5444.01 821.82
-1995.9 5882.47 1149.42
-2452.59 5810.89 1108.14
-2258.16 5717.58 1435.88
-3408.44 3748.38 2099.27
-3438.55 4170.93 1964.74
-3685.72 3908.32 1707.96
-2759.68 4645.19 2309.74
-3109.61 4438.8 2175.02
-2775.02 4242.28 2469.13
-3602.41 4785.99 1299.43
-3396.57 4631.02 1765.54
-3310.37 5020.07 1536.89
-1393.21 5112.11 2051.67
-1653.55 5038.61 2203.55
-1536.34 4787.11 2307.76
-2004.1 5513.58 1800.16
-1826.85 5303.77 2022.7
-1642.87 5577.31 1711.5
-2078.79 4559.71 2540.96
-1981.83 4950.32 2317.17
-2309.93 4842.44 2360.3
-2907.91 5281.5 1684.42
-2623.36 5078.69 2084.73
-2452.07 5444.33 1776.64
-1628.7 6315.1 180.482
-1914.8 6321.38 -464.951
-1403.17 5987.11 932.363
-1521.17 6193.33 560.525
-943.345 6685.21 -180.542
-1128.24 6545.45 144.148
-820.071 6612.96 132.704
-794.417 4874.71 1828.4
-1150.51 5333.62 1758.97
-409.979 5924.01 896.83
-780.844 5529.41 1291.91
-48.4172 5337.21 1220.06
-1276.34 5563.17 1583.75
-1305.74 5760.24 1352.08
373.29 6269.56 -340.117
206.346 6265.94 26.0164
462.037 6057.17 -52.8577
-429.037 6567.87 113.99
-113.202 6449.25 84.5955
-273.959 6618.34 -252.235
142.413 5924.47 546.786
18.0374 6214.71 343.702
-163.065 6132.97 574.881
-866.904 6195.8 782.735
-499.09 6207.05 685.894
-637.902 6447.58 437.66
-1900.04 6482.5 -1002.94
-2365.14 6387.71 -984.933
-804.122 6695.77 -564.807
-1400.29 6591.29 -702.71
-2096.47 6591.49 -1638.56
-1904.92 6577.5 -1334.23
-1785.3 6568.96 -1629.74
613.743 6135.37 -649.453
334.038 6374.75 -625.752
61.1624 6390.27 -1249.22
213.732 6429.03 -928.72
395.376 6180.56 -1216.52
-17.3165 6572.6 -620.139
-341.59 6684.22 -596.193
-1325.85 5602.94 -2730.62
-1070.56 5841.28 -2390.6
-849.549 5461.92 -2480.81
-1517 6367.41 -2016.52
-1290.76 6145.67 -2233.47
-1710.62 6241.52 -2314.49
27.4224 5958.73 -1802.34
-595.447 6044.75 -2003.25
-188.221 6246.76 -1634.14
-561.866 6669.44 -974.246
-359.626 6506.13 -1337.29
-1077.01 6482.51 -1514.43
-2663.73 6313.56 -1176.78
-2743.88 6147.28 -715.941
-2360.92 6390.74 -1920.57
-2552.17 6429.1 -1534.3
-3280.91 5733.49 -1194.01
-2981.27 6114.46 -1391.55
-3214.78 5817.18 -1591.12
-1416.46 5210.78 -3013.81
-1594.11 5566.25 -2879.04
-2348.97 5301.33 -2838.23
-1930.79 5463.25 -2935.15
-1964.35 5034.13 -3080.23
-1838.44 5934.81 -2657.89
-2072 6194.65 -2389.49
-3296.69 4333.42 -1732.98
-3208.34 4625.65 -2026.2
-3053.61 4192.32 -2092.13
-3378.71 5337.19 -1851.38
-3341.49 5030.99 -1965.01
-3514.84 5090.45 -1563.41
-2642.66 4666.19 -2640.08
-3019.39 4901.89 -2333.28
-2772.26 5089.34 -2601.76
-2583.51 6014.44 -2278.07
-2747.79 5530.01 -2530.06
-3046.21 5707.46 -2087.51
-3015.98 5788.93 -275.344
-3448.19 5379.13 -826.024
-3276.64 5611.66 -563.759
-3306.7 5489.75 231.66
-3552.49 5213.76 567.338
-3369.89 3613.25 -1216.21
-3441.4 4254.55 -1201.58
-3872.31 3954.89 -143.092
-3703.64 4020.7 -665.131
-3847.53 3459.1 -315.589
-3534.24 4723.53 -1194.35
-3553.56 5006.11 -1107.17
-3846.39 3923.45 1321.77
-3817.04 3503.8 1462.21
-3748.23 4804.9 862.649
-3820.31 4410.54 1082.1
-3996.99 3497.69 518.889
-3929.61 3944.64 791.538
-3986.74 3953.94 363.33
-3655.28 4909.53 -340.762
-3893.8 4420.62 98.1435
-3774.23 4846.67 334.439
680.982 5654.93 115.231
776.25 5754.66 -198.063
542.571 5270.39 1035.38
541.846 5443.58 612.741
1501.71 4760.53 647.998
1141.94 5048.85 694.437
1387.71 4765.07 954.841
-264.304 4471.05 2125.76
76.7263 4684.32 1927.49
816.56 4402.18 1929.6
492.48 4548.44 1938.74
614.763 4158.91 2170.27
324.316 4869.6 1691.97
474.965 5045.15 1417.7
2065.18 3562.45 1351.09
1812.7 3787.9 1568.66
1835.14 3433.8 1736.25
1602.31 4428.37 1199.52
1727.44 4134.38 1383.43
1869.32 4215.76 1017.3
1263.09 3829.01 2047.11
1519.24 4003.1 1737.36
1219.25 4187.33 1850.78
877.22 4874.31 1399.57
1061.13 4555.97 1647.72
1259.06 4677.61 1312.64
-1557.58 4353.49 2514.62
-997.215 4396.12 2199.48
-2049.02 4154.14 2701.11
-1803.24 4263.92 2629.49
-584.932 3560.43 2674.46
-1441.29 4028.27 2621.25
-1300.67 3607.27 2570.32
-3380.21 3286.78 2069.05
-3146.12 3514.51 2313.64
-2415.91 3097.07 2582.87
-2790.52 3307.73 2478.24
-2641.88 2731.17 2303.13
-2811.22 3756.21 2515.19
-2452.27 3963.1 2647.06
-573.956 1746.29 2747.07
-884.273 1808.93 2719.44
-971.791 1418.29 2750.99
-1003.36 3007.52 2784.75
-819.469 2517.83 2799.09
-428.179 2733.87 2852.49
-1856.76 1658.67 2504.8
-1375.44 2053.39 2607.7
-1876.86 2582.4 2531
-2060.66 3715.51 2817.92
-2038.24 3357.61 2778.62
-1775.74 3468.29 2790.04
-3786.92 3100.9 1282.59
-3632.37 3138.91 1671.59
-3920.51 2996.16 327.634
-3875.33 3038.34 766.059
-3420.46 2038.98 1220.52
-3713.85 2553.28 981.021
-3611.08 2090.77 776.631
-3241.02 3020.77 -1371.71
-3488.81 2955.36 -986.175
-3463.58 2050.09 -680.814
-3523.19 2496.23 -842.771
-3272.7 2086.87 -1046.49
-3700.42 2972.53 -550.279
-3851.63 2972.12 -153.789
-2791.46 469.525 275.493
-3041.94 731.337 -38.012
-2795.42 475.678 -310.817
-3348.17 1472.72 517.177
-3222.33 1017.26 258.748
-3124.86 1050.46 862.52
-3126.27 1063.07 -732.566
-3226.4 1013.83 -309.056
-3266.29 1419.26 -475.219
-3840.08 2505.65 70.2434
-3596.13 2019.78 -209.396
-3679.09 2049.12 290.977
-2745.92 3974.47 -2335.74
-2906.77 3595.01 -1738.83
-2318.28 4366.92 -2804.11
-2572.83 4131.05 -2578.93
-2322.6 2946.9 -2079.09
-2447.63 3739.43 -2443.69
-2217.09 3512.95 -2414.73
-1139.59 5031.53 -2905.26
-1456.26 4991.2 -3028.22
-1525.21 4379.65 -2880.11
-1491.88 4750.85 -2967.42
-1180.88 4557.47 -2814.68
-1677.3 4898.68 -3090.51
-1898.81 4694.66 -3041.23
-883.43 1731.87 -2359.89
-843 2143.96 -2465.36
-501.884 1999.06 -2468.72
-1656.53 2957.5 -2370.24
-1193 2397.87 -2418.25
-1567.64 1981.69 -2177.27
-541.137 2914.43 -2512.04
-929.769 2649.92 -2485.21
-1329.71 3529.66 -2540.35
-1949.25 4199.14 -2899.62
-1740.41 4082.97 -2838.55
-1933.84 3796.2 -2714.77
-243.36 5312.8 -2309.76
-772.584 5065.99 -2665.46
354.18 5748.28 -1749.17
[...]
POINT_DATA 642
SCALARS Mean_Curvature double 1
LOOKUP_TABLE default
0.000689731
0.000852876
0.00083725
0.000977518
0.0015068
0.00169649
0.00116009
0.00200358
0.000821477
0.000493261
0.000990421
0.00134355
0.000937857
0.000905241
0.000855916
-0.000863095
0.00142321
0.000971442
0.00164514
0.000513459
0.00128973
0.00032406
0.000614309
0.000777692
-4.13794e-05
0.000293745
-3.07651e-05
7.97591e-06
-0.000977001
-0.000248409
4.78113e-05
3.89645e-05
0.00110508
0.000544513
0.000946829
0.00106285
6.52605e-05
0.000963882
0.00110031
0.000442628
0.000935434
1.96461e-05
0.000731736
0.00087623
-0.000177262
0.000862383
0.000784847
0.000721211
0.00102211
0.000937595
0.00107428
0.000839528
0.000651521
0.000324733
-0.000120835
0.000830296
0.00107639
0.000507383
0.000247902
0.00159946
0.00153649
0.00133993
0.00084834
0.000816743
0.000348761
0.00107152
0.000559368
0.00347371
0.00098407
0.000558813
0.00166585
0.000859554
0.000661095
0.000467347
-0.000102549
0.000607475
0.000308855
0.000529497
-2.84405e-05
0.000460959
0.000743945
0.000777263
0.000744181
0.000707011
0.000520062
-0.000225679
0.00080974
0.00100609
0.00101887
0.0001429
0.000290017
0.000939535
8.692e-05
0.000871956
0.000623608
0.00055235
-2.28688e-05
0.00111824
0.000746739
-0.000443467
-6.20125e-05
0.00155806
0.000390185
0.00160899
1.40146e-06
0.00120905
0.00176107
0.000998103
0.000882566
0.000528389
-0.000526431
0.000630134
0.00093295
0.000754555
0.00056935
0.000352657
0.00099404
0.0013865
0.000241106
0.000485461
0.000725538
0.000528758
0.000327484
0.00090488
0.00105828
0.000215219
-1.22104e-05
0.000995272
0.000889586
0.000396062
0.000531193
0.00103753
0.000251995
0.000917296
0.00121818
0.000295053
0.000936732
0.000479372
0.000894523
0.000521012
0.00053408
0.000546085
0.000862266
0.000405494
0.00156835
0.00196787
0.0002468
0.000535654
0.000647516
0.000777911
0.00098945
0.00157336
4.74666e-05
0.00167074
0.00083785
0.00027307
0.000394086
0.000647713
0.000585655
0.000743502
0.000833426
0.000423682
-0.000232446
0.00085777
-0.000277681
0.000916241
0.000802449
0.000911214
0.000849957
0.000866659
0.000828029
0.00103946
0.000825981
0.0009813
0.000920651
0.000840921
0.000999935
0.000837006
0.000774287
0.000814323
0.000429191
0.00104939
0.000379286
0.000810349
0.000876232
0.00108232
0.00111263
0.000988062
0.000952122
0.000861606
0.00095646
0.000865496
0.000372166
-0.000542339
-0.000387953
0.000403895
0.00136292
0.000950574
0.00143218
-0.0013888
0.000784205
0.000684097
-0.000699484
-0.000161623
0.000702918
0.000985176
0.000741867
0.00103018
0.000714299
0.00121235
0.00103235
0.000830015
0.0014484
0.0010694
0.000697643
0.00150333
0.000969396
0.00135372
-0.000238164
0.000451431
0.000549936
0.000684714
0.00220276
0.00128464
0.000938195
0.00123517
0.00132287
0.00102332
0.00120782
0.000899781
0.00112569
0.00128904
0.000535717
0.000358751
-0.000468756
0.000523309
0.000593052
0.00120051
0.000788449
0.000367781
0.000806212
0.00100162
0.000922382
0.000264322
0.00086103
0.000776772
0.0010159
0.00163965
0.000787547
0.00133587
0.00123537
0.00162201
0.00140426
0.00104678
0.00103684
0.0019835
0.00147323
0.00139769
0.000658604
0.000488286
0.00077213
0.00146859
0.00130655
0.00181801
0.000450002
0.000351513
0.00113168
0.000957436
0.001203
0.000964403
0.000346902
0.000537992
0.000524759
0.000429411
0.000918544
-0.000207275
-0.000504342
0.000278557
0.000606981
0.000671055
0.000578934
0.00070008
0.000885173
0.00122562
0.00100128
0.00076869
0.00116258
0.000276081
0.00103296
0.000464314
0.000886194
0.000790612
9.47718e-07
0.000973092
0.000949969
-0.000836534
0.000649716
0.000655763
0.000745397
0.000505183
0.000495948
0.000737729
0.000628558
0.000472591
0.000528107
0.000607663
0.000747191
0.000759447
0.000732254
0.000730776
0.000764749
0.0007376
0.000619117
0.000720599
0.000683736
0.00070609
0.000782131
0.000779138
0.00040991
-0.00127994
0.00133741
0.000844482
0.00134766
0.00177721
-0.00179606
0.00111737
0.00104632
0.000695957
0.000700501
-0.000175852
0.000739095
0.000616827
-7.24493e-05
-7.44711e-05
0.00160832
0.000887685
0.000182546
0.000560598
0.000116759
-0.000287836
-0.000307432
0.00215924
0.00104516
0.00154925
0.000778657
0.0010046
0.000594269
0.000237954
0.00055493
0.000514409
0.000537765
0.000667627
0.0003204
0.000637463
0.00073729
0.000613894
0.000198811
0.000581147
0.000869642
0.000656164
0.00115378
0.000114738
0.0010153
0.000600364
0.00175413
0.00154881
0.000149695
0.0010361
0.000471589
0.000768446
0.000751864
-0.000982659
0.000876007
0.0011465
0.000537968
0.00117032
-8.75167e-05
0.00308675
0.00146057
0.000225924
-0.000209385
0.000654778
0.00219632
0.00132125
0.000512931
0.000908452
0.000904738
-0.00015602
0.000584011
5.37499e-05
0.000240336
0.000156732
-0.000333175
0.00170527
0.00108145
0.000924574
0.000772402
0.00202823
0.00085503
0.000624088
0.000237171
0.00191117
0.00185945
0.00045258
0.00226848
0.000877537
0.00162175
0.00186835
0.000889247
0.000914345
0.000732985
0.000559164
0.000753182
0.000524598
0.000529015
0.000453956
0.00041217
0.000478328
-0.000301958
0.000946319
0.00106236
0.00165378
0.000755444
0.000806066
0.000954752
0.000906199
0.000881603
0.00101449
0.000822091
0.0005936
0.000579837
0.000307092
0.000604737
0.000391725
0.00019384
0.000118672
0.000543753
0.000811056
0.000737876
0.0011894
0.000601563
0.000663756
0.000712792
0.000879695
0.000588385
0.000677331
0.000661092
0.000669794
0.000391653
0.000913701
0.0005869
0.00042792
0.000831064
0.00108152
0.000946107
0.000832534
3.60304e-05
0.000121755
1.56366e-05
0.00147383
0.00116556
0.000781735
0.00103491
-0.000134673
0.000704127
0.000611125
0.000894538
0.000733713
0.000535461
-0.000124973
0.0013528
-0.000108225
0.00133151
0.000420076
0.000679569
0.000550655
0.000998783
0.00023757
0.0004829
0.0008439
0.000308446
0.000652598
0.00091724
0.000975931
0.00112163
0.00141158
0.000718055
0.00105917
0.000709464
0.000697843
0.00042661
0.000169473
0.000512473
0.000740095
0.0001805
0.000599551
0.000489547
0.00094719
0.00110339
0.000560685
0.000998111
0.00088399
0.000666029
0.000423293
0.000768303
0.000839572
0.000714559
0.000374611
0.000987894
0.00082278
0.000745233
0.000846576
0.000349941
0.00104789
0.000507642
0.00034095
0.000605582
0.000927772
0.000217331
0.000149107
0.000613902
0.00104882
0.000380838
0.00167528
0.000515562
0.000296966
0.000624209
0.000582261
0.000867945
0.000401001
0.00083616
0.000876161
0.000905557
0.000949489
0.000893674
0.000600121
9.5517e-05
0.000902074
0.000550105
0.000230831
0.00114217
0.00153296
0.000975481
0.000258916
0.000694162
0.00154605
0.000324214
0.00101701
0.00120711
0.000833979
0.00186733
0.00119752
0.000226122
0.000631636
0.000501331
0.00156121
0.000310778
0.000690566
0.000556757
0.00065989
0.000677167
0.000759632
0.000108906
0.000839254
0.000417983
0.000346968
0.000552565
0.000945985
0.000724126
0.00096807
0.000523615
0.00107627
0.0010029
0.00104834
0.00116774
0.00106378
0.00134247
0.00168096
0.000486472
0.00112299
0.000405862
9.49218e-05
0.000498417
0.000229231
-4.30713e-05
0.000999298
0.00161679
0.0015127
0.000388912
0.00100247
0.00165113
0.000683582
-0.000119306
0.00115462
0.00145928
0.000960186
0.000655551
0.000475247
0.000523945
7.34476e-05
0.000589081
0.000700763
0.000151494
0.00117588
0.000372857
0.000211379
0.000692472
0.000591889
0.000703878
0.000588618
0.000282595
0.000848878
0.000728851
0.000446852
0.000673098
0.000365704
-0.000491017
-0.00112958
-0.000606075
0.000172774
0.000440151
0.000676969
0.0007694
0.00019167
0.00073767
0.000488991
0.000530159
0.000822371
0.000706759
0.000780528
0.000626243
0.00071698
0.000777904
0.000661765
-9.29775e-05
0.000534629
0.000272436
-0.000627883
0.00112836
0.000928805
0.000702514
0.000595938
SCALARS CoVolArea double 1
LOOKUP_TABLE default
259017
96406
177741
170274
128394
197926
137354
121777
148090
180445
218358
138947
201439
174625
193334
246290
136833
151934
167759
200724
196605
222318
163977
140348
336113
245115
227872
292372
411590
383734
245635
240949
213664
234337
235722
232181
398530
195137
179549
172297
179068
202141
235095
190591
261334
187988
216449
209055
118443
169838
120832
187712
254161
350261
191469
134415
115746
170925
294118
141123
115864
149446
162600
269937
261501
237155
224352
107342
241870
188344
195262
188175
279269
298417
303116
224616
220253
206028
244303
190382
144168
147312
150357
153838
149402
301377
226306
178760
203433
347925
190781
233394
275383
191118
233113
224096
283861
165690
150219
335960
84141.3
95716.6
194186
267017
171499
122915
130571
125340
127032
174980
224568
147391
217028
254686
232252
231914
208682
152236
240883
254508
207848
278808
245564
225218
240684
234373
295063
221276
226630
236841
207231
234108
205296
223315
150002
252094
201487
175786
177438
153396
198806
194865
230830
210001
136027
143590
195412
184809
171642
151876
213536
179099
262849
140607
199889
267320
183671
170365
402107
175917
152505
219305
298849
248926
373488
203519
177322
190620
213305
174310
176218
176054
203456
185488
197253
196915
181763
198833
207522
217061
153096
115472
160235
162437
133894
133524
134407
135751
172780
233488
220956
210645
318407
355524
267677
250901
162673
182044
125624
300950
239335
252668
319296
334298
160026
196945
117800
121809
136720
129750
126920
130576
175001
105835
138230
197218
142881
139869
218634
212410
231356
224031
137510
157651
207347
95712.4
118687
157944
130630
135945
127955
149897
175078
235562
251996
221128
201951
152602
182673
241933
210290
267645
247501
331629
175156
229044
227044
173777
201293
182202
216469
106151
152552
221213
188573
145248
176777
215162
241918
185843
211617
195445
151285
144283
196658
186099
197181
285070
258739
271426
274092
266290
254591
247378
228660
325349
311355
273668
286542
235422
221297
238611
215613
178036
215586
220186
211569
226612
222015
331274
290223
272345
260294
164840
242118
289190
169656
243192
148823
292787
246981
152125
145157
155198
208802
217824
182525
150300
182805
146033
138851
131378
150526
144931
157348
181244
164547
162532
210758
340762
144533
117876
225827
185870
297078
169918
174154
295769
197253
317203
183358
187139
195103
246945
148552
277911
314321
171919
240297
399380
406594
146213
233817
205576
226554
189011
226645
239363
287000
257799
285870
268724
259335
252499
209799
223520
224659
225368
231771
203454
190655
315026
233619
233681
156978
188823
238469
245683
292794
296298
238924
335883
195508
155581
282233
178038
281543
63521.1
66313.1
225343
92705.6
233276
76824.6
154254
170782
171007
131222
393149
276926
304978
314789
264508
347447
147046
176050
228611
234570
143026
152372
181381
218083
124509
104801
104201
85590.6
182519
91257.3
137827
121785
149227
140456
165996
143638
157611
217100
195107
222980
228977
304341
147186
193644
145920
216468
230447
208435
225044
221354
204978
225700
240551
258856
218091
197512
185557
251332
217933
222773
174059
174519
199980
191023
227319
209660
247728
233424
227898
202703
216791
255978
256677
275950
292274
220145
200375
246998
227873
321410
278864
391508
156951
200705
250914
219600
253099
219990
253731
214795
223420
244769
384137
245080
317548
197366
213546
247173
291545
295366
355231
232238
213588
293592
241059
199237
210024
203223
183304
216105
207505
219779
212897
256738
311255
199459
195477
183981
211446
198030
169285
148876
177862
191008
272219
248534
265116
220422
207043
226218
233356
185500
208223
215780
159051
204496
161378
168757
161583
172786
184254
216680
213694
188998
185467
157243
121346
175473
197869
182489
258758
224836
264581
218597
215400
207622
212233
229386
198509
193970
149164
162125
200989
119608
165845
158799
206984
206024
144124
175713
133055
132038
221660
156518
226687
221307
203608
191488
160773
171091
195566
174121
161198
189285
196351
300437
178054
194822
172703
170814
196782
181710
184226
239921
220610
209898
208031
228922
184372
182684
146581
228146
237107
264074
270890
313773
322274
300838
230005
209762
232161
155301
183234
120987
141461
239189
183274
193470
164954
206808
229838
276048
318027
282646
216677
257937
214131
239552
231956
150748
179267
154402
163350
314758
146630
275996
167027
165435
188817
89178.5
526252
326126
214227
321409
196203
244175
365556
195203
225013
201273
153863
149597
161975
180900
137368
177206
213835
240051
170102
266646
260879
206411
191202
180215
174170
SCALARS SignedDistance double 1
LOOKUP_TABLE default
1036.66
1289.55
784.894
792.496
1074.66
1426.89
1147.29
1352.08
1195.67
1062.26
1277.71
832.076
842.196
1062.98
1174.29
1469.35
1030.79
1057.78
956.445
977.773
897.005
953.099
1204.67
1228.78
1109.08
1164.24
1059.53
942.4
1684.21
1244.32
1396.75
1542.42
810.286
1000.76
797.501
797.608
929.345
919.134
942.239
1196.4
982.204
1157.51
987.967
984.138
1159.39
884.026
877.009
822.316
1276.09
1112.05
1256.16
1138.06
1003.31
1417.62
1352.23
1147.66
1226.11
1336.33
1168.13
1059.57
1156.18
996.477
1035.53
1183.91
1166.84
724.827
869.473
1232.63
771.583
1026.6
894.161
1039.78
962.765
1062.8
1053.22
912.321
909.218
1279.98
1407.68
1259.61
1256.29
1152.6
1193.04
1136.54
1248.04
1383.15
967.268
1027.2
1088.77
1352.28
1188.17
881.616
929.711
1054.5
975.719
848.807
966.038
862.069
1274.06
1398.65
1393.99
1294.17
1161.6
1633.63
1243.2
1285.45
1477.94
1352.65
1231.04
1299.18
1517.15
1248.42
745.837
802.65
807.292
1036.99
992.203
1001.21
884.712
913.321
999.914
907.227
905.982
854.857
798.059
925.279
900.724
803.044
892.069
877.827
881.437
888.256
1060.64
950.085
1114.32
978.169
829.265
1166.14
1080.63
1150.39
1131.84
1196.34
819.209
1124.88
1073.97
1020.88
1116.43
1100.81
1121.63
1210.39
770.37
984.741
1051.25
1208.01
1038.34
1139.53
1298.01
1235.15
1693.3
1180.68
1204.62
1269.91
1034.51
1084.4
1077.36
901.818
971.921
894.985
1138.77
1051.29
1075.02
843.785
827.639
811.707
944.818
866.289
945.067
822.014
835.359
848.236
1312.25
1262.7
1307.48
1128.38
1191.88
1227.78
1171.79
1184.99
1081.13
919.954
991.546
1029.03
1062.14
1115.67
1230.16
1131.24
987.47
1062.26
1067.89
1433.16
1371.16
1385.11
1443.11
1466.15
1333.75
1343.32
1217.92
1254.7
1310.57
1126.11
1182.84
1075
1401.53
1287.66
1311.12
1269.73
1280.94
1178.87
1205.42
1032.89
958.344
1059.95
1036.84
1179.34
1131.16
1232.47
1160.64
1002.7
1060.67
1070.48
1075.97
1023.49
1131.42
1232.03
1348.33
1087.02
1151.05
976.54
1074.1
1126.45
1001.76
934.656
944.831
1165.56
926.379
949.62
784.904
884.711
853.139
829.95
779.842
1251.89
1054.42
870.015
913.939
1107.84
922.494
826.834
1107.23
1006.01
1109.11
858.706
960.401
978.261
970.089
937.739
924.261
677.759
777.058
711.642
978.157
920.105
937.127
937.492
872.392
1221.38
1113.6
949.047
1055.54
992.628
1045.91
996.036
863.847
846.519
824.461
846.303
934.492
874.345
926.701
990.162
944.285
851.38
1441.98
1388.87
1387.64
1483.3
1269.66
1312.09
1252.23
1312
1297.79
1231.31
1253.08
1238.8
1287.87
1305.39
1108.05
1134.56
1101.07
1206.7
1172.93
1190.2
1169.17
1164.12
1190.39
1265.31
1226.32
1234.04
1314.85
1408.94
1190.9
1258.23
1272.33
1378.55
1359.72
887.033
909.552
1100.19
981.984
1054.09
933.338
1016.91
1058.49
1102.66
1107.24
1209.4
1105.86
1149.69
1230.51
1153.06
1140.37
1188.71
1239.61
1325.38
932.075
885.746
940.66
949.491
888.106
894.494
892.1
1150.18
1059.09
960.189
1003.47
1003.47
1021.55
990.908
781.76
830.775
779.917
924.07
927.989
964.385
1020.62
938.397
1029.75
923.165
932.027
908.181
1188.45
1318.46
1126.68
1163.42
1370.6
1321.08
1462.3
1409.69
1304.18
1359.57
1298.66
1441.82
1267.08
1197.17
1150
1228.28
1232.19
1448.82
1243.65
1209.51
1311.66
1249.61
1682.31
1311.63
1402.18
1452.87
1349.86
1545.66
1140.77
1181.6
1393.23
1361.4
1411.2
1307.35
1277.45
1350.08
1303.83
1464.87
1167.3
1132.56
1244.37
1271.06
1224.79
1552.28
1382.49
1413.23
1274.47
1320.88
1452.72
1235.27
1340.94
1395.79
773.098
766.791
791.699
783.663
758.949
746.786
787.991
800.454
815.279
1049.89
1056.47
1067.41
1009.88
1026.56
1022.93
901.666
971.717
906.338
988.225
919.282
1023.44
855.118
892.732
833.954
990.305
948.464
974.44
871.75
961.661
891.514
887.133
866.431
828.936
867.646
920.349
907.72
915.82
970.783
855.245
795.85
785.32
836.636
840.437
821.886
882.811
810.824
789.295
918.809
958.16
922.723
763.563
885.725
842.159
842.861
877.005
928.489
872.195
848.167
932.076
913.445
883.99
851.45
892.794
809.636
870.473
862.558
853.255
878.92
911.956
923.314
1090.12
1072.76
1115.07
978.656
1013.74
1026.58
1000.1
1014.75
949.028
896.459
892.585
915.185
874.346
801.413
941.777
923.319
890.996
917.785
979.389
1162.68
1114.79
1171.73
1163.65
1186.33
1092.7
1029
1141.44
1149.82
1198.36
1104.96
1153.73
1108.16
1189.34
1150.61
1156.54
1003.1
1095.44
1055.51
773.864
872.201
801.044
761.138
790.185
1154.27
1142.6
1102.98
1120.86
1134.86
1106.57
1043.99
1067.8
1074.36
867.22
993.339
1148.05
1076.04
1090.66
938.184
1047.31
879.318
1006.43
1043.34
1050.67
1111.98
1130.69
1091.44
1168.11
1132.77
1084.63
1066.3
1295.89
1211.92
1262.05
1248.1
1221.31
1100.34
1169.36
1151.78
793.979
721.807
740.572
810.344
888.736
1048.55
1133.39
1149.71
972.435
808.681
949.728
989.051
914.298
970.932
1091.76
809.042
1030.79
936.99
1194.9
1049.12
1147.86
1243.26
1290.35
832.693
1107.49
930.543
927.245
962.746
1146.64
1201.31
1172.75
1075.28
1081.2
1152.32
1226.64
1284.83
1249.88
1252.7
1257.27
1300.69
1366.34
1232.37
1346.19
1252.28
1213.62
1231.96
1492.41
1532.65
1594.27
1535.04
1767.77
1281.33
1356.83
1353.16
1106.6
1113.98
1117.04
1165.98
1208.38
1197.96
1244.9
1224.08
1168.15
1137.37
1431.29
1263.95
1309.4
1439.99
1306.66
1194.9
1231.83
1233.56
