# vtk DataFile Version 4.2
vtk output
ASCII
DATASET POLYDATA
POINTS 642 double
-2379.17 5950.01 -552.105
374.889 5816.85 -475.486
-2409.48 455.385 -32.3602
1410.62 472.476 53.3137
-649.971 1380.44 2461.14
-1276.25 4629.18 1839.36
-507.208 1739.59 -2091.66
-1280.91 5157.72 -2591.57
1664.07 3121.62 -1114.73
1885.9 3033.1 1304.15
-2945.04 3970.33 -1461.43
-3442.24 3526.63 1700.42
-3306.96 5014.12 993.817
-2350.12 4328.91 2283.72
-1823.08 5477.6 1322.47
-52.2021 5400.42 533.232
-635.125 6425.22 -247.536
79.028 5914.4 -1366.23
-1919.39 6257.41 -1906.9
-2210.14 4903.98 -2635.84
-3239.83 5332.24 -1382.09
-3680.97 3485.81 176.63
814.73 3848.51 1873.3
1463.73 4281.35 759.404
-2058.15 2147.46 2101.3
-475.122 3064.92 2480.07
-2903.6 1569.15 -711.032
-3004.32 1601.92 986.013
-1001.12 3869.81 -2062.93
-1865.81 2574.63 -1765.08
1147.62 4638.75 -539.049
417.562 4607.68 -1414.36
2308.5 1523.64 950.554
939.135 2254.05 2224.15
566.772 582.309 1622.07
-1759.25 520.09 1685.91
-531.917 313.623 -57.5195
-1500.53 723.651 -1481.66
471.743 742.695 -1419.55
790.099 2236.23 -1827.58
2147.64 1640.84 -727.861
2279.93 2736.09 124.147
-2899.9 5447.59 503.724
-2601.81 5390.96 1247.17
-2006.64 5642.13 710.912
-2977.6 3966.95 2117.41
-2929.78 4727.06 1806.2
-3473.22 4291.23 1424.67
-1590.7 5139.52 1657.89
-2154.78 5010.59 1885.12
-1873.08 4523.18 2163.59
-953.354 6171.05 284.349
-1261.36 6313.3 -333.393
-386.259 4836.97 1343.87
-991.402 5684.95 758.607
-82.7101 6215.03 -366.847
-397.789 6119.95 202.174
36.5648 5834.28 97.078
-1351.09 6320.31 -1090.32
-2180.28 6291.04 -1395.32
342.21 5981.21 -849.123
-219.824 6349.37 -883.849
-1603.11 5783.75 -2360.34
-895.966 6086.12 -1707.44
-442.721 5605.06 -1885.95
-2721.87 6014.42 -1717.13
-2874.96 5808.95 -1014.02
-1726.28 5118.38 -2827.34
-2179.79 5682.18 -2501.65
-3176.92 4864.06 -1565.07
-2953.49 5220.6 -2125.53
-2692.66 4457.09 -2199.33
-3300.35 5139.02 -64.5581
-3425.21 3517.62 -589.973
-3390.94 4461.1 -530.724
-3650.71 4352.69 581.995
-3651.4 3519.81 963.463
871.342 4699.04 920.743
858.351 4925.48 189.037
200.839 4120.93 1883.56
559.384 4491.35 1482.81
1736.59 3767.9 1064.86
1244.84 4137.17 1358.2
1372.11 3529.95 1696.6
-1918.1 3837.15 2417.79
-920.264 3635.13 2287.64
-2934.57 3155.47 2028.98
-2358.6 3551.89 2436.05
-415.452 2355.69 2583.29
-1417.21 3068.19 2417.75
-1374.56 1506.31 2322.92
-3602.51 2579.41 502.139
-3318.88 2724.44 1307.12
-3078.65 2577.72 -1045.38
-3457.57 2572.67 -325.972
-2827.1 893.202 559.216
-3105.53 1521.21 -3.84497
-2845.23 904.319 -486.749
-2159.24 4090.73 -2403.34
-2301.19 3319.04 -1762.1
-1337.86 4982.82 -2560.3
-1791.09 4643.89 -2673.4
-1136.7 1869.39 -1992.03
-1484.19 3336.81 -2210.05
-505.625 2374.32 -2135.95
274.78 5265.72 -1666.19
-416.735 5077.03 -2034.44
690.451 5445.31 -793.328
603.503 5487.12 -1103.58
1176.08 3497.17 -1404.01
597.469 4600.17 -1208.09
1603.96 3705.97 -858.178
2012.11 894.39 542.641
1612.09 969.086 1283.48
1088.26 444.973 841.317
1524.26 2626.76 1790.43
1798.14 1758.45 1572.05
2284.12 2201.24 1125.45
-92.7306 977.885 2158.4
831.817 1316.29 2017.06
266.821 1823.97 2435.95
158.349 324.999 1006.3
636.331 328.171 18.0786
-1065.93 929.864 2287.73
-601.612 463.5 1829.65
-1682.99 306.378 65.232
-1295.64 330.357 995.471
-2119.36 381.127 1004.31
105.149 347.602 -877.101
962.513 565.749 -733.308
-2083.35 523.08 -727.143
-1161.66 331.558 -918.587
-26.7598 1164.74 -1768.82
-596.136 663.827 -1520.32
-1116.39 1095.44 -1816.18
1377.92 1133.81 -1050.47
1924.69 967.314 -400.197
152.05 1986.08 -2034.64
712.346 1468.31 -1747.68
2054.04 2115.62 -826.307
1488.84 1903.14 -1325.58
1283.33 2695.09 -1531.95
2417.01 1468.6 71.7864
2080.79 2946.86 -512.593
2448.06 2174.02 -286.637
2582.21 2212.13 470.336
2233.84 2798.85 679.416
219.633 2661.76 2504.79
919.848 3086.76 2175.99
211.031 3403.62 2320.32
-2559.15 856.353 1477.41
-2040.12 1205.63 2178.64
-2587.53 1689.35 1694.87
-1672.72 1307.61 -1729.62
-2423.38 1036.82 -1086.61
-2486.37 1984.76 -1323.91
759.068 3068.66 -1775.51
67.5427 2749.13 -2118.34
-441.83 3920.22 -2035.38
1924.92 3745.48 446.336
1881.43 3725.15 -300.707
1492.1 4306.74 31.8796
-2621.5 5607.91 -2.0274
-2544.07 5590.24 664.489
-2112.53 5759.11 176.819
-2978.97 5247.56 1140.01
-2776.2 5442.77 914.161
-3132.97 5262.61 776.746
-1961.42 5598.98 1047.13
-2386.54 5549.44 1025.13
-2210.31 5463.3 1298.83
-3246.32 3738.56 1936.34
-3272.43 4115.84 1821.13
-3494.38 3879.19 1598.67
-2660.78 4534.73 2108.08
-2970.74 4358.93 2002.65
-2672.56 4181.34 2249.34
-3417.46 4691.16 1211.77
-3231.25 4539.79 1636.06
-3156.24 4891.02 1422.06
-1528.52 4925.36 1784.65
-1740.67 4855.98 1931.28
-1664.16 4639.96 2013.08
-1992.61 5278.22 1609.63
-1860.82 5090.5 1787.69
-1695 5326.78 1507.88
-2085.3 4430.55 2260.24
-2005.05 4775.3 2055.28
-2267.63 4692.6 2119.56
-2791.58 5111.78 1545.88
-2537.09 4915.63 1894.63
-2386.24 5231.68 1610.32
-1516.37 6060.58 96.6424
-1817.92 6062.09 -538.802
-1381.08 5709.61 767.166
-1449.82 5929.89 425.512
-900.796 6424.11 -221.495
-1047.38 6292.6 41.6798
-812.561 6349.72 20.9378
-912.237 4632.39 1530.31
-1293.09 5116.99 1505.65
-525.865 5710.06 626.731
-909.242 5278.08 1028.29
-138.063 5067.09 979.373
-1397.68 5315.47 1361.12
-1364.44 5477.74 1149.93
162.214 6035.6 -427.458
4.89131 6032.08 -101.436
216.937 5845.48 -187.086
-510.397 6303.02 -1.72147
-255.553 6195.1 -34.7984
-375.169 6354.27 -314.065
-49.5045 5709.2 319.639
-160.997 5987.46 162.176
-314.677 5920.85 343.757
-887.818 5951.76 550.108
-590.415 5980.18 448.608
-680.711 6192.49 261.163
-1819.24 6213.41 -1085.22
-2291.57 6136.2 -1066.82
-786.814 6432.61 -555.011
-1340.6 6329.01 -715.429
-2069.7 6342.61 -1608.82
-1888.67 6288.35 -1373.2
-1820.01 6299.35 -1585.97
373.421 5913.88 -700.352
150.106 6127.88 -657.663
-56.9778 6174.29 -1134.84
66.6381 6195.11 -878.949
223.317 5979.51 -1101.98
-142.395 6313.1 -638.677
-399.555 6415.67 -601.285
-1451.3 5454.41 -2518.64
-1187.07 5688.78 -2177.74
-981.434 5334.98 -2251.86
-1577.39 6146.14 -1901.67
-1376.01 5955.92 -2060.97
-1762.22 6048.23 -2164.21
-91.563 5793.68 -1596.06
-679.985 5886.32 -1817.46
-279.913 6052.72 -1469.3
-577.082 6417.94 -920.723
-415.578 6282.37 -1224.45
-1100.23 6241.12 -1430.5
-2547.34 6106.27 -1228.39
-2617.73 5936.23 -782.286
-2292.44 6230.09 -1843.72
-2449.99 6234.47 -1524.33
-3088.5 5602.4 -1211.36
-2830.23 5951.04 -1397.82
-3044.87 5699.56 -1554.05
-1548.13 5158.03 -2729.99
-1661.44 5430.71 -2661.4
-2246.59 5258.85 -2641.11
-1899.47 5374.24 -2748.29
-1896.25 5039.47 -2828.59
-1852.29 5786.75 -2473.69
-2041.42 6039.86 -2254.49
-3034.55 4403.52 -1615.15
-2982.97 4681.98 -1884.55
-2826.94 4294.87 -1935.7
-3181.26 5286.97 -1765.78
-3118.42 5063.22 -1838.41
-3259.28 5092.07 -1505.34
-2489.5 4703.26 -2434.15
-2832.52 4943.43 -2161.29
-2618.55 5096.26 -2401.26
-2493.24 5897.19 -2168.09
-2632.18 5463.32 -2377.79
-2909.74 5615.46 -1991.49
-2862.48 5579.08 -327.227
-3222.77 5276.1 -831.772
-3085.72 5448.37 -592.502
-3137.14 5305.08 215.282
-3365.08 5069.54 547.421
-3103.61 3639.74 -1067.01
-3172.55 4296.89 -1085.38
-3621.41 3938.64 -71.9185
-3443.68 4010.22 -563.586
-3592.62 3468.03 -232.523
-3257.36 4754.14 -1126.11
-3285.28 4979.33 -1084.01
-3621.79 3900.75 1259.85
-3599.2 3525.15 1389.27
-3544.81 4716.02 822.124
-3605.06 4357.94 1027.92
-3748.96 3514.41 509.687
-3695.17 3926.01 756.406
-3738.71 3934.71 377.085
-3406.69 4835.91 -302.7
-3645.88 4370.75 139.989
-3559.3 4755.86 340.26
441.697 5419.27 -40.6338
495.488 5546.12 -306.301
388.679 4987.98 878.937
293.978 5161.25 472.125
1267.14 4509.21 596.915
940.752 4773.26 602.952
1177.62 4515.01 850.31
-290.786 4266.79 1831.46
35.4861 4456.41 1659.24
699.249 4207.42 1680.21
413.765 4337.77 1679.35
526.86 3982.18 1892.17
254.05 4616.24 1459.78
376.753 4772.71 1215.44
1817.52 3465.22 1205.59
1590.38 3661.51 1392.78
1615.17 3353.97 1546.68
1382.66 4219.7 1067.16
1503.8 3965.01 1227.55
1622.1 4029.61 913.624
1102.2 3693.82 1804.59
1326.05 3852.45 1533.12
1059.45 4015.67 1624.2
733.946 4615.19 1220.69
908.332 4340.1 1441.63
1074.1 4441.5 1156.97
-1678.71 4208.06 2216.34
-1082.76 4244.81 1846.82
-2054.39 4060.75 2401.17
-1880.3 4149.18 2320.82
-577.717 3446.21 2354.98
-1517.14 3956.18 2283.08
-1332.87 3559.06 2191.94
-3218.29 3347.03 1903.28
-3008.5 3541.16 2110.32
-2323.48 3183.78 2334.45
-2673.2 3372.33 2247.87
-2510.25 2822.58 2062.3
-2696.84 3751.17 2286.29
-2372.4 3917.12 2394.43
-562.176 1770.18 2457.09
-830.361 1808.67 2427.07
-929.166 1427.13 2462.92
-983.635 2960.76 2471.85
-762.404 2530.8 2501.75
-405.077 2695.76 2537.95
-1775.03 1629.49 2191.78
-1306.28 2067.21 2319.73
-1812.35 2642.85 2238.45
-2054.15 3687.69 2513.63
-2001.75 3420.97 2476.37
-1838.74 3443.48 2458.26
-3559.61 3163.51 1213.32
-3438.64 3214.99 1556.78
-3669.38 3027.8 334.573
-3626.41 3083.1 721.298
-3216.25 2126.58 1120.42
-3493.62 2622.73 901.711
-3393.5 2187.54 715.926
-3011.84 3043.67 -1175.44
-3242.23 2972.49 -840.489
-3236.02 2135.04 -580.661
-3283 2542.86 -717.774
-3060.99 2172.49 -895.421
-3445.92 2998.03 -438.064
-3593.77 2998.2 -84.1832
-2650.11 628.711 259.722
-2866.31 865.902 -37.1751
-2655.84 634.293 -282.276
-3125.92 1568.3 484.328
-3005.63 1117.58 241.199
-2901.27 1146.65 816.389
-2908.17 1140.61 -628.439
-3005.78 1102.59 -276.636
-3013.6 1488.38 -400.777
-3598.5 2564.95 105.018
-3364.4 2114.88 -154.954
-3451.92 2151.78 287.372
-2540.02 4107.4 -2149.02
-2680.27 3712.79 -1488.93
-2195.8 4436.97 -2556.9
-2407.29 4232.53 -2350.83
-2141.04 3052.36 -1800.02
-2286.12 3893.92 -2207.36
-2100.72 3661.6 -2146.33
-1316.96 5104.65 -2588.65
-1604.2 5076.49 -2719.91
-1640.38 4487 -2559.62
-1625.15 4839.94 -2656.61
-1318.54 4637.6 -2485.66
-1758.72 4989.61 -2772.78
-1866.91 4770.12 -2748.45
-827.373 1809.25 -2058.72
-799.348 2185.08 -2134.97
-494.955 2040.78 -2133.1
-1530.62 3069.09 -2075.93
-1105.17 2454 -2095.79
-1430.13 2032.65 -1883.35
-542.192 2915.54 -2162.21
-913.309 2677.85 -2144.98
-1468.29 3557.9 -2166.05
-1920.13 4316.38 -2592.27
-1811.53 4206.05 -2509.06
-1866.48 3937.32 -2418.58
-377.339 5228.39 -2030.33
[...]
POINT_DATA 642
SCALARS Mean_Curvature double 1
LOOKUP_TABLE default
0.000593321
0.000882234
0.00108959
0.00122533
0.0013914
0.00243315
0.00155625
0.00399263
0.000956942
0.000653691
0.00114399
0.00174142
0.00116397
0.000965879
0.0011564
-0.00159853
0.00199132
0.00120248
0.00220755
0.00055104
0.00161517
0.000197978
0.00069875
0.00096511
0.000193093
0.000332661
1.72705e-05
1.58514e-05
-0.00109357
-0.000147875
-0.000449726
0.00012181
0.00143715
0.000659214
0.00120149
0.00124998
4.01462e-05
0.00120934
0.00145525
0.000431011
0.00132365
-0.00026967
0.000780187
0.00101112
-0.00062932
0.00100045
0.000954572
0.000835337
0.00120459
0.00108662
0.0010774
0.00109148
0.000747383
0.000515618
-0.000997409
0.00101897
0.00130804
0.000496098
0.000448689
0.00155837
0.00266506
0.00187163
0.000727714
0.00109631
0.000392415
0.00151664
0.000716194
0.00555558
0.00129937
0.000397016
0.00208418
0.00114449
0.000860806
0.000469905
-0.000321331
0.000428298
0.000140844
0.000503808
-0.000254707
0.00054857
0.00086586
0.000887866
0.000889857
0.000798375
-8.53629e-05
-0.00117274
0.000904048
0.00156718
0.00127857
-0.000105189
-0.000180675
0.0011926
3.24416e-06
0.00105674
0.000658426
0.000791769
-6.63448e-06
0.00162188
0.000829453
-0.000359458
-0.000202958
0.000622953
0.000666724
0.0044652
-0.000103699
0.00241135
0.000976692
0.000357804
0.00115262
0.000613424
-0.00141218
0.000702054
0.00112555
0.000910513
0.000688536
0.000417616
0.00093569
0.00183469
0.000198609
0.000534905
0.000814992
0.000409126
0.000267449
0.00135658
0.00137912
-1.04296e-05
-7.27649e-05
0.00123845
0.00109854
0.000477968
0.000466302
0.00123408
0.000217559
0.0012003
0.0013119
0.000246118
0.00116004
0.000606472
0.00131517
0.000351582
0.000547454
0.000646239
0.00100941
0.000620958
0.0020133
0.00281223
0.000232781
0.00059919
0.000682438
0.000908383
0.00127028
0.00242974
-0.000130064
0.0020274
0.00156551
0.000422655
0.000348398
0.000974403
0.000604184
0.000840434
0.000953915
0.000486865
-0.00033017
0.000853385
-0.000244168
0.00113473
0.000926103
0.00114796
0.00130189
0.00109161
0.000880785
0.00130229
0.000989653
0.00126543
0.00123326
0.00102241
0.00133482
0.000993889
0.000895188
0.000977972
0.000309579
0.00125305
0.000178592
0.00103648
0.00111198
0.00139086
0.00154211
0.00118079
0.00121605
0.00108197
0.00116497
0.00102044
0.000430503
-0.000557597
-0.000495759
0.000660392
0.00192618
0.00116909
0.00197968
-0.00198554
0.000927289
0.000653862
-0.000938211
-0.00020042
0.000818956
0.00151344
0.000812676
0.00123364
0.000679086
0.00153822
0.00131299
0.000981891
0.00266461
0.00128731
0.000668214
0.00267534
0.00104635
0.00180683
-0.000657867
0.000290247
0.000644593
0.00104336
0.00295068
0.0013686
0.000931052
0.00108018
0.00153755
0.00129824
0.00183201
0.00112418
0.00127561
0.00168108
0.000423074
0.000266581
-0.000492682
0.000674722
0.000645116
0.00111206
0.00084288
0.000737423
0.000939359
0.00124833
0.00121616
0.000390567
0.000999536
0.0010259
0.00164932
0.00228787
0.000855501
0.00150425
0.00160662
0.00380924
0.00162041
0.00134728
0.00237569
0.00360607
0.00188948
0.0019818
0.000856923
0.000635438
0.000881177
0.00226155
0.00118539
0.00222748
0.000675838
0.000257228
0.000964574
0.00124233
0.00167139
0.00134062
0.000418405
0.000844799
0.000667241
0.00057884
0.00107418
-0.000235566
-0.000628335
0.00030712
0.000803722
0.00080523
0.000606546
0.000882166
0.000945492
0.00157689
0.0012963
0.000946719
0.00145094
0.000382201
0.00124123
0.000579716
0.000942382
0.00107706
4.6563e-05
0.00118707
0.00200335
-0.0016274
0.00074022
0.000969179
0.000874993
0.000801144
0.000488599
0.000849994
0.000754167
0.000434704
0.000606532
0.000736862
0.000865317
0.00089319
0.000855836
0.000847496
0.000897589
0.00084184
0.000664767
0.000828427
0.000811393
0.000825951
0.000940862
0.000921864
0.000402433
-0.00161748
0.00190593
0.000730275
0.00282179
0.0034721
-0.00246442
0.00139708
0.00122802
0.000994563
0.00069953
-0.000449156
0.000839278
0.000891395
-0.000115708
-0.000119981
0.00158133
0.00144303
0.000235404
0.000330413
-0.000479346
-0.000179784
-0.000397503
0.00348817
0.00126937
0.00186212
0.000877877
0.00122205
0.000760399
0.000102909
0.000664089
0.000640931
0.00056142
0.000952009
0.000344253
0.000796763
0.000835678
0.000753259
0.00012095
0.000568832
0.00106706
0.000781413
0.00146605
0.000197863
0.00105813
0.000349702
0.00205843
0.00187369
-4.32367e-05
0.0012624
0.000526928
0.000859254
0.00078484
-0.00140056
0.00129941
0.00133836
0.000321513
0.00139986
-8.61343e-06
0.00221061
-0.000995143
0.000201261
-0.000208928
0.000893187
0.000689778
0.00278727
0.000622717
0.00103056
0.000680592
-0.000260637
0.000757286
0.00016087
0.000291917
0.000159115
-0.00129994
0.00317013
0.00104735
0.00159242
0.00176495
0.0129024
0.00100661
0.000908274
-0.000482532
0.00430693
0.00221191
1.53754e-05
0.00356535
0.00144472
0.00376067
0.00456644
0.00157685
0.00104057
0.000843594
0.000640372
0.000861141
0.00106576
0.000707296
0.00047126
0.000416564
0.000440115
2.63425e-05
0.00154113
0.00126823
0.00196434
0.000815496
0.000927694
0.00124244
0.00112342
0.00104349
0.00130416
0.00111146
0.000625828
0.000722112
0.000389119
0.000515061
0.000236403
0.000147845
2.43499e-05
0.000650369
0.000902915
0.000819682
0.00141305
0.000458241
0.000996833
0.000677997
0.00104055
0.000579878
0.000830041
0.000808684
0.000726056
0.000375555
0.00119775
0.000584973
0.000349738
0.000749547
0.0012111
0.00121167
0.000879129
7.65425e-06
7.92915e-05
1.08108e-05
0.0020835
0.00160523
0.00114959
0.00126082
-0.000308795
0.000792681
0.000767338
0.000868362
0.00112844
0.000647689
-0.000128976
0.00135756
-0.000121016
0.00178495
0.0001078
0.000700426
0.000745905
0.00105285
6.67186e-05
0.000588109
0.000972504
0.0002455
0.000614136
0.00117142
0.0013456
0.00138506
0.00192549
0.00081456
0.0013925
0.00100313
0.000894523
0.000369523
7.8332e-05
0.000621198
0.000705859
0.000317243
0.00067448
0.000498961
0.000993987
0.00163032
0.000694268
0.00113663
0.00115675
0.000810846
0.000491148
0.000838641
0.00100167
0.000834211
0.000404793
0.00121352
0.000925867
0.00081969
0.00112975
0.00041753
0.00106361
0.000238537
0.000363109
0.00048872
0.00104126
0.000343459
0.000194314
0.000699566
0.00129491
-3.47575e-05
0.00203822
0.000675409
0.000323251
0.000613565
0.000703835
0.00110848
0.000449487
0.000975977
0.00110268
0.00113396
0.00115462
0.00102753
0.000752358
-4.64025e-05
0.000920607
0.000570185
0.000409813
0.000955826
0.00215957
0.00103253
0.000442054
0.000952018
0.00215367
0.000215705
0.000935419
0.00107943
0.00111685
0.00249945
0.00167747
0.000402803
0.000712046
0.00041365
0.00192223
0.0002755
0.000805349
0.000607667
0.000718056
0.000743322
0.000866824
-1.67222e-05
0.000989125
0.00033012
0.000303372
0.000551765
0.00121307
0.000759115
0.00116758
0.000541046
0.00141527
0.00122874
0.00130754
0.00142215
0.00164628
0.00132349
0.00217287
0.000706144
0.00140319
0.000415951
0.000126552
0.000665751
0.000364673
-3.63552e-06
0.00153786
0.00174714
0.00180707
5.79673e-05
0.00159171
0.00218438
0.000385318
-0.000485833
0.00139439
0.00150731
0.00156385
0.000633533
0.00067132
0.000473666
4.51955e-05
0.000652524
0.000873612
0.000328314
0.00166542
-0.00051335
-0.00012642
0.000782073
0.000597123
0.000751915
0.000680847
0.000268454
0.000800155
0.000745765
0.000423657
0.000790004
0.000334609
-0.00983616
-0.00109035
-0.000728362
9.88371e-05
0.000560738
0.000834354
0.00128769
0.000111746
0.000923637
0.000689144
0.000605266
0.000947036
0.00079051
0.000872734
0.000868137
0.0007857
0.000915691
0.000838616
-5.62839e-05
0.000466484
0.000260614
-0.000850036
0.00228077
0.00108226
0.000817522
0.000566906
SCALARS CoVolArea double 1
LOOKUP_TABLE default
251219
75586.7
142599
137012
97240.1
189794
106808
74970.1
119306
154289
194283
103119
157829
128676
152371
226072
91119.7
113002
117124
152267
145823
187615
132624
107248
314748
222664
194882
266267
454117
389357
194721
234364
167311
200486
192233
188928
394117
150475
136413
143183
130054
178235
200157
146425
243025
147531
171831
169887
84995.9
125108
87772.8
141368
224941
353291
164613
97418.6
76139.4
151368
248748
104082
70135.9
102092
129373
221151
229969
182064
188504
47741.4
184664
161263
140139
149100
232626
279207
273369
183724
187922
173310
212516
163970
109759
112177
114300
120424
124843
294137
194789
129216
170960
312036
173165
190653
244366
153375
195375
186139
252966
119297
110331
330137
80853.7
58486.1
167729
176401
149665
72008.7
88646.3
98260.3
85212.6
141747
209661
116714
176323
213446
194447
203915
171110
113633
208328
220215
173466
249347
219726
180594
193657
206859
270571
180967
183683
200388
169607
190951
178623
181615
113624
218386
160625
145112
136037
131029
163692
163428
182816
176568
89137.5
89658.5
165547
145437
134888
118117
162253
121983
234563
101469
155147
243531
155053
132073
384100
137254
114116
191896
277415
225697
379278
159440
137824
151614
181708
140149
134758
134449
163728
144038
151105
156091
141245
159643
169018
173791
131673
80504.4
144294
120119
94402.2
94883.8
93088.5
94902.4
126463
183758
169570
161769
301912
361302
225491
216726
117694
140279
79368.7
302671
235854
259168
338645
341898
133412
145093
85282.3
88008.8
111775
85138.8
88734.9
91224.1
140299
73520.2
110258
139944
103395
90844.7
197766
194129
183861
178435
87051.4
115670
163527
61295
78301.7
113578
86125
95124
86944
103862
138446
212796
208890
179984
167077
112868
146589
203779
165153
215182
192859
281294
134594
195292
165533
119220
161371
137001
161747
53285.9
96482.7
164700
122346
85215.2
125278
157764
215347
152488
184354
135701
109841
99931.5
160013
150090
153046
225771
198541
207898
239741
219861
215204
209302
184066
304112
300060
241151
260678
206726
191038
196280
178474
138600
171909
183159
176792
191937
181803
288286
249314
223861
250927
140235
198157
279775
140100
223405
114012
284120
224378
117938
113978
127479
179620
184943
146776
115545
148036
110592
105717
98917.9
119846
112257
122363
140980
124812
123339
203885
377195
95665.3
86046.1
179983
145474
303237
130325
134381
262059
163482
301012
143312
135867
166633
234177
113420
249309
292051
139248
232840
414447
398453
89142.7
182209
166986
193499
151508
186782
206758
260074
225708
251738
240462
232243
219820
174826
188951
196402
191083
193923
160361
147259
287380
199514
203643
115001
148209
208599
198593
255239
254261
218477
345324
141213
114842
253643
139673
259446
27157.8
38007.8
230183
79252.1
223801
38390.1
94067
139837
140497
99659.6
356334
231168
297192
323721
229829
353042
89361.4
118417
166688
167370
80442.6
110657
133692
229336
66643.7
63473.3
82223.2
45439.6
139197
49644.2
72711.8
77757.2
109032
108013
133434
110374
120251
191477
161528
202710
209924
292505
97489.3
159593
101982
177544
191951
169091
177520
181021
162076
185674
203358
218336
188799
168992
156138
222906
192435
193133
130053
138966
152579
152646
191778
177027
208629
199839
191784
169715
182045
224697
207852
238033
250877
185839
163153
203076
191277
309363
258989
385802
109039
157491
205216
177926
219626
180631
209078
177038
185437
207227
374949
217110
304973
155488
179684
208141
246675
251954
332185
196166
176794
266346
209712
158696
168766
158119
141547
182254
161360
179840
174738
230563
288033
167059
164081
152526
170387
163701
135033
104715
139089
146986
225890
199341
217803
183966
168386
186424
199313
144045
171955
175486
123145
175586
125045
139867
135074
142614
142417
190745
191629
156521
143586
130751
81539.5
145600
173474
148864
214973
178793
223195
177835
165249
165242
169830
181638
165198
170369
115819
133969
171124
87162.7
112067
124667
175124
153953
97603.1
151013
97896.6
96537.4
160853
98548
165549
186085
165270
156167
122151
135899
161469
141486
128559
154911
157051
311268
141775
166076
148612
139810
152516
141189
140984
202146
170862
166267
167117
188604
133600
145630
103945
180825
189656
229834
241104
287379
301595
278028
168020
157767
181407
125829
127816
79920.6
117499
234424
141373
153156
119883
168356
182177
259427
310479
256709
180608
226887
163848
210532
211107
117609
148134
122772
133085
315986
116456
247007
138481
134908
157761
91578.9
601925
385434
202792
261681
158098
181297
359543
159146
190798
168181
118074
115577
126623
143072
105219
140142
176435
233295
141707
255808
238672
146061
147048
142469
138453
SCALARS SignedDistance double 1
LOOKUP_TABLE default
751.217
935.294
555.17
559.591
797.05
1062.67
839.901
1052.87
849.839
752.233
966.446
584.909
594.818
774.935
853.102
1113.86
743.296
749.576
739.145
712.814
664.773
687.644
858.769
874.343
825.032
832.101
796.859
694.33
1388.01
919.347
1066.19
1187.52
581.506
713.199
560.483
567.02
664.12
653.304
671.995
855.953
713.778
850.084
715.42
705.519
846.554
633.795
620.918
582.448
918.521
809.609
911.071
821.272
713.87
1060.73
978.097
827.694
881.73
976.771
951.593
805.212
857.668
723.789
759.654
974.041
903.262
524.272
611.424
944.134
566.229
741.728
659.029
752.131
713.288
769.756
778.533
660.128
655.592
911.905
1054.04
894.2
888.263
820.198
842.938
806.465
894.694
1065.2
692.508
770.783
793.432
1078.22
888.532
623.521
680.17
755.422
698.396
622.205
719.323
630.755
972.061
1119.75
1024.75
930.071
823.1
1367.15
887.707
971.68
1131.96
997.542
902.54
929.63
1166.92
886.238
526.767
566.221
575.294
737.699
722.339
721.066
641.179
646.985
727.327
653.262
648.958
624.772
565.183
667.534
646.599
592.006
632.228
627.043
629.228
644.692
757.253
677.07
836.793
706.574
587.18
829.059
777.517
826.254
808.033
853.147
597.846
799.842
771.916
754.707
826.663
797.676
800.78
863.818
549.529
761.325
791.802
888.835
807.337
821.154
931.885
881.451
1360
844.909
856.939
907.72
752.346
808.437
774.984
644.075
699.007
636.333
831.318
766.561
769.788
599.057
581.527
570.123
691.981
612.769
693.726
579.81
590.55
597.238
940.712
912.712
945.097
811.904
859.331
888.217
861.701
864.133
793.816
657.261
722.588
743.285
759.511
861.535
915.126
816.306
711.238
761.156
768.348
1086.19
999.658
1025.75
1083.4
1127.21
968.341
1006.95
879.646
907.403
952.655
809.333
852.748
768.184
1042.18
933.675
948.249
929.866
927.546
851.781
971.022
768.625
686.294
800.506
810.819
910.026
881.869
891.555
841.749
708.301
776.013
763.176
775.571
739.803
842.59
978.206
1113.97
854.246
905.794
721.384
765.78
903.082
708.122
674.602
665.35
955.824
682.728
684.051
613.638
673.677
606.446
593.844
562.38
955.893
789.719
652.471
717.872
885.906
683.184
618.608
807.666
721.995
801.451
645.98
692.581
716.637
696.44
668.929
662.591
471.399
574.024
505.079
700.834
668.736
676.142
677.829
619.894
943.162
821.447
677.393
772.125
715.871
753.885
723.038
632.393
613.726
583.768
614.905
684.229
629.524
675.189
736.536
685.351
602.676
1089.94
1025.82
1043.05
1173.77
908.277
948.27
890.246
933.781
925.16
873.455
885.922
885.004
918.366
936.334
787.373
803.731
781.155
856.173
831.198
846.558
831.296
824.435
841.809
898.971
866.809
875.768
951.335
1061.1
878.785
910.455
928.218
1037.02
1038.15
630.216
653.666
829.578
703.861
777.194
666.661
750.886
757.808
797.611
817.376
891.699
796.344
823.977
927.219
866.501
825.459
895.361
948.91
1000.41
688.759
629.919
683.982
704.239
629.518
635.599
636.975
844.589
761.171
680.151
717.493
711.422
733.456
714.742
550.759
599.277
550.777
676.078
706.197
747.556
787.108
722.825
775.123
659.901
665.267
652.353
875.08
1028.45
849.564
863.507
1032.59
1011.42
1193.7
1037.44
937.195
992.186
929.919
1084.47
915.874
909.906
826.545
885.973
884.49
1165.74
892.435
868.484
959.027
896.639
1417.04
994.317
1048
1163.93
1079.55
1248.3
819.914
868.496
986.314
995.499
1018.12
944.488
935.932
1038.41
980.728
1168.15
855.53
811.717
885.566
905.12
868.824
1185.97
996.352
1024.85
907.469
945.41
1123.54
919.382
1001.52
1028.91
552.212
543.928
566.824
554.046
534.976
522.633
556.622
574.122
580.549
745.349
764.513
769.129
723.448
739.44
727.875
642.353
695.824
659.498
732.658
658.182
743.515
611.248
636.061
589.832
706.263
677.891
695.698
626.465
696.173
649.653
640.604
630.366
595.291
630.5
657.746
651.188
654.47
731.51
616.994
568.708
552.861
604.98
599.491
584.349
643.011
582.216
562.208
657.493
718.826
659.902
569.681
640.643
611.297
605.982
638.414
672.449
621.538
602.686
673.427
656.783
622.562
599.428
636.843
577.636
625.378
604.835
602.535
621.448
654.407
660.075
777.432
777.462
802.51
702.168
726.342
740.14
735.922
737.08
678.679
650.586
629.804
652.178
627.994
565.285
669.418
662.506
637.461
659.714
709.506
850.081
794.368
843.486
839.798
849.312
785.245
746.334
813.186
819.047
855.25
821.579
832.122
806.602
846.51
817.172
822.524
708.485
789.826
764.807
549.107
624.265
564.969
539.799
571.638
820.824
822.757
788.148
803.558
830.485
788.778
767.329
768.185
776.013
624.169
725.935
841.432
773.95
783.124
690.296
767.203
646.617
714.232
742.543
757.179
807.592
810.844
776.322
832.085
807.167
775.478
762.539
931.552
870.037
906.585
896.999
875.713
785.266
836.641
823.239
563.168
500.37
519.993
589.529
671.409
792.099
845.02
874.332
764.381
593.414
688.793
742.535
646.72
693.782
825.916
597.283
775.068
711.703
877.095
789.224
847.115
909.76
953.612
586.31
849.766
693.234
679.426
702.789
827.415
861.867
859.462
764.809
781.967
867.193
925.077
963.982
890.42
900.981
900.42
927.533
984.268
886.011
991.666
896.543
865.115
880.164
1160.81
1196.8
1277.41
1183.52
1468.85
916.02
999.582
973.877
787.308
792.034
796.21
830.326
864.753
852.279
884.139
869.918
832.16
811.034
1099.8
903.822
939.049
1133.89
943.625
854.473
879.59
882.716
