# vtk DataFile Version 4.2
vtk output
ASCII
DATASET POLYDATA
POINTS 642 double
-2273.19 5602.02 -680.595
-15.8671 5546.44 -635.197
-2283.53 719.187 -29.9954
1288.24 740.295 89.5651
-682.467 1412.4 2030.2
-1542.21 4387.6 1391.83
-493.372 1841.58 -1650.05
-1475.45 5166.68 -2274.64
1331.82 3029.77 -818.285
1555.64 2939.99 1084.87
-2735.79 4174.93 -1175.33
-3191.69 3567.12 1527.1
-3078.53 4818.33 901.204
-2319.52 4180.52 1902.74
-1863.1 5097.42 1095.55
-183.389 5201.41 279.842
-706.935 6050.98 -334.263
-137.289 5678.12 -1137.42
-1985.75 5911.67 -1790.42
-2049.39 4963.49 -2335.81
-2892.79 5246.76 -1371.26
-3316.78 3504.99 261.227
656.259 3618.94 1503.39
1130.78 3957.3 670.322
-1900.23 2196.67 1692.15
-455.138 2953.47 2049.99
-2568.41 1669.15 -512.675
-2687.43 1728.3 878.035
-1006.64 4021.73 -1491.09
-1657.75 2699.92 -1338.25
916.396 4377.54 -457.494
204.609 4611.07 -1084.7
2045.09 1608.58 813.025
744.691 2289.78 1895.24
481.054 810.22 1449.71
-1722.11 765.288 1521.46
-531.945 674.343 -59.1713
-1394.32 939.334 -1248.97
380.897 957.817 -1158.97
601.626 2246.66 -1401.64
1883.65 1719.5 -478.34
1842.01 2544.87 149.305
-2734.36 5107.5 467.596
-2496.51 5066.96 1088.29
-1882.46 5207.04 624.829
-2798.88 3923.52 1833.51
-2764.5 4552.73 1584.56
-3203.45 4204.77 1292.88
-1773.85 4849.18 1319.75
-2165.54 4727.76 1558.67
-2045.28 4325.75 1753.96
-914.994 5835.73 17.048
-1110.93 5970.83 -407.98
-462.148 4457.58 958.007
-1079.19 5502.66 502.447
-332.891 5882.1 -494.571
-591.745 5816.19 -79.5107
-316.749 5570.53 -183.626
-1326.47 5907.8 -1046.03
-2137.3 5890.88 -1517.06
3.73813 5682.39 -865.674
-366.459 6000.19 -833.845
-1762.09 5555.02 -2097.86
-976.197 5779.89 -1500.42
-610.761 5434.82 -1542.95
-2553.99 5812.84 -1658.79
-2661.56 5576.74 -1087.54
-1853.46 5110.68 -2457.98
-2103.65 5533.19 -2251.28
-2812.96 4978.7 -1443.43
-2686.37 5242.58 -1900.83
-2423.41 4577.59 -1947.84
-2988.23 4938.05 -49.1201
-3076.05 3537.15 -383.239
-2985.53 4415.91 -432.563
-3296.28 4288.92 569.417
-3297.28 3558.95 910.505
640.952 4301.51 758.09
489.696 4576.11 116.124
141.781 3858.87 1486.14
421.757 4156.42 1179.86
1392.62 3548.73 896.35
986.983 3863.01 1113.54
1118.7 3362.05 1389.92
-2135.64 3726.37 2020.56
-910.814 3511.19 1892.48
-2763.84 3293.36 1733.08
-2259.38 3596.97 2058.61
-361.987 2361.9 2163.5
-1366.12 3128.27 2053.51
-1252.5 1429.34 1885.97
-3277.86 2659.75 457.189
-3022.2 2848.68 1134.75
-2776.12 2629.86 -787.544
-3111.41 2635.19 -187.117
-2567.61 1044.87 512.392
-2761.76 1640.94 39.0718
-2589.89 1051.22 -386.676
-2001.34 4310.62 -2041.99
-1948.99 3456.33 -1465.9
-1514.26 5209.83 -2207.26
-1919.98 4745.9 -2381.73
-993.584 1944.41 -1586.34
-1671.89 3277.95 -1720.03
-506.811 2381.78 -1654.46
-64.1427 5246.56 -1296.43
-583.626 5280.92 -1744.47
365.871 5254.21 -798.672
235.576 5326.22 -906.351
915.666 3315.43 -1019.07
103.053 4441.65 -868.18
1269.95 3484.32 -603.511
1824.65 1098.2 504.153
1465.27 1152.66 1101.76
995.918 724.889 768.494
1255.51 2601.91 1496.77
1575.9 1780.87 1250.48
1996.78 2129.36 897.315
-171.963 1147.58 1866.92
673.91 1435.85 1734.37
178.952 1889.21 2058.23
155.059 677.472 990.074
623.413 679.353 29.6267
-993.989 1086.52 2013.64
-625.908 724.406 1691.09
-1678.07 668.043 104.89
-1302.39 680.036 965.696
-2019.26 681.27 966.485
87.5468 680.612 -793.016
820.861 837.892 -599.573
-1970.72 802.568 -577.176
-1143.07 673.525 -850.909
-83.9594 1339.43 -1405.19
-623.287 905.623 -1263.07
-1086.15 1214.95 -1384.51
1171.73 1320.22 -787.329
1729.4 1168.35 -271.539
34.8165 2056.1 -1612.6
582.16 1585.14 -1369.45
1747.03 2031.47 -509.194
1210.09 1941.82 -993.22
1007.91 2663.25 -1167.31
2116.14 1587.06 120.132
1698.25 2845.35 -341.02
2090.67 2071.06 -119.667
2201.44 2094.96 418.305
1814.09 2623.68 604.052
135.424 2621.26 2082.15
720.697 2963.63 1813.88
140.092 3180.83 1923.83
-2353.52 1006.28 1358.25
-1909.01 1249.78 1809.01
-2301.97 1716.53 1399.42
-1459.34 1284.18 -1317.11
-2174.68 1143.85 -756.351
-2273.19 2111.64 -965.603
551.902 2938.8 -1330.1
-39.9136 2728.99 -1658.43
-650.877 3806.54 -1753.32
1536.95 3513.92 407.753
1499.93 3496.4 -180.919
1129.34 3974.89 37.0071
-2489.05 5234.63 -91.2055
-2438.56 5172.31 602.325
-1982.23 5384.53 68.9336
-2805.63 4980.15 1012.25
-2638.59 5107.3 832.035
-2932.5 4990.86 720.894
-1929.64 5179.42 909.709
-2318.18 5154.81 917.854
-2171.78 5100.64 1108.68
-3034.2 3730.16 1700.47
-3049.87 4038.39 1617.82
-3234.17 3840.57 1457.08
-2549.66 4365.28 1799.02
-2793.05 4246.74 1755.69
-2551.07 4088.07 1913.23
-3163.3 4560.67 1090
-3008.1 4411.27 1454.77
-2953.98 4708.27 1262.3
-1756.86 4691.31 1412.41
-1915.82 4623.7 1544.55
-1892.73 4446.99 1601.99
-2016.57 4950.62 1334.85
-1958.18 4805.77 1449.14
-1820.68 4989.16 1213.85
-2165.01 4248.36 1848.28
-2100.54 4535.8 1674.81
-2262.44 4474.06 1762.28
-2652.64 4862.24 1347.04
-2449.82 4670.24 1609.46
-2327.05 4922.5 1367.53
-1355.1 5708.7 -36.73
-1676.2 5689.72 -647.027
-1362.11 5321.05 522.759
-1357.28 5567 209.92
-845.571 6056.33 -297.586
-938.934 5951.55 -128.722
-820.823 5993.54 -170.081
-1103.51 4240.68 1087.47
-1531.91 4822.41 1151.12
-717.636 5424.69 201.293
-1136.6 4918.34 622.674
-233.087 4673.36 616.736
-1635.61 5022.55 1035.7
-1491.55 5160 892.07
-168.5 5740.64 -579.486
-311.085 5742.82 -308.307
-157.211 5571.73 -401.94
-652.557 5955.27 -195.406
-482.933 5868.66 -229.998
-545.744 6002.6 -422.579
-398.279 5414.32 44.2155
-441.595 5713.16 -122.626
-545.856 5653.73 -0.691356
-904.656 5614.35 245.305
-749.979 5697.86 88.1359
-766.536 5862.61 -24.2921
-1683.38 5882.51 -1211.48
-2214.57 5755.48 -1198.65
-763.774 6061.67 -546.241
-1245.39 5943.85 -728.526
-2083.73 5922.88 -1630.38
-1884.95 5844.25 -1424.64
-1889.96 5862.82 -1566.62
8.99518 5646.77 -844.323
-143.506 5807.44 -749.625
-237.364 5888.21 -984.977
-175.47 5868.2 -847.778
-34.8779 5717.77 -958.397
-347.768 5964.12 -699.814
-505.817 6038.02 -632.56
-1627.88 5264.06 -2241.27
-1349.18 5493.66 -1881.44
-1116.5 5163.45 -2017.26
-1679.01 5800.33 -1742.09
-1503.63 5696.22 -1809.73
-1879.9 5778.57 -1956.78
-271.586 5588.09 -1303.26
-807.478 5676.91 -1544.99
-419.476 5801.99 -1236.7
-599.714 6058.6 -854.7
-497.792 5979.46 -1068.63
-1122.91 5869.46 -1308.34
-2412.3 5789.08 -1335.32
-2461.42 5622.64 -893.094
-2217.92 5956.07 -1755.27
-2327.78 5910.97 -1566.28
-2815.36 5431.65 -1249.82
-2629.11 5721.4 -1436.36
-2795.82 5542.27 -1524.39
-1717.18 5125.29 -2397.91
-1819.74 5263.64 -2360.87
-2093.14 5229.74 -2351.26
-1906.05 5260.63 -2432.16
-1897.09 5094.39 -2489.75
-1926.53 5571.86 -2208.17
-2041.52 5804.85 -2051.53
-2657.1 4527.65 -1455.37
-2657.68 4784.69 -1700.21
-2511.35 4473.53 -1732.99
-2866.14 5261.79 -1644.13
-2805.68 5158.47 -1670.08
-2882.75 5142.46 -1429.02
-2281.93 4776.34 -2149.09
-2572.85 5022.35 -1927.72
-2402.08 5140.38 -2122.19
-2379.53 5742.74 -2017.38
-2458.49 5399.05 -2141.96
-2710.39 5506.22 -1858.01
-2659.53 5276.46 -413.409
-2889.2 5143.3 -842.76
-2816.96 5213.88 -644.268
-2904.89 5027.11 196.172
-3113.91 4859.65 529.054
-2700.13 3674.22 -846.487
-2791.9 4376.09 -899.262
-3273.68 3916.09 41.4971
-3075.07 3992.72 -401.952
-3235.96 3483.67 -102.109
-2869.99 4821.65 -1022.42
-2896.56 4977.16 -1046.22
-3288.82 3873.25 1184.36
-3282.47 3563.27 1301.75
-3262.32 4600.27 772.831
-3287.16 4289.47 958.237
-3388.3 3546.38 504.629
-3361.71 3903.62 713.64
-3380.03 3907.06 408.918
-3030.15 4744.15 -227.827
-3285.26 4306.74 216.058
-3262.17 4638.63 362.362
131.377 5083.67 -297.537
93.8883 5256.71 -479.986
125.156 4602.01 747.226
-189.414 4757.22 388.79
942.449 4146.19 542.937
671.343 4363.8 482.161
893.473 4155.83 719.811
-301.808 3973.73 1425.96
-1.92335 4130.16 1288.68
550.563 3932.18 1330.38
317.195 4042.54 1321.09
417.332 3729.82 1497.26
172.729 4253.39 1140.17
255.921 4388.46 936.686
1476.44 3315.94 1008.06
1290.91 3472.79 1153.57
1317.07 3230.62 1283.54
1082.6 3916.27 893.539
1199.16 3716.39 1019.2
1284.29 3756.61 782.429
890.224 3494.8 1463.57
1067.74 3633.59 1250.53
851.529 3772.28 1311.52
542.861 4243.87 980.762
708.433 4031.75 1161.45
825.533 4100.87 950.345
-1863.17 3959.32 1831.84
-1189.91 4039.91 1313.48
-2142.64 3920.74 1960.02
-2030.14 3982.93 1890.41
-556.072 3334.96 1893.99
-1630.78 3863.66 1849.94
-1367.46 3517.85 1620.77
-3011.29 3444.33 1666.66
-2828.8 3591.37 1806.59
-2209.31 3328.74 1958.2
-2523.99 3478.97 1922.9
-2327.53 2966.9 1692.2
-2550.46 3749.44 1955.86
-2303.57 3836.54 2015.73
-531.088 1803.58 2049.76
-743.676 1806.16 2014.47
-858.519 1395.83 2033.62
-985.57 2843.45 2043.18
-684.203 2536.17 2076.85
-367.589 2619.8 2095.81
-1683.75 1564.89 1711.75
-1195.24 2094.71 1896.48
-1734.98 2728.08 1831.26
-2112.27 3622.75 2057.59
-1958.27 3519.8 2067.19
-1895.1 3482.89 2065.83
-3224.48 3261.77 1127.01
-3175.55 3334.66 1403.7
-3302.71 3064.71 348.304
-3247.2 3146.55 653.74
-2934.71 2248.6 980.746
-3186.71 2711.69 788.277
-3089.77 2325.75 632.582
-2696.28 3058.38 -869.055
-2900.53 2984.55 -621.832
-2924.58 2251.17 -434.397
-2947.37 2596.05 -531.786
-2778.2 2287.7 -672.58
-3089.94 3028.2 -267.056
-3230.43 3028.33 29.5197
-2456.28 842.626 237.299
-2605.04 1032.57 -37.5079
-2464.96 848.506 -241.491
-2806 1709 437.934
-2671.85 1244.42 214.39
-2524.54 1270.36 746.18
-2555.41 1201.5 -436.84
-2649.81 1198.62 -214.882
-2630.49 1579.63 -271.974
-3260.33 2642.07 167.531
-3039.99 2248.95 -69.4925
-3131.7 2299.94 288.515
-2264 4324.49 -1898.57
-2363.91 3902.6 -1084.62
-2043.99 4577.9 -2200.92
-2190.56 4416.42 -2030.66
-1882.31 3204.6 -1410.92
-2080.06 4134.47 -1869.19
-1944.51 3892.82 -1742.18
-1477.99 5174.78 -2271.59
-1747.71 5119.8 -2411.5
-1869.62 4626.8 -2134.96
-1853.47 4999.62 -2259.36
-1540.41 4763.54 -2016.07
-1897.32 5095.14 -2485.61
-1918.33 4879.26 -2419.72
-749.751 1898.62 -1630.17
-748.405 2224.28 -1659.39
-484.462 2069.19 -1654.35
-1488.63 3074.96 -1698.6
-993.016 2520 -1635.64
-1215.16 2108.46 -1479.91
-552.067 2897.36 -1660
-891.481 2710.57 -1667.06
-1714.32 3541.58 -1718.1
-1882.85 4468.57 -2251.77
-1864.21 4342.09 -2193.66
-1822.87 4098.92 -2085.64
-541.013 5269.08 -1701.54
[...]
POINT_DATA 642
SCALARS Mean_Curvature double 1
LOOKUP_TABLE default
0.000630403
0.000396482
0.00210905
0.00214299
0.000416122
0.00312097
0.00178094
-0.00308858
0.00131337
0.00102382
3.87938e-05
0.0031388
0.00179576
0.00160665
0.00151568
0.00848871
0.00421953
0.00167339
0.00353567
-0.000143416
0.00242941
-8.79735e-05
0.000801383
0.00132194
0.000407938
0.000407558
0.000556103
0.000245679
-0.00264083
-0.000925687
0.00967749
0.00153254
0.00213736
0.000888939
0.00203328
0.00215579
1.42124e-05
0.0025719
0.00257405
0.000258798
0.00275657
-0.0011863
0.0012228
0.00148857
-0.00158802
0.00133507
0.00164827
0.00128264
0.00156845
0.00140285
0.000746699
0.00143715
0.00153058
0.000693819
0.00675447
0.00159553
0.00210687
5.20557e-05
0.00031946
0.00173149
0.0101732
0.00350907
9.75978e-05
0.00181806
-0.00139959
0.00303486
0.0015849
0.00965221
0.00248418
0.000122268
0.00222868
0.00184189
0.00148522
0.000510683
-0.000928707
-0.000133784
-0.000102522
0.000205698
-0.00142304
0.000844071
0.00142392
0.000990542
0.00136905
0.000958256
-0.00397545
0.00508002
0.00120085
0.00352296
0.00156824
-0.00325419
-0.000903436
0.00186532
-0.000326091
0.00145367
0.000673041
0.00225899
0.000329493
0.00465379
-0.00160548
-0.000544934
-0.00528905
-0.0163708
0.00174434
-0.0127301
-0.00013527
0.00737899
-0.0108222
0.00369768
0.000322576
0.000619316
-0.00446286
0.000859512
0.00158398
0.0015417
0.00126423
0.000517783
0.000405078
0.00302864
7.22834e-05
0.00078188
0.000635122
0.000145888
0.00015978
0.00302009
0.00255067
-0.000342555
-7.25026e-05
0.00149559
0.00167583
0.000750272
0.000518951
0.00134406
0.000283665
0.00234223
0.000199578
0.000107345
0.00181375
0.00113551
0.00211336
0.000178377
0.000689929
0.000886142
0.00106113
0.00167967
0.00329369
0.00492333
-0.000605408
0.000460517
0.00073276
0.00127437
0.0026019
0.00462996
-0.000413396
0.00194419
0.00246804
0.000668226
0.000109888
0.0022353
-0.00281783
0.00101889
0.00122877
0.000511529
-0.000716705
0.000292835
-9.66462e-05
0.00156721
0.0014754
0.00157923
0.00280134
0.0012091
0.00135101
0.00201663
0.00134696
0.00245652
0.00167457
0.00176308
0.00188476
0.00142745
0.00113583
0.00147342
0.00064628
0.00179853
-0.00010694
0.00196663
0.00195943
0.00370219
0.00209408
0.00143433
0.00212769
0.00164514
0.00146065
0.00127966
0.000624417
-0.000715809
-0.00234655
0.00144585
0.00342707
0.00223881
0.00371995
-0.00310288
0.00113889
-0.000995843
-0.00183518
-0.00113871
-0.00252343
0.00858329
0.000927526
0.00194545
0.000418739
0.0023162
0.00223393
0.00153175
-0.00556282
0.00201351
0.00287515
-0.0048059
0.0033487
0.00347922
-0.00472426
-0.000382495
0.00102532
0.00139047
0.0025372
-0.00240686
0.000974929
-0.00228779
0.00186777
0.00273368
0.00373062
0.00366903
0.001448
0.00297958
-0.000795566
-0.000304997
-0.0076575
0.00131436
0.00133917
0.00114395
0.000971062
0.00211205
0.0013844
0.00176071
0.00240834
0.000575787
0.0013524
0.00132811
0.00410749
0.00353023
0.0014133
0.00222159
0.0027031
-0.0177561
-0.000212765
0.00179892
0.00705104
0.00262796
0.0029152
0.00373586
-0.00087575
0.000992848
0.00105431
0.00453634
0.000750874
0.00294169
0.00133343
0.000443813
0.000373302
0.00255916
0.00272391
0.00279342
0.000873752
0.00201447
0.0012045
0.00104333
0.00153823
-0.00245461
-0.000895931
0.000526992
0.00140357
0.00111521
0.000954987
0.00147758
0.000656102
0.00212822
0.00222413
0.00101807
0.00210974
0.000792958
0.00153346
0.000658489
0.000801524
0.00209654
-0.000130171
0.00183304
-0.00214923
-0.00317958
0.00086407
0.00138949
0.00143827
0.00177997
0.000406319
0.00102488
0.00112099
0.000143093
0.000685763
0.00448407
0.0010959
0.00133608
0.00118361
0.00104404
0.00120426
0.00128289
0.000679839
0.00105238
0.00129445
0.00120276
0.00141453
0.00118732
-0.000800773
-0.00247437
0.00317941
0.000660241
-0.00140359
-0.00795093
-0.0035333
0.00223066
0.00115551
0.00126734
0.00102289
-0.00122063
0.00138229
0.00235283
0.000132719
-2.92382e-05
0.00113106
0.000741484
0.000740619
-0.000204997
-0.00136761
-0.000153645
-0.000482045
0.00698041
0.00132115
0.00490269
0.000983222
0.00212548
0.00124356
-0.000671603
0.00096562
0.00118165
0.000599385
0.00184962
0.000495834
0.00127987
0.000957041
0.00122008
-2.6501e-05
0.000537948
0.00171543
0.00163799
0.00237738
0.000455035
0.000677971
-0.00133151
0.00131336
0.00183716
-0.000669338
0.0018118
0.000612143
0.00102243
0.00107139
-0.00215639
0.000341612
0.00161995
0.000730238
0.00408113
-0.00243255
0.0553985
-0.0170193
-0.00224488
-0.00408663
0.0015812
0.0164531
-0.00453924
0.000850506
0.000994208
0.000147927
0.00441674
-0.000185297
0.000566782
0.000237481
0.000473548
-0.00163405
-0.0103698
-0.0189626
-0.00722346
-0.0112988
-0.013201
0.00219955
8.54253e-05
0.000342561
0.0336001
-0.00695565
-0.00441399
-0.0347398
0.00453164
0.0118152
0.0431744
-0.0137678
0.00145076
0.00113896
0.000829211
0.00118272
0.00973628
0.000852582
-0.00225842
-0.000434576
0.000302782
-0.00169092
0.0040071
-0.000105097
-0.00120876
0.000710205
0.00126536
0.00182146
0.00181912
0.00134926
0.00222067
0.0021723
0.000492897
0.00126529
0.000673337
0.000130799
-0.000216662
9.40827e-05
-1.0931e-05
0.000911086
0.00137518
0.00119428
0.00155448
-5.93814e-05
0.00196222
0.000257375
0.00113195
0.000570614
0.00143466
0.00130829
0.000835683
0.000315353
0.00176124
0.000567809
-3.13607e-05
0.000361608
0.00110247
0.00164567
0.000582327
-1.15848e-05
7.66878e-05
3.49792e-05
0.0032434
0.00310456
0.00252296
0.00205157
-0.000411847
0.00109867
0.00135795
0.000397455
0.00237032
0.000806834
-6.04656e-05
0.000723873
-8.68397e-05
0.0021784
-0.000476255
0.000533966
0.00108195
0.000802285
-0.000286918
0.00104431
0.0013409
5.62205e-05
0.000314113
0.00206252
0.00244022
0.00207309
0.00288934
0.00111088
0.00248021
0.00186324
0.00158628
0.000147592
-4.75031e-05
0.00116803
0.000509482
0.00102787
0.00105765
9.61357e-05
0.000627125
0.00343701
0.00109964
0.00179681
0.00172746
0.00144517
0.000817033
0.000896926
0.00137548
0.00095886
0.000501733
0.00174726
0.00116262
0.00117328
0.00132694
0.000689938
0.000836138
-0.00040184
0.000442696
0.000238981
0.000991502
0.000670005
0.000268838
0.000805965
0.000662076
-0.000613683
0.00233978
0.00123113
0.000397644
0.000771056
0.00131145
0.00144775
0.00058816
0.00128373
0.00202606
0.00180867
0.00172023
0.0012545
0.00103137
-0.00054889
0.00146893
0.00132665
0.000628592
0.000597452
0.00368172
0.00201312
0.00145763
0.001893
0.00362519
9.04329e-05
0.000874725
0.000598017
0.0016584
0.00387997
0.00336691
0.00115692
0.00104561
5.5468e-05
0.00243495
0.000251194
0.00108089
0.000806438
0.000757255
0.00081589
0.000974631
-0.000533366
0.00138682
0.00042859
5.77271e-05
0.000548409
0.00203855
0.000598567
0.00180118
0.000882311
0.00281601
0.00215657
0.00245536
0.00170177
0.00295097
0.00176455
0.00205089
0.00192201
0.00247137
0.000419481
0.000408016
0.00123235
0.000740335
8.77793e-06
0.00368003
0.00159478
0.00193071
-0.000268213
0.00316573
0.00391892
-0.0001487
-0.00105038
0.00259759
0.000852966
0.00416614
0.00149251
0.00227962
0.00062541
0.000176249
0.000341708
0.00151278
0.000816305
0.00194959
-0.00190778
-0.000663738
0.000957531
0.00040956
0.000767372
0.00122243
0.000636252
0.000480382
-0.000118259
0.000212333
0.00124095
0.000296743
-0.0071776
-0.00168662
-0.00153866
-0.00158725
-0.0106191
0.00133981
0.00167967
-2.87216e-05
0.0013224
0.00127152
0.000739914
0.00122413
0.0007543
0.000951519
0.00292536
0.000895136
0.00115184
0.00117553
-0.00125178
0.000258012
-0.000229711
-0.00063257
-0.00999727
0.00137544
0.00117509
0.00038059
SCALARS CoVolArea double 1
LOOKUP_TABLE default
248852
64262.9
94723
93663.3
65857.1
186387
67617.4
21151
81622.5
115642
187132
56889.2
99580.2
68804.8
89267.1
179100
35985.8
64579
55047.2
86008.2
77552.6
141744
95661.9
68066.7
279563
222356
146063
230377
591112
375418
114237
256401
104415
154256
128713
127071
392672
84203.8
82268
110224
68507.4
157642
152234
90407.6
223347
94946.8
111093
117333
49583.4
69973.8
57469.1
87624
182668
392306
152704
54675
34943.1
164831
188198
70276
17045.3
43791.9
98208.6
140660
176226
99654.2
134019
9335.29
95982.2
134903
74707.3
96171.7
153967
261048
236685
132947
149089
142011
162557
132735
67762.7
69564.6
70217.3
80120.3
105058
282535
158067
64066.9
126812
263725
179777
132783
199547
102676
147253
134168
210009
56135.5
70900.4
340047
88862.6
41632.1
129166
109872
127211
19939.2
99547
65106.3
35125.4
103610
291165
82185.2
122581
156382
143444
167753
129610
68259.1
163681
178191
128152
217476
191746
106816
126912
178385
248476
125522
124679
146854
117209
133187
148788
121991
74045.3
174575
106896
107828
85471.7
111659
123356
120982
116995
124406
39913.6
30517.8
128424
97761.3
91164.5
81530.2
91505.9
49788.9
196036
68023.7
95289.9
224968
124811
81576.8
458163
89918.8
68864.1
174601
252763
209841
406256
101028
89343.9
99902.1
131933
99926.7
82013.9
80899.6
110632
89474
88863.2
100812
84914.7
107288
117423
115642
109780
43340.8
143428
67153.4
47621.7
45497.1
47887.2
48426.6
68654.3
118100
102845
100288
275726
385320
164771
157422
59150.8
81391.3
27228
333294
267797
290460
417838
375526
119476
77148.2
52907.3
49871.2
84825.6
35590
44327.2
45066.9
107357
41342.4
75346.1
78632.4
57674.8
38162.2
171289
188976
117751
98337.1
34507.7
56478.1
111769
36169.6
35507.6
56357.8
31323.6
39605.3
40546.7
46793.2
98572.8
194729
132317
116992
114376
67410.3
100264
142082
102169
141977
115586
204160
86063.4
146898
76135.7
53209.4
104081
78802.9
87210.3
18048.7
45582.3
84194.1
41291.4
24954.7
59690
77789.6
182399
111469
165417
60655.5
66508.6
49331.7
110482
106297
102802
131961
116339
115881
182486
141030
147596
148867
120985
277430
296725
199346
220113
169028
149404
136870
130993
88803.3
113527
135079
131651
147416
129995
226148
201218
156938
291024
112358
130088
362707
104581
236097
70754.2
283141
197278
76652.8
75040.8
95607.6
141609
124040
98922
73248.5
101996
67656.5
65980.8
60583.2
83209.2
72710.1
79307.5
87120.7
76154
75498.8
219647
426157
41464.7
55818.2
159037
128625
364852
80615.7
85744.1
217476
119458
282389
87008.3
66553.4
130155
222802
78993.3
237832
249365
101177
253015
454683
397286
23730.2
131534
144477
152192
101520
133150
167610
217130
182844
202625
213254
198193
174391
128835
134008
161367
147819
136163
99481.6
85581.1
251613
160048
175550
65708.7
98353.9
172435
136065
204201
193790
206306
432632
76215.2
65636.9
203586
76604.1
211388
11717.1
23819.2
302364
95389.5
240269
19514.5
33593.7
100235
102337
67484.4
289730
156894
274664
384656
204392
484213
38095.7
63687.4
117981
62421.7
14873.6
54355.7
68963.1
300538
14090.3
38279.3
74828
13376
84189
9475.33
14155.7
24169.4
54132
68446.9
94161.6
69723.8
123097
184958
122904
146425
219223
302409
38757.7
152073
78294.9
126153
140658
118132
113380
126924
104323
128008
151119
160993
150149
136532
116782
188376
163275
153970
74025.8
98692.6
94166.5
106999
144502
139813
156984
154904
141588
126513
135992
185326
145439
194114
197930
146660
117201
140883
146253
299091
240377
385192
52023.1
96373
138190
114816
162021
124087
141186
129510
136610
152534
369666
187341
294790
101539
141583
159587
186308
197718
312358
146040
127331
234269
171140
102571
110777
97078.3
88240.6
139635
98269.3
123039
117259
201175
261705
120589
127941
111032
115116
122604
97074.2
47676.2
89418.2
86742.2
160225
129756
147814
135792
117738
134198
152949
88288.4
125358
123446
78497.1
137768
85224.5
109286
105082
110620
90945.1
155711
164619
113480
95035.1
106445
42205.9
106796
143205
108535
154622
119787
168473
123723
95861.4
107992
113495
115224
119564
140900
80748.4
95324.6
126126
57387.8
49142.1
82385.9
126718
83291.8
43214.6
130044
62106.1
66546.9
82814.1
36618.3
85140
137392
115903
112402
76088.3
94388.2
117074
103355
89816.5
111616
106712
305106
99619.9
125816
126653
104871
97291.9
93560.9
88522.9
145275
99657.1
105629
112545
136261
66624
108368
60456.5
101283
116311
179431
194298
242255
273416
248736
83216.2
97515.7
115643
91038.1
53149
36794
96127.5
256371
81185.1
113086
56733.1
103978
100989
253712
320498
220188
128538
187913
109649
208298
215214
76878.7
111802
85014.2
98110.1
342731
83927.3
180571
106679
94751.2
116884
124810
797153
561659
224640
191319
110574
95761.1
379021
111778
148362
126991
74608.5
77509.3
83032
83739.4
68507.4
91347
128159
235357
113205
254927
205706
96727.8
92904.6
102721
100778
SCALARS SignedDistance double 1
LOOKUP_TABLE default
364.482
418.304
243.987
233.256
386.301
507.186
383.058
682.869
360.025
330.976
553.383
237.476
251.239
344.791
387.804
755.672
321.448
309.087
394.697
373.686
308.553
313.671
382.421
385.968
382.711
360.733
431.363
345.192
996.97
476.877
697.944
872.972
255.856
308.649
239.487
238.978
291.121
281.676
296.927
387.2
332.57
407.97
313.461
301.555
410.898
278.492
258.457
251.642
392.73
365.204
402.367
372.964
320.273
548.653
629.606
363.6
387.009
457.628
649.022
399.005
390.219
323.971
362.931
716.256
573.992
251.186
264.477
557.467
264.917
332.305
300.499
330.033
348.003
346.997
378.507
297.281
296.404
391.95
605.362
382.258
369.311
354.571
353.887
346.082
387.488
673.057
297.607
401.373
365.01
763.892
436.055
278.844
323.5
324.039
311.637
335.012
374.017
345.404
582.254
775.314
609.155
553.821
346.821
932.075
388.012
451.077
778.396
648.199
495.038
405.404
751.638
377.859
218.335
236.067
239.859
320.853
326.299
309.228
295.703
276.159
336.645
290.913
285.88
315.042
248.496
296.462
285.196
283.187
284.337
270.838
270.239
291.725
331.936
295.158
391.686
323.651
243.905
348.558
375.223
371.964
351.556
368.639
274.435
342.37
324.431
341.424
405.359
360.819
350.423
374.949
264.891
374.032
438.516
394.838
422.934
369.831
420.333
391.682
1058.57
368.421
367.224
397.296
351.021
378.368
341.008
289.796
316.803
286.903
385.497
360.19
332.191
255.884
246.479
233.248
321.951
264.434
326.096
247.775
247.152
248.526
409.227
405.832
424.55
347.185
370.621
385.601
387.726
390.91
361.588
288.213
322.118
325.816
339.703
531.627
478.911
365.363
311.293
325.991
330.479
542.25
463.335
490.127
535.328
704.058
441.919
599.437
392.597
409.7
434.254
342.829
372.942
324.979
524.519
429.464
450.592
490.239
426.25
372.769
731.918
380.779
302.759
439.336
404.537
510.81
473.682
386.202
370.15
305.16
353.49
352.043
332.398
325.173
508.486
699.09
936.321
533.928
621.669
345.964
333.35
657.622
300.448
299.513
271.158
683.149
331.641
312.086
348.74
345.977
262.528
254.411
239.657
574.596
438.095
331.826
440.731
551.233
311.761
299.558
367.356
340.553
354.671
302.75
297.524
323.055
310.296
296.534
283.232
187.385
265.302
224.207
304.684
308.401
295.577
311.725
263.313
560.129
396.831
293.64
359.941
321.078
329.433
321.769
290.188
283.426
262.289
288.185
324.713
285.276
310.313
359.561
316.008
262.342
632.665
517.059
628.37
749.768
395.162
432.294
381.923
397.004
396.628
373.922
375.817
396.456
399.646
430.064
338.744
336.784
330.89
369.542
356.087
360.498
358.545
350.53
349.377
387.674
365.582
376.963
446.203
522.526
394.052
402.788
477.237
594.404
507.945
260.539
296.349
440.286
314.229
407.646
294.087
356.179
330.254
369.177
388.408
456.146
356.357
369.469
468.039
464.514
431.065
452.018
568.558
612.148
332.126
269.461
324.453
349.344
271.482
275.465
282.424
396.823
336.18
288.854
317.127
299.697
326.671
324.391
226.065
294.995
229.407
330.905
369.016
426.502
379.084
353.694
425.118
289.131
302.344
290.306
449.184
585.234
460.306
449.717
615.303
633.689
864.419
693.529
568.768
465.253
409.273
586.175
553.125
530.619
366.041
393.004
387.887
834.119
391.005
379.817
455.94
400.598
1039.23
631.315
695.467
848.595
728.77
884.443
379.629
469.289
556.324
558.441
433.56
448.394
491.952
715.373
612.768
838.503
465.013
358.587
379.26
388.496
368.527
883.306
435.571
473.194
395.864
408.389
695.166
446.013
484.37
458.18
248.25
231.181
261.93
232.68
225.394
214.285
234.781
261.591
254.805
318.129
354.033
354.556
324.863
327.446
313.174
271.525
304.87
297.021
360.252
312.065
332.33
284.612
270.693
246.257
303.932
294.659
305.803
289.485
307.181
292.507
283.665
283.866
276.991
282.223
288.317
290.22
286.921
344.739
298.653
247.864
228.55
293.878
267.586
249.243
288.435
263.058
251.125
289.17
365.752
289.74
274.056
287.243
267.131
272.625
285.84
310.245
265.734
258.479
306.875
289.736
254.017
267.978
269.2
258.517
281.166
253.412
268.937
260.899
287.894
289.382
331.776
351.256
361.214
308.576
327.877
326.28
370.336
360.079
300.923
296.984
262.029
277.461
277.762
241.815
293.644
295.53
279.12
290.614
319.309
386.049
341.731
385.28
377.768
372.551
359.597
326.782
352.853
357.836
372.708
396.874
382.468
356.066
363.455
351.757
350.097
294.374
341.336
345.279
237.886
262.065
238.676
231.122
255.309
354.642
374.677
341.722
355.199
402.82
331.638
339.542
342.862
351.985
288.777
335.008
398.393
328.946
335.904
314.753
336.69
306.561
310.146
315.769
343.128
371.764
364.487
331.935
357.768
348.568
338.698
338.582
437.37
380.889
401.366
405.414
385.581
335.906
366.423
350.594
237.834
192.3
208.084
292.882
352.289
376.006
393.021
418.8
426.576
299.777
329.553
408.072
273.659
316.728
450.99
301.956
370.203
357.391
426.209
377.097
387.53
429.987
483.798
243.196
407.344
380.867
351.407
366.627
379.623
377.521
407.149
330.36
342.681
403.994
474.752
504.732
383.42
402.391
396.728
396.64
438.174
390.008
494.285
392.828
374.789
383.67
813.332
712.589
875.347
711.283
1088.9
395.712
523.997
436.04
339.979
338.284
347.724
360.826
380.092
368.856
380.015
372.964
360.823
353.465
707.16
395.469
411.621
831.387
512.717
372.12
383.664
387.259
