# vtk DataFile Version 4.2
vtk output
ASCII
DATASET POLYDATA
POINTS 642 double
-2286.08 5647.72 -663.65
35.6854 5579.83 -611.739
-2298.32 684.505 -30.3151
1302.65 706.572 84.7688
-678.272 1410.64 2088.4
-1501.44 4418.92 1451.29
-495.189 1830.66 -1708.99
-1448.2 5162.98 -2308.48
1373.03 3042.2 -856.512
1598.62 2952.42 1112.7
-2731.21 4168.54 -1178.33
-3222.62 3561.29 1548.39
-3106.66 4843.8 912.673
-2318.68 4200.06 1952.65
-1857.04 5146.23 1125.14
-111.916 5223.54 276.147
-695.497 6098.3 -321.548
-109.15 5706.11 -1166.61
-1972.22 5962.33 -1802.4
-2071 4956.13 -2367.37
-2939.78 5254.79 -1372.16
-3364.05 3502.23 249.344
675.253 3649.28 1551.78
1173.39 3999.98 680.189
-1920.68 2189.54 1746.61
-457.747 2968.83 2105.01
-2614.23 1654.12 -539.845
-2729.49 1710.4 892.44
-1018.44 3993.75 -1559.93
-1688.81 2681.14 -1393.21
915.052 4453.47 -456.027
227.805 4611.16 -1124.15
2079.14 1599.32 831.524
769.678 2286.01 1937.29
491.713 781.515 1471.71
-1725.61 733.981 1541.72
-531.935 627.889 -59.0345
-1407.61 914.709 -1279.75
391.901 932.043 -1194.4
625.398 2246.17 -1457.96
1916.72 1713.1 -513.681
1900.5 2571.53 147.462
-2753.02 5152.36 471.83
-2507.6 5109.04 1107.95
-1900.79 5263.27 634.447
-2820.38 3928.58 1870.9
-2783.5 4575.07 1612.98
-3238.4 4215.64 1309.08
-1746.98 4884.28 1362.43
-2160.64 4763.86 1602.01
-2019.26 4350.57 1805.86
-918.275 5877.46 53.6384
-1130.77 6014.69 -398.513
-453.715 4510.54 1010.98
-1094.06 5559.55 537.348
-298.376 5922.13 -476.516
-565.474 5851.15 -41.5335
-267.152 5602.15 -144.684
-1330.87 5966.99 -1053.18
-2138.95 5945.89 -1498.99
49.8528 5719.73 -853.897
-345.611 6045.24 -837.579
-1740.14 5583.56 -2130.76
-966.686 5820.83 -1527.27
-589.543 5459.97 -1584.66
-2575.52 5840.41 -1664.09
-2687.53 5606.35 -1077.16
-1843.56 5105.36 -2475.11
-2111.86 5552.72 -2285.94
-2859.78 4962.07 -1458.28
-2721.53 5236.15 -1930.07
-2457.07 4559.99 -1978.77
-3030.4 4964.59 -52.3394
-3120.54 3534.68 -411.668
-3039.48 4422.38 -445.173
-3342.8 4296.05 570.033
-3343.53 3552.77 916.743
669.656 4353 777.315
538.82 4618.72 122.172
148.501 3892.02 1537
438.115 4199.01 1217.49
1436.35 3578.01 917.081
1019.13 3898.42 1143.72
1149.87 3384.37 1429.28
-2095.41 3741.48 2055.2
-904.298 3539.33 1925.3
-2783.86 3274.64 1771.4
-2270.09 3591.09 2111.41
-369.791 2362.98 2218.81
-1366.17 3133.54 2114.53
-1270.41 1443.09 1943.94
-3320.41 2649.91 462.791
-3061.41 2832.31 1157.99
-2814.18 2624.55 -821.47
-3156.32 2627.94 -206.12
-2603.87 1028.08 519.499
-2807.12 1625.03 31.617
-2628.7 1035.08 -403.064
-2026.02 4282.2 -2083.17
-1997.07 3439.75 -1497.6
-1500.96 5166.11 -2227.16
-1934.9 4743.98 -2406.07
-1012.34 1934.94 -1637.67
-1617.93 3308.1 -1748.73
-506.408 2381.33 -1716.39
-11.7995 5239.33 -1337.9
-590.646 5268.46 -1741.68
399.954 5279.44 -799.568
279.977 5341.98 -938.911
947.608 3340.34 -1068.9
171.922 4466.57 -888.002
1311.32 3513.6 -636.399
1847.87 1072.47 508.681
1483.13 1130.22 1125.34
1006.5 689.489 776.927
1290.06 2605.44 1534.31
1604.13 1779.99 1293.28
2032.61 2141.21 926.422
-162.258 1127.46 1905.59
694.368 1421.7 1770.48
189.784 1881.7 2108.53
154.884 631.829 991.175
624.518 634.053 28.3846
-1004.91 1068.63 2053.34
-622.511 690.369 1708.02
-1677.58 621.277 99.5893
-1301.35 634.754 968.683
-2030.97 640.036 970.925
89.0392 636.921 -803.232
839.393 803.897 -616.765
-1984.58 767.424 -596.7
-1144.75 628.38 -858.479
-76.3835 1317.79 -1452.08
-619.418 877.257 -1296.98
-1090.08 1204.08 -1443.26
1198.75 1297.44 -822.542
1753.6 1143.41 -289.119
49.32 2048.57 -1666.01
598.02 1571.76 -1421.7
1785.94 2043.7 -551.599
1246.6 1938.12 -1035.48
1042.46 2668.7 -1214.39
2156.4 1573.06 113.109
1747.01 2858.4 -362.545
2135.08 2086.24 -141.447
2250.23 2115.59 423.917
1871.13 2648.25 610.812
145.096 2627.34 2137.64
745.786 2980.97 1860.17
148.268 3211.42 1973.77
-2382.29 988.659 1374.17
-1925.28 1251.26 1861.82
-2339.54 1714.14 1441.43
-1487.36 1293.73 -1370.38
-2210.7 1137.07 -806.221
-2298.86 2094.32 -1013.8
578.168 2957.45 -1388.51
-27.1131 2733.12 -1718.45
-606.119 3824.73 -1824.1
1585.89 3545.27 412.164
1547.73 3526.76 -196.467
1176.21 4017.4 38.4565
-2504.06 5284.34 -78.6194
-2450.08 5229.14 609.92
-1998.69 5432.38 83.9121
-2826.94 5016.55 1028.75
-2653.84 5152.27 841.403
-2957.38 5027.89 727.558
-1932.65 5235.19 926.58
-2325.09 5208.25 930.329
-2174.58 5147.37 1132.18
-3059.74 3730.79 1731.35
-3077.55 4048.38 1644.12
-3266.48 3845.24 1473.68
-2561.28 4388.37 1841.4
-2814.09 4261.12 1788.01
-2564.71 4101.06 1959.48
-3195.82 4577.05 1105.49
-3035.86 4427.55 1477.72
-2978.57 4731.62 1282.41
-1724.91 4718.21 1459.75
-1889.41 4650.92 1594.62
-1859.05 4470.59 1654.34
-2010.33 4991.74 1370.46
-1942.01 4840.35 1493.05
-1800.91 5030.27 1252.51
-2148.91 4271.38 1901.69
-2083.27 4565.47 1724.43
-2258.42 4502.44 1809.56
-2668.5 4895.39 1373.12
-2457.85 4702.54 1647.34
-2332.05 4962.54 1399.52
-1376.31 5753.8 -18.4567
-1696.09 5740.89 -631.82
-1367.06 5370.45 550.738
-1368.33 5612.9 239.464
-851.93 6103.26 -286.36
-951.708 5993.66 -104.782
-817.848 6037.56 -142.953
-1076.27 4296.84 1145.55
-1497.49 4859.26 1196.56
-689.075 5459.11 261.065
-1099.92 4961.45 679.921
-228.972 4724.21 671.39
-1596.52 5045.53 1080.08
-1461.69 5185.82 925.413
-123.053 5775.3 -557.477
-267.298 5775.87 -279.193
-106.568 5605.18 -371.653
-632.486 5997.04 -168.54
-451.98 5907.11 -203.311
-521.966 6045.57 -407.409
-344.153 5449.37 57.0169
-402.174 5744.8 -83.7351
-515.203 5687.22 45.7238
-911.761 5659.44 269.835
-722.903 5731.08 136.288
-753.424 5901.89 14.0539
-1697.44 5902.46 -1198.89
-2222.59 5807.11 -1180.77
-766.772 6109.47 -547.284
-1256.47 5996.06 -729.17
-2076.56 5981.44 -1621.07
-1881.43 5905.34 -1425.73
-1879.31 5924.05 -1565.3
53.95 5676.99 -816.617
-103.173 5845.35 -734.391
-213.049 5923.73 -1002.38
-141.083 5909.8 -847.155
0.524742 5751.15 -974.148
-319.287 6006.8 -689.348
-490.12 6085.99 -626.679
-1608.87 5289.81 -2274.14
-1328.4 5520.26 -1919.86
-1115.99 5158.73 -2017.36
-1664.52 5851.63 -1762.14
-1485.89 5732.47 -1844.38
-1861.53 5813.31 -1982.05
-248.388 5611.98 -1340.59
-788.994 5705.02 -1584.15
-401.254 5831.9 -1266.6
-597.008 6105.39 -862.282
-487.56 6017.06 -1087.82
-1121.72 5920.5 -1324.05
-2426.43 5833.22 -1318.8
-2479.67 5665.07 -877.538
-2224.74 5998.23 -1763.92
-2340.24 5957.61 -1555.36
-2850.93 5452.01 -1244.18
-2653.1 5750.74 -1429.33
-2828.15 5561.23 -1526.57
-1709.61 5134.58 -2415.72
-1795.25 5285.84 -2398.43
-2113.16 5232.45 -2386.41
-1901.61 5277.73 -2473.96
-1899.01 5093.89 -2513.41
-1912.96 5599.23 -2242.19
-2037.54 5836.26 -2077.9
-2705.88 4512.89 -1474.57
-2700.87 4769.58 -1722.85
-2551.1 4448.87 -1757.77
-2909.79 5260.85 -1659.76
-2845.12 5142.84 -1690.53
-2931.91 5132.43 -1438.49
-2307.78 4765.25 -2184.81
-2606.29 5011.24 -1957.12
-2429.79 5132.64 -2157.18
-2392.82 5761.75 -2036.28
-2481.62 5404.64 -2173.92
-2736.65 5518.2 -1875.08
-2684.43 5315.86 -401.339
-2934.1 5159.14 -841.201
-2851.44 5243.94 -636.782
-2934.93 5064.89 198.225
-3144.6 4887.06 530.612
-2754.8 3670.81 -868.685
-2841.35 4363.71 -925.717
-3317.92 3919.09 26.1243
-3122.79 3995.29 -424.318
-3281.88 3481.4 -119.958
-2919.13 4811.14 -1036.51
-2947.1 4974.79 -1051.57
-3333.32 3876.41 1192.65
-3324.76 3557.64 1311.42
-3299.39 4614.54 778.835
-3329.8 4297.67 966.689
-3436.19 3541.34 504.72
-3405.09 3906.26 718.669
-3427.16 3910.7 403.871
-3081.38 4755.04 -239.415
-3332.83 4314.42 204.789
-3300.34 4652.9 358.193
164.971 5126.39 -262.187
145.716 5294.15 -455.959
170.169 4636.28 741.022
-117.215 4803.38 383.105
983.82 4193.36 548.339
705.14 4417.83 497.176
929.34 4202.58 735.041
-302.569 4011.63 1476.95
1.09471 4172.68 1335.3
568.284 3967.19 1375.4
328.475 4080.1 1366.62
430.55 3762.62 1549.05
181.218 4300.66 1180.65
269.023 4436.6 973.234
1519.79 3335.95 1032.74
1328.13 3497.57 1183.32
1354.45 3247.12 1317.01
1120.66 3956.07 914.659
1237.64 3749.03 1044.96
1326.75 3792.3 797.761
916.253 3520.83 1507.46
1099.94 3662.01 1286.52
876.634 3803.15 1350.99
566.971 4292.04 1010.69
732.845 4071.43 1196.4
856.705 4145.35 975.888
-1838.62 3996.11 1877.79
-1178.23 4062.09 1385.65
-2125.66 3939.24 2016.79
-2009.41 4005.02 1945.59
-559.526 3353.69 1957.5
-1611.42 3879.46 1904.43
-1362.66 3518.01 1695.55
-3035.59 3431.08 1697.06
-2850.78 3583.89 1847.47
-2223.85 3307.31 2009.07
-2541.87 3463.85 1965.35
-2351.11 2946.43 1743.71
-2567.94 3749.44 1999.06
-2307.97 3848.5 2067.36
-536.255 1798.88 2101.89
-756.176 1806.38 2068.29
-868.683 1403.36 2090.52
-978.957 2864.64 2095.59
-693.631 2535.75 2132.21
-372.518 2630.97 2153.07
-1692.94 1574.72 1779.11
-1211.07 2089.85 1953.69
-1745.67 2716.01 1882.89
-2104.94 3636.96 2115.52
-1950.75 3527.73 2113.4
-1889.66 3488.22 2113.56
-3269.08 3248.27 1136.76
-3208.9 3318.19 1422.35
-3351.54 3060.7 346.652
-3299.05 3138.42 663.008
-2970.56 2232.81 998.603
-3225.73 2701.35 802.871
-3128.76 2307.64 643.038
-2736.62 3058.09 -910.695
-2944.04 2984.05 -651.126
-2963.82 2236.37 -453.332
-2990.65 2590.27 -556.49
-2813.19 2273.24 -701.72
-3135.81 3024.73 -290.032
-3277.85 3024.96 13.636
-2480.44 816.461 240.141
-2642.25 1012.67 -37.5965
-2488.8 822.455 -246.656
-2848.18 1689.65 444.157
-2718.22 1229.35 218.252
-2582.18 1255.72 756.323
-2603.63 1199.68 -465.565
-2699.03 1189.78 -224.792
-2682.76 1567.58 -291.025
-3303.99 2632.65 158.428
-3082.35 2231.22 -81.2442
-3172.85 2280.5 287.876
-2297.61 4294.61 -1929.99
-2403.8 3874.81 -1142.68
-2066.66 4557.95 -2241.74
-2216.9 4389.57 -2072.12
-1915.62 3183.45 -1463.25
-2104.78 4099.95 -1916.01
-1967.21 3860.59 -1796.7
-1457.54 5161.28 -2305.72
-1744.2 5127.88 -2430.22
-1821.02 4614.86 -2178.45
-1811.77 4973.13 -2298.73
-1508.3 4744.07 -2077.6
-1900.46 5092.47 -2510.82
-1922.29 4870.05 -2444.83
-758.964 1888.37 -1685.84
-753.932 2220.65 -1721.38
-485.635 2067.44 -1716.19
-1460.05 3132.97 -1775.8
-1004.34 2511.3 -1695.32
-1245 2097.7 -1530.41
-549.933 2901.08 -1725.85
-892.999 2706.76 -1728.5
-1643.47 3543.17 -1796.4
-1893.36 4456.19 -2274.11
-1863.1 4323.57 -2225.86
-1817.91 4087.68 -2113.83
-536.513 5257.71 -1712.15
[...]
POINT_DATA 642
SCALARS Mean_Curvature double 1
LOOKUP_TABLE default
0.000607523
0.000599412
0.00193601
0.00193723
0.00062518
0.00317552
0.00183471
-0.0174721
0.00123166
0.000980998
-0.00424688
0.00282603
0.00165492
0.00140267
0.00158264
0.00667317
0.00373601
0.00158008
0.00335297
0.000172098
0.00227647
-4.39811e-05
0.000812998
0.00128634
0.000349959
0.000348851
0.000496877
0.000187029
-0.00263352
-0.000628966
-0.00613873
0.0061566
0.002029
0.00085412
0.00184961
0.00192193
1.64371e-05
0.00219777
0.00239049
0.00032495
0.00247958
-0.00102856
0.00107808
0.00135826
-0.00142158
0.00126285
0.0014887
0.00119092
0.00150478
0.00135365
0.00078086
0.0016577
0.00119911
0.000715614
0.00694079
0.00146579
0.00188222
0.000376034
0.000458705
0.00139531
0.00771143
0.00320662
0.000181039
0.00156107
-0.000573387
0.00272135
0.00136621
-0.0134477
0.00226377
0.000163371
0.0023052
0.0016956
0.00135373
0.000522161
-0.000818769
-4.14216e-05
-7.918e-05
0.00028548
-0.00108244
0.000779988
0.00127519
0.000999301
0.00126808
0.00093716
-0.00259464
0.000433035
0.0011219
0.00310999
0.00155515
-0.00407384
-0.000827091
0.00176615
-0.000250357
0.00139337
0.000677208
0.00195323
0.000245792
0.00408944
-0.000878108
-0.00048539
-0.00448452
-0.0152044
0.00151434
-0.0150635
-0.00014465
0.00543244
-0.014031
0.00310174
0.0020366
0.00065944
-0.00447034
0.000833502
0.00150008
0.00139878
0.00111946
0.000510017
0.000516338
0.00279895
8.1694e-05
0.000728898
0.000699492
0.000180606
0.000177495
0.00269387
0.00232278
-0.000310273
-8.0105e-05
0.00150602
0.00159028
0.000689669
0.000470356
0.00137251
0.000258229
0.00204684
0.000398639
0.000138072
0.0016878
0.0010085
0.00206699
0.00021477
0.000662025
0.000844178
0.00108208
0.00138632
0.00299185
0.00457988
-0.000370796
0.000512469
0.000727745
0.00121536
0.00232624
0.00419063
-0.000395153
0.00200569
0.00250402
0.000655869
0.000181047
0.00198571
0.00425898
0.000992281
0.00117068
0.000799998
-0.000626959
0.000415089
-0.000126716
0.0015292
0.00136593
0.00155373
0.00253268
0.00125019
0.00121349
0.00188381
0.00129671
0.00217585
0.00165317
0.00159979
0.00184039
0.00134622
0.00109151
0.00136439
0.000490284
0.00169734
-9.89742e-05
0.00175497
0.00177857
0.00287178
0.00208843
0.00142336
0.00193626
0.00156023
0.00141983
0.00124533
0.000588615
-0.000625647
-0.00177304
0.00132982
0.00314095
0.00194266
0.00342245
-0.00297183
0.00115981
-0.000599834
-0.00169234
-0.00081737
0.000941935
-0.000352231
0.000940802
0.00180805
0.000469796
0.00217978
0.00199589
0.00139048
-0.00524281
0.00191729
0.00263493
-0.00501406
0.0032823
0.00282441
-0.00155282
-0.000224894
0.000954375
0.00198621
0.00292294
0.00184038
0.000996648
-0.00071841
0.00178103
0.00234621
0.00343806
0.00286853
0.00140919
0.00269919
-0.00025511
2.87215e-05
-0.00615095
0.00123774
0.00121578
0.00100648
0.000969499
0.0020125
0.00127606
0.00169408
0.00213058
0.000543727
0.00133483
0.00132204
0.00359165
0.00340642
0.00126826
0.00200684
0.00247108
-0.00182442
0.000862896
0.00171872
0.00626121
0.00340658
0.00271817
0.00336817
0.00148009
0.000972493
0.0010761
0.00413892
0.000775702
0.00285317
0.00125215
0.000390482
0.000489275
0.00225072
0.00255846
0.00248201
0.000750827
0.00178787
0.001066
0.000976697
0.00141704
-0.000895689
-0.000827047
0.000474095
0.00127947
0.00106312
0.000849658
0.0013654
0.000744401
0.00209356
0.00207024
0.0010402
0.00200564
0.000710892
0.00150384
0.000672089
0.000847628
0.00189778
-6.42936e-05
0.00180817
6.71108e-05
-0.0032134
0.000840474
0.00134717
0.00132476
0.00158495
0.0004142
0.000999681
0.0010572
0.00022435
0.00069575
0.00339796
0.00106064
0.00123096
0.00112345
0.0010228
0.00115605
0.00116494
0.000679813
0.0010257
0.00117557
0.0010665
0.00131234
0.00115836
-0.00139158
-0.00243708
0.00277952
0.00067999
0.00251911
0.00756304
-0.00342666
0.00205349
0.00123717
0.00133144
0.000944203
-0.00107105
0.00123156
0.00203073
4.52754e-05
-3.89494e-05
0.00117049
-0.000154655
0.000651236
-0.000119467
-0.0012161
-0.000138558
-0.000499634
0.00793675
-0.00231958
0.00765943
0.000973985
0.00192117
0.00114803
-0.000503613
0.000910977
0.00105418
0.000593707
0.00169245
0.00046361
0.00117832
0.000951098
0.00113072
-7.84958e-06
0.000548389
0.00153061
0.0015099
0.00212979
0.000407772
0.000759407
-0.000947349
0.00146225
0.00182976
-0.000536455
0.00171238
0.000616891
0.000988658
0.000933467
-0.00191532
0.000937544
0.00172742
0.000618388
0.00368396
-0.00160607
-0.0504401
0.0136998
-0.00159651
-0.00285057
0.00158428
0.0185115
-0.00760213
0.000814974
0.00103629
0.000216325
0.00532372
-0.000107504
0.000503278
0.000249485
0.000585065
-0.000608464
-0.0083803
0.0120375
0.0103167
-0.0149809
-0.00798363
0.00193649
0.00037156
0.00125083
0.0137297
-0.00643341
-0.00230917
-0.0203618
6.63915e-05
0.00591074
0.00996204
0.00614743
0.00172602
0.00108924
0.000795462
0.00111244
-0.00563163
0.000942161
-0.00152922
-3.17745e-05
0.000313387
-0.000960899
0.00369417
0.000286266
-0.000530479
0.000760632
0.00119496
0.00176153
0.00167754
0.00130929
0.00203598
0.00194601
0.000549618
0.00115384
0.000607957
0.000216893
-0.000119568
0.000112425
-2.47863e-05
0.000861453
0.00125365
0.00111355
0.00156296
7.22083e-05
0.00182011
0.000332751
0.00116739
0.000563371
0.00129126
0.00120499
0.000806369
0.000329168
0.00169493
0.00055971
4.71343e-05
0.000437565
0.00115637
0.00161109
0.000671265
-1.10127e-05
7.19881e-05
2.90918e-05
0.00305466
0.00285191
0.00222442
0.00183664
-0.000429279
0.00101817
0.00123245
0.000500864
0.00213541
0.000802285
-7.66521e-05
0.000883486
-9.52253e-05
0.00221489
-0.000409934
0.00057696
0.00103959
0.000874334
-0.000229665
0.000951792
0.001265
8.79848e-05
0.000375136
0.00185324
0.00224601
0.00192357
0.00275703
0.0010685
0.00226458
0.00171769
0.00136621
0.000186841
-3.66148e-05
0.00103272
0.000526604
0.000885254
0.000965574
0.000236999
0.000719516
0.0032424
0.0011517
0.00156238
0.00165479
0.0012986
0.000726986
0.000894122
0.00131396
0.000968085
0.000481795
0.0016669
0.0011227
0.00107227
0.00135086
0.000639071
0.000915881
-0.000321033
0.000424734
0.00029756
0.000988525
0.000611032
0.000260685
0.000802141
0.00093305
-0.000569615
0.00228588
0.00110911
0.000384793
0.000713419
0.00116637
0.00139011
0.000567197
0.00123241
0.00182069
0.00167872
0.00161901
0.00121839
0.00100386
-0.000439044
0.00134852
0.00109794
0.000681197
0.000618749
0.00341982
0.0017338
0.00120645
0.00169747
0.00343786
0.000109607
0.000823842
0.000673612
0.00159256
0.00363472
0.00303916
0.000995874
0.000963174
0.000144606
0.00238082
0.000244653
0.00102874
0.000757665
0.000760369
0.000808354
0.000978172
-0.000469127
0.00129322
9.40508e-05
0.000101109
0.000544354
0.00187848
0.000647286
0.00166778
0.000753987
0.00246632
0.00190625
0.00222479
0.00166186
0.00275478
0.00157436
0.00221428
0.00163823
0.00226925
0.000435337
0.000365361
0.00110528
0.000672379
8.2468e-05
0.00323743
0.00163075
0.00194954
-0.000213826
0.00285248
0.00346624
-5.03589e-05
-0.000961646
0.00220298
0.000868118
0.00380295
0.00115382
0.00197039
0.000565972
0.000131842
0.000431023
0.0013646
0.000697935
0.00197092
-0.0017387
-0.000586993
0.000926887
0.000451568
0.000774264
0.00105012
0.000571892
0.000550044
-2.57244e-06
0.000249709
0.00114854
0.000296281
0.00892694
-0.00159716
-0.00132521
-0.00136931
-0.00703215
0.00123675
0.00117078
-2.64303e-05
0.00125315
0.00115896
0.000730158
0.00117188
0.000790042
0.000954161
0.00283424
0.000883741
0.00112568
0.00112852
-0.00104461
0.000293834
-0.000189183
0.00387626
-0.00909631
0.00133242
0.00106294
0.000422096
SCALARS CoVolArea double 1
LOOKUP_TABLE default
248308
63252.9
100794
98936.1
69009.7
186237
72186.6
25270
86279.5
120951
173659
62527.8
106892
75999.4
98884.3
201467
42280.8
70692.9
62193.7
90585.8
86002.4
147559
99914.7
72571.8
283954
220241
152668
234717
562350
393702
119046
253561
112242
160163
137107
135461
392635
93178.4
88769.8
113901
75649.6
158965
158420
97225.3
225364
101383
118741
123921
53034.1
76474.1
60337.1
91056.7
188112
380313
162229
59659.7
39046.3
155779
193884
73224.6
22065.1
50520
100773
152501
179773
110639
141741
10900
107255
137129
81946.7
102738
165378
261396
241003
139026
153519
141652
167949
136588
72743.7
74584.4
75493.3
84859.2
107826
273215
162179
72133.5
132313
271976
175695
140098
205535
109035
153179
140853
215563
64249.2
74741.1
337266
84080.3
42779.8
134541
103833
129365
24924.9
86153
68701.6
40295.1
107053
261427
85978.7
129208
163718
149877
172197
134055
73558.2
169544
183203
133682
220760
194696
117294
135687
181273
250238
132501
132212
154043
124399
140285
152142
129988
78167.7
180054
113568
112333
91326.7
113456
127837
126362
125215
131743
45086.4
36668.2
132671
103299
96263.3
85650.6
100696
58159.5
201069
70425.3
102214
226196
127792
87914.5
452601
95521.8
74102.1
176476
255265
210014
400792
108338
95046.3
106392
138222
104423
88401.1
87396.7
117358
96213.6
96551.2
107774
92147.7
113873
123988
122997
111976
47369.6
141577
73531.2
53001.2
52000.1
52523.3
53565.5
75453.7
126238
110874
107715
279539
379751
170344
165166
66173.5
88940.2
32742.6
326009
257831
301640
407694
381225
119837
86138.1
55915.2
54030.3
87532.6
40884.6
49430.8
50346.5
103416
44228.1
80929.5
84988.8
64544.8
43743.7
175354
187337
125734
111244
39325.3
64529
116556
36766
39847.6
63433.6
37505.3
46005.6
45632.5
53551.3
102053
196797
137705
125979
122104
72817
104648
149667
110448
150955
125541
214174
91633.2
153151
87453.1
60482.1
111900
86030.7
96515.3
19139.2
48649.5
92424.6
49176.5
28351
67000.2
87873.2
179055
116259
165516
69321.6
71084.9
54983.8
115576
111533
107975
144883
126356
127612
190887
152397
157755
157529
129247
270394
294599
204492
226040
173830
155048
144455
136646
94748.6
120945
140887
137194
152797
136337
234006
206500
165542
279762
113656
132598
334148
108268
230270
75891.2
282715
200302
81520.3
79751.2
99162.2
145318
139156
104921
78267.5
107773
72739
70669.9
65030.5
87495.1
77414.2
84487.7
94127.3
81972.6
81161.2
211340
408048
47106.4
58945.7
166913
134598
356543
86597.9
91484.5
224968
124877
283610
94307.3
74586.9
134743
223684
82381.8
231868
256143
105398
247229
451854
404782
29721
139499
138432
157005
107886
139922
171912
223316
188177
209190
210695
201828
180216
134576
141686
165668
153172
144389
107608
93799.9
255783
164171
177100
71063.5
104059
176322
143936
210679
201863
206306
410033
79612.1
70108.6
210154
85228.2
228502
11009.1
24350.5
283295
89671.2
236911
19950.6
35108.8
105150
106677
70749.5
319924
168187
285855
366032
202589
439145
41139.9
60320.5
122199
67702.5
14503.4
60792.8
76858.3
287879
18582.7
39366.1
71238.2
11384.3
91120.7
10655.3
15117
26449.1
59529.4
73105.7
98572.1
74558
112833
181311
126250
154611
211498
288775
44133.9
147903
73999.4
132473
147053
124344
121334
133695
111501
135568
157937
168469
154941
140177
122001
192478
166628
158843
80743.5
103223
100940
112264
150452
143872
163398
160641
148113
131873
141767
190157
152893
199008
204289
150966
122597
148840
151448
299956
242071
384876
58386.9
104365
147261
123633
171108
131754
150466
135148
142492
159807
369700
190285
295520
107986
145683
165292
193746
204040
313843
152527
133586
237890
175655
109746
118282
104848
94668.8
144789
106397
130442
125571
204383
264610
126661
131975
116130
122190
127145
101090
54415.3
95254.8
94634.3
168716
138993
157391
141821
123988
140665
158847
95337.2
131117
129651
83685.6
142564
89540.6
112630
108535
114014
96960
160063
167960
118795
100156
108767
46053.3
111642
147029
113373
162290
126898
175111
130448
104538
115187
120464
123668
125386
144632
84628.2
100799
132157
60343.7
56083.8
87766.3
133478
91965.4
49343.6
131393
65828.3
68991.3
91940.1
43004.4
94746.8
143530
121962
117524
81320
99175.2
122548
107775
94301.6
116814
112835
297072
105061
130511
128646
108776
103921
99095
94741
153375
109108
113583
119557
142472
74602.4
112003
64330.5
112730
126553
186321
201046
249013
276731
251928
93848.3
104227
123716
95481.1
62001.1
41360.7
98217.8
250226
89461.3
116663
64840.5
113742
112612
252085
316228
225299
135285
192711
114570
204939
211687
81725.7
115932
89405.9
102061
338647
87459.7
192074
110160
99929.6
122058
113398
778633
532201
218102
208253
116343
104803
379908
117499
153273
131696
79716.7
81686.8
88218.6
92206.9
72667.8
97353.3
133853
243911
115779
266055
222060
93761.6
99286.7
106715
104568
SCALARS SignedDistance double 1
LOOKUP_TABLE default
411.162
486.222
279.687
275.961
440.151
583.141
444.089
723.357
423.178
384.041
559.634
282.244
295.192
402.508
448.977
802.306
375.393
366.457
445.768
408.195
356.846
362.495
442.285
449.092
444.708
421.721
479.433
389.707
1036.69
533.019
745.237
894.837
299.79
360.952
281.542
281.613
339.156
331.081
346.633
445.517
383.483
466.115
367.481
354.829
465.289
325.044
305.97
292.978
463.085
422.988
469.155
429.335
370.833
617.892
679.632
423.217
450.708
529.225
689.478
456.284
455.23
377.337
415.217
746.008
610.208
285.234
307.575
565.876
306.098
384.057
347.047
382.877
397.556
402.136
431.467
344.809
343.068
457.769
649.709
448.448
435.204
414.483
416.724
405.606
450.497
720.665
350.204
450.837
421.851
818.774
498.449
322.647
370.189
380.586
360.305
370.716
418.743
385.208
620.777
810.797
641.595
565.953
406.988
970.307
452.29
522.205
781.395
681.307
540.928
473.007
795.203
444.256
258.693
278.394
281.868
374.243
378.999
364.614
342.156
321.994
388.67
337.925
332.719
359.267
285.371
344.699
332.004
325.61
329.451
317.469
318.205
338.323
386.274
344.088
452.372
373.078
288.414
411.424
429.042
428.604
410.182
431.741
317.691
403.076
384.581
398.002
458.885
418.35
407.648
436.825
297.506
432.153
483.083
460.357
480.924
423.696
487.967
453.884
1130.38
430.198
430.303
463.081
403.582
436.939
393.69
333.878
365.793
331.173
446.322
415.231
388.801
300.495
289.648
276.912
371.179
309.187
374.473
290.463
292.131
293.497
479.49
470.108
493.551
409.888
436.024
451.754
451.724
453.242
419.461
335.836
375.9
380.62
394.371
572.22
528.68
423.887
364.59
383.879
387.763
622.349
533.68
561.303
610.357
756.526
508.369
643.715
455.336
473.743
504.893
405.511
433.128
381.976
580.321
489.772
511.759
529.186
489.255
433.827
745.213
433.779
352.179
485.273
464.732
562.796
531.413
453.646
431.417
350.72
409.753
399.043
391.325
381.465
539.773
727.964
936.96
578.386
654.714
396.498
384.694
685.778
351.461
347.842
322.077
715.215
380.621
360.31
388.063
395.033
305.457
297.743
282.247
600.691
478.485
370.946
475.633
573.173
359.525
342.752
424.204
386.891
413.27
349.743
348.099
375.549
356.259
341.796
332.196
223.083
307.852
261.422
356.089
355.433
345.403
359.321
307.924
603.923
452.181
343.762
413.515
371.738
384.847
374.473
335.936
326.897
301.428
332.015
371.712
329.54
358.295
409.98
363.776
301.598
683.227
577.895
666.952
804.165
461.387
498.192
446.517
466.863
464.929
438.103
441.003
457.509
466.042
492.826
394.796
396.058
387.088
431.089
414.986
423.969
419.934
410.065
413.558
452.815
429.709
439.573
509.547
590.631
460.132
469.557
540.702
666.545
579.989
308.019
345.076
491.753
362.468
452.594
342.474
408.986
385.479
425.406
446.268
506.427
413.75
428.012
531.146
516.594
477.193
506.21
608.297
653.426
379.17
315.182
371.777
396.646
316.979
322.398
326.904
455.752
391.998
338.607
367.436
352.457
378.066
373.986
266.755
332.986
268.791
375.332
410.982
472.207
437.669
406.56
470.623
336.504
347.674
337.554
494.331
644.36
505.711
501.345
664.172
680.475
901.132
725.96
591.941
534.69
474.92
649.127
575.884
553.972
425.618
457.285
452.061
903.593
455.563
443.363
521.515
464.356
1115.17
653.057
737.368
890.907
742.857
910.088
435.737
508.363
623.504
622.514
509.134
502.305
500.903
752.161
648.616
920.896
486.41
417.62
445.118
454.506
432.77
898.962
509.142
539.707
461.615
478.683
742.792
514.73
551.678
534.093
285.818
270.914
301.496
274.987
265.001
254.92
273.859
301.694
297.006
372.443
404.263
406.737
376.119
381.194
366.982
318.19
356.409
345.187
408.27
357.466
386.326
325.826
317.477
291.76
356.804
343.924
355.125
335.758
359.042
339.289
330.191
329.562
319.788
328.074
335.896
336.687
334.252
397.625
338.975
289.89
268.652
333.462
309.769
292.191
335.173
304.699
291.056
336.711
411.855
337.474
315.058
333.425
312.371
316.557
332.332
357.049
310.439
303.646
354.514
337.373
297.713
308.324
315.999
301.606
325.848
298.75
311.535
304.778
335.316
337.126
390.205
406.614
418.188
360.233
377.332
381.943
421.278
409.41
349.874
343.636
308.922
326.804
323.72
283.481
339.905
342.867
325.659
340.028
370.956
447.863
400.132
443.123
437.981
434.586
413.78
382.805
411.863
416.79
434.94
455.778
439.586
416.025
424.273
410.656
412.092
346.767
401.7
398.51
276.753
310.158
281.681
270.757
297.098
413.995
432.09
399.356
412.622
459.608
391.51
397.753
395.362
407.15
333.942
386.969
456.845
386.821
392.782
365.235
395.279
352.104
362.19
371.607
396.791
428.771
422.984
389.456
418.865
408.644
394.871
392.274
498.009
444.979
467.434
468.803
448.239
396.034
425.524
411.871
279.292
233.458
248.727
329.059
396.392
435.711
452.842
482.308
472.166
335.177
375.947
451.774
321.19
366.042
503.581
340.247
425.864
408.224
484.084
434.727
446.684
492.019
544.413
285.369
469.407
430.512
386.198
409.859
436.161
439.516
466.514
387.734
402.554
468.19
533.915
564.333
447.765
467.432
460.542
465.478
510.804
454.315
558.662
457.849
434.889
448.08
855.484
771.66
934.551
767.89
1158.97
464.261
585.178
504.957
397.952
397.298
405.202
421.249
442.671
430.061
444.131
436.857
420.755
412.131
746.618
460.959
480.642
908.238
545.246
434.592
447.281
451.168
