# vtk DataFile Version 4.2
vtk output
ASCII
DATASET POLYDATA
POINTS 642 double
-2256.46 5540.61 -703.274
-82.5471 5502.59 -669.46
-2264.75 766.039 -29.5888
1270.15 783.973 95.703
-688.41 1414.18 1952.13
-1598.88 4346.3 1313.7
-490.927 1854.65 -1571.71
-1515.49 5182.23 -2218.31
1278.99 3013.4 -768.563
1498.52 2923.38 1048.43
-2680.67 4176.74 -1194.28
-3152.16 3575.02 1500.23
-3042.59 4784.91 886.539
-2323.08 4154.96 1837.37
-1871.84 5033.48 1056.62
-292.497 5142.52 257.9
-723.267 5988.92 -351.728
-174.108 5642.68 -1099.56
-2006.9 5841.14 -1777.79
-2020.42 4973.57 -2297.67
-2829.98 5238.34 -1370.06
-3254.12 3508.85 277.28
632.17 3578.48 1438.85
1074.85 3900.67 658.3
-1872.8 2206.65 1619.99
-451.927 2932.74 1978.24
-2504.45 1690.81 -475.675
-2630.78 1753.5 858.528
-984.344 4062.19 -1407.58
-1612.87 2726.75 -1266.49
918.209 4325.23 -455.137
152.734 4604.12 -1048.43
2000.99 1619.56 788.716
711.982 2294.3 1840.51
467.224 847.544 1420.99
-1718.2 805.724 1495.73
-531.97 735.376 -59.2978
-1376.96 969.477 -1207.72
366.549 991.333 -1110.27
570.516 2246.95 -1326.07
1841.32 1725.6 -430.483
1763.23 2508.25 150.868
-2711.1 5047.8 462.17
-2483.25 5012.14 1063.4
-1856.13 5133.45 613.592
-2771.76 3917.18 1784.19
-2741.04 4523.67 1547.43
-3157.28 4190.71 1272.19
-1810.35 4804.88 1264.46
-2173.78 4680.73 1500.93
-2081.2 4293.31 1686.33
-911.023 5781.49 -31.1678
-1084.84 5913.74 -420.046
-472.513 4384.7 886.029
-1088.49 5416.26 428.686
-379.77 5831.41 -519.251
-627.142 5773.44 -130.528
-384.181 5530 -234.782
-1320.11 5824.18 -1035.1
-2137.21 5816.5 -1541.06
-51.3479 5632.31 -891.893
-394.907 5941.41 -830.707
-1790.95 5518.23 -2056.06
-989.278 5720.63 -1460.97
-635.942 5397.94 -1495
-2526.04 5775.2 -1653.23
-2628.72 5538.09 -1101.53
-1876.68 5110.93 -2418.53
-2094.11 5507.49 -2204.97
-2751.14 5001.43 -1424.25
-2640.01 5252.97 -1862.48
-2379.9 4601.66 -1908.07
-2930.82 4902.67 -43.9839
-3018.05 3540.33 -345.451
-2913.52 4406.66 -416.478
-3234.73 4280.17 569.115
-3236.26 3567.75 902.611
602.639 4234.61 734.219
422.745 4524.88 113.68
133.336 3816.08 1419.67
400.945 4100.79 1131.06
1335.49 3509.84 869.704
945.524 3816.89 1075.11
1078.32 3332.23 1337.95
-2130.88 3723.7 2006.89
-905.058 3481.45 1814.15
-2738.75 3318.48 1682.6
-2246.92 3604.6 1985.65
-351.156 2359.43 2090.05
-1385.48 3087.64 1984.14
-1227.58 1409.19 1808.93
-3221.37 2672.34 449.976
-2969.81 2870.5 1103.32
-2727.31 2635.84 -743.454
-3052.06 2644.33 -161.554
-2516.73 1065.18 501.913
-2700.64 1662.61 50.2366
-2534.39 1070 -362.102
-1965.68 4342.85 -1998.66
-1888.64 3474.69 -1434.38
-1518.47 5247.29 -2201.38
-1902.37 4763.18 -2323.69
-969.072 1956.84 -1519.82
-1721.03 3237.62 -1710.83
-507.431 2382.11 -1573.14
-112.511 5254.53 -1263
-593.264 5271.05 -1673.82
324.569 5227.98 -795.688
191.997 5318.24 -859.746
874.333 3282.12 -953.778
32.5476 4414.5 -856.161
1216.6 3445.7 -560.473
1794.77 1131.68 498.514
1442.72 1181.1 1071.17
982.504 771.719 757.787
1210.17 2597.19 1447.63
1539.14 1781.07 1193.74
1950.92 2112.67 860.041
-183.91 1172.22 1816.43
646.874 1454.04 1687
165.106 1898.71 1991.09
155.544 737.533 989.008
622.189 738.902 31.0922
-978.505 1107.88 1958.78
-630.609 770.054 1669.23
-1679.3 729.634 111.807
-1303.8 739.643 962.3
-2004.87 737.062 960.946
86.0109 738.525 -780.104
796.23 882.227 -576.921
-1953.2 847.346 -551.953
-1141.32 733.482 -841.845
-94.146 1367.7 -1343.43
-628.472 940.902 -1217.85
-1080.83 1227.06 -1305.98
1135.9 1349.5 -740.328
1698.59 1200.08 -248.286
16.2495 2065.22 -1543.05
561.856 1601.84 -1298.1
1695.8 2014.35 -451.82
1161.63 1946.22 -938.095
963.22 2655.39 -1105.68
2062.41 1604.57 129.696
1634.92 2828.41 -313.758
2034.04 2050.93 -91.5857
2138.22 2065.33 411.541
1737.31 2590.15 597.452
123.551 2613.05 2008.59
687.638 2939.89 1752.52
129.832 3139.66 1859.06
-2313.06 1028.44 1336.39
-1888.75 1243.56 1737.85
-2250.53 1718.98 1339.47
-1422.63 1267.99 -1247.9
-2125.83 1147.25 -687.506
-2240.02 2135.44 -900.01
517.715 2913.44 -1252.92
-55.9563 2722.32 -1578.93
-693.247 3795.51 -1656.05
1473.28 3471.9 402.23
1437.75 3456.11 -160.512
1068.22 3918.73 32.5688
-2470.68 5167.96 -108.491
-2424.79 5096.17 592.59
-1960.5 5321.19 48.6519
-2777.93 4930.77 990.483
-2619.77 5047.1 820.379
-2900.31 4940.72 712.321
-1925.92 5105.12 888.119
-2310.09 5082.8 902.667
-2169.13 5039.51 1078.9
-3001.83 3729.53 1659.62
-3014.28 4025.32 1583.42
-3191.08 3834.42 1435.73
-2536.11 4334.28 1741.66
-2766.83 4228.04 1713.04
-2534.45 4070.35 1850.56
-3120.8 4539.69 1070.03
-2972.07 4390.14 1424.9
-2923.16 4678.31 1236.78
-1799.52 4658.1 1350.83
-1952.68 4589.42 1477.89
-1939.23 4416.85 1533.91
-2026.39 4897.87 1288.35
-1981.12 4762.11 1391.51
-1847.86 4936.66 1163.66
-2189.17 4218.56 1778.76
-2125.87 4497.66 1609.48
-2270.32 4437 1699.88
-2633.05 4818.34 1312.75
-2441.21 4627.74 1559.23
-2321.8 4870.1 1325.09
-1326.97 5649.89 -60.9366
-1648.99 5622.72 -668.315
-1352.49 5258.78 491.068
-1343.17 5506.99 170.5
-838.14 5995.4 -313.039
-923.513 5897.79 -161.131
-825.943 5937.23 -206.733
-1140.57 4164.05 1012.72
-1579.96 4775.2 1091.17
-755.496 5380.25 119.763
-1187.91 4863.39 546.099
-230.453 4607.14 537.839
-1690.92 5007.82 982.125
-1536.09 5119.46 842.698
-230.261 5696.91 -610.432
-371.502 5701.65 -348.793
-224.265 5528.77 -442.817
-679.283 5902.78 -230.999
-524.6 5820.92 -265.769
-577.617 5947.39 -442.842
-473.362 5375.12 34.9507
-496.04 5673.23 -175.013
-586.605 5609.72 -65.74
-918.866 5572.25 193.114
-794.448 5659.86 24.2735
-784.834 5813.45 -74.8111
-1709.23 5800.11 -1205.44
-2204.31 5686.12 -1222.65
-759.734 5998.89 -544.685
-1234.73 5872.47 -723.663
-2096.61 5844.71 -1646.35
-1896.37 5761.97 -1412.42
-1905.27 5779.3 -1569.72
-37.4671 5611.87 -891.784
-197.436 5759.65 -771.117
-271.033 5840.98 -963.298
-222.373 5814.35 -851.643
-81.6715 5671.74 -940.13
-385.603 5910.4 -714.459
-527.261 5976 -641.076
-1648.3 5228.15 -2203.15
-1375.72 5453.46 -1830.94
-1199.14 5221.51 -1999.4
-1698.97 5727.31 -1716.71
-1528.85 5643.98 -1761.2
-1906.57 5730.99 -1924.34
-302.013 5557.52 -1254.59
-833.92 5636.52 -1487.95
-442.603 5765.14 -1198.3
-602.893 5996.69 -845.407
-510.636 5931.6 -1044.57
-1122.97 5800.49 -1287.89
-2396.33 5729.04 -1358.42
-2438.98 5565.88 -914.101
-2211.57 5895.29 -1746.6
-2314.33 5847.02 -1583.96
-2768.42 5406.16 -1257.38
-2599.17 5683 -1446.5
-2753.78 5518.53 -1522.29
-1750.72 5139.89 -2346.35
-1851.33 5230.9 -2315.42
-2067.03 5225.85 -2307.69
-1914.27 5234.19 -2378.35
-1916.35 5100.44 -2438.22
-1946.36 5535.92 -2163.37
-2049.1 5762.99 -2017.45
-2593.37 4543.04 -1431.48
-2598.95 4805.74 -1670.36
-2460.68 4505.8 -1701.02
-2807.52 5265.4 -1623.85
-2754.53 5180.29 -1644.02
-2818.12 5157.31 -1416.69
-2247.94 4791.92 -2102.96
-2528.71 5037.3 -1889.48
-2365.66 5151.33 -2077.24
-2363.2 5718.55 -1993.35
-2427.93 5393.28 -2099.56
-2675.39 5491.77 -1835.53
-2627.87 5224.79 -429.707
-2828.9 5123.55 -844.778
-2771.82 5174.96 -654.396
-2865.37 4976.58 193.799
-3074.82 4823.6 527.429
-2628.55 3677.27 -823.916
-2726.29 4393.7 -862.83
-3216.15 3912.07 61.8545
-3012.49 3989.19 -371.774
-3175.51 3486.85 -78.1125
-2806 4836.5 -1003.4
-2830.13 4981.41 -1039
-3229.5 3869.37 1174.56
-3225.85 3571.09 1290.29
-3212.61 4581.81 765.053
-3230.02 4279.09 947.479
-3324.06 3553.67 504.774
-3304.43 3900.29 707.283
-3317.49 3902.25 416.006
-2961.01 4730.31 -211.488
-3221.78 4296.86 231.754
-3211.3 4620.11 368.717
94.3932 5030.06 -343.098
25.4763 5206.41 -513.154
129.986 4536.76 731.61
-284.853 4701.09 404.55
888.421 4084.31 536.664
627.291 4292.37 462.447
846.814 4094.48 700.752
-299.636 3924.12 1359.56
-4.89717 4073.89 1228.35
528.299 3886.98 1271.43
303.066 3993.78 1261.72
400.218 3686.53 1428.14
163.143 4190.89 1087.19
244.553 4331.37 884.933
1419.46 3289.24 975.907
1243.07 3440.31 1115.41
1268.55 3208.77 1239.9
1033.03 3863.72 866.687
1148.65 3672.97 985.754
1229.3 3709.68 763.331
856.964 3460.63 1406.11
1026.04 3596.37 1203.58
819.589 3732.32 1260.15
510.571 4181.35 941.272
676.863 3979.34 1116.07
784.757 4041.8 917.275
-1895 3905.53 1779.25
-1203.48 4014.41 1216.33
-2161.57 3891.7 1887.57
-2056.3 3949.48 1820.51
-547.79 3322.41 1812.55
-1697.87 3814.45 1787.16
-1372.98 3525.01 1524.14
-2980.66 3462.11 1626.65
-2801.01 3601.62 1752.32
-2189.69 3359.16 1888.98
-2501.34 3499.8 1866.31
-2295.32 2996.15 1619.33
-2528.58 3749.47 1898.82
-2300.51 3819.93 1946.09
-523.568 1809.99 1981.62
-726.182 1805.83 1943.35
-844.576 1384.03 1958.36
-998.605 2810.52 1978.51
-672.045 2537.03 2003.8
-361.222 2604.61 2020.17
-1674.2 1550.99 1618.73
-1173.06 2102.01 1818.42
-1719.89 2745.15 1762.07
-2111.38 3615.52 1978.1
-1967.28 3510.3 1983.09
-1913.93 3467.79 1983.28
-3165.49 3279.78 1115.22
-3132.26 3356.72 1380.2
-3237.38 3069.54 350.195
-3176.63 3157.19 641.141
-2888.1 2269.4 957.548
-3135.95 2724.5 769.293
-3038.29 2349.96 618.975
-2643.37 3058.2 -812.561
-2843.96 2984.84 -583.088
-2873.75 2270.5 -409.758
-2889.94 2603.04 -498.833
-2733.34 2306.41 -634.658
-3029.23 3032.63 -236.31
-3167.34 3032.52 51.1195
-2424.63 876.307 233.62
-2553.14 1057.55 -37.2176
-2433.53 881.813 -234.811
-2749.84 1735.55 429.473
-2608.07 1263.76 208.747
-2442.38 1288.11 732.139
-2491.41 1200.14 -396.762
-2584.12 1208.19 -200.556
-2560.14 1595.65 -245.233
-3202.94 2654.13 180.032
-2983.4 2272.82 -53.5568
-3077.7 2325.71 289.663
-2220.66 4365.73 -1856.47
-2315.27 3946.31 -997.477
-2011.41 4603.25 -2152.32
-2155.69 4453.83 -1976
-1839.25 3236.65 -1336.13
-2048.53 4182.43 -1804.49
-1908.16 3938.51 -1669.3
-1510.82 5177.93 -2225.56
-1774.31 5133.47 -2359.69
-1940.13 4636.65 -2095.31
-1913.92 5035.94 -2219.57
-1586.25 4792.87 -1934.88
-1917.44 5106.14 -2439.3
-1908.32 4897.05 -2364.35
-738.275 1911.66 -1556.6
-741.864 2228.34 -1577.64
-483.141 2070.76 -1573.1
-1450.82 3036.85 -1705.05
-980.895 2532.22 -1557.39
-1174.61 2123.25 -1414.83
-555.234 2891.58 -1572.33
-891.673 2714.78 -1586.43
-1824.46 3525.98 -1632.07
-1881.96 4490.55 -2205.25
-1867.91 4357.73 -2150.31
-1837.79 4108.03 -2057.72
-564.132 5271.94 -1661.55
-1254.36 5237.37 -2005.84
[...]
POINT_DATA 642
SCALARS Mean_Curvature double 1
LOOKUP_TABLE default
0.000647534
-0.000162595
0.00232881
0.00248775
7.65909e-05
0.00287939
0.00163492
0.0327482
0.00147962
0.00105674
0.00695829
0.00372346
0.00205227
0.00201397
0.00161263
0.00889192
0.00492902
0.0018556
0.00374368
-6.64302e-06
0.00266581
-0.000151184
0.00074449
0.00133874
0.000572402
0.000460626
0.000492056
0.00032925
-0.00266327
-0.00131287
-0.0125157
0.00643039
0.00230742
0.000940928
0.00236561
0.00262486
1.211e-05
0.00326675
0.00277136
0.000107499
0.00316987
-0.00141637
0.00149303
0.00175605
-0.0018464
0.00146298
0.00191795
0.00143177
0.00171251
0.00145426
0.00068826
0.00104103
0.0020234
0.000616959
0.00425685
0.00184068
0.00254495
-0.000385874
-4.19002e-05
0.00190983
0.0158569
0.0039693
6.0772e-05
0.00219315
-0.00216951
0.00355205
0.00198264
-0.0229545
0.00285795
4.57387e-05
0.00202714
0.00209364
0.00167159
0.000466062
-0.0010975
-0.000253888
-0.000122144
-0.000191283
-0.00240786
0.000964223
0.00167828
0.00096027
0.00156727
0.000953144
0.00348288
0.00473342
0.00135257
0.00402504
0.00155898
0.00527262
-0.000985775
0.00199394
-0.000466302
0.00159191
0.000667253
0.0027016
0.000454607
0.00546158
-0.00257568
-0.000754815
-0.00597946
-0.0110767
0.00216363
-0.00892737
-0.000112716
-0.0169217
0.00938041
-0.0134252
-0.00124299
0.000537182
-0.00441539
0.000907383
0.00171662
0.00179115
0.00149173
0.000520447
0.000240912
0.00344987
0.000106684
0.000866201
0.000513524
0.000103326
0.000134142
0.00356487
0.00288611
-0.00037374
-5.81462e-05
0.0014283
0.00178304
0.000851426
0.000727207
0.00124949
0.000317622
0.0028835
-3.98111e-06
6.35354e-05
0.00203344
0.00135547
0.00206554
5.54496e-05
0.000741858
0.00096317
0.000997169
0.00228557
0.0039496
0.00537199
-0.00101766
0.000355399
0.000709667
0.00135992
0.00300413
0.00555022
-0.000477358
0.00186732
0.00224662
0.000634047
-1.08176e-05
0.00263316
-0.00219657
0.00105401
0.00131561
0.000196238
-0.00086862
0.000111027
-6.12535e-05
0.00156271
0.00164004
0.00155848
0.0031817
0.00108101
0.00161855
0.00221373
0.00142838
0.00288367
0.0016359
0.00204113
0.00188098
0.00155933
0.00119638
0.00168189
0.000992432
0.00179088
-6.41765e-05
0.00234483
0.00231402
0.00524124
0.00201034
0.0014411
0.00245937
0.00175779
0.00151682
0.00131606
0.000687481
-0.000859944
-0.00341457
0.00151478
0.00392137
0.00282359
0.00400147
-0.00323881
0.00103026
-0.00145444
-0.00194444
-0.0016123
-0.00461786
0.0166383
0.000802374
0.00200367
0.000416669
0.00262424
0.00272674
0.00179657
-0.00400143
0.00224821
0.00324674
0.00587596
-0.00160483
0.00525759
0.00579239
-0.000591055
0.00111607
-0.00174465
0.00180638
-0.0115232
0.000787572
-0.00512389
0.00203917
0.003344
0.00409423
0.00592649
0.00162159
0.0034906
-0.00161093
-0.000835289
0.00850328
0.00139618
0.00144169
0.00140715
0.00084878
0.00197955
0.00166029
0.00181604
0.00292005
0.000740691
0.00130774
0.00131204
0.00492031
0.00358918
0.00167672
0.002651
0.00311267
-8.22525e-05
-0.00191926
0.00200769
0.00929929
-0.00900495
0.00310055
0.00438831
-0.00171781
0.000929939
0.000944283
0.00510138
0.000787074
0.00304592
0.00140131
0.000537239
0.000205265
0.0031044
0.00295787
0.00330089
0.00110574
0.00233354
0.00149551
0.00115174
0.00177923
-0.0028269
-0.00103724
0.000623442
0.00160667
0.00118837
0.00116022
0.00165477
0.000511151
0.0021132
0.00242682
0.000959511
0.00225002
0.000919617
0.00156276
0.000621256
0.000718662
0.00238618
-0.000211918
0.00167208
0.00770802
-0.00325524
0.000939432
0.00152836
0.00163167
0.00207939
0.000411892
0.00108829
0.0012206
-1.77532e-05
0.000596108
-0.00104323
0.00112484
0.0015447
0.00127449
0.00107233
0.00122621
0.0015244
0.000702877
0.00108463
0.00150691
0.00139149
0.00156315
0.00118779
-0.00044763
-0.00260106
-0.000968312
5.61582e-05
-0.00369143
0.00549804
-0.00360062
0.00249644
0.00100817
0.00139708
0.0011411
-0.0014927
0.00167125
0.00279
0.000303905
-2.03704e-05
0.00116264
-0.00204938
0.00104869
-0.000321742
-0.00160429
-0.000193816
-0.000539016
-0.00523234
-0.00679355
-0.00771437
0.00100199
0.00247576
0.00140197
-0.000950715
0.00105752
0.001406
0.000594787
0.00190712
0.000564394
0.00145178
0.000929714
0.0013618
-5.86295e-05
0.000514337
0.00208188
0.00176894
0.00286231
0.000529487
0.000552413
-0.00189618
0.00113994
0.00193047
-0.000845929
0.00196819
0.000578895
0.00108718
0.00135218
-0.00256676
-0.000229881
0.00113435
0.000649632
0.00381277
-0.00315457
0.046554
0.0177804
-0.0028323
-0.00512359
0.00137037
-0.0180116
-0.00484389
0.000882718
0.00090259
6.70714e-05
-0.00395024
-0.000491462
0.000701826
0.000209823
0.00023123
-0.00224189
-0.00705347
-0.0182274
-0.00434339
0.00158673
-0.066242
0.00219387
-0.00111791
0.000586568
0.0638508
0.00860035
-0.00594672
-0.03384
0.0119655
-0.0611518
0.0668765
0.0124211
0.00144721
0.00122239
0.000859622
0.00129514
-0.00139332
0.000690167
-0.00311637
-0.00109201
0.000313382
-0.00262815
0.00379914
-0.00109944
-0.00339266
0.00060063
0.00138626
0.00188152
0.00204627
0.00139292
0.00251597
0.00254141
0.000386982
0.00143682
0.000786737
2.90819e-06
-0.000416876
5.52902e-05
2.30136e-05
0.000988775
0.00158405
0.00129006
0.0015119
-0.000346937
0.00211467
0.000170016
0.00101105
0.000597891
0.00167566
0.0014794
0.000895252
0.000293866
0.00183686
0.000588138
-0.000155434
0.000251392
0.000997069
0.00165855
0.00043259
-1.1265e-05
8.53515e-05
4.49319e-05
0.0034896
0.00346251
0.00305583
0.00244519
-0.000410236
0.00125939
0.00157014
0.000248858
0.00273011
0.000790171
-3.39185e-05
0.000457311
-7.33391e-05
0.00201292
-0.000543629
0.000457236
0.00113353
0.000682652
-0.000373972
0.00118449
0.00147449
9.92864e-06
0.000228012
0.00243616
0.00270255
0.00236419
0.00303206
0.00115528
0.00286304
0.00206236
0.00203924
9.25349e-05
-5.62924e-05
0.00141254
0.000513737
0.00125385
0.00116464
-0.000155564
0.000533632
0.00349049
0.000815133
0.00229334
0.00179565
0.00172257
0.00101502
0.000908641
0.00146238
0.000915394
0.000529763
0.00184516
0.00119668
0.00137084
0.00124817
0.000770669
0.000685934
-0.000499878
0.000483921
0.000129248
0.001037
0.000749728
0.000279282
0.000796509
0.000137651
-0.000640134
0.00254105
0.001438
0.000407394
0.000895817
0.00157276
0.00154627
0.00059488
0.00133161
0.00238793
0.00201811
0.00188062
0.00130299
0.00103288
-0.000699086
0.00158972
0.00179476
0.000404297
0.000604885
0.00404627
0.00249315
0.00192159
0.00221415
0.00380344
5.26308e-05
0.00102777
0.000486203
0.00170787
0.00436413
0.00386342
0.00141866
0.00118971
-9.04113e-05
0.00249001
0.00025568
0.00117625
0.000882992
0.00076637
0.000831288
0.000936752
-0.000710071
0.00157979
0.000934514
-1.23068e-05
0.000565778
0.00232007
0.000495686
0.002032
0.00115293
0.00348097
0.00264343
0.00280085
0.00175621
0.00328944
0.00212639
0.00175877
0.00229149
0.002757
0.000390504
0.000495274
0.00145288
0.000849525
-0.000173426
0.00436899
0.00157758
0.00191488
-0.000481021
0.00367059
0.00486385
-0.000295777
-0.00118542
0.00342784
0.000977049
0.00448662
0.00210594
0.00270273
0.000661814
0.000258032
0.000248322
0.00176437
0.00108371
0.00191493
-0.00211873
-0.000791093
0.000985632
0.000348623
0.000726183
0.00157997
0.000718831
0.000371431
-0.000273392
0.00017377
0.00135805
0.000307606
0.00222286
-0.00175994
-0.00177599
-0.00199336
-0.00952074
0.00151546
0.00146016
1.09293e-05
0.00143652
0.00146364
0.000732462
0.00130569
0.000672707
0.000925666
0.00248877
0.000914398
0.00118074
0.00122273
-0.0015036
0.000206394
-0.00038546
-0.00535975
-0.00809282
0.00143656
0.00145416
0.000312018
SCALARS CoVolArea double 1
LOOKUP_TABLE default
250410
67847
86658.8
86933.5
62103.9
187259
61965.5
16339.8
75592.4
108429
193473
49648.7
90083.3
60106.6
74165.6
140532
28190.4
56787.9
46239.8
78151
66731.2
134083
90373.7
62439.6
273982
230099
137089
225035
651880
396822
113060
263803
94356.5
146523
117550
115702
392764
72207
73883.9
105747
59658.6
157035
144047
81652.2
221165
86694.3
101174
108750
45522.1
61742
54278.5
79607.4
172752
413482
140271
48239.1
30134.1
180891
184980
65289.9
9838.51
35424.7
96278.7
123503
166797
85115.7
123326
6721.87
81637.3
133090
65908.6
87877.9
138134
262234
231203
125137
143629
136301
155975
127850
61666.2
63171.8
63450.7
74089
95673.5
287673
153169
54192.6
119688
247763
187601
123269
191586
94430
139584
125436
202494
45638.3
69091.8
347397
90889.1
37988.7
121668
155903
124884
15147.4
102176
63946.2
29166.3
99956.8
318419
77682.5
114051
146807
135015
162012
124238
61585.8
155850
171772
121076
213656
188225
92666.3
115184
174990
246821
116500
114823
137134
106956
124199
144616
111193
69165.5
167425
98292.9
101940
78231.5
109662
117838
113934
106457
114325
33620.9
23246.8
123319
90817.9
84710
76406.3
79343
39218.1
189581
66044.6
87200.5
224208
121289
73165.4
482969
82805.7
62304.9
176845
249987
210939
415233
91609.8
82159.3
91489.4
123785
94447.3
73737.6
72544.5
101794
80703.3
79034.3
91792.7
75507.7
98720
108792
106077
107439
38398.3
147987
58973.5
40858.4
35863.3
42575.5
42097.2
60082.2
107626
92651.4
90748.8
270649
380056
149520
147681
50237.4
71678.9
20689.2
344886
284782
275065
436336
368454
119247
57509.7
50166.5
44969.5
82240
29106.6
37874.2
38355.8
109136
37594.5
66147
63380.5
51928.4
30552.3
161533
181321
108371
93549.7
29523.6
57826.2
108345
34319.7
30512.8
47285
23874.7
30242
34293.5
38224.1
85684.8
179300
115180
104374
103905
60271.2
95876.5
133389
91169.1
130751
102306
190958
79271.3
138874
61642
44499.9
93415.9
69399.9
75208.6
13925.1
39930.6
72306.3
30859.8
18780.9
51081.9
64798.6
187346
105541
157781
49933.6
60953.3
42331.8
104741
99651.6
96583.3
114684
103660
100705
170733
125503
133189
136837
109967
290372
302134
192651
211916
162743
141725
127051
123838
81280.4
103774
127702
124508
140535
121793
216149
194832
145553
308067
112263
124614
407080
100046
244826
64380.6
284088
193520
70461.4
68997.6
91293.3
139040
110175
91115.9
66844.8
94465.2
61208.2
60005
54951
77762.7
66690.8
72620.2
76911.7
68742.8
68394.1
234468
441861
38930.7
51292.6
158374
120935
375306
72936
78447.6
204623
112581
282504
77426.4
57010.7
123980
222010
74865.8
246697
240168
95781.8
263102
458571
382431
21713.3
115707
148264
146252
93195
124322
162522
208557
175991
193815
214032
193847
166957
121417
123596
155826
140843
124605
88659.7
74487.3
246508
155342
175435
59114.7
91157.2
167857
125803
195767
182954
209581
456047
69284.1
61327.5
196252
65211.8
232122
9986.74
22390.6
346975
102395
249964
17600.8
27128.9
93940.5
96867.8
63631.7
326149
152093
269813
417611
207081
575821
33433
87824.9
141404
52515.7
14218.2
47310.1
58454.8
316445
6521.49
38498.3
76844.7
8877.73
81754.7
7028.17
16245.2
16988.8
46371
62553.3
88735.6
63547.1
121895
182458
118115
139524
231546
328476
33883.9
161167
78035.9
118049
132382
110196
103175
118164
95089.4
117954
142078
151093
143989
132048
109753
183157
159039
147672
65521.1
93018.8
85696.9
100593
136723
134866
148676
147310
132890
119571
128447
179044
136033
188086
189863
141391
110418
130531
139776
298159
238512
385744
44246.3
85895.6
125893
102708
148997
113622
128675
122346
129145
142757
370056
184061
294151
93458.6
136712
152425
176824
189820
311057
137461
119138
229831
165457
93113.3
100824
86828.4
79855.6
133013
87480.5
113221
105388
197302
258181
112544
122959
104491
105722
117246
92259.1
39360.7
82341.3
76222.1
149156
117309
134732
127927
109662
125818
145198
79162.9
117885
115689
72013.6
131475
80036.7
105179
100734
106569
83353.1
150156
160281
106631
89135.2
103789
37748.2
100479
138125
102290
144654
110717
160101
115016
84783.9
98692.1
104522
104263
111892
135920
75971.3
87619.4
118347
53832.6
40691.5
75236.4
117452
72284.3
35689.4
129232
57640.8
64034.1
71459.5
28995.2
73073
129406
108104
105997
69620
88355.4
109990
97748.4
84153.3
104976
98866.9
304994
92930.1
118960
124621
100053
88844.8
86565.3
80580.5
133859
87090.6
95009.7
103328
128518
56399.5
104255
56360.9
85343.8
102483
170070
184782
232764
269869
245431
69440.4
89244.8
105165
84986.5
42137.6
31119.8
93648.6
267203
69913.1
109191
46390.4
90113.8
85214.2
259112
329023
213254
119615
181499
104805
215363
222112
70708.4
106655
79493.8
92851
348063
79570.6
167779
102212
87838.8
110109
130811
839423
601083
232533
174977
102989
85334.2
383362
104504
142309
121288
68119.1
72397.3
76417.2
73243.7
63447.4
83637.2
121181
248031
110498
266046
212229
95990.3
84861.1
97258.9
96377.1
SCALARS SignedDistance double 1
LOOKUP_TABLE default
302.836
329.142
195.744
178.865
315.732
399.504
301.893
626.746
275.38
262.908
528.942
179.578
192.772
267.737
306.338
655.26
251.989
237.288
322.14
342.527
243.951
249.395
304.147
303.473
307.439
279.678
368.342
283.476
953.845
403.97
644.169
823.177
196.435
239.542
187.671
181.793
228.01
220.484
242.377
309.406
262.489
333.282
249.519
231.206
340.441
215.966
197.412
196.504
303.116
288.322
317.478
296.501
252.753
451.61
532.067
286.829
298.275
364.398
597.443
321.936
305.7
252.442
302.744
684.294
533.811
204.242
206.388
494.617
209.989
262.575
237.946
259.972
284.513
271.735
308.505
234.192
233.607
305.044
551.387
297.099
286.294
275.937
271.491
272.09
371.681
595.365
234.096
333.246
289.324
699.6
352.474
220.694
259.947
247.353
245.1
285.769
315.12
288.015
543.159
738.825
589.722
499.976
266.889
906.816
303.618
375.597
725.356
602.754
447.693
316.81
724.141
293.868
169.213
179.298
190.016
250.72
256.411
236.824
239.803
216.756
267.217
229.089
224.31
253.294
198.904
232.939
223.577
225.744
224.534
213.425
208.424
229.827
261.102
228.786
310.404
259.048
183.485
272.027
301.331
299.253
275.084
287.425
217.518
263.866
244.955
265.756
327.996
284.876
280.171
292.551
219.571
296.44
380.497
305.492
342.852
297.714
331.005
309.281
976.928
288.315
286.456
311.625
282.516
299.857
270.661
230.2
251.931
228.097
308.622
286.007
256.998
196.389
190.272
188.952
256.048
203.686
260.934
192.868
192.509
188.181
318.591
323.147
334.136
267.743
288.373
296.601
302.17
307.136
283.081
224.917
252.396
254.331
266.901
479.783
423.069
288.695
240.486
254.188
254.68
431.189
372.198
397.113
436.306
635.988
370.323
524.389
311.051
329.617
338.785
262.396
290.402
247.924
462.891
345.998
365.669
427.048
338.647
289.89
668.523
310.8
237.842
380.186
321.888
441.003
394.319
306.983
287.945
245.314
276.589
287.496
252.106
251.564
480.653
670.498
866.185
471.936
574.586
288.88
270.463
620.324
231.9
235.564
203.02
643.423
264.057
246.422
291.646
278.337
204.609
196.245
182.625
512.654
392.763
283.925
399.28
495.44
245.88
239.948
296.833
280.376
274.194
239.44
228.624
253.653
248.974
235.817
219.267
138.818
208.47
175.654
235.309
245.324
232.638
248.18
203.849
510.797
322.103
227.616
286.111
253.736
257.32
252.278
229.121
225.216
211.209
229.448
262.495
226.497
246.37
291.944
254.08
210.006
584.94
437.038
570.92
698.954
307.692
343.143
296.392
308.213
308.299
288.565
290.167
314.576
311.87
358.442
266.732
259.334
255.865
286.648
279.243
280.291
277.464
271.395
269.554
302.7
285.091
296.131
370.366
435.892
307.347
316.495
404.1
509.945
417.04
203.914
231.505
369.626
249.976
350.851
229.488
284.085
257.719
295.617
311.386
393.584
280.645
292.509
384.106
395.47
371.48
381.325
482.75
522.914
268.153
207.672
261.68
285.309
210.387
213.921
223.132
319.326
263.032
221.702
251.536
228.872
259.918
258.706
174.257
241.967
177.427
269.548
314.664
364.6
299.138
281.48
364.195
226.225
242.807
228.72
386.464
498.789
415.47
384.287
555.135
571.179
816.776
621.738
518.057
385.498
327.834
498.479
491.295
477.735
287.403
308.216
303.567
795.15
306.406
295.176
369.134
316.904
950.122
585.419
667.3
822.697
698.075
796.568
302.822
429.075
471.06
474.542
354.627
417.245
453.929
680.139
564.914
806.254
424.593
291.763
295.89
302.829
284.279
835.117
338.507
391.103
311.346
317.898
645.477
354.057
401.354
363.538
197.42
178.706
208.997
182.526
173.278
160.426
183.845
209.472
200.551
246.691
277.992
294.641
259.009
256.914
244.454
208.283
242.904
233.012
296.352
250.753
261.212
230.655
208.343
193.197
234.062
228.989
241.358
226.597
241.215
232.46
222.361
223.316
219.736
221.553
225.804
229.192
224.739
273.341
242.805
193.867
175.08
252.091
209.962
193.202
226.565
207.941
199.522
226.639
302.043
226.986
218.299
226.043
207.691
214.426
224.338
248.869
207.091
198.677
244.234
227.028
192.527
214.639
206.067
207.401
221.986
192.551
213.053
203.77
225.525
226.653
254.816
278.87
285.336
246.077
259.285
252.551
299.149
291.183
234.43
234.916
198.864
213.493
217.967
187.819
229.678
233.697
218.132
231.917
251.234
303.916
264.94
308.47
298.914
290.156
288.171
252.472
275.788
280.352
290.742
320.999
304.281
274.855
282.256
274.271
272.164
223.052
266.851
274.678
189.676
197.354
184.181
178.625
200.435
280.038
301.879
267.59
279.525
325.558
256.815
262.849
270.62
278.64
227.158
265.059
324.411
255.546
259.253
248.395
259.009
244.74
242.252
243.609
270.284
296.613
288.136
254.979
279.853
270.852
263.301
268.621
357.449
296.876
314.884
324.161
302.104
256.569
289.671
269.563
189.04
139.163
154.561
241.909
291.206
295.593
313.352
330.558
368.85
249.307
267.717
350.476
210.965
253.493
378.629
246.28
291.43
288.959
349.344
297.307
306.84
346.638
404.033
188.023
325.237
310.621
300.573
303.818
315.848
296.488
329.963
259.293
267.591
318.127
389.337
423.298
298.879
316.934
313.071
306.383
342.257
305.391
407.006
307.405
295.29
300.138
740.803
630.284
801.289
629.475
1010.23
306.116
439.017
342.155
264.682
260.306
273.559
280.369
297.616
288.348
296.455
288.824
280.489
277.815
657.269
309.865
323.869
808.559
491.159
291.023
300.268
303.651
