# vtk DataFile Version 4.2
vtk output
ASCII
DATASET POLYDATA
POINTS 642 double
-2323.31 5773.72 -616.805
179.912 5675.8 -551.412
-2342.09 589.354 -31.1779
1345.84 609.707 71.1847
-666.602 1402.17 2247.62
-1397.96 4506.75 1616.24
-500.316 1796.02 -1871.87
-1377.92 5154.28 -2412.96
1492.24 3076.49 -964.546
1718.62 2986.7 1191.79
-2784.02 4075.97 -1302.12
-3312.26 3545.86 1610.56
-3188.35 4915.26 945.873
-2324.6 4254.71 2092.4
-1841.12 5283.85 1207.88
-84.7175 5239.8 327.138
-667.025 6233.34 -288.244
-29.7429 5789.62 -1249.87
-1943.4 6093.18 -1842.52
-2127.29 4932.32 -2475.81
-3068.44 5283.09 -1375.24
-3496.51 3495 217.394
731.126 3733.21 1686.18
1293.93 4118.77 710.862
-1978.14 2170.87 1898.85
-465.309 3009.78 2260.77
-2736.74 1616.41 -613.018
-2845.46 1663.55 931.987
-1030.97 3928.45 -1763.61
-1766.14 2634.37 -1550.58
1035.79 4531.79 -509.845
245.446 4591.86 -1160.95
2175.48 1570.11 882.665
840.252 2274.02 2056.56
522.557 699.124 1534.43
-1737.62 645.144 1600.65
-531.926 496.912 -58.5058
-1445.71 839.206 -1364.97
424.122 856.119 -1290.75
693.101 2243.53 -1613.48
2012.09 1688.23 -607.913
2061.86 2643.12 139.636
-2810.39 5277.52 484.466
-2543.11 5227.66 1165.23
-1947.54 5421.96 664.525
-2883.82 3943.82 1974.97
-2841.49 4638.68 1693.77
-3336.23 4246.72 1356.19
-1676.35 4987.76 1484.7
-2152.75 4866.47 1721.89
-1951.84 4421.5 1953.95
-929.784 5997.24 154.606
-1185.97 6138.89 -371.213
-427.771 4651.16 1153.73
-1125.76 5606.77 573.617
-204.801 6040.53 -428.115
-493.442 5957.58 62.7373
-135.354 5695.27 -37.6345
-1341.28 6121.54 -1070.14
-2150.44 6094.92 -1451.13
178.589 5826.46 -840.266
-290.106 6172.61 -853.263
-1680.06 5666 -2225.88
-938.423 5932.93 -1601.7
-524.841 5517.88 -1714.93
-2636.76 5914.99 -1683.07
-2763.58 5690.14 -1049.42
-1818.74 5146.76 -2593.29
-2138.13 5607.29 -2379.6
-2992.05 4918.02 -1501.64
-2819.67 5224.09 -2012.29
-2554.44 4513.36 -2069.16
-3145.56 5038.4 -59.0769
-3246.69 3527.6 -488.748
-3188.44 4439.08 -481.271
-3472.5 4318.14 573.421
-3472.84 3537.4 935.269
751.73 4498.28 834.597
672.128 4743.41 146.688
168.835 3986.74 1680.85
486.685 4320.42 1326.23
1560.73 3658.98 977.355
1111.6 3998.28 1231.36
1240.44 3446.29 1540.55
-2013.41 3786.72 2198.75
-898.209 3615.99 2144.66
-2843.98 3223.26 1879.6
-2303.35 3573.99 2252.47
-390.132 2362.76 2372.24
-1365.94 3143.82 2229.56
-1316.91 1475.32 2104.36
-3438.8 2621.23 478.943
-3169.85 2786.89 1221.39
-2922.98 2607.04 -916.19
-3281.99 2606.2 -257.752
-2699.94 975.625 537.185
-2932.33 1581.53 14.2665
-2726.35 983.991 -442.078
-2082.99 4200.93 -2214.14
-2129.36 3389.49 -1602.67
-1436.89 5059.53 -2341.6
-1898.06 4723.41 -2459.96
-1064.73 1908.09 -1783.76
-1528.53 3373.53 -1911.74
-505.677 2379.3 -1891.17
121.895 5238.17 -1468.3
-553.975 5163.01 -1818.8
508.508 5332.02 -867.385
414.481 5397.37 -1013.98
1040.12 3408.24 -1209.26
366.805 4531.14 -1001.35
1430.88 3595.04 -729.189
1915.32 998.663 522.282
1535.27 1064.86 1191.59
1038.67 588.148 802.49
1387.58 2614.95 1640.6
1684.61 1774.21 1411.91
2135.99 2170.41 1009.51
-133.535 1067.04 2013.37
751.756 1379.95 1872.74
221.276 1859.12 2247.39
155.328 503.505 995.791
628.496 506.443 24.4044
-1032.55 1013.43 2157.01
-613.515 596.377 1756.93
-1678.1 489.697 84.8038
-1298.64 507.483 978.615
-2066.24 528.723 984.186
94.6379 515.192 -833.256
891.259 705.894 -665.523
-2024.94 666.647 -651.698
-1150.74 503.15 -881.981
-55.4714 1255.55 -1584.42
-609.049 791.909 -1391.19
-1101 1165.86 -1603.94
1274.09 1231.11 -919.652
1823.26 1071.65 -336.841
91.5822 2024.85 -1818.84
644.294 1531.19 -1562.43
1896.34 2075.73 -667.948
1348.38 1925.78 -1155.74
1141.48 2681.78 -1347.1
2267.38 1531.18 94.5996
1885.73 2895.46 -424.832
2263.41 2126.57 -202.875
2389.2 2164.71 441.68
2026.07 2713.68 635.573
174.552 2643.29 2292.22
817.365 3027.42 1991.11
172.88 3294.22 2116.23
-2457.55 936.541 1417.08
-1973.13 1242.37 2003.05
-2443.24 1705.59 1551.56
-1565.74 1309.32 -1521.35
-2305.9 1103.91 -934.689
-2373.4 2047.78 -1144.65
652.835 3006.71 -1550.93
10.8459 2741.81 -1885.84
-561.028 3853.96 -1966.92
1725.72 3631.11 425.528
1684.91 3611.05 -240.282
1307.71 4138.19 37.9557
-2550.13 5421.51 -45.1049
-2486.35 5384.42 632.111
-2045.45 5567.59 124.363
-2888.12 5114.72 1074.8
-2701.06 5275.79 869.914
-3028.89 5128.13 747.133
-1942.7 5389.83 975.922
-2347.77 5354.25 968.264
-2186 5279.1 1200.56
-3135.18 3733.34 1817.63
-3157.38 4076.51 1718.1
-3360.02 3859.01 1523.73
-2599.03 4451.41 1956.38
-2876.65 4301.69 1877.87
-2606.7 4135.74 2084.11
-3287.85 4624.2 1149.7
-3116.15 4474.25 1543.51
-3050.66 4797.98 1340.19
-1638.73 4800.23 1594.62
-1821.39 4732.64 1735.19
-1771.61 4539.46 1803.3
-1998.05 5110.13 1470.76
-1902.34 4941.94 1616.51
-1751.25 5150.3 1360.28
-2113.41 4337.33 2052.5
-2042.98 4651.47 1863.49
-2255.25 4582.27 1940.78
-2716.71 4987.07 1445.84
-2486.22 4792.84 1752.41
-2350.52 5075.45 1488.51
-1435.2 5881.38 31.5077
-1748.33 5877.9 -592.068
-1374.16 5511.59 638.727
-1401.04 5744.04 320.314
-871.493 6236.72 -257.101
-990.346 6115.83 -40.697
-812.968 6165.56 -70.4562
-1004.51 4444.02 1308.01
-1407.27 4965.47 1324.98
-614.114 5560.36 419.879
-1010.46 5091.55 832.994
-197.268 4869.59 807.103
-1501.71 5142.48 1202.7
-1408.87 5273.24 1003.33
0.0374231 5879.12 -499.808
-149.765 5876.86 -201.767
32.3027 5702.62 -290.967
-578.297 6120.92 -95.3748
-367.151 6022.66 -130.157
-457.428 6171.4 -366.152
-206.711 5559.14 144.91
-297.895 5839.16 21.9828
-429.444 5781.87 172.139
-913.448 5787.15 365.803
-662.4 5830.85 267.712
-719.992 6018.81 121.023
-1754.86 6028.73 -1147.37
-2248.14 5948.34 -1131.7
-775.07 6244.2 -550.142
-1292.26 6137.77 -725.005
-2066.29 6139.9 -1606.69
-1881.67 6070.48 -1407.59
-1852.24 6088.02 -1567.9
189.862 5769.06 -758.983
6.40711 5958.66 -696.837
-146.647 6025.74 -1055.31
-49.6473 6028.54 -854.308
95.4438 5843.71 -1023.87
-242.176 6131.62 -663.969
-449.168 6223.04 -613.097
-1545.59 5360.43 -2370.43
-1269.81 5587.99 -2026.35
-1069.67 5238.75 -2097.31
-1626.18 5982.01 -1819.98
-1439.03 5826.98 -1936.51
-1815.19 5910.7 -2056.59
-182.194 5684.08 -1447.31
-741.399 5780.91 -1685.03
-349.921 5920.67 -1350.93
-588.819 6236.27 -885.357
-457.702 6125.79 -1143.93
-1114.59 6059.32 -1369.02
-2472.59 5951.28 -1276.97
-2534.75 5781.06 -835.768
-2249.65 6103.28 -1794.03
-2382.15 6080.25 -1534.61
-2950.07 5512.38 -1229.25
-2724.44 5833.71 -1412.85
-2919.21 5617.31 -1535.36
-1649.77 5162.63 -2541.37
-1736.87 5345.58 -2506.43
-2169.21 5240.22 -2492.3
-1893.17 5316.36 -2597.8
-1891.42 5078.51 -2607.16
-1881.22 5677.46 -2338.72
-2033.31 5923.06 -2152.56
-2843.65 4464.49 -1531.92
-2819.92 4730.21 -1788.36
-2665.17 4381.14 -1829.25
-3027.51 5265.5 -1703.95
-2958.07 5103.96 -1750.5
-3069.67 5109.92 -1465.73
-2382.14 4736.88 -2287.81
-2700.27 4981.25 -2041.07
-2508.03 5113.91 -2257.8
-2432.77 5816.86 -2090.6
-2545.66 5425.1 -2261.56
-2810.05 5556.02 -1923.66
-2756.79 5426.13 -368.985
-3056.94 5206.21 -836.998
-2949.11 5329.49 -616.943
-3018.85 5167.53 204.778
-3234.55 4963.96 536.367
-2905.81 3658.43 -951.758
-2979.85 4332.93 -995.624
-3443.83 3927.35 -16.1568
-3256.75 4001.94 -484.61
-3411.32 3475.47 -168.531
-3059.35 4784.56 -1074.92
-3089.02 4972.4 -1065.88
-3455.86 3886.01 1218.83
-3440.94 3543.05 1341.72
-3401.89 4655.72 796.156
-3446.91 4321.92 991.456
-3568.39 3528.88 505.888
-3526.52 3914.09 733.639
-3558.38 3920.84 391.217
-3220.99 4787.36 -268.666
-3464.77 4337.05 175.625
-3407.03 4694.2 348.86
274.375 5249.09 -164.834
291.305 5398.55 -391.315
276.757 4779.5 782.497
71.2497 4944.84 395.17
1101.22 4325.9 566.214
801.735 4568.55 540.289
1031.37 4333.42 780.688
-300.992 4118.61 1623.24
12.7641 4291.69 1469.07
620.842 4067.14 1502.42
362.294 4187.05 1496.01
469.082 3854.4 1692.74
209.025 4433.01 1296.09
311.852 4576.31 1073.41
1642.99 3391.19 1103.72
1435.64 3566.95 1269.34
1461.46 3292.72 1412.07
1228.95 4067.09 976.525
1347.38 3840.1 1119.53
1448.51 3892.29 843.939
991.953 3593.73 1631.3
1192.45 3741.87 1388.6
950.61 3891.54 1463.99
635.354 4427.55 1096.51
804.14 4183.81 1297.31
945.907 4269.69 1049.76
-1772.75 4095.68 2009.29
-1140.79 4136.98 1582.1
-2086.15 3990.41 2178.23
-1953.84 4066.74 2101.34
-568.227 3393.52 2128.61
-1545.77 3935.6 2042.52
-1348.58 3532.39 1906.24
-3108.63 3394.75 1783.2
-2915.05 3564.47 1959.83
-2263.94 3252.21 2148.66
-2594.4 3423.81 2083.02
-2417.18 2892.45 1881.18
-2619.82 3749.71 2119.83
-2328.57 3879.33 2207.24
-548.755 1786.41 2249.61
-788.757 1807.18 2218.57
-895.403 1418.52 2248.45
-968.408 2915.71 2246.85
-720.655 2534.45 2287.45
-386.455 2660.35 2313.71
-1724.15 1599.77 1958.03
-1252.7 2078.18 2109.19
-1774.94 2683.9 2028.69
-2081.58 3664.53 2281.71
-1992.63 3470.97 2244.22
-1905.76 3399.46 2263.57
-3392.79 3211.49 1167.01
-3303.05 3273.9 1476.63
-3486.13 3048.07 341.534
-3439.53 3115.4 688.061
-3072.17 2188.63 1049.12
-3336.92 2670.04 844.246
-3238.69 2257.28 673.015
-2850.73 3054.63 -1024.79
-3067.6 2980.86 -731.79
-3075.95 2194.49 -506.741
-3112.11 2572.12 -624.759
-2914.37 2231.89 -783.415
-3264.82 3014.3 -353.217
-3409.96 3014.62 -28.9875
-2550.3 739.576 248.302
-2739.09 954.115 -37.4398
-2557.54 745.357 -261.534
-2965.15 1637.74 461.046
-2841.8 1185.06 228.074
-2727.09 1211.51 782.832
-2736.29 1183.2 -539.824
-2832.68 1158.42 -248.966
-2824.92 1534.37 -340.131
-3426.63 2605.24 134.562
-3200 2182.41 -112.979
-3289.19 2226.26 286.942
-2395.89 4213.98 -2018.88
-2517.22 3805.91 -1291.01
-2118.99 4502.56 -2373.15
-2293.55 4319.31 -2188.63
-2009.31 3128.26 -1603.21
-2177.35 4009.98 -2040.79
-2023.01 3773.23 -1948.21
-1392.99 5140.61 -2424.65
-1696.03 5173.23 -2571.82
-1728.8 4568.63 -2332.41
-1726.99 4906.65 -2438.81
-1425.62 4697.23 -2249.04
-1877.94 5082.58 -2576.57
-1904.57 4844.18 -2521.66
-786.607 1857.55 -1841.88
-771.425 2208.06 -1895
-489.415 2059.61 -1890.4
-1422.5 3156.25 -1863.63
-1043.27 2488.38 -1863.18
-1325.32 2069.68 -1675.86
-544.287 2908.91 -1908.98
-901.267 2693.5 -1901.46
-1636.64 3529.53 -1957.16
-1941.84 4415.69 -2358.65
-1921.87 4273.54 -2302.22
-1835.04 4044.97 -2188.8
-496.546 5207.95 -1808.33
[...]
POINT_DATA 642
SCALARS Mean_Curvature double 1
LOOKUP_TABLE default
0.000559377
0.000840256
0.00146324
0.00154094
0.00105732
0.00302528
0.00181168
0.0071669
0.00108451
0.000836437
0.000708087
0.00222691
0.00139463
0.00110324
0.00157376
-0.003116
0.00274544
0.00141705
0.00280858
0.000955423
0.00194827
6.91324e-05
0.00077093
0.00115612
0.000308353
0.000316253
0.000223325
7.73024e-05
-0.00205595
-8.81124e-05
0.00635495
0.00197661
0.00176034
0.000763565
0.00150128
0.00152262
2.48797e-05
0.00157189
0.00191769
0.000403378
0.0018748
-0.000636969
0.000871498
0.00115756
-0.00104197
0.00112648
0.00119023
0.000991121
0.00138268
0.00122539
0.000952969
0.00157204
0.000921797
0.000667514
-0.00491571
0.00122576
0.00152979
0.000593579
0.000551596
0.00134367
0.00439636
0.0025345
0.000474354
0.00124958
0.000427548
0.00208467
0.000976431
0.00639005
0.00176006
0.000265681
0.00230996
0.00142336
0.00109466
0.000491252
-0.000569605
0.000195304
5.18305e-06
0.000365959
-0.000687449
0.000656508
0.00102572
0.000973492
0.00105907
0.000878392
-0.000733059
0.00387658
0.000998998
0.00236352
0.00145669
-0.00299637
-0.000574673
0.00149892
-0.000109239
0.00123737
0.000678191
0.00129072
8.37082e-05
0.00276585
0.0010545
-0.000347456
-0.00228813
-0.00290253
0.00104406
-0.000312731
-0.000143878
0.00419028
-0.000962279
-0.00507136
0.00226182
0.000673902
-0.00214006
0.000769231
0.00131683
0.00111425
0.000862048
0.000473551
0.000755438
0.0023223
0.000146748
0.000614911
0.000799566
0.000280595
0.000220043
0.00200001
0.00180317
-0.000193713
-8.86185e-05
0.00142223
0.00136048
0.000574839
0.00043341
0.0013544
0.000220784
0.00154496
0.000916891
0.000197855
0.0013994
0.000782962
0.00179457
0.000267307
0.000599143
0.00074634
0.00108324
0.000929613
0.00245487
0.00371891
2.38037e-05
0.000588532
0.000700456
0.00105973
0.00171468
0.00332081
-0.000300683
0.00212692
0.0022245
0.000546921
0.000288421
0.00145557
-0.00330215
0.000920876
0.00106415
0.000499938
-0.000449963
0.000673428
-0.000193493
0.00134764
0.00112661
0.00139028
0.00191146
0.00124203
0.000984427
0.00158622
0.00115755
0.00165756
0.00151165
0.00126323
0.00163086
0.00117226
0.00100268
0.00115363
0.000298232
0.00146395
1.21801e-05
0.00136068
0.00140824
0.00172772
0.00192043
0.00133895
0.00154273
0.00133353
0.00131122
0.00114971
0.000510373
-0.000575776
-0.000637008
0.000998077
0.00252405
0.00145446
0.00267692
-0.00256311
0.0010915
0.000349642
-0.00118623
-0.000264105
0.00200036
-0.000250532
0.000892737
0.00147145
0.000600739
0.00188654
0.00162581
0.00117495
0.00445974
0.0015712
0.00110003
0.00442964
0.00139741
0.00225723
-0.000836938
3.49678e-05
0.00078858
0.00139041
0.00328143
0.00141544
0.000958851
0.00048305
0.00164777
0.00170105
0.00265394
0.00167633
0.00134148
0.00214805
0.000211454
0.000130345
-0.000647265
0.00097247
0.000912077
0.000948045
0.000899422
0.00138237
0.00107908
0.00148854
0.00161236
0.000494878
0.0011895
0.00124678
0.0025261
0.00293127
0.00100634
0.00167374
0.00201104
-0.0137694
0.00159808
0.00159648
0.00462557
0.00704564
0.00231004
0.00263743
0.00132284
0.000831617
0.000994463
0.00318086
0.000955692
0.00257244
0.000956029
0.000286195
0.000723815
0.00166546
0.00214026
0.0018632
0.000535467
0.00127833
0.000843326
0.000776379
0.00123314
-0.000243258
-0.000724933
0.000378132
0.00102337
0.000939533
0.000686995
0.00111679
0.000891172
0.00189474
0.00167892
0.00104017
0.00174223
0.00053351
0.00140129
0.000660161
0.00092401
0.00144658
0.000106603
0.00139429
0.00431902
-0.00277559
0.000790788
0.00127326
0.00106333
0.00118428
0.000448742
0.000941064
0.000903406
0.00035277
0.000673534
0.00095057
0.000970324
0.00104511
0.000981543
0.000954017
0.00103275
0.000968017
0.000682703
0.000931682
0.000972078
0.000950021
0.00112236
0.00105542
0.00103357
-0.00217087
0.00243459
0.000688223
-0.00142786
-6.16487e-05
-0.00278596
0.00170297
0.00131965
0.00132845
0.000764069
-0.000752841
0.000994064
0.00136411
-7.88778e-05
-8.03572e-05
0.00137064
0.00197395
0.000372275
9.35862e-05
-0.000884274
-0.000131798
-0.000430303
0.00588804
-0.00128019
-0.00393222
0.000959256
0.00149987
0.000947822
-0.000165456
0.000782474
0.000818349
0.000576462
0.0012836
0.000395071
0.000975723
0.000905905
0.000932176
4.76835e-05
0.000560138
0.00126606
0.00111005
0.00175473
0.000301937
0.000927679
-0.000161445
0.00186596
0.00189132
-0.000245647
0.00148528
0.000584025
0.000929011
0.00078611
-0.00172936
0.00204987
0.00157728
0.0002696
0.00220136
-2.90629e-05
0.0183448
0.0124176
0.000215188
-0.000280417
0.00134532
-0.00661648
0.00742526
0.000723511
0.00107659
0.000419595
-0.000159824
0.00120349
0.000261769
0.00031074
0.000726342
-0.00216154
0.00793934
-0.00251475
0.00340609
0.00406284
0.0160023
0.00135938
0.00129342
0.00272376
-0.0167428
-0.0011777
-0.000406944
0.00519595
-0.00251276
0.0068894
0.0262833
0.00327873
0.00118358
0.000969296
0.000722432
0.000978616
-0.00265827
0.000888454
0.000373045
9.33658e-05
0.000384522
-0.000425028
0.00261276
0.00122093
0.00199634
0.000816489
0.00104998
0.00154946
0.00138517
0.00119619
0.00164977
0.00147888
0.000623141
0.000917373
0.000487097
0.000382146
6.73014e-05
0.000131092
-2.27274e-05
0.000755759
0.001032
0.000947719
0.00152837
0.000277764
0.00141709
0.000528015
0.00116288
0.000561007
0.00102428
0.000997241
0.000761965
0.000355249
0.00148535
0.000566517
0.00021554
0.000603842
0.00122682
0.00145944
0.000821458
-5.98229e-06
6.70239e-05
1.76364e-05
0.0025965
0.00222481
0.00164388
0.0014977
-0.000423792
0.000883984
0.000972296
0.000723419
0.00161353
0.000743799
-0.000108817
0.00118479
-0.000112173
0.00210339
-0.000189674
0.000657844
0.000918312
0.00100222
-9.11309e-05
0.000748919
0.00111075
0.000164415
0.000508907
0.00146888
0.00178674
0.00164014
0.00239103
0.00094689
0.00181142
0.0013562
0.00108281
0.000280585
7.01847e-06
0.000788573
0.00060604
0.000580619
0.000789537
0.000434468
0.000913201
0.00251591
0.00100734
0.00125378
0.00143173
0.00101678
0.000585153
0.000881098
0.00117056
0.00093066
0.000442391
0.00144018
0.00102888
0.000918085
0.00131053
0.0005185
0.0010213
-7.16067e-05
0.000392947
0.000384631
0.0010315
0.000479559
0.000233568
0.000766583
0.0012954
-0.000379632
0.0021997
0.000873024
0.000355192
0.000635233
0.000887254
0.0012696
0.000507097
0.00110899
0.00141888
0.00140455
0.00138117
0.00112893
0.000892679
-0.000221659
0.00109652
0.000734538
0.000606109
0.000737745
0.00280611
0.0012409
0.000755295
0.0012998
0.00284886
0.000156671
0.000842631
0.000858168
0.00138947
0.00310274
0.00231048
0.000671236
0.000816346
0.00029828
0.0021998
0.000255401
0.000916885
0.000677745
0.000754955
0.000788273
0.00094309
-0.000370457
0.00111336
0.00051527
0.00022209
0.000539655
0.00154346
0.000728114
0.00139331
0.000605112
0.00187053
0.00151
0.00169891
0.0015731
0.00224802
0.00134047
0.0023692
0.00109296
0.00179182
0.000438717
0.00025028
0.000860335
0.000521485
8.86409e-05
0.00231891
0.00171923
0.00194701
-0.000119272
0.0021971
0.00269808
0.00014543
-0.000737513
0.00167362
0.00117077
0.00267349
0.000713281
0.00123809
0.000468879
6.21977e-05
0.000602356
0.00109591
0.00051577
0.0019351
-0.00124662
-0.000407869
0.000859216
0.0005446
0.000769149
0.000809871
0.000260076
0.000692199
0.000384982
0.000350657
0.000938694
0.000307499
-0.000297835
-0.00123084
-0.000938636
-0.00117432
0.00769909
0.00102764
0.00146713
1.53733e-05
0.00109723
0.000922028
0.000676289
0.00106569
0.000822
0.000933319
0.00173236
0.000839152
0.00103024
0.000993884
-2.07311e-05
0.000378403
0.000224411
-0.00258045
-0.00211889
0.00121838
0.000930315
0.000505062
SCALARS CoVolArea double 1
LOOKUP_TABLE default
248470
65560.8
117968
114379
79293.9
186277
86014.1
43740.3
99722.3
135259
176662
78934.5
127778
97286.6
124031
210028
61472.5
87924.5
83865.5
112356
110464
164032
112755
86194.3
296571
215532
170610
247676
533461
401603
156885
229532
134868
176884
160436
158149
392814
117718
107874
125241
97239.7
165266
175747
117071
232083
120092
140641
142801
64673.8
95802.2
69691.4
107612
203825
362180
156705
74432.1
52721.8
145608
215566
84011.7
40517.3
70928.7
110652
182800
201136
141058
162045
17882.4
140330
145860
104496
121906
195221
267284
253862
156866
167039
152254
186210
147311
87528.8
89506.1
90987.6
98944.2
124621
293226
174869
93866.9
148052
289956
170250
160963
221980
127271
170271
159760
230997
87303.4
80782.8
332573
83424.3
43671.3
148913
71497.9
136793
39190.9
65222.9
87121.7
55759.4
119859
214488
97794.9
148435
184420
168231
185063
148125
89359.6
185791
197964
149821
231479
204127
145255
159945
190732
257132
152503
153583
173734
143512
160989
162390
151832
91413
195718
132757
125403
109058
119596
141712
141639
148930
151242
61517.1
56575.7
145649
119936
111496
97940
126309
83427.8
215092
80548.3
123701
231688
137698
105692
423387
112131
89789.4
179788
263593
214019
389281
129258
112030
124936
156644
118337
107015
106402
136449
115708
118878
127663
112573
132684
142568
143914
119385
59908.5
138860
92167.8
69200.2
69761.9
67577.5
69474
95747.1
149718
134537
129423
289583
369828
191872
187739
86920.8
110462
50496.7
312167
241690
289220
375793
361587
120279
101292
66651.9
67188.9
96874.2
57688.7
64828.1
66318.7
108352
54392.5
92868.5
93795.1
80592.9
60964.7
185007
187183
149614
141920
56542.9
86454.5
134571
43435.2
54131.2
83832.5
56670.7
66564.5
61466.2
73618.9
115505
200103
166432
149542
142145
88527.2
121162
173833
133327
177369
153511
242566
108526
170843
119969
83290.5
132939
106735
123304
27348.6
62516.7
120550
73865.4
44059.5
89835.1
116779
194715
130777
168985
95585.2
85560.7
72321.5
133834
126975
125356
179981
155937
161150
212605
182367
183584
180246
152211
285434
294820
219362
241332
187383
170245
166033
153427
112321
141927
157962
153271
168582
154748
256644
223018
189695
258788
122794
154311
293644
120611
220797
91165.6
281450
209681
95971.3
93500.2
110132
158964
160243
122110
93099.9
124276
87794.5
84558.7
78358.9
100273
91269.1
99648.5
113410
99104
97987.4
203258
400309
64967.9
69234.2
176191
142030
340780
104139
108550
234650
140700
289847
114861
99009.5
147700
227151
93527.3
231869
273094
118063
236894
439682
404659
52051
150393
150861
171524
125830
159222
185472
239477
203558
227202
220528
213862
196759
151023
162279
178060
168542
165957
129981
116440
268435
177606
185846
87875
121342
188751
166383
229096
224022
209741
368292
96944.3
87520.8
230102
109615
242374
16192.9
34874.8
267153
85345
231797
25236.3
49203.9
119308
119944
81411.8
312881
184402
293382
355511
196518
395123
46254.1
73268.9
103028
104183
35442.7
80740.8
95630.7
260085
29735.8
40179.3
76066.4
22453.6
108595
18642.1
36066.5
46635
80677.5
86991
112221
88823.2
97408.5
177433
137729
177695
202661
282131
63674.9
143168
77935.8
150849
165461
142501
144394
153154
132269
156621
176950
189375
168774
151350
136279
204610
176707
172879
100576
117048
121370
128190
167391
156543
181930
176813
166340
147321
158254
204107
174980
214120
223060
164391
138723
171453
167180
303137
248028
384550
78064.5
126733
171942
147145
193422
152482
175614
151874
159806
179846
370968
200215
298572
127088
158654
182336
215365
223053
319920
170721
151388
249006
189187
130052
139351
126849
113514
159888
129186
151159
147036
214424
273629
143621
144387
130905
142107
141441
113954
74651.1
112930
116515
192663
164349
183220
159093
142068
159313
175600
115403
147710
148128
99332.3
156148
103119
122996
118879
124817
114980
172677
177520
134191
116786
116584
58886.4
125499
157804
127527
184089
147812
194646
149822
129587
135786
140634
147715
141868
155161
96521.9
115053
148851
69954.5
77687.9
102778
151458
117331
68152.7
137734
77711.1
78216.3
119424
63677.5
123290
161083
139544
132890
97292.7
113514
138370
120998
107779
132104
130708
309076
119762
146430
135367
120739
123416
115624
113033
174552
135182
135605
139220
161013
98336.9
124262
78436.8
142814
153931
204946
218587
266296
286926
262259
124368
124904
147050
107728
88524.6
55698.9
105132
239612
111805
129505
87920.1
138473
143519
252541
310852
238696
154266
206468
132529
202327
207231
96044
128494
102552
113987
320544
98455.3
216609
120684
114357
136744
88406.2
710525
458568
200782
234354
132861
131501
375065
134337
168168
146142
94925.7
94685.2
103525
114940
85287.7
114747
150944
243820
125086
257563
234997
117856
118251
120267
117145
SCALARS SignedDistance double 1
LOOKUP_TABLE default
545.037
676.518
391.566
395.394
589.591
793.647
612.643
863.289
602.704
534.998
722.247
407.081
419.01
560.435
618.295
870.284
530.058
526.925
575.247
528.536
488.968
499.092
613.776
626.409
612.167
590.923
610.774
517.554
1171.3
698.427
909.828
946.6
419.151
506.569
397.914
398.865
474.592
463.941
478.635
613.366
524.437
624.774
515.759
501.164
623.774
454.096
436.464
411.061
654.971
585.81
655.678
593.063
514.142
805.412
722.784
592.845
631.608
718.246
798.999
608.707
630.455
524.124
558.402
833.298
727.052
383.922
432.623
681.67
415.498
533.217
480.522
539.044
531.078
557.197
577.809
477.339
473.886
648.336
807.096
632.296
624.81
583.319
593.612
571.477
636.497
934.924
494.965
584.178
578.138
916.718
665.809
444.513
500.167
538.091
498.865
466.252
543.865
479.643
763.222
932.56
787.019
656.469
576.524
1135.71
633.672
718.555
893.721
760.477
683.407
663.527
952.629
627.634
370.427
395.126
405.896
525.089
524.758
515.379
466.521
455.316
532.189
469.894
464.656
472.44
399.015
480.306
463.55
440.055
455.138
447.089
448.853
467.538
539.282
481.63
617.936
511.917
411.21
587.162
574.285
593.507
575.395
607.19
438.561
568.866
548.826
551.804
616.525
578.409
569.378
612.393
395.719
580.882
610.031
645.458
629.354
587.397
669.993
627.36
1254.24
603.664
609.057
648.288
550.087
596.807
554.067
461.557
502.527
457.947
611.872
565.611
547.288
422.824
409.396
400.769
509.911
432.646
510.922
409.117
416.737
417.757
670.164
656.996
683.847
579.233
612.14
635.155
627.295
625.555
579.608
466.677
522.646
533.074
546.246
689.331
685.486
589.307
511.47
542.905
547.467
823.543
728.678
763.357
816.484
905.982
699.772
768.009
633.429
655.399
694.033
577.884
610.568
545.752
771.069
676.5
688.889
677.187
669.552
611.296
829.355
577.895
491.497
616.525
620.577
709.53
685.546
637.802
605.441
501.694
566.132
543.755
553.764
534.346
640.503
819.629
997.776
693.614
749.066
533.761
545.509
767.36
499.497
485.04
463.745
812.613
510.6
495.514
487.411
520.212
429.441
417.999
398.398
716.249
588.955
487.865
582.47
678.3
499.368
462.908
590.206
521.518
574.437
476.555
495.274
520.429
499.996
477.342
470.154
324.195
422.492
365.272
500.562
484.057
484.508
492.523
438.916
744.748
606.656
483.156
564.687
514.439
539.729
521.516
461.879
447.333
411.335
452.359
503.041
454.872
491.944
548.63
497.938
424.701
844.146
760.718
818.188
939.913
648.701
688.982
628.895
661.37
656.763
619.59
626.271
633.583
655.169
672.833
558.779
566.002
549.966
608.044
588.684
601.313
590.918
582.377
592.029
638.536
611.633
619.898
686.765
785.912
640.864
653.744
701.445
819.318
782.23
443.496
473.85
636.76
499.166
597.963
477.696
553.592
541.038
580.109
604.696
659.766
574.457
592.683
701.094
661.843
614.48
667.921
721.923
787.243
512.191
444.205
503.148
526.699
443.842
454.245
454.991
619.953
545.829
480.673
513.283
502.598
526.108
515.022
386.055
435.112
387.202
501.437
537.943
595.447
595.019
546.593
600.643
468.487
477.497
469.987
650.499
800.674
650.454
647.105
810.939
810.909
1016.96
854.128
707.313
727.002
665.477
829.695
656.767
657.398
593.465
637.293
632.799
972.146
637.954
621.405
704.459
643.915
1246.58
739.269
794.688
953.896
863.759
1035.45
589.815
647.158
743.615
723.474
722.815
679.847
676.088
828.898
734.332
1004.68
646.403
577.673
628.623
641.897
615.416
941.001
713
739.632
646.575
673.796
892.71
690.736
744.904
744.621
395.486
383.625
410.237
391.126
376.927
366.107
392.422
415.288
414.245
527.84
555.224
555.923
519.739
531.452
516.682
454.778
496.825
477.451
541.804
482.939
537.145
441.928
450.189
415.382
503.349
483.627
496.923
460.074
503.356
469.19
460.568
456.64
437.289
455.756
470.043
467.725
467.707
542.64
448.355
406.099
387.215
442.635
430.698
415.173
465.328
421.104
404.091
470.549
542.325
471.946
424.922
462.654
438.809
438.77
461.725
488.628
439.585
429.773
487.872
471.139
435.262
429.708
452.029
419.722
450.467
423.312
432.114
439.25
468.717
471.743
552.696
561.581
579.09
502.627
520.567
532.399
552.773
539.384
484.88
472.959
441.583
463.247
450.914
401.659
475.874
476.836
453.76
473.976
515.078
618.778
562.759
605.886
607.229
607.956
565.806
537.612
578.886
583.997
610.044
609.788
604.174
580.795
601.08
579.446
582.697
497.109
565.162
554.671
389.718
441.82
399.554
380.503
413.79
581.088
592.815
562.57
576.48
617.186
554.858
555.573
552.268
560.264
457.17
528.321
617.512
550.074
557.169
504.59
555.649
474.84
508.925
527.588
545.857
588.161
585.591
551.137
591.612
574.683
554.577
545.898
675.841
622.797
651.03
647.166
626.397
559.589
597.301
583.024
397.98
345.828
360.711
433.129
516.702
592.918
624.535
652.661
598.41
441.495
506.479
572.887
456.289
503.712
640.495
454.766
577.888
537.951
645.71
592.156
614.688
667.448
714.628
410.444
636.409
547.486
511.162
521.168
597.972
616.696
635.027
543.9
563.307
639.225
694.538
729.963
632.752
648.857
644.883
659.716
709.06
635.027
737.947
641.003
613.836
627.883
976.265
949.839
1074.32
934.895
1309.55
651.766
754.799
700.015
561.145
561.367
566.356
593.046
618.993
606.229
628.426
617.229
591.982
577.383
887.456
645.479
672.029
945.309
701.429
610.165
627.196
631.048
