# vtk DataFile Version 4.2
vtk output
ASCII
DATASET POLYDATA
POINTS 642 double
-2258.33 5547.59 -700.704
-75.215 5507.5 -665.355
-2266.81 760.709 -29.6345
1272.13 779.11 95.0283
-687.697 1413.99 1960.99
-1592.37 4350.94 1322.43
-491.208 1853.27 -1580.54
-1506.43 5183.91 -2231.2
1284.81 3015.23 -774.088
1504.98 2925.26 1052.52
-2689.59 4175.93 -1192.7
-3156.53 3574.12 1503.18
-3046.55 4788.65 888.155
-2322.55 4157.81 1844.67
-1870.87 5040.64 1060.97
-281.013 5152.3 263.253
-721.357 5995.87 -349.732
-170.012 5646.56 -1103.75
-2004.31 5849.29 -1778.99
-2023.74 4972.34 -2301.97
-2837.08 5239.14 -1370.2
-3261.18 3508.41 275.457
634.814 3583.05 1446.15
1081.11 3907.05 659.588
-1875.92 2205.49 1628.13
-452.271 2935.08 1986.24
-2511.88 1688.26 -479.892
-2637.21 1750.57 860.752
-987.148 4057.5 -1416.45
-1618.19 2723.61 -1274.51
924.798 4325.44 -453.473
167.111 4607.94 -1049.15
2005.87 1618.4 791.43
715.644 2293.82 1846.61
468.769 843.378 1424.21
-1718.6 801.246 1498.55
-531.966 728.538 -59.2871
-1378.93 966.195 -1212.46
368.16 987.571 -1115.9
573.991 2246.94 -1334.64
1846 1725.05 -435.944
1772.18 2512.46 150.747
-2713.66 5054.59 462.776
-2484.66 5018.24 1066.12
-1859.23 5141.66 614.751
-2774.72 3917.87 1789.72
-2743.58 4526.9 1551.57
-3162.47 4192.27 1274.47
-1806.21 4809.71 1270.61
-2172.75 4685.97 1507.44
-2077.06 4296.95 1693.9
-911.438 5787.56 -25.7083
-1087.74 5920.06 -418.741
-471.395 4393.05 894.209
-1083.62 5425.35 439.896
-374.423 5836.96 -516.423
-623.118 5778.02 -124.746
-376.496 5534.51 -229.048
-1320.86 5833.98 -1036.44
-2137.08 5824.97 -1538.35
-45.3282 5637.91 -888.655
-391.652 5947.98 -830.956
-1787.73 5522.31 -2060.63
-987.745 5727.72 -1465.77
-633.227 5402.22 -1500.09
-2529.14 5779.5 -1653.76
-2632.31 5542.4 -1099.95
-1876.78 5108.14 -2418.45
-2095.1 5510.37 -2210.2
-2758.08 4998.83 -1426.38
-2645.2 5251.69 -1866.76
-2384.71 4598.92 -1912.46
-2937.4 4906.67 -44.6207
-3024.49 3539.98 -349.681
-2921.67 4407.76 -418.243
-3241.65 4281.11 569.119
-3243.1 3566.73 903.476
606.929 4242.07 736.83
430.455 4530.17 113.445
134.263 3820.84 1427.12
403.241 4107 1136.5
1341.86 3514.21 872.649
950.115 3822.02 1079.33
1082.81 3335.61 1343.8
-2133.34 3724.28 2010.79
-908.26 3478.41 1826.39
-2741.5 3315.62 1688.3
-2248.16 3603.71 1994.1
-352.407 2359.77 2098.33
-1381.12 3099.49 1990.48
-1230.46 1411.57 1817.62
-3227.74 2670.95 450.775
-2975.73 2868.04 1106.9
-2732.66 2635.24 -748.329
-3058.71 2643.33 -164.445
-2522.73 1062.99 503.181
-2707.61 1660.13 48.8956
-2540.92 1068.05 -365.066
-1969.72 4339.61 -2002.86
-1894.92 3473.04 -1436.93
-1518.56 5246.47 -2201.3
-1902.23 4766.08 -2327.49
-971.8 1955.45 -1527.21
-1717.22 3241.06 -1710.81
-507.357 2382.09 -1582.25
-112.214 5253.38 -1262.37
-587.032 5273.82 -1687.71
331.984 5227.72 -802.626
196.11 5318.78 -864.885
878.935 3285.88 -961.083
39.0262 4417.1 -856.828
1222.54 3450.05 -565.297
1798.09 1127.93 499.128
1445.18 1177.99 1074.56
983.987 766.42 758.972
1215.25 2597.72 1453.12
1543.24 1781.1 1200.12
1955.95 2114.6 864.131
-182.627 1169.58 1822.06
649.916 1452.02 1692.3
166.632 1897.67 1998.68
155.476 730.795 989.108
622.313 732.227 30.9382
-980.311 1105.64 1965.09
-630.068 764.882 1671.65
-1679.13 722.723 111.038
-1303.64 732.958 962.648
-2006.41 730.715 961.546
86.1584 732.004 -781.515
799.02 877.253 -579.475
-1955.13 842.405 -554.762
-1141.49 726.726 -842.8
-92.9878 1364.54 -1350.37
-627.888 937.074 -1222.96
-1081.44 1225.82 -1314.84
1139.96 1346.24 -745.663
1701.96 1196.62 -250.881
18.3152 2064.23 -1550.86
564.089 1600.03 -1306.25
1701.56 2016.34 -458.37
1167.09 1945.75 -944.245
968.197 2656.31 -1112.58
2068.49 1602.66 128.607
1641.99 2830.3 -316.752
2040.27 2053.18 -94.6881
2145.23 2068.78 412.264
1745.96 2593.96 598.03
124.827 2613.98 2016.88
691.37 2942.62 1759.48
130.955 3144.33 1866.26
-2317.77 1026.03 1338.9
-1890.95 1244.51 1745.93
-2256.43 1718.76 1346.51
-1426.72 1270.02 -1255.58
-2131.39 1147.23 -695.418
-2243.7 2132.7 -907.509
521.529 2916.33 -1261.6
-54.212 2723.15 -1587.88
-683.347 3801.77 -1658.41
1480.37 3476.65 402.833
1444.69 3460.65 -162.794
1075.06 3925.01 33.281
-2472.65 5175.54 -106.502
-2426.25 5104.78 593.666
-1962.95 5328.31 50.9573
-2781.01 4936.4 992.922
-2621.81 5053.93 821.648
-2903.88 4946.43 713.271
-1926.33 5113.52 890.505
-2310.94 5090.97 904.282
-2169.37 5046.33 1082.16
-3005.39 3729.59 1664.21
-3018.23 4026.78 1587.27
-3195.99 3835.11 1438.11
-2537.52 4337.79 1748.19
-2769.68 4230.13 1717.83
-2536.23 4072.38 1857.7
-3125.57 4542.02 1072.25
-2976.1 4392.5 1428.24
-2926.52 4681.61 1239.58
-1794.69 4661.72 1357.74
-1948.42 4593.17 1485.43
-1933.89 4420.18 1541.5
-2025.19 4903.72 1293.56
-1978.45 4766.89 1397.97
-1844.81 4942.45 1169.25
-2186.29 4221.87 1786.49
-2122.87 4501.87 1616.79
-2269.29 4441.13 1706.87
-2635.17 4823.28 1316.59
-2442.06 4632.51 1564.89
-2322.31 4875.95 1329.87
-1330.14 5656.46 -58.2098
-1652.06 5630.08 -665.902
-1353.93 5265.25 493.902
-1344.73 5513.69 174.934
-838.898 6002.17 -311.265
-925.142 5903.72 -157.438
-825.291 5943.46 -202.563
-1136.32 4172.84 1021.01
-1574.36 4780.39 1097.94
-751.275 5385.22 129.092
-1182 4869.52 554.733
-231.262 4614.57 547.163
-1684.52 5008.34 987.607
-1527.61 5124.58 852.494
-223.231 5701.69 -606.824
-364.532 5706.13 -344.106
-216.753 5533.53 -438.192
-676.283 5908.51 -227.013
-519.88 5826.06 -261.735
-574.038 5953.47 -440.571
-464.814 5378.96 35.4632
-489.786 5677.57 -169.073
-582.073 5614.62 -58.1964
-913.473 5578.3 202.317
-789.047 5663.73 31.4767
-782.737 5818.78 -69.1268
-1704.46 5814.52 -1210.26
-2205.43 5694.02 -1219.93
-760.195 6005.93 -544.875
-1235.72 5880.71 -724.494
-2094.95 5853.52 -1644.33
-1894.59 5771.33 -1414.41
-1903.46 5788.84 -1569.31
-33.5406 5615 -885.7
-191.359 5764.9 -768.623
-267.137 5846.32 -965.646
-217.034 5820.31 -851.034
-76.2788 5677 -941.956
-381.377 5916.23 -712.787
-524.821 5982.88 -640.081
-1646.34 5232.36 -2207.07
-1372.74 5458.35 -1836.66
-1183.21 5209.69 -2005.27
-1696.66 5735.88 -1719.49
-1525.91 5650.12 -1766.79
-1903.4 5736.49 -1927.94
-298.603 5560.92 -1260.02
-830.767 5641.41 -1494.86
-440.085 5769.09 -1202.53
-602.567 6003.66 -846.403
-509.241 5936.85 -1047.18
-1123.05 5808.4 -1290.2
-2397.95 5735.88 -1355.76
-2441.38 5572.28 -911.721
-2212.1 5902.43 -1747.38
-2315.64 5854.35 -1581.78
-2773.69 5408.93 -1256.53
-2602.42 5687.29 -1445.31
-2758.46 5521.12 -1522.48
-1748.4 5145.21 -2352.09
-1847.66 5234.86 -2320.58
-2069.94 5226.29 -2312.47
-1913.08 5237.43 -2384.72
-1909.81 5103.55 -2439.4
-1944.02 5539.95 -2168.4
-2048.1 5767.72 -2021.22
-2600.49 4541.44 -1434.08
-2605.67 4803.31 -1673.72
-2466.23 4502.21 -1704.53
-2814.15 5264.86 -1626.1
-2760.2 5177.79 -1646.88
-2825.36 5155.55 -1418.07
-2251.75 4790.12 -2108.06
-2533.66 5035.61 -1893.73
-2369.75 5150.05 -2082.22
-2364.95 5721.2 -1995.97
-2431.35 5393.83 -2104.31
-2679.35 5493.31 -1838.06
-2631.34 5230.55 -427.859
-2835.74 5125.69 -844.557
-2776.87 5179.28 -653.247
-2869.8 4982.29 194.043
-3079.12 4827.63 527.586
-2636.73 3677 -826.351
-2733.69 4391.64 -867.025
-3222.55 3912.52 59.5712
-3019.43 3989.59 -375.173
-3182.28 3486.48 -80.8285
-2813.15 4834.77 -1005.57
-2837.58 4980.87 -1039.82
-3236.19 3869.78 1175.59
-3232.26 3570.19 1291.49
-3218.25 4583.86 765.918
-3236.49 4280.23 948.661
-3331.34 3552.81 504.742
-3310.85 3900.65 707.977
-3324.52 3902.79 415.186
-2968.87 4731.84 -213.384
-3228.97 4297.96 229.937
-3217.05 4622.17 367.949
98.0031 5035.83 -338.114
33.1785 5212.14 -509.325
132.389 4549.64 738.607
-274.43 4706.79 401.943
894.462 4091.24 537.318
632.191 4300.38 464.67
852.017 4101.35 702.833
-299.949 3929.65 1366.96
-4.62239 4080.23 1235.05
530.726 3891.98 1278
304.606 3999.2 1268.33
402.119 3691.37 1435.94
164.107 4197.9 1093.12
245.703 4337.79 890.9
1425.86 3292.26 979.498
1248.37 3443.93 1119.62
1273.94 3211.22 1244.76
1038.55 3869.61 869.632
1154.31 3677.87 989.478
1235.45 3714.97 765.419
860.627 3464.46 1412.53
1030.66 3600.52 1208.8
823.099 3736.76 1265.87
514.213 4188.33 945.671
680.369 3985.23 1121.12
789.314 4048.45 920.952
-1891.3 3911.55 1785.42
-1202.07 4016.98 1227.37
-2159.8 3895.32 1895.49
-2053.34 3953.46 1828.19
-549.27 3321.9 1820.42
-1693.42 3817.67 1799.55
-1372.45 3523.65 1534.8
-2984.03 3460.08 1631.17
-2804.05 3600.44 1758.42
-2191.85 3355.6 1896.98
-2503.82 3497.4 1872.7
-2299.02 2992.71 1627.85
-2530.96 3749.47 1905.22
-2300.7 3821.84 1953.99
-524.457 1809.26 1989.23
-728.219 1805.87 1951.36
-846.175 1385.47 1966.83
-996.768 2814.66 1985.12
-673.401 2536.91 2012.01
-361.927 2606.34 2028.68
-1675.08 1552.61 1629.42
-1175.65 2101.14 1827.38
-1721.67 2743.15 1770.08
-2112.28 3615.18 1987.07
-1967.72 3509.64 1983.25
-1913.55 3468.16 1983.15
-3172.06 3277.77 1116.46
-3137.07 3354.23 1382.76
-3244.79 3069.03 350.004
-3184.71 3156 642.581
-2893.28 2267.06 960.127
-3141.61 2723.11 771.408
-3044.08 2347.22 620.49
-2649.27 3058.26 -819.017
-2850.29 2984.82 -587.46
-2879.38 2268.35 -412.492
-2896.42 2602.3 -502.554
-2738.28 2304.33 -638.864
-3036.07 3032.14 -239.792
-3174.46 3032.07 48.6542
-2428.17 872.585 234.029
-2559.15 1054.83 -37.2608
-2437.06 878.139 -235.553
-2756.16 1732.51 430.436
-2615.38 1261.63 209.42
-2452.01 1286.22 733.757
-2498.58 1200.51 -401.382
-2591.51 1207.23 -202.242
-2568.14 1593.84 -248.35
-3209.37 2652.8 178.601
-2989.81 2270.11 -55.3716
-3083.75 2322.8 289.515
-2225.45 4360.98 -1861.25
-2320.37 3941.01 -1007.84
-2015.18 4600.38 -2157.69
-2159.66 4449.51 -1982.12
-1843.91 3232.68 -1344.96
-2052.02 4176.85 -1812.03
-1912.8 3932.99 -1677.81
-1510.83 5176.95 -2225.36
-1766.12 5131.21 -2372.27
-1932.1 4635.91 -2098.68
-1906.99 5031.79 -2223.47
-1580.88 4789.34 -1943.96
-1918.01 5106.66 -2439.88
-1911.14 4895.92 -2367.32
-739.52 1910.22 -1564.87
-742.548 2227.93 -1586.82
-483.274 2070.62 -1582.2
-1453.89 3038.84 -1703.67
-981.972 2530.79 -1566.14
-1179.23 2121.53 -1422.02
-554.842 2892.28 -1582.23
-891.506 2714.35 -1595.45
-1811.54 3528.35 -1640.83
-1884.26 4489.56 -2206.91
-1866.73 4353.65 -2164.34
-1832.17 4109.35 -2057.28
-559.961 5276.8 -1667.79
[...]
POINT_DATA 642
SCALARS Mean_Curvature double 1
LOOKUP_TABLE default
0.000647258
-7.95092e-05
0.00230468
0.0024449
0.000120695
0.00291671
0.00165637
-0.0341318
0.00145504
0.00105595
0.00687107
0.00364537
0.00201841
0.00195937
0.00157283
0.00876556
0.0048512
0.00182755
0.00372325
-0.000139475
0.00263727
-0.000143713
0.000754234
0.00133919
0.000546347
0.000463263
0.000511321
0.000319396
-0.00270997
-0.00127417
-0.0115847
-0.00543421
0.00228597
0.000934665
0.00232179
0.00255912
1.22816e-05
0.00317723
0.00275745
0.000129234
0.00312202
-0.00138986
0.00145979
0.00171875
-0.00181491
0.00144605
0.00188369
0.00141266
0.00168657
0.00144913
0.000696612
0.000993221
0.00197544
0.00062752
0.00458412
0.00180872
0.00248963
-0.00033733
1.11916e-05
0.00194773
0.0160568
0.00391687
5.60682e-05
0.00214937
-0.00197579
0.00348648
0.0019302
-0.0101976
0.00280875
5.54151e-05
0.00205656
0.00206081
0.00165206
0.000470928
-0.00107614
-0.000240808
-0.000120609
-0.000174809
-0.00223411
0.000948959
0.00164614
0.00096421
0.0015402
0.000957629
0.00336899
0.00287221
0.00133304
0.00397941
0.00156182
-0.00446043
-0.000977156
0.0019798
-0.000447925
0.00156877
0.000667224
0.00265314
0.000440093
0.00537156
-0.00269335
-0.000681496
-0.00585906
-0.00565045
0.00210721
-0.00836932
-0.000115919
-0.0176787
-0.012078
-0.00193325
-0.00186108
0.000548086
-0.00435016
0.000902745
0.00170122
0.00175858
0.00146497
0.000520564
0.0002599
0.0033919
9.89872e-05
0.000855922
0.000529975
0.000107901
0.00013719
0.00349488
0.00284647
-0.0003709
-5.99369e-05
0.00143955
0.00177205
0.000840018
0.000692497
0.00126445
0.000314594
0.00281331
1.27422e-05
6.92938e-05
0.00200346
0.00132965
0.00207838
7.55536e-05
0.000734974
0.000953856
0.00100692
0.00220127
0.00384993
0.00532331
-0.000968637
0.000369844
0.000716587
0.00134909
0.0029569
0.00541545
-0.000467364
0.0018739
0.00228617
0.000640883
4.54453e-06
0.00258465
0.00238843
0.00105027
0.00130573
0.000236361
-0.000848971
0.000132052
-6.48861e-05
0.00156696
0.00162102
0.00156423
0.00314267
0.00110038
0.0015818
0.00218879
0.00141786
0.00283488
0.00164538
0.00200551
0.00188664
0.00154341
0.00119027
0.0016533
0.000946438
0.00180515
-7.45124e-05
0.00229763
0.00226507
0.00510455
0.00202405
0.00143875
0.00241559
0.00174518
0.00151108
0.00131242
0.000679777
-0.000834232
-0.00320042
0.00152024
0.00385778
0.00274213
0.00399134
-0.00322549
0.00104945
-0.00142724
-0.00194369
-0.0015637
-0.00516679
0.01599
0.00082342
0.00201066
0.000409911
0.00257663
0.00265624
0.00175586
-0.00441972
0.00220704
0.00318887
0.00552811
-0.00183647
0.00508208
0.00640033
-0.000555458
0.00110604
-0.00163099
0.00189601
-0.0125877
0.000823356
-0.00460333
0.00201104
0.00327086
0.0040554
0.00555392
0.0015847
0.00342656
-0.00123093
-0.000762175
0.0088276
0.00139081
0.00143054
0.00137572
0.00087507
0.00201538
0.00161535
0.00181255
0.00285196
0.000711116
0.00131704
0.00131468
0.00482077
0.00359136
0.0016414
0.00259214
0.00305937
0.028196
-0.00165793
0.00195705
0.00890545
0.0137419
0.00308556
0.00430165
-0.0016848
0.000944071
0.000958409
0.00503761
0.000775952
0.00303635
0.00139472
0.000524723
0.000225515
0.00303289
0.00293012
0.00323792
0.00107388
0.00229754
0.00145471
0.00113543
0.00174582
-0.00282365
-0.00101895
0.000610977
0.00157971
0.00118015
0.00113299
0.00163214
0.000528681
0.00211934
0.00240465
0.000968095
0.0022344
0.000903843
0.0015602
0.000626348
0.000729757
0.00235202
-0.000197217
0.00170129
0.00779335
-0.00324299
0.000927357
0.00150472
0.00160664
0.00204314
0.000410586
0.00107813
0.00120776
3.16364e-06
0.000608573
-0.00184684
0.00112306
0.00151624
0.00126245
0.00106782
0.00122719
0.00149407
0.000697821
0.00108027
0.00147994
0.00142904
0.001546
0.00119094
-0.00146723
-0.00257674
-0.000828237
0.000128497
-0.00274726
0.00815228
-0.00361878
0.00246618
0.00102643
0.00137011
0.00112591
-0.00145741
0.00163231
0.00274572
0.000280056
-2.07276e-05
0.00115204
-0.000783494
0.000947365
-0.000308199
-0.0015754
-0.000187633
-0.000504442
-0.00638753
0.00278019
0.00118715
0.000998414
0.00242996
0.00138209
-0.00091527
0.00104586
0.00137708
0.000596186
0.00190239
0.000555099
0.00142959
0.000936255
0.00134311
-5.4108e-05
0.000517642
0.00203061
0.00175843
0.00279524
0.000519993
0.000566476
-0.00183072
0.00115542
0.00191242
-0.000826196
0.00194883
0.000584699
0.00107881
0.00131195
-0.00252187
-0.000327615
0.00121708
0.000665998
0.00391421
-0.00314531
-0.0165091
-0.010144
-0.00279318
-0.00507369
0.00138057
0.00927178
0.0103008
0.000880555
0.000915919
7.54638e-05
-0.00393495
-0.000427547
0.000681287
0.000213857
0.000263226
-0.00219821
0.0180814
0.000182776
0.00330903
-0.0125311
-0.0568998
0.00240076
-0.00121908
0.00158965
0.0322667
0.00779283
-0.00588247
-0.0400715
-0.013344
0.0524542
-0.00730884
0.00436945
0.00132465
0.00121507
0.000856384
0.0012801
-0.0115931
0.000720473
-0.00300981
-0.00103957
0.000310871
-0.00252336
0.00388852
-0.000928803
-0.00281455
0.000615258
0.00137066
0.00187601
0.00202017
0.00138798
0.00247855
0.00249441
0.000400589
0.00141678
0.000772297
1.39358e-05
-0.000382906
6.1017e-05
1.87055e-05
0.000979442
0.0015563
0.00128346
0.00151842
-0.000306058
0.0021004
0.000178718
0.00102958
0.000592919
0.00164737
0.00145781
0.000886911
0.000296206
0.00182885
0.000585097
-0.00014003
0.000264029
0.00101125
0.00165939
0.000451241
-1.1383e-05
8.42967e-05
4.36564e-05
0.00346161
0.00342147
0.00298476
0.00239319
-0.000404634
0.001237
0.00154208
0.000265964
0.00268691
0.000793854
-3.71707e-05
0.000490047
-7.49698e-05
0.00204021
-0.000537448
0.000467208
0.00112812
0.000697531
-0.000363392
0.00116731
0.0014565
1.5514e-05
0.000237901
0.00238567
0.00267359
0.00232227
0.00302024
0.00115095
0.00281177
0.0020397
0.00197576
9.88421e-05
-5.56812e-05
0.00138052
0.00051196
0.00122536
0.00115646
-0.000125689
0.000539663
0.00350257
0.000863208
0.00222351
0.00179041
0.00168444
0.000986341
0.000906435
0.00145249
0.00092178
0.000525894
0.0018353
0.00119532
0.00134414
0.00125979
0.00076004
0.000705722
-0.000489274
0.000477004
0.000144242
0.00102849
0.000740514
0.000278298
0.000798444
0.000208404
-0.00064071
0.00250456
0.00141094
0.000406323
0.000879074
0.00153801
0.00153445
0.000595659
0.001328
0.00233983
0.00199283
0.00186095
0.00129761
0.00103641
-0.000681773
0.00158314
0.00172772
0.000441013
0.000606195
0.00400225
0.0024286
0.00186003
0.00217365
0.00379127
6.11459e-05
0.00100644
0.000497712
0.00170694
0.00429296
0.00380414
0.00138607
0.00117112
-7.25024e-05
0.00248522
0.000255788
0.00116367
0.000873588
0.000764549
0.000827914
0.000943389
-0.000664996
0.00154811
0.000854965
-3.22592e-06
0.000562244
0.00228323
0.000510438
0.00200183
0.00111492
0.00339152
0.00257725
0.00275966
0.00174912
0.00323847
0.00207821
0.00178828
0.00226416
0.00272406
0.000394896
0.000484098
0.00142416
0.000836172
-0.000147182
0.00428442
0.00157548
0.0019172
-0.000442142
0.00360696
0.00472826
-0.000278555
-0.00116894
0.00331094
0.000952914
0.00446565
0.00202394
0.0026573
0.00066159
0.000247085
0.000255679
0.00173526
0.00104627
0.00191672
-0.00209714
-0.000773519
0.000982111
0.000356014
0.000733148
0.00153009
0.000697987
0.000384346
-0.000287124
0.000177119
0.00134475
0.000305828
0.00350438
-0.00174826
-0.00175221
-0.00179319
0.00641014
0.00149316
0.00105164
6.49335e-06
0.00142248
0.0014386
0.000735553
0.00129466
0.000683657
0.000930168
0.0025253
0.000911106
0.00117658
0.00121943
-0.00148469
0.000212552
-0.000354082
-0.00394382
-0.00851689
0.00142967
0.0014114
0.000320609
SCALARS CoVolArea double 1
LOOKUP_TABLE default
250189
67346.1
87569.5
87675.7
62502.2
187113
62576.6
17915.7
76263
109251
193846
50452.2
91140.7
61017.4
76786.8
145459
29034.1
57655
47190.9
79516
67925.2
134944
90947.3
63053.1
274621
228762
138110
225608
642694
393182
113538
262624
95469.8
147388
118811
116996
392753
73565.2
74815.6
106226
60619.1
157021
144971
82620.9
221379
87606.6
102278
109710
45950.1
62647.6
54607.1
81385.6
174366
410750
140859
48953.3
30639.8
178824
185028
65976.9
10766.4
36332.8
96421.9
125542
168790
86746.7
124559
6808.68
83239.6
133241
66850.7
88783.3
139959
262028
231802
126002
144217
138511
156620
128392
62332.6
63876.9
64199.4
74753.9
96738
286730
153686
55168
120483
248404
186558
124328
192483
95348.6
140434
126417
203354
46802.6
69771.1
346308
90076.2
36344.5
122536
149554
125113
15096.7
103319
61666.8
29874.9
100317
316780
78151.6
114997
147876
135960
162651
124813
62313
156736
172481
121856
214053
188598
94264.9
116510
175347
246965
117501
115924
138241
108167
125182
145072
112421
69676.4
168224
99245.9
102603
79011.7
109862
118436
114723
107621
115486
34299.1
24013.6
123861
91576.4
85419.1
76964.9
80708.3
40384.6
190287
66188.7
88038.1
224239
121660
74105.8
483084
83588.3
63019.7
176581
250262
210730
414118
92651.7
82945.6
92424.3
124670
95034.3
74655.1
73472.3
102788
81685.7
80116.8
92795.3
76551.8
99676.5
109762
107143
107659
38928.9
147431
59876.5
41598.5
37135.2
43127.3
42780.3
61021
108785
93771.9
91806.1
271228
382876
153852
148709
51217.7
72752.5
21380.4
343440
282604
276500
433665
369159
119493
61471.5
50388.8
45480.1
82455.1
29808.6
38582.5
39096.7
109832
38011.9
67269.6
66155.8
52168.4
31457
165009
183757
109346
93933.2
30001.3
57708.7
108517
34641.3
31060.5
48294.3
24673.2
31302
34969.6
39166
88514
182787
120976
105844
105100
61076.9
96275.6
134341
92405.8
131970
103810
192450
80001.6
139760
63237.2
45425.9
94636.4
70448.4
76539.7
14175
40833.8
73824.3
32014.7
19670.2
52004.3
66234.5
187075
106191
158999
51094
61548.4
43091.9
105334
100380
97253
116631
105050
102388
172098
127275
134873
138230
111211
289282
301391
193397
212850
163445
142598
128140
124625
82106.4
104867
128513
125299
141295
122705
217241
195512
146832
306035
112262
127816
404037
100517
243808
65072.3
283961
193926
71142.8
69665.9
91754.1
139198
112052
91986.2
67550.8
95304.7
61917.2
60664
55571.2
78363.3
67356.3
73363.7
78125.6
69560.7
69169.5
232510
439810
39162.3
51877.9
157685
122689
373924
73789.9
79253.3
205788
113351
282391
78503.1
58004.5
124687
222079
75315.5
244397
240746
96382.5
261807
457732
383580
21929.5
117188
146615
146889
94125.7
125307
163053
209546
176747
194814
214327
194323
167766
122239
124783
156439
141622
125952
89880.2
75749.8
247053
155825
175319
59828.7
91949.2
168333
126948
196706
184182
208972
453568
71113
61717.8
196913
66477
228876
9193.66
21224.1
339753
100621
248532
17577
27900.8
94631.2
97450.3
64037.8
320648
152201
269671
413563
206807
563648
33324.8
81975.7
137824
55094
17438.9
47942.2
58768.5
315042
7041.51
39489.2
76591.4
9330
82640.4
6365.65
14708.6
17890
47217.4
63201.1
89321.1
64228.6
124800
183328
118616
139683
230089
325774
34285.5
160199
78742
118944
133302
111072
104306
119138
96113.1
119089
143097
152209
144670
132532
110546
183732
159505
148371
66453
93640.1
86621.7
101271
137591
135396
149599
148166
133879
120343
129290
179745
137064
188737
190748
141959
111160
131685
140481
298252
238701
385675
45080.9
87064.8
127296
104096
150507
114823
130099
123135
129965
143867
369984
184389
294203
94337.3
137224
153207
177866
190680
311162
138425
120055
230308
166078
94171.7
101943
87978.4
80796.8
133749
88700.6
114329
106784
197715
258557
113450
123498
105210
106782
117807
92773.6
40255.7
83090
77410.3
150388
118726
136231
128806
110558
126748
146066
80177.4
118717
116533
72721
132180
80588.3
105622
101210
106997
84185.2
150765
160764
107390
89744.2
104064
38214.1
101184
138700
102985
145761
111717
161015
115983
86004.2
99725.6
105518
105482
112755
136485
76484.3
88519.3
119200
54213.9
41599.5
76040
118514
73491.8
36499.4
129260
58114.4
64273.4
72692.6
29806.9
74390.1
130297
108969
106696
70320.5
89015.3
110778
98365.4
84775.5
105709
99733.7
305954
93638.1
119917
124813
100573
89776.3
87333.3
81457.3
135194
88503.2
96209
104360
129357
57541.5
104674
56765.1
87190.6
104044
171142
185895
233866
270197
245728
70968.2
90138.1
106334
85679
43331.9
31741.6
93908.9
265790
71199.8
109583
47521.3
91730.1
87008.3
258281
327846
214021
120623
182235
105241
214406
221182
71387.8
107216
80097
93453.8
346361
80043.4
168213
102705
88621.3
110866
129879
836161
597607
230986
176467
103836
87420.9
383882
105306
142961
121897
68834.1
72948
77146.9
74157.5
63987.7
84490.2
121926
245660
110749
264634
209755
96175.9
85742
97890.6
96829.2
SCALARS SignedDistance double 1
LOOKUP_TABLE default
309.841
339.082
201.233
184.942
323.596
411.679
311.042
635.283
284.55
270.43
534.069
185.995
199.334
276.427
315.492
669.057
259.82
245.533
330.71
345.133
251.256
256.645
312.819
312.74
315.918
288.748
375.574
290.647
957.923
412.835
645.335
823.168
203.162
247.119
193.519
188.244
235.081
226.252
248.534
318.871
270.592
341.568
256.514
239.145
348.106
223.038
204.499
202.726
313.393
296.985
326.88
305.216
260.329
462.313
546.962
295.6
308.578
374.876
603.433
330.776
315.118
260.241
309.514
687.594
538.104
209.639
212.953
499.255
216.166
270.493
245.031
268.079
291.885
280.283
316.386
241.299
240.659
314.737
557.023
306.431
295.52
284.858
280.773
280.32
373.687
600.858
241.163
341.051
297.871
701.264
361.966
227.248
267.244
256.001
252.728
291.59
321.453
294.95
546.569
740.807
590.265
500.535
275.855
908.202
313.071
375.596
727.58
607.024
449.994
326.727
725.879
303.216
174.553
185.692
195.48
258.456
264.143
244.844
245.934
223.345
275.078
236.028
231.211
260.458
204.525
240.067
230.488
232.28
231.268
219.746
215.236
236.803
269.08
236.399
319.585
266.297
190.319
280.127
309.767
307.393
283.692
296.358
223.864
271.998
253.079
274.363
337.072
293.41
287.833
301.497
224.797
305.192
387.162
315.631
352.084
305.856
341.075
318.558
995.475
297.358
295.563
321.205
290.13
308.743
278.649
236.882
259.246
234.728
317.291
294.431
265.466
202.307
196.323
193.995
263.504
210.451
268.363
198.842
198.287
194.983
327.828
332.478
344.275
276.603
297.739
306.135
311.77
316.687
292.008
231.88
260.215
262.399
274.894
485.278
428.661
297.35
248.486
261.81
263.076
443.236
382.294
407.508
447.045
643.65
377.392
535.778
320.31
338.54
349.669
271.314
299.929
256.767
469.191
355.573
375.559
440.259
348.709
299.367
680.698
318.659
245.115
386.495
331.355
448.858
403.531
314.134
296.462
252.123
285.434
294.993
261.186
259.881
483.412
673.567
878.773
478.9
580.232
295.495
277.322
624.815
239.37
242.757
210.671
648.037
271.83
253.985
298.342
285.914
211.16
202.811
189.059
527.353
397.817
289.099
404.046
506.013
253.544
246.703
304.552
287.15
283.357
246.684
236.475
261.522
255.89
242.624
226.326
144.302
214.93
180.651
243.16
252.472
239.793
255.365
210.579
516.259
330.807
235.056
294.52
261.341
265.359
260.065
236.014
231.805
217.005
236.102
269.555
233.101
253.612
299.586
261.044
215.918
589.262
445.517
583.978
703.78
317.378
353.301
305.699
318.321
318.221
298.28
299.839
324.178
321.855
364.919
274.544
267.811
264.301
296.024
287.84
288.867
286.553
280.282
278.669
312.323
294.19
305.204
379.087
445.586
316.943
325.877
410.52
522.601
426.798
210.025
238.817
377.884
257.24
357.442
236.772
292.353
265.825
303.956
320.034
400.196
289.142
301.124
393.726
403.097
378.326
389.163
493.084
532.581
275.396
214.399
268.752
292.683
217.316
220.458
229.749
328.275
270.778
229.301
258.868
236.86
267.364
266.112
180.205
248.106
183.299
276.592
320.848
371.67
308.44
289.7
370.921
233.343
249.539
235.657
393.713
508.947
419.896
391.371
562.135
577.739
821.977
631.781
518.138
392.541
336.196
507.577
505.639
487.989
296.233
317.735
313.014
796.155
315.801
304.786
378.993
326.273
959.726
600.253
667.521
825.74
699.911
799.319
311.645
432.148
482.988
478.91
358.5
418.328
460.955
683.57
572.476
807.685
431.033
295.516
304.861
312.525
293.854
844.694
349.437
400.081
320.628
327.946
650.505
364.846
410.397
373.661
203.7
184.59
214.987
187.757
179.208
166.433
188.728
215.147
206.082
254.67
286.473
300.709
266.235
264.845
252.163
215.444
249.747
239.532
303.696
257.756
269.198
237.207
215.36
198.345
241.917
236.399
248.542
233.75
248.771
239.097
229.239
230.13
226.212
228.374
232.808
236.032
231.706
281.512
249.25
199.953
181.06
256.288
216.518
199.289
233.52
214.151
205.271
233.65
309.363
234.02
224.659
232.92
214.347
220.974
231.251
255.828
213.667
205.259
251.275
234.06
199.634
220.683
213.241
213.165
228.647
199.414
219.323
210.182
232.516
233.682
263.436
286.889
293.927
253.115
267.081
260.894
307.382
299.165
242.087
241.92
205.991
220.306
224.727
193.896
237.045
240.792
224.793
238.628
258.735
313.17
273.626
317.1
307.73
299.435
296.19
260.92
284.479
289.036
299.988
329.632
313.019
283.837
291.38
282.999
280.883
231.139
275.296
282.751
195.058
204.649
189.802
184.538
206.467
288.309
309.847
276.092
287.653
334.262
264.939
271.52
278.854
286.86
234.194
272.961
332.638
263.556
267.919
255.818
267.343
251.794
249.844
250.799
278.441
305.068
296.665
263.845
288.6
279.542
271.855
276.76
367.919
306.455
324.481
333.68
311.537
265.595
298.027
278.659
194.589
145.093
160.538
247.842
298.222
304.857
322.323
340.782
375.436
255.22
274.664
356.862
217.66
260.597
386.998
252.91
300.621
296.435
358.154
306.394
316.063
355.981
412.881
194.383
334.744
319.051
306.55
311.331
323.091
305.565
338.48
266.281
275.737
328.15
399.609
432.499
308.458
326.348
322.388
316.556
352.989
314.878
417.064
316.975
304.23
309.561
751.974
639.801
810.547
638.124
1016.58
316.275
448.49
352.851
272.828
269.045
281.869
289.48
306.908
297.356
305.68
298.32
289.402
286.305
662.606
319.46
333.888
808.837
492.105
300.113
309.631
313.03
