# vtk DataFile Version 4.2
vtk output
ASCII
DATASET POLYDATA
POINTS 642 double
-3111.04 7579.07 -114.917
1886.43 7418.6 -86.3424
-3160.13 -827.512 -45.8024
2122.04 -833.087 -37.9045
-540.173 816.018 4127.38
-619.584 5833.11 3843.05
-526.466 930.61 -4011.49
-592.782 6008.97 -4201.27
3413.34 3385.72 -2442.33
3514.69 3370.4 2419.4
-4599.11 3496.58 -2577.96
-4750.53 3439.38 2558.26
-4534.65 5895.84 1481.19
-2981.66 4931.01 3874.27
-2036.93 7245.97 2326.35
827.822 7108.33 2137.38
-531.159 8256.42 -65.826
920.349 7305.29 -2420.44
-2108.25 7532.25 -2591.26
-3036.94 5013.9 -4089.58
-4596.88 5965.85 -1627.18
-5423.15 3436.55 -26.3104
1780.1 4807.39 3659.36
3174.9 5672.5 1366.92
-2931.56 1893.25 3803.91
-523.149 3390.4 4602.75
-4459.04 954.827 -1524.91
-4491.83 940.133 1483.91
-608.026 3520.58 -4557.16
-2830.33 1995.25 -3728.43
3085.92 5684.72 -1426.17
1722.26 4885.61 -3685.71
3538.24 907.758 1495.58
1874.43 1915.35 3814.71
1019.26 -608.002 2439.01
-2095.71 -651.72 2467.38
-528.139 -1432.93 -48.229
-2035.83 -538.569 -2477.47
984.335 -528.78 -2468.04
1801.31 1948.21 -3772.47
3470.59 948.785 -1542.33
4278.45 3345.08 -27.7136
-3935.28 6846.01 739.495
-3411.75 6769.46 2017.77
-2629.19 7531.59 1198.22
-4001.23 4223.15 3363.3
-3930.37 5512.14 2838.96
-4809.63 4719.17 2105.49
-1337.46 6667.05 3233.53
-2604.61 6253.28 3267.24
-1810.7 5483.88 4045.8
-1291.03 7953.91 1157.33
-1848.51 8056.1 -87.1628
139.748 6512.76 3065.32
-563.685 7359.95 2336.99
747.97 8020.91 -76.4312
218.105 7922.75 1146.67
1415.15 7437.2 1091.03
-1371.59 8026.11 -1348.45
-2724.91 7786.15 -1387.57
1499.07 7539.3 -1283.26
247.317 8033.83 -1317.33
-1369.7 6913.82 -3563.62
-581.12 7536.44 -2610.46
179.239 6740.36 -3376.71
-3522.15 6942.73 -2219.13
-3992.94 6945.06 -896.982
-1840.73 5613.26 -4362.04
-2690.86 6426.21 -3539.98
-4810.05 4775.32 -2220.76
-4014.76 5597.51 -3028
-3971.21 4279.79 -3451.46
-4709.16 6025.49 -55.6979
-5161.27 3445.47 -1337.11
-5156.28 4739.48 -856.744
-5231.83 4735.17 768.046
-5278.17 3440.82 1315.4
2128.55 6495.65 1859.7
2561.83 6583.29 645.921
662.939 5349.54 3847.25
1400.39 6046.03 3051.61
3490.89 4602.01 1966.11
2640.25 5335.27 2639.86
2752.73 4143.74 3179.21
-1823.83 4209.18 4481.29
-581.988 4648.46 4331.18
-3977.56 2671 3336.67
-3106.7 3442.04 4064.7
-523.219 2083.95 4512.29
-1778.19 2670.63 4401.69
-1803.7 1267.38 4146.39
-5190.06 2144.23 753.297
-4746.74 2177.35 2071.54
-4648.52 2179.87 -2090.61
-5139.72 2156.33 -815.31
-3978.81 -82.7767 762.74
-4684.45 820.637 -47.5613
-3976.34 -78.1512 -838.277
-3065.8 3494.19 -4129.7
-3792.06 2737.56 -3266.29
-592.037 4798.77 -4687.93
-1821.53 4293.14 -4684.2
-1735.55 1356.82 -4021.25
-1749.5 2756.41 -4355.7
-522.173 2132.02 -4435.01
1419.13 6198.92 -3237.07
600.756 5459.02 -4037.55
2622.71 6711.54 -816.216
2172.84 6665.97 -2018.96
2660.11 4120.53 -3158.79
2557.83 5385.82 -2710.55
3417.96 4576.75 -1999.94
2981.54 -113.311 763.732
2428.03 -21.9143 2062.83
1659.19 -886.339 1250.19
2832.94 2616.46 3234.55
2886.65 1312.45 2827.73
3730.53 2116.7 2071.94
257.469 -13.1232 3410
1563.91 520.082 3319.58
733.033 1298.64 4117.09
298.183 -1288.03 1271.68
857.365 -1325.93 -37.4447
-1327.61 -38.8418 3442.4
-532.89 -823.496 2590.03
-1905.04 -1339.52 -35.7504
-1360.79 -1287.52 1273.77
-2712.98 -914.159 1275.94
287.754 -1245.19 -1333.79
1625.27 -823.667 -1308.05
-2691.03 -852.271 -1316.69
-1338.81 -1250.26 -1338.13
248.721 86.9824 -3372.44
-531.73 -716.349 -2593.9
-1310.3 64.6157 -3402.72
2355.69 57.302 -2084.78
2949.91 -82.2235 -831.62
692.672 1375.53 -4032.3
1500.43 596.789 -3306.74
3649.1 2129.48 -2092.36
2775.56 1379.01 -2807.72
2723.67 2639.97 -3214.63
3741.43 776.945 -36.6039
4005.03 3353.97 -1291.42
4163.86 2111.08 -829.742
4207.99 2102.98 760.842
4097.94 3351.38 1248.29
717.743 2624.79 4444.32
1952.6 3395.05 3940.76
696.036 4141.23 4350.59
-3479.96 -49.1934 2092.19
-2651.56 477.146 3381.97
-3920.12 1284.54 2860.48
-2555.26 585.72 -3325.55
-3410.98 38.0242 -2096.81
-3778.25 1387.74 -2782.89
1867.09 3391.11 -3867.44
664.102 2650.17 -4348.05
574.849 4227.53 -4286.66
3895.82 4606.27 718.081
3868.14 4599.93 -784.72
3337.04 5776.56 -35.6285
-3525.31 7208.53 315.086
-3317.04 7244.67 989.8
-2863.24 7548.44 554.79
-4016.35 6377.9 1774.4
-3707.94 6842.31 1400.38
-4272.11 6403.96 1124.11
-2356.01 7430.72 1783.07
-3046.3 7194.13 1627.21
-2743.13 7062.82 2200.43
-4417.07 3835.81 2995.41
-4461.74 4482.44 2777.87
-4825.1 4083.33 2358.25
-3493.12 5240.45 3405.65
-4001.45 4885.92 3137.53
-3518.37 4591.54 3658.17
-4713.85 5329.48 1810.97
-4411.8 5139.83 2501.96
-4282 5731.92 2190.99
-982.629 6276.51 3578.08
-1584.17 6115.26 3686.45
-1213.42 5687.99 3982.88
-2338.27 6799.3 2832.01
-1979.24 6498.68 3287.23
-1694.07 6993.62 2811.9
-2405.31 5229.35 4003.34
-2223.27 5890.87 3696.28
-2820.23 5623.63 3620.8
-3714.3 6185.27 2462.95
-3299.79 5924.21 3100.98
-3041.26 6553.64 2684.55
-2236.98 7826.91 547.189
-2490.04 7834.41 -121.593
-1669.57 7591.68 1740.85
-1960.71 7752.61 1177.55
-1184.63 8213.08 -62.4124
-1563.14 8063.14 558.286
-924.829 8172.14 559.988
-248.762 6182.49 3467.49
-619.288 6651.57 3203.04
146.759 7310.53 2264.25
-231.603 6982.4 2719.54
506.874 6826.49 2601.64
-965.897 7037.36 2817.93
-1294.16 7339.38 2373.66
1341.95 7760.99 -81.0078
1120.26 7782.28 531.911
1673.55 7465.38 513.878
-144.864 8155.37 556.337
488.327 8021.69 549.035
116.733 8188.44 -71.8272
1131.33 7322.91 1640.43
841.559 7721.38 1140.6
544.646 7579.8 1678.27
-919.296 7722.79 1786.71
-160.413 7709.65 1767.15
-535.165 8013.51 1175.76
-2329.54 7987.85 -764.442
-2943.06 7722.58 -760.58
-923.018 8211.05 -696.766
-1630.44 8092.27 -722.41
-2434.68 7701.33 -1999.38
-2087.46 8013.04 -1410.57
-1782.78 7888.28 -2008.97
1725.48 7532 -684.872
1155.69 7851.39 -690.911
603.376 7726.32 -1896.69
891.426 7833.36 -1316.76
1228.95 7464.71 -1871.4
511.136 8087.75 -701.095
-131.24 8213.74 -701.75
-980.985 6488.71 -3926.32
-603.52 6872.98 -3537.68
-226.923 6400.93 -3822.27
-1368.98 7615.23 -2668.01
-998.269 7293.82 -3136.97
-1749.85 7269.11 -3118.72
580.814 7064.12 -2919.54
-193.207 7177.22 -3029.27
208.668 7481.53 -2536.29
-524.496 8113.71 -1341.55
-134.456 7858.67 -1977.64
-976.472 7845.61 -2008.58
-3406.16 7425.17 -1156.81
-3575.88 7309.18 -506.895
-2843.22 7290.07 -2435.23
-3150.18 7408.09 -1817.53
-4340.68 6498 -1274.13
-3813.22 7000.71 -1571.24
-4111.08 6496.38 -1942.71
-1215.52 5845.67 -4331.66
-1618.77 6311.05 -4021.87
-2899.16 5740.09 -3869.54
-2280.41 6045.4 -3984.48
-2452.11 5324.85 -4261.44
-2039.89 6719.09 -3599.7
-2420.71 7028.69 -3108.69
-4735.99 4143.57 -2426.81
-4446.18 4544 -2877.11
-4330.59 3894.01 -3042.34
-4360.97 5811.2 -2355.87
-4475.18 5205.45 -2657.67
-4760.09 5380.88 -1949.46
-3534 4660.06 -3802.2
-4049.68 4958.87 -3294.44
-3569.7 5330.43 -3615.37
-3147.51 6734.34 -2926.74
-3397.35 6051.91 -3333.69
-3817.69 6313.89 -2665.96
-3980.2 6913.97 -85.407
-4685.22 6026.95 -861.032
-4383.11 6503.72 -488.225
-4360.79 6465.14 346.795
-4680.62 5992.47 733.004
-4874.88 3472.69 -1958.63
-4987.61 4135.21 -1791.28
-5341.11 4087.2 -426.935
-5197.47 4101.16 -1110.31
-5335.37 3433.71 -688.766
-5040.03 4785.27 -1563.23
-4947.4 5374.38 -1273.47
-5110.56 4084.96 1739.82
-5066.05 3439.65 1958.52
-4944.38 5340.88 1144.55
-5068.53 4744.68 1451.58
-5403.96 3440.98 640.881
-5289.49 4090.31 1045.85
-5391.43 4091.65 375.321
-5003.69 5407.36 -464.011
-5273.02 4748.8 -29.2121
-5033.62 5403.41 371.787
2015.49 7057.1 854.727
2242.84 7059.12 266.882
1482.77 6823.23 2017.39
1744.49 6953.84 1454.63
2915.72 6134.05 1035.16
2381.38 6566.48 1277
2685.81 6121.07 1634.11
29.3512 5584.27 3840.62
428.323 5961.28 3502.22
1611.69 5457.59 3393.05
1053.84 5723.1 3479.37
1236.29 5095.09 3790.09
817.343 6298.77 3089.2
1139.69 6574.37 2634.72
3537.76 4003.5 2214.61
3172.08 4384.96 2605.71
3159.66 3774.3 2834.12
2953.23 5528.59 2028.4
3098.18 4990.38 2329.22
3369.02 5157.87 1680.38
2290.07 4488.02 3454.56
2727.38 4760.39 2937.7
2246.92 5091.23 3186.62
1797.62 6308.78 2491.2
2049.16 5725.61 2885.43
2419.96 5954.31 2278.77
-1225.15 5100.73 4262.49
-605.279 5266.42 4104.53
-2408.37 4583.07 4229.74
-1830.68 4857.83 4306.66
-550.319 4031.11 4516.76
-1227.49 4454.38 4469.15
-1204.51 3818.63 4536.65
-4404.28 3047.65 2984.62
-4045.47 3440.36 3402.38
-3061.66 2698.45 3984.97
-3573.22 3052.8 3745.35
-3471.61 2282.03 3601.37
-3582.48 3833.95 3759.23
-3079.03 4193.61 4020.03
-544.533 1427.66 4366.57
-1155.14 1627.89 4402.67
-1170.36 1022.31 4194.07
-1155.43 3034.27 4564.42
-1132.72 2340.24 4490.75
-509.506 2744.22 4631.82
-2407.64 1525.82 4059.83
-1777.34 1917.2 4267.04
-2374.36 2261.49 4142.95
-2472.01 3832.98 4338.55
-2474.74 3065.16 4317.95
-1842.37 3452.54 4547.24
-5084.49 2802.65 1729.96
-4802.13 2806.05 2345.57
-5362.99 2786.94 367.057
-5261.3 2792.94 1038.29
-4644.95 1534.86 1784.24
-5014.39 2143.82 1427
-4887.6 1536.58 1124.78
-4631.27 2817.23 -2330.53
-4947.91 2795.36 -1730.79
-4827.5 1543.74 -1183.46
-4936.53 2151.13 -1470.79
-4572.18 1563.91 -1816.58
-5191.01 2788.98 -1078.97
-5337.98 2785.46 -429.393
-3604.86 -500.079 363.424
-4023.94 -129.443 -46.3077
-3604.09 -496.867 -449.298
-4629.4 855.862 723.962
-4385.63 328.13 358.19
-4285.88 386.168 1142.85
-4266.18 410.528 -1201.99
-4386.25 332.179 -448.29
-4638.55 843.224 -807.3
-5242.78 2129.15 -33.652
-4965.16 1471.25 -435.141
-4996.39 1469.4 362.061
-3944.23 3509.54 -3438.15
-4233.02 3115.57 -2942.19
-3076.73 4252.34 -4152.31
-3543.01 3882.12 -3839.89
-3343.52 2371.83 -3554.99
-3473.36 3127.65 -3773.67
-2988.01 2790.95 -3981.11
-587.502 5402.62 -4497.89
-1215.72 5220.02 -4617.99
-1223.36 3938.55 -4732.22
-1214.97 4561.58 -4744.66
-630.876 4206.47 -4700.07
-1855.72 4963.88 -4619.45
-2429.68 4660.25 -4442.27
-1143.31 1126.31 -4052.98
-1124.42 1736.55 -4290.06
-522.479 1523.77 -4275.11
-2305.17 2373.5 -4088.59
-1725.51 2004.11 -4230.93
-2291.2 1627.42 -3902.24
-531.509 2793.47 -4511.37
-1127.94 2398.27 -4436.16
-1182.52 3141.91 -4516.14
-2465.78 3891.53 -4460.17
-1837.58 3540.55 -4626.33
-2448.88 3145.17 -4353.44
401.897 6129.66 -3759.57
[...]
POINT_DATA 642
SCALARS Mean_Curvature double 1
LOOKUP_TABLE default
0.000578317
0.000528105
0.000472519
0.000498085
0.000627078
0.000618552
0.000476986
0.000614688
0.000428028
0.000309137
0.000523279
0.000545038
0.00044456
0.000450868
0.000441431
0.000263092
0.000485054
0.000453644
0.000510043
0.000573183
0.000499253
0.000444748
0.000402675
0.000426155
-1.09166e-05
0.000308827
0.000483947
0.000325917
-1.16111e-05
4.91534e-05
4.99929e-05
0.000533476
0.000452465
0.00033062
0.000446361
0.000496649
0.00022382
0.000442728
0.000459836
0.000425169
0.000452985
0.000499291
0.000438145
0.000444106
0.000394804
0.000441408
0.000429736
0.000422176
0.000454064
0.000457857
0.000496457
0.00046909
0.000317256
7.55854e-05
0.000306122
0.000441379
0.000469862
0.00052218
4.10522e-05
0.000599916
0.000434905
0.000474339
0.000502783
0.000160021
0.000227043
0.000445121
0.000437178
0.000460461
0.000448454
0.000566455
0.000438653
0.000363667
0.000325146
0.000399893
0.000204894
0.000459862
0.000463595
0.000417851
6.31153e-05
0.000355061
0.000427999
0.000432543
0.000420156
0.000422653
0.000587406
8.99706e-06
0.00046904
0.000451366
0.000268055
8.82064e-05
0.000456563
0.000444923
0.000279398
0.000433653
0.000414972
0.000340132
0.000314838
0.000473292
0.000489702
-7.88924e-05
0.000743154
0.0005413
0.000332257
-7.12928e-05
0.000443618
0.000437996
0.00014382
0.000633557
0.000452492
0.000394012
0.000380273
0.000420746
0.000450197
0.000430555
0.000398651
0.000294941
0.000484705
0.000444509
0.000327801
0.000395119
0.000452474
0.000476621
0.000456265
0.000406008
0.00048405
0.000445976
0.000316844
0.000450697
0.00047324
0.000333597
0.000449989
0.00046704
0.000365204
0.000419011
0.000507821
0.000366033
0.000446427
0.000341163
0.000425878
0.000626065
0.000379168
0.000315576
0.000455363
0.000280328
0.000515561
0.0005002
0.000417526
0.000365512
0.00042884
0.000452894
0.000456521
0.000440292
0.000601376
0.000436342
0.000434706
0.000221331
0.000396009
0.000347845
-2.08247e-05
0.00041638
0.000444629
0.000403576
0.000132737
0.000457303
0.000110835
0.000445683
0.000438632
0.000444254
0.000471075
0.000442864
0.000436279
0.00046129
0.00043592
0.00045025
0.000427744
0.000438113
0.000444551
0.000436369
0.000431544
0.000432881
0.00047534
0.000472479
0.000479436
0.000449865
0.000457191
0.000444401
0.000440484
0.000423899
0.000460035
0.000434322
0.00043206
0.00043914
0.000250101
0.000152936
0.000109874
0.00022418
0.000485734
0.000478211
0.000493005
6.9751e-05
0.000540893
0.000547697
0.000223012
2.08714e-05
0.000438097
0.000363861
0.000442119
0.000457644
0.000488287
0.000484873
0.000454107
0.000441146
0.000511564
0.000479902
0.000503416
0.000450654
0.000487514
0.000497196
0.000625621
0.000453944
0.000410676
0.000139868
0.000421195
0.000795882
0.000671173
0.000532457
0.000516502
0.00046551
0.000445916
0.000453944
0.000496629
0.000507391
0.000499486
0.000521272
0.000369788
0.000613691
0.000573766
0.000557621
0.000446708
0.000179215
0.000458309
0.000484178
0.000475433
9.90997e-05
0.000547774
0.000411148
0.000435878
0.00042899
0.000532072
0.000551982
0.000436017
0.000446411
0.000522325
0.000441453
0.00037696
0.000350475
0.000493785
0.00042641
0.000448757
0.000434435
0.000438953
0.000416477
0.000596111
0.000503322
0.000383241
0.000562712
0.000531722
0.000454498
0.000444372
0.000450222
0.000314937
0.000353135
0.000355637
0.000305426
0.000472547
6.27524e-06
0.000248115
0.000342871
0.000238004
0.000379862
0.000564701
0.000502266
0.000451104
0.000481123
0.00044967
0.000426097
0.000467366
0.000302596
0.0004572
0.000266237
0.000470243
0.000410445
0.000314163
0.000499505
0.000201457
-2.4861e-06
0.000416816
0.00032935
0.000432067
0.000177467
0.000354348
0.000421052
0.000404371
0.000390556
0.000411193
0.00037797
0.000390792
0.000428096
0.000401188
0.000419399
0.000431098
0.000430193
0.00041387
0.000425733
0.000409421
0.000425882
0.000425674
0.000428485
0.000510016
0.000154714
0.000410573
0.000492407
0.000292837
0.000542012
0.000143167
0.000483116
0.000474622
0.00041701
0.000464648
0.000229331
0.000436276
0.000415184
0.000459218
0.000655745
0.000537023
0.000231766
0.000191535
0.000615965
0.000804929
4.3801e-05
3.78815e-05
0.000415296
0.000483214
0.000701371
0.00046536
0.000495928
0.000389884
0.000277272
0.000275431
0.000359729
0.000369758
0.00028057
0.00036026
0.000309217
0.000419976
0.000309839
0.000360277
0.000436389
0.000422076
0.000414445
0.00047013
0.000222217
0.000490824
0.000500752
0.000494819
0.000496811
0.000488517
0.00047029
0.000320036
0.000417324
0.000529088
0.000149417
0.000376969
0.000445167
0.000203667
0.000567845
0.000454109
0.0004426
0.000594341
0.000630536
0.000585821
0.000615819
0.000772895
0.000394804
0.000311664
0.000415179
0.000487488
-2.82791e-05
0.000419338
0.000229642
0.000227325
0.000380708
-3.22988e-05
0.000427559
0.000697053
0.000567972
0.000169524
0.00041657
0.0004467
0.000436264
0.000585542
0.000412277
0.000418622
0.000538417
0.000448163
0.000498563
0.000454905
0.0004772
0.000448159
0.000447725
0.000431231
0.00040517
0.000431941
0.000517202
0.000187017
0.000156263
0.000398615
0.000294064
0.000159477
0.000446484
0.000484148
0.000442599
0.000443639
0.000442463
0.000441288
0.000445013
0.000449015
0.000455675
0.000400566
0.000414573
0.000375906
0.000294034
0.000497435
0.000541163
0.00041856
0.000431051
0.00031237
0.000464491
0.000499483
0.000454146
0.000456494
0.000364357
0.000343162
0.000439031
0.000418885
0.000401959
0.000394487
0.000406705
0.000364185
0.000440437
0.000406448
0.00038222
0.000477662
0.00047261
0.000441218
0.000398515
0.000248388
0.000364664
0.000216955
0.000458382
0.000493866
0.000363173
0.000464314
0.000287298
0.000437039
0.000357052
0.000418319
0.000338605
0.00035488
0.00018671
0.000588366
0.000243154
0.000461939
0.000537314
0.000443849
0.000340431
0.000442384
0.000415813
0.000383588
0.000470321
0.000369565
0.000385567
0.000425274
0.000406403
0.000468358
0.000488968
0.00051414
0.000455237
0.000336527
0.000366712
0.000350607
0.000354182
0.000374778
0.000442569
0.000346934
0.000432802
0.0003656
0.000469706
0.000453427
0.000397262
0.00048877
0.000393904
0.000411237
0.000342594
0.000458912
0.00043682
0.000395014
0.000357311
0.000456766
0.000463586
0.000451418
0.000385824
0.000372623
0.000453938
0.000435708
0.000455395
0.000468907
0.000455675
0.000264847
0.000363599
0.000331772
0.00045758
0.000519875
0.000432262
0.000345673
0.00038804
0.000460104
0.000381361
0.000376374
0.000373902
0.000446826
0.000440193
0.000442025
0.000456986
0.000445883
0.000276784
0.000501185
0.000562137
0.00053808
0.000362106
0.000566996
0.000425177
0.000573982
0.000328431
0.000430195
0.000451
0.000515828
0.00055769
0.000579317
0.000403566
0.000534799
0.000435242
0.000308325
0.000419211
0.000408771
0.000469275
0.000410809
0.000394049
0.000404843
0.000419247
0.000409412
0.000429451
0.000333039
0.000435656
0.000434481
0.000383004
0.000415984
0.00043106
0.000443001
0.000453114
0.000450354
0.000459513
0.000459015
0.000459268
0.000475465
0.000328579
0.000605154
0.000447356
0.000438728
0.00048089
0.00039774
0.000489783
0.000152946
6.06015e-05
0.000522234
0.000449385
0.000460071
0.000455248
0.000553406
0.000437498
0.000450239
0.000560769
0.000641397
0.000479516
0.00049769
0.000475792
0.000449435
0.000364298
0.00040563
0.000209242
0.000435646
0.000392225
0.000308096
0.000382884
0.000505266
0.000481737
0.000424422
0.000397469
0.000426563
0.000400549
0.00029184
0.000451123
0.000421707
0.000413116
0.00039247
0.000372485
0.000748341
-0.00015787
0.000426581
0.000661866
-0.000180946
0.000392816
0.000430741
0.000370875
0.000336199
0.000251191
0.000298787
0.000439043
0.000421093
0.000414717
0.000425957
0.000437395
0.000363152
0.000285944
0.000388684
0.000431519
0.000284034
-2.68066e-05
0.000338549
0.000449002
0.000432797
0.000434343
SCALARS CoVolArea double 1
LOOKUP_TABLE default
382363
331191
386092
384180
366356
337540
350045
359715
348005
361611
373026
373077
484404
471785
459214
438225
457047
451872
493191
491023
497232
479745
432398
423596
494646
457588
473576
496064
473982
484427
452986
429204
496918
474655
496963
501428
510361
478011
472862
437970
482056
455935
463871
494512
453722
457474
505238
464743
412428
485549
421530
479652
460835
442082
462207
426724
456950
407777
527352
455922
424249
480025
456373
518535
456237
534744
469345
465776
533187
453581
526324
455242
523765
466194
522588
509487
462303
455738
431252
414752
437312
419483
446991
420136
463118
444266
463308
490008
442210
519913
444949
508527
474059
444894
500907
472734
514997
461232
470977
463287
397922
469690
420975
507963
411607
456990
432498
402372
451456
414527
455895
407707
475857
522209
475021
447585
502532
449338
468125
511001
451265
519622
465986
471885
520906
467102
522520
475379
506707
467793
463299
509424
440883
500276
434331
505318
467924
423683
480323
425386
483412
425136
520889
435222
493538
504866
437143
476116
467408
451948
521941
514161
508311
473694
498485
491649
448113
450254
510296
466594
456509
458723
465224
461802
465280
497104
454849
453030
437989
445588
478047
450306
466925
453568
494427
463777
448426
457737
467414
502058
399834
422638
402743
473271
432283
418944
431152
437822
485380
558048
553553
547359
469257
458762
488297
457492
442217
448924
465752
419989
422002
451079
434514
431324
420146
472970
409583
418207
398796
465293
427659
426164
404682
409298
437207
527621
503844
516580
457727
446373
500625
471777
461321
461739
507677
406387
428924
473612
435543
423087
435662
475554
441194
457461
440315
506089
462687
457006
437039
466819
490904
564124
559127
584692
470173
458345
530057
483913
465712
479020
523805
447048
471464
521980
484647
465039
479942
525986
448885
459385
441346
522764
469370
457302
456579
468861
513585
596195
592070
595443
477970
517286
478786
475106
506332
464595
469445
508650
474328
453722
464287
510377
468685
449530
503605
470664
455693
469710
500487
584018
573544
572711
426602
399503
462912
434577
407264
429455
437536
424443
429688
439191
404835
401036
421078
452252
426423
423272
426468
440650
413782
403354
408965
415571
444714
495844
492290
491022
426332
422678
478258
424818
434530
430338
473026
445440
456970
505344
456971
467118
456041
490545
432844
444097
437720
492162
466632
430551
447881
471578
521866
532588
551170
532207
466334
448560
499103
470051
470392
474253
512331
451306
461433
498582
454220
446035
455512
492814
467315
472968
459603
516631
473302
464270
446237
464949
498237
559106
566437
570202
454588
449585
498626
449223
453819
440590
482075
423675
444904
458622
416714
411514
451396
497483
418249
419864
407284
510469
452642
436739
437777
449066
492504
531615
526731
533800
458630
431842
460375
440763
412753
432940
438050
391413
413202
448986
406806
410256
423985
459992
401661
415631
405702
440949
427797
413801
414640
425416
464464
507675
501797
498111
466467
480396
463918
515162
480147
469545
468684
480937
516389
436685
449688
433091
495210
453322
444032
459002
457450
507298
452045
466880
446510
510834
469962
464641
443123
461779
499180
573565
566423
576213
472707
457644
515190
476302
471661
476246
526295
452166
469311
519507
476491
472386
473950
516042
462728
477111
470449
525924
474645
470209
467834
475237
516527
579486
581179
582622
471409
459576
511138
470915
454183
467516
496040
456046
469339
499071
470341
457530
473066
512718
428549
445281
425679
492359
452100
436941
437868
450008
490816
565644
560735
562611
471015
462227
496897
468547
457630
466692
497048
417899
438081
463198
430655
411421
438827
483236
423620
432126
418626
487853
436011
437377
414990
431958
465603
552638
540918
553565
479043
509856
476169
479745
516814
424877
433466
474894
436452
429220
438882
499239
445120
432340
512146
461681
428045
444771
477187
571401
557692
575603
453858
479600
447687
440570
462292
440429
454637
426818
441455
477276
437613
459892
429316
414395
448636
525278
513054
517204
481451
517953
480033
476883
509110
471440
493585
459942
478074
516738
477514
508477
486603
484201
502851
579827
563357
569967
429752
489160
435728
422035
469038
466026
487700
460549
465143
499345
456691
491293
460403
449287
488906
547531
546310
535214
414383
448697
414454
413641
460490
416246
477904
415229
418036
450797
406244
483214
428433
419697
505225
498795
534321
529959
439763
476827
441041
426062
445339
425196
450484
412521
432392
473654
422782
442816
432679
433973
463473
517275
501183
500117
SCALARS SignedDistance double 1
LOOKUP_TABLE default
2619.61
3196.25
2129.6
2126.93
2506.45
3459.45
2971.99
2869.2
3154.19
2851.75
2925.92
2248.48
2282.33
2588.92
2932.59
3501.06
2634.43
2788.51
2138.15
2393.43
2163.2
2474.67
3201.43
3260.41
2767.09
3058.29
2631.6
2401.09
3518.32
3214.28
3407.12
3623.3
2131.22
2676.36
2181.31
2075.16
2470.13
2445.96
2488.66
3137.43
2449.58
2899.65
2499
2537.14
2837.46
2337.09
2355.05
2228.39
3169.49
2734.34
3022.22
2889.34
2651.06
3522.59
3318.56
2879.09
3060.47
3354.77
2561.43
2303.78
2866.89
2583.51
2415.74
2597.72
2872.98
1923.44
2285.05
2395.4
1990.45
2493.58
2082.7
2587.55
2394.64
2703.29
2548.95
2299.59
2337.45
3405.8
3449.65
3360.1
3379.45
3055.64
3207.77
3024.83
2998.96
3337.07
2499.44
2586.17
2785.24
2978.34
2706.43
2370.26
2420.85
2758.39
2553.36
2197.67
2427.87
2240.51
2961.62
3094.02
3241.45
2934.17
3110.23
3350.34
3269.88
3134.38
3311.95
3302.25
3117.77
3398.95
3499.23
3302.46
2026.96
2159.71
2145.47
2769.7
2448.01
2487.93
2320.78
2411.94
2595.13
2315.58
2356.22
2222.43
2150.26
2331.08
2315.62
2079.09
2372.95
2337.54
2291.82
2340.31
2770.29
2509.62
2726.62
2524.2
2200.81
3066.56
2800.47
2883.1
2867.4
3155.73
2134.92
3003.28
2574.31
2372.1
2838.35
2844.17
2945.11
3156.35
2071.75
2258.66
2532.58
2834.37
2516.14
2918.21
3392.91
3293.79
3620.18
3081.46
3166.86
3346.25
2621.48
2653.5
2779.27
2386.5
2499.26
2367.65
2868.29
2673.9
2723.58
2265.44
2251.99
2215.69
2446.1
2330.73
2438.96
2241.53
2268.76
2301.99
3310.33
3098.51
3247.75
2829.04
2949.32
3039.1
2790.85
2856.61
2650.03
2426.31
2513.5
2610.36
2785.19
2717.36
3014.46
2898.96
2598.05
2747.64
2724.23
3514.97
3424.22
3424.73
3486.6
3514.6
3291.17
3170.57
3033.26
3116.26
3275.78
2829.28
2958.27
2741.13
3439.94
3207.55
3302.56
3090.29
3186.49
2935.6
2650.49
2476.22
2530.43
2578.38
2144.64
2509.01
2397.18
3018.04
2859.39
2661.48
2712.6
2805.23
2707.22
2594.66
2625.18
2764.12
2951.36
2452.48
2584.68
2250.07
2810.58
2714.84
2662.85
2482.51
2541.87
2550.93
2259.49
2431.53
1956.72
2039.01
2190.48
2075.66
1992.68
2615.65
2362.27
2120.64
2154.96
2305.39
2139.38
1991.85
2705.77
2522.72
2744.4
2059.28
2271.23
2264.17
2468.78
2357.83
2211.07
1895.38
1975.16
1925.85
2499.63
2343.22
2392.92
2424.54
2312.74
2851.98
2750.02
2495.23
2628.8
2568.33
2577.21
2419.7
2243.49
2250.41
2241.44
2243
2366.49
2315.45
2363.89
2427.35
2380.67
2298.72
3458.64
3400.23
3473.95
3470.96
3353.64
3423.4
3336.35
3444.84
3441.41
3297.7
3370.11
3285.43
3446.2
3458.62
2949.24
3032.61
2935.49
3227.03
3134.25
3159.66
3114.11
3120.04
3201
3387.53
3296.67
3310.05
3250.14
3443.04
2773.15
3011.39
3199.04
3239.82
3192.13
2352.05
2374.22
2705.5
2534.74
2656.3
2445.91
2562.73
2743.84
2843.01
2571.47
3017.21
2877.42
2949.61
2797.89
2898.08
2872.3
2711.97
2802.31
3010.92
2364.79
2345.28
2426.97
2394.69
2404.85
2391.68
2387.08
2874.42
2754.21
2575.12
2647.75
2680.85
2649.62
2540.39
2124.25
2193.86
2137.83
2392
2291.04
2302.07
2413.6
2306.06
2496.3
2432.49
2482.2
2396.32
2886.36
3011.54
2654.06
2755.58
3183.04
3068.33
3247.93
2999.43
2804.74
3272.48
3069.49
3400.79
2670.25
2607.98
3031.01
3156.8
3113.09
3302.08
3223.75
3187.28
3354.51
3291.43
3424.37
2898.03
3208.02
3196.44
3079.33
3164.54
2948.28
2993.44
3453.74
3205.4
3347.78
3248.37
3068.32
3303.44
3179.26
3374.53
2980.01
2942.85
3280.81
3350.77
3230.74
3559.56
3485.27
3530.16
3368.47
3427.58
3449.95
3107.1
3291.43
3307.95
2064.48
2068.52
2108.67
2115.63
2065.45
2045.02
2153.97
2131.75
2191.81
2811.13
2673.02
2722.33
2619.26
2649.09
2719.59
2292.34
2464.93
2264.23
2399.4
2444.39
2556.31
2270.7
2358
2247.74
2635.44
2497.4
2555.22
2262.78
2442.41
2297.02
2217.81
2207.26
2183.75
2210.87
2440.27
2369.16
2429.18
2319.93
2232.86
2136.02
2135.8
2178.9
2222.51
2204.13
2198.53
2165.76
2123.3
2432.96
2297.6
2447.34
2032.22
2195.5
2160.96
2233.64
2189.53
2363.84
2301.23
2235.32
2434.05
2360.08
2395.12
2324.22
2385.67
2168.06
2265.66
2348.11
2308.1
2370.06
2358.74
2435.05
2871.95
2747.44
2879.89
2540.91
2642.07
2625.98
2562.95
2611.85
2471.29
2386.58
2406.31
2443.04
2278.82
2143.67
2503.54
2416.98
2303.19
2365.9
2483.7
3015.53
2925.64
2964
2950.19
3114.26
2787.21
2641.56
3042.02
3056.4
3156.26
2675.94
2871.47
2634.07
3149.88
3041.08
3010.74
2656.75
2823.25
2682.8
2077.71
2258.4
2141.09
2046.2
2083.21
3072.77
2955.96
2729.57
2831.96
2944.7
2717.03
2465.24
2659.96
2840.38
2226.18
2400.25
2857.55
2625.28
2640.22
2305.24
2427.79
2180.86
2705.12
2755.65
2725.14
2796.55
2956.01
2896.07
3082.89
2991.92
2853.48
2805.2
3370.26
3111.07
3247.33
3276.8
3193.67
2882.34
3047.77
2990.46
2117.6
2015.33
2026.36
2120.25
2216.17
2414.7
2528.75
2476.45
2280.88
2111.27
2452.09
2435.58
2457.25
2551.6
2668.25
2112.02
2335.57
2232.35
2931.86
2612.09
2750.71
3001.29
3116.86
2222.47
2545.47
2358.93
2373.22
2486.44
2921.04
3082.92
2996.58
2825.86
2779.18
2683.96
2757.39
2948.24
3283.4
3264.79
3280.75
3404.48
3520.38
3149.12
3374.47
3278.81
3187.05
3233.33
3348.75
3626.82
3555.93
3523.82
3562.05
3353.79
3431.66
3497.81
2939.14
2970.29
2952.06
3063.07
3175.49
3153.04
3300.35
3233.06
3077.49
3016.66
3439.2
3311.33
3413.69
3418.74
3379.66
3114.19
3255.82
3223.59
