# vtk DataFile Version 4.2
vtk output
ASCII
DATASET POLYDATA
POINTS 642 double
-2367.08 5913.21 -565.448
335.138 5786.88 -490.581
-2395 483.281 -32.1004
1396.86 501.014 56.8715
-653.408 1385.87 2417.54
-1299.71 4603.8 1793.69
-505.833 1751.99 -2046.73
-1306.99 5153.56 -2545.29
1628.03 3112.56 -1083.7
1851.11 3023.59 1280.64
-2909.94 3990.04 -1430.2
-3414.97 3530.38 1681.64
-3282 4993.7 983.748
-2343.4 4313.72 2244.43
-1825.75 5437.46 1298.94
-64.9183 5364.36 490.868
-641.108 6385.17 -255.475
56.7549 5887.85 -1342.09
-1923.13 6224.44 -1892.99
-2192.13 4909.2 -2602.52
-3205 5321.36 -1380.38
-3642.71 3487.64 184.711
796.904 3824.77 1834.48
1428.35 4247.94 748.871
-2041.51 2152.09 2060.52
-473.2 3053.7 2434.31
-2868.99 1578.8 -690.943
-2971.52 1614.56 974.856
-1011.27 3879.14 -2001.16
-1845.26 2586.95 -1721.19
1111.54 4627.39 -508.224
384.947 4606.41 -1359.58
2281.01 1533.76 936.772
918.579 2258.49 2189.28
557.512 606.693 1603.91
-1754.34 546.085 1668.07
-531.921 351.686 -57.7421
-1489.04 748.306 -1457.64
461.596 766.973 -1393.14
769.698 2238.1 -1783.24
2119.43 1651.63 -703.954
2234.97 2717.25 127.706
-2880.58 5412.74 499.583
-2588.85 5357.32 1230.06
-1994.68 5596.66 700.969
-2957.76 3962.02 2088.14
-2910.84 4708.74 1782.84
-3444.68 4281.89 1410.26
-1607.29 5107.47 1621.81
-2153.2 4980.72 1851.62
-1887.9 4501.84 2119.95
-947.856 6134.42 258.427
-1245.87 6276.97 -341.13
-395.346 4798.99 1305.03
-1014.38 5658.26 715.931
-107.232 6178.17 -378.947
-417.068 6085.26 173.964
1.67514 5804.7 70.3156
-1349.48 6280.18 -1086.27
-2173.03 6251.33 -1405.8
309.654 5948.9 -845.393
-233.836 6312.76 -876.876
-1618.25 5759.08 -2332.41
-904.841 6054.84 -1685.6
-458.907 5586.23 -1851.48
-2704.29 5994.08 -1709.46
-2851.59 5784.24 -1021.03
-1741.23 5120.33 -2778.5
-2170.79 5666.72 -2476.9
-3138.61 4874.52 -1551.69
-2926.1 5220.14 -2102.28
-2663.85 4467.92 -2172.05
-3268.6 5118.34 -63.692
-3388.05 3519.68 -569.536
-3349.35 4456.53 -520.66
-3613.99 4345.26 579.874
-3614.52 3523.17 957.397
846.175 4657.72 902.374
819.959 4887.63 179.942
193.847 4092.99 1841.37
543.916 4455.89 1450.01
1699.88 3745.68 1046.43
1216.87 4108.48 1331.58
1344.36 3512.87 1664.15
-1935.83 3826.84 2371.53
-935.35 3600.49 2270.2
-2915.28 3169.17 1998.24
-2346.25 3556.19 2398.78
-410.466 2357.74 2539.73
-1408.11 3080.35 2369.77
-1363.17 1501.14 2278.01
-3568.46 2588.26 497.247
-3288.16 2737.28 1289.57
-3046.05 2584.2 -1018.93
-3421.05 2579.91 -312.142
-2800.81 911.205 554.729
-3069.83 1533.73 -0.532592
-2821.08 921.761 -477.809
-2142.55 4112.63 -2364.72
-2266.31 3333.54 -1728.47
-1360.1 4995.72 -2513.62
-1809.95 4660.18 -2627.37
-1121.88 1877.56 -1948.37
-1488.99 3345.59 -2152.07
-505.549 2375.58 -2085.11
244.309 5256.24 -1626.83
-445.07 5090.95 -1988.2
645.112 5419.66 -804.802
565.027 5467.54 -1084.62
1147.26 3479.26 -1363.73
549.604 4586.06 -1166.17
1567.56 3683.26 -831.516
1991.8 916.142 538.301
1595.83 989.299 1264.52
1077.61 474.702 833.047
1495.86 2624.46 1759.22
1774.52 1762.43 1539.34
2253.04 2195.74 1101.45
-101.223 996.812 2128.65
815.223 1330 1987.04
257.263 1831.6 2397.26
157.488 361.949 1003.72
634.477 365.159 19.439
-1059.33 947.688 2261.45
-604.018 491.226 1814.21
-1681.61 344.352 69.1557
-1296.16 367.048 991.725
-2108.03 411.25 999.984
102.746 382.238 -867.85
947.833 595.051 -719.308
-2071.12 552.981 -711.725
-1159.18 366.959 -910.706
-32.7003 1184.02 -1730.62
-598.66 690.938 -1493.85
-1113.18 1111.4 -1773.48
1356.42 1154.46 -1023.7
1903.36 989.242 -387.399
139.471 1994.63 -1989.8
697.872 1481.95 -1710.04
2020.98 2107.82 -793.752
1459.79 1908.4 -1290.22
1253.62 2692.76 -1493.69
2386.48 1481.84 76.2358
2040.13 2936.24 -494.394
2409.41 2165.17 -269.6
2542.42 2204.12 464.105
2191.45 2781.71 669.694
209.985 2658.32 2460.95
898.358 3074.96 2137.46
202.769 3381.48 2277.56
-2538.19 873.585 1464.75
-2026.39 1215 2144.23
-2557.6 1693.13 1665.88
-1650.74 1309.97 -1686.84
-2400.26 1052.12 -1057.37
-2462.14 1997.65 -1287.06
736.782 3056.39 -1728.95
55.4473 2748.02 -2069.93
-475.247 3902.66 -1989.16
1883.29 3722.24 441.825
1840.3 3701.86 -288.296
1453.62 4271.97 33.3406
-2606.12 5569.63 -10.6782
-2531.56 5548.52 657.69
-2098.44 5719.19 166.302
-2959.59 5220.28 1126.38
-2759.81 5408.43 904.602
-3111 5235.13 770.41
-1957.11 5556.23 1032.24
-2377.89 5509.65 1013.11
-2204.52 5425.16 1278.36
-3222.82 3737.33 1911.84
-3248.26 4107.67 1799.77
-3466.32 3874.95 1582.84
-2647.26 4517.81 2077.26
-2950.77 4347.04 1976.86
-2658.29 4172.05 2215.65
-3390.38 4677.18 1198.85
-3207.11 4526.19 1616.83
-3133.95 4871.73 1405.01
-1550.41 4898.63 1745.11
-1756.11 4829.72 1890.62
-1685.24 4618.72 1969.44
-1992.71 5243.24 1580.98
-1868.18 5059.26 1752.34
-1705.27 5289.82 1477.3
-2089.3 4411.19 2217.55
-2011.32 4749.38 2015.73
-2263.65 4669.9 2082.93
-2775.36 5086.1 1525.16
-2525.65 4890.55 1865.56
-2377.97 5199.51 1585.27
-1499.58 6023.24 83.5417
-1803.34 6023.29 -549.954
-1378.94 5668.46 741.336
-1439.47 5891.09 404.353
-894.598 6385.23 -228.411
-1035.41 6255.51 25.2315
-812.175 6311.08 2.79833
-930.831 4594.41 1484.6
-1315.86 5085.26 1468.07
-543.654 5678.8 585.056
-929.435 5239.94 988.395
-150.818 5026.4 943.746
-1417.97 5279.14 1328.14
-1375.16 5435.42 1118.93
129.383 6002.24 -441.769
-26.4481 5998.84 -121.612
179.374 5815.24 -208.019
-523.772 6264.58 -20.3519
-277.965 6158.58 -53.8393
-391.487 6315.86 -324.313
-80.1189 5677.86 283.948
-188.773 5955.38 133.785
-338.038 5890.99 308.494
-892.49 5916.92 512.942
-604.922 5948.09 411.742
-688.197 6155.71 233.122
-1806.45 6174.38 -1098
-2281.9 6097.9 -1079.9
-784.341 6393.5 -553.87
-1330.84 6289.7 -717.52
-2067.65 6302.35 -1606.71
-1886.81 6244.03 -1380.33
-1826.2 6256.98 -1581.07
336.105 5882.61 -710.785
121.151 6092.03 -664.562
-75.247 6143 -1118.07
43.4556 6160.55 -872.843
197.059 5950.63 -1085.29
-162.342 6275.01 -642.999
-409.206 6375.71 -603.111
-1471.01 5434.01 -2487.45
-1204.54 5667.06 -2145.85
-998.985 5315.74 -2220.69
-1587.16 6112.81 -1884.63
-1389.03 5928.7 -2035.15
-1772.12 6019.5 -2141.74
-110.002 5770.28 -1565.3
-692.55 5864.13 -1790.18
-294.163 6024.8 -1444.75
-579.495 6380.35 -913.15
-424.261 6249.5 -1207.64
-1103.45 6204.22 -1417.87
-2531.1 6074.73 -1237.63
-2600 5904.5 -792.937
-2283.02 6204.97 -1832.93
-2435.41 6203.86 -1525.01
-3059.81 5583.36 -1214.73
-2807.97 5926.65 -1400.17
-3018.97 5682.23 -1549.57
-1572.5 5157.52 -2684.29
-1675.11 5411.88 -2629.22
-2230.78 5254.08 -2610.81
-1896.75 5361.65 -2719.03
-1889.85 5044.05 -2785.99
-1856.85 5764.25 -2445.82
-2038.6 6016.15 -2233.76
-2995.23 4415.32 -1597.78
-2949.27 4691.42 -1864.15
-2793.26 4311.87 -1913.11
-3150.23 5281.31 -1752.95
-3085.09 5070.4 -1819.9
-3220.3 5094.55 -1496.98
-2467.01 4709.71 -2403.64
-2804.91 4950.81 -2136.05
-2595.58 5099.06 -2371.38
-2480.3 5880.19 -2151.85
-2614.52 5454.62 -2354.25
-2889.29 5602.63 -1977.4
-2840.23 5547.52 -335.558
-3188.66 5261.25 -832.793
-3057.34 5423.79 -597.288
-3112.4 5276.96 213.001
-3337.65 5047.79 544.868
-3063.27 3643.66 -1043.71
-3132.55 4303.89 -1067.3
-3584.4 3936.3 -60.6742
-3404.96 4008.58 -547.67
-3554.87 3469.5 -219.566
-3216.17 4759.85 -1115.68
-3244.81 4976.97 -1080.4
-3587.77 3897.58 1251.04
-3566.53 3528.67 1379.01
-3514.87 4703.18 816.498
-3572.64 4350.32 1020.2
-3711.76 3517.2 508.7
-3660.24 3923.44 751.512
-3701.53 3931.86 379.703
-3368.86 4825.54 -296.185
-3608.54 4363.6 146.959
-3527.5 4742.77 341.684
406.535 5384.21 -65.2656
453.068 5515.3 -323.454
365.911 4945.45 857.548
251.65 5116.55 452.848
1232.55 4471.4 590.078
911.494 4731.38 589.722
1146.93 4477.46 835.408
-293.591 4236.2 1788.02
30.2323 4422.34 1619.58
682.552 4178.32 1643.26
402.718 4306.44 1641.1
514.499 3955.72 1850.83
244.273 4578.35 1425.62
362.865 4731.98 1185.77
1781.1 3450.17 1184.25
1557.88 3642.13 1366.93
1582.92 3341.52 1518.61
1350.52 4188.26 1048.03
1471.06 3939.32 1204.84
1585.83 4001.39 898.784
1078.95 3673.26 1768.61
1297.96 3829.65 1502.99
1036.42 3989.94 1590.78
713.208 4576.41 1194.62
886.3 4307.74 1411.4
1047.17 4406.01 1134.37
-1698.2 4185.86 2172.54
-1095.18 4223.12 1792.33
-2058.81 4046.32 2355.41
-1894.51 4132.12 2275.07
-575.992 3429.26 2307.47
-1528.26 3946.7 2231.93
-1336.78 3552.73 2133.62
-3194.98 3356.63 1878.4
-2988.77 3545.67 2079.55
-2310.6 3197.4 2296.79
-2656.4 3382.64 2213.56
-2491.03 2836.57 2025.83
-2680.5 3750.74 2251.94
-2362.17 3909.7 2356.14
-559.746 1773.52 2413.99
-821.976 1808.38 2383.76
-922.424 1426.43 2419.03
-980.326 2952.4 2425.14
-753.764 2531.95 2457.39
-401.349 2688.97 2491.37
-1763.88 1623.81 2144.08
-1295.49 2069.37 2276.43
-1804.05 2651.53 2194.86
-2057.26 3683.11 2466.4
-1999.06 3430.69 2428.98
-1851.12 3437.58 2408.71
-3525.58 3173.15 1203.49
-3410.24 3226.9 1539.93
-3631.7 3032.21 335.923
-3588.34 3089.8 714.514
-3186.13 2139.53 1105.55
-3461.05 2632.77 889.85
-3361.29 2201.97 706.963
-2978.22 3046.4 -1144.98
-3205.83 2974.54 -818.257
-3202.56 2147.47 -565.442
-3247.47 2549.25 -698.726
-3030.17 2184.95 -872.443
-3408.26 3001.56 -420.781
-3555.56 3001.78 -73.1026
-2629.22 651.991 257.352
-2840.11 884.9 -37.169
-2635.24 657.554 -277.965
-3092.7 1582.56 479.476
-2972.11 1132.09 238.485
-2866.11 1160.58 809.453
-2873.82 1150.75 -611.27
-2971.08 1114.98 -271.273
-2975.49 1497.96 -388.908
-3562.72 2573.49 110.81
-3330.15 2128.92 -146.442
-3418.18 2167.12 287.124
-2509.77 4128.79 -2121.6
-2646.95 3731.23 -1449.9
-2178.83 4449.31 -2519.51
-2383.2 4249.58 -2317
-2113.82 3068.08 -1758.88
-2262.95 3917.64 -2172.69
-2083.85 3684.33 -2105.96
-1339.01 5121.55 -2543.14
-1628.49 5095.92 -2677.54
-1658.32 4503.66 -2512.31
-1646.17 4853.29 -2611.08
-1340.53 4649.91 -2436.64
-1778.12 5007.02 -2727.94
-1868.68 4784.36 -2701.97
-818.861 1819.78 -2013.8
-793.285 2190.32 -2085.43
-493.825 2045.47 -2082.85
-1510.45 3086.33 -2031.47
-1092.3 2461.64 -2047.63
-1408.91 2040.33 -1840.01
-542.411 2914.75 -2109.89
-910.973 2681.32 -2094.41
-1497.7 3557.73 -2112.48
-1920.78 4335.84 -2544.56
-1827.88 4224.29 -2460.23
-1858.49 3958.93 -2372.45
-400.378 5220.28 -1986.34
-958.02 5115.76 -2357.84
162.026 5573.94 -1516.07
[...]
POINT_DATA 642
SCALARS Mean_Curvature double 1
LOOKUP_TABLE default
0.000582497
0.000883524
0.00114837
0.00127771
0.00134179
0.00257077
0.00161794
0.00462792
0.000980724
0.000687432
0.00112367
0.00182357
0.00120493
0.000982121
0.00122738
-0.00178963
0.00211179
0.00124311
0.00231429
0.000592395
0.00167569
0.00017452
0.000713699
0.00100309
0.000226655
0.000341729
3.67323e-05
2.4407e-05
-0.00112093
-0.000131179
-0.00111459
0.000169964
0.0014976
0.000678576
0.0012528
0.00129257
3.67297e-05
0.00126218
0.00152998
0.000427364
0.00141639
-0.000335941
0.000789297
0.00103498
-0.000708138
0.00102434
0.000990376
0.000859171
0.00123378
0.00111205
0.00106285
0.0011589
0.000774823
0.000550382
-0.00127197
0.00105385
0.00135097
0.000506202
0.000478027
0.00152138
0.00292406
0.00198309
0.000692023
0.00112992
0.000401347
0.00161307
0.000756671
0.00605202
0.00137258
0.000370941
0.00214147
0.00119616
0.000900426
0.000473333
-0.000365517
0.000388851
0.000112592
0.00048508
-0.000319932
0.000567904
0.000891595
0.000905453
0.000919213
0.000814109
-0.000196356
-0.00213681
0.00092087
0.00169756
0.00131642
-0.00023614
-0.000261849
0.00124569
-1.42337e-05
0.00108905
0.000663024
0.000866821
4.00585e-06
0.00178609
0.000863276
-0.00035199
-0.000464298
0.000193155
0.000726186
0.00534475
-0.000115314
0.00270104
0.000892127
0.000143344
0.00127638
0.000625687
-0.00157571
0.000715144
0.00116017
0.000942982
0.000715215
0.000429027
0.000909518
0.00191862
0.000188949
0.000546759
0.00081996
0.000384341
0.000258128
0.00146559
0.00144769
-4.81756e-05
-7.83144e-05
0.00127726
0.00114508
0.000494009
0.000458418
0.00126228
0.000214907
0.00125828
0.00127315
0.00023612
0.00120205
0.000636263
0.00141054
0.000331129
0.000553927
0.000664736
0.00103052
0.000667932
0.00209548
0.00297465
0.000213517
0.000602587
0.000685762
0.000935465
0.00133785
0.00259242
-0.000164484
0.00206438
0.00170365
0.000445988
0.000338039
0.00105093
0.000454614
0.000856014
0.00097511
0.000502917
-0.000348162
0.000831308
-0.000235726
0.00117513
0.000954114
0.00119668
0.00140488
0.00112907
0.000892221
0.0013516
0.00102099
0.00132938
0.00128977
0.00106219
0.00139123
0.00102551
0.000916111
0.0010093
0.000298366
0.0012873
0.000145517
0.00108839
0.00116204
0.00144545
0.00161961
0.00121289
0.00127143
0.00112598
0.00119652
0.00104694
0.000445639
-0.000566844
-0.000515893
0.000714358
0.00203388
0.00121421
0.00209246
-0.00210039
0.000957814
0.000631604
-0.000978365
-0.000205606
0.000868191
0.0016313
0.000827532
0.00127215
0.00066835
0.00160045
0.00137018
0.00101451
0.00297766
0.00132872
0.000688143
0.00303342
0.00105939
0.00189382
-0.000711257
0.000250916
0.000667572
0.00111029
0.0030521
0.00139009
0.000935125
0.00100524
0.00156341
0.00136097
0.00197227
0.00118861
0.00129352
0.00176153
0.000444421
0.000227804
-0.000775878
0.000722493
0.000678808
0.00107845
0.000848675
0.000840004
0.000963708
0.00129319
0.00127889
0.000411644
0.00103061
0.00107312
0.00179075
0.0024133
0.000876352
0.00153076
0.00167508
0.0045237
0.00165803
0.00139674
0.00271928
0.00399954
0.00196436
0.00209842
0.000914928
0.000668844
0.000902397
0.00241942
0.00114912
0.00229443
0.000723345
0.000252928
0.000923117
0.00130634
0.00175853
0.00142722
0.000435584
0.000913322
0.000696236
0.000613105
0.00110256
-0.00023952
-0.000647835
0.000317233
0.000841807
0.00082875
0.000616716
0.000922942
0.000943593
0.00163705
0.00135816
0.000972424
0.00150453
0.000406736
0.00127472
0.000598693
0.00094403
0.00113823
7.08593e-05
0.00121248
0.00233647
-0.00184401
0.000752428
0.00103501
0.000902852
0.000869068
0.000482044
0.00086884
0.000779661
0.000423117
0.000620624
0.000756317
0.000884965
0.0009185
0.000877426
0.00086814
0.000922193
0.000861834
0.000671062
0.000847559
0.000836891
0.00084845
0.000972035
0.00094728
0.000455804
-0.0016785
0.00201325
0.000706891
0.00323902
0.00387055
-0.00256241
0.00144872
0.001255
0.001055
0.000701851
-0.000499329
0.000862966
0.000961396
-0.000113917
-0.000117241
0.0015538
0.00158885
0.000248214
0.000288139
-0.000568841
-0.000166729
-0.000400065
0.00379302
0.00132792
0.00192474
0.000899194
0.00126527
0.000794421
6.11212e-05
0.000683722
0.000669727
0.0005644
0.00100731
0.000351537
0.000827464
0.00085156
0.000782654
0.000107034
0.000566275
0.00110189
0.000827479
0.00151687
0.000216731
0.00104166
0.000268276
0.00205354
0.00189455
-6.63597e-05
0.00130291
0.000536648
0.000874037
0.000784004
-0.0014605
0.00140578
0.0013719
0.000294121
0.00148754
4.58693e-07
-0.00460349
-0.00165445
0.000217809
-0.000166426
0.00093963
-5.77486e-06
0.00324585
0.000641653
0.0010461
0.000632082
-0.000276001
0.000801989
0.00017961
0.000300551
0.000169375
-0.00149458
0.00363757
0.000943711
0.0018231
0.00203891
0.00813716
0.00104999
0.00100741
-0.000611445
0.00521588
0.00223728
-5.03762e-05
0.00381324
0.00159131
0.00453164
0.00612486
0.00179272
0.00105551
0.000865579
0.000655442
0.000882647
0.00113765
0.000741646
0.000462076
0.000410468
0.000431255
7.44164e-05
0.00170737
0.00129693
0.00199141
0.000820377
0.000949127
0.00129928
0.001167
0.00107247
0.00136349
0.00117158
0.000628904
0.000753373
0.000405265
0.000493828
0.000208183
0.000143442
1.16721e-05
0.000669863
0.000922619
0.00083953
0.00144237
0.000424144
0.00107137
0.000657819
0.00106893
0.000575734
0.000860349
0.00084062
0.000733138
0.000372383
0.00125458
0.00058257
0.000327566
0.000726732
0.00122161
0.00126273
0.000875707
4.27661e-06
7.51858e-05
1.14739e-05
0.00218548
0.00170671
0.00123113
0.00130012
-0.000337533
0.000810461
0.000801365
0.000849667
0.00121154
0.000667931
-0.000126672
0.00133836
-0.000120491
0.00185512
5.06879e-05
0.000696794
0.000779923
0.00105098
3.65567e-05
0.00061303
0.000998095
0.000231483
0.000598397
0.00122171
0.00142337
0.00143161
0.00201804
0.000836433
0.00146199
0.00106486
0.000930095
0.000354782
6.37803e-05
0.00064696
0.000689168
0.000360383
0.000691786
0.000494182
0.000990758
0.00177267
0.000739467
0.00115839
0.00120746
0.000842911
0.000504928
0.000846806
0.00103401
0.000853915
0.000412418
0.001255
0.000944149
0.000835321
0.00117101
0.000433531
0.00105564
0.000181327
0.000368446
0.000465409
0.0010485
0.000368158
0.000202603
0.000712944
0.00131812
-0.000107689
0.00208046
0.000708529
0.00032917
0.000615083
0.000731974
0.0011423
0.00046048
0.00100025
0.00115133
0.00118079
0.00119356
0.00104827
0.000778124
-7.54955e-05
0.00094057
0.000586706
0.000451738
0.000912191
0.00227692
0.00105883
0.000486025
0.00101178
0.00227238
0.000201267
0.00091601
0.00104268
0.00116886
0.00261501
0.00178098
0.000446446
0.000729132
0.000394308
0.00198025
0.000271461
0.000826441
0.000618635
0.000726612
0.000753117
0.000883686
-4.84508e-05
0.00101595
0.000345731
0.000292373
0.000549236
0.00126908
0.000759175
0.00120544
0.000547896
0.00148886
0.00127391
0.0013688
0.00146
0.00175908
0.00131977
0.0022373
0.000763169
0.00146481
0.000418149
0.000147621
0.000697821
0.000391862
1.27648e-05
0.00166507
0.00175106
0.00184316
1.20054e-05
0.00170411
0.00227336
0.000339044
-0.000536626
0.00143697
0.00147431
0.00174263
0.00062813
0.000746433
0.000468573
4.44594e-05
0.000652274
0.00091202
0.000365345
0.00173416
-0.000671253
-0.000184807
0.00079726
0.000591996
0.000757344
0.00070218
0.000267096
0.000783884
0.000736157
0.000415101
0.000813811
0.000329808
0.00348933
-0.00107605
-0.000783355
4.20705e-05
-0.000505495
0.000867008
0.00153678
9.8989e-05
0.00095888
0.000729506
0.000617589
0.000970059
0.000800878
0.000887458
0.000963365
0.00079638
0.000938704
0.000868137
-3.31767e-05
0.000450597
0.000260014
-0.000932278
0.00282935
0.00110849
0.000837716
0.000557611
SCALARS CoVolArea double 1
LOOKUP_TABLE default
250460
73151.6
137432
132231
93179.6
188744
102401
66283.4
115168
150388
190539
97988.9
151506
122040
146267
222999
84727.7
107631
109971
144528
138392
182647
128322
102698
311236
219738
189905
262406
468077
391005
185859
233504
160518
195554
185706
182558
393729
143776
130311
139256
123054
175229
195050
140170
240626
141724
165298
164201
80535.6
118822
83581.3
134379
220652
354520
161629
92406
70934
149342
241818
99447.7
63705.1
95415.6
125141
213475
224584
173691
183129
40326.5
175730
157796
132414
143403
225193
276572
269188
177969
183423
168773
207352
160275
104984
107301
109295
115793
122622
295043
190461
121844
166190
306383
171804
184431
239755
147903
190036
180616
248374
112619
104408
330045
82383.9
54387.2
163888
158371
146823
64768.3
82239.3
95166.9
79061.1
137056
208822
112511
170437
207400
188947
199922
166053
108368
203623
215438
168479
245400
216275
173561
186664
203253
267469
175016
177411
194916
164167
184653
175059
175462
108692
213594
154741
140867
130261
128359
158901
158860
175740
171445
82969.2
82348.6
161294
139946
129830
113592
154755
113758
230494
96563.5
148590
240698
151193
126450
380564
131861
108820
188242
274404
222832
380901
153079
132282
146000
176770
135430
128884
128502
157998
138065
144346
150133
135273
153974
163462
167514
128938
75932.4
142631
114163
88952.5
89493.8
87467.2
89341.4
119895
176571
162147
154864
299468
362852
218520
211141
111172
134099
73043.2
303926
236382
262670
343770
344502
130180
136510
81086.7
83465.6
108512
79106.8
83544.3
85825.8
134467
69251.9
106544
130773
98312.4
84240.1
195130
192250
176731
171224
80225.5
109605
157299
57074.6
72918.9
107277
79820.6
89185.3
81365.5
97390
132830
209898
198107
173805
161985
107540
141346
197842
158528
207319
184682
273419
128973
190260
156143
111482
155496
130581
153690
46487.1
88711.6
155858
112191
76470
117820
149231
211284
147847
180723
127115
104414
93891
154639
145125
147032
216546
189646
198258
234344
212428
208947
203445
177460
300595
298737
236527
256773
202644
186701
190001
173150
133002
165595
177822
171814
186980
176066
281767
243611
216728
251050
136651
190444
280467
135937
221663
109131
283080
221200
113209
109606
123702
175318
179938
141596
110716
143027
105690
101154
94469.2
115621
107738
117494
135206
119294
117899
204408
387415
88940.3
82084.1
171321
137952
306334
124732
128835
256597
158693
298647
137424
128202
162605
232595
108895
245172
288438
134684
232972
418134
398174
81177.1
174751
161885
188824
146108
180997
202174
255931
221059
246677
236212
228350
215033
169808
183589
192476
186279
188224
154053
140876
283362
194709
199597
109096
142406
204329
191809
249775
248021
216148
348334
132577
109085
249194
133826
255917
24039.4
36040.1
233842
78854
223677
34452.5
84961.3
135491
136152
95564.5
348355
222738
296201
327426
223775
357059
80783.6
109505
155226
153868
66902
104529
125919
233585
57994.2
57805.5
80036.8
40240.9
132115
43491.9
60523.5
71264.1
103225
103502
128887
105750
114723
188102
156412
200798
207628
292501
90373
155083
96214.2
171917
186375
163458
170576
175166
155820
179680
197872
212336
184579
165141
151971
218976
189005
188866
123782
134169
145888
147350
186645
172541
203010
195001
186491
164988
177033
220306
200878
232835
244974
181152
157918
196539
186112
307903
256477
385359
102327
151116
198368
171651
214462
174817
202271
171671
179998
201584
373938
213363
303457
149455
175071
202617
240112
245773
329321
190872
171467
262589
205316
152728
162669
151568
135586
177495
154624
173906
169073
227026
284880
162214
159774
147963
164449
158909
130396
98349.2
133552
140626
219007
192074
210706
178722
162833
180698
194355
138038
166808
169702
118049
171480
120210
136119
131528
138665
136535
186963
188604
151819
137770
127489
76406.3
141349
170127
144257
208537
172212
217186
171934
157817
159066
163681
174578
160320
167122
111534
130033
166597
83188.5
104588
119980
170303
146284
91201.6
147914
93360.1
92233.6
152046
90793.5
156622
180870
159816
151186
116782
131050
156583
137038
124066
150048
151456
316348
136714
161839
145487
135633
146297
135643
134962
196502
163489
159871
161246
182776
126159
140832
98230.4
173266
182418
224724
236560
283209
298547
274714
158898
150604
174123
121903
119550
74498
114643
234846
135288
147829
113278
162434
174521
257515
310137
252943
175178
222540
156911
207889
209461
112986
143872
118407
128948
316680
112470
244628
134539
130575
153334
94201.9
617920
399852
200901
252200
152630
169814
359972
153910
185956
163472
113097
110996
121676
137163
100844
134786
171033
233635
137987
255080
235897
134955
140866
137336
133724
SCALARS SignedDistance double 1
LOOKUP_TABLE default
708.277
881.91
521.71
524.805
754.129
1007.87
793.42
1003.39
799.324
706.477
917.169
548.232
557.652
731.027
805.143
1059.69
699.812
703.123
706.631
672.481
629.071
648.381
808.008
822.715
781.681
782.175
757.884
657.874
1341.7
872.803
1021.54
1135.08
547.895
670.599
526.499
532.438
624.762
613.721
631.335
805.653
673.658
802.948
674.064
663.131
800.264
597.015
582.529
546.83
863.614
763.429
858.2
774.056
672.392
1006.93
920.906
778.671
831.156
922.832
919.797
765.506
811.704
681.971
717.914
943.017
867.674
495.615
573.386
892.773
535.151
698.014
622.372
709.281
675.15
726.076
737.076
622.304
617.897
855.946
1001.91
839.771
833.541
770.198
790.588
758.274
842.146
1027.78
651.267
732.066
748.904
1037.64
842.48
584.979
643.333
710.15
656.905
589.085
683.247
597.188
928.676
1080.05
971.042
873.67
772.023
1323.86
834.943
922.987
1080.65
945.084
857.827
874.322
1116.85
832.91
494.005
531.754
540.597
693.577
681.615
678.166
604.628
607.389
687.264
615.324
610.721
590.372
531.238
628.812
608.684
560.996
593.141
590.152
591.416
608.143
712.011
635.724
792.611
665.942
551.945
779.234
734.234
778.028
759.515
801.841
565.287
751.77
726.759
713.499
783.757
752.366
752.879
811.953
517.584
725.556
754.098
838.751
772.852
772.629
877.356
828.295
1311.05
794.893
805.359
853.85
710.072
765.56
729.687
606.717
657.583
599.013
786.011
725.602
724.653
563.084
546.259
534.303
654.575
576.165
656.732
543.355
554.039
559.902
886.248
859.153
891.211
763.565
808.298
836.604
814.048
815.602
749.757
617.859
681.834
699.426
714.092
823.899
867.989
769.186
670.265
717.103
722.674
1038.12
942.75
972.646
1027.96
1078.1
913.216
956.566
829.244
856.664
899.352
761.34
802.038
720.699
988.19
880.772
893.394
877.651
874.493
801.838
938.996
729.04
645.863
762.116
773.471
869.064
842.868
839.1
793.833
666.212
732.263
717.994
730.685
697.897
800.27
942.647
1087.82
821.569
871.766
681.997
718.135
875.039
664.335
635.544
624.434
925.108
647.711
643.324
587.902
643.26
570.396
558.392
528.699
904.415
749.156
619.23
687.501
848.151
645.679
586.38
763.101
679.835
756.2
612.215
651.504
676.632
654.809
628.804
622.168
441.013
543.042
475.776
659.991
630.79
636.943
640.084
582.974
902.204
777.186
636.812
729.297
674.009
709.781
681.618
597.432
579.26
547.658
581.583
646.774
593.329
637.38
697.886
646.542
566.129
1037.6
970.042
995.429
1120.84
854.886
895.235
836.335
877.208
869.41
820.958
832.176
832.543
863.947
881.1
738.909
754.306
733.463
804.348
780.749
795.397
781.724
773.605
789.216
843.921
814.316
823.065
896.815
1004.03
830.581
856.724
876.804
986.782
987.416
591.481
615.592
788.874
662.125
739.022
627.437
710.664
712.91
752.227
773.978
843.747
750.369
775.718
880.87
823.679
780.874
849.913
902.765
950.874
652.956
591.723
646.648
667.637
591.267
598.286
599.183
798.094
717.224
639.129
675.521
667.185
690.565
673.263
515.971
566.038
516.242
640.45
672.033
716.56
748.682
687.817
740.31
620.453
626.169
614.523
827.711
983.437
807.01
819.035
986.122
969.984
1155.68
984.031
881.592
937.182
874.892
1031.43
861.007
861.227
778.335
834.645
832.394
1125.33
839.429
817.462
906.379
844.17
1379.47
943.988
994.191
1120.49
1037.05
1220.17
772.83
823.308
924.954
936.318
958.953
889.149
883.621
991.203
931.684
1128.45
814.036
764.305
831.443
850.139
817.162
1134.88
937.977
965.97
853.185
889.106
1074.45
871.987
950.119
971.554
519.537
510.544
532.856
519.197
501.159
490.193
522.96
540.823
546.137
700.164
721.138
726.567
681.047
696.928
684.062
602.852
655.152
622.435
693.011
621.727
701.13
575.33
597.829
553.424
663.498
637.865
654.525
592.388
656.236
611.814
603.471
594.659
562.895
594.583
618.769
613.089
615.685
693.656
581.313
534.269
517.886
570.952
563.153
548.766
606.579
548.9
529.326
618.694
682.541
620.886
540.243
603.932
575.943
571.602
602.141
634.311
583.776
567.037
634.977
618.386
583.168
564.198
597.669
545.612
589.022
566.267
566.977
583.124
615.952
620.975
730.847
732.339
756.164
661.243
683.743
696.544
696.652
696.458
638.093
613.849
591.363
612.709
591.519
530.546
628.33
624.177
600.814
620.88
667.961
802.68
746.541
794.268
791.297
799.227
739.853
704.328
764.393
770.193
804.329
778.219
784.704
759.9
795.035
767.689
773.383
664.669
743.957
721.698
515.589
587
530.465
506.87
539.064
771.303
774.771
739.905
755.805
785.375
740.897
725.182
724.761
732.117
589.866
684.443
794.182
728.022
736.044
652.42
724.192
611.393
671.408
697.593
713.099
762.371
763.81
729.297
781.438
758.448
729.422
717.613
877.979
819.241
853.006
845.533
824.121
737.907
787.215
773.607
528.527
466.142
486.89
558.054
640.311
752.107
800.886
830.304
731.193
563.036
650.268
707.783
607.151
653.4
786.235
567.314
734.683
676.927
828.565
750.779
800.175
859.884
904.142
549.438
808.533
657.71
642.835
664.943
780.544
810.789
812.726
720.217
736.401
821.47
875.828
915.085
837.399
848.837
847.094
871.561
926.875
834.1
938.435
843.561
813.294
827.751
1154.27
1149.12
1232.76
1132.14
1428.12
861.173
947.874
917.726
740.082
743.618
748.609
781.139
813.602
801.128
831.382
817.496
782.53
762.885
1054.65
850.17
883.737
1090.48
889.683
803.878
826.97
830.436
