# vtk DataFile Version 4.2
vtk output
ASCII
DATASET POLYDATA
POINTS 642 double
-2949.57 7278.01 -168.752
1633.86 7088.37 -122.296
-3009.48 -578.414 -44.0943
1977 -582.837 -29.092
-553.934 958.222 3838.81
-697.034 5597.4 3462.92
-526.675 1110.83 -3653.58
-658.837 5830.59 -3902.4
3065.81 3353.55 -2198.62
3195.73 3324.21 2202.78
-4278.58 3549.01 -2383.23
-4492.8 3447.02 2394.14
-4288.99 5732.12 1385.1
-2834 4822.77 3586.84
-1958.97 6917.2 2136.37
657.701 6764.78 1856.82
-537.913 7903.97 -82.0155
780.791 7019.73 -2224.96
-2040.54 7306.35 -2459.78
-2886.67 4953.14 -3828.85
-4356.09 5833.06 -1558.44
-5090.22 3441.27 -7.01826
1578.04 4642.53 3312.62
2832.86 5423.89 1238.5
-2753.79 1962.05 3484.38
-519.031 3354.31 4191.45
-4168.38 1097.09 -1388.62
-4211.02 1081.85 1389.42
-663.928 3581.36 -4090.34
-2631.2 2111.88 -3358.57
2705.44 5465.88 -1276.58
1481.23 4792.44 -3285.19
3303.57 1041.57 1398.7
1694.33 1999.62 3509.79
929.237 -370.74 2284.23
-2020.14 -426.948 2321.91
-529.5 -1094.55 -49.1764
-1932.91 -281.908 -2298.11
882.115 -269.106 -2283.52
1598.62 2034.79 -3411.77
3213.81 1095.96 -1416.07
3898.3 3271.58 -9.35129
-3720.49 6596.43 688.89
-3233.43 6521.72 1870.67
-2494.21 7193.75 1105.38
-3790.52 4171.9 3132.91
-3723.52 5366.98 2644.43
-4547.84 4637.49 1972.5
-1327.24 6375.64 2942.76
-2481.15 6030.72 3015.01
-1757.94 5308.44 3705.08
-1223.93 7601.23 1022.57
-1751.79 7712.85 -117.943
33.3244 6190.38 2735.4
-599.886 7011.34 2076.44
619.209 7665.72 -102.411
130.182 7559.66 1005.67
1180.75 7099.26 930.585
-1358.92 7697.3 -1282.44
-2607.37 7530.2 -1340.14
1304.5 7225.11 -1186.95
175.481 7705.32 -1226.43
-1360.66 6704.71 -3346.19
-623.509 7242.98 -2441.07
75.705 6495.3 -3104.13
-3367.72 6762.54 -2111.31
-3778.24 6730.44 -888.327
-1778.59 5492.42 -4103.27
-2582.49 6274.88 -3348.04
-4520.98 4741.12 -2091.89
-3825.56 5494.5 -2866.91
-3732.58 4276.13 -3214.07
-4437.22 5859.04 -60.0754
-4822.54 3455.34 -1215.55
-4829.46 4673.2 -808.266
-4935.34 4657.52 725.152
-4971.34 3448.82 1239.5
1873.52 6160.05 1669.24
2234.11 6268.39 556.275
558.204 5124.79 3463.04
1221.64 5757.14 2742.24
3144.25 4465.05 1788.08
2357.2 5121.75 2387.15
2475.33 4048.59 2894.21
-1771.26 4147.08 4108.02
-624.534 4500.91 3914.84
-3759.81 2746.27 3096.28
-2947.42 3452.27 3758.48
-517.884 2153.24 4143.55
-1695.58 2742.93 4027.75
-1721.98 1368.25 3829.67
-4881.36 2230.15 702.178
-4465.94 2276.52 1926.49
-4337 2266.66 -1907.77
-4813.93 2244.52 -739.23
-3763.92 117.695 721.395
-4390.72 972.081 -47.048
-3761.78 123.675 -780.425
-2881.59 3552.06 -3808.27
-3509.56 2839.71 -2979.75
-661.773 4752.73 -4303.35
-1748.62 4299.24 -4335.88
-1627.02 1486.96 -3634.55
-1666.97 2868.39 -3938.39
-519.751 2210.09 -3999.83
1218.54 5987.05 -2943.47
437.768 5306.46 -3680.17
2281.98 6448.39 -773.646
1899.35 6411.24 -1841.4
2357.65 4020.65 -2830.32
2218.83 5219.37 -2448.74
3052.4 4431.58 -1791.05
2790.44 82.5974 719.352
2263.17 175.343 1923.68
1541.03 -631.294 1170.99
2578.12 2638.28 2957.67
2675.7 1427.3 2615.18
3453.12 2169.73 1912.76
196.902 191.845 3178.96
1425.35 692.076 3081.26
641.782 1422.99 3804.3
259.821 -988.375 1204.73
795.47 -1014.43 -29.6511
-1280.26 159.755 3224.35
-540.059 -573.089 2439.52
-1842.3 -1035.34 -25.6681
-1333.69 -985.492 1206.58
-2591.98 -668.293 1213.94
244.621 -938.293 -1245.22
1494.99 -550.521 -1207.73
-2567.31 -586.935 -1217.89
-1296.94 -945.758 -1252.95
193.596 318.778 -3086.15
-538.098 -437.107 -2402.32
-1263.42 290.763 -3127.76
2165.62 277.78 -1910.35
2747.97 123.71 -766.41
591.382 1521.01 -3657.75
1341.7 789.594 -3027.85
3340.14 2177.1 -1888.08
2529.68 1513.31 -2550.08
2437.17 2670.59 -2899.52
3490.77 919.335 -26.4827
3626.11 3295.03 -1151.59
3849.94 2170.63 -755.395
3914.37 2162.21 708.801
3739.88 3284.02 1134.29
617.438 2657.11 4073.34
1749.28 3363.95 3601.48
592.592 4034.67 3954.11
-3307.68 136.031 1971.24
-2528.32 638.689 3167.13
-3677.96 1390.33 2656.13
-2395.89 774.27 -3054.47
-3220.1 249.669 -1927.44
-3515.89 1520.42 -2526.06
1642.6 3357.73 -3469.75
546.774 2689.61 -3917.1
405.595 4189.34 -3857.12
3509.37 4464.67 658.774
3474.68 4456.1 -703.155
2969.09 5510.96 -25.6791
-3329.12 6918.68 264.725
-3141.89 6946.58 922.352
-2703.57 7213.06 489.913
-3801.23 6172.45 1651.89
-3509.68 6590.91 1303.47
-4039.63 6196.65 1052.01
-2252.73 7094.85 1639.29
-2889.77 6898.43 1507.23
-2609.63 6773.82 2029.05
-4181.85 3813.18 2797.83
-4223.73 4413.32 2596.42
-4563.89 4043.25 2210.04
-3312.74 5110.48 3164.28
-3790.01 4787.36 2924.63
-3336.21 4512.4 3397.86
-4457.86 5207.82 1694.83
-4175.51 5027.46 2337.26
-4053.74 5575.54 2044.73
-1023.35 6010.5 3239.55
-1551.63 5878.74 3365.16
-1230.5 5484.04 3614.73
-2234.65 6523.04 2607.86
-1908.51 6239.33 3012.51
-1646.16 6682.14 2571.2
-2298.16 5087.31 3687.24
-2133.22 5690.63 3399.88
-2682.55 5458.38 3350.13
-3518.74 5989.49 2289.87
-3129.59 5741.66 2877.63
-2887.38 6316.43 2485.03
-2105.07 7481.61 476.042
-2356.25 7492.34 -179.572
-1595.7 7230.1 1571.52
-1856.44 7397.99 1056.19
-1131.88 7866.06 -76.1647
-1470.85 7715.26 484.204
-897.687 7817.2 485.781
-351.602 5888.02 3099.98
-697.938 6347.06 2882.43
40.5617 6975.82 1982.06
-327.982 6647.15 2409.82
380.722 6487.95 2287.87
-989.91 6703.94 2549.13
-1265.3 6989.15 2156.21
1151.63 7414.07 -111.589
943.487 7426.5 445.453
1428.5 7126.9 416.096
-191.03 7793.94 480.044
376.809 7659.55 469.105
47.5829 7831.84 -93.5055
923.014 6985.19 1420.23
683.134 7363.86 992.65
409.406 7229.67 1463.57
-894.576 7369.32 1592.26
-214.818 7354.12 1558.98
-545.596 7653.81 1039.1
-2232.01 7663.91 -779.536
-2799 7436.23 -773.713
-893.982 7868.48 -657.693
-1582.85 7752.15 -703.285
-2343.14 7465.5 -1903.79
-2034.61 7716.88 -1362.45
-1758.56 7607.9 -1912.81
1503.62 7208.9 -651.069
995.138 7514.64 -656.707
497.608 7416.15 -1752.99
757.029 7508.82 -1223.22
1060.79 7162.66 -1725.14
411.237 7745.08 -667.094
-167.775 7870.18 -665.947
-1008.2 6292.59 -3666.25
-670.981 6631.05 -3291.13
-333.307 6178.81 -3527.46
-1373.05 7342.54 -2522.79
-1031.53 7035.7 -2942.9
-1708.88 7050.4 -2945.43
471.433 6798.76 -2677.52
-266.694 6902.97 -2806.68
135.163 7191.45 -2340.18
-526.499 7785.99 -1252.56
-172.86 7547.77 -1834.53
-987.346 7531.96 -1890.59
-3239.52 7187.63 -1128.97
-3381.76 7053.89 -528.64
-2727.99 7086.87 -2314.27
-3014.82 7194.07 -1735.8
-4111.71 6327.24 -1233.82
-3633.86 6808.73 -1509.55
-3913.99 6340.13 -1850.23
-1213.46 5696.9 -4048.23
-1580.67 6149.15 -3779.28
-2774.93 5625.73 -3647.62
-2190.78 5907.75 -3750.09
-2345.17 5234.4 -4010.1
-1973.27 6545.42 -3399.09
-2328.75 6840.65 -2947.62
-4422.53 4157.01 -2268.35
-4178.86 4527.16 -2688.07
-4049.35 3924.26 -2826.77
-4147.17 5690.21 -2237
-4241.38 5132.67 -2509.74
-4504.93 5290.32 -1855.02
-3336.21 4631 -3548.22
-3831.28 4909.1 -3090.3
-3400.61 5248.71 -3407.24
-3016.34 6567.82 -2778.69
-3248.46 5922.96 -3156.69
-3644.34 6170.92 -2532.36
-3754.65 6669.99 -114.361
-4412.68 5875.49 -840.903
-4133.4 6307.32 -492.302
-4114.38 6253.96 318.795
-4421.09 5822.53 690.504
-4533.08 3500.26 -1800.27
-4642.92 4141.02 -1664.77
-5008.32 4050.62 -378.3
-4859.85 4076.38 -1025.93
-4997.26 3436.39 -617.993
-4719.99 4740.83 -1480.74
-4652.45 5272.49 -1226.4
-4825.11 4045.6 1638.05
-4784.2 3447.46 1839.46
-4671.33 5219.11 1076.55
-4785.75 4666.23 1363.3
-5087.19 3448.97 605.448
-4980.96 4052.56 983.027
-5075.51 4055.19 362.469
-4704.91 5288.39 -442.938
-4964.89 4669.66 -13.15
-4746.69 5276.41 356.082
1722.77 6727.17 709.415
1931.98 6748.03 184.753
1263.78 6477.01 1789.96
1479.66 6607.18 1264.36
2587.28 5833.87 938.958
2091.2 6231.95 1141.23
2381.76 5826.87 1472.91
-48.5442 5344.1 3451.41
336.686 5678.34 3141.5
1418.28 5230.56 3059.09
914.116 5465.92 3126.25
1082.57 4897.79 3420.72
696.219 5980.42 2766.83
977.778 6234.36 2354.64
3200.57 3919.24 2017.91
2856.96 4268.07 2370.39
2855.22 3713.13 2586.38
2637.59 5294.79 1835.06
2778.95 4814.24 2111.93
3021.23 4963.37 1524.85
2047.31 4357.02 3135.83
2443.89 4605.98 2664.89
2002.68 4900.86 2881.92
1578.08 5992.72 2238.47
1813.38 5472.72 2600.88
2146.14 5677.88 2053.85
-1248.09 4944.42 3871.73
-668.694 5078.31 3679.91
-2295.69 4495.93 3900.96
-1775.46 4734.7 3947.01
-563.845 3944.69 4099.99
-1240.25 4360.31 4063.89
-1200.54 3781.97 4107.1
-4164.68 3088.93 2782.86
-3831.3 3448.95 3165.78
-2902.6 2775.12 3672.38
-3383.25 3096.63 3469.27
-3273.62 2371.37 3318.48
-3395.24 3811.71 3488.52
-2923.9 4141.72 3719.22
-558.031 1530.73 4012.52
-1098.15 1701.55 4033.01
-1128.03 1150.26 3895.7
-1112.49 3052.74 4165.36
-1065.67 2389.92 4108.3
-497.492 2766.74 4240.27
-2280.14 1593.47 3742.15
-1678.12 1968.51 3889.83
-2247.91 2331.38 3782.18
-2352.26 3807.36 4008.18
-2357.5 3119.27 3978.68
-1785.18 3464.7 4171.93
-4790.45 2861.46 1623.9
-4533.13 2867.76 2192.81
-5037.85 2835.02 349.052
-4946.98 2845.68 972.98
-4363.28 1648.24 1658.99
-4716.83 2235.34 1327.41
-4595.88 1661.05 1046.97
-4309.77 2869.62 -2131.42
-4613.69 2837.33 -1575.16
-4514.42 1661.55 -1081.97
-4613.5 2237.09 -1341.46
-4270.31 1684.45 -1655.62
-4852.1 2833.87 -975.43
-5003.51 2830.64 -382.171
-3421.98 -275.823 343.169
-3806.85 73.6616 -45.0224
-3421.55 -271.375 -421.284
-4341.73 1005.77 675.755
-4131.91 499.272 335.039
-4037.53 551.183 1077.51
-4016.99 582.745 -1109.64
-4133.79 505.67 -420.555
-4349.95 986.597 -746.669
-4925.28 2217.11 -20.8567
-4653.66 1596.22 -394.698
-4697.25 1598.86 340.526
-3677.82 3575.73 -3186.79
-3929.41 3199.82 -2686.2
-2905.14 4246.33 -3858.57
-3326.55 3901.74 -3563.58
-3106.37 2495.27 -3237.89
-3234.66 3227.01 -3480.45
-2799.19 2926.31 -3633.25
-647.674 5273.94 -4177.44
-1213.88 5123.62 -4310.89
-1238.99 4003.81 -4322.89
-1215.42 4544.69 -4370.74
-717.12 4255.58 -4278.12
-1785.1 4901.8 -4324.86
-2300.53 4627.77 -4141.42
-1091.17 1284.57 -3678.48
-1062.4 1852.28 -3885.22
-519.827 1656.82 -3883.26
-2158.29 2498.69 -3695.13
-1604.62 2100.85 -3825.87
-2128.54 1729.04 -3514.22
-532.466 2831.97 -4058.99
-1070.18 2465.65 -3998.67
-1173.05 3232.97 -4073.6
-2330.22 3917.52 -4124.07
-1777.34 3631.19 -4237.96
-2320.09 3260.44 -3983.64
267.854 5923.95 -3438.93
[...]
POINT_DATA 642
SCALARS Mean_Curvature double 1
LOOKUP_TABLE default
0.000651962
0.000601974
0.000515886
0.000557711
0.00081151
0.00070288
0.000527827
0.000715575
0.000482195
0.000285715
0.000550412
0.0006357
0.00050339
0.000519698
0.000474148
0.000148833
0.000575032
0.000516228
0.000643091
0.000634999
0.000596684
0.000469324
0.000433476
0.000471334
-0.000158722
0.000298606
0.000478293
0.000264383
-0.000202964
-4.71721e-05
-4.62371e-05
0.000495714
0.000517862
0.000337149
0.00050555
0.000592484
0.000187967
0.000503382
0.000530843
0.000441844
0.000511498
0.000488726
0.000496521
0.000501226
0.000405493
0.000496623
0.000476758
0.000465261
0.000527475
0.00051471
0.00059373
0.000523729
0.000361286
5.47212e-05
0.000295213
0.000493574
0.000545024
0.000578148
-1.88588e-05
0.000762013
0.000491844
0.000554131
0.000594081
0.000154493
0.000233413
0.000502572
0.000452573
0.000581665
0.000508622
0.000651474
0.000540462
0.000388779
0.000345097
0.00043076
0.000170058
0.000528152
0.000500931
0.000447874
1.69565e-05
0.000356982
0.000473096
0.000483531
0.000461948
0.000466107
0.000717155
-6.35608e-05
0.000524862
0.000503285
0.000328088
6.0412e-05
0.000546303
0.000502268
0.000245249
0.000484362
0.000451223
0.000350242
0.000265848
0.000552804
0.000579641
-0.000224392
0.000918796
0.000687569
0.000273745
-0.000111844
0.000429417
0.000484525
0.000214123
0.000769611
0.000518191
0.000402319
0.000381557
0.000454732
0.000511561
0.000475028
0.000422148
0.000277192
0.000582118
0.000530266
0.000320051
0.000417858
0.000513552
0.000536247
0.000471485
0.000452387
0.000558025
0.00048089
0.000280163
0.000510757
0.000535717
0.00032819
0.000489301
0.000538131
0.000364085
0.000468478
0.0006041
0.000367353
0.000506207
0.000341775
0.000469765
0.000738991
0.000400395
0.000332221
0.000513164
0.000238614
0.000632491
0.000629654
0.000386887
0.000366319
0.000470963
0.000506141
0.000521724
0.000493361
0.000614996
0.000503156
0.00047849
0.000170807
0.000413193
0.000352764
4.04045e-05
0.000464706
0.00050445
0.000416067
5.41304e-05
0.000513488
-1.63498e-07
0.000503229
0.000492186
0.000499371
0.000522016
0.000497818
0.000485574
0.000531144
0.000486693
0.000512127
0.00047409
0.000490429
0.000501845
0.000488329
0.000479584
0.00048241
0.000533202
0.000545086
0.000543395
0.000520604
0.000504558
0.000507931
0.000475807
0.000496959
0.000539825
0.000485215
0.000483483
0.0004959
0.000246535
-2.23466e-05
1.4674e-06
0.000193983
0.000568023
0.000543894
0.000586949
-0.000162015
0.000603475
0.00061292
0.000108091
-8.98912e-05
0.000486512
0.000392693
0.000493852
0.000529566
0.000564681
0.000568255
0.000519957
0.000493938
0.000564619
0.000564309
0.000584925
0.00052505
0.000568364
0.000588782
0.000657261
0.000487026
0.000431927
0.000128089
0.000528975
0.000959158
0.000778343
0.000642478
0.000619725
0.000535059
0.000508303
0.000516311
0.000585011
0.00060203
0.000585984
0.00052924
0.000268152
0.000667372
0.000624011
0.000681167
0.000498989
0.000156462
0.000511516
0.000546967
0.000535199
5.38746e-05
0.000636427
0.000439577
0.000479125
0.000516558
0.000614207
0.000691582
0.000499379
0.000483506
0.000635353
0.00049794
0.000370844
0.000476032
0.000604451
0.000490032
0.000479351
0.000442838
0.000500504
0.000465609
0.000751921
0.000671199
0.000362844
0.000627808
0.000674029
0.000516722
0.0005031
0.0005079
0.000297634
0.000339013
0.000360754
0.000302554
0.000539797
-8.05921e-05
0.000115265
0.000330785
0.000251741
0.000405567
0.000609616
0.000527131
0.000511171
0.000566085
0.000509415
0.000468859
0.000548904
0.00027435
0.000526543
0.000268547
0.000538292
0.000441091
0.000242289
0.000543414
0.000214738
-0.000162103
0.0004403
0.000354358
0.000477538
0.000183039
0.000377178
0.000464043
0.000436041
0.000412489
0.000429547
0.000414847
0.000437608
0.000475015
0.000445776
0.000460897
0.00047753
0.000475661
0.000449026
0.000468849
0.00044519
0.000463719
0.000471631
0.000475604
0.000552946
-7.76312e-05
0.000473243
0.000588193
0.000342118
0.000618704
-9.92085e-05
0.000562873
0.000549833
0.000443945
0.000524135
0.00021479
0.000485303
0.000440719
0.000380514
0.000620064
0.000723058
0.00024878
0.000163577
0.000712188
0.000931871
-0.000154637
-5.98456e-05
0.00051511
0.000556402
0.000861327
0.000514854
0.000573091
0.000413274
0.000259509
0.000289341
0.000374068
0.000397961
0.000299291
0.000355491
0.00031733
0.000464246
0.000334841
0.000354729
0.000478207
0.000473855
0.000454193
0.000545412
0.000162935
0.000574267
0.000572804
0.000600859
0.000592208
0.000556412
0.000542499
0.000321205
0.000469361
0.000599161
-1.27955e-05
0.000413127
0.00052869
0.000245145
0.000647843
0.000412003
0.000632836
0.000842984
0.000662023
0.000654778
0.000579532
0.00104445
0.000392549
0.000305261
0.000466625
0.000605724
-7.43238e-05
0.000449256
0.000106425
0.000211765
0.000362097
-8.35507e-05
0.000510421
0.000795624
0.000602915
0.000151144
0.000343485
0.000504122
0.000481092
0.000767018
0.000439204
0.000535823
0.000640372
0.000558701
0.000557894
0.000520205
0.000547679
0.00050316
0.000506755
0.000478498
0.000422252
0.000482916
0.000557087
0.000168076
0.000150817
0.00042396
0.000307127
1.97969e-05
0.000506166
0.000558275
0.000510026
0.000495746
0.000495243
0.000495159
0.000502007
0.000507224
0.000519977
0.000438453
0.000448007
0.00039559
0.000264055
0.000561257
0.000593915
0.000425361
0.000413002
0.000324396
0.000538384
0.000562254
0.00052684
0.000496931
0.000380445
0.000376953
0.000494791
0.000456671
0.000435736
0.00041674
0.000441447
0.000375915
0.00049395
0.000437996
0.000400375
0.000567089
0.000549141
0.000498475
0.000444102
0.000204709
0.000339565
0.000163333
0.000528228
0.000578046
0.000388383
0.000536817
0.000237158
0.000480523
0.000373411
0.000468354
0.000345796
0.000368269
0.000106557
0.000731208
0.000158124
0.000536494
0.000628935
0.000476371
0.000344689
0.000511846
0.000432777
0.000392587
0.000533372
0.000373832
0.000432873
0.000480059
0.000456739
0.000542178
0.000578782
0.000589343
0.000522149
0.00034703
0.000389779
0.000371095
0.000346776
0.000389545
0.000499849
0.000320155
0.000467723
0.000381843
0.000542416
0.000519383
0.00042117
0.000567636
0.000433521
0.000444913
0.000346692
0.000514876
0.000489724
0.00043182
0.000358497
0.00052254
0.000523706
0.000505192
0.000416957
0.000370017
0.000540433
0.000479971
0.000475267
0.000531342
0.000519822
0.000186513
0.000294224
0.00036488
0.000510382
0.000645972
0.000527021
0.000340173
0.000373073
0.000529271
0.000405787
0.000407776
0.000378741
0.000501694
0.000494587
0.000498031
0.000522233
0.00050299
0.000284657
0.00049173
0.000678352
0.000613713
0.000299928
0.000712919
0.00049247
0.000690312
0.000277289
0.00046697
0.000540777
0.000539126
0.000678428
0.000720559
0.000435447
0.000671934
0.000498017
0.000265454
0.000459697
0.0004472
0.000595121
0.000420025
0.000433271
0.000433307
0.000458559
0.000451972
0.000476851
0.000340931
0.000489235
0.000462363
0.000389621
0.000447816
0.000488872
0.000493625
0.00052213
0.00048432
0.00052652
0.000527743
0.00052668
0.000564107
0.000337539
0.00079903
0.000551816
0.000469268
0.000558064
0.000405947
0.000497919
0.000141507
3.33917e-05
0.000411281
0.000508396
0.000602639
0.000552483
0.000656048
0.00049192
0.000520454
0.000711868
0.000719964
0.000559343
0.000592013
0.000552835
0.000496049
0.000377285
0.00045595
0.000144053
0.000460526
0.000437281
0.00022582
0.000402407
0.000576336
0.000589093
0.000468117
0.000432518
0.000476146
0.000421107
0.000302568
0.000523049
0.000472539
0.000429972
0.000435346
0.000380919
0.00101536
-0.000466714
0.000313506
0.000544676
-0.000168536
0.000424955
0.000445256
0.000363358
0.000368506
0.000234743
0.000306641
0.00049643
0.000462154
0.000469984
0.000453078
0.000486705
0.000410208
0.000302673
0.000337741
0.000472279
0.000283833
-0.000188769
0.000384663
0.000516898
0.000473588
0.000478132
SCALARS CoVolArea double 1
LOOKUP_TABLE default
342080
265606
337527
333468
308647
287063
295346
300960
296135
313055
329752
317758
416070
400699
390402
376341
378711
374996
419119
421490
428627
412995
357857
345224
446324
394959
404822
438905
436758
442694
398430
360855
430961
411454
434632
437949
469354
409254
401367
363026
411711
381516
406501
419965
398121
392000
434625
402537
333970
407546
343133
406096
405992
402951
386879
352201
368724
336219
473733
379100
349019
398481
382919
460612
402305
468923
407337
394313
468251
382553
454687
388300
465245
417457
465242
439851
400504
386596
379883
351087
355597
348379
366018
349375
376460
397078
403931
413879
377770
475729
374772
441496
423806
381723
433162
412865
453040
393423
385502
421596
298589
372497
354981
462910
339702
374586
366526
324892
365681
350947
384345
336333
414805
456876
416479
388573
428420
376389
410033
445077
388591
456418
406841
413103
454730
406851
460791
414860
437945
409995
400110
442135
376520
430847
361709
438754
404371
356184
403788
347677
408897
361931
452834
373235
409330
424387
369491
400765
389101
369598
452139
440017
437600
389716
424587
428959
372238
373625
473548
391194
376562
389477
418505
403636
426046
425586
386395
388873
376400
375186
401612
384877
402964
389674
422434
398505
382628
394576
403484
432566
326204
342987
328454
394784
356719
346058
359027
363348
410038
479336
473151
464951
422808
413563
429643
402609
376424
383595
381778
371725
359037
380607
382863
389440
347667
404498
333025
339485
323326
382031
350895
352079
337871
326736
350596
446260
407982
422368
389019
379504
437114
414158
389600
387738
435756
327024
351472
394505
360318
350330
359202
395217
370124
392781
382318
434870
394793
384066
372931
410694
422979
494009
486005
525882
399840
399719
465860
418125
401561
410981
455874
374098
402470
454991
423531
398719
413211
458786
390469
388397
378354
453707
395476
384933
391002
398621
440084
526415
519220
525171
425541
455993
422859
418855
439377
423164
417820
448082
422624
395829
399091
443157
406005
383511
433780
408630
394073
408425
431374
521650
504026
500876
370626
329487
403724
385583
341983
374682
357833
376976
375986
359875
332280
331188
361683
386659
363676
351375
363538
360065
339157
329487
338001
341909
366058
410559
402602
400757
357382
373780
399524
343657
380524
362233
409515
378259
387942
448891
390109
420496
387826
418567
365438
378052
364854
434673
420249
363653
386442
432365
483479
441307
475295
447362
404945
384121
430759
411248
421191
419250
453969
402140
406826
433945
391688
386994
393180
422844
410524
409850
396967
461055
412726
404821
374888
397712
428655
482366
496378
501320
393897
403682
426975
376553
409420
372395
420207
339526
356476
380505
319982
342014
366115
420333
352099
349693
334939
473526
406472
388197
393504
400317
449742
436452
439432
454308
407801
367206
380129
375773
348142
364266
351068
309494
330668
374352
324189
344868
347908
379333
331098
348527
336020
361022
369446
353855
355986
366674
407114
415804
414119
405623
406840
420145
403259
447544
418338
407764
410333
421866
453277
377514
381403
365666
428269
387546
384538
392653
386045
435624
388968
406895
385940
445797
409707
406021
380353
399283
434543
498305
492240
505477
410312
394867
450930
415608
424801
420495
479770
385625
405088
456217
414842
416682
411963
453003
403372
416086
416000
478969
414720
422753
404178
410238
450525
509303
511434
519265
411412
399061
452528
411923
392120
405190
424923
391504
405770
429109
409191
397181
415498
456125
366210
379111
360152
421888
386738
368420
367657
381707
417275
492935
484560
488922
408859
400971
429103
408344
392202
402068
426203
350825
373246
384315
359371
340354
368035
408546
362948
366467
356984
413038
360512
361791
348255
364150
389575
477690
461680
478670
417333
441237
412474
416829
449793
364602
362176
388655
359441
363737
356958
424662
370485
370275
442592
388802
356141
365466
389064
493052
467644
498116
393159
408384
381851
370845
384337
376445
377560
355642
375853
405405
386244
384733
365441
344188
370875
440547
425009
430160
422702
449692
416879
413128
439477
408028
416040
386561
418623
450164
425156
442332
439740
437079
440203
503171
479097
488950
355942
417268
358360
343988
396370
398653
412313
390054
400371
432314
403790
436404
411780
388327
424284
466528
467180
452440
343277
373194
343312
345123
403446
342932
423470
344207
347651
376378
315092
448841
369662
347854
463805
414419
467722
471801
376012
409388
377290
355326
364661
356652
377352
337783
366247
405211
362265
365216
379553
381968
400924
433482
413216
410195
SCALARS SignedDistance double 1
LOOKUP_TABLE default
2274.54
2782.95
1823.46
1825.75
2190.32
3012.72
2561.47
2538.94
2715.94
2449.76
2561.09
1927.93
1955.72
2246.11
2543.26
3032.88
2275.35
2402.83
1876.72
2098.07
1884.97
2137.49
2752.16
2803.36
2387.35
2635.15
2296.16
2076.37
3085.03
2769.27
2944.72
3169.63
1832.79
2298.3
1866.4
1784.27
2120.23
2102.6
2141.61
2705.63
2125.59
2521.61
2163.11
2189.8
2468.36
2007.58
2021.23
1908.01
2762.75
2378.17
2647.17
2500.09
2282.02
3043.55
2890.05
2499.98
2661.96
2912.11
2223.72
2038.2
2478.22
2223.26
2127.47
2254.64
2486.53
1649.47
1977.5
2124.02
1711.27
2189.95
1813.4
2253.66
2068.83
2338.36
2216.03
1984.43
2018.96
2924.9
2985.42
2885.99
2899.76
2629.12
2753.99
2601.24
2632.18
2891.74
2157.86
2235.51
2400.67
2592.7
2383.63
2032.19
2078.59
2375.16
2198.18
1890.22
2100.59
1929.53
2600.98
2694.74
2888.57
2611.79
2673.9
2918.09
2819.81
2714.91
2908.66
2875.09
2697.85
2928.14
3061.86
2843.08
1735.83
1853.51
1841.92
2380.55
2128.69
2166.01
1995.3
2077.84
2239.2
2006.88
2035.2
1910.9
1843.54
2022.54
2004.4
1787.09
2038.94
2006.88
1973.5
2010.06
2390.16
2158.55
2367.92
2179.36
1893.87
2641.56
2418.55
2520.02
2488.05
2715.91
1837.87
2585.14
2259.71
2079.54
2458.71
2447.82
2537.56
2724.33
1775.65
1959.67
2222.08
2473.11
2182.57
2517.75
2923.42
2828.06
3174.02
2656.1
2728.81
2879.69
2268.2
2298.64
2405.51
2051.24
2155.85
2035.16
2490.64
2315.11
2358.56
1943.31
1928.86
1897.08
2106.76
1998.45
2101.03
1918.75
1943.34
1972.67
2881.58
2707.17
2835.24
2461.79
2568.93
2644.65
2430.3
2495.17
2305.3
2086.29
2169.02
2259.13
2398.33
2349.22
2614.4
2504.8
2236.76
2370.29
2355.03
3034.6
2976.06
2974.83
3028.67
3035.44
2867.65
2767.24
2639.14
2712.02
2849.1
2454.77
2570.49
2373.34
2986.89
2791.2
2870.27
2689.93
2772.49
2550.47
2338.57
2164.73
2173.73
2228.73
1886.39
2232.64
2116.83
2628.76
2486.2
2290.59
2338.8
2419.08
2345.89
2243.46
2315.34
2430.76
2589.04
2155.68
2274.53
1980.33
2424.12
2345.62
2290.64
2128.12
2182.52
2214.36
1974.36
2107.1
1682.54
1771.59
1902.38
1808.59
1715.12
2318.68
2083.11
1840.5
1866.48
2035.65
1871.68
1718.62
2362.71
2202.53
2394.04
1781.92
1999.9
1992.46
2148.05
2065.73
1942.01
1617.76
1698.41
1648.59
2163.15
2026.81
2070.69
2089.45
1989.32
2479.21
2392.42
2149.33
2277.47
2215.64
2259.41
2115.64
1927.16
1931.94
1919.71
1924.16
2042.28
1987.87
2039.27
2102.81
2055.78
1970.52
3000.66
2956.07
2996.3
2999.34
2882.88
2945.63
2866.62
2971.04
2955.96
2831.79
2892.19
2823.79
2955.91
2970.53
2535.92
2606.63
2523.39
2771.2
2693.21
2717.77
2677.2
2680.81
2748.11
2907.15
2829.76
2841.83
2837.83
2990.35
2420.28
2641.7
2767.68
2836.5
2778.71
2024.01
2045.04
2342.34
2190.35
2298.02
2106.93
2215.64
2374.16
2469.95
2260.66
2610.38
2474.98
2557.93
2471.99
2491.06
2474.38
2363.97
2443.96
2650.18
2039.03
2017.58
2092.03
2062.31
2060.49
2051.11
2046.4
2486.88
2373.74
2211.24
2277.43
2303.43
2286.22
2196.09
1819.33
1884.53
1830.93
2058.37
1979.94
1999.64
2093.24
1993.72
2176.22
2092.14
2132.62
2058.88
2519.46
2625.75
2322.22
2413.43
2774.69
2688.71
2845.68
2688.66
2530.44
2877.12
2731.18
2984.22
2404.66
2296.53
2609.03
2719.89
2695.12
2864.32
2780.88
2739.04
2889.62
2832.23
2992.62
2554.17
2825.88
2801.97
2678.87
2795.1
2546.21
2588.5
3020.68
2785.93
2921.97
2829.94
2666.2
2860.73
2756.14
2930.65
2575.58
2540.3
2825.51
2884.63
2783.17
3122.53
3016.16
3060.1
2898.9
2957.14
2993.8
2688.73
2852.01
2875.35
1771.45
1772.72
1809.82
1814.32
1769.81
1750.57
1842.69
1828.77
1878.86
2415.92
2322.56
2366.02
2267.31
2292.25
2339.04
1991.01
2145.17
1958.84
2077.49
2101.38
2207.55
1950.8
2027.59
1927.64
2265.65
2149.47
2201.77
1950.89
2112.22
1979.05
1920.78
1902.22
1874.08
1904.84
2096.6
2043.95
2087.03
2008.34
1922.02
1829.77
1829.39
1871.52
1909.92
1887.43
1894.73
1859.51
1819.53
2090.84
1997.54
2102.52
1742.09
1914.47
1864.77
1917.67
1885.28
2043.68
1979.15
1924.1
2094.64
2032.77
2054.26
1989.39
2045.72
1860.98
1959.8
2010.81
1976.71
2033.26
2035.32
2094.91
2474.45
2373.95
2488.34
2191.13
2277.71
2267.32
2210.4
2253.95
2130.77
2045.36
2064.27
2096.61
1964.37
1841.89
2152.74
2081.34
1988.24
2043.81
2151.34
2597.98
2523.41
2564.36
2550.53
2689.46
2411.96
2280.63
2617.11
2634.15
2716.73
2330.09
2512.3
2299.11
2710.42
2623.98
2607.78
2289.47
2436.66
2321.63
1782.72
1948.41
1840.34
1754.52
1789.3
2642.53
2564.14
2392.49
2471.35
2544.29
2383.91
2146.51
2322.14
2447.89
1927.18
2094.24
2488.54
2301.06
2320.12
1998.35
2133.96
1882.22
2322.98
2372.81
2350.17
2419.3
2551.29
2490.92
2654.43
2575.23
2456.09
2415.06
2909.75
2688.78
2806.57
2821.78
2751.33
2482.98
2628.78
2581.35
1820.82
1721.42
1734.16
1823.74
1913.58
2101.27
2234.68
2179.21
1986.02
1813.27
2113.33
2124.84
2107.96
2197.78
2327.4
1815.69
2039.86
1935.12
2551.96
2258.21
2388.86
2627.85
2730.59
1910.52
2212.83
2038.37
2048.4
2143
2523.73
2663.78
2587
2433.75
2396.01
2331.96
2408.99
2596.38
2829.06
2813.37
2828.19
2932.93
3039.57
2719.74
2911.81
2822.15
2744.6
2783.82
2990.06
3150.41
3117.44
3098.43
3140.69
2887.71
2960.27
3015.5
2527.14
2554.37
2539.44
2638.23
2734.13
2716.34
2839.67
2784.79
2649.8
2595.09
2987.67
2852.3
2941.55
2955.94
2913.84
2685.64
2803.37
2779.48
