# vtk DataFile Version 4.2
vtk output
ASCII
DATASET POLYDATA
POINTS 642 double
-2841.37 7063.6 -215.479
1447.87 6861.33 -156.622
-2905.31 -404.882 -42.5715
1877.44 -407.528 -20.9053
-565.958 1050.21 3631.46
-764.901 5432.1 3194.7
-526.231 1231.6 -3400.43
-722.138 5703.57 -3691.1
2825.22 3326.56 -2025.21
2974.19 3285.48 2050.87
-4054.65 3594.72 -2244.36
-4313.88 3454.31 2279.11
-4119.32 5616.27 1318.29
-2736.43 4746.58 3383.98
-1913.06 6684.01 2003.73
535.652 6529.48 1653.02
-544.794 7657.66 -97.2894
677.833 6823.82 -2086.34
-1998.45 7145.23 -2367.79
-2778.61 4919.18 -3639.72
-4183.33 5741.67 -1515.1
-4856.48 3445.69 11.0157
1440.33 4521.68 3071.05
2596.96 5244.92 1150.89
-2630.94 2002.37 3259.55
-514.567 3321.61 3904.14
-3959.13 1192.61 -1284.49
-4010.91 1177.64 1323.18
-708.57 3627.42 -3767.67
-2496.44 2190.88 -3096.38
2441.14 5316.3 -1169.21
1309.51 4737.27 -2993.13
3139.26 1132.27 1329.3
1568.57 2053.37 3295.66
866.948 -206.628 2175.3
-1969.79 -270.274 2219.27
-530.273 -858.7 -50.1746
-1860.81 -105.445 -2169.88
811.237 -90.6058 -2150.79
1458.44 2086.85 -3155.32
3034.49 1196.36 -1321.14
3629.58 3206.35 7.4322
-3573.86 6417.85 654.623
-3113.59 6344.7 1767.51
-2404.43 6953.07 1040.56
-3646.33 4136.24 2969.77
-3582.08 5264.07 2507.37
-4365.93 4580.15 1879.91
-1333.24 6169.47 2736.25
-2401.96 5870.98 2835.92
-1733.63 5182.62 3461.15
-1176.36 7356.59 920.843
-1680.8 7474.22 -144.231
-42.1426 5966.36 2505.49
-634.401 6771.79 1884.54
522.543 7418.25 -127.047
61.9988 7308.07 897.917
1007.7 6870.1 809.208
-1355.34 7469.21 -1241.23
-2526.36 7344.98 -1315.83
1162.22 7008.46 -1120.74
121.271 7476.7 -1163.81
-1365.53 6555.46 -3190.19
-658.971 7042.33 -2323.94
-1.95096 6329.51 -2910.14
-3259.99 6637.12 -2037.67
-3626.61 6578.54 -890.757
-1740.51 5410.14 -3921.76
-2508.77 6171.11 -3212.13
-4310.71 4729.31 -2001.81
-3692.26 5427.71 -2753.76
-3563.38 4283.13 -3046.15
-4247.93 5742.2 -63.0233
-4586.83 3463.44 -1125.03
-4598.53 4630.64 -772.167
-4727.31 4604.3 696.433
-4755.47 3455.97 1188.35
1698.73 5922.63 1538.38
2006.02 6048.89 493.115
488.224 4963.71 3196.43
1100.86 5552.26 2527.67
2903.95 4363.39 1664.3
2162.84 4967.76 2211.65
2283.8 3976.12 2694.74
-1748.35 4102.25 3839.78
-659.893 4389.17 3627.7
-3611.17 2803.38 2925.65
-2839.47 3462.06 3542.21
-510.564 2198.14 3885.65
-1642.21 2795.72 3766.94
-1666.25 1426.19 3599.4
-4666.33 2289.85 666.918
-4271.32 2347.7 1824.91
-4121.24 2325.2 -1775.65
-4586.73 2304.74 -681.541
-3612.19 255.248 693.444
-4181.79 1074.43 -46.2208
-3610.65 262.078 -737.664
-2754.09 3606.6 -3579.41
-3313.05 2914.21 -2780.2
-730.858 4740.72 -4020.47
-1705.73 4318.95 -4081.18
-1550.3 1567.53 -3361.07
-1616.84 2948.54 -3654.01
-517.482 2255.92 -3692.52
1073.48 5844.93 -2736
316.639 5211.59 -3428.33
2034.53 6270.47 -750.674
1700.79 6239.22 -1717.21
2149.78 3946.45 -2598.67
1971.76 5105.26 -2262.51
2800.46 4324.35 -1642.09
2657.85 219.075 688.613
2149.73 311.95 1823.78
1460.27 -452.946 1115.24
2400.99 2647.42 2762.73
2528.7 1501.52 2459.82
3258.44 2198.96 1795.73
152.68 331.877 3015.36
1328.18 808.135 2911.24
577.989 1504.26 3582.46
235.396 -775.927 1161.36
757.119 -794.352 -23.0865
-1246.86 296.099 3070.88
-546.601 -398.669 2335.17
-1803.25 -819.991 -16.5408
-1319 -771.72 1162.7
-2508.41 -496.343 1173.05
216.273 -723.782 -1182.95
1405.15 -360.687 -1134.59
-2482.67 -401.744 -1145.05
-1269.59 -733.071 -1193.88
155.774 475.295 -2879.97
-543.997 -244.692 -2265.11
-1233.08 443.83 -2929.33
2033.61 429.353 -1782.16
2607.72 266.966 -716.765
520.517 1615.9 -3392.82
1231.33 918.88 -2827.63
3122.37 2197.91 -1733.42
2358.96 1600.08 -2362.4
2239 2686.67 -2676.78
3314.73 1016.88 -16.9672
3362.95 3246.15 -1050.1
3626.06 2204.02 -696.748
3705.83 2197.29 671.21
3488.45 3224.5 1053.28
547.915 2673.47 3813.5
1607.91 3335.46 3363.99
522.169 3951.46 3677.74
-3186.06 263.142 1887.1
-2443.37 748.615 3014.57
-3501.21 1459.19 2505.3
-2284.16 898.502 -2860.26
-3086.72 394.398 -1803.09
-3334.05 1606.63 -2341.94
1488.39 3327.57 -3190.25
465.154 2711.51 -3615.99
280.921 4160.42 -3558.93
3240.72 4359.92 618.809
3201.87 4349.47 -643.165
2715.38 5320.21 -17.2624
-3196.75 6711.78 226.365
-3025.14 6733.26 876.86
-2595.68 6975.32 443.111
-3654.12 6026.19 1566.19
-3375.25 6411.25 1236.3
-3879.89 6049.05 1002.62
-2187.47 6854.39 1537.61
-2786.38 6686.74 1423.69
-2523.27 6567.43 1908.96
-4019.55 3798.08 2658.33
-4059.42 4364.59 2468.93
-4382.46 4015.34 2106.79
-3190.5 5018.37 2993.89
-3645.13 4717.65 2774.41
-3212.76 4457.07 3213.47
-4280.39 5122.34 1613.8
-4012.41 4948.08 2221.61
-3896.74 5464.86 1942.01
-1068.9 5823.84 3000.03
-1542.3 5710.01 3136.14
-1260.02 5340.46 3352.62
-2169.95 6324.81 2448.43
-1869.06 6054.12 2817.21
-1622.96 6461.08 2401.03
-2231.9 4985.99 3463.11
-2079.53 5546.78 3188.5
-2592.28 5340.12 3157.73
-3385.79 5850.25 2168.01
-3015.21 5611.63 2719.95
-2785.49 6146.96 2344.19
-2011.45 7241.18 423.187
-2263.85 7251.97 -228.604
-1548.11 6976.92 1449.58
-1785.72 7150.56 966.303
-1094.38 7624.05 -89.4398
-1404.23 7473.4 426.717
-879.293 7569.71 427.712
-431.625 5682.45 2842.89
-767.197 6135.76 2655.74
-40.8794 6748.83 1774.98
-405.196 6415.66 2188.9
292 6254.18 2068.76
-1020.34 6469.86 2357.89
-1253.4 6742.37 2001.01
1010.33 7173.6 -140.826
811.162 7180.74 376.771
1247.51 6895.87 337.689
-228.046 7541.72 420.164
291.965 7407.75 406.108
-5.82507 7582.84 -113.988
771.285 6756.07 1257.23
563.732 7118.06 879.331
306.532 6991.13 1301.88
-880.016 7124.36 1447.59
-258.999 7109.39 1402.47
-556.01 7403.64 935.088
-2164.43 7430.49 -802.8
-2700.97 7230.61 -795.238
-874.207 7629.31 -632.993
-1551.02 7515.16 -695.001
-2282.93 7299.03 -1840.51
-2002 7501.52 -1336.29
-1749.6 7407.72 -1848.81
1340.32 6984.98 -633.098
875.932 7280.09 -637.195
418.691 7201.59 -1651.75
657.344 7283.82 -1158.8
937.106 6954.76 -1622.43
336.106 7505.65 -647.107
-196.065 7629.65 -643.931
-1042.01 6153.36 -3480.05
-731.598 6462.02 -3114.37
-421.046 6025.38 -3317.59
-1385.69 7147.89 -2421.05
-1066.07 6853.08 -2804.62
-1688.13 6893.7 -2821.87
390.241 6617.63 -2505.11
-324.596 6715.36 -2648.96
79.1254 6991.63 -2200.65
-529.618 7557.44 -1191.83
-203.169 7331.9 -1733.93
-1000.22 7315.73 -1811.22
-3121.56 7016.93 -1118.59
-3246.82 6873.01 -552.652
-2648.85 6944.84 -2230.83
-2921.21 7044.21 -1683.02
-3947.85 6207.18 -1212.08
-3505.54 6672.08 -1471.62
-3775.1 6232.36 -1788.75
-1223.31 5591.44 -3845.3
-1561.33 6035.03 -3605.16
-2688.5 5548.76 -3489.04
-2130.58 5812.96 -3584.37
-2269.68 5177.02 -3831.48
-1931.27 6423.98 -3256.06
-2267.57 6710.09 -2835.33
-4198.81 4176.78 -2158.04
-3986.98 4526.9 -2553.63
-3849.77 3957.37 -2675.54
-3995.99 5608.36 -2155.43
-4071.79 5089.68 -2403.77
-4320.04 5232.63 -1791.51
-3195.88 4620.77 -3366.8
-3672.94 4884.56 -2942.19
-3279.96 5198.53 -3256.47
-2925.73 6452.47 -2675.57
-3145.23 5835.26 -3031.97
-3522.89 6072.58 -2439.91
-3598.82 6496.39 -139.23
-4219.79 5771.02 -831.36
-3958.43 6168.69 -499.807
-3944.53 6103.89 299.676
-4241.11 5702.07 662.262
-4295.11 3521.74 -1687.26
-4399.19 4153.32 -1574.64
-4775.79 4027.33 -339.614
-4624.07 4062.06 -962.53
-4761.59 3439.11 -564.151
-4488.2 4718.84 -1423.25
-4440.14 5205.67 -1197.36
-4625.65 4018.74 1569.04
-4587.17 3454.84 1757.98
-4481.5 5133.95 1030.17
-4588.46 4612.26 1302.77
-4865.69 3456.08 582.919
-4765.67 4027.63 940.66
-4854.45 4031.56 356.378
-4495.04 5206.95 -427.144
-4749.31 4616.01 1.71347
-4546.99 5187.67 347.18
1514.03 6501.33 599.728
1707.46 6535.95 119.037
1112.36 6234.87 1632.49
1292.37 6367.75 1129.78
2360.82 5620.61 874.089
1891.76 5995.56 1047.33
2172.68 5617.23 1362.46
-101.014 5172.02 3180.15
276.242 5478.44 2891.31
1287.25 5067.87 2826.76
820.492 5283.13 2881.06
979.074 4754.77 3163.82
614.63 5756.22 2543.67
868.489 5994.89 2160.37
2966.21 3855.39 1880.69
2638.98 4180.59 2206.01
2643.87 3665.35 2413.05
2420.25 5126.46 1701.51
2558.73 4685.41 1960.88
2780.89 4821.42 1417.58
1880.7 4259.44 2913.23
2248.87 4492.44 2474.55
1835.59 4763 2669.78
1428.31 5769.13 2063.65
1652.45 5292.13 2403.42
1958.38 5480.7 1898.48
-1281.25 4831.05 3595.53
-723.056 4943.5 3381.26
-2224.57 4433.07 3668.35
-1749.42 4645.24 3689.47
-572.367 3878.77 3809.04
-1261.46 4293.75 3776.18
-1207.59 3753.74 3803.15
-3999.4 3121.54 2640.3
-3684.72 3457.17 2997.74
-2795.8 2833.43 3451.67
-3254.47 3131.33 3272.97
-3138.83 2438.2 3117.4
-3268.21 3797.38 3296.16
-2819.36 4105.76 3506.4
-566.861 1592.67 3759.94
-1056.63 1742.12 3766.99
-1098.04 1229.63 3678.31
-1085.37 3059.55 3885.65
-1016.77 2421.83 3841.63
-487.029 2775.25 3962.57
-2191.45 1628.78 3510.23
-1612.18 1994.7 3626.67
-2164.05 2380.04 3528.53
-2275.11 3789.87 3776.55
-2281.17 3161.48 3741.22
-1756.32 3472.38 3903.09
-4585.4 2905.52 1551.29
-4346.42 2915.16 2086.2
-4810.27 2868.82 338.881
-4729.01 2883.61 928.867
-4167.63 1727.06 1571
-4510.08 2299.85 1257.56
-4393.08 1748.2 992.314
-4087.14 2904.7 -1987.45
-4381.52 2865.07 -1462.14
-4296.59 1741.69 -1006.8
-4388.88 2294.97 -1246.92
-4061.66 1767.54 -1538.61
-4615.74 2864.41 -897.889
-4769.22 2861.59 -344.567
-3293.84 -120.595 329.315
-3653.71 213.134 -43.874
-3293.84 -115.308 -400.724
-4139.41 1106.94 642.399
-3951.26 614.337 319.083
-3859.26 662.045 1032.51
-3839.42 697.474 -1040.01
-3954.03 622.374 -400.368
-4142.06 1083.47 -700.44
-4703.58 2277.99 -8.84578
-4436.18 1682.42 -363.513
-4488.75 1689.69 326.935
-3489.19 3634.8 -3011.58
-3717.49 3267.01 -2502.97
-2784.86 4251.59 -3649.54
-3173.76 3925.89 -3367.66
-2944.73 2583.76 -3014.24
-3068.52 3309.01 -3273.64
-2671.63 3031.73 -3387.12
-706.565 5190.04 -3948.23
-1224.2 5062.9 -4082.28
-1266.31 4064.15 -4031.41
-1232.13 4551.48 -4095.46
-791.236 4304.43 -3980.45
-1739.05 4868.11 -4105.95
-2209.24 4616.83 -3925.66
-1053.23 1387.67 -3413.41
-1017.71 1925.43 -3600.64
-517.254 1741.91 -3605.85
-2057.71 2588.68 -3421.25
-1519.71 2165.66 -3541.47
-2016.2 1790.33 -3240.89
-533.361 2854.8 -3743.17
-1033.02 2508.6 -3691.46
-1177.44 3298.81 -3768.91
-2238.29 3948.65 -3884.02
-1744.85 3707.78 -3961.44
-2234.44 3353.57 -3724.09
169.415 5785.65 -3212.72
[...]
POINT_DATA 642
SCALARS Mean_Curvature double 1
LOOKUP_TABLE default
0.000699354
0.000660285
0.000551993
0.000609159
0.000982662
0.000774468
0.000576679
0.000780084
0.000531614
0.00028382
0.000587413
0.000717079
0.000554731
0.0005884
0.000510831
3.25545e-05
0.00065929
0.000570873
0.000764277
0.000655275
0.000677978
0.000476303
0.000458495
0.000509472
-0.00022453
0.000289752
0.000407307
0.000200909
-0.000290671
-0.000113736
-8.74961e-05
0.000402993
0.000578884
0.000350077
0.000556588
0.00067324
0.000163047
0.000557662
0.000594728
0.000450624
0.000558378
0.000446264
0.000543455
0.000550683
0.000408651
0.000544376
0.00051654
0.000500997
0.000593894
0.000560857
0.000677332
0.00056552
0.000409431
6.95897e-05
0.000285243
0.000537275
0.000611749
0.000602392
-3.50817e-05
0.000901908
0.000547083
0.000628435
0.000667205
0.000193576
0.000255949
0.000555298
0.000458653
0.000746495
0.000562366
0.00069778
0.0006609
0.000423026
0.000371392
0.000450098
0.000147153
0.000579735
0.000513879
0.000466497
7.89333e-06
0.00036212
0.000510704
0.000525968
0.000497524
0.000501491
0.000802278
-8.58672e-05
0.000569917
0.000543107
0.000404776
5.18599e-05
0.000604592
0.000551684
0.000218065
0.000528546
0.000480636
0.000364503
0.000213481
0.00062645
0.000649488
-0.0003058
0.000988679
0.000825373
0.00023211
-4.65323e-05
0.000387829
0.00052058
0.000370824
0.000863172
0.000576971
0.000408013
0.000350512
0.000481089
0.000564423
0.00051175
0.000438389
0.000270965
0.000667258
0.00061861
0.00031239
0.000433315
0.000558241
0.000568267
0.000467279
0.00049664
0.000619477
0.000493391
0.000241417
0.000569097
0.000584002
0.000325497
0.000514027
0.000598989
0.000356713
0.000514479
0.000685918
0.000364083
0.000559201
0.000347551
0.000507016
0.00079599
0.000430482
0.000354103
0.000560712
0.000220998
0.000744031
0.000757171
0.000344437
0.000368892
0.000503513
0.00054748
0.000580166
0.000543658
0.000558836
0.000594762
0.000506942
0.000141591
0.000422161
0.000362166
0.000123709
0.000505804
0.000554207
0.000418111
1.05921e-06
0.00055659
-8.43216e-05
0.000553191
0.000538542
0.000547825
0.000536866
0.000544597
0.000532266
0.000592498
0.000530595
0.000566799
0.000513801
0.000535387
0.000549874
0.000532948
0.000519855
0.000524865
0.000564827
0.000609266
0.000578983
0.000569749
0.000546321
0.000567582
0.000517184
0.000560454
0.000609221
0.000529409
0.000530805
0.000548073
0.000254653
-0.000162531
-7.78257e-05
0.000184303
0.000643831
0.000597667
0.000673747
-0.000350055
0.000637464
0.000646732
-5.92396e-06
-0.000142132
0.00052449
0.000430008
0.000535672
0.000594136
0.000619532
0.000643151
0.000578824
0.000539116
0.000611769
0.000637299
0.000642571
0.000598558
0.000636712
0.000671944
0.000626615
0.00050325
0.000446079
0.000154236
0.000661221
0.00106383
0.000846256
0.000739704
0.000713266
0.000596243
0.000565333
0.000570388
0.000662351
0.000685138
0.000648419
0.000512403
0.00015361
0.000677108
0.000638361
0.000784552
0.00054182
0.00015418
0.000552104
0.000597553
0.000580989
4.795e-05
0.000696262
0.000465938
0.000513667
0.000621905
0.000671272
0.000801166
0.000568126
0.000513421
0.000739794
0.000548243
0.000363966
0.000626714
0.000708204
0.000563094
0.000497863
0.000439227
0.000549138
0.00052049
0.000882503
0.000832676
0.000341947
0.000644468
0.000799
0.000570084
0.000559006
0.000556771
0.00028756
0.00033149
0.00036876
0.000305514
0.000594787
-0.000127883
-7.89501e-07
0.000317668
0.000282464
0.000432274
0.000619428
0.000539963
0.000562259
0.000642603
0.000562983
0.000505058
0.000622805
0.000253651
0.000587434
0.000279938
0.000598414
0.000468528
0.000180267
0.00057543
0.000258404
-0.000274956
0.000459404
0.000380785
0.000515088
0.000203553
0.000396094
0.000500611
0.000461615
0.000428513
0.000439469
0.000444045
0.000480167
0.00051437
0.000485325
0.000496251
0.000516221
0.000512964
0.000476842
0.00050427
0.000475386
0.000494358
0.000510853
0.000515525
0.000562659
-0.000284094
0.000544963
0.000664468
0.000408724
0.000681017
-0.000322357
0.000632177
0.00061555
0.000456978
0.000569685
0.000194193
0.000524803
0.000453877
0.000300922
0.000514564
0.000880935
0.000292803
0.000154789
0.000759877
0.000972243
-0.000264608
-0.000121536
0.000641437
0.000625587
0.000978
0.000552811
0.000636406
0.000430008
0.00025713
0.000321036
0.000386853
0.000424004
0.000327829
0.000348516
0.000341292
0.000502041
0.000371142
0.000342756
0.000507341
0.000520734
0.000488759
0.000612262
0.000124957
0.000642985
0.000622596
0.000710449
0.000683024
0.000595752
0.000605744
0.000330582
0.000514834
0.000643059
-0.000164371
0.000455559
0.000607845
0.000316814
0.000707549
0.000344692
0.000911927
0.0010658
0.000631783
0.000662601
0.000518231
0.00128389
0.000391446
0.000305742
0.000519517
0.000718025
-9.49171e-05
0.000458762
2.63323e-05
0.000191565
0.000327613
-8.30525e-05
0.00059738
0.00084648
0.00060934
0.000156464
0.000278802
0.000553514
0.000514267
0.000875303
0.000468426
0.000706329
0.000710871
0.000689014
0.000593942
0.000575497
0.000633087
0.000549088
0.000558198
0.000516373
0.000434453
0.000523746
0.00053903
0.000187635
0.000184868
0.000437121
0.000336387
-0.000106459
0.000557931
0.00062239
0.000591958
0.000538045
0.00053941
0.000541506
0.000551115
0.000557093
0.000577562
0.000473936
0.00047342
0.000413316
0.000247359
0.000600949
0.000609774
0.000409469
0.000381597
0.000344282
0.000597123
0.000600721
0.000598281
0.000521841
0.000397272
0.000417579
0.000543366
0.00048591
0.000464738
0.00043732
0.000471466
0.000385502
0.000540738
0.000464314
0.000413474
0.000646057
0.000616137
0.000550789
0.000492179
0.000171154
0.000308509
0.000124131
0.000593837
0.000651205
0.000414972
0.000599804
0.000189488
0.000513657
0.000393044
0.000524088
0.000361286
0.000381525
4.64019e-05
0.00084729
9.3148e-05
0.000607382
0.000672915
0.000506345
0.000350893
0.000578856
0.000441923
0.000397799
0.000583583
0.000372575
0.000478415
0.000529651
0.000506348
0.000609091
0.00066286
0.0006349
0.000582864
0.000367121
0.000414625
0.000388565
0.000333931
0.000400834
0.000547683
0.000286167
0.000492407
0.000396336
0.000605171
0.000579324
0.000439809
0.00063352
0.000473747
0.000472761
0.000351796
0.000558522
0.000534778
0.000465979
0.00035792
0.00057975
0.000571481
0.000547606
0.000447757
0.0003625
0.000627966
0.000512308
0.000466557
0.000576796
0.000575244
0.000139866
0.000234035
0.000399853
0.000554818
0.000716598
0.000646994
0.000342579
0.000354823
0.000569616
0.000427062
0.000442644
0.000378506
0.00054786
0.00054163
0.000546479
0.000578169
0.000552488
0.000310036
0.000446126
0.000762213
0.000649424
0.000243918
0.000835069
0.000570941
0.000775165
0.000236378
0.000493489
0.000631466
0.000532021
0.000774788
0.000838478
0.00046265
0.00080242
0.000564815
0.000229996
0.000491116
0.000473328
0.000719473
0.000418408
0.000467589
0.000454585
0.00049049
0.000487788
0.000516582
0.000333619
0.000536171
0.000478104
0.000390377
0.000470746
0.000541653
0.000534155
0.000582742
0.000502236
0.000586561
0.000588932
0.00058651
0.000648237
0.000365626
0.000940545
0.000683
0.000480482
0.000625817
0.000407031
0.000456242
0.000170534
4.54551e-05
0.000280721
0.000559062
0.000765658
0.000655088
0.000735328
0.00053857
0.000590973
0.000806148
0.000737252
0.000631199
0.000669247
0.000620778
0.000530631
0.000389132
0.000492794
0.000105069
0.000470131
0.000473847
0.000166603
0.000421708
0.000654823
0.000647606
0.00050269
0.000461215
0.000516481
0.000438642
0.000311073
0.000580261
0.000512443
0.000439775
0.000474646
0.000385793
0.0012053
-0.000669105
0.000174698
0.000407301
-0.000128436
0.00045318
0.000462243
0.000347367
0.000407183
0.000240442
0.000328386
0.00054453
0.000495887
0.00051764
0.000469675
0.000525793
0.000457583
0.000334873
0.000276258
0.000501163
0.000287852
-0.000295327
0.000438327
0.000575169
0.000505649
0.000510178
SCALARS CoVolArea double 1
LOOKUP_TABLE default
318433
223035
304335
298698
269089
258866
259688
262204
262836
282404
303435
279651
369781
352706
346018
340808
325655
324036
366735
373783
380734
369164
310754
295515
418291
356792
360700
402967
418606
420490
366278
321859
385497
370755
392535
394488
446780
362940
353050
315728
363363
334899
368778
369798
363365
347686
387202
360592
282545
354956
290720
357939
370939
383315
339179
302489
309794
292326
438057
325543
298367
343448
332345
422198
368522
422683
365991
341074
423173
335253
403250
343522
426636
387783
428199
392820
359541
343769
349160
311582
304068
301955
314399
303537
319694
370303
364179
362817
336593
449239
328676
396592
391319
339800
388558
372215
413184
346073
329300
398064
234368
306414
314703
433063
295270
320076
320864
275495
309590
310963
340675
290924
372870
412928
376913
351405
378571
326246
371852
401708
347521
415018
368485
373589
409765
366891
420850
373489
391903
371911
357622
397127
335226
384924
313224
395507
360895
313223
352992
297267
360018
322519
406235
334821
350080
366679
326791
351563
338153
316779
403267
387422
392552
332972
375108
390131
325050
325579
454559
342085
324469
347103
389757
366344
405375
377282
340296
345639
337385
328601
350799
340110
359705
346015
373841
354624
338580
351997
360530
385723
280432
289667
282261
342363
306247
297944
310228
312959
358861
426224
418775
409366
395497
389547
393568
368113
331638
340080
324938
346539
322252
339467
355247
368265
301558
360351
282234
287657
275582
325793
299736
302351
297542
272888
295795
392738
344817
358889
344610
336305
394636
375167
338299
336555
386268
273598
299291
341588
309742
302091
307576
340970
322907
351757
348421
386856
349826
333124
330535
374109
377597
447122
436774
487054
350781
361234
420323
370659
357764
362869
407927
320957
353422
407884
380321
350419
365783
411029
353927
340814
338114
403968
342852
333661
347170
350448
388303
477931
467690
475854
392020
415561
386361
381857
394254
399118
387480
408602
390289
358497
356584
398209
364001
338577
386517
367172
353233
367828
385139
480850
457479
452352
339060
286607
368002
358805
300956
342207
307359
351117
344112
309681
286785
287697
325479
346575
323079
304586
322770
308704
291313
282099
292827
294790
316030
356323
345513
343332
315203
349574
345516
289548
347246
319711
373124
332613
341015
413652
345617
393024
342230
370045
323254
339010
315539
398534
393282
319327
347312
413724
462938
378391
424417
391297
364502
340874
385344
372703
390055
383434
416316
371693
372279
391757
350875
349323
353096
376960
372211
366507
353749
426382
372539
365551
326103
351856
382549
430871
450352
456145
355527
378643
378397
327425
382396
328156
382984
279065
291153
333366
256296
303112
303505
366134
309702
306038
287440
454037
379548
361824
368962
370884
425130
372147
381734
403389
376133
324779
327452
333390
308363
317190
294039
256648
275051
328185
269899
303263
297421
326185
285898
306179
291040
310664
333310
316811
321307
331289
375526
355148
358866
345448
366126
379238
361714
401038
376182
365245
371043
382299
411069
340081
336973
322069
385271
345534
346631
346521
337773
385973
346103
367166
346388
402310
369996
366986
339552
358147
392779
446867
443005
458356
368230
352298
407558
374768
396724
385189
453022
338797
361375
413317
373049
379974
370222
410709
363113
374504
379588
451771
375196
394405
360181
365854
405943
462224
464765
479021
371704
358378
415052
373223
350570
363336
376968
347134
362959
381794
368258
357083
378137
420695
326811
336129
318247
375114
343854
322963
320227
336264
367689
444683
433481
440054
367177
359169
384178
368892
347566
358800
379027
307166
332368
332494
313484
295588
321759
358566
326413
326544
318285
362502
310480
309101
306475
321829
340320
428627
409320
429972
375043
394262
368852
373564
403745
326678
317841
330670
309463
323398
300929
372349
320662
331405
394117
337309
310367
311399
328606
438381
403080
443741
354350
361872
338685
324170
333711
335182
328393
309708
333283
358258
357217
336339
324967
300543
321746
384939
367760
373336
383127
402266
373377
369314
392399
363581
363164
334950
378765
404827
390584
399472
410171
408364
402981
448894
421230
433079
307616
369008
305770
293134
350715
352328
362549
341501
357073
388091
371282
403435
382308
349474
384600
412164
415406
397652
297816
325803
298191
301819
372287
295747
389755
300089
303306
330019
254957
439460
338055
306363
437773
361665
423606
439721
335147
366631
336719
309189
312876
312222
331284
289707
323731
361614
326992
316496
348724
352071
361771
378602
357002
352595
SCALARS SignedDistance double 1
LOOKUP_TABLE default
2027.69
2489.49
1610.51
1615.36
1973.78
2694.4
2273.92
2299.42
2408.42
2166.83
2303.43
1704.77
1727.39
2008.69
2268.49
2707.39
2024.18
2130.99
1694.63
1883.15
1685.77
1899.64
2437.45
2482.83
2123
2337.31
2047.23
1845.16
2777.93
2457.26
2624.54
2840.81
1623.73
2033.09
1647.34
1586.24
1876.35
1861.19
1897.79
2401
1897.58
2246.91
1926.7
1946.45
2209.85
1777.2
1787.95
1685.5
2472.47
2125.65
2379.78
2226.73
2023.63
2710.6
2586
2231.75
2379.47
2597.8
1995.48
1848.61
2204.75
1971.54
1919.66
2021.84
2215.21
1458.32
1757.82
1938.7
1517.55
1968.82
1631.38
2014.68
1842.01
2081.12
1983.39
1769.41
1796.86
2589.04
2663.66
2554.94
2564.28
2329.51
2436.25
2304.06
2368.43
2581.37
1918.33
1989.05
2131
2329.17
2152.89
1796.49
1841.13
2106.36
1949.73
1675.78
1869.41
1711.13
2342.05
2424.14
2618.47
2375.28
2366.74
2631.26
2501.71
2420.89
2631.88
2571.61
2403.14
2597.77
2753.12
2520.69
1532.47
1639.46
1631.09
2107.06
1903.59
1936.66
1768.13
1843.56
1988.73
1788.02
1808.26
1693.41
1629.63
1804.83
1784.1
1583.59
1805.95
1775.45
1750.75
1780.74
2122.61
1912.47
2115.29
1936.43
1678.07
2343.29
2148.97
2255.63
2220.83
2407.56
1630.05
2289.41
2033.64
1871.86
2185.72
2169.57
2251.44
2419.63
1569.89
1751.33
1985.02
2220.56
1948
2238.79
2594.2
2502.94
2867.5
2357.23
2421.32
2552.41
2021.32
2049.94
2138.94
1816.6
1916.48
1803.43
2220.48
2061.86
2101.19
1718.96
1703.1
1674.13
1869.6
1768.18
1865.4
1694.69
1716.31
1742.59
2573.68
2426.93
2538.17
2200.57
2298.79
2364.87
2182.22
2239.14
2065.65
1849.02
1929.08
2012.7
2127.92
2090.25
2333.07
2228.48
1983.31
2107.41
2096.97
2702.54
2656.71
2655.86
2707.33
2706.77
2565.99
2483.27
2359.05
2424.65
2544.25
2191.17
2296.28
2114.19
2667.08
2495
2562.35
2407.79
2478.3
2278.85
2112.08
1939.67
1925.05
1987.39
1712.81
2034.01
1921.86
2353.99
2223.34
2029.2
2076.67
2146.85
2092.39
1997.16
2090.44
2191.24
2332.5
1943.86
2051.25
1787.72
2152.32
2089.42
2030.43
1882.74
1931.17
1986.12
1769.56
1876.51
1492.37
1586.21
1696.6
1617.9
1521.44
2105.86
1885.16
1645.02
1663.63
1848.29
1683.69
1532.15
2115.98
1970.23
2142.62
1588.3
1804.16
1798.83
1917.07
1851.58
1749.86
1425.76
1506.57
1456.27
1926.01
1803.95
1843.16
1854.91
1762.67
2219.19
2136.4
1906.18
2031.31
1968.04
2027.12
1898.21
1705.66
1710.63
1695.09
1701.9
1816.65
1758.93
1812.71
1875.99
1832.55
1741.03
2680.48
2641.49
2664.77
2674.77
2553.71
2611.72
2537.84
2637.09
2616.31
2505.7
2557.68
2500.51
2615.21
2630.44
2245.82
2308.68
2235.03
2452.65
2384.29
2407.49
2371.17
2372.93
2431.13
2572.21
2502.5
2514.35
2541.09
2664.71
2179.21
2376.83
2466
2548.83
2490.72
1794.1
1814.5
2087.21
1947.9
2045.04
1869.59
1972.43
2108.95
2195.2
2033.57
2325.63
2194.65
2278.96
2235.82
2209.29
2194.47
2126.08
2196.29
2392.71
1811.51
1787.63
1857.62
1830.71
1820.21
1814.25
1809.96
2215.87
2106.73
1957
2018.25
2038.98
2030.84
1953.47
1606.76
1668.77
1616.29
1825.65
1761.97
1788.09
1868.73
1774.73
1958.45
1855.21
1887.63
1823.33
2257.36
2352.04
2085.75
2169.63
2496.67
2418.09
2560.19
2471.63
2326.45
2587.33
2474.54
2681.26
2209.53
2074.46
2311.97
2414.69
2407.44
2561.81
2470.07
2424.55
2565.27
2511.14
2708.52
2308.43
2549.3
2521.95
2399.68
2533.42
2263.75
2304.93
2708.64
2492.23
2628.93
2531.55
2389.76
2549.13
2457.51
2620.49
2292.18
2257.09
2506.49
2558.51
2468.22
2812.94
2689.25
2731.78
2569.44
2627.25
2676.8
2394.86
2543.22
2573.4
1566.79
1566.09
1601.49
1604.21
1562.68
1544.79
1626.57
1618.15
1661.02
2137.79
2071.96
2109.95
2018.04
2038.16
2071.69
1778.57
1914.87
1745.02
1852.46
1861.74
1963.74
1726.4
1797.27
1704.3
2005.42
1904.84
1953.3
1731.97
1879.64
1757.05
1715.15
1690.14
1657.5
1691.81
1856.37
1814.5
1847.82
1791.77
1704.49
1617.1
1615.55
1659.7
1691.76
1666.78
1686.35
1644.93
1607.8
1851.36
1787.88
1861.19
1539.12
1714.65
1655.9
1697.9
1677.44
1818.48
1753.31
1705.36
1857.2
1805.33
1814.92
1756.76
1809.33
1645.68
1745.05
1776.6
1745.94
1797.31
1809.12
1856.66
2194.5
2111.08
2212.02
1945.91
2022.37
2016.55
1964.82
2003.06
1891.8
1809.49
1825.2
1854.84
1743.82
1630.22
1907.11
1845.88
1767.77
1817.21
1917.05
2305.27
2239.78
2284.9
2269.59
2387.68
2147.42
2027.7
2316.4
2333.41
2408.57
2084.29
2251.94
2068.04
2402.27
2328.68
2319.62
2030.56
2165.12
2066.71
1576.67
1732.05
1629.38
1550.98
1584.36
2339.75
2280.84
2146.47
2209.26
2257.95
2141.53
1924.87
2078.64
2168.77
1716.5
1877.17
2220.61
2066.18
2087.93
1783.17
1924.74
1677.77
2054.17
2103.79
2086.3
2154.64
2266.09
2206.67
2353.19
2283
2178.12
2141.53
2584.85
2392.44
2496.65
2502.27
2441.16
2202.76
2334.41
2293.07
1612.78
1516.83
1530.7
1614.89
1703.28
1883.4
2025.73
1981.29
1779.84
1607.3
1875.8
1899.98
1865.05
1948.61
2071.6
1607.71
1840.08
1725.38
2286.72
2011.22
2135.25
2359.66
2454.24
1691.86
1977.93
1813.63
1820.6
1902.61
2247.04
2370.3
2298.99
2158.2
2125.48
2086.04
2168.56
2346.27
2510.04
2496.8
2510.67
2603.16
2701.7
2420.9
2592.08
2504.15
2436.67
2469.34
2721.32
2805.94
2806.2
2788.7
2850.86
2561.43
2632.3
2678.48
2237.62
2261.68
2250.3
2339.5
2423.62
2409.03
2516.45
2469.77
2348.54
2298.35
2669.52
2530.8
2610.62
2635.17
2587.35
2384.39
2485.11
2467.35
