# vtk DataFile Version 4.2
vtk output
ASCII
DATASET POLYDATA
POINTS 642 double
-2560.63 6438.52 -386.95
870.688 6243.45 -304.676
-2615.68 84.8348 -36.8957
1604.4 91.9768 13.4179
-608.904 1271.39 3001.95
-1016.94 4969.45 2429.2
-520.4 1545.85 -2667.51
-979.577 5346.78 -3091.97
2155.03 3226.45 -1517.77
2351.86 3152.32 1622.41
-3421.35 3769.83 -1826.82
-3812.69 3486.45 1950.95
-3648.89 5279.66 1131.19
-2487.16 4519.83 2782.75
-1827.76 6006.27 1623.76
185.107 5881.79 1043.31
-579.697 6957.72 -163.909
356.95 6289.09 -1682.87
-1916.36 6662.54 -2103.38
-2459.36 4872.47 -3076.64
-3670.45 5495.92 -1420.49
-4188.85 3464.59 87.2108
1069.25 4153.1 2388.83
1942.81 4712.08 915.821
-2292.99 2090.24 2614.36
-495.807 3195.25 3091.66
-3358.06 1431.38 -964.749
-3437.97 1430.05 1133.01
-865.821 3760.19 -2831.04
-2133.99 2410.7 -2340.69
1701.76 4911.25 -840.908
815.188 4635.55 -2122.65
2669.5 1371.04 1122.26
1211.39 2181.93 2686.61
693.451 249.457 1862.59
-1839.31 175.971 1921.19
-531.624 -191.669 -54.1704
-1655.38 379.118 -1789.83
613.813 398.707 -1752.16
1070.27 2194.21 -2409.29
2527.73 1466.87 -1013.14
2864.59 2965.26 70.5949
-3176.4 5886.17 563.78
-2800.62 5820.1 1473.32
-2167.22 6230.28 851.685
-3254 4037.08 2494.81
-3197.84 4964.28 2112.54
-3855.04 4416.27 1619.27
-1424.97 5578.98 2132.83
-2222.47 5396.54 2311.5
-1746.35 4811.14 2738.33
-1042.52 6672.93 591.026
-1456.6 6806.16 -239.495
-249.536 5329.59 1849.71
-786.305 6121.02 1285.49
209.233 6723.46 -234.795
-170.481 6611.87 540.087
477.453 6256.6 426.005
-1357.69 6825.55 -1145.98
-2310.38 6779.57 -1309.24
726.754 6413.45 -945.304
-54.8562 6834.12 -994.276
-1449.09 6118.49 -2727.75
-782.979 6492.75 -1984.98
-241.99 5890.44 -2337.79
-2954.2 6282.54 -1840.81
-3195.04 6141.5 -938.08
-1671.79 5201.22 -3381.3
-2311.71 5888.42 -2817.16
-3679.81 4762.62 -1749.29
-3294.29 5273.74 -2415.98
-3073.08 4349.51 -2564.59
-3712.32 5405.31 -68.3081
-3923.08 3491.6 -840.188
-3925.91 4526.04 -650.412
-4126.44 4457.7 622.813
-4134.08 3484.94 1052.79
1218.27 5236.01 1178.52
1358.61 5418.97 315.941
309.556 4490.81 2446.92
779.019 4956.96 1927.2
2232.57 4044.67 1317.96
1628.94 4508.46 1720.4
1754.13 3740.85 2127.59
-1771.08 3962.89 3043.13
-783.769 4016.66 2831.98
-3209.94 2988.38 2426.74
-2549.42 3504.21 2918.67
-469.356 2306.12 3150.91
-1511.23 2947.71 3022.19
-1509.09 1521.08 2900.6
-4059.43 2456.96 570.411
-3726.71 2557.48 1534.17
-3520.44 2478.9 -1378.06
-3943.91 2465.8 -494.769
-3172.4 630.462 617.045
-3574.63 1344.72 -33.8812
-3175.07 639.956 -603.008
-2403.14 3836.3 -2913.81
-2747.12 3136.04 -2208.34
-1026.77 4826.07 -3185.89
-1661.71 4457.13 -3302.3
-1324.06 1754.23 -2579.64
-1504.17 3180.6 -2860.9
-509.745 2344.22 -2810.39
638.435 5474.88 -2139.25
-73.2071 5035.45 -2666.48
1292.06 5790.61 -727.843
1098.62 5785.28 -1365.86
1579.54 3711.45 -1929.05
1217.86 4798.46 -1706.12
2105.08 3991.21 -1205.16
2286.89 604.138 603.477
1836.96 692.17 1526.21
1240.65 54.6007 956.84
1901.66 2648.25 2208.12
2112.94 1675.52 1981.48
2703.14 2236 1432.68
18.0611 711.854 2538.88
1049.1 1114.65 2411.7
397.654 1705.66 2937.34
180.538 -158.438 1057.94
673.177 -160.431 -0.593708
-1148.31 669.819 2629.9
-573.157 93.3244 2043.11
-1717.83 -190.786 21.1889
-1295.65 -151.896 1055.82
-2278.88 -3.07742 1068.72
145.812 -114.881 -1006.27
1153.84 171.211 -913.682
-2250.94 123.272 -920.011
-1201.77 -129.988 -1031.42
51.4626 888.679 -2265.08
-568.353 285.47 -1856.57
-1159.87 845.907 -2328.38
1661.21 843.502 -1386.8
2214.68 669.482 -553.261
315.602 1849.99 -2627.72
924.943 1255.97 -2232.19
2505.61 2190.21 -1242.1
1869.96 1803.95 -1790.86
1687.5 2708.13 -2033.44
2809.92 1282.72 23.6711
2626.91 3083.93 -749.904
2965.41 2239 -490.775
3088.66 2252.18 558.091
2777.24 3005.7 828.083
355.733 2687.9 3075.23
1211.75 3218.87 2688.73
334.261 3669.93 2899.22
-2834.09 610.818 1651.13
-2212.52 1036.1 2568.49
-2982.94 1617.18 2055.95
-1952.51 1194.12 -2262.24
-2709.11 787.777 -1420.3
-2833.62 1823.95 -1788.46
1064.47 3205.86 -2390.05
235.87 2748.21 -2763.3
-97.2612 4056.01 -2713.04
2486.23 4032.15 513.981
2440.59 4015.37 -457.861
2011.03 4756.8 10.608
-2848.82 6100.79 104.038
-2728.31 6104.9 754.627
-2308.49 6288.07 301.783
-3255.01 5595.71 1323.02
-3017.01 5878.62 1049.42
-3442.07 5614.32 868.539
-2037.73 6152.15 1251.95
-2529.54 6057.33 1191.38
-2317.35 5957.75 1566.58
-3570.5 3760 2254.32
-3603.79 4224.17 2103.2
-3873.4 3937.03 1815.69
-2866.82 4749.07 2499.82
-3249.86 4515.78 2340.53
-2884.61 4300.69 2676.28
-3784.33 4877.89 1384.68
-3560.47 4718.56 1890.5
-3465.03 5143.42 1647.87
-1281.15 5300.8 2310.94
-1595.29 5220.87 2463.53
-1434.27 4934.74 2593.87
-2032.39 5739.44 1980.96
-1816.41 5511.3 2245
-1615.81 5820.33 1904.28
-2098.84 4681.43 2802.32
-1985.47 5117.97 2563.28
-2371.05 4983.23 2585.42
-3029.92 5441.24 1817.49
-2719.03 5229.13 2262.23
-2529.97 5643.46 1934.57
-1735.9 6564.69 254.036
-2008 6572.01 -395.883
-1434.43 6256.64 1081.81
-1591.97 6451.88 681.304
-985.048 6939.48 -148.386
-1205.74 6794.91 232.088
-832.857 6871.41 226.466
-688.043 5098.58 2108.9
-1027.93 5547.73 2004.3
-302.416 6138.6 1147.03
-666.722 5769.45 1541.88
42.2462 5591.5 1451.61
-1181.71 5807.25 1798.5
-1271.14 6031.14 1537.99
562.661 6507.49 -269.895
387.072 6505.09 136.415
688.529 6273.8 66.8284
-362.791 6830.09 211.546
11.2166 6704.35 186.484
-188.881 6878.73 -203.368
319.087 6140.71 752.768
180.156 6448.88 505.693
-24.5807 6352.75 787.797
-860.232 6442.37 984.283
-421.143 6441.21 899.672
-606.742 6702.93 590.8
-1972.38 6740.54 -932.575
-2446.81 6623.97 -916.682
-821.99 6950.35 -578.217
-1449.38 6843.65 -694.299
-2137.02 6803.05 -1683.78
-1926.19 6844.21 -1314.15
-1762.91 6810.88 -1683.04
829.134 6360.8 -625.295
496.664 6618.94 -613.913
167.464 6605.78 -1360.13
344.795 6657.91 -985.929
553.407 6383.79 -1327.98
90.9556 6826.2 -616.107
-294.46 6943.44 -600.972
-1222.55 5752.72 -2935.99
-963.722 6000.04 -2593.22
-721.911 5605.8 -2709.15
-1467.96 6581.65 -2127.91
-1216.1 6335.22 -2395.08
-1683.06 6425.88 -2457.01
134.637 6128.7 -1998.86
-515.784 6213.11 -2183.21
-106.7 6442.6 -1791.92
-549.604 6910.82 -1029.63
-310.272 6727.52 -1446.21
-1053.75 6710.13 -1594.65
-2785.12 6510.57 -1142.72
-2874.78 6348.48 -660.446
-2433.97 6541.25 -2000.76
-2653.78 6605.29 -1561.87
-3466 5862.79 -1186.78
-3127.16 6270.41 -1399.55
-3372.84 5931 -1636.52
-1331.9 5299.95 -3250.68
-1561.02 5698.97 -3084.84
-2442.97 5356.39 -3020.87
-1976.44 5554.83 -3112.43
-2045.68 5054.54 -3295.1
-1847.04 6072.62 -2829.16
-2115.5 6338.52 -2514.27
-3546.75 4277.93 -1847.9
-3424.2 4582.87 -2168.17
-3272.52 4110.06 -2248.49
-3555.18 5400.11 -1933.08
-3551.71 5023.92 -2087.92
-3749.72 5110.32 -1622.35
-2792.97 4640.36 -2839.68
-3200.8 4876.97 -2501.54
-2917.28 5101.05 -2790.96
-2674.33 6131.28 -2385.33
-2856.43 5604.85 -2670.62
-3176.77 5802.73 -2182
-3169.82 5987.31 -231.431
-3661.82 5482.69 -822.875
-3461.87 5766.55 -540.851
-3475.64 5662.61 248.89
-3737.41 5350.23 590.164
-3623.15 3587.69 -1351.42
-3702.16 4219.63 -1307.81
-4117.14 3971.97 -204.761
-3954.62 4030.66 -755.211
-4095.41 3451.95 -389.885
-3800.06 4706.55 -1258.13
-3805.47 5047.16 -1129.26
-4059.29 3947.37 1385.07
-4026.92 3486.76 1538.11
-3946.73 4893.3 905.405
-4029.1 4463.7 1138.67
-4234.87 3483.88 531.909
-4156.75 3964.8 828.978
-4224.58 3973.17 355.644
-3888.76 4985.98 -370.154
-4130.19 4471.4 64.6543
-3983.69 4937.77 333.605
910.52 5881.75 255.741
1039.39 5960.25 -102.477
694.021 5537.92 1194.61
751.272 5695.46 750.102
1731.8 4999.54 703.992
1341.65 5310.8 787.283
1596.12 5002.8 1061.28
-228.745 4665.97 2412.24
124.29 4902.99 2188.55
937.342 4588.1 2172.38
575.159 4751.46 2192.8
706.745 4326.75 2439.77
398.19 5113.03 1920.46
576.352 5306.39 1617.05
2307.95 3649.89 1493.97
2033.02 3903.47 1741.04
2052.12 3504.63 1920.48
1819.8 4625.24 1332.29
1948.79 4292.35 1538
2112.89 4389.25 1122.42
1425.12 3954.17 2282.49
1712.14 4143.75 1936.85
1380.56 4349.9 2072.14
1021.42 5121.84 1576.91
1215.57 4761.49 1850.65
1443.65 4901.88 1468.11
-1458.35 4489.35 2807.31
-915.15 4547.17 2527.76
-2074.27 4237.55 2977.97
-1758.03 4372.81 2925.86
-586.05 3659.27 2983.58
-1377.44 4100.98 2941.28
-1267.79 3653.7 2917.87
-3543.56 3234.83 2227.32
-3286.29 3493.91 2505.29
-2512.73 3019.51 2819.95
-2910.12 3252.28 2699.1
-2772.58 2646.77 2530.1
-2928.54 3764.42 2733.13
-2543.03 4003.67 2886.43
-578.446 1717.39 3026.49
-933.378 1803.69 3003.72
-1009.19 1389.16 3018.86
-1022.29 3037.52 3086.14
-873.846 2497.93 3085.32
-447.416 2758.77 3157.64
-1943.34 1669.88 2793.97
-1438.91 2040.52 2884.73
-1948.96 2523.87 2809.76
-2098.64 3738.26 3093.91
-2092.68 3299.78 3051.82
-1743.76 3478.4 3103.97
-4004.53 3043.96 1352.86
-3823.74 3071.28 1784.16
-4162.92 2963.05 325.382
-4108.36 2995.75 808.871
-3621.03 1953.55 1317.11
-3929.02 2484.45 1057.09
-3822.65 1997.22 835.61
-3466.99 2993.42 -1549.91
-3729.72 2934.42 -1121.72
-3687.16 1966.42 -774.379
-3757.09 2446.17 -958.669
-3482.87 2001.42 -1186.75
-3948.23 2945.39 -652.498
-4101.72 2944.29 -213.677
-2928.59 311.865 290.366
-3210.7 594.901 -39.5278
-2930.87 318.54 -337.027
-3563.49 1377.63 550.162
-3423.97 915.712 275.124
-3330.56 952.658 907.555
-3323.32 978.615 -821.303
-3427.25 920.394 -336.206
-3511.58 1339.69 -543.105
-4074.8 2445.79 42.6094
-3822.9 1927.3 -257.331
-3899.16 1950.41 297.502
-2947.96 3863.11 -2518.4
-3124.49 3494.18 -1958.81
-2443.9 4317.37 -3039.22
-2735.96 4053.82 -2797.78
-2495 2844.74 -2347.99
-2610.37 3602.87 -2673.7
-2334.01 3372.93 -2678.32
-984.477 5025.01 -3214.17
-1349.53 4966.35 -3337.53
-1429.23 4283.61 -3193.25
-1385.86 4671.7 -3274.9
-1060.2 4483.41 -3132.39
-1657.77 4852.55 -3394.85
-1967.46 4650.3 -3295.53
-934.16 1647.61 -2649.31
-888.858 2095.23 -2780.35
-507.177 1943.32 -2787.79
-1770.08 2853.91 -2653.66
-1280.21 2338.53 -2727.17
-1694.3 1933.14 -2464.8
-539.019 2904.33 -2848.17
-950.324 2616.22 -2814.24
-1254.77 3475.49 -2899.37
-2009.96 4106.89 -3179.64
-1713.47 3970.49 -3152.55
-2010.04 3664.97 -2991.24
-126.768 5424.54 -2560.19
-598.56 5132.83 -2954.28
509.777 5906.17 -1943.97
[...]
POINT_DATA 642
SCALARS Mean_Curvature double 1
LOOKUP_TABLE default
0.000749455
0.000816407
0.000710374
0.000830054
0.00145534
0.00125033
0.000888855
0.00112396
0.000724435
0.000391977
0.000823492
0.00109477
0.000788951
0.00085053
0.000705941
-0.000525019
0.00109388
0.000815605
0.00129558
0.000592487
0.00104773
0.000405545
0.000556994
0.000671127
-0.000183316
0.000277503
4.24856e-05
3.11917e-05
-0.000727052
-0.000275003
-1.63588e-05
7.58882e-05
0.000892319
0.0004599
0.000791719
0.000948058
9.16385e-05
0.000806417
0.000891419
0.000448327
0.000764344
0.000184275
0.000687298
0.000760833
0.000120788
0.000750429
0.000683286
0.00064207
0.000876611
0.000806499
0.00097401
0.000725361
0.000586434
0.000204895
0.000145777
0.00071828
0.000905981
0.000557138
9.85559e-05
0.00143979
0.00101861
0.00102734
0.000850433
0.000569848
0.000358424
0.000833876
0.000496003
0.00228434
0.000808114
0.000665178
0.00130088
0.000671854
0.000537992
0.000471427
1.58986e-05
0.00066371
0.000428449
0.000511027
2.2651e-05
0.000412315
0.000660451
0.000690433
0.000649324
0.000636416
0.000800173
-0.000116028
0.000730388
0.000764645
0.00078874
0.00010193
0.000533213
0.000787019
0.000129966
0.000737758
0.000583135
0.000474
3.45551e-05
0.000947198
0.000763001
-0.000458861
0.000358549
0.00141739
0.000255956
0.000622689
0.000125584
0.000743752
0.00127663
0.00105803
0.000804356
0.000470251
-0.000105293
0.000578666
0.000796386
0.000661255
0.000508935
0.000308688
0.000940916
0.00108441
0.000269451
0.000467638
0.000668933
0.00058049
0.000382068
0.000721212
0.000877974
0.000367473
6.41666e-05
0.000829138
0.000770135
0.000352192
0.000556642
0.000867552
0.000291546
0.000748483
0.00101274
0.000326279
0.000791878
0.000419632
0.000703593
0.000681235
0.000532638
0.000473269
0.000749052
0.000298667
0.00125795
0.00145348
0.000226216
0.000456922
0.000608838
0.00069626
0.000832505
0.00104757
0.000176226
0.00129168
0.000597258
0.000171921
0.000417189
0.000493154
0.000526026
0.000663503
0.000740352
0.000409362
-0.000158161
0.000753827
-0.000263657
0.000774523
0.000718744
0.000765874
0.000652297
0.000736029
0.000755257
0.000865797
0.00071575
0.000818406
0.000733225
0.000727188
0.000794191
0.000723781
0.000683322
0.000705134
0.000523566
0.000888632
0.000512992
0.00070498
0.000739981
0.000871687
0.000839243
0.000836583
0.000810518
0.000728771
0.00078624
0.00075446
0.000327755
-0.000485444
-0.000303156
0.000279967
0.00104493
0.000816366
0.00111198
-0.00100441
0.000717342
0.000682208
-0.000480382
-0.000149953
0.00064916
0.000719966
0.000679485
0.000874646
0.000719971
0.00098983
0.000853849
0.00072304
0.00101064
0.000921611
0.000730927
0.00105569
0.000879877
0.0010745
7.21689e-05
0.000511111
0.000505126
0.000467599
0.00157256
0.00127096
0.000947076
0.00111452
0.00111451
0.000859487
0.000899946
0.000779828
0.000974414
0.00105873
0.000685537
0.000397526
-0.0003553
0.000559138
0.000604426
0.00112597
0.000709633
0.000220087
0.000712093
0.000829813
0.000778279
0.000166867
0.000817465
0.000629882
0.000731156
0.00122694
0.000771569
0.00117109
0.000979884
0.000872611
0.00118082
0.00082276
0.000593991
0.0012897
0.00118553
0.0010412
0.00058116
0.000435749
0.000701684
0.00100829
0.00126115
0.00149121
0.000350402
0.00047976
0.00112897
0.000803179
0.0009137
0.000779712
0.000309221
0.000402712
0.000447379
0.000361124
0.00080617
-0.000188612
-0.000373167
0.00027889
0.000478089
0.000576567
0.00058485
0.000617615
0.00077595
0.000995681
0.000821128
0.000662356
0.000961699
0.000237591
0.000867554
0.00038118
0.000808797
0.000638731
3.58094e-05
0.000788565
0.00062391
-0.000630794
0.000571277
0.000527072
0.000662356
0.000357116
0.000474146
0.000652067
0.000561734
0.000471251
0.000484814
0.000537348
0.000655471
0.000669904
0.000644501
0.000644309
0.000673516
0.000657999
0.000574771
0.000643685
0.000603463
0.000624218
0.000678743
0.000681731
0.000471909
-0.000969505
0.000987538
0.000850831
0.000885348
0.00117186
-0.00126279
0.000933757
0.000893492
0.000544652
0.000687929
-9.53038e-06
0.0006699
0.000517584
1.98964e-05
4.72602e-05
0.00146403
0.000624819
0.000168618
0.000700068
0.000543838
-0.000357475
-0.00021288
0.00147436
0.000899088
0.00135647
0.000696844
0.000874226
0.000517335
0.000247074
0.000478298
0.000459652
0.000507733
0.000511061
0.000322005
0.000525681
0.000654794
0.000531365
0.00025591
0.000573467
0.00073368
0.00061858
0.000931576
8.77107e-05
0.00088997
0.000664483
0.00133711
0.00117666
0.000377202
0.000875998
0.000422737
0.000687414
0.000724517
-0.000708187
0.000688145
0.000960168
0.000609058
0.00100452
-1.46278e-05
0.00241712
0.00181232
0.000346821
0.000143923
0.000507044
0.00210519
0.000765789
0.000419311
0.00078731
0.000960183
-0.000119755
0.000510122
-1.66734e-05
0.000183667
0.000189142
6.36879e-05
0.00117173
0.000948654
0.000719806
0.000354196
0.00106877
0.00075362
0.00058847
0.000701272
0.00111301
0.00149436
0.000692726
0.00155747
0.000677922
0.000986297
0.00128888
0.000726581
0.000785415
0.000654966
0.000505071
0.00067422
0.000399118
0.000404614
0.000381401
0.000423312
0.000464986
-0.00039031
0.000771958
0.000885624
0.00127292
0.000688719
0.00071217
0.000781585
0.000767881
0.000762219
0.000840908
0.000668708
0.000558073
0.000505717
0.00026247
0.000640541
0.000502242
0.00026015
0.000208879
0.000467322
0.000746725
0.000694666
0.000973238
0.000589659
0.000520144
0.000645428
0.000755295
0.00057004
0.000591087
0.000566346
0.000603719
0.000400177
0.000755835
0.00056139
0.00044038
0.000832124
0.000921897
0.000787034
0.000725258
7.00928e-05
0.000175935
3.33701e-05
0.00104208
0.000958428
0.000599207
0.000868886
-4.00563e-06
0.0006405
0.000514582
0.000812944
0.000537741
0.000465409
-9.68839e-05
0.00123298
-7.23715e-05
0.00100659
0.000594611
0.000628869
0.000442649
0.000884723
0.000348627
0.000435525
0.000757426
0.000341227
0.000629354
0.000761949
0.000770437
0.000928532
0.00109556
0.000683393
0.000867524
0.00055124
0.000572373
0.000436595
0.000241069
0.000462973
0.000704251
0.000180574
0.000561585
0.000459999
0.000852225
0.000878222
0.000514723
0.000878954
0.000701765
0.000591106
0.000390277
0.000704305
0.000728145
0.000622466
0.000361907
0.000832335
0.00074106
0.000687406
0.000643746
0.000333788
0.000962801
0.000579898
0.000361502
0.000652429
0.000803627
0.000146607
0.000132115
0.000542502
0.000820664
0.000627807
0.00131758
0.000426913
0.000294157
0.000627968
0.000519051
0.000680341
0.000381089
0.000732374
0.000741495
0.000765575
0.000811522
0.000773392
0.000484799
0.000196581
0.000908998
0.000604832
0.000162227
0.00114855
0.00112298
0.000953109
0.000196669
0.000586111
0.00116135
0.000412337
0.00101235
0.00117316
0.000655746
0.00144432
0.000931989
0.000172707
0.000586
0.000518545
0.00127325
0.00035444
0.000610806
0.000523674
0.000604556
0.000617389
0.000674504
0.000202118
0.000728459
0.000468826
0.000369783
0.000535919
0.000785108
0.000669188
0.000833878
0.000523422
0.000877569
0.00085472
0.000873686
0.000978368
0.000753537
0.00129858
0.00130312
0.00042517
0.000932041
0.0004059
0.00018532
0.000381586
0.000154336
-7.524e-06
0.000791541
0.00140128
0.00121097
0.000638129
0.000753271
0.00118451
0.000870038
0.000238593
0.000955451
0.00113301
0.000852264
0.000631013
0.00043731
0.000549007
8.15619e-05
0.000519698
0.000609458
8.32749e-05
0.000757432
0.000779656
0.000479127
0.00062883
0.000558885
0.000650994
0.00052768
0.000297004
0.000808816
0.000671776
0.000447104
0.00060521
0.00038363
0.00089193
-0.00106964
-0.000449132
0.000133896
0.000113207
0.000584758
0.000599958
0.000245092
0.000607963
0.000371009
0.000466118
0.000727719
0.000634271
0.000696933
0.000542315
0.000658613
0.000665467
0.000535153
1.33612e-05
0.000551955
0.000288029
-0.000556184
0.000791812
0.000807299
0.000627501
0.000588416
SCALARS CoVolArea double 1
LOOKUP_TABLE default
270423
123371
212026
203895
163358
208242
168290
160828
177410
206283
240526
175530
245302
221257
232965
267227
184749
194003
219929
245864
246396
258503
198368
176678
355991
270308
259405
318709
399002
385459
283095
252710
259464
268572
277730
275063
406198
238945
224079
205008
228414
230801
269847
236407
283266
229256
260932
248426
156476
216637
159999
232366
283346
353163
225146
175167
161271
196352
335612
185041
163064
198638
202092
313461
287909
288860
259956
172955
293474
220875
251654
227560
320712
319283
334280
267443
254591
240032
272748
218765
181582
185010
189344
189902
185168
314935
260369
227032
236195
378247
219060
276070
305816
229310
272409
262483
315132
213007
192250
348545
105088
143085
222271
327256
197622
174491
183158
159079
170706
209476
247717
181129
257992
295794
270104
261068
250124
194642
273947
290935
242867
311472
274487
265883
286223
265790
323945
261135
269546
272179
245656
276858
235494
264904
189515
287328
242968
208860
221334
182736
237388
226671
277794
241828
188910
201570
226535
226360
211600
189952
264443
235566
292319
186533
244830
296310
215771
208797
416400
217019
194061
249101
321198
276087
374532
248320
218600
230450
243770
211371
219756
218632
243868
227385
243258
237859
222225
238442
246772
260727
179537
155962
183447
207081
176336
174378
178953
179984
220612
283673
272594
261440
335679
355805
302948
281678
207659
223503
175384
306154
251837
263015
316150
336192
192102
242426
155819
160197
166659
178342
168860
173051
205673
143480
171800
249936
189307
193697
244415
237784
276444
265881
190914
201834
252920
137251
163231
204061
176463
177710
172477
198123
209324
260086
278470
262425
237835
196875
219949
277469
254709
317214
299537
376476
218942
262691
283233
228515
241375
229010
269450
163400
208806
272952
246932
203274
228134
270069
268564
222323
241550
254143
198376
192209
234153
225584
245306
339197
316839
330103
305661
307490
290263
283341
272430
344279
326106
307478
312134
265517
253294
280116
253513
218893
259838
257872
247334
262366
263548
371760
333084
320145
276287
191653
277856
304872
201244
267108
186294
303504
270488
189291
178614
185859
238007
250078
218554
187675
218312
184545
174977
166977
184046
180454
195074
223583
207507
205152
228384
327509
196469
156553
260838
219476
306083
211210
216269
326441
233148
334130
223708
236561
225294
263762
189024
307996
334007
207295
259198
394435
419273
206038
284853
249723
260974
227514
267024
273006
313054
290127
319542
295767
287223
286220
245586
255844
255219
262069
268782
246484
233831
342629
268498
265835
199482
229903
270832
293559
331812
337854
265172
338397
245366
198534
309942
216109
303372
113418
114043
240446
119947
241652
129355
212025
204137
203161
167865
412608
309520
314878
321563
294608
363492
204591
230474
276203
283229
199739
195161
222735
227560
179349
150387
135397
131331
219649
134545
188043
166312
192012
175331
200592
179328
194184
245211
226607
245522
251653
318514
198977
231310
194463
255625
269170
248428
272072
261837
247631
264500
277406
298726
248210
229633
217343
282462
246827
253267
219040
213876
248731
230992
263225
244172
287471
267820
263926
236741
252373
289223
306447
316961
334698
257112
239095
289769
265692
336782
302577
401729
205848
243115
294923
260120
285515
259010
296006
253562
262410
280938
396965
276190
333486
239705
250592
287602
336203
339600
383080
268177
250828
322899
274028
239145
250548
248504
225962
252136
253460
258853
250619
285639
336818
231202
229399
216257
253168
234303
206769
193431
217893
236111
317346
296974
311012
257750
246415
266654
267716
227435
246027
257007
196051
234989
202269
202375
191787
207595
228057
243021
238502
221807
229801
190445
167122
206857
225391
219626
302279
272024
306365
259622
263896
249969
254754
276082
231491
220562
189376
194114
230461
160113
221449
196707
237950
256882
193720
205285
174365
176279
281385
219860
286439
255745
243291
228323
201735
209565
230637
210202
196692
225178
237036
305454
216494
225881
200904
205588
243401
226107
230433
277261
269302
253204
249825
270005
233908
225613
193260
269794
281897
297470
300724
338251
342922
324196
290310
264472
283820
189564
235241
166794
173292
255945
226545
236135
210391
244702
272301
297051
333242
308820
251266
289763
265974
280929
265608
186217
213484
188689
196416
320458
181222
304993
197911
197963
221763
117392
479955
305232
230564
360956
235913
296851
378346
231169
260397
235300
192089
187697
199286
218292
173017
214734
251548
255591
203034
283246
283954
253499
237823
221667
215020
SCALARS SignedDistance double 1
LOOKUP_TABLE default
1310.91
1625.77
1008.41
1017.44
1328.33
1775.49
1454.55
1594.87
1528.41
1362.01
1561.87
1069.97
1082.98
1331.54
1478.15
1799.76
1304.86
1352.77
1163.63
1232.3
1108.77
1212.74
1540.65
1570.63
1382.59
1485.91
1323.26
1186.51
1968.97
1572.16
1726.71
1897.25
1032.04
1280.49
1026.96
1016.59
1186.62
1176.8
1204.24
1526.49
1236.78
1453.18
1247.23
1249.63
1454.83
1126.24
1124.91
1056.05
1614.04
1396.35
1577.38
1438.86
1283.27
1765.32
1699.24
1450.37
1550.38
1684.1
1383.12
1284.58
1438.07
1256.73
1290.57
1400.91
1446.77
920.82
1115.55
1446.53
967.721
1294.45
1107.08
1313.66
1202.57
1343.6
1312.13
1149.72
1154.34
1635.76
1750.96
1611.94
1613.28
1474.27
1531.09
1455.43
1569.99
1705.91
1229.13
1288.85
1374.63
1610.7
1462.68
1129.73
1173.83
1339.48
1241.58
1072.77
1209.82
1092.07
1571.99
1676.7
1746.5
1619.79
1489.55
1886.2
1587.46
1585.86
1810.68
1692.26
1552.74
1655.46
1865.66
1597.18
958.487
1031.09
1031.78
1328.1
1246.06
1264.89
1124.57
1169.94
1270.66
1151.23
1153.88
1082.3
1024.2
1170.58
1144.72
1015.39
1139.74
1121.22
1116.92
1128.55
1352.5
1212.79
1388.43
1240.67
1062.64
1488.24
1374.41
1460.32
1440.36
1527.44
1040.49
1442.68
1352.09
1265.44
1404.31
1389.14
1431.91
1543.39
987.411
1185.77
1298.59
1502.59
1282.13
1442.02
1653.34
1580.32
2022.51
1503.51
1538.01
1620.13
1305.69
1339.26
1370.55
1150.5
1230.59
1143.08
1433.48
1330.12
1361.79
1082.19
1065.22
1046.66
1195.28
1111.06
1194.82
1059.46
1074.57
1091.76
1664.83
1592.66
1653.06
1426.15
1503.45
1547.98
1457.59
1483.78
1359.33
1173.73
1244.95
1303.36
1354.2
1374.21
1532.42
1433.4
1262.25
1348.39
1351.78
1772.77
1727.95
1733.18
1788.74
1800.62
1679.49
1660.97
1538.06
1582.6
1652.61
1422.93
1494.47
1363.87
1747.02
1625.45
1659.16
1587.88
1615.78
1486.63
1446.93
1283.97
1221.5
1311.32
1226.89
1427.65
1354.75
1548.98
1458.45
1284.66
1331.7
1366.68
1359.12
1292.12
1404.7
1491.71
1606.34
1321.86
1398.2
1209.56
1371.06
1368.31
1282.6
1189.31
1214.58
1378.13
1162.38
1206.29
965.282
1080.53
1089.53
1051.62
981.745
1485.71
1294.61
1073.83
1106.92
1300.62
1139.75
1019.14
1388.28
1276.23
1398.82
1057.59
1206
1218.54
1234.38
1196.49
1165.35
881.34
968.549
913.316
1241.16
1161.57
1187.79
1188.64
1116.63
1492.24
1394.82
1211.51
1324.69
1261
1322.87
1250.38
1089.31
1082.34
1060.49
1077.35
1175.43
1113.76
1168.39
1233.13
1192.1
1092.08
1777.83
1735.21
1731.85
1788.5
1620.03
1665.13
1603.12
1676.14
1656.45
1578.69
1608.08
1581.83
1648.29
1665.16
1419.59
1456.01
1411.71
1546.04
1503.44
1522.97
1497.49
1494.72
1528.4
1620.34
1573.26
1583.29
1659.27
1751.23
1473.71
1579.36
1601.67
1703.09
1665.37
1136.28
1157.21
1363.53
1249.89
1323.29
1190.42
1281.3
1346.64
1398.69
1373.13
1515.54
1402.24
1462.12
1516.39
1434.82
1427.26
1455.99
1505.57
1629.37
1169.21
1132.94
1190.51
1188.73
1140.37
1143.14
1140.81
1443.66
1345.69
1232.28
1280.69
1287.06
1298.5
1255.87
1005.76
1057.89
1006.82
1168.08
1147.12
1180.74
1232.74
1152.9
1284.82
1177.89
1191.4
1156.8
1486.65
1591.89
1393.61
1448.39
1695.81
1626.86
1750.06
1748.08
1631.83
1707.62
1643.38
1784.98
1565.87
1441.71
1464.97
1554.41
1562.35
1737.35
1581.27
1538.5
1651.58
1593.28
1951.69
1592.89
1728.02
1737.26
1621.9
1839.98
1449.5
1488.54
1770.27
1677.99
1765.86
1651.54
1591.75
1665.1
1605.44
1775.09
1475.52
1443.25
1591.33
1624.22
1566.26
1895.25
1746.79
1781.23
1628.58
1681.29
1779.29
1551.45
1664.01
1725.62
988.179
982.658
1010.57
1007.38
977.037
962.932
1013.53
1022.09
1044.8
1345.96
1338.24
1356.56
1287.23
1304.18
1309.4
1147.77
1234.22
1134.9
1215.65
1177.06
1284.39
1092.13
1139.67
1071.36
1265.61
1208.78
1243.17
1107.26
1213.15
1126.83
1119.92
1090.54
1053.11
1092.25
1174.96
1155.84
1169.28
1183.9
1086.69
1017.34
1010.79
1055.89
1072.95
1051.05
1106.7
1038.7
1010.34
1172.24
1186.18
1177.64
973.346
1119.22
1068
1075.75
1099.16
1174.53
1112.34
1082.62
1182.39
1159.14
1138.46
1096.26
1139.44
1037.53
1113.42
1110.72
1094.33
1130.11
1159.07
1178.03
1392.12
1357.55
1416.94
1243.82
1290.09
1298.9
1263.72
1285.29
1207.54
1141.3
1146.59
1170.55
1112.59
1027.4
1205.02
1175.21
1133.6
1165.68
1238.38
1471.15
1424.01
1483.04
1464.81
1515.97
1385.47
1302.96
1460.48
1471.73
1529.27
1372.29
1463.35
1386.18
1520.27
1473.53
1478.02
1286.5
1386.33
1333.71
992.164
1110.1
1027.45
975.841
1006.27
1477.84
1454.88
1399.25
1425.21
1436.14
1403.7
1294.54
1351.84
1372.01
1103.4
1242.99
1441.76
1358.21
1377.43
1168.25
1301.47
1099.3
1292.01
1334.08
1331.12
1401.17
1443.56
1396.54
1492.28
1447.48
1383.71
1360.13
1649.54
1537.71
1602.25
1590.11
1554.35
1403.34
1489.38
1467.54
1017.72
938.568
954.683
1024.41
1102.41
1286.02
1392.8
1392.48
1188.17
1021.15
1202.15
1236.32
1172.48
1237.61
1353.74
1024.11
1260.68
1148.09
1502.03
1308.97
1417.15
1560.98
1616.08
1067.78
1330.54
1170.91
1170.16
1217.61
1450.84
1524.85
1481.78
1371.56
1364.22
1397.26
1508.37
1584.86
1595.51
1592.73
1600.74
1657.98
1733.62
1561.69
1686.32
1595.14
1549.28
1570.48
1850.48
1883.34
1918.33
1876.66
2056.42
1631.79
1703.2
1716.55
1415.35
1426.95
1425.36
1487.35
1539.44
1530.74
1592.58
1565.91
1491.42
1454.51
1766.2
1611.38
1665.75
1752.12
1656.5
1521.96
1575.67
1572.06
