# vtk DataFile Version 4.2
vtk output
ASCII
DATASET POLYDATA
POINTS 642 double
-2266.41 5577.43 -689.69
-43.0699 5528.73 -648.448
-2275.84 737.922 -29.8302
1280.82 758.016 92.0728
-684.773 1413.15 1998.92
-1564.71 4370.94 1360.22
-492.398 1847.04 -1618.53
-1487.21 5176.21 -2254.98
1310.26 3023.14 -798.093
1532.7 2933.33 1070.16
-2720.75 4175 -1184.13
-3175.6 3570.28 1516.1
-3063.86 4804.82 895.219
-2320.62 4170.17 1876.28
-1866.68 5071.55 1079.79
-227.252 5183.74 276.221
-713.338 6025.92 -341.216
-152.211 5663.61 -1122.03
-1993.79 5883.76 -1784.83
-2037.81 4967.39 -2320.26
-2867.57 5243.04 -1370.79
-3291.56 3506.51 267.651
646.399 3602.68 1477.47
1108.19 3934.5 665.329
-1889.27 2200.6 1663.14
-453.797 2945.16 2020.91
-2543.18 1677.61 -497.909
-2664.75 1738.22 870.243
-998.495 4037.71 -1456.01
-1640.31 2710.42 -1309.22
921.026 4334.11 -454.998
185.176 4608.98 -1067.59
2027.16 1613.19 803.193
731.468 2291.67 1873.07
475.458 825.324 1438.11
-1720.43 781.73 1510.94
-531.953 698.994 -59.2303
-1387.32 951.809 -1232.48
375.113 971.336 -1139.71
589.053 2246.82 -1371.39
1866.39 1722.29 -459.22
1810.47 2530.31 150.062
-2724.84 5083.62 465.399
-2490.97 5044.73 1078.08
-1872.17 5177.25 620.065
-2787.75 3920.91 1813.6
-2754.81 4540.95 1569.55
-3184.84 4199.06 1284.43
-1788.44 4831.01 1297.32
-2168.62 4708.7 1535.46
-2059.55 4312.66 1726.6
-913.37 5813.76 -2.42116
-1100.39 5947.64 -412.959
-466.438 4428.59 929.225
-1076.97 5467.92 477.943
-351.602 5861.33 -504.394
-605.894 5798.44 -99.9379
-343.664 5554.06 -204.274
-1323.99 5875 -1041.87
-2136.89 5861.16 -1526.61
-18.9775 5662.07 -875.174
-377.802 5976.38 -832.328
-1773.75 5540.1 -2080.78
-981.344 5756.95 -1485.28
-621.195 5420.33 -1522.88
-2542.63 5797.84 -1656.33
-2648.1 5561.08 -1093.15
-1858.33 5104.67 -2447.72
-2099.6 5522.82 -2232.67
-2788.03 4987.76 -1435.64
-2667.65 5246.5 -1885.31
-2405.69 4587.21 -1931.62
-2965.39 4923.84 -47.1864
-3052.52 3538.45 -367.993
-2956.62 4412.3 -425.985
-3271.48 4285.3 569.224
-3272.65 3562.41 907.271
625.588 4274.33 748.228
463.033 4554.46 114.1
138.322 3841.49 1459.27
413.264 4133.9 1160.07
1369.49 3533.07 885.498
970.115 3844.3 1097.82
1102.32 3350.09 1368.99
-2141.82 3725.8 2021.24
-908.272 3503 1845.87
-2753.57 3303.39 1712.78
-2254.02 3600.01 2029.76
-357.699 2361.06 2133.95
-1382.15 3099.53 2033.07
-1242.65 1421.51 1855
-3255.13 2664.89 454.253
-3001.16 2857.45 1122.19
-2756.16 2632.43 -769.6
-3087.46 2638.94 -176.86
-2547.71 1053.28 508.366
-2737.32 1649.57 43.3776
-2568.21 1059.16 -377.246
-1987.14 4324.63 -2022.78
-1923.92 3464.43 -1451.32
-1518.05 5230.78 -2202.29
-1907.75 4752.16 -2359.4
-983.648 1949.43 -1559.32
-1695.35 3259.73 -1713.41
-507.05 2381.95 -1621.61
-92.684 5253.18 -1275.94
-569.073 5274.46 -1723.91
354.94 5246.87 -797.912
215.368 5321.64 -887.295
898.896 3302.06 -992.67
71.4693 4429.75 -861.694
1248.3 3468.77 -586.135
1812.52 1111.73 501.834
1456.02 1164.31 1089.33
990.45 743.693 764.131
1237.19 2600.01 1476.89
1561.01 1781.09 1227.62
1978.03 2122.76 882.069
-176.914 1157.8 1846.47
663.017 1443.25 1715.23
173.303 1893.09 2031.28
155.22 701.713 989.594
622.888 703.399 30.2427
-987.902 1095.48 1991.87
-627.773 742.708 1682.19
-1678.48 692.899 107.696
-1302.96 704.096 964.247
-2013.29 703.576 964.202
86.8679 703.928 -787.72
810.981 855.79 -590.461
-1963.56 820.84 -566.94
-1142.3 697.651 -847.11
-88.0353 1350.86 -1380.29
-625.37 920.154 -1244.94
-1084.02 1220.13 -1352.96
1157.34 1332.12 -768.481
1716.78 1181.36 -262.138
27.2666 2059.89 -1584.5
573.866 1592.02 -1341
1726.37 2024.73 -486.29
1190.59 1943.65 -970.895
989.777 2660.18 -1142.41
2094.57 1594.26 123.951
1672.58 2838.48 -329.851
2067.52 2062.93 -108.217
2175.74 2083.32 415.488
1783.26 2610.28 601.023
130.503 2617.96 2052.54
707.403 2954.21 1789.26
135.88 3164.33 1897.53
-2337.59 1015.39 1349.56
-1900.66 1247.88 1780.55
-2281.51 1717.63 1375.95
-1444.46 1278.15 -1288.99
-2155.17 1146.05 -729.025
-2259.71 2121.09 -939.454
538.054 2928.68 -1299
-46.5143 2726.48 -1626.42
-663.114 3803.47 -1720.28
1511.15 3497.06 405.485
1474.74 3480.19 -172.67
1104.63 3952.18 35.6732
-2481.43 5207.94 -98.0664
-2432.81 5141.76 598.359
-1973.48 5359.01 60.8226
-2794.39 4960.42 1003.46
-2630.82 5083.17 827.237
-2919.41 4970.83 717.408
-1928.12 5149.6 900.914
-2314.77 5125.98 911.526
-2170.57 5075.9 1096.47
-3020.94 3729.88 1683.99
-3035.38 4033.1 1603.9
-3216.96 3838.1 1448.44
-2543.93 4352.84 1776.09
-2782.25 4239.16 1738.48
-2544.17 4081.01 1888.19
-3146.12 4552.12 1081.87
-2993.51 4402.71 1442.69
-2941.29 4696.04 1251.84
-1773.99 4677.62 1387.49
-1930.4 4609.65 1517.78
-1911.2 4434.71 1574.4
-2020.3 4929.18 1316.07
-1967.2 4787.89 1425.89
-1831.61 4967.68 1193.5
-2174.35 4236.26 1820.07
-2110.39 4520.26 1648.42
-2265.26 4459.04 1737.09
-2644.55 4844.55 1333.18
-2446.06 4653.09 1589.26
-2324.75 4901.3 1350.45
-1343.77 5684.87 -46.489
-1665.26 5662.59 -655.638
-1358.78 5295.26 508.964
-1351.53 5542.72 194.072
-842.41 6031.6 -303.727
-932.487 5929.61 -141.672
-822.71 5970.59 -184.742
-1118.28 4210.17 1057.05
-1550.86 4803.14 1126.98
-732.938 5406.67 168.774
-1156.92 4895.99 591.907
-233.245 4646.58 585.999
-1657.49 5012.51 1012.51
-1494.74 5131.26 871.347
-193.17 5722.71 -591.667
-335.041 5725.87 -324.319
-184.27 5554.25 -418.328
-663.336 5933.69 -209.788
-499.635 5848.92 -244.372
-558.572 5980.07 -430.745
-428.133 5397.37 39.3962
-463.218 5696.74 -143.611
-562.323 5635.92 -26.3427
-899.86 5590.94 233.023
-766.511 5681.45 62.2623
-773.786 5842.36 -44.6935
-1694.09 5839.96 -1202.38
-2210.24 5727.83 -1208.27
-762.159 6036.32 -545.646
-1241.01 5915.65 -727.01
-2088.42 5891.45 -1636.29
-1888.6 5811.46 -1420.81
-1895.94 5829.54 -1567.69
-12.095 5631.56 -861.88
-165.201 5787.87 -758.104
-250.684 5869.24 -976.037
-194.201 5846.29 -848.911
-53.5082 5699.44 -950.552
-363.053 5942.01 -705.637
-514.375 6012.82 -635.895
-1636.69 5249.99 -2225.35
-1359.91 5478.29 -1861.17
-1118.98 5171.72 -2015.48
-1686.92 5771.69 -1731.69
-1513.52 5675.83 -1790.55
-1890.24 5759.74 -1943.6
-283.872 5575.66 -1283.55
-817.735 5661.38 -1523.08
-428.981 5786.7 -1221.02
-601.064 6033.66 -850.843
-503.079 5959.87 -1058.72
-1123.15 5841.96 -1300.1
-2405.45 5765.11 -1344.46
-2452.11 5599.82 -901.513
-2214.94 5932.3 -1751.34
-2321.9 5885.52 -1572.94
-2796.42 5421.15 -1252.86
-2616.78 5705.87 -1440.34
-2778.77 5532.5 -1523.44
-1732.98 5135.46 -2373.92
-1832.36 5251.01 -2342.18
-2082.55 5228.2 -2333.34
-1909.02 5250.57 -2410.5
-1902.26 5098.27 -2468.78
-1934.25 5557.37 -2190.12
-2044.23 5788.03 -2037.67
-2631.32 4534.22 -1445.55
-2634.27 4793.03 -1688.19
-2490.63 4486.6 -1719.93
-2842.63 5262.92 -1635.9
-2784.89 5167.13 -1659.42
-2856.65 5148.22 -1424.02
-2268.2 4782.5 -2130.31
-2555.04 5028.35 -1912.2
-2387.38 5144.7 -2103.88
-2372.75 5732.84 -2007.52
-2446.15 5396.49 -2124.86
-2696.33 5500.2 -1848.95
-2646.57 5255.55 -419.937
-2865.04 5135.16 -843.585
-2798.72 5198.08 -648.321
-2888.92 5006.8 195.162
-3097.92 4845.06 528.338
-2671.49 3675.63 -836.995
-2765.52 4383 -884.804
-3250.35 3914.47 49.7073
-3049.69 3991.31 -389.836
-3211.55 3484.92 -92.4884
-2844.08 4827.49 -1014.83
-2869.73 4978.72 -1043.32
-3264.98 3871.64 1180.24
-3259.75 3566.38 1296.93
-3242.41 4592.77 769.674
-3264.24 4285.22 953.839
-3362.55 3549.22 504.65
-3338.6 3902.25 711.033
-3354.85 3905.12 411.719
-3002.49 4738.5 -221.384
-3259.8 4302.73 222.263
-3241.73 4631.12 364.799
115.284 5061.56 -316.147
66.3268 5236.59 -493.124
115.512 4597.19 756.597
-228.299 4733.52 393.475
920.583 4121.17 540.285
653.474 4334.98 474.219
874.554 4131.02 711.977
-301.097 3953.65 1399.06
-3.26363 4107.51 1264.18
541.418 3913.79 1306.53
311.388 4022.75 1297.03
410.387 3712.35 1469.5
168.606 4228.19 1118.76
250.433 4364.47 916.389
1453.45 3305.21 995.04
1271.42 3459.64 1138.01
1297.37 3221.8 1265.84
1062.5 3895.06 882.551
1178.76 3698.93 1005.64
1262 3737.7 774.579
876.645 3480.99 1440.32
1050.79 3618.51 1231.49
838.479 3756.06 1290.71
529.942 4218.47 964.857
695.612 4010.62 1143.04
809.038 4077.1 936.92
-1875.74 3937.73 1810.88
-1195.65 4028.82 1274.57
-2151.27 3910.02 1930.29
-2040.75 3970.12 1861.73
-553.245 3328.73 1860.62
-1662.52 3847 1838.03
-1369.84 3519.33 1581.31
-2998.78 3451.43 1650.57
-2817.41 3595.45 1784.73
-2201.38 3340.68 1930.75
-2514.71 3487.24 1900.16
-2314.73 2978.34 1663.59
-2541.45 3749.45 1932.85
-2301.95 3829.95 1987.85
-528.158 1806.14 2022.18
-736.785 1806.04 1985.84
-852.972 1391.34 2003.3
-991.094 2830.24 2017.75
-679.3 2536.45 2047.38
-364.994 2613.73 2065.34
-1679.48 1559.42 1674.83
-1186.5 2097.55 1865.42
-1729.05 2734.78 1803.88
-2114.21 3616.81 2025.89
-1966.9 3508.55 2031.28
-1901.8 3478.84 2032.57
-3200.66 3269.02 1122.08
-3157.97 3343.53 1394.04
-3276.52 3066.73 349.114
-3219.08 3150.85 648.716
-2915.8 2256.99 971.329
-3166.13 2716.97 780.578
-3069.01 2335.46 627.065
-2674.88 3058.39 -846.533
-2877.61 2984.71 -606.219
-2903.92 2259 -424.39
-2924.27 2598.96 -518.546
-2759.89 2295.3 -657.175
-3065.51 3030 -254.721
-3205.07 3030.06 38.1378
-2443.5 856.331 235.805
-2584.53 1042.85 -37.4163
-2452.3 862.09 -238.779
-2783.41 1719.56 434.557
-2646.49 1252.3 212.203
-2492.33 1277.76 740.614
-2529.59 1201.48 -420.971
-2623.37 1202.77 -209.285
-2602.34 1586.08 -261.447
-3237.15 2646.99 172.506
-3017.28 2258.5 -63.1275
-3109.89 2310.31 288.933
-2246.36 4340.84 -1881.7
-2343.52 3919.24 -1050.96
-2031.14 4588.15 -2180.94
-2176.6 4431.22 -2008.6
-1864.65 3216.76 -1381.71
-2067.2 4153.43 -1843.6
-1931.11 3910.45 -1713.3
-1492.75 5177.24 -2248.61
-1759.33 5131.84 -2390.81
-1897.57 4631.5 -2116.41
-1877.32 5014.24 -2241.79
-1558.41 4774.84 -1983.19
-1901.78 5097.98 -2467.88
-1908.34 4885.41 -2400.39
-745.021 1903.93 -1600.51
-745.652 2226.02 -1626.41
-483.894 2069.92 -1621.53
-1469.59 3050.14 -1697.85
-987.468 2524.79 -1604
-1198.98 2114.29 -1453.41
-553.268 2895.15 -1624.78
-891.218 2712.37 -1634.47
-1756.72 3536.93 -1681.77
-1882.08 4478.16 -2231.78
-1871.07 4346.27 -2181.94
-1821.56 4104.65 -2074.24
-539.781 5278.17 -1703
-1218.01 5213.28 -2016.76
[...]
POINT_DATA 642
SCALARS Mean_Curvature double 1
LOOKUP_TABLE default
0.000639921
0.000213693
0.00219853
0.00227192
0.00029048
0.00304741
0.00173365
-0.0229958
0.00136809
0.00104264
0.00632966
0.00334648
0.00188788
0.00175084
0.00185993
0.00943361
0.00450559
0.00173488
0.00362588
-0.000161393
0.00251989
-0.000112565
0.000785054
0.00133453
0.000459826
0.000420368
0.000556509
0.000278644
-0.00265939
-0.00109531
0.00302063
0.00218734
0.00220106
0.000908897
0.00215332
0.00231694
1.3222e-05
0.00282032
0.00267045
0.0002088
0.00291683
-0.00127634
0.00132424
0.00158052
-0.00168708
0.00138116
0.00174854
0.00133754
0.00161443
0.0014245
0.00072701
0.00128835
0.00169402
0.000668271
0.0085656
0.00168449
0.0022689
-0.000125463
0.000194982
0.00173092
0.0103648
0.00368832
6.7196e-05
0.00196488
-0.00188924
0.00322672
0.00172759
-0.0208925
0.00261924
9.43611e-05
0.00216291
0.00193347
0.00156239
0.000493703
-0.000992419
-0.000183056
-0.000112426
7.43034e-05
-0.0017124
0.000886681
0.00151937
0.000981108
0.00143761
0.000964475
0.00327723
0.00165926
0.00125629
0.00372697
0.00156861
0.0047447
-0.000938757
0.00191779
-0.00037661
0.00149521
0.00066967
0.00243666
0.000377873
0.00497875
-0.00211834
-0.000575425
-0.00562877
-0.0116383
0.0018928
-0.0108857
-0.000127714
0.00914794
0.0113456
-0.00933854
-0.000716379
0.000590244
-0.00444052
0.00087949
0.00163568
0.00163222
0.00135239
0.000519874
0.000340437
0.00317618
7.85309e-05
0.000813689
0.000592308
0.000128245
0.000149811
0.00322048
0.00268117
-0.000356797
-6.7239e-05
0.00147664
0.0017211
0.00079001
0.000577493
0.00131563
0.000298884
0.00253881
0.000103924
9.03867e-05
0.00189147
0.0012187
0.00211096
0.000142508
0.000708805
0.000914481
0.00104136
0.00188748
0.00350751
0.00510795
-0.000761635
0.000424101
0.000731653
0.00130624
0.00275975
0.00493864
-0.000432148
0.00190892
0.00241034
0.000662017
6.55192e-05
0.002386
-0.00347012
0.00103363
0.00126351
0.000382003
-0.00077227
0.000221386
-8.16734e-05
0.00157416
0.00153939
0.00157885
0.00295297
0.00116888
0.00144394
0.0020907
0.00137607
0.00262674
0.00167031
0.00186484
0.00189454
0.00147705
0.00116168
0.0015458
0.000765833
0.00182338
-0.000100051
0.00210644
0.00208476
0.00420049
0.00207356
0.00143655
0.00224711
0.00169049
0.00148401
0.00129564
0.00064667
-0.00078675
-0.00233793
0.00148716
0.00361139
0.00244382
0.00386343
-0.00316276
0.00111367
-0.00120171
-0.00189336
-0.00132508
0.00060572
-0.00600877
0.000893821
0.00199417
0.000403625
0.00241185
0.00240088
0.00161831
-0.00546242
0.00207847
0.00300939
-0.00486164
0.00321317
0.00409646
0.00247272
-0.000478015
0.00105897
-1.71889e-05
0.00226528
-0.00480759
0.00090461
-0.0032283
0.00192844
0.00296733
0.0038804
0.0044093
0.00148651
0.00316861
-0.000839655
-0.000523216
-0.00690827
0.00134929
0.00138918
0.00124472
0.000948405
0.00211007
0.00146663
0.0017889
0.00259119
0.000619028
0.00134325
0.00132402
0.00441565
0.0035714
0.00150726
0.00237147
0.00285102
-0.0178821
-0.000712928
0.00185377
0.00780199
0.00388531
0.00300183
0.00396932
-0.00141307
0.000982807
0.00101776
0.00476178
0.000751048
0.00298725
0.00136308
0.000477207
0.000307426
0.00275637
0.00281525
0.00298439
0.000954774
0.00214137
0.00130464
0.00107849
0.00162173
-0.00273558
-0.000947212
0.000561857
0.00147802
0.00114437
0.00102892
0.00154279
0.000600556
0.00213171
0.00230707
0.000999092
0.00216636
0.000841183
0.00154671
0.000645881
0.000772035
0.00220935
-0.000156976
0.00179374
-0.00662656
-0.00316146
0.000885007
0.00143096
0.00150901
0.00189451
0.00040624
0.00104397
0.00115808
8.63336e-05
0.000664693
-0.000382062
0.00111126
0.00140762
0.00121717
0.00105368
0.00122104
0.00136838
0.00068383
0.00106424
0.00137393
0.00139157
0.00147346
0.00119467
-0.00242837
-0.00256722
0.000417829
0.000493521
0.000967764
0.00786046
-0.00355185
0.0023356
0.00110044
0.00130937
0.00106655
-0.00131896
0.00148417
0.00253867
0.000191819
-2.43347e-05
0.00112775
-0.0017653
0.000890427
-0.000248548
-0.00145793
-0.000169603
-0.000558978
-0.00362177
0.00199331
0.00549657
0.000989352
0.00225156
0.00130251
-0.000775178
0.000999511
0.00126362
0.000599502
0.00188479
0.000518655
0.00134281
0.000953373
0.00127258
-3.74815e-05
0.00052995
0.00184223
0.00169876
0.00254485
0.000483093
0.000628453
-0.00155333
0.00123536
0.00185861
-0.000740488
0.00187092
0.000603476
0.00104566
0.00116751
-0.00232263
-6.70542e-05
0.0014835
0.000729399
0.00412081
-0.00279068
-0.042678
-0.0198699
-0.00260895
-0.00446934
0.00150821
0.0186633
0.00185699
0.000866652
0.000963953
0.000113768
-0.00319237
-0.000169019
0.000602984
0.000228175
0.00038792
-0.00195837
0.0133998
0.00762416
-0.00168328
-0.00822861
0.053121
0.00236977
-0.000523861
0.00143809
0.0207639
-0.00710411
-0.00511498
-0.0253256
0.000555772
-0.0674136
0.0718914
0.0116172
0.0010192
0.00117301
0.000842837
0.00122404
0.00955163
0.000791152
-0.00258663
-0.000710686
0.000304107
-0.00215321
0.00405471
-0.000469645
-0.00152469
0.000672618
0.00130935
0.00184843
0.00190726
0.00136751
0.002331
0.00230961
0.000454585
0.00133062
0.000715111
7.39213e-05
-0.000276701
8.08925e-05
1.59093e-06
0.000940969
0.00145023
0.00124092
0.00154111
-0.000155931
0.00202986
0.000219722
0.00109567
0.000577938
0.00152544
0.001372
0.000856084
0.000306713
0.00179309
0.000574898
-7.8007e-05
0.000318041
0.00106531
0.00165602
0.000526402
-1.16367e-05
7.99273e-05
3.86323e-05
0.00334327
0.00324645
0.00271414
0.00219231
-0.000401745
0.0011539
0.00143478
0.000338699
0.00250843
0.000803812
-5.04734e-05
0.000623895
-8.17109e-05
0.00213088
-0.0005067
0.000506017
0.00110377
0.000757368
-0.000320159
0.00109769
0.0013882
3.83795e-05
0.00028
0.0021947
0.00254644
0.00217093
0.00295595
0.00113044
0.00261735
0.00194298
0.00174107
0.00012574
-5.19095e-05
0.00125621
0.000507431
0.00111194
0.00110829
-2.2575e-07
0.000580316
0.00349765
0.00102158
0.00196705
0.00176028
0.00154168
0.000882297
0.000899674
0.00140989
0.000945237
0.000512411
0.00178858
0.00118248
0.00124189
0.00130203
0.000719707
0.00078136
-0.00044228
0.000455022
0.000200199
0.00100248
0.000702029
0.000273392
0.000804653
0.00047902
-0.000632494
0.00239521
0.0013062
0.000401906
0.000814977
0.00140476
0.00148612
0.000594141
0.00130696
0.00215628
0.00188784
0.00178039
0.00127405
0.0010398
-0.000609184
0.00153222
0.00148285
0.000563831
0.00059982
0.0038261
0.00218544
0.00162372
0.00201276
0.00371184
8.17263e-05
0.000925091
0.000551865
0.001687
0.00404082
0.00355847
0.00125518
0.00109791
1.6026e-07
0.00245998
0.000254194
0.00111481
0.000835751
0.000759055
0.00081914
0.000965396
-0.000624894
0.00145469
0.000365157
3.20782e-05
0.0005522
0.00214084
0.000563222
0.00188486
0.000975414
0.00305115
0.00232748
0.00258866
0.00172237
0.00306692
0.00189219
0.00193475
0.00208675
0.00258399
0.000409868
0.000438498
0.00131243
0.000781623
-5.16571e-05
0.00394168
0.00158079
0.00192336
-0.00032173
0.00335649
0.00423819
-0.000207468
-0.00110169
0.00288068
0.000879864
0.00432633
0.00171085
0.00245402
0.00064886
0.000205544
0.000297902
0.00160805
0.000906226
0.00193321
-0.00199622
-0.000709747
0.000969442
0.000385713
0.000756116
0.00134517
0.000665392
0.000438596
-0.000181528
0.000194694
0.00128837
0.000300001
0.0070864
-0.00171768
-0.00166059
-0.00178051
-0.0110516
0.00140507
0.00159112
-1.64209e-05
0.00136429
0.00134122
0.000741818
0.00125378
0.000726414
0.000944301
0.00282568
0.000901045
0.00116236
0.00119866
-0.00128844
0.000238039
-0.000243709
-0.00289841
-0.00850847
0.00139986
0.00126319
0.000354913
SCALARS CoVolArea double 1
LOOKUP_TABLE default
249381
65455.2
91482.4
90917.2
64287.2
186647
65282.6
20286.1
79174.4
112763
192833
53946
95727.7
65127.2
83632
163153
32768
61414.1
51404.9
83944.5
73138.9
138655
93482.3
65752.9
277273
225301
142478
228161
613196
378669
105560
259575
100319
151129
124227
122529
392706
79384.2
78866.7
108363
64856.7
157213
148942
86841.8
222397
91583.6
107069
113861
47857.4
66608.3
56096.5
86144.6
178064
400034
145315
52059.2
32914.6
170694
186489
68486.1
14016.3
40342.6
97259.8
133993
174615
93790.3
129781
8541.76
90150.1
134035
71050.6
92767.7
147694
261346
234442
129769
146830
143497
159765
130754
65220.3
66954.6
67461.9
77657.8
104737
280687
156015
59727.6
123915
258136
182549
128925
196342
99329.6
144136
130643
207013
51874
70947.9
342412
89975.1
39731.2
126198
125412
126196
17068.4
108040
64879.7
33454.5
102014
304119
80292.1
119113
152504
140039
165421
127375
65517.9
160537
175574
125266
215861
190274
101143
122203
176957
247710
121856
120691
142970
113205
129503
147073
117675
71993
171681
103396
105452
82476.8
110798
121079
118133
112697
120402
37306.5
27466.6
126289
94910.1
88525.2
79425.7
86602
45470
193391
67046.5
91866.4
224531
123333
78182
468048
87011.7
66169.1
175290
251561
210086
409639
97192.9
86397.6
96486.4
128662
97650.9
78659.3
77504.8
107068
85931.5
84850.8
97150
81095.7
103816
113942
111764
108745
41291.7
145039
63824.9
44850.7
41403.2
45616.5
45807.7
65139.8
113837
98677
96407
273702
380641
160150
153461
55507
77436.4
24486.2
337674
273956
284033
424155
372357
117285
68090.9
51616.1
47803.6
83618.1
32908.7
41685.2
42327.9
108777
39824.9
71851.4
73121.9
53830.1
35209
165832
184351
113879
96991.8
32345.1
57293.8
110072
35570
33422.6
52667.4
28228.9
36263.1
37961.7
43289.4
94967.5
191495
130778
112022
110197
64539
98274.8
138444
97738.8
137353
110255
198845
83258.9
143640
70217.2
49578.8
99832.5
74992.1
82330.2
16293.1
42945.2
79421.1
37121.6
22964.4
56112.8
72498.6
185134
109036
163339
56229
64199.9
46446.2
108052
103575
100228
125015
111149
109713
177850
134838
141938
144111
116558
283623
298580
196633
216850
166484
146338
132879
128068
85725.5
109589
132062
128745
144610
126665
222052
198558
152349
297601
112215
130084
382723
102678
239493
68116.7
283503
195729
74124.1
72579.3
93811.9
140150
116252
95757.9
70634
98944.2
65019.3
63541.1
58280.4
80986
70257.2
76593.4
83459.3
73122.8
72575.3
225708
426615
39974.8
54206
161880
133123
376097
77496.1
82766.9
211700
116672
282194
83146
62496.7
127691
222421
77290.3
242858
246463
98999.3
256694
456125
391184
21852.9
123911
146496
149732
98152.3
129574
165468
213732
180050
199093
214745
196404
171341
125818
129848
159110
144993
131613
95132.2
81148.4
249491
158043
175208
62987.1
95411.3
170502
131909
200781
189447
207086
442988
75279.3
63681
200324
71993.6
217116
10781.8
23649
318498
98488.9
243667
18930.8
32154.1
97662.1
100060
65867
297234
152383
269890
396985
205532
518293
37354.8
72172.6
127777
60482.6
19047.6
51124.6
64765.7
309078
10921.8
38491.8
75764.9
11057.3
81616.5
8370.19
15730.9
21752.1
51642.5
66035.2
91917.2
67204.2
125419
185022
121453
139906
223999
307375
36426.4
154422
78941.5
122851
137298
114895
109227
123368
100567
123966
147480
157005
147641
134677
113963
186245
161542
151411
70541.9
96365.8
90686.3
104325
141352
137758
153611
151847
138099
123696
132939
182781
141584
191623
194627
144478
114418
136687
143588
298687
239574
385397
48796.3
92132.8
133283
110001
156900
119921
136179
126585
133557
148620
369757
185926
294485
98215
139538
156648
182431
194470
311736
142583
124019
232429
168808
98751.7
106768
92944.1
84857.3
136944
93931.2
119090
112612
199561
260237
117350
125884
108361
111342
120348
95069.3
44232.8
86462.8
82514.7
155737
124779
142608
132609
114456
130795
149819
84581.5
122329
120254
75832.1
135226
83059.7
107586
103299
108925
87836.2
153440
162859
110694
92530
105319
40324.2
104237
141165
106002
150576
116088
165037
120187
91337.2
104212
109846
110775
116471
138904
78768.8
92293.2
122946
55910.1
45636
79505.7
123031
78785.9
40097
129571
60239.9
65432.2
78136
33435.6
80184.1
134157
112732
109769
73417.3
91911.9
114199
101063
87499.4
108908
103516
300537
96923
123359
125753
102879
93845.1
90697.3
85282.4
140790
94597.1
101365
108823
133068
62473.6
106608
58666.8
94986.2
110765
175703
190557
238512
271835
247241
77618.2
94095.1
111395
88627
48607.5
34464.6
95084.5
260300
76693.5
111403
52500
98528.9
94684.7
255380
323453
217391
124946
185352
107449
210761
217647
74357.6
109685
82747.7
96011.5
344805
82129.4
175483
104858
91976.5
114145
132251
814592
581898
227655
184196
107507
91191.9
381071
108806
145857
124617
71957.3
75391.4
80332.9
77539.3
66403.5
88206.6
125258
239263
111999
258845
210022
94111.2
89608.7
100553
98908.8
SCALARS SignedDistance double 1
LOOKUP_TABLE default
339.812
382.254
224.697
211.191
357.31
464.005
350.408
658.379
325.769
302.973
548.949
213.63
227.379
313.783
354.657
720.692
293.371
280.607
366.248
357.189
282.619
287.802
350.722
352.696
352.414
328.016
406.32
320.862
978.059
447.785
657.931
854.749
232.044
280.784
218.152
216.008
265.631
254.638
274.836
356.253
304.741
378.593
286.403
273.293
381.892
253.413
234.065
229.48
357.027
334.273
367.341
342.376
293.11
509.88
594.688
333.014
352.056
419.961
628.295
368.41
355.366
295.16
338.584
700.899
556.838
232.547
241.17
531.451
242.623
304.399
275.422
302.381
322.986
316.931
350.309
271.933
271.196
356.933
582.651
346.73
335.895
323.095
320.567
316.062
377.086
639.494
271.522
374.428
334.364
750.832
402.103
255.445
298.396
293.262
285.4
315.746
349.613
323.353
564.418
758.22
597.384
536.323
314.509
918.172
353.917
411.485
764.795
626.645
472.629
369.452
736.687
343.316
197.873
213.245
218.913
292.499
298.103
280.349
272.756
252.016
308.776
265.958
261.017
290.63
228.62
270.861
260.325
260.227
260.26
246.928
244.312
266.821
303.414
268.786
359.04
297.538
219.698
316.005
345.824
342.476
320.771
334.89
251.354
309.896
292.334
311.191
375.125
330.198
321.21
341.609
246.972
342.129
415.449
359.054
391.533
340.843
384.317
358.502
1027.73
336.225
334.738
362.654
322.966
346.872
312.785
265.937
290.669
263.25
354.496
330.495
301.829
231.695
223.437
215.512
295.505
239.806
300.021
225.015
224.73
224.255
371.352
372.583
387.784
314.063
337.507
349.302
353.459
357.404
330.141
262.629
293.592
297.092
310.104
510.415
455.756
334.491
282.786
296.345
299.316
496.525
425.336
452.533
494.61
676.789
410.604
559.552
359.926
376.865
396.145
309.81
340.3
294.404
498.304
396.3
417.538
470.781
391.483
339.64
706.068
352.599
276.538
415.212
371.454
483.34
442.389
351.131
336.976
280.994
322.999
326.476
300.246
295.751
496.025
686.778
933.019
508.65
603.549
322.917
307.437
643.195
272.752
273.749
243.717
667.46
304.764
286.533
326.495
318.96
239.302
231.055
216.723
542.175
419.58
312.063
423.868
530.418
285.806
275.781
338.084
316.487
322.589
277.528
270.041
294.997
285.64
272.04
256.919
167.922
242.486
204.512
276.878
283.091
270.426
286.162
239.485
539.81
367.015
267.088
330.54
294.027
300.326
293.67
265.646
260.073
241.826
264.63
299.787
261.611
284.671
332.476
290.931
241.315
610.562
484.644
619.098
726.318
359.498
396.719
347.214
361.556
360.661
339.638
341.369
364.2
364.524
397.135
309.354
304.935
300.697
336.291
324.86
326.591
325.829
318.641
317.525
353.575
333.279
344.361
415.401
487.475
358.775
367.089
447.057
574.304
470.218
236.518
270.273
412.469
288.424
385.626
268.116
327.368
300.94
339.418
357.057
430.744
325.826
338.36
434.671
435.668
407.079
423.592
534.182
577.506
306.55
244.5
299.087
323.904
246.992
250.441
258.354
366.05
306.178
261.935
290.583
271.246
299.62
297.963
205.342
274.038
208.086
306.549
347.291
401.802
347.654
324.876
400.381
263.897
278.39
265.501
424.356
551.496
440.117
421.788
591.58
608.083
845.069
663.688
541.621
429.41
375.376
550.308
534.898
520.374
334.327
358.803
353.829
803.726
356.681
345.857
421.184
366.773
1002.42
625.145
687.821
839.146
727.253
846.716
349.34
450.553
524.71
521.757
393.577
428.585
482.19
696.852
595.56
828.257
465.01
327.828
343.959
354.151
334.853
867.383
396.676
438.96
360.898
371.96
673.56
410.081
450.229
417.399
228.498
210.006
240.688
210.677
204.608
192.551
213.873
240.412
231.651
289.03
323.268
328.089
297.781
298.973
285.344
246.189
278.934
271.016
334.86
287.612
303.634
262.91
245.6
221.735
275.763
268.264
279.684
264.353
281.055
268.037
258.927
259.481
254.011
257.775
263.068
265.573
261.806
316.321
276.532
226.157
206.78
273.858
244.572
226.216
263.507
240.876
230.188
263.924
340.48
264.399
251.804
262.593
243.125
249.184
261.053
285.643
242.068
234.298
281.568
264.423
229.743
246.59
243.979
237.724
257.333
228.947
246.384
237.727
262.711
264.046
300.629
321.779
330.813
283.412
301.134
296.715
342.195
332.884
274.586
272.029
236.661
250.91
253.768
220.066
268.824
270.947
254.011
267.076
291.244
353
310.913
354.292
345.853
339.393
330.775
297.078
321.869
326.545
339.759
366.289
350.832
323.511
330.724
320.58
318.099
265.838
311.267
316.904
218.344
236.068
215.671
209.962
233.006
324.271
344.81
312.135
323.765
371.736
300.474
308.32
314.062
322.453
264.208
306.91
368.203
298.769
305.157
287.954
305.284
281.858
282.644
286.084
313.688
341.24
333.578
301.177
326.364
316.771
308.521
310.25
406.513
347.374
365.601
372.874
352.072
304.108
334.914
317.736
218.087
170.679
186.452
272.808
328.176
344.149
361.018
383.967
403.613
279.99
304.723
384.093
248.241
291.225
422.371
280.403
339.273
329.088
395.622
345.38
355.373
396.469
451.663
221.338
374.953
353.638
331.49
342.409
354.084
344.8
375.814
299.404
310.64
370.298
442.295
472.007
349.612
367.485
362.821
360.2
399.092
355.847
459.677
358.323
342.756
350.062
799.829
679.996
847.441
678.666
1058.91
359.796
490.209
398.565
308.82
306.796
317.691
328.571
346.85
336.324
345.698
339.125
328.529
322.939
686.588
360.901
376.665
813.666
500.444
339.188
349.95
353.516
