# vtk DataFile Version 4.2
vtk output
ASCII
DATASET POLYDATA
POINTS 642 double
-3535.67 8302.75 -49.1832
2461.76 8264.58 -48.5224
-3544.96 -1455.91 -47.8328
2497.28 -1457.97 -47.6932
-524.823 417.908 4826.76
-526.366 6411.03 4773.82
-524.626 441.569 -4883.45
-525.625 6442.88 -4920.61
4299.38 3430.07 -3028.34
4321.03 3429.87 2946.2
-5382.15 3432.42 -3050.4
-5404.7 3431.26 2968.12
-5163.4 6297.83 1723.96
-3384.26 5198.18 4578.28
-2286.11 8040.29 2801.08
1220.7 8003.11 2776.02
-524.652 9141.69 -48.1932
1236.3 8042.74 -2897.61
-2304.12 8089.45 -2927.02
-3399.84 5208.58 -4699.73
-5179.03 6308.08 -1826.12
-6250.6 3431.22 -47.4893
2307.37 5180.41 4533.88
4053.3 6259.51 1700.73
-3381.77 1664.31 4574.41
-524.616 3430.41 5630.59
-5154.97 568.502 -1816.13
-5162.41 563.999 1723.95
-526.329 3432.95 -5721.01
-3356.32 1680.72 -4629.06
4040.42 6252.91 -1791.59
2303.31 5180.08 -4623.92
4126.27 556.531 1728.43
2328 1667.49 4567.24
1249.62 -1213.64 2822.57
-2302.34 -1222.65 2828.16
-524.686 -2286.44 -47.8539
-2293.17 -1199.39 -2909.25
1243.34 -1197.46 -2908
2314.28 1675.79 -4640.45
4113.55 564.372 -1818.91
5190.48 3429.58 -47.5395
-4495.57 7448.61 871.48
-3887.2 7367.92 2384.13
-2999.38 8350.14 1434.42
-4548.34 4351.77 3928.28
-4468.34 5867.01 3319.71
-5473.6 4922.18 2441.21
-1438.98 7375.64 3943.58
-2953.46 6788.03 3883.19
-2006.98 5904.05 4869.26
-1450.71 8848.47 1448.07
-2084.45 8921.44 -48.6645
379.178 7339.17 3906.36
-525.222 8253.2 2933
1032.4 8914.46 -48.3765
400.386 8842.82 1446.48
1934.6 8323.29 1424.95
-1454.69 8863.81 -1549.6
-3022.58 8397.58 -1544.63
1945.99 8344.8 -1528.32
404.108 8864.15 -1548.95
-1448.93 7421.02 -4084.96
-525.763 8288.77 -3051.8
389.195 7383.22 -4046.68
-3911.97 7397.61 -2498.45
-4513.3 7467.32 -972.197
-2017.88 5923.7 -5003.24
-2973.9 6816.95 -4012.22
-5481.63 4925.44 -2541.32
-4487.65 5879.68 -3432.41
-4549.14 4353.12 -4025.2
-5397.06 6443.77 -48.0847
-6016.48 3431.45 -1607.37
-5965.35 4934.98 -978.512
-5978.24 4938.06 884.7
-6040.28 3431.31 1519.11
2793.11 7315.44 2351.44
3387.91 7390.69 857.548
944.016 5881.12 4825.1
1875.8 6748.97 3838.16
4372.06 4905.72 2414.72
3372.35 5837.09 3279.63
3461.78 4342.59 3891.55
-2024 4358.65 5376.57
-525.783 4976.23 5393.2
-4543.74 2512.01 3923.68
-3531.63 3431.3 4814.62
-524.583 1873.46 5431.97
-2017.8 2506.89 5355.15
-2012.88 946.543 4890.84
-5969.76 1926.63 883.137
-5461.15 1944.1 2434.92
-5442 1949.31 -2520.49
-5960.43 1929.22 -976.867
-4508.47 -600.427 874.759
-5396.77 418.102 -47.8695
-4507.59 -599.494 -969.93
-3528.47 3432.2 -4905.95
-4509.72 2520.42 -3986.11
-525.537 4995.27 -5552.73
-2029.7 4363.47 -5494.71
-2001.47 965.071 -4948.34
-2012.32 2512.02 -5431.46
-524.509 1882.08 -5497.96
1888.75 6769.09 -3955.68
948.245 5892.53 -4941.46
3409.24 7413.28 -959.377
2812.31 7339.98 -2461.81
3442.03 4337.99 -3967.29
3366.11 5835.23 -3370.85
4356.61 4901.02 -2502.22
3467.11 -607.87 876.322
2852.9 -523.62 2394.88
1968.58 -1525.43 1445.44
3478.32 2514.25 3907.27
3421.93 992.962 3321.75
4420.17 1940.75 2438.74
396.189 -546.82 3976.77
1911.2 63.5005 3894.73
960.84 950.959 4881.99
408.659 -2025.97 1460.22
1043.66 -2087.78 -47.6508
-1446.84 -552.217 3982.33
-524.705 -1455.15 2973.14
-2092.94 -2088.97 -47.6455
-1458.32 -2027.91 1460.85
-3020.2 -1530.79 1447.39
407.049 -2016.55 -1552.96
1962.31 -1513.01 -1537.09
-3014.34 -1518.77 -1538.85
-1456.3 -2017.31 -1553.22
391.686 -526.092 -4050.94
-524.679 -1432.85 -3054.78
-1441.97 -530.683 -4055.74
2839.44 -507.98 -2480.38
3461.27 -601.971 -970.353
951.365 967.079 -4945.11
1899.32 79.5245 -3971.43
4406.55 1944.75 -2527.03
3400.42 1006.4 -3398.62
3455.94 2519.23 -3980.79
4365.12 407.855 -47.6724
4951.59 3429.58 -1602.46
4928.25 1924.1 -979.763
4933.82 1922.59 885.26
4971.25 3429.67 1512.85
971.455 2504.57 5366.71
2465.97 3430.45 4788.41
966.008 4352.89 5346.91
-3905.18 -527.781 2397.72
-2967.1 54.3199 3905.64
-4474.36 990.085 3325.53
-2950.05 77.2558 -3974.19
-3890.69 -510.732 -2482.11
-4442.08 1010.55 -3392.47
2447.35 3430.34 -4853.11
961.09 2510.55 -5425.32
953.267 4349.07 -5403.53
4873.29 4921.44 875.361
4867.44 4919.88 -969.678
4283.27 6403.23 -47.6534
-4043.24 7910.2 414.97
-3789.32 7960.24 1169.29
-3287.88 8363.88 699.994
-4575.36 6877.06 2080.79
-4229.84 7449.51 1646.09
-4871.52 6907.57 1310.66
-2663.13 8241.16 2139.02
-3473.26 7906.21 1929.75
-3117.24 7758.74 2625.65
-5020.27 3896.32 3483.04
-5071.1 4652.65 3228.47
-5487.4 4184.07 2731.68
-3968.99 5558.35 3999.98
-4549.71 5127.53 3662.57
-3999.26 4788.6 4295.68
-5365.19 5631.5 2103.24
-5017.42 5416.19 2911.58
-4870.06 6115.36 2554.59
-986.457 6926.59 4402.45
-1738.11 6683.34 4465.14
-1271.93 6185.15 4869.49
-2645.05 7464.66 3384.12
-2212.75 7121.52 3955.26
-1875 7748.96 3405.89
-2715.98 5572.71 4771.32
-2500.42 6375.48 4422.01
-3201.7 6026.03 4284.88
-4227.32 6661.67 2891.32
-3753.31 6367.99 3651.64
-3459.48 7127.18 3177.5
-2566.02 8697.21 701.363
-2831.21 8663.12 -49.3207
-1882.19 8493.77 2145.55
-2238.91 8644.24 1454.58
-1312.12 9087.26 -48.1212
-1779.48 8943.12 708.889
-994.768 9066.32 710.337
-68.1308 6909.42 4380.71
-526.31 7414.64 3983.5
360.778 8190.71 2893.54
-66.9615 7843.02 3458.14
811.031 7706.77 3370.39
-986.483 7859.35 3472.29
-1413.98 8203.64 2903.18
1770.37 8639.52 -48.4484
1512.14 8687.47 699.983
2224.32 8341.02 696.254
-54.8779 9063.47 709.921
728.389 8935.58 707.798
262.198 9083.17 -48.2982
1598.08 8210.81 2123.42
1186.23 8636.61 1451.92
830.143 8487.5 2141.78
-993 8621.48 2223.32
-56.8122 8618.73 2221.89
-524.723 8921.71 1468.57
-2582.14 8737.49 -804.763
-3307.54 8399.64 -802.712
-995.25 9073.72 -807.738
-1782.31 8949.78 -806.813
-2683.67 8289.26 -2256.44
-2258.92 8702.72 -1568.23
-1899.42 8556.92 -2269.62
2232.24 8354.78 -795.16
1517.6 8701.26 -798.622
838.227 8517.01 -2251.42
1193.62 8658.5 -1554.77
1612.08 8240.68 -2234.08
731.483 8948.52 -806.156
-53.8326 9074.75 -807.947
-990.985 6965.5 -4547.37
-525.993 7460.23 -4125.55
-62.6373 6950.8 -4528.97
-1425.15 8261.47 -3034.78
-992.049 7911.89 -3610.23
-1890.12 7799.49 -3541.92
826.176 7754.92 -3505.62
-62.6378 7882.43 -3586.59
367.915 8226.22 -3012.33
-524.564 8940.8 -1570.41
-54.0731 8647.84 -2331.22
-996.386 8648.09 -2332.09
-3812.7 7993.71 -1274.42
-4057.99 7929.66 -514.414
-3140.59 7798.64 -2746.32
-3497.19 7943.52 -2041.91
-4890.46 6923.46 -1412.86
-4253.57 7476.11 -1753.12
-4597.32 6896.33 -2188.61
-1278.46 6212.27 -5012.85
-1749.84 6716.57 -4606.3
-3219.96 6044.26 -4410.24
-2516.23 6400.34 -4554.62
-2728.51 5585.73 -4895.48
-2229.05 7158.76 -4091.06
-2665.57 7504.56 -3513.42
-5479.46 4184.24 -2823.38
-5076.33 4655.16 -3328.24
-5010.23 3896.52 -3571.24
-4888.66 6127.56 -2661.91
-5033.52 5423.88 -3018.31
-5377.09 5637.38 -2204.65
-4009.4 4793.62 -4404.59
-4565.12 5134.85 -3772.8
-3987.04 5570.37 -4117.49
-3483.42 7158.07 -3300.06
-3775.25 6388.7 -3772.94
-4250.67 6682.8 -3006.13
-4551.29 7505.95 -48.6515
-5347.56 6413.37 -946.656
-5000.64 6989.47 -514.344
-4992.25 6982.41 416.811
-5340.79 6408.62 849.036
-5737.71 3432.1 -2345.57
-5813.13 4185.61 -2098.09
-6175.1 4192.09 -518.783
-6045.29 4190.2 -1305.25
-6186.57 3431.16 -835.818
-5783.87 4948.07 -1777.78
-5642.54 5649.37 -1420.3
-5827.16 4186.3 2007.6
-5774.19 3431.26 2266.09
-5635.24 5645.61 1322
-5780.31 4946.23 1680.3
-6199.87 3431.31 742.657
-6063.37 4192.2 1213.67
-6184.31 4193.31 424.517
-5752.49 5719.85 -519.839
-6047.72 4957.47 -47.5245
-5757.85 5721.82 424.513
2705.59 7915.41 1155.57
2963.09 7873.36 410.661
2034.16 7704.51 2590.86
2385.85 7851.05 1903.98
3761.93 6858.6 1291.91
3128.69 7393.57 1622.35
3471.32 6830.16 2051.75
215.069 6164.31 4832.9
676.498 6652.65 4423.09
2122.92 5997.24 4237.91
1430.63 6344.57 4375.94
1645.59 5551.44 4725.26
1145.16 7081.82 3912.4
1570.49 7417.97 3344.38
4392.27 4176.17 2705.61
3975.69 4639.5 3195.07
3931.74 3891.43 3452.09
3766.22 6080.53 2521.79
3916.77 5392.84 2877.58
4258.19 5604.5 2077.49
2916.75 4774.94 4254.34
3457.27 5108.71 3622.84
2882.11 5534.11 3955.59
2373.44 7080.75 3137.31
2665.44 6332.33 3607.58
3130.61 6619.68 2853.56
-1274.59 5468.54 5208.38
-526.161 5716.24 5136.13
-2729.49 4794.82 5039.49
-2031.25 5148.57 5175.85
-525.244 4212.22 5566.43
-1281.42 4682.84 5449.56
-1281.82 3899.87 5568.02
-5017.95 2966.49 3481.22
-4601.08 3431.27 3979.83
-3491.48 2538.05 4749.53
-4073.95 2966.94 4416.4
-3991.02 2076.44 4285.67
-4075.78 3895.94 4418.74
-3495.25 4325.65 4755.81
-524.933 1121.98 5188.72
-1277.68 1380.25 5239.85
-1276.29 655.595 4906.84
-1280.12 2962.84 5562.88
-1279.64 2178 5448.99
-524.257 2645.1 5591.81
-2723.18 1280.74 4788.15
-2032.18 1709.91 5181.57
-2722.93 2070.35 5024.35
-2806.31 3901.45 5163.76
-2805.46 2961.66 5161.18
-2044.81 3431.63 5450.82
-5822.4 2677.02 2005.79
-5483.25 2679.22 2729.37
-6178.55 2669.95 423.938
-6056.6 2671.3 1212.11
-5353.65 1235.33 2098.2
-5769.07 1919.44 1676.49
-5624.72 1220.97 1319.16
-5449.59 2684.15 -2806.06
-5794.9 2680.47 -2090.08
-5614.1 1225.26 -1411.71
-5754.27 1923.4 -1766.86
-5338.96 1241.87 -2186.86
-6043.7 2672.81 -1304.16
-6174.28 2670.44 -518.793
-4061.79 -1072.52 418.215
-4560.53 -653.581 -47.8424
-4061.39 -1071.95 -513.713
-5335.49 455.981 848.076
-5001.59 -128.44 417.992
-4880.2 -53.3717 1313.65
-4874.73 -48.8278 -1407.13
-5001.22 -128.056 -513.587
-5337.85 454.426 -943.994
-6041.52 1906.62 -47.6217
-5745.66 1145.36 -518.689
-5750.75 1143.35 423.75
-4588.66 3432.56 -4063.96
-4989.48 2970.49 -3554.6
-3500.44 4328.32 -4860.78
-4073.69 3896.66 -4512.45
-3965.49 2087.55 -4349.74
-4061.86 2969.71 -4498.13
-3480.77 2542.9 -4828.2
-525.57 5739.62 -5284.91
-1280.08 5485.96 -5348.72
-1284.63 3903.31 -5687.02
-1285.92 4692.95 -5585.14
-526.346 4219.69 -5696.67
-2042.04 5162.12 -5311.29
-2739.91 4802.11 -5160.13
-1270.36 678.168 -4961.1
-1270.73 1399.03 -5287.87
-524.538 1141.61 -5240.55
-2707.44 2081.46 -5084.81
-2020.4 1724.03 -5236.84
-2701.92 1300.97 -4837.25
-525.051 2652.39 -5643.16
-1276.11 2185.59 -5516.76
-1279.11 2965.91 -5645.49
-2809.76 3903.18 -5268.18
-2045.01 3432.9 -5547.97
-2802.34 2963.65 -5250.12
684.586 6678.82 -4554.02
[...]
POINT_DATA 642
SCALARS Mean_Curvature double 1
LOOKUP_TABLE default
0.000403764
0.000396883
0.000393387
0.000395197
0.000401051
0.000409658
0.000393263
0.000401876
0.000384262
0.000382277
0.000403914
0.000398408
0.000345071
0.000344417
0.000350593
0.000341728
0.000347416
0.000345824
0.000343477
0.000357109
0.000345911
0.00034846
0.000342223
0.000343784
0.000330004
0.000333402
0.000353238
0.00034283
0.000355889
0.000307202
0.000311752
0.000360719
0.000345541
0.000336164
0.000345163
0.00034831
0.000322953
0.000344534
0.000345806
0.000348805
0.000345724
0.000358843
0.000342884
0.000346351
0.000343153
0.000344941
0.000345401
0.000343553
0.000344865
0.000346827
0.000347225
0.000349935
0.00032722
0.000304003
0.000334452
0.000345215
0.000348107
0.000353969
0.000308011
0.000353449
0.000343994
0.000348324
0.000348607
0.00031508
0.00032061
0.000346911
0.000349366
0.000338877
0.000346878
0.000356205
0.000344045
0.000339522
0.000333192
0.00034019
0.0003231
0.000347245
0.000348574
0.000344207
0.000306224
0.000340042
0.000345416
0.000343635
0.000344686
0.000343416
0.000353981
0.000299652
0.000349379
0.000347374
0.000322696
0.000302985
0.000336648
0.000346637
0.000332855
0.000344427
0.000344703
0.000336111
0.000339941
0.000346899
0.000346669
0.000301141
0.000363067
0.000348054
0.00034662
0.000315127
0.000353755
0.000346284
0.00031423
0.000358192
0.000346486
0.000344316
0.000345635
0.000344455
0.000345518
0.000345804
0.000342362
0.00033516
0.000347617
0.000341275
0.000336317
0.000343079
0.000344874
0.000347227
0.000350964
0.000340931
0.000350024
0.000346299
0.000339517
0.000346637
0.000349396
0.00033731
0.00034771
0.000347669
0.000340602
0.000343919
0.000348793
0.000341803
0.000345097
0.000337987
0.000345225
0.000358885
0.000341765
0.000331781
0.000347748
0.000339712
0.00034969
0.00034453
0.000351897
0.000342818
0.000345644
0.000347879
0.000347208
0.00034675
0.000361858
0.000344752
0.000346377
0.000330595
0.00034409
0.000340274
0.000269862
0.000342295
0.000345156
0.000344644
0.000318857
0.000346982
0.000319229
0.000346111
0.000345413
0.000346021
0.000347635
0.00034589
0.000345094
0.000346572
0.000345757
0.000345987
0.0003448
0.000345347
0.000345724
0.000345074
0.000344895
0.000345133
0.000347245
0.000348195
0.000347132
0.000345134
0.000347409
0.000344662
0.000347216
0.0003438
0.000345999
0.000345108
0.000344887
0.0003454
0.000324825
0.000341095
0.0003191
0.000325936
0.000348808
0.000349332
0.000348825
0.000335879
0.000357528
0.00035768
0.000334537
0.000312232
0.00034547
0.000338789
0.000345844
0.000346456
0.000347998
0.000348685
0.000346253
0.000345628
0.000356742
0.000347063
0.000349689
0.00034523
0.000348833
0.000349574
0.000370022
0.000349139
0.000344512
0.000311779
0.000339438
0.000381557
0.000371966
0.000351765
0.000351334
0.000347549
0.000345545
0.000346417
0.000349509
0.000350536
0.000348419
0.000362351
0.000355677
0.000368819
0.0003649
0.000353169
0.000345965
0.000318935
0.000347508
0.000348665
0.000348058
0.000316568
0.000356231
0.000345376
0.00034604
0.000342653
0.000354787
0.000347951
0.000345366
0.000349143
0.000351986
0.000345845
0.000343232
0.000333939
0.000346113
0.000344389
0.0003502
0.000351055
0.000343533
0.000344576
0.000351922
0.000342624
0.000348251
0.000357898
0.000347002
0.000346627
0.000346016
0.000346383
0.000338092
0.000344588
0.000340413
0.000332827
0.000348299
0.000302236
0.000347084
0.000340021
0.000320324
0.000340906
0.000363197
0.000356377
0.000346673
0.000347871
0.000346324
0.000344588
0.000346689
0.000336352
0.000345914
0.000327092
0.000348795
0.000344352
0.000345839
0.000355465
0.00031807
0.000314385
0.000345804
0.000331532
0.000345622
0.00031203
0.000335018
0.000344201
0.000342986
0.000342005
0.000344358
0.000336995
0.00033838
0.00034473
0.000339852
0.000344144
0.000344946
0.000344842
0.000343748
0.000344609
0.000343441
0.000345443
0.000344445
0.000344693
0.00035447
0.000346014
0.000343594
0.000346736
0.000326338
0.000358702
0.000343054
0.000348244
0.000348409
0.000341836
0.000348119
0.000317899
0.000345331
0.000344394
0.000364701
0.000368211
0.000343766
0.000321079
0.000320683
0.000362349
0.000377568
0.000354917
0.000300613
0.000339746
0.000350795
0.000367948
0.000349991
0.000350383
0.000341364
0.000331278
0.000328186
0.000338805
0.000338324
0.000325609
0.000341535
0.000333526
0.000343638
0.000330661
0.000340591
0.000345789
0.000343327
0.000343965
0.000347243
0.000329786
0.000349027
0.000350462
0.000347996
0.000348868
0.00035104
0.000347857
0.000335113
0.000342275
0.000354469
0.000334567
0.000340625
0.000342439
0.000313687
0.000360661
0.000360849
0.000343846
0.000344584
0.000359047
0.000360443
0.000370856
0.000364073
0.000347663
0.000335253
0.000341411
0.00034556
0.000285117
0.000335097
0.000351899
0.000300065
0.000328557
0.000329734
0.000341358
0.000363504
0.000363353
0.000317469
0.000359631
0.000346238
0.000344827
0.000338709
0.000343126
0.000342803
0.000351845
0.00034447
0.000352244
0.000345794
0.000351671
0.000346167
0.000346191
0.000344054
0.000345664
0.000343621
0.000349595
0.000321438
0.000316796
0.00034157
0.000329916
0.000329453
0.000345849
0.000349001
0.00034602
0.000345956
0.000346333
0.000345499
0.000346105
0.000346206
0.000346419
0.000341801
0.00034417
0.000340611
0.000337613
0.000351847
0.000357484
0.000347124
0.000353209
0.000331548
0.000347683
0.000349251
0.000346393
0.000348458
0.000339922
0.000334453
0.000345372
0.000344037
0.000342273
0.000342914
0.000343034
0.000339818
0.000345712
0.000343359
0.000341415
0.000347403
0.00034694
0.000345733
0.000341132
0.000330276
0.000345139
0.000327276
0.000346488
0.000350167
0.000337662
0.000346586
0.000337318
0.000345996
0.000338579
0.000343075
0.000337818
0.000338094
0.00032675
0.000353509
0.000341241
0.000346123
0.00035155
0.000350095
0.000337406
0.000343685
0.00034757
0.000343583
0.000348252
0.00034106
0.000338722
0.000343108
0.000341191
0.000347457
0.000348417
0.000352998
0.000346314
0.00033676
0.000339023
0.000335906
0.000339511
0.000340553
0.000345705
0.000341425
0.000346544
0.00033919
0.000347408
0.000346231
0.00034318
0.000349028
0.000340963
0.00034404
0.000337638
0.000348189
0.000344948
0.000341191
0.000340207
0.000346415
0.000347815
0.000347062
0.000340292
0.000343122
0.000344451
0.000345781
0.000347758
0.000347864
0.000346654
0.000343888
0.000351901
0.000332203
0.000348131
0.00034562
0.000342648
0.000340097
0.000348163
0.000343463
0.000340603
0.00033988
0.000341969
0.000346795
0.000345608
0.000345528
0.000346558
0.000346088
0.000330824
0.000358302
0.000353731
0.00035327
0.0003508
0.000351469
0.000343469
0.000355783
0.000345728
0.000346922
0.00034198
0.000358019
0.00035355
0.000354688
0.000343324
0.000349158
0.000345422
0.000340512
0.000343402
0.000342125
0.000340557
0.000346661
0.000340342
0.000343525
0.000343925
0.000341886
0.000344533
0.000332924
0.000344819
0.000347155
0.000343113
0.000344649
0.000343966
0.000346054
0.000345481
0.000348975
0.000346868
0.000346556
0.000346968
0.000347428
0.000336844
0.000346338
0.000344932
0.000346214
0.00034861
0.000346038
0.000354709
0.000317215
0.00030556
0.000371134
0.000346359
0.000343035
0.000345261
0.000354126
0.000345203
0.000345454
0.000350437
0.000358768
0.000348654
0.000348444
0.000347916
0.000347477
0.000339837
0.000339027
0.000328841
0.000345643
0.000337889
0.000347473
0.00034091
0.000350837
0.000349655
0.000344139
0.000341303
0.000343427
0.000344333
0.000327287
0.000344453
0.000331236
0.000346168
0.000341117
0.000340824
0.000353065
0.000324604
0.000366801
0.000402691
0.000277469
0.000341289
0.000347288
0.000340005
0.000334329
0.000331629
0.000333356
0.000344128
0.00034428
0.000340868
0.000346391
0.000345069
0.000334916
0.000330473
0.000352181
0.000345937
0.000328461
0.00031234
0.000332125
0.000344018
0.000345978
0.000345291
SCALARS CoVolArea double 1
LOOKUP_TABLE default
513346
509386
514984
515183
513622
508095
509731
513471
508605
510920
511902
514187
665591
663870
661360
656271
662865
661698
668433
667193
667847
664635
657612
656970
664035
659640
664285
665659
658904
658698
656165
656375
667307
662591
666433
667641
664372
664416
664104
659080
665509
663222
630173
695155
628000
631062
696239
631660
626070
694165
627515
692098
629020
621470
689506
627585
691482
624290
695575
633616
627142
694183
633026
695141
627956
700285
632897
632578
699954
632375
699805
631382
696571
628763
696029
696792
631255
686046
622134
622109
686218
625114
688004
625342
693001
624072
630282
694677
628033
691892
630582
695740
630402
627601
694691
632497
696293
632080
694178
626422
629807
695899
625683
689524
623846
690030
625678
624277
690061
622260
687285
623116
633398
698187
632682
628119
696750
631114
631437
696298
629292
697238
631638
632151
697951
631863
697750
633193
695938
631287
631749
696087
628004
695044
628518
695534
632533
625385
692932
628970
693179
624733
698503
627061
696719
697519
628979
691981
691072
689450
698877
698076
697119
693402
695841
692341
686760
687377
686829
689850
689059
687135
618673
634960
617540
688106
638541
626292
623130
637457
685892
620168
637293
620416
687660
639528
625947
627050
639894
688558
613955
632721
614710
685407
636077
622237
624210
636750
686701
769355
768831
768182
633692
618702
683423
635499
624173
636320
685255
611557
629631
680432
631331
616906
633381
682787
615432
631951
613892
684960
635547
623805
618878
633953
681605
764092
763596
765336
637481
621012
686305
638336
629497
641156
690297
615367
633455
685625
636625
622955
636954
686259
620616
636670
618304
690073
640444
629267
622956
637512
685607
767963
767714
769123
639369
620580
692078
642773
628923
642636
691862
620613
638873
691334
641994
628315
642421
691997
619314
638069
618880
691620
642052
628695
627812
641756
691316
774246
773934
774113
636880
689715
640382
639325
688571
617233
636033
687481
638244
625008
640154
689688
637419
620292
688927
640087
626370
639795
688292
770117
769802
770203
628684
612861
678071
630373
617534
629999
678946
611180
627092
679322
630149
618345
629324
677745
615057
630914
615041
679956
632569
619582
620010
632691
680215
758872
759921
759802
631839
612853
686025
636205
620222
634601
683376
619850
636677
686115
638455
625217
638856
686900
618629
635204
619539
683216
635531
622107
625828
637070
685350
767327
766619
765910
636761
619872
687741
639125
625985
638870
687831
616234
633758
686667
636970
623980
637406
687175
621327
638074
621169
688393
640287
627616
626854
640203
688044
768981
768865
769280
634761
616536
688469
638688
620872
636197
683257
619024
637310
685545
639129
623409
640526
689169
614697
630223
613820
681223
632323
620575
618693
631912
682085
768548
766397
765438
632453
617255
683486
634665
619181
633296
680656
613970
631619
680414
633273
618672
634656
683496
612249
628322
612709
679419
630229
617212
617912
630469
679164
763254
761646
761717
621872
638963
621577
690469
641729
628840
627890
641308
689733
616689
635714
618288
687119
638444
623729
627688
639881
689841
619888
636234
618766
689137
639534
627256
624321
638502
687068
771331
770005
770935
638156
621084
689620
640725
626065
640035
688092
620275
637801
690290
640974
628196
640632
689575
621074
638368
621427
688317
640485
626394
628981
641492
690586
771281
771676
770751
637378
620925
687653
639385
626015
639375
687722
621071
637703
687982
639662
626363
639611
687765
615759
633973
616025
687045
637420
624539
624957
637679
687383
769299
769210
769023
637766
621474
687156
639357
627530
640041
688171
614487
632528
683550
635063
620743
636417
686238
615555
632651
613571
687101
637040
625736
620322
634999
683466
767535
766146
767906
638982
689709
641387
641857
690692
614617
634256
687996
638144
623690
638809
688794
636279
617105
690106
640209
624775
639458
688485
771408
771061
771913
634457
684747
636528
635784
683299
632294
681795
634070
635271
684307
628537
681981
632152
631659
680960
764745
763393
763932
638854
691073
641986
641518
690072
637285
689027
640143
640856
690649
636194
689117
638913
638718
688509
772460
771629
771978
633138
686624
636962
635588
683569
637913
687829
640020
639788
687547
632449
682744
634318
635723
686082
767948
767837
766201
629008
680273
631658
630473
678190
630236
679257
631594
632406
680540
633737
678711
633011
634938
680275
759826
758978
758633
632331
683719
635190
633497
680768
630401
679604
632079
633864
683216
628951
679580
630396
630842
679034
762591
760988
761410
SCALARS SignedDistance double 1
LOOKUP_TABLE default
3445.35
4202.28
2901.46
2883.1
3302.59
4526.83
3989.16
3645.81
4240.44
3833.39
3802.72
3054.4
3103.81
3453.14
3886.6
4655.32
3536.45
3746.48
2809.9
3093.27
2866.33
3307.92
4321.6
4400.18
3669.41
4104.08
3460.02
3200.02
4605.49
4322.66
4583.35
4717.63
2881.23
3618.11
2973.93
2811.84
3352.7
3309.48
3360.26
4188.79
3251.04
3768.93
3347.67
3403.29
3757.6
3165
3193.41
3036.15
4158.29
3618.87
3934.97
3852.91
3573.45
4751.08
4372.99
3815.64
4037.02
4421.14
3448.32
2962.92
3835.23
3486.81
3112.09
3492.67
3836.61
2620.03
3020.04
3097.9
2694.65
3207.28
2775.61
3383.11
3222.15
3609.89
3387.48
3102.13
3135.95
4612.01
4640.74
4544.81
4582.14
4118.89
4342.21
4080.52
3888.28
4460.18
3347.08
3461.11
3754.3
3984.35
3501.48
3223.38
3283.67
3715.15
3440.23
2973.85
3245.19
3023.16
3823.43
4104.81
4007.45
3684.84
4154.71
4456.82
4367.31
4174.47
4344.12
4346.93
4157.66
4573.46
4616.02
4441.96
2765.46
2926.67
2909.91
3723.91
3241.85
3279.21
3137.34
3243.95
3482.75
3090.15
3140.47
3008.36
2923.06
3105.54
3086.91
2816.08
3208.05
3164.13
3086.53
3177.68
3708.37
3390.89
3625.54
3377.29
2967.25
4117.81
3747.85
3733.34
3796.35
4246.38
2880.57
3997.76
3341.91
3115.29
3726.12
3828.25
3959.29
4226.69
2816.32
3014.39
3268.28
3744.72
3347.08
3911.8
4561.85
4454.25
4801.02
4139.4
4252.56
4506.96
3496.43
3533.55
3699.73
3225.95
3356.07
3201.09
3801.93
3564.57
3626.45
3078.49
3066.81
3020.61
3298.38
3162.21
3286.59
3055.35
3087.98
3130.01
4334.97
4046.34
4231.32
3742.6
3875.18
4005.38
3672.38
3760.7
3519.81
3276.1
3375.09
3487.95
3750.22
3591.25
4020.26
3886.1
3507.47
3684.23
3649.53
4679.61
4499.73
4513.5
4611.37
4734.49
4321.63
4171.95
4001.02
4105
4310.26
3757.78
3912.72
3655.87
4539.47
4220.7
4347.82
4087.34
4195.97
3888.52
3378.33
3211.33
3434.7
3482.46
2827.75
3167.65
3082.29
3979.63
3785.82
3587.62
3644.76
3766.5
3609.45
3481.72
3358.54
3542.28
3800.1
3158.68
3317.68
2918.85
3771.98
3642.28
3590.34
3375.5
3445.71
3427
2946.57
3208.27
2652.4
2729.59
2894.69
2751.48
2694.63
3340.5
3056.42
2829.25
2875.22
3044.18
2824.09
2688.54
3510.81
3268.76
3577.66
2762.62
2942.01
2963.55
3222.59
3048.55
2893.7
2594.59
2675.5
2625.12
3322.8
3114.95
3181.97
3266.75
3131.34
3792.35
3589.49
3358.08
3514.67
3447.04
3317.34
3146.93
3043.81
3051.73
3054.03
3048.61
3187.8
3135.49
3182.86
3255.42
3199.72
3123.25
4583.05
4478.22
4690.31
4662.18
4532.07
4626.39
4512.43
4638.2
4663.36
4463.71
4568.13
4437.77
4676.74
4686.85
3978.6
4093.19
3961.04
4364.08
4232.63
4261.44
4201.9
4215.79
4331.76
4593.07
4467.58
4482.78
4227.41
4533.85
3659.7
3913.64
4279.4
4205.69
4176.53
3172.26
3199.21
3603.27
3389.23
3545.76
3292.99
3431.66
3579.19
3668.86
3361.08
4043.7
3889.6
3910.26
3564.87
3850.74
3849.66
3612
3711.98
3891.85
3181.56
3163.27
3267.44
3243.12
3273.91
3250.85
3246.8
3843.89
3698.14
3484.52
3571.72
3621.89
3549.59
3396.59
2896.59
2972.83
2913.48
3225.06
3077.29
3063.61
3209.65
3093.34
3299.33
3285.79
3359.26
3249.24
3757.96
3955.7
3455.48
3583.37
4231.08
3974.71
4210.76
3776.15
3502.63
4139.85
3813.36
4310.39
3326.42
3357.64
4069.6
4240.5
4163.82
4424.6
4332.53
4266.78
4524.66
4422.33
4505.83
3725.61
4081
4126.52
4078.09
4040.36
3946.43
3996.84
4524.29
4253.03
4425.82
4268.46
4077.83
4395.11
4227.86
4480.16
3982.73
3939.71
4410.15
4509.88
4341.65
4649.02
4675.57
4727.46
4536.1
4608.27
4599.82
4144.16
4374.9
4386.89
2803.7
2814.75
2863.13
2871.67
2813.93
2787.4
2939.49
2894.11
2979.84
3773.66
3516.35
3568.24
3476.15
3497.32
3669.69
3051.34
3243.74
3029.72
3201.51
3298.45
3427.35
3076.37
3184.31
3052.6
3551.64
3363.88
3432.58
3042.64
3262.58
3094.31
2976.4
2972.44
2968.94
2988.83
3299.59
3165.59
3285.92
3111.07
3015.57
2911.4
2914.57
2948.08
3007.27
3003.37
2966.85
2940.37
2891.88
3279.64
3054.52
3290.62
2767.52
2907.53
2895.52
3024.86
2958.5
3151.36
3103.8
3011.76
3283.93
3191.18
3250.9
3167.38
3239.37
2942.51
3038.42
3196.14
3142.77
3214.88
3182.81
3284.26
3854.61
3676.98
3842.43
3410.66
3551.58
3518.34
3442.75
3505.05
3328.78
3245.46
3265.12
3313.77
3061.29
2902.05
3379.61
3251.87
3083.4
3161.94
3303.06
4055.17
3915.24
3956.69
3937.78
4150.45
3718.16
3541.26
4040.5
4044.08
4247.42
3525.45
3753.77
3463.42
4226.32
4034.95
4002.33
3568.67
3780.35
3569.75
2820.4
3029.68
2896.6
2784.64
2825.59
4123.67
3856.71
3521.78
3671.51
3873.16
3517.08
3258.87
3465.2
3773.08
2976.51
3167.59
3715.68
3403.12
3403.13
3071.25
3166.16
2936.04
3625.57
3711.42
3663.35
3758.66
3953.71
3905.59
4149.75
4028.63
3844.15
3777.98
4519.41
4162.99
4344.71
4407.47
4291.27
3881.3
4087.85
4010.11
2855.82
2756.16
2765.76
2870.33
2971.86
3210.6
3275.51
3239.94
3036.69
2858.52
3298.49
3197.5
3337.68
3440.28
3435
2862.39
3088.33
2983.5
3866.14
3497.03
3657.01
3938.67
4048.82
3005.09
3368.32
3156
3181.8
3344.44
3913.53
4127.36
4016.94
3804.27
3683.29
3565.19
3618.88
3857.92
4413.57
4386.13
4407.38
4578.36
4726.39
4223.15
4540.11
4406.33
4290.59
4343.88
4186.22
4815.4
4583.78
4458.13
4699.05
4519.23
4616.48
4701.75
3958.42
3987.58
3962.01
4120.19
4275.4
4235.62
4444.96
4344.55
4134.74
4053.67
4541.93
4455.57
4598.03
4585.31
4548.99
4179.97
4378.82
4328.75
