# vtk DataFile Version 4.2
vtk output
ASCII
DATASET POLYDATA
POINTS 642 double
-2283.33 5638.07 -667.233
24.7329 5572.72 -616.597
-2295.15 691.806 -30.2466
1299.54 713.771 85.7933
-679.153 1411.06 2076.12
-1509.91 4412.29 1438.69
-494.804 1833.04 -1696.52
-1460.36 5168.74 -2293.55
1364.23 3039.57 -848.385
1589.51 2949.79 1106.78
-2733.97 4171.77 -1174.77
-3215.99 3562.52 1543.81
-3100.64 4838.39 910.219
-2318.73 4195.91 1942.05
-1858.38 5135.84 1118.85
-125.639 5220.37 277.915
-697.863 6088.23 -324.207
-115.132 5700.09 -1160.39
-1974.93 5951.77 -1799.72
-2066.43 4957.72 -2360.42
-2929.86 5252.98 -1371.97
-3354.03 3502.81 251.844
671.178 3642.87 1541.54
1164.33 3990.94 678.045
-1916.34 2191.03 1735.03
-457.184 2965.61 2093.31
-2604.64 1657.23 -534.135
-2720.63 1714.12 889.409
-1016.21 3999.44 -1545.29
-1682.39 2685.03 -1381.52
921.234 4444.28 -453.205
218.68 4613 -1104.39
2071.89 1601.35 827.604
764.365 2286.83 1928.34
489.433 787.646 1467.02
-1724.83 740.656 1537.37
-531.936 637.756 -59.0662
-1404.78 920.044 -1273.25
389.543 937.571 -1186.93
620.34 2246.3 -1446.06
1909.65 1714.57 -506.256
1888.15 2565.94 147.898
-2748.97 5142.84 470.919
-2505.17 5100.09 1103.74
-1897 5251.33 632.346
-2815.76 3927.49 1862.98
-2779.38 4570.3 1606.92
-3230.99 4213.33 1305.61
-1752.62 4876.73 1353.31
-2161.58 4756.17 1592.84
-2024.69 4345.28 1794.8
-917.553 5868.57 45.8875
-1126.56 6005.37 -400.536
-455.542 4499.46 999.864
-1090.15 5548.4 531.034
-305.647 5913.52 -480.313
-571.016 5843.58 -49.5464
-277.563 5595.37 -152.959
-1329.97 5954.66 -1051.73
-2138.49 5934.31 -1502.81
39.8451 5711.91 -855.882
-349.982 6035.66 -836.694
-1744.81 5577.43 -2123.69
-968.707 5812.28 -1521.67
-594.15 5454.84 -1575.51
-2570.94 5834.62 -1662.89
-2681.96 5600.05 -1079.34
-1844.77 5100.32 -2471.33
-2110.05 5548.58 -2278.63
-2849.84 4965.56 -1455.1
-2714.08 5237.41 -1923.86
-2449.89 4563.68 -1972.16
-3021.51 4958.97 -51.6975
-3111.08 3535.2 -405.673
-3028.07 4421.04 -442.476
-3332.94 4294.5 569.875
-3333.72 3554.04 915.403
663.564 4342.06 773.176
528.521 4609.56 120.709
147.051 3884.95 1526.18
434.6 4189.94 1209.45
1427.04 3571.81 912.645
1012.27 3890.88 1137.25
1143.2 3379.64 1420.91
-2102.91 3737.81 2045.66
-908.79 3526.9 1913.72
-2779.54 3278.6 1763.25
-2267.8 3592.38 2100.31
-368.162 2362.8 2207.1
-1372.74 3121.54 2100.11
-1266.67 1440.27 1931.67
-3311.4 2652.01 461.594
-3053.13 2835.77 1153.1
-2806.07 2625.73 -814.265
-3146.8 2629.5 -202.117
-2596.29 1031.75 518.035
-2797.56 1628.37 33.1319
-2620.65 1038.63 -399.714
-2020.91 4288.18 -2074.29
-1986.84 3443.37 -1490.5
-1504.16 5175.33 -2221.91
-1931.24 4745.25 -2402.93
-1008.36 1936.95 -1626.74
-1629.89 3302.61 -1740.74
-506.488 2381.44 -1703.24
-22.7291 5240.44 -1328.82
-590.015 5272.21 -1742.22
389.028 5270.48 -800.062
270.177 5338.04 -932.461
940.786 3335.09 -1058.31
156.502 4461.1 -882.969
1302.47 3507.39 -629.4
1842.9 1077.96 507.703
1479.29 1135.03 1120.33
1004.22 697.024 775.109
1282.72 2604.7 1526.33
1598.12 1780.23 1284.22
2024.95 2138.75 920.204
-164.355 1131.82 1897.37
690.03 1424.73 1762.81
187.465 1883.32 2097.9
154.907 641.52 990.919
624.27 643.674 28.6569
-1002.65 1072.53 2045.05
-623.221 697.551 1704.41
-1677.65 631.204 100.715
-1301.57 644.366 968.022
-2028.44 648.709 969.968
88.6989 646.175 -801.039
835.459 811.16 -613.105
-1981.6 774.945 -592.536
-1144.37 637.935 -856.831
-77.9843 1322.41 -1442.11
-620.233 883.38 -1289.81
-1089.25 1206.51 -1430.87
1193.03 1302.32 -815.097
1748.43 1148.75 -285.407
46.211 2050.21 -1654.61
594.632 1574.64 -1410.74
1777.67 2041.15 -542.662
1238.87 1938.93 -1026.48
1035.09 2667.58 -1204.38
2147.89 1576.08 114.581
1736.62 2855.62 -357.932
2125.58 2083.04 -136.806
2239.83 2111.35 422.692
1859.14 2643.11 609.273
143.002 2626.06 2125.89
740.444 2977.32 1850.33
146.505 3204.98 1963.13
-2376.3 992.446 1370.83
-1921.77 1251.17 1850.71
-2331.65 1714.68 1432.71
-1481.42 1291.9 -1359.06
-2203.13 1138.78 -795.806
-2293.38 2097.95 -1003.68
572.569 2953.54 -1376.12
-29.8668 2732.3 -1705.74
-619.542 3819.48 -1803.67
1575.46 3538.65 411.212
1537.53 3520.33 -193.162
1166.22 4008.4 38.2448
-2500.8 5273.83 -81.26
-2447.56 5217.15 608.294
-1995.2 5422.24 80.7648
-2822.4 5008.9 1025.26
-2650.53 5142.77 839.378
-2952.08 5020.1 726.132
-1931.99 5223.38 922.964
-2323.57 5196.99 927.628
-2173.92 5137.44 1127.14
-3054.25 3730.65 1724.8
-3071.63 4046.26 1638.53
-3259.57 3844.24 1470.1
-2558.73 4383.5 1832.48
-2809.56 4258.06 1781.16
-2561.75 4098.33 1949.75
-3188.9 4573.55 1102.19
-3029.92 4424.07 1472.82
-2973.29 4726.64 1278.11
-1731.65 4712.39 1449.66
-1894.91 4645.05 1584
-1866.08 4465.53 1643.19
-2011.57 4982.94 1362.88
-1945.35 4832.92 1483.71
-1805.05 5021.44 1244.33
-2152.16 4266.47 1890.32
-2086.8 4559.13 1713.9
-2259.14 4496.41 1799.55
-2665.07 4888.37 1367.59
-2456.04 4695.68 1639.31
-2330.91 4954.02 1392.74
-1371.82 5744.21 -22.3208
-1691.94 5730.1 -634.975
-1366.19 5359.84 544.486
-1365.96 5603.13 233.225
-850.544 6093.26 -288.707
-948.938 5984.64 -109.815
-818.42 6028.14 -148.653
-1081.99 4285.06 1133.16
-1504.67 4851.38 1186.91
-695.091 5451.74 248.535
-1107.53 4952.15 667.832
-230.24 4713.28 660.022
-1604.49 5039.61 1070.6
-1459 5176.2 921.268
-132.604 5767.84 -562.065
-276.472 5768.73 -285.277
-117.278 5598.02 -378.016
-636.722 5988.05 -174.218
-458.495 5898.83 -208.928
-526.969 6036.39 -410.605
-355.423 5441.62 53.8364
-410.403 5738.02 -91.9199
-521.698 5680.09 35.996
-910.45 5649.77 264.45
-728.298 5723.86 126.158
-756.146 5893.44 5.92922
-1692.77 5895.16 -1203.08
-2220.87 5796.21 -1184.55
-766.14 6099.31 -547.068
-1253.89 5985.07 -729.216
-2077.91 5969.09 -1622.85
-1881.85 5892.44 -1426.19
-1881.52 5911.19 -1565.49
43.9506 5670.47 -821.916
-111.674 5837.19 -737.544
-218.14 5916.2 -998.625
-148.284 5900.94 -847.129
-6.97533 5744.15 -970.712
-325.293 5997.64 -691.511
-493.409 6075.75 -627.885
-1613.14 5284.38 -2266.98
-1332.87 5514.82 -1911.68
-1116.03 5157.74 -2017.19
-1667.55 5841.01 -1757.85
-1489.58 5724.97 -1837.16
-1865.34 5805.95 -1976.61
-253.322 5606.84 -1332.64
-792.842 5699.13 -1576.02
-405.137 5825.46 -1260.24
-597.597 6095.48 -860.641
-489.758 6009.01 -1083.7
-1122.04 5909.72 -1320.69
-2423.31 5823.96 -1322.23
-2475.73 5656.12 -880.809
-2223.18 5989.54 -1761.97
-2337.46 5947.85 -1557.5
-2843.39 5447.63 -1245.37
-2647.93 5744.5 -1430.78
-2821.27 5557.15 -1526.06
-1716.05 5132.83 -2401.64
-1800.41 5281.32 -2390.13
-2108.89 5231.88 -2378.82
-1902.58 5274.3 -2464.81
-1901.44 5099.12 -2498.61
-1915.74 5593.41 -2234.97
-2038.27 5829.62 -2072.28
-2695.51 4516.29 -1470.42
-2691.78 4772.73 -1718.04
-2542.6 4454.1 -1752.49
-2900.59 5260.92 -1656.43
-2836.73 5146.08 -1686.15
-2921.48 5134.47 -1436.47
-2302.29 4767.55 -2177.2
-2599.21 5013.58 -1950.87
-2423.91 5134.24 -2149.7
-2389.95 5757.68 -2032.24
-2476.73 5403.37 -2167.17
-2731.08 5515.59 -1871.45
-2679.1 5307.5 -403.877
-2924.63 5155.73 -841.531
-2844.1 5237.53 -638.356
-2928.57 5056.93 197.775
-3138.03 4881.26 530.259
-2743.09 3671.62 -863.38
-2830.87 4366.27 -920.181
-3308.5 3918.46 29.377
-3112.67 3994.75 -419.618
-3272.14 3481.87 -116.198
-2908.66 4813.32 -1033.54
-2936.37 4975.23 -1050.44
-3323.91 3875.73 1190.83
-3315.83 3558.81 1309.3
-3291.55 4611.49 777.554
-3320.8 4295.91 964.877
-3426.07 3542.38 504.686
-3395.89 3905.69 717.588
-3417.18 3909.93 404.917
-3070.58 4752.7 -237.01
-3322.77 4312.78 207.138
-3292.27 4649.86 359.034
157.535 5117.24 -269.688
134.713 5286.23 -461.002
160.404 4627.83 741.005
-132.48 4793.35 383.948
975.021 4183.34 547.149
697.951 4406.39 493.978
921.703 4192.66 731.758
-302.468 4003.57 1466.07
0.400796 4163.66 1325.35
564.472 3959.72 1365.83
326.044 4072.1 1356.93
427.726 3755.66 1538.1
179.345 4290.64 1172.03
266.059 4426.22 965.576
1510.58 3331.72 1027.48
1320.18 3492.31 1176.97
1346.49 3243.63 1309.9
1112.56 3947.64 910.134
1229.46 3742.13 1039.47
1317.69 3784.72 794.45
910.681 3515.3 1498.13
1093.07 3655.98 1278.87
871.239 3796.55 1342.57
561.855 4281.79 1004.32
727.62 4063 1188.93
850.071 4135.93 970.434
-1843.76 3988.31 1868.05
-1180.8 4057.16 1370.44
-2129.16 3935.35 2004.69
-2013.73 4000.33 1933.86
-558.932 3349.24 1943.98
-1618.32 3872.03 1890.06
-1363.72 3517.76 1679.67
-3030.36 3433.88 1690.59
-2846.06 3585.46 1838.82
-2220.85 3311.75 1998.28
-2538.04 3467.01 1956.37
-2346.14 2950.69 1732.97
-2564.18 3749.43 1989.9
-2306.9 3846.01 2056.5
-535.194 1799.87 2090.8
-753.571 1806.33 2056.88
-866.557 1401.86 2078.47
-980.586 2860.05 2084.81
-691.649 2535.84 2120.46
-371.468 2628.62 2140.92
-1690.88 1572.68 1765.01
-1207.76 2090.87 1941.65
-1743.38 2718.54 1871.96
-2106.7 3634.25 2103.05
-1948.83 3531.37 2100.47
-1893.44 3483.62 2099.47
-3259.65 3251.12 1134.64
-3201.81 3321.66 1418.35
-3341.23 3061.57 347.014
-3288.15 3140.15 661.059
-2962.92 2236.16 994.803
-3217.42 2703.58 799.763
-3120.49 2311.46 640.812
-2728.05 3058.18 -901.918
-2934.78 2984.18 -644.927
-2955.47 2239.52 -449.308
-2981.48 2591.53 -551.269
-2805.71 2276.32 -695.528
-3126.08 3025.48 -285.18
-3267.82 3025.69 16.9725
-2475.3 822.054 239.535
-2634.5 1016.95 -37.5863
-2483.74 828.029 -245.556
-2839.26 1693.71 442.85
-2708.52 1232.58 217.456
-2570.25 1258.9 754.204
-2593.43 1200.26 -459.581
-2688.65 1191.77 -222.753
-2671.74 1570.13 -287.058
-3294.72 2634.66 160.333
-3073.39 2234.96 -78.7731
-3164.1 2284.62 287.997
-2290.44 4300.86 -1923.35
-2395.27 3880.35 -1130.9
-2061.95 4562.14 -2232.91
-2211.28 4395.17 -2063.32
-1908.55 3187.81 -1452.36
-2099.48 4107.16 -1906.21
-1962.5 3867.34 -1785.29
-1458.14 5166.85 -2305.63
-1745.25 5132.56 -2430.79
-1830.78 4617.6 -2168.48
-1820.26 4978.56 -2289.72
-1514.93 4748.01 -2064.59
-1909.38 5097.22 -2510.32
-1930.88 4875.93 -2432.01
-756.977 1890.57 -1674.04
-752.723 2221.46 -1708.23
-485.376 2067.86 -1703.06
-1468.11 3124.16 -1760.69
-1001.88 2513.13 -1682.64
-1238.73 2099.97 -1519.64
-550.384 2900.34 -1711.91
-892.584 2707.62 -1715.45
-1657.28 3543.79 -1778.49
-1888.29 4459.83 -2267.94
-1862.28 4330.36 -2210.62
-1812.77 4094.68 -2102.06
-536.008 5263.73 -1712.37
[...]
POINT_DATA 642
SCALARS Mean_Curvature double 1
LOOKUP_TABLE default
0.000612294
0.000568187
0.00197337
0.00197728
0.000583813
0.0031713
0.00182676
0.0235743
0.00124781
0.000990607
-0.00509699
0.00288579
0.00168185
0.00143977
0.0016319
0.00699025
0.00383214
0.00159661
0.00339333
0.00011836
0.00230698
-5.30535e-05
0.000812299
0.00129442
0.000358888
0.00035968
0.000513441
0.000198796
-0.00267748
-0.00068667
-0.000155994
0.0019256
0.00205119
0.000861323
0.00188438
0.00196544
1.59254e-05
0.00226872
0.00242894
0.000313376
0.00253582
-0.0010615
0.00110437
0.00138203
-0.00145499
0.00127685
0.00151933
0.00120944
0.00151625
0.0013648
0.0007714
0.00161939
0.00124433
0.000714077
0.00754049
0.00148898
0.00192343
0.000310501
0.00043703
0.00144059
0.00901616
0.00326674
0.000160753
0.00160905
-0.000807761
0.00278332
0.00140803
-0.0142001
0.00230759
0.000155367
0.00229359
0.0017231
0.00137957
0.000522378
-0.000841183
-6.089e-05
-8.45481e-05
0.000272604
-0.00113662
0.0007922
0.00130377
0.000997885
0.00128742
0.000941542
-0.00282877
-5.48112e-05
0.00113631
0.00319109
0.00155915
0.00413692
-0.000844037
0.00178717
-0.000264753
0.00140555
0.000676455
0.00201495
0.000262801
0.0042046
-0.00102511
-0.000499013
-0.00495341
-0.0131457
0.00155905
-0.0124103
-0.000143164
0.00587555
-0.0129892
0.00466698
0.00220516
0.000652689
-0.00446632
0.000838514
0.00151677
0.00142661
0.00114737
0.000511999
0.000493885
0.00284241
7.79568e-05
0.00073949
0.000687339
0.000173121
0.000173846
0.00275855
0.00236936
-0.000317682
-7.87304e-05
0.00150639
0.00160833
0.000700955
0.000476571
0.00136866
0.000263022
0.00210282
0.000356353
0.000131896
0.00171312
0.00103257
0.00208108
0.00020901
0.000666982
0.000852283
0.00107906
0.00143989
0.00304761
0.00465064
-0.000414844
0.000502803
0.000728751
0.00122778
0.00238246
0.00427328
-0.000397772
0.00199358
0.00250346
0.000660831
0.000167331
0.00203526
0.00119573
0.000997876
0.00118178
0.000762603
-0.000644747
0.000390485
-0.000120196
0.0015395
0.00138797
0.00156149
0.00258693
0.00124448
0.00123942
0.00191079
0.00130725
0.00223031
0.00166023
0.00163207
0.00185193
0.00136234
0.00110022
0.0013853
0.000517349
0.0017212
-0.000103613
0.00179546
0.00181296
0.00304451
0.00209212
0.00142607
0.00197419
0.00157823
0.00142827
0.00125254
0.000595637
-0.000637674
-0.00177593
0.00135522
0.00319724
0.0019973
0.00348677
-0.00300108
0.00116015
-0.000682392
-0.00172546
-0.000884733
0.00156124
-0.00410291
0.000941553
0.0018386
0.000457964
0.00220504
0.00203964
0.00141759
-0.00542653
0.00194076
0.0026826
-0.0050587
0.00332386
0.00292573
-0.00171628
-0.000250493
0.000969335
0.00204468
0.0028556
0.00185771
0.000997318
-0.00100042
0.0017979
0.00242287
0.00349944
0.00300256
0.00141665
0.00275234
-0.000430394
-2.87333e-05
-0.0068042
0.00125564
0.00124433
0.00102803
0.000972798
0.0020444
0.00129649
0.00170929
0.00218351
0.000546998
0.00134122
0.00132461
0.00369419
0.00343657
0.0012962
0.00204621
0.00251617
0.00796917
0.000773183
0.00174658
0.00647256
0.0124319
0.00276016
0.00344026
0.000915203
0.000979627
0.00107502
0.0042202
0.000768536
0.00287276
0.00127093
0.000401448
0.00046532
0.00231045
0.00259285
0.00254287
0.00077441
0.00183424
0.00109099
0.000991498
0.00143922
-0.00129719
-0.000838777
0.000484113
0.0013043
0.00107375
0.000868938
0.0013882
0.000727517
0.00210338
0.00210236
0.00103677
0.00202727
0.000727471
0.00151053
0.000670151
0.000838764
0.00193865
-7.87758e-05
0.00182595
-0.000239267
-0.00321258
0.000845162
0.00135328
0.00134738
0.0016235
0.000411847
0.0010048
0.00107033
0.000209368
0.000695436
0.0036442
0.00106853
0.00125075
0.00113614
0.00102812
0.00116738
0.00118649
0.000679464
0.00103219
0.00119757
0.00108505
0.00133178
0.00116537
-0.00127702
-0.00243866
0.00284331
0.000659981
0.00303969
0.00794135
-0.00347721
0.00208887
0.00122218
0.00133919
0.000960479
-0.00109985
0.00125969
0.00209597
6.13196e-05
-3.66399e-05
0.00115964
-0.00133341
0.000708405
-0.000136912
-0.00124667
-0.000141588
-0.000533424
0.00817044
0.000629896
0.00200112
0.000975771
0.00196176
0.00116698
-0.000536761
0.000921851
0.00107869
0.000595362
0.00173743
0.000469889
0.0011984
0.000953278
0.00114889
-1.17635e-05
0.000546613
0.00156465
0.00153828
0.00217634
0.000417336
0.000742979
-0.0010247
0.0014296
0.00182894
-0.000563863
0.00173233
0.000616884
0.000994854
0.000959187
-0.00195169
0.000818355
0.00170965
0.000647085
0.0037724
-0.00178504
0.00447623
-0.00416312
-0.00178099
-0.00309293
0.00156781
-0.0118422
0.0137112
0.000822647
0.00102877
0.000201467
0.00537821
-0.000133444
0.00051932
0.000247701
0.000565737
-0.000924717
-0.00564105
0.017077
0.00291559
-0.014189
0.0376662
0.00198754
0.000392341
5.00485e-05
0.0286374
-0.00631122
-0.0027271
-0.00345082
-0.00139706
-0.0131419
0.0267059
-0.00608415
0.00180643
0.00109886
0.000802617
0.0011261
0.0081236
0.000922414
-0.0016888
-0.000105978
0.000309955
-0.00109353
0.00377039
0.000239265
-0.000718696
0.000751916
0.00120884
0.00177521
0.00170539
0.00131803
0.00207254
0.00199105
0.000539209
0.00117654
0.000620596
0.000200921
-0.000138572
0.000109277
-2.29374e-05
0.000871173
0.00127801
0.00113015
0.00156192
4.83909e-05
0.00185123
0.000316565
0.00116258
0.000564394
0.00131929
0.00122517
0.000811804
0.000326558
0.00170972
0.000560764
3.12942e-05
0.000422247
0.00114651
0.00161979
0.000654115
-1.11894e-05
7.28488e-05
3.02565e-05
0.00309375
0.00290412
0.00228205
0.00187721
-0.000425918
0.00103317
0.00125744
0.000479781
0.00218266
0.000804329
-7.34727e-05
0.00085256
-9.35749e-05
0.002212
-0.000424834
0.000568701
0.0010486
0.000860373
-0.000241413
0.000970644
0.00128008
8.14626e-05
0.000362625
0.00189455
0.00228618
0.0019524
0.00278508
0.00107777
0.00230677
0.00174804
0.00140568
0.000178742
-3.91802e-05
0.00105864
0.000522122
0.000914004
0.000983747
0.000211268
0.000700191
0.00328965
0.0011473
0.00160435
0.00167098
0.00132682
0.0007434
0.000894456
0.00132654
0.000967638
0.000485642
0.00168423
0.00113107
0.00109101
0.001348
0.000649399
0.000901422
-0.000338724
0.000428097
0.000286639
0.000987536
0.000623107
0.000262395
0.000803433
0.000881603
-0.000578381
0.00229412
0.00113332
0.000387709
0.000723515
0.00119452
0.00140089
0.000572549
0.00124321
0.00186065
0.00170454
0.00163955
0.00122596
0.00101036
-0.000461742
0.00137249
0.00114172
0.000676438
0.000611914
0.00347418
0.00178908
0.00125404
0.00173605
0.00347963
0.00010534
0.000829916
0.000659735
0.00160705
0.00368215
0.00310553
0.0010276
0.000978987
0.000127732
0.00239291
0.000245943
0.00103882
0.000767149
0.000759539
0.000810311
0.000978641
-0.000467096
0.00131102
6.91869e-05
9.18071e-05
0.000545261
0.0019097
0.000638595
0.00169396
0.000776395
0.00253214
0.00195237
0.00227189
0.00167011
0.00279466
0.00160991
0.00218496
0.00169415
0.00231102
0.000432433
0.000373498
0.00112998
0.000685824
7.06654e-05
0.0033261
0.00162257
0.0019454
-0.000223294
0.00291459
0.00354984
-6.93308e-05
-0.000980173
0.00227327
0.000858338
0.00388527
0.00121851
0.0020339
0.000578729
0.000140052
0.000412667
0.00139245
0.000718898
0.00196681
-0.00177506
-0.000601538
0.000933245
0.000442997
0.000774072
0.00108139
0.000580716
0.000536125
-5.61122e-05
0.00024152
0.00116836
0.000295831
0.00727938
-0.00164786
-0.00139141
-0.00140753
0.00640117
0.0012567
0.00124488
-3.62918e-05
0.00126702
0.00118121
0.000732738
0.0011825
0.00078394
0.000954662
0.00294567
0.000886325
0.0011322
0.00113847
-0.00112343
0.000286394
-0.000233377
0.00474836
-0.0115243
0.00134151
0.00108037
0.000413874
SCALARS CoVolArea double 1
LOOKUP_TABLE default
248387
63323
99507.5
97805.9
68319
186263
71198.9
25345.4
85285.8
119835
176132
61320.6
105334
74453.1
97664.2
197755
40918.9
69390.7
60648
89849.5
84195.1
146324
98996.5
71599.5
283000
220628
151280
233779
569154
389970
122710
251260
110569
158907
135330
133696
392639
91285
87378.2
113103
74106.2
158636
157108
95766.7
224916
100006
117109
122517
52259.1
75076.8
59716.3
90263.9
186932
382595
160083
58592.4
38144.4
157486
192497
72527.9
20936
49067.1
100153
150049
178765
108314
140129
10413.5
104835
136595
80372.6
101327
162996
261210
240076
137725
152561
141502
166772
135770
71671
73506.9
74363.2
83841.6
105876
273379
161283
70480
131138
271443
176447
138540
204270
107678
151915
139429
214391
62518.6
72638.6
337707
83944.8
41844.7
133421
106259
128884
23846.1
88305
68706
38731
106285
268909
85142.3
127790
162158
148507
171248
133086
72418.2
168305
182129
132498
220037
194051
115093
133834
180639
249831
131011
130610
152529
122902
138763
151417
128303
77265.3
178887
112143
111372
90062.2
113057
126864
125218
123458
130207
43958.5
35318.9
131749
102106
95166.6
84765
98749.8
56355.1
199999
69857.6
100699
225896
127137
86575
456403
94318.4
72971.1
175248
254710
209914
401873
106778
93819.6
105009
136883
103447
87033.3
86004.9
115927
94773.1
94906.3
106290
90609.8
112470
122592
121431
111487
46496
141961
72164.5
51840.7
50542.1
51511.5
52451.9
73991.1
124498
109151
106125
278737
380837
169922
163520
64665.2
87329.2
31534.7
327442
259695
299421
409579
380175
118722
84750
55217.7
53119.3
86918.3
39731.9
48331.8
49209.8
104439
43608.6
79844.4
84302.6
63125.1
42553.6
174511
187641
123994
108568
38231.1
62736.9
115410
36673.3
38886.3
61923.9
36155.6
44494.7
44528.3
52098.5
102173
196691
138567
124106
120481
71666.5
103639
147974
108698
149023
123433
212042
90426.9
151818
85035.6
58895.8
110258
84491
94527.8
18772.8
48051.6
90699.5
47555.6
27654.4
65410.7
85722.5
179061
115218
165772
67447.3
70089.1
53760.5
114460
110410
106845
142159
124210
125109
189137
150016
155648
155720
127500
270855
294899
203395
224807
172810
153864
142839
135431
93471
119369
139641
136009
151644
134982
232325
205350
163719
282016
113226
132265
339525
107462
231433
74784.5
282812
199646
80475
78743.4
98390.3
144455
136357
103643
77191.8
106543
71647.8
69664.4
64074
86573.8
76406.1
83379
92667.1
80724.8
79942.9
212616
411079
45883.7
58252.7
164247
131717
355991
85316.3
90250.8
224095
123711
283278
92755.6
72847.3
133772
223476
81640.1
233512
255387
104496
248342
452731
404129
28239.9
138120
138264
155966
106533
138480
170973
222025
187038
207805
211073
201019
178974
133352
140072
164750
152032
142676
105890
92066.9
254881
163260
176683
69899.7
102828
175471
142259
209300
200159
206175
415143
79356.6
69107.2
208758
83438.1
222091
10447.6
22722.6
285412
89490
238710
18787.8
35120.7
104100
105751
70032.6
312614
166596
283962
369332
202895
446036
40413.3
60800.8
119265
66001.6
15831.3
59404.4
74866.3
288537
17000.3
38492.2
71588.9
11892.5
90503.3
9962.39
16885.3
25599.1
58050.6
72103.8
97616.2
73521.7
115913
182847
125660
154486
212961
293109
42932.5
148614
75500.4
131121
145688
123013
119631
132250
109966
133968
156493
166886
153917
139388
120902
191597
165906
157803
79301.2
102245
99478
111124
149187
142990
162030
159425
146733
130729
140538
189126
151290
197947
202925
150030
121435
147145
150327
299761
241692
384935
57005.5
102668
145351
121786
169237
130144
148513
133936
141230
158272
369672
189632
295349
106598
144788
164064
192154
202677
313495
151151
132255
237105
174683
108226
116693
103199
93294.4
143685
104675
128872
123848
203684
263978
125374
131101
115041
120689
126152
100211
52959.7
93989.2
92965.4
166910
137045
155380
140535
122653
139286
157593
93834.9
129888
128314
82566
141544
88599.6
111905
107792
113273
95665.5
159132
167248
117659
99026.8
108252
45203.8
110611
146219
112338
160658
125373
173685
129012
102682
113652
118974
121869
124149
143840
83789.4
99659.9
130878
59696.8
54574.7
86628.7
132062
90105.4
48015.3
131061
65016
68435.3
89969.7
41605
92679.2
142222
120666
116420
80188.1
98146.1
121379
106825
93335.7
115700
111524
298199
103901
129380
128205
107932
102499
97905.1
93409.2
151687
107110
111901
118068
141133
72887.2
111199
63453.2
110338
124402
184871
199642
247608
276001
251219
91582.3
102774
121993
94546.1
60091.6
40370
97760.2
251409
87721.6
115859
63108.7
111721
110171
252288
317011
224232
133853
191692
113445
205524
212332
80685.7
115040
88460.7
101218
338768
86693.8
190690
109414
98834.8
120958
115720
776703
536313
222172
212537
115117
105927
378325
116272
152211
130674
78619.3
80779.5
87106.3
91360.7
71763.4
96069.2
132622
241436
115198
262543
217819
95288.8
97913.5
105850
103733
SCALARS SignedDistance double 1
LOOKUP_TABLE default
401.151
471.69
272.172
266.919
428.802
567.094
431.18
723.216
409.935
372.776
555.446
272.816
286.051
390.337
436.122
794.066
363.42
353.918
435.282
400.622
346.653
352.112
429.546
435.65
431.509
408.849
469.134
379.977
1027.69
520.945
744.346
891.059
290.575
349.873
272.508
272.647
328.953
320.669
336.212
433.088
372.846
453.437
356.063
343.545
453.494
315.152
295.797
284.25
448.311
410.776
455.043
417.516
360.173
603.582
670.479
410.121
437.195
514.046
681.116
444.255
441.572
365.812
404.177
739.808
602.159
278.115
298.526
562.238
297.463
373.144
337.237
370.65
387.036
390.6
420.233
334.733
333.159
443.539
640.2
434.485
421.253
401.664
403.482
392.9
436.63
704.465
339.078
440.462
409.883
817.081
485.432
313.373
360.329
368.754
349.875
363.093
409.388
377.08
612.533
802.992
633.377
564.484
394.303
961.797
438.634
507.566
780.269
670.286
531.294
458.695
785.287
430.247
250.132
269.492
272.489
362.908
367.863
352.771
332.296
312.236
377.671
327.949
322.771
350.083
277.603
334.448
322.068
316.684
319.895
307.451
308.196
328.461
374.73
333.743
439.578
362.558
279.095
398.106
417.771
416.421
397.738
418.407
308.525
390.261
371.934
385.934
447.334
406.163
395.39
423.793
290.69
420.066
473.651
446.316
468.795
412.434
474.045
440.705
1120.09
417.165
416.853
449.125
392.456
424.582
382.558
324.598
355.416
321.8
433.488
403.629
376.855
291.094
280.514
267.515
360.787
299.891
364.283
281.425
282.579
284.049
464.462
456.48
478.965
396.729
422.269
437.956
438.159
440.065
407.321
325.793
364.556
368.907
382.749
563.611
517.261
411.398
353.333
371.768
375.657
607.346
518.548
546.199
593.845
745.211
493.901
632.879
441.43
459.147
489.866
392.286
419.525
369.144
568.05
477.215
498.671
520.591
476.131
420.665
740.845
422.539
341.682
475.561
452.209
551.558
519.112
439.304
418.333
341.03
397.451
389.238
379.009
369.611
532.73
721.863
936.526
569.266
647.705
385.477
372.704
679.823
340.796
337.6
311.373
707.641
370.396
350.134
379.958
384.926
296.443
288.629
273.286
590.575
469.704
362.454
468.01
567.721
349.031
333.791
412.001
376.934
401.043
339.911
337.289
364.467
346.551
332.299
321.877
215.625
298.917
253.379
345.289
345.512
334.921
349.281
298.011
593.954
440.513
333.14
402.334
360.839
373.127
363.309
326.269
317.72
293.108
322.763
361.653
320.174
348.029
399.323
353.65
293.298
672.129
564.822
657.814
795.516
447.438
484.291
432.895
451.888
450.226
424.578
427.241
444.485
451.856
479.526
382.832
383.236
375.191
418.156
402.307
410.547
406.928
397.496
399.983
439.05
415.666
425.86
495.869
576.154
446.092
455.497
527.342
649.729
564.582
297.553
334.769
480.711
352.255
442.588
332.26
397.98
373.754
413.585
434.113
495.819
401.579
415.655
517.873
505.774
467.182
494.498
598.093
641.132
369.308
305.631
361.774
386.583
307.383
312.458
317.483
442.736
380.234
328.155
356.714
341.355
367.1
363.428
257.59
325.069
260.449
366.05
401.033
462.581
424.771
395.492
461.079
326.449
338.022
327.51
484.913
632.338
495.638
490.347
653.003
670.689
893.385
713.928
579.247
519.99
460.956
636.206
565.208
552.072
412.971
443.651
438.432
892.018
441.794
430.019
507.586
450.82
1098
649.796
728.271
872.743
740.682
902.534
423.822
499.685
603.549
605.437
493.257
489.97
499.812
743.075
638.168
896.003
474.467
405.138
431.213
440.136
419.111
898.936
493.597
525.52
447.68
463.837
732.146
500.435
536.451
518.194
277.794
262.498
293.14
266.031
256.507
246.322
265.602
293.158
288.2
360.971
393.468
395.658
365.259
369.788
355.557
308.412
345.558
335.029
398.138
347.885
374.867
317.099
307.604
282.198
345.609
333.51
344.626
326.055
348.034
329.29
320.32
319.884
310.752
318.36
325.79
326.816
324.199
386.371
330.549
281.029
260.227
325.051
300.951
282.839
325.268
295.857
282.568
326.616
402.161
327.337
306.447
323.627
302.762
307.252
322.482
347.042
300.896
294.102
344.42
327.262
288.472
299.382
305.646
292.505
316.381
289.223
302.471
294.841
325.248
326.985
377.837
394.877
405.871
349.152
366.791
370.141
410.675
399.09
339.585
333.766
299.082
316.409
313.822
274.49
330.101
332.645
315.872
329.563
360.078
434.785
387.773
430.908
425.19
421.415
402.328
370.978
399.258
404.269
421.75
443.121
427.557
403.455
411.464
397.76
398.989
335.805
388.975
387.271
268.181
300.062
272.593
262.373
288.251
401.353
419.809
386.813
400.646
447.594
378.912
385.614
384.41
395.49
324.471
376.044
444.252
374.425
380.83
354.514
382.756
342.538
351.138
359.767
385.604
416.719
410.597
377.297
405.856
395.971
382.973
380.859
484.882
431.465
453.58
455.238
434.98
383.376
412.985
398.939
270.143
224.742
240.104
321.541
386.885
423.172
440.259
468.849
462.333
327.846
366.156
442.649
310.886
355.444
492.51
331.871
413.923
397.684
471.887
422.724
434.266
478.953
531.32
276.47
455.903
420.159
378.64
400.913
423.575
426.347
453.88
375.639
389.997
454.473
521.368
551.91
433.615
453.717
446.991
450.842
495.504
440.665
544.943
444.04
422.152
434.474
854.241
758.729
923.324
756.309
1152.96
449.829
572.291
490.486
385.721
384.81
393.025
408.281
429.212
417.038
430.589
423.346
408.127
399.704
737.953
447.023
466.039
891.052
536.552
421.417
433.627
437.568
