# vtk DataFile Version 4.2
vtk output
ASCII
DATASET POLYDATA
POINTS 642 double
-2534.38 6373.25 -407.566
807.147 6183.38 -324.556
-2586.89 134.668 -36.2258
1577.45 143.166 18.0084
-614.034 1289.74 2932.79
-1047.79 4923 2350.55
-519.212 1574.72 -2591.37
-1012.3 5313.84 -3031.62
2087.83 3213.94 -1464.48
2288.83 3137.1 1579.14
-3356.97 3792.27 -1781.16
-3762.15 3490.93 1917.26
-3601.91 5244.47 1112.38
-2464.8 4495.11 2717.74
-1823.52 5935.76 1584.18
150.233 5817.13 978.387
-585.143 6886.11 -173.153
321.435 6236.71 -1640.76
-1912.53 6610.46 -2076.25
-2425.79 4872.8 -3017.66
-3615.61 5472.52 -1413.61
-4120.42 3467.1 97.4637
1033.35 4113.31 2319.36
1877.39 4655.48 893.337
-2259.86 2097.93 2547.18
-493.423 3179.54 3009.02
-3296.76 1452.02 -931.101
-3379.5 1454.09 1113.38
-884.607 3773.74 -2730.46
-2098.07 2432.97 -2263.17
1626.71 4871.66 -804.491
763.445 4629.7 -2029.79
2621.16 1393.32 1100.08
1174.83 2192.98 2624.42
676.084 295.078 1830.34
-1827.25 222.059 1889.96
-531.696 -123.658 -54.6349
-1634.4 426.892 -1749.44
594.129 446.772 -1709.18
1031.68 2201.79 -2331.71
2476.16 1492.65 -977.725
2786.56 2936.58 77.9355
-3137.62 5829.32 555.182
-2771.49 5764.2 1443.1
-2144.75 6153.02 832.252
-3215.57 4027.25 2445.01
-3160.31 4932.91 2071.65
-3803.36 4399.44 1592.88
-1441.81 5518.84 2069.62
-2209.07 5345.99 2255.92
-1756.47 4772.32 2662
-1029.42 6604.21 553.161
-1431.52 6738.84 -251.031
-269.326 5264.11 1782.26
-807.595 6058.03 1218.87
173.164 6653.59 -249.675
-198.173 6543.09 498.349
420.156 6197.28 383.793
-1357.9 6759.33 -1137.9
-2290.36 6717.44 -1315.55
678.683 6354.43 -929.299
-75.0938 6769 -978.09
-1464.78 6073.12 -2678.94
-797.371 6438.08 -1949.01
-268.091 5848.83 -2277.32
-2922.99 6246.44 -1822.33
-3151.29 6096.58 -946.336
-1669.98 5183.32 -3317.8
-2292.93 5860.51 -2775.9
-3613.02 4772.25 -1723.99
-3250.79 5262.35 -2378.94
-3022.19 4360.63 -2515.23
-3657.48 5370.2 -68.3769
-3855.72 3494.9 -808.494
-3855.43 4516.66 -635.847
-4063.57 4443.11 616.258
-4069.69 3488.84 1039.94
1170.56 5164.73 1142.86
1292.04 5353.54 298.339
293.368 4441.42 2370.84
748.082 4894.96 1866.68
2165.05 4009.32 1283.23
1576.04 4459.62 1670.95
1701.48 3714.16 2069.58
-1782.79 3947.18 2959.25
-798.678 3972.55 2753.13
-3171.13 3009.38 2374.31
-2521.64 3509.79 2854.28
-463.341 2314.88 3075.39
-1499.29 2962.93 2944.66
-1492.28 1524.14 2825.38
-3997.69 2473.73 560.918
-3671.72 2579.54 1504.1
-3460.2 2493.3 -1335.16
-3878.39 2481.14 -473.554
-3126.46 667.343 609.346
-3511.81 1370.07 -31.1557
-3130.29 677.192 -588.037
-2368.62 3866.61 -2844.97
-2688.5 3159.54 -2149.28
-1064.78 4844.79 -3100.76
-1668.14 4478.49 -3218.24
-1299.84 1770.65 -2499.98
-1495.67 3204.08 -2779.2
-508.968 2349.9 -2719.76
592.048 5441.28 -2077.99
-117.383 5029.37 -2583.4
1212.88 5743.39 -730.592
1033.73 5742.3 -1330.13
1523.4 3684.83 -1859.39
1136.25 4769.7 -1644.67
2036.04 3954.56 -1159.27
2249.48 643.325 595.029
1805.93 730.181 1494.48
1219.2 106.759 940.869
1850.82 2646.4 2151.62
2070.5 1689.55 1928.92
2646.38 2235.04 1392.83
3.52888 748.955 2488.93
1020.18 1143.65 2359.23
379.551 1723.48 2870.33
176.457 -94.1422 1049.37
666.846 -94.9949 1.90662
-1137.67 706.577 2584.27
-576.589 143.315 2013.76
-1711.49 -124.768 26.26
-1294.8 -87.5514 1046.59
-2256.47 47.8544 1059.21
139.591 -52.6721 -988.471
1128.28 224.837 -890.021
-2227.95 177.018 -895.33
-1195.75 -68.4331 -1015.56
40.9688 927.921 -2199.68
-571.558 337.916 -1812.87
-1153.63 882.964 -2263.23
1623.21 884.061 -1343.5
2175.08 710.11 -534.315
294.098 1870.59 -2548.41
894.718 1287.34 -2168.73
2443.61 2183.53 -1188.02
1819.14 1820.44 -1729.26
1632.25 2708.08 -1966.68
2757.76 1308.72 29.1359
2552.73 3066 -718.411
2896.01 2235.68 -465.813
3022.73 2252.37 546.12
2705.01 2979.82 806.426
336.756 2686.41 2999.37
1171.87 3203.53 2619.66
316.436 3636.94 2820.42
-2797.47 645.093 1627.34
-2189.92 1062.18 2520.84
-2930.13 1629.28 2009.23
-1916.14 1217.02 -2194.65
-2670.72 825.498 -1378.13
-2784.65 1844.94 -1728.5
1022.43 3189.94 -2307.7
212.733 2749.8 -2676.36
-139.457 4042.22 -2623.6
2409.97 3995.73 504.163
2364.2 3978.31 -437.578
1940.38 4697.41 13.5853
-2816.05 6036.06 90.4793
-2701.55 6038.69 742.541
-2281 6217.03 286.189
-3216.18 5550.15 1298.24
-2982.74 5821.93 1030.74
-3399 5568.29 855.538
-2025.51 6078.87 1223.63
-2507.3 5990.56 1168.39
-2300.07 5892.84 1531.09
-3525.83 3756.64 2212.21
-3558.29 4209.65 2065.45
-3821.91 3929.13 1786.14
-2836.55 4720.86 2448.2
-3211.06 4494.81 2295.48
-2853.71 4284.73 2620.01
-3734.34 4852.77 1361.33
-3515.37 4694.74 1856.43
-3422.32 5109.88 1617.58
-1309.97 5248.67 2240.08
-1608.83 5170.79 2392.91
-1460.08 4894.01 2515.69
-2023.18 5678.03 1931.9
-1817.3 5454.7 2184.77
-1621.24 5754.01 1852.03
-2091.29 4648.58 2731.85
-1982.32 5072.48 2496.78
-2352.76 4945.11 2524.55
-2995.84 5398.03 1781.25
-2691.89 5188.59 2214.23
-2507.49 5589.68 1891.68
-1706.82 6496.25 234.594
-1982.21 6502.61 -414.686
-1425.11 6183 1041.82
-1572.52 6381.01 649.191
-973.664 6869.81 -156.545
-1184.73 6726.5 209.051
-828.987 6800.62 202.088
-716.449 5038.13 2032.95
-1060.02 5488.85 1937.3
-331.383 6079.19 1079.53
-696.956 5703.98 1474.09
17.1967 5522.59 1388.5
-1205.5 5740.23 1740.04
-1278.69 5957.39 1488.05
512.254 6441.61 -287.749
339.004 6438.75 107.462
627.609 6213.6 35.1048
-379.824 6758.08 186.159
-21.5683 6634 159.874
-211.018 6807.3 -215.742
271.284 6080.87 697.521
136.936 6383.81 462.735
-61.6452 6291.5 730.699
-861.002 6374.32 931.142
-441.409 6376.1 842.774
-614.41 6632.58 550.512
-1952.57 6669.07 -951.032
-2423.61 6559.94 -934.164
-817.016 6880.82 -574.14
-1436.75 6774.8 -696.144
-2124.91 6747.55 -1670.36
-1919.92 6772.56 -1317.87
-1767.98 6746.23 -1667.79
771.84 6298.52 -629.934
453.586 6551.94 -615.637
139.167 6546.39 -1329.91
309.942 6595.16 -969.701
511.071 6327.55 -1297.56
62.4538 6756.79 -616.085
-306.609 6872.76 -598.867
-1248.81 5711.7 -2879.86
-991.914 5955.8 -2538.5
-756.394 5565 -2646.24
-1480.4 6523.06 -2097.49
-1235.58 6283.1 -2351.5
-1688.65 6375.93 -2418.39
106.061 6081.39 -1945.56
-537.138 6165.88 -2134.38
-128.254 6388.47 -1749.06
-552.688 6844.94 -1014.17
-323.232 6666.69 -1416.54
-1060.07 6648.26 -1572.79
-2751.37 6457.04 -1150.55
-2838.39 6293.85 -674.755
-2413.4 6500.12 -1978.32
-2625.99 6558.06 -1552.97
-3415.59 5827.37 -1187.8
-3087.46 6228.09 -1396.13
-3330.23 5900.01 -1623.33
-1352 5273.56 -3187.98
-1567.66 5663.04 -3029.25
-2417.66 5340.23 -2971.67
-1962.88 5529.37 -3063.93
-2022.95 5047.18 -3237.96
-1842.98 6035.46 -2783.1
-2102.6 6299.68 -2480.62
-3478.81 4292.03 -1816.46
-3365.47 4593.4 -2129.08
-3212.87 4131.01 -2205.48
-3508.05 5381.85 -1910.82
-3495.04 5023.73 -2054.48
-3686.77 5103.06 -1605.98
-2751.76 4646.44 -2785.17
-3151.31 4882.21 -2455.55
-2878.16 5096.21 -2739.98
-2649.26 6099.1 -2355.94
-2826.95 5583.62 -2632.71
-3141.18 5776.25 -2156.04
-3127.36 5933.61 -242.854
-3603.8 5454.1 -823.446
-3411.24 5724.53 -546.676
-3429.07 5615.88 244.069
-3686.65 5313.25 583.647
-3554.24 3594.64 -1315.21
-3630.93 4228.63 -1279.28
-4050.1 3967.13 -188.578
-3886.13 4027.91 -731.36
-4027.57 3453.76 -370.123
-3727.76 4709.97 -1240.87
-3737.47 5034.68 -1123.15
-4001.26 3940.64 1367.43
-3969.54 3491.1 1516.92
-3892.4 4868.99 893.446
-3971.97 4448.99 1122.85
-4170.03 3487.47 527.969
-4094.64 3959.1 818.453
-4159.78 3967.82 357.247
-3825.49 4964.66 -362.714
-4065.85 4457.3 73.1978
-3926.43 4912.68 333.444
848.127 5819.79 218.069
968.304 5903.6 -127.875
652.375 5465.31 1150.79
694.926 5627.06 712.265
1668.64 4934.62 688.161
1286.75 5239.58 761.57
1538.76 4938.3 1031.79
-239.297 4612.99 2333.92
110.686 4843.45 2117.14
903.71 4537.61 2105.92
552.009 4696.17 2123.18
681.009 4281.28 2366.1
377.536 5046.69 1857.74
548.152 5235.26 1562.34
2241.37 3626.62 1454.79
1972.4 3872.56 1693.8
1992.52 3485.89 1870.11
1759.97 4571.98 1295.66
1887.9 4249.79 1495.49
2045.95 4342.5 1093.32
1380.32 3920.57 2218.15
1658.94 4105.87 1882.23
1335.92 4305.88 2011.5
981.542 5054.54 1528.14
1172.81 4705.7 1794.94
1392.75 4841.04 1425.27
-1483.64 4452.69 2727.06
-937.28 4505.75 2438.76
-2065.08 4215.44 2903.58
-1767.72 4343.39 2845.33
-586.192 3633.36 2899.13
-1393.82 4081.07 2854.43
-1276.52 3641.43 2824.33
-3498.4 3248.45 2184.27
-3247.42 3499.09 2453.41
-2485.68 3040.2 2755.31
-2876.88 3266.82 2639.02
-2736.53 2669.48 2468.56
-2895.88 3761.89 2673.97
-2517.24 3992.84 2821.46
-577.832 1726.05 2950.37
-920.196 1805.86 2925.96
-999.295 1398.97 2946.86
-1016.92 3030.73 3003.9
-859.041 2503.98 3007.35
-442.445 2753.09 3074.38
-1919.22 1668.47 2716.39
-1421.72 2044.07 2809.09
-1928.73 2539.59 2734.57
-2086.03 3732.36 3020.03
-2076.55 3315.26 2978.49
-1750.04 3476.62 3019.01
-3945.36 3059.17 1333.48
-3771.13 3089.22 1753.34
-4096.72 2972.28 325.532
-4044.87 3007.38 797.086
-3566.02 1976.89 1290.81
-3870.12 2503.29 1036.39
-3764.74 2022.78 819.494
-3404.86 3001.29 -1502.17
-3663.73 2940.49 -1085.18
-3625.79 1989.36 -749.139
-3693.03 2460.27 -927.46
-3425.01 2024.97 -1148.96
-3880.4 2953.02 -625.17
-4033.38 2952.12 -197.983
-2891.12 355.239 286.337
-3164.7 632.587 -39.0652
-2893.8 361.855 -329.999
-3504.65 1403.93 541.042
-3369.35 943.97 270.708
-3274.77 980.024 895.117
-3269.99 1002.71 -797.628
-3372.99 946.792 -329.059
-3445.1 1362.55 -525.058
-4010.62 2462.35 49.6312
-3760.78 1952.52 -244.713
-3839.02 1977.31 295.44
-2892.61 3891.98 -2468.39
-3064.41 3520.95 -1899.59
-2409.3 4329.29 -2975.41
-2691.24 4073.03 -2738.29
-2448.21 2872.5 -2275.29
-2565.37 3638.67 -2611.12
-2301.47 3410.87 -2605.6
-1024.11 5021.31 -3130.82
-1374.8 4968.39 -3253.62
-1453.56 4309.05 -3107.48
-1412.15 4692.03 -3190.42
-1092.12 4503.32 -3045.63
-1658.73 4861.47 -3313.38
-1946.59 4660.19 -3227.96
-920.688 1671.42 -2570.46
-876.072 2109.37 -2694.79
-505.853 1959.87 -2701.28
-1739.61 2881.88 -2576.21
-1256.18 2355.11 -2643.04
-1660.2 1946.4 -2386
-539.752 2907.86 -2756.53
-944.14 2625.98 -2724.37
-1271.01 3491.68 -2803.93
-1991.32 4130.07 -3104.51
-1717.73 4000.42 -3067.48
-1988.63 3700.2 -2916.15
-158.183 5392.02 -2492.54
-643.374 5109.89 -2878.8
[...]
POINT_DATA 642
SCALARS Mean_Curvature double 1
LOOKUP_TABLE default
0.000741557
0.000827677
0.000738783
0.00086363
0.00147887
0.00134846
0.000949167
0.00128803
0.000749136
0.00041666
0.000868965
0.00115407
0.000824413
0.000866786
0.00073939
-0.000603327
0.00116892
0.000853197
0.0013787
0.000571058
0.0011106
0.000386646
0.000570535
0.000696315
-0.000153641
0.000279769
6.31795e-06
1.90269e-05
-0.000794193
-0.000277513
2.66923e-06
6.05789e-05
0.000942497
0.000480066
0.00082917
0.000977526
8.43147e-05
0.00084482
0.000939418
0.00044676
0.00079991
0.000145724
0.000699503
0.000790007
5.12425e-05
0.000779218
0.00070731
0.00066183
0.000914515
0.000840621
0.00100523
0.000750101
0.000604469
0.000232085
9.78171e-05
0.000745242
0.000947251
0.000542826
0.000133408
0.00149617
0.00112739
0.00110005
0.000855376
0.000631852
0.000361171
0.000886076
0.000507873
0.00256745
0.000850063
0.00064114
0.001393
0.000715743
0.000566748
0.000470636
-1.0678e-05
0.000656029
0.000401714
0.000516083
1.6293e-05
0.000422868
0.000680649
0.000712977
0.000672349
0.000654199
0.000749117
-0.000130585
0.000750704
0.000814006
0.000846515
0.000116039
0.000485027
0.00082348
0.000118452
0.000771562
0.000594567
0.000490566
1.81426e-05
0.000987041
0.000760252
-0.000457198
0.000216335
0.00148047
0.000283554
0.000798676
9.10896e-05
0.000824993
0.00140277
0.00105871
0.000827218
0.000484186
-0.000205856
0.000591897
0.000829658
0.000683681
0.000521594
0.000318778
0.000961788
0.00115741
0.000262913
0.000471234
0.000681131
0.000570932
0.000367807
0.000760249
0.000919188
0.00033242
4.29022e-05
0.000868919
0.000798484
0.000361116
0.000554208
0.000908843
0.000281167
0.000787836
0.00106016
0.000319025
0.000827279
0.000433233
0.000743863
0.000641655
0.000534171
0.000491159
0.000776225
0.000321654
0.00133361
0.00157245
0.000226069
0.000475714
0.000619547
0.000715926
0.000868603
0.00116553
0.000143368
0.00138867
0.000625332
0.000194685
0.000412226
0.000525259
0.000557578
0.000683853
0.000764784
0.00041076
-0.000176867
0.000785799
-0.000271765
0.000809041
0.000740564
0.00080023
0.000691334
0.000764568
0.000778868
0.00090781
0.000742579
0.000856781
0.000775297
0.000755716
0.000839495
0.000751125
0.000706311
0.000731237
0.000502263
0.000928741
0.000483686
0.00072784
0.000771597
0.000921351
0.000902869
0.000875244
0.000841537
0.000759775
0.000829427
0.000781469
0.000339459
-0.000507757
-0.000325367
0.000306393
0.00111561
0.000849681
0.00118682
-0.00109439
0.000730362
0.000682319
-0.000538337
-0.000150261
0.000662494
0.000778211
0.000695632
0.000912739
0.000722555
0.00104392
0.00089739
0.000749079
0.00110159
0.000960179
0.000724999
0.00114893
0.000906952
0.00113979
-2.56499e-05
0.000503618
0.000515202
0.00052467
0.00172975
0.00128379
0.000946719
0.00115564
0.00116844
0.000898047
0.000968067
0.000808048
0.00101352
0.00111401
0.000654888
0.000393135
-0.000409089
0.000540887
0.000597927
0.00115529
0.000730407
0.000247122
0.000735393
0.00086963
0.000810321
0.000190988
0.000825784
0.000662907
0.000786043
0.00132569
0.000774241
0.00121607
0.00104249
0.00100464
0.00123999
0.00087661
0.000672584
0.00143224
0.00125545
0.00112485
0.000597808
0.000443823
0.000720015
0.00111134
0.00128554
0.00157364
0.000368117
0.000446049
0.0011416
0.000838929
0.000980869
0.000819384
0.000317119
0.000429468
0.000464562
0.00037513
0.00083422
-0.000193023
-0.000409641
0.000277168
0.000509439
0.000599442
0.000581392
0.000634361
0.000804954
0.00104958
0.000863906
0.000687099
0.0010117
0.000244073
0.000909527
0.000400705
0.000830252
0.000673152
2.47866e-05
0.000832954
0.000694175
-0.000677969
0.00059019
0.000555069
0.000682626
0.000388982
0.000481569
0.000672934
0.000577462
0.000473925
0.000493964
0.000552494
0.000678494
0.00069178
0.000666189
0.000665969
0.000695556
0.000677369
0.000586938
0.000662587
0.000622746
0.000643919
0.000703742
0.000705571
0.000454474
-0.00105107
0.00106823
0.000857016
0.000981319
0.00129463
-0.00139541
0.000978191
0.000932784
0.000575304
0.000693252
-4.88297e-05
0.000687843
0.000537131
-7.60662e-06
7.52882e-06
0.00151445
0.000683974
0.000171163
0.000670422
0.000444219
-0.000344707
-0.000231495
0.00162764
0.000935213
0.00140391
0.000720402
0.000905391
0.000534951
0.000244124
0.000498645
0.00047254
0.000515873
0.000546675
0.000320545
0.00055335
0.000675194
0.00055137
0.000241869
0.000576966
0.000766208
0.000628118
0.000983442
9.18671e-05
0.000924408
0.000654258
0.00144272
0.0012673
0.000325385
0.000914996
0.000435268
0.000708356
0.000732409
-0.000783739
0.00072987
0.00100845
0.000609202
0.00105222
-5.2607e-05
0.00263251
0.00181963
0.000311023
3.95153e-05
0.0005372
0.0021679
0.000876812
0.000444122
0.00082052
0.00095847
-0.000122512
0.000524329
-9.74845e-07
0.00019541
0.000178473
1.84819e-05
0.00128457
0.000973538
0.000759464
0.000433664
0.0012655
0.000780359
0.00059327
0.000603744
0.00127825
0.00159146
0.000646986
0.00171538
0.000703672
0.00111309
0.00141091
0.00075441
0.000819439
0.000673417
0.000518032
0.000693557
0.00040693
0.000438234
0.000403923
0.000418955
0.00047134
-0.000378101
0.000803426
0.000930187
0.00138062
0.00070688
0.000736375
0.000821356
0.000800754
0.000791276
0.000882932
0.000703981
0.000567537
0.000522038
0.000271863
0.000634279
0.000476064
0.000240766
0.000185198
0.00048621
0.000762922
0.000704602
0.00103044
0.00059501
0.000548555
0.000671255
0.000785713
0.000576845
0.000610853
0.000589357
0.000621731
0.000398805
0.00079051
0.000570937
0.000439858
0.000837479
0.000965708
0.000823948
0.000756494
6.03287e-05
0.000160551
2.74027e-05
0.00114534
0.00100429
0.000638671
0.000908646
-3.32256e-05
0.000656875
0.000536354
0.000842065
0.000579446
0.000481708
-0.000106447
0.00127077
-8.41477e-05
0.00108036
0.000558522
0.000642693
0.000465951
0.000919313
0.000323022
0.000445166
0.000779431
0.000334361
0.000639015
0.000798759
0.000817247
0.000976809
0.00116808
0.000688103
0.000912921
0.000587752
0.000600541
0.000437005
0.000224123
0.000474291
0.000717423
0.000175945
0.000570213
0.000468592
0.000879555
0.000929627
0.000526336
0.000910052
0.000743356
0.000608416
0.00039758
0.000721216
0.000755907
0.000645498
0.000364206
0.000869423
0.000761911
0.00070299
0.000688112
0.000334669
0.000990077
0.000573996
0.000352012
0.000645835
0.000835434
0.000161938
0.000133485
0.00056105
0.000877554
0.000575415
0.00141101
0.000446842
0.000292895
0.000628279
0.000533271
0.000726205
0.000383973
0.000757839
0.000772933
0.000799529
0.000845095
0.000803949
0.000513322
0.000168523
0.00090983
0.000589502
0.000173269
0.00116041
0.00121911
0.00096191
0.000205811
0.000607768
0.00125181
0.000391208
0.00102224
0.00119329
0.000697341
0.00154541
0.000992598
0.000179378
0.000596881
0.000518143
0.00134722
0.00034295
0.000630642
0.000532201
0.000618637
0.000633366
0.000696006
0.000178737
0.000755775
0.000459069
0.000364617
0.000541809
0.000823383
0.000684273
0.000867587
0.000523156
0.000923974
0.00089262
0.00091808
0.00102445
0.000824103
0.00131833
0.00139546
0.000427685
0.000980113
0.000405697
0.000157759
0.000409918
0.000171448
-2.36855e-05
0.000832101
0.00146477
0.00129048
0.000578375
0.000795971
0.00130849
0.000834279
0.000145136
0.00100381
0.00122389
0.000878047
0.000641693
0.0004454
0.000545369
8.22368e-05
0.000534957
0.000630475
9.43353e-05
0.000859581
0.000712403
0.00041389
0.000645116
0.0005688
0.000665892
0.000541796
0.000293221
0.000826963
0.00068939
0.000447725
0.000621511
0.000380319
0.000623014
-0.00109424
-0.000494791
0.000140228
0.000171588
0.000606056
0.00063323
0.000231836
0.000638988
0.000397794
0.000484382
0.000751548
0.000653397
0.000718991
0.000558678
0.00067403
0.000693498
0.000566425
-1.966e-05
0.000550469
0.000284437
-0.000573181
0.000861448
0.000838008
0.000645037
0.000592734
SCALARS CoVolArea double 1
LOOKUP_TABLE default
266969
115378
202648
194592
153430
205057
159684
150514
169264
199131
234531
165368
233163
208305
222087
261311
171348
182113
205442
233505
232785
248342
188573
166327
350482
263066
250682
311323
400585
384328
273625
248829
246878
259049
266241
263226
403742
226855
211679
195617
214815
222451
260258
223625
276844
217800
248647
237527
145542
203550
148673
220122
275228
351896
215366
163592
148183
188858
324522
172414
149938
184911
190657
301846
280688
274849
250059
154801
279675
211371
236083
216617
309633
313357
325547
255464
244924
230543
265089
210710
170934
174364
178286
179692
174413
310800
250748
213765
227060
370342
210444
264286
297443
218710
261424
251832
306381
199878
180298
344734
97799.8
129259
214293
312538
189975
160238
168513
149268
158355
199862
240748
171509
246670
284428
259645
252887
238372
182601
264745
280692
233102
302187
266225
254915
273773
256786
315603
250136
257686
262477
234966
265079
226831
253388
178320
277434
231468
199510
209011
173948
226417
217826
264913
233097
173859
185320
217778
214704
200264
179025
250424
220072
284020
173316
232342
287944
206560
198112
412661
205453
182293
240644
314964
268296
373663
235882
207067
219374
235318
200861
207536
206807
232652
215777
230533
226530
211007
227456
235860
248623
171719
144292
176324
194537
164363
162904
166427
167517
207279
269781
258324
247265
330763
355114
293646
273336
195263
212077
161384
304204
247616
259000
315841
335045
182804
230251
144839
149155
157890
164625
156958
161066
197362
132567
161943
235620
175884
178458
236773
230181
264212
254583
176081
189407
240185
125223
150624
191162
163713
166049
159911
184624
199717
252960
271969
250880
227771
184279
209523
267845
242512
303792
285401
364527
206586
253376
268204
213525
230253
215961
255027
147439
193472
259011
231599
187566
214010
255168
261097
211921
233073
238164
184934
178713
223658
214336
231719
324632
301041
314344
297106
296459
280631
273532
260399
339154
321685
298017
305017
257052
244228
268692
242961
207479
247564
247395
237356
252384
251961
360765
321113
307007
271561
183934
268498
300442
192311
260383
175664
300274
263909
178728
169130
177104
229895
241155
208564
177106
208429
173608
164709
156845
174509
170364
184377
211648
195319
193036
222660
329644
181933
145284
251701
210349
302531
199661
204455
318086
223004
329317
212488
223050
216755
258663
177457
299556
328679
197246
253074
395077
415542
189329
270836
237077
251355
216772
255797
263638
305860
281180
310244
288401
279425
276718
235619
247004
246546
251690
258588
234602
221908
334959
258788
256763
187689
218483
261538
280268
320851
326378
257570
336986
231853
186474
302351
205553
297117
98700.5
99357.2
234879
111111
238962
113836
196256
194669
194094
157312
408140
301376
311889
318694
286550
357864
188658
215612
263731
271211
185007
183142
211665
223415
164550
137422
126000
118275
209643
122348
175041
153912
179891
165459
190858
169240
183990
237257
218020
239169
245082
314537
184442
220575
180722
244795
258454
237339
259147
250646
235891
253880
267232
287748
239790
220408
208283
273584
238508
244737
206564
202683
235212
219877
253270
234512
276438
258226
253961
227225
242445
279851
292651
305380
322894
246699
228293
278049
255175
332213
295688
398466
192379
231467
282907
248982
276553
248224
284488
242803
251565
271051
393072
267334
328769
227951
240079
276311
323881
327353
374983
258242
240500
314615
264783
228173
239411
235986
214119
241966
240791
248112
240220
277411
329530
222414
219797
207179
241567
224122
196148
181094
206716
223543
304943
283628
298408
247353
235485
255424
258169
215797
235441
245522
185716
226388
190596
192705
183083
197587
215789
235661
231343
212705
217370
180653
154028
198015
217444
209026
290243
258897
294762
248278
250648
238276
243010
263270
222395
212856
177619
184808
222264
148215
206055
185862
229385
242956
179817
196681
162424
163320
265079
202031
270121
246278
232205
218018
190235
198614
220852
199907
186620
215125
225667
303094
205657
217059
192720
195625
230307
213487
217395
266954
255915
241267
238215
258552
220390
213266
180050
258643
269677
288280
292356
331560
337177
317622
273826
249211
269487
179608
221208
153803
163751
250202
214455
224255
197774
234157
260842
290952
328356
301616
241804
280939
251598
268724
255239
176194
203733
178965
187033
318183
171273
297003
189150
188746
212423
107952
490577
308522
225706
351302
224743
282936
374291
221234
250521
225821
181318
176798
188808
207883
162831
204329
241106
250667
193514
278245
277597
241293
224729
209857
203260
SCALARS SignedDistance double 1
LOOKUP_TABLE default
1236.9
1534.18
946.016
955.83
1260.27
1679.81
1371.3
1528.88
1437.93
1279.69
1484.71
1005.55
1017.39
1259.07
1395.3
1709.01
1230.3
1273.19
1107.41
1162.92
1049.81
1141.46
1448.82
1476.87
1308.48
1398.11
1250
1119.06
1888.1
1482.03
1636.53
1799.81
971.611
1203.46
964.456
956.943
1116.29
1105.41
1132.15
1436.44
1166.85
1370.85
1176.12
1176.8
1373.85
1060.64
1056.64
991.038
1523.29
1319.11
1490.5
1357.61
1207.42
1670.13
1604.92
1368.35
1462.12
1589.15
1323.9
1224.67
1361.79
1186.24
1221.98
1339.32
1369.77
866.067
1048.45
1392.48
914.732
1221.95
1049.78
1239.26
1136.63
1267.9
1241.37
1085.18
1088.24
1538.87
1657.6
1515.54
1515.47
1386.58
1439.44
1368.3
1483.74
1617.03
1157.3
1217.94
1296.69
1540.13
1388.99
1061.38
1107.28
1262.58
1168.92
1010.61
1144.6
1027.15
1491.1
1601.41
1651.02
1533.94
1400.05
1816.33
1493.45
1504.05
1720.3
1599.4
1464.75
1558.04
1767.16
1501.67
900.13
968.5
970.659
1248.54
1177.31
1194.06
1058.85
1100.35
1196.91
1084.88
1086.28
1019.48
961.437
1104.03
1078.29
958.097
1071.87
1054.99
1052.21
1061.42
1272.9
1141.14
1314.65
1168.87
999.72
1400
1295.17
1376.14
1356.94
1437.02
980.579
1355.48
1276.87
1199.92
1323.36
1310.57
1347.5
1452.73
928.118
1130.26
1230.99
1422.02
1213.47
1360.66
1556.51
1486.41
1934.92
1415.54
1446.7
1524.51
1233.29
1269.29
1290.8
1083.26
1159.66
1075.01
1353.12
1253.72
1284.83
1017.21
1000.41
982.67
1127.02
1044.92
1125.1
994.884
1008.59
1024.57
1569.11
1503.28
1559.34
1346.19
1419.07
1460.7
1380.37
1402.85
1283.54
1103.74
1176.58
1229.01
1274.29
1301.14
1450.78
1351.09
1187.62
1270.28
1274.53
1675.72
1630.65
1638.96
1693.78
1708.54
1585.13
1575.04
1451.19
1493.14
1560.62
1343.04
1411.53
1285.6
1653.26
1533.73
1563.65
1502.05
1525.75
1404.06
1379.55
1215.56
1149.64
1242.92
1177.04
1361.25
1294.87
1463.3
1377.37
1207.77
1257.76
1285.87
1282.66
1219.28
1331.62
1421.15
1534.13
1256.24
1329.48
1147.51
1290.6
1295.63
1206.24
1118.37
1140.42
1319.37
1097.73
1136.06
913.863
1027.2
1025.64
992.652
926.569
1424.11
1230.04
1017.4
1053.74
1245.45
1080.71
966.81
1311.81
1202.79
1319.88
1004.31
1140.95
1154.56
1162.28
1126.51
1100.53
826.071
916.904
857.228
1169.09
1096.5
1119.59
1119.61
1050.01
1418.01
1318.27
1139.49
1251.25
1188.21
1247.92
1181.9
1027.7
1018.4
996.845
1014.27
1109.72
1048.18
1102.61
1166.61
1124.77
1026.45
1685.89
1641.01
1637.74
1702.26
1524.28
1567.84
1506.55
1576.91
1558.6
1483.58
1511.04
1488.15
1549.39
1566.46
1334.4
1368.23
1327.19
1453.1
1413.08
1432.2
1407.72
1403.69
1436.74
1523.04
1479.11
1487.6
1565.98
1664.06
1398.04
1493.13
1512.27
1615.34
1581.51
1069.12
1089.61
1290.86
1176.76
1248.04
1120.19
1209.77
1268.22
1317.52
1301.98
1432.14
1321.71
1377.11
1438.84
1357.4
1351.88
1384.62
1434.05
1547.5
1103.5
1065.56
1122.28
1123.42
1071.69
1075.25
1072.75
1363.56
1267.86
1158.08
1204.97
1209.26
1223.04
1183.57
944.578
995.952
944.3
1101.5
1084.75
1119.17
1175.66
1089.73
1217.55
1107.91
1120.73
1088.93
1406.28
1513.7
1322.16
1371.49
1608.85
1542.9
1667.17
1659.54
1546.06
1614.02
1551.04
1690.87
1488.04
1377.16
1378.51
1465.85
1472.87
1657.42
1489.51
1448.76
1558.78
1499.11
1875.87
1517.83
1640.34
1659.16
1547.28
1763.3
1365.93
1405.65
1669.33
1594.04
1671.31
1558.82
1507.29
1573.97
1522.81
1690.07
1390.44
1358.96
1496.58
1527.19
1473.22
1802.37
1648.14
1681.43
1531.23
1582.57
1690.51
1463.78
1574.36
1636.7
929.051
923.412
950.532
946.334
916.801
904.18
952.639
961.198
983.282
1264.9
1261.5
1278.01
1211.84
1228.4
1230.89
1081.63
1163.04
1073.19
1152.76
1106.16
1214.26
1026.22
1072.18
1006.8
1190.85
1137.72
1169.96
1042.58
1145.22
1062.85
1056.91
1029.27
991.116
1030.06
1105.37
1088.11
1100
1126.79
1022.9
957.448
949.294
998.288
1008.74
989.182
1046.3
976.69
949.678
1102.96
1124.18
1107.95
915.693
1056.79
1007.06
1012.52
1039.29
1107.53
1046.98
1018.34
1114.01
1092.29
1068.77
1029.74
1072.79
973.887
1046.99
1042.15
1028.77
1061.4
1091.79
1108.48
1309.28
1279.97
1334.52
1171.8
1215.34
1224.75
1192.26
1211.7
1137.32
1072.94
1077.17
1100.2
1047.56
966.26
1133.85
1106.69
1066.88
1098.2
1168.54
1387.11
1339.72
1398.24
1382.91
1426.18
1306.02
1227.72
1373.41
1383.72
1439.23
1297.44
1379.15
1311.51
1430.37
1385.77
1390.11
1208.96
1308.08
1257.31
932.496
1045.09
965.305
916.734
947.643
1389.03
1369.42
1318.88
1342.63
1351.64
1323.19
1227.06
1275.15
1290.14
1039.42
1176.16
1360.41
1282.44
1300.6
1106.25
1233.4
1039.42
1214.07
1254.98
1254.24
1322.72
1358.32
1313.14
1403.59
1361.73
1302.26
1280.01
1552.84
1448.65
1509.63
1496.48
1463.53
1321.46
1401.75
1381.89
956.259
879.478
896.453
965.765
1040.79
1222.83
1323.81
1327.24
1129.32
961.996
1132.64
1170.13
1102.26
1163.95
1281.87
964.136
1199.42
1089.5
1417.12
1236.55
1346.12
1474.67
1527.17
1002.64
1271.05
1105.28
1104.35
1148.62
1368.47
1436.44
1397.41
1291.04
1287.21
1332.55
1434.61
1503.37
1501.47
1500.03
1507.5
1560.45
1633.05
1472.37
1593.57
1501.64
1458.12
1478.1
1753.92
1785.83
1828.16
1783.02
1977.23
1536.33
1608.09
1617.18
1330.8
1341.86
1341.5
1398.95
1449.28
1439.61
1497.91
1472.78
1402.37
1367.83
1674.38
1516.56
1568.29
1666.6
1560.54
1432.77
1481.63
1479.57
