# vtk DataFile Version 4.2
vtk output
ASCII
DATASET POLYDATA
POINTS 642 double
-2319.32 5760.56 -621.695
164.863 5665.52 -557.483
-2337.29 599.389 -31.091
1341.14 620.002 72.5995
-667.844 1403.34 2231.14
-1408.15 4497.5 1599.06
-499.777 1799.91 -1854.93
-1388.95 5148.04 -2396.98
1479.49 3072.95 -953.157
1706.02 2983.13 1183.41
-2773.46 4085.31 -1288.92
-3302.67 3547.42 1603.9
-3179.59 4907.74 942.316
-2323.44 4249 2077.78
-1842.99 5269.26 1199.15
-82.3047 5231.24 312.823
-669.777 6219 -291.577
-38.0757 5780.56 -1241.09
-1945.9 6080.06 -1837.99
-2121.47 4934.78 -2463.7
-3055.13 5279.78 -1374.86
-3482.58 3495.73 220.653
725.082 3724.44 1672.08
1281.21 4106.35 707.453
-1972.09 2172.75 1883.01
-464.514 3005.57 2244.34
-2724.15 1620.13 -605.519
-2833.38 1668.31 927.87
-1030.44 3934.7 -1741.88
-1758.5 2638.97 -1533.88
1017.8 4517.39 -508.973
249.415 4597.47 -1154.5
2165.35 1573.38 877.368
832.813 2275.37 2043.97
519.269 707.866 1527.81
-1736.21 654.51 1594.35
-531.926 510.719 -58.5699
-1441.65 847.508 -1356.07
420.648 864.336 -1280.8
685.912 2243.9 -1597.24
2001.93 1691.27 -598.328
2045.16 2635.83 140.614
-2804.04 5264.45 483.087
-2539.09 5215.22 1159.12
-1942.86 5405.27 661.204
-2876.96 3942.15 1964.09
-2835.14 4631.99 1685.26
-3325.94 4243.41 1351.14
-1683.42 4976.59 1471.71
-2153.19 4855.61 1709.38
-1958.53 4413.96 1938.24
-928.355 5984.42 144.237
-1180.2 6125.77 -374.107
-430.662 4636.76 1139.02
-1131.71 5610.14 570.58
-214.392 6027.76 -433.027
-500.931 5945.87 51.8717
-148.781 5685.2 -48.4833
-1340.32 6105.88 -1068.5
-2148.78 6079.6 -1455.87
165.496 5814.95 -840.724
-295.727 6159.22 -851.316
-1686.22 5657.26 -2215.78
-941.54 5921.14 -1593.75
-531.517 5511.76 -1701.38
-2630.28 5907.28 -1680.82
-2755.36 5681.24 -1052.25
-1824.28 5148.88 -2575.45
-2135.18 5601.58 -2370.03
-2978.1 4922.46 -1496.98
-2809.39 5224.96 -2003.65
-2544.09 4518.03 -2059.5
-3133.65 5030.7 -58.5036
-3233.32 3528.35 -480.824
-3172.93 4437.39 -477.468
-3458.93 4315.69 572.952
-3459.28 3538.89 933.251
742.917 4483 828.37
658.075 4729.92 143.761
166.598 3976.71 1665.67
481.418 4307.56 1314.62
1547.57 3650.57 970.898
1101.73 3987.76 1221.97
1230.74 3439.85 1528.82
-2021.43 3782.52 2182.82
-894.627 3615.39 2121.81
-2837.44 3228.56 1868.24
-2299.66 3575.81 2238.04
-388.086 2362.99 2356.2
-1364.72 3145.73 2228.81
-1312.25 1472.35 2087.64
-3426.42 2624.3 477.224
-3158.52 2791.64 1214.81
-2911.38 2609.05 -906.267
-3268.79 2608.58 -252.44
-2690.16 981.422 535.445
-2919.16 1586.09 15.8941
-2716.77 989.634 -438.367
-2077.8 4209.78 -2199.43
-2115.92 3394.83 -1591.07
-1444.14 5069.01 -2327.2
-1908.01 4729.22 -2445.14
-1059.25 1910.94 -1768.27
-1537.74 3377.36 -1896.87
-505.725 2379.57 -1872.73
109.087 5237.66 -1453.41
-563.775 5171.46 -1802.04
501.554 5332.42 -858.279
399.895 5391 -1007.35
1030.18 3401.25 -1194.49
348.142 4525.39 -984.423
1418.12 3586.55 -719.436
1908.12 1006.49 520.804
1529.68 1071.86 1184.64
1035.13 598.909 799.687
1377.29 2613.98 1629.36
1676.08 1775.04 1399.55
2124.98 2167.62 1000.74
-136.592 1073.56 2002.22
745.715 1384.49 1861.92
217.904 1861.61 2232.93
155.215 517.007 995.194
628.015 519.887 24.8513
-1029.82 1019.49 2146.57
-614.443 606.302 1751.65
-1677.92 503.548 86.3397
-1298.91 520.872 977.475
-2062.41 540.144 982.745
93.9618 527.935 -830.027
885.833 716.328 -660.388
-2020.62 677.359 -645.931
-1150.03 516.217 -879.381
-57.6531 1262.2 -1570.48
-610.1 801.231 -1381.32
-1099.85 1170.4 -1587.33
1266.21 1238.23 -909.57
1815.82 1079.32 -331.925
87.0641 2027.51 -1802.63
639.317 1535.65 -1547.97
1884.61 2072.49 -655.837
1337.72 1927.22 -1143.01
1130.95 2680.55 -1333.13
2255.84 1535.73 96.4614
1871.08 2891.56 -418.22
2249.71 2122.54 -196.432
2374.54 2160.17 439.685
2010.07 2707.01 632.643
171.319 2641.71 2276.05
809.753 3022.68 1977.26
170.181 3285.71 2101.09
-2449.81 942.243 1412.6
-1968.03 1244.12 1988.77
-2432.35 1706.61 1540.32
-1557.54 1308.4 -1505.45
-2296.34 1108.15 -921.992
-2365.3 2052.61 -1131
644.926 3001.73 -1533.93
6.73671 2741.05 -1868.31
-571.721 3851.12 -1939.61
1710.86 3622.23 424.058
1670.3 3602.26 -235.675
1293.89 4125.4 38.2094
-2545.05 5407.23 -48.5142
-2482.3 5368.39 629.724
-2040.47 5553.26 120.215
-2881.54 5104.56 1069.94
-2695.81 5262.97 866.773
-3021.24 5117.76 745.004
-1941.51 5373.74 970.628
-2345.17 5339.15 964.12
-2184.56 5265.22 1193.24
-3127.05 3733.02 1808.61
-3148.87 4073.55 1710.33
-3350.01 3857.53 1518.27
-2594.75 4444.91 1944.53
-2869.86 4297.41 1868.47
-2602.05 4132.19 2071.29
-3278.14 4619.19 1145.03
-3107.59 4469.3 1536.54
-3042.92 4790.98 1334.07
-1647.5 4791.26 1580.4
-1828.15 4723.7 1720.36
-1780.35 4532.08 1787.56
-1998.99 5097.55 1460.23
-1906.1 4931.04 1603.58
-1756.2 5137.23 1349.12
-2116.5 4330.32 2036.64
-2046.67 4642.28 1848.92
-2255.07 4573.87 1927.07
-2711.41 4977.54 1438.24
-2482.88 4783.4 1741.47
-2348.29 5063.59 1479.22
-1429.04 5867.92 26.3711
-1743.01 5863.89 -596.139
-1374.01 5496.7 628.633
-1397.49 5730.14 312.014
-869.353 6222.61 -260.027
-986.147 6102.75 -47.2292
-813.264 6151.9 -77.7884
-1011.76 4429.18 1291.07
-1416.38 4954.19 1311.43
-621.289 5549.31 403.622
-1018.79 5077.33 817.693
-201.409 4854.39 793.747
-1510.34 5129.93 1190.65
-1406.85 5259.6 995.951
-12.629 5867.8 -505.629
-161.833 5865.74 -209.673
17.9516 5692.15 -299.174
-583.807 6107.52 -102.869
-375.901 6010.12 -137.685
-464.014 6157.89 -370.355
-219.897 5547.75 132.149
-308.601 5828.7 11.0347
-438.356 5771.85 158.995
-915.105 5774.45 352.366
-668.125 5820.12 253.865
-723.291 6006.16 109.957
-1749.41 6014.67 -1152.37
-2245.2 5933.76 -1136.78
-774.197 6230 -549.828
-1288.51 6123.1 -725.62
-2066.79 6123.71 -1607.47
-1881.37 6053.54 -1410
-1854.92 6071.29 -1567.18
175.668 5758.85 -764.331
-4.87818 5946.32 -700.418
-153.568 6014.79 -1049.51
-58.9274 6015.99 -853.043
85.6465 5833.82 -1018.3
-250.069 6118.22 -666.35
-453.254 6208.53 -614.316
-1552.28 5353.29 -2360.06
-1275.91 5580.85 -2015.21
-1077.53 5230.96 -2084.3
-1630.07 5969 -1813.85
-1443.87 5817.26 -1926.98
-1819.72 5900.43 -2048.6
-189.181 5676.18 -1436.03
-746.176 5773.03 -1674.84
-355.302 5911.04 -1342.02
-589.702 6222.52 -882.822
-460.877 6114.21 -1137.94
-1115.52 6045.13 -1364.31
-2467.37 5939.2 -1281.08
-2528.75 5769.06 -840.03
-2246.74 6092.94 -1790.57
-2377.37 6067.87 -1536.19
-2939.64 5505.82 -1230.75
-2716.72 5824.95 -1414.36
-2909.65 5611.27 -1534.25
-1649.77 5162.63 -2541.36
-1742.9 5339.42 -2495.01
-2163.35 5239.28 -2480.9
-1893.56 5312.41 -2585.11
-1895.75 5084 -2589.31
-1884.14 5669.17 -2328.5
-2033.31 5914 -2144.69
-2829.15 4469.5 -1525.74
-2807.5 4734.15 -1781.32
-2653.08 4388.07 -1821.53
-3015.45 5264.54 -1699.3
-2946.04 5107.68 -1744.03
-3055.22 5111.9 -1462.82
-2374.16 4739.69 -2276.84
-2690.34 4984.31 -2032.13
-2499.75 5115.65 -2247.09
-2428.42 5810.96 -2084.83
-2538.99 5422.64 -2252.5
-2802.39 5551.81 -1918.53
-2749.02 5414.54 -372.294
-3044.23 5201.12 -837.421
-2938.81 5320.48 -618.938
-3010.03 5156.93 204.044
-3224.9 4955.91 535.671
-2890.39 3659.8 -942.778
-2965.3 4335.93 -988.533
-3430.51 3926.49 -11.7892
-3242.65 4001.27 -478.419
-3397.69 3476.06 -163.534
-3044.49 4787.16 -1070.95
-3074.11 4972.35 -1064.43
-3443.12 3884.96 1215.92
-3428.87 3544.51 1338.35
-3391.18 4651.32 794.297
-3434.75 4319.3 988.789
-3554.62 3530.1 505.702
-3513.76 3913.24 732.008
-3544.66 3919.78 392.445
-3206.58 4783.86 -265.8
-3450.98 4334.6 178.537
-3395.69 4689.72 349.706
262.133 5236.1 -174.827
275.944 5387.51 -397.965
267.617 4763.17 775.981
52.2849 4928.85 391.731
1088.79 4311.97 564.151
791.445 4552.8 535.681
1020.53 4319.68 775.697
-301.401 4107.38 1607.71
11.3366 4279.22 1454.86
615.15 4056.57 1489.02
358.599 4175.71 1482.29
464.917 3844.76 1677.68
205.881 4419.12 1283.85
307.181 4561.5 1062.81
1629.91 3385.45 1096.13
1424.17 3559.69 1260.16
1450.06 3287.98 1402
1217.46 4055.46 969.865
1335.72 3830.56 1111.54
1435.55 3881.81 838.899
983.844 3586.09 1618.26
1182.55 3733.46 1377.77
942.636 3882.18 1452
628.058 4413.31 1087.31
796.483 4171.97 1286.56
936.418 4256.67 1041.87
-1779.8 4086.28 1994.4
-1144.96 4128.63 1561.81
-2089.67 3985.05 2161.21
-1959.74 4060.43 2084.87
-567.303 3390.68 2111.34
-1546.04 3936.65 2024.99
-1349.75 3530.55 1884.21
-3100.66 3398.5 1774.11
-2908.18 3566.4 1948.22
-2259.73 3257.71 2134.15
-2588.73 3427.87 2070.71
-2410.15 2897.99 1866.97
-2614.2 3749.66 2107.18
-2325.9 3876.25 2192.79
-547.563 1787.68 2234.01
-785.467 1807.08 2202.8
-892.705 1417.31 2231.98
-968.367 2911.2 2230.28
-717.641 2534.58 2271.18
-384.99 2657.4 2296.81
-1720.61 1597.29 1939.79
-1248.47 2079.19 2093.04
-1772.1 2687.06 2013.06
-2084.34 3662.44 2264.01
-1988.41 3476.48 2230.51
-1906.87 3413.71 2256.24
-3379.92 3215.27 1163.67
-3293.03 3278.47 1470.77
-3472.11 3049.48 342.086
-3425.05 3117.83 685.484
-3061.44 2193.26 1043.8
-3325.14 2673.46 839.882
-3227.07 2262.56 669.818
-2838.69 3055.19 -1013.03
-3054.54 2981.32 -723.429
-3064.02 2198.93 -501.118
-3099.28 2574.15 -617.629
-2903.52 2236.3 -774.836
-3251.2 3015.45 -346.656
-3396.1 3015.77 -24.631
-2542.84 747.832 247.439
-2729.34 960.399 -37.474
-2550.2 753.653 -259.962
-2952.93 1643.08 459.294
-2829.19 1189.85 227.085
-2712.91 1216.27 780.179
-2722.66 1185.61 -532.462
-2818.99 1162.13 -246.641
-2810.22 1537.84 -335.206
-3413.75 2608.18 136.957
-3187.66 2187.51 -109.717
-3276.92 2231.93 286.989
-2385.25 4222.34 -2009.33
-2504.94 3813.21 -1275.36
-2113.85 4508.23 -2358.81
-2285.26 4326.35 -2176.42
-1999.39 3133.99 -1588.56
-2169.49 4019.02 -2028.09
-2017.6 3782.12 -1932.32
-1402.44 5147.12 -2406.01
-1698.21 5166.98 -2567.52
-1736.1 4574.56 -2315.37
-1734.55 4912.74 -2422.86
-1433.93 4701.83 -2231.1
-1889.6 5091.08 -2566.07
-1911.35 4850 -2504.91
-783.602 1860.94 -1825.48
-769.469 2209.54 -1876.78
-488.997 2060.65 -1872.05
-1412.01 3163.6 -1851.91
-1038.61 2490.72 -1845.55
-1317.1 2072.47 -1660.36
-544.657 2908.18 -1889.77
-900.277 2694.73 -1883.16
-1646.29 3523.66 -1953.86
-1942.21 4423.1 -2341.35
-1922.73 4273.37 -2302.48
-1827.91 4053.1 -2177.62
-505.791 5208.18 -1789.99
-1086.59 5112.87 -2191.55
[...]
POINT_DATA 642
SCALARS Mean_Curvature double 1
LOOKUP_TABLE default
0.000562006
0.000829917
0.00150413
0.00157346
0.00102119
0.00305429
0.0018229
0.0040945
0.00109599
0.000851731
0.00059114
0.0022763
0.00141557
0.00112347
0.00159402
-0.00337837
0.0028274
0.00143371
0.00286273
0.00100326
0.00197841
5.77526e-05
0.00077708
0.00117113
0.000312949
0.000313731
0.000253123
8.53812e-05
-0.00217334
-9.42372e-05
0.00636569
-0.00599448
0.0017871
0.000772815
0.00153103
0.00155345
2.38752e-05
0.00161738
0.00196326
0.000399451
0.00192755
-0.000670922
0.000884609
0.00117291
-0.0010774
0.00113759
0.00121501
0.0010081
0.00139437
0.00123676
0.000936296
0.00162336
0.000939679
0.000677186
-0.00576657
0.00124626
0.00155022
0.000603797
0.000552534
0.00132925
0.00459384
0.00259692
0.000445111
0.00126153
0.000431968
0.00213916
0.00100488
0.00441628
0.00180641
0.000255641
0.00231903
0.00144839
0.00111731
0.000494017
-0.000592442
0.000172968
-4.67148e-06
0.000353707
-0.000726123
0.000667265
0.00104434
0.000978916
0.0010763
0.000885379
-0.000858747
0.00387576
0.00100842
0.00243311
0.00146929
-0.00328665
-0.0006036
0.00152592
-0.000121241
0.00125186
0.000679136
0.00134657
9.49515e-05
0.0028868
0.00107072
-0.000351729
-0.00259814
-0.00287443
0.00108433
-0.00292547
-0.000145147
0.00414149
-0.000826034
0.0059938
0.00241693
0.00067695
-0.00225154
0.000775122
0.00133369
0.00113764
0.000881663
0.000477782
0.00073495
0.00236706
0.000141979
0.000624382
0.000793494
0.000270137
0.000216046
0.00206127
0.00184794
-0.000207165
-8.86041e-05
0.0014354
0.00138368
0.000584987
0.000433237
0.00136079
0.000223059
0.00158142
0.000868064
0.000193547
0.00142419
0.000800989
0.00182892
0.000262834
0.000605102
0.000755564
0.00108534
0.000963905
0.00249673
0.00380168
-4.42445e-06
0.000584364
0.000702804
0.00107474
0.00176461
0.00340048
-0.000312908
0.00212231
0.00226773
0.000558217
0.000281555
0.00150277
0.00265541
0.000927319
0.00107344
0.000503856
-0.000463966
0.000651782
-0.000188011
0.00136661
0.00114802
0.00140923
0.00197178
0.00124862
0.000999948
0.00161388
0.0011721
0.00169816
0.00153017
0.00129062
0.00165444
0.00118804
0.00101078
0.00117162
0.000310487
0.00147805
8.03567e-07
0.00139379
0.00144216
0.00178604
0.00194612
0.00135279
0.001575
0.00135627
0.00132235
0.00115983
0.000517151
-0.000576733
-0.000665008
0.00103394
0.00257873
0.0014889
0.00274877
-0.00260664
0.00110406
0.000281493
-0.00122881
-0.000285234
0.0024944
-0.00291163
0.000900247
0.00149978
0.000589711
0.00191359
0.00165774
0.00119278
0.00449752
0.00160121
0.00120577
0.00280763
0.00157639
0.00229618
-0.000866585
1.11687e-05
0.000803223
0.00143197
0.00327961
0.00143452
0.00096207
0.000409595
0.00165472
0.00174742
0.00273178
0.00175444
0.00134694
0.00219353
0.000144123
0.000138921
-0.000623842
0.00100063
0.000939849
0.000941803
0.000905472
0.00144957
0.00109352
0.00150907
0.00165547
0.00050283
0.00120668
0.00125924
0.0026167
0.0029828
0.00102538
0.0016973
0.00205092
-0.0130413
0.00140396
0.00162317
0.00485484
0.00775358
0.00234819
0.00269894
0.00139319
0.000848145
0.00100514
0.00326911
0.000933881
0.00260099
0.000983558
0.000293686
0.000702323
0.00171299
0.00218083
0.00191563
0.000550339
0.00132382
0.000861013
0.000795846
0.00124824
-0.00024176
-0.000733035
0.000385784
0.00104523
0.000951853
0.000697721
0.00113889
0.000881254
0.00192
0.00171694
0.00104338
0.00176781
0.000548926
0.00141298
0.000663822
0.000919262
0.00148458
9.83491e-05
0.00143267
0.00451697
-0.00285846
0.000794543
0.00128924
0.00108508
0.00121979
0.000444844
0.000947405
0.000916699
0.000343167
0.000678353
0.00101742
0.000978598
0.00106081
0.000994002
0.000961803
0.00104465
0.000981938
0.000683272
0.000939819
0.000988496
0.000959469
0.00113952
0.00106725
0.00107349
-0.00221628
0.00246974
0.000705321
-0.0012703
-6.91739e-05
-0.00281605
0.0017323
0.00131971
0.0013474
0.000778362
-0.000783716
0.0010115
0.00141803
-7.15917e-05
-7.56216e-05
0.00134861
0.00149542
0.000417219
7.17513e-05
-0.000915137
-0.00013023
-0.000461791
0.00627132
-0.00256906
0.00684312
0.000962529
0.00153186
0.000965211
-0.000193832
0.000794581
0.000837071
0.000577703
0.00131664
0.000401145
0.000992984
0.000910892
0.000948853
4.13795e-05
0.000559535
0.00128463
0.00114887
0.00178247
0.00031172
0.000913603
-0.000221621
0.00183142
0.00188474
-0.000271201
0.00150629
0.000589262
0.000934116
0.000788907
-0.00175305
0.00214192
0.00160784
0.000285887
0.00233273
-6.15632e-05
0.0204116
0.0132671
0.000100033
-0.00040732
0.00138549
-0.00766525
0.00831337
0.000732259
0.00107647
0.000398152
-0.00118255
0.00134394
0.0002728
0.000307691
0.000847459
-0.00260019
0.00290127
0.00669773
-0.00233062
0.00432906
-0.0173287
0.00140946
0.00106859
0.00278308
-0.0156542
-0.00207781
-0.000645025
0.00592366
-0.00245267
-0.0187878
0.0295688
0.00352314
0.00121098
0.000980309
0.000730352
0.000989877
-0.0126137
0.000907322
0.000359764
8.18441e-05
0.000375484
-0.000446466
0.00272304
0.00118698
0.00190322
0.000813958
0.00106224
0.00157353
0.00141092
0.00120775
0.00168363
0.00151719
0.000619812
0.000937612
0.000496941
0.000367099
5.25161e-05
0.000129948
-2.42207e-05
0.000765595
0.00104684
0.000962468
0.00153478
0.000261215
0.00145567
0.000510688
0.00116808
0.000560334
0.00104509
0.00101514
0.00076534
0.00035308
0.00150775
0.000564574
0.000201608
0.000589146
0.00122374
0.00147748
0.000811503
-6.71004e-06
6.69163e-05
1.8555e-05
0.00264
0.00228477
0.00169293
0.00152261
-0.000428249
0.000892388
0.000994007
0.000705597
0.00166017
0.000751003
-0.000106258
0.00116183
-0.000110839
0.00212362
-0.000213923
0.000651603
0.000931627
0.000993355
-0.00010448
0.000766117
0.00112334
0.000157044
0.000497545
0.00149915
0.00182869
0.00166312
0.0024287
0.000959292
0.00185215
0.00138956
0.00110074
0.000271888
1.75497e-06
0.000807407
0.00059714
0.000607133
0.000803529
0.000422902
0.000898531
0.00259536
0.00103518
0.00126962
0.00145531
0.00103972
0.000595347
0.000884288
0.00118438
0.000937049
0.000445468
0.00146247
0.0010374
0.000928911
0.00132019
0.000529461
0.00101573
-9.78623e-05
0.00039564
0.000377612
0.00102707
0.00049182
0.000236654
0.000771255
0.00127928
-0.000405281
0.0022071
0.000892035
0.000358261
0.000639942
0.000908359
0.00128188
0.000512234
0.00112024
0.00145271
0.00142942
0.00140365
0.001137
0.000905256
-0.000240322
0.00111679
0.000759709
0.000618611
0.000724127
0.00286397
0.00127099
0.000791144
0.00133427
0.00291136
0.000151917
0.000836487
0.000837857
0.00141141
0.00315396
0.00237496
0.000698674
0.000827534
0.000286399
0.00222008
0.000253498
0.000926671
0.000684264
0.000756596
0.000790782
0.000948056
-0.000396453
0.00112584
0.0004836
0.000212259
0.00053887
0.00157403
0.000722152
0.00141642
0.000613746
0.00191672
0.00154003
0.00174265
0.00158176
0.00229907
0.00135046
0.00236928
0.00113646
0.00183294
0.000441026
0.000261401
0.000880516
0.000536111
9.44192e-05
0.00239835
0.00171186
0.00195301
-0.000129433
0.00225275
0.00275437
0.000126261
-0.00075783
0.00170726
0.0011333
0.00278243
0.00073623
0.00130422
0.000472906
6.68191e-05
0.000590748
0.00111928
0.000530554
0.00194708
-0.00129864
-0.000429258
0.000866546
0.000537292
0.000769121
0.000824333
0.000258607
0.000680559
0.000324063
0.000341521
0.000954966
0.000305544
0.00317455
-0.00125321
-0.000929298
-0.000893503
0.000524275
0.00104633
0.00109405
1.1453e-05
0.00111162
0.000943261
0.000682777
0.00107575
0.000822183
0.000936417
0.00176106
0.000842958
0.00103969
0.00100763
-0.000101492
0.000370448
0.000206912
-0.00275712
-0.00171702
0.00122939
0.000941969
0.000498387
SCALARS CoVolArea double 1
LOOKUP_TABLE default
248371
65009.7
116141
112717
78110.4
186205
84503.2
42034.5
98282.6
133787
175441
77170.3
125555
94985.5
122413
208744
59362.6
86097.4
81488.1
108971
107849
162285
111347
84699.1
295132
215702
168752
246280
536681
403552
150391
231245
132454
175118
158001
155803
392770
115185
105806
123986
94875.8
164455
173921
114937
231324
118084
138316
140791
63267.9
93698.7
68559.6
105185
202181
363293
158461
72817.5
51134.8
145779
213135
82737.9
38455.6
68692.4
109476
179745
198647
137894
159976
16686.4
136847
144837
101987
119874
192215
266497
252461
154932
165552
150747
184099
146170
85928.3
87880.4
89309.1
97409.1
125555
289270
173470
91397.8
146349
292478
170460
158751
220271
125329
168441
157777
229367
84881.9
78690.9
333034
82573.7
43101.3
147434
68919.5
135916
37590.9
64569.1
87107.6
53899.4
118286
218415
96520.8
146377
182241
166281
183683
146542
87634.3
184090
196363
148084
230259
203061
142418
157399
189649
256286
150382
151322
171690
141539
158773
161258
149561
89908.1
194047
130709
123990
107117
118874
140172
140019
146404
149254
59654.7
54316
144224
118115
109830
96583.3
123615
80656.7
213625
79271.3
121363
230986
136553
103814
425930
110325
88082.2
179357
262640
213391
390290
127031
110180
122963
154604
116795
104982
104356
134426
113621
116488
125551
110418
130685
140602
141697
118542
58500.5
138801
90138.3
67410.9
67925.4
65840.5
67702.3
93534.4
147212
131980
127081
288583
370624
190103
185298
84678.1
108201
48496
313261
242557
293173
380322
364190
119724
99836.2
65411.5
65728.4
95828
55794.9
63139.1
64560.2
105529
53124.5
91580.9
91904.7
78987.5
58947.6
184033
186928
147059
138957
54520.5
84242.7
132522
42368.3
52499.3
81650.4
54559.4
64402.4
59698.2
71438.6
113165
199190
161336
147147
140164
86815.6
119268
171389
130930
174541
150556
239579
106673
168982
116519
80750.2
130767
104524
120450
27197.1
60918.4
117005
70480.4
41141
87255.3
113705
192992
129203
168134
92706.8
83921.4
70397.5
131802
125306
123397
176377
152759
157603
210426
179347
181019
177949
149803
283780
294581
217768
239799
185951
168673
163754
151608
110418
139705
156121
151547
166879
152770
254244
221173
187141
260316
121492
150116
296110
119214
221323
89512.5
281522
208638
94398.1
92016
108916
157433
158314
120279
91488.5
122519
86158.4
83045.7
76898.9
98878.5
89764.3
98009.4
111352
97250.9
96162.4
202315
399664
62874.8
68139.2
176404
141894
346998
102243
106696
233069
139001
289063
112697
96279.9
146318
226698
92232.2
233427
271541
116601
237607
442121
406067
49477.6
151616
155409
169937
123928
157174
183962
237848
201916
225329
219113
212527
195017
149266
160173
176731
166899
163770
127667
114087
267053
176093
184706
85988
119441
187355
164001
227146
221718
209321
371166
93337
85479
227990
107050
241872
15751.8
34211.4
272944
86393.4
230629
24896.3
45737
117797
118441
80190.7
312822
180452
293357
359356
196413
404984
43740.1
72434.7
102239
99629.5
32013.2
78493.1
94213.5
261332
28674.8
40783.4
76136.4
21493.6
105319
18343.4
31864.8
44493.4
78475.8
85480.2
110698
87274.8
101125
177864
137924
173831
202771
279442
61248.6
142874
77727.7
148879
163499
140549
141933
151084
130055
154413
174957
187181
167295
150113
134789
203295
175600
171383
98430.9
115519
119135
126450
165588
155123
179951
175101
164422
145670
156497
202610
172589
212441
221031
162895
136965
169063
165453
302751
247322
384541
75882.2
124393
169387
144739
191254
150332
173020
150056
157938
177757
370765
199072
298187
125024
157201
180480
213047
220973
319162
168806
149499
247780
187710
127901
137130
124515
111477
158261
126785
148986
144873
213304
272627
141843
143011
129319
140000
139854
112502
72453.2
111011
114224
190146
161704
180555
157254
140131
157317
173826
113276
145935
146127
97620.7
154711
101602
121839
117744
123601
113011
171332
176498
132543
114911
115671
57397.4
124020
156660
125998
181778
145554
192544
147753
126920
133598
138479
145170
140125
154048
95196.1
113605
147120
68846.7
75280.9
101185
149619
114612
66074.6
136918
76358.7
77084.3
116425
61320.8
120201
159216
137658
131214
95530.6
111937
136674
119549
106302
130450
128785
306671
118255
144756
134568
119412
121308
113814
111043
172406
132463
133300
137145
158998
95759.7
122842
76757.6
139771
151132
203026
216814
264581
285831
261114
121116
122608
144544
106431
85644.9
54073.3
104329
240367
109512
127970
85490.1
136032
140403
252297
311102
237334
152269
204989
130422
202213
207382
94491.5
127109
101113
112635
320608
97222.4
210894
119489
112835
135187
88255.3
717399
465094
199759
224252
131098
127284
377223
132521
166535
144556
93267.9
93235.4
101863
112408
83910.3
112882
149086
246029
123986
258611
233322
114875
116186
118797
115703
SCALARS SignedDistance double 1
LOOKUP_TABLE default
529.475
656.58
379.019
382.919
574.053
771.782
595.121
842.066
584.08
518.767
702.886
393.235
405.865
544.038
599.938
856.369
513.997
510.211
561.895
515.153
475.309
484.896
595.183
607.547
595.2
573.32
596.498
504.501
1156.14
681.758
889.024
931.812
406.964
491.324
386.012
385.758
460.315
450.506
465.145
595.448
509.646
608.303
500.414
485.912
607.064
440.47
423.156
398.471
634.592
568.767
636.237
576.179
499.291
786.471
715.232
574.791
612.331
698.75
787.592
593.187
612.423
509.114
543.547
822.776
713.183
373.471
418.883
661.404
404.343
517.694
466.776
523.183
517.038
541.037
562.572
463.474
460.168
628.23
789.616
612.243
604.478
565.514
574.752
554.055
616.539
916.477
479.689
570.556
561.832
915.586
648.754
431.763
486.561
521.356
483.879
456.59
530.584
470.582
747.386
919.084
771.226
635.4
558.475
1118.76
614.543
698.109
876.897
758.902
666.256
643.456
939.485
607.902
358.861
382.463
392.96
509.161
509.799
499.821
453.491
441.172
517.233
456.011
450.756
461.082
386.238
466.117
449.712
428.322
441.981
433.689
434.691
454.058
523.135
466.649
600.843
497.624
397.386
568.774
559.368
576.05
557.838
588.412
425.921
551.721
531.306
535.912
599.6
561.776
551.889
593.442
383.95
566.227
596.749
626.745
614.5
569.393
650.769
609.186
1250.73
585.332
590.112
628.657
535
580.31
537.103
447.472
488.172
444.157
594.81
550.057
530.051
410.22
396.679
387.859
495.692
418.722
496.553
396.448
403.833
404.697
650.289
637.663
664.247
561.059
592.903
615.456
609.07
607.485
562.982
453.105
507.353
516.987
530.197
676.706
667.879
572.349
496.153
526.025
531.394
802.555
707.427
742.554
795.942
890.285
679.185
753.31
615.233
637.128
674.26
560.276
592.428
529.047
749.508
657.117
668.935
658.05
649.854
593.284
819.776
563.523
476.813
602.837
605.072
694.088
669.825
618.133
587.243
486.221
550.352
526.993
536.679
518.416
626.321
809.261
988.828
681.883
739.181
519.498
528.633
757.112
483.277
470.595
448.341
801.658
497.214
481.367
477.492
507.659
415.831
405.407
386.408
716.139
576.755
475.502
571.85
659.272
485.04
450.255
573.053
507.021
556.609
462.904
480.163
505.322
485.038
463.089
455.33
313.81
410.619
354.616
485.025
470.739
470.231
478.076
425.209
729.598
590.567
468.518
549.016
499.604
523.434
506.134
448.79
434.734
399.779
439.867
489.206
441.752
477.916
534.302
483.766
411.158
826.118
740.634
801.451
927.245
629.161
669.259
608.924
640.395
636.149
600.534
606.626
614.622
635.541
652.532
541.606
548.053
532.484
589.538
570.507
582.617
572.755
564.081
573.125
618.751
592.899
600.461
667.503
765.322
622.357
634.492
685.929
805.398
761.848
429.524
460.51
621.613
483.365
581.742
463.583
538.33
524.658
563.946
588.356
642.658
557.651
575.382
683.695
646.713
599.086
650.047
706.845
786.009
498.658
429.596
489.4
513.08
429.691
440.381
441.392
603.13
529.338
465.618
497.657
486.646
510.359
500.083
373.828
422.248
375.059
488.321
524.869
583.46
579.165
532.469
586.868
453.813
463.429
455.964
633.783
783.625
634.915
632.159
795.319
796.54
1004.81
839.744
707
707.123
645.153
810.279
638.235
636.46
575.756
618.405
613.77
959.006
618.768
603.175
685.211
624.903
1238.61
719.804
790.097
938.801
845.739
1013.71
572.191
629.871
738.098
720.836
699.955
659.745
656.078
818.716
717.478
992.038
630.001
561.331
609.083
622.629
596.47
926.371
691.415
718.073
626.709
653.01
875.789
673.079
725.622
722.309
383.716
371.626
398.949
379.039
365.251
354.422
379.792
403.307
402.116
511.498
539.357
539.695
504.473
515.8
500.73
440.436
482.288
463.132
527.619
469.754
521.366
429.826
436.162
402.557
488.054
468.95
482.021
447.313
488.789
455.903
446.885
443.364
425.105
442.408
455.902
453.904
453.638
527.746
436.949
394.127
374.922
431.322
417.418
402.015
451.733
408.91
392.192
456.452
528.752
457.777
413.675
449.131
425.56
425.999
448.207
474.701
425.875
416.471
473.84
457.079
420.957
416.931
437.774
407.531
437.417
410.493
419.368
425.498
454.679
457.553
535.739
545.575
562.023
487.936
505.241
516.639
539.636
526.167
470.024
459.461
427.144
449.042
437.869
389.244
461.374
462.55
439.737
460.175
500.19
600.999
545.558
588.717
589.875
589.731
549.205
521.353
561.121
566.347
591.517
593.572
586.694
563.207
582.579
561.908
564.924
480.765
548.246
538.375
377.905
428.305
387.336
369.05
401.519
563.469
575.276
545.495
559.337
601.073
537.627
539.537
535.482
544.259
444.524
513.716
601.235
533.052
540.065
490.249
539.016
462.121
493.446
511.26
530.045
571.503
568.725
533.934
573.618
557.131
537.981
529.569
656.659
603.872
631.855
628.884
607.431
542.596
579.174
564.759
385.863
334.376
348.919
420.826
504.465
576.961
607.146
635.191
585.44
429.417
492.05
560.409
441.72
489.42
626.491
443.308
562.456
524.87
628.589
576.099
596.566
648.747
696.759
397.492
619.517
536.643
499.104
510.02
581.39
598.021
618.274
527.37
546.085
621.293
677.926
712.351
613.307
629.738
625.452
639.206
688.341
616.024
719.118
621.713
594.731
608.87
955.294
930.83
1058
916.299
1288.59
632.143
736.932
678.99
544.081
544.272
549.382
575.231
600.387
587.535
608.898
597.913
573.849
559.634
872.28
625.918
651.56
935.856
684.664
591.636
608.091
611.985
