# vtk DataFile Version 4.2
vtk output
ASCII
DATASET POLYDATA
POINTS 642 double
-2619.81 6580.51 -343.758
1006.86 6377.47 -264.325
-2679.53 -24.5677 -38.3246
1664.16 -20.1392 4.11245
-598.153 1227.93 3149.8
-952.893 5071.72 2600.94
-522.508 1480.05 -2833.65
-912.683 5422.7 -3224.02
2303.26 3252.26 -1633.58
2490.4 3184.73 1717.69
-3562.23 3724.21 -1924.11
-3923.93 3477.52 2024.68
-3752.61 5356.2 1172.66
-2538.79 4572.89 2922.66
-1840.29 6160.08 1709.86
262.797 6024.38 1183.75
-569.263 7114.64 -145.426
432.892 6405.58 -1774.6
-1928.34 6774.85 -2163.04
-2532.42 4875.5 -3205.37
-3788.38 5548.36 -1437.43
-4338.8 3459.46 66.4835
1149.4 4238.93 2541.2
2087.22 4834.75 966.299
-2366.74 2072.91 2760.42
-500.723 3227.85 3273.14
-3492.76 1383.31 -1038.16
-3566.35 1376.18 1175.96
-826.489 3731.04 -3045.26
-2213.1 2361.71 -2510.72
1866.21 4999.17 -918.43
927.461 4651.2 -2323.55
2775.32 1320.59 1170.16
1291.47 2156.32 2822.98
731.785 148.767 1933.07
-1866.74 75.3276 1989.11
-531.424 -340.817 -53.1727
-1701.44 273.066 -1877.3
657.392 291.811 -1844.77
1155.64 2175.45 -2578.5
2640.96 1408.75 -1087.98
3035.83 3025.78 54.8407
-3262.73 6009.01 583.149
-2866.61 5940.97 1539.44
-2217.76 6397.52 894.397
-3339.42 4058.89 2603.02
-3281.36 5032.52 2201.79
-3968.75 4453.13 1677.33
-1393.39 5711.23 2270.37
-2255.58 5505.92 2431.79
-1730.67 4895.87 2904.18
-1071.83 6824.33 670.936
-1510.06 6954.39 -215.399
-204.988 5472.65 1997.14
-743.983 6261.92 1427.7
285.336 6877.59 -204.957
-112.597 6764.57 627.895
601.029 6388.9 516.576
-1356.76 6969.95 -1164.67
-2356 6912.4 -1300.62
829.272 6543.95 -982.097
-12.1653 6977.02 -1030.68
-1419.78 6217.67 -2833.78
-752.418 6613.47 -2062.78
-185.828 5984.08 -2469.09
-3022.72 6361.86 -1882.73
-3291.31 6239.86 -922.205
-1680.33 5243.41 -3511.45
-2353.86 5950.07 -2906.81
-3824.98 4745.74 -1805.18
-3387.51 5302.19 -2495.27
-3184.13 4328.2 -2672.75
-3832.36 5481.73 -67.7596
-4070.99 3484.64 -907.826
-4079.2 4547.44 -680.818
-4263.19 4490 637.982
-4274.55 3477.06 1081.69
1323.8 5391.5 1257.47
1504.09 5561.56 354.973
346.54 4598.49 2614
848.172 5092.08 2060.45
2381.37 4120.25 1394.64
1746.02 4614.26 1829.35
1870.64 3797.59 2254.72
-1752.35 3996.22 3225.64
-752.831 4108.7 3006.84
-3296.66 2943.76 2540.66
-2611.8 3492.82 3059.43
-481.33 2285.13 3316.07
-1538.17 2913.98 3191.2
-1545.19 1509.72 3063.11
-4195.01 2419.95 591.508
-3847.72 2509.51 1599.79
-3653.21 2446.39 -1470.38
-4087.66 2431.33 -539.814
-3272.37 548.622 633.928
-3711.78 1287.48 -38.7239
-3273.3 557.398 -635.009
-2479.88 3774.43 -3064.39
-2875.92 3084.84 -2338.14
-948.125 4790.94 -3373.46
-1656.6 4414.95 -3483.99
-1376.24 1716.87 -2754.56
-1525.37 3128.73 -3037.67
-511.522 2329.72 -3008.84
738.874 5552.11 -2273.42
20.9397 5058.06 -2845.12
1463.45 5895.23 -725.942
1238.73 5881.9 -1444.29
1704.21 3767.86 -2080.87
1393.59 4863.58 -1836.38
2257.9 4069.8 -1304.92
2369.22 518.173 622.189
1905.68 608.185 1594.86
1288.4 -59.4589 992.104
2013.16 2651.11 2332.15
2205.93 1642.08 2094.05
2827.62 2234.64 1518.19
49.4271 629.281 2647.46
1112.2 1049.39 2525.83
437.685 1664.71 3083.63
190.579 -298.56 1078.16
688.568 -303.474 -5.98619
-1171.18 588.061 2729.58
-566.105 -16.4872 2107.87
-1733.38 -334.421 10.9389
-1298.51 -292.312 1077.21
-2328.83 -114.299 1090.37
160.14 -251.285 -1045.58
1209.85 53.1461 -964.851
-2301.77 5.56676 -972.932
-1215.59 -265.025 -1066.81
74.5111 800.575 -2406.75
-561.824 169.187 -1950.95
-1174.39 761.361 -2468.74
1744.47 753.279 -1479.71
2301.9 580.039 -593.189
362.276 1802.52 -2800.84
992.139 1184.96 -2369.37
2642.5 2201 -1358.34
1980.81 1764.65 -1924.06
1809.42 2706.65 -2179.07
2923.76 1224.88 12.6202
2790.26 3122.53 -818.458
3116.58 2241.1 -542.769
3231.07 2247.46 584.175
2935.96 3060.42 876.873
397.867 2689.11 3241.06
1299.63 3250.09 2840.1
374.378 3739.35 3072.52
-2913.87 534.846 1703.49
-2262.53 976.299 2670.9
-3098.99 1587.88 2157.68
-2030.52 1137.72 -2405.78
-2793.63 702.585 -1510.68
-2942.71 1777.8 -1917.29
1157.5 3238.29 -2570.18
286.82 2743.27 -2953.94
-8.08953 4083.57 -2905.53
2653.99 4109.93 536.153
2609.09 4094.61 -501.422
2166.75 4885.78 4.08276
-2922.59 6241.01 133.091
-2789.32 6248.26 781.229
-2370.05 6443.29 335.04
-3341.58 5694.42 1377.4
-3093.82 6001.3 1090.69
-3537.74 5714.07 897.582
-2066.54 6311.79 1314.79
-2581.29 6202.2 1242.36
-2357.84 6098.01 1643.81
-3669.33 3767.76 2346.04
-3704.22 4255.87 2185.63
-3986.59 3954.4 1880.59
-2935.45 4810.54 2612.24
-3336.01 4561.51 2438.75
-2954.54 4335.71 2798.84
-3894.37 4932.86 1435.89
-3660.14 4770.56 1965.09
-3559.66 5216.45 1714.1
-1222.68 5416.2 2466.06
-1571.44 5330.97 2617.17
-1383.02 5024.73 2765.03
-2056.12 5873.14 2087.61
-1819.07 5634.82 2375.75
-1608.5 5965.29 2017.72
-2119.97 4752.34 2954.63
-1997.29 5216.66 2707.18
-2414.58 5065.79 2717.15
-3106.34 5534.95 1896.65
-2780.82 5316.8 2366.42
-2581.95 5759.65 2027.84
-1799.04 6715.27 295.081
-2064.46 6723.47 -355.666
-1456.62 6418.14 1167.64
-1634.78 6607.67 749.556
-1009.89 7092.48 -132.017
-1251.36 6945.59 280.318
-842.104 7027.09 277.101
-627.103 5230.35 2274.71
-961.199 5677.64 2150.96
-240.245 6270.72 1292.7
-602.727 5913.17 1689.45
97.6044 5741.25 1589.58
-1134.69 5954.85 1925.92
-1258.96 6192.01 1645.42
669.839 6653.71 -234.077
489.113 6652.65 196.817
819.541 6408.11 133.735
-327.917 6988.57 264.196
80.0781 6859.76 241.778
-142.943 7035.77 -178.595
422.826 6273.86 871.384
272.223 6594.09 596.639
54.5982 6489.85 910.051
-860.805 6592.86 1096.35
-379.348 6586.34 1020.54
-591.864 6858.15 675.339
-2015.65 6897.63 -895.212
-2499.84 6762.98 -881.584
-833.13 7102.6 -588.218
-1475.08 6994.25 -691.521
-2165.67 6919.95 -1715.22
-1940.96 6998.13 -1310.56
-1754.42 6949.51 -1717.78
950.987 6498.62 -619.437
587.894 6766.29 -613.449
227.645 6737.09 -1426.07
418.957 6796.08 -1022.68
643.995 6508.66 -1394.43
150.844 6978.37 -618.67
-269.456 7097.87 -607.377
-1170.11 5842.74 -3059.08
-904.496 6099.49 -2712.25
-648.907 5696.78 -2846.12
-1443.33 6709.93 -2194.38
-1175.87 6450.43 -2489.52
-1675.42 6533.93 -2540.74
195.486 6234.33 -2114.59
-469.941 6320.02 -2289.77
-61.2291 6562.73 -1885.19
-543.528 7055.4 -1064.35
-283.211 6861.64 -1511.07
-1040.22 6845.42 -1642.57
-2859.87 6626.73 -1129.36
-2955.95 6467.56 -631.211
-2480.31 6631.64 -2050.98
-2714.27 6706.56 -1584.13
-3575.84 5940.32 -1187.07
-3213.59 6362.29 -1409.97
-3464.94 5998.63 -1667.19
-1294.51 5361.18 -3385.52
-1551.69 5776.56 -3205.01
-2498.11 5394.54 -3127.78
-2008.04 5611.15 -3218.27
-2096.18 5074.69 -3418.42
-1859.66 6153.01 -2928.35
-2145.94 6422.82 -2587.23
-3694.79 4249.54 -1916.96
-3552.2 4562.9 -2254.29
-3403 4067.81 -2343.41
-3656.59 5442.55 -1982.01
-3673.67 5029.29 -2160.59
-3884.53 5130.42 -1658.84
-2883.38 4629.65 -2958.84
-3308.79 4869.59 -2602.07
-3001.6 5115.54 -2900.52
-2729.73 6202.27 -2449.91
-2920.71 5653.12 -2752.71
-3254.59 5861.68 -2239.21
-3263.89 6103.83 -207.788
-3788.25 5546 -822.506
-3572.98 5857.98 -529.166
-3578.69 5763.8 259.726
-3849.23 5430.56 605.088
-3773.55 3572.56 -1429.17
-3858.5 4201.23 -1369.39
-4264.37 3983.05 -238.572
-4104.7 4036.87 -805.656
-4244.25 3448.33 -431.855
-3957.42 4702.21 -1295.61
-3952.29 5077.41 -1143.04
-4186.32 3962.54 1424.55
-4152.58 3477.99 1585.51
-4065.94 4946.83 932.206
-4154.33 4496.28 1174.09
-4376.64 3476.52 541.454
-4292.95 3977.78 852.708
-4366.16 3985.22 353.336
-4026.49 5033.76 -385.179
-4270.47 4502.8 47.4332
-4109.41 4993.2 334.871
1046.84 6018.21 336.731
1193.17 6085.78 -48.5963
786.054 5696.01 1291.38
873.881 5845.48 834.01
1870.95 5140.82 739.874
1462.83 5466.09 844.383
1722.95 5143.05 1126.89
-203.723 4781.34 2584.04
155.498 5032.95 2345.22
1012.55 4697.82 2318.28
627.252 4872.07 2345.91
764.63 4425.35 2601.37
444.508 5257.97 2058.6
639.344 5461.8 1737.57
2454.37 3699.31 1580.11
2166.84 3969.48 1844.84
2183.4 3544.12 2030.86
1952.03 4740.64 1413.44
2083.26 4384.04 1631.71
2260.51 4489.98 1187.01
1524.59 4026.26 2423.6
1829.92 4225.32 2056.85
1479.71 4445.21 2205.34
1110.03 5268.58 1684.54
1310.6 4882.72 1973.31
1556.42 5034.11 1562.89
-1407.66 4568.51 2983.64
-868.085 4637.34 2720.53
-2099.32 4284.39 3138.15
-1743.21 4436.29 3100.96
-584.773 3713.5 3168.53
-1344.41 4144.56 3130.47
-1249.93 3679.24 3120.12
-3643.63 3206.42 2321.09
-3372.87 3483.61 2617.92
-2573.4 2975.3 2961.65
-2984.29 3221.94 2829.92
-2852.59 2597.83 2664.13
-3001.55 3770.58 2861.67
-2601.56 4026.92 3027.71
-578.378 1696.02 3192.62
-961.795 1796.57 3174.49
-1030.16 1363.08 3173.33
-1034.71 3049.06 3266.05
-906.161 2483.31 3255.47
-457.645 2768.41 3339.67
-1997.44 1668.97 2961.5
-1476.55 2032.39 3050.42
-1994.44 2490.2 2972.56
-2130.82 3750.59 3252.44
-2130.56 3266.68 3209.96
-1735.65 3480.25 3288
-4134.15 3011.34 1395.92
-3939.64 3033.33 1851.73
-4307.97 2942.46 326.155
-4247.81 2970.22 835.091
-3742.15 1902.47 1374.56
-4058.43 2443.09 1102.3
-3949.81 1941.26 870.889
-3604.12 2975.25 -1652.3
-3874.76 2920.33 -1200.61
-3822.3 1916.11 -828.741
-3897.84 2414.28 -1025.9
-3610.6 1949.45 -1268.3
-4097.18 2928.18 -710.875
-4251.49 2926.65 -246.446
-3010.58 216.226 299.127
-3311.07 511.468 -40.5926
-3012.15 222.846 -352.066
-3692.3 1319.17 570.328
-3543.36 852.053 284.78
-3451.33 891.269 934.979
-3439.2 923.025 -872.012
-3546.14 859.665 -351.477
-3656.16 1286.81 -581.373
-4215.61 2409.04 28.4866
-3959.47 1872.1 -283.763
-4031 1891.6 302.692
-3069.41 3803.69 -2628.26
-3256.15 3438.22 -2085.2
-2520.11 4295.05 -3178.12
-2834.23 4016.17 -2927.39
-2596.37 2784.69 -2503.86
-2710.44 3528.4 -2810.06
-2406.32 3291.76 -2837.46
-905.418 5044.92 -3391.91
-1303.82 4972.11 -3517.52
-1381.06 4229.67 -3381.42
-1335.49 4631.74 -3460.63
-992.952 4440.46 -3322.52
-1664.27 4841.46 -3567.73
-2016.86 4633.5 -3440.22
-962.725 1593.52 -2821.68
-917.344 2062.14 -2966.47
-509.83 1904.04 -2975.55
-1835.81 2793.23 -2824.06
-1333.31 2301.41 -2910.81
-1767.86 1903.74 -2637.93
-537.367 2895.23 -3048.7
-965.45 2593.86 -3011.21
-1227.26 3439.02 -3096.83
-2054.75 4061.13 -3341.36
-1710.25 3906.75 -3337.27
-2057.96 3589.81 -3155.1
-58.6091 5499.74 -2707.53
[...]
POINT_DATA 642
SCALARS Mean_Curvature double 1
LOOKUP_TABLE default
0.000757162
0.000788003
0.00066113
0.000765832
0.00137344
0.00107277
0.000784398
0.000922445
0.000673831
0.000349301
0.000740097
0.000982562
0.00072001
0.000800588
0.000645805
-0.000367999
0.00095684
0.000744454
0.00114185
0.000629838
0.000928491
0.000438175
0.000529571
0.000624846
-0.000228203
0.000276536
0.000131183
6.45338e-05
-0.000592395
-0.000253975
-5.45321e-05
0.00012684
0.000798527
0.000423032
0.000721166
0.000883732
0.000107727
0.00073325
0.00080267
0.000451128
0.000700765
0.000261158
0.00065814
0.000701975
0.000243926
0.000693062
0.00063601
0.000604305
0.000800316
0.000736471
0.00090296
0.000677969
0.000548048
0.000155384
0.00021403
0.000666879
0.000822041
0.000583125
3.82506e-05
0.00130971
0.000837387
0.000896803
0.000822591
0.000449237
0.000343227
0.000743472
0.000477948
0.00174754
0.000732714
0.000702307
0.0011178
0.000589306
0.000484121
0.000472324
6.1744e-05
0.000665776
0.000471076
0.000501141
2.58162e-05
0.000394428
0.000619546
0.00064658
0.000605912
0.000600883
0.000862852
-9.9873e-05
0.000688903
0.000684934
0.000677025
8.31282e-05
0.000604056
0.000717311
0.000153167
0.000673565
0.000558472
0.000440893
7.55887e-05
0.00086515
0.000760868
-0.000432993
0.000646321
0.00126726
0.000217096
0.000374434
0.000199248
0.000639336
0.00100804
0.00103861
0.000750946
0.000446386
5.22088e-05
0.000552694
0.000730017
0.000619153
0.000486999
0.000291065
0.000884949
0.000944316
0.000283717
0.000461134
0.000644662
0.000591767
0.000409879
0.000652697
0.000802268
0.000428488
0.000110484
0.000753751
0.000717735
0.000338537
0.000554523
0.000789645
0.000312142
0.000675971
0.000927102
0.000339716
0.00072436
0.000395091
0.000636444
0.000750429
0.000522086
0.000438047
0.000695766
0.000259235
0.00111074
0.0012337
0.00024012
0.000422162
0.000584696
0.000656938
0.000761175
0.00084497
0.000266054
0.00109854
0.00056049
0.000135798
0.000424358
0.00043951
0.000433702
0.000621774
0.00069151
0.000409621
-0.000118902
0.000688699
-0.000236966
0.000710498
0.000674251
0.000700557
0.000594013
0.000683593
0.000698222
0.000786117
0.000662425
0.000744412
0.000660712
0.000671799
0.000714401
0.000669676
0.000638887
0.000653426
0.0005582
0.000810263
0.00056192
0.000667778
0.00068078
0.000777687
0.000727812
0.000758869
0.000754357
0.000669969
0.000705435
0.00069951
0.000307293
-0.00043991
-0.000252547
0.000235339
0.000917311
0.000754476
0.000975648
-0.000824326
0.000693902
0.000679204
-0.000355934
-0.000155484
0.000620405
0.000616221
0.000645194
0.000796733
0.00071037
0.000888338
0.000771846
0.000671129
0.000858974
0.000846951
0.000730473
0.000896839
0.000820714
0.000952458
0.000266483
0.000522555
0.000486741
0.000360643
0.00126963
0.00123972
0.000941337
0.00102057
0.0010048
0.000785275
0.000781153
0.000724006
0.000892722
0.000951138
0.000724583
0.000425582
-0.000234758
0.000600037
0.000618621
0.0010504
0.000664747
0.000182473
0.000667518
0.000757961
0.000719297
0.000121424
0.00079705
0.000574102
0.000648186
0.001037
0.000761547
0.00107849
0.000856701
0.000684998
0.00106187
0.000730087
0.000476438
0.0010661
0.00104899
0.00088642
0.00055398
0.000426576
0.000667348
0.000829383
0.00119026
0.00132188
0.000327097
0.000545893
0.001077
0.00073463
0.000792147
0.000708979
0.000295534
0.000363983
0.00041814
0.000337944
0.000750465
-0.000183031
-0.000287733
0.000285732
0.000418126
0.000532234
0.000593862
0.000588692
0.000717235
0.000892573
0.000741059
0.000615395
0.000863703
0.000230914
0.000784613
0.000346596
0.000760115
0.000579403
5.82535e-05
0.000710715
0.000499788
-0.000539938
0.00053455
0.00047875
0.000622321
0.000303345
0.000454838
0.00060956
0.000533641
0.000463709
0.000468606
0.000511977
0.000607777
0.000626986
0.000601013
0.000602839
0.000629517
0.000618463
0.000549959
0.000605571
0.000566971
0.000586513
0.000630751
0.000634908
0.000507414
-0.000803531
0.000842312
0.00082316
0.000719844
0.000976882
-0.00100237
0.000848811
0.000815992
0.000500695
0.00066838
6.3523e-05
0.000631587
0.000489104
8.30954e-05
0.000149265
0.0013341
0.000514669
0.000161861
0.000746853
0.000725677
-0.000371933
-0.000189031
0.00119844
0.000825567
0.00125895
0.000650988
0.000811432
0.000485255
0.000256328
0.000437791
0.000436091
0.000489151
0.000451035
0.000327598
0.000470067
0.000613754
0.000489971
0.000282733
0.000563145
0.000671047
0.000590764
0.000833935
8.3085e-05
0.000825221
0.000670142
0.00112869
0.00101585
0.000474838
0.000800022
0.000396197
0.00064322
0.000710012
-0.000570939
0.000616004
0.000862471
0.00056693
0.000911873
7.06221e-05
0.00197191
0.00169243
0.000431485
0.000351704
0.000470874
0.00193328
0.000586016
0.000373504
0.000713946
0.000939305
-0.000110139
0.000487331
-3.87748e-05
0.000178245
0.000222999
2.0141e-05
0.000972237
0.000932746
0.000662918
0.00024576
0.000713818
0.000699944
0.00057651
0.000844774
0.000841267
0.00128976
0.000753188
0.00127393
0.000652846
0.000803023
0.00104761
0.000676581
0.000720168
0.000617972
0.000481611
0.000634518
0.000418729
0.000339414
0.000330483
0.000432434
0.000439545
-0.000362363
0.000711362
0.000804027
0.00105721
0.000651051
0.000665621
0.000705693
0.000705118
0.000705489
0.000762032
0.000604909
0.000537305
0.000475743
0.000247644
0.000646096
0.000548732
0.000302856
0.000258204
0.000430117
0.000714376
0.000674121
0.000859801
0.000574611
0.000473008
0.000588875
0.000695551
0.000552823
0.000553543
0.000522738
0.000566666
0.000401171
0.000690774
0.000537879
0.000438206
0.000808125
0.000835113
0.000718917
0.000659412
9.221e-05
0.000209391
4.9038e-05
0.000864668
0.000872347
0.000533667
0.000791393
4.89541e-05
0.000605983
0.00047537
0.000738357
0.000468181
0.000437255
-7.17671e-05
0.00114493
-4.21376e-05
0.00087502
0.000648478
0.00059935
0.000403791
0.000804981
0.000393444
0.00041923
0.000712816
0.000352576
0.000601438
0.000693054
0.000686575
0.000832455
0.00096281
0.000679122
0.000782004
0.000485052
0.000520211
0.000429992
0.000271838
0.000441733
0.000670076
0.00019612
0.000544978
0.000442344
0.000791216
0.000785637
0.000492767
0.000815869
0.000627585
0.000556786
0.000377187
0.000668319
0.000674024
0.000577534
0.000358546
0.000758968
0.000697963
0.000654489
0.000570921
0.000338243
0.000893681
0.000572035
0.000387419
0.000652168
0.000740227
0.000122417
0.000138075
0.00050495
0.000721769
0.000705675
0.00112824
0.000393668
0.000302028
0.000621918
0.000492405
0.000598122
0.000376902
0.000681577
0.00068295
0.000701758
0.000746193
0.000710828
0.00043073
0.000260186
0.000895291
0.000632665
0.000157632
0.00110054
0.000943558
0.000927544
0.00018735
0.000552177
0.000992333
0.000451829
0.000975336
0.00111142
0.000582368
0.00125208
0.000821602
0.000170515
0.000563515
0.000514127
0.00112321
0.0003768
0.000571307
0.000506355
0.000575475
0.00058463
0.000631534
0.000247355
0.000675419
0.000482396
0.000378505
0.000522176
0.000712918
0.000636681
0.000765682
0.000523182
0.000788814
0.000780812
0.000789068
0.000891225
0.000622348
0.00123559
0.00112813
0.000439496
0.000842076
0.000404806
0.000243694
0.000324179
0.000121767
3.49948e-05
0.000720083
0.00125418
0.00105008
0.000739656
0.000684549
0.000947854
0.000903657
0.000425782
0.000861254
0.000959468
0.000803786
0.000608625
0.000426743
0.000548585
7.90705e-05
0.0004953
0.000571214
7.74485e-05
0.000583407
0.000854157
0.000580668
0.000595834
0.000535733
0.000619225
0.000500567
0.000303534
0.000755451
0.000633893
0.000446023
0.000574378
0.000387988
0.00125612
-0.000996077
-0.000309498
0.000143648
2.21802e-05
0.000545254
0.000548035
0.000273132
0.000548175
0.000321994
0.000428136
0.000679782
0.000595196
0.000651018
0.000515462
0.000625688
0.000608752
0.000474939
8.22196e-05
0.000548823
0.000291878
-0.000501392
0.000670131
0.00074465
0.000594248
0.000575358
SCALARS CoVolArea double 1
LOOKUP_TABLE default
278908
142446
232593
224560
185842
216275
187600
183000
195610
222267
253694
198169
272277
250077
257074
280935
214855
221048
252170
273351
276261
281507
220899
200505
368451
287148
279247
335552
398675
389583
302508
263144
287253
289955
303010
301282
412587
265797
251813
226811
258399
250527
291150
265043
298537
254802
288226
272676
181803
246051
186339
259438
301670
357061
247892
201588
191510
214236
359331
214111
192324
229444
228669
338415
304214
319303
282205
212413
323173
243282
285963
252086
344603
332904
353983
294332
276498
261439
289390
237287
206083
209223
214675
213202
210997
325001
282204
256413
256818
394854
239976
302246
324358
252978
297104
286232
335072
242236
219776
357772
125219
175523
240606
355903
215855
206139
215215
181969
198955
231006
264560
203260
283106
321077
293326
279613
276872
222118
294593
314113
264832
332716
293512
289781
313557
286512
343312
285559
295942
293669
269582
302976
255510
290589
215074
309740
268561
230157
249125
204010
262531
246544
306154
261251
223159
237931
246561
252654
237513
215255
295366
269642
311422
216877
272744
315557
237169
232858
424214
243189
220908
268543
335248
294108
377930
276095
244524
255214
262851
235418
247335
244984
268868
253189
271568
263066
247254
262918
271165
287690
198262
183019
201059
235450
203499
200305
207155
208167
250437
314568
304292
293185
347144
359136
322868
300069
235045
248842
207032
311710
263070
274498
319466
340107
213768
268733
181311
185796
187433
209432
196012
200217
224194
169013
195237
281289
220504
228325
263006
256222
303046
290459
223725
230033
281489
165128
191833
233103
204949
203935
200934
228489
231564
277146
292185
288521
260762
225594
243408
298574
281649
346411
330370
402049
246896
283522
315380
261149
266246
258157
300880
198730
242048
303299
279071
237274
259178
302438
285585
246292
260995
288841
229076
222661
257857
251376
276034
370716
351228
363966
324410
331397
311299
304905
299027
355570
336904
328786
328185
284729
274099
305474
277127
244487
287187
281285
269753
284768
289517
395820
359899
349171
287570
209727
297825
315040
221615
282338
210683
311457
285381
213531
200351
206071
256188
270073
240845
211753
240448
209635
198529
190245
205955
203592
219563
250762
235429
232985
243153
326038
229001
182968
280247
239860
316238
237152
242872
344917
256289
345336
248849
266213
244837
276420
215411
327011
345855
230303
274872
394757
427963
243431
315747
278787
282655
251611
292178
294065
329148
310091
340247
311999
304831
307890
267932
275487
275086
285728
291357
272866
260246
359899
290386
286455
225932
255639
292581
323209
356637
363359
282983
343415
274894
225769
326384
239704
318104
147820
149550
255553
142970
249551
165669
246581
225820
223884
192258
421517
326100
322370
329487
311782
376581
240223
263213
303309
307000
230280
222464
246830
239947
211260
180052
158145
161208
241789
162283
215036
194122
219686
197878
222603
202307
217342
263298
245593
260138
267010
327968
231807
256191
225735
279678
293014
273098
300576
286709
273563
287885
300020
323056
267213
251025
238246
302948
266202
272551
246822
239477
278771
255788
285455
265889
312108
289383
286103
258187
274685
310528
337085
343242
361109
280659
263318
315615
289188
347785
318720
410140
235482
268857
321255
284752
305551
283004
321278
277469
286618
302663
406559
296480
344778
265902
274568
312926
363537
366785
402014
290319
273882
341788
294897
263414
275174
276316
252346
275254
281507
282619
273683
304511
353601
250931
251313
236986
279134
257289
230948
220849
243014
264277
344848
326578
338917
281051
270791
291760
289104
253380
269868
282784
219341
254616
229040
224699
212068
230697
255687
259717
255274
242152
257848
213710
197082
227008
243998
244042
329138
301400
332373
284802
292924
275901
280777
304312
251715
238773
217079
216113
249047
188156
255418
221751
257180
287489
224912
225528
202105
206716
316964
259916
322105
276761
268227
251522
227675
234722
252629
233921
219740
247851
262609
312782
241147
246077
220124
228648
273000
255013
260052
300179
298804
279624
275729
295770
263448
254065
223337
294041
308813
317801
319897
353116
355948
339316
326335
298507
315792
212914
265491
196185
196194
271424
253682
262774
238597
268428
297368
311412
345628
324676
272176
309533
297843
309278
290936
209065
235931
210937
217871
327381
204239
322962
218098
219095
243242
141895
461283
303136
242681
380238
261349
326397
388627
253295
282605
256582
216506
212837
222959
241708
196495
237967
274862
267993
225248
295320
297993
278930
267397
248849
242328
SCALARS SignedDistance double 1
LOOKUP_TABLE default
1473.91
1823.64
1142.89
1150.62
1476.01
1982.19
1638.59
1753.44
1726.49
1542.42
1728.62
1212.43
1226.32
1488.81
1656.94
1999.16
1467.43
1528.77
1286.89
1382.97
1240.58
1368.41
1741.55
1776.13
1547.43
1677.63
1486.75
1333.89
2149.27
1769.58
1926.23
2112.22
1164.9
1449.5
1165.87
1145.17
1340.84
1330.71
1359.78
1723.74
1386.57
1632.11
1400.13
1406.62
1630.66
1272.25
1273.28
1196.84
1811.33
1561.88
1763.91
1616.44
1449.41
1977.55
1902.26
1627.76
1739.45
1890.86
1515.62
1416.74
1604.79
1417.1
1438.26
1535.29
1619.28
1041.45
1261.51
1558.78
1092.32
1450.6
1227.61
1474.07
1345.13
1510.41
1465.37
1290.76
1298.48
1849.79
1955.84
1823.79
1826.12
1666.83
1734.41
1646.15
1757.04
1901.42
1384.75
1445.71
1544.79
1767.68
1622.2
1279.08
1321.04
1512.75
1400.86
1206.12
1357.9
1230.28
1749.22
1838.72
1952.67
1801.61
1686.56
2043.9
1793.27
1773.01
2001.91
1891.73
1743.94
1867.94
2057.72
1805.24
1085.59
1167.75
1166.33
1502.73
1395.09
1419.72
1268.95
1321.74
1432.3
1295.82
1301.62
1218.65
1159.12
1315.2
1289.66
1142.36
1290.23
1267.46
1259.16
1274.89
1526.3
1369.58
1553.86
1397.35
1201.15
1680.43
1549.26
1643.49
1620.25
1725
1172.1
1632.47
1511.96
1405.76
1577.34
1561.25
1616.51
1741.55
1116.67
1304.16
1451.85
1671.63
1430
1621.46
1865.07
1785.34
2209.23
1695.55
1737.2
1829.46
1467.01
1498.47
1543.4
1301.54
1385.57
1290.08
1610.88
1495.94
1530.16
1224.65
1207.63
1186.34
1346.96
1259.3
1345.16
1200.06
1217.46
1236.29
1872.43
1784.98
1856.21
1603.94
1685.9
1734.99
1623.92
1657.43
1521.59
1325.35
1399.66
1463.69
1528.75
1527.14
1713.59
1612.69
1424.82
1520.68
1521.02
1973.54
1938.64
1941.03
1995.16
2000.81
1882.57
1848.07
1725.79
1774.92
1856.01
1599.19
1678.48
1533.96
1953.86
1824.09
1865.1
1774.99
1813.11
1667.82
1596.21
1433.89
1378.86
1461.63
1335.13
1570.13
1485.74
1733.62
1632.88
1452.65
1497.21
1542.36
1524.96
1450.62
1565.83
1649.57
1765.09
1463.15
1545.89
1344.5
1548
1527.78
1451.86
1344.31
1375.01
1509.41
1300.75
1358.41
1081.51
1193.71
1228.89
1182.29
1099.67
1621.06
1431.79
1205.28
1222.41
1425.67
1264.11
1132.14
1554.35
1435.32
1569.27
1173.7
1347.78
1354.52
1390.17
1349.01
1302.84
1002.4
1088.34
1033.12
1396
1307.65
1336.1
1338.11
1262.25
1654.21
1562.37
1368.36
1484.74
1419.77
1485.88
1398.22
1224.46
1221.26
1202.22
1215.3
1319.34
1257.42
1312.8
1377.74
1338.24
1238.39
1978.93
1939.75
1939.72
1980.71
1828.58
1877.66
1812.95
1893.02
1870.31
1786.52
1821.45
1788.18
1864
1881.48
1604.07
1646.79
1596.36
1749.49
1701.16
1721.3
1693.6
1691.68
1731.54
1833.09
1781.77
1791.52
1861.95
1954.23
1636.83
1766.06
1796.44
1896.03
1851.36
1284.81
1305.07
1523.22
1407.73
1485.74
1343.16
1437.15
1517.91
1578.13
1526.1
1697.92
1577.86
1647.8
1683.24
1604.6
1591.02
1609.13
1661.83
1805.94
1311.99
1278.21
1340.02
1332.2
1293.16
1293.7
1289.76
1617.83
1517.08
1394.26
1446.51
1455.15
1463.24
1413.67
1140.2
1194.69
1143.65
1314.55
1282.41
1315.87
1371.71
1290.15
1439.82
1330.54
1347.93
1306.09
1662.91
1762.4
1552.28
1613.49
1881.72
1806.92
1929.24
1931.42
1809.47
1910.9
1842.93
1988.99
1726.88
1578.97
1656.37
1747.01
1756.48
1915.61
1780.62
1736.75
1855.11
1799.63
2115.58
1756.16
1917.95
1909.65
1791.96
1996.34
1633.25
1673.29
1988.52
1858.96
1968.04
1853.33
1774.29
1861.22
1796.73
1962.67
1659.83
1627.8
1797.48
1834.6
1769.34
2104.87
1961.45
1997.9
1839.77
1894.62
1982.6
1740.51
1856.92
1916.76
1117.54
1114.07
1141.15
1141.53
1108.02
1092.78
1151.02
1154.8
1183.02
1523.3
1505.24
1527.61
1452.53
1469.82
1480.33
1293.62
1389.4
1273.39
1358.18
1330.26
1436.32
1233.22
1287.46
1213.68
1431.52
1365.57
1402.8
1246.45
1364.12
1268.54
1256.45
1224.32
1188.84
1228.34
1327.51
1304.1
1321.16
1319.48
1224.47
1151.62
1146.27
1188.85
1210.81
1188.75
1236.54
1173.81
1144.28
1324.17
1321.82
1330.49
1098.29
1254.67
1199.6
1214.11
1228.52
1320.51
1255.57
1222.93
1333.51
1304.98
1291.03
1244.7
1288.02
1174.97
1257.55
1259.02
1239.57
1279.72
1305.93
1330.35
1572.02
1527.64
1596.35
1402.11
1455.16
1460.41
1421.14
1446.47
1361.82
1290.58
1297.63
1323.42
1254.39
1162.6
1363.5
1325.83
1275.38
1312.89
1392.65
1657.61
1608.18
1665.14
1646.56
1712.42
1557.92
1464.78
1651.9
1664.9
1726.96
1534.31
1645.75
1544.98
1718.81
1666.54
1668.59
1454.61
1562.84
1498.39
1123.02
1249.84
1162.3
1104.09
1134.37
1671.68
1642.49
1572.41
1605.5
1620.15
1576.3
1437.45
1519.22
1549.66
1242.42
1388.44
1617.78
1522.12
1543.54
1305.92
1447.01
1230.21
1462.78
1506.92
1500.38
1571.83
1629.6
1578.24
1685.66
1635.52
1562.14
1535.96
1860.48
1731.16
1804.52
1794.94
1754.02
1583.7
1679.6
1653.56
1150.97
1066.98
1083.51
1157.55
1236.61
1421.94
1540.6
1530.57
1322.14
1153.51
1352.62
1382.57
1327.98
1397.99
1512.65
1153.53
1394.36
1275.67
1684.08
1464.34
1575.88
1744.74
1809.92
1208.28
1463.38
1316.48
1316.1
1371.71
1631.38
1716.49
1664.71
1549.46
1534.03
1548.39
1663.62
1763.06
1801.15
1796.04
1806.03
1870.95
1951.49
1755.72
1889.21
1799.62
1750.06
1772.59
2059.77
2099.17
2115.58
2083.17
2231.11
1840.69
1910.35
1933.02
1599.06
1614.36
1610.71
1679.54
1737.45
1728.33
1799.6
1769.43
1684.27
1644.5
1968.12
1818.5
1878.32
1945.2
1866.01
1716.36
1780.39
1773.57
