# vtk DataFile Version 4.2
vtk output
ASCII
DATASET POLYDATA
POINTS 642 double
-2350.73 5862.18 -584.107
279.272 5745.84 -512.124
-2375.25 522.012 -31.7566
1377.98 540.661 61.9518
-658.224 1392.63 2356.32
-1333.8 4568.49 1729.65
-503.867 1768.65 -1983.73
-1343.21 5154.45 -2478.9
1578.19 3099.68 -1040.4
1802.86 3010.28 1248.14
-2862.12 4019.12 -1385.44
-3377.26 3535.81 1655.59
-3247.59 4965.25 969.854
-2335.23 4292.42 2189.42
-1830.38 5381.53 1265.97
-78.8361 5315.44 431.101
-649.958 6329.62 -266.955
25.4955 5851.46 -1308.51
-1929.36 6177.76 -1874.07
-2167.79 4917.04 -2556.44
-3155.95 5306.76 -1378.26
-3589.51 3490.25 196.278
772.505 3791.57 1780.46
1379.29 4201.19 734.603
-2018.44 2158.72 2002.74
-470.427 3037.81 2370.89
-2820.79 1592.29 -662.745
-2925.79 1632.23 959.31
-1023.65 3893.54 -1913.8
-1816.56 2604.13 -1659.71
1093.95 4627.65 -479.388
338.069 4604.34 -1283.99
2242.72 1547.43 917.361
890.015 2264.41 2140.86
544.703 640.472 1578.63
-1747.87 582.216 1643.35
-531.924 404.592 -58.0374
-1473.11 782.125 -1424.02
447.699 800.134 -1356.14
741.563 2240.39 -1721.53
2080.29 1665.85 -669.931
2172.28 2690.7 132.375
-2854.34 5363.94 493.95
-2571.47 5310.31 1206.34
-1977.86 5533.26 687.41
-2930.47 3955.27 2047.17
-2885 4683.23 1750.37
-3405.1 4268.99 1390.38
-1631.34 5063.42 1571.8
-2151.98 4939.12 1804.71
-1909.83 4472.36 2059.35
-940.683 6083.93 221.566
-1224.17 6226.58 -352.001
-407.597 4745.71 1250.52
-1050.49 5625.96 656.776
-142.014 6127.46 -396.292
-444.391 6037.83 134.08
-47.4003 5764.2 32.2127
-1346.88 6223.48 -1080.56
-2163.81 6195.28 -1421.36
263.247 5904.1 -841.675
-253.764 6261.86 -867.684
-1640.07 5724.96 -2293.58
-917.133 6011.04 -1655.16
-482.069 5560.64 -1802.84
-2679.77 5965.56 -1699.28
-2819.3 5749.93 -1031.06
-1766.11 5126.42 -2710.38
-2158.56 5645.17 -2442.06
-3085.29 4889.7 -1533.26
-2887.69 5220.5 -2069.72
-2623.83 4483.72 -2134.28
-3224.16 5089.41 -62.2732
-3336.41 3522.57 -540.619
-3291.17 4450.21 -506.474
-3562.71 4335.13 577.212
-3563.09 3528.07 949.147
811.456 4599.95 877.234
766.293 4834.93 167.486
184.424 4054.18 1782.77
522.717 4406.54 1404.63
1649.05 3714.47 1021.04
1178.25 4068.48 1294.81
1306.1 3488.86 1619.06
-1962.33 3812.36 2307.77
-931.006 3595.51 2262.66
-2888.85 3188.53 1955.26
-2329.77 3562.4 2346.38
-403.301 2360.09 2478.96
-1393.88 3100.2 2304.87
-1346.87 1492.88 2215.23
-3521.21 2600.43 490.514
-3245.25 2755.25 1264.96
-3001.02 2592.86 -981.878
-3370.34 2589.74 -292.632
-2764.17 935.506 548.424
-3019.97 1551.12 4.4172
-2787.3 945.194 -465.221
-2119.98 4143.86 -2310.6
-2217.22 3353.85 -1682.03
-1388.61 5014.7 -2449.13
-1838.88 4683.15 -2564.55
-1101.15 1888.8 -1887.99
-1498.24 3356.46 -2067.29
-505.519 2377.13 -2014.44
200.888 5245.95 -1570.56
-484.941 5113.33 -1925.41
583.353 5384 -823.4
510.846 5441.15 -1058.56
1107.71 3453.89 -1307.63
483.467 4566.47 -1107.37
1517.33 3651.4 -794.337
1963.76 946.282 532.362
1573.44 1017.19 1238
1063.09 516.055 821.714
1456.4 2621.13 1715.92
1741.71 1767.36 1493.4
2210.14 2187.34 1068.04
-113.018 1022.77 2087.02
792.109 1348.66 1945.3
244.055 1841.92 2343.1
156.495 413.418 1000.48
632.1 416.602 21.2951
-1049.94 971.993 2224.42
-607.418 529.682 1793
-1679.99 397.222 74.7388
-1296.98 418.128 986.724
-2092.51 453.559 994.094
99.5945 430.456 -855.123
927.317 635.649 -699.763
-2054.19 594.479 -690.062
-1155.9 416.358 -899.972
-40.9721 1210.44 -1677.42
-602.301 728.213 -1456.76
-1108.73 1132.53 -1712.9
1326.49 1182.78 -986.153
1873.89 1019.55 -369.273
121.983 2006.1 -1927.47
678.062 1500.39 -1657.06
1975.32 2096.55 -748.245
1419.33 1915.21 -1241.14
1212.53 2689.16 -1440.38
2343.61 1500.05 82.6654
1983.76 2921.43 -469.053
2355.92 2151.97 -245.583
2486.85 2191.46 455.661
2131.9 2757.42 656.67
196.801 2653.19 2399.75
868.654 3058.11 2084
191.573 3350.19 2218.4
-2508.98 897.065 1447.29
-2007.12 1226.67 2094.65
-2515.95 1698.03 1624.95
-1620.01 1311.56 -1626.99
-2367.17 1072.3 -1014.9
-2429.11 2015.74 -1235.49
706.003 3038.82 -1664.18
38.8951 2746.13 -2002.76
-517.08 3880.17 -1967.81
1825.66 3689.53 435.721
1783.4 3669.14 -270.924
1400.32 4223.44 35.2952
-2585.21 5516.08 -22.9386
-2514.6 5489.67 648.289
-2078.99 5663.79 151.366
-2933.07 5182.07 1107.49
-2737.68 5360.45 891.623
-3080.75 5196.55 761.754
-1951.47 5496.22 1011.62
-2366.36 5453.73 996.554
-2197.1 5372.01 1249.91
-3190.48 3735.75 1877.63
-3214.86 4096.3 1770.03
-3427.43 3869.09 1561.03
-2629.05 4494 2033.91
-2923.31 4330.48 1940.87
-2638.95 4159 2168.32
-3352.95 4657.83 1180.94
-3173.77 4507.27 1590.11
-3103.23 4844.86 1381.33
-1581.71 4862.02 1690.17
-1778.67 4793.77 1834.12
-1715.58 4589.49 1908.8
-1993.71 5194.67 1541
-1879.49 5016.11 1703.01
-1720.74 5238.68 1434.72
-2096.4 4384.27 2157.81
-2021.4 4713.48 1960.49
-2259.3 4638.16 2031.6
-2753.38 5050.22 1496.32
-2510.45 4855.31 1824.75
-2367.18 5154.53 1550.24
-1476.21 5971.52 65.0046
-1783.37 5970.3 -565.24
-1376.55 5611.27 704.728
-1425.25 5837.33 374.375
-886.068 6331.13 -238.432
-1018.84 6204.21 1.78212
-812.019 6257.67 -23.1296
-957.177 4540.65 1420.56
-1348.26 5041.43 1415.92
-568.741 5635.46 526.121
-958.06 5186.47 932.565
-168.057 4970.15 894.705
-1447.25 5228.91 1282.41
-1390.33 5376.44 1075.63
83.0023 5956.55 -462.28
-70.7235 5953.37 -150.256
126.559 5773.72 -237.6
-542.963 6211.67 -46.9348
-309.806 6108.35 -81.0035
-414.791 6262.86 -339.035
-124.128 5634.58 233.505
-227.916 5911.79 93.6884
-370.939 5850.31 259.1
-899.723 5869.25 460.062
-625.449 5904.4 359.856
-699.176 6105.13 193.218
-1788.42 6121.3 -1115.7
-2269.04 6044.09 -1098.44
-780.938 6339.13 -552.407
-1316.98 6234.74 -720.399
-2065.89 6244.81 -1605.11
-1884.55 6181.68 -1390.45
-1835.24 6196.82 -1575.17
283.51 5840.07 -726.728
80.141 6042.74 -675.203
-100.974 6099.83 -1094.91
10.4573 6112.52 -865.127
160.319 5911.07 -1062.43
-190.76 6222.3 -649.796
-423.16 6320.11 -606.172
-1498.66 5406.63 -2444.19
-1228.63 5637.42 -2101.77
-1023.63 5288.5 -2176.82
-1601.05 6066.04 -1861.02
-1407.16 5891.41 -1999.33
-1786.86 5979.66 -2110.53
-135.94 5738.33 -1522.52
-710.155 5833.57 -1752.1
-314.232 5986.39 -1410.61
-582.883 6327.97 -902.808
-436.422 6204.05 -1184.31
-1107.74 6152.35 -1400.22
-2509.09 6030.39 -1251.2
-2575.82 5860.09 -808.108
-2270.36 6169.16 -1818.3
-2415.49 6160.16 -1527.14
-3019.87 5557.15 -1219.73
-2777.19 5892.72 -1404.11
-2982.77 5658.32 -1543.84
-1607.91 5161.84 -2620.1
-1695.9 5386.62 -2584.51
-2208.51 5248.22 -2568.11
-1894.07 5344.57 -2677.04
-1884.32 5052.94 -2723.76
-1864.42 5732.76 -2406.9
-2035.62 5982.72 -2204.55
-2940.33 4432.45 -1573.7
-2902.34 4705.01 -1836.16
-2746.45 4336.31 -1882.06
-3106.34 5274.42 -1735.09
-3038.75 5081.47 -1794.36
-3165.74 5099.04 -1485.47
-2435.95 4719.11 -2361.4
-2766.69 4961.51 -2101.23
-2563.67 5103.71 -2329.91
-2462.61 5856.8 -2129.38
-2589.72 5443.15 -2321.04
-2860.7 5585.21 -1957.86
-2809.53 5503.45 -347.438
-3140.98 5240.87 -834.272
-3017.88 5389.53 -604.185
-3078.14 5237.48 209.909
-3299.75 5017.39 541.531
-3006.76 3649.07 -1010.83
-3076.94 4314.01 -1041.71
-3533.1 3933.05 -44.7612
-3351.02 4006.23 -525.128
-3502.49 3471.61 -201.275
-3158.96 4768.31 -1101.02
-3188.28 4974.47 -1075.26
-3540.12 3893.26 1239.02
-3520.97 3533.73 1365.05
-3473.46 4685.59 808.881
-3527.24 4339.83 1009.59
-3659.83 3521.25 507.498
-3611.61 3919.95 744.851
-3649.63 3927.87 383.611
-3315.72 4811.38 -286.683
-3556.42 4353.78 157.008
-3483.42 4724.79 343.96
357.892 5335.26 -100.438
394.123 5472.65 -347.706
334.089 4885.82 828.924
189.347 5053.52 428.115
1184.56 4418.6 580.951
871.148 4672.61 571.504
1104.54 4425.12 815.052
-296.914 4193.51 1727.76
23.3802 4374.91 1564.61
659.691 4137.83 1591.93
387.669 4262.91 1588.09
497.626 3918.87 1793.31
231.022 4525.53 1378.27
343.921 4675.34 1144.69
1730.67 3428.99 1154.76
1513.03 3614.98 1331.18
1538.36 3323.97 1479.69
1306.04 4144.35 1021.68
1425.79 3903.42 1173.51
1535.61 3961.92 878.457
1046.93 3644.48 1718.59
1259.23 3797.83 1461.22
1004.78 3954.13 1544.47
684.638 4522.4 1158.63
856.004 4262.67 1369.59
1009.98 4356.51 1103.23
-1725.49 4154.38 2112.1
-1112.1 4192.65 1716.2
-2066.79 4026.08 2291.3
-1915.35 4108.44 2211.66
-573.512 3411.47 2241.78
-1539.31 3937.49 2161.41
-1341.6 3544.62 2051.64
-3163.01 3370.24 1843.78
-2961.62 3552.22 2036.39
-2293.11 3216.79 2243.75
-2633.39 3397.31 2165.88
-2464.3 2856.37 1974.36
-2658.07 3750.25 2204.01
-2348.87 3899.04 2302.47
-556.061 1778.16 2354.08
-810.117 1807.93 2323.58
-912.839 1424.54 2357.47
-975.519 2940.14 2360.12
-741.675 2533.2 2395.64
-396.041 2679.05 2426.65
-1748.88 1615.47 2077.13
-1280.22 2072.42 2215.93
-1793.08 2663.41 2134.24
-2063.8 3676.57 2399.87
-1996.81 3444.38 2361.88
-1869.82 3427.25 2340.42
-3477.74 3186.83 1189.97
-3370.93 3243.75 1516.62
-3579.02 3038.18 337.901
-3534.83 3099.12 704.999
-3144.41 2157.47 1084.93
-3415.8 2646.57 873.305
-3316.55 2222.07 694.54
-2931.61 3049.84 -1101.94
-3155.31 2977.13 -787.051
-3156.21 2164.67 -544.157
-3198.11 2557.87 -672.007
-2987.7 2202.14 -840.305
-3355.95 3006.33 -396.47
-3502.49 3006.61 -57.372
-2600.35 684.086 254.058
-2803.56 910.747 -37.2242
-2606.8 689.67 -271.987
-3046.35 1602.53 472.744
-2925.06 1151.89 234.69
-2816.49 1179.58 799.813
-2825.01 1163.85 -586.457
-2921.81 1131.62 -263.529
-2921.47 1511.25 -371.761
-3513.04 2585.22 119.156
-3282.62 2148.41 -134.427
-3371.25 2188.54 286.915
-2467.91 4159.22 -2083.73
-2599.94 3757.75 -1393.67
-2156.04 4467.45 -2467.07
-2350.02 4274.14 -2270.08
-2075.82 3089.98 -1701.85
-2231.17 3950.95 -2124.61
-2060.97 3716.17 -2049.54
-1366.16 5149.54 -2482.54
-1662.28 5127.22 -2621.88
-1683.54 4527.15 -2446.67
-1675.59 4872.03 -2547.94
-1371.46 4667.17 -2368.46
-1809.25 5032.82 -2667.94
-1875.56 4805.35 -2636.43
-807.031 1833.99 -1951.27
-785.071 2197.21 -2016.32
-492.228 2051.3 -2012.86
-1481.15 3110.77 -1969.22
-1074.45 2471.85 -1980.6
-1378.99 2051.02 -1779.97
-542.845 2913.12 -2036.95
-907.625 2685.88 -2024.1
-1543.97 3554.04 -2042.42
-1924.83 4363.87 -2477.43
-1854.75 4248.68 -2393.11
-1848.87 3989.41 -2306.9
-433.978 5212.05 -1923.43
[...]
POINT_DATA 642
SCALARS Mean_Curvature double 1
LOOKUP_TABLE default
0.000567841
0.000879861
0.00124374
0.00136042
0.00125657
0.00275901
0.00170181
0.00632348
0.00101426
0.000739475
0.00106095
0.00195189
0.00126845
0.00101253
0.00134189
-0.00212337
0.00230216
0.00130229
0.00247657
0.000685148
0.00176686
0.000139223
0.000733897
0.00105831
0.000264767
0.0003492
8.11085e-05
4.08472e-05
-0.00135872
-0.000109914
-0.0054528
0.000311411
0.00158721
0.000706803
0.00133255
0.00136225
3.21822e-05
0.00134895
0.00164789
0.00042067
0.00156379
-0.000437276
0.000809993
0.00107307
-0.000822444
0.00105925
0.00104888
0.000898368
0.001283
0.00114926
0.00103497
0.00127514
0.00081916
0.000596078
-0.00184232
0.0011129
0.00140904
0.000532302
0.000513832
0.00145854
0.00335622
0.00216232
0.000630987
0.00117697
0.000411787
0.00176358
0.000823543
0.00697234
0.00149308
0.000333954
0.00221474
0.00127125
0.000962658
0.000478008
-0.000433171
0.000327037
7.30687e-05
0.000450794
-0.000433475
0.000597269
0.000932501
0.000931607
0.00096566
0.000835021
-0.000360008
0.00372235
0.000946095
0.00190867
0.00136856
-0.000536874
-0.000373611
0.00132869
-4.23369e-05
0.00113987
0.000669365
0.000993235
2.57572e-05
0.0020735
0.000922943
-0.000344407
-0.000608594
-0.000641621
0.000822225
0.00690939
-0.000128825
0.00319692
0.00166198
-0.000233392
0.00151561
0.000643277
-0.00179372
0.000734664
0.00121223
0.000993599
0.000758571
0.00044517
0.00086424
0.00205088
0.000174947
0.000566125
0.000820353
0.000348065
0.000244828
0.00164023
0.00155653
-0.000101357
-8.42044e-05
0.00133121
0.00121807
0.000518615
0.000449785
0.00129958
0.000213406
0.00134933
0.00118184
0.000222038
0.00126511
0.000682897
0.00155035
0.000305215
0.000566962
0.000692155
0.00105651
0.00074398
0.00221525
0.00322163
0.000170347
0.000602963
0.000689291
0.000977162
0.0014504
0.00283596
-0.000215447
0.00210585
0.00190296
0.000480012
0.000322284
0.00117707
-0.00384779
0.000878945
0.00100691
0.000524728
-0.000377687
0.000788074
-0.000222981
0.00123339
0.00100353
0.00126661
0.0015662
0.00117741
0.000913905
0.00142715
0.001067
0.0014319
0.00137197
0.0011241
0.00147381
0.00107506
0.000947191
0.00105626
0.000284529
0.00134668
9.71684e-05
0.00117337
0.00123945
0.0015274
0.00173053
0.00125653
0.00135881
0.0011942
0.00123947
0.00108489
0.000469154
-0.000573958
-0.000550327
0.000801009
0.00219697
0.0012841
0.00227471
-0.00226882
0.00100596
0.000578267
-0.00103781
-0.000209179
0.000984613
0.00181361
0.000846928
0.0013261
0.000650829
0.00169603
0.00145779
0.00107116
0.00348973
0.00139375
0.00075115
0.00374478
0.00109028
0.00202457
-0.000759745
0.000183104
0.000705448
0.00120253
0.00317503
0.00140288
0.000942528
0.000863702
0.00159362
0.0014602
0.00219683
0.00131143
0.00131019
0.00188359
0.000508005
0.000168367
-0.000626316
0.000801603
0.000745892
0.00102413
0.000864192
0.00100427
0.00100164
0.00136008
0.0013786
0.000441967
0.0010804
0.00114183
0.00201909
0.00259646
0.000912014
0.00157193
0.00178168
0.00607214
0.00171171
0.00146354
0.00329641
0.00469087
0.00207649
0.00227735
0.00102039
0.000722312
0.000932792
0.0026645
0.00108852
0.00239037
0.000798615
0.000254481
0.000858403
0.00141167
0.00188809
0.00156519
0.000463767
0.00102495
0.000741754
0.000665041
0.00114457
-0.000242691
-0.000675731
0.000335216
0.000900588
0.000865098
0.000635201
0.000986415
0.000933948
0.00172582
0.00145716
0.00100365
0.00158485
0.000446089
0.00132137
0.000624665
0.000942035
0.00123497
0.000101109
0.00124714
0.00292378
-0.00217753
0.00076706
0.00112711
0.00094994
0.000974265
0.000471824
0.000894871
0.000819186
0.000403446
0.000639016
0.000787918
0.00091514
0.000958087
0.000909841
0.000898161
0.000958531
0.000893947
0.000677275
0.000876508
0.00087947
0.000884245
0.00101883
0.000983334
0.000771101
-0.00182381
0.00216868
0.000681106
-0.00107549
0.000574642
-0.00267887
0.00152931
0.0012882
0.00114666
0.000710983
-0.000575952
0.000901964
0.00107932
-0.000107017
-0.000108713
0.00150076
0.00185504
0.000269764
0.000224343
-0.000689053
-0.000150889
-0.000397998
0.00430543
0.00146214
0.00198959
0.000925982
0.00133559
0.000845279
-7.90185e-06
0.000714447
0.000715419
0.000568517
0.00109545
0.000363281
0.000874569
0.000872206
0.000831465
8.68838e-05
0.000563296
0.00115599
0.000908023
0.00159428
0.000244821
0.00100928
0.000134174
0.00202128
0.00190935
-0.000114714
0.00136338
0.00055193
0.000895104
0.000782883
-0.00155356
0.00159056
0.0014259
0.000265427
0.00165794
7.02285e-06
-0.00859545
-0.00275935
0.000249074
-0.000118618
0.00103533
-0.00145772
0.00414767
0.000669419
0.00106322
0.000558493
-0.000275875
0.000883242
0.000207503
0.000311407
0.000202417
-0.00173759
0.00459447
0.000624853
0.00232189
0.00253996
0.000901073
0.00112932
0.00118255
-0.000831488
0.00742425
0.00220302
-0.00013348
0.00415709
0.00320365
0.00620257
-0.00511013
0.00218053
0.00108066
0.000902046
0.000678046
0.000912927
0.00109084
0.000791227
0.000442251
0.000347494
0.000418376
2.9012e-05
0.0019867
0.00132632
0.00202045
0.000823674
0.000981158
0.0013859
0.00123678
0.00111655
0.0014547
0.00126744
0.000631972
0.000802635
0.000430516
0.000460516
0.000161311
0.000138349
-4.24189e-06
0.000698889
0.000955633
0.000871558
0.0014785
0.000374751
0.00118557
0.000620821
0.00110819
0.000569482
0.000909139
0.00089192
0.000742872
0.000367157
0.00133676
0.000578161
0.000292997
0.000688786
0.00123043
0.00133456
0.000864756
4.47941e-08
7.07217e-05
1.30325e-05
0.00232976
0.00186892
0.00136171
0.00136187
-0.000377044
0.000836588
0.00085524
0.000814981
0.00134101
0.000696046
-0.000121966
0.00129903
-0.000118664
0.00195045
-3.31196e-05
0.000687596
0.000828972
0.00104178
-7.46559e-06
0.000654397
0.00103636
0.000209194
0.000571411
0.00129962
0.00154136
0.00150335
0.00214947
0.00087146
0.00157338
0.00115973
0.00098062
0.000331246
4.32367e-05
0.000688374
0.000661639
0.000430135
0.000719259
0.000482094
0.000978576
0.00200975
0.000820669
0.00118939
0.00128342
0.000894039
0.000528135
0.000857634
0.00108236
0.000883407
0.000423945
0.00131537
0.000972078
0.000861219
0.00122608
0.000459485
0.00104371
9.5313e-05
0.000376724
0.000433565
0.0010502
0.000405636
0.000214004
0.000732445
0.0013369
-0.000211144
0.00213414
0.000761336
0.000337803
0.000618394
0.000777983
0.00118859
0.000476568
0.00103699
0.00123101
0.0012539
0.00125335
0.00107798
0.000816671
-0.000120607
0.000983344
0.00062196
0.000513835
0.000848037
0.00245115
0.0011051
0.000561591
0.00110394
0.00245985
0.000182763
0.000887038
0.000983964
0.00124572
0.00278374
0.00194603
0.00051652
0.000756275
0.000363961
0.00206105
0.000266123
0.000858296
0.000638098
0.000738853
0.000766639
0.00090644
-0.000154064
0.00105128
0.000553715
0.000272477
0.00054578
0.00135786
0.000753839
0.00126472
0.000562197
0.00160859
0.00134552
0.00146875
0.00150813
0.00192478
0.00131842
0.00230994
0.000860144
0.00156425
0.000422694
0.000181189
0.000748441
0.000433188
4.11166e-05
0.00186953
0.00174949
0.00188799
-4.39582e-05
0.00186942
0.00240617
0.000271839
-0.000608667
0.00150594
0.0013929
0.00203831
0.000629559
0.000885083
0.000462709
4.66223e-05
0.000644867
0.000970269
0.000419354
0.00182018
-0.000887962
-0.000265342
0.000817714
0.000580598
0.000764449
0.000735787
0.000266521
0.000756429
0.000675163
0.000398789
0.000851854
0.000322337
0.00581753
-0.00108872
-0.000835437
-0.000874884
-0.00227633
0.000918747
0.0018271
7.40487e-05
0.00100866
0.000792506
0.000635886
0.00100258
0.000812972
0.000906991
0.00130656
0.000812343
0.000971436
0.000910313
1.15616e-05
0.000426494
0.000260059
-0.00107459
-0.000260406
0.00114653
0.000868556
0.000541889
SCALARS CoVolArea double 1
LOOKUP_TABLE default
249561
70063.2
130290
125656
87820.7
187411
96345.6
56520.9
109475
144934
185368
90949
142786
112913
137823
218554
76039
100323
100230
133383
128133
175809
122494
96526.1
306112
216563
182931
257036
498460
393823
178662
232291
151119
188729
176570
173702
393295
134386
121979
133975
113471
171318
187990
131613
237400
133740
156263
156350
74550.1
110253
78102.5
124606
214625
356700
158125
85648.1
63990.9
147111
232166
93400.9
54985.1
86306.3
119546
202580
216743
161928
175573
30852.9
163091
153208
121942
135527
214589
273021
263488
170119
177305
162620
199922
155292
98487.8
100673
102485
109503
120760
306219
184602
111598
159565
298488
170528
175834
233316
140346
182726
172982
242005
103391
96027.6
330404
81842.3
49505.2
158517
129684
143018
54868.6
73900.6
91736.1
70447.7
130656
208465
106837
162338
199012
181353
194440
159263
101252
197118
208935
161608
240111
211657
163553
176938
198460
263417
166773
168723
187259
156635
175961
170276
166896
102099
207014
146642
135101
122377
124913
152437
152549
165933
164217
74763.3
72554.1
155469
132480
122975
107560
144367
102488
224873
90212.7
139501
237085
145998
118675
403479
124518
101645
183700
270325
219200
383531
144315
124736
138259
169694
129027
120818
120336
150089
129838
135003
141894
126988
146158
155797
158852
125307
69840.3
140669
106017
81566.3
82163.1
79911.5
81850.4
110923
166680
151948
145430
295989
365207
208568
203036
102205
125500
64525.7
306294
237680
269358
352512
349136
126066
123903
75534.1
77340.2
104130
71001.6
76526.4
78517.5
125802
63557.6
101503
117465
91588.5
75387.2
191492
189997
166815
160891
71126.9
101171
148799
51633.3
65742.5
98628.6
71211.3
80950.8
73854.2
88556.8
124629
206308
188811
165119
154878
100378
134048
189387
149340
196386
173315
262321
121331
183229
143008
100935
147317
121771
142547
37342.2
78262.4
143323
98093.8
64481.5
107541
137386
205505
141514
175982
115382
97203.8
85755
147147
138375
138911
203486
177318
184788
226653
201808
200004
195164
168268
295461
297076
230189
251267
197033
180702
181271
165850
125337
156895
170488
164975
180179
168194
272655
235880
206842
252354
131648
178774
283068
130242
220155
102465
281877
216891
106780
103632
118599
169339
172881
134450
104153
136133
99024.3
94962.1
88442.6
109888
101600
110862
127231
111784
110492
206387
402872
79865.3
76988.5
169693
137363
313142
117094
121283
248725
152097
295367
129232
117545
157091
230500
102937
239286
283216
128457
233744
424312
398678
70358.1
164561
154992
182413
138663
173011
195933
250066
214637
239619
230371
222998
208382
162900
175998
187124
179713
180228
145301
132008
277846
188235
194250
101105
134518
198498
182465
242208
239322
213332
353780
120169
101173
242719
125437
250860
21194.3
34435.2
241175
79540.8
228249
29916.8
72160.8
129529
130178
90136.6
335808
210014
294930
334295
214382
364575
68699.3
96563.5
137702
137727
58693.7
95960.6
114615
240930
45791.8
50065.4
77573.7
33402.8
123014
34751
45834.6
62231.9
95111.5
97358.4
122687
99448.7
107193
183614
149336
200173
204757
296199
80551.1
149137
88613.6
164169
178694
155728
160977
167091
147181
171313
190252
203984
178767
159951
146227
213629
184382
182989
115194
127713
136757
140181
179571
166498
195268
188329
179147
158488
170126
214306
191301
225804
236873
174835
150779
187421
179063
306018
253186
384908
93228.1
142258
188811
162857
207100
166720
192690
164325
172534
193705
372689
208353
301508
141179
168863
195076
231032
237328
325607
183524
164108
257501
199320
144451
154185
142522
127414
170978
145310
165639
161147
222268
280635
155461
153972
141677
156259
152392
124167
89600.5
125950
131827
209429
181981
200788
171501
155189
172823
187496
129737
159753
161748
111090
165838
113736
131128
126762
133397
128510
181731
184489
145337
129895
123241
69641.6
135511
165565
138012
199608
163187
208900
163804
147498
150530
155207
164774
153567
162698
105833
124595
160229
78019.3
94465.4
113595
163527
135670
82550.9
143889
87353.2
86685.1
139957
80443.7
144326
173635
152336
144387
109491
124472
149869
131026
117975
143398
143787
323351
130040
156224
141408
130013
137808
128140
126770
188596
153225
151011
153157
174748
115899
134472
90615.9
162481
172217
217584
230140
277253
294304
270127
146264
140934
164121
116604
108124
67293.1
110936
235972
126819
140752
104085
154008
163575
255226
310019
247740
167593
216591
147613
205009
207884
106687
138106
112484
123347
317895
107144
244459
129221
124615
147239
90240.2
649413
416474
202418
267176
145139
160500
364285
146694
179348
157031
106324
104836
114925
128806
94936.7
127406
163612
235104
133037
254715
233322
122150
132445
130523
127408
SCALARS SignedDistance double 1
LOOKUP_TABLE default
648.688
806.906
474.65
477.869
694.38
930.753
728.293
931.26
727.892
642.95
846.959
497.76
506.995
669.451
738.285
986.432
638.366
638.842
659.962
617.063
578.76
593.958
737.505
751.336
721.425
712.547
704.606
607.301
1278.52
809.01
982.85
1063.29
500.268
610.852
479.398
484.636
570.054
558.752
573.814
735.532
619.28
736.396
616.429
604.357
735.519
545.29
528.206
496.965
785.766
698.659
784.617
707.412
614.568
934.995
841.093
712.229
758.06
847.756
876.063
709.325
746.108
623.912
660.884
902.122
817.523
454.857
522.506
818.15
491.38
638.459
571.155
647.609
623.102
665.571
679.359
569.697
565.567
781.415
930.77
764.948
758.192
701.653
719.04
690.339
768.187
1012.99
595.215
678.014
687.038
983.438
779.06
532.448
591.476
646.677
599.426
542.316
632.167
549.598
869.655
1025.43
902.406
795.33
701.177
1259.92
761.607
851.212
1011.03
871.818
795.648
797.099
1050.38
758.545
447.984
482.737
491.825
631.989
624.677
617.932
554.637
552.201
631.157
562.452
557.539
545.116
483.384
574.925
555.897
517.427
542.622
538.316
540.585
557.143
648.799
580.655
730.005
609.402
501.78
709.612
674.72
710.91
692.142
731.531
520.176
684.443
662.586
654.842
724.558
689.311
685.742
739.923
473.116
674.692
701.72
768.214
723.59
705.524
801.651
754.116
1266.62
724.812
734.143
778.795
651.066
705.058
666.209
554.435
599.926
548.27
723.594
668.034
660.76
512.261
496.772
485.924
602.779
524.683
604.513
492.999
503.236
509.006
809.262
783.91
816.029
696.96
738.426
763.246
746.458
747.206
688.418
562.76
624.894
640.014
652.068
773.646
800.795
703.861
612.746
654.246
659.59
968.364
864.987
898.368
952.277
1009.67
835.727
886.509
758.567
784.383
824.574
693.926
734.602
657.953
911.756
804.535
819.808
804.932
798.621
734.05
897.091
674.043
589.644
709.439
720.075
811.202
786.891
766.654
725.149
606.796
672.502
653.815
667.277
638.678
742.185
892.875
1056.42
775.113
824.183
627.68
654.99
835.936
604.649
580.983
566.341
883.127
598.326
588.324
551.707
600.005
519.335
507.988
481.306
828.453
692.214
572.163
647.58
791.875
593.471
543.236
701.619
620.658
691.051
564.229
595.211
620.25
597.288
572.309
567.369
397.787
499.364
434.713
602.579
577.353
581.279
587.142
530.428
844.713
715.741
580.304
670.453
616.007
647.997
623.687
548.478
531.281
497.013
534.921
594.603
543.029
584.755
643.736
592.381
515.037
965.058
892.968
930.084
1054.04
780.123
819.911
760.864
799.116
791.272
746.965
756.234
759.857
788.14
805.519
672.671
685.072
666.027
732.632
709.686
724.427
712.296
702.939
717.005
768.434
739.809
749.085
820.081
924.495
762.402
782.013
807.824
919.374
914.574
537.192
563.8
734.582
603.439
688.163
572.954
654.048
650.439
689.387
713.169
777.077
686.435
708.885
816.078
765.066
719.422
784.955
837.82
882.43
602.813
539.337
594.565
616.485
537.728
545.852
546.57
734.697
655.191
581.381
616.855
606.394
630.887
615.604
466.823
519.193
467.45
590.062
623.833
672.76
694.024
637.902
693.25
565.496
572.042
562.406
761.396
917.823
750.745
755.753
921.204
911.462
1104.6
913.685
804.55
860.932
799.55
955.694
786.202
789.607
711.161
763.025
759.818
1070.3
765.254
746.472
833.068
771.213
1321.52
871.467
918.303
1060.69
976.537
1162.98
707.755
760.779
839.042
850.544
873.524
812.913
808.712
924.196
861.364
1075.62
754.827
696.382
757.87
775.161
744.251
1061.21
857.639
882.974
777.753
811.585
1006.61
806.387
877.14
890.148
474.327
463.887
485.291
472.577
454.124
444.358
475.547
495.02
497.863
636.769
660.472
665.501
622.21
636.501
623.524
548.977
598.04
570.845
637.321
571.088
641.773
525.386
544.171
502.387
604.662
582.015
597.286
544.688
600.761
559.444
551.631
544.711
517.646
544.336
564.589
560.127
561.776
639.87
531.089
485.642
469.497
522.852
516.18
501.244
555.578
502.506
483.711
564.747
632.027
566.641
498.815
552.779
526.469
523.518
551.36
581.149
531.581
517.161
581.429
564.879
529.182
515.316
544.204
500.387
538.486
513.642
517.853
530.683
562.405
566.616
665.906
669.807
691.593
603.518
624.134
636.579
640.891
639.074
583.679
562.668
536.944
557.113
540.188
483.811
572.999
570.841
548.532
565.67
612.598
736.268
679.598
725.441
723.924
729.4
676.621
644.496
696.848
702.338
733.252
717.46
717.529
694.277
723.554
699.531
704.077
604.099
678.966
661.626
468.591
534.136
481.885
460.997
493.88
701.788
707.217
674.409
689.946
724.091
673.313
664.396
662.779
670.77
541.788
625.438
728.789
662.891
671.03
599.086
663.685
562.066
612.237
635.996
651.955
699.328
698.792
664.149
711.386
690.964
665.226
654.916
803.148
748.243
779.326
772.568
752.271
671.618
718.439
704.765
479.544
420.569
439.973
513.403
596.159
695.33
738.518
767.193
683.765
519.801
598.741
658.757
552.227
597.968
732.294
527.499
679.288
627.642
761.421
695.274
733.69
790.447
835.114
498.39
748.968
619.494
592.035
612.537
714.573
740.36
747.7
656.875
674.67
756.167
807.493
847.292
763.331
776.367
773.279
795.485
847.81
761.755
864.824
769.842
740.918
755.191
1102.59
1077.92
1170.95
1058.28
1410.03
785.093
876.237
838.618
675.531
676.395
682.04
712.693
743.085
730.882
757.791
744.688
713.726
695.452
992.175
775.554
805.983
1033.69
815.692
732.965
754.305
757.675
