# vtk DataFile Version 4.2
vtk output
ASCII
DATASET POLYDATA
POINTS 642 double
-2355.96 5878.66 -578.064
297.409 5759.03 -505.088
-2381.58 509.501 -31.866
1384.05 527.85 60.2924
-656.665 1390.55 2376.19
-1322.58 4579.9 1750.41
-504.509 1763.34 -2004.18
-1331.75 5153.31 -2500.53
1594.26 3103.88 -1054.41
1818.45 3014.59 1258.62
-2877.42 4009.49 -1400.1
-3389.42 3534.03 1664
-3258.68 4974.46 974.334
-2337.72 4299.33 2207.25
-1828.77 5399.62 1276.66
-74.9159 5331.04 450.514
-647.029 6347.55 -263.189
35.6324 5863.15 -1319.37
-1927.21 6192.96 -1880.13
-2175.57 4914.43 -2571.32
-3171.89 5311.41 -1378.92
-3606.71 3489.4 192.497
780.34 3802.32 1797.92
1395.14 4216.34 739.165
-2025.89 2156.55 2021.56
-471.336 3042.98 2391.37
-2836.38 1587.91 -671.893
-2940.6 1626.5 964.343
-1020.18 3888.51 -1942.22
-1825.85 2598.57 -1679.66
1093.53 4627.24 -480.993
353.45 4605.08 -1308.25
2255.11 1543.07 923.668
899.245 2262.53 2156.5
548.836 629.564 1586.81
-1749.91 570.537 1651.32
-531.923 387.493 -57.9439
-1478.25 771.251 -1434.92
452.16 789.502 -1368.13
750.626 2239.68 -1741.48
2092.93 1661.36 -681.032
2192.57 2699.32 130.905
-2862.74 5379.76 495.755
-2577.01 5325.54 1214
-1983.33 5553.78 691.759
-2939.25 3957.43 2060.45
-2893.28 4691.47 1760.86
-3417.88 4273.15 1396.78
-1623.44 5077.59 1587.94
-2152.25 4952.57 1819.91
-1902.57 4481.87 2078.93
-942.936 6100.19 233.586
-1231.2 6242.85 -348.475
-403.69 4763 1268.22
-1038.18 5635.58 675.785
-130.671 6143.8 -390.613
-435.501 6053.04 147.044
-31.4466 5777.22 44.6631
-1347.77 6241.93 -1082.42
-2166.68 6213.51 -1416.21
278.398 5918.56 -842.673
-247.262 6278.32 -870.587
-1632.92 5735.97 -2306.14
-913.163 6025.26 -1665.02
-474.491 5568.83 -1818.67
-2687.7 5974.81 -1702.5
-2829.72 5761.02 -1027.78
-1757.53 5123.99 -2732.37
-2162.48 5652.15 -2453.39
-3102.54 4884.71 -1539.2
-2900.15 5220.25 -2080.27
-2636.76 4478.52 -2146.46
-3238.56 5098.78 -62.7609
-3353.09 3521.63 -550.03
-3310.02 4452.25 -511.083
-3579.31 4338.38 578.035
-3579.74 3526.45 951.79
822.646 4618.67 885.309
783.676 4851.97 171.486
187.431 4066.72 1801.7
529.529 4422.5 1419.27
1665.46 3724.6 1029.22
1190.7 4081.43 1306.67
1318.42 3496.65 1633.62
-1953.53 3817.05 2328.3
-938.319 3589.05 2272.99
-2897.34 3182.23 1969.18
-2335 3560.36 2363.41
-405.647 2359.39 2498.63
-1398.73 3093.3 2325.42
-1352.2 1495.69 2235.58
-3536.47 2596.51 492.681
-3259.15 2749.43 1272.94
-3015.54 2590.11 -993.891
-3386.73 2586.59 -298.975
-2776.01 927.753 550.471
-3036.12 1545.5 2.76877
-2798.26 937.727 -469.317
-2127.19 4133.65 -2328.16
-2233.18 3347.26 -1696.99
-1379.46 5008.46 -2469.96
-1829.17 4675.69 -2584.69
-1107.87 1885.18 -1907.46
-1494.89 3353.11 -2095.3
-505.519 2376.65 -2037.28
215.058 5248.87 -1588.95
-472.006 5105.62 -1945.47
603.097 5395.52 -817.026
528.452 5449.57 -1066.94
1120.43 3462.15 -1325.78
504.774 4572.8 -1126.42
1533.52 3661.74 -806.368
1972.8 936.555 534.268
1580.64 1008.2 1246.59
1067.74 502.689 825.355
1469.15 2622.22 1729.9
1752.31 1765.85 1508.31
2223.97 2190.16 1078.85
-109.206 1014.42 2100.52
799.583 1342.68 1958.79
248.313 1838.62 2360.66
156.79 396.77 1001.48
632.843 399.972 20.7002
-1053.01 964.181 2236.49
-606.311 517.267 1799.82
-1680.47 380.123 72.9184
-1296.71 401.608 988.314
-2097.5 439.827 995.981
100.59 414.846 -859.222
933.961 622.548 -706.089
-2059.65 581.07 -697.095
-1156.94 400.366 -903.411
-38.2965 1201.95 -1694.63
-601.107 716.217 -1468.79
-1110.17 1125.84 -1732.63
1336.17 1173.67 -998.331
1883.39 1009.78 -375.172
127.633 2002.45 -1947.61
684.426 1494.5 -1674.27
1990.04 2100.25 -762.99
1432.42 1913.07 -1257
1225.78 2690.38 -1457.63
2357.53 1494.19 80.555
2001.96 2926.22 -477.246
2373.17 2156.35 -253.384
2504.84 2195.75 458.359
2151.24 2765.33 660.814
201.031 2654.9 2419.56
878.231 3063.61 2101.27
195.155 3360.37 2237.49
-2518.44 889.537 1452.92
-2013.37 1223.09 2110.9
-2529.41 1696.5 1638.26
-1629.97 1311.27 -1646.38
-2378.02 1065.91 -1028.9
-2439.71 2009.87 -1252.2
715.926 3044.57 -1685.12
44.209 2746.79 -2024.45
-506.714 3885.76 -1969.63
1844.25 3700.16 437.672
1801.75 3679.76 -276.555
1417.52 4239.15 34.6762
-2591.9 5533.43 -18.9451
-2520.03 5508.8 651.32
-2085.26 5681.68 156.235
-2941.59 5194.45 1113.59
-2744.74 5375.99 895.776
-3090.49 5209.07 764.532
-1953.25 5515.69 1018.28
-2370.02 5471.88 1001.88
-2199.41 5389.2 1259.1
-3200.89 3736.25 1888.71
-3225.62 4099.98 1779.65
-3439.99 3870.98 1568.05
-2634.86 4501.73 2047.99
-2932.14 4335.83 1952.52
-2645.13 4163.23 2183.68
-3365.02 4664.08 1186.72
-3184.52 4513.38 1598.74
-3113.12 4853.55 1388.98
-1571.48 4873.77 1707.92
-1771.24 4805.31 1852.38
-1705.64 4598.9 1928.39
-1993.27 5210.36 1553.94
-1875.7 5030.01 1718.98
-1715.58 5255.18 1448.49
-2093.9 4392.97 2177.17
-2017.96 4725.06 1978.38
-2260.55 4648.45 2048.25
-2760.41 5061.84 1505.65
-2515.27 4866.75 1837.99
-2370.58 5169.1 1561.59
-1483.77 5988.23 71.0435
-1789.77 5987.27 -560.339
-1377.25 5629.75 716.648
-1429.82 5854.69 384.139
-888.813 6348.62 -235.141
-1024.18 6220.75 9.4334
-812.019 6274.89 -14.6548
-948.622 4558.1 1441.26
-1337.68 5055.57 1432.78
-560.577 5649.46 545.32
-948.731 5203.82 950.668
-162.532 4988.35 910.554
-1437.64 5245.11 1297.18
-1385.45 5395.51 1089.62
98.0847 5971.22 -455.573
-56.3267 5967.96 -140.924
143.715 5787.07 -227.97
-536.68 6228.7 -38.252
-299.423 6124.52 -72.1325
-407.169 6279.96 -334.21
-109.682 5648.55 249.914
-215.206 5925.73 106.716
-360.253 5863.35 275.106
-897.293 5884.57 477.313
-618.773 5918.39 376.694
-695.551 6121.41 206.241
-1794.27 6138.3 -1110
-2273.13 6061.56 -1092.4
-782.034 6356.7 -552.865
-1321.49 6252.55 -719.478
-2066.31 6263.62 -1605.44
-1885.24 6201.93 -1387.17
-1832.26 6216.43 -1576.95
300.598 5853.69 -721.385
93.4867 6058.59 -671.629
-92.6206 6113.73 -1102.37
21.2319 6128.05 -867.515
172.219 5923.78 -1069.76
-181.487 6239.3 -647.496
-418.581 6338.08 -605.114
-1489.7 5415.35 -2458.16
-1220.9 5646.89 -2115.93
-1015.51 5297.27 -2191.25
-1596.53 6081.22 -1868.63
-1401.3 5903.4 -2010.9
-1781.97 5992.51 -2120.6
-127.504 5748.6 -1536.38
-704.446 5843.41 -1764.43
-307.714 5998.75 -1421.64
-581.785 6344.92 -906.126
-432.484 6218.7 -1191.84
-1106.38 6169.2 -1405.94
-2516.12 6044.79 -1246.72
-2583.59 5874.5 -803.151
-2274.4 6180.86 -1822.98
-2421.88 6174.44 -1526.3
-3032.79 5565.58 -1218.07
-2787.11 5903.69 -1402.75
-2994.5 5666.02 -1545.63
-1596.31 5159.73 -2640.89
-1688.95 5394.65 -2598.95
-2215.75 5250.02 -2581.99
-1894.79 5350.04 -2690.83
-1885.59 5049.71 -2744.27
-1861.81 5742.96 -2419.51
-2036.46 5993.59 -2214.04
-2958.11 4426.82 -1581.48
-2917.52 4700.55 -1845.16
-2761.57 4328.31 -1892.04
-3120.62 5276.51 -1740.86
-3053.73 5077.75 -1802.59
-3183.42 5097.45 -1489.17
-2445.97 4716.01 -2375.04
-2779.02 4958 -2112.44
-2573.99 5102.11 -2343.32
-2468.28 5864.32 -2136.62
-2597.77 5446.77 -2331.84
-2869.97 5590.78 -1964.17
-2819.42 5517.72 -343.561
-3156.43 5247.42 -833.787
-3030.63 5400.61 -601.924
-3089.19 5250.29 210.898
-3311.97 5027.23 542.581
-3025.1 3647.33 -1021.53
-3094.92 4310.68 -1050.04
-3549.66 3934.1 -49.9404
-3368.47 4007 -532.469
-3519.41 3470.92 -207.224
-3177.44 4765.51 -1105.78
-3206.58 4975.18 -1076.94
-3555.57 3894.64 1242.87
-3535.72 3532.07 1369.52
-3486.81 4691.24 811.316
-3541.96 4343.2 1013
-3676.65 3519.91 507.865
-3627.34 3921.07 746.986
-3666.43 3929.16 382.313
-3332.97 4815.92 -289.812
-3573.3 4356.93 153.713
-3497.65 4730.57 343.185
373.575 5351.11 -88.9398
413.169 5486.42 -339.81
344.41 4905.16 838.023
209.941 5073.96 435.774
1200.06 4435.69 583.85
884.142 4691.67 577.367
1118.21 4442.06 821.584
-295.916 4207.32 1747.22
25.536 4390.25 1582.36
667.032 4150.91 1608.52
392.491 4276.97 1605.2
503.039 3930.79 1811.91
235.258 4542.62 1393.56
350.002 4693.66 1157.95
1746.95 3435.87 1164.28
1527.49 3623.78 1342.71
1552.72 3329.67 1492.25
1320.4 4158.57 1030.16
1440.39 3915.05 1183.6
1551.81 3974.71 884.986
1057.24 3653.81 1734.76
1271.7 3808.13 1474.7
1014.96 3965.71 1559.42
693.845 4539.88 1170.24
865.749 4277.24 1383.07
1021.97 4372.53 1113.26
-1716.69 4164.67 2131.57
-1106.67 4202.65 1740.84
-2063.97 4032.64 2312.08
-1908.48 4116.1 2232.13
-574.315 3415.95 2262.84
-1536.71 3939.6 2183.92
-1340.12 3547.15 2078.24
-3173.28 3365.81 1854.98
-2970.36 3550.07 2050.4
-2298.71 3210.46 2261
-2640.78 3392.52 2181.29
-2472.96 2849.91 1991.13
-2665.28 3750.39 2219.53
-2353.05 3902.53 2319.87
-557.292 1776.65 2373.44
-813.977 1808.08 2343.03
-915.966 1425.27 2377.44
-977.092 2944.19 2381.15
-745.59 2532.84 2415.61
-397.772 2682.32 2447.56
-1753.66 1618.22 2098.85
-1285.2 2071.43 2235.54
-1796.56 2659.59 2153.83
-2061.4 3678.71 2421.48
-1997.35 3439.93 2383.73
-1863.57 3430.96 2362.35
-3493.27 3182.37 1194.32
-3383.61 3238.27 1524.14
-3596.08 3036.27 337.25
-3552.2 3096.11 708.087
-3157.87 2151.68 1091.59
-3430.42 2642.13 878.66
-3331 2215.57 698.55
-2946.66 3048.78 -1115.95
-3171.62 2976.33 -797.173
-3171.16 2159.12 -551.05
-3214.06 2555.12 -680.672
-3001.39 2196.59 -850.725
-3372.85 3004.81 -404.365
-3519.64 3005.07 -62.4984
-2609.65 673.75 255.122
-2815.39 902.471 -37.1988
-2615.96 679.32 -273.917
-3061.35 1596.06 474.918
-2940.32 1145.54 235.918
-2832.61 1173.5 802.926
-2840.93 1159.75 -594.612
-2937.87 1126.32 -266.072
-2939.06 1506.96 -377.386
-3529.09 2581.45 116.42
-3297.97 2142.11 -138.334
-3386.43 2181.6 286.965
-2481.41 4149.3 -2095.93
-2615.21 3749.06 -1412.11
-2163.3 4461.44 -2484.11
-2360.7 4266.09 -2285.23
-2088.12 3082.89 -1720.26
-2241.38 3940.14 -2140.14
-2068.26 3705.88 -2067.77
-1357.8 5139.49 -2501.48
-1651.4 5116.44 -2639.34
-1675.35 4519.51 -2467.88
-1666.06 4865.94 -2568.33
-1361.49 4661.6 -2390.49
-1798.6 5024.28 -2686.96
-1872.7 4798.43 -2657.7
-810.851 1829.45 -1971.49
-787.697 2195.04 -2038.69
-492.747 2049.5 -2035.5
-1490.83 3102.79 -1989.41
-1080.21 2468.61 -2002.28
-1388.73 2047.57 -1799.36
-542.684 2913.72 -2060.56
-908.725 2684.44 -2046.82
-1528.14 3555.78 -2064.49
-1923.08 4354.68 -2499.22
-1845.43 4241 -2414.63
-1851.76 3979.49 -2328.3
-422.915 5214.3 -1943.98
-981.778 5093.15 -2321.84
138.128 5554.12 -1487.66
[...]
POINT_DATA 642
SCALARS Mean_Curvature double 1
LOOKUP_TABLE default
0.000572601
0.0008819
0.00121101
0.0013325
0.00128633
0.00269956
0.00167575
0.005662
0.00100315
0.000721909
0.00108661
0.00190857
0.00124723
0.00100149
0.00130299
-0.00200445
0.00223681
0.00128278
0.00242201
0.000649734
0.00173645
0.000150993
0.000727478
0.00104026
0.000253629
0.000349041
6.41332e-05
3.52481e-05
-0.00124811
-0.000116529
-0.00361305
0.000250503
0.00155736
0.000697416
0.00130549
0.00133836
3.36261e-05
0.0013189
0.00160747
0.000423065
0.00151379
-0.000403735
0.00080215
0.00106018
-0.00078491
0.00104771
0.00102848
0.000884763
0.00126504
0.00113677
0.00104528
0.00123389
0.00080388
0.000582352
-0.00162333
0.00109298
0.00138911
0.000523566
0.000503244
0.00147995
0.00320585
0.00210124
0.000652644
0.00116196
0.000408048
0.00171263
0.000800658
0.00663279
0.00145185
0.00034617
0.00219218
0.00124651
0.00094164
0.000476499
-0.000410549
0.000347994
8.58143e-05
0.000463797
-0.000393177
0.000587694
0.000918879
0.000923132
0.000950064
0.00082832
-0.00030543
-0.00292085
0.000937715
0.00183672
0.0013518
-0.000418325
-0.000337065
0.00130071
-3.23802e-05
0.00112248
0.000667356
0.000949399
1.76665e-05
0.00197268
0.000902201
-0.000346746
-0.000576886
-0.000336624
0.000789347
0.00635714
-0.000124811
0.00302192
0.0017944
-0.000102062
0.00142835
0.000637151
-0.00172507
0.000727995
0.00119485
0.000976348
0.000743634
0.00043991
0.000880064
0.00200578
0.000179564
0.000559364
0.000821097
0.000359999
0.00024917
0.00158059
0.00151929
-8.41168e-05
-8.25497e-05
0.00131384
0.00119389
0.000510295
0.000452893
0.00128784
0.000213534
0.00131887
0.00121625
0.000226664
0.00124402
0.000667086
0.00150479
0.000313394
0.000562234
0.000683238
0.00104879
0.000717715
0.00217552
0.00313878
0.00018674
0.000603445
0.000688237
0.000963377
0.00141131
0.0027548
-0.000198739
0.002094
0.00183894
0.000468774
0.000327656
0.00113367
-0.00337446
0.000871241
0.000996418
0.000518639
-0.000367534
0.000803782
-0.000227223
0.00121418
0.000985829
0.00124396
0.00151165
0.00116244
0.000905759
0.00140166
0.00105175
0.001397
0.00134506
0.00110316
0.00144649
0.00105817
0.000936948
0.00104076
0.000288673
0.00132532
0.000113252
0.00114408
0.00121396
0.00149964
0.0016944
0.00124254
0.0013293
0.00117117
0.00122578
0.00107276
0.000461444
-0.00057282
-0.000538437
0.000771494
0.00214244
0.00126022
0.00221252
-0.00221377
0.000989977
0.000599258
-0.00101787
-0.00020923
0.000938226
0.00175349
0.00084067
0.00130757
0.00065684
0.0016637
0.00142947
0.00105233
0.00331326
0.00137003
0.000725572
0.00347987
0.00107669
0.00198215
-0.000747739
0.000206845
0.000692419
0.00117321
0.00313858
0.00140173
0.000940094
0.000915417
0.00158393
0.00142611
0.00212086
0.00126632
0.00130562
0.00184217
0.000482548
0.000185337
-0.000696462
0.000774473
0.000721488
0.00104186
0.000858553
0.00094804
0.000988952
0.00133792
0.00134441
0.000431812
0.00106337
0.00111933
0.00194087
0.00253626
0.000899373
0.00155787
0.00174561
0.00545907
0.00169423
0.00144216
0.0030958
0.00444299
0.00203903
0.00221758
0.000982677
0.00070407
0.00092268
0.00258169
0.00110961
0.00235882
0.000772791
0.000252668
0.000880617
0.0013751
0.00184502
0.00151812
0.00045404
0.000986562
0.000726209
0.000647603
0.00113046
-0.000242151
-0.000666595
0.000328794
0.000880913
0.000852899
0.000628497
0.000965054
0.000938049
0.00169633
0.00142327
0.000994265
0.00155811
0.000432637
0.00130634
0.000616457
0.000943259
0.00120206
9.24189e-05
0.00123479
0.00271555
-0.00206518
0.000762762
0.00109702
0.000933223
0.000939178
0.000474966
0.00088638
0.000805621
0.000410369
0.00063311
0.000777185
0.000905229
0.000944516
0.000898878
0.000888488
0.000946203
0.000882793
0.000675592
0.000866857
0.000864914
0.000871912
0.00100295
0.000971428
0.000634883
-0.00176585
0.00211795
0.00068852
0.000203832
0.00160656
-0.00264577
0.00150181
0.00127829
0.001116
0.000706867
-0.000549834
0.000888468
0.00103817
-0.000109892
-0.000112076
0.00151968
0.00175888
0.000262068
0.000245696
-0.000650956
-0.000155665
-0.000399196
0.00412571
0.00140731
0.00197745
0.000917922
0.00131137
0.000828346
1.58324e-05
0.000703945
0.000699672
0.000567162
0.0010656
0.00035914
0.000858643
0.000865771
0.000814661
9.35138e-05
0.000564169
0.00113769
0.000879637
0.00156813
0.000235476
0.00102093
0.000179995
0.00203483
0.00190642
-9.66296e-05
0.00134323
0.000546782
0.000888306
0.000783357
-0.00152187
0.00152627
0.00140679
0.0002737
0.00159613
4.80523e-06
-0.00700655
-0.00237023
0.00023898
-0.00013229
0.000997491
-0.000910812
0.00381176
0.000660095
0.00105835
0.000582901
-0.00028108
0.000853742
0.000198223
0.000308234
0.000188073
-0.00166122
0.00422954
0.000757933
0.00212927
0.0023632
0.000493081
0.00110091
0.00112082
-0.000751097
0.00652021
0.00222777
-0.000106698
0.00404733
0.00208928
0.00555
0.00594374
0.00204177
0.00107142
0.000890022
0.000670659
0.000902852
0.00113736
0.000775189
0.000449814
0.00038532
0.000422596
8.14496e-05
0.00189021
0.00131854
0.00201271
0.000823147
0.000970473
0.00135681
0.00121327
0.00110173
0.00142385
0.00123473
0.000631264
0.000785776
0.000421959
0.000471935
0.000177366
0.000139876
5.46639e-07
0.000689343
0.000944423
0.000860635
0.00146745
0.00039089
0.00114727
0.000633963
0.00109594
0.000571448
0.000892231
0.000874457
0.000739718
0.000368972
0.0013098
0.000579758
0.000304722
0.000701924
0.00122838
0.00131128
0.000869204
1.35491e-06
7.19825e-05
1.24518e-05
0.00228283
0.00181379
0.00131717
0.00134073
-0.00036462
0.000828251
0.000837051
0.000827429
0.00129726
0.000687023
-0.000123689
0.00131352
-0.000119399
0.00192001
-5.48669e-06
0.000691133
0.000812869
0.00104571
7.02841e-06
0.000640166
0.00102352
0.000216664
0.000580756
0.00127326
0.00150174
0.00147926
0.00210659
0.000859477
0.00153541
0.00112778
0.00096411
0.000339255
4.99096e-05
0.000674051
0.000671132
0.00040631
0.000709848
0.000486744
0.00098389
0.00192826
0.000791454
0.00117952
0.0012582
0.00087629
0.000519771
0.00085417
0.0010665
0.000873989
0.000420015
0.00129534
0.000962462
0.000852593
0.00120856
0.000450568
0.00104747
0.00012389
0.000373948
0.000443718
0.00105054
0.000393245
0.000210342
0.000725979
0.00133312
-0.000177876
0.00211708
0.000743249
0.000335063
0.000617047
0.000762072
0.00117365
0.000471218
0.00102466
0.00120344
0.00122912
0.00123324
0.00106837
0.000803761
-0.000105555
0.000967565
0.000609062
0.000493781
0.000868795
0.00239343
0.0010886
0.000535032
0.00107292
0.00239617
0.000188878
0.000896514
0.00100403
0.00122038
0.00272808
0.00188972
0.000492594
0.000747149
0.000374226
0.00203496
0.000267833
0.000847754
0.000631204
0.000734891
0.0007623
0.000899167
-0.000110532
0.00104043
0.000463406
0.0002794
0.000546917
0.0013276
0.000756333
0.00124469
0.000556876
0.0015676
0.00132095
0.0014344
0.0014933
0.00186999
0.00131824
0.00228886
0.00082627
0.00153001
0.000420933
0.00016966
0.000731201
0.000419182
3.14285e-05
0.00179986
0.00175112
0.00187423
-2.69882e-05
0.00181469
0.00236162
0.000294107
-0.00058517
0.00148193
0.001424
0.00193769
0.000625942
0.00083557
0.000464385
4.54973e-05
0.000648209
0.000950691
0.000401744
0.00179356
-0.000818745
-0.000239418
0.000810917
0.000584838
0.000762113
0.000724723
0.00026662
0.000765976
0.000701954
0.000404779
0.00083881
0.00032493
0.00587631
-0.0010734
-0.000811317
-0.000643444
-0.0054566
0.000901265
0.00188081
8.46798e-05
0.000992625
0.000771274
0.000629706
0.000991943
0.000809654
0.000901037
0.00113801
0.000807097
0.000960845
0.000896404
-4.94564e-06
0.000434538
0.000259686
-0.00102936
0.00272861
0.00113392
0.000858406
0.000547364
SCALARS CoVolArea double 1
LOOKUP_TABLE default
249833
71023
132592
127772
89515.8
187799
98293.9
59290
111307
146701
187030
93213
145596
115850
140541
220021
78821.6
102666
103351
137041
131439
178011
124358
98501.3
307800
217363
185193
258772
488189
392831
178810
232686
154151
190931
179532
176566
393422
137433
124652
135659
116548
172547
190267
134362
238430
136308
159177
158880
76457.5
113001
79824.1
127771
216585
355933
159162
87806.8
66196.9
147746
235283
95304
57772.9
89228
121319
206131
219370
165745
178028
33806.1
167208
154662
125292
138066
218053
274153
265316
172636
179265
164588
202355
156871
100570
102796
104668
111517
121125
300933
186475
114909
161705
301041
170859
178607
235402
142782
185075
175444
244061
106370
98761.3
330219
81880.4
50969.3
160259
139476
144230
58046.3
77616.1
92623
73239.6
132709
208452
108645
164945
201721
183801
196203
161426
103526
199218
211020
163821
241794
213126
166819
180082
199981
264693
169433
171529
189740
159066
178762
171800
169669
104194
209131
149249
136947
124907
125993
154501
154584
169099
166568
77367.2
75670.5
157339
134872
125168
109469
147720
106107
226686
92203.5
142439
238212
147653
121174
391862
126871
103938
185050
271628
220326
382633
147137
127154
140753
172010
131075
123413
122962
152638
132488
138015
144551
129664
148676
158267
161644
126460
71776.1
141246
108633
83929.3
84511.4
82319.3
84240.6
113802
169865
155229
148459
297128
364428
211809
205703
105089
128281
67243.2
305447
237188
266927
349443
347494
127345
128075
77292.4
79296
105527
73585.8
78770.7
80856.1
128680
65366.1
103119
121849
93719
78206.2
192672
190681
170019
164273
74014.5
103898
151524
53336
68021.7
101410
73973.4
83610.4
76250.5
91390.5
127359
207480
190817
167941
157181
102662
136411
192148
152308
199918
176988
265926
123779
185506
147261
104314
149963
124604
146140
40293.3
81592.9
147408
102643
68332.8
110853
141213
207395
143546
177468
119146
99491.7
88350.8
149575
140538
141507
207738
181298
189149
229165
205279
202927
197860
171240
297158
297589
232227
253059
198839
182639
184093
168197
127799
159697
172847
167175
182366
170725
275606
238352
210033
251760
133268
182681
281975
132070
220503
104605
282202
218269
108839
105549
120229
171272
175178
136754
106255
138353
101160
96944
90370.5
111723
103566
112988
129803
114191
112867
205586
398493
82761.4
78570.1
167485
134992
310407
119546
123704
251306
154222
296425
131882
120989
158863
231165
104819
241218
284934
130454
233418
422158
398372
73822.1
167830
157199
184474
141063
175585
197933
251976
216708
241904
232246
224720
210531
165124
178471
188841
181822
182823
148129
134875
279619
190299
195940
103659
137043
200366
185475
244650
242138
214183
351829
124239
103720
244856
128190
252512
22475.4
34809.2
238411
79163.7
226515
31254.3
76318.5
131447
132101
91857.3
340052
214265
295324
331753
217570
361751
72634.9
100822
143593
142419
61694.3
98739.8
118347
238355
49778.1
52554.9
78291.8
35561
125661
37617.7
48799.6
65150.8
97742.6
99328.2
124676
101469
109588
185035
151611
200179
205629
294472
83716.8
151010
91010
166664
181167
158214
164073
169693
149965
174022
192714
206685
180638
161608
148078
215342
185858
184882
117953
129772
139686
142474
181850
168426
197763
190479
181520
160580
172351
216232
194381
228051
239478
176851
153068
190371
181324
306608
254224
385033
96138
145123
191906
165710
209507
169341
195803
166684
174934
196256
373072
209946
302118
143839
170842
197495
233961
240038
326773
185898
166481
259129
201244
147124
156929
145439
130040
173072
148315
168314
163717
223785
281989
157646
155822
143701
158898
154480
126151
92415.2
128396
134668
212526
185243
204003
173826
157650
175358
189709
132413
162020
164308
113322
167654
115797
132714
128282
135072
131084
183418
185808
147425
132413
124578
71779.6
137389
167029
140010
202492
166088
211570
166422
150830
153282
157936
167941
155745
164118
107645
126351
162299
79644.9
97699.5
115642
165727
139093
85314.3
145153
89256
88422.7
143842
83731.7
148283
175971
154741
146569
111825
126576
152029
132948
119924
145533
146252
321897
132117
157949
142682
131805
140532
130539
129395
191160
156546
153871
155762
177332
119202
136488
93031.9
166003
175534
219898
232229
279200
295676
271607
150342
144023
167338
118297
111806
69578.3
112102
235536
129561
142998
107063
156761
167153
255912
310011
249418
170049
218503
150572
205839
208301
108707
139949
114380
125139
317469
108838
244864
130911
126534
149202
92846
637909
410362
200018
259240
147535
162216
362327
149018
181468
159099
108494
106801
117090
131377
96821.8
129783
165999
234485
134608
254739
233774
124456
135145
132667
129417
SCALARS SignedDistance double 1
LOOKUP_TABLE default
667.851
830.865
489.924
493.101
713.696
955.784
749.427
954.41
751.127
663.142
869.989
514.129
523.24
689.438
760.126
1009.76
658.353
659.867
675.24
634.221
595.11
611.526
760.327
774.282
740.927
734.993
721.658
623.763
1299.41
829.68
988.721
1086.39
515.773
630.227
494.297
500.107
587.736
576.532
592.594
758.2
636.86
757.882
634.883
623.387
756.287
562.077
545.875
513.068
810.681
719.747
808.564
729.167
633.338
958.427
866.832
733.48
782.026
872.34
890.353
727.68
767.453
642.729
679.329
914.553
833.835
468.146
538.828
842.778
505.66
657.67
587.749
667.809
640.068
685.31
698.027
586.706
582.473
805.565
953.942
789.245
782.657
723.54
741.758
712.408
792.278
1013.45
613.414
695.592
707.082
1000.48
799.564
549.445
608.542
666.891
618.006
557.517
648.795
565.133
888.685
1043.05
924.124
820.555
724.187
1281.24
785.308
874.957
1033.45
895.495
815.915
821.827
1070.67
782.461
462.915
498.715
507.652
651.883
643.118
636.914
570.777
570.121
649.337
579.557
574.731
558.015
498.93
592.349
572.969
531.569
558.737
555.143
557.05
573.653
669.271
598.571
750.333
627.703
518.142
732.075
694.02
732.615
713.756
754.379
534.771
706.28
683.5
673.905
743.475
709.701
707.51
763.212
487.179
691.453
718.711
791.169
739.731
726.907
826.202
778.143
1273.97
747.412
756.99
802.938
670.091
724.73
686.811
571.374
618.639
564.676
743.901
686.725
681.55
528.788
512.849
501.644
619.633
541.438
621.491
508.971
519.731
525.586
834.158
808.065
840.389
718.385
761.043
786.74
768.462
769.399
708.196
580.528
643.382
659.367
671.809
789.621
822.612
725.101
631.409
674.768
680.052
993.689
889.427
922.541
976.827
1031.55
860.622
909.156
781.638
808.042
848.869
715.745
756.675
678.06
936.637
829.508
843.862
828.087
823.399
756.004
910.308
691.813
607.817
726.573
737.613
830.02
805.225
790.283
747.606
626.175
691.667
674.721
688.002
657.939
761.122
908.919
1066.76
790.264
839.42
645.469
674.587
848.591
624.13
598.653
585.264
896.018
614.382
605.159
563.344
614.135
535.952
524.355
496.483
853.241
710.917
587.499
658.777
810.601
610.476
557.331
721.531
639.849
712.394
579.838
613.583
638.57
615.075
590.604
584.937
411.873
513.619
447.864
621.279
594.711
599.415
604.378
547.558
863.364
735.675
598.522
689.622
634.755
668.027
642.469
564.35
546.793
513.432
550.05
611.398
559.318
601.74
661.316
609.911
531.617
988.306
917.297
951.104
1075.55
804.431
844.456
785.035
824.537
816.171
771.002
780.924
783.313
812.832
829.689
693.948
707.219
687.959
755.733
732.661
747.349
734.792
725.908
740.059
792.354
764.08
772.955
844.768
950.236
784.599
805.945
829.101
940.524
938.349
554.625
580.524
752.103
622.488
704.255
590.581
672.441
670.641
709.768
732.873
798.527
707.108
730.449
837.024
783.942
739.212
806.182
858.791
904.49
619.188
556.417
611.426
633.01
555.075
562.871
563.584
755.259
675.358
600.132
635.876
625.566
650.201
634.247
482.8
534.435
483.311
606.458
639.494
687.04
711.686
654.219
708.923
583.252
589.5
579.184
782.724
939.571
768.489
776.195
942.222
930.49
1120.65
935.409
828.828
885.551
824.121
980.154
810.509
813.279
732.89
786.208
783.294
1087.93
789.312
769.203
856.747
794.795
1340.37
894.872
943.104
1080.01
996.272
1179.23
728.852
780.996
866.478
878.514
901.531
837.492
833.201
946.004
884.395
1092.25
774.089
718.588
781.429
799.456
768
1085
883.849
909.915
802.203
836.62
1028.23
827.924
900.849
916.94
488.912
478.997
500.707
487.68
469.124
459.259
490.945
509.816
513.583
657.328
679.995
685.709
641.211
656.043
643.094
566.422
616.555
587.677
655.398
587.45
661.009
541.662
561.578
518.854
623.338
600.125
615.805
560.07
618.714
576.334
568.414
560.895
532.332
560.617
582.101
577.243
579.199
657.407
547.465
501.453
484.579
538.485
531.519
516.759
572.118
517.521
498.457
582.185
648.256
584.175
512.272
569.328
542.509
539.097
567.819
598.318
548.5
533.146
598.75
582.19
546.808
531.137
561.081
515.093
554.814
530.514
533.74
547.801
579.724
584.186
686.94
690.005
712.555
622.22
643.452
655.666
659.11
657.747
601.468
579.226
554.649
575.079
556.856
498.867
590.884
588.14
565.598
583.646
630.267
757.801
701.289
747.729
745.655
751.993
697.139
663.925
718.625
724.228
756.141
737.122
739.144
715.022
746.595
721.63
726.597
623.848
700.032
681.07
483.83
551.352
497.661
475.803
508.409
724.312
728.652
695.325
711.145
743.634
694.898
684.319
683.02
690.643
557.377
644.68
750.015
684.1
691.83
616.427
683.249
578.056
631.387
655.957
671.697
719.724
719.769
684.926
733.616
712.478
685.981
675.212
827.48
771.346
803.204
796.122
775.505
692.877
740.745
727.115
495.473
435.247
455.24
527.945
610.551
713.762
758.848
787.817
699.289
533.901
615.42
674.8
570.099
615.948
748.981
540.311
697.121
643.6
783.046
713.505
755.33
812.909
857.464
514.369
768.499
632.125
608.396
629.481
736.086
763.121
768.699
677.51
694.56
777.151
829.476
868.741
787.25
799.78
796.771
820.175
873.347
785.161
888.493
793.678
764.36
778.72
1122.9
1101.51
1189.58
1082.45
1410.85
809.812
899.375
864.364
696.501
698.192
703.613
734.852
765.783
753.707
781.707
768.279
736.029
717.321
1012.3
799.604
831.044
1051.98
839.446
755.891
777.633
781.119
