# vtk DataFile Version 4.2
vtk output
ASCII
DATASET POLYDATA
POINTS 642 double
-2291.87 5667.85 -656.173
58.6024 5594.77 -601.733
-2305.02 669.322 -30.4581
1309.23 691.441 82.6178
-676.436 1409.68 2113.96
-1484.04 4432.8 1477.58
-495.997 1825.56 -1735.01
-1436.7 5161.16 -2324.64
1391.54 3047.69 -873.527
1617.65 2957.9 1125.12
-2727.22 4156.68 -1192.79
-3236.57 3558.76 1558.04
-3119.34 4855.12 917.835
-2318.83 4208.75 1974.82
-1854.39 5167.96 1138.29
-86.1686 5226.59 271.497
-690.644 6119.44 -316.044
-96.6031 5718.87 -1179.69
-1966.82 5984.08 -1808.21
-2080.52 4952.68 -2382.4
-2960.44 5258.74 -1372.58
-3385 3501.04 244.153
683.854 3662.67 1573.15
1192.37 4018.87 684.761
-1929.77 2186.46 1770.84
-458.933 2975.49 2129.54
-2634.08 1647.76 -551.7
-2748 1702.71 898.759
-1022.01 3982.32 -1591.41
-1701.97 2673.18 -1417.75
911.528 4455.23 -458.598
235.016 4611.65 -1131.16
2094.34 1595 839.707
780.807 2284.25 1956.06
496.514 768.628 1481.57
-1727.3 719.975 1550.87
-531.932 607.228 -58.9641
-1413.55 903.36 -1293.31
396.867 920.385 -1209.91
636.005 2245.89 -1482.76
1931.59 1709.8 -529.076
1926.27 2583.15 146.472
-2761.62 5172.27 473.756
-2512.79 5127.8 1116.85
-1908.58 5288.3 638.937
-2830.13 3930.89 1887.45
-2792.26 4585.08 1625.7
-3253.89 4220.51 1316.38
-1735.3 4900.22 1381.59
-2158.82 4779.97 1621.12
-2008.06 4361.68 1829.07
-919.834 5896.11 69.8125
-1139.54 6034.22 -394.256
-449.836 4533.45 1034.05
-1102.93 5581.24 548.826
-283.236 5940.34 -468.62
-553.926 5867.23 -24.8341
-245.573 5616.48 -127.361
-1332.71 5992.43 -1056.12
-2140.09 5969.98 -1491.05
70.8094 5736.14 -850.206
-336.538 6065.32 -839.586
-1730.41 5596.48 -2145.66
-962.41 5838.66 -1538.96
-579.615 5470.13 -1604.47
-2585.13 5852.42 -1666.71
-2699.27 5619.54 -1072.64
-1839.84 5117.05 -2486.67
-2115.72 5561.38 -2301.14
-2880.6 4954.84 -1464.97
-2737.09 5233.67 -1943.05
-2472.21 4552.33 -1992.75
-3048.88 4976.33 -53.615
-3140.35 3533.57 -424.128
-3063.29 4425.14 -450.844
-3363.4 4299.35 570.408
-3364.03 3550.15 919.573
682.433 4375.95 786.075
560.151 4638 125.464
151.576 3906.88 1559.68
445.546 4218.05 1234.39
1455.88 3590.95 926.425
1033.56 3914.2 1157.33
1163.91 3394.24 1446.81
-2080.82 3749.17 2076.25
-896.29 3563.05 1954.56
-2793.02 3266.38 1788.5
-2275.03 3588.4 2134.38
-373.154 2363.25 2243.25
-1366.34 3131.98 2119.42
-1278.12 1448.79 1969.55
-3339.23 2645.46 465.308
-3078.7 2825.08 1168.17
-2831.22 2622.02 -836.534
-3176.22 2624.64 -214.45
-2619.58 1020.25 522.494
-2827.02 1618.08 28.5575
-2645.2 1027.48 -409.863
-2036.36 4269.6 -2102.21
-2018.41 3432.04 -1512.98
-1492.92 5146.87 -2240.31
-1941.01 4742.15 -2410.56
-1020.67 1930.72 -1660.61
-1593.42 3317.39 -1767.62
-506.251 2381.09 -1743.95
10.7522 5237.7 -1357.17
-592.371 5256.2 -1741.24
423.835 5296.93 -802.423
300.306 5350.37 -952.206
961.958 3351.29 -1091.08
204.479 4477.95 -900.112
1329.93 3526.58 -651.065
1858.35 1060.92 510.755
1491.2 1120.08 1135.84
1011.35 673.652 780.789
1305.44 2606.99 1551.04
1616.75 1779.4 1312.2
2048.74 2146.23 939.487
-157.819 1118.23 1922.79
703.44 1415.31 1786.56
194.669 1878.29 2130.71
154.862 611.547 991.752
625.06 613.911 27.8004
-1009.56 1060.33 2070.45
-621.046 675.41 1715.62
-1677.48 600.499 97.2343
-1300.9 614.638 970.109
-2036.34 622.013 972.95
89.7917 617.584 -807.862
847.626 788.617 -624.447
-1990.84 751.653 -605.408
-1145.57 608.428 -861.993
-73.0451 1308.1 -1472.96
-617.725 864.276 -1311.97
-1091.81 1198.79 -1469.09
1210.72 1287.17 -838.075
1764.49 1132.2 -296.843
55.8728 2045.06 -1689.93
605.161 1565.64 -1444.45
1803.26 2048.97 -570.217
1262.76 1936.37 -1054.36
1057.94 2670.98 -1235.36
2174.15 1566.67 110.061
1768.81 2864.24 -372.261
2155.09 2092.89 -151.177
2272.08 2124.23 426.537
1896.07 2658.91 614.202
149.544 2629.99 2162.2
757.002 2988.54 1880.79
152.001 3224.81 1996.08
-2394.65 980.663 1381.1
-1932.68 1251.09 1884.91
-2355.94 1712.97 1459.37
-1499.78 1297.26 -1394.13
-2226.37 1133.06 -827.701
-2310.37 2086.8 -1034.82
589.905 2965.55 -1414.37
-21.2923 2734.75 -1745.03
-609.018 3823.44 -1839.18
1607.78 3559.06 414.185
1569.14 3540.19 -203.388
1197.09 4036.29 38.7365
-2510.99 5306.26 -73.1449
-2455.45 5254.12 613.348
-2005.99 5453.58 90.4449
-2836.47 5032.42 1036.06
-2660.89 5172.06 845.702
-2968.54 5044.07 730.564
-1934.08 5259.87 934.206
-2328.36 5231.7 936.072
-2176.04 5168.18 1142.8
-3071.33 3731.12 1745.05
-3089.99 4052.83 1655.82
-3281.01 3847.36 1481.28
-2566.77 4398.51 1859.93
-2823.67 4267.52 1802.31
-2571.01 4106.71 1979.67
-3210.31 4584.42 1112.44
-3048.35 4434.86 1488.01
-2989.72 4742.07 1291.47
-1710.89 4730.6 1480.95
-1878.08 4663.33 1616.8
-1844.55 4481.26 1677.74
-2007.89 5010.25 1386.34
-1935.16 4856.05 1512.61
-1792.47 5048.83 1269.66
-2142.36 4281.7 1925.51
-2076.11 4578.83 1746.46
-2257.14 4515.06 1830.46
-2675.78 4910.04 1384.69
-2461.79 4716.89 1664.1
-2334.54 4980.38 1413.69
-1385.68 5773.91 -10.401
-1704.68 5763.29 -625.308
-1368.96 5392.68 563.71
-1373.34 5633.42 252.465
-854.881 6124.23 -281.511
-957.588 6012.64 -94.3372
-816.747 6057.4 -131.119
-1064.46 4321.13 1171.41
-1482.63 4875.83 1216.78
-676.563 5474.63 287.004
-1084.29 4981.18 705.099
-225.659 4747.27 694.726
-1580.28 5058.86 1099.91
-1459.67 5210.43 943.859
-103.182 5791.1 -547.99
-248.245 5791.08 -266.577
-84.2308 5620.28 -358.454
-623.676 6016.04 -156.717
-438.381 5924.69 -191.582
-511.529 6064.96 -400.738
-320.926 5466.11 64.7008
-385.19 5759.08 -66.7417
-501.598 5702.17 65.9592
-914.149 5679.78 281.457
-712.111 5746.43 157.314
-747.823 5919.77 31.0637
-1707.27 5919.83 -1190.13
-2226.27 5829.81 -1172.91
-768.09 6130.72 -547.73
-1262.01 6018.89 -728.88
-2074.03 6007.13 -1617.69
-1880.88 5932.15 -1424.05
-1874.77 5950.75 -1565.07
75.3429 5690.78 -806.313
-85.4837 5862.64 -727.932
-202.479 5939.5 -1010.33
-126.147 5928.42 -847.474
16.0092 5765.74 -981.509
-306.801 6026.1 -684.933
-483.322 6107.51 -624.232
-1599.48 5301.16 -2289.27
-1319.02 5531.36 -1936.96
-1114.41 5167.92 -2021.13
-1658.25 5873.42 -1771.16
-1478.3 5747.89 -1859.28
-1853.7 5828.69 -1993.55
-238.006 5622.88 -1357.32
-781.071 5717.25 -1600.89
-393.124 5845.51 -1279.9
-595.757 6126.12 -865.768
-482.924 6033.99 -1096.51
-1120.9 5943.05 -1331.15
-2433.15 5852.43 -1311.75
-2488.04 5683.71 -870.747
-2228.19 6016.02 -1768.19
-2346.26 5977.79 -1551.15
-2866.66 5461.27 -1241.73
-2664.04 5763.82 -1426.41
-2842.55 5569.86 -1527.7
-1699.37 5144.02 -2439.92
-1784.87 5295.26 -2415.8
-2122.12 5233.66 -2402.45
-1899.69 5284.71 -2493.17
-1905.38 5097.23 -2527.15
-1907.34 5611.46 -2257.33
-2036.21 5850.1 -2089.66
-2727.6 4505.43 -1483.36
-2719.84 4763.07 -1732.99
-2568.99 4437.94 -1768.83
-2928.91 5260.89 -1666.73
-2862.74 5136.19 -1699.75
-2953.74 5128.31 -1442.73
-2319.28 4760.52 -2200.8
-2621.09 5006.38 -1970.22
-2442.11 5129.37 -2172.89
-2398.89 5770.29 -2044.76
-2491.83 5407.42 -2187.99
-2748.31 5523.8 -1882.71
-2695.65 5333.34 -396.072
-2953.83 5166.36 -840.514
-2866.84 5257.41 -633.52
-2948.23 5081.44 199.19
-3158.48 4899.24 531.388
-2779.34 3669.03 -880.736
-2863.27 4358.47 -937.171
-3337.69 3920.41 19.3388
-3143.95 3996.39 -434.072
-3302.3 3480.42 -127.788
-2941.12 4806.65 -1042.69
-2969.55 4973.99 -1053.91
-3352.92 3877.86 1196.53
-3343.37 3555.22 1315.92
-3315.73 4620.95 781.528
-3348.57 4301.39 970.51
-3457.29 3539.22 504.815
-3424.31 3907.45 720.953
-3448.02 3912.31 401.722
-3103.87 4759.99 -244.356
-3353.84 4317.9 199.943
-3317.18 4659.29 356.503
180.982 5145.59 -246.537
168.74 5310.67 -445.476
190.194 4655.17 742.751
-85.7721 4824.6 382.073
1002.26 4214.31 550.902
720.217 4441.74 503.887
945.354 4223.34 741.991
-302.675 4028.54 1499.83
2.63864 4191.55 1356.23
576.339 3982.86 1395.42
333.623 4096.89 1386.93
436.495 3777.16 1571.9
185.257 4321.61 1198.72
275.441 4458.47 989.16
1539.1 3344.77 1043.78
1344.85 3508.57 1196.7
1371.15 3254.41 1331.93
1137.63 3973.68 924.197
1254.8 3763.46 1056.52
1345.79 3808.15 804.782
927.991 3532.39 1527
1114.36 3674.64 1302.56
888.024 3817 1368.69
577.682 4313.49 1024.06
743.863 4089.13 1212.11
870.642 4165.06 987.37
-1828.03 4012.55 1898
-1172.7 4072.85 1417.31
-2118.55 3947.37 2042.17
-2000.5 4014.88 1970.15
-560.786 3362.38 1985.58
-1596.7 3896.18 1933.34
-1360.41 3518.91 1728.81
-3046.69 3425.25 1710.61
-2860.73 3580.66 1865.51
-2230.17 3298.16 2031.47
-2549.97 3457.29 1984.08
-2361.49 2937.63 1765.95
-2575.89 3749.45 2018.2
-2310.47 3853.63 2089.92
-538.417 1796.84 2125.13
-761.549 1806.48 2092.13
-873.078 1406.32 2115.67
-976.702 2873.35 2119.21
-697.903 2535.59 2156.76
-374.718 2635.81 2178.47
-1697.43 1578.92 1808.34
-1217.88 2087.88 1978.65
-1750.26 2710.83 1905.96
-2101.25 3642.43 2141.6
-1956.3 3518.6 2137.34
-1892.73 3477.65 2142.31
-3288.78 3242.35 1141.28
-3223.74 3311 1430.77
-3373.05 3058.83 345.877
-3321.73 3134.8 667.059
-2986.55 2225.81 1006.57
-3243.18 2696.6 809.388
-3146.05 2299.65 647.711
-2754.59 3057.82 -929.012
-2963.47 2983.73 -664.056
-2981.36 2229.79 -461.757
-3009.84 2587.58 -567.382
-2828.91 2266.77 -714.672
-3156.17 3023.15 -300.149
-3298.82 3023.41 6.70959
-2491.26 804.648 241.415
-2658.25 1003.63 -37.605
-2499.44 810.668 -248.971
-2866.77 1681.25 446.873
-2738.37 1222.54 219.889
-2606.65 1248.98 760.699
-2624.95 1198.14 -477.929
-2720.64 1185.44 -228.951
-2705.69 1562.27 -299.197
-3323.4 2628.4 154.488
-3101.05 2223.43 -86.379
-3191.19 2271.88 287.65
-2312.68 4281.68 -1943.84
-2421.51 3863.69 -1166.55
-2076.23 4549.2 -2260.72
-2228.71 4377.99 -2090.55
-1930.4 3174.49 -1485.77
-2115.94 4085.08 -1936.34
-1976.75 3846.56 -1820.55
-1448.07 5154.7 -2324.33
-1732.69 5135.9 -2456.18
-1801.91 4608.71 -2200.53
-1794.87 4961.86 -2318.45
-1494.63 4736.06 -2104.77
-1902.01 5099.06 -2532.48
-1928.49 4868.73 -2450.35
-763.175 1883.7 -1710.53
-756.517 2218.89 -1748.88
-486.194 2066.5 -1743.69
-1442.57 3147.45 -1803.36
-1009.62 2507.5 -1721.87
-1258.01 2093.02 -1553.06
-548.971 2902.55 -1754.96
-893.997 2704.85 -1755.8
-1618.44 3539.13 -1837.63
-1903.02 4450.43 -2283.59
-1873.81 4310.17 -2246.87
-1809.22 4080.78 -2132.13
-536.268 5240.18 -1714.21
[...]
POINT_DATA 642
SCALARS Mean_Curvature double 1
LOOKUP_TABLE default
0.000597931
0.000659211
0.00185571
0.00185892
0.000707003
0.0031752
0.00184597
-0.0192244
0.00119988
0.000960188
-0.00240798
0.00270995
0.00160249
0.00133378
0.00142518
0.00573213
0.00354565
0.00155028
0.003267
0.000414433
0.002216
-2.54436e-05
0.000811978
0.00126852
0.000335559
0.000327943
0.000458524
0.000164505
-0.00266141
-0.0005135
-0.00950219
0.00352923
0.00198377
0.000839292
0.00178208
0.00183943
1.75765e-05
0.00206299
0.00230971
0.000345798
0.00236621
-0.000959553
0.0010294
0.00131405
-0.00135397
0.00123555
0.00142928
0.00115356
0.00148272
0.00132972
0.000804072
0.00171897
0.00112461
0.000714654
0.00632468
0.00142227
0.00180342
0.000498919
0.000493478
0.00133449
0.00664081
0.00308711
0.000227956
0.00147396
-0.000135146
0.00259865
0.00128532
-0.0120586
0.00217542
0.00018018
0.00232311
0.00164452
0.00130326
0.00051874
-0.000773712
-1.04859e-06
-6.74308e-05
0.000306298
-0.000995577
0.000756266
0.00122171
0.00100074
0.00122952
0.000928195
-0.00218595
0.00115778
0.00109487
0.00295181
0.00154477
-0.00106497
-0.00079047
0.00172241
-0.000222632
0.00136819
0.000678592
0.00182924
0.000211363
0.0038547
-0.00052485
-0.000455685
-0.00413573
-0.0159489
0.00142626
-0.0156415
-0.000146846
0.00529882
-0.0138395
0.00585275
0.00170458
0.000670739
-0.00439751
0.000823004
0.00146679
0.00134405
0.00106589
0.000505401
0.000561072
0.00271448
9.14336e-05
0.000707433
0.000722512
0.000196358
0.000184944
0.00256532
0.00222831
-0.000294048
-8.26721e-05
0.00150146
0.00155274
0.000667842
0.000459137
0.00137758
0.000249275
0.00194026
0.000486524
0.000150205
0.00163675
0.000962404
0.00203355
0.000225265
0.000651807
0.000828085
0.00108656
0.00128624
0.00288502
0.00443619
-0.00028625
0.00053059
0.000724781
0.00118932
0.00221264
0.00402995
-0.000387569
0.00203202
0.00249061
0.000642018
0.000206406
0.00188693
0.00217678
0.000980185
0.00114949
0.000752568
-0.000591897
0.000464116
-0.000139937
0.00150469
0.00132181
0.00153405
0.00242672
0.0012584
0.0011643
0.00182964
0.0012748
0.00206988
0.00163627
0.00153556
0.00181293
0.0013143
0.0010745
0.00132357
0.00044232
0.00164387
-8.51628e-05
0.00167727
0.00171202
0.00266765
0.00207664
0.0014182
0.00186034
0.00152283
0.00140249
0.00123034
0.000574569
-0.000606535
-0.00176589
0.0012816
0.00302829
0.00183927
0.00329263
-0.00290954
0.00115713
-0.000428983
-0.00161898
-0.000676414
-0.000680994
0.00390382
0.000935995
0.00174365
0.000494832
0.00212678
0.00191745
0.001342
-0.00437634
0.00185912
0.00252751
-0.00481818
0.00315667
0.00266369
-0.00132527
-0.000176764
0.000924096
0.00186363
0.00304092
0.00175931
0.000992348
-0.000405113
0.0017495
0.00220187
0.00330965
0.00260697
0.00139301
0.00259402
-0.00013155
0.000114702
-0.00505265
0.00119844
0.00115504
0.000972455
0.000955743
0.00192977
0.00123589
0.0016612
0.00202764
0.000540506
0.00131808
0.00131528
0.00338869
0.00333841
0.00121393
0.00193335
0.00238285
0.00134323
0.000984642
0.00169622
0.0059792
0.000582868
0.00263604
0.00322612
0.00203458
0.000955418
0.00107263
0.00397283
0.000794324
0.0028098
0.00120824
0.000368331
0.00053613
0.00213444
0.00248781
0.00236267
0.000705445
0.00169499
0.00101832
0.00094484
0.001377
-0.000387404
-0.000805626
0.000454817
0.00123025
0.00104194
0.000813404
0.00131959
0.000776802
0.00206966
0.00200408
0.00104552
0.00196123
0.000677687
0.00148927
0.000674763
0.000864771
0.00181416
-3.15943e-05
0.00175642
0.000807877
-0.00320435
0.00083028
0.0013393
0.00127847
0.001509
0.000419557
0.000989644
0.00102919
0.000252541
0.000695575
0.00288305
0.00104361
0.0011942
0.00109771
0.00101112
0.00113337
0.00112363
0.000680821
0.00101004
0.0011337
0.00103561
0.00127504
0.00114351
-0.00165197
-0.00242797
0.00269374
0.000719432
0.00165924
0.00703233
-0.00331364
0.0019837
0.00126472
0.00132502
0.000911362
-0.00101415
0.00117882
0.00190163
1.55788e-05
-4.41138e-05
0.00119642
0.00179376
0.000538247
-8.19487e-05
-0.00115457
-0.000138549
-0.000500246
0.00741702
-0.00243732
0.00768779
0.000971098
0.00184007
0.0011103
-0.000438212
0.000888927
0.00100666
0.00058994
0.00160334
0.000451022
0.00113873
0.000945527
0.00109377
3.09511e-07
0.000551609
0.00146818
0.0014478
0.00204483
0.000388425
0.000793083
-0.000793692
0.00153269
0.00183444
-0.000481557
0.00167226
0.000615581
0.000976934
0.000885241
-0.00187088
0.00128189
0.0017456
0.00055203
0.00346759
-0.00129077
-0.0516259
0.0112055
-0.00122403
-0.0022808
0.00157709
0.0168986
-0.0110236
0.000799047
0.00104977
0.000247842
0.00534993
-2.65234e-05
0.000465803
0.000252055
0.000625388
0.000376062
-0.0101241
0.0205063
-0.00295427
-0.0153212
0.0540344
0.00182557
0.000816102
-0.00244832
0.0302718
-0.00552952
-0.00211505
-0.00209058
-0.00964469
0.002959
-0.0634461
0.00841708
0.00157501
0.00106955
0.0007819
0.00108547
0.00383457
0.000940786
-0.00138719
0.000116508
0.000320232
-0.000588414
0.00353157
0.000593261
-0.000340646
0.000776085
0.0011674
0.00173146
0.00162267
0.00129088
0.00196356
0.00185564
0.000568628
0.0011091
0.000583248
0.00024776
-8.17933e-05
0.000117655
-2.72357e-05
0.000842327
0.00120443
0.0010814
0.00156343
0.000116597
0.00175418
0.000366559
0.00117473
0.000561762
0.00123615
0.00116534
0.000796363
0.000334258
0.0016631
0.000558498
7.87747e-05
0.000468227
0.00117459
0.00159121
0.000704413
-1.05364e-05
7.03729e-05
2.68054e-05
0.00297528
0.00274494
0.00211206
0.00176007
-0.000435214
0.000989341
0.0011833
0.000543421
0.00204038
0.000796182
-8.29637e-05
0.000944335
-9.85141e-05
0.00221408
-0.000377695
0.00059303
0.00102066
0.000901439
-0.000205711
0.000913739
0.00123521
0.000101216
0.000400224
0.00177383
0.00216447
0.00186757
0.00269888
0.00104904
0.00218068
0.00165506
0.00129537
0.000203354
-3.08501e-05
0.000982599
0.000536867
0.000828721
0.000929517
0.00028463
0.000758792
0.00313674
0.0011513
0.00148598
0.00162023
0.00124319
0.00069623
0.000893719
0.00128855
0.000967177
0.000474243
0.00163049
0.00110515
0.00103686
0.00135357
0.000618112
0.000942269
-0.000283204
0.00041845
0.000317585
0.000992635
0.000586854
0.000256981
0.000798537
0.00103118
-0.000550848
0.00227069
0.00106087
0.000379269
0.000695046
0.00111068
0.00136916
0.000555991
0.00121025
0.00174227
0.00162768
0.0015774
0.00120282
0.00098918
-0.000394683
0.00130071
0.00101483
0.000683261
0.000635988
0.00330874
0.00162351
0.00111466
0.00162165
0.00334893
0.000117829
0.000817697
0.000698982
0.00156162
0.0035422
0.00290551
0.000933373
0.000932719
0.000176789
0.00235459
0.000242713
0.00100863
0.000740056
0.000761725
0.000804428
0.000975653
-0.000474857
0.00125795
0.000162834
0.000121082
0.000542184
0.00181695
0.000663492
0.00161618
0.000714586
0.0023406
0.00181985
0.0021291
0.00164548
0.00267267
0.00150894
0.00226736
0.00152841
0.00218376
0.000440371
0.000347653
0.00105713
0.000645454
0.000100229
0.00306147
0.00164789
0.00195685
-0.000197324
0.00272738
0.00330638
-1.36704e-05
-0.000922031
0.00207304
0.000897841
0.00362441
0.00103806
0.00184022
0.000539495
0.00011667
0.000467727
0.001312
0.00065954
0.00197844
-0.00166126
-0.000561076
0.000915001
0.000469314
0.000773337
0.000992051
0.000554515
0.000577874
1.65168e-05
0.000267145
0.00110706
0.000297829
-6.34406e-05
-0.00158561
-0.001231
-0.00122708
0.00390518
0.00119749
0.00118392
-2.75693e-05
0.00122502
0.00111477
0.000724034
0.00115147
0.000800938
0.00095258
0.00243597
0.000877519
0.00111036
0.00110785
-0.000890232
0.00030882
-9.02522e-05
-0.00446918
-0.00331596
0.00131324
0.00103471
0.00043841
SCALARS CoVolArea double 1
LOOKUP_TABLE default
248194
63212.5
103489
101319
70493.2
186194
74282.6
28706.6
88367.6
123267
170818
65070.6
110162
79266.6
102709
207723
45175.1
73413
65473.6
91756.1
89805.7
150147
101862
74633.9
285963
219667
155555
236703
550925
400676
116813
251039
115763
162796
140818
139126
392632
97122.7
91703
115600
78922.9
159726
161163
100297
226334
104283
122167
126872
54687.2
79427.6
61655.8
92818.3
190590
376017
165266
61913.8
40990.9
152614
196979
74740.3
24947
53604.8
102132
157540
183736
115489
145073
11788.8
112364
138329
85305
105721
170298
261971
242964
141769
155556
142299
170495
138292
75012.7
76861.9
77876.3
87010.2
112121
273416
164087
75553.2
134785
272594
174304
143369
208173
111886
155837
143843
218008
67881.9
74022.5
336470
82986.8
44305.7
136858
99734
130407
27184
80601.8
70259
43234.1
108728
254000
87787
132193
166987
152750
174194
136128
75968.3
172130
185468
136177
222315
196078
121860
139550
182639
251145
135631
135570
157199
127495
143494
153684
133496
80102.1
182501
116564
114353
94010.4
114321
129911
128760
128912
134927
47498.2
39567.2
134631
105826
98583.1
87519.8
104761
61984.6
203304
71710.3
105455
226881
129204
90722.2
448423
98063.7
76501.3
176427
256464
210326
398643
111613
97640.4
109296
140968
106503
91264.1
90331.2
120357
99243.8
100015
110890
95369.6
116818
126911
126283
113040
49228.8
140788
76401.6
55453.5
55075.4
54688.7
55935.8
78547.3
129895
114512
111065
281200
377688
173347
168550
69359.5
92323.7
35336.6
323229
254207
305936
403958
382874
121471
90034.5
57439.2
55982.2
88878.7
43351.4
51760.8
52757.2
101410
45549.6
83185.5
86684
67421.5
46255.7
177019
186855
129422
116613
41721.7
68202.8
119104
37113.3
41916
66606
40382.9
49276.2
47986.4
56622.3
104018
196577
143149
129846
125456
75233
106974
153362
114095
155037
129952
218653
94192.5
155945
92533.4
63868.9
115304
89261.3
100693
20263.8
50209.1
95754.6
52402.8
29444.3
70383.3
92388.5
180487
118474
165068
73300.1
73212.3
57583.6
118036
113906
110423
150548
130892
132868
194492
157326
162082
161268
132894
271452
294193
206800
228580
175965
157504
147847
139216
97447.2
124244
143517
139688
155229
139189
237544
208952
169352
275420
114648
133273
324133
110026
228085
78233
282507
201703
83729.2
81874.2
100806
147236
144147
107604
80539.2
110354
75043.9
72793.4
67055.2
89443.4
79540.6
86824.3
97151.6
84607
83738
208751
403117
49686.6
60448.6
171662
139875
358175
89300.8
94093.8
226552
127325
284373
97552.6
78268.4
136775
224152
83975.9
233379
259280
107336
245077
447018
401172
32953.9
140382
141764
159209
110717
142948
173923
225984
190571
212074
210896
203590
182822
137146
145035
167596
155568
147931
111195
97415.1
257698
166136
178110
73548.8
106670
178148
147454
213572
205411
206715
400188
80276.9
72364
213129
88988.9
232570
11802.8
26641.2
280428
89835.1
234861
22031
35162
107356
108629
72290.9
326037
170381
289103
361035
202151
428190
41862.2
62911.8
120142
75607.2
18577
63818.8
81017
279787
20392.5
38893.5
71048.3
12757.7
94724.8
12315.4
12209.1
29980.2
62878
75224.7
100598
76744.7
112395
181963
128209
155551
208908
283481
46759.9
148619
74529.3
135322
149923
127149
124920
136734
114733
138907
160954
171779
157094
141854
124287
194338
168155
161031
83788.2
105301
104039
114682
153106
145752
166278
163186
150998
134278
144346
192322
156281
201267
207171
152963
125055
152393
153827
300386
242897
384767
61328.7
107913
151232
127457
174928
135095
154527
137707
145157
163008
369793
191702
295907
110919
147600
167893
197099
206928
314625
155404
136378
239560
177714
112934
121607
108300
97566.7
147118
109998
133724
129120
205875
265955
129351
133834
118422
125327
129271
102974
57500.3
97943.3
98117.5
172499
143051
161566
144520
126797
143563
161477
98488.3
133701
132481
86059
144701
91551.6
114174
110106
115603
99699.4
162024
169453
121185
102589
109880
47887
113805
148724
115554
165712
130117
178123
133467
108441
118411
123600
127443
127977
146289
86408.7
103147
134829
61731.8
59299.8
90138
136408
95887.8
52168.3
132162
67565.6
70218.5
96117.1
46009.5
99120.4
146275
124689
119863
83724
101351
125006
109785
96347.5
119165
115598
295848
107465
132919
129597
110570
106920
101611
97548.6
156860
113271
117093
122673
145307
78229.8
113744
66259.3
117675
131013
189333
203942
251905
278288
253455
98607.3
107319
127338
97427.6
66046.4
43472.8
99201.2
247940
93075.3
118424
68477.1
117896
117676
251830
314783
227499
138284
194847
117054
203915
210500
83921.9
117824
91405.4
103829
337007
89091
193504
111733
102214
124364
107573
765117
515526
215668
212149
118921
109841
378360
120089
155526
133872
82036.9
83621
90566.2
93964
74593.7
100054
136459
244185
117059
265270
220402
90716.8
102189
108644
106374
SCALARS SignedDistance double 1
LOOKUP_TABLE default
431.997
516.453
295.313
294.834
463.766
616.998
471.025
743.919
451.157
407.631
576.256
301.807
314.234
427.824
475.469
816.075
400.253
392.45
467.134
424.666
378.077
384.264
469.02
477.188
472.102
448.529
500.67
410.343
1056.41
558.245
745.396
914.874
318.988
384.089
300.355
300.203
360.521
352.794
368.191
471.653
405.432
493.277
391.271
378.347
490.493
345.657
327.14
311.157
493.599
448.426
498.57
453.79
393.006
647.437
695.674
450.393
478.566
561.045
706.626
481.181
483.385
401.272
438.105
758.878
627.641
299.954
326.315
574.47
323.982
407.819
368.357
408.25
419.335
426.266
454.948
365.878
363.818
487.409
669.68
477.497
465.38
441.283
444.241
432.008
479.491
756.653
373.4
472.283
446.734
828.633
525.308
342.02
390.756
405.019
382.131
386.462
438.094
401.693
639.376
827.551
660.45
567.718
433.363
988.642
480.889
552.817
786.269
704.941
561.043
502.877
817.309
473.407
276.572
296.858
301.555
397.961
402.229
389.05
362.743
342.454
411.618
358.794
353.544
378.148
301.691
366.179
352.797
344.166
349.417
338.322
339.011
358.914
410.424
365.586
479.015
395.139
307.68
439.288
452.485
454.449
436.189
459.523
336.854
429.749
410.796
423.044
483.407
443.77
432.67
463.915
311.609
457.176
503.025
490.324
505.982
447.183
516.72
481.424
1152.88
457.322
458.398
492.283
426.822
462.669
418.662
353.192
387.469
350.751
473.03
439.393
413.663
320.146
308.703
296.538
393.637
328.574
395.658
309.329
312.073
313.073
510.684
498.589
523.978
437.139
464.54
480.143
479.926
480.956
444.618
356.724
399.506
404.996
418.366
590.351
552.325
450.307
388.042
408.898
413.931
653.592
565.329
592.785
645.187
780.473
538.355
672.916
484.254
503.728
536.01
432.786
461.322
408.669
606.95
516.078
539.02
547.792
516.34
462.898
756.122
457.281
374.159
505.46
490.501
586.295
556.775
483.441
458.839
374.642
435.146
419.509
416.742
406.07
554.479
740.634
940.222
596.972
669.096
419.204
409.589
698.1
373.832
369.253
344.255
730.93
401.727
381.75
404.667
415.82
324.332
316.658
300.835
625.222
496.44
388.932
491.828
577.027
381.202
361.15
450.153
407.961
438.451
370.048
371.264
398.634
378.304
362.875
353.638
239.078
326.389
278.18
378.488
376.089
367.403
380.38
328.937
625.404
476.574
365.947
437.17
394.611
409.341
397.79
356.093
346.023
318.823
351.297
392.678
349.341
379.691
432.21
384.945
318.914
706.975
605.356
687.276
817.905
490.967
528.5
474.86
498.032
495.508
466.987
469.644
484.933
496.455
520.55
419.946
423.318
412.563
458.718
442.489
451.952
447.096
436.224
441.785
481.468
458.895
468.213
537.737
620.966
489.352
498.772
567.907
701.125
612.263
329.709
366.624
514.607
383.818
474.045
364.219
431.783
410.02
449.953
471.495
529.41
439.168
453.919
558.6
538.719
498.283
530.965
627.6
679.266
400.565
334.898
392.647
417.555
336.963
343.152
346.845
482.693
416.456
360.724
389.907
375.507
401.015
396.216
285.903
349.323
287.754
395.023
431.64
492.355
464.204
429.458
490.389
357.467
367.935
358.548
514.658
668.752
527.238
524.158
687.312
700.662
917.712
741.53
617.419
565.043
503.952
677.467
584.693
555.815
452.135
485.804
480.597
922.633
484.37
471.574
550.518
492.668
1151.35
658.625
754.101
894.537
752.662
935.127
460.28
527.844
636.773
638.098
542.035
528.274
521.266
769.114
667.954
923.911
513.169
443.508
474.09
484.672
461.464
919.492
541.351
569.468
490.731
509.858
765.862
544.829
583.271
566.739
302.708
288.539
318.912
293.673
282.777
272.843
291.055
319.602
315.245
396.662
427.117
429.976
398.635
405.058
390.833
338.521
379.01
366.322
429.374
377.437
410.301
344.121
338.31
311.596
380.171
366.051
377.516
355.856
382.06
360.311
350.84
349.78
338.622
348.374
357.058
357.354
355.304
421.045
356.393
308.486
286.626
350.948
327.971
311.905
355.874
323.178
308.847
357.842
433.125
358.698
332.925
353.924
332.467
335.997
352.913
377.934
330.422
323.545
375.612
358.53
319.247
327.529
337.521
320.58
345.634
318.491
330.525
326.124
356.392
358.362
416.013
431.156
443.839
383.229
399.477
406.018
443.122
430.672
371.222
364.242
329.284
348.399
344.32
302.272
361.087
364.177
345.965
361.746
393.564
475.157
425.892
468.738
464.919
462.15
437.492
407.367
438.303
443.159
462.417
482.499
464.939
442.029
451.247
437.595
439.388
369.409
428.145
423.269
294.693
331.061
300.627
288.238
315.571
440.428
456.66
425.463
438.234
484.851
417.658
422.791
417.937
431.455
353.879
409.656
483.241
412.652
417.68
387.688
421.301
371.961
385.321
396.345
420.23
453.912
448.991
414.8
446.409
435.02
420.214
416.209
525.928
473.017
496.255
497.296
476.032
422.32
451.998
438.788
298.426
251.619
266.735
344.54
416.033
461.572
480.177
510.157
492.591
350.226
396.306
470.616
342.676
388.119
526.432
358.112
450.425
429.86
509.486
459.438
472.425
519.44
572.406
303.897
497.253
451.399
407.086
428.212
462.263
467.065
493.004
412.882
428.557
496.446
560.232
589.573
477.296
496.131
488.928
495.878
542.601
482.885
587.19
486.762
461.514
476.429
871.633
799.913
955.302
794.493
1176.31
494.246
612.486
535.921
423.411
423.348
430.645
448.639
470.764
457.621
473.061
465.019
447.054
438.084
766.279
490.107
511.06
908.892
566.864
462.005
475.811
479.607
