# vtk DataFile Version 4.2
vtk output
ASCII
DATASET POLYDATA
POINTS 642 double
-3223.55 7778.5 -87.4294
2048.98 7644.48 -69.5964
-3262.91 -996.324 -46.6544
2221.63 -1001.81 -42.1368
-533.428 713.339 4319.15
-580.305 5991.33 4097.62
-525.986 803.951 -4250.19
-562.481 6127.47 -4399.72
3650.16 3403.15 -2604.03
3731.34 3394.75 2564.39
-4813.76 3469.86 -2707.04
-4925.74 3435.81 2668.92
-4702.41 6005.28 1546.39
-3086.03 5003.57 4066.21
-2097.16 7464.66 2454.78
938.929 7344.93 2318.98
-528.19 8494.7 -58.1499
1009.95 7501.26 -2550.76
-2157.94 7683.14 -2680.66
-3136.05 5061.37 -4259.43
-4756.04 6056.66 -1677.44
-5647.08 3434.29 -35.5149
1919.55 4913.5 3894.34
3408.81 5835.68 1455.4
-3053.15 1838.96 4017.96
-524.468 3407.85 4880.42
-4650.34 855.093 -1609.47
-4677.23 841.637 1548.01
-576.453 3485.76 -4875.89
-2968.69 1913.73 -3974.79
3343.58 5835.24 -1525.56
1882.55 4957.11 -3947.15
3696.71 815.12 1559.64
1996.35 1853.6 4019.43
1080.71 -769.82 2542.99
-2149.15 -804.608 2565.19
-527.095 -1662.21 -47.9013
-2105.23 -714.394 -2596.17
1053.81 -706.683 -2589.52
1939.29 1882.07 -4011.82
3644.04 847.192 -1622.04
4530.84 3381.45 -36.4821
-4083.32 7011.2 774.504
-3536.22 6933.65 2116.85
-2724.53 7755.91 1261.35
-4146.18 4257.84 3517.16
-4072.79 5608.98 2969.43
-4987.53 4774.13 2195.66
-1355.18 6861.19 3427.26
-2693.55 6400.13 3435.15
-1855.85 5599.73 4271.44
-1335.4 8193.66 1241.88
-1912 8288.87 -71.2358
209.152 6732.55 3289.61
-546.739 7598.44 2504.89
829.502 8261.39 -64.1697
272.04 8169.61 1234.32
1564.6 7671.3 1190.47
-1386.19 8250.09 -1397.67
-2804.77 7954.21 -1425.63
1624.96 7754.05 -1348.97
292.547 8256.68 -1379.35
-1384.37 7052.52 -3707.1
-558.667 7737.69 -2726.71
243.421 6910.3 -3558.52
-3626.8 7064.89 -2293.24
-4135.91 7088.04 -910.343
-1885.95 5695.58 -4535.17
-2765.68 6530.05 -3668.31
-4997.82 4808.08 -2307.5
-4142.48 5670.99 -3137.02
-4129.96 4290.97 -3609.4
-4893.71 6137.83 -52.9421
-5390.99 3440.02 -1414.39
-5375.43 4787.96 -888.713
-5432.48 4788.77 798.249
-5484.24 3436.83 1368.4
2304.15 6719.59 1990.37
2784.07 6797.65 705.308
736.248 5497.4 4108.74
1524.84 6238.44 3262.1
3726.75 4689.24 2086.8
2834.54 5475.13 2811.5
2942.09 4202.69 3371.5
-1869.74 4250.22 4727.42
-559.28 4741.58 4615.33
-4127.57 2624.13 3496.9
-3217.65 3437.29 4269.31
-524.495 2033.29 4761.1
-1838.33 2624.17 4656.74
-1859.85 1188.75 4353.75
-5399.34 2085.86 788.125
-4937.86 2112.24 2169.44
-4860.73 2119.43 -2210.33
-5360.36 2095.76 -862.737
-4122.68 -220.313 791.689
-4879.58 715.27 -47.7225
-4120.3 -216.637 -875.441
-3190.72 3466.91 -4342.88
-3984.09 2672.73 -3460.26
-561.31 4843.65 -4933.57
-1875.42 4301.61 -4910.1
-1808.23 1259.52 -4278.15
-1812.69 2684.15 -4642.79
-523.23 2071.75 -4725.64
1550.21 6347.4 -3433.18
704.12 5570.65 -4280.47
2843.89 6894.92 -850.31
2351.23 6843.06 -2138.68
2867.6 4183.9 -3378.83
2780.99 5502.05 -2887.62
3668.01 4669.59 -2138.29
3111.51 -246.091 793.914
2540.97 -156.208 2154.54
1740.75 -1058.63 1303.29
3006.06 2595.68 3419.5
3029.91 1230.12 2965.82
3917.05 2074.59 2174.7
296.652 -154.373 3564.35
1657.41 400.342 3477.56
794.657 1209.69 4325.73
326.073 -1488.08 1319.75
903.465 -1534 -41.574
-1359.53 -175.109 3588.78
-529.389 -993.186 2692.5
-1951.67 -1543.05 -40.774
-1383.16 -1489.26 1321.71
-2795.32 -1080.32 1320.01
318.423 -1452.64 -1393.25
1714.58 -1008.98 -1372.94
-2776.33 -1031.78 -1380
-1368.79 -1456.31 -1395.93
286.605 -74.1754 -3560.5
-528.672 -907.31 -2720.6
-1343.96 -92.1438 -3583.24
2484.99 -93.5678 -2197.02
3087.04 -221.831 -872.212
761.49 1271.3 -4282.15
1607.92 461.83 -3490.47
3855.59 2087.37 -2219.69
2942.81 1282.95 -2974.49
2919.1 2613.96 -3424.86
3910.09 679.066 -41.4166
4261.68 3385.13 -1381.45
4372.43 2065.01 -874.627
4403.99 2058.31 795.014
4337.51 3384.9 1323.03
785.897 2597.51 4694.22
2090.5 3410.21 4169.62
767.441 4205.61 4618.9
-3595.37 -176.305 2174.22
-2735.76 365.564 3525.07
-4075.96 1209.4 2990.83
-2662.29 453.145 -3504.29
-3540.03 -107.602 -2205.88
-3956.5 1292.09 -2952.35
2021.14 3407.66 -4134.67
743.78 2618.19 -4639.1
683.133 4253.94 -4580.34
4158.1 4696.77 759.371
4135.81 4691.7 -837.195
3588.84 5950.98 -40.7406
-3661.74 7400.87 345.936
-3440.04 7441.66 1036.84
-2974.39 7771.62 596.823
-4164.44 6514.47 1857.08
-3845.36 7008.91 1466.27
-4431.48 6541.76 1173.64
-2432.13 7652.94 1879.25
-3156.91 7389.82 1708.54
-2838.89 7254.05 2315.65
-4577.81 3851.66 3127.77
-4624.27 4528.72 2899.85
-5002.56 4110.45 2458.64
-3618.25 5327.18 3567.25
-4146.8 4951.77 3280.16
-3644.8 4644.88 3831.95
-4888.09 5411.28 1889.57
-4573.25 5215.02 2612.77
-4438.39 5836.38 2289.38
-970.086 6454.5 3803.65
-1616.78 6271.69 3899.7
-1216.6 5824.2 4226.75
-2414.83 6981.87 2981.72
-2035.18 6670.21 3469.94
-1735.04 7200.71 2973.12
-2484.2 5323.81 4214.11
-2291.53 6023.56 3893.83
-2918.42 5733.64 3801.65
-3849.59 6315.53 2579.14
-3418.54 6045.57 3250.59
-3149.79 6710.93 2818.32
-2325.38 8060.97 592.375
-2581.34 8063.12 -91.515
-1723.19 7835.4 1852.32
-2033.34 7992.54 1255.62
-1219.66 8448 -56.0776
-1623.51 8299.3 603.471
-943.498 8412.5 605.04
-188.248 6380.9 3715.31
-579.785 6858.02 3416.82
211.59 7542.57 2444.96
-176.233 7211.64 2924.24
590.944 7058.84 2812.43
-961.089 7261.11 2996.7
-1320.35 7574.23 2518.21
1463.65 7996.75 -66.6973
1232.42 8024.74 583.438
1830.36 7698.23 571.141
-117.425 8399.85 602.522
558.047 8267.33 597.156
159.4 8429.45 -61.5671
1265.39 7556.99 1780.41
941.192 7965.88 1232.14
628.591 7820.97 1812.98
-937.849 7963.3 1910.87
-128.508 7952.57 1898.39
-530.472 8257.47 1261.06
-2395.66 8197.35 -765.254
-3041.46 7910.66 -762.392
-942.816 8442.89 -725.167
-1665.83 8322.84 -740.116
-2499.62 7860.4 -2066.84
-2127.91 8205.99 -1448.54
-1806.52 8073.72 -2076.74
1868.47 7751.99 -711.7
1258.42 8079.64 -717.307
670.6 7937.73 -1993.03
977.395 8054.26 -1380.58
1337.25 7671.42 -1969.7
574.32 8319.42 -726.977
-108.675 8445.63 -728.308
-974.265 6619.09 -4097.83
-570.272 7034.91 -3700.27
-168.196 6551.22 -4017.61
-1375.14 7795.02 -2766.32
-986.178 7465.02 -3266.09
-1783.29 7413.98 -3233.97
650.686 7247.01 -3080.23
-150.12 7365.49 -3178.91
254.673 7679.98 -2666.67
-524.21 8335.79 -1402.68
-111.044 8069.99 -2073.68
-974.824 8060.11 -2091.65
-3517.25 7581.7 -1182.74
-3706.93 7479.25 -500.457
-2922.22 7427.24 -2517.98
-3242.83 7552.75 -1875.9
-4491.91 6612.83 -1306.74
-3932.44 7128.89 -1616.85
-4243.03 6603.02 -2007.29
-1225.56 5944.91 -4519.11
-1649.9 6420.08 -4182.21
-2984.15 5819.86 -4017.27
-2342.54 6139.41 -4140.28
-2525.16 5391.05 -4431.62
-2088.21 6836.75 -3733.31
-2485.01 7156.4 -3217.67
-4942.69 4144.36 -2534.03
-4621.63 4565.23 -3002.06
-4517.44 3884.27 -3186.86
-4504.14 5894.84 -2437.29
-4628.61 5260.2 -2755.73
-4928.34 5446.35 -2015.69
-3665.21 4688.35 -3969.6
-4192.41 5000.24 -3427.51
-3682.52 5390.88 -3752.55
-3237.1 6847.74 -3027.08
-3498.62 6140.94 -3452.61
-3934.6 6411.92 -2756.98
-4133.72 7076.12 -70.3444
-4866.88 6130.36 -879.121
-4551.02 6635.42 -490.076
-4529.24 6605.95 365.9
-4857.18 6105.85 762.986
-5106.73 3457.01 -2063.97
-5216.47 4139.62 -1875.32
-5565.92 4113.81 -455.715
-5425.71 4121.17 -1164.25
-5564.28 3432.54 -732.559
-5248.24 4822.68 -1619.56
-5140.84 5446.28 -1309.07
-5303.5 4111.98 1810.36
-5256.59 3435.98 2040.29
-5129.68 5423.06 1191.45
-5259.92 4798.38 1512.22
-5618.14 3436.96 666.665
-5498.09 4116.92 1089.66
-5604.86 4117.77 386.401
-5205.24 5489.47 -478.078
-5481.56 4803.77 -37.0267
-5228.17 5489.23 384.195
2208.37 7284.33 944.875
2445.65 7274.13 314.353
1631.58 7058.09 2171.95
1920.96 7191.47 1580.5
3140.55 6333.42 1102.22
2580.34 6790.48 1369.49
2894.34 6316.11 1744.9
82.1236 5743.06 4105.11
493.165 6150.12 3747.95
1745.98 5607.15 3619.7
1151.83 5893.88 3719.44
1343.5 5223.47 4040.86
902.188 6512.03 3309.02
1252.59 6802.59 2825.11
3766.8 4055.68 2347.51
3386.88 4458.77 2764.69
3366.55 3811 3001.24
3169.43 5682.05 2160.3
3316.38 5104.18 2476.6
3606.37 5283.81 1786.54
2456.65 4571.02 3670.02
2921.57 4859.57 3122.22
2415.08 5215.35 3393.19
1949.3 6519.74 2663.61
2211.87 5892.88 3078.88
2608.22 6137.43 2432.26
-1224.67 5202.85 4522.55
-572.471 5390.61 4388.63
-2490.45 4640.88 4450.44
-1877.28 4938.34 4544.83
-541.354 4084.77 4798.91
-1230.28 4517.22 4738.53
-1216.32 3841.68 4822.33
-4567.96 3022.92 3119.63
-4192.77 3436.36 3560
-3173.32 2651.01 4193.83
-3704.96 3026.6 3928.95
-3608.61 2225.14 3789.14
-3712.28 3849.9 3939.44
-3187.48 4228.92 4220.82
-536.517 1350.42 4598.66
-1191.15 1569.28 4640.73
-1198.8 928.919 4388.77
-1186.88 3017.46 4833.49
-1175.44 2302.98 4749.46
-515.658 2722.98 4893
-2493.67 1469.56 4265.32
-1846.66 1872.25 4521.23
-2463.98 2213.09 4384.19
-2558.04 3850.84 4561.68
-2558.99 3032.75 4546.82
-1889.68 3444.75 4795.43
-5283.3 2765.78 1802.93
-4984.85 2768.15 2448.89
-5582.56 2754.82 381.009
-5474.55 2758.61 1083.71
-4835.85 1456.81 1868.76
-5216.58 2082.58 1494.17
-5085.57 1452.3 1177.18
-4850.2 2781.03 -2461.32
-5174.97 2765.66 -1831.95
-5039.49 1461.35 -1248.43
-5155.86 2091.26 -1554.42
-4777.84 1480.44 -1920.88
-5420.39 2758.07 -1144.27
-5563.5 2754.59 -457.296
-3728.19 -652.963 377.547
-4169.49 -268.756 -46.9499
-3727.31 -650.509 -467.397
-4822 751.365 756.883
-4554.19 208.657 374.038
-4449.53 271.075 1187.77
-4432.14 290.058 -1260.51
-4554.17 211.372 -466.426
-4830.13 742.475 -845.944
-5457.6 2069.33 -39.7379
-5175.64 1385.35 -459.994
-5199.07 1381.96 377.741
-4121.43 3476.68 -3607.88
-4438.46 3066.72 -3111.8
-3191.98 4264.72 -4347.22
-3687.73 3877.68 -4023.99
-3507.63 2291.13 -3768.68
-3634.14 3072.35 -3970.4
-3118.75 2710.69 -4213.13
-559.82 5492.84 -4712.97
-1225.7 5288.79 -4816.96
-1227.29 3910.68 -5001.29
-1226.27 4587.13 -4983.58
-586.457 4190.21 -4980.01
-1904.83 5012.42 -4809.8
-2515.21 4691.32 -4640.57
-1177.64 1012.4 -4302.33
-1165.02 1651.82 -4561.54
-523.552 1426.89 -4537.93
-2407.87 2291.61 -4355.25
-1806.45 1934.99 -4503.48
-2402.19 1549.21 -4161.11
-530.59 2762 -4816.88
-1168.42 2347.73 -4730.04
-1199.06 3084.73 -4821.28
-2558.55 3884.9 -4682.43
-1886.37 3493.94 -4882.94
-2540.05 3080.55 -4600.35
486.645 6273.48 -3974.69
75.3195 5869.17 -4395.73
[...]
POINT_DATA 642
SCALARS Mean_Curvature double 1
LOOKUP_TABLE default
0.000528208
0.000485207
0.00044791
0.000465085
0.000544
0.000563518
0.000449251
0.000545418
0.000403411
0.000331488
0.000497781
0.000496617
0.000412553
0.0004132
0.000422826
0.000310574
0.000438574
0.000418835
0.000443534
0.000515797
0.000444001
0.000421965
0.000384407
0.000400119
0.000110166
0.000314949
0.00045735
0.000347977
0.000136569
0.000117249
0.000124601
0.000507414
0.000417782
0.000331184
0.000413764
0.000446152
0.000248666
0.000410321
0.000421986
0.00041141
0.000418543
0.000478879
0.000404486
0.000412567
0.000384005
0.000410443
0.000403116
0.000397619
0.000416013
0.000422341
0.000443968
0.000434391
0.000304958
0.000116609
0.000313577
0.000411431
0.000429525
0.000477037
0.000100797
0.000512615
0.000405024
0.000432379
0.000451395
0.00018951
0.000239666
0.000413923
0.000419812
0.000408326
0.000415852
0.000505084
0.00040117
0.000355112
0.000320572
0.00037991
0.000232304
0.00042243
0.000432724
0.000396372
0.000117646
0.000353583
0.00040216
0.000403575
0.000396438
0.000397687
0.000507259
7.72146e-05
0.000434799
0.000419446
0.000260607
0.000128896
0.000411109
0.000413415
0.000298435
0.000405468
0.00039371
0.000337457
0.000332631
0.000431031
0.000439004
2.75298e-05
0.000618948
0.00046755
0.000358021
1.76345e-05
0.000431802
0.000409669
0.000170915
0.000545503
0.000417189
0.000385057
0.000373445
0.000399032
0.000416267
0.000404498
0.000382989
0.000308931
0.000435398
0.000404708
0.000331978
0.000380136
0.000416901
0.000433595
0.000434911
0.000382928
0.00044191
0.000418463
0.000330594
0.000419495
0.000434814
0.000336691
0.000422454
0.000427439
0.000361545
0.000393511
0.000453693
0.000361923
0.000413346
0.000341722
0.000400778
0.000544708
0.000368675
0.00031286
0.000421884
0.000308544
0.00045673
0.000436654
0.000417167
0.000363955
0.000403417
0.000420994
0.000420901
0.000411384
0.000543506
0.000403582
0.000408087
0.000255677
0.000382715
0.000346563
-1.11419e-05
0.00038992
0.000411093
0.000389765
0.000186912
0.000422617
0.000177401
0.000413662
0.000408942
0.000413424
0.000431356
0.000412237
0.000407908
0.000423347
0.000407306
0.000416195
0.000401419
0.000408581
0.000412742
0.000407241
0.000404176
0.000404993
0.000434973
0.0004319
0.000436136
0.000411373
0.00042698
0.000410401
0.000420437
0.000390806
0.000420119
0.000405871
0.000403935
0.000408936
0.000262071
0.000244053
0.000176201
0.000251038
0.000441119
0.000439145
0.000443932
0.000190403
0.000492458
0.000496857
0.000274471
0.000106372
0.000409202
0.000353196
0.000412096
0.000419825
0.000442646
0.000439796
0.000418781
0.000410946
0.000474125
0.00043439
0.000453787
0.000413438
0.00044215
0.000448498
0.000566211
0.000428217
0.00039451
0.000173798
0.000383707
0.00068354
0.000594233
0.000472222
0.000461359
0.000427407
0.000412821
0.000419312
0.000448204
0.000455493
0.000448562
0.000493825
0.000399955
0.000558456
0.000525671
0.000489026
0.000415787
0.000208447
0.000425292
0.000445058
0.00043742
0.000149148
0.000490468
0.000393965
0.00040856
0.000395421
0.000479388
0.000475741
0.000405751
0.000422587
0.000464793
0.000411714
0.000372906
0.00032061
0.00043908
0.000398168
0.000425595
0.000419478
0.000404883
0.000393133
0.000510212
0.000430356
0.000386818
0.000506634
0.000459075
0.000419678
0.000412631
0.000417049
0.000325304
0.000359606
0.000353268
0.000311203
0.000432942
7.97635e-05
0.000308615
0.000346445
0.000246227
0.00036731
0.000518396
0.00047391
0.000417505
0.000436358
0.000416444
0.00040085
0.000426027
0.000317291
0.000419272
0.000274794
0.000432987
0.000391801
0.000342785
0.000465618
0.000217643
0.000100069
0.000399581
0.000320887
0.000405581
0.000193664
0.000342474
0.000396707
0.000385639
0.000376651
0.000395179
0.000358923
0.000368398
0.000401268
0.000377899
0.000395741
0.000404199
0.000403742
0.000392642
0.000400643
0.000388874
0.000402616
0.000399856
0.000401886
0.000469054
0.000263842
0.000388027
0.000439212
0.000284957
0.000492342
0.000252004
0.000438821
0.000433522
0.000394528
0.00042866
0.000240362
0.000407748
0.000395043
0.000473435
0.000606545
0.00044292
0.000241427
0.000219196
0.000544095
0.000689178
0.000183435
0.000102787
0.00037941
0.000442921
0.000599544
0.0004331
0.000450618
0.00037508
0.000291227
0.000281765
0.000352732
0.000356438
0.00028053
0.00035912
0.000312479
0.000395259
0.000306285
0.000358359
0.000409025
0.000395574
0.000392285
0.00042937
0.000258741
0.000444455
0.000453326
0.000443017
0.000446594
0.000447411
0.000430696
0.000322786
0.000390316
0.00047845
0.000235072
0.000362933
0.000404871
0.00020941
0.000513278
0.000453396
0.000399577
0.000477256
0.000567802
0.000524874
0.000590532
0.000626839
0.000391067
0.000317904
0.000387168
0.000434586
2.47041e-05
0.000391054
0.000299446
0.000226509
0.000369281
6.767e-05
0.000391057
0.000609157
0.00052582
0.000197702
0.000433211
0.000414543
0.000408201
0.000476759
0.000392352
0.000387596
0.000476904
0.000406127
0.00045689
0.0004185
0.000442644
0.000415982
0.000414993
0.000403338
0.000391528
0.000402741
0.000463809
0.000219572
0.000189377
0.000380887
0.00029757
0.000227729
0.000413783
0.000441898
0.000411571
0.000413337
0.000412083
0.000410642
0.000413281
0.000416344
0.000420153
0.000380901
0.000393815
0.000364962
0.00031309
0.000454303
0.000494253
0.000403963
0.000426637
0.000311044
0.000425518
0.000452526
0.000417946
0.000426148
0.000356506
0.000331404
0.000408479
0.000395918
0.000382904
0.000380734
0.00038695
0.00035704
0.000410432
0.000387459
0.000370547
0.000432122
0.000430402
0.000410342
0.00037758
0.000274535
0.000370352
0.000250379
0.000421541
0.000447579
0.000351423
0.000424985
0.000311826
0.000409623
0.000350177
0.000393279
0.000338258
0.000348772
0.000233632
0.000509007
0.000289625
0.000423019
0.000473582
0.000423133
0.000339276
0.000406559
0.000403204
0.000375212
0.000432534
0.000363442
0.000365293
0.000396712
0.000382126
0.000428436
0.000441761
0.00046504
0.000419171
0.000335279
0.000356455
0.000341404
0.000353447
0.000365095
0.000410788
0.000353692
0.00040913
0.000356735
0.000429773
0.000418446
0.000382472
0.000443422
0.000374934
0.000391434
0.000341036
0.000425235
0.000407158
0.000376123
0.000354763
0.00042076
0.000427861
0.000419338
0.000369706
0.000368951
0.000413082
0.000408564
0.000427861
0.000431029
0.0004202
0.000309938
0.00038604
0.0003215
0.000425421
0.000448491
0.000397598
0.000347873
0.000390862
0.000416134
0.000367988
0.00036286
0.000367641
0.000415483
0.00040972
0.000410943
0.000421196
0.000413794
0.000285628
0.000477547
0.000493173
0.000482732
0.000382727
0.000489475
0.000395643
0.000504123
0.000350734
0.00040761
0.000406739
0.000482545
0.000490291
0.000502994
0.000385352
0.000466188
0.000405641
0.000329325
0.000394655
0.00038524
0.00041113
0.000398465
0.000373604
0.000387011
0.000395982
0.00038611
0.000402422
0.000326346
0.000405713
0.000412176
0.000374991
0.00039543
0.000401095
0.000412901
0.000416334
0.000422478
0.000422755
0.000422086
0.000423409
0.000431147
0.000330065
0.000496406
0.000409619
0.000410791
0.000438168
0.000388434
0.000460585
0.000187877
0.000110352
0.000531123
0.000416364
0.000408529
0.000413689
0.000490304
0.000407421
0.000414661
0.000481842
0.00056439
0.000436369
0.000446289
0.000433822
0.000419732
0.000357039
0.000377612
0.000248351
0.000412625
0.000368374
0.000346293
0.00037027
0.000458274
0.000434813
0.000398603
0.000377961
0.000398672
0.000386896
0.000292391
0.000412176
0.00038903
0.000398258
0.000373696
0.000364867
0.000586813
2.94805e-05
0.000455631
0.000670301
-0.000130204
0.000375317
0.00041903
0.000367874
0.000327068
0.000272548
0.000304272
0.000407015
0.00039732
0.000386121
0.000405395
0.000408232
0.000344617
0.000289877
0.000399505
0.000406397
0.000289422
8.13183e-05
0.00032452
0.00041226
0.000407378
0.000406882
SCALARS CoVolArea double 1
LOOKUP_TABLE default
413781
377808
419753
418981
405897
378107
389722
401052
386538
397919
406231
410839
531899
521623
509529
488004
511340
506186
542192
538469
543462
527290
487636
481363
533520
505574
522899
538263
509724
520444
497331
483079
542136
520947
540667
545281
544337
526209
522708
493180
530490
510089
505226
546696
495461
502976
554767
508209
468029
539906
476031
532765
501418
477540
517960
479048
518568
461458
566774
506607
476931
536625
505664
560849
496902
579168
512677
511596
577525
502514
573732
501926
566199
503887
564693
558179
505968
508819
472632
463151
498010
470803
506536
471427
524158
483225
505348
543321
489007
556114
494345
555998
511394
490174
549580
514356
560236
507127
530860
498102
465619
534502
471195
544159
464765
515983
479454
458733
512704
462912
510423
460406
517726
567953
515942
491631
553995
498694
509654
558119
496234
564794
508492
513184
566951
509701
567047
517064
555198
509193
507422
557029
487772
549786
485156
553362
511617
473382
534644
480090
536720
472917
567799
482055
549460
557716
486539
530429
523838
511797
569238
563700
558246
531850
550158
539447
505275
507708
543374
521470
514334
511985
501084
504430
498586
546972
502673
497916
483445
495295
531933
495307
511457
497620
544705
509472
494554
501857
512211
550621
454205
478004
457224
528387
485283
470900
481582
489693
537847
613053
609618
604881
506336
495982
533567
499082
488361
495658
523873
461522
471210
505927
477755
468818
473292
523691
463363
473837
453782
523118
481644
477903
456041
467919
500114
586386
571516
582072
505895
493500
546263
512696
508511
511325
556770
461495
482774
529030
488095
474596
488732
531276
490284
504163
484794
555298
510107
505417
483112
508003
539421
614403
611153
628076
517116
500190
573317
527345
509618
524129
569289
494779
517283
567235
526117
508822
524299
570879
492006
508160
487024
568504
517771
505000
502222
516355
562495
643729
641032
643125
516801
561172
519315
515778
553282
498213
509563
552676
513308
495995
510468
557423
512618
494987
552163
514388
499418
513257
549128
629520
622965
623201
472207
452192
510130
476204
456562
473417
496545
464485
472761
497964
459138
453552
467640
503365
472487
475212
472569
499875
468285
457258
461161
469509
502706
559175
558332
557440
477730
464977
532717
481172
476649
480968
523270
491798
504610
548144
503923
503733
503799
541127
481838
493498
487271
536058
503998
478193
492872
507090
555599
595035
605084
592323
510027
493559
547494
512401
507314
514469
555232
489176
502339
545354
499563
489617
500905
542692
507104
516433
502480
558343
516213
506414
494926
511349
547389
613098
616994
619912
499371
487452
548429
499530
489541
489955
529659
478522
500382
517189
481774
465652
505433
549325
466881
472115
459307
543452
490736
477406
475476
488250
530099
596618
588667
591745
498142
478725
517568
488093
461798
481754
500105
449786
470586
505205
465445
459630
477952
517355
453426
466181
456607
499655
473073
460010
460956
471647
511904
573105
566441
564740
507571
522138
505640
561602
522813
511883
509681
522458
560930
480716
498259
481335
543777
500939
488006
504000
506481
556076
495853
509648
490254
556698
513011
506191
488534
506509
546156
625559
618895
626236
516182
501023
560188
518844
507928
517184
563394
496944
513728
563759
519398
512132
517293
560510
504046
519345
509020
563335
517224
507112
511136
519644
562398
628866
630359
629300
514031
501824
554305
513320
498060
511471
545767
500175
513539
547986
513569
500483
514766
555107
474665
492977
473471
542319
498984
485379
486783
498281
542119
617383
614377
615082
514534
504425
545198
511784
502683
511958
546871
466634
486079
519438
482305
463725
489429
535738
470315
481876
465154
539939
488896
488291
464956
482397
520504
606645
597636
607664
521454
557212
519962
522860
562882
470315
485614
533708
490626
478193
494112
549776
496759
478492
559417
510163
479761
498433
536247
624633
616698
627998
498600
530986
495014
489870
518350
487396
511135
478554
489253
529032
479532
514793
477200
467036
506080
585990
576448
579775
522491
564350
523236
520603
557213
514657
546478
509000
519970
562714
515771
555283
521932
520223
550012
631406
620363
624740
482322
539852
489041
477696
522662
512061
540663
508625
510615
547216
497329
534551
498868
494516
537666
604483
603032
594188
466766
505059
467234
465046
508054
469651
521104
468257
470367
506623
469210
520485
476132
474506
539101
562087
583991
578681
486838
527074
488368
477358
504132
475372
505306
466992
481306
524526
470641
500573
475822
476783
512051
577916
565580
565584
SCALARS SignedDistance double 1
LOOKUP_TABLE default
2848.24
3470.68
2336.63
2330.28
2720.14
3755.07
3247.79
3085.12
3448.91
3120.86
3168.17
2465.12
2502.91
2822.14
3194.92
3816.38
2877.1
3047.57
2314.7
2585.54
2348.8
2700.66
3504.17
3568.01
3024.32
3342.24
2857.89
2618.94
3824.38
3513.73
3722.33
3923.78
2332.38
2931.56
2393.84
2271.98
2707.21
2679.12
2724.23
3426
2666.74
3145.62
2726.81
2770.49
3086.26
2559.78
2580.75
2445.34
3439.98
2972.42
3270.54
3150.31
2899.5
3849.7
3605.19
3132.8
3326.15
3648.17
2795.34
2482.11
3128.91
2826
2606.29
2834.92
3133.52
2111.46
2487.86
2580.71
2180.63
2691.7
2268.85
2808.15
2615.86
2948.38
2772.57
2513.91
2552.23
3730.56
3767.83
3679.98
3703.46
3343.31
3514.21
3310.45
3240.82
3638.49
2728.55
2822.81
3046.41
3245.4
2925.78
2599.3
2652.76
3016.58
2792.38
2405.81
2649.25
2451
3199.05
3363.46
3461.02
3141.4
3401.2
3649.49
3570.21
3416.04
3591.37
3586.53
3400.05
3716.37
3798.01
3610.98
2225.64
2366.42
2350.94
3030.42
2662.69
2701.94
2540.99
2636.59
2835.06
2522.65
2570.51
2433.43
2357.81
2540.67
2524.34
2277.5
2597.16
2560.61
2506.44
2564.58
3024.87
2746.75
2967.63
2755.52
2407.42
3351.74
3057.56
3119.14
3120.81
3451.83
2335.56
3280.1
2782.52
2570.06
3087.16
3111.07
3219.35
3446.98
2272.27
2461.78
2735.09
3079.81
2741.09
3189.18
3708.85
3608.08
3927.64
3367.67
3460.84
3660.3
2859.95
2891.3
3030.76
2612.22
2730.3
2591.57
3119.04
2914.42
2967.99
2483.97
2470.94
2431.49
2675.23
2554.41
2666.87
2460.64
2488.94
2524.94
3593.29
3357.46
3519.07
3075.32
3201.53
3301.8
3031.6
3098.75
2884.16
2655.39
2745.57
2847.22
3045.56
2962.48
3285.74
3164.92
2842.58
3000.16
2973.34
3834.98
3721.17
3724.41
3793.62
3842.48
3572.85
3441.68
3296.81
3385.35
3559.43
3079.92
3216.93
2988.02
3741.94
3484.55
3589.57
3359.5
3461.47
3194.06
2853.68
2680.65
2772.86
2819.02
2326.23
2691.12
2584.51
3278.08
3109.5
2911.49
2963.52
3065.41
2949.8
2832.3
2827.43
2982.22
3189.88
2647.81
2788.44
2431.44
3070.96
2964.26
2913.26
2721.6
2784.34
2784.58
2447.72
2645.86
2143.86
2223.98
2383.04
2254.48
2181.93
2813.41
2550.03
2311.19
2349.18
2501.55
2322.45
2178.84
2930.78
2731.56
2975.54
2247.99
2452.74
2449.13
2679.21
2548.52
2394.02
2082.38
2162.71
2112.78
2724.31
2554.71
2608.34
2651.33
2531.34
3105.65
2984.9
2728.08
2866.54
2805.62
2783.9
2619.37
2458.17
2466.1
2459.95
2459.31
2587.68
2536.36
2583.68
2648.12
2600.27
2520.48
3765.58
3696.18
3799.31
3792.21
3672.07
3746.58
3653.71
3764.27
3770.56
3612.38
3693.13
3596.97
3777.39
3788.84
3228.07
3319.26
3212.74
3534.01
3431.14
3457.83
3408.37
3416.64
3506.37
3712.32
3612.79
3626.25
3520.72
3747.34
3013.12
3256.23
3489.93
3506.13
3466.63
2572.86
2596.36
2949.19
2765.62
2897.34
2674.48
2797.03
2980.78
3076.18
2780.33
3292.3
3151.29
3210.74
3012.14
3172.8
3138.36
2952.27
3046.61
3250.31
2584.85
2565.67
2653.15
2621.46
2638.51
2622.36
2618.02
3135.53
3009.86
2820.51
2896.65
2935.19
2893.33
2771.62
2332.03
2403.3
2346.42
2615.86
2503.26
2506.85
2627.76
2518.21
2712.39
2661.67
2718.15
2625.34
3128.26
3272.85
2874.7
2982.96
3462.16
3318.69
3514.49
3212.28
2986.59
3523.95
3281.73
3667.15
2845.07
2815.08
3314
3449.82
3396.58
3600.44
3521.88
3488.58
3668.42
3598.97
3721.06
3124.87
3454.8
3456.67
3350.28
3408.72
3218.73
3264.89
3741.53
3488.83
3638.34
3526.98
3340.48
3600
3463.42
3674.69
3251.46
3212.55
3586.39
3664.89
3531.78
3851.25
3803.63
3850.18
3684.27
3745.38
3759.9
3387.88
3585.51
3599.87
2263.36
2269.1
2311.58
2318.94
2267.12
2244.54
2365.34
2336.89
2403.43
3075.22
2905.21
2956.73
2853.39
2884.69
2975.15
2496.63
2676.6
2469.88
2615.82
2674.73
2791.11
2487.03
2580.64
2463.74
2883.78
2731.46
2792.75
2473.54
2664.55
2511.83
2421.02
2413.8
2394.17
2419.48
2672.31
2586.61
2660.81
2532.3
2443.38
2343.11
2345.08
2387.17
2433.42
2418.22
2404.99
2374.06
2329.64
2663.14
2501.21
2679.03
2229.78
2385.02
2359.86
2446.2
2396.2
2578.7
2518.24
2444.65
2663.16
2583.82
2625.29
2550.63
2615.1
2375.85
2472.83
2576.06
2532.41
2597.49
2579.77
2664.37
3138.33
2999.18
3141.88
2776.45
2887.82
2866.86
2799.89
2853.59
2700.85
2616.71
2637.49
2676.76
2490.44
2347.96
2739.98
2642.77
2513.54
2581.49
2706.05
3296.72
3194.93
3232.67
3218.24
3396.04
3038.98
2884.62
3322.39
3333.76
3452.54
2907.66
3108.32
2859.5
3444.07
3316.94
3279.66
2903.8
3082.39
2924.26
2277.46
2466.01
2344.66
2244.58
2281.88
3360.8
3209.87
2949.16
3066.12
3206.37
2936.21
2679.74
2882.24
3100.04
2427.72
2606.37
3098.77
2839.44
2850.18
2512.08
2625.82
2384.19
2957.58
3012.79
2978.39
3053.78
3227.06
3168.83
3371.71
3272.17
3121.01
3067.76
3679.62
3394.41
3543.35
3583.51
3490.93
3152.22
3329.19
3265.99
2316.71
2214.39
2225.59
2322.51
2419.44
2628.22
2727.05
2681.06
2483.8
2312.21
2680.72
2640.39
2693.69
2790.86
2889.05
2314.27
2537.95
2434.77
3185.18
2850.64
2994.72
3254.91
3372.64
2433.46
2768.54
2574.02
2591.71
2718.13
3188.46
3365.41
3272.06
3089.86
3029.05
2921.99
2991.45
3192.98
3589.34
3568.2
3585.78
3721.74
3845.01
3438.46
3687.97
3584.93
3485.89
3535.12
3577.81
3952.76
3845.39
3796.69
3859.56
3668.34
3751.06
3822.54
3216.27
3249.67
3228.17
3348.83
3473
3446.62
3610.81
3534.29
3364.69
3299.65
3741.24
3620.43
3732.5
3733.25
3694.57
3402.85
3559.69
3522.25
