# vtk DataFile Version 4.2
vtk output
ASCII
DATASET POLYDATA
POINTS 642 double
-2336.22 5815.82 -601.201
227.607 5708.95 -532.389
-2357.68 557.276 -31.4531
1361.03 576.798 66.7252
-662.62 1397.99 2299.78
-1366.52 4536.25 1670.67
-502.027 1783.24 -1925.54
-1363.3 5158.89 -2436.36
1533.09 3087.67 -1000.79
1758.82 2998 1218.62
-2820.07 4047.73 -1342.84
-3343.11 3540.98 1631.95
-3216.49 4939.17 957.273
-2329.06 4272.79 2138.85
-1835.58 5330.46 1235.67
-85.857 5273.3 376.121
-658.606 6279.17 -277.881
-3.27854 5818.86 -1277.87
-1936.16 6134.16 -1857.34
-2146.28 4924.78 -2514.35
-3110.5 5294.07 -1376.58
-3540.91 3492.7 207.173
750.664 3761.11 1731.16
1334.61 4158.22 721.991
-1997.38 2164.98 1948.87
-467.794 3023.16 2313.21
-2776.78 1604.79 -636.789
-2883.86 1648.52 945.055
-1029.96 3910.16 -1834.4
-1790.26 2619.88 -1603.03
1083.31 4579.7 -500.872
292.077 4601.06 -1216.83
2207.67 1559.47 899.377
863.977 2269.55 2096.74
533.082 671.199 1555.52
-1742.33 615.165 1620.92
-531.926 452.866 -58.2905
-1458.71 812.328 -1393.19
435.288 829.648 -1322.17
716.129 2242.17 -1665.11
2044.59 1677.97 -637.948
2114.79 2666.05 136.317
-2831.05 5318.95 488.934
-2556.31 5267.19 1184.79
-1962.19 5475.15 675.307
-2905.9 3949.22 2009.53
-2862.02 4659.98 1720.81
-3369.06 4257.3 1372.41
-1654.37 5023.66 1526.23
-2151.91 4901.14 1761.58
-1931.2 4445.67 2004.17
-934.703 6038.4 187.036
-1204.26 6180.72 -362.013
-418.338 4696.57 1200.18
-1089.44 5606.09 605.567
-174.543 6081.69 -412.701
-469.819 5995.46 97.0573
-92.9916 5727.85 -3.73
-1344.13 6170.71 -1075.21
-2156.36 6143.24 -1436.5
219.605 5863.39 -840.036
-272.504 6215.26 -859.859
-1660.71 5694.01 -2258.13
-928.31 5970.49 -1627.25
-504.013 5537.95 -1757.45
-2657.34 5939.31 -1690.55
-2790.03 5718.64 -1040.53
-1793.17 5135.94 -2648.92
-2147.72 5625.42 -2409.72
-3036.54 4904.23 -1516.63
-2852.28 5221.9 -2039.79
-2587.48 4498.89 -2100.1
-3183.27 5062.84 -60.7308
-3289.41 3525.2 -513.723
-3237.65 4444.42 -493.354
-3515.66 4326.13 575.089
-3515.98 3532.81 941.806
780.064 4546.9 854.728
717.022 4786.84 156.378
176.136 4018.85 1729.4
503.714 4361.5 1363.49
1602.81 3685.63 998.096
1143.26 4031.81 1261.49
1271.59 3466.71 1577.98
-1988.32 3799.07 2250.35
-912.196 3611.06 2210.23
-2865.16 3206.53 1915.79
-2315.56 3568.33 2297.76
-396.522 2361.73 2423.26
-1378.54 3123.24 2252.5
-1331.45 1484.2 2157.45
-3478.19 2611.36 484.444
-3205.91 2771.76 1242.27
-2960.13 2600.44 -947.695
-3324.12 2598.46 -274.529
-2730.71 956.822 542.602
-2974.25 1567 9.35297
-2756.02 965.716 -453.431
-2100.17 4173.28 -2260.52
-2171.65 3372.48 -1640.15
-1414.29 5034.15 -2390.85
-1868.35 4704.29 -2508.85
-1082.14 1898.94 -1833.3
-1510.26 3365.08 -1985.4
-505.568 2378.34 -1949.97
160.231 5240.2 -1517.57
-521.492 5137.92 -1870.17
531.763 5351.32 -844.783
460.652 5417.97 -1035.12
1072.13 3430.25 -1256.27
423.769 4548.55 -1053.43
1471.91 3622.04 -760.296
1938.38 973.675 527.051
1553.31 1042.3 1213.73
1050.16 553.772 811.565
1420.4 2617.95 1676.49
1711.84 1771.22 1451.02
2171.26 2178.85 1037.47
-123.764 1046.09 2048.68
771.007 1365.22 1907.3
232.098 1851.05 2293.26
155.796 460.48 997.875
630.131 463.567 22.9448
-1041.03 993.84 2189.67
-610.58 564.633 1773.98
-1678.85 445.547 79.9549
-1297.82 464.816 982.381
-2078.63 492.636 988.852
96.912 474.667 -843.631
908.501 672.494 -681.873
-2038.83 632.296 -670.066
-1153.11 461.64 -890.436
-48.5384 1234.17 -1628.82
-605.766 761.762 -1422.6
-1104.69 1150.56 -1656.42
1299.14 1208.22 -951.553
1847.26 1046.96 -352.423
106.053 2016.11 -1870.62
660.297 1516.7 -1608
1933.9 2085.84 -706.402
1382.3 1920.94 -1196.44
1175.26 2685.48 -1391.64
2303.96 1516.46 88.7945
1932.49 2907.88 -445.935
2307.39 2139.05 -223.355
2435.89 2178.24 448.218
2076.78 2734.73 645.329
185.035 2648.16 2343.65
841.756 3042.27 2035.38
181.659 3321.13 2164.77
-2482.16 917.978 1431.45
-1989.39 1235.7 2047.59
-2477.95 1702.14 1586.93
-1591.74 1311.22 -1571.92
-2335.71 1089.49 -973.954
-2399.64 2032.44 -1188.08
678.127 3022.27 -1605.01
24.0981 2744.03 -1941.64
-537.204 3868.58 -1967.89
1773.3 3659.2 430.317
1731.75 3638.91 -254.944
1351.84 4178.94 36.8776
-2566.63 5466.83 -34.397
-2499.59 5435.05 639.785
-2061.4 5613.41 137.403
-2909.34 5146.95 1090.34
-2718.22 5316.39 880.123
-3053.47 5160.94 754.024
-1946.71 5440.86 992.896
-2356.39 5402.03 981.647
-2190.99 5323.45 1224.04
-3161.35 3734.43 1846.3
-3184.66 4085.94 1742.87
-3392.09 3863.79 1541.38
-2613.07 4471.93 1993.73
-2898.67 4315.39 1907.92
-2621.85 4146.94 2124.61
-3318.88 4640.22 1164.6
-3143.56 4490.01 1565.74
-3075.56 4820.32 1359.77
-1611.18 4829.32 1640.1
-1800.46 4761.53 1782.45
-1744.38 4563.17 1853.57
-1995.55 5150.4 1504.33
-1890.94 4977.09 1657.81
-1736.12 5192.31 1395.82
-2104.52 4359.71 2102.91
-2032.03 4680.93 1909.85
-2256.59 4609.01 1984.31
-2733.92 5017.28 1469.95
-2497.39 4822.78 1787.1
-2358.11 5113.25 1518.04
-1454.82 5924.38 47.6783
-1765.17 5922.23 -579.18
-1375 5559.11 670.558
-1412.49 5788.48 346.405
-878.392 6281.77 -248.001
-1003.86 6157.8 -20.172
-812.304 6209.29 -47.5444
-981.69 4490.63 1361.83
-1378.71 5001.62 1368.34
-592.12 5596.02 471.107
-984.945 5137.04 880.948
-183.502 4918.1 849.439
-1475.13 5183.42 1240.77
-1403.16 5322.36 1036.38
39.9507 5915.66 -481.623
-111.772 5912.86 -176.948
77.6429 5736.33 -265.189
-561.115 6163.99 -71.9036
-339.554 6063.14 -106.467
-436.781 6214.81 -352.999
-166.252 5595.18 186.899
-264.153 5873.29 56.5358
-401.332 5814.15 213.778
-906.953 5826.38 410.706
-644.551 5865.54 311.901
-709.802 6059.6 155.835
-1771.44 6073.33 -1131.93
-2257.85 5994.36 -1115.68
-777.86 6289.5 -551.182
-1304.13 6184.22 -722.9
-2065.5 6190.67 -1605.17
-1882.86 6123.97 -1399.57
-1843.93 6140.58 -1570.85
234.829 5802.38 -742.853
41.9557 5998.45 -686.018
-124.732 6060.89 -1074.05
-20.5701 6068.59 -858.994
126.543 5875.6 -1042.01
-217.356 6174.64 -656.832
-436.478 6269.36 -609.531
-1523.74 5382.48 -2405.06
-1250.27 5611.24 -2062.14
-1046.63 5263.05 -2136.36
-1614.02 6022.66 -1839.56
-1423.76 5857.74 -1966.6
-1801.24 5943.55 -2082.25
-160 5709.68 -1483.27
-726.374 5805.98 -1717.19
-332.807 5951.78 -1379.4
-585.989 6280.07 -893.579
-447.552 6162.95 -1163.13
-1111.44 6104.15 -1383.98
-2489.67 5989.34 -1264.33
-2554.16 5819.02 -822.385
-2259.29 6135.34 -1805.38
-2397.78 6118.99 -1530.41
-2983.39 5533.57 -1224.58
-2749.37 5861.77 -1408.38
-2949.58 5636.74 -1539.16
-1640.02 5170.75 -2561.29
-1716.72 5364.7 -2543.65
-2187.96 5243.67 -2528.57
-1892.91 5329.5 -2636.72
-1884.38 5064.33 -2663.85
-1872.62 5703.88 -2371.29
-2033.92 5951.73 -2177.51
-2889.87 4448.87 -1551.78
-2859.38 4717.93 -1811.02
-2703.87 4359.41 -1854.2
-3065.51 5269.23 -1718.81
-2996.52 5092.72 -1771.3
-3115.64 5104.23 -1475.09
-2407.73 4728.18 -2322.89
-2731.94 4971.66 -2069.69
-2534.54 5108.72 -2292.13
-2446.84 5835.79 -2109.04
-2566.81 5433.38 -2290.2
-2834.35 5569.74 -1939.99
-2781.81 5463.08 -358.575
-3097.19 5222.6 -835.676
-2981.93 5358.19 -610.734
-3047.07 5201.08 207.181
-3265.52 4989.53 538.724
-2954.42 3653.99 -980.194
-3026.19 4323.67 -1017.87
-3486.39 3930.07 -29.9378
-3301.72 4004.02 -504.118
-3454.78 3473.6 -184.287
-3106.83 4776.56 -1087.46
-3136.47 4973.01 -1070.42
-3496.24 3889.42 1228.32
-3479.22 3538.52 1352.67
-3435.96 4669.84 802.145
-3485.43 4330.39 1000.04
-3612.16 3525.14 506.577
-3567.16 3916.85 738.922
-3602.03 3924.2 387.46
-3266.54 4798.7 -277.505
-3508.62 4344.96 166.562
-3443.37 4708.65 346.364
313.918 5290.33 -133.615
340.345 5433.84 -370.316
304.636 4830.76 804.091
129.239 4996.32 408.924
1140.92 4370.21 573.046
834.723 4618.47 555.094
1066.14 4377.22 796.883
-299.331 4154.4 1672.98
17.6042 4331.46 1514.57
639.213 4100.88 1545.14
374.261 4223.24 1539.9
482.554 3885.18 1740.76
219.319 4477.21 1335.21
326.976 4623.57 1107.34
1684.77 3409.36 1128
1472.43 3589.97 1298.75
1498.03 3307.74 1444.29
1265.65 4104.06 997.937
1384.71 3870.42 1145.17
1489.97 3925.63 860.242
1018.02 3618.02 1672.94
1224.19 3768.65 1423.22
976.285 3921.41 1502.33
658.769 4472.89 1126.02
828.732 4221.48 1331.7
976.348 4311.18 1075.13
-1750.23 4124.45 2057.74
-1127.26 4163.72 1646.37
-2076.02 4007.47 2232.36
-1935.23 4086.74 2153.92
-570.965 3401.76 2182.83
-1543.79 3934.75 2098.93
-1345.41 3537.95 1975.96
-3134.35 3382.93 1812.14
-2937.14 3558.49 1996.57
-2277.62 3235.04 2194.46
-2612.78 3411.02 2122.46
-2439.72 2874.99 1926.17
-2637.92 3749.92 2160.08
-2337.75 3888.92 2252.97
-552.381 1782.44 2299.43
-799.071 1807.53 2268.72
-903.843 1421.83 2300.7
-971.17 2928.12 2300.7
-730.61 2533.98 2339.16
-391.077 2669.49 2367.6
-1735.74 1607.45 2015.41
-1265.98 2075.31 2160.32
-1783.56 2674.1 2078.96
-2072.19 3670.42 2338.36
-1996.02 3457.27 2299.49
-1888.94 3412.99 2281.02
-3433.54 3199.59 1177.84
-3335.28 3259.41 1495.57
-3530.62 3043.44 339.781
-3485.32 3107.63 696.203
-3106.53 2173.79 1066.17
-3374.54 2658.95 858.14
-3275.81 2240.45 683.256
-2889.21 3052.56 -1061.9
-3109.37 2979.21 -758.29
-3114.14 2180.29 -524.637
-3153.11 2565.46 -647.397
-2949.21 2217.74 -810.677
-3308.27 3010.56 -373.988
-3454.11 3010.87 -42.684
-2574.16 713.145 251.052
-2770.01 933.7 -37.3264
-2581.01 718.82 -266.531
-3003.97 1620.87 466.622
-2881.75 1169.46 231.226
-2770.64 1196.35 791.049
-2779.18 1174.61 -562.636
-2875.72 1146.04 -256.106
-2871.34 1523.34 -355.498
-3467.8 2595.76 127.078
-3239.35 2166.2 -123.284
-3328.34 2208.21 286.866
-2430.1 4187.58 -2049.62
-2556.66 3782.71 -1340.57
-2136.15 4485.22 -2418.38
-2320.23 4297.38 -2227.43
-2041.02 3110 -1650.07
-2202.77 3981.6 -2080.9
-2040.81 3745.57 -1997.43
-1372.55 5164.54 -2465.1
-1691.14 5163.28 -2578.81
-1706.91 4548.88 -2386.86
-1702.51 4889.47 -2490.59
-1399.56 4682.81 -2306.17
-1842.76 5057.94 -2617.07
-1887.53 4825.46 -2576.17
-796.293 1846.5 -1894.12
-777.818 2203.08 -1952.99
-490.756 2055.94 -1948.87
-1452.29 3133.89 -1912.31
-1058.16 2480.7 -1919.3
-1351.18 2060.79 -1725.41
-543.441 2911.11 -1970.13
-904.395 2689.84 -1959.94
-1592.82 3545.07 -1987.23
-1932.29 4390.53 -2415.45
-1885.98 4268.05 -2334.71
-1841.93 4017.85 -2245.24
-466.264 5208.13 -1864.33
[...]
POINT_DATA 642
SCALARS Mean_Curvature double 1
LOOKUP_TABLE default
0.000557961
0.00086546
0.00134781
0.00144763
0.0011605
0.00291182
0.00176623
0.00223956
0.00104862
0.000789344
0.000940041
0.00208559
0.00133187
0.00105149
0.00146218
-0.00253855
0.00251309
0.00136126
0.00264237
0.000811716
0.00185773
0.000104008
0.000752444
0.00110928
0.000290468
0.00033181
0.000143648
5.7646e-05
-0.00170303
-9.26978e-05
0.00674269
0.000676455
0.00167604
0.000735133
0.00141478
0.001438
2.82467e-05
0.00144872
0.00177896
0.000412939
0.00171802
-0.000536364
0.000837559
0.0011133
-0.000933274
0.00109328
0.00111651
0.000942353
0.00133827
0.00118835
0.000998006
0.00141576
0.000869261
0.000632776
-0.00283545
0.00117038
0.00147061
0.000562091
0.000538238
0.00139689
0.00384677
0.00234871
0.000557426
0.00121626
0.000421368
0.00192162
0.00089645
0.00843821
0.00162326
0.000298142
0.00227077
0.00134594
0.00102754
0.000483549
-0.000501325
0.000262188
3.73362e-05
0.000407148
-0.000562906
0.000625784
0.000975953
0.000954367
0.00101084
0.000855629
-0.000521421
0.00385464
0.000971721
0.00213276
0.00141525
-0.00111606
-0.000479359
0.00141442
-7.45006e-05
0.00119122
0.00067457
0.00113367
5.31178e-05
0.00240712
0.000988386
-0.000341738
-0.00116426
-0.00171825
0.000927537
0.00815024
-0.000138113
0.00379452
0.000250661
-0.00167064
0.00182741
0.000660563
-0.00196223
0.000752706
0.00126509
0.00104955
0.000807091
0.000459937
0.00081289
0.00218645
0.000160538
0.00058848
0.000813444
0.000313385
0.000232219
0.00181928
0.00167492
-0.000149998
-8.74748e-05
0.0013793
0.00128975
0.000545176
0.000439799
0.00133032
0.000215341
0.00144369
0.00105867
0.000209343
0.00132966
0.00073146
0.00168017
0.000283784
0.000582502
0.000719105
0.00107352
0.000831734
0.00233428
0.00347093
0.00010505
0.000598072
0.000693833
0.00101741
0.00157553
0.0030799
-0.000261175
0.00212749
0.00207645
0.000513104
0.0003061
0.00131339
-0.0038524
0.000900981
0.00103621
0.000512708
-0.000411175
0.000734462
-0.000209317
0.00129044
0.00106337
0.0013305
0.0017349
0.00121511
0.000944645
0.00150532
0.00111243
0.00154137
0.00144799
0.00118931
0.00155473
0.00112491
0.000976551
0.00110342
0.000280375
0.00141158
5.0929e-05
0.00126458
0.00131791
0.00161564
0.00183288
0.00129702
0.00144893
0.00126354
0.00127695
0.00111881
0.000490201
-0.000573932
-0.000589453
0.000895271
0.00236082
0.00136289
0.00246812
-0.00242277
0.00105052
0.000490787
-0.001101
-0.000220184
0.00122341
0.00187716
0.000867485
0.00138915
0.000629889
0.00179555
0.00153821
0.0011239
0.00402334
0.00148238
0.000873818
0.00471519
0.00116923
0.00214122
-0.000779443
0.000107813
0.000746022
0.00128488
0.00325254
0.00139136
0.000950092
0.000686216
0.00162397
0.00157231
0.00242363
0.00147401
0.00132331
0.00201375
0.00038322
0.000136957
-0.000801727
0.000886998
0.000825593
0.000979636
0.000880472
0.00118434
0.00104005
0.0014253
0.00148925
0.000470346
0.00113448
0.00120087
0.00226473
0.00276979
0.000955613
0.00161693
0.0018933
0.00751186
0.00176549
0.00152541
0.00393762
0.0056078
0.00219144
0.00245621
0.00115139
0.000778576
0.000963541
0.00291909
0.00102236
0.00248342
0.00087655
0.000267167
0.000790495
0.00153138
0.00201616
0.00171107
0.000496478
0.00114651
0.000791183
0.000718988
0.00118858
-0.000243735
-0.000701321
0.00035615
0.000960408
0.000902085
0.000658812
0.00105118
0.000916382
0.00181266
0.00156447
0.00102603
0.0016643
0.000488481
0.00136343
0.000645732
0.000935273
0.00133753
0.000114985
0.00130113
0.00360964
-0.00249761
0.000778766
0.00121018
0.00100351
0.00107892
0.000461092
0.000919315
0.000862208
0.000379946
0.00065669
0.000836273
0.000943946
0.00100027
0.000945052
0.000926767
0.000996304
0.000929542
0.000680786
0.000905929
0.000924495
0.00091914
0.00106973
0.00101943
0.000942376
-0.00201406
0.00231224
0.000668196
-0.00174856
-9.33876e-05
-0.00274546
0.00161468
0.00131028
0.00123935
0.000730818
-0.000660442
0.000945454
0.00121385
-9.5473e-05
-9.5663e-05
0.00143784
0.0021933
0.000300536
0.000159544
-0.000791176
-0.000139575
-0.00039672
0.00492019
0.00182236
0.00166718
0.000945344
0.00141307
0.000896297
-8.36057e-05
0.000747443
0.000765086
0.000572562
0.00118766
0.000378059
0.000924534
0.000889797
0.000881941
6.71483e-05
0.000561382
0.00121182
0.0010023
0.00167397
0.00027297
0.000970676
-6.53796e-06
0.00195809
0.00190613
-0.000175799
0.00142385
0.000567603
0.000913216
0.000783593
-0.00164682
0.00180268
0.0014912
0.000250571
0.00188033
1.27202e-05
0.0149021
-0.00388939
0.000266649
-9.68869e-05
0.0012083
-0.00355451
0.00545464
0.000697294
0.00107309
0.000487084
-0.000178918
0.000996063
0.000234284
0.000315348
0.000297444
-0.00192737
0.00616646
-3.79458e-05
0.00317197
0.00325163
0.0112424
0.00122875
0.00137946
-0.00129451
0.0131801
0.00197731
-0.00021849
0.00445192
-0.0030257
0.0106389
0.0198381
0.00266272
0.0011194
0.000936286
0.00069992
0.000944956
0.000499612
0.000836239
0.000414077
0.00018855
0.000404604
-0.000251547
0.00229283
0.00131872
0.00203257
0.000821794
0.00101435
0.00147167
0.00130937
0.00115882
0.00155047
0.00136999
0.000630481
0.000857192
0.000458222
0.000423656
0.000113507
0.000134544
-1.56603e-05
0.000727089
0.000991819
0.000906692
0.00150635
0.000327214
0.00130124
0.000577177
0.00114062
0.000564338
0.000964309
0.000944411
0.000752216
0.000361431
0.00141412
0.000572635
0.000255846
0.000647163
0.0012318
0.00140043
0.000846628
-3.34476e-06
6.81345e-05
1.51131e-05
0.0024656
0.00204289
0.00150076
0.00142716
-0.000406062
0.000860563
0.000911599
0.000772706
0.00147546
0.000720886
-0.00011593
0.00124736
-0.000115793
0.00203331
-0.000113612
0.000674334
0.000875407
0.00102501
-5.00048e-05
0.000699813
0.00107395
0.000186805
0.000541457
0.00138234
0.00166248
0.00157273
0.00227365
0.000908753
0.0016908
0.00125701
0.00103115
0.00030638
2.42732e-05
0.0007356
0.000633226
0.000503978
0.000750674
0.00046288
0.000952353
0.00226627
0.000913389
0.00121871
0.00135826
0.000952138
0.000555968
0.000868802
0.00112785
0.000908688
0.000434134
0.0013762
0.00100202
0.00088786
0.00127349
0.000487762
0.00103363
1.01201e-05
0.000384941
0.000407092
0.00104347
0.000442704
0.000224098
0.000750975
0.00132934
-0.000300733
0.0021737
0.000816746
0.000346064
0.000624699
0.000829581
0.00123032
0.00049214
0.00107396
0.00132055
0.00132961
0.00131518
0.00110449
0.000854814
-0.000168369
0.00103749
0.000670208
0.000564634
0.000788119
0.00262722
0.00116383
0.000652464
0.00119904
0.00265645
0.000168085
0.000863007
0.000920095
0.00131979
0.00294652
0.00212285
0.000591673
0.000784956
0.00033215
0.00213411
0.000260983
0.000888007
0.000658201
0.0007485
0.000778836
0.000926321
-0.00027597
0.00108062
0.000583542
0.000248912
0.000542755
0.00145078
0.00074309
0.00132685
0.000581825
0.00173678
0.00142469
0.00157794
0.00154525
0.00208934
0.00132298
0.0023535
0.000970368
0.00167342
0.000430365
0.00021615
0.000802619
0.000476724
6.75789e-05
0.00208748
0.00173809
0.00192247
-8.59744e-05
0.0020325
0.00254417
0.000206881
-0.000675412
0.00158244
0.00128517
0.00235082
0.000660133
0.00105045
0.000461204
5.25645e-05
0.000629265
0.00103092
0.000469591
0.00188693
-0.00107799
-0.000339005
0.000838192
0.000564878
0.000768382
0.000770554
0.000265088
0.000725613
0.00054887
0.00037706
0.000893367
0.000314457
0.000669903
-0.00115771
-0.000921372
-0.00114327
0.00581706
0.000972164
0.0015343
3.96312e-05
0.00105378
0.000857576
0.000655452
0.0010346
0.000819245
0.000921924
0.00163579
0.000827065
0.00100126
0.000952266
4.17962e-05
0.000402473
0.000257199
-0.00172503
-0.00317729
0.00118365
0.000897931
0.000524182
SCALARS CoVolArea double 1
LOOKUP_TABLE default
248899
67557.2
123825
119727
83228.8
186646
90898.7
47182.1
104347
139908
180740
84620.5
134904
104693
130300
214207
68324.7
93793.4
91571.5
122692
118854
169628
117332
91052.2
301192
215586
176510
252138
522025
397205
174732
231142
142600
182526
168164
165594
393002
125720
114539
129333
104897
168024
181578
123947
234568
126555
148073
149241
69294
102615
73520.5
115661
209020
359217
155948
79689.1
57962.1
145854
223420
88301.6
47287.8
78178.6
114706
192373
208866
151072
168561
23044.5
151300
149259
112680
128389
204610
269929
258402
163116
171868
157152
192872
151026
92700.5
94770.6
96413
103917
121311
302930
179430
102266
153531
291358
170047
168040
227405
133492
176166
166063
236226
94993.2
88136.7
331305
83466.3
46021.5
153546
99032.6
139692
46006.4
69095.5
92697.4
62613.4
124948
209840
101964
155037
191375
174474
189507
153321
94954.5
191197
203139
155409
235498
207634
154127
168057
194315
259999
159292
160803
180216
149781
168098
166082
159043
96377.7
201080
139342
129973
115341
122026
146738
146828
157020
157496
67665.3
64017.3
150271
125842
116898
102399
134915
92413
219761
84922.8
131213
234115
141515
111781
421725
117974
95338.6
181194
266733
216289
386330
136402
118019
131263
162992
123356
113558
112996
142930
122411
126543
134429
119448
139088
148858
151012
122147
64537.1
139434
98717.2
75016.6
75630.8
73312.9
75265.8
102908
157760
142778
136984
292695
367497
199444
195244
94151
117648
57049.9
309059
239449
278063
362935
354736
122755
111598
70760.8
71945.6
100278
63901.4
70319.8
72045.3
117107
58631.7
96981.8
104647
85765.7
67663.8
188105
188308
157797
151124
63278.1
93471
141250
47130.4
59522.6
90847
63523.8
73440.2
67257.1
80669.9
117285
202979
176975
157061
148307
94087.7
127337
181405
140967
186425
162953
252048
114546
176767
130971
91572
139823
113852
132448
29520.7
69081.8
131579
85314.1
53722.5
98240.3
126597
200006
135852
172079
104914
90967
78607.5
140237
132359
131726
191317
166112
172446
219416
191796
191563
187448
159877
290421
295772
224490
246133
191967
175240
173302
159300
118469
149037
163891
158817
174070
161116
264295
229047
197859
254995
127031
166788
287532
125151
219937
96503.4
281415
213068
101066
98289.8
114101
163891
166322
127979
98313.4
129909
93088.7
89460.6
83101
104799
96140.1
104943
119991
105089
103887
205590
402430
71908
72827.3
174103
140972
324475
110260
114553
241291
146123
292425
121736
107835
152145
228695
97855
233690
278137
122923
235080
431460
400659
60729.3
155476
148967
176663
131927
165779
190388
244591
208822
233146
225155
218182
202310
156662
168905
182343
173829
172832
137315
123898
272890
182568
189699
94060.8
127531
193320
174022
235336
231342
211258
360447
108306
94018.9
236394
117402
246169
19623
34314.9
251905
81642
233830
26901.2
60277
124157
124794
85454.2
322949
197191
293949
343839
204424
375963
57267.9
84182.8
119649
120621
50176
88050.7
103547
249533
33909.9
42934.5
76071.8
27579.6
118313
26485
50807.5
54009.3
87618
91879.9
117154
93832.7
100936
179839
143070
190675
203032
291245
71669.4
144724
82299.2
157173
171752
148775
152278
159783
139362
163645
183300
196352
173519
155381
141022
208864
180308
177679
107493
122040
128619
133830
173176
161194
188269
182290
172452
152620
163889
208930
182699
219597
229596
169281
144411
179075
172778
304446
250394
384655
85177.2
134156
180033
154713
200110
159297
183819
157752
165828
186478
371713
203995
299897
133752
163420
188345
222806
229787
322502
176828
157438
252996
193966
136917
146433
134312
120086
165133
136859
158076
153830
218091
276906
149280
148874
136010
148841
146594
118718
81732.9
119103
123820
200673
172769
191652
164984
148291
165723
181266
122218
153416
154578
104877
160752
108080
126788
122574
128814
121357
176984
180815
139482
122926
119642
63847.5
130249
161480
132469
191481
155086
201408
156462
138115
142797
147552
155845
147438
158733
100868
119628
154322
73654.4
85544
107897
157260
126050
74915.7
140526
82181.2
82064.1
129121
71464.3
133250
167057
145607
138314
103025
118652
143822
125709
112575
137443
136901
316653
124578
151464
138087
125078
130218
121504
119493
181306
143819
142954
145848
167516
106651
128985
84053.8
152340
162742
211013
224160
271628
290439
265976
134783
132409
155128
111912
97807
61074.1
107802
237589
119024
134668
95650.8
146042
153247
253597
310283
243013
160636
211249
139522
203207
207194
101065
133007
107224
118385
319366
102504
233897
124636
119232
141731
90817.5
682758
436697
205150
266967
138592
148461
369460
140189
173448
151277
100296
99431
108901
122208
89783.4
120747
156939
237909
128758
255285
239995
124062
124941
124991
121913
SCALARS SignedDistance double 1
LOOKUP_TABLE default
594.381
739.358
431.276
434.897
639.482
860.449
668.147
885.425
661.599
586.623
782.729
450.793
460.588
612.584
675.767
922.5
581.836
579.695
616.479
570.969
532.135
544.448
672.954
686.302
665.195
648.801
655.885
560.185
1220.96
750.887
961.909
1001.83
457.294
556.224
436.738
440.227
520.138
508.305
520.985
671.404
570.557
677.367
564.153
549.969
677.701
497.596
478.171
451.782
718.462
639.934
717.268
646.33
561.39
867.477
772.23
650.752
692.415
780.195
834.86
657.233
686.455
572.269
607.917
866.502
770.794
416.758
475.971
747.358
450.426
583.724
523.671
589.259
575.089
608.921
626.376
521.497
517.673
712.283
864.492
695.796
688.717
639.777
653.899
627.614
699.523
983.661
543.144
627.74
630.128
940.013
720.253
485.051
543.61
590.536
546.911
499.018
585.676
507.889
814.607
975.944
840.63
722.969
635.607
1196.21
694.704
782.14
948.042
806.233
737.49
727.143
997.492
690.666
406.912
437.006
446.842
576.136
572.436
563.847
508.346
501.222
579.6
514.109
508.984
507.788
439.351
525.542
507.647
477.192
496.979
490.442
493.532
510.391
590.962
529.164
671.984
558.113
454.862
645.826
621.37
649.434
631.039
666.618
478.406
623.133
603.859
601.596
671.807
631.384
624.342
673.468
432.944
626.204
653.403
704.715
675.808
644.271
732.073
686.05
1259.53
661.63
669.092
710.702
598.194
648.893
607.658
506.141
548.161
501.436
665.663
614.807
601.682
465.52
450.99
441.558
554.583
476.837
556.061
449.301
457.792
461.573
737.449
718.065
746.893
636.245
673.279
696.479
684.573
683.878
631.849
511.851
571.871
584.598
596.767
729.752
741.036
643.664
559.944
595.814
600.776
894.127
794.792
828.609
882.763
956.345
765.085
823.158
692.914
716.101
756.357
632.487
670.417
600.029
839.406
736.601
750.932
738.563
731.373
670.289
861.083
623.757
538.33
660.507
668.976
758.27
734.444
699.687
662.885
551.659
617.682
596.355
607.624
584.47
688.938
852.936
1026.49
732.016
782.614
578.23
598.496
800.145
550.383
530.942
512.511
846.854
552.792
540.187
518.459
559.145
472.348
461.493
437.729
756.964
637.78
528.164
614.43
735.246
544.167
502.142
644.887
567.946
630.28
519.127
542.747
568.203
547.013
522.511
516.992
358.225
459.656
398.79
549.504
528.03
530.055
537.944
482.001
792.65
658.899
529.639
615.429
562.634
591.419
570.367
503.387
487.423
450.454
491.946
546.922
496.886
536.464
593.902
543.042
467.944
901.854
824.558
871.223
990.448
711.032
750.893
691.934
727.602
721.694
679.858
688.223
693.851
718.649
736.715
613.196
622.723
605.146
666.9
646.45
660.443
648.957
640.066
651.549
700.99
672.204
681.274
750.195
852.226
699.255
715.108
751.785
865.039
846.649
487.328
516.682
684.153
549.247
643.151
523.106
601.74
593.305
631.481
656.803
715.774
627.936
648.038
756.191
711.081
664.196
724.632
777.369
822.327
555.677
490.187
546.843
569.801
488.776
498.142
498.503
675.285
598.197
528.632
562.867
552.756
576.205
562.769
424.314
475.642
425.183
543.228
579.237
632.531
643.76
590.817
644.66
515.012
522.551
514.538
702.652
855.501
699.321
696.73
861.996
857.9
1058.68
874.694
737.696
790.63
729.329
890.093
717.744
722.031
649.918
697.401
693.452
1018.22
698.708
681.34
765.849
704.632
1275.19
803.669
849.276
1004.92
919.044
1105.29
646.759
702.325
766.229
773.272
795.086
743.339
738.759
863.994
795.171
1047.65
699.191
633.346
690.551
705.959
676.62
998.615
782.409
807.928
709.396
739.893
946.964
747.24
808.616
814.124
433.1
421.666
445.994
429.801
413.887
403.171
432.347
453.303
452.957
579.609
605.247
608.342
568.633
581.476
567.89
499.919
545.06
522.528
587.125
524.992
587.238
480.591
494.732
455.87
551.922
530.571
544.724
500.756
549.805
511.976
504.107
498.807
475.859
498.162
515.152
511.81
512.587
589.547
484.1
443.745
426.205
478.475
472.11
456.692
508.531
460.013
442.074
515.503
585.585
517.133
460.449
505.721
480.843
479.34
504.654
532.896
483.598
471.809
532.542
515.921
480.083
470.578
496.698
458.425
492.37
466.277
472.998
482.235
513.454
517.01
606.362
612.885
633.114
550.187
569.57
582.355
593.678
585.527
532.472
515.838
487.101
507.814
492.781
441.039
521.95
522.138
499.512
517.472
562.033
675.115
618.492
662.016
662.797
665.919
618.681
589.015
635.095
640.343
668.7
661.692
657.55
635.868
659.734
636.705
640.538
548.566
619.287
606.427
427.187
485.511
438.98
418.821
452.687
638.415
647.473
616.361
630.364
668.677
611.758
606.886
604.889
613.006
497.517
574.388
669.898
603.577
611.582
549.846
607.885
516.657
558.197
579.358
596.384
641.35
639.522
605.507
649.053
630.371
607.289
597.851
735.917
682.511
711.819
706.414
686.651
613.044
655.039
641.134
435.864
381.537
398.23
471.812
555.071
642.517
679.695
708.069
639.391
479.34
551.428
613.081
502.274
548.936
684.673
490.246
627.266
581.352
700.621
642.216
671.931
726.547
771.775
452.267
691.29
582.492
549.525
563.941
652.81
675.882
688.651
598.5
617.275
695.934
747.524
786.767
695.437
710.068
706.489
724.889
775.443
695.563
798.101
702.504
674.594
688.401
1039.62
1010.93
1120.4
993.571
1366.98
714.654
812.07
766.544
615.811
615.72
621.06
650.126
678.506
665.868
690.178
678.389
650.198
633.682
935.784
707.667
736.597
983.239
754.292
668.727
688.067
691.65
