# vtk DataFile Version 4.2
vtk output
ASCII
DATASET POLYDATA
POINTS 642 double
-2288.93 5657.64 -659.964
46.9738 5587.18 -606.785
-2301.61 677.011 -30.3857
1305.88 699.131 83.7104
-677.367 1410.18 2101.01
-1492.82 4425.76 1464.25
-495.587 1828.16 -1721.81
-1448.26 5161.71 -2308.32
1382.13 3044.91 -864.89
1607.99 2955.12 1118.81
-2728.59 4163.43 -1184.39
-3229.48 3560.04 1553.13
-3112.89 4849.38 915.211
-2318.71 4204.34 1963.57
-1855.7 5156.93 1131.62
-98.7282 5225.72 273.945
-693.091 6108.7 -318.827
-102.975 5712.37 -1173.05
-1969.52 5973.1 -1805.23
-2075.7 4954.45 -2374.67
-2949.97 5256.71 -1372.37
-3374.37 3501.64 246.781
679.477 3655.88 1562.31
1182.73 4009.29 682.427
-1925.16 2188.02 1758.54
-458.33 2972.12 2117.09
-2624.04 1650.97 -545.697
-2738.61 1706.6 895.556
-1020.35 3988.05 -1575.32
-1695.34 2677.19 -1405.28
911.526 4455.22 -458.604
238.63 4615.34 -1122.69
2086.62 1597.21 835.558
775.157 2285.15 1946.52
494.073 775.177 1476.56
-1726.43 727.088 1546.21
-531.933 617.716 -59.0005
-1410.53 909.152 -1286.43
394.341 926.316 -1202.05
630.617 2246.04 -1470.19
1924.03 1711.51 -521.287
1913.2 2577.27 146.988
-2757.23 5162.17 472.775
-2510.13 5118.27 1112.32
-1904.65 5275.59 636.642
-2825.17 3929.71 1879.05
-2787.79 4579.99 1619.24
-3246.04 4218.04 1312.67
-1741.21 4892.1 1371.86
-2159.71 4771.79 1611.43
-2013.72 4356.04 1817.28
-919.034 5886.64 61.6124
-1135.09 6024.31 -396.42
-451.814 4521.86 1022.38
-1098.29 5570.57 543.319
-290.906 5931.07 -472.618
-559.779 5859.03 -33.2975
-256.49 5609.19 -136.154
-1331.78 5979.58 -1054.65
-2139.47 5957.78 -1495.07
60.1896 5727.79 -852.001
-341.13 6055.12 -838.542
-1735.34 5589.91 -2138.08
-964.589 5829.62 -1533.03
-584.697 5465.07 -1594.32
-2580.25 5846.34 -1665.36
-2693.3 5612.84 -1074.93
-1841.69 5111.17 -2480.61
-2113.75 5556.99 -2293.44
-2870.03 4958.5 -1461.56
-2729.2 5234.9 -1936.46
-2464.51 4556.21 -1985.63
-3039.52 4970.37 -52.9789
-3130.29 3534.13 -417.82
-3051.22 4423.75 -447.962
-3352.94 4297.67 570.21
-3353.63 3551.47 918.132
675.944 4364.3 781.613
549.362 4628.2 123.757
150.008 3899.33 1548.17
441.761 4208.37 1225.8
1445.96 3584.38 921.672
1026.23 3906.19 1150.41
1156.77 3389.23 1437.91
-2088.07 3745.28 2065.42
-900.123 3551.41 1939.07
-2788.35 3270.57 1779.82
-2272.5 3589.76 2122.77
-371.455 2363.13 2230.86
-1362.4 3137.39 2115.13
-1274.23 1445.92 1956.56
-3329.69 2647.72 464.028
-3069.93 2828.75 1163.02
-2822.56 2623.32 -828.892
-3166.12 2626.32 -210.23
-2611.63 1024.25 520.985
-2816.94 1621.6 30.0919
-2636.88 1031.37 -406.447
-2031.19 4276.03 -2092.43
-2007.59 3435.97 -1505.1
-1497 5156.55 -2233.62
-1938.16 4742.97 -2408.59
-1016.44 1932.86 -1648.96
-1605.73 3313.08 -1757.73
-506.329 2381.22 -1729.96
-0.609574 5238.55 -1347.22
-591.509 5263.24 -1741.25
411.613 5288.08 -800.946
289.982 5346.11 -945.486
954.662 3345.74 -1079.82
187.931 4472.21 -893.637
1320.47 3519.99 -643.619
1853.02 1066.79 509.698
1487.09 1125.23 1130.51
1008.87 681.701 778.819
1297.63 2606.2 1542.54
1610.34 1779.71 1302.61
2040.54 2143.7 932.849
-160.08 1122.94 1914.07
698.837 1418.56 1778.39
192.184 1880.03 2119.46
154.869 621.841 991.452
624.781 624.135 28.0993
-1007.22 1064.56 2061.81
-621.787 682.991 1711.76
-1677.52 611.046 98.4292
-1301.13 624.848 969.378
-2033.61 631.139 971.919
89.403 627.393 -805.505
843.448 796.385 -620.545
-1987.65 759.663 -600.989
-1145.15 618.547 -860.199
-74.7375 1313.02 -1462.36
-618.582 870.893 -1304.37
-1090.93 1201.51 -1456
1204.65 1292.39 -830.2
1758.96 1137.9 -292.931
52.5395 2046.85 -1677.78
601.528 1568.76 -1432.93
1794.46 2046.31 -560.781
1254.56 1937.26 -1044.77
1050.08 2669.83 -1224.72
2165.15 1569.93 111.602
1757.73 2861.27 -367.321
2144.92 2089.52 -146.237
2260.98 2119.89 425.197
1883.44 2653.52 612.453
147.275 2628.65 2149.74
751.306 2984.7 1870.32
150.099 3218.03 1984.75
-2388.41 984.733 1377.59
-1928.91 1251.24 1873.23
-2347.62 1713.58 1450.3
-1493.47 1295.52 -1382.06
-2218.44 1135.16 -816.853
-2304.52 2090.61 -1024.18
583.945 2961.45 -1401.26
-24.2561 2733.94 -1731.54
-615.092 3819.37 -1839.51
1596.66 3552.08 413.155
1558.26 3533.38 -199.874
1186.5 4026.69 38.622
-2507.45 5295.15 -75.9147
-2452.7 5241.46 611.604
-2002.28 5442.82 87.1372
-2831.63 5024.39 1032.35
-2657.29 5162.03 843.51
-2962.87 5035.88 729.034
-1933.35 5247.36 930.327
-2326.68 5219.82 933.143
-2175.28 5157.62 1137.4
-3065.43 3730.95 1738.1
-3083.66 4050.57 1649.88
-3273.62 3846.28 1477.41
-2563.96 4393.37 1850.54
-2818.79 4264.27 1795.06
-2567.79 4103.85 1969.45
-3202.95 4580.67 1108.91
-3042 4431.15 1482.78
-2984.05 4736.76 1286.87
-1717.99 4724.28 1470.18
-1883.8 4657.01 1605.54
-1851.87 4475.83 1665.85
-2009.1 5000.84 1378.28
-1938.61 4848.06 1502.68
-1796.72 5039.4 1260.95
-2145.64 4276.45 1913.41
-2079.71 4572.04 1735.27
-2257.75 4508.65 1819.86
-2672.07 4902.61 1378.82
-2459.76 4709.61 1655.6
-2333.25 4971.32 1406.5
-1380.93 5763.7 -14.4838
-1700.34 5751.96 -628.599
-1367.99 5381.39 557.148
-1370.79 5623 245.876
-853.374 6113.58 -283.962
-954.59 6002.99 -99.6231
-817.289 6047.3 -137.111
-1070.43 4308.86 1158.29
-1490.14 4867.41 1206.51
-682.899 5466.73 273.888
-1092.16 4971.13 692.355
-227.451 4735.54 682.964
-1588.47 5052 1089.85
-1461.88 5197.83 933.532
-113.247 5783.04 -552.786
-257.889 5783.32 -272.96
-95.5538 5612.6 -365.133
-628.137 6006.36 -162.707
-445.277 5915.72 -197.53
-516.82 6055.08 -404.12
-332.656 5457.53 60.6114
-393.77 5751.82 -75.3429
-508.505 5694.58 55.708
-912.999 5669.44 275.497
-717.509 5738.61 146.672
-750.651 5910.66 22.4247
-1702.29 5910.73 -1194.56
-2224.39 5818.31 -1176.9
-767.421 6119.93 -547.504
-1259.18 6007.33 -729.056
-2075.27 5994.12 -1619.35
-1881.11 5918.58 -1425
-1877.06 5937.23 -1565.16
64.4473 5683.75 -811.455
-94.4449 5853.83 -731.186
-207.837 5931.48 -1006.27
-133.704 5918.96 -847.269
8.18638 5758.34 -977.746
-313.124 6016.28 -687.155
-486.757 6096.58 -625.46
-1604.21 5295.39 -2281.67
-1323.78 5525.77 -1928.29
-1115.63 5162.13 -2018.41
-1661.42 5862.43 -1766.57
-1482.13 5740.11 -1851.75
-1857.65 5820.89 -1987.7
-243.281 5617.32 -1348.81
-785.07 5711.06 -1592.44
-397.249 5838.58 -1273.15
-596.395 6115.61 -863.99
-485.283 6025.39 -1092.09
-1121.34 5931.61 -1327.54
-2429.71 5842.71 -1315.31
-2483.77 5674.26 -874.185
-2226.41 6007.06 -1765.99
-2343.17 5967.59 -1553.24
-2858.68 5456.56 -1242.97
-2658.47 5757.18 -1427.88
-2835.24 5565.47 -1527.11
-1704.98 5139.81 -2426.97
-1790.06 5290.48 -2406.99
-2117.57 5233.05 -2394.27
-1900.64 5281.21 -2483.39
-1902.05 5095.95 -2522.3
-1910.17 5605.25 -2249.64
-2036.85 5843.09 -2083.69
-2716.57 4509.26 -1478.88
-2710.21 4766.36 -1727.83
-2559.9 4443.48 -1763.21
-2919.23 5260.83 -1663.19
-2853.79 5139.54 -1695.06
-2942.66 5130.37 -1440.58
-2313.44 4762.91 -2192.67
-2613.58 5008.84 -1963.57
-2435.86 5131.02 -2164.9
-2395.79 5765.95 -2040.45
-2486.65 5405.98 -2180.86
-2742.39 5520.94 -1878.84
-2689.94 5324.47 -398.738
-2943.83 5162.68 -840.862
-2859.02 5250.57 -635.169
-2941.48 5073.06 198.697
-3151.42 4893.05 530.987
-2766.9 3669.95 -874.484
-2852.15 4361.11 -931.38
-3327.65 3919.74 22.7789
-3133.21 3995.83 -429.135
-3291.93 3480.91 -123.821
-2929.95 4808.91 -1039.56
-2958.15 4974.38 -1052.72
-3342.98 3877.12 1194.54
-3333.94 3556.44 1313.62
-3307.44 4617.69 780.159
-3339.06 4299.5 968.566
-3446.59 3540.29 504.763
-3414.55 3906.84 719.79
-3437.44 3911.5 402.805
-3092.48 4757.47 -241.864
-3343.18 4316.13 202.39
-3308.64 4656.05 357.349
172.782 5135.83 -254.472
157.056 5302.29 -450.783
180.116 4645.39 741.603
-101.611 4813.82 382.47
992.897 4203.67 549.589
712.558 4429.61 500.477
937.221 4212.81 738.451
-302.639 4019.95 1488.2
1.83975 4181.98 1345.59
572.238 3974.9 1385.25
331.001 4088.36 1376.62
433.472 3769.78 1560.31
183.187 4310.98 1189.54
272.151 4447.35 981.092
1529.3 3340.3 1038.17
1336.34 3502.99 1189.9
1362.66 3250.72 1324.36
1129.01 3964.74 919.344
1246.08 3756.14 1050.64
1336.11 3800.11 801.204
922.021 3526.52 1517.08
1107.03 3668.23 1294.42
882.227 3809.96 1359.7
572.244 4302.6 1017.27
738.257 4080.14 1204.12
863.56 4155.06 981.531
-1833.37 4004.19 1887.77
-1175.53 4067.32 1401.27
-2122.12 3943.25 2029.28
-2005 4009.87 1957.69
-560.142 3358.09 1971.37
-1604.23 3887.49 1918.88
-1361.56 3518.39 1711.93
-3041.04 3428.21 1703.73
-2855.66 3582.3 1856.36
-2226.96 3302.78 2020.13
-2545.85 3460.6 1974.58
-2356.22 2942.08 1754.69
-2571.84 3749.44 2008.49
-2309.16 3851.04 2078.5
-537.329 1797.87 2113.33
-758.835 1806.43 2080.04
-870.856 1404.84 2102.91
-977.642 2869.09 2107.05
-695.722 2535.67 2144.31
-373.602 2633.36 2165.58
-1695.12 1576.8 1793.55
-1214.44 2088.86 1966.02
-1747.95 2713.44 1894.24
-2103.13 3639.7 2128.36
-1953.32 3523.34 2125.58
-1891.15 3483.06 2127.8
-3278.79 3245.35 1138.97
-3216.21 3314.64 1426.49
-3362.15 3059.78 346.273
-3310.24 3136.64 665.007
-2978.43 2229.36 1002.52
-3234.32 2699.02 806.078
-3137.27 2303.7 645.337
-2745.46 3057.97 -919.725
-2953.6 2983.9 -657.501
-2972.45 2233.13 -457.48
-3000.1 2588.95 -561.86
-2820.92 2270.06 -708.1
-3145.84 3023.96 -295.021
-3288.19 3024.2 10.2158
-2485.76 810.662 240.768
-2650.17 1008.23 -37.6028
-2494.02 816.676 -247.793
-2857.34 1685.5 445.498
-2728.16 1226.01 219.063
-2594.32 1252.42 758.487
-2614.14 1198.98 -471.681
-2709.7 1187.68 -226.858
-2694.08 1564.96 -295.071
-3313.55 2630.56 156.48
-3091.57 2227.38 -83.779
-3181.88 2276.26 287.76
-2305.03 4288.22 -1936.82
-2412.55 3869.27 -1154.55
-2071.43 4553.65 -2250.99
-2222.7 4383.84 -2081.2
-1922.9 3179.02 -1474.38
-2110.26 4092.59 -1926.06
-1971.95 3853.67 -1808.42
-1451.18 5165.52 -2319.61
-1738.3 5131.89 -2443.04
-1811.38 4611.89 -2189.13
-1803.29 4967.56 -2308.28
-1501.54 4740.08 -2090.99
-1900.3 5095.05 -2523.94
-1925.73 4869.25 -2448.1
-761.029 1886.08 -1698
-755.195 2219.8 -1734.92
-485.908 2066.99 -1729.73
-1451.47 3140.69 -1790.1
-1006.92 2509.42 -1708.39
-1251.43 2095.39 -1541.55
-549.464 2901.82 -1740.2
-893.47 2705.84 -1741.95
-1630.34 3541.73 -1816
-1898.28 4453.13 -2279.17
-1868.31 4316.46 -2236.54
-1806.25 4082.34 -2130.65
-536.985 5250.5 -1712.24
[...]
POINT_DATA 642
SCALARS Mean_Curvature double 1
LOOKUP_TABLE default
0.000602751
0.000629632
0.00189682
0.00189778
0.000666256
0.00317679
0.00184112
0.0163344
0.00121562
0.000970889
-0.00330168
0.00276743
0.00162848
0.00136734
0.00150912
0.00631495
0.00364048
0.00156475
0.0033108
0.000274908
0.00224615
-3.47872e-05
0.000812908
0.00127771
0.000342124
0.000337907
0.000478412
0.000175602
-0.00261337
-0.000571304
-0.00993066
-0.00413767
0.00200651
0.000846782
0.0018156
0.00187996
1.6987e-05
0.00212921
0.00235077
0.000335766
0.00242302
-0.000994695
0.00105311
0.00133561
-0.00138783
0.00124908
0.00145868
0.0011723
0.00149357
0.00134191
0.000791714
0.00169131
0.00115958
0.000715796
0.00658076
0.00144354
0.00184227
0.000439509
0.000477415
0.00136038
0.00704487
0.00314678
0.000204829
0.00151596
-0.000347095
0.0026598
0.00132536
-0.0128495
0.00221975
0.000171657
0.00231505
0.00166952
0.00132824
0.000520851
-0.000796242
-2.14681e-05
-7.3463e-05
0.000296837
-0.00103538
0.000768019
0.00124788
0.00100027
0.0012488
0.00093266
-0.00238122
0.000819074
0.00110809
0.0030298
0.00155037
-0.00249188
-0.000809229
0.00174456
-0.000236316
0.00138098
0.000677922
0.0018913
0.000228657
0.00397272
-0.000680811
-0.000470938
-0.00452463
-0.0156504
0.00147015
-0.0147142
-0.000145886
0.00533179
-0.0144882
0.00419559
0.00189128
0.000665245
-0.0043283
0.000828362
0.00148343
0.00137127
0.00109229
0.000507843
0.000538763
0.00275636
8.62278e-05
0.000718222
0.00071123
0.000188351
0.000181193
0.0026295
0.00227577
-0.000302403
-8.14218e-05
0.00150438
0.00157174
0.000678648
0.000464473
0.00137547
0.000253631
0.00199265
0.000442083
0.000144179
0.00166236
0.000985092
0.00205108
0.000220116
0.000657015
0.000836138
0.00108457
0.00133505
0.00293779
0.00450843
-0.000328007
0.000521752
0.000726459
0.00120259
0.00226961
0.00410967
-0.000391959
0.0020186
0.0024997
0.000649597
0.000194069
0.00193596
-0.00320239
0.000986409
0.00115992
0.000780502
-0.000609314
0.000439647
-0.000133375
0.00151759
0.00134386
0.00154456
0.00247922
0.00125483
0.00118844
0.00185675
0.00128589
0.00212235
0.00164517
0.00156761
0.00182739
0.0013302
0.00108291
0.00134383
0.000465296
0.00167138
-9.28121e-05
0.00171556
0.00174497
0.00275183
0.00208328
0.0014208
0.00189831
0.00154176
0.00141124
0.00123794
0.00058167
-0.000615336
-0.00177439
0.00130508
0.00308462
0.00188998
0.00335765
-0.00294131
0.0011587
-0.000515401
-0.00165697
-0.000748094
0.000182442
0.00189259
0.000938951
0.00177649
0.000482088
0.00215373
0.00195519
0.00136532
-0.00491785
0.00188987
0.00258423
-0.00494268
0.00322721
0.00273751
-0.00142739
-0.000200436
0.000939264
0.00192537
0.00298471
0.00180427
0.000995056
-0.000544365
0.00176484
0.00227225
0.00337492
0.00273608
0.00140136
0.0026464
-0.000348022
7.21875e-05
-0.0051795
0.00121868
0.00118568
0.000987888
0.000963998
0.00197412
0.00125578
0.00167802
0.00207868
0.000541792
0.00132711
0.00131888
0.00348979
0.00337367
0.00124077
0.00196923
0.00242666
0.00130845
0.000929802
0.00170306
0.00610579
0.00179378
0.00267663
0.00329682
0.00186816
0.000964436
0.00107532
0.00405645
0.000784308
0.00283214
0.00123105
0.000379354
0.000513069
0.00219197
0.00252344
0.00242196
0.000727889
0.00174148
0.0010417
0.000961107
0.00139633
-0.000580097
-0.000816043
0.000464351
0.00125469
0.00105253
0.000831131
0.00134253
0.000760845
0.00208232
0.00203746
0.00104313
0.00198363
0.00069426
0.00149677
0.000673656
0.000856299
0.00185628
-4.86592e-05
0.00178493
0.000404736
-0.00321083
0.000835607
0.00134237
0.0013018
0.00154677
0.00041678
0.000994432
0.00104353
0.000238765
0.000695789
0.00314642
0.0010523
0.00121214
0.00111065
0.00101706
0.00114472
0.00114401
0.000680278
0.00101832
0.00115432
0.00105016
0.00129349
0.00115106
-0.00151212
-0.00243364
0.00273134
0.000699375
0.00207166
0.00726665
-0.00337171
0.00201844
0.00125134
0.00132689
0.000927831
-0.00104251
0.0012046
0.00196593
3.00218e-05
-4.14292e-05
0.00118277
0.00164326
0.000577712
-0.000100887
-0.00118533
-0.000138054
-0.000488329
0.0076765
-0.00243444
0.00851372
0.000972364
0.00188063
0.00112913
-0.000470743
0.000900014
0.00103018
0.00059187
0.00164683
0.000457319
0.00115841
0.000948508
0.00111235
-3.82823e-06
0.000550059
0.00149838
0.00147972
0.00208597
0.000398065
0.000776165
-0.000870263
0.00149673
0.00183158
-0.000508945
0.00169236
0.000616451
0.000982712
0.000908625
-0.00188911
0.00109496
0.00173929
0.000586357
0.00358138
-0.001438
0.0245307
0.011758
-0.0014107
-0.00257192
0.00159929
0.017332
-0.00942798
0.000807091
0.0010433
0.000231781
0.00534375
-7.30279e-05
0.000485395
0.000250693
0.000604512
-0.000195286
-0.00938942
0.0234611
-0.00477111
-0.0161411
-0.0547544
0.00188265
0.000541303
0.00268007
-0.00960308
-0.00584536
-0.00217569
-0.00805945
0.00729616
-0.00365196
-0.0485526
0.00962074
0.00164681
0.00107951
0.000788559
0.00109882
0.0133722
0.000938923
-0.00143206
4.26475e-05
0.000317232
-0.00077807
0.00361511
0.000412672
-0.00041255
0.000768684
0.00118113
0.00174695
0.00164996
0.00130024
0.00199965
0.00190086
0.000559417
0.00113137
0.000595432
0.000232517
-0.000100668
0.000115217
-2.62163e-05
0.00085185
0.00122912
0.00109722
0.0015635
9.49247e-05
0.00178777
0.000349424
0.00117146
0.000562502
0.00126333
0.00118505
0.000801201
0.000331724
0.00167938
0.000558958
6.29516e-05
0.000452896
0.00116574
0.00160154
0.000688039
-1.07957e-05
7.11596e-05
2.79406e-05
0.00301515
0.00279888
0.00216778
0.00179748
-0.00043247
0.00100357
0.00120782
0.000522088
0.00208797
0.000799586
-7.98181e-05
0.0009141
-9.68726e-05
0.00221558
-0.000394229
0.000585072
0.00103027
0.000888037
-0.000217762
0.000932814
0.00125004
9.4569e-05
0.000387673
0.00181289
0.00220545
0.00189534
0.0027283
0.00105894
0.00222258
0.00168672
0.00132935
0.000195047
-3.38407e-05
0.00100737
0.00053151
0.000856824
0.000947481
0.00026145
0.000739135
0.00319124
0.00115303
0.00152293
0.00163785
0.00127075
0.000711274
0.000893882
0.00130129
0.000967904
0.000478003
0.00164898
0.00111406
0.00105423
0.00135273
0.000628649
0.000929501
-0.000302525
0.000421523
0.000307877
0.000990215
0.000598865
0.000258899
0.000800538
0.00098301
-0.000560631
0.00227819
0.00108487
0.000381985
0.00070395
0.00113846
0.00137955
0.00056164
0.00122142
0.00178123
0.00165309
0.00159829
0.00121068
0.000996843
-0.000416404
0.00132469
0.00105528
0.000683547
0.00062682
0.00336464
0.00167864
0.00116001
0.00165928
0.00339426
0.00011392
0.000819781
0.000686632
0.00157745
0.00358812
0.00297246
0.000964455
0.000947747
0.000160961
0.00236808
0.000243455
0.0010187
0.000748646
0.000761134
0.000806315
0.000977183
-0.000471945
0.00127558
0.000126262
0.000110899
0.000543231
0.0018476
0.000655524
0.00164188
0.000733357
0.00240251
0.00186209
0.00217718
0.00165365
0.00271414
0.00154051
0.00224195
0.0015829
0.00222686
0.000438001
0.000356829
0.001081
0.000658925
9.23814e-05
0.003149
0.00163933
0.00195344
-0.000205129
0.00279004
0.00338521
-3.19249e-05
-0.000942284
0.00213626
0.000881312
0.00371594
0.00109372
0.00190582
0.000552701
0.000124019
0.000449473
0.00133781
0.000678203
0.00197482
-0.00170081
-0.000573445
0.000920805
0.000460352
0.000774004
0.00102068
0.000542906
0.000563964
2.45434e-05
0.000258224
0.0011281
0.000296956
-0.00734303
-0.00158039
-0.00127147
-0.00137759
-0.00904259
0.00121695
0.00155631
-2.95872e-05
0.00123917
0.00113682
0.000727257
0.00116146
0.000795728
0.000953474
0.00266918
0.000880848
0.0011184
0.00111831
-0.000975488
0.00030131
-0.000142678
-0.00371587
-0.00684085
0.00132301
0.00104779
0.000430267
SCALARS CoVolArea double 1
LOOKUP_TABLE default
248243
63218.4
102121
100107
69733.8
186214
73214
27315.5
87306.3
122094
171864
63777.4
108501
77603.3
100549
204771
43698.9
72033.3
63801.5
91159.3
87871.9
148833
100869
73582.8
284948
219949
154093
235691
556145
397294
118462
250665
113973
161459
138936
137270
392632
95124
90210.8
114733
77254.5
159328
159771
98734.7
225837
102808
120426
125373
53844.5
77923.7
60983.2
91905.7
189331
378117
163974
60766.3
39994.2
154151
195381
73962
23501.5
52031.7
101420
154997
181559
113030
143389
11358.4
109762
137708
83589.8
104203
167812
261650
241965
140374
154517
141915
169186
137429
73857.1
75702.2
76663.9
85914.9
109912
273240
163113
73823.6
133530
271867
174981
141707
206836
110438
154486
142324
216769
66036.7
74371.4
336860
82942
43606.5
135687
101245
129873
25672.5
83937.6
69784.2
41969.7
107879
259785
86859.5
130675
165327
151290
173179
135068
74741
170819
184315
134908
221518
195372
119550
137592
181940
250675
134040
133864
155600
125929
141862
152898
131719
79112.7
181258
115041
113326
92642
113877
128852
127542
127033
133316
46265.5
38083.2
133632
104539
97401.5
86568.5
102699
60034.8
202171
71042
103799
226524
128485
89303
446186
96769.6
75278.3
176498
255849
210151
399715
109949
96319.3
107820
139583
105441
89811.2
88838.2
118834
97703.3
98253.6
109307
93733.9
115322
125427
124614
112494
48279.9
141186
74943.4
54205.1
53513.7
53581.5
54726.1
76971.7
128036
112661
109361
280360
378702
171479
166841
67737.6
90604.5
34009
324605
256007
303813
405838
382154
120787
87896.7
56656.1
54984.2
88185.7
42090.2
50573.2
51528.2
102363
44873.6
82016.9
85778.6
65979.8
44976.7
176189
187074
127543
113925
40488.1
66351.9
117788
36867.1
40856.9
64993.4
38914
47614.6
46784.5
55058.5
103625
196673
140338
127892
123762
74005.3
105753
151462
112246
152959
127714
216378
92888
154526
89951.5
62139
113581
87620.3
98569.8
19797.5
49395.4
94069
50774.6
28942.4
68655.9
90094.4
179553
117344
165250
71271.6
72125.2
56257.4
116763
112698
109165
147678
128582
130197
192672
154834
159899
159378
131044
270636
294365
205627
227297
174881
156261
146124
137908
96073.5
122569
142179
138420
153992
137739
235746
207700
167419
277561
114131
132906
329010
109122
229151
77040.2
282614
200988
82604.4
80794.4
99966.8
146244
141780
106241
79382.8
109043
73870.5
71712.4
66023.7
88451.1
78458.6
85635.6
95621
83266.1
82425.7
210061
405404
48372.2
59677.3
169389
137322
357303
87925.6
92764.8
225779
126081
283974
95905.7
76393.1
135744
223911
83159.6
232228
257580
106348
246142
449417
402911
31289.4
139901
139854
158085
109280
141411
172895
224636
189354
210612
210632
202685
181499
135840
143340
166616
154351
146140
109376
95582.2
256721
165129
177576
72279.1
105338
177214
145667
212102
203613
206491
404982
79904.3
71192.9
211614
87081.5
230531
11134.2
25360.8
281569
89754.3
235792
21059.6
35155.2
106235
107636
71501.6
323328
169449
287569
363180
202347
433070
41566
60983.5
120502
70916.1
16376.3
62264.7
77988.2
284768
19313
39926.8
70982.8
11836.4
94255.6
11131.7
13324.4
28145.7
61167.7
74145.4
99564.5
75631.8
115580
182541
127487
155157
210146
287225
45405.5
149262
75491.7
133873
148464
125722
123096
135190
113090
137214
159423
170100
156000
140998
123129
193391
167377
159919
82238.5
104241
102459
113449
151758
144792
164814
161894
149534
133056
143036
191222
154556
200114
205704
151943
123803
150589
152615
300164
242472
384820
59827.1
106113
149220
125522
173005
133404
152471
136404
143801
161386
369740
190975
295706
109425
146620
166568
195394
205456
314219
153944
134960
238708
176665
111315
119919
106548
96092.3
145933
108171
132058
127328
205113
265268
127987
132885
117256
123735
128184
102011
55928.2
96572.3
96351.2
170579
140995
159453
143149
125369
142090
160141
96887.9
132388
131039
84849.3
143616
90524
113386
109306
114790
98304
161027
168695
119970
101342
109309
46947
112707
147864
114444
163974
128479
176589
131933
106457
116773
122005
125526
126661
145447
85500.8
101960
133474
61021.4
57658
88935.8
134926
93892
50727.1
131759
66677.6
69585
93988.4
44471.4
96892.9
144880
123302
118671
82498.1
100243
123757
108761
95305
117969
114192
296293
106249
131688
129110
109655
105394
100330
96120.1
155098
111160
115314
121092
143863
76382.4
112851
65264.9
115175
128757
187808
202480
250446
277493
252673
96188.6
105742
125497
96441.3
63985.3
42394.3
98697.6
249068
91245.8
117517
66629.9
115800
115113
251936
315484
226388
136762
193762
115772
204402
211076
82803.9
116859
90387
102930
336340
88258.3
192829
110934
101056
123193
109936
767349
522908
216060
209221
117615
106497
377671
118771
154378
132762
80855.3
82633.4
89371.4
93042.3
73610.9
98681.2
135131
243225
116399
265028
220199
91265.9
100711
107640
105448
SCALARS SignedDistance double 1
LOOKUP_TABLE default
421.442
501.142
287.399
285.265
451.803
599.832
457.367
742.177
436.869
395.656
566.646
291.908
304.585
415.002
462.095
809.552
387.67
379.301
456.385
416.186
367.318
373.208
455.437
462.935
458.239
434.946
489.941
399.904
1046.35
545.558
745.241
898.383
309.218
372.355
290.825
290.799
349.675
341.806
357.293
458.366
394.345
479.383
379.215
366.428
477.763
335.213
316.417
301.945
478.182
435.535
483.661
441.427
381.776
632.464
688.124
436.642
464.499
544.88
697.981
468.593
469.171
389.156
426.534
752.363
618.7
292.514
316.839
569.928
314.937
395.772
357.471
395.41
408.319
413.926
443.035
355.188
353.285
472.39
659.536
462.784
450.108
427.687
430.309
418.639
464.789
738.201
361.643
461.436
434.133
820.633
511.74
332.194
380.329
392.675
371.053
378.505
428.31
393.413
629.526
818.956
650.075
567.012
420.007
979.285
466.37
537.326
783.378
692.861
550.791
487.732
805.992
458.64
267.505
287.515
291.558
385.924
390.451
376.708
352.304
332.064
399.983
348.203
342.973
368.621
293.4
355.273
342.243
334.77
339.288
327.758
328.472
348.471
398.168
354.702
465.516
383.934
297.942
425.13
440.609
441.27
422.984
445.445
327.131
416.237
397.535
410.371
470.903
430.868
419.967
450.197
304.477
444.547
492.736
475.183
493.32
435.275
502.201
467.453
1131.97
443.581
444.148
477.463
415.034
449.632
405.613
343.406
376.475
340.82
459.501
427.149
401.07
310.183
299.043
286.568
382.24
318.746
384.93
299.762
301.959
303.171
494.9
484.09
508.552
423.358
450.114
465.818
465.644
466.922
431.892
346.145
387.549
392.648
406.256
581.069
540.367
436.736
376.158
396.255
400.684
637.758
549.34
576.832
627.472
768.279
523.2
657.186
469.613
488.615
520.273
419.013
447.073
395.151
593.258
502.628
525.205
538.234
502.655
448.19
750.375
445.357
363.001
495.239
477.495
574.394
543.97
468.36
444.964
362.206
422.319
409.032
403.904
393.617
546.849
734.22
938.462
587.621
661.839
407.74
396.99
691.869
362.349
358.391
333.038
722.982
391.064
370.76
396.297
405.331
314.685
307.081
291.43
612.995
487.398
379.764
483.562
575.409
370.248
351.872
436.81
397.23
425.741
359.789
359.49
386.936
366.521
351.969
342.782
230.757
317.007
269.688
367.155
365.623
356.132
369.636
318.292
614.416
464.163
354.696
424.932
383.016
396.903
385.963
345.875
336.329
309.997
341.524
382.051
339.224
368.847
420.939
374.204
310.134
694.837
591.376
676.76
810.446
475.968
512.84
460.504
482.243
480.022
452.116
455.136
470.984
481.051
506.5
407.155
409.515
399.654
444.639
428.552
437.769
433.32
422.973
427.491
466.947
444.118
453.687
523.502
605.565
474.549
483.979
554.233
683.691
595.926
318.738
355.681
503.044
372.986
463.074
353.194
420.252
397.565
437.527
458.727
517.707
426.269
440.762
544.721
527.516
487.575
518.291
618.061
665.983
389.569
324.937
382.065
406.967
326.836
332.627
336.64
469.071
404.07
349.473
378.507
363.84
389.361
384.942
276.187
341.07
278.129
384.817
421.184
482.114
450.816
417.881
480.392
346.842
357.641
347.897
503.947
656.46
516.229
512.615
675.6
690.467
909.158
733.573
604.601
549.727
489.262
662.322
581.125
555.118
438.676
471.332
466.112
913.827
469.751
457.032
535.823
478.302
1132.55
655.72
745.953
891.639
747.418
923.858
447.891
517.691
634.536
625.186
525.353
515.073
509.39
768.053
658.655
923.511
499.614
430.41
459.401
469.381
446.817
913.53
525.055
554.438
475.963
494.063
754.02
529.612
567.272
550.259
294.119
279.576
310.085
284.2
273.756
263.76
282.342
310.506
306.021
384.231
415.474
418.172
387.203
392.947
378.738
328.19
367.556
355.617
418.679
367.314
398.134
334.83
327.668
301.551
368.323
354.762
366.109
345.69
370.381
349.627
340.361
339.525
329.076
338.077
346.316
346.863
344.617
409.181
347.588
298.999
277.287
342.089
318.776
301.921
345.372
313.803
299.813
347.116
422.365
347.925
323.883
343.521
322.27
326.136
342.473
367.344
320.278
313.459
364.909
347.792
308.137
317.783
326.631
310.962
335.596
308.507
320.884
315.097
345.695
347.582
402.929
418.704
430.842
371.591
388.223
393.92
432.091
419.934
360.419
353.792
318.99
337.467
333.885
292.739
350.303
353.376
335.69
350.755
382.117
461.317
412.836
455.729
451.239
448.17
425.455
394.905
424.811
429.739
448.493
468.913
452.037
428.884
437.411
423.931
425.556
357.968
414.756
410.635
285.582
320.492
291.024
279.378
306.202
427.016
444.503
412.238
425.081
472.023
404.425
410.146
406.538
419.136
343.714
398.171
469.932
399.562
405.027
376.303
408.125
361.91
373.582
383.797
408.331
441.166
435.775
401.955
432.439
421.659
407.229
404.053
511.682
458.828
481.623
482.816
461.877
409.015
438.451
425.152
288.717
242.417
257.604
336.725
406.107
448.511
466.151
496.077
482.25
342.636
385.997
461.095
331.785
376.931
514.888
348.731
438.04
418.95
496.613
446.965
459.402
505.435
558.174
294.505
483.192
440.929
396.497
418.958
449.049
453.067
479.548
400.149
415.407
482.181
546.862
576.76
462.322
481.566
474.517
480.488
526.504
468.384
572.756
472.085
448.006
462.063
857.343
785.535
945.445
780.458
1162.82
479.064
598.722
520.262
410.514
410.142
417.739
434.672
456.519
443.629
458.243
450.745
433.717
424.922
755.872
475.316
495.647
908.659
555.273
448.12
461.339
465.177
