# vtk DataFile Version 4.2
vtk output
ASCII
DATASET POLYDATA
POINTS 642 double
-3147.18 7643.93 -105.236
1939.69 7491.46 -80.3106
-3193.3 -882.074 -46.1036
2154.13 -887.697 -39.4163
-537.756 783.294 4189.73
-605.715 5884.44 3925.67
-526.331 890.068 -4089
-581.814 6047.46 -4265.8
3489.77 3391.75 -2494.9
3584.68 3378.91 2466.46
-4668.79 3487.16 -2619.93
-4807.11 3438.1 2594.07
-4588.76 5931.34 1502.26
-3015.03 4954.53 3936.54
-2055.78 7317.04 2367.9
864.123 7184.45 2196.83
-530.076 8333.48 -63.0754
949.73 7368.44 -2462.75
-2124.02 7581.19 -2620.11
-3069.18 5028.76 -4145.06
-4648.65 5995.14 -1643.13
-5495.67 3435.75 -29.6035
1824.96 4842.17 3735.3
3250.33 5725.7 1395.4
-2970.78 1876.38 3873.37
-523.695 3396.64 4692.6
-4521.18 922.966 -1552.81
-4552.15 908.529 1504.6
-597.238 3508.61 -4660.07
-2874.77 1969.12 -3808.43
3169.27 5733.2 -1458.44
1774.6 4908.14 -3771.45
3589.51 877.97 1516.42
1913.84 1895.8 3881.06
1039.08 -660.22 2472.7
-2112.8 -701.086 2499.06
-527.809 -1507.03 -48.097
-2058.28 -595.23 -2516.06
1006.77 -586.11 -2507.59
1845.86 1927.47 -3850.28
3526.7 916.107 -1568.58
4360.55 3358.01 -30.86
-3982.92 6899.72 750.756
-3451.68 6822.83 2049.85
-2659.64 7604.41 1218.58
-4047.9 4234.37 3413.22
-3976.21 5543.57 2881.24
-4867.09 4736.96 2134.63
-1342.31 6730.1 3296.42
-2632.92 6301.05 3321.73
-1824.56 5521.58 4119.15
-1305.48 8031.34 1185.22
-1869.15 8131.34 -81.5681
162.481 6583.65 3137.71
-557.59 7436.88 2391.98
774.789 8098.66 -72.0323
235.996 8002.48 1175.64
1464.28 7512.47 1123.98
-1375.74 8098.4 -1363.97
-2750.71 7840.86 -1399.44
1540.26 7608.55 -1304.47
262.22 8105.84 -1337.35
-1373.78 6958.89 -3610.31
-573.285 7601.33 -2647.88
200.546 6794.98 -3435.69
-3555.96 6982.2 -2242.99
-4039.39 6991.5 -900.674
-1855.12 5639.83 -4418.15
-2714.93 6459.66 -3581.58
-4871.42 4785.15 -2248.85
-4056.05 5620.98 -3063.22
-4022.79 4282.66 -3502.79
-4768.78 6061.82 -54.776
-5235.51 3443.59 -1362.52
-5227.32 4754.83 -867.102
-5296.69 4752.41 777.71
-5344.92 3439.41 1332.39
2185.06 6568.34 1901.8
2633.6 6652.38 665.248
686.442 5397.72 3931.67
1440.33 6108.51 3119.57
3567.04 4630.68 2005.12
2702.83 5380.89 2695.3
2813.82 4163.26 3241.43
-1837.87 4222.53 4561.4
-574.08 4679.09 4422.86
-4025.85 2655.49 3388.68
-3142.28 3440.33 4131.08
-523.785 2067.95 4592.8
-1797.24 2655.4 4483.83
-1821.8 1242.8 4213.97
-5257.69 2125.37 764.543
-4808.44 2156.12 2103.21
-4717.02 2160.47 -2129.66
-5211.05 2136.81 -830.989
-4025.45 -127.09 772.008
-4747.84 786.823 -47.6228
-4022.99 -122.77 -850.454
-3106.2 3484.39 -4199
-3854.06 2716.18 -3328.99
-580.806 4812.3 -4768.6
-1838.66 4294.86 -4758.05
-1759.12 1326.13 -4104.79
-1769.17 2732.78 -4447.79
-522.56 2113.15 -4529.33
1461.92 6246.49 -3300.71
634.826 5494.49 -4115.94
2695.05 6770.38 -826.818
2231.07 6722.84 -2057.71
2726.96 4141.4 -3230.13
2630.44 5423.03 -2767.72
3498.59 4607.23 -2044.94
3023.5 -156.216 773.477
2464.43 -65.2786 2092.69
1685.42 -942.069 1267.4
2888.86 2610.28 3294.59
2932.91 1286.2 2872.85
3790.95 2103.58 2105.57
270.294 -58.5822 3460.07
1594.16 481.645 3370.94
752.974 1270.28 4184.81
307.042 -1352.93 1286.99
871.916 -1393.45 -38.8842
-1337.93 -82.7498 3489.83
-531.644 -878.347 2623.11
-1919.77 -1405.5 -37.5271
-1367.68 -1352.99 1289.07
-2739.57 -967.886 1290
297.549 -1312.29 -1353.06
1654.04 -883.554 -1329.29
-2718.47 -910.326 -1337.47
-1348.36 -1316.88 -1356.81
260.92 35.2264 -3433.73
-530.637 -777.929 -2635.11
-1321.03 14.2338 -3461.54
2397.43 8.65402 -2121.56
2994.21 -127.346 -845.039
714.879 1342.33 -4113.41
1535.18 553.534 -3366.56
3716.1 2116.64 -2134.46
2829.56 1348.36 -2862.29
2786.72 2632.04 -3282.89
3796.05 745.42 -38.3272
4088.04 3364.87 -1320.97
4231.61 2096.62 -844.692
4271.56 2088.89 771.975
4175.7 3363.28 1272.7
739.762 2616.43 4525.24
1997.16 3400.44 4014.82
719.007 4162.69 4437.34
-3517.38 -90.1548 2118.7
-2678.72 441.251 3428.44
-3971.32 1260.48 2903.37
-2589.93 543.265 -3383.7
-3452.7 -8.85524 -2132.54
-3835.82 1357.32 -2838.07
1916.72 3396.97 -3954.01
689.838 2640.29 -4442.22
610.391 4235.88 -4381.2
3980.57 4635.99 731.337
3954.58 4630.08 -801.919
3418.21 5833.43 -37.4317
-3569.13 7271.03 325.354
-3356.45 7308.77 1004.89
-2898.9 7620.9 568.565
-4064.03 6422.27 1801.15
-3752.11 6896.48 1421.67
-4323.47 6448.72 1140.07
-2380.08 7502.96 1814.24
-3081.68 7257.78 1653.5
-2773.65 7125.02 2237.76
-4468.92 3840.9 3038.31
-4514.16 4497.44 2817.37
-4882.42 4092.1 2390.7
-3533.32 5268.59 3458.05
-4048.26 4907.28 3183.77
-3558.98 4608.81 3714.55
-4770.09 5355.97 1836.38
-4463.88 5164.22 2537.84
-4332.4 5765.81 2222.86
-977.324 6334.27 3651.32
-1593.87 6166.15 3755.75
-1213.25 5732.21 4062.2
-2362.48 6858.65 2880.53
-1996.68 6554.48 3346.57
-1706.62 7060.9 2864.16
-2430.32 5260.03 4071.75
-2244.75 5933.97 3760.36
-2851.56 5659.34 3679.46
-3757.81 6227.58 2500.61
-3337.9 5963.63 3149.49
-3075.99 6604.77 2727.9
-2265.62 7902.57 562.066
-2519.5 7908.67 -111.026
-1686.6 7670.56 1777.14
-1984.01 7830.17 1203.11
-1196.02 8289.02 -60.126
-1582.84 8139.44 573.311
-930.845 8249.84 574.977
-228.343 6246.75 3547.71
-605.313 6718.33 3272.45
168.331 7385.09 2323.59
-212.822 7056.3 2786.17
534.202 6901.31 2670
-963.399 7109.89 2875.98
-1302.09 7415.51 2420.61
1381.88 7837.14 -75.8636
1157.14 7860.55 549.144
1725.01 7540.37 533.133
-135.687 8234.43 571.716
511.34 8101.08 565.085
130.861 8266.39 -68.1486
1175.32 7398.14 1686.5
874.399 7800.24 1170.9
572.424 7657.45 1722.71
-925.16 7800.46 1827.47
-149.705 7788.03 1810.38
-533.463 8092.34 1203.92
-2350.78 8056.12 -763.795
-2974.85 7783.89 -760.28
-929.422 8286 -705.797
-1641.53 8166.78 -727.72
-2455.45 7752.8 -2020.98
-2100.1 8076.05 -1422.43
-1789.81 7948.63 -2030.66
1772.31 7603.02 -693.251
1189.4 7925.16 -699.193
625.474 7794.56 -1927.92
919.64 7904.69 -1337.37
1264.43 7531.36 -1903.24
531.928 8162.68 -709.237
-123.774 8288.76 -710.15
-977.885 6531.07 -3982.16
-591.697 6925.59 -3590.65
-206.756 6449.59 -3885.8
-1370.2 7673.81 -2699.78
-993.465 7349.52 -3178.89
-1760.22 7316.19 -3156.14
603.747 7122.98 -2971.75
-178.67 7237.9 -3077.7
223.842 7545.52 -2578.64
-524.336 8185.49 -1361.26
-126.693 7926.92 -2008.77
-975.411 7914.77 -2035.13
-3442.22 7476.11 -1164.63
-3618.32 7364.42 -504.095
-2868.68 7334.45 -2461.9
-3180.04 7454.87 -1836.17
-4389.89 6535.18 -1284.23
-3851.86 7042.21 -1585.66
-4153.85 6530.77 -1963.44
-1218.08 5877.86 -4392.63
-1628.42 6346.32 -4074.01
-2926.54 5765.68 -3917.5
-2300.38 6075.7 -4035.08
-2475.64 5345.85 -4316.4
-2055.26 6757.1 -3643.05
-2441.34 7069.94 -3143.92
-4803.32 4142.96 -2461.49
-4503.39 4550.05 -2917.78
-4391.31 3889.94 -3089.21
-4407.37 5838.11 -2382.12
-4525.14 5222.74 -2689.52
-4814.73 5401.7 -1970.65
-3576.67 4668.49 -3856.73
-4096.22 4971.65 -3337.86
-3606.29 5349.57 -3659.98
-3176.4 6770.95 -2959.17
-3430.05 6080.55 -3372.2
-3855.52 6345.47 -2695.33
-4029.78 6966.65 -80.1316
-4744.2 6060.31 -866.479
-4437.51 6546.4 -488.41
-4415.12 6510.83 352.969
-4737.63 6029.27 742.595
-4949.77 3467.32 -1992.81
-5062.1 4135.89 -1818.6
-5413.83 4095.65 -436.589
-5271.29 4107.33 -1127.97
-5409.38 3433.28 -703.28
-5108.04 4796.77 -1581.37
-5010.49 5397.41 -1284.65
-5172.96 4093.67 1762.49
-5127.66 3438.33 1984.87
-5004.24 5367.47 1159.64
-5130.4 4761.99 1471.11
-5473.21 3439.56 649.068
-5356.96 4098.83 1059.9
-5460.46 4099.98 378.708
-5068.88 5433.76 -468.539
-5340.45 4766.46 -31.9922
-5096.5 5431.17 375.648
2078.4 7130.29 884.628
2309.11 7128.27 282.948
1530.86 6899.07 2067.33
1801.81 7030.39 1495.64
2988.18 6198.85 1056.67
2445.5 6639.08 1306.86
2753 6184.49 1669.79
46.4809 5635.89 3925.96
449.064 6022.57 3581.52
1654.82 5506.3 3466.27
1085.23 5778.6 3556.89
1270.69 5137.05 3871.1
844.518 6367.92 3160.13
1175.92 6648.3 2696.21
3611.74 4020.8 2257.61
3241.4 4409.28 2657.13
3226.48 3786.58 2888.2
3022.92 5578.63 2070.97
3168.56 5027.64 2376.85
3445.6 5199.07 1714.63
2343.74 4515.34 3524.24
2789.97 4792.91 2997.36
2301.05 5131.77 3253.38
1846.39 6377.25 2546.83
2101.49 5780.02 2947.9
2480.58 6013.86 2328.29
-1223.73 5134.05 4346.99
-593.76 5306.84 4196.74
-2434.44 4601.84 4301.22
-1845.04 4884.08 4384.09
-547.351 4048.87 4607.97
-1227.41 4474.78 4556.69
-1207.54 3826.21 4629.54
-4457.08 3039.39 3028.4
-4092.89 3438.92 3453.54
-3097.42 2682.72 4052.76
-3615.55 3044.05 3804.99
-3515.64 2263.37 3662.41
-3624.19 3839.04 3817.75
-3113.8 4205.01 4085.19
-541.774 1403.24 4442.41
-1167.03 1609.68 4480.69
-1179.57 992.614 4257.56
-1165.41 3029.15 4651.49
-1146.8 2328.58 4574.41
-511.671 2737.85 4716.57
-2435.5 1508.51 4127.1
-1799.61 1903.61 4349.38
-2402.98 2245.99 4221.24
-2499.45 3838.71 4410.77
-2501.57 3054.3 4392.07
-1856.98 3449.92 4627.97
-5148.79 2790.47 1753.45
-4861.17 2793.46 2378.99
-5434.02 2776.51 371.431
-5330.2 2781.71 1052.87
-4706.67 1509.78 1811.58
-5079.69 2123.96 1448.73
-4951.56 1509.35 1141.74
-4701.94 2805.56 -2373.13
-5021.26 2785.87 -1763.87
-4896.04 1517.35 -1204.78
-5007.39 2131.9 -1498.17
-4638.57 1537.13 -1850.71
-5265.18 2779.03 -1100.49
-5410.96 2775.5 -438.756
-3644.77 -549.409 367.946
-4071.11 -174.333 -46.5344
-3643.95 -546.452 -455.219
-4691.89 822.331 734.578
-4440.38 289.812 363.296
-4339.17 349.223 1157.31
-4320.05 371.876 -1221.23
-4440.77 293.397 -454.204
-4700.86 810.936 -819.99
-5312.24 2109.82 -35.8316
-5033.25 1443.61 -443.386
-5061.9 1441.13 367.043
-4001.81 3497.88 -3493.08
-4299.46 3099.04 -2997.34
-3114.08 4255.64 -4215.67
-3589.96 3879.95 -3899.67
-3396.34 2345.43 -3624.19
-3525.46 3108.72 -3837.42
-3030.08 2763.96 -4056.46
-577.514 5431.61 -4567.53
-1218.24 5241.97 -4682.74
-1223.42 3928.02 -4820.03
-1217.76 4568.76 -4823.12
-615.258 4199.63 -4791.22
-1871.53 4979.09 -4681.64
-2457.5 4669.58 -4506.82
-1154.47 1090.07 -4133.97
-1137.66 1709.68 -4378.09
-522.883 1493 -4360.3
-2338.04 2346.74 -4174.81
-1751.77 1982.14 -4319.2
-2327.03 1602.95 -3986.34
-531.28 2783.84 -4610.22
-1140.98 2382.44 -4531.4
-1186.99 3122.92 -4614.3
-2495.74 3888.48 -4532.47
-1852.68 3524.09 -4709.92
-2478 3123.06 -4433.61
429.882 6175.77 -3829.26
25.2492 5786.27 -4245.89
[...]
POINT_DATA 642
SCALARS Mean_Curvature double 1
LOOKUP_TABLE default
0.000562045
0.000513501
0.000464357
0.000486967
0.000597811
0.00060123
0.000467369
0.000592274
0.000419018
0.000316117
0.000515923
0.00052858
0.000433714
0.000438044
0.000435718
0.000281095
0.000468976
0.000441726
0.000486642
0.000555637
0.000480541
0.000437778
0.000396624
0.000417389
2.77164e-05
0.00031077
0.000476151
0.000334754
3.51125e-05
7.10771e-05
7.37932e-05
0.000531942
0.000440677
0.000330441
0.000435283
0.000479251
0.000231776
0.00043162
0.000446832
0.000421195
0.000441338
0.000494873
0.000426756
0.000433431
0.000391679
0.000430889
0.000420835
0.000413898
0.000440848
0.000446015
0.000478397
0.000457653
0.000311874
8.55506e-05
0.000308445
0.000431312
0.000455998
0.000508084
5.897e-05
0.000569892
0.000424626
0.00045996
0.000485264
0.000167712
0.000229727
0.000434396
0.000432229
0.000441999
0.00043724
0.000546665
0.000424436
0.000360417
0.000322971
0.00039335
0.000213382
0.000447018
0.00045357
0.000410947
7.91008e-05
0.000354703
0.000419306
0.000422729
0.000412172
0.00041428
0.000560355
2.95559e-05
0.00045781
0.000440729
0.000262809
9.98545e-05
0.000440488
0.000434172
0.000285921
0.000424118
0.000407857
0.000338976
0.000321722
0.000458759
0.000472388
-4.49039e-05
0.000702342
0.000515581
0.000342179
-4.94638e-05
0.000441148
0.000428619
0.00014894
0.000604469
0.000440389
0.000391548
0.000378861
0.000413637
0.000438589
0.000421828
0.00039359
0.000299456
0.000467504
0.000430406
0.000329246
0.000390275
0.000440442
0.000462732
0.000450203
0.000397889
0.000469868
0.000437291
0.000322303
0.00044007
0.00046048
0.000334724
0.000441166
0.000453524
0.000364273
0.000410111
0.000489386
0.000364958
0.000435146
0.000341444
0.000417384
0.000599608
0.000375702
0.000314025
0.000444134
0.000289899
0.000495009
0.000477941
0.000419176
0.000365281
0.00042038
0.000442232
0.000444227
0.000430327
0.00058683
0.000425239
0.000425907
0.000232734
0.000391791
0.000347244
-2.22086e-05
0.000407259
0.000433192
0.000399461
0.000150305
0.000445754
0.000132981
0.000434744
0.000428528
0.000433776
0.00045826
0.000432489
0.000426696
0.000448214
0.000426298
0.000438567
0.000418787
0.000428027
0.000433829
0.000426442
0.00042227
0.00042339
0.00046211
0.000458715
0.000464977
0.000436339
0.000447376
0.00043279
0.000434001
0.000411872
0.000446101
0.000424648
0.000422523
0.000428847
0.000253205
0.000185761
0.000132
0.000232418
0.000470484
0.000465257
0.000476042
0.000112271
0.000525815
0.000531583
0.000242085
4.83489e-05
0.000428472
0.000359599
0.000431986
0.000444602
0.000473113
0.000469476
0.00044208
0.000430938
0.000499821
0.000464204
0.000486675
0.000437732
0.000472114
0.000480486
0.000607384
0.000446039
0.000405592
0.000149201
0.000407024
0.000759797
0.000646575
0.000511845
0.000497585
0.000452459
0.000434606
0.000442205
0.000480072
0.000489636
0.000482148
0.000514334
0.000382671
0.000597221
0.000559179
0.000534133
0.000436417
0.000187524
0.000447462
0.000471321
0.000462933
0.000113938
0.000528911
0.00040551
0.000426755
0.000416768
0.000514637
0.000525414
0.000425384
0.000438899
0.000502417
0.000431364
0.000376217
0.000336636
0.000474563
0.000416245
0.000441515
0.000430392
0.000427185
0.000408362
0.000566625
0.00047633
0.00038546
0.00054507
0.000506136
0.000442788
0.000433621
0.000439129
0.000318554
0.000355658
0.000354841
0.000307051
0.000459227
2.87176e-05
0.000270457
0.000344424
0.000239176
0.000375465
0.000550673
0.000494494
0.000439803
0.000465664
0.000438341
0.000417657
0.00045304
0.000307849
0.000444217
0.000268127
0.000457591
0.000404348
0.000324526
0.000489186
0.000204814
3.15112e-05
0.000411385
0.000325914
0.000423207
0.000180725
0.000350303
0.000412779
0.000398092
0.000385996
0.00040645
0.000371232
0.000382778
0.000418996
0.000393087
0.000411387
0.000422001
0.000421275
0.000406747
0.000417309
0.000402494
0.000418203
0.000416954
0.000419474
0.000497422
0.00019473
0.00040202
0.000474111
0.000288315
0.000525822
0.000183591
0.000467999
0.0004606
0.000409963
0.000452647
0.000232
0.00042666
0.000408716
0.000468186
0.000644785
0.000503135
0.000233195
0.000199738
0.000592819
0.000769101
8.97941e-05
5.88918e-05
0.000401705
0.000469608
0.000667619
0.000454907
0.000480679
0.000385082
0.00028165
0.000276483
0.000357307
0.000364973
0.00027936
0.000360288
0.000309883
0.00041161
0.000307784
0.000360068
0.000427406
0.000412839
0.000407025
0.000456099
0.00023455
0.000474942
0.000485305
0.000477093
0.0004795
0.000474604
0.000456795
0.000320794
0.000407927
0.000512712
0.00018
0.000371649
0.000430929
0.000202896
0.000550596
0.000455439
0.000423755
0.000550954
0.000613198
0.000566841
0.000612588
0.000723007
0.00039415
0.0003136
0.000405486
0.000468915
-1.354e-05
0.000411331
0.000254164
0.000227599
0.000379303
-3.4974e-06
0.000414283
0.000670547
0.000556481
0.000177278
0.000424632
0.000435789
0.000426944
0.000546771
0.00040598
0.000405103
0.000517594
0.000432468
0.000485001
0.000442481
0.000465711
0.000437317
0.000436617
0.000421852
0.000400994
0.000422025
0.000502129
0.000195669
0.000163758
0.000392755
0.000294373
0.000183473
0.000435312
0.000469789
0.000431304
0.00043343
0.000432217
0.000430878
0.000434311
0.000437933
0.000443541
0.000393737
0.000407674
0.000372238
0.000300469
0.000483343
0.000526652
0.000414538
0.000430971
0.000311465
0.000450711
0.000484445
0.000441611
0.000446732
0.000361611
0.00033821
0.000428668
0.000411151
0.000395518
0.000390014
0.000400014
0.000361824
0.000430143
0.000400087
0.000378355
0.000461862
0.00045809
0.000430653
0.000391018
0.000257152
0.000367416
0.00022801
0.000445477
0.00047815
0.000359042
0.000450774
0.000296075
0.000427941
0.000354583
0.000409584
0.000338365
0.000352659
0.000202612
0.000561205
0.000259391
0.000448497
0.000516003
0.000437388
0.000339957
0.000429774
0.000411893
0.000381092
0.000457663
0.00036782
0.000378117
0.000415335
0.000397833
0.000454673
0.000472708
0.000497726
0.000442873
0.00033589
0.000362994
0.000347211
0.000354375
0.000371606
0.000431739
0.000349924
0.00042514
0.00036259
0.000456129
0.000441425
0.000392424
0.000473422
0.000387222
0.000404673
0.000342064
0.000447759
0.000426662
0.000388422
0.000356668
0.000444552
0.000451561
0.000440661
0.000380211
0.000371883
0.000439545
0.000426626
0.000447244
0.000456288
0.000443589
0.000280702
0.000373208
0.000327409
0.000446845
0.000495028
0.000419382
0.000346694
0.000389727
0.000444954
0.000376828
0.00037154
0.000372131
0.000436312
0.000429874
0.000431391
0.000444798
0.000435081
0.000278552
0.000495773
0.000538805
0.000520139
0.000370827
0.000540041
0.000414806
0.000550422
0.000336983
0.000422676
0.000435524
0.000506298
0.000534612
0.000553038
0.000397353
0.000510745
0.000424723
0.000316052
0.000411044
0.000400723
0.000448166
0.000407365
0.000386909
0.000398956
0.000411458
0.000401366
0.000420339
0.000330705
0.000425498
0.000427534
0.000380631
0.000409244
0.000420657
0.000432895
0.00044044
0.000441623
0.000447007
0.000446367
0.000447002
0.000460122
0.000328756
0.000567107
0.000433613
0.000429923
0.000466368
0.000395133
0.000480892
0.00016228
7.37269e-05
0.000531605
0.000438221
0.000440097
0.00043997
0.000532614
0.000427199
0.000438069
0.00053212
0.000618635
0.000464851
0.000480154
0.000461333
0.000439624
0.00036181
0.000395836
0.000222555
0.000428654
0.000383775
0.00032283
0.000378991
0.000489993
0.000463544
0.000415753
0.000390743
0.000417065
0.000396265
0.000290858
0.000437544
0.000411337
0.000408665
0.00038559
0.000370226
0.000693269
-9.5054e-05
0.000439749
0.000671276
-0.000171629
0.000386848
0.000427526
0.000370613
0.000332299
0.000257473
0.000299869
0.000428118
0.000413089
0.000404756
0.000419424
0.000427592
0.000356094
0.000286105
0.000394426
0.000423202
0.000285199
8.53819e-06
0.000332728
0.000436326
0.000424448
0.000425274
SCALARS CoVolArea double 1
LOOKUP_TABLE default
392167
346101
396900
395393
379121
350127
362629
372976
360131
373035
383415
385262
499652
487742
475146
453608
474498
469242
509155
506344
512206
494919
449831
441859
506649
472600
489296
509404
484470
495333
466599
446064
511485
489300
510952
515529
520777
493443
488850
455440
497641
473178
477004
511234
466837
472084
521100
478677
430214
502987
439051
496518
473622
452667
479805
443487
476726
424698
539755
472471
441125
498218
472389
531887
468992
549109
483256
480769
547480
469379
541730
470238
537205
477939
535889
525091
476261
472293
443965
429896
456454
435782
465822
436417
482696
456192
476716
507098
457079
530958
460784
523674
485799
459287
516385
486092
529329
476069
490215
473904
419947
490854
436734
518945
428454
475759
447382
420278
470992
429635
472974
424348
489347
536865
488134
461455
519076
465322
481356
526015
465576
534022
479525
485097
535677
480718
536684
488793
522208
480972
477451
524624
455755
516056
450636
520590
481996
439394
497661
442956
500394
440125
535980
449934
511727
522090
452835
493379
485352
470948
537214
530219
524379
492395
515061
506603
466060
468323
520154
483970
474862
475345
476420
475289
475440
513099
470184
467412
452350
461492
495290
464795
481214
467740
510547
478419
463206
471881
481764
517625
417060
440434
420046
490921
449264
435512
447310
454461
502209
575681
571536
565805
480718
470236
502404
470507
456966
463788
484445
432610
437342
468206
447747
442570
436976
488947
426818
436011
416267
483871
444946
442763
420751
428046
457218
546269
525506
537619
473190
461501
515106
484784
476712
477839
523527
424096
446222
491377
452398
439547
452717
493467
457037
472353
454292
521936
477925
472776
451673
479818
506336
580091
575688
598336
485434
471695
544043
498037
479880
493691
538548
462592
486354
536607
498018
479251
494347
540539
462540
475139
455877
537617
485173
472850
471253
484251
529483
611535
607920
610838
490217
531263
491646
488007
521362
474931
481977
522597
486559
467107
479070
525470
482760
464168
519193
484647
469651
483606
516052
598412
589292
588854
440641
416094
477467
447228
422709
442991
456160
436646
442949
457736
421920
417544
435504
468127
440974
439770
441040
459384
431051
420437
425472
432650
463040
515795
513169
512025
442574
435563
495749
442950
447603
446326
488664
460361
472301
518751
472010
478501
471354
506726
448477
459745
453771
505858
478135
445723
462131
482239
532013
552724
568351
551420
480275
462998
514562
483507
481976
486968
525883
463102
474282
513418
468601
459792
469907
508731
480055
486950
473421
529753
487008
477740
461959
479876
513949
576377
582489
585986
468747
461227
514614
465408
464784
456268
496943
441585
463207
477130
437954
428515
469194
514276
433630
436376
423832
520319
464280
449180
449200
461097
503696
552650
546512
552174
470896
446712
478623
455742
428124
448432
457872
410081
431632
466661
425547
425728
441213
478301
418034
431483
421814
459592
441852
428211
428999
439737
479011
528541
522239
519305
479693
493810
477350
530117
493871
483190
481799
494226
530625
450559
465217
448492
510637
468475
457912
473536
473271
523045
466109
480505
460420
525498
483677
477905
457544
476022
514081
590278
583192
592195
486660
471601
529601
489926
482977
489211
537787
466652
483589
533683
490256
485057
487841
530253
475982
490680
482761
537512
488237
481712
481820
489568
531263
595282
596903
597380
485014
473128
524775
484400
468194
481561
511975
470280
483530
514742
484144
471224
486301
526055
443113
460449
440839
508313
467022
452428
453566
465436
507272
582143
577890
579341
484965
475810
512293
482306
472136
481201
513003
433348
453241
481136
447067
427980
454963
500041
438235
447773
433220
504569
452978
453867
430714
447877
483049
569804
558970
570759
492700
525086
490271
493641
531646
439132
450048
493936
453853
444679
456808
515562
461761
446911
527400
477430
444554
462169
496393
588582
576937
592532
468000
495926
462735
456302
480135
455271
472525
443229
456592
493723
450497
477277
444349
430959
466788
544609
533221
537115
494610
532936
493963
490971
524587
485359
510684
475863
491472
531528
489588
523453
497670
495482
517785
596506
581844
587703
446535
505365
452894
439800
486008
480879
504686
476069
479707
514601
469368
504698
472291
463547
504248
565752
564374
554002
430928
466449
431095
429770
475059
433178
491204
431953
434533
468361
426580
494034
443185
436985
515511
518701
549850
544818
454619
492648
455958
442325
463981
441058
467712
429784
447814
489678
437643
461024
445934
447083
478549
536506
521576
520889
SCALARS SignedDistance double 1
LOOKUP_TABLE default
2694.45
3285.18
2196.65
2192.71
2576.06
3555.94
3061.18
2940.14
3249.84
2939.04
3004.76
2318.89
2353.91
2664.98
3017.52
3603.29
2712.89
2871.63
2194.69
2456.19
2222.99
2547.92
3299.83
3359.7
2850.11
3150.3
2704.79
2471.32
3616.45
3310.94
3509.31
3721.29
2196.27
2758.74
2250.15
2138.88
2546.76
2521.83
2565.28
3231.22
2520.28
2980.15
2572.79
2613
2918.05
2408.71
2428.56
2298.46
3257.38
2811.61
3103.05
2973.92
2731.3
3628.03
3411.47
2961.58
3146.73
3449.93
2636.7
2361.66
2952.01
2662.18
2477.64
2674.06
2957.14
1984.51
2351.01
2455.56
2051.8
2558.33
2142.56
2659.43
2466.36
2782.68
2621.31
2368.91
2406.95
3510.84
3552.63
3463.43
3484.39
3148.78
3307.21
3117.59
3077.58
3434.45
2573.77
2662.98
2869.35
3064.13
2777.04
2444.11
2495.57
2842.2
2630.81
2264.99
2499.11
2308.32
3038.39
3179.76
3313.84
3002.03
3204.77
3446.45
3367.37
3225.29
3402.61
3394.56
3209.16
3501.61
3595.09
3402.15
2091.1
2226.03
2212.12
2854.17
2517.59
2557.11
2391.78
2484.75
2672.58
2382.45
2425.77
2290.01
2217.24
2399.02
2383.05
2143.52
2445.6
2409.73
2361.1
2412.72
2852.58
2586.17
2804.8
2599.37
2267.42
3159.2
2884.07
2960.31
2949.92
3251.75
2199.67
3093.56
2641.67
2435.93
2919.41
2930.81
3033.92
3250.73
2135.3
2323.29
2599.34
2914.56
2589.72
3006.28
3495.04
3395.11
3719.19
3173.85
3261.83
3447.78
2698.98
2730.28
2860.58
2458.96
2573.76
2439.96
2949.45
2751.77
2802.68
2335.45
2322.93
2284.85
2520.02
2402.35
2513.2
2312.23
2339.56
2373.79
3402.75
3182.84
3335.96
2909.07
3031.11
3124.35
2868.96
2935.32
2725.73
2500.07
2588.51
2687.1
2869.44
2796.95
3101.85
2984.99
2676.87
2829.41
2804.62
3618.12
3521
3522.23
3586.29
3620.31
3382.59
3258.46
3118.87
3203.93
3368.17
2910.61
3042.44
2821.07
3537.98
3297.65
3396
3177.12
3275.56
3019.62
2717.04
2542.18
2608.54
2655.71
2203.53
2568.43
2458.27
3102.06
2940.39
2742.03
2793.89
2889.52
2785.56
2671.29
2690.77
2835.34
3029.29
2516.33
2650.89
2308.33
2895.1
2795.47
2743.98
2559.83
2620.39
2626.06
2321.08
2500.97
2017.14
2099.24
2252.96
2134.01
2053.76
2679.33
2423.44
2182.57
2217.71
2367.37
2199.01
2051.39
2778.97
2591.21
2820.02
2120.59
2330.65
2324.38
2537.74
2420.49
2270.11
1956.6
2036.55
1987.18
2572.34
2412.07
2462.35
2497.94
2383.23
2933.73
2826.79
2570.52
2705.26
2644.98
2644.63
2485.16
2313.08
2319.58
2312.02
2312.95
2438.03
2386.85
2434.86
2498.59
2451.45
2370.4
3558
3496.46
3579
3574.15
3456.67
3527.55
3438.98
3548.42
3547.87
3399.51
3474.46
3386.45
3553.07
3565.65
3039.63
3125.41
3025.2
3325.97
3229.91
3256.08
3209.41
3216.28
3299.76
3492.82
3399.44
3412.33
3338.45
3542.3
2850.15
3090.88
3293.27
3326.47
3282.04
2423.12
2446.1
2784.21
2609.5
2734.05
2519.65
2638.12
2823.7
2919.62
2637.56
3106.07
2966.09
3034.32
2867.52
2987.2
2958.42
2789.67
2881.58
3088.69
2436.14
2416.07
2500.13
2467.83
2480.31
2466.27
2461.81
2959.13
2836.86
2654.5
2728.24
2763.05
2728.48
2615.2
2191.33
2261.59
2204.99
2464
2359.52
2367.97
2483.2
2374.17
2566.49
2506.63
2558.5
2470.4
2965.4
3096.32
2725.31
2829.74
3273.12
3149.7
3334.85
3068.37
2863.79
3355.33
3139.46
3488.44
2726.87
2675.64
3123.03
3251.73
3205.15
3398.47
3320.06
3285.18
3456.09
3391.18
3519.12
2972.11
3289.11
3281.81
3167.5
3244.22
3035.87
3081.31
3547.2
3297.17
3440.9
3339.02
3156.2
3399.11
3271.59
3472.04
3067.91
3029.84
3379.65
3452.49
3328.05
3654.27
3587.86
3633.67
3470.18
3530.47
3550.7
3197.39
3386.14
3402.32
2128.7
2133.24
2174.15
2181.54
2131.14
2109.23
2222.38
2198.09
2260.64
2896.62
2748.26
2798.95
2695.31
2725.86
2802.35
2358.35
2533.11
2330.92
2469.03
2518.69
2632.09
2341.23
2429.4
2317.76
2715.8
2572.91
2632.02
2330.02
2513.74
2366.08
2283.56
2273.72
2251.73
2278.06
2515.35
2439.71
2503.98
2387.7
2301.16
2203.46
2203.54
2247
2290.38
2273.63
2264.63
2233.09
2189.69
2507.55
2363.46
2522.46
2096.1
2257.04
2225.69
2301.97
2255.53
2433.48
2371.56
2302.81
2508.18
2432.49
2469.03
2397.41
2459.84
2234.82
2332.87
2421.9
2380.73
2443.23
2430.14
2509.27
2958.19
2829.3
2964.91
2616.94
2721.99
2703.96
2639.54
2690.58
2545.19
2460.91
2481.27
2518.83
2347.64
2209.35
2579.79
2490.1
2371.44
2434.99
2555.75
3106.85
3013.12
3051.48
3037.43
3205.94
2869.16
2720.31
3133.3
3146.88
3252.32
2751.25
2948.56
2707.14
3245.36
3130.79
3098.23
2737.26
2907.37
2761.27
2142.56
2325.99
2206.92
2110.74
2147.7
3165.82
3039.01
2801.1
2908.23
3030.2
2788.18
2534.97
2732.17
2925.22
2291.27
2466.75
2936.19
2694.95
2708.61
2371.69
2491.38
2245.95
2787.14
2838.77
2806.86
2879.09
3043.91
2984.21
3176.66
3082.61
2939.83
2890.27
3470.42
3202.9
3343.41
3376.22
3290.08
2969.8
3138.67
3079.78
2182.4
2079.45
2091.12
2186.2
2281.86
2483.91
2592.1
2542.47
2346.42
2176.02
2525.52
2501.5
2533.52
2629.32
2742.24
2178.06
2400.8
2297.75
3014.05
2689.14
2830.11
3083.48
3200.53
2290.92
2618.14
2427.73
2443.36
2561.09
3007.69
3174.45
3085.71
2911.5
2861.57
2761.28
2833.42
3027.09
3382.59
3362.73
3379.66
3507.32
3625.48
3242.74
3475.79
3378.05
3283.95
3331.27
3423.26
3730.4
3650.06
3613.26
3657.43
3455.56
3534.65
3602.94
3029.02
3060.82
3041.58
3155.47
3271.88
3248.4
3400.99
3330.63
3170.72
3108.54
3537.26
3411.33
3516.92
3520.17
3481.71
3207.65
3354.41
3320.4
