# vtk DataFile Version 4.2
vtk output
ASCII
DATASET POLYDATA
POINTS 642 double
-2243.51 5491.08 -721.487
-132.096 5469.06 -701.887
-2250.69 804.016 -29.252
1256.44 818.278 100.364
-694.047 1415.8 1889.29
-1645.43 4313.35 1253.08
-488.878 1863.75 -1509.64
-1551.85 5192.66 -2166.55
1238.84 3000.6 -730.195
1453.06 2910.14 1020.02
-2603.55 4192.32 -1199.15
-3122.1 3581.28 1480.21
-3015.52 4758.94 875.531
-2327.72 4135.21 1786.75
-1878.93 4983.23 1026.07
-321.295 5102.73 223.724
-737.195 5940.41 -365.891
-202.363 5616.32 -1070.99
-2026.64 5782.69 -1771.38
-1997.16 4981.89 -2270.34
-2779.89 5233.82 -1368.96
-3204.37 3512.15 290.174
614.165 3546.3 1387.27
1031.01 3855.86 649.765
-1850.5 2215.08 1562.45
-449.795 2916.79 1922.66
-2450.07 1709.58 -445.91
-2584.98 1775.04 842.576
-962.877 4094.52 -1352.87
-1573.24 2749.69 -1210.32
845.459 4299.28 -473.126
116.719 4604.98 -1003.81
1967.14 1627.12 769.721
686.123 2297.52 1797.58
456.514 876.33 1398.71
-1715.76 836.456 1476.44
-532.004 783.177 -59.3433
-1362.85 991.802 -1173.25
355.298 1017.67 -1069.42
546.48 2246.93 -1265.83
1809.1 1728.35 -391.523
1699.21 2477.87 151.257
-2693.66 4999.5 457.924
-2473.94 4969.95 1045.02
-1833.05 5076.29 606.42
-2751.65 3912.48 1745.58
-2724.19 4501.46 1518.81
-3120.92 4179.95 1256.58
-1839.76 4772.28 1221.5
-2181.68 4644.3 1454.94
-2110.92 4267.73 1633.52
-908.984 5739.18 -71.3674
-1064.46 5869.55 -428.678
-480.033 4324.74 828.047
-1140 5369.33 346.178
-417.992 5793.88 -539.605
-656.062 5742.98 -171.926
-438.869 5498.53 -274.431
-1314.47 5750.95 -1024.67
-2139.33 5756.32 -1560.57
-76.1198 5597.27 -887.415
-418.097 5895.83 -829.693
-1813.05 5490.11 -2025.05
-1000.84 5666.79 -1423.48
-654.132 5366.66 -1460.79
-2504.69 5744.31 -1650.24
-2604.13 5507.95 -1112.75
-1897.72 5094.96 -2391.42
-2088.05 5487.36 -2168.13
-2702.66 5019.92 -1409.51
-2603.68 5262.73 -1832.58
-2347.11 4620.94 -1878.12
-2883.62 4874.68 -39.0091
-2973.52 3542.76 -315.934
-2855.9 4398.48 -404.556
-3186.19 4273.81 569.32
-3188.35 3575.22 896.724
573.353 4182.68 716.15
372.008 4497.43 121.568
127.005 3783.28 1367.73
385.221 4057.56 1093.49
1291.32 3479.25 849.492
913.998 3781.49 1046.43
1047.03 3308.35 1296.74
-2112.34 3718.37 1970.36
-911.249 3456.17 1779.15
-2720.09 3338.82 1642.7
-2238.39 3611.06 1924.97
-342.139 2356.54 2031.9
-1398.63 3075.77 1923.26
-1206.69 1391.42 1747.66
-3176.58 2681.87 444.463
-2928.22 2887.82 1077.92
-2690.32 2639.63 -709.369
-3005.68 2651.07 -141.211
-2472.25 1079.72 492.214
-2650.87 1680.49 60.3615
-2486.72 1082.13 -339.811
-1939.62 4361 -1976.33
-1860.35 3495.51 -1379.65
-1545.53 5223.68 -2202.83
-1911.36 4778.7 -2278.05
-950.263 1966.63 -1468.93
-1731.79 3227.43 -1712.11
-507.975 2382.16 -1509.51
-127.275 5288.99 -1260.72
-616.647 5280.44 -1617.4
279.598 5201.68 -796.121
175.792 5318.84 -832.533
842.347 3255.57 -902.902
-10.5618 4396.52 -853.796
1175.55 3415.27 -526.818
1771.79 1157.8 494.395
1425.99 1202.28 1047.81
972.254 809.244 749.583
1174.64 2593.49 1409.19
1510.45 1780.36 1148.71
1916.52 2098.85 832.174
-192.372 1189.68 1777.64
625.471 1468.12 1649.89
154.66 1905.94 1937.49
156.126 784.681 988.439
621.405 785.559 32.0879
-965.33 1122.35 1913.66
-634.508 806.786 1652.5
-1680.78 778.015 117.118
-1304.94 786.413 960.124
-1994.63 782.136 956.922
85.1656 784.375 -770.571
776.505 917.053 -558.957
-1939.97 881.117 -532.509
-1140.35 780.983 -835.714
-102.37 1389.77 -1294.86
-632.551 966.642 -1181.62
-1076.52 1234.95 -1243.53
1106.98 1372.28 -702.227
1675.85 1223.45 -230.402
1.89046 2071.8 -1488.06
546.668 1613.98 -1239.85
1655.55 1999.75 -405.256
1123.27 1949.38 -895.38
928.723 2648.59 -1057.44
2019.49 1617.49 137.424
1585.37 2815.2 -293.216
1990.86 2035.19 -70.1022
2089.96 2040.31 406.739
1675.8 2562.9 594.847
115.077 2606.56 1950.33
661.318 2920.14 1703.23
122.108 3106.38 1808.95
-2278.59 1044.56 1318.31
-1874.1 1235.04 1680.75
-2207.91 1720.08 1287.26
-1394.49 1252.36 -1195.28
-2086.31 1144.48 -630.656
-2214.49 2155.12 -846.361
491.165 2892.96 -1192.11
-67.6739 2715.84 -1516.02
-723.159 3788.01 -1582.56
1424.08 3438.34 398.139
1389.63 3424.32 -144.68
1020.71 3874.97 25.603
-2457.61 5114.14 -122.848
-2415.17 5035.37 585.177
-1943.34 5271.26 32.3334
-2756.51 4890.7 973.477
-2605.92 4998.63 811.829
-2875.57 4899.8 705.709
-1922.84 5045.82 871.728
-2304.63 5024.89 892.187
-2167.91 4992.07 1056.87
-2976.96 3729.18 1626.71
-2986.78 4015.09 1556.44
-3155.86 3829.46 1419.05
-2527.11 4309.47 1695.22
-2747.7 4213.61 1679.59
-2522.64 4055.91 1799.88
-3087.4 4523.73 1054.72
-2943.67 4373.59 1401.33
-2900.23 4655.42 1217.56
-1834.02 4633.38 1302.1
-1983.54 4563.95 1424.68
-1977.4 4393.78 1481.19
-2035.39 4857.75 1252.19
-2000.4 4729.87 1346.56
-1867.94 4896.47 1124.61
-2210.63 4195.63 1725.47
-2148.08 4468.78 1558.59
-2278.63 4408.46 1651.23
-2618.78 4783.62 1285.86
-2436.2 4594.47 1519.48
-2318.78 4829.46 1291.52
-1304.53 5604.02 -80.1266
-1627.02 5570.45 -685.336
-1340.37 5218.8 476.578
-1332.33 5460.42 139.743
-833.609 5948.51 -325.775
-913.016 5856.84 -187.686
-831.109 5894.66 -236.13
-1171.14 4100.59 955.328
-1621.13 4740.34 1043.21
-784.622 5345.18 52.0934
-1230.38 4819.66 485.575
-221.183 4553.83 468.256
-1720.13 5014.88 964.35
-1553.2 5107.77 807.384
-279.678 5664.32 -637.24
-421.8 5671.47 -382.72
-276.366 5495.82 -475.204
-700.351 5863.59 -259
-558.126 5786.6 -294.241
-602.199 5906.04 -458.411
-510.842 5363.62 38.7491
-541.315 5643.57 -217.205
-616.289 5575.53 -119.991
-959.009 5534.16 127.886
-833.072 5635.02 -28.1253
-799.536 5777.8 -115.222
-1711.96 5732.9 -1200.59
-2197.26 5629.22 -1242.01
-756.434 5949.73 -543.209
-1227.62 5811.6 -715.805
-2109.9 5783.04 -1662.11
-1913.66 5694.57 -1394.68
-1918.65 5710.9 -1573.2
-57.1655 5599.12 -886.844
-239.111 5722.35 -789.371
-299.258 5803.38 -947.659
-259.869 5773.5 -857.09
-119.943 5634.94 -928.005
-415.207 5870.64 -726.343
-544.649 5927.79 -648.31
-1660.3 5197.16 -2177.12
-1396.68 5415.51 -1790.37
-1243.31 5239.78 -1964.4
-1715.71 5663.74 -1697.98
-1550.49 5598.6 -1720.97
-1930.47 5690.83 -1899.63
-325.686 5533.6 -1216.78
-857.718 5598.49 -1434.23
-460.001 5738.17 -1168.43
-604.854 5947.84 -838.843
-519.952 5896.01 -1027.12
-1121.52 5739.95 -1270.27
-2386.59 5680.45 -1377.57
-2423.13 5520.87 -930.913
-2209.52 5842.57 -1742.88
-2306.86 5794.65 -1600.75
-2731.44 5387.44 -1263.34
-2576.85 5652.41 -1455.29
-2721.33 5501.07 -1521.19
-1775.7 5150.27 -2300.23
-1878.48 5199.98 -2278.65
-2046.73 5222.31 -2274.92
-1925.38 5207.55 -2332.64
-1910.58 5093.74 -2399.36
-1963.42 5508.08 -2128.43
-2057.43 5729.46 -1991.44
-2543.27 4554.33 -1413.51
-2551.13 4823.14 -1646.88
-2422.48 4530.82 -1677.18
-2760.85 5270.12 -1608.29
-2715.56 5197.9 -1624.61
-2767.7 5170.3 -1407.18
-2221.32 4804.9 -2067.66
-2494.08 5049.25 -1860.09
-2337.05 5160.51 -2042.97
-2351.73 5700.74 -1975.82
-2403.97 5390.15 -2066.29
-2647.06 5481.46 -1817.58
-2604.27 5184.71 -442.778
-2780.46 5109.25 -846.248
-2736.35 5145.06 -662.528
-2834.64 4936.67 192.279
-3045.3 4795.4 526.507
-2567.8 3678.73 -806.018
-2673.99 4408.92 -832.449
-3171.82 3908.84 77.7522
-2964.46 3986.29 -347.85
-3128.21 3489.57 -58.9938
-2756.28 4849.18 -987.89
-2778.1 4985.58 -1033.23
-3182.36 3866.59 1167.83
-3180.51 3577.43 1282.54
-3172.55 4567.63 759.063
-3184.24 4271.32 939.398
-3272.39 3560.08 505.116
-3259.74 3897.82 702.584
-3268.24 3898.5 421.894
-2905.13 4719.84 -197.751
-3170.82 4289.17 244.925
-3170.7 4605.82 374.533
77.9591 4999.17 -370.521
-28.9983 5165.27 -540.526
105.338 4479.88 724.076
-358.32 4663.52 428.364
846.279 4036 532.448
593.537 4236.6 446.381
810.542 4046.45 686.578
-296.946 3885.82 1308.34
-6.3772 4029.53 1182.11
511.986 3852.84 1226.02
292.647 3956.24 1215.73
387.063 3652.79 1373.26
157.158 4141.87 1046.24
235.75 4283.25 842.609
1374.19 3267.86 950.675
1206.72 3415.16 1086.51
1231.18 3191.61 1206.2
994.78 3822.67 846.669
1109.01 3638.45 959.92
1186.36 3672.39 749.095
831.765 3433.92 1361.23
994.001 3567.56 1167.29
795.774 3701.93 1220.7
485.398 4132.24 911.26
652.644 3938.17 1081.23
753.15 3995.21 891.91
-1918.97 3861.14 1751.07
-1212.39 3999.02 1138.15
-2172.74 3865.06 1833.09
-2076.07 3919.92 1767.97
-540.223 3298.76 1781.84
-1746.96 3806.21 1769.29
-1376.89 3536.49 1449.17
-2957.43 3476.65 1594.68
-2780.35 3609.99 1709.68
-2173.67 3385.47 1832.15
-2484.54 3517.13 1821.12
-2268.89 3021.39 1557.19
-2512.61 3749.49 1853.98
-2300.01 3806.31 1890.47
-516.947 1815.19 1928.41
-711.308 1805.46 1887.14
-833.135 1373.06 1898.87
-1005.4 2788.87 1945.13
-662.644 2538.6 1946.34
-356.508 2592.42 1960.59
-1669.71 1539.09 1541.3
-1154.12 2108.57 1754.13
-1706.45 2760.35 1703.91
-2099.8 3619.88 1918.64
-1968.41 3517.21 1919.42
-1920.55 3476.87 1918.1
-3120.11 3293.74 1107.15
-3099.01 3374.22 1362.8
-3184.83 3072.9 351.346
-3119.36 3165.41 630.993
-2852.16 2285.74 939.726
-3096.39 2733.9 754.558
-2997.79 2369.31 608.481
-2602.29 3057.45 -766.378
-2799.47 2984.8 -552.101
-2834.89 2285.43 -390.918
-2844.12 2607.95 -472.564
-2699.45 2320.74 -605.559
-2980.89 3036.06 -211.628
-3117 3035.58 68.7297
-2400.08 901.679 230.805
-2509.65 1075.83 -36.8436
-2408.8 906.855 -229.686
-2705.55 1757.24 422.641
-2555.71 1278.54 203.632
-2371.44 1300.53 720.491
-2441.78 1196.11 -363.691
-2532.39 1214.14 -188.146
-2503.31 1608.28 -222.431
-3158.22 2663.23 190.205
-2938.07 2292.18 -40.6605
-3035.23 2346.24 290.864
-2187.79 4400.19 -1822.3
-2283.15 3985.33 -922.409
-1984.27 4622.12 -2118.01
-2127.23 4484.85 -1933.41
-1808.36 3267.81 -1270.07
-2024.61 4224.1 -1748.36
-1870.83 3980.58 -1607.99
-1550.3 5189.47 -2173.34
-1804.72 5140.11 -2321.96
-1993.68 4639.17 -2078.87
-1963.08 5065.5 -2197.34
-1625.63 4819.92 -1871.67
-1917.29 5084.42 -2410.51
-1917.4 4907.67 -2336.75
-729.912 1921.66 -1498.6
-737.509 2230.92 -1513.38
-482.333 2071.47 -1509.49
-1422.91 3016.21 -1718.02
-975.649 2542.53 -1496.47
-1141.44 2135.63 -1365.26
-558.385 2886.38 -1502.48
-893.948 2717.46 -1523.49
-1913.7 3506.16 -1578.78
-1894.11 4506.49 -2167.4
-1879.47 4372.05 -2109.86
-1854.86 4120.92 -2024
[...]
POINT_DATA 642
SCALARS Mean_Curvature double 1
LOOKUP_TABLE default
0.000637893
-0.00129853
0.00247809
0.00280022
-0.000303873
0.00252795
0.00144026
0.058287
0.0016971
0.00104401
0.00756288
0.00441235
0.00234809
0.00249
0.00111086
-0.011756
0.00535627
0.00215708
0.00386589
-0.00041847
0.00287031
-0.000208717
0.00063891
0.00131489
0.000817608
0.000218001
0.000215847
0.000402673
-0.00272935
-0.00153186
-0.0119012
-0.00539549
0.00248028
0.000981838
0.00274824
0.00322013
1.14938e-05
0.00396207
0.00277083
-6.33875e-05
0.00353141
-0.00161123
0.0017448
0.00209074
-0.00209452
0.00161115
0.0022107
0.0015931
0.002179
0.00146623
0.000536487
0.00163143
0.00245681
0.000537099
2.48179e-05
0.00210461
0.00292614
-0.000966897
-0.000438324
0.00226334
-0.0334372
0.00431947
0.000169311
0.00260431
-0.00258496
0.00409514
0.00241892
-0.0258229
0.00327656
-2.44264e-05
0.00176141
0.00237501
0.00177949
0.000446572
-0.00126954
-0.000340737
-0.000132984
-0.000173973
-0.00510757
0.00108134
0.00193468
0.000945756
0.00180529
0.000882509
0.00396598
-0.00428871
0.00151951
0.00427357
0.00152559
-0.000666085
-0.0010451
0.00208988
-0.000610352
0.00182069
0.000679854
0.00300249
0.000553403
0.00605291
-0.00285574
0.000522353
-0.00180961
-0.0176735
0.00266691
-0.00659401
-8.50959e-05
-0.0227211
0.00986701
0.000854327
-0.0050982
0.000441208
-0.00427885
0.000935848
0.00182451
0.00206297
0.00169133
0.000512228
9.94552e-05
0.00395703
0.000209947
0.000942094
0.000379203
7.30495e-05
0.000111345
0.00414229
0.00318137
-0.000387973
-4.38254e-05
0.00131598
0.00184856
0.000928012
0.00110208
0.00110227
0.000330695
0.00345838
-6.93826e-05
2.94992e-06
0.00230532
0.00153136
0.00190832
-0.00011112
0.000796087
0.00103448
0.00090575
0.00303445
0.0048264
0.00569559
-0.00139106
0.000237153
0.000613388
0.00142097
0.00334639
0.00736513
-0.000580621
0.00186126
0.0018141
0.000560092
-0.000131881
0.00300227
-0.00402024
0.00107964
0.00138911
-0.000260953
-0.00102984
-3.85582e-05
-3.66383e-05
0.0014983
0.00177225
0.00148053
0.0034241
0.000900013
0.00194488
0.00236775
0.00151458
0.00323087
0.00150876
0.00233419
0.00178535
0.00167879
0.00121526
0.00192371
0.00132338
0.00154838
3.42876e-05
0.00272305
0.00279643
0.00173317
0.00188648
0.00150398
0.00283664
0.00183902
0.00155051
0.00133748
0.000741872
-0.000897638
-0.00502059
0.00135787
0.00442427
0.00357856
0.00388189
-0.00331881
0.000787767
-0.00154021
-0.00190174
-0.00191293
-0.00799899
-0.024395
0.0007064
0.0018029
0.000549952
0.00304857
0.00337499
0.00232495
-0.00945382
0.00275449
0.00105282
0.0140375
-0.00238584
0.00717323
-0.00379695
-0.000692875
0.00120687
0.000778113
0.00117601
-0.00416162
0.000594734
0.0144612
0.00159771
0.00388254
0.00459094
0.00529005
0.00207865
0.00388717
-0.00282141
-0.00133911
-0.000841007
0.00134855
0.00156014
0.00163691
0.000537797
0.00146298
0.00206335
0.00182137
0.00353346
0.000974274
0.00122772
0.0012944
0.00566555
0.00347867
0.0019787
0.00313141
0.00357133
-0.00813428
-0.00384638
0.00245702
0.0117137
0.00731905
0.00317907
0.00511132
-0.00178098
0.000776576
0.000853265
0.00552034
0.000950165
0.00310381
0.00143475
0.000642045
5.962e-05
0.00371123
0.00316464
0.00377899
0.00138846
0.00257669
0.00185936
0.0013256
0.00206395
-0.00278888
-0.0011743
0.000724928
0.0018346
0.00124777
0.00138071
0.00184443
0.00038026
0.00202241
0.00257304
0.000881486
0.00235285
0.0010457
0.00157868
0.000577052
0.00062327
0.00263906
-0.00259098
0.00177141
-0.00414446
-0.00318875
0.00112796
0.00158675
0.00181745
0.00234774
0.000424423
0.0012034
0.00131592
-0.000184042
0.000561065
-0.00201931
0.00110287
0.00180027
0.00137764
0.00112237
0.00118111
0.00174191
0.000753598
0.00112
0.00173654
0.00152094
0.00167947
0.00114625
-0.00331693
-0.00269195
-0.00147584
1.76038e-06
0.00874634
0.00873814
-0.00360557
0.00270471
0.000885869
0.00134902
0.00125474
-0.00176896
0.00200106
0.00308066
0.000506939
-2.03327e-05
0.00130806
0.00394168
-0.000823953
-0.000325921
-0.0018273
-0.000241382
-0.000660276
-0.00850381
-3.92989e-05
0.00503465
0.00105279
0.00285564
0.00155226
-0.00122158
0.0011537
0.00163039
0.000579479
0.0019843
0.000633538
0.00163375
0.000853455
0.0015242
-9.95732e-05
0.000484387
0.00255642
0.00178055
0.00347267
0.000611179
0.000461263
-0.00236017
0.00108386
0.00212802
-0.000978274
0.00212332
0.000518344
0.00115165
0.0016475
-0.00289376
-0.00103511
0.00036627
-0.000518874
0.00101361
-0.00341403
-0.0691408
-0.0164017
-0.00295272
-0.0055537
0.00113269
-0.0211189
-0.0148938
0.000879285
0.000780266
1.43887e-05
-0.00322277
-0.00108893
0.000853729
0.000177774
-1.76806e-05
-0.00247919
-0.0171363
-0.0133156
-0.00400891
0.00186256
-0.109195
0.000414095
-0.00972762
-0.00133321
-0.211986
0.0117753
-0.00765217
0.0123082
-0.0121671
-0.0806001
0.172796
-0.0397886
0.0026371
0.00123928
0.00088781
0.00142874
-0.0112426
0.000482184
-0.00439858
-0.00150636
0.000335372
-0.00341352
0.00282099
-0.00192902
-0.00618937
0.000491393
0.00151374
0.00191043
0.00222437
0.00143477
0.00282098
0.00289226
0.000267493
0.00158498
0.000901916
-3.33635e-05
-0.000802722
-1.77183e-06
6.29459e-05
0.00106578
0.00183317
0.00130261
0.00142456
-0.000720296
0.00218421
0.000122472
0.00084722
0.000655217
0.00185635
0.00163812
0.000974369
0.000277212
0.00189274
0.000621351
-0.000277039
0.000163032
0.000882826
0.00163045
0.000297894
-9.68065e-06
9.24786e-05
5.52169e-05
0.00369468
0.00375405
0.00365467
0.00289148
-0.000541937
0.00143117
0.00182239
0.000129105
0.00306058
0.000739509
-8.85531e-06
0.000202516
-6.09075e-05
0.00173868
-0.000574094
0.000372583
0.00116747
0.000570281
-0.000454636
0.00131847
0.00162444
-3.29092e-05
0.000158431
0.00288555
0.00288862
0.00275378
0.00307238
0.00117585
0.00331852
0.0022175
0.00261553
4.85989e-05
-5.74033e-05
0.00167852
0.000521827
0.0014865
0.00117484
-0.000366975
0.00054689
0.00322539
0.000350726
0.00288453
0.0018088
0.00206928
0.00126986
0.000934767
0.00153552
0.00085303
0.000571703
0.00189714
0.00117573
0.00160388
0.00114349
0.000864796
0.000497933
-0.00057016
0.00055268
-2.07316e-06
0.00112582
0.000828453
0.000283215
0.000776443
-0.000469837
-0.000605163
0.00283364
0.00165952
0.000414595
0.00103911
0.00186184
0.00164433
0.000584411
0.0013367
0.00280497
0.00219782
0.00203349
0.00133703
0.000972392
-0.000864367
0.00158885
0.00244918
3.28693e-05
0.000587667
0.00439334
0.00305697
0.00245639
0.00253892
0.00381346
-4.7504e-05
0.00120514
0.000420249
0.00167347
0.00501626
0.00430526
0.00167357
0.00131992
-0.000220992
0.00251047
0.000242644
0.00127289
0.000953821
0.000793009
0.000877004
0.000891274
-0.000895261
0.0019055
-0.00265724
-8.75549e-05
0.000609571
0.00261703
0.000361124
0.00229605
0.00150412
0.00425012
0.00320715
0.00310206
0.00182223
0.00448482
0.00250263
0.00113107
-0.00235855
0.00295853
0.000326054
0.000572827
0.00168591
0.000948351
-0.000391696
0.00502323
0.00165791
0.00188177
-0.000926317
0.00417379
0.00617341
-0.000452712
-0.00131542
0.00446624
0.00123647
0.00445989
0.00280509
0.00296335
0.000652392
0.000349379
0.000152173
0.00195053
0.00142389
0.00194587
-0.00224768
-0.000947427
0.00102003
0.000282309
0.000648116
0.00205531
0.000768021
0.000278518
-0.000409239
0.000161331
0.00145151
0.000328023
-0.00562128
-0.00180442
-0.00183809
-0.00251068
-0.00876803
0.00169346
0.000540546
9.3762e-05
0.00153289
0.00166893
0.0006976
0.0014071
0.000585728
0.000881087
-0.000277865
0.000952475
0.00121465
0.00123006
-0.00182541
0.000159468
-0.00059125
-0.00537728
0.00779651
0.00148415
0.00180559
0.000242723
SCALARS CoVolArea double 1
LOOKUP_TABLE default
252343
68737.9
80240.9
81802.8
59491.2
189042
57869.9
7235.64
70927.1
102612
184951
44086.4
82737.7
54032.5
63177.5
127555
22546.3
51067.1
39880.3
72537.5
58548.3
128061
86519.5
58283
269816
237709
129905
221232
703952
428080
88602.2
263044
86661.4
140445
108638
106529
392844
62605.2
67462.7
102588
53173.8
157977
137546
74975.5
220035
80383.1
93537.7
102047
42459.2
55535.6
52164
67790.1
161660
435297
141718
43318.1
26716.9
196975
186223
61405.4
8076.94
29312.9
96001
108109
152084
73712
114378
5209.5
70402
132332
59630.4
81760.7
125009
264293
227132
119167
139711
129506
153041
124166
56855.9
58318.4
58297.2
69518.3
88838.1
299389
149846
48046.5
114234
232913
196662
115915
185266
87980.1
133714
118597
196291
37681.4
67241
353292
90274.9
37671.9
115276
187466
123528
12486.8
110187
55362.3
23011.2
98002.9
341561
74591.1
107532
139361
128377
157541
120427
56668.8
149566
166909
115712
211115
185767
81758.5
105797
172676
246146
109600
107149
129269
97907
117529
141500
102473
65929.3
161882
91726.3
97278.3
73046
108495
113812
108424
98477.5
105921
29016.9
18240.8
119782
85644.4
79874.3
72670.2
69808.9
31131.4
184881
65723
81963.1
224466
118874
66606.5
514702
77444.4
57442.9
174481
248402
213131
423933
84434.7
76818.4
85011
117607
90580.5
67337.7
66063.3
94787.4
73823.4
71648.7
84857.6
68341.2
92051.3
101972
98651.4
106382
34894
153527
52813.5
35807.9
29221.6
38990.2
37512.7
53678.7
99620.4
85007.2
83448
266516
372757
130822
140656
43537
64049.3
16161.9
356578
300976
279841
462167
378091
124656
43087.6
47614
41802.8
81704.8
24320.6
33024.8
33213.6
112367
34720.1
61278.1
44620.7
50757.5
24409.5
147392
175060
101890
88482.8
26607.6
59160.7
108378
30986.8
27287.4
40301.8
19365.1
23558.4
29765.1
31770
73796.7
166271
87722.5
93565
95437.4
54565.9
92251.7
127248
82533.2
122556
91604
180221
74366.6
132761
50745.3
38379.5
84651.5
62066.5
65993.8
9232.24
36793.4
63640.3
23507.3
14804.1
44924.3
54933.8
187228
101073
146852
42141.2
56997.8
37197
100916
94692.8
92064
101005
94117.1
89061
160778
112932
120830
126700
101159
295884
308388
187472
205265
157862
135519
119559
118456
75639.6
96124.4
122158
119060
135322
115491
208833
190377
136615
324012
111264
118735
440895
97071.7
252914
59617.4
285522
190810
65793.9
64378.7
88253.4
138024
101849
85056.9
61995.9
88623.1
56356.9
55481
50695.4
73633.8
62104.3
67474.7
68988.1
63044.2
63085.1
251774
460493
36814
46535.3
163508
124336
396911
66996.5
72861.7
198310
107383
284479
69960.7
50551.8
118865
221789
71755.2
258768
232784
91773.2
274087
462231
370877
21110.2
106136
154340
142008
86704.7
117474
159116
201393
170789
186754
210345
190564
161572
115721
115101
151602
135431
114812
80138.3
65562.7
242933
152328
177363
54327
85703.1
164886
117840
189265
174264
212141
461735
63509.9
59232.4
201750
64294.6
258336
8222.21
18346.8
386770
106591
253445
17786.2
22496.6
89285.8
93047.2
60982.5
360960
149703
271458
446665
208075
652181
27386.2
102991
152415
38852.9
9747.76
41707.2
48781.2
328102
2509.64
39663
71769.1
4477.52
72910.5
3027.11
4442.69
9755.74
38388.1
58122.2
84826.4
58861.7
124213
180881
114290
131995
242101
340463
31642.4
172079
84895
111905
126023
104171
95331.4
111410
88019
109839
134867
143208
139308
128794
104237
179211
155825
142843
59167.1
88764.5
79387.8
96271
130721
131384
142331
141279
125824
114155
122558
174120
128985
183697
183832
137576
105359
122499
134953
297584
237342
386277
38706.6
77800.3
115860
92777.1
138879
104957
118533
116941
123558
134890
370798
182079
293939
87551.6
133410
147097
169694
183974
310655
130702
112709
226674
161242
85766.1
92991
78794.6
73263.8
127909
78811.9
105382
95081
194582
255719
106175
119339
99660.5
98268.1
113642
88845.1
33416.1
77523.4
67821.5
140621
107198
123973
121796
103456
119403
139142
72141.9
112120
110026
67211.1
126552
76429.5
102233
97485.2
103770
77682.3
146037
156936
101380
85299.9
102005
34705.1
95587.2
134057
97469
137007
103869
153953
108330
76419.2
91531.5
97636.5
95818
105840
131956
72596.9
81002.5
112613
51281.1
34604.6
69615.3
109854
64056.3
30286.3
129612
54546.3
62704.8
63117.4
23585.6
64138.9
123199
102064
101237
64917.4
83915.7
104495
93528.9
79894.9
99930.5
92891.2
309383
87063.8
116325
123765
96566.7
82423.2
81316.7
74570.9
124071
77243.2
86545.5
96131
122899
48158.5
101765
54037
72328.7
91939.3
162374
176589
224720
268287
244074
58947.2
83281.7
97020.1
80023.3
34100.8
26811.1
91980.7
278996
60792.3
106801
38820.3
78356.4
72546.9
258052
339323
209064
112465
176167
102664
223371
230068
66057.4
102860
75403.2
88463.9
350813
76370
154403
98822.2
82303.8
104820
154241
884381
659045
255048
155742
97110.6
76045
391082
98959
138009
117279
63201.8
68715.5
71397.9
63877.5
59882.6
77727.7
116349
253682
109196
273714
209077
79980.5
78871.7
91882.4
93544.6
SCALARS SignedDistance double 1
LOOKUP_TABLE default
253.1
260.773
156.648
141.914
260.162
314.272
237.562
562.138
213.21
207.562
472.858
135.217
145.924
206.54
243.275
582.596
196.803
179.595
258.403
326.313
192.416
198.629
240.937
238.552
247.609
215.934
315.92
231.681
930.901
343.966
602.293
774.888
150.724
189.853
145.548
137.007
178.582
178.19
198.582
243.53
207.484
278.185
199.765
176.378
288.627
166.208
149.564
153.546
235.06
229.13
251.205
240.139
203.011
373.42
416.322
224.476
235.98
291.9
553.06
258.536
263.405
197.082
255.866
658.066
506.103
165.975
160.039
463.694
166.024
206.636
187.754
201.834
231.112
214.182
253.334
184.358
184.169
236.68
520.347
230.649
220.463
213.047
205.261
214.641
349.666
547.873
182.547
276.786
228.536
640.95
283.955
174.587
208.091
191.988
191.222
242.187
269.325
235.482
525.043
699.757
578.159
455.537
203.78
903.967
237.58
357.659
674.398
564.266
439.346
248.043
718.129
228.193
131.322
134.581
151.327
196.622
204
180.053
198.022
171.318
211.654
180.459
176.051
201.311
159.065
183.1
175.224
179.322
177.188
168.884
159.433
180.773
204.489
180.266
247.021
207.923
136.309
215.045
241.115
238.942
214.83
224.229
173.167
206.761
188.402
206.146
267.376
224.662
226.377
229.641
182.871
233.283
333.966
232.539
277.683
240.058
260.717
244.082
910.474
224.719
222.619
244.922
229.031
237.125
213.936
183.135
200.23
183.386
247.435
226.302
197.461
157.537
149.405
152.842
204.355
155.434
208.389
150.171
153.401
145.734
253.175
256.45
262.373
204.166
221.51
231.291
233.538
240.218
219.385
176.24
196.897
197.824
210.079
445.545
394.401
229.45
185.504
201.567
195.535
345.358
298.907
323.18
361.803
580.97
342.354
486.228
246.408
265.059
263.982
203.315
223.235
185.453
437.589
279.235
295.873
335.785
271.666
221.195
607.752
255.187
187.005
332.667
253.889
384.16
331.539
282.267
228.216
195.829
213.739
233.573
193.345
197.69
463.645
648.989
801.521
419.25
536.089
240.911
223.549
585.208
189.534
185.086
150.191
613.28
208.148
193.354
241.891
222.453
158.354
158.309
137.6
455.429
355.25
248.448
365.825
466.804
190.601
191.761
246.575
228.005
218.478
187.931
174.009
197.685
201.504
188.433
169.283
100.814
163.993
140.915
181.346
194.682
181.889
193.94
156.288
474.071
262.172
175.495
230.517
201.106
200.765
197.635
180.603
178.599
170.064
182.379
212.711
180.95
195.673
238.156
204.209
168.26
562.928
376.836
503.653
675.676
239.615
271.354
231.17
237.363
238.163
219.64
224.923
247.765
241.007
308.956
213.342
198.538
199.608
221.473
219.686
220.301
216.413
210.496
205.233
234.61
221.362
229.913
319.028
370.144
240.765
250.998
367.964
456.985
349.734
161.481
180.633
311.3
199.582
303.248
178.678
224.806
202.495
235.894
249.59
361.266
221.041
230.163
317.392
339.729
322.476
331.845
433.821
473.742
220.147
159.151
211.545
227.934
161.523
168.047
177.305
254.474
208.473
169.69
200.987
175.04
208.468
207.42
131.679
197.479
135.206
222.152
271.373
313.429
232.787
223.136
316.082
176.119
195.436
180.701
334.47
433.784
386.797
336.648
503.802
524.663
782.14
560.972
459.717
343.323
275.946
434.22
478.885
443.987
225.989
241.56
237.555
787.003
242.215
230.575
300.696
251.56
889.547
542.992
621.881
790.331
653.593
781.394
248.592
403.523
390.103
404.473
346.025
414.481
386.991
647.084
527.247
775.012
353.954
263.132
233.009
234.654
218.507
803.304
264.595
336.958
245.891
246.993
617.589
277.358
341.599
297.323
155.193
137.701
166.655
146.553
131.502
120.954
148.868
171.343
160.52
191.717
222.325
251.724
208.953
201.141
190.095
158.082
195.157
187.944
243.295
200.793
205.328
185.514
159.448
157.433
186.706
177.473
191.719
178.345
189.899
186.147
174.239
175.486
174.004
173.745
176.844
181.311
176.038
215.301
196.273
154.665
132.209
217.202
162.922
149.548
177.833
164.412
159.456
177.606
254.425
177.809
173.021
177.727
162.728
168.46
175.893
199.622
161.183
154.617
194.651
177.846
141.932
171.805
157.096
166.221
175.181
144.525
169.119
157.629
176.643
177.523
196.02
222.517
225.562
197.046
204.726
193.901
239.758
233.144
191.095
185.572
149.4
166.129
170.511
144.913
178.87
183.876
171.194
183.828
197.786
238.891
203.741
246.02
237.289
224.679
230.648
195.585
214.759
219.635
227.669
261.149
243.469
219.936
217.843
213.078
210.388
166.666
206.83
216.374
151.978
146.741
144.086
137.055
158.21
222.602
250.963
206.697
221.687
264.009
198.589
203.874
216.157
220.509
177.431
206.773
265.825
198.827
200.015
197.04
200.02
194.355
189.266
192.98
213.481
236.452
228.208
198.946
219.628
209.253
203.028
211.322
285.727
229.147
247.129
257.152
235.792
199.444
230.384
205.677
149.323
100.368
120.393
198.619
239.6
229.32
247.925
257.688
326.773
205.832
226.166
305.957
163.187
203.92
317.4
197.127
225.561
233.972
284.189
232.342
242.443
277.442
338.089
142.078
257.025
247.501
255.99
251.961
264.096
233.391
267.158
211.973
207.744
247.867
315.693
357.826
232.634
251.629
248.452
234.047
266.942
239.057
336.757
240.545
232.549
233.92
698.188
560.266
732.684
559.635
930.329
235.475
370.081
270.565
209.697
201.72
214.184
217.273
232.605
225.4
231.619
222.144
218.77
217.164
622.983
242.778
252.749
784.228
481.133
227.355
235.002
238.028
