# vtk DataFile Version 4.2
vtk output
ASCII
DATASET POLYDATA
POINTS 642 double
-2510.15 6311.57 -427.483
746.529 6127.54 -344.121
-2560.02 181.551 -35.5961
1552.3 191.329 22.5318
-618.968 1306.05 2866.78
-1077.79 4879.5 2276.39
-517.945 1601.15 -2519.52
-1044.74 5284.01 -2974.18
2024.88 3201.74 -1414.07
2229.6 3122.53 1538.52
-3296.44 3814.41 -1737.43
-3714.75 3495.38 1885.54
-3557.97 5211.23 1094.75
-2444.63 4471.61 2656.06
-1820.43 5869.23 1546.72
117.939 5756.58 916.831
-590.719 6818.75 -182.348
287.507 6187.91 -1600.98
-1909.97 6560.87 -2050.8
-2394.07 4874.15 -2962
-3563.16 5450.77 -1407.6
-4056.06 3469.56 107.585
999.992 4075.53 2254.05
1816.07 4601.82 872.52
-2229.03 2105.09 2483.56
-491.088 3164.28 2931.37
-3239.39 1470.65 -899.504
-3324.69 1476.35 1094.93
-902.423 3786.78 -2634.46
-2064.32 2453.84 -2190.33
1556.06 4834.76 -769.585
714.395 4624.87 -1941.75
2575.58 1413.85 1078.98
1140.43 2203 2565.92
659.797 337.858 1799.91
-1816.21 265.476 1860.47
-531.753 -59.6779 -55.0739
-1614.67 471.476 -1711.15
575.737 491.568 -1668.29
995.605 2208.36 -2258.53
2427.74 1516.4 -943.657
2713.08 2908.98 84.8877
-3101.51 5775.31 547.235
-2744.67 5711.13 1414.61
-2123.94 6079.81 814.04
-3179.72 4018.08 2397.89
-3125.38 4903.27 2033.11
-3754.84 4383.6 1568.12
-1459.1 5462.45 2009.92
-2197.52 5298.02 2203.18
-1767.8 4735.74 2589.81
-1017.31 6539.83 516.688
-1407.53 6675.72 -262.199
-287.607 5202.36 1718.69
-828.919 5999.59 1155.11
138.4 6588.16 -264.445
-225.005 6478.95 458.066
365.755 6142.11 343.589
-1357.9 6696.75 -1130.52
-2272.05 6658.01 -1322.91
632.626 6299.21 -914.809
-94.6234 6707.73 -963.142
-1480.89 6030.49 -2632.86
-811.159 6386.8 -1914.85
-292.955 5810.35 -2220.08
-2893.63 6212.52 -1805.37
-3110.28 6054.34 -954.669
-1669.85 5167.58 -3255.27
-2275.5 5834.3 -2736.75
-3549.91 4782.42 -1700.31
-3209.26 5252.67 -2343.54
-2974.24 4371.93 -2468.85
-3605.79 5337 -68.3195
-3792.43 3498.07 -778.174
-3788.77 4508.03 -621.724
-4004.13 4429.48 610.333
-4008.98 3492.68 1028.06
1125.91 5097.41 1109.52
1229.23 5291.73 281.908
278.548 4394.81 2299.34
719.34 4836.44 1809.91
2101.7 3975.54 1250.69
1526.59 4413.34 1624.58
1652.26 3688.58 2015.02
-1795.8 3932.08 2880.04
-813.252 3929.64 2679.6
-3135.09 3029.52 2324.74
-2495.96 3515.25 2793.58
-457.35 2322.6 3004.18
-1488.12 2977.23 2870.94
-1476.21 1525.75 2753.85
-3939.65 2489.45 552.065
-3620.16 2600.37 1475.76
-3403.72 2506.59 -1294.31
-3816.77 2495.34 -453.192
-3083.09 701.707 602.095
-3452.37 1393.53 -28.2574
-3088.18 711.973 -573.714
-2336.48 3896.34 -2780.11
-2633 3181.99 -2093.28
-1101.7 4863.7 -3021.03
-1676.85 4499.75 -3138.62
-1276.79 1785.79 -2425.16
-1488.78 3225.76 -2701.68
-508.274 2354.75 -2634.43
548.002 5410.77 -2020.18
-159.55 5026.4 -2504.46
1137.77 5699.2 -734.431
972.111 5702.5 -1296.55
1471.02 3659.22 -1793.57
1059.14 4743.39 -1585.72
1971.48 3919.59 -1115.86
2214.41 680.142 587.145
1776.9 765.775 1464.36
1199.25 155.895 925.935
1803.02 2644.35 2098.54
2030.57 1702.02 1878.76
2593.04 2233.18 1354.88
-10.272 783.528 2441.65
992.881 1170.46 2309.65
362.637 1739.72 2807.17
172.916 -33.4307 1041.72
661.286 -33.3283 4.27561
-1127.52 740.858 2541.17
-579.934 190.275 1986.29
-1705.98 -62.3825 31.2655
-1294.24 -26.8493 1038.22
-2235.62 95.9151 1050.5
133.919 5.91269 -971.795
1104.22 275.141 -867.585
-2206.43 227.655 -871.763
-1190.26 -10.5291 -1000.83
31.098 964.273 -2137.73
-574.714 386.922 -1771.33
-1147.95 916.836 -2201.33
1587.45 921.849 -1302.23
2137.92 748.249 -516.036
273.721 1889.36 -2473.59
866.594 1316.21 -2108.49
2385.61 2176.25 -1136.59
1771.19 1835.09 -1670.91
1580.48 2707.59 -1903.67
2708.58 1332.92 34.531
2483.11 3048.96 -688.641
2830.52 2231.11 -441.605
2960.09 2251.26 534.839
2637.08 2954.97 786.45
319.07 2684.46 2927.87
1134.5 3188.45 2554.68
299.973 3605.12 2746.48
-2762.95 677.034 1605.06
-2168.66 1085.96 2475.21
-2880.29 1639.99 1964.84
-1881.59 1236.67 -2129.99
-2634.9 859.951 -1338.08
-2739.11 1864.75 -1671.4
983.135 3174.3 -2230.13
191.05 2750.92 -2594.6
-180.085 4028.43 -2538.58
2338.41 3960.9 495.111
2292.61 3942.89 -418.248
1874.13 4641.22 16.3714
-2785.76 5974.67 77.5371
-2676.93 5975.71 731.167
-2255.47 6150.13 271.256
-3180.03 5506.93 1274.94
-2950.94 5768.08 1013.24
-3358.81 5524.62 843.454
-2014.55 6009.63 1197.18
-2487.19 5927.35 1146.93
-2284.54 5831.24 1497.53
-3484.04 3753.61 2172.4
-3515.71 4195.97 2029.88
-3773.58 3921.74 1758.4
-2808.71 4694.19 2399.39
-3174.86 4475.03 2252.95
-2825.27 4269.71 2566.84
-3687.49 4829.13 1339.4
-3473.13 4672.25 1824.3
-3382.45 5078.23 1589.08
-1338.32 5199.98 2173.41
-1623.18 5123.8 2326.14
-1485.8 4855.93 2442.1
-2015.5 5620.02 1885.5
-1819.45 5401.34 2127.74
-1627.64 5691.53 1802.57
-2085.53 4617.37 2664.91
-1980.77 5029.45 2433.7
-2336.58 4909 2466.82
-2964.26 5357.08 1747.07
-2667 5150.06 2168.71
-2487.12 5538.65 1851.14
-1679.3 6432.03 215.875
-1958.07 6437.62 -432.511
-1416.84 6113.65 1003.62
-1554.29 6314.47 618.386
-962.936 6804.36 -164.639
-1164.84 6662.27 186.711
-825.583 6734.08 178.32
-743.575 4980.89 1961.13
-1091.16 5433.71 1874.24
-358.939 6023.81 1015.44
-726.053 5642.32 1409.94
-6.15605 5457.5 1329.13
-1229.27 5677.39 1684.87
-1287.04 5887.86 1440.52
463.918 6380.16 -305.455
292.9 6376.99 79.4067
569.64 6157.63 4.58854
-396.552 6690.57 161.435
-53.239 6568.19 134.005
-232.588 6740.24 -228.042
225.989 6025.07 644.842
95.5038 6323.25 421.399
-97.0654 6234.64 676.202
-862.407 6310.71 879.882
-461.189 6315.55 788.191
-622.179 6566.76 511.569
-1934.01 6602.58 -968.976
-2402.39 6499.33 -951.433
-812.397 6815.37 -570.588
-1424.31 6709.95 -698.203
-2114.17 6693.85 -1658.38
-1914.31 6704.3 -1322.6
-1773.46 6684.47 -1653.86
716.882 6240.33 -635.571
412.145 6489.06 -618.241
112.018 6490.81 -1301.39
276.523 6536.28 -954.808
470.683 6275.12 -1268.92
34.9257 6691.56 -616.798
-318.518 6806.15 -597.41
-1274.9 5673.1 -2827
-1019.21 5914.69 -2486.48
-789.397 5527.28 -2586.95
-1492.76 6467.97 -2068.86
-1254.55 6234.24 -2310.1
-1695.2 6328.61 -2381.81
78.6799 6037.44 -1895.11
-557.525 6122.26 -2088.19
-149.038 6337.92 -1708.54
-555.771 6782.96 -999.854
-335.79 6609.68 -1388.56
-1066.06 6589.86 -1552.19
-2719.98 6406.48 -1158.91
-2804.53 6242.19 -688.805
-2394.48 6461.51 -1957.58
-2599.81 6513 -1545.47
-3368.02 5794.08 -1189.41
-3049.96 6188.05 -1393.73
-3289.77 5870.77 -1611.44
-1372.78 5249.99 -3128.04
-1575.45 5628.98 -2976.51
-2393.61 5325.75 -2924.91
-1950.78 5505.63 -3018.23
-2001.81 5041.41 -3183.25
-1840.26 6000.18 -2739.27
-2091.1 6262.8 -2448.66
-3414.61 4306.01 -1786.9
-3310.04 4604.11 -2092.49
-3156.6 4151.77 -2165.17
-3463.01 5365.35 -1889.83
-3441.15 5024.97 -2022.88
-3626.68 5097.45 -1590.76
-2713.09 4652.83 -2733.88
-3104.65 4888.22 -2412.25
-2840.99 5092.75 -2691.48
-2625.82 6068.95 -2328.32
-2799.07 5564.13 -2596.7
-3107.67 5751.64 -2131.73
-3087.69 5882.73 -253.99
-3548.95 5427.38 -824.194
-3363.59 5684.77 -552.451
-3385.53 5571.6 239.608
-3639.02 5278.23 577.695
-3489.28 3601.21 -1280.68
-3563.85 4237.47 -1252.1
-3987.13 3962.71 -172.902
-3821.63 4025.35 -708.409
-3963.79 3455.57 -351.162
-3659.48 4714.02 -1224.52
-3672.9 5023.77 -1117.47
-3946.59 3934.45 1351.08
-3915.55 3495.39 1497.27
-3841.32 4846.21 882.366
-3918.24 4435.27 1108.2
-4108.92 3490.97 524.517
-4036.22 3953.86 808.74
-4098.68 3962.86 359.088
-3765.63 4944.88 -355.329
-4005.13 4444.18 81.6472
-3872.54 4889.19 333.548
789.27 5761.57 182.194
900.863 5850.62 -152.251
613.347 5396.64 1109.73
640.97 5561.95 676.561
1609.4 4873.27 673.613
1235.33 5172.35 737.6
1485.06 4877.3 1004.31
-248.674 4562.93 2260.21
98.2826 4787.28 2050
872.481 4489.88 2043.47
530.599 4644.02 2057.8
657.194 4238.21 2296.81
358.405 4984.14 1798.89
521.934 5168.15 1511
2178.89 3604.31 1418.02
1915.64 3843.02 1649.43
1936.65 3467.84 1822.74
1703.93 4521.49 1261.41
1830.87 4209.33 1455.68
1983.2 4298.05 1066.17
1338.5 3888.53 2157.61
1609.22 4069.85 1830.91
1294.29 4264.17 1954.54
944.329 4990.97 1482.44
1132.95 4652.95 1742.68
1345.15 4783.49 1385.18
-1508.69 4417.88 2651.74
-958.395 4466.72 2354.38
-2057.9 4194.17 2832.74
-1778.62 4315.47 2769.21
-586.038 3608.24 2819.63
-1409.98 4062.34 2772.31
-1284.96 3629.56 2735.41
-3456.23 3261.66 2143.62
-3211.21 3504.27 2404.24
-2460.62 3059.99 2694.42
-2846 3280.91 2582.31
-2702.87 2691.06 2410.38
-2865.56 3759.7 2618.04
-2493.6 3982.48 2760
-576.845 1733.64 2878.57
-907.641 1807.36 2852.83
-989.774 1406.96 2878.27
-1012.03 3023.39 2926.43
-845.077 2509.27 2933.8
-437.577 2746.99 2995.92
-1896.82 1666.04 2642.47
-1405.47 2047.37 2737.87
-1910.02 2554.58 2663.17
-2075.57 3726.61 2949.5
-2062.16 3330.04 2908.68
-1757.58 3474.32 2938.49
-3889.51 3073.72 1315.36
-3721.84 3106.47 1724.37
-4034.4 2980.85 325.987
-3985.23 3018.29 786.103
-3514.39 1998.87 1265.99
-3814.76 2521.01 1016.85
-3710.32 2046.83 804.325
-3346.65 3008.44 -1456.59
-3601.72 2945.98 -1050.45
-3568.23 2010.89 -725.159
-3632.85 2473.26 -897.785
-3370.89 2047 -1113.06
-3816.65 2960.06 -599.045
-3969.08 2959.33 -182.768
-2855.88 395.842 282.527
-3121.33 667.794 -38.6596
-2858.98 402.335 -323.301
-3449.25 1428.47 532.517
-3317.7 970.185 266.517
-3221.84 1005.41 883.466
-3219.45 1024.68 -774.975
-3321.72 970.957 -322.185
-3382 1383.37 -507.669
-3950.27 2477.79 56.5893
-3702.41 1976.3 -232.509
-3782.43 2002.67 293.687
-2840.6 3920.19 -2421.4
-3008.36 3546.61 -1843.41
-2376.87 4341.59 -2915.05
-2649.21 4092.38 -2682.06
-2403.96 2898.8 -2206.14
-2523.39 3673.43 -2551.97
-2271.39 3446.71 -2537.85
-1063.39 5021.41 -3051.44
-1401.26 4973.39 -3174
-1477.79 4333.53 -3026.88
-1438.76 4712.16 -3111.18
-1122.87 4522.27 -2963.96
-1662.4 4872.3 -3235.41
-1928.23 4670.94 -3163.26
-907.744 1693.31 -2496.1
-864.198 2122.12 -2613.93
-504.53 1974.57 -2619.41
-1710.58 2908.42 -2503.34
-1233.7 2370.48 -2563.67
-1627.8 1958.86 -2312.03
-540.348 2910.69 -2670.18
-938.716 2634.82 -2639.78
-1288.93 3506.2 -2711.87
-1975.06 4153.25 -3032.92
-1723.71 4029.13 -2986.93
-1968.84 3733.81 -2845.26
-187.967 5362.67 -2428.47
-687.261 5091.22 -2805.75
428.027 5821.39 -1840.93
[...]
POINT_DATA 642
SCALARS Mean_Curvature double 1
LOOKUP_TABLE default
0.000729557
0.000838526
0.000770321
0.000899291
0.00149413
0.0014544
0.00101435
0.0014884
0.000773436
0.000441967
0.000911301
0.00121503
0.000860995
0.000880793
0.00077551
-0.000681224
0.00124888
0.000891275
0.00146484
0.000549991
0.00117217
0.000366539
0.000584633
0.000722652
-0.000120591
0.000283201
-1.89559e-05
1.1565e-05
-0.000859043
-0.000273154
1.64187e-05
5.26178e-05
0.00099475
0.000501218
0.000867433
0.00100643
7.74883e-05
0.000884622
0.000990394
0.00044522
0.0008395
0.00010622
0.000711283
0.000819546
-2.19409e-05
0.000807245
0.000732498
0.000682256
0.000950679
0.000874745
0.00103256
0.000776891
0.000621626
0.000260268
3.98737e-05
0.000773009
0.00099038
0.000529343
0.00017035
0.00154239
0.00124825
0.00117577
0.000856103
0.000694369
0.000360127
0.000943434
0.000522722
0.00285961
0.000893107
0.000615574
0.00148532
0.000762312
0.000596958
0.000469212
-3.93304e-05
0.000644162
0.000371962
0.00052021
4.92376e-06
0.000434571
0.000701422
0.000734664
0.000695101
0.000671961
0.000685164
-0.000150772
0.000771127
0.000870132
0.000904885
0.000130118
0.000427729
0.000861023
0.00010822
0.000804757
0.000605201
0.000509998
1.72744e-06
0.00102976
0.000754436
-0.000442595
9.32864e-05
0.00152947
0.000315337
0.00101806
5.87414e-05
0.0009288
0.00153471
0.0010483
0.000846566
0.000498754
-0.000313594
0.000604792
0.000863582
0.000706868
0.000535912
0.000329507
0.000977751
0.00123217
0.000255658
0.000475161
0.00069432
0.000558931
0.00035385
0.000804278
0.000963451
0.000295039
2.30904e-05
0.000909624
0.000827687
0.000371289
0.000548964
0.000951643
0.000270992
0.000828964
0.00111203
0.000311335
0.00086286
0.000448016
0.000788443
0.000600641
0.000534401
0.000509572
0.000803855
0.000346886
0.00141128
0.00169805
0.000231077
0.000495605
0.000629394
0.000735582
0.000905939
0.0012949
0.000111544
0.00148616
0.000673971
0.000219631
0.000406554
0.000561444
0.000579131
0.000704142
0.000788791
0.000413405
-0.000196014
0.000813942
-0.000276341
0.000843487
0.000761935
0.000836037
0.000736989
0.000796074
0.000798278
0.000950949
0.000770027
0.000896444
0.000820478
0.000783731
0.000889807
0.000778707
0.000729098
0.000758598
0.000479639
0.000968961
0.000451849
0.000752173
0.000804893
0.000973617
0.000970172
0.000913785
0.000875097
0.000792546
0.000871903
0.000808919
0.000351361
-0.000527039
-0.000347272
0.000336023
0.00119199
0.000883475
0.00126506
-0.00118625
0.00074557
0.000681628
-0.000594818
-0.000151675
0.000675729
0.000842662
0.000711076
0.000952344
0.000720004
0.00109937
0.000940626
0.000775424
0.00120276
0.000996936
0.000717187
0.0012533
0.000930216
0.00120775
-0.000111417
0.000492033
0.000525906
0.000580573
0.00188834
0.0012915
0.000944679
0.00119093
0.00122198
0.000937717
0.00104259
0.000837783
0.00105167
0.00117079
0.000619419
0.000386354
-0.000454288
0.00052822
0.000594967
0.00117664
0.000750928
0.000282706
0.000758048
0.000912203
0.000845102
0.00021495
0.000835195
0.000698575
0.000852199
0.00142644
0.000777125
0.00125819
0.00110623
0.0011735
0.00129831
0.000932961
0.000768206
0.00159513
0.00132805
0.00121232
0.000616586
0.000455218
0.000738479
0.0012232
0.00130054
0.00165519
0.000390798
0.000412484
0.00114618
0.000876099
0.00105131
0.000863485
0.000326539
0.000460591
0.000483099
0.000391218
0.000862352
-0.000196394
-0.000443781
0.000276695
0.00054169
0.000622718
0.000579126
0.00065359
0.000833285
0.00110567
0.000908025
0.000712854
0.00106172
0.000252676
0.000951229
0.000421433
0.000850155
0.000709817
2.17531e-05
0.00087565
0.000771408
-0.000732252
0.000609543
0.000586886
0.000703884
0.000424292
0.000487845
0.000694428
0.000593815
0.000474989
0.000504346
0.000569187
0.000701838
0.000713787
0.000687971
0.000687587
0.000718242
0.000696682
0.000598378
0.000682676
0.000642227
0.00066427
0.000728796
0.000730158
0.000439091
-0.00113293
0.00115379
0.000857923
0.00108825
0.0014346
-0.00152887
0.0010232
0.000971522
0.000610442
0.000697018
-8.92285e-05
0.000705319
0.000559679
-3.21912e-05
-2.56273e-05
0.00155558
0.00074647
0.000173913
0.000637025
0.000341226
-0.000328778
-0.000253542
0.00179221
0.000971447
0.00145109
0.00074229
0.000937123
0.000553111
0.000243653
0.000518067
0.000485371
0.000523555
0.000585192
0.000319664
0.000581165
0.000695916
0.000572301
0.000227656
0.000579413
0.000799436
0.000636167
0.00103717
9.78713e-05
0.000957669
0.000638096
0.00154564
0.0013629
0.000268707
0.000954836
0.000447852
0.000728996
0.000739252
-0.00085911
0.000774659
0.00105608
0.000589696
0.00109547
-7.87866e-05
0.00282987
0.00177248
0.000278106
-5.82003e-05
0.000573642
0.0022092
0.00100523
0.000468345
0.000851751
0.000948636
-0.00012847
0.000541098
1.66294e-05
0.000209965
0.000170102
-6.67354e-05
0.001409
0.00100666
0.000807034
0.000531201
0.00148945
0.00080608
0.000597953
0.000491521
0.00146518
0.00168467
0.000589128
0.00188647
0.000742599
0.00125827
0.0015552
0.000788926
0.000852647
0.00069288
0.00053168
0.000712865
0.000425637
0.000470416
0.000423935
0.000415831
0.000474432
-0.000352673
0.000842316
0.00097583
0.001481
0.000724239
0.000760244
0.000862978
0.000834781
0.000821042
0.000925664
0.000741014
0.000576734
0.000539068
0.000282733
0.000626027
0.000448801
0.000223025
0.000162127
0.0005056
0.000778952
0.000715108
0.00108581
0.000599505
0.000582067
0.000691669
0.000817415
0.000582097
0.00063163
0.000612644
0.000638805
0.000396909
0.000828124
0.000578321
0.000437859
0.000838985
0.00100737
0.000862999
0.000785456
5.14223e-05
0.000146331
2.25354e-05
0.00125174
0.00105435
0.000682151
0.000949127
-6.6061e-05
0.000673494
0.00055918
0.000865135
0.000626111
0.000498744
-0.000114215
0.00130365
-9.39246e-05
0.00115994
0.000516732
0.000655986
0.000491753
0.000949793
0.000295812
0.000456209
0.000801424
0.000326495
0.000646155
0.000837109
0.000866864
0.00102497
0.00124525
0.000695123
0.000960186
0.000625899
0.000631099
0.000435419
0.000206196
0.000486677
0.000727917
0.00017408
0.000579158
0.000476231
0.000904916
0.000982557
0.000537302
0.000940088
0.000788144
0.000626368
0.000405872
0.000737752
0.00078364
0.000668356
0.000367145
0.000908139
0.000782155
0.000717779
0.000736957
0.000337685
0.00101405
0.00055997
0.00034514
0.000635398
0.000867142
0.000179114
0.000137104
0.000578962
0.000935471
0.000515938
0.00150289
0.00046785
0.000292881
0.000628255
0.000548668
0.000772491
0.000388604
0.000783556
0.000806085
0.00083438
0.000879636
0.000834241
0.00054226
0.000142542
0.000908067
0.000573775
0.000189478
0.00116339
0.00131971
0.000967942
0.000218737
0.000632895
0.00134609
0.000369554
0.00102569
0.00120499
0.000740966
0.00164987
0.001057
0.00019035
0.000607892
0.000515412
0.00141996
0.000331479
0.000650628
0.0005408
0.000632229
0.00064855
0.000717382
0.000155508
0.000784064
0.00044696
0.000359084
0.000546535
0.000862696
0.000698931
0.000901075
0.000523252
0.000972224
0.00093001
0.000961516
0.00107313
0.000898812
0.00133018
0.00148953
0.000438243
0.00102819
0.00040509
0.000132958
0.00043858
0.000189789
-3.4878e-05
0.000879818
0.00152135
0.00136789
0.000515786
0.000851591
0.00142836
0.000790161
5.28649e-05
0.0010537
0.00131647
0.000901178
0.000649462
0.000453263
0.000538916
8.15321e-05
0.000551867
0.000652694
0.000109621
0.000965363
0.000618378
0.000346046
0.000660856
0.000577825
0.000679389
0.000556709
0.000289685
0.000839612
0.000705051
0.000448032
0.000638039
0.000376291
0.000296075
-0.00111221
-0.000542515
0.000152258
0.000244682
0.000628432
0.000671929
0.000218915
0.000670904
0.000426128
0.00050083
0.000775809
0.00067153
0.000740104
0.000577483
0.000688814
0.00072217
0.000597617
-4.6052e-05
0.000547074
0.000281151
-0.000596444
0.000942137
0.000868517
0.000663143
0.000595487
SCALARS CoVolArea double 1
LOOKUP_TABLE default
263953
108279
193831
185914
144324
202320
151693
140607
161691
192470
228861
155911
221844
196260
211896
255885
158942
171187
191958
221920
219975
238969
179630
156879
345370
256500
242593
304519
403197
383714
264258
245647
235080
250209
255439
252169
401682
215569
200167
187095
202090
214951
251302
211773
271101
207137
237178
227369
135621
191435
138430
208639
267713
351011
206542
152994
136299
182184
313913
160937
137736
172183
180326
290753
273945
261592
240875
137788
266490
202849
221524
206451
299060
307935
317479
244372
236022
221755
257824
203341
161210
164580
168158
170329
164937
307201
241905
201340
218601
362658
202918
253286
289608
208845
251254
241918
298293
187659
169382
341338
92015.8
116831
206999
297582
183135
146927
154870
140430
147037
190939
234636
162733
236103
273827
249882
245340
227595
171573
256210
271249
224050
293692
258694
244515
262068
248593
308053
239859
246619
253387
225039
254069
218958
242656
168059
268310
220756
190924
197631
166211
216384
209612
252826
224921
160088
170281
209724
203939
189881
169100
237305
205544
276388
161320
220750
280344
198198
188194
409032
194795
171502
232908
309183
261208
373244
224311
196383
209084
227472
191234
196254
195802
222213
204960
218666
215966
200568
217229
225720
237354
164768
133717
170162
182967
153349
152319
154869
156035
194908
256831
245001
234122
326290
354928
284700
265463
183661
201390
148473
302698
244182
255986
316312
334369
174415
218656
134905
139142
150044
152004
146051
150038
189533
122723
153138
222110
163744
164466
230035
223492
252640
243872
162253
177957
228387
114350
139047
179225
151866
155251
148350
172137
190898
246566
265496
240215
218494
172756
199872
258746
231077
291085
272048
353094
195211
244697
253845
199410
219907
203848
241415
132595
178992
245768
216745
172666
200772
241071
254205
202434
225309
223071
172659
166274
213962
204066
219217
310786
286111
299337
289025
285945
271509
264304
249129
334304
317798
289267
298416
249253
235929
258006
233166
196905
236135
237658
228108
243135
241217
350383
310016
294695
267365
176954
259455
296386
184117
254195
165935
297449
257825
169071
160445
169126
222358
232846
199265
167405
199255
163601
155320
147587
165796
161134
174579
200672
184160
181959
217892
332638
168473
135149
242855
201767
299888
188968
193539
310224
213693
324933
202067
210344
208923
254225
166897
291760
323654
188052
247946
396147
412187
173839
257689
225561
242452
206813
245371
254950
299152
272842
301568
281468
272209
267984
226370
238717
238607
242164
249058
223513
210780
327835
249777
248416
176725
207882
253107
267905
310739
315666
250699
336162
219077
175338
295182
195701
291473
85536.1
86590.9
230542
103752
236800
99971.9
181409
186002
185760
147741
403472
293246
309285
316594
278852
353205
173815
201633
251735
259111
170670
172066
201122
220516
150489
125558
117744
106356
200192
111134
162402
142409
168783
156407
181889
159978
174567
229966
209943
233324
239153
310874
171034
210800
168115
234692
248462
227009
247032
240203
224898
243899
257732
277476
232001
212037
200021
265488
230973
236852
194943
192444
222612
209545
244005
225572
266177
249335
244670
218418
233245
271229
279796
294731
311930
237106
218275
267046
245400
328168
289484
395721
179758
220556
271593
238556
268203
238169
273637
232785
241484
261753
389676
259238
324578
217016
230447
265851
312369
315931
367689
248976
230888
307009
256243
217896
228975
224304
203104
232619
228949
238054
230501
269894
322883
214238
210991
198829
230790
214720
186409
169591
196357
211879
293336
271153
286602
237705
225314
244981
249298
204972
225654
234869
176147
218484
179945
183926
175204
188500
204447
228856
224875
204236
205883
171928
142089
189882
210265
199363
279023
246700
283977
237694
238185
227358
232044
251251
213898
205920
167079
176451
214667
137576
191687
175991
221415
229871
166958
188942
151623
151703
249716
185582
254752
237415
221938
208484
179619
188611
211784
190519
177397
205831
215140
301516
195692
208986
185348
186566
218227
201945
205408
257328
243376
230101
227413
247941
207651
202057
167929
248032
258186
279680
284652
325280
331852
311581
258321
235048
256149
170649
207886
141882
155346
245594
203262
213252
186053
224378
249996
285449
324243
294843
232915
272734
238201
257786
246252
166989
194834
170058
178440
316546
162245
289556
181132
180303
203875
100199
501901
313168
221434
341540
214459
269543
370852
211965
241368
217027
171403
166874
179141
198234
153553
194643
231376
246481
184913
273849
271667
229423
212648
199079
192602
SCALARS SignedDistance double 1
LOOKUP_TABLE default
1166.48
1448.23
889.174
897.741
1195.37
1590.48
1292.49
1468.45
1352.31
1203.05
1411.73
943.822
954.492
1190.09
1317.66
1625.36
1159.65
1196.61
1054.88
1098.35
996.813
1074.72
1361.97
1389.44
1238.36
1315.11
1181.37
1056.31
1814.47
1397.34
1551.69
1708.47
915.471
1131.1
906.485
899.583
1050.13
1039.73
1064.51
1351.3
1101.81
1294.77
1109.9
1109.14
1297.42
998.074
992.417
931.037
1435.91
1246.96
1408.42
1280.15
1135.56
1580.23
1516.57
1290.32
1379.34
1499.11
1268.17
1167.49
1289.06
1119.05
1155.03
1284.36
1298.08
815.998
984.85
1339.07
864.889
1152.88
995.83
1168.79
1075.02
1195.66
1174.78
1024.22
1024.81
1447.28
1568.99
1424.89
1423.86
1303.91
1351.85
1285.52
1401.48
1533.73
1089.2
1150.75
1223.27
1474.51
1319.01
997.787
1045.1
1188.6
1100.62
952.47
1082.38
968.669
1414.09
1529.05
1559.85
1450.91
1315.53
1751.2
1404.94
1427.22
1635.51
1513.34
1382.56
1467.1
1674.91
1412.09
844.671
910.26
912.74
1173.36
1112.49
1126.58
997.051
1034.23
1127.3
1022.22
1022.57
961.911
903.136
1041.03
1015.61
903.699
1008.49
991.862
991.919
997.99
1197.68
1073.86
1244.3
1101.25
940.427
1317.43
1219.32
1296.51
1277.58
1352.15
923.835
1274.24
1205.63
1137.58
1248.49
1236.63
1267.53
1366.98
871.001
1077.23
1168.08
1344.94
1151.13
1282.53
1465
1397.65
1850.92
1332.07
1361.37
1434.36
1163.98
1204.52
1215.24
1019.46
1093.91
1012.23
1276.98
1182.71
1211.55
956.541
939.254
922.381
1062.92
981.676
1061.8
933.263
947.598
961.134
1477.81
1418.97
1470.71
1269.17
1339.43
1379.49
1307.46
1326.65
1212.3
1038.7
1112.02
1158.4
1198.98
1233.42
1373.04
1273.15
1117.12
1197.42
1201.96
1585.25
1538.92
1548.37
1605.17
1623.28
1496.67
1493.58
1369.44
1408.83
1471.79
1266.28
1331.22
1211.4
1563.71
1447.79
1475.3
1420.04
1439.4
1324.25
1316.81
1150.91
1081.99
1178.02
1128.8
1297.6
1237.78
1382.72
1301.27
1135.63
1188.15
1208.57
1209.45
1150.38
1262.22
1352.85
1467.05
1195.84
1267.78
1086.98
1214.26
1235.65
1133.96
1051.59
1071.21
1263.76
1035.75
1071.34
865.261
976.452
964.954
935.679
875.064
1365.27
1168.35
965.886
1003.46
1197.7
1025.8
918.579
1239.85
1132.62
1246.59
953.187
1078.32
1093.26
1093.64
1060.07
1038.82
774.22
868.341
804.761
1102.1
1034.64
1056.06
1055.11
988.029
1348.57
1245.82
1071.78
1181.98
1119.21
1176.78
1116.75
969.732
957.938
936.207
954.892
1047.76
986.65
1040.44
1103.83
1061.11
964.992
1600.22
1552.5
1549.93
1622.23
1434.62
1477.16
1417.24
1483.22
1466.33
1394.31
1419.6
1399.74
1457.52
1474.91
1254.59
1285.63
1247.04
1366.19
1327.6
1346.72
1324
1319.46
1349.49
1432.2
1388.83
1398.61
1477.11
1577.05
1325.82
1410.91
1427.77
1531.95
1502.82
1004.77
1026.43
1222.46
1107.76
1178.09
1053.89
1142.05
1194.2
1241.52
1234.05
1353.24
1245.67
1296.94
1364.66
1285.07
1280.4
1316.36
1366.04
1469.54
1041.74
1001.15
1058.05
1062.13
1007.15
1011.45
1008.64
1288.79
1194.59
1087.64
1133.34
1136.08
1151.71
1115.28
885.868
936.651
884.251
1038.84
1025.96
1064.18
1121.71
1031.2
1154.19
1041.81
1054.18
1025
1329.36
1442.62
1253.95
1299.53
1525.73
1466.03
1594.27
1573.15
1462.97
1524.31
1463.08
1603.15
1412.37
1314.77
1297.59
1382.13
1388.16
1582.55
1402.67
1363.8
1471.45
1410.44
1804.93
1446.16
1557.28
1586.02
1476.37
1690.39
1286.35
1326.06
1572.97
1512.84
1580.5
1470.35
1426.32
1494.81
1446.03
1609.62
1309.92
1280.42
1407.4
1437.46
1385.06
1712.9
1554.99
1587.48
1440.75
1490.73
1608
1382.94
1490.42
1552.54
873.927
868.265
893.509
888.893
860.232
849.455
895.123
904.039
923.983
1188.81
1189.15
1203.43
1140.55
1157.5
1157.61
1018.45
1095.37
1014.39
1094.12
1039.07
1147.59
964.534
1008.62
945.004
1120.22
1071.21
1101.22
980.507
1080.91
1002.85
997.209
971.548
934.321
973.001
1039.9
1024.32
1034.83
1072.53
962.825
901.141
890.267
943.479
948.973
929.974
988.949
918.201
892.995
1037.79
1065.53
1042.4
860.971
996.636
949.254
952.767
982.391
1044.35
985.254
958.419
1049.65
1029.18
1004.78
967.119
1009.93
916.096
984.098
979.142
967.086
997.369
1028.31
1042.99
1231.7
1206.85
1256.78
1103.12
1144.24
1153.8
1123.66
1142.77
1070.92
1008.44
1010.79
1034.58
986.413
908.241
1065.65
1041.23
1003.94
1034.22
1101.68
1307.89
1260.3
1317.97
1305.48
1341.36
1230.74
1157.36
1290.82
1300.85
1353.79
1230.18
1299.78
1240.77
1345.11
1302.26
1307.84
1136.6
1233.53
1184.94
875.635
983.791
907.86
861.074
892.168
1306.38
1289.05
1243.3
1264.74
1274.22
1247.29
1163.07
1202.46
1213.03
978.839
1112.5
1284.92
1210.27
1227.11
1047.41
1168.59
983.079
1140.58
1180.03
1182.03
1248.52
1277.82
1235.01
1320.59
1280.45
1225.41
1204.55
1462.07
1364.74
1422.23
1408.6
1377.97
1243.58
1319.31
1300.93
899.287
822.597
842.218
910.92
986.578
1162.48
1257.11
1265.71
1073.51
907.42
1067.7
1104.86
1034.97
1095.09
1213.64
908.673
1139.72
1035.01
1338
1169.1
1277.53
1392.9
1443.56
941.374
1213.69
1044.78
1041.87
1082.81
1289.68
1353.54
1318.22
1214.52
1214.07
1270.27
1360.58
1427.32
1412.68
1412.61
1419.04
1467.8
1538.97
1387.85
1506.24
1413.53
1371.96
1391.06
1661.33
1696.14
1745.9
1695.02
1902.83
1446.04
1518.56
1524.26
1250.68
1261.65
1262.31
1316.55
1364.24
1354.39
1407.84
1385.18
1319.19
1286.61
1587.93
1427.25
1477
1584.86
1470.98
1348.29
1393.49
1392.87
