# vtk DataFile Version 4.2
vtk output
ASCII
DATASET POLYDATA
POINTS 642 double
-2816.92 7013.45 -227.356
1403.57 6809.27 -165.783
-2881.29 -364.733 -42.1805
1854.59 -366.836 -18.7473
-568.993 1070.62 3582.49
-782.232 5393.83 3132.3
-526.037 1258.95 -3341.42
-738.956 5673.87 -3641.93
2769.75 3319.74 -1984.64
2923.02 3275.82 2015.67
-4002.72 3606.43 -2211.67
-4272.58 3456.26 2252.41
-4080.27 5589.25 1302.87
-2714.5 4728.81 3336.61
-1903.49 6629.57 1972.98
507.099 6475.52 1604.96
-546.702 7600.56 -101.357
653.277 6778.89 -2053.96
-1989.45 7107.38 -2346.4
-2753.21 4912.46 -3595.09
-4142.71 5720.72 -1505.7
-4802.18 3446.87 15.7832
1408.86 4493 3015.15
2542.67 5202.81 1130.88
-2602.65 2010.87 3207.31
-513.357 3313.15 3837.6
-3910.21 1214.1 -1259.47
-3964.3 1199.36 1307.79
-719.798 3638.35 -3692.15
-2465.77 2208.99 -3035.24
2380.11 5282.08 -1143.85
1269.51 4725.86 -2924.17
3101.13 1152.9 1312.99
1539.43 2065.21 3245.97
852.589 -168.826 2149.97
-1958.42 -233.971 2195.33
-530.429 -804.105 -50.443
-1844.07 -64.9043 -2139.77
794.88 -49.6089 -2119.51
1426.15 2097.88 -3095.37
2992.97 1219.32 -1298.26
3567.13 3189.67 11.7733
-3540.34 6375.92 646.832
-3086.43 6303.16 1743.57
-2384.06 6896.34 1025.4
-3613.32 4128.01 2931.69
-3549.7 5240.03 2475.46
-4323.91 4566.84 1858.5
-1336.37 6121.45 2687.97
-2384.61 5833.45 2794.09
-1729.77 5153.06 3403.85
-1165.3 7300.11 896.297
-1663.84 7419.1 -150.871
-59.6209 5914.48 2452.15
-643.622 6716.88 1838.8
499.249 7361.02 -133.62
45.3032 7250.11 871.737
966.541 6817.9 780.027
-1355.01 7416.51 -1232.26
-2507.81 7301.18 -1311.5
1128.5 6958.71 -1105.6
108.179 7423.83 -1149.44
-1368.21 6520.48 -3153.53
-667.818 6996.46 -2296.84
-20.5009 6291.82 -2864.68
-3235.02 6608.1 -2020.83
-3591.34 6543.13 -892.359
-1732.49 5391.51 -3879.61
-2491.95 6147.33 -3180.4
-4261.02 4728.18 -1980.97
-3661.08 5412.97 -2727.33
-3523.9 4285.91 -3007.06
-4204.13 5715.02 -63.6618
-4532.33 3465.45 -1103.36
-4544.63 4621.21 -763.412
-4678.91 4592.08 689.943
-4705.21 3457.82 1176.72
1658.62 5867.27 1508.33
1953.23 5997.96 478.479
472.451 4925.92 3134.84
1073.38 5504.41 2478.14
2848.49 4339.08 1635.7
2118.22 4931.5 2171.12
2239.73 3958.59 2648.48
-1744.97 4091.62 3776.65
-668.693 4362.08 3561.66
-3577.17 2817.19 2885.75
-2814.84 3464.68 3491.83
-508.365 2208.12 3825.86
-1630.41 2808.09 3706.73
-1653.51 1437.98 3544.89
-4616.59 2303.64 658.827
-4226.4 2364.41 1801.32
-4071.5 2338.48 -1744.5
-4534.12 2318.49 -667.605
-3576.83 286.777 687.065
-4132.91 1097.71 -45.9081
-3575.48 293.784 -727.447
-2724.76 3621.06 -3525.87
-3267.35 2931.8 -2733.83
-749.481 4740.83 -3953.53
-1697.14 4325.53 -4020.72
-1532.35 1584.99 -3297.41
-1605.93 2967.39 -3588.52
-516.905 2265.45 -3620.96
1039.26 5812.72 -2687.64
287.576 5191.35 -3369.17
1976.12 6229.92 -746.275
1653.82 6200.14 -1688.42
2102.05 3928.7 -2544.69
1913.39 5079.17 -2219.04
2742.52 4298.78 -1607.2
2627.25 250.649 681.531
2123.65 343.455 1800.28
1441.77 -411.596 1102.28
2360.04 2648.86 2717.45
2494.69 1517.89 2422.94
3213.21 2204.68 1767.85
142.201 363.915 2977.17
1305.6 834.499 2871.4
563.206 1522.38 3530.66
230.053 -726.3 1151.76
748.847 -743.079 -21.4413
-1239.06 327.387 3035.18
-548.31 -358.31 2311.07
-1794.82 -769.703 -14.1575
-1316.08 -721.817 1152.93
-2489.18 -456.393 1163.85
209.939 -674.067 -1168.49
1384.45 -316.836 -1117.29
-2463.28 -358.879 -1127.71
-1263.49 -683.784 -1180.28
147.093 510.851 -2831.43
-545.548 -200.455 -2232.87
-1226.37 478.628 -2882.51
2003.1 464.132 -1751.68
2575.33 300.08 -704.73
504.038 1637.04 -3331.06
1205.86 948.154 -2780.55
3071.78 2201.1 -1696.15
2319.47 1619.2 -2318
2193.34 2689.78 -2624.87
3273.8 1039.24 -14.4387
3302.21 3234.08 -1026.21
3573.54 2210.53 -682.25
3656.98 2204.5 662.334
3430.19 3209.3 1034.48
531.891 2676.48 3753.24
1575.24 3328 3308.9
506.097 3931.07 3613.79
-3157.72 292.276 1867.66
-2423.84 773.686 2978.89
-3459.59 1474.35 2469.6
-2258.26 926.018 -2814.71
-3055.83 427.549 -1773.57
-3292.17 1625.81 -2298.59
1452.98 3319.71 -3125.29
446.287 2715.92 -3546.23
251.352 4153.28 -3489.91
3178.63 4334.91 609.741
3138.93 4323.99 -628.888
2656.98 5275.41 -15.1709
-3166.69 6663.23 217.108
-2998.83 6683.2 866.511
-2571.12 6919.83 432.106
-3620.44 5991.93 1546.32
-3344.63 6369.08 1220.8
-3843.22 6014.47 991.305
-2173.23 6798.06 1513.98
-2763.22 6637 1404.38
-2504.19 6519.05 1881.12
-3982.19 3794.68 2625.81
-4021.58 4353.23 2439.28
-4340.55 4008.88 2082.9
-3162.65 4996.84 2954.17
-3611.91 4701.39 2739.4
-3184.63 4444.26 3170.41
-4239.45 5102.48 1595.05
-3974.88 4929.58 2194.74
-3860.67 5439.03 1918.13
-1081.58 5780.62 2944.21
-1541.94 5670.53 3082.49
-1269.12 5307.13 3291.37
-2155.99 6278.25 2411.11
-1861.25 6010.72 2771.52
-1618.93 6409.47 2361.3
-2217.75 4962.17 3410.7
-2068.36 5512.91 3138.94
-2572.11 5312.22 3112.56
-3355.47 5817.66 2139.65
-2989.33 5581.19 2683.2
-2762.63 6107.18 2311.33
-1989.54 7185.58 410.533
-2242.59 7196.26 -240.855
-1537.57 6918.18 1420.83
-1769.57 7093.28 944.779
-1085.61 7568.02 -93.0072
-1388.53 7417.51 412.655
-875.127 7512.43 413.427
-450.991 5634.92 2783.32
-784.928 6087.04 2602.93
-60.5907 6697.08 1725.89
-424.214 6362.34 2137.18
271.444 6200.24 2018.12
-1029.16 6415.56 2313.13
-1251.78 6684.9 1964.56
976.497 7118.18 -148.654
779.351 7124.21 359.779
1204.38 6843.09 318.272
-237.274 7483.33 405.413
271.389 7349.6 390.569
-18.8995 7525.15 -119.446
735.466 6703.81 1218.36
534.959 7061.68 851.801
281.678 6936.72 1262.98
-877.056 7067.87 1412.89
-270.077 7053.2 1364.79
-558.867 7345.85 909.867
-2148.63 7375.03 -809.864
-2678.72 7182.36 -801.764
-869.712 7573.89 -627.62
-1543.61 7460.3 -693.678
-2269.49 7260.09 -1826.32
-1994.91 7450.51 -1331.3
-1748.47 7360.78 -1834.37
1301.4 6933.33 -629.775
847.383 7225.85 -633.307
399.75 7152.14 -1628.18
633.51 7231.94 -1144.04
907.641 6906.98 -1598.55
317.981 7450.16 -643.004
-203.008 7573.83 -639.241
-1051.83 6120.87 -3436.41
-747.278 6422.99 -3072.81
-442.904 5990.11 -3268.47
-1389.8 7102.35 -2397.39
-1075.43 6810.65 -2772.21
-1684.45 6856.84 -2792.89
370.817 6576.22 -2464.74
-338.759 6672.47 -2612
65.5077 6945.71 -2168
-530.597 7504.51 -1177.97
-210.682 7282.05 -1710.56
-1003.76 7265.85 -1793.11
-3094.09 6976.79 -1117.42
-3215.72 6830.8 -559.258
-2630.71 6911.92 -2211.62
-2899.55 7009.3 -1671.38
-3909.41 6179.25 -1207.88
-3475.41 6640.07 -1463.58
-3742.77 6207.55 -1774.97
-1227.24 5566.82 -3797.6
-1557.93 6008.39 -3564.2
-2668.43 5531.34 -3451.72
-2116.98 5791.23 -3545.84
-2251.87 5164.48 -3789.28
-1922.22 6395.78 -3222.5
-2253.83 6679.89 -2809.3
-4146.46 4182.55 -2132.55
-3941.96 4528.28 -2522.26
-3803.2 3966.5 -2640.47
-3960.78 5589.86 -2136.77
-4031.6 5080.87 -2378.84
-4276.2 5220.08 -1777.08
-3163.17 4619.65 -3324.35
-3635.57 4880.3 -2907.24
-3251.55 5187.85 -3220.66
-2904.87 6425.88 -2651.72
-3121.41 5815.27 -3002.89
-3494.7 6049.98 -2418.6
-3562.99 6455.77 -145.538
-4174.83 5747 -829.659
-3917.85 6136.38 -502.076
-3905.47 6068.76 295.319
-4199.58 5673.93 655.903
-4240.04 3526.9 -1660.75
-4342.51 4157.07 -1553.53
-4721.92 4022.22 -330.052
-4569.42 4059.04 -947.202
-4707.02 3439.86 -551.135
-4433.58 4714.94 -1409.91
-4390.16 5190.82 -1191.05
-4579.41 4012.61 1553.32
-4541.5 3456.8 1739.34
-4437.6 5114.22 1019.56
-4542.75 4599.86 1288.9
-4814.33 3457.9 578.001
-4715.83 4022.04 931.042
-4803.17 4026.31 355.346
-4446.21 5188.29 -423.27
-4699.21 4603.76 5.63685
-4500.79 5167.12 345.384
1465.29 6449.58 573.4
1654.64 6487.48 102.862
1077.54 6178.64 1596.23
1248.78 6312.59 1098.56
2308.69 5570.77 859.362
1845.96 5940.43 1025.69
2124.63 5568.15 1337.14
-112.766 5131.62 3117.33
262.702 5431.89 2833.53
1257.41 5029.69 2773.05
799.291 5240.41 2824.41
955.594 4721.03 3104.43
596.09 5704.07 2492.2
843.623 5939.17 2115.53
2912.06 3839.99 1848.94
2588.75 4159.6 2167.92
2595.07 3653.66 2372.86
2370.28 5086.84 1670.77
2508.05 4654.85 1925.99
2725.53 4787.78 1392.91
1842.49 4236.1 2861.66
2204.07 4465.45 2430.48
1797.33 4730.48 2620.72
1394.05 5716.99 2023.36
1615.63 5249.81 2357.83
1915.32 5434.52 1862.72
-1291.05 4804.26 3531.27
-736.747 4911.89 3312.03
-2209.18 4418.19 3613.95
-1745.18 4624.05 3628.95
-574.142 3862.78 3741.63
-1267.84 4278.22 3709.01
-1210.37 3746.79 3732.23
-3961.39 3129.58 2607.07
-3651.16 3459.37 2958.44
-2771.56 2847.5 3400.29
-3225.14 3139.91 3227.06
-3108.02 2454.22 3070.39
-3239.26 3794.22 3251.17
-2795.6 4097.47 3456.72
-568.684 1605.73 3700.88
-1046.87 1750.14 3704.87
-1091.05 1246.52 3626.97
-1079.44 3060.25 3820.7
-1005.26 2428.92 3779.89
-484.354 2776.27 3897.72
-2170.86 1635.52 3454.96
-1597.33 1999.79 3565.79
-2145.17 2391.38 3469.69
-2258.09 3785.83 3722.5
-2264.13 3171.8 3685.97
-1751.15 3473.93 3839.91
-4537.84 2916.1 1534.61
-4303.28 2926.69 2061.49
-4757.45 2876.66 336.877
-4678.64 2892.51 918.82
-4122.47 1745.38 1550.52
-4462.31 2314.87 1241.32
-4346.21 1768.44 979.603
-4035.82 2912.61 -1953.43
-4327.89 2871.29 -1435.44
-4246.3 1760.09 -988.858
-4336.97 2308.09 -1224.5
-4013.62 1786.75 -1510.99
-4561.02 2871.38 -879.278
-4714.85 2868.66 -335.271
-3264.1 -84.8127 326.127
-3618.01 245.145 -43.578
-3264.23 -79.3403 -395.833
-4092.38 1129.97 634.704
-3908.96 640.428 315.414
-3817.3 687.198 1022.14
-3797.8 723.204 -1023.19
-3911.89 648.792 -395.553
-4092.67 1105.67 -689.055
-4652.21 2292 -5.661
-4385.82 1702.33 -355.892
-4440.49 1710.81 323.987
-3445.23 3650.02 -2971.04
-3668.64 3283.49 -2460.09
-2756.97 4254 -3600.63
-3138.19 3932.85 -3321.91
-2907.85 2604.42 -2962.16
-3030.22 3329.51 -3225.42
-2642.71 3057.31 -3329.83
-722.709 5171.54 -3893.45
-1228.35 5050.02 -4027.12
-1274.7 4079.59 -3963.41
-1238.37 4555.57 -4030.2
-810.022 4317.15 -3911.3
-1729.03 4861.8 -4053.25
-2188.1 4615.86 -3875
-1044.21 1410.69 -3351.62
-1007.22 1941.42 -3534.44
-516.586 1760.65 -3540.98
-2034.5 2609.81 -3357.94
-1500.01 2180.4 -3475.41
-1990.23 1803.52 -3177.41
-533.668 2859.73 -3670.04
-1024.91 2518.17 -3620.11
-1179.82 3313.94 -3699.32
-2217.52 3957.52 -3827.8
-1738.57 3726.87 -3896.79
-2215.1 3376.51 -3663.97
146.132 5754.28 -3160.02
-266.592 5410.44 -3559.79
[...]
POINT_DATA 642
SCALARS Mean_Curvature double 1
LOOKUP_TABLE default
0.000709223
0.000674197
0.000560828
0.000622427
0.00102396
0.000791904
0.000590593
0.000793179
0.000544264
0.000285751
0.000599873
0.000738725
0.000568419
0.00060808
0.000521572
-5.14479e-07
0.000682251
0.000585453
0.00079607
0.000657898
0.000698723
0.000476294
0.00046474
0.000519399
-0.000234215
0.000287672
0.000382849
0.000185439
-0.000317377
-0.000129353
-9.33353e-05
0.00037062
0.000595895
0.000354502
0.000569927
0.000693252
0.00015726
0.000572116
0.000611632
0.000451863
0.000570069
0.000432518
0.000555194
0.000563499
0.000405663
0.000556954
0.000526704
0.000510086
0.000611381
0.000573846
0.000698624
0.000575789
0.000422341
7.45639e-05
0.00028219
0.00054836
0.000629289
0.000605436
-3.52742e-05
0.000938946
0.000563624
0.000648531
0.000685079
0.00020945
0.000263387
0.000569509
0.000459729
0.000802991
0.000576456
0.000705568
0.000695802
0.0004339
0.000379298
0.000454055
0.000141153
0.000591221
0.000514366
0.000470504
9.52993e-06
0.000363878
0.000520474
0.000536757
0.000506679
0.000510508
0.000819595
-8.76481e-05
0.000580848
0.000553651
0.000426826
5.26456e-05
0.00061467
0.000564583
0.00021143
0.000540131
0.000487964
0.000369092
0.000199669
0.00064639
0.000664989
-0.000322812
0.000992123
0.000862671
0.000223644
-2.75316e-05
0.000374066
0.000529752
0.000420019
0.000884342
0.000592281
0.000410047
0.000335043
0.000487532
0.00057819
0.000521099
0.000442168
0.000270621
0.00068881
0.000643447
0.0003103
0.000436688
0.000568487
0.000573968
0.00046433
0.000509123
0.000635008
0.000493848
0.000230417
0.000584856
0.000595971
0.000325302
0.000519656
0.000614776
0.000353989
0.000527052
0.000707442
0.000362763
0.000573208
0.000349851
0.000516717
0.00080395
0.000440006
0.000360488
0.000572751
0.000219182
0.000774117
0.000792744
0.000333196
0.000370218
0.00051145
0.000557668
0.000595414
0.000558755
0.000538347
0.000629623
0.000512235
0.00013561
0.000423768
0.000365753
0.000147667
0.000516313
0.000566617
0.000417803
-1.13526e-05
0.000567197
-0.000103249
0.000566427
0.000550519
0.000560262
0.000538485
0.000556818
0.000545557
0.000608579
0.000541923
0.000581334
0.00052421
0.000547043
0.000562136
0.000544378
0.000530209
0.000535864
0.000570464
0.000626239
0.000585
0.000580484
0.000557192
0.000583782
0.000529864
0.000576714
0.000626067
0.000541038
0.000543635
0.000561605
0.000257935
-0.000194483
-9.63722e-05
0.000184164
0.000664661
0.000611175
0.000697064
-0.000395021
0.00064421
0.000652725
-3.57757e-05
-0.000149952
0.000533494
0.000441897
0.000546027
0.000611236
0.000631995
0.000663033
0.000594533
0.00055063
0.000626097
0.000656271
0.000655514
0.000619288
0.000654187
0.000694163
0.000606248
0.000507275
0.000449462
0.000166317
0.000700405
0.00108719
0.0008614
0.000765008
0.000738021
0.000612542
0.000580568
0.000584209
0.000682643
0.000707082
0.000662669
0.000504145
0.000121709
0.000675215
0.000639563
0.000810376
0.000552588
0.000155049
0.000562106
0.000610534
0.00059233
4.9705e-05
0.000709311
0.000473399
0.000522959
0.00065288
0.000683741
0.000827884
0.000588444
0.00052113
0.000767366
0.000561242
0.000364719
0.000665507
0.000736318
0.000584881
0.000501716
0.000437452
0.000560378
0.000538181
0.000914887
0.000875689
0.00033724
0.000643714
0.000829715
0.000583888
0.000575028
0.000569207
0.000285905
0.000330741
0.000371549
0.000306972
0.000608694
-0.000137031
-2.91215e-05
0.000314446
0.000291993
0.000439762
0.000619153
0.00054305
0.000575557
0.000662958
0.000577244
0.000514509
0.000642302
0.000249318
0.000603587
0.000284117
0.000613412
0.00047634
0.000165214
0.000583933
0.000273623
-0.000301511
0.000464404
0.00038798
0.000524588
0.000210176
0.000401244
0.00050991
0.00046809
0.00043246
0.000441765
0.000451096
0.000491297
0.000524241
0.000495449
0.000505451
0.000526138
0.000522327
0.000483782
0.000513259
0.000483171
0.000502091
0.000521128
0.000525736
0.000561575
-0.000334254
0.000565898
0.000682727
0.00042885
0.000698242
-0.0003808
0.000650238
0.000632691
0.000459617
0.000580674
0.000187085
0.000534623
0.00045657
0.000280154
0.000482683
0.000921708
0.000307375
0.000153381
0.000767208
0.000971701
-0.000285201
-0.000134487
0.000679102
0.000643472
0.00100557
0.000561432
0.000652313
0.000433651
0.000259226
0.000330823
0.000390201
0.000430464
0.000336169
0.000346335
0.000349556
0.000511851
0.000381775
0.000338741
0.00051403
0.000533207
0.000497738
0.000630082
0.000117099
0.000660184
0.000632585
0.000741139
0.000707925
0.000601114
0.000622194
0.000334275
0.000526546
0.000651853
-0.000202022
0.00046801
0.000628924
0.000339548
0.000722514
0.000325418
0.000993011
0.00112454
0.000618364
0.00065569
0.000505046
0.0013459
0.000393132
0.000307602
0.000534596
0.000745856
-9.77639e-05
0.00046061
1.17817e-05
0.000186471
0.000317396
-6.61628e-05
0.000622626
0.000855312
0.000610576
0.000159145
0.000274953
0.000566141
0.000521844
0.000894431
0.000481014
0.000755722
0.00072554
0.000728204
0.000601697
0.000590056
0.000659116
0.000560513
0.000571914
0.000525675
0.000437593
0.000534014
0.00053686
0.000195902
0.000196235
0.000439351
0.000345648
-0.000137718
0.000571183
0.000638685
0.000617861
0.000548606
0.000550829
0.000553753
0.000564025
0.000569814
0.000592652
0.000483543
0.000479691
0.000418117
0.000244574
0.000608925
0.000609936
0.000402967
0.000372076
0.000350423
0.000610623
0.000609245
0.000617996
0.000527837
0.000401881
0.000430362
0.000556167
0.00049286
0.000472226
0.000442994
0.000479455
0.00038762
0.000552949
0.000471146
0.000416468
0.000665942
0.000633694
0.000564792
0.000505486
0.000163074
0.000299752
0.000115108
0.000611613
0.000670141
0.000422717
0.000616201
0.000176788
0.000521748
0.000399139
0.000540751
0.000366946
0.000385332
3.24853e-05
0.000876133
7.79078e-05
0.000627176
0.000678678
0.00051495
0.00035302
0.000597381
0.000443002
0.000399006
0.000596129
0.000371709
0.000490467
0.000543213
0.000519847
0.000626912
0.00068596
0.000643649
0.000598869
0.00037393
0.000422067
0.000392893
0.000329885
0.000403763
0.000559667
0.000276655
0.000498122
0.000400097
0.000621439
0.000595219
0.000444291
0.000650467
0.000484939
0.000479847
0.000353378
0.00056907
0.000546432
0.000474984
0.000357691
0.00059488
0.000583457
0.000557903
0.00045644
0.000360126
0.000652479
0.000519467
0.000461691
0.000587355
0.000589426
0.000131643
0.000220395
0.000409228
0.000566593
0.000728273
0.000682971
0.000344468
0.000349408
0.000577466
0.00043262
0.000452789
0.000378096
0.000559616
0.000553604
0.00055915
0.000592765
0.000565377
0.000318534
0.000431132
0.000780752
0.000654357
0.000231032
0.000865106
0.000595276
0.000794381
0.000227668
0.000499529
0.00065721
0.000527457
0.000797688
0.000867367
0.000469792
0.000838037
0.000584115
0.000221701
0.000498558
0.000479219
0.000753566
0.000416669
0.000476537
0.000459667
0.000498368
0.000496804
0.000526703
0.000329203
0.000548338
0.000480843
0.000390005
0.000476235
0.000555834
0.000544018
0.000598632
0.000505727
0.000602569
0.0006049
0.000602694
0.000670042
0.000378494
0.000972792
0.000722032
0.00047968
0.000643761
0.000407176
0.000440131
0.000181296
5.09709e-05
0.000248034
0.000572316
0.000810892
0.000684776
0.000752029
0.000550088
0.000610877
0.000825138
0.00072737
0.00064994
0.000687589
0.000638918
0.000538529
0.000392258
0.000500587
9.85025e-05
0.000471743
0.000482809
0.000153383
0.000427043
0.000681609
0.000654211
0.000511241
0.000468395
0.000526482
0.000443254
0.000312473
0.000595156
0.000523358
0.000441351
0.000484543
0.000386742
0.00124703
-0.000710276
0.00013365
0.000372726
-0.000117212
0.000460655
0.000467797
0.000342046
0.000418167
0.000244156
0.000335326
0.000556861
0.000504529
0.000529899
0.000473373
0.000535387
0.000470564
0.000344924
0.000258473
0.000507578
0.000288474
-0.000318007
0.000454263
0.00059025
0.000513653
0.000517531
SCALARS CoVolArea double 1
LOOKUP_TABLE default
313486
213634
296715
290728
260029
253158
251702
253504
255403
275639
297740
270902
359230
341735
336136
333390
313580
312579
354576
362866
369667
359356
300411
284587
412364
348561
351071
395126
415153
416074
359307
313934
375033
361703
382929
384516
442215
352405
342051
305379
352233
324818
360282
358403
355754
337598
376436
351052
271085
343030
278942
347122
363147
379524
328691
291279
296533
282901
429877
313277
286856
330959
320835
413414
361108
411919
356685
328284
412732
324695
391146
333420
417880
381370
419929
382111
350323
334391
342479
302966
292768
291575
303009
293339
307093
364710
355166
351234
327512
443427
318429
386386
384015
330314
378510
362931
404338
335097
316799
393146
220506
291554
306012
425972
285718
307731
310167
264644
297076
302087
331358
280904
363245
402943
367891
343231
367303
314805
363285
391974
338323
405766
359967
364592
399477
357909
411991
364016
381459
363336
347991
386912
326101
374571
302295
385871
350945
303752
341538
286196
349082
313877
395544
326436
336390
353170
317469
340556
326799
305117
391921
375134
382816
320126
363914
381643
314772
315029
450784
331088
312838
337926
383497
358082
401336
366292
329831
335808
328823
318150
339358
329860
349853
336024
362773
344661
328607
342315
350781
375073
270548
277668
272325
330536
294862
287122
299090
301502
347162
414135
406386
396728
389693
384884
385678
360493
321360
330206
312020
341611
314593
330927
349837
364170
291420
350445
270842
276088
265168
313024
288207
291093
288895
260946
283858
380655
330710
344503
334833
326820
384936
366202
326305
324849
374936
261517
287462
329631
298274
291232
295859
328655
312374
342817
341389
375990
339769
321421
320964
365874
367272
436417
425500
478175
339514
352617
409629
359459
347783
351711
396763
308357
341949
396909
370154
338926
354701
399838
345967
330131
329258
392236
330635
321779
337283
339483
376292
466702
455633
464345
384561
406438
378165
373506
383977
394014
381127
399751
383196
350194
347155
388048
354490
328334
375748
357783
344030
358680
374669
471647
446891
441271
332550
277392
360205
353329
291923
335235
296260
345895
337266
298645
276822
278213
317588
337839
313997
294147
313651
297376
280732
271620
282872
284380
305002
344338
332926
330681
306213
345146
333092
277427
339908
310450
365625
322216
330322
405909
335617
387226
331938
358965
314091
330917
304416
390537
387599
309363
338701
410354
458726
363912
412808
378707
355413
331078
375097
364037
383181
375385
407910
365009
364650
382336
341720
340999
344218
366706
363485
356540
343798
418793
363476
356726
315015
341378
372236
419177
439994
445985
347112
373658
367303
316268
376418
318293
375083
264940
275798
323420
242383
295377
288784
353546
300277
296531
276785
450088
373736
356511
363893
364430
419748
357606
368745
392135
369071
315148
315669
323878
299793
306252
281280
245038
262460
318153
257766
293919
286039
314269
275894
296805
281038
299730
325376
308717
313942
323676
369160
341500
346815
332030
356813
369909
352193
390342
366539
355469
362091
373331
401500
331825
327122
312432
375789
336312
338249
335871
326853
374531
336315
358204
337509
392460
361071
358155
330447
348903
383496
435081
431923
447702
358665
342608
397668
365478
390752
377453
447484
327916
351390
403504
363516
371727
360738
401087
353917
365002
371312
446090
366345
388375
350063
355760
395808
451530
454168
470157
362757
349150
406754
364540
341135
353814
366054
336957
353267
370997
358967
348011
369819
412943
318154
326563
308992
364561
334237
312735
309437
326007
356420
433780
421880
429013
357738
349615
374039
360049
337372
349017
368391
297397
323408
320899
303334
285818
311445
347256
318574
317991
309746
351025
299325
296969
297328
312639
329382
417623
397507
419098
365350
383477
358857
363629
393159
318302
308299
317672
298474
314682
288238
360165
309488
322904
382885
325352
300375
299160
314904
425692
387986
431084
345728
351460
329009
313595
322463
325982
317554
299510
323769
347671
351264
325592
316015
291062
310974
372477
355013
360642
374131
391308
363372
359256
381735
353228
351140
322988
369685
394466
382735
390085
403666
402188
395186
436201
408012
420322
296829
358010
293799
281864
340807
341704
351416
330371
347293
378134
364234
396359
375872
340852
376003
399821
403795
385387
287752
315424
288241
292262
366042
285301
382292
290507
293588
319917
241625
438971
331951
297894
431885
350119
413505
433153
326054
357179
327732
298862
301430
302291
321137
279063
314244
351941
319604
305851
342217
345737
353015
366280
344604
339894
SCALARS SignedDistance double 1
LOOKUP_TABLE default
1970.76
2420.23
1560.9
1566.5
1923.24
2620.18
2206.76
2243.5
2336.94
2101.22
2243.6
1652.72
1674.25
1953.14
2204.27
2630.71
1965.91
2068.78
1652.27
1832.06
1640
1844.24
2364.18
2408.94
2061.76
2268
1988.89
1791.16
2709.4
2384.72
2549.63
2765.36
1575.66
1971.34
1596.16
1540.31
1819.9
1806.17
1841.86
2330.3
1844.21
2182.88
1871.48
1890.16
2149.49
1723.82
1733.66
1633.56
2404.13
2066.95
2317.25
2163.17
1963.43
2633.82
2515.33
2168.96
2313.07
2523.43
1943.57
1804.2
2141.35
1913.03
1870.92
1968.77
2152.18
1414.55
1706.46
1896.34
1472.27
1916.14
1589.7
1958.35
1789.66
2021.8
1929.52
1719.54
1745.27
2511.01
2589.56
2477.9
2487.08
2260.27
2362.69
2234.73
2306.53
2509.45
1862.83
1932.35
2068.99
2269.17
2098.83
1741.59
1785.77
2043.63
1891.97
1625.65
1817.16
1659.74
2280.94
2360.57
2552.62
2318.64
2295.27
2566.58
2427.62
2353.43
2567.03
2501.42
2334.04
2521.6
2683.87
2445.84
1485.01
1590.34
1582.03
2043.57
1850.54
1883.46
1715.45
1788.9
1930.23
1736.88
1755.36
1643.85
1580.08
1753.95
1732.66
1537.3
1751.57
1722.17
1698.91
1727.29
2060.45
1855.62
2057.22
1880.1
1628.34
2273.74
2086.52
2193.23
2158.34
2335.56
1582.1
2220.5
1980.77
1823.58
2121.79
2105.5
2184.9
2348.99
1521.14
1703.82
1931.14
2162.97
1893.19
2174.02
2517.79
2427.21
2797.29
2288.17
2349.71
2476.74
1964.12
1991.78
2077.73
1763.11
1861.25
1749.4
2157.37
2003.31
2041.18
1667.22
1651.25
1622.83
1814.48
1715.02
1810.83
1642.19
1663.55
1689.85
2501.24
2361.28
2468.18
2138.89
2235.24
2299.4
2124.22
2179.24
2009.52
1794.47
1872.75
1955.64
2065.16
2029.38
2268.22
2164.06
1924.45
2046.01
2036.66
2623.49
2582.5
2581.06
2632.29
2630.19
2495.32
2417.04
2293.2
2357.41
2473.01
2129.35
2231.98
2053.95
2592.47
2425.96
2489.64
2341.85
2410.02
2215.08
2058.01
1887.66
1867.48
1931.83
1672.71
1987.11
1876.07
2289.81
2161.51
1969.51
2015.29
2084.3
2033.34
1939.98
2037.21
2134.32
2271.7
1893.75
1998.4
1742.05
2088.8
2029.72
1970.03
1825.65
1872.63
1934.58
1721.79
1823
1448.58
1544.84
1648.14
1573.5
1477.07
2056.64
1838.45
1599.66
1616.48
1805.01
1640.28
1489.82
2058.16
1915.12
2082.97
1544.37
1757.75
1753.52
1862.59
1800.54
1704.64
1380.52
1462.14
1411.58
1870.56
1751.45
1790.07
1800.86
1710.03
2159.59
2076.93
1849.62
1974.33
1910.84
1972.09
1847.01
1655.1
1658.89
1643.47
1650.96
1764.37
1705.96
1760.19
1823.77
1781.08
1688.36
2606.31
2568.41
2587.96
2599.68
2477.35
2534.4
2461.66
2559.78
2538.01
2429.51
2480.59
2425.76
2535.62
2551.09
2178.01
2239.27
2167.68
2379.17
2312.76
2335.41
2300.13
2301.43
2357.51
2494.09
2426.99
2437.72
2471.23
2589.38
2122.78
2314.85
2395.73
2481.19
2424.26
1740.56
1760.85
2027.98
1891.72
1986.43
1814.47
1916.49
2047.1
2131
1979.75
2259.58
2129.69
2213.61
2179.34
2144.84
2130.04
2072.16
2140.28
2332.5
1759.26
1734.99
1803.23
1777.36
1764.96
1759.2
1754.95
2153.08
2044.43
1897.52
1958.1
1977.79
1971.36
1896.97
1557.39
1619.01
1566.51
1771.69
1711.61
1737.6
1816.26
1723.92
1909.85
1800.03
1831.07
1769.01
2196.48
2289.99
2030.32
2112
2432.38
2355.31
2494.51
2420.39
2277.58
2518.35
2412.64
2609.78
2163
2021.93
2243.54
2344.25
2340.38
2492.14
2397.54
2352.34
2490.22
2436.57
2643.03
2250.59
2484.44
2456.75
2334.27
2474.61
2197.98
2238.81
2634.81
2424.22
2561.38
2461.39
2325.81
2477.29
2388.94
2551.09
2225.91
2192.02
2432.08
2482.12
2394.81
2740.1
2613.16
2655.13
2492.7
2550.51
2606.45
2325.75
2471.88
2502.46
1519.42
1517.72
1552.76
1554.6
1514.94
1497.09
1576.56
1569.21
1610.38
2073.04
2013.28
2049.85
1959.8
1978.78
2009.78
1728.38
1860.16
1695.91
1799.77
1806.09
1908.47
1674
1743.3
1653.11
1945.15
1848.59
1895.79
1681.04
1825.98
1705.15
1667.41
1640.83
1608.09
1642.88
1800.7
1761.09
1792.37
1741.16
1653.34
1567.5
1566.33
1609.64
1641.04
1615.28
1637.88
1595.64
1558.77
1795.84
1739.1
1805.28
1492.98
1667.31
1608.22
1646.73
1629.07
1766.05
1701.13
1654.58
1802.14
1752.7
1760.14
1702.73
1754.29
1595.66
1694.58
1722.05
1692.56
1742.55
1756.52
1801.37
2129.34
2050.06
2147.69
1888.82
1963.11
1958.37
1907.43
1945.01
1836.45
1754.64
1769.81
1798.93
1693
1581.21
1849.26
1790.99
1716.84
1764.67
1862.33
2237.73
2173.76
2219.89
2204.25
2317.18
2085.54
1968.45
2246.38
2263.39
2337
2027.44
2190.12
2014.19
2330.46
2259.75
2252.31
1970.6
2101.58
2007.95
1528.91
1681.33
1580.63
1504.33
1536.9
2269.48
2214.4
2088.13
2147.18
2191.08
2084.79
1873.85
2021.28
2104.21
1667.52
1826.38
2157.85
2011.07
2032.78
1732.79
1875.57
1630.09
1991.98
2041.45
2024.77
2093.16
2199.69
2140.62
2282.94
2215
2113.42
2077.97
2509.15
2323.58
2424.35
2428.11
2368.74
2137.98
2266.22
2226.41
1564.7
1469.17
1483.11
1566.21
1653.56
1834.33
1976.16
1934.59
1730.88
1559.75
1820.29
1845.64
1808.26
1891.13
2011.3
1560.54
1792.85
1678.21
2224.7
1953.59
2075.78
2296
2389.11
1641.31
1923.17
1761.89
1767.69
1846.25
2183.08
2302.13
2232.64
2094.79
2062.78
2029.07
2113.08
2286.63
2435.47
2423.42
2436.92
2526.13
2623.1
2351.33
2518.02
2430.33
2364.99
2396.34
2656.7
2728.62
2733.69
2715.81
2784.88
2485.55
2555.93
2600.42
2170.73
2193.83
2183.27
2270.68
2351.45
2337.96
2441.16
2396.36
2279.03
2229.71
2595.75
2456.38
2533.73
2562.65
2511.4
2314.77
2411.19
2394.83
