# vtk DataFile Version 4.2
vtk output
ASCII
DATASET POLYDATA
POINTS 642 double
-2728.38 6825.84 -274.823
1234.93 6618.15 -204.088
-2792.63 -215.981 -40.6125
1770.58 -215.659 -9.80496
-581.017 1143.12 3397.29
-851.478 5252.64 2900.95
-524.955 1358.19 -3121.13
-808.219 5563.35 -3459.08
2564.92 3292.46 -1832.78
2733.61 3237.94 1885.23
-3809.89 3653.72 -2088.39
-4119.76 3464.45 2153.14
-3936.18 5488.23 1245.77
-2635.29 4662.01 3158.8
-1871.72 6426.03 1858.6
400.467 6276.83 1423.7
-555.017 7388.53 -118.381
559.712 6613.89 -1932.91
-1959.01 6964.72 -2266.68
-2657.88 4891.66 -3427.05
-3989.86 5643.92 -1473.13
-4600.24 3451.77 35.5772
1293.73 4384.33 2807.95
2342.45 5044.35 1057.71
-2498.55 2039.95 3012.96
-508.34 3278.85 3590.91
-3727.77 1291.36 -1164.2
-3790.49 1278.43 1250.41
-764.298 3679.21 -3409.54
-2353.78 2275.88 -2807.09
2154.83 5156.81 -1047.84
1120.85 4688.37 -2665.34
2959.25 1227.96 1251.59
1431.25 2107.12 3061.36
799.548 -29.2975 2055.62
-1917.29 -99.306 2106.03
-530.936 -601.664 -51.5467
-1781.85 84.2009 -2026.66
734.475 101.128 -2001.61
1307.11 2135.35 -2871.25
2839.06 1303.4 -1210.13
3335.02 3122.76 29.3082
-3417.42 6218.14 618.433
-2987.9 6147.15 1654.58
-2309.85 6682.22 968.622
-3492.2 4097.62 2789.37
-3430.95 5150.15 2356.53
-4168.39 4517.31 1779.21
-1354.23 5942.63 2507.26
-2323.93 5692.41 2637.54
-1722.21 5042 3188.48
-1124.25 7091.33 801.732
-1598.9 7215.35 -177.219
-124.036 5721.83 2253.93
-682.304 6515.43 1664.46
409.553 7149.15 -161.173
-19.9363 7036.33 770.192
810.327 6627.25 668.322
-1355.05 7221.38 -1200.88
-2440.07 7135.36 -1300.6
1000.71 6775.64 -1050.33
57.7254 7228.14 -1096.73
-1384.04 6389.4 -3015.7
-702.739 6827.67 -2195.68
-91.0352 6154.5 -2694.02
-3142.36 6500.52 -1959.31
-3460.29 6411.17 -901.796
-1705.87 5324.31 -3722.19
-2430.49 6060.1 -3061.79
-4073.51 4729.65 -1903.86
-3544 5361.13 -2628.09
-3376.44 4300.18 -2861.44
-4041.75 5613.73 -65.7961
-4330.45 3473.37 -1020.52
-4343.17 4587.61 -729.322
-4498.69 4547.17 666.515
-4517.98 3465.36 1134.33
1511.07 5660.71 1397.76
1757.25 5808.25 424.24
415.576 4784.29 2906.9
973.149 5325.63 2295.01
2643.57 4246.3 1529.96
1954.1 4794.98 2021.26
2077.27 3890.98 2476.66
-1739.71 4051.23 3539.17
-703.385 4256.81 3317.6
-3452.72 2870.37 2736.44
-2724.73 3475.64 3303.95
-498.414 2243.63 3603.65
-1588.36 2854.34 3482.75
-1606.52 1475.75 3338.75
-4432.34 2354.66 629.118
-4060.34 2427.12 1713.58
-3887.82 2386.77 -1626.94
-4339.07 2368.72 -613.928
-3444.77 402.566 663.654
-3950.16 1182.48 -43.9762
-3444.21 410.274 -688.341
-2616.75 3681.11 -3325.66
-3097.2 2997.91 -2561.49
-827.41 4751.61 -3701.9
-1671.17 4357 -3791.46
-1465.1 1645.99 -3060.64
-1568.01 3037.5 -3348.28
-514.632 2297.19 -3354.46
910.233 5695.81 -2507.4
175.684 5123.44 -3145.45
1755.82 6081.66 -733.336
1476.15 6057.96 -1581.68
1926.49 3860.81 -2343.36
1691.24 4983.16 -2054.86
2529.11 4201.44 -1476.51
2514.09 367.663 655.411
2027.65 459.737 1711.9
1373.94 -258.094 1054.15
2208.34 2651.98 2549.23
2368.5 1575.61 2282.82
3045.07 2222.11 1661.69
102.529 481.353 2834.42
1221.52 930.449 2722.07
508.319 1587.21 3336.89
211.417 -540.829 1117.77
720.269 -551.938 -14.9808
-1209.83 442.4 2902.29
-555.339 -208.81 2221.98
-1765.68 -581.544 -4.33351
-1306.8 -535.436 1118.21
-2418.42 -307.68 1130.72
187.273 -489.585 -1114.79
1307.96 -154.642 -1051.89
-2391.99 -199.707 -1061.76
-1241.69 -500.944 -1130.2
115.15 640.221 -2648.72
-551.956 -37.5569 -2111.6
-1202.51 605.216 -2705.58
1890.04 591.918 -1635.82
2455.46 422.723 -658.143
442.583 1712.52 -3100.72
1111.82 1054.32 -2603.55
2883.9 2207.18 -1553.16
2172.46 1686.67 -2149.72
2024.72 2699.31 -2431.26
3121.49 1121.31 -3.89662
3077.7 3187.14 -936.46
3376.33 2229.88 -625.102
3473.61 2227.7 628.803
3214.04 3148.45 964.936
472.806 2684.91 3529.57
1454.42 3297.29 3104.34
447.409 3851.53 3376.87
-3051.89 399.397 1795.7
-2352.21 864.838 2845.51
-3303.09 1527.63 2334.76
-2160.97 1023.78 -2641.9
-2941.21 549.218 -1661.53
-3137.96 1694.45 -2135.19
1322.74 3287.5 -2883.57
376.439 2730.09 -3287.45
139.891 4124.99 -3234.79
2948.84 4239.52 576.796
2906.41 4226.75 -574.618
2441.59 5107.23 -7.03877
-3057.47 6481.08 181.599
-2903.94 6495.19 828.683
-2481.55 6712.76 390.612
-3496.95 5863.5 1472.55
-3232.96 6210.71 1163.63
-3708.36 5884.8 949.789
-2123.47 6587.44 1426.49
-2680.27 6449.9 1333.06
-2436.69 6337.61 1777.78
-3844.52 3782.46 2504.44
-3882.02 4310.91 2328.9
-4185.5 3985.01 1994.4
-3061.2 4916.29 2805.95
-3490.01 4640.7 2608.87
-3082.06 4396.81 3009.52
-4088.12 5028.6 1525.49
-3836.46 4860.54 2094.74
-3727.97 5342.54 1829.3
-1135.78 5620.65 2736.17
-1547.25 5522.99 2881.4
-1310.65 5183.46 3062.63
-2107.98 6103.38 2271.27
-1837.17 5848.09 2600.41
-1608.83 6216.66 2212.66
-2169.8 4872.38 3214.26
-2031.73 5385.44 2952.89
-2499.9 5206.61 2942.42
-3244.67 5695.55 2034
-2895.52 5466.99 2545.9
-2680.56 5957.67 2188.58
-1907.35 6979.68 362.008
-2164.17 6989.21 -288.84
-1500.22 6700.04 1312.4
-1710.26 6880.94 862.387
-1052.82 7360.29 -108.029
-1329.49 7210.8 357.854
-860.096 7300.17 357.387
-525.472 5458.49 2561.8
-856.225 5907.19 2406.25
-136.42 6507.92 1540.22
-498.48 6165.32 1943.45
195.204 6000.05 1830.46
-1068.24 6214.07 2145.57
-1249.94 6470.74 1827.47
847.003 6913.72 -181.569
657.179 6916.14 292.875
1040.35 6649.98 241.996
-273.952 7266.97 347.474
191.668 7134.62 329.479
-70.0274 7311.15 -142.302
600.697 6512.93 1070.6
424.334 6854.74 745.178
185.991 6737.92 1113.8
-867.761 6859.21 1279.75
-314.281 6846.75 1219.9
-571.18 7132 812.147
-2090.13 7166.95 -841.657
-2598.23 7001.37 -831.183
-853.369 7368.2 -608.964
-1515.19 7256.81 -690.746
-2221.65 7114 -1775.53
-1969.91 7257.33 -1317.1
-1747.53 7184.13 -1782.03
1152.96 6742.46 -620.862
737.992 7024.8 -621.4
327.153 6969.67 -1540.34
542.551 7040.42 -1090.01
795.558 6731.26 -1509.73
248.085 7244.21 -629.832
-230.243 7366.4 -623.413
-1095.53 5999.75 -3272.96
-810.717 6279.58 -2917.03
-528.555 5860.55 -3085.14
-1409.01 6932.14 -2309.24
-1114.67 6653.21 -2650.53
-1675.19 6718.06 -2684.15
296.596 6424.58 -2313.45
-393.75 6515.55 -2473.05
12.6812 6776.8 -2045.74
-535.179 7308.31 -1127.38
-240.353 7097.72 -1623.68
-1018.41 7081.52 -1726.71
-2991.79 6825.87 -1117.58
-3101.12 6673.21 -587.203
-2564.11 6789.65 -2140.84
-2818.97 6878.67 -1630.46
-3765.24 6075.27 -1195.36
-3362.32 6520.07 -1436.66
-3622.3 6116.04 -1725.72
-1248.57 5475.38 -3618.35
-1549.69 5908.51 -3409.85
-2594 5468.74 -3311.66
-2067.76 5711.49 -3402.72
-2184.58 5121.06 -3629.62
-1891.36 6290.68 -3096.27
-2204.58 6567.92 -2712.68
-3950.69 4207.86 -2038.17
-3773.27 4538.32 -2405.41
-3629.42 4005.38 -2510.45
-3829.25 5523.09 -2068.41
-3879.04 5052.73 -2284.96
-4109.7 5176.75 -1724.49
-3041.3 4619.69 -3165.7
-3494.74 4869.72 -2775.6
-3144.37 5151.84 -3084.45
-2827.89 6327.69 -2563.39
-3033.4 5742.57 -2894.36
-3390.02 5966.9 -2339.91
-3431.09 6303.62 -170.779
-4006.99 5658.47 -824.957
-3767.24 6015.68 -512.202
-3761.57 5937.1 279.443
-4046.03 5568.67 632.972
-4036.05 3546.53 -1561.13
-4131.45 4173.78 -1474.2
-4522.06 4004.17 -292.45
-4366.56 4048.67 -887.991
-4504.7 3443.07 -500.985
-4228.14 4704.72 -1360.26
-4201.94 5138.2 -1168.94
-4407.76 3990.25 1495.97
-4371.86 3465 1671.08
-4275.02 5041.02 980.773
-4373.1 4554.2 1238.01
-4623.5 3465.31 560.842
-4531.04 4001.98 896.05
-4612.61 4007.59 352.903
-4264.05 5119.82 -407.932
-4512.81 4558.99 21.9174
-4329.61 5090.96 339.69
1283.34 6259.37 472.795
1455.92 6309.79 39.7482
949.188 5969.05 1462.29
1085.97 6108.21 982.61
2116.35 5384.45 805.835
1677.3 5734.6 945.887
1947.75 5384.31 1244.2
-154.66 4980.15 2884.36
214.081 5258.39 2619.71
1148.49 4886.38 2574.08
722.327 5080.7 2614.82
870.238 4593.86 2884.39
528.536 5509.93 2302.01
752.851 5731.56 1949.78
2711.61 3780.78 1731.31
2403.37 4079.21 2026.7
2414.56 3608.12 2223.59
2186.2 4937.81 1557.49
2321.22 4539.09 1796.94
2521.23 4660.41 1302.12
1702.08 4147.01 2670.32
2039.18 4362.98 2267.12
1656.89 4607.87 2438.97
1268.4 5522.37 1874.57
1480.64 5091.16 2189.25
1756.99 5261.44 1730.82
-1334.51 4703.1 3292.28
-790.977 4793.2 3054.58
-2156.17 4361.62 3409.65
-1736.28 4543.76 3401.38
-579.864 3800.76 3491.5
-1296.34 4220.23 3458.06
-1224.3 3719.3 3467.12
-3821.43 3161.18 2483.02
-3528 3468.67 2811.25
-2683.35 2901.52 3209.18
-3118.07 3173.63 3055.24
-2995.01 2515.4 2894.45
-3133.54 3783.15 3082.72
-2709.01 4066.76 3271.07
-574.385 1649.76 3480.27
-1010.22 1775.17 3473.56
-1064.89 1303.65 3432.89
-1058.68 3059.45 3579.15
-962.194 2454.08 3550.94
-473.575 2776.65 3655.47
-2094.52 1655.48 3244.47
-1543.47 2015.98 3340.23
-2077.21 2433.87 3252.15
-2198.33 3770.76 3520.22
-2203.21 3211.72 3479.94
-1737.67 3478.46 3602.31
-4361.41 2956.53 1473.27
-4143.77 2971.3 1969.82
-4561.27 2905.63 330.754
-4491.11 2926.04 881.887
-3955.6 1813.62 1474.12
-4285.54 2370.76 1180.86
-4172.7 1843.74 932.285
-3846.25 2941.05 -1824.75
-4129.44 2893.59 -1334.68
-4060.33 1828.22 -920.578
-4144.79 2355.67 -1139.61
-3836.43 1857.95 -1406.79
-4358.19 2896.74 -808.033
-4512.82 2894.5 -298.729
-3153.56 47.3642 314.334
-3484.83 362.746 -42.3796
-3154.22 53.4574 -377.224
-3917.84 1213.95 606.366
-3750.64 735.146 301.906
-3659.43 778.578 983.819
-3641.52 815.295 -958.529
-3753.73 744.219 -377.045
-3905.2 1186.94 -644.352
-4461.62 2343.58 7.60378
-4199.22 1776.25 -326.116
-4261.55 1789.45 313.809
-3281.53 3711.68 -2820.97
-3487.73 3347.87 -2298.74
-2653.53 4267.16 -3417.68
-3005.75 3963.61 -3150.93
-2771.51 2682.15 -2765.76
-2889.1 3410.76 -3045.38
-2537.28 3156.15 -3115.62
-791.859 5107.87 -3683.16
-1251.24 5007.75 -3813.98
-1313.22 4141.18 -3709.94
-1270.5 4579.58 -3784.08
-884.857 4368.17 -3654.35
-1695.14 4844.68 -3850.1
-2110.96 4617.71 -3686.31
-1009.79 1493.32 -3121.19
-967.935 1997.52 -3287.62
-513.878 1826.89 -3297.29
-1948.27 2689.08 -3123.8
-1427 2234.22 -3229.65
-1893.73 1849.57 -2941.65
-535.176 2876.69 -3398.78
-996.765 2552.58 -3354.78
-1194.29 3370.4 -3435.95
-2142.95 3996.24 -3617.44
-1719.99 3801.65 -3654.84
-2144.91 3465.72 -3441.34
58.1383 5640.15 -2963.28
-367.047 5309.13 -3365.05
[...]
POINT_DATA 642
SCALARS Mean_Curvature double 1
LOOKUP_TABLE default
0.000739207
0.000726382
0.000597432
0.000677627
0.00117777
0.000885729
0.000656093
0.000837683
0.000595874
0.000302456
0.000646719
0.000830119
0.000625445
0.000688245
0.000567429
-0.00013805
0.000781578
0.000645565
0.000927998
0.00065963
0.000782488
0.000469352
0.000490321
0.000559826
-0.000249229
0.000281013
0.000278517
0.000127001
-0.000439332
-0.000186975
-9.26005e-05
0.000251832
0.000669794
0.000377345
0.00062692
0.000773304
0.000135707
0.000632524
0.000682878
0.000454275
0.000618663
0.000367896
0.000600742
0.000616375
0.000368766
0.000609652
0.00056902
0.000547416
0.000684476
0.000632231
0.000782603
0.00061532
0.000474966
0.000101972
0.000266688
0.000593975
0.000703257
0.000607314
-2.07292e-05
0.00109237
0.000645165
0.000736604
0.000749993
0.000292013
0.00029638
0.000631125
0.00046451
0.00110255
0.000635402
0.000721865
0.000853101
0.000486152
0.000415818
0.000465998
0.000115502
0.000631985
0.000506846
0.000484277
1.62971e-05
0.000373802
0.000559385
0.000580291
0.000544654
0.000546728
0.000867497
-9.19555e-05
0.00062435
0.000598577
0.000521812
6.3239e-05
0.000637325
0.000621066
0.000186135
0.000589969
0.000517134
0.000392447
0.000145436
0.000732855
0.00071831
-0.000386374
0.000940412
0.00102057
0.000203208
0.000102312
0.00030968
0.000565161
0.000636661
0.00095986
0.000656874
0.000420316
0.000252099
0.000513607
0.000635965
0.000559212
0.000458733
0.000273855
0.000773309
0.000752924
0.000301241
0.000448636
0.000604404
0.000589366
0.000446794
0.000561639
0.000698735
0.000483735
0.000183376
0.000651115
0.000644346
0.000327053
0.000537608
0.000680903
0.000340275
0.000581297
0.00079572
0.000355473
0.000630864
0.00036316
0.000558721
0.000809567
0.000481155
0.000389189
0.000620944
0.000223605
0.000901443
0.000949948
0.000289466
0.000380892
0.000542436
0.000597655
0.000659485
0.000637198
0.000437105
0.000803587
0.000533417
0.000123379
0.000427509
0.000386433
0.000247743
0.000558644
0.000617016
0.000414609
-5.74443e-05
0.000611349
-0.000169357
0.000620981
0.000600028
0.000612565
0.000549408
0.000606968
0.000604604
0.000675871
0.000588377
0.000642639
0.000571631
0.000595099
0.000615487
0.000592819
0.000572652
0.000581104
0.000578726
0.000697078
0.000591786
0.00061849
0.000603148
0.000654325
0.000595364
0.000645797
0.000683528
0.000589512
0.00060075
0.000617257
0.000274857
-0.000307137
-0.000165015
0.000194331
0.00075597
0.000667009
0.000798082
-0.00057031
0.000666597
0.000669248
-0.000162847
-0.000165223
0.000569243
0.000498229
0.000586914
0.000682919
0.000673253
0.000748194
0.000661075
0.000597093
0.000696076
0.00073187
0.000697725
0.000713393
0.000722773
0.000789585
0.000480114
0.000523151
0.000463163
0.000232862
0.000887734
0.00116976
0.000909403
0.000867626
0.000841507
0.000678835
0.000649562
0.00064054
0.000766177
0.000799173
0.000709248
0.000467231
-1.63748e-05
0.000655355
0.000638219
0.000912264
0.000596801
0.000160921
0.000603024
0.000665446
0.000639916
6.57756e-05
0.000752905
0.000507312
0.000564639
0.000791067
0.00072594
0.000931784
0.000682833
0.000550656
0.000883376
0.000617606
0.000383406
0.00081738
0.000855982
0.000687086
0.000520137
0.000430001
0.000606021
0.000628141
0.00103799
0.00105357
0.000323711
0.000621796
0.000944457
0.000641748
0.000648132
0.000621341
0.000284197
0.000334633
0.000385901
0.00031539
0.000665685
-0.000164689
-0.000139804
0.000302259
0.000336428
0.000472617
0.000611908
0.000557305
0.000629675
0.000750582
0.00063798
0.00055264
0.000725613
0.000236601
0.000671409
0.000304319
0.000673303
0.00051106
0.000111227
0.000624872
0.000348174
-0.000399611
0.000487813
0.000419824
0.000563386
0.00024021
0.000421815
0.000548805
0.000493657
0.000446517
0.00045149
0.000476943
0.000537393
0.000564834
0.000536697
0.000542998
0.000566574
0.000560462
0.000510969
0.000549582
0.000515324
0.000534244
0.000563334
0.000568174
0.000547211
-0.000529647
0.000663859
0.000748264
0.000526313
0.000783199
-0.00062378
0.000726185
0.000703522
0.000472153
0.000621493
0.000147139
0.000573452
0.000467271
0.000196841
0.000346906
0.00108926
0.000378017
0.000151511
0.000778481
0.000918225
-0.000344116
-0.000171927
0.000855381
0.000715211
0.00111092
0.000594981
0.000715457
0.00044948
0.000264456
0.000372992
0.000406225
0.000455681
0.000375711
0.000338294
0.000392666
0.000552032
0.00042595
0.000319218
0.000538025
0.000585292
0.000534958
0.000705453
9.4643e-05
0.000728433
0.000660869
0.000875088
0.000821567
0.000582254
0.000690768
0.000355502
0.000573669
0.000680367
-0.000347029
0.000523109
0.000718288
0.00044125
0.000790753
0.000229086
0.00134852
0.00136655
0.000555518
0.000585136
0.000468568
0.0015943
0.00042526
0.000323462
0.000599072
0.000847821
-0.000108669
0.00046807
-2.96491e-05
0.000177919
0.000276552
-1.90854e-05
0.000739245
0.000888782
0.000618331
0.000176033
0.000343698
0.00061863
0.000548951
0.000928977
0.000567933
0.000972826
0.000764337
0.000915911
0.000628187
0.00065174
0.000781456
0.000606705
0.000628528
0.000562482
0.000452595
0.000574637
0.000481571
0.000246149
0.000251443
0.000441682
0.000386229
-0.000254097
0.00062593
0.000701775
0.00076183
0.000590457
0.000596798
0.000607776
0.000617917
0.000622176
0.000656192
0.000526714
0.000503713
0.000438696
0.000239209
0.000632959
0.000597885
0.000367911
0.000329912
0.000378837
0.000658432
0.000639471
0.000705037
0.00055087
0.000423659
0.000490127
0.000609273
0.000519311
0.000502921
0.000469954
0.000512456
0.000395196
0.000604842
0.000498145
0.00042728
0.000736191
0.000709759
0.000622808
0.000563031
0.000132236
0.000263507
8.34996e-05
0.000691627
0.000748417
0.000458613
0.000683801
0.000125664
0.000554197
0.000426272
0.000618013
0.000396182
0.000402335
-1.68715e-05
0.000989234
2.21917e-05
0.000713115
0.000684245
0.000550014
0.000366625
0.00067905
0.000435614
0.000404046
0.000644268
0.000365915
0.000539495
0.000599457
0.000579701
0.000702567
0.000786816
0.000666977
0.000666818
0.000409509
0.000455745
0.00040949
0.000310357
0.000416357
0.000606664
0.000239237
0.000518757
0.000416123
0.000689025
0.000664141
0.000462651
0.000717803
0.000534825
0.000509536
0.000361306
0.000610796
0.000595011
0.000513901
0.000357182
0.00065781
0.000630068
0.000598535
0.000494959
0.000350278
0.000752139
0.000546111
0.000434776
0.000622686
0.000648385
0.00011313
0.000174994
0.000447513
0.00061642
0.000748876
0.0008493
0.000357774
0.000326913
0.000601511
0.000455574
0.000500646
0.000376091
0.000607771
0.000602696
0.000612731
0.000652246
0.000620499
0.000358399
0.000364007
0.000843055
0.00065894
0.000188204
0.000975688
0.000712847
0.000860741
0.000200414
0.000520614
0.000774729
0.000502853
0.000881082
0.000977308
0.000504088
0.000991269
0.000671686
0.000192877
0.000526739
0.000498274
0.00089853
0.000405234
0.00051342
0.000479256
0.000529407
0.000532784
0.000568014
0.000303686
0.000597626
0.000487557
0.000387031
0.000496602
0.000615412
0.000582632
0.00066396
0.000516516
0.000671711
0.000671554
0.000672231
0.000759201
0.000456248
0.00109242
0.000888021
0.000467459
0.000718857
0.000407583
0.000365496
0.000233884
7.76518e-05
0.000134435
0.00062787
0.000996112
0.000816658
0.000790207
0.000599268
0.000707684
0.000881508
0.000648899
0.000729114
0.000768596
0.000711597
0.000569193
0.000406131
0.000527709
8.23338e-05
0.000478254
0.000517674
0.000111455
0.000459845
0.000779928
0.000652439
0.000545492
0.000496537
0.00056542
0.000463843
0.000312356
0.000656742
0.000567721
0.000444766
0.000524237
0.000388805
0.00136484
-0.000844407
-4.23066e-05
0.000246825
-5.11868e-05
0.000492355
0.000494043
0.000316792
0.000466346
0.000267341
0.000368473
0.000605825
0.000540031
0.000578811
0.000487953
0.000572802
0.000523849
0.000391863
0.0001895
0.000529436
0.000291563
-0.000400938
0.000527902
0.000651103
0.000545815
0.000544497
SCALARS CoVolArea double 1
LOOKUP_TABLE default
296777
180510
268615
261480
226926
234654
222906
222040
228609
251505
277634
238748
320657
301372
300629
308326
269569
271277
309553
322987
328706
324144
263865
245948
391939
319938
317473
367610
404979
402045
334386
288199
336430
329282
347690
347842
427332
313953
301909
269007
311120
289871
329467
316858
329051
300791
337218
316233
230232
299680
236715
307980
335295
367673
291576
250813
248842
250412
399436
268644
244870
285576
279152
380881
334953
371754
323127
279201
373894
287160
345671
296909
385771
358949
390207
343049
317048
301159
318694
272679
252879
254307
262590
256898
262516
345704
322448
309054
295268
422336
282080
349094
357503
295835
342100
328941
372757
294365
272313
376439
173438
238428
275687
398109
252748
262708
269655
226411
252351
270177
299369
245345
327868
366542
334873
314226
326560
273186
332403
356893
305210
372600
329617
331639
361679
325581
380498
329280
343423
332254
312974
349664
293729
337043
262875
351372
314460
270142
300077
247515
309822
283242
356215
296780
286044
302780
284723
300955
286201
263807
349754
329234
349147
273628
323206
351518
278746
277598
438292
291483
271145
305817
361429
328720
388704
326184
291746
299951
298597
280619
298029
292278
313875
299375
322316
308375
292358
307007
315299
336224
236384
234581
238223
287779
253733
248058
258297
259794
304260
369964
361096
350650
369691
370573
357568
333275
283458
294156
265053
326064
289069
302645
333067
351405
255624
314406
230021
234790
228806
266631
246605
250294
258884
218589
242263
336650
280319
292334
300822
293648
349158
333076
281541
282249
333393
217896
244558
286328
256601
252002
253311
283877
274995
311817
317839
336654
303815
278613
286251
335986
329451
397029
383913
445257
298227
321564
369306
317177
311400
310457
355132
260814
298887
356065
331598
295330
313252
357839
318059
291892
297909
347917
285558
277921
301551
299738
331933
424976
410481
421201
357703
373229
348457
343107
346383
376310
359719
367842
358079
320493
313667
351174
319937
290970
336416
323654
310721
325570
336642
438116
408241
400628
310787
245560
332380
335007
259841
310875
256993
328832
313353
259592
241669
244891
289664
306968
281229
256765
280785
257195
243137
234384
247601
247416
265893
301694
288290
285876
275622
332642
287266
234133
313513
277954
340880
284300
291325
378364
299653
367423
294683
318232
282044
304064
264305
361888
368101
273527
308486
400758
444418
310648
370153
333422
322633
295524
337972
332652
358696
346224
377616
341132
337491
348531
308652
311332
312637
329966
331569
319775
307082
391950
330684
324957
274792
303062
335399
376542
402508
409170
317492
357741
326623
275740
354585
282883
347951
212687
219022
289986
194415
271095
234085
306839
266519
263120
238451
436909
352990
339323
346965
341164
400235
305029
321700
352083
342976
279207
273409
289497
270475
265333
235455
204347
216886
282983
214329
259668
244845
271439
240300
263278
245276
261380
297086
280025
288648
297209
348526
292211
304655
283887
322680
335799
317232
350898
331200
319440
329321
340700
366642
302455
292158
278311
342249
303853
308387
296586
287393
332339
300530
325709
305428
356635
328856
326052
297788
315547
350339
391795
391942
409023
323813
307278
361430
331567
370307
350237
429055
287508
314831
367405
328640
342002
326166
365863
320173
330227
341023
426945
334615
367696
312850
319180
358876
412495
415464
438773
330365
315582
377186
333235
306680
319006
326204
299568
318167
331433
325080
314981
340096
385626
287492
292368
276102
326325
299591
275852
270076
288845
315354
394177
379569
388901
323457
314644
337270
328168
300080
313543
329942
262232
291796
279255
267291
251569
274604
306242
291312
288480
279247
309297
259730
252463
265055
280595
290401
377929
354617
380014
329756
343744
322178
327086
354130
288332
275400
271339
259960
284280
242556
314690
269466
292869
341199
281091
265449
255046
265560
378474
331810
383846
314757
313983
294133
275162
282384
292933
279163
263150
289557
309459
331720
287213
284133
257972
273000
327618
309479
315100
341300
350765
326502
322307
343119
314473
307453
278791
336406
356561
354017
357289
380604
380716
368746
388646
359545
373729
258325
317566
250169
242059
307013
302703
311385
289572
311893
342091
339648
372078
352935
309957
345698
354654
361539
341697
251910
278828
252915
258295
346025
248177
355615
256998
259321
284465
194633
442755
313831
270196
410072
309374
375950
411325
293374
323436
295596
261700
260805
266547
285053
241241
280054
317251
294661
268481
319962
323766
320937
321812
300670
294960
SCALARS SignedDistance double 1
LOOKUP_TABLE default
1755.01
2162.33
1378.42
1385.27
1732.01
2343.45
1959.18
2030.53
2070.7
1857.7
2019.65
1460.84
1479.11
1752.65
1966.85
2354.39
1749.02
1833.46
1494.82
1639.4
1466.22
1637.62
2092.79
2132.45
1836.17
2010.2
1770.59
1593.1
2462.37
2116.54
2276.52
2483.09
1396.77
1743.86
1408.91
1368.61
1610.57
1598.71
1631.84
2066.55
1646.18
1943.56
1667.07
1679.32
1926.39
1525.87
1532.95
1442.5
2148.27
1846.62
2079.7
1925.94
1738.84
2347.58
2249.77
1934.68
2065.6
2249.33
1753.64
1635.09
1907.27
1696.74
1685.79
1776.09
1919.02
1249.75
1513.73
1743.07
1305.09
1717.17
1432.4
1748.93
1595.4
1799.32
1729
1534.07
1550.08
2221.89
2312.84
2191.95
2198.2
2001.53
2088.63
1978.54
2072.02
2243.96
1654.76
1719.73
1840.66
2048.29
1894.97
1538.16
1581.8
1812.96
1677.64
1442.23
1616.08
1473.34
2052.08
2130.81
2299.08
2101.12
2028.65
2332.32
2151.54
2099.72
2326.06
2237.09
2078.09
2236.33
2410.51
2166.99
1310.46
1405.51
1399.86
1807.4
1654.57
1683.26
1520.04
1586.09
1714.44
1545.7
1558.13
1456.61
1396.39
1563.5
1540.49
1364.87
1549.89
1523.6
1507.19
1528.14
1828.19
1644.15
1838.49
1669.87
1442.96
2015.29
1852.39
1956.89
1925.55
2069.62
1402.64
1964.44
1780.67
1642.89
1886.01
1867.05
1937.18
2084.57
1345.34
1527.68
1729.74
1950.07
1691.25
1933.32
2233
2147.5
2537.3
2029.98
2082.67
2194.51
1747.34
1777.2
1845.2
1561.34
1653.36
1549.5
1920.07
1783.13
1817.27
1474.09
1457.9
1431.15
1610.03
1515.66
1606.95
1449.46
1469.03
1491.67
2230.11
2113.64
2204.54
1908.68
1998.42
2055.78
1906.91
1953.72
1799.8
1589.73
1666.35
1742.22
1830.86
1814.33
2026.46
1924.76
1706.37
1816.26
1811.94
2341.96
2303.57
2302.77
2354.42
2353.99
2230.47
2170.33
2047.77
2106.06
2206.35
1898.81
1992.63
1828.89
2314.96
2165.58
2219.96
2096.26
2152.74
1978.39
1856.8
1690.18
1653.97
1725.89
1524.72
1809.15
1707.48
2049.64
1932.91
1743.66
1789.94
1848.45
1812.99
1726.81
1835.21
1923.57
2049.38
1707.82
1803.26
1571.66
1852.68
1808.95
1743.99
1613.73
1655.2
1745.6
1540.15
1621.05
1286.87
1392.73
1467.45
1404.78
1311.62
1867.76
1664.14
1428.34
1441.29
1640.49
1476.64
1332.07
1840.67
1708.6
1861.33
1380.25
1583.51
1583.19
1658.43
1607.55
1534.03
1215.56
1297.18
1246.1
1664.53
1558.84
1592.53
1599.18
1514.92
1937.59
1853.24
1639.8
1761.22
1697.26
1763.65
1654.15
1466.45
1468.67
1451.01
1461.02
1570.18
1509.8
1565.02
1629.7
1589.03
1491.46
2331.62
2295.22
2304.32
2326.45
2194.43
2247.86
2178.71
2270
2246.97
2149.19
2192.66
2147.55
2242.63
2258.69
1928.49
1981.48
1919.13
2103.97
2046.06
2067.4
2035.99
2035.22
2084.26
2205.84
2145.75
2156.14
2208.45
2314.74
1912.24
2080.04
2135.04
2228.12
2176.82
1541.1
1561.84
1807.08
1680.79
1767.83
1609.2
1706.98
1816.07
1891.28
1784.95
2014.65
1888.2
1968.73
1967.43
1907.05
1890.84
1870.82
1931.77
2106.04
1563.43
1536.55
1601.09
1582.57
1558.39
1555.37
1551.66
1920.35
1814.21
1678.54
1734.24
1750.3
1750.2
1686.7
1375.24
1433.71
1382.22
1571.08
1523.96
1553.08
1621.24
1534.86
1706.1
1594.36
1619.76
1566.55
1965.49
2058.1
1823.26
1896.86
2194.49
2118.26
2246.98
2218.88
2086.01
2257.59
2173.37
2341.79
1982.42
1828.21
1987.77
2084.5
2088.85
2237.11
2129.11
2083.75
2212.16
2159.15
2406.89
2034.73
2241.04
2215.02
2096.42
2257.55
1952.77
1992.78
2357.76
2175.11
2306.44
2199.57
2086.13
2207.91
2129.64
2293.02
1979.72
1946.87
2155.97
2200.22
2122.87
2464.32
2330.54
2369.9
2208.36
2265.52
2332.15
2070.82
2203.43
2246.2
1343.73
1341.97
1373.71
1375.04
1336.98
1321.37
1389.46
1388.37
1423.55
1833.09
1793.44
1824.1
1740.42
1757.78
1779.01
1541.01
1656.86
1510.26
1607.89
1598.4
1701.35
1482.29
1544.21
1461.14
1720.9
1637.05
1681
1491.94
1624.37
1514.66
1490.03
1456.47
1423.95
1462.94
1594.08
1562.17
1586.6
1556.17
1466.46
1385.5
1382.86
1423.95
1453.3
1428.65
1459.83
1411.84
1377.69
1589.83
1557.48
1597.85
1319.88
1488.1
1429.3
1458.4
1451.08
1572.56
1506.71
1467.28
1597.67
1557.59
1555.67
1501.89
1551.43
1411.89
1505.29
1520.61
1494.72
1540.93
1560.59
1595.96
1886.64
1822.65
1907.94
1676.29
1741.99
1740.7
1694.43
1728.13
1630.28
1550.14
1563.91
1591.31
1501.42
1398.59
1637.61
1588.13
1525.21
1568.47
1658.59
1984.71
1927.52
1979.32
1961
2054.09
1856.59
1749.41
1986.55
2002.46
2071.06
1813.7
1956.65
1811.57
2063.92
2002.13
1999.31
1746.24
1867.04
1786.33
1351.78
1493.95
1398.11
1329.29
1360.42
2008.89
1965.35
1867.5
1913.94
1941.84
1867.58
1683.71
1805.48
1862.44
1483.88
1636.34
1923.37
1801.9
1824.25
1546.41
1691.81
1453.78
1760.76
1808.41
1796.75
1866.27
1952
1895.51
2022.85
1962.26
1873.35
1841.82
2227.08
2065.99
2155.15
2151.73
2101.12
1896.5
2010.67
1977.46
1384.86
1293.38
1308.86
1388.7
1471.98
1650.17
1788.99
1762
1551.25
1380.21
1616.45
1649.6
1598.59
1675.91
1789.92
1382.14
1620.76
1499.78
1994.71
1740.48
1858.53
2057.07
2142.09
1452
1719.73
1567.66
1570.57
1639.04
1943.23
2047.27
1985.6
1856.71
1831.51
1818.07
1918.9
2061
2159.56
2149.99
2162.21
2240.31
2331.23
2091.95
2243.4
2155.62
2097.18
2124.55
2405.75
2450.14
2464.23
2441.83
2540.27
2204.37
2274.33
2309.14
1921.67
1940.43
1932.82
2013.04
2084.67
2072.81
2161.75
2123.58
2020.33
1974.01
2322
2178.63
2248.12
2290.45
2230.12
2054.26
2136.58
2124.44
