# vtk DataFile Version 4.2
vtk output
ASCII
DATASET POLYDATA
POINTS 642 double
-2270.85 5593.6 -683.71
-25.2361 5540.36 -639.672
-2280.87 725.596 -29.9382
1285.68 746.394 90.43
-683.25 1412.67 2019.48
-1549.88 4381.88 1380.97
-493.039 1843.48 -1639.24
-1478.98 5176.54 -2267.03
1324.38 3027.49 -811.336
1547.77 2937.71 1079.81
-2732.02 4175.23 -1178.52
-3186.14 3568.2 1523.3
-3073.47 4813.69 899.139
-2319.85 4176.96 1893.65
-1864.27 5088.54 1090.14
-198.066 5195.74 279.084
-709.107 6042.37 -336.635
-142.417 5673.11 -1132.13
-1988.44 5902.17 -1788.44
-2045.41 4964.81 -2330.44
-2884.15 5245.43 -1371.1
-3308.13 3505.51 263.425
652.853 3613.36 1494.51
1123.02 3949.48 668.587
-1896.48 2198.01 1682.21
-454.67 2950.62 2039.99
-2559.82 1672.01 -507.63
-2679.66 1731.67 875.37
-1004 4027.15 -1478.87
-1651.84 2703.48 -1328.26
916.823 4361.61 -457.158
204.826 4611.21 -1084.52
2038.91 1610.19 809.646
740.145 2290.44 1887.61
479.128 815.418 1445.72
-1721.52 770.952 1517.83
-531.947 682.812 -59.1927
-1391.91 943.672 -1243.31
378.912 962.457 -1152.42
597.304 2246.72 -1391.28
1877.69 1720.51 -471.798
1831.22 2539.9 149.583
-2731.06 5099.32 466.838
-2494.58 5059.32 1084.76
-1878.97 5196.8 623.162
-2795.03 3922.62 1826.67
-2761.14 4548.68 1579.4
-3197.06 4202.8 1289.96
-1778.83 4842.91 1312.03
-2166.56 4721.2 1550.71
-2050.15 4321.25 1744.55
-914.427 5828.16 10.3601
-1107.31 5962.86 -409.697
-463.636 4447.7 948.172
-1078.1 5490.89 494.385
-339.286 5874.93 -497.925
-596.587 5810.03 -86.5045
-325.946 5564.85 -190.718
-1325.63 5896.66 -1044.64
-2137.11 5880.72 -1520.33
-4.23908 5675.42 -868.657
-370.334 5992 -833.286
-1766.09 5549.89 -2091.97
-977.953 5772.13 -1495.31
-614.431 5429.93 -1535.86
-2550.08 5807.72 -1657.91
-2656.91 5571.35 -1089.46
-1858.17 5105.27 -2448.17
-2102.23 5529.63 -2244.9
-2804.4 4981.79 -1440.75
-2679.94 5243.88 -1895.5
-2417.3 4580.88 -1942.25
-2980.43 4933.18 -48.4752
-3067.96 3537.6 -378.01
-2975.62 4414.69 -430.293
-3287.77 4287.66 569.34
-3288.82 3560.12 909.388
635.696 4292.15 754.667
480.574 4568.56 115.308
140.584 3852.88 1476.9
418.827 4148.68 1173.05
1384.67 3543.36 892.609
981.171 3856.57 1108.11
1113.06 3357.95 1382.74
-2140.87 3725.94 2021.03
-906.564 3514.12 1878.51
-2760.29 3296.79 1726.12
-2257.49 3598.01 2048.78
-360.526 2361.63 2153.36
-1370.92 3124.01 2052.28
-1249.14 1426.69 1875.34
-3270.06 2661.52 456.177
-3014.99 2851.68 1130.46
-2769.24 2630.76 -781.368
-3103.19 2636.49 -183.606
-2560.84 1047.8 511.031
-2753.4 1643.89 40.5226
-2582.56 1053.99 -383.508
-1996.52 4315.44 -2035.27
-1940.31 3459.18 -1460.68
-1516.11 5217.69 -2205.03
-1915.83 4747.79 -2374.24
-990.167 1946.13 -1577.04
-1680.51 3271.5 -1717.14
-506.891 2381.84 -1643.17
-73.8942 5248.61 -1289.2
-579.598 5283.3 -1744.94
365.223 5254.78 -796.676
228.11 5324.3 -899.867
909.891 3310.85 -1009.99
91.6097 4437.38 -865.501
1262.5 3478.99 -597.539
1820.47 1102.86 503.35
1462.07 1156.68 1097.48
994.029 731.344 766.987
1249.22 2601.26 1489.94
1570.78 1780.97 1242.63
1990.31 2127.12 892.055
-173.68 1151.12 1859.89
670.171 1438.4 1727.79
177.003 1890.55 2049
155.109 685.798 989.902
623.228 687.614 29.8418
-991.922 1089.64 2006.22
-626.544 730.674 1688.02
-1678.2 676.579 105.855
-1302.59 688.3 965.187
-2017.19 688.899 965.694
87.3047 688.611 -791.186
817.472 844.048 -596.443
-1968.24 808.881 -573.647
-1142.8 681.801 -849.585
-85.3544 1343.35 -1396.64
-624.001 910.659 -1256.86
-1085.42 1216.77 -1373.69
1166.79 1324.32 -780.866
1725.04 1172.84 -268.312
32.2115 2057.42 -1602.93
579.299 1587.52 -1359.73
1739.93 2029.18 -501.36
1203.41 1942.46 -985.542
1001.66 2662.21 -1158.74
2108.75 1589.55 121.438
1689.41 2842.99 -337.159
2082.68 2068.27 -115.722
2192.59 2091.01 417.324
1803.53 2619.1 602.962
133.716 2620.13 2072
716.132 2960.41 1805.43
138.635 3175.18 1914.77
-2348.11 1009.43 1355.28
-1906.12 1249.22 1799.27
-2294.99 1716.93 1391.46
-1454.22 1282.19 -1307.43
-2168.01 1144.73 -747.034
-2268.55 2114.86 -956.667
547.138 2935.34 -1319.43
-42.1981 2728.15 -1647.45
-646.486 3812.04 -1735.18
1528.08 3508.15 406.969
1491.27 3490.84 -178.086
1120.84 3967.09 36.603
-2486.4 5225.5 -93.5466
-2436.56 5161.84 600.957
-1979.23 5375.77 66.1594
-2801.76 4973.4 1009.23
-2635.89 5099.03 830.373
-2927.99 4984.01 719.692
-1929.11 5169.2 906.677
-2316.99 5144.94 915.654
-2171.34 5092.13 1104.46
-3029.62 3730.06 1694.81
-3044.87 4036.58 1613.04
-3228.29 3839.72 1454.11
-2547.65 4361.02 1791.17
-2789.31 4244.13 1749.78
-2548.67 4085.66 1904.67
-3157.39 4557.72 1087.2
-3003.08 4408.32 1450.61
-2949.59 4704.05 1258.69
-1762.73 4686.56 1403.83
-1920.78 4618.84 1535.37
-1899.03 4442.75 1592.5
-2017.82 4943.22 1328.39
-1961.24 4799.6 1441.16
-1824.4 4981.76 1206.83
-2168.15 4244.19 1838.58
-2103.87 4530.44 1665.75
-2263.36 4468.9 1753.63
-2649.84 4856.17 1342.28
-2448.49 4664.35 1602.53
-2326.23 4915.21 1361.67
-1351.21 5700.5 -40.0807
-1672.47 5680.41 -649.954
-1360.97 5312.2 518.046
-1355.3 5558.65 204.487
-844.465 6047.82 -299.681
-936.69 5943.98 -133.15
-821.446 5985.62 -175.101
-1108.56 4230.25 1076.98
-1538.37 4815.76 1142.83
-722.891 5418.48 190.182
-1143.52 4910.63 612.128
-233.313 4664.16 606.344
-1643.02 5018.84 1027.68
-1496.07 5149.6 881.44
-176.932 5734.44 -583.628
-319.258 5736.95 -313.764
-166.498 5565.71 -407.548
-656.255 5947.8 -200.345
-488.651 5861.82 -234.922
-550.138 5994.83 -425.378
-408.447 5408.35 42.4155
-448.969 5707.48 -129.81
-551.499 5647.62 -9.40986
-903.114 5606.24 241.01
-755.454 5692.09 79.2542
-769.005 5855.6 -31.3003
-1694 5871.61 -1204.1
-2213.07 5746.02 -1201.94
-763.221 6052.96 -546.041
-1243.91 5934.25 -728.046
-2085.27 5912.11 -1632.33
-1886.17 5833.16 -1423.27
-1891.99 5851.45 -1566.97
1.49241 5641.45 -850.138
-150.939 5800.68 -752.506
-241.904 5881.7 -981.88
-181.87 5860.65 -848.103
-41.2947 5711.53 -955.653
-353.009 5956.48 -701.795
-508.739 6029.35 -633.689
-1631.03 5259.24 -2235.71
-1352.88 5488.5 -1874.48
-1117.44 5168.9 -2015.91
-1681.71 5790.6 -1738.5
-1506.99 5689.32 -1803.21
-1883.4 5772.15 -1952.24
-275.806 5583.8 -1296.48
-810.957 5671.65 -1537.59
-422.762 5796.68 -1231.29
-600.186 6050.04 -853.361
-499.622 5972.69 -1065.2
-1123.03 5860.05 -1305.51
-2409.89 5780.89 -1338.43
-2458.19 5614.82 -895.974
-2216.84 5948.01 -1753.86
-2325.7 5902.29 -1568.5
-2808.86 5428.02 -1250.86
-2624.84 5716.06 -1437.71
-2789.95 5538.89 -1524.05
-1725.51 5134.33 -2387.98
-1824 5259.32 -2354.48
-2089.49 5229.21 -2345.06
-1906.99 5257.22 -2424.77
-1900.78 5098.4 -2475.01
-1929.14 5566.88 -2201.97
-2042.4 5799.08 -2046.76
-2648.24 4529.99 -1451.97
-2649.68 4787.53 -1696.08
-2504.2 4478.02 -1728.49
-2858.09 5262.13 -1641.3
-2798.53 5161.42 -1666.4
-2873.78 5144.4 -1427.3
-2277.21 4778.44 -2142.62
-2566.73 5024.4 -1922.38
-2397.03 5141.85 -2115.87
-2377.18 5739.32 -2013.98
-2454.26 5398.14 -2136.09
-2705.57 5504.13 -1854.9
-2655.06 5269.27 -415.643
-2880.93 5140.48 -843.044
-2810.69 5208.44 -645.654
-2899.4 5020.14 195.818
-3108.39 4854.64 528.799
-2690.3 3674.73 -843.12
-2782.85 4378.44 -894.329
-3265.65 3915.53 44.3145
-3066.35 3992.24 -397.809
-3227.57 3484.09 -98.8152
-2861.08 4823.64 -1019.82
-2887.34 4977.67 -1045.22
-3280.65 3872.69 1182.92
-3274.68 3564.33 1300.07
-3255.5 4597.69 771.744
-3279.31 4288 956.718
-3379.48 3547.34 504.631
-3353.78 3903.15 712.739
-3371.39 3906.39 409.87
-3020.69 4742.2 -225.638
-3276.54 4305.36 218.17
-3255.17 4636.05 363.18
125.701 5076.03 -303.946
84.4268 5249.82 -484.464
118.911 4598.77 750.538
-202.725 4749.03 390.259
934.928 4137.59 542.008
665.196 4353.9 479.432
886.962 4147.3 717.1
-301.588 3966.83 1416.71
-2.40477 4122.38 1280.24
547.4 3925.84 1322.19
315.186 4035.73 1312.82
414.941 3723.82 1487.75
171.279 4244.74 1132.81
253.858 4380.01 929.822
1468.54 3312.26 1003.58
1284.19 3468.26 1148.21
1310.29 3227.59 1277.45
1075.69 3908.98 889.744
1192.15 3710.4 1014.53
1276.61 3750.11 779.708
885.539 3490.06 1455.58
1061.9 3628.4 1243.98
847.027 3766.7 1304.37
538.443 4235.12 975.31
704.019 4024.5 1155.12
819.863 4092.72 945.723
-1867.53 3952.06 1824.32
-1191.92 4036.03 1300.17
-2145.76 3917.23 1949.75
-2033.85 3978.69 1880.46
-555.095 3332.99 1882.68
-1642.29 3863.69 1850.77
-1368.31 3518.12 1607.14
-3006.96 3446.76 1661.13
-2824.87 3592.76 1799.09
-2206.59 3332.79 1948.84
-2520.78 3481.79 1915.1
-2323.17 2970.78 1682.49
-2547.34 3749.44 1947.96
-2302.95 3834.3 2006.19
-530.097 1804.46 2040.27
-741.332 1806.12 2004.64
-856.625 1394.33 2023.21
-987.323 2839.06 2034.24
-682.494 2536.25 2066.74
-366.694 2617.73 2085.35
-1682.23 1563.03 1699.16
-1192.27 2095.65 1885.88
-1733 2730.34 1821.82
-2113.29 3620.23 2046.89
-1960.25 3517.04 2054.12
-1898.86 3478.27 2053.08
-3216.31 3264.25 1125.3
-3169.5 3337.7 1400.36
-3293.74 3065.41 348.589
-3237.59 3148.03 652.023
-2928.2 2251.48 977.505
-3179.63 2713.52 785.628
-3082.64 2329.08 630.683
-2688.93 3058.4 -861.36
-2892.64 2984.61 -616.47
-2917.47 2253.86 -430.954
-2939.44 2597.06 -527.248
-2771.88 2290.32 -667.279
-3081.56 3028.82 -262.829
-3221.74 3028.93 32.4652
-2451.89 847.345 236.785
-2598.06 1036.13 -37.4801
-2460.61 853.195 -240.556
-2798.26 1712.61 436.78
-2663.2 1247.14 213.65
-2513.61 1272.94 744.283
-2546.55 1201.57 -431.438
-2640.75 1200.09 -212.987
-2620.86 1581.84 -268.396
-3252.37 2643.77 169.229
-3032.21 2252.22 -67.3163
-3124.21 2303.5 288.652
-2257.92 4330.06 -1892.79
-2356.8 3908.16 -1073.28
-2039.62 4581.44 -2193.98
-2185.77 4421.47 -2023.08
-1876.23 3208.68 -1401.01
-2075.62 4140.94 -1860.46
-1939.98 3898.84 -1732.31
-1480.62 5168.52 -2265.75
-1755.67 5127.61 -2399.97
-1879.1 4628.57 -2128.17
-1861.52 5004.72 -2253.19
-1546.52 4767.35 -2004.78
-1904.68 5101.68 -2484.89
-1914.3 4881.59 -2412.02
-748.112 1900.45 -1619.99
-747.444 2224.9 -1648.07
-484.262 2069.46 -1643.07
-1481.67 3062.12 -1695.81
-991.024 2521.63 -1624.77
-1209.63 2110.44 -1470.78
-552.471 2896.62 -1647.92
-891.342 2711.2 -1655.86
-1728.54 3540.24 -1705.3
-1878.08 4472.31 -2245.35
-1864.74 4341.92 -2193.85
-1818.03 4105.36 -2074.46
-540.579 5272.16 -1702.05
[...]
POINT_DATA 642
SCALARS Mean_Curvature double 1
LOOKUP_TABLE default
0.000634076
0.000339412
0.00213996
0.00218572
0.000374014
0.00309932
0.00176632
-0.0323873
0.0013308
0.0010307
0.00520118
0.00320604
0.00182585
0.00165308
0.00162146
0.00901614
0.0043159
0.00169424
0.00356724
-0.000144377
0.00245978
-9.63086e-05
0.000796584
0.00132703
0.000424578
0.000413836
0.000559578
0.000256924
-0.00266993
-0.000987268
0.00794221
-0.00567077
0.00215861
0.000895603
0.00207263
0.00220768
1.38559e-05
0.00265262
0.00260855
0.00024298
0.00281044
-0.00121645
0.00125569
0.0015181
-0.00162136
0.00135019
0.00168151
0.00130076
0.00158436
0.00141058
0.000742108
0.00138883
0.00165037
0.00068596
0.00701002
0.00162467
0.00215844
-8.91275e-06
0.000281207
0.00178427
0.0107734
0.00356915
8.64542e-05
0.00186818
-0.00157317
0.00309851
0.00163142
-0.00276763
0.00252867
0.000113315
0.00220822
0.00187218
0.00151171
0.000505484
-0.000950138
-0.000150741
-0.000106198
0.000177898
-0.00151203
0.000857856
0.00145582
0.000987915
0.0013911
0.00096139
-0.00395359
0.00465351
0.00121891
0.00359054
0.00156893
-0.00427771
-0.00091616
0.00188339
-0.000342495
0.00146671
0.000671985
0.00231888
0.000345796
0.00476395
-0.00187538
-0.000554654
-0.00547096
-0.0143594
0.0017927
-0.0115776
-0.000132893
0.00808196
-0.00907422
-0.0087366
0.000242509
0.000609758
-0.00440208
0.000865722
0.00160114
0.00157148
0.00129369
0.000518652
0.000383273
0.00307698
7.35143e-05
0.0007925
0.000621189
0.000139756
0.000156405
0.00308644
0.00259474
-0.000347689
-7.0792e-05
0.0014902
0.00169154
0.000763351
0.000535729
0.00133554
0.000288935
0.00240616
0.000164989
0.000101465
0.00183922
0.00116285
0.00211491
0.000167803
0.000696213
0.000895258
0.00105514
0.00174623
0.00336209
0.00498709
-0.000656997
0.000448843
0.000732904
0.00128517
0.00265529
0.00472814
-0.000418829
0.00193193
0.00245174
0.000667256
9.52512e-05
0.00228578
0.00433179
0.00102411
0.00124077
0.000461288
-0.000734974
0.000268803
-9.13776e-05
0.0015708
0.00149694
0.00158038
0.00285204
0.00119687
0.001381
0.00204166
0.00135643
0.00251461
0.00167458
0.00179662
0.00188948
0.00144387
0.00114482
0.00149681
0.000684022
0.00181082
-0.000104771
0.00201188
0.00199998
0.00379853
0.00208992
0.00143537
0.00216693
0.00166069
0.00146851
0.00128548
0.000631791
-0.000756167
-0.00238463
0.0014605
0.00348719
0.00230501
0.00377093
-0.00312428
0.0011306
-0.00106686
-0.00185661
-0.00120031
-0.00135746
0.00644949
0.00091828
0.00196481
0.000412121
0.00234735
0.0022873
0.0015598
-0.0055418
0.00203305
0.00292166
-0.00473879
0.00331482
0.00366236
0.00585299
-0.000439366
0.00103744
-0.00113964
0.00244835
-0.0109145
0.000955168
-0.00259432
0.0018881
0.00281173
0.00378242
0.00389149
0.00145866
0.00304156
-0.000818128
-0.000378548
-0.00815134
0.00132612
0.00135821
0.00117743
0.000965588
0.00211728
0.00140954
0.0017711
0.00246806
0.000588023
0.00135114
0.00132753
0.00421064
0.00354678
0.00144403
0.00226992
0.00275159
0.0172009
-0.00043986
0.00182878
0.00743369
0.0142203
0.00294576
0.00381221
-0.00111306
0.000991454
0.00104508
0.00461292
0.000749376
0.00295733
0.00134402
0.00045473
0.000350661
0.00262389
0.0027549
0.00285706
0.00089991
0.00205747
0.00123683
0.00105473
0.0015652
-0.00259259
-0.000912454
0.000538395
0.00142839
0.00112512
0.000979061
0.00149926
0.000637476
0.00213069
0.00225269
0.00101219
0.00212914
0.000809147
0.00153821
0.000654577
0.000791843
0.00213467
-0.000140066
0.00182281
-0.00337165
-0.00316831
0.000870034
0.00140193
0.00146159
0.00181873
0.000405743
0.00103053
0.00113335
0.000124828
0.000680583
0.0043072
0.00110159
0.00135898
0.0011949
0.00104732
0.00121092
0.00131008
0.000680593
0.00105637
0.00132098
0.00125242
0.00143464
0.00119066
-0.00233253
-0.00251228
0.00239071
0.000704993
-0.00187449
0.00330592
-0.00353877
0.00226572
0.00113752
0.00128508
0.00103744
-0.00125272
0.00141533
0.00241565
0.000151935
-2.75959e-05
0.00112791
-0.000956766
0.000850675
-0.000221532
-0.00139801
-0.000156922
-0.000505467
0.00392654
0.00205865
0.00224322
0.00098523
0.0021671
0.00126308
-0.000705942
0.000976824
0.00120862
0.000599649
0.00186746
0.000502978
0.00130065
0.000956523
0.00123769
-3.00941e-05
0.000535412
0.00175641
0.00165967
0.00243131
0.000464421
0.000661431
-0.00140646
0.00128613
0.00184272
-0.000693864
0.00183155
0.000609733
0.00102999
0.00110235
-0.00221083
0.00019585
0.00158025
0.000736792
0.00411493
-0.00262494
-0.0158161
0.0031434
-0.00238591
-0.00431715
0.00154691
-0.00314402
-0.000777897
0.000856421
0.000984578
0.000135991
-0.000231888
-6.9094e-05
0.000574354
0.000234722
0.000446348
-0.00175962
-0.00146327
-0.000625368
0.00507424
-0.0105031
0.0295541
0.00225312
0.000164675
-0.000250618
0.0443227
-0.00691976
-0.00460865
-0.0402824
-0.0114581
-0.0467495
-0.0664711
-0.0134461
0.00129355
0.00114993
0.000834371
0.00119675
-0.0112543
0.000849008
-0.00231046
-0.000519585
0.000302924
-0.00182557
0.00403606
-0.00016336
-0.00122573
0.000698237
0.00127987
0.00183113
0.00184826
0.00135585
0.00225761
0.00221798
0.000480405
0.00128713
0.000687178
0.000111248
-0.00023615
8.9751e-05
-6.80075e-06
0.000921199
0.00139994
0.0012103
0.0015509
-8.98764e-05
0.00198623
0.00024415
0.00112105
0.000572799
0.00146446
0.00132945
0.000842244
0.000312449
0.0017724
0.000570207
-4.69545e-05
0.00034687
0.00109045
0.00164996
0.000563829
-1.16239e-05
7.77484e-05
3.61841e-05
0.00327809
0.00315271
0.0025859
0.00209747
-0.000408341
0.00111641
0.00138339
0.000377521
0.00241666
0.000806276
-5.71505e-05
0.000690771
-8.51332e-05
0.00216464
-0.000487148
0.000524798
0.00108955
0.000787332
-0.000298065
0.0010623
0.00135634
5.01751e-05
0.000302514
0.00210565
0.00247661
0.00210452
0.002913
0.00111788
0.00252517
0.0018905
0.00163597
0.000140155
-4.91352e-05
0.00119683
0.000508055
0.00105578
0.00107558
6.47119e-05
0.000610198
0.00346229
0.00107802
0.00185136
0.00173939
0.00147646
0.000837574
0.000897673
0.00138719
0.000954933
0.000505486
0.00176158
0.00117012
0.00119538
0.00131941
0.000699917
0.000818281
-0.000415907
0.00044658
0.000226297
0.000994357
0.000681003
0.000270423
0.000805911
0.000603031
-0.000621163
0.0023562
0.00125597
0.000399293
0.000784896
0.00134192
0.00146058
0.000590658
0.00129222
0.00206889
0.00183497
0.00174029
0.0012612
0.00103515
-0.000569486
0.00149143
0.00137649
0.000609536
0.000597456
0.00373066
0.00207039
0.00151202
0.00193279
0.00365625
8.76089e-05
0.00089005
0.000582398
0.00166901
0.00393191
0.00343129
0.00118963
0.00106286
3.69969e-05
0.00244387
0.000252322
0.00109194
0.000816468
0.000757331
0.00081694
0.000972155
-0.000576444
0.00140898
0.000468481
4.93477e-05
0.000549385
0.00207214
0.000587293
0.00182865
0.000912245
0.0028923
0.00221198
0.00250021
0.00170888
0.00298966
0.00180624
0.00201287
0.00197853
0.00250969
0.000416136
0.000417637
0.0012587
0.000754114
-1.02568e-05
0.00376768
0.00158929
0.00192789
-0.000282694
0.0032293
0.00402104
-0.000168866
-0.0010675
0.00268848
0.00085926
0.00422421
0.00156394
0.00233909
0.000634723
0.000185887
0.000325887
0.00154416
0.000844486
0.00194447
-0.00193818
-0.000679353
0.000962056
0.000401388
0.000764217
0.001262
0.000642341
0.00046642
-0.000144915
0.00020607
0.00125733
0.000297724
-0.00749166
-0.00167326
-0.00157512
-0.00149935
-0.00431588
0.0013615
0.00114543
-2.00129e-05
0.00133625
0.00129447
0.00074102
0.001234
0.00074548
0.000949458
0.0029146
0.00089713
0.00115547
0.00118393
-0.00123155
0.000251245
-0.000223996
-0.00127571
-0.0094625
0.00138354
0.00120282
0.000372085
SCALARS CoVolArea double 1
LOOKUP_TABLE default
249008
64630.8
93611.6
92715.7
65309.5
186451
66807.7
21362
80779.5
114658
190176
55874.5
98254.2
67521.9
86825
173671
34870.3
63483.8
53782.9
85443.9
76030.1
140683
94906.8
67265.6
278760
223164
144838
229608
597438
372807
110060
259968
103003
153181
127174
125518
392683
82551.9
81097.3
109577
67241.5
157470
151104
89178.3
223011
93786.9
109708
116139
48987.2
68810.9
56976
87093.8
181613
394847
150465
53774.1
34234
166758
187498
69982.4
15984.2
42596.9
97858.6
138403
175845
97641.8
132575
8922.55
93988.1
134580
73436
94994.6
151830
261118
235911
131851
148305
142452
161598
132047
66878.3
68663.6
69267.4
79270.3
105898
282082
157350
62563.9
125810
263828
180673
131455
198447
101524
146180
132955
208985
54668
71186.3
340778
88760.1
40523.4
128155
111899
126851
18939
102544
64456
34533.3
103046
294654
81526.4
121385
155048
142273
166950
128832
67311.2
162603
177288
127156
216911
191233
104876
125299
177886
248199
124259
123308
145525
115851
131914
148194
120514
73329
173580
105690
107011
84433.1
111356
122566
120002
115512
123039
39007.5
29452.5
127680
96774.6
90252.6
80799.7
89822.8
48295.8
195124
67663.2
94091.3
224799
124294
80407.4
466399
88914.9
67932
174754
252339
209897
407371
99706.4
88325.1
98725.9
130822
99135.8
80863.5
79729.8
109408
88256.9
87478.8
99551.3
83600.4
106093
116227
114307
109413
42629.7
143868
66007.4
46664.5
44096
47083
47518
67439.1
116630
101405
98950.2
275026
385417
162480
156067
57892.4
80027.4
26271
334760
269861
288265
419925
374399
118919
73611.1
52438.6
49148.8
84389.6
34659.1
43414.2
44121.4
107833
40820.6
74186.6
76669.4
56361.2
37148
171296
188550
116384
97636.7
33735.3
56855.4
111122
36036.6
34774
55083.8
30246
38454.5
39649.8
45583.2
98724.7
193935
131837
115300
112945
66424.7
99559
140797
100649
140376
113759
202333
85084.9
145771
74093.9
51942.3
102630
77491.6
85529.1
17715.9
44949.8
82834.4
39766.4
24454.7
58452.5
75965.7
183631
110625
165048
59120.9
65705.8
48331.3
109634
105357
101910
129581
114548
113758
180908
138915
145675
147246
119468
279872
297308
198413
219001
168154
148357
135496
129983
87740.1
112174
134037
130649
146448
128848
224734
200293
155363
293236
112289
129543
369040
103922
237240
69839.7
283246
196742
75780.1
74192.1
94982.9
141052
120903
97833.2
72346.2
100946
66745.6
65138.6
59787.5
82441.8
71864.1
78373.2
85816.4
75108
74487.3
221957
426548
40698.8
55587.5
160185
131690
369483
79539.5
84715.9
215643
118501
282293
85683.2
65142.5
129311
222659
78401.6
238984
248351
100413
254220
456547
397241
22794.8
129790
144753
151339
100362
131919
166862
215972
181881
201415
214133
197571
173339
127796
132586
160589
146847
134615
97990.1
84064.6
250876
159343
175391
64764.6
97336.9
171760
134635
203025
192303
206501
436816
76083.3
64933.5
202440
75025.4
211092
9837.02
22581
307956
95731
240855
18964.1
33244.6
99347.7
101551
66919.5
285809
153892
271991
388728
204796
495807
37798.7
66424.6
119957
61143.3
15154.1
53240.9
67381.2
303391
12449.3
39425.3
75013
12661.3
83678
8876.12
14557.2
23442.5
53234.2
67613.5
93384
68854.5
125249
184296
122583
143813
220825
304393
37926.4
153811
78376.3
125014
139501
117015
111948
125700
103029
126622
149871
159624
149284
135887
115818
187640
162676
153089
72821.9
97887.2
92961.7
106069
143419
139099
155822
153855
140391
125543
134942
184450
144106
193250
196789
145902
116239
139439
145330
298948
240094
385260
50902.2
94915.6
136513
113173
160285
122664
139471
128500
135556
151194
369688
186842
294679
100388
140870
158570
184970
196594
312130
144853
126192
233630
170333
101260
109402
95659.2
87077.7
138708
96781.2
121685
115683
200613
261194
119477
127227
110111
113822
121816
96376.2
46481.7
88390.2
85293.2
158681
128053
146036
134698
116608
133027
151874
87011.8
124316
122341
77574.5
136894
84470.5
108696
104466
110029
89870.9
154928
164013
112520
94157
106050
41546.9
105916
142505
107662
153230
118511
167285
122505
94299.8
106690
112237
113692
118502
140216
80061.2
94293.8
125030
56873.3
47923.2
81398.3
125459
81735.3
42132.2
129861
61455.9
66149.3
81193.3
35508.8
83425.5
136279
114810
111491
75161.9
93531.7
116084
102563
89015.6
110681
105609
303530
98688.2
125075
126327
104180
96102.1
92571.2
87404.4
143751
97921.6
104168
111266
135155
65193
107749
59820.7
99139.1
114413
178156
193026
240982
272854
248203
81288.5
96328.7
114180
90214.4
51575.4
35987.1
95763.7
257663
79650.8
112490
55271.7
102128
98833.5
254215
321452
219232
127305
187035
108859
209086
216002
76008.3
111069
84230.1
97393
343125
83303.7
178505
106050
93800.2
115943
127856
807654
570967
227124
189149
109517
94907.5
381408
110752
147493
126165
73693
76773.7
82100.5
81466.7
67776.3
90264.1
127151
235901
112776
255913
207075
95821.9
91765.1
101982
100124
SCALARS SignedDistance double 1
LOOKUP_TABLE default
356.04
405.93
237.388
225.56
376.37
492.405
371.861
680.233
348.307
321.289
552.912
229.231
243.072
334.163
376.482
744.494
311.714
299.392
384.901
367.877
299.667
304.782
371.528
374.52
372.318
349.516
422.822
336.918
990.207
466.825
683.48
859.723
247.709
299.081
232.067
231.107
282.363
272.451
288.88
376.548
323.068
397.773
303.552
291.873
400.85
269.907
250.097
244.044
380.334
354.597
390.287
362.503
310.962
535.499
617.722
353.159
375.123
444.556
641.323
388.544
378.209
314.128
354.523
710.566
567.907
244.829
256.498
540.59
257.27
322.757
291.913
320.636
339.484
336.726
368.828
288.59
287.755
379.961
597.46
370.078
357.821
343.805
342.501
335.751
379.907
665.724
288.043
392.215
354.508
763.913
424.366
270.817
314.904
313.518
302.834
328.455
365.667
337.891
575.88
769.271
604.558
547.948
335.744
926.651
376.297
437.709
778.062
637.173
487.145
393.03
745.866
365.644
211.091
228.249
232.561
311.12
316.627
299.392
287.628
267.837
327.091
282.33
277.338
306.702
241.691
287.674
276.654
275.339
276.076
262.454
261.356
283.183
322.147
286.156
380.499
314.67
235.629
337.251
365.21
361.8
340.996
357.059
266.517
331.212
313.453
331.091
395.18
350.306
340.127
363.532
258.788
363.087
430.64
382.642
412.125
359.892
407.95
380.297
1055.23
357.362
356.083
385.379
341.378
367.58
331.331
281.64
307.835
278.79
374.711
350.028
321.781
247.613
238.571
227.126
312.891
256.014
317.168
239.961
239.426
240.211
396.224
394.429
411.878
335.57
358.781
373.225
376.036
379.418
350.84
279.444
312.209
315.972
329.758
524.275
470.923
354.81
301.503
315.211
319.832
526.532
450.409
477.218
521.263
694.797
431.216
584.534
381.402
398.473
421.229
331.578
361.839
314.567
515.326
418.156
439.35
483.465
414.411
361.459
731.677
371.063
293.75
431.006
393.224
501.41
463.039
374.09
358.822
296.919
343.105
343.302
321.413
315.07
503.389
694.063
935.851
525.376
615.568
338.034
324.392
652.722
290.96
290.671
261.753
677.804
322.477
303.406
341.217
336.67
254.579
246.411
231.798
574.589
431.726
325.003
435.179
548.319
302.927
291.404
357.201
332.251
343.72
294.085
288.141
313.404
301.845
288.129
274.213
180.732
257.415
217.464
295.169
299.734
286.984
302.955
255.163
552.991
386.624
284.538
349.916
311.808
319.273
312.123
281.775
275.426
255.282
280.117
316.178
277.159
301.531
350.287
307.273
255.134
623.948
505.958
623.437
741.087
382.946
420.143
370.029
384.896
384.241
362.091
363.895
385.372
387.507
418.675
328.614
325.886
320.543
358.157
345.354
348.861
347.316
339.592
338.404
375.995
354.518
365.77
435.173
510.424
381.934
390.508
466.793
594.406
494.861
251.862
287.407
430.832
305.383
399.952
285.185
346.254
320.182
358.78
377.683
446.916
345.882
358.775
456.66
454.73
422.753
442.444
556.719
599.146
323.385
260.934
315.76
340.661
263.095
266.878
274.16
386.141
325.895
279.642
307.997
289.953
317.362
315.324
218.694
287.861
222.116
322.601
361.586
418.055
368.423
343.852
416.668
280.489
294.107
281.793
440.725
573.824
452.453
440.183
607.219
624.967
857.742
674.601
564.869
452.725
397.571
574.056
544.377
527.735
355.153
381.26
376.186
817.672
379.214
368.039
444.042
388.974
1026.35
630.623
694.808
848.134
728.286
872.271
369.344
462.81
540.714
542.068
419.96
440.423
490.273
710.894
605.639
833.23
465.018
347.918
367.156
376.741
357.017
875.714
422.29
461.288
383.825
395.898
687.506
433.862
472.613
444.141
241.452
223.911
254.652
224.938
218.271
206.831
227.609
254.305
246.907
308.151
343.462
345.044
315.546
317.635
303.625
262.859
295.36
288.127
351.585
303.704
322.474
277.037
262.089
237.852
294.254
285.611
296.815
280.893
298.214
284.069
275.17
275.499
269.117
273.832
279.642
281.752
278.293
335.041
291.114
240.425
221.106
286.634
259.724
241.36
279.886
255.448
243.91
280.497
357.14
281.034
266.451
278.807
258.887
264.581
277.333
301.819
257.609
250.18
298.159
281.041
245.77
260.651
260.588
250.955
272.988
245.031
261.192
252.994
279.243
280.677
321.082
341.136
350.816
299.941
318.905
316.159
360.757
350.832
291.956
288.427
253.344
268.36
269.545
234.36
285.183
287.078
270.522
282.303
309.735
374.714
331.173
374.637
366.786
361.179
349.697
316.627
342.231
347.086
361.414
386.317
371.59
344.938
352.241
341.067
338.786
284.62
330.585
335.54
231.155
253.163
230.783
223.859
247.655
344.165
364.356
331.4
344.462
392.162
320.627
328.656
333.038
341.858
280.384
325.393
387.959
318.547
325.379
305.547
325.945
298.116
300.661
305.571
333.01
361.298
353.855
321.381
346.996
337.511
328.377
328.8
426.666
369.442
389.127
394.193
374.104
324.85
355.616
339.327
230.859
184.788
200.658
286.058
344.111
365.157
382.127
406.952
418.749
293.063
321.032
399.897
264.972
307.97
441.244
294.69
359.712
347.776
415.692
366.287
376.546
418.523
472.773
235.725
396.34
371.352
344.642
358.419
370.879
366.285
396.367
319.765
331.571
392.57
463.902
493.571
371.934
390.335
385.066
384.176
424.787
378.274
482.464
380.973
363.795
372.087
813.233
701.537
865.177
700.313
1079.92
383.361
512.44
423.227
329.304
327.476
337.267
349.783
368.678
357.681
368.236
361.296
349.765
342.961
700.087
383.594
399.695
822.917
508.113
360.617
372.086
375.67
