# vtk DataFile Version 4.2
vtk output
ASCII
DATASET POLYDATA
POINTS 642 double
-2308.16 5723.35 -635.531
122.149 5636.73 -574.934
-2323.99 627.646 -30.842
1328.03 648.981 76.6266
-671.332 1406.28 2184.22
-1437.77 4471.38 1550.29
-498.25 1810.61 -1806.81
-1411.15 5145.21 -2362.44
1443.69 3062.83 -920.974
1670.41 2973.01 1159.81
-2746.83 4113.11 -1250.42
-3275.83 3551.9 1585.27
-3155.03 4886.5 932.345
-2320.82 4232.82 2036.33
-1848.1 5228.2 1174.54
-70.6423 5216.9 281.459
-677.853 6178.65 -301.207
-61.6557 5755.29 -1216.29
-1953.57 6042.3 -1825.52
-2105.32 4941.96 -2429.59
-3017.24 5270.81 -1373.86
-3443.2 3497.83 229.996
708.233 3699.63 1632.27
1245.3 4071.18 698.04
-1955.02 2178.17 1837.98
-462.25 2993.59 2197.96
-2688.26 1630.91 -584.095
-2799.1 1681.94 916.187
-1028.16 3952.93 -1680.95
-1736.59 2652.22 -1486.58
963.844 4479.53 -498.079
258.392 4606.94 -1143.67
2136.7 1582.37 862.283
811.81 2279.08 2008.43
510.022 732.501 1509.11
-1732.42 680.935 1576.67
-531.928 549.699 -58.7409
-1430.23 870.569 -1330.84
410.926 887.297 -1252.43
665.681 2244.83 -1551.23
1973.34 1699.35 -570.824
1997.63 2614.94 143.201
-2786.49 5227.4 479.253
-2528.08 5180 1141.93
-1929.39 5358.07 651.993
-2857.82 3937.51 1933.28
-2817.47 4613.04 1661.21
-3296.86 4234.12 1336.98
-1703.84 4945.39 1435.2
-2154.92 4824.97 1673.9
-1977.97 4392.76 1893.99
-924.622 5948.45 114.486
-1163.85 6088.74 -382.278
-438.63 4595.62 1097.1
-1130.54 5613.54 566.888
-241.82 5992.05 -447.14
-522.202 5913.4 21.0519
-187.131 5657.14 -79.6974
-1337.44 6060.94 -1063.72
-2144.63 6035.88 -1469.67
127.916 5782.73 -843.136
-311.886 6121.34 -846.157
-1703.82 5632.63 -2187.36
-950.15 5887.92 -1571.52
-550.762 5494.99 -1662.46
-2611.98 5885.3 -1674.76
-2732.43 5656.24 -1060.35
-1832.07 5144.97 -2529.26
-2127.07 5585.4 -2342.62
-2938.7 4935.25 -1483.92
-2780.27 5227.93 -1979.18
-2514.93 4531.55 -2032.35
-3099.72 5008.85 -56.7249
-3195.67 3530.47 -458.209
-3128.93 4432.54 -466.712
-3420.48 4308.91 571.77
-3420.91 3543.26 927.638
718.26 4439.8 811.024
618.494 4692.25 135.862
160.404 3948.45 1622.85
466.718 4271.32 1282
1510.46 3626.66 952.79
1074.03 3958.06 1195.65
1203.54 3421.55 1495.69
-2044.53 3769.7 2138.72
-887.253 3607.29 2053.25
-2819.21 3243.67 1836.08
-2289.47 3580.93 2196.78
-382.197 2363.39 2310.79
-1373.94 3126.7 2216.57
-1298.81 1463.42 2040.21
-3391.34 2632.93 472.386
-3126.43 2805.1 1196.12
-2878.82 2614.52 -878.184
-3231.47 2615.19 -237.277
-2662.16 997.491 530.396
-2881.95 1598.99 20.7298
-2688.87 1005.3 -427.432
-2062.64 4234.54 -2158.39
-2077.28 3409.93 -1558.74
-1465.5 5097.79 -2288.04
-1941.9 4741.12 -2413.15
-1043.73 1918.96 -1724.67
-1558.74 3341.47 -1821.62
-505.895 2380.26 -1820.71
70.7871 5236.33 -1413.49
-589.457 5201.66 -1758
475.86 5325.21 -831.533
359.059 5373.74 -987.006
1002.36 3381.3 -1152.75
292.39 4507.52 -943.605
1382.28 3562.46 -691.876
1887.88 1028.55 516.681
1514 1091.49 1165
1025.31 629.217 791.899
1348.26 2611.21 1597.68
1652.05 1777.11 1364.48
2094.03 2159.38 975.983
-145.214 1091.81 1970.42
728.643 1397.14 1831.4
208.445 1868.48 2191.9
154.981 555.154 993.652
626.736 557.852 26.082
-1021.9 1036.33 2116.51
-617.083 634.221 1736.92
-1677.57 542.685 90.7116
-1299.69 558.705 974.368
-2051.72 572.77 978.728
92.1554 564.018 -820.981
870.462 745.669 -645.879
-2008.51 707.47 -629.614
-1148.12 553.272 -872.184
-63.836 1280.86 -1531.11
-613.119 827.126 -1353.43
-1096.59 1182.59 -1540
1243.88 1258.18 -880.899
1794.99 1100.76 -317.949
74.3712 2034.83 -1756.96
625.379 1548.03 -1506.68
1851.65 2063.2 -621.497
1307.55 1931.11 -1107.13
1101.34 2676.9 -1293.69
2223.07 1548.43 101.829
1829.72 2880.53 -399.582
2211.3 2110.87 -178.216
2333.15 2146.55 434.202
1964.51 2687.91 624.734
162.338 2637.11 2230.22
788.366 3009.12 1938.25
162.696 3261.42 2058.53
-2427.89 958.007 1399.97
-1953.66 1248.09 1947.67
-2401.52 1709.35 1508.14
-1534.3 1304.92 -1460.47
-2268.74 1119.28 -885.108
-2342.82 2066.3 -1092.41
622.654 2987.42 -1485.83
-4.73752 2738.73 -1818.67
-590.661 3843.56 -1911.58
1669.05 3596.95 419.985
1629.22 3577.32 -222.645
1254.89 4089.31 38.7059
-2530.98 5366.71 -58.2841
-2471.13 5322.7 623.042
-2026.48 5512.88 108.348
-2863.19 5075.74 1056.27
-2681.32 5226.55 858.073
-2999.83 5088.33 739.087
-1938.34 5328.03 955.777
-2338.08 5296.15 952.579
-2180.79 5226.07 1172.73
-3104.28 3732.18 1783.04
-3124.97 4065.19 1688.36
-3321.93 3853.37 1503.06
-2583.02 4426.36 1910.74
-2850.95 4285.35 1841.87
-2589.2 4122.05 2034.73
-3250.74 4605.09 1131.85
-3083.52 4455.36 1516.88
-3021.23 4771.21 1316.81
-1672.66 4766.28 1540.21
-1847.75 4698.84 1678.49
-1805.61 4511.38 1743.11
-2002.09 5062.18 1430.48
-1917.25 4900.47 1566.94
-1770.5 5100.87 1317.41
-2126.03 4310.61 1991.82
-2057.78 4616.47 1807.65
-2255.17 4550.13 1888.21
-2696.71 4950.46 1416.71
-2473.87 4756.66 1710.42
-2342.33 5030.04 1452.88
-1411.59 5829.92 11.6996
-1727.83 5823.98 -607.721
-1373.34 5454.6 600.575
-1387.59 5690.95 288.259
-863.395 6182.81 -268.48
-974.423 6066.07 -65.9434
-814.358 6113.48 -98.8985
-1032.61 4386.51 1243
-1442.53 4922.42 1273.21
-642.697 5518.63 357.248
-1043.64 5037.75 773.41
-212.386 4811.67 755.652
-1536.58 5097.4 1155.2
-1402.21 5248.59 990.688
-48.7844 5836.28 -522.38
-196.307 5834.89 -232.315
-22.8921 5662.86 -322.677
-599.652 6070.04 -124.346
-400.857 5975.11 -159.202
-482.908 6119.99 -382.428
-258.824 5515.04 98.7691
-339.117 5799.87 -20.1033
-463.742 5743.73 121.674
-917.369 5736.81 318.841
-684.896 5790.07 214.927
-732.877 5970.84 78.369
-1733.29 5975.2 -1166.96
-2237.2 5892.17 -1151.25
-771.736 6189.9 -548.966
-1277.82 6081.38 -727.199
-2068.88 6077.33 -1610.56
-1880.78 6005.21 -1416.43
-1862.69 6023.4 -1565.71
135.31 5730.64 -780.26
-37.0675 5911.96 -711.01
-173.223 5984.1 -1033.35
-85.5826 5980.56 -850.057
57.8908 5806.21 -1003.01
-272.668 6080.66 -673.451
-465.066 6167.65 -618.021
-1571.66 5332.5 -2331.42
-1293.11 5561.02 -1983.94
-1097.54 5206.51 -2050.9
-1641.24 5931.43 -1796.53
-1457.65 5789.58 -1899.88
-1832.95 5871.45 -2026.15
-208.94 5654.21 -1404.16
-759.896 5750.72 -1645.68
-370.529 5884.21 -1316.93
-592.178 6183.64 -875.789
-469.831 6081.62 -1121.08
-1117.95 6004.6 -1350.98
-2453.04 5904.68 -1293.03
-2512.02 5734.92 -852.239
-2238.82 6062.94 -1781.11
-2364.29 6032.26 -1541.37
-2910.23 5487.57 -1235.08
-2695.15 5800.24 -1418.91
-2882.6 5594.35 -1531.36
-1669.76 5167.07 -2507.57
-1758.9 5321.46 -2463.51
-2146.81 5236.92 -2448.74
-1895.42 5301.68 -2548.12
-1920.37 5099.54 -2543.99
-1892.92 5645.77 -2299.67
-2033.87 5888.29 -2122.44
-2788.14 4483.89 -1508.42
-2772.28 4745.54 -1761.62
-2619.03 4407.93 -1799.99
-2981.05 5262.4 -1686.17
-2912.22 5118.67 -1725.93
-3014.32 5117.97 -1454.65
-2351.78 4747.86 -2245.94
-2662.34 4993.1 -2006.99
-2476.42 5120.87 -2216.98
-2416.29 5794.41 -2068.58
-2520.06 5416.07 -2226.69
-2780.64 5540.17 -1904.05
-2727.27 5381.81 -381.75
-3008.05 5186.9 -838.644
-2909.73 5294.98 -624.696
-2985.12 5126.78 202.022
-3197.84 4933.11 533.815
-2846.28 3663.63 -917.364
-2924.16 4344.68 -968.183
-3392.95 3924.05 0.659793
-3202.82 3999.35 -460.743
-3359.18 3477.78 -149.266
-3002.63 4794.75 -1059.66
-3031.94 4972.6 -1060.25
-3406.95 3882.03 1207.87
-3394.6 3548.72 1329.05
-3360.85 4638.96 789.097
-3400.21 4311.97 981.325
-3515.54 3533.64 505.257
-3477.69 3910.86 727.468
-3505.77 3916.78 396.044
-3165.55 4774.08 -257.451
-3411.92 4327.76 186.952
-3363.83 4677.25 352.259
228.299 5199.45 -203.438
232.649 5356.45 -416.913
239.877 4716.95 758.87
-2.40641 4885.08 384.781
1053.76 4272.57 558.547
762.538 4508.14 522.755
990.077 4280.87 761.842
-302.257 4075.62 1563.99
7.54583 4243.93 1414.89
599.265 4026.75 1451.21
348.33 4143.79 1443.65
453.301 3817.51 1635.12
197.244 4379.84 1249.38
294.179 4519.84 1033.07
1593.09 3369.12 1074.84
1391.94 3539.14 1234.38
1418 3274.51 1373.61
1185.11 4022.52 951.218
1302.89 3803.52 1089.13
1399.14 3852.14 824.875
961.103 3564.47 1581.41
1154.8 3709.69 1347.28
920.32 3855.79 1418.23
607.595 4373.06 1061.56
775.023 4138.51 1256.32
909.734 4219.78 1019.71
-1799.57 4058.31 1953.6
-1156.49 4105.35 1504.05
-2100.45 3969.88 2113.1
-1976.45 4042.42 2038.42
-564.599 3381.38 2061.66
-1544.08 3945.88 1985.36
-1353.79 3524.79 1821.55
-3078.48 3409.2 1748.44
-2888.88 3571.99 1915.17
-2247.84 3273.61 2092.95
-2572.91 3439.52 2035.88
-2390.42 2913.77 1826.59
-2598.52 3749.54 2071.35
-2318.96 3867.36 2151.67
-544.046 1791.31 2189.98
-776.01 1806.82 2158.2
-884.944 1413.41 2185.24
-971.418 2896.3 2185.39
-709.582 2535 2225.05
-380.837 2648.89 2249.06
-1710.88 1590.1 1887.62
-1236.3 2082.49 2047.12
-1763.45 2696.44 1969.61
-2091.34 3655.49 2214.36
-1975.18 3492.91 2194.38
-1901.91 3447.94 2219.63
-3343.34 3226.07 1154.4
-3264.98 3291.44 1454.46
-3432.34 3053.37 343.639
-3383.79 3124.69 678.135
-3031.18 2206.38 1028.76
-3291.95 2682.99 827.56
-3194.29 2277.51 660.834
-2804.72 3056.53 -979.459
-3017.7 2982.47 -699.643
-3030.46 2211.43 -485.218
-3063.13 2579.75 -597.43
-2873.11 2248.68 -750.572
-3212.8 3018.63 -328.007
-3356.92 3018.93 -12.1658
-2521.86 771.018 245.001
-2701.29 978.02 -37.5544
-2529.55 776.96 -255.512
-2918.28 1658.3 454.321
-2793.2 1203.19 224.256
-2671.49 1229.67 772.496
-2683.67 1191.65 -511.089
-2779.81 1172.12 -239.815
-2768.42 1547.65 -321.028
-3377.33 2616.41 143.867
-3152.81 2201.93 -100.415
-3242.28 2248.01 287.183
-2355.49 4246.16 -1982.6
-2470.68 3833.75 -1231.19
-2099.66 4524.75 -2318.06
-2262.12 4346.73 -2141.82
-1971.48 3150.22 -1547.25
-2147.55 4045.08 -1991.63
-2002.13 3807.83 -1886.82
-1424.05 5153.34 -2369.23
-1708.85 5153.19 -2528.62
-1758.92 4589.69 -2267.63
-1756 4931.61 -2378.87
-1457.82 4715.15 -2180.29
-1914.12 5112.18 -2555.99
-1934.44 4866.12 -2459.17
-775.218 1870.33 -1779.13
-764.078 2213.54 -1825.24
-487.835 2063.3 -1820.23
-1405.33 3166.44 -1842.34
-1025.88 2497.33 -1795.72
-1293.56 2080.46 -1616.75
-546.112 2906.03 -1835.45
-897.612 2698.66 -1831.64
-1640.8 3503.94 -1944.56
-1927.71 4437.24 -2307.47
-1904.61 4284.77 -2289.36
-1815.43 4061.39 -2170.79
-530.586 5207.88 -1736.34
[...]
POINT_DATA 642
SCALARS Mean_Curvature double 1
LOOKUP_TABLE default
0.000574525
0.000785144
0.00163248
0.00167525
0.00090706
0.00312232
0.00184508
0.00312332
0.00113118
0.000896545
4.22936e-05
0.0024335
0.00148056
0.00119183
0.00145952
-0.00451568
0.00308501
0.00148047
0.00302232
0.00112049
0.00206769
2.46129e-05
0.000794668
0.00121304
0.000321115
0.0003097
0.000339093
0.000112569
-0.00241024
-0.00020037
0.00620156
-0.00611991
0.00186411
0.000799173
0.00162205
0.00165359
2.117e-05
0.00176696
0.00209686
0.00038436
0.00208763
-0.000774527
0.00092977
0.001221
-0.00118203
0.00117226
0.00129134
0.00106071
0.00142912
0.00126944
0.000886662
0.0017404
0.000997135
0.000696691
0.0032903
0.00131177
0.00161984
0.00062457
0.000543298
0.0013006
0.00523871
0.00278321
0.000358058
0.00131621
0.000452475
0.00230513
0.00109927
-0.00403827
0.00194663
0.000226053
0.00233415
0.0015222
0.00118524
0.000503204
-0.000660921
0.000106427
-3.14784e-05
0.000327055
-0.000834251
0.000700485
0.00110547
0.000992353
0.00113134
0.000904104
-0.00124533
0.00408198
0.00103769
0.00261087
0.00150341
0.00392741
-0.000682146
0.0016035
-0.000158035
0.00129528
0.000680555
0.00152114
0.000132361
0.0032517
0.000537332
-0.000375377
-0.00319759
-0.00797173
0.00120898
0.0133138
-0.000147431
0.00418628
-0.00445557
0.00660848
0.00203185
0.000681695
-0.0033916
0.000794273
0.0013838
0.00121187
0.000944978
0.000489505
0.000671045
0.00250043
0.00012512
0.000654094
0.000771288
0.000240406
0.000204258
0.00224788
0.00198697
-0.000244072
-8.74756e-05
0.00146865
0.00145092
0.000615657
0.000439159
0.00137423
0.00023118
0.00170286
0.000721292
0.000178333
0.00150353
0.000857718
0.00191984
0.000249973
0.000623621
0.000784132
0.0010892
0.00107343
0.00263396
0.0040489
-9.66484e-05
0.000567979
0.000711698
0.0011201
0.00192546
0.00363842
-0.000347351
0.00209637
0.0023788
0.000592501
0.000257962
0.00164489
0.00341721
0.000947098
0.00110103
0.000548565
-0.000508949
0.000583785
-0.000170991
0.00142323
0.00121271
0.00146275
0.00215438
0.00126057
0.00105537
0.00169484
0.0012137
0.00182716
0.00157793
0.00137963
0.00172039
0.0012359
0.0010344
0.00122657
0.000352523
0.00152577
-3.29253e-05
0.00149759
0.00154738
0.00223356
0.00201254
0.0013886
0.00167603
0.00142172
0.00135485
0.00118842
0.000538188
-0.000581806
-0.0010096
0.00114332
0.00274525
0.00160602
0.0029603
-0.00272973
0.00113811
2.77764e-05
-0.00138768
-0.000374473
-0.000683649
-0.0104752
0.000917393
0.00158381
0.000555124
0.00199125
0.00175607
0.00124562
0.00309447
0.00169679
0.00166757
-0.00180514
0.00235461
0.0024127
-0.000987578
-6.02082e-05
0.000848181
0.00157464
0.00323632
0.00152721
0.000973085
0.000157854
0.00167996
0.00189786
0.00295955
0.00202955
0.00136332
0.00233693
-6.35453e-06
0.000174443
-0.00178339
0.00108076
0.00101655
0.000937365
0.000918787
0.00164401
0.00114266
0.00156878
0.0017888
0.000523335
0.00125495
0.00128775
0.00289717
0.00313004
0.00108985
0.00177598
0.00217203
0.00396042
0.00105704
0.00170361
0.00543247
0.010164
0.00245331
0.00288773
0.00165391
0.000894234
0.00103645
0.00353698
0.000871983
0.0026836
0.00106968
0.00031873
0.000640636
0.00186317
0.00230003
0.00207778
0.000601317
0.00146211
0.000915705
0.000854824
0.00129425
-0.000233476
-0.000758608
0.000410155
0.0011126
0.000987293
0.000735117
0.00120587
0.000847279
0.0019865
0.00182856
0.00104893
0.00184312
0.00059615
0.00144514
0.000672199
0.000902176
0.00160319
5.97873e-05
0.00155737
0.00441999
-0.00306068
0.000804659
0.0013228
0.0011566
0.0013269
0.000434776
0.000964699
0.00095663
0.000312817
0.000688531
0.00140759
0.00100248
0.00110991
0.00103191
0.000981881
0.00107874
0.00102867
0.00068371
0.000964443
0.00103965
0.000985279
0.00118906
0.0011006
0.00134359
-0.00233235
0.00256189
0.000805976
-0.000690009
-0.00330862
-0.00295242
0.00182144
0.00131066
0.00134332
0.000827548
-0.000872476
0.00106752
0.00158984
-4.4439e-05
-6.24863e-05
0.00128503
-0.00105041
0.000555112
1.03949e-05
-0.00100545
-0.000130657
-0.000576252
0.00648648
-0.00297013
0.00605682
0.000967964
0.00163909
0.00101816
-0.000281757
0.000831101
0.000896327
0.000581549
0.00141783
0.000419721
0.00104563
0.000925334
0.00100058
2.38718e-05
0.000557224
0.00134443
0.00126722
0.0018708
0.000340889
0.00087289
-0.000422194
0.0017223
0.00186257
-0.000349428
0.00156985
0.000603188
0.000949476
0.000807921
-0.00180996
0.00221207
0.00169652
0.000366236
0.00278884
-0.000449272
0.0316178
0.00808157
-0.000329325
-0.000825182
0.0015042
-0.0106376
0.0142109
0.000758112
0.00107221
0.000337268
-0.00485058
0.00074407
0.000335001
0.00029274
0.000838506
0.00282662
-0.00722505
0.0159487
-0.00828863
0.00548621
0.0416861
0.00156089
0.000662922
0.00185914
0.000753295
-0.00427278
-0.00130059
0.00491216
-0.003421
-0.0176947
0.0470563
0.00460822
0.00131159
0.00101552
0.000750693
0.00102312
-0.0137795
0.000974949
-0.000309219
8.02852e-05
0.000348756
-0.000481081
0.00305025
0.00105639
0.00104975
0.000803651
0.00110062
0.00163989
0.00148902
0.0012406
0.00178695
0.00163832
0.000605713
0.000999628
0.000527339
0.000321614
6.82546e-06
0.000126353
-2.72549e-05
0.000795051
0.00109691
0.00100664
0.00155167
0.000210849
0.00157069
0.000456944
0.00117769
0.00055962
0.00111125
0.00107002
0.000776078
0.000346334
0.00157096
0.000560048
0.000157697
0.000544372
0.00121026
0.00152656
0.00077682
-8.53277e-06
6.74397e-05
2.14518e-05
0.0027693
0.002462
0.00184461
0.00160186
-0.000437014
0.000922787
0.00106286
0.000648482
0.00180175
0.000770889
-9.80634e-05
0.00108675
-0.000106498
0.00217341
-0.000281954
0.000630938
0.000968299
0.000963006
-0.000143431
0.000819499
0.00116311
0.000135442
0.000462198
0.001595
0.00195523
0.00173519
0.00253737
0.000994812
0.00197402
0.00148998
0.00116176
0.000245884
-1.23858e-05
0.000867973
0.000571112
0.000689803
0.000847765
0.000380607
0.000850345
0.00281901
0.00110026
0.00133431
0.00152229
0.00111199
0.000628607
0.000890512
0.00122441
0.000953077
0.000456173
0.0015289
0.00106256
0.000964103
0.00134155
0.000563125
0.000994218
-0.000173737
0.000404222
0.000357933
0.00101281
0.000528143
0.000245256
0.000783632
0.00121319
-0.000473705
0.00223012
0.000951113
0.000366239
0.00065701
0.000977849
0.0013168
0.000528207
0.00115359
0.00155707
0.0015034
0.00147016
0.00116169
0.000940677
-0.000296793
0.00118137
0.00084299
0.000650969
0.00068853
0.00303169
0.00137848
0.000903622
0.00143972
0.00309053
0.0001361
0.000822295
0.000779004
0.00147273
0.00330496
0.00257143
0.000783587
0.000863783
0.000248643
0.00227606
0.000248015
0.000956974
0.000703491
0.000760284
0.000796524
0.000961025
-0.000455657
0.00116964
0.000371816
0.000178759
0.000538299
0.00166498
0.000701562
0.00148923
0.000643725
0.00206267
0.00163535
0.00188355
0.00160586
0.00244685
0.00139233
0.00235285
0.00127432
0.00196065
0.000445078
0.000294778
0.000943985
0.000577799
0.000108245
0.00264127
0.00168754
0.00196307
-0.000158156
0.00242367
0.0029414
7.35844e-05
-0.000818292
0.0018194
0.0010282
0.00310858
0.000822594
0.00150399
0.000489873
8.41115e-05
0.000549857
0.00119075
0.000576109
0.00197388
-0.00144354
-0.000488846
0.000886654
0.000513537
0.00076939
0.000874643
0.00038088
0.00064411
0.000161677
0.000313742
0.00100736
0.000301635
-0.00625764
-0.00138368
-0.000960053
-0.00101929
-0.000337325
0.00110226
0.00109399
1.69562e-06
0.00115455
0.00100661
0.000700661
0.00110429
0.000819233
0.000944749
0.00185838
0.000855363
0.00106655
0.00104861
-0.000355306
0.000346952
0.000136168
-0.00332166
-0.000403769
0.00126132
0.000977657
0.000477357
SCALARS CoVolArea double 1
LOOKUP_TABLE default
248183
63856.7
111006
108064
74896
186114
80298.2
35929.6
94245.7
129591
172309
72238.4
119308
88552.8
118582
205970
53508.3
80964.2
74887.2
98956.5
100511
157370
107442
80551.5
291272
217054
163470
242366
554391
410333
131523
244954
125671
170137
151092
149137
392681
107963
100032
120515
88304.8
162330
168773
108966
229232
112462
131771
135141
59489.4
87842.6
65550.1
99104.9
197512
367195
164900
68334.5
46827.2
147146
206391
79320.7
32837.7
62476.9
106335
170992
192072
128896
154063
13720
126924
142063
95062.8
114141
183562
264422
248563
149542
161427
146661
178340
142984
81462.3
83356.5
84628.6
93139.1
122794
276290
169596
84927.5
141623
288844
171496
152519
215425
119871
163312
152167
224782
78022.7
76710.7
334414
82742.2
43212.1
143198
87459
133564
33599.1
66235.6
78707.3
50153.8
114042
228429
92966.4
140604
176085
160795
179816
142196
82839.4
179276
191899
143225
226922
200139
134267
150205
186697
254041
144407
144947
165881
135930
152553
158128
143124
85795.7
189357
124965
120052
101719
116934
135921
135459
139301
143564
54566.4
48132.6
140266
113057
105205
92843.7
116012
72960.1
209474
75921.7
114824
229156
133437
98525.1
441284
105296
83334.4
178054
260039
211858
393371
120775
105033
117420
148793
112531
99312.8
98631.7
128731
107771
109782
119611
104339
125061
135064
135455
116231
54637.1
139022
84485.6
62457.8
62923.5
61109.1
62816.2
87376.7
140174
124836
120540
285683
373098
187874
178251
78411.1
101795
42993.6
316748
245827
302490
391093
372706
119129
102249
62036.3
61685.8
92932.2
50593
58451
59687.9
98480.4
49754.7
88078.1
92296.9
74707.3
53545.7
181269
186501
139880
130336
49056.6
77922.4
126884
39716.5
48046.2
75530.6
48702.3
58298.4
54829.3
65364.3
109109
197060
152031
140287
134416
82060.9
114176
164283
124159
166598
142230
231137
101531
163722
106791
73735.7
124591
98318.5
112426
24385.7
55587.3
106657
61901.4
33133.1
80249.6
105051
187936
124809
166146
84716.2
79440.1
65089
126012
120645
117966
166074
143832
147592
204150
170648
173597
171356
142991
278836
294107
213302
235383
181913
164209
157323
146531
105109
133444
150972
146717
162120
147234
247476
216090
179942
265541
118255
138437
304761
115359
223470
84898.2
281856
205757
90019.9
87872.3
105558
153165
152766
115131
86999.7
117581
81601.6
78837
72846.7
95001.2
85573.5
93435.2
105567
92078.6
91073.4
199217
398417
57247.6
65157.3
176267
140939
355587
96951.5
101529
230241
134233
286967
106578
88805.1
142443
225548
88731.7
233152
267998
112726
240090
446910
407789
42494.2
148957
149232
165523
118584
151411
179791
233166
197304
220013
215267
208818
190092
144340
154149
173013
162293
157498
121082
107397
263206
171942
181723
80802.9
114176
183514
157299
221655
215180
208217
380609
85282.2
79763.8
221726
99543.4
245550
13867.3
32815.6
282806
89049
231400
23914.5
36650.8
113555
114288
76864.2
330374
173855
293795
368251
200670
433367
42151.2
71487.9
117800
88005.7
24358.3
72427.7
90573
268024
25136.7
41567.6
73159.4
17610.1
97764
16744.6
19930.9
39157
72207.9
81271.7
106491
82958.8
106644
178614
134765
163745
204052
274424
54870.7
143224
74277.7
143357
157984
135083
135020
145262
123830
148165
169317
180972
163147
146695
130571
199626
172530
167179
92438.6
111292
112924
121610
160521
151221
174388
170278
159006
141038
151564
198418
165913
207807
215359
158769
132073
162321
160661
301725
245426
384573
69851.4
117758
162122
137859
184925
144228
165632
144990
152716
171834
370274
195959
297177
119257
153203
175315
206549
215192
317164
163398
144181
244382
183601
121841
130860
117943
105785
153712
120009
142838
138656
210216
269859
136811
139208
124879
134063
135464
108518
66319.3
105650
107746
183027
154216
172970
152088
134704
151718
168828
107288
140961
140540
92862.5
150662
97420.7
118654
114598
120262
107536
167550
173633
127921
109763
113211
53367.1
119870
153445
121728
175269
139244
186658
141947
119414
127441
132427
137996
135211
150912
91547.4
109464
142195
65844.3
68640.2
96709.6
144363
106983
60323.2
134781
72668.4
74087.4
108077
54890.6
111573
153967
132375
126549
90650.2
107571
131923
115530
102203
125833
123404
300190
113965
139942
132440
115750
115422
108793
105510
166254
124753
126782
131303
153381
88571.5
118986
72243.7
131026
143126
197562
211726
259617
282752
257938
111971
116267
137530
102794
77605.3
49636.1
102147
242869
102956
123856
78616.6
128942
131419
251836
312057
233441
146624
200853
124716
202340
208192
90163
123273
97118.6
108938
327794
93835.6
200508
116236
108544
130804
95827.3
743298
483792
208065
218610
126155
120589
380589
127439
161996
140148
88655.5
89241.1
97234
104995
80088.6
107657
143905
245787
121020
262238
226827
104484
110443
114652
111772
SCALARS SignedDistance double 1
LOOKUP_TABLE default
489.093
600.322
343.369
347.5
529.794
709.904
545.341
801.273
530.873
473.403
648.402
354.766
368.339
497.519
547.826
828.393
468.144
462.674
523.094
477.248
436.413
444.806
543.137
554.951
546.451
523.287
557.905
466.95
1114.62
630.414
826.988
923.065
371.994
448.086
351.903
350.806
420.008
411.813
426.694
545.25
467.417
563.188
456.678
442.896
560.44
402.173
384.99
362.886
576.625
520.174
580.708
527.502
456.859
731.713
712.186
525.261
556.574
644.097
754.589
548.524
560.713
466.367
500.705
794.831
678.733
343.93
379.877
611.775
372.455
473.575
427.414
477.262
478.366
494.743
519.5
424.265
421.462
570.825
740.185
557.568
548.559
515.444
521.392
504.752
559.873
857.16
437.086
531.464
515.573
914.429
599.622
395.654
448.05
473.411
442.817
428.863
492.664
444.202
702.134
881.19
725.612
580.633
506.953
1056.53
560.549
639.47
828.687
742.635
622.229
586.371
890.643
553.211
325.908
347.463
356.216
464.058
466.651
454.967
418.233
401.213
474.812
416.77
411.504
428.477
349.857
426.03
410.609
394.806
404.726
395.538
395.929
415.828
477.553
424.069
552.239
456.666
359.566
516.718
516.72
526.95
508.776
536.233
390.081
503.008
481.685
490.984
552.792
514.49
502.956
540.533
350.781
523.712
559.112
572.76
572.037
519.065
596.23
557.744
1221.7
533.209
536.833
573.398
491.512
533.293
489.481
407.594
447.541
405.006
546.172
505.78
481.977
374.228
361.141
351.163
455.083
381.945
455.398
361.406
367.084
367.617
595.182
582.171
608.155
510.665
541.789
558.728
556.981
556.851
515.396
414.309
464.063
471.721
484.95
641.835
619.287
523.765
452.613
478.651
485.002
744.224
650.132
682.685
737.977
846.656
621.357
736.116
563.118
584.417
618.372
509.317
540.295
481.385
688.952
601.065
615.299
607.606
595.652
541.277
792.504
522.492
435.354
563.709
560.052
650.648
624.596
564.463
534.853
441.84
504.804
479.036
488.758
472.981
596.042
780.181
965.453
648.174
710.816
479.99
480.517
731.574
438.686
429.668
406.881
772.964
458.724
441.456
448.88
471.29
377.307
369.416
352.065
689.505
544.528
440.386
540.144
600.626
443.621
414.196
524.005
466.451
508.833
424.483
436.867
462.348
442.27
422.698
413.93
284.075
376.772
324.148
440.711
432.826
429.305
438.417
386.256
686.833
544.863
427.215
504.077
457.585
477.193
462.51
411.622
399.024
367.122
404.371
450.42
404.575
438.569
493.5
443.679
372.727
775.984
683.294
753.624
877.66
573.439
612.951
553.66
583.236
578.939
546.38
550.797
561.566
579.438
596.479
492.774
497.573
483.789
536.972
519.242
529.474
522.123
511.946
520.286
562.59
539.301
547.284
614.486
707.091
569.398
579.741
640.597
769.26
702.836
389.522
422.988
579.028
442.669
536.916
423.775
494.789
478.379
517.865
541.647
595.887
509.936
526.316
633.659
603.291
556.787
601.333
674.863
747.774
459.765
388.656
450.432
474.751
392.318
400.991
403.085
555.304
483.87
423.274
453.303
441.075
465.75
457.82
338.77
393.26
340.226
451.214
487.752
548.615
534.465
491.777
547.276
415.131
424.32
416.719
585.695
735.461
590.997
589.225
751.246
758.156
969.523
798.221
684.494
649.569
587.175
758.047
594.165
579.714
525.868
564.97
560.011
941.647
564.474
550.864
630.684
571.358
1223.54
680.129
783.701
924.712
792.614
981.936
526.7
584.998
713.383
709.821
636.361
603.793
599.524
792.808
701.815
955.039
584.117
514.355
554.418
567.561
542.293
924.916
630.776
657.161
571.127
595.265
830.905
623.795
669.583
657.977
350.544
337.852
366.869
344.986
332.093
321.961
343.905
369.481
367.176
465.105
493.166
495.116
461.557
471.351
456.623
399.509
441.002
424.109
487.573
432.525
476.675
395.203
396.422
366.068
444.603
427.295
439.893
410.672
445.934
418.933
408.177
405.733
390.459
404.584
415.98
414.899
413.92
485.199
404.161
359.926
339.66
399.116
379.436
365.679
413.211
374.395
358.53
416.641
490.831
417.77
381.564
410.881
388.146
389.804
409.887
435.609
387.096
378.634
434.15
417.332
379.971
380.873
397.012
372.764
400.467
373.767
383.476
385.995
415.015
417.49
487.545
499.835
514.36
446.062
462.089
472.068
501.681
488.276
429.158
421.195
386.491
407.956
400.61
354.286
420.32
422.816
401.82
420.936
457.552
550.502
496.831
540.357
539.956
538.38
503.525
475.421
511.814
516.626
539.491
548.363
536.873
512.759
529.862
512.04
514.264
434.744
500.141
492.149
344.414
389.545
352.689
336.526
366.679
513.734
526.112
496.871
510.157
555.522
488.636
493.137
487.368
498.865
408.628
472.024
556.104
484.413
491.181
449.308
492.173
426.159
449.681
464.953
485.59
524.189
520.982
484.99
522.555
507.345
490.771
483.384
602.947
549.943
577.1
577.292
553.823
494.026
527.843
513.425
351.082
301.457
316.22
385.941
469.327
530.833
556.969
585.382
548.437
394.762
452.01
524.57
401.758
448.799
586.919
409.948
517.559
487.164
580.261
529.59
545.338
596.203
646.958
360.136
571.465
504.321
464.702
477.553
533.915
545.058
567.848
481.514
498.77
571.798
631.594
662.865
558.726
575.921
570.324
580.664
629.727
562.314
665.688
567.23
540.701
555.013
914.56
877.723
1014.99
868.008
1232.97
576.637
686.895
620.455
495.62
495.681
501.271
524.534
548.264
534.672
553.867
543.189
522.373
509.89
829.336
571.028
594.386
915.303
637.132
538.916
554.727
558.481
