# vtk DataFile Version 4.2
vtk output
ASCII
DATASET POLYDATA
POINTS 642 double
-2304.68 5711.62 -639.893
108.694 5627.77 -580.512
-2319.9 636.476 -30.7625
1323.98 658.035 77.8965
-672.419 1407.1 2169.4
-1447.33 4463.19 1534.92
-497.771 1813.88 -1791.64
-1413.04 5155.63 -2358.05
1432.54 3059.63 -910.884
1659.22 2969.82 1152.43
-2739.96 4122.28 -1237.98
-3267.46 3553.33 1579.46
-3147.4 4879.84 929.244
-2320.2 4227.72 2023.3
-1849.47 5215.4 1166.86
-67.3765 5216.07 276.763
-680.48 6166.04 -304.295
-69.0688 5747.46 -1208.51
-1956.18 6030.21 -1821.73
-2100.29 4944.33 -2419
-3005.27 5268.13 -1373.57
-3430.85 3498.51 232.966
703.007 3691.82 1619.76
1234.05 4060.1 695.156
-1949.67 2179.9 1823.77
-461.542 2989.79 2183.41
-2676.88 1634.39 -577.292
-2788.3 1686.28 912.505
-1027.22 3958.89 -1661.82
-1729.48 2656.52 -1471.86
946.479 4468.97 -491.721
260.124 4608.5 -1142.13
2127.7 1585.12 857.517
805.225 2280.21 1997.3
507.137 740.202 1503.25
-1731.28 689.22 1571.16
-531.928 561.918 -58.7913
-1426.67 877.669 -1322.89
407.907 894.413 -1243.46
659.36 2245.09 -1536.74
1964.43 1701.72 -562.077
1982.58 2608.28 143.954
-2781.1 5215.74 478.07
-2524.74 5168.92 1136.57
-1925.06 5343.25 649.159
-2851.88 3936.08 1923.58
-2812.03 4607.1 1653.66
-3287.75 4231.22 1332.57
-1710.39 4935.71 1423.8
-2155.61 4815.39 1662.73
-1984.23 4386.14 1880.16
-923.539 5937.25 105.042
-1158.7 6077.14 -384.835
-441.064 4582.57 1083.83
-1125.35 5611.67 564.187
-250.52 5980.97 -451.635
-528.89 5903.43 11.372
-199.34 5648.43 -89.6815
-1336.48 6046.63 -1062.16
-2143.5 6022.02 -1474.11
115.951 5772.73 -844.267
-317.043 6109.44 -844.65
-1709.4 5624.94 -2178.49
-952.798 5877.49 -1564.59
-556.922 5489.9 -1650.05
-2606.25 5878.36 -1672.96
-2725.34 5648.44 -1062.92
-1833.36 5139.96 -2518.6
-2124.6 5580.31 -2333.91
-2926.35 4939.34 -1479.86
-2771.12 5229.01 -1971.51
-2505.82 4535.88 -2023.88
-3089 5001.96 -56.1151
-3183.9 3531.13 -451.044
-3115.06 4431 -463.339
-3408.39 4306.84 571.442
-3408.85 3544.67 925.902
710.606 4426.25 805.662
606.12 4680.6 133.516
158.497 3939.6 1609.43
462.166 4259.98 1271.83
1498.85 3619.11 947.151
1065.39 3948.75 1187.46
1195.06 3415.77 1485.31
-2051.93 3765.47 2125.16
-886.409 3602.04 2030.93
-2813.57 3248.46 1825.99
-2286.34 3582.52 2183.69
-380.313 2363.43 2296.5
-1377.9 3117.72 2194.41
-1294.5 1460.46 2025.27
-3380.31 2635.61 470.876
-3116.33 2809.33 1190.23
-2868.68 2616.17 -869.371
-3219.75 2617.23 -232.473
-2653.25 1002.43 528.767
-2870.29 1603.04 22.3206
-2679.86 1010.12 -423.853
-2057.43 4242.07 -2146.01
-2064.89 3414.68 -1548.74
-1471.99 5107.51 -2276.52
-1946.62 4740.76 -2413.7
-1038.85 1921.46 -1711.04
-1560.3 3323.46 -1798.88
-505.96 2380.45 -1804.4
58.3291 5236.18 -1401.36
-594.842 5214.8 -1747.94
466.853 5321.61 -823.281
346.371 5368.57 -980.061
993.715 3374.99 -1139.65
274.178 4501.53 -932.691
1371.11 3554.88 -683.22
1881.57 1035.45 515.406
1509.13 1097.6 1158.82
1022.29 638.69 789.498
1339.16 2610.32 1587.77
1644.54 1777.68 1353.42
2084.38 2156.69 968.23
-147.914 1097.49 1960.35
723.29 1401.05 1821.85
205.5 1870.6 2178.97
154.933 567.123 993.211
626.359 569.756 26.4575
-1019.34 1041.53 2106.91
-617.914 642.935 1732.37
-1677.51 554.961 92.0914
-1299.94 570.576 973.43
-2048.41 583.118 977.485
91.6219 575.363 -818.169
865.626 754.83 -641.327
-2004.73 716.885 -624.482
-1147.55 564.939 -869.973
-65.7826 1286.67 -1518.76
-614.082 835.124 -1344.66
-1095.58 1186.21 -1525.04
1236.86 1264.39 -871.856
1788.5 1107.46 -313.519
70.4153 2037.06 -1742.68
621.046 1551.84 -1493.59
1841.36 2060.23 -610.673
1298.06 1932.27 -1095.9
1092.09 2675.69 -1281.31
2212.74 1552.36 103.547
1816.76 2877.06 -393.754
2199.31 2107.12 -172.488
2320.17 2142.03 432.53
1950.08 2681.83 622.373
159.573 2635.63 2215.82
781.687 3004.81 1926.04
160.389 3253.73 2045.22
-2420.95 962.861 1396.01
-1949.18 1249.03 1934.54
-2391.85 1710.16 1497.91
-1526.99 1303.55 -1446.37
-2259.91 1122.49 -873.22
-2335.86 2070.62 -1080.26
615.688 2982.85 -1470.71
-8.29353 2737.95 -1803.07
-604.856 3835.25 -1905.57
1656 3588.96 418.733
1616.4 3569.47 -218.557
1242.65 4078.01 38.7906
-2526.65 5353.94 -61.3949
-2467.71 5308.25 620.965
-2022.11 5500.25 104.583
-2857.49 5066.64 1051.99
-2676.88 5215.05 855.397
-2993.15 5079.02 737.257
-1937.4 5313.63 951.156
-2335.94 5282.56 949.016
-2179.7 5213.79 1166.34
-3097.21 3731.94 1774.99
-3117.51 4062.57 1681.46
-3313.18 3852.08 1498.36
-2579.46 4420.49 1900.04
-2845.08 4281.57 1833.5
-2585.25 4118.84 2023.16
-3242.15 4600.68 1127.72
-3076.01 4450.99 1510.73
-3014.49 4765.01 1311.41
-1680.67 4758.58 1527.61
-1854.05 4691.18 1665.38
-1813.71 4504.94 1729.2
-2003.2 5051.11 1421.13
-1920.91 4890.96 1555.42
-1775.02 5089.71 1307.33
-2129.27 4304.45 1977.74
-2061.48 4608.43 1794.67
-2255.41 4542.68 1875.99
-2692.19 4941.92 1409.94
-2471.18 4748.24 1700.63
-2340.57 5019.51 1444.59
-1406.11 5818.02 7.04893
-1723.01 5811.32 -611.392
-1372.75 5441.39 592.296
-1384.53 5678.69 280.719
-861.555 6170.35 -271.191
-970.794 6054.65 -71.8962
-814.785 6101.49 -105.64
-1039.27 4372.86 1227.84
-1450.89 4912.48 1261.23
-649.724 5509.17 342.534
-1051.89 5025.53 759.16
-215.589 4798.1 743.249
-1545.6 5088.79 1143.52
-1417.29 5247.32 990.812
-60.2354 5826.54 -527.73
-207.232 5825.4 -239.506
-35.8014 5653.76 -330.154
-604.696 6058.43 -131.159
-408.765 5964.26 -166.027
-488.919 6108.19 -386.273
-271.604 5504.59 89.6904
-348.795 5791.04 -29.9487
-471.767 5734.92 109.893
-917.255 5724.68 309.878
-690.395 5780.71 202.731
-735.969 5959.87 68.3705
-1727.99 5963.01 -1171.71
-2234.79 5879.02 -1155.83
-770.963 6177.33 -548.702
-1274.45 6068.21 -727.634
-2069.75 6062.59 -1611.81
-1880.68 5989.88 -1418.28
-1865.19 6008.18 -1565.42
122.589 5721.99 -785.521
-47.248 5901.35 -714.472
-179.415 5974.55 -1028.36
-94.0762 5969.46 -849.316
49.1172 5797.61 -998.333
-279.847 6068.96 -675.792
-468.859 6154.85 -619.265
-1577.76 5325.91 -2322.42
-1298.55 5554.81 -1974.06
-1102.98 5197.99 -2041.73
-1644.8 5919.38 -1791.11
-1462 5780.82 -1891.32
-1837.23 5862.37 -2019.16
-215.131 5647.44 -1394.18
-764.293 5743.67 -1636.36
-375.32 5875.89 -1309.06
-592.947 6171.44 -873.624
-472.63 6071.45 -1115.82
-1118.65 5991.71 -1346.79
-2448.69 5893.72 -1296.9
-2506.85 5724.13 -856.121
-2236.45 6053.26 -1778.25
-2360.32 6020.89 -1543.23
-2901.01 5481.93 -1236.47
-2688.47 5792.5 -1420.42
-2874.11 5589.1 -1530.52
-1676.33 5162.72 -2493.05
-1764.09 5315.87 -2453.5
-2141.61 5236.23 -2438.74
-1896.2 5298.34 -2536.31
-1916.13 5099.63 -2538.31
-1895.84 5638.46 -2290.65
-2034.21 5880.2 -2115.46
-2775.28 4488.47 -1503.03
-2761.19 4749.19 -1755.49
-2608.37 4414.24 -1793.31
-2970.11 5261.91 -1682.04
-2901.66 5122.26 -1720.31
-3001.48 5120.03 -1452.11
-2344.81 4750.49 -2236.29
-2653.57 4995.89 -1999.14
-2469.12 5122.6 -2207.57
-2412.54 5789.25 -2063.5
-2514.09 5414.12 -2218.53
-2773.79 5536.61 -1899.51
-2720.51 5371.54 -384.751
-2996.62 5182.49 -839.034
-2900.62 5286.99 -626.538
-2977.3 5117.23 201.404
-3189.41 4925.93 533.267
-2832.26 3664.81 -909.422
-2911.24 4347.52 -961.697
-3381.19 3923.28 4.59817
-3190.32 3998.73 -455.138
-3347.1 3478.33 -144.746
-2989.54 4797.21 -1056.08
-3018.7 4972.79 -1058.93
-3395.54 3881.13 1205.4
-3383.78 3550.07 1326.19
-3351.3 4635.12 787.48
-3389.31 4309.7 979.007
-3503.23 3534.79 505.142
-3466.37 3910.13 726.065
-3493.54 3915.83 397.213
-3152.56 4771.06 -254.749
-3399.63 4325.64 189.652
-3353.89 4673.4 353.111
217.954 5187.98 -212.517
219.109 5346.75 -422.902
230.309 4702.79 754.205
-19.777 4871.89 383.476
1042.8 4260.21 556.861
753.514 4494.07 518.727
980.561 4268.68 757.567
-302.432 4065.63 1550.32
6.43232 4232.83 1402.39
594.342 4017.41 1439.36
345.159 4133.8 1431.57
449.699 3808.96 1621.74
194.617 4367.49 1238.6
290.141 4506.79 1023.77
1581.59 3363.97 1068.2
1381.89 3532.66 1226.33
1408.01 3270.26 1364.74
1175 4012.16 945.425
1292.63 3795.03 1082.15
1387.77 3842.82 820.546
954.023 3557.67 1569.86
1146.16 3702.25 1337.75
913.392 3847.53 1407.68
601.218 4360.42 1053.55
768.35 4128.02 1246.88
901.399 4208.18 1012.8
-1805.59 4048.79 1941.59
-1160.02 4098.2 1485.78
-2104.08 3965.11 2098.02
-1981.58 4036.64 2023.9
-563.743 3377.95 2045.78
-1559.69 3939.77 1984.26
-1355.25 3522.98 1801.82
-3071.62 3412.59 1740.4
-2882.87 3573.79 1904.71
-2244.09 3278.71 2079.97
-2567.99 3443.23 2024.93
-2384.26 2918.78 1813.84
-2593.66 3749.51 2060.09
-2316.98 3864.51 2138.68
-542.896 1792.46 2176.19
-772.993 1806.74 2144.2
-882.465 1412.04 2170.51
-972.865 2891.26 2171.64
-707.158 2535.15 2210.54
-379.536 2646.16 2234.08
-1707.93 1587.79 1871.03
-1232.43 2083.65 2032.64
-1760.57 2699.5 1956.18
-2093.41 3653 2198.87
-1970.98 3498.22 2182.96
-1899.68 3455.64 2204.48
-3331.8 3229.5 1151.55
-3256.24 3295.54 1449.4
-3419.81 3054.56 344.122
-3370.73 3126.84 675.807
-3021.69 2210.5 1024.05
-3281.57 2685.93 823.698
-3184.03 2282.2 658.032
-2794.07 3056.88 -968.826
-3006.16 2982.78 -692.135
-3019.99 2215.34 -480.231
-3051.82 2581.45 -591.08
-2863.67 2252.54 -742.962
-3200.77 3019.61 -322.124
-3344.61 3019.9 -8.20644
-2515.31 778.238 244.236
-2692.32 983.506 -37.5729
-2523.1 784.21 -254.116
-2907.37 1663.13 452.75
-2781.72 1207.34 223.35
-2658.08 1233.83 770.032
-2671.3 1193.28 -504.207
-2767.37 1175.09 -237.589
-2755.22 1550.73 -316.494
-3365.89 2618.97 146.08
-3141.85 2206.47 -97.4645
-3231.43 2253.06 287.264
-2346.26 4253.67 -1974.3
-2460.1 3840.14 -1217.4
-2095.1 4529.95 -2305.4
-2254.95 4353.26 -2130.93
-1962.77 3155.32 -1534.3
-2140.76 4053.42 -1980.02
-1996.97 3816 -1872.68
-1425.4 5148.13 -2366.77
-1713 5150.06 -2513.32
-1766.81 4593.96 -2252.88
-1763.18 4937.88 -2365.48
-1465.46 4719.44 -2164.29
-1912.1 5110.32 -2553.31
-1929.74 4868.42 -2451.65
-772.624 1873.22 -1764.58
-762.431 2214.73 -1809.05
-487.478 2064.05 -1803.98
-1408.62 3165.85 -1840.55
-1022.17 2499.42 -1780.05
-1286.09 2083.05 -1603.15
-546.692 2905.34 -1818.4
-896.759 2700.01 -1815.53
-1625.15 3509.33 -1932.51
-1922.27 4440.32 -2301.2
-1898 4289.56 -2283.03
-1818.38 4060.32 -2170.99
-537.488 5205.29 -1720.25
-1129.09 5166.46 -2145.25
[...]
POINT_DATA 642
SCALARS Mean_Curvature double 1
LOOKUP_TABLE default
0.000579049
0.000764589
0.00167702
0.00171055
0.000867524
0.00313896
0.00184877
-0.018722
0.0011437
0.000910663
-0.000240585
0.00248799
0.00150333
0.00121706
0.00136173
-0.00497454
0.00317491
0.00149472
0.0030746
0.00112362
0.00209699
1.39836e-05
0.000799973
0.00122555
0.00032245
0.000308862
0.000365571
0.000122406
-0.00243464
-0.000269264
0.00594618
-0.00609923
0.00188891
0.00080758
0.00165313
0.00168888
2.03614e-05
0.00182145
0.00214036
0.000378039
0.00214163
-0.000809854
0.000947136
0.00123792
-0.00121669
0.00118438
0.00131778
0.00107883
0.00144062
0.00128064
0.000869789
0.00175776
0.0010185
0.000701162
0.00592089
0.00133417
0.00165065
0.000621731
0.000536862
0.00129786
0.00547516
0.00284507
0.000329874
0.00134126
0.000460139
0.00236191
0.00113389
-0.00755927
0.00199323
0.000216428
0.00233549
0.00154693
0.00120811
0.000506557
-0.000683646
8.44662e-05
-3.95219e-05
0.000322546
-0.000867409
0.00071137
0.00112682
0.00099544
0.0011506
0.000909572
-0.00139171
0.00307571
0.00104802
0.00267264
0.00151352
0.00312307
-0.000706067
0.00162836
-0.00017061
0.00131016
0.000680481
0.00158168
0.000146387
0.00337349
0.000227094
-0.000388399
-0.00319399
-0.0119789
0.00125189
0.0126208
-0.000147778
0.00436849
-0.00608455
0.00696622
0.00189127
0.000681398
-0.0036678
0.000800491
0.00140042
0.00123768
0.000967639
0.000493115
0.000649309
0.0025445
0.000118318
0.000664408
0.000762602
0.000231055
0.000200369
0.00231071
0.00203479
-0.000255248
-8.67619e-05
0.00147752
0.00147228
0.000626019
0.000442453
0.00137676
0.000234344
0.00174747
0.000672676
0.000173028
0.00153105
0.000877571
0.00194633
0.000245574
0.000629542
0.000793428
0.0010896
0.00111273
0.00268325
0.00412947
-0.000130696
0.000561335
0.00071478
0.00113495
0.0019825
0.00371698
-0.000357795
0.00208493
0.00240962
0.0006038
0.000248921
0.00169248
-0.00196152
0.000953992
0.00111013
0.000578276
-0.000524904
0.000560348
-0.000165093
0.00144152
0.00123428
0.00147944
0.00221314
0.00126222
0.00107589
0.00172158
0.00122676
0.00187283
0.00159162
0.00141024
0.00174084
0.00125168
0.00104229
0.00124532
0.000367807
0.00154569
-4.38097e-05
0.00153289
0.00158095
0.00243399
0.00203113
0.00139773
0.00171133
0.00144269
0.00136512
0.00119745
0.000545382
-0.000584504
-0.00123393
0.00117735
0.00280159
0.00164898
0.00302901
-0.00276838
0.00114592
-6.33701e-05
-0.00143856
-0.000419998
-0.00279661
0.00957972
0.000921575
0.00161277
0.000543547
0.00201647
0.00178839
0.00126318
0.00160641
0.00173113
0.00186831
-0.00268265
0.00259603
0.00245463
-0.00103855
-8.40698e-05
0.000863323
0.00162717
0.00320868
0.0015669
0.000977423
6.0792e-05
0.0016918
0.0019526
0.00303237
0.00213669
0.00136762
0.00238756
7.48773e-05
0.000181121
-0.00233253
0.00110575
0.001042
0.000939682
0.000923765
0.00170584
0.00116038
0.00158807
0.00183458
0.000528418
0.00126981
0.00129487
0.00299323
0.00317587
0.00111371
0.00180484
0.00221294
0.00406181
0.00108543
0.00170956
0.00555157
-0.000530519
0.00248761
0.00295284
0.00175796
0.000908321
0.00104551
0.00362628
0.000853187
0.00271019
0.00109905
0.000327885
0.000620459
0.00191536
0.00233886
0.00213331
0.000620775
0.00150852
0.00093467
0.000873816
0.00130995
-0.000231816
-0.000767564
0.000418666
0.00113566
0.000998569
0.000749406
0.00122831
0.000834579
0.00200559
0.00186487
0.00104947
0.00186756
0.000612222
0.00145487
0.000673932
0.000895615
0.00164419
4.29984e-05
0.00160137
0.00389187
-0.00310843
0.000808637
0.00132917
0.00118136
0.00136259
0.000431741
0.000970209
0.000970645
0.000301798
0.000690796
0.001634
0.00101042
0.00112675
0.00104468
0.000987979
0.0010896
0.00104636
0.000683296
0.000973145
0.00105723
0.000993592
0.00120562
0.00111026
-0.00215281
-0.00236385
0.00258902
0.000864907
-0.000361751
0.00520665
-0.00299997
0.00185204
0.00130463
0.00133761
0.000844436
-0.0009011
0.0010878
0.00165014
-3.38788e-05
-5.83155e-05
0.00126496
-0.000731408
0.000547753
-8.14223e-06
-0.00103468
-0.000135693
-0.000597017
0.00659203
-0.00282809
0.00496632
0.000968658
0.00167832
0.00103623
-0.000312106
0.000842964
0.000917278
0.000583047
0.0014524
0.000425912
0.00106352
0.000929993
0.00101867
1.85905e-05
0.000556408
0.00136637
0.00130546
0.00190228
0.000350535
0.000858197
-0.000494258
0.00168434
0.00185563
-0.000375348
0.00159064
0.000606938
0.000954741
0.000818699
-0.00182413
0.00212971
0.00171881
0.000401757
0.00294283
-0.000662146
-0.0439824
0.00870468
-0.000475373
-0.00104029
0.00152389
0.0117726
-0.00586868
0.000766418
0.00106924
0.000318166
0.00524209
0.000376525
0.000364927
0.000280522
0.000776376
0.00337915
-0.0105978
0.0179854
-0.00910515
0.00498533
-0.0481891
0.00161064
0.000732088
0.00222892
-0.00299295
-0.00463121
-0.00149689
0.0042934
-0.00371014
-0.0170007
0.0558224
0.00512897
0.00135308
0.00102709
0.000756926
0.00103455
-0.0134088
0.000979219
-0.000535882
8.97263e-05
0.000341286
-0.000490962
0.00315363
0.000996561
0.000744463
0.000799289
0.00111378
0.00166008
0.0015154
0.00125107
0.00182178
0.00168036
0.000599633
0.00102101
0.000537853
0.000306763
-9.62527e-06
0.000124953
-2.78169e-05
0.000804593
0.00111584
0.00102131
0.00155568
0.000193585
0.00160864
0.000438657
0.00117902
0.00055981
0.00113476
0.0010887
0.000779945
0.000343978
0.00159078
0.000559276
0.000142046
0.000529258
0.00120438
0.00154123
0.000763748
-9.03356e-06
6.78544e-05
2.24716e-05
0.00281163
0.00252008
0.00189667
0.0016303
-0.000438271
0.00093488
0.00108652
0.00062829
0.00184938
0.000776843
-9.51645e-05
0.00105979
-0.000104949
0.00218592
-0.000302906
0.000623628
0.000979538
0.000951659
-0.000156141
0.00083785
0.00117711
0.000128447
0.00045003
0.00162853
0.00199751
0.00176056
0.00257183
0.0010062
0.00201485
0.00152344
0.00118482
0.000237279
-1.65713e-05
0.000889546
0.000563176
0.000717572
0.000863221
0.000363778
0.000833072
0.00288846
0.00111592
0.00136055
0.00154318
0.00113725
0.000640922
0.000891716
0.0012373
0.000957428
0.00045972
0.00155024
0.00107073
0.000976941
0.00134621
0.000574474
0.000985323
-0.000197413
0.000407047
0.000350887
0.00100795
0.000539933
0.000247894
0.000787136
0.00118465
-0.000493181
0.00223943
0.000971803
0.000368782
0.000663834
0.00100286
0.00132775
0.000533664
0.00116471
0.00159294
0.00152798
0.00149198
0.00117009
0.000951598
-0.000315799
0.00120447
0.0008735
0.000659369
0.000678218
0.00308588
0.00142094
0.00094347
0.00147538
0.00314667
0.000130407
0.000819702
0.000760884
0.00149168
0.00335368
0.00263782
0.00081273
0.000876705
0.000235214
0.00229311
0.000246312
0.000967451
0.000710003
0.000761212
0.000798037
0.000964706
-0.000468472
0.00118667
0.000329901
0.000166387
0.000538913
0.0016954
0.00069406
0.00151415
0.000655324
0.0021143
0.00166894
0.00193333
0.00161324
0.00249486
0.00141044
0.00234174
0.00132235
0.00200488
0.000445351
0.000306082
0.000965849
0.000591318
0.000110819
0.00272348
0.0016793
0.00196382
-0.000166463
0.00248226
0.00300956
5.6416e-05
-0.000838648
0.00186262
0.000996793
0.00321619
0.000857428
0.0015713
0.000497512
9.02959e-05
0.000534681
0.00121456
0.000591798
0.0019789
-0.00148947
-0.000506202
0.000892638
0.000504987
0.000769828
0.000894785
0.000419753
0.000631431
0.000150679
0.000304374
0.00102601
0.000300874
-0.00371906
-0.00142745
-0.000995308
-0.00120854
0.00879856
0.00112084
0.00141045
-6.87838e-06
0.00116868
0.00102783
0.000706125
0.00111352
0.000816754
0.000947037
0.00189836
0.00086021
0.00107533
0.00106173
-0.000451144
0.000339248
0.000103044
-0.0036076
2.71817e-05
0.00127189
0.000989325
0.00046987
SCALARS CoVolArea double 1
LOOKUP_TABLE default
248153
63614.6
109403
106619
73926.7
186117
79000.1
34127.8
92988.9
128262
171502
70706.3
117359
86558.1
116465
205773
51706.6
79360.7
72854.9
95465.5
98224.2
155833
106239
79273.8
290145
217733
161802
241150
559077
408693
125639
247884
123555
168576
148917
147031
392662
105678
98242
119449
86279.2
161718
167159
107111
228595
110713
129724
133378
58404.7
86031.7
64668.3
97514
196042
368720
166584
66951.4
45534.8
147910
204324
78303.1
31133.7
60560.3
105409
168196
190383
126060
152185
13570.2
123802
141231
92943.1
112345
180795
263828
247358
147872
160157
145486
176595
141990
80077.9
81958.6
83178.9
91820.2
122653
274760
168404
82937.4
140171
284352
171967
150571
213896
118169
161715
150403
223346
75867.9
76403.3
334854
82571.7
44049.7
141858
93741.6
132863
32262
66316
75624
49027.4
112817
232918
91860.9
138806
174153
159080
178614
140871
81360
177763
190517
141716
225911
199251
131669
147948
185805
253383
142537
142952
164049
134156
150615
157166
141096
84548.5
187895
123174
118831
100055
116355
134617
134033
137084
141755
53022.1
46255.4
139047
111498
103779
91696.1
113630
70589.2
208170
74952
112800
228630
132505
96876.7
436637
103741
81866.6
177627
259252
211456
394412
118823
103442
115690
147031
111223
97572.3
96853.8
126950
105949
107693
117754
102433
123304
133330
133503
115528
53459.1
139241
82744.7
60940.4
61653.7
59683.2
61320.5
85474.7
137980
122620
118510
284750
373959
186446
176079
76467.7
99780.8
41317.6
317982
247273
304625
394367
375452
120403
102610
61019.4
60445.5
92044.7
49010.1
57006.7
58189.3
97310.5
48778.9
87089.9
92054.3
73216
51942.4
180390
186467
137642
127537
47422.8
75906.1
125169
39016.8
46699
73624.6
46901
56389.6
53340.8
63485.2
108426
196677
148410
138104
132563
80593.7
112627
161983
122031
164123
139622
228487
99947.2
162071
103751
71589.1
122639
96385.8
109923
23453.6
54280.1
103345
59747.1
31344.5
78108.7
102350
186296
123447
165685
82253.6
78079.7
63462.3
124214
119199
116298
162807
141051
144457
202142
167867
171212
169251
140852
277207
294032
211912
233969
180649
162799
155308
144959
103464
131486
149373
145214
160642
145512
245359
214536
177689
267420
117368
135552
308051
114183
224308
83467.2
281989
204877
88666.8
86587
104528
151855
150981
113525
85611
116041
80191.8
77536.7
71597.8
93804.4
84277.2
92017.3
103766
90475.2
89497
201583
398349
55567.5
64335.1
176405
144651
359792
95311.6
99930.6
229479
132752
286361
104661
86525.4
141235
225234
87681.2
234455
266361
111582
241025
445171
404834
40414.7
146689
147842
164161
116915
149609
178514
231670
195866
218337
214138
207678
188547
142805
152236
171856
160858
155499
118997
105286
262017
170673
180870
79221.5
112555
182342
155203
219935
213118
207884
384069
83178.8
78053.2
219794
97219.5
244038
12386.9
31501.5
283774
90096.1
233257
24165
34561.5
112232
113038
75858.7
333624
173722
292761
366459
202800
435030
42007.7
68398.9
120583
83086.6
18854.5
70589.7
89021.2
270665
23789.3
41717.8
72444.3
16325.9
95624.2
15962.7
15705.7
37449.9
70237.9
79970.1
105207
81623.1
108261
179111
133445
160922
204812
274086
53037.5
143907
73915.4
141638
156264
133384
132863
143443
121888
146202
167545
179021
161854
145646
129243
198490
171586
165867
90580.8
109994
111007
120116
158941
150031
172655
168769
157307
139594
150025
197115
163844
206387
213600
157506
130562
160209
159185
301423
244862
384600
68002.2
115672
159827
135676
182872
142303
163295
143423
151095
169969
370147
195019
296884
117467
151982
173718
204527
213409
316582
161702
142519
243337
182333
119944
128895
115889
104020
152299
117884
140906
136669
209271
269011
135230
138042
123498
132206
134118
107305
64420.6
103990
105709
180793
151860
170572
150475
133015
149974
167263
105416
139411
138808
91394.7
149395
96142.7
117680
113629
119245
105846
166370
172741
126481
108195
112475
52157.4
118576
152440
120404
173234
137286
184829
140137
117070
125517
130541
135751
133672
149930
90431.8
108146
140639
64940.2
66608.7
95312.3
142695
104608
58556.8
134168
71550.6
73209.7
105499
52942.8
108897
152327
130731
125109
89150.7
106228
130445
114291
100940
124402
121732
298362
112605
138435
131808
114627
113598
107245
103800
164295
122325
124734
129477
151646
86347.3
117825
70901.5
128237
140585
195833
210103
258019
281794
256962
109119
114324
135351
101657
75116.4
48289.6
101493
243793
100877
122638
76461.3
126655
128547
251765
312480
232202
144853
199568
123007
202529
208568
88822.3
122094
95886.9
107822
329881
92802.4
201571
115254
107201
129433
97234.4
744300
487232
208909
219379
124617
117582
378816
125862
160598
138791
87230.7
88019.5
95801.7
102612
78908.6
106032
142302
245851
120134
263482
224644
100898
108668
113357
110583
SCALARS SignedDistance double 1
LOOKUP_TABLE default
477.078
582.613
332.137
336.342
515.794
690.369
529.641
787.469
514.016
459.414
631.702
343.705
356.463
482.796
532.216
824.784
453.722
448.041
511.41
465.363
424.117
431.965
527.433
538.501
530.903
507.493
545.953
454.949
1102.17
614.67
807.304
922.058
360.869
434.475
341.065
339.954
407.373
399.461
414.451
529.579
453.965
549.451
442.847
429.309
545.996
390.284
372.849
351.723
558.515
504.795
563.122
511.954
443.408
714.145
711.41
509.436
538.751
626.894
743.989
534.403
544.167
452.742
487.008
787.176
667.842
334.584
367.601
600.28
362.311
459.656
414.912
462.527
466.024
480.087
505.867
411.943
409.322
552.646
724.696
540.62
530.848
499.759
504.67
489.382
542.395
836.84
423.682
519.05
500.986
899.835
583.898
384.298
435.874
458.192
429.936
420.018
480.65
435.554
688.243
869.339
711.063
569.46
490.989
1032.27
543.626
621.145
813.957
736.062
609.137
568.364
874.345
536.403
315.493
336.51
344.641
449.883
453.031
440.849
407.369
388.584
461.452
404.471
399.196
418.041
338.372
413.354
398.34
384.169
393.012
383.478
383.975
403.79
463.303
411.834
536.79
443.619
348.717
500.325
503.203
511.612
493.421
519.934
378.783
487.619
466.899
476.782
538.427
499.473
487.95
524.429
341.832
509.965
547.26
555.484
558.566
503.754
579.268
541.574
1201.52
517.166
520.04
556.198
477.701
518.416
474.494
395.896
434.77
393.512
530.79
491.785
467.467
362.829
350.086
339.598
442.19
370.694
442.246
350.402
355.472
355.979
577.544
564.579
590.29
495.35
525.655
541.589
540.797
540.863
500.281
402.008
450.503
457.661
470.787
631.01
604.606
508.326
438.878
463.733
470.157
725.408
632.528
663.599
719.667
833.069
603.482
735.897
546.559
567.561
600.792
492.983
523.911
466.167
670.68
583.099
599.131
593.536
578.437
525.005
784.295
508.667
422.357
551.286
545.546
637.085
610.519
547.496
518.141
427.726
490.218
466.358
473.572
458.968
587.267
771.051
958.318
637.296
701.784
467.365
465.566
724.548
425.027
416.792
393.698
764.24
446.681
428.882
439.7
459.79
366.159
358.029
341.159
675.875
534.471
429.35
529.767
583.975
430.355
402.89
508.447
453.876
493.883
413.186
423.101
448.779
428.705
410.002
401.12
274.622
366.227
314.481
427.329
420.841
416.3
426.219
374.259
673.743
530.445
414.27
489.777
444.303
462.729
448.777
399.898
387.783
356.876
393.169
438.229
392.879
426.145
480.583
431.208
360.627
761.043
665.214
738.716
862.137
555.811
595.24
536.71
565.353
561.445
529.586
533.503
545.161
562.038
580.521
477.372
482.019
468.411
520.409
503.029
512.892
506.257
495.469
503.514
545.099
522.292
530.584
597.957
688.652
552.561
562.48
625.769
765.52
683.471
376.822
411.171
565.519
430.248
523.21
411.304
480.998
463.862
503.288
526.822
581.871
494.913
510.904
617.694
589.45
544.273
586.287
665.305
734.509
447.365
377.087
438.167
462.719
380.594
388.574
391.106
540.189
469.489
409.898
439.333
426.64
451.754
444.674
327.632
384.103
329.154
439.455
476.017
537.037
519.998
478.766
534.795
402.971
412.465
404.4
570.358
720.908
577.063
575.536
737.527
745.81
958.366
778.188
670.521
631.133
568.755
741.408
592.533
561.735
510.223
548.185
543.15
939.223
547.478
534.221
613.541
554.626
1217.27
673.235
778.715
924.517
777.121
963.849
512.276
572.346
701.39
696.852
616.516
586.793
582.031
785.498
698.312
943.039
569.455
499.392
537.467
550.106
525.111
924.466
611.858
638.261
553.949
577.303
817.163
607.654
651.539
638.053
340.204
327.43
356.746
334.187
321.649
311.64
332.584
358.943
356.005
450.491
478.841
481.212
448.154
457.29
442.733
386.561
427.967
411.972
475.24
420.85
462.623
384.337
383.958
354.552
430.981
414.546
426.666
399.001
432.407
406.497
396.019
393.89
379.521
392.683
403.465
402.675
401.47
471.707
393.693
349.092
328.47
388.945
367.388
354.393
401.07
363.545
347.957
404.157
478.755
405.226
371.364
398.798
376.362
378.414
397.827
423.413
374.888
366.726
421.707
404.857
366.946
369.557
384.093
361.764
388.851
362.103
372.223
373.415
402.571
404.931
472.348
485.202
499.444
432.821
448.6
458.079
489.506
476.214
417.049
409.148
374.402
394.937
388.803
343.28
407.419
410.447
389.858
408.524
444.011
534.58
481.826
525.107
524.032
522.255
489.5
461.016
496.277
501.043
523.163
534.364
521.432
497.433
513.202
496.306
498.486
420.462
485.067
477.583
333.879
377.218
341.721
326.278
355.837
498.2
510.827
481.874
494.487
540.517
473.796
478.262
472.16
484.581
397.145
458.806
540.798
469.005
475.688
436.337
477.324
414.763
435.948
450.378
471.688
509.268
505.984
469.77
506.455
491.976
475.88
468.899
586.256
533.234
559.746
560.217
537.311
478.851
511.689
497.564
340.017
290.978
305.815
377.342
458.124
516.446
540.905
569.678
536.687
383.669
440.119
513.144
389.31
435.986
574.418
399.17
503.08
475.34
565.087
514.651
529.458
579.899
631.484
348.256
556.134
493.64
452.521
467.051
518.836
528.547
551.796
466.996
484.132
556.202
616.889
647.295
541.534
558.997
552.935
562.299
611.265
545.458
648.917
550.144
523.736
538.074
906.048
861.271
1001.46
852.909
1226.94
559.025
671.338
602.495
480.346
480.356
486.175
508.519
531.898
518.357
536.582
526.479
506.157
494.607
815.84
553.851
576.881
911.535
622.388
522.316
538.036
541.769
