# vtk DataFile Version 4.2
vtk output
ASCII
DATASET POLYDATA
POINTS 642 double
-2457.38 6172.22 -473.987
607.033 6004.52 -391.237
-2500.48 287.156 -34.2277
1496.57 299.645 33.4837
-630.376 1338.97 2715.2
-1148.8 4782.66 2109.51
-514.496 1657.78 -2357.03
-1124.78 5223.04 -2840.22
1884.4 3172.71 -1299.77
2096.71 3088.93 1447.59
-3160.73 3868.05 -1636.33
-3608.85 3506.31 1814.17
-3460.04 5135.91 1055.44
-2402.94 4417.85 2515.25
-1816.95 5718.94 1461.57
47.1625 5619.84 774.71
-605.131 6667.19 -204.968
209.333 6080.05 -1511.02
-1908.31 6447.08 -1994.09
-2322.5 4881.09 -2836.43
-3442.13 5403.06 -1395.83
-3911.46 3475.45 132.096
926.561 3989.35 2107.27
1679.1 4479.78 827.062
-2161.25 2121.1 2338.85
-485.468 3128.18 2757.13
-3110.86 1510.1 -828.345
-3201.58 1525.41 1053.27
-941.713 3817.53 -2415.45
-1988.29 2500.54 -2026.74
1397.21 4753.52 -688.074
602.732 4616.34 -1741.12
2472.97 1458.29 1030.69
1062.95 2224.21 2434.29
623.489 433.22 1731.4
-1792.59 363.473 1793.55
-531.848 84.1701 -56.0533
-1570.44 570.456 -1623.94
534.893 590.645 -1574.59
915.337 2221.19 -2093.24
2319.3 1567.61 -864.192
2547.08 2844.67 100.529
-3021.74 5651.77 529.875
-2686.64 5589.94 1350.31
-2078.15 5913.19 773.469
-3100.37 3997.84 2291.05
-3048.13 4836.01 1946.02
-3645.95 4347.93 1512.55
-1503.38 5336.56 1874.93
-2175.69 5188.7 2082.79
-1800.1 4653.48 2426.42
-991.024 6396.13 431.394
-1352.41 6534.76 -288.47
-327.387 5062.77 1575.19
-882.37 5871.62 1007.38
57.0644 6442.33 -300.533
-288.203 6337.18 363.792
241.439 6020.35 251.261
-1356.89 6554.48 -1114.61
-2233.11 6520.9 -1344.6
525.772 6176.1 -884.886
-140.429 6569.89 -930.733
-1522.23 5934.78 -2528.48
-843.079 6271.5 -1836.55
-349.766 5726.76 -2090.79
-2827.58 6136.31 -1768.97
-3018.61 5959.39 -975.427
-1677.15 5137.85 -3103.45
-2237.3 5775.6 -2647.65
-3406.97 4809.35 -1647.51
-3113.52 5234.97 -2261.86
-2866.02 4400.62 -2364.67
-3489.01 5261.62 -67.6743
-3650.52 3505.41 -708.102
-3637.47 4489.33 -588.414
-3869.38 4399.25 598.004
-3871.94 3502.05 1002.16
1026.49 4945.22 1035.43
1087.34 5151.78 245.489
246.755 4289.55 2138.81
656.078 4704.16 1682.94
1960.05 3897.71 1178.16
1416.59 4308.14 1521.01
1542.72 3629.33 1892.26
-1832.82 3896.89 2701.27
-848.614 3827.02 2517.28
-3055.63 3076.3 2212.08
-2440.22 3528.3 2656.86
-442.651 2337.93 2843.25
-1462.71 3009.78 2701.56
-1438.9 1524.5 2590.37
-3809.29 2524.6 532.459
-3504.13 2647.72 1411.45
-3277.44 2535.42 -1200.58
-3678.23 2526.34 -405.919
-2984.71 777.879 585.669
-3318.34 1444.56 -20.4318
-2993.24 789.37 -540.504
-2265.83 3967.06 -2634.65
-2505.63 3234.21 -1964.74
-1188.81 4909.34 -2842.76
-1707.07 4551.48 -2958.46
-1223.97 1818.86 -2257.45
-1478.66 3272.18 -2523.24
-506.915 2363.96 -2442.44
446.989 5346.94 -1888.65
-256.135 5030.75 -2325.04
966.805 5600.75 -748.368
831.772 5615.56 -1221.32
1355 3599.47 -1644.58
884.862 4686.86 -1448.74
1827.84 3839.21 -1017.43
2135.87 762.877 569.645
1712.37 845.115 1395.69
1155.28 266.752 892.724
1695.56 2638.68 1979.43
1940.86 1727.23 1763.46
2473.39 2225.34 1267.98
-41.7182 860.009 2334.22
931.171 1228.93 2197.45
325.147 1774.3 2664.95
166.044 103.834 1026.07
650.178 105.662 9.63198
-1104.23 816.479 2443.7
-587.871 295.861 1925.01
-1695.2 78.817 43.3737
-1293.89 110.206 1020.49
-2189.74 204.401 1031.81
121.865 137.749 -934.655
1049.95 387.755 -816.503
-2158.4 341.731 -817.448
-1178.46 120.3 -968.289
8.87545 1043.94 -1996.97
-582.324 495.604 -1676.46
-1135.62 989.727 -2058.66
1506.91 1005.39 -1207.48
2054.98 833.424 -473.349
227.343 1929.29 -2304.75
804.846 1378.42 -1971.28
2256.37 2156.47 -1019.03
1662.91 1864.87 -1538.54
1464.9 2704.83 -1761.24
2597.5 1386.32 47.6297
2327.28 3010.13 -621.274
2682.78 2215.39 -384.568
2817.06 2243.5 509.552
2483.55 2897.14 743.067
279.92 2678.03 2766.25
1051.03 3152.13 2408.64
264.158 3530.76 2581.1
-2684.93 747.761 1555.33
-2120.25 1136.62 2368.11
-2767.63 1661.7 1863.18
-1802.53 1273.48 -1980.26
-2554.98 933.264 -1246.21
-2638.86 1909.88 -1540.44
895.7 3136.62 -2055.38
142.726 2751.99 -2410.96
-275.23 3993.63 -2345.02
2178.13 3880.43 475.442
2132.65 3861.22 -373.89
1725.97 4513.69 22.5374
-2719.82 5835.13 47.7938
-2623.64 5831.57 705.59
-2199.26 5999.6 236.561
-3100.38 5408.52 1222.7
-2881.15 5645.08 974.282
-3269.86 5425.19 816.903
-1991.84 5852.86 1138.46
-2444.97 5783.73 1099.25
-2252.44 5691.06 1421.53
-3391.09 3747.23 2082.25
-3420.8 4165.12 1949.63
-3665.44 3905.22 1696.32
-2748.68 4633.78 2288.86
-3094.66 4430.39 2156.92
-2763.72 4235.94 2446.39
-3582.78 4775.99 1290.18
-3378.95 4621.45 1751.91
-3293.83 5006.54 1524.79
-1406.51 5091.97 2023.48
-1661.38 5019.02 2175.03
-1548.71 4771.31 2276.66
-2001.97 5488.85 1780.28
-1829.23 5281.18 1998.21
-1647.09 5550.86 1690.26
-2078 4546.25 2511.95
-1982.86 4931.93 2289.96
-2304.35 4826.91 2335.4
-2895.12 5263.85 1669.87
-2613.61 5061.95 2065.11
-2444.38 5422.29 1759.3
-1616.94 6288.11 172.039
-1904.88 6294.77 -472.466
-1400.3 5957.86 915.576
-1513.55 6165.37 546.829
-938.821 6657.71 -184.443
-1119.72 6518.52 133.95
-818.948 6585.01 121.711
-806.429 4849.8 1797.4
-1164.73 5310.57 1732.26
-421.933 5901.14 869.04
-793.827 5503.21 1264.45
-58.0973 5309.12 1194.74
-1287.95 5536.83 1560.29
-1310.74 5730.65 1331.33
351.837 6244.26 -348.59
185.851 6240.58 13.2449
436.812 6034.27 -66.468
-436.933 6539.61 102.566
-127.477 6422 72.7537
-283.934 6590.22 -258.173
122.869 5901.4 523.687
-0.244091 6189.99 325.293
-178.614 6109.83 551.055
-868.344 6169.49 759.548
-508.19 6182.34 661.722
-641.847 6420.21 420.009
-1891.99 6454.39 -1011.12
-2356.79 6361.66 -993.033
-802.239 6668.06 -563.593
-1394.48 6563.78 -703.879
-2092.78 6566.92 -1634.42
-1902.93 6547.73 -1337.47
-1788.39 6541.66 -1624.45
589.322 6111.36 -653.401
315.481 6348.41 -628.05
49.1288 6367.16 -1237.13
198.857 6404.27 -922.927
377.658 6158.91 -1204.38
-29.8063 6545.09 -621.323
-347.197 6655.95 -596.198
-1338.24 5586.79 -2708.3
-1082.64 5824.65 -2368.33
-863.663 5447.27 -2456.19
-1522.91 6344.13 -2004.4
-1299.41 6125.32 -2215.54
-1714.88 6221.22 -2298.78
15.3161 5940.81 -1780.75
-604.308 6027.27 -1983.56
-197.53 6225.86 -1616.83
-563.36 6643.07 -968.418
-365.302 6482.29 -1325.4
-1079.53 6457.49 -1505.65
-2650.94 6291.93 -1181.41
-2730.11 6125.23 -722.49
-2353.35 6374.24 -1912.17
-2541.18 6409.31 -1532.23
-3260.69 5719.51 -1195.37
-2965.33 6097.34 -1391.48
-3197.21 5804.76 -1586.69
-1427.84 5202.58 -2986.09
-1599.38 5551.64 -2856.22
-2338.48 5296.08 -2817.91
-1926.61 5453.63 -2915.94
-1956.01 5033.14 -3055.68
-1838.66 5919.51 -2638.83
-2067.99 6178.72 -2375.64
-3269.28 4340.13 -1720.52
-3184.7 4631.01 -2010.97
-3029.73 4202.21 -2075.35
-3358.75 5331.07 -1842.43
-3318.23 5033.12 -1951.6
-3488.54 5089.47 -1557.16
-2626.41 4669.59 -2618.36
-2999.65 4905.54 -2315.03
-2756.21 5089.12 -2580.8
-2573.81 6001.91 -2266.46
-2735.84 5522.43 -2514.45
-3031.91 5697.39 -2077.3
-2999.55 5767.08 -280.477
-3424.75 5368.08 -826.525
-3256.52 5594.63 -566.526
-3288.6 5470.64 229.861
-3532.57 5198.75 565.045
-3342.11 3616.04 -1201.01
-3413.07 4258.68 -1189.71
-3845.77 3953.12 -135.964
-3676.29 4019.63 -654.858
-3820.65 3459.96 -307.17
-3505.16 4726.13 -1187.3
-3525.67 5002.47 -1104.79
-3823.05 3920.96 1315.08
-3794.24 3505.85 1454.27
-3726.74 4795.4 858.192
-3797.68 4404.88 1076.19
-3971.01 3499.31 517.713
-3904.94 3942.57 787.661
-3960.75 3951.9 364.482
-3629.51 4901.49 -337.169
-3867.93 4415.24 102.171
-3751.5 4836.91 334.787
655.803 5630.19 99.4659
747.122 5732.56 -208.938
526.286 5240.99 1018.31
517.979 5415.38 597.8
1476.87 4734.3 642.257
1120.44 5020.14 684.578
1365.31 4738.94 943.536
-267.635 4449.68 2094.66
71.9594 4660.41 1899.15
803.823 4381.78 1903.26
483.849 4526.27 1911.25
605.144 4140.44 2140.98
316.593 4843.02 1667.32
464.271 5016.58 1396.19
2038.95 3552.56 1335.65
1789 3774.92 1550
1811.77 3425.72 1716.26
1578.92 4406.65 1185.32
1703.63 4116.83 1366.8
1843.06 4196.48 1006.11
1245.81 3815.05 2021.54
1498.59 3987.49 1715.75
1202.06 4169.4 1826.8
861.84 4847.18 1380.49
1044.69 4533.39 1625.82
1239.3 4652.97 1295.99
-1569.47 4338.43 2482.96
-1006.24 4379.9 2163.3
-2047.85 4144.65 2670.21
-1809.84 4251.91 2597.04
-584.506 3548.97 2640.85
-1448.87 4020.43 2586.04
-1304.3 3602.04 2531.54
-3362.79 3292.8 2051.71
-3131.26 3517.04 2292.52
-2405.76 3105.85 2556.93
-2777.84 3314.16 2454.05
-2627.82 2740.6 2278.06
-2798.83 3755.5 2491.25
-2443.1 3958.51 2620.81
-573.076 1749.02 2716.57
-878.772 1809.11 2688.59
-967.504 1420.29 2721.16
-1001.37 3003.37 2751.89
-813.517 2519.59 2767.84
-425.906 2730.46 2819.29
-1847.68 1656.42 2472.46
-1368.39 2054.8 2577.53
-1869.45 2588.86 2500.23
-2058.1 3712.82 2786.9
-2033.22 3364.1 2747.95
-1780.82 3466.51 2755.42
-3763.06 3107.32 1275.07
-3611.75 3146.61 1659.39
-3894.12 2999.63 328.161
-3849.63 3043.02 761.402
-3398.81 2048.25 1209.98
-3690.53 2560.72 972.697
-3588.12 2100.95 770.219
-3216.66 3023.49 -1351.71
-3462.72 2957.4 -971.119
-3439.44 2059.13 -670.444
-3497.82 2501.41 -829.867
-3250.12 2096.02 -1030.89
-3673.54 2975.35 -538.789
-3824.44 2975.01 -146.85
-2776.53 486.5 273.848
-3023.48 745.915 -37.8793
-2780.68 492.575 -307.872
-3324.81 1482.86 513.678
-3200.07 1028 256.938
-3102.42 1060.61 857.75
-3104.32 1071.71 -722.424
-3203.96 1023.54 -305.897
-3239.5 1427.15 -467.602
-3814.57 2512.03 73.5876
-3571.59 2029.84 -203.895
-3655.17 2059.9 290.444
-2724.09 3987.56 -2315.96
-2883.08 3606.68 -1713.85
-2304.92 4373.32 -2778.35
-2555.22 4140.65 -2554.97
-2303.65 2958.02 -2049.61
-2430.27 3755.16 -2418.64
-2204.62 3528.44 -2386.29
-1157.95 5035.85 -2871.36
-1470.19 4997.04 -2994.64
-1536.73 4390.59 -2846.2
-1504.95 4760.07 -2934.35
-1194.67 4565.74 -2780.09
-1682.47 4906.07 -3056.67
-1892.95 4701.01 -3012.07
-877.679 1740.51 -2328.27
-838.196 2148.75 -2430.8
-501.224 2004.26 -2433.63
-1643.81 2968.97 -2339.46
-1183.64 2404.08 -2384.46
-1553.51 1987 -2146.13
-541.267 2915 -2475.34
-927.862 2653.21 -2449.39
-1340.83 3534.33 -2500.45
-1944.14 4210.43 -2868.24
-1745.47 4095.68 -2803.99
-1926.01 3810.8 -2684.31
-256.455 5302.08 -2281.83
-793.109 5062.08 -2631.94
[...]
POINT_DATA 642
SCALARS Mean_Curvature double 1
LOOKUP_TABLE default
0.000676925
0.000855852
0.000855561
0.000998061
0.00150865
0.00176054
0.00119893
0.00215981
0.000833483
0.000506415
0.00101158
0.00137614
0.000957212
0.000910211
0.000878201
-0.000912166
0.00146944
0.00099168
0.00169231
0.000506594
0.00131868
0.000313029
0.000621603
0.000792222
-1.92848e-05
0.000296625
-2.98174e-05
7.02517e-06
-0.00100154
-0.000241068
5.06193e-05
3.85435e-05
0.00113406
0.000555003
0.000968044
0.0010765
6.24839e-05
0.000984107
0.00112918
0.000441763
0.000963394
-3.72236e-06
0.000736184
0.00088972
-0.000217591
0.000875795
0.000798045
0.000730746
0.00103982
0.000952288
0.00108182
0.00085729
0.000657184
0.000341952
-0.000171344
0.000845133
0.00109736
0.000502995
0.000267799
0.00160767
0.00161918
0.00138353
0.000842858
0.000847234
0.000346491
0.00110627
0.000569709
0.0036363
0.00100812
0.000543591
0.00170935
0.00088471
0.000677678
0.000467448
-0.000119806
0.000595602
0.000292986
0.000531214
-4.0384e-05
0.000467929
0.000754883
0.000787879
0.000756422
0.000715111
0.000471818
-0.000254146
0.00081857
0.00104661
0.00104626
0.000141294
0.000251227
0.000960245
8.05447e-05
0.000888497
0.000627691
0.000563235
-2.67886e-05
0.00114146
0.000746655
-0.00044331
-7.85176e-05
0.00154572
0.000411207
0.00178701
-1.12742e-05
0.00129426
0.00182019
0.000974465
0.000893237
0.000536326
-0.000583539
0.000636401
0.000950246
0.000767099
0.000578491
0.000358509
0.000995054
0.00142606
0.000237816
0.000488544
0.000734469
0.000519946
0.000321278
0.000934488
0.00108343
0.000194578
-2.00503e-05
0.00101779
0.000905843
0.000402569
0.000525098
0.00105816
0.000247645
0.000940688
0.0012406
0.000290622
0.000956344
0.000488053
0.000925032
0.000501957
0.00053421
0.000555334
0.000877233
0.000422285
0.0016074
0.00203894
0.000249583
0.000544238
0.000651624
0.000789088
0.00101093
0.00164603
3.20082e-05
0.00171214
0.000892217
0.000286462
0.000390858
0.000672412
0.000582403
0.000753125
0.000844293
0.000427303
-0.000241463
0.000866117
-0.00027684
0.000935166
0.000812282
0.000931044
0.000882085
0.000885554
0.000834166
0.00106254
0.00084004
0.00100408
0.000947911
0.000855449
0.00102933
0.000851693
0.000785836
0.000828333
0.000415734
0.00106946
0.00036031
0.000826247
0.000895161
0.00111066
0.00114985
0.00100599
0.00097345
0.000879449
0.000977646
0.000880074
0.00037622
-0.00053823
-0.000397295
0.000422499
0.0014097
0.000967732
0.00147608
-0.0014424
0.000795616
0.000684721
-0.000724307
-0.000165068
0.000709284
0.00102492
0.00074936
0.00104852
0.000712114
0.00124133
0.00105744
0.000843205
0.00152306
0.00108792
0.000691555
0.00157605
0.000977151
0.001392
-0.000273541
0.000439324
0.000556615
0.000712116
0.00227967
0.00128367
0.000936702
0.00123914
0.00134624
0.00104595
0.00125386
0.00091526
0.00114302
0.00132041
0.000515828
0.000351805
-0.000460922
0.000526547
0.000594207
0.00120103
0.000796931
0.000392257
0.000817971
0.00102421
0.000943862
0.00027605
0.000868669
0.000797981
0.00106255
0.00169507
0.00079112
0.00135424
0.00126801
0.00175121
0.00142714
0.00107492
0.00112224
0.00209566
0.00151017
0.00144679
0.000670486
0.000498041
0.000780949
0.00153403
0.00130375
0.00185811
0.000466999
0.000338174
0.00112331
0.000979597
0.00124328
0.00099221
0.000352421
0.000560678
0.000536285
0.00044029
0.000933026
-0.000210958
-0.000517642
0.000279522
0.000623466
0.000683513
0.000579836
0.000713314
0.000895842
0.00125767
0.00102594
0.000783918
0.00118815
0.000283448
0.00105293
0.000474951
0.000894374
0.000812448
-9.13097e-07
0.000996198
0.00100591
-0.000875662
0.000659986
0.000676403
0.000756012
0.000527535
0.000496915
0.000748481
0.000637877
0.000471176
0.000534755
0.00061842
0.000758846
0.000771133
0.000743569
0.000741613
0.00077616
0.000747797
0.000624514
0.000730658
0.000694543
0.00071648
0.000795341
0.000792362
0.000403136
-0.00131312
0.00138535
0.000838233
0.00142532
0.00187815
-0.00186222
0.00114162
0.00106473
0.00071945
0.000700546
-0.000199156
0.000746761
0.000635017
-8.08409e-05
-8.35596e-05
0.00161485
0.000926683
0.000185526
0.000540228
5.85311e-05
-0.00027666
-0.000320807
0.00225919
0.00106374
0.00157465
0.000786898
0.001022
0.000606286
0.000233156
0.000564549
0.000523038
0.000540863
0.000690525
0.000321312
0.000651619
0.000747383
0.000625079
0.000191512
0.000580816
0.000887549
0.000662503
0.00118365
0.000120298
0.00102716
0.000591908
0.00180677
0.00159104
0.000122432
0.00105651
0.000477219
0.000777821
0.000754974
-0.00101607
0.000905
0.0011683
0.000523442
0.00119005
-8.74718e-05
0.00310392
0.00133459
0.000216002
-0.000234622
0.000676147
0.00216566
0.00141226
0.000523319
0.000921575
0.000889212
-0.000163807
0.000596419
6.32962e-05
0.000247174
0.000154087
-0.000412284
0.00179229
0.00109828
0.000961565
0.000842391
0.00218674
0.000867128
0.000635098
0.000169526
0.00204161
0.00189995
0.000413776
0.00237288
0.00092059
0.00173185
0.00196767
0.000921847
0.000930012
0.000743325
0.000566361
0.000762853
0.000557689
0.000543249
0.000459697
0.00041186
0.000478332
-0.000284906
0.000978795
0.00108221
0.001692
0.000762674
0.000817447
0.000978867
0.000924921
0.000896506
0.00103803
0.000844145
0.000597479
0.000591181
0.000313835
0.000598332
0.000377257
0.000187695
0.000108575
0.000553602
0.000819269
0.000743801
0.00121368
0.000596591
0.000687468
0.000714918
0.000894858
0.000589084
0.000689205
0.000673699
0.000676697
0.000390278
0.000936306
0.000587968
0.000424333
0.00082712
0.00109797
0.000967956
0.000841889
3.26553e-05
0.000116381
1.44314e-05
0.00153049
0.00119618
0.000809821
0.00105615
-0.000151705
0.00071206
0.000624789
0.00089851
0.00076362
0.000545148
-0.000126762
0.00136131
-0.00011083
0.00137572
0.000393552
0.000684697
0.00056694
0.00100846
0.000222373
0.000490566
0.000854643
0.000303591
0.000652498
0.000938808
0.00100526
0.00114624
0.00145605
0.000725225
0.00108557
0.000732078
0.000715859
0.000423388
0.000160511
0.000519569
0.00074114
0.000184983
0.000604971
0.00049219
0.000955855
0.0011368
0.000568266
0.00101217
0.000908426
0.000676584
0.000428288
0.000775656
0.000853836
0.000725768
0.000376897
0.00100742
0.000832498
0.00075254
0.000875183
0.000354253
0.00105349
0.000489414
0.000341843
0.000596414
0.000942038
0.000227658
0.000152809
0.000622276
0.00107542
0.00034477
0.00171626
0.000528368
0.000298612
0.000622816
0.000591456
0.000892321
0.00040435
0.000849047
0.000894721
0.000924163
0.00096697
0.000907988
0.000614601
8.3774e-05
0.000901119
0.000546929
0.000242622
0.00113233
0.0015874
0.000977122
0.000271744
0.000711732
0.00159845
0.000313124
0.00101262
0.00120333
0.000858421
0.00192308
0.00123521
0.000237649
0.000638071
0.000496063
0.00159579
0.000306453
0.000700751
0.000560961
0.000666118
0.000684004
0.000769873
9.75385e-05
0.000852588
0.000409487
0.000343868
0.000553446
0.000968312
0.000729179
0.000985285
0.000524212
0.00110363
0.00102184
0.00106957
0.00119105
0.00110987
0.00134345
0.00172881
0.000501941
0.00114737
0.000407392
8.89508e-05
0.000513393
0.000239926
-4.30529e-05
0.00103527
0.00163671
0.00154605
0.000358528
0.0010489
0.00170394
0.00065462
-0.00016061
0.00117855
0.00148145
0.000985993
0.000655203
0.000483006
0.000519429
7.03162e-05
0.000598618
0.000713728
0.000164383
0.00122469
0.000300996
0.000183372
0.000700292
0.000594459
0.000709385
0.000596275
0.000280995
0.00084821
0.000733397
0.000446021
0.000682416
0.000362653
-0.000699656
-0.00113077
-0.00062468
0.000177737
0.000494371
0.00068965
0.000798618
0.000184704
0.000754169
0.000506061
0.000537255
0.000833574
0.000715227
0.000790207
0.000640369
0.000724148
0.000790899
0.000678279
-9.89828e-05
0.000530337
0.000270279
-0.00063807
0.00118437
0.000943415
0.000712919
0.000595095
SCALARS CoVolArea double 1
LOOKUP_TABLE default
257978
93863.6
174018
166692
124848
196987
134076
117243
144984
177681
215894
135075
196762
169684
189038
244127
131821
147608
162246
195785
191209
218545
160476
136652
333960
242585
224445
289599
414305
383948
241002
240060
208735
230708
231157
227585
397908
190432
174857
169009
173787
199345
231372
185777
259205
183617
211689
204858
114639
164943
116974
182864
251031
350263
188196
130262
111206
168498
289461
136772
110884
144278
158719
265008
258549
231446
220561
100483
236064
185180
189260
183995
274582
296285
299859
220140
216692
202445
241122
187470
140349
143425
146360
150134
146156
300189
222800
173546
199966
344374
188299
228825
272103
187064
228995
220021
280574
160672
145909
334925
82815.2
91145.6
191305
259214
168959
117417
125130
122064
122514
171356
222433
143963
212655
250290
228206
228869
204453
147913
237376
250729
204154
275485
242641
220682
235730
231224
292210
217006
222044
233015
203168
229509
202268
218877
145939
248420
197084
172384
172878
150669
194876
191493
225751
206536
130676
137576
192161
180480
167552
148053
208064
172993
259781
136044
195109
264478
180442
166281
400467
171657
148239
216249
296507
246218
373731
198768
172999
186409
210033
170515
171684
171550
199172
181031
192340
192548
177453
194623
203368
212413
150575
111450
158172
157797
129516
129275
129803
131194
167748
228142
215446
205314
316618
355788
263578
247475
157859
177602
120480
300754
238491
252349
320420
334526
156878
191800
114036
117974
133821
124756
122643
126200
171570
102126
134987
191394
138298
134361
216137
210056
226401
219380
131905
153069
202576
91639.5
114131
153111
125793
131548
123375
144855
171409
233121
248432
216766
198195
148109
178770
238011
205494
262171
241786
326540
170652
225459
220728
167886
197031
177280
210685
100184
146456
215449
181859
138882
171263
209140
239120
182136
208546
189058
146544
139338
192721
182082
192241
279025
252393
264869
270592
261637
250609
243439
223941
323250
309982
270127
283816
232293
217997
234137
211607
173749
210890
216197
207803
222854
217648
326814
285734
267196
258814
162146
237928
287613
166406
240739
144983
291779
244523
148325
141720
152090
205694
214377
178692
146454
179054
142095
135162
127751
147108
141300
153476
176857
160143
158183
209413
343181
139124
114115
221673
182097
296847
165596
169774
292380
193546
315451
179081
181765
191988
245401
144498
274781
312110
168302
238874
400394
405425
139952
228317
201154
222943
184956
222363
235809
284194
254351
282255
265761
256409
248985
206019
219971
221529
221588
227780
198840
186024
312090
229931
230365
152458
184457
235202
240605
288732
291844
236383
336119
189989
151119
279257
174003
279274
58844
62230.9
224713
90586
232446
71914.2
147954
167368
167674
127583
390318
272816
304058
314826
261116
346770
140906
170097
222939
228384
136318
147895
176683
218123
118452
100168
101357
80983.9
178315
86765.9
131837
117076
144831
136869
162409
139960
153688
214199
191645
220646
226738
302851
141782
189794
140940
212290
226317
204187
219982
217032
200399
221490
236601
254567
214926
194289
182316
248166
215044
219570
169294
170518
194821
186803
223497
206060
243512
229797
224048
199130
213043
252538
251394
271730
287791
216327
196308
242365
223884
319961
276540
390679
151735
196119
246120
215219
249614
215809
249097
210694
219306
240835
382976
241922
316035
192872
209763
242928
286760
290667
352513
228395
209632
290572
237622
194940
205656
198394
178781
212382
202578
215561
208849
253798
308654
196054
191988
180601
207029
194256
165449
144129
173652
186253
267334
243319
260147
216484
202871
221931
229709
181046
204270
211427
155159
201336
157252
165416
158569
169317
179677
213900
211214
185511
180850
154076
116758
172213
195124
178725
254103
219854
260143
214222
210119
203092
207688
224339
194966
191324
145265
158967
197847
115726
159953
154970
203649
200514
138972
172821
128979
127786
215176
149995
220197
217589
199440
187631
156515
167170
191874
170462
157566
185533
192081
300569
174071
191650
169924
167313
191931
177184
179454
235921
215356
205255
203610
224581
178991
178407
141791
223418
232194
260471
267746
311086
320077
298389
223448
204025
226676
151927
177465
116325
138518
238082
178732
188963
160131
202780
225072
274012
316832
279863
212909
254546
208632
235704
229048
147090
175787
150888
159970
314571
143180
272835
163859
162088
185422
87251.5
532674
330097
212652
316207
192066
238102
364533
191348
221295
197683
149909
145754
158093
176924
133759
173216
209817
238801
166839
265141
258413
200801
186352
175996
170094
SCALARS SignedDistance double 1
LOOKUP_TABLE default
1006.45
1252.87
760.343
768.332
1046.35
1388.61
1114.33
1324.31
1159.36
1029.31
1245.94
806.393
815.849
1033.14
1140.7
1433.91
1001.07
1025.8
932.966
949.355
873.343
924.957
1168.21
1191.5
1079.33
1129.57
1032.17
916.1
1653.48
1209.87
1361.21
1504.8
786.682
970.563
772.276
773.545
901.385
891.438
914.405
1160.56
954.56
1123.89
959.27
955.107
1127.71
857.965
849.948
797.22
1238.14
1080.74
1220.37
1105.53
972.769
1379.31
1313.78
1113.73
1190.26
1297.95
1145.13
1034
1124.97
968.075
1006.96
1161.61
1137.73
704.342
842.214
1206.18
749.564
997.186
870.19
1008.87
936.756
1032.54
1024.93
886.275
882.469
1240.78
1370.57
1221.16
1218.05
1117.13
1156.22
1101.49
1211.85
1348.58
938.822
999.576
1057.94
1323.67
1157.44
854.562
903.135
1023
946.664
824.317
939.326
836.654
1241.87
1369.6
1355.41
1257.48
1125.72
1606.36
1205.74
1252
1440.51
1315.64
1195.75
1260.66
1483.13
1209.94
722.673
778.005
782.858
1005.26
963.989
972.468
859.015
885.208
970.354
880.502
878.948
829.521
773.474
898.321
874.051
779.499
864.92
851.306
854.964
862.782
1028.75
921.214
1085.99
949.415
803.579
1130.97
1048.58
1116.39
1097.72
1160.49
795.69
1090.14
1042.87
993.318
1087.41
1068.96
1087.7
1174.31
747.552
963.105
1023.54
1175.37
1011.9
1105.94
1259.55
1198.19
1657.12
1145.53
1168.05
1231.68
1004.24
1056.23
1045.44
874.94
943.245
867.464
1107.02
1020.98
1043.79
818.304
801.743
786.778
917.397
839.715
918.029
796.822
809.683
821.673
1273.36
1226.7
1269.8
1095.24
1157.49
1193.23
1139.82
1151.51
1051.41
892.138
963.345
999.125
1030.27
1089.91
1197.51
1097.93
957.338
1030.82
1036.3
1399.95
1332.43
1347.13
1404.51
1429.85
1295.83
1308.39
1183.2
1218.9
1272.43
1093.57
1148.05
1043.22
1363.65
1250.62
1273.67
1234.05
1243.34
1144.73
1180.04
1005.64
929.701
1032.41
1014.67
1151.56
1106.13
1197.58
1127.55
972.262
1031.23
1037.96
1045.16
994.004
1101.67
1203.72
1322.04
1061.5
1124.71
950.468
1041.51
1100.99
971.061
907.473
915.126
1142.73
900.623
921.047
766.574
863.546
827.439
805.882
757.235
1224.67
1027.56
847.374
893.688
1086.3
897.62
804.904
1076.12
976.249
1077.24
836.857
932.575
951.09
941.017
909.513
897.281
656.523
755.459
690.323
948.737
893.174
910.121
909.735
845.682
1192.13
1082.92
920.53
1025.73
963.5
1015.5
967.762
839.337
820.556
798.557
821.163
908.176
848.468
900.222
963.921
917.33
824.893
1405.17
1351.34
1351.16
1448.85
1231.76
1273.42
1214.34
1272.5
1258.38
1193.49
1214.11
1201.44
1248.94
1266.64
1074.24
1099.95
1066.59
1169.36
1136.71
1154.33
1133.53
1128.08
1154.01
1226.65
1188.31
1196.1
1277.22
1370.87
1158.97
1222.36
1236.47
1342.8
1326.52
859.94
882.113
1071.99
952.87
1025.81
905.367
988.469
1026.96
1070.45
1077.39
1176.28
1073.31
1115.37
1199.22
1122.57
1106.28
1158.49
1210.2
1291.94
906.692
858.762
913.464
923.651
860.233
867.16
865.223
1118.73
1028.15
930.393
973.813
972.713
991.329
961.958
757.402
806.389
755.751
897.545
905.102
941.311
997.164
916.657
1001.25
895.469
903.618
881.17
1155.18
1287.78
1096.47
1133.04
1334.29
1288.07
1431.78
1371.12
1266.53
1321.5
1259.94
1404.15
1232.04
1169.55
1115.89
1192.48
1195.86
1418.41
1207.1
1173.78
1274.56
1212.46
1655.84
1279.85
1365.5
1422.05
1320.69
1510.59
1107.54
1147.96
1351.27
1325.25
1370.94
1269.83
1242.08
1316.26
1270.15
1431.81
1133.38
1099.57
1207.19
1232.94
1187.73
1514.24
1342.21
1372.9
1235.68
1281.92
1417.12
1200.73
1305.65
1358.37
749.682
743.297
768.32
759.858
735.241
722.745
763.162
776.524
791.054
1017.41
1025.68
1035.54
979.656
996.422
991.85
874.022
942.611
880.601
962.675
891.781
994.385
829.324
865.746
808.168
960.758
919.903
945.045
846.425
933.94
865.813
861.454
841.896
804.499
843.033
892.67
880.703
888.27
946.68
829.773
771.51
760.832
812.512
814.61
797.36
857.987
785.891
765.173
891.267
933.094
895.021
741.784
859.996
817.969
817.289
852.327
901.586
846.133
822.703
904.845
886.554
856.943
825.161
865.714
785.267
844.604
835.023
826.808
852.384
884.938
895.59
1057.1
1041.53
1082.32
949.396
983.665
996.567
971.31
985.983
920.455
870.668
864.873
887.027
848.234
776.395
912.865
895.755
864.381
890.789
951.169
1129.7
1081.17
1137.39
1130.77
1150.44
1060.42
999.201
1106.46
1114.87
1162.01
1075.55
1119.91
1077.06
1153.28
1115.33
1121.21
971.791
1063.63
1024.87
750.137
845.98
775.811
737.711
767.286
1119.46
1109.01
1070.2
1087.48
1103.06
1073.12
1016.03
1036.98
1042.55
841.19
965.197
1114.92
1044.8
1058.35
912.561
1018.72
855.119
975.437
1011.95
1020.36
1080.18
1096.83
1058.25
1132.46
1098.61
1052.14
1034.43
1257.35
1176.19
1224.79
1211.08
1184.9
1067.44
1134.4
1117
769.823
699.106
716.974
787.396
865.866
1021.62
1104.39
1122.05
951.492
786.755
922.25
962.137
885.979
941.76
1063.37
786.259
1004.74
914.159
1162.06
1020.97
1116.97
1208.47
1254.73
806.867
1081.97
904.147
901.326
935.437
1113.11
1165.76
1139.12
1042.48
1050.35
1123.78
1195.8
1252.51
1212.01
1215.72
1219.76
1261.62
1326.03
1196.16
1308.98
1214.89
1176.77
1194.97
1453.28
1495.64
1559.39
1497.69
1736.68
1243.12
1319.1
1313.12
1073.15
1079.58
1083.14
1130.82
1172.2
1161.4
1207.34
1187.07
1132.88
1102.53
1394.87
1225.96
1270.39
1406.27
1268.83
1159.05
1194.82
1196.77
