# vtk DataFile Version 4.2
vtk output
ASCII
DATASET POLYDATA
POINTS 642 double
-3184.67 7710.4 -96.0511
1993.87 7566.72 -74.722
-3227.55 -938.331 -46.3882
2187.31 -943.925 -40.8295
-535.501 749.07 4253.65
-592.591 5937.18 4010.51
-526.169 847.873 -4168.55
-571.699 6086.95 -4331.95
3568.68 3397.57 -2548.8
3656.88 3387.05 2514.79
-4740.36 3478.23 -2662.96
-4865.5 3436.9 2630.95
-4644.66 5967.81 1523.99
-3049.8 4978.71 4000.52
-2075.84 7389.94 2410.71
901.185 7263.33 2257.41
-529.086 8412.88 -60.5131
979.593 7433.72 -2506.18
-2140.58 7631.46 -2649.9
-3102.21 5044.58 -4201.67
-4701.69 6025.4 -1659.88
-5570.29 3434.99 -32.6765
1871.43 4877.54 3813.6
3328.27 5780.09 1424.88
-3011.3 1858.31 3944.74
-524.135 3402.47 4785.13
-4584.91 889.754 -1580.98
-4613.95 875.709 1525.96
-586.687 3496.96 -4766.28
-2920.87 1941.97 -3890.54
3255.13 5783.35 -1491.55
1828.08 4931.98 -3858.7
3642.32 847.101 1537.77
1954.47 1875.23 3949.29
1059.56 -714.142 2507.35
-2130.6 -752.036 2531.66
-527.46 -1583.43 -47.9874
-2081.41 -653.822 -2555.62
1029.93 -645.395 -2548.08
1891.85 1905.44 -3930.06
3584.5 882.255 -1595.15
4444.69 3370.16 -33.7888
-4032.26 6954.78 762.424
-3493.15 6877.56 2082.87
-2691.41 7679.2 1239.62
-4096.2 4245.93 3464.5
-4023.67 5575.84 2924.72
-4926.37 4755.28 2164.68
-1348.2 6794.81 3360.98
-2662.55 6349.98 3377.69
-1839.6 5560.19 4194.35
-1320.27 8111.23 1213.41
-1890.3 8208.91 -76.2472
185.61 6656.82 3212.38
-551.935 7516.34 2447.93
801.968 8178.81 -67.939
253.975 8084.74 1204.87
1514.11 7590.48 1157.15
-1380.58 8173.04 -1380.36
-2777.32 7896.87 -1412.13
1582.22 7680.11 -1326.37
277.298 8180.11 -1358.01
-1378.66 7005.11 -3658.12
-565.783 7668.39 -2686.6
221.956 6851.61 -3496.27
-3590.83 7022.9 -2267.68
-4087.04 7039.15 -905.115
-1870.19 5667.26 -4475.85
-2739.85 6494.26 -3624.34
-4934 4796.06 -2277.75
-4098.6 5645.46 -3099.55
-4075.7 4286.37 -3555.44
-4830.27 6099.25 -53.8544
-5312.06 3441.77 -1388.28
-5300.34 4770.98 -877.746
-5363.55 4770.27 787.772
-5413.56 3438.08 1350.04
2243.57 6642.97 1945.34
2707.69 6723.83 685.059
710.867 5447.01 4018.8
1481.79 6172.63 3189.71
3645.63 4659.76 2045.34
2767.57 5427.51 2752.5
2876.92 4182.92 3305.51
-1853.17 4236.21 4643.42
-566.491 4710.12 4517.55
-4075.84 2639.87 3442.09
-3179.25 3438.74 4199.27
-524.206 2051.09 4675.71
-1817.28 2639.9 4568.87
-1840.51 1216.61 4283.08
-5327.43 2105.92 776.148
-4872.13 2134.41 2135.83
-4787.73 2140.33 -2169.56
-5284.57 2116.62 -846.801
-4073.4 -172.918 781.651
-4812.86 751.721 -47.677
-4070.96 -168.913 -862.841
-3147.82 3475.29 -4270.04
-3918.04 2694.55 -3393.63
-570.56 4827.27 -4850.47
-1856.63 4297.67 -4833.34
-1783.35 1293.72 -4190.43
-1790.2 2708.69 -4543.4
-522.912 2093.08 -4626.19
1505.61 6295.96 -3366.07
669.33 5531.72 -4196.94
2768.78 6831.48 -838.174
2290.53 6781.84 -2097.6
2796.09 4162.53 -3303.46
2704.84 5461.76 -2826.74
3581.91 4638.18 -2091.05
3066.8 -200.459 783.534
2502.07 -110.027 2123.26
1712.6 -999.483 1285.1
2946.54 2603.37 3356.24
2980.65 1258.76 2918.88
3853.1 2089.56 2139.82
283.356 -105.647 3511.51
1625.32 441.746 3423.6
773.51 1240.65 4254.34
316.333 -1419.6 1303.01
887.27 -1462.8 -40.2642
-1348.56 -128.149 3538.61
-530.475 -934.897 2657.26
-1935.3 -1473.32 -39.2053
-1375.13 -1420.22 1305.04
-2767.01 -1023.26 1304.69
307.767 -1381.42 -1372.88
1683.8 -945.307 -1350.92
-2746.89 -970.141 -1358.57
-1358.35 -1385.54 -1376.07
273.543 -18.4678 -3496.4
-529.616 -841.553 -2677.33
-1332.24 -37.999 -3521.7
2440.51 -41.6201 -2158.97
3039.91 -173.865 -858.57
737.809 1307.6 -4196.68
1571 508.567 -3427.8
3784.92 2102.61 -2176.91
2885.29 1316.35 -2917.89
2851.84 2623.39 -3352.96
3852.25 712.804 -39.934
4173.58 3375.29 -1350.99
4301.11 2081.27 -859.654
4336.87 2074.01 783.363
4255.55 3374.48 1297.62
762.474 2607.35 4608.51
2043.12 3405.51 4091.09
742.801 4184.16 4526.76
-3555.83 -132.496 2146.03
-2706.78 404.08 3476.12
-4023.3 1235.42 2946.84
-2625.6 499.085 -3443.28
-3495.71 -57.3877 -2168.9
-3895.22 1325.46 -2894.56
1968.05 3402.5 -4043.06
716.387 2629.64 -4539.2
646.499 4244.65 -4479.06
4067.96 4666.16 745.094
4043.77 4660.67 -819.411
3502.11 5891.57 -39.1405
-3614.59 7335.13 335.645
-3397.43 7374.42 1020.56
-2935.93 7695.28 582.582
-4113.37 6467.77 1828.7
-3797.9 6952 1443.62
-4376.57 6494.64 1156.57
-2405.43 7577.03 1846.29
-3118.54 7322.99 1680.6
-2805.55 7188.74 2276.15
-4522.47 3846.18 3082.42
-4568.32 4512.87 2858.02
-4941.55 4101.14 2424.15
-3575.01 5297.49 3511.9
-4096.69 4929.23 3231.3
-3601.11 4626.59 3772.47
-4828.15 5383.23 1862.57
-4517.67 5189.27 2574.77
-4384.51 5800.62 2255.64
-973.121 6393.6 3726.51
-1604.73 6218.29 3826.82
-1214.29 5777.61 4143.47
-2387.98 6919.5 2930.42
-2015.31 6611.65 3407.46
-1720.26 7129.93 2917.89
-2456.6 5291.5 4141.99
-2267.49 5978.19 3826.2
-2884.27 5696 3739.73
-3802.89 6270.99 2539.32
-3377.47 6004.08 3199.35
-3112.15 6657.19 2772.49
-2295.07 7980.56 577.134
-2549.93 7984.91 -100.975
-1704.45 7751.77 1814.29
-2008.2 7910.12 1229.13
-1207.69 8367.3 -58.0123
-1602.97 8218.14 588.377
-937.067 8329.94 589.997
-208.139 6312.87 3630.29
-592.112 6787.14 3343.71
189.952 7462.41 2383.84
-194.338 7132.7 2854.41
562.223 6978.71 2740.27
-961.781 7184.46 2935.56
-1310.8 7493.75 2468.76
1422.45 7915.71 -71.087
1194.52 7941.34 566.325
1777.29 7617.98 552.233
-126.539 8315.9 587.114
534.583 8182.94 581.131
145.084 8346.71 -64.7236
1220.02 7476.14 1733.16
907.612 7881.72 1201.42
600.41 7737.82 1767.62
-931.344 7880.6 1868.85
-139.068 7868.97 1854.13
-531.897 8173.64 1232.36
-2372.82 8125.97 -764.048
-3007.64 7846.57 -760.868
-936.022 8363.26 -715.26
-1653.3 8243.61 -733.608
-2477.09 7805.82 -2043.47
-2113.56 8140.36 -1435.08
-1797.71 8010.44 -2053.24
1819.97 7676.32 -702.19
1223.64 8001.23 -707.987
647.88 7864.99 -1960.02
948.296 7978.3 -1358.63
1300.53 7600.24 -1936
552.988 8239.88 -717.859
-116.253 8366.03 -718.997
-975.636 6574.51 -4039.32
-580.591 6979.57 -3644.84
-187.154 6499.67 -3950.9
-1372.24 7733.74 -2732.54
-989.414 7406.58 -3221.91
-1771.36 7364.46 -3194.54
627.039 7183.92 -3025.31
-164.291 7300.63 -3127.55
239.177 7611.66 -2622.1
-524.244 8259.5 -1381.63
-118.891 7997.33 -2040.78
-974.841 7986.26 -2062.81
-3479.24 7528.28 -1173.27
-3661.99 7421.1 -501.931
-2895 7380.16 -2489.48
-3210.92 7503.09 -1855.63
-4440.29 6573.44 -1295.09
-3891.59 7084.92 -1600.86
-4197.82 6566.31 -1984.96
-1221.41 5910.93 -4455.09
-1638.79 6382.66 -4127.44
-2954.85 5792.26 -3966.73
-2321.08 6107.02 -4087
-2499.97 5367.9 -4373.09
-2071.36 6796.3 -3687.57
-2462.76 7112.49 -3180.24
-4872.23 4143.2 -2497.23
-4561.88 4557.12 -2959.43
-4453.6 3886.68 -3137.38
-4455.08 5865.98 -2409.25
-4576.27 5240.98 -2722.19
-4870.81 5423.51 -1992.72
-3620.41 4677.91 -3912.53
-4143.79 4985.43 -3382.22
-3643.88 5369.72 -3705.7
-3206.26 6808.74 -2992.61
-3463.8 6110.22 -3411.84
-3894.48 6378.14 -2725.67
-4080.95 7020.69 -75.0986
-4804.75 6094.77 -872.494
-4493.47 6590.29 -489.014
-4471.26 6557.76 359.339
-4796.46 6067.05 752.582
-5027.02 3462.08 -2027.91
-5138.38 4137.33 -1846.61
-5488.75 4104.52 -446.187
-5347.34 4113.99 -1145.94
-5485.66 3432.89 -717.883
-5177.44 4809.23 -1600.14
-5074.98 5421.38 -1296.51
-5237.25 4102.67 1786
-5191.15 3437.11 2012.11
-5065.99 5394.86 1175.27
-5194.18 4779.89 1491.31
-5544.59 3438.22 657.659
-5426.47 4107.7 1074.5
-5531.59 4108.68 382.397
-5136.05 5461.12 -473.22
-5409.95 4784.78 -34.6013
-5161.34 5459.77 379.779
2142.63 7205.92 914.657
2376.72 7199.91 298.791
1580.46 6977.33 2118.85
1860.63 7109.56 1537.6
3063.09 6265.29 1079.01
2511.8 6713.73 1337.68
2822.48 6249.49 1706.71
64.086 5688.81 4014.1
470.669 6085.51 3663.39
1699.56 5556.15 3541.8
1117.88 5835.52 3636.89
1306.41 5179.84 3954.66
872.777 6438.98 3233.37
1213.54 6724.36 2759.66
3688.06 4038.21 2301.9
3312.97 4433.89 2710.11
3295.42 3798.82 2943.9
3094.95 5629.77 2114.92
3241.26 5065.57 2425.96
3524.68 5241.05 1750
2399.24 4543.01 3596.04
2854.68 4825.98 3058.86
2357.09 5173.14 3322.22
1896.93 6447.56 2604.28
2155.71 5835.77 3012.37
2543.31 6074.89 2379.44
-1223.55 5168.09 4433.67
-582.795 5348.24 4291.45
-2461.78 4621.1 4374.76
-1860.56 4910.91 4463.45
-544.35 4066.76 4701.99
-1228.31 4495.72 4646.47
-1211.46 3833.89 4724.78
-4511.62 3031.15 3073.39
-4141.97 3437.59 3506.07
-3134.62 2666.91 4122.36
-3659.45 3035.31 3866.18
-3561.29 2244.42 3724.98
-3667.44 3844.35 3877.8
-3149.92 4216.78 4152.1
-539.087 1377.49 4519.83
-1179.05 1590.16 4560.07
-1189.05 961.5 4322.42
-1175.88 3023.54 4741.15
-1161.05 2316.19 4660.62
-513.726 2730.78 4803.59
-2464.17 1489.78 4195.6
-1822.72 1888.66 4434.12
-2432.83 2229.87 4301.65
-2528.11 3844.66 4485.13
-2529.63 3043.49 4468.34
-1872.74 3447.31 4710.68
-5215.04 2778.18 1777.76
-4922.04 2780.83 2413.41
-5507.19 2765.81 376.08
-5401.26 2770.27 1068
-4770.28 1483.78 1839.74
-5147.07 2103.55 1471.11
-5017.54 1481.27 1159.2
-4774.89 2793.49 -2416.71
-5096.92 2775.97 -1797.59
-4966.69 1489.91 -1226.43
-5080.48 2111.96 -1526.04
-4707.1 1509.33 -1885.47
-5341.62 2768.73 -1122.26
-5486.11 2765.21 -448.061
-3685.87 -600.351 372.649
-4119.62 -220.757 -46.749
-3685.01 -597.645 -461.251
-4756.07 787.517 745.546
-4496.55 250.007 368.575
-4393.72 310.868 1172.28
-4375.36 331.732 -1240.73
-4496.72 253.151 -460.248
-4764.65 777.406 -832.857
-5383.83 2089.89 -37.8633
-5103.39 1414.99 -451.673
-5129.44 1411.99 372.267
-4060.88 3486.9 -3549.65
-4367.98 3082.72 -3053.91
-3152.48 4259.75 -4280.62
-3638.19 3878.45 -3961.03
-3450.99 2318.54 -3695.35
-3579.05 3090.26 -3902.98
-3073.61 2737.2 -4133.71
-568.278 5461.68 -4639.21
-1221.55 5264.87 -4748.98
-1224.71 3918.67 -4909.74
-1221.53 4577.28 -4902.76
-600.411 4194.15 -4884.56
-1887.9 4995.27 -4745.06
-2486.02 4679.93 -4572.91
-1165.91 1052.12 -4217.08
-1151.2 1681.46 -4468.56
-523.241 1460.72 -4447.92
-2372.21 2319.46 -4263.62
-1778.75 1959.14 -4410.03
-2364.02 1576.91 -4072.63
-530.98 2773.38 -4712.03
-1154.49 2365.63 -4629.35
-1192.49 3103.81 -4716.06
-2526.66 3886.26 -4606.54
-1868.92 3508.5 -4795.47
-2508.37 3101.48 -4515.92
458.153 6223.69 -3900.94
50.5708 5827.15 -4319.78
[...]
POINT_DATA 642
SCALARS Mean_Curvature double 1
LOOKUP_TABLE default
0.000545316
0.000499265
0.000456093
0.000475901
0.000570183
0.000583035
0.000458075
0.0005691
0.000410793
0.000323523
0.000507073
0.000512376
0.000423056
0.000425317
0.000429529
0.000296452
0.000453508
0.000430174
0.000464468
0.000536401
0.000462056
0.000430187
0.00039054
0.000408706
6.83721e-05
0.000312768
0.000467559
0.00034224
8.47777e-05
9.37878e-05
9.87557e-05
0.000521975
0.000429087
0.000330691
0.000424416
0.000462365
0.000240045
0.000420812
0.000434212
0.000416684
0.000429806
0.000487982
0.000415463
0.000422951
0.000388133
0.000420511
0.000411955
0.000405728
0.000428143
0.000434254
0.000460826
0.000446127
0.000307687
9.95862e-05
0.000310959
0.000421315
0.00044262
0.00049285
7.88832e-05
0.000540707
0.000414731
0.000445967
0.000468168
0.000177592
0.000233868
0.000424036
0.000426482
0.000424653
0.000426415
0.000526187
0.000412274
0.00035754
0.000321499
0.00038664
0.000222476
0.00043457
0.000443296
0.000403844
9.7008e-05
0.000354204
0.000410683
0.00041306
0.000404277
0.000405902
0.000533483
5.24008e-05
0.000446368
0.000430128
0.000260364
0.000113695
0.000425692
0.000423686
0.000292251
0.000414745
0.000400767
0.000338127
0.000327674
0.000444674
0.000455487
-9.27425e-06
0.000660889
0.000491018
0.000350828
-1.90354e-05
0.000437201
0.000419056
0.000158182
0.00057514
0.00042858
0.000388613
0.000377772
0.000406399
0.000427309
0.000413068
0.000388393
0.000304134
0.000450947
0.000417153
0.000330585
0.000385232
0.000428565
0.000448304
0.000443073
0.000390231
0.000455714
0.000428097
0.000326857
0.000429709
0.000447611
0.000335757
0.00043195
0.000440329
0.000363089
0.000401704
0.000471409
0.000363632
0.000424093
0.000341638
0.000409067
0.000572383
0.000372221
0.000313077
0.000432885
0.000299406
0.000475428
0.000456748
0.000419065
0.000364823
0.000411851
0.000431585
0.000432357
0.000420728
0.000567011
0.000414403
0.000417056
0.000244164
0.000387388
0.000346836
-1.86922e-05
0.000398415
0.000421982
0.000394848
0.000168449
0.000434165
0.000155186
0.000424126
0.000418553
0.000423554
0.000444933
0.000422248
0.000417288
0.000435597
0.000416751
0.000427256
0.000410091
0.000418163
0.000423258
0.000416742
0.000413147
0.000414114
0.000448536
0.000445209
0.00045052
0.00042348
0.000437322
0.000421419
0.000427645
0.000400747
0.000432829
0.000415126
0.000413025
0.000418722
0.000257118
0.000216407
0.000154167
0.000241448
0.000455609
0.000452213
0.000459685
0.000152475
0.000509657
0.000514701
0.000259116
7.69034e-05
0.000418813
0.000356237
0.000421954
0.000432092
0.000457625
0.000454431
0.000430281
0.000420873
0.0004876
0.000448997
0.000470198
0.000425213
0.000456964
0.000464256
0.000587571
0.00043745
0.000400209
0.000160541
0.000394679
0.000722299
0.000620911
0.00049178
0.000479174
0.000439784
0.000423602
0.000430562
0.000463931
0.000472317
0.000465154
0.000504976
0.000393071
0.000578773
0.000543174
0.0005112
0.000426072
0.000197369
0.000436375
0.000458276
0.000450253
0.000130675
0.000509784
0.000399754
0.000417533
0.000405692
0.000496971
0.000499987
0.000415275
0.000431022
0.000483205
0.000421482
0.00037482
0.000326817
0.000456319
0.000406895
0.000433897
0.000425464
0.000415864
0.000400526
0.000537886
0.00045207
0.000386783
0.00052633
0.000481712
0.000431176
0.00042303
0.000428072
0.000321973
0.000357896
0.000354092
0.00030891
0.000446078
5.34875e-05
0.000290444
0.000345634
0.000241967
0.000371282
0.000535265
0.000485116
0.000428591
0.00045075
0.000427265
0.000409216
0.000439253
0.000312749
0.000431561
0.00027096
0.00044515
0.000398079
0.000334863
0.000477945
0.000210146
6.56284e-05
0.00040573
0.000323016
0.000414313
0.000186096
0.000346298
0.000404705
0.000391827
0.000381344
0.000401149
0.000364901
0.000375319
0.000410127
0.000385295
0.000403493
0.000413045
0.000412467
0.000399714
0.00040889
0.000395621
0.000410469
0.000408316
0.000410617
0.000483731
0.000231111
0.00039493
0.000456198
0.000285643
0.000509219
0.000220149
0.000453203
0.000446972
0.000402445
0.000440577
0.000235601
0.000417103
0.000401956
0.000472989
0.000628376
0.000471311
0.000236335
0.000208839
0.00056882
0.000730281
0.000136657
8.04089e-05
0.000389679
0.000456138
0.00063357
0.000444186
0.000465585
0.000380149
0.000286306
0.00027851
0.000354974
0.000360512
0.000279432
0.000359858
0.000310961
0.000403348
0.000306487
0.000359434
0.000418281
0.000404079
0.00039957
0.000442547
0.000246724
0.000459534
0.000469332
0.000459698
0.000462813
0.000460874
0.000443593
0.000321689
0.000398908
0.000495775
0.000208473
0.000367044
0.000417388
0.000204691
0.000532484
0.000455393
0.000409587
0.000512036
0.000592231
0.000546367
0.000604498
0.000674241
0.000392935
0.000315717
0.000396087
0.000451306
3.58552e-06
0.00040187
0.000277596
0.000227243
0.000375342
2.98603e-05
0.000402094
0.000641149
0.000542361
0.000186613
0.000430346
0.000425069
0.000417661
0.00051067
0.000399268
0.000395837
0.000497079
0.000418521
0.000471253
0.000430359
0.000453947
0.000426646
0.000425697
0.000412578
0.000396412
0.000412289
0.000481612
0.000207033
0.000175677
0.000386883
0.000295364
0.000205923
0.000424439
0.000455628
0.000421269
0.000423344
0.000422078
0.000420658
0.000423691
0.000427104
0.000431639
0.000387168
0.000400757
0.000368631
0.000306945
0.000468872
0.000510985
0.000409637
0.000429694
0.000310984
0.000437754
0.000468701
0.000429604
0.000436596
0.000359069
0.000334207
0.000418505
0.000403477
0.000389182
0.00038538
0.00039347
0.000359428
0.00042021
0.000393789
0.000374468
0.000446678
0.000444044
0.000420361
0.000384022
0.000265872
0.000369346
0.000239148
0.000433219
0.000462747
0.00035512
0.000437716
0.000304417
0.000418839
0.000352337
0.000401271
0.000338287
0.000350687
0.000218271
0.000534739
0.000274956
0.000435582
0.000494543
0.000430587
0.000339559
0.000417847
0.000407798
0.000378314
0.000445091
0.000365794
0.000371379
0.000405847
0.000389757
0.000441374
0.000457015
0.000481378
0.000430854
0.000335485
0.000359625
0.000344117
0.000354132
0.000368422
0.000421118
0.000352183
0.000417239
0.000359627
0.000442767
0.000429741
0.000387436
0.000458325
0.000380895
0.000398029
0.000341536
0.000436497
0.000416806
0.000382123
0.000355801
0.000432527
0.000439655
0.000430019
0.00037487
0.000370643
0.00042588
0.000417557
0.000438064
0.00044365
0.000431757
0.000295878
0.000380803
0.000323927
0.00043612
0.000471129
0.000408052
0.000347438
0.000390712
0.000430277
0.000372333
0.000367056
0.000370002
0.000425827
0.00041976
0.000421076
0.000432923
0.000424388
0.000281547
0.000487818
0.000515802
0.000501611
0.000377812
0.000514098
0.000404956
0.000527124
0.000344519
0.000415163
0.000420762
0.000495207
0.000512115
0.00052761
0.000391287
0.000487813
0.000414927
0.0003232
0.000402832
0.000392813
0.000428668
0.000403265
0.000380102
0.000393029
0.000403694
0.000393627
0.000411319
0.000328433
0.000415513
0.000420103
0.000377976
0.0004024
0.000410684
0.000422864
0.000428178
0.000432102
0.000434715
0.000434108
0.000435151
0.000445252
0.000329373
0.000530536
0.000421236
0.000420168
0.000452114
0.00039213
0.000471433
0.000173903
9.03093e-05
0.000534771
0.00042725
0.000423153
0.000426186
0.000511544
0.000417194
0.000426153
0.000505725
0.000592952
0.000450392
0.000463007
0.000447374
0.000429739
0.000359397
0.000386507
0.000235642
0.000420972
0.000375848
0.000335685
0.000374715
0.000474243
0.000447919
0.000407106
0.000384238
0.00040774
0.00039174
0.000291172
0.000424518
0.000400608
0.000403723
0.000379322
0.00036769
0.00063855
-3.21919e-05
0.000449531
0.000674578
-0.00015605
0.000380976
0.000423808
0.000369563
0.000329212
0.000264662
0.000301698
0.000417447
0.000405206
0.000395201
0.000412627
0.000417884
0.000349915
0.000287431
0.000397713
0.000414827
0.000287078
4.487e-05
0.000328017
0.000424089
0.00041596
0.000416076
SCALARS CoVolArea double 1
LOOKUP_TABLE default
402630
361638
408114
406989
392299
363637
375841
386757
372957
385123
394466
397846
515478
504349
491903
470166
492588
487337
525492
522156
527613
510759
468225
461097
519584
488574
505736
523461
496319
507301
481339
463980
526550
504714
525511
530140
532078
509498
505455
473831
513780
491229
490773
528619
480732
487243
537600
493159
448741
521097
457215
514206
487131
464440
498370
460920
497259
442580
552869
489376
458677
517079
488824
545968
482526
563913
497696
496036
562255
485694
557532
485794
551332
490481
549906
541312
490808
489951
457718
446001
476664
452873
485650
453498
503043
469144
490714
524860
472669
542986
477253
539484
498223
474364
532595
499957
544395
491363
510180
485476
442541
512480
453459
530941
446167
495408
463003
439054
491397
445733
491124
441894
503299
552104
501766
476122
536226
481773
495189
541709
480553
549069
493687
498853
551015
494910
551517
502680
538359
494761
492153
540480
471372
532547
467571
536594
496555
455944
515756
461195
518151
456030
551610
465530
530365
539703
469296
511468
504147
490884
552974
546723
541028
511775
532279
522512
485088
487453
531129
502240
494118
493070
488352
489482
486519
529713
486115
482365
467487
478052
513243
479790
496051
482419
527298
493642
478575
486581
496688
533804
435176
458884
438203
509283
466922
452820
464118
471744
519690
594004
590212
584967
493053
482631
517468
484347
472332
479349
503813
446422
453724
486468
462130
455022
454678
505832
444738
454547
434590
503139
462932
460001
437849
447581
478180
565835
548054
559441
489248
477215
530298
498404
492446
494371
539889
442459
464166
509842
469908
456707
470401
512035
473407
487918
469117
538337
493731
488918
467013
493526
522489
596829
593009
612769
501085
485637
558456
512512
494512
508727
553704
478498
501625
551684
511833
493836
509129
555498
476904
491401
471094
552858
501310
488751
486465
500085
545785
627375
624237
626728
503144
545882
505143
501549
537002
486108
495334
537255
499532
481183
494461
541150
497398
479317
535372
499213
484217
498112
532256
613560
605747
605670
455820
433646
493161
461066
439112
457608
475807
449958
457268
477306
439999
435029
450990
485125
456310
457068
456388
479106
449203
438390
442854
450612
482350
536876
535160
534143
459696
449640
513898
461735
461613
463189
505399
475810
488176
532995
487651
490687
487266
523577
464814
476217
470290
520461
490560
461584
477117
494049
543219
573533
586304
571449
494831
477992
530682
497611
494263
500357
540166
475699
487896
528994
483700
474305
485025
525348
493308
501431
487708
543642
501304
491781
478188
495338
530326
594362
599325
602540
483660
473825
531209
482172
476654
472713
512782
459860
481702
496651
459673
446565
487211
531554
449825
453784
441158
531260
476937
462708
461724
474118
516163
574326
567145
571472
484040
462324
497676
471499
444447
464679
478533
429535
450753
485379
445085
442157
459191
497411
435271
448307
438763
479106
456898
443564
444407
455117
494794
550338
543775
541492
493389
507718
491252
545590
508087
497296
495456
508059
545463
465220
481403
464570
526816
484343
472555
488530
489614
539299
480703
494748
474992
540777
498016
491746
472666
490920
529726
607601
600673
608859
501146
486057
544590
504098
495049
502846
550133
481569
498389
548425
504552
498295
502282
545066
489748
504750
495607
549963
502421
493996
496250
504365
546548
611731
613288
612927
499213
487205
539147
498523
482808
496202
528540
484985
498258
531037
498543
485531
500189
540168
458470
476336
456758
524956
482638
468564
469863
481517
524364
599375
595759
596817
499464
489871
528380
496707
487149
496284
529605
449576
469226
499871
464273
445404
471821
517532
453786
464347
448707
521924
470603
470837
447351
464677
501336
587790
577859
588779
506833
540865
504863
508008
546995
454256
467429
513546
471914
460997
475221
532401
478975
462284
543150
493587
461792
480060
516086
606317
596602
609989
482901
513038
478494
472718
498808
470909
491341
460459
472508
510958
464437
495559
460284
448487
485919
564831
554337
557957
508281
548396
508358
505538
540618
499753
528315
492214
505423
546845
502319
539051
509421
507470
533510
613691
600852
605960
464049
522251
470659
458346
503873
496220
522341
492091
494858
530547
482890
519088
485082
478607
520493
584722
583268
573642
448368
485216
448667
446879
490872
450964
505556
449615
451957
486950
447567
506412
459063
455257
526741
539775
566359
561015
470292
509375
471715
459405
483563
457763
485960
447924
464098
506614
453568
480256
460276
461313
494701
556697
543021
542694
SCALARS SignedDistance double 1
LOOKUP_TABLE default
2770.74
3377
2265.4
2260.25
2647.19
3654.57
3152.97
3012.11
3348.1
3028.47
3085.48
2390.7
2427.56
2742.6
3105.23
3707.92
2793.76
2958.56
2253.84
2519.95
2284.58
2623.23
3400.64
3462.33
2936.14
3244.92
2780.17
2544.34
3718.46
3410.56
3613.7
3821.78
2262.98
2844.07
2321.01
2204.12
2625.76
2599.34
2643.53
3327.19
2592.57
3062.15
2647.94
2690.64
3000.74
2482.73
2503.3
2371
3347.32
2891.35
3185.85
3061.09
2814.02
3737.38
3506.92
3045.94
3235.5
3547.4
2714.52
2421.05
3039.63
2742.82
2541.45
2753.24
3044.26
2047.45
2418.71
2517.31
2115.68
2624.36
2205.01
2732.47
2540.19
2864.12
2695.77
2440.32
2478.55
3619.09
3658
3569.95
3592.2
3244.75
3409.06
3212.32
3158.1
3534.85
2649.74
2741.95
2956.59
3153.18
2850.6
2520.62
2572.75
2928.38
2710.36
2334.42
2572.73
2378.51
3118.09
3269.79
3387.16
3071.15
3301.85
3545.9
3467.47
3318.99
3495.84
3489.25
3303.19
3607.71
3695.25
3504.97
2157.59
2294.76
2280.65
2941.2
2588.36
2628.58
2465.07
2559.28
2752.61
2451.13
2497.18
2360.67
2285.86
2468.86
2452.31
2209.44
2520.38
2484.09
2433.05
2487.62
2937.85
2665.71
2885.23
2676.62
2336.29
3254.24
2969.88
3038.89
3034.4
3350.21
2266.06
3185.83
2710.98
2501.68
3002.07
3019.71
3125.04
3347.51
2202.96
2391.16
2666.77
2996.42
2664.37
3096.23
3600.55
3500.11
3821.6
3269.35
3359.94
3552.53
2778.41
2809.36
2944.27
2534.73
2650.14
2514.86
3032.75
2831.68
2884.32
2408.73
2395.85
2357.37
2596.94
2477.15
2589.25
2385.48
2413.15
2448.32
3496.47
3269.17
3426.61
2990.88
3115.33
3211.77
2949.34
3015.84
2803.96
2575.95
2664.84
2765.22
2956.17
2879.28
3192.84
3073.62
2758.35
2913.45
2887.7
3724.86
3619.73
3621.88
3688.35
3729.15
3476.4
3348.73
3206.69
3293.73
3462.14
2993.98
3128.46
2903.26
3638.34
3389.81
3491.59
3266.57
3367.14
3105.56
2784.79
2610.91
2689.36
2736.09
2264.08
2629.14
2520.71
3189.18
3023.55
2825.6
2877.57
2975.8
2866.28
2750.34
2758.45
2908.09
3108.95
2581.29
2719.24
2368.91
2981.69
2878.84
2827.03
2639.43
2701.09
2704.09
2383.79
2572.3
2078.98
2160.76
2316.98
2193.4
2116.42
2745.76
2485.96
2246
2282.71
2433.49
2259.79
2113.84
2853.85
2660.94
2896.47
2183.08
2391.08
2386
2607.92
2484.15
2330.89
2018.75
2098.94
2049.48
2647.32
2482.76
2534.43
2572.92
2456.54
3018.27
2904.91
2648.04
2784.76
2723.96
2713.63
2551.73
2384.63
2391.89
2384.89
2384.94
2511.73
2460.46
2507.98
2571.75
2524.25
2443.84
3660.71
3594.93
3687.25
3681.06
3562.92
3635.85
3544.31
3654.71
3657.64
3504.52
3582.07
3490.12
3663.99
3675.2
3132.63
3221.33
3117.58
3428.36
3329.17
3355.62
3307.63
3314.65
3401.27
3600.78
3504.19
3517.59
3428.52
3643.66
2930.61
3172.37
3390.2
3415.14
3373.78
2496.74
2520.45
2865.5
2686
2814.63
2595.65
2716.6
2902.34
2997.36
2707.78
3197.7
3057.36
3121.32
2939.31
3078.82
3047.02
2869.84
2963.04
3168.43
2509.65
2489.94
2575.5
2543.38
2557.94
2543.13
2538.63
3046.3
2921.88
2736.46
2811.08
2847.94
2809.62
2692.23
2260.74
2331.23
2274.78
2538.55
2430.59
2435.55
2554.41
2445.4
2638.46
2582.91
2636.98
2546.53
3045.3
3183.47
2799.36
2904.82
3366.37
3233.73
3423.49
3138.59
2924.37
3439.12
3210.1
3577.18
2784.8
2744.71
3217.31
3349.18
3299.63
3497.76
3419.45
3385.53
3560.7
3493.68
3617.47
3047.7
3371.34
3368.48
3257.84
3325.57
3126.17
3172.37
3643.32
3391.81
3538.31
3431.62
3247.31
3498.54
3366.13
3572.01
3158.89
3119.93
3481.69
3556.9
3428.47
3750.88
3694.38
3739.96
3575.77
3636
3652.56
3291.47
3484.47
3499.55
2195.14
2200.21
2241.74
2248.88
2198.45
2175.39
2292.75
2266.54
2331.28
2984.95
2825.8
2876.66
2773.31
2804.22
2887.47
2426.53
2604.1
2399.64
2541.29
2595.87
2710.07
2413.29
2503.91
2389.83
2798.19
2651.17
2710.99
2401.22
2588.11
2438.05
2351.16
2342.88
2321.8
2347.42
2592.67
2512.18
2581.26
2458.97
2371.38
2272.38
2273.67
2316.76
2361.24
2345.1
2333.9
2302.55
2258.72
2584.25
2431.35
2599.7
2162.07
2320.06
2291.96
2372.92
2324.96
2505.1
2443.91
2372.92
2584.53
2507.06
2546.17
2472.92
2536.29
2304.44
2401.88
2497.85
2455.46
2519.46
2503.72
2585.69
3047.24
2912.76
3052.37
2695.45
2803.58
2784.03
2718.52
2770.59
2622.04
2537.35
2557.85
2596.39
2417.93
2277.73
2658.76
2565.31
2441.5
2507.32
2630.39
3200.58
3102.73
3140.83
3126.6
3299.84
2952.86
2801.15
3226.9
3239.46
3350.82
2828.42
3027.3
2782.42
3343.47
3222.77
3188.01
2819.16
2993.87
2841.45
2208.92
2395.31
2275.05
2176.96
2213.7
3262.17
3123.45
2874.25
2986.2
3117.47
2860.84
2606.41
2806.51
3011.78
2358.45
2535.41
3016.75
2766.3
2778.57
2440.75
2557.63
2314.13
2871.2
2924.29
2891.48
2965.15
3134.24
3075.45
3272.96
3175.99
3029.36
2977.67
3573.6
3297.32
3442.07
3478.51
3389.25
3059.76
3232.67
3171.61
2248.55
2145.64
2157.44
2253.73
2349.45
2555.14
2659
2610.54
2414.45
2242.48
2602.47
2569.67
2611.97
2708.72
2816.37
2245.71
2468.75
2365.76
3097.9
2768.72
2910.88
3167.46
3285.71
2360.77
2692.73
2499.96
2516.81
2638.53
3097.03
3268.86
3177.73
2999.87
2943.71
2839.93
2910.67
3108.29
3484.27
3464.21
3481.13
3613.08
3733.42
3338.88
3580.28
3480.07
3383.49
3431.88
3499.7
3838.93
3746.45
3704.29
3756.42
3560.19
3641.33
3711.04
3121.09
3154.04
3133.41
3250.86
3371.26
3346.21
3504.68
3431.22
3266.49
3202.85
3637.87
3514.4
3623.14
3625.35
3586.58
3303.97
3455.41
3419.62
