# vtk DataFile Version 4.2
vtk output
ASCII
DATASET POLYDATA
POINTS 642 double
-2636.13 6618.58 -332.576
1042.86 6414.1 -254.192
-2696.86 -54.0752 -38.696
1680.41 -50.3217 1.77801
-595.376 1215.53 3188.79
-936.416 5099.4 2647.14
-522.977 1461.76 -2878.29
-895.569 5443.9 -3259.9
2343.43 3258.86 -1664.57
2527.83 3193.23 1743.46
-3600.22 3712.63 -1949.83
-3954.04 3475.3 2044.53
-3780.73 5376.69 1183.88
-2553.21 4586.92 2959.76
-1844.38 6201.34 1732.92
283.938 6063.04 1221.2
-566.762 7156.92 -140.838
452.927 6437.34 -1799.18
-1932.33 6804.65 -2179.09
-2551.96 4877.13 -3239.87
-3819.8 5562.78 -1442.44
-4379.19 3458.17 61.2896
1171.33 4261.74 2582.32
2126.37 4867.48 980.156
-2386.86 2068.09 2799.58
-501.979 3236.21 3322.12
-3529.08 1369.74 -1057.82
-3600.92 1361.41 1187.49
-816.521 3723.19 -3101.48
-2234.56 2348.49 -2556.53
1910.68 5023.21 -938.876
957.523 4656.11 -2377.08
2803.77 1306.65 1182.9
1313.05 2149.1 2859.76
742.179 121.463 1952.03
-1874.33 48.299 2007.28
-531.361 -381.04 -52.9105
-1713.86 244.201 -1900.62
669.212 262.703 -1869.36
1178.83 2169.87 -2623.92
2671.49 1392.78 -1107.51
3081.99 3041.49 50.7155
-3286.28 6041.7 588.478
-2884.84 5973.18 1557.23
-2231.67 6442.1 905.906
-3362.72 4064.82 2632
-3304.15 5050.8 2225.77
-3999.48 4463.06 1693.02
-1386.06 5746.93 2307.2
-2265.31 5535.07 2463.88
-1727.87 4918.6 2948.51
-1079.84 6865.32 691.81
-1524.15 6994.5 -209.182
-192.736 5511.12 2036.79
-733.504 6300.49 1465.17
305.188 6919.31 -197.539
-97.6285 6806.11 650.735
633.878 6425.1 540.537
-1356.46 7008.76 -1169.95
-2368.66 6947.52 -1299.44
856.283 6579.36 -992.332
-1.00414 7015.65 -1040.69
-1413.02 6244.34 -2862.15
-744.433 6646.24 -2083.51
-170.928 6009.84 -2504.17
-3041.2 6383.26 -1894.31
-3317.34 6266.36 -918.447
-1683.48 5255.32 -3544.86
-2365.47 5966.86 -2930.87
-3863.76 4742.17 -1820.32
-3412.14 5310.59 -2516.2
-3213.95 4323.13 -2701.91
-3864.67 5502.21 -67.5307
-4110.94 3482.82 -925.662
-4120.23 4553.41 -688.67
-4299.81 4498.77 642.237
-4312.26 3475.09 1089.64
1352.47 5433.25 1278.93
1543.22 5599.81 365.58
356.841 4627.37 2659.11
867.118 5128.33 2096.5
2421.66 4140.19 1415.42
1777.84 4642.48 1858.83
1902.28 3812.47 2288.98
-1748.81 4004.96 3274.5
-744.848 4132.53 3054.36
-3320.38 2932.07 2571.13
-2628.95 3489.94 3097.34
-484.279 2279.1 3360.52
-1545.64 2904.81 3236.53
-1554.78 1505.61 3106.34
-4231.6 2409.93 597.253
-3880.42 2496.68 1617.41
-3689.2 2437.41 -1494.91
-4126.44 2421.85 -551.623
-3299.14 526.347 638.49
-3748.74 1271.64 -39.7855
-3299.73 534.954 -643.442
-2500.79 3758.8 -3104.91
-2910.52 3071.18 -2373.02
-928.078 4783 -3424.16
-1657.08 4404.7 -3532.28
-1390.13 1706.44 -2801.77
-1531.44 3114.74 -3085.31
-512.005 2325.31 -3062.27
765.662 5573.64 -2309.57
45.6319 5066.17 -2892.42
1509.15 5923.66 -726.276
1275.97 5908.47 -1465.45
1738.17 3782.65 -2121.59
1440.26 4881.58 -1870.69
2299.41 4090.57 -1331.62
2391.48 494.98 627.274
1924.34 585.416 1613.15
1301.43 -90.1595 1001.66
2043.25 2651.6 2365.63
2231 1632.47 2123.8
2861.2 2233.51 1540.83
57.7627 606.743 2676.53
1129.14 1031.43 2556.37
448.542 1653.23 3122.92
193.532 -336.152 1083.93
693.065 -341.935 -7.41367
-1177.23 565.812 2756.33
-564.315 -46.115 2125.4
-1737.95 -372.875 8.37176
-1299.52 -330.011 1083.24
-2342.48 -144.236 1096.4
164.159 -288.064 -1056.23
1224.96 21.2045 -978.478
-2315.57 -26.1267 -986.929
-1219.46 -301.434 -1076.48
80.7455 776.35 -2444.55
-560.179 137.583 -1976.07
-1178.51 737.896 -2505.98
1766.92 728.676 -1504.3
2325.49 555.858 -603.591
374.76 1789.2 -2847.32
1010.44 1165.32 -2405.95
2679.6 2203.01 -1389.12
2010.54 1753.36 -1959.48
1842.45 2705.9 -2218.16
2954.35 1209.1 9.84806
2834.44 3132.75 -836.815
3157.04 2240.53 -556.159
3269 2245.29 591.152
2978.78 3074.65 890.262
409.33 2688.97 3285.66
1323.42 3257.96 2880.9
385.421 3757.4 3119.37
-2935.28 514.166 1717.66
-2276.14 959.662 2698.09
-3130.46 1579.3 2185.09
-2051.1 1121.27 -2443.37
-2816.38 679.26 -1534.48
-2972.49 1765.23 -1951.47
1182.78 3246.48 -2618.65
300.598 2741.61 -3005.34
15.2256 4090.43 -2956.68
2699.34 4130.43 542.271
2654.73 4115.51 -512.952
2208.93 4920.28 2.33412
-2942.93 6278.46 140.768
-2806.34 6286.61 788.453
-2386.93 6485 343.8
-3365.24 5720.8 1392.08
-3114.89 6034.01 1101.88
-3563.77 5740.68 905.519
-2074.78 6354.58 1331.89
-2595.88 6240.87 1256.23
-2369.36 6135.41 1664.55
-3696.16 3769.94 2370.62
-3731.47 4264.39 2207.8
-4017.19 3959.11 1898.12
-2954.41 4827 2642.34
-3359.51 4573.79 2465.13
-2973.8 4345.14 2831.61
-3924.12 4947.65 1449.69
-3687.16 4784.51 1985.14
-3585.38 5236.01 1731.91
-1208.01 5447.53 2507.83
-1566.32 5360.66 2658.28
-1370.44 5049.12 2811.08
-2063.3 5908.97 2116.17
-1820.8 5667.96 2410.72
-1607.52 6004.25 2048.06
-2126.66 4771.19 2995.2
-2001.54 5243.01 2745.55
-2427.03 5087.8 2752.29
-3127.31 5559.97 1917.92
-2797.99 5340.21 2394.31
-2596.55 5790.59 2052.82
-1815.93 6755.97 305.781
-2079.66 6764.1 -345.098
-1462.97 6461.67 1190.38
-1646.36 6649.75 767.476
-1016.56 7133.77 -127.947
-1263.55 6986.38 292.823
-844.748 7069.16 290.139
-611.033 5265.66 2319.18
-944.049 5712.85 2190.43
-223.819 6306.79 1331.45
-586.017 5951.97 1728.96
112.593 5781.34 1626.71
-1123.17 5994.77 1960.07
-1256.62 6235.21 1673.95
697.983 6693.49 -225.17
515.866 6692.87 212.404
854.278 6444.84 151.155
-319.042 7031.43 277.738
97.994 6901.93 256.024
-131.117 7078.19 -172.44
450.54 6310.19 902.759
296.401 6633.76 620.396
75.4539 6527.46 942.318
-861.428 6633.71 1125.62
-368.671 6625.99 1052.25
-588.261 6900.22 697.315
-2027.21 6939.63 -885.97
-2514.59 6800.14 -872.889
-836.189 7143.61 -591.155
-1481.61 7034.79 -691.067
-2173.84 6950.53 -1724.1
-1945.17 7038.9 -1310.59
-1752.72 6986.26 -1727.41
983.014 6536.03 -618.767
611.785 6806.1 -614.016
243.458 6772.74 -1443.78
438.495 6833.53 -1032.84
667.914 6542.65 -1412.28
166.42 7019.37 -619.884
-263.061 7139.39 -609.479
-1157.19 5867 -3092.23
-889.123 6126.92 -2744.25
-629.699 5721.72 -2883.09
-1437.32 6744.37 -2212.19
-1165.66 6481.62 -2514.68
-1674.36 6562.73 -2563.11
211.508 6263.25 -2145.56
-457.839 6349.54 -2318.31
-49.3768 6595.43 -1910.17
-542.052 7094.41 -1073.89
-276.237 6897.93 -1528.5
-1036.68 6881.83 -1655.5
-2880.14 6657.76 -1126.62
-2978.1 6499.48 -623.838
-2493.06 6656.05 -2064.72
-2730.47 6733.42 -1590.7
-3605.3 5961.19 -1187.72
-3236.73 6386.87 -1413.42
-3489.48 6016.79 -1675.83
-1285.89 5378.31 -3421.54
-1550.29 5797.2 -3237.05
-2512.94 5405.42 -3156.41
-2016.92 5626.45 -3246.72
-2109.86 5081 -3451.35
-1863.82 6174.45 -2954.67
-2154.57 6445.35 -2606.73
-3734.51 4242.45 -1935.63
-3586.53 4558.25 -2277.59
-3438.07 4057.25 -2369.09
-3683.56 5454.5 -1995.25
-3706.01 5031.82 -2180.01
-3920.12 5136.72 -1668.82
-2907.77 4627.39 -2990.89
-3337.73 4868.55 -2629.05
-3023.98 5120.28 -2929.51
-2744.78 6221.51 -2467.37
-2938.05 5666.54 -2774.7
-3275.51 5877.73 -2254.67
-3289.46 6134.95 -201.733
-3822.18 5563.22 -822.624
-3602.94 5882.48 -526.264
-3606.68 5790.82 262.707
-3879.5 5452.05 609.25
-3813.97 3568.51 -1449.79
-3900.66 4196.59 -1385.78
-4304.1 3986.16 -247.305
-4145.14 4038.6 -818.831
-4284.4 3447.43 -442.86
-3999.56 4701.77 -1305.64
-3991.35 5086.18 -1146.87
-4220.51 3966.72 1435.37
-4186.41 3475.8 1598.49
-4098.12 4961.32 939.565
-4188.07 4505.14 1183.8
-4414.79 3474.66 544.229
-4329.67 3981.39 859.246
-4404.24 3988.55 352.983
-4063.39 5046.84 -388.957
-4308.09 4511.37 43.1297
-4143.35 5008.23 335.411
1083.46 6055.17 358.177
1234.19 6119.94 -34.4854
811.033 5738.38 1317.6
906.86 5886.08 856.875
1908.62 5178.67 749.797
1495.7 5507.75 859.918
1757.38 5180.58 1144.79
-196.576 4812.25 2630.36
164.212 5067.85 2387.48
1033.16 4727.18 2357.68
641.597 4904.45 2387.29
780.57 4451.67 2644.99
457.227 5296.95 2096
656.584 5503.56 1770.19
2493.93 3712.27 1603.37
2203.11 3986.86 1872.85
2218.92 3554.39 2060.6
1987.9 4771.43 1435.48
2119.73 4408.39 1657.09
2300.5 4516.73 1204.6
1551.68 4045.32 2461.65
1861.93 4246.97 2089.25
1506.73 4470.64 2241.33
1134.17 5307.94 1713.7
1336.51 4915.16 2006.5
1587.08 5069.48 1588.61
-1395.1 4589.59 3031.25
-855.746 4661.52 2772.16
-2107.09 4296.67 3180.7
-1740.64 4453.16 3147.8
-584.225 3727.55 3218.36
-1336.18 4156.28 3181.27
-1245.48 3685.79 3174.11
-3670.84 3199.09 2346.23
-3396.5 3481.06 2648.03
-2590.05 2963.63 2999.85
-3004.59 3214.11 2864.94
-2874.34 2584.85 2699.97
-3021.56 3772.37 2896.06
-2617.75 4033.11 3065.55
-578.059 1689.65 3237.22
-969.359 1794.04 3220.59
-1035.65 1355.02 3214.2
-1038.21 3051.44 3314.47
-914.839 2479.08 3301.18
-460.256 2770.37 3388.6
-2012.26 1667.83 3006
-1486.73 2030.08 3095.06
-2006.94 2481.31 3016.03
-2140.39 3753.8 3294.46
-2141.28 3257.95 3252.08
-1734.7 3480.35 3337.09
-4169.14 3002.7 1407.69
-3970.97 3023.43 1869.92
-4347.06 2936.84 326.606
-4285.4 2963.36 842.239
-3774.95 1888.71 1390
-4093.4 2431.93 1114.46
-3984.13 1926.19 880.382
-3641.28 2970.17 -1679.42
-3913.96 2916.37 -1221.61
-3858.86 1902.55 -843.168
-3935.86 2405.46 -1043.76
-3645.22 1935.39 -1289.98
-4137.38 2923.44 -726.259
-4291.85 2921.8 -254.913
-3032.67 190.307 301.479
-3338.03 488.752 -40.8817
-3034.08 196.875 -356.038
-3727.08 1303.18 575.828
-3575.48 834.469 287.398
-3483.67 874.33 942.437
-3470.37 907.308 -885.501
-3578.22 842.598 -355.52
-3694.95 1271.93 -591.425
-4253.57 2399.03 24.9625
-3996.38 1857.26 -290.61
-4066.55 1875.79 304.245
-3102.17 3788.54 -2657.93
-3291.5 3423.81 -2118.42
-2540.68 4289.86 -3215.34
-2860.71 4007.02 -2962.11
-2623.47 2768.67 -2545.1
-2737.7 3509.24 -2846.61
-2426.15 3270.28 -2880.46
-885.919 5052.64 -3438.49
-1293.62 4975.75 -3564.85
-1369.25 4215.48 -3432.15
-1323.59 4622.16 -3510.73
-975.47 4429.03 -3373.75
-1667.67 4840.26 -3612.91
-2030.82 4630.01 -3478.57
-970.213 1578.53 -2868.04
-925.102 2052.73 -3016.31
-510.496 1892.81 -3025.71
-1853.33 2777.01 -2870.19
-1347.7 2291.24 -2960.15
-1787.45 1895.68 -2684.68
-536.992 2892.57 -3102.73
-969.898 2587.7 -3064.3
-1221.24 3429.11 -3147.73
-2067.61 4049.92 -3384.38
-1710.55 3889.97 -3386.7
-2071.09 3570.06 -3199.17
-40.3752 5520.78 -2747.15
-484.854 5208.11 -3150.96
623.807 6031.52 -2090.44
[...]
POINT_DATA 642
SCALARS Mean_Curvature double 1
LOOKUP_TABLE default
0.000757262
0.000779266
0.000649488
0.000750447
0.00134491
0.00103676
0.000760954
0.000894795
0.000660952
0.000340062
0.000722554
0.000956031
0.000703471
0.000784805
0.000631749
-0.000330553
0.00092524
0.000726909
0.001105
0.000637166
0.000901412
0.000445015
0.000522964
0.000614033
-0.00023566
0.000276821
0.000154394
7.25269e-05
-0.000569852
-0.000245415
-6.05683e-05
0.000143926
0.000775927
0.000414649
0.000704518
0.000866592
0.000112052
0.000715974
0.000781657
0.000452022
0.000685954
0.000279115
0.000649714
0.000687292
0.000270093
0.000678954
0.000624619
0.000594971
0.000780992
0.000718821
0.000883617
0.000666902
0.000537469
0.00014506
0.000226023
0.000654361
0.000801317
0.000589169
2.55942e-05
0.00127521
0.000798191
0.00086742
0.000812515
0.000420262
0.00033625
0.000723331
0.00047492
0.00162446
0.000715629
0.000708613
0.00107255
0.000570312
0.000471494
0.000472222
7.1847e-05
0.000663427
0.000479312
0.000498538
2.49342e-05
0.000390475
0.000609453
0.000635533
0.000595154
0.000591868
0.000870729
-9.7726e-05
0.000678629
0.000668474
0.000650122
7.97332e-05
0.000615939
0.000700545
0.000158695
0.000658718
0.000551876
0.000432422
8.70483e-05
0.000844023
0.000757247
-0.000423932
0.000710809
0.00122671
0.000211598
0.00032488
0.000218165
0.000621712
0.000943675
0.00102889
0.000736487
0.000441372
9.08578e-05
0.00054626
0.000713896
0.00060873
0.000482095
0.000287312
0.000868197
0.000910519
0.000287066
0.000459299
0.000638557
0.000593003
0.000416526
0.000636365
0.000783946
0.00044103
0.00012252
0.000736375
0.000705264
0.000335642
0.000552695
0.000770927
0.000317305
0.00065911
0.000905744
0.000342595
0.000707885
0.00038899
0.000622113
0.00076465
0.000517349
0.000429624
0.000683027
0.000251047
0.00107458
0.00118253
0.000245778
0.000413913
0.000578191
0.000647326
0.000743829
0.000801939
0.000292625
0.00105028
0.000554197
0.000129844
0.00042563
0.000428308
0.000404634
0.000611238
0.000679244
0.000410128
-0.00010879
0.000673807
-0.000228067
0.000695191
0.000662312
0.000684852
0.000583429
0.000670922
0.00068305
0.000766913
0.000649729
0.000726893
0.000644235
0.000658697
0.000695783
0.00065627
0.000627403
0.000641133
0.000564178
0.000791069
0.000570426
0.000659573
0.00066692
0.000755467
0.00070291
0.000739723
0.000741698
0.000655805
0.000686451
0.000685829
0.00030228
-0.000424831
-0.000239339
0.000226227
0.000888018
0.000739675
0.000943822
-0.000782054
0.000689188
0.000678606
-0.000323871
-0.000157844
0.000612322
0.00059398
0.000635803
0.000776952
0.000707065
0.000864188
0.000752823
0.0006582
0.00082687
0.00082774
0.000728276
0.000862269
0.000805006
0.000923766
0.0003082
0.000524698
0.000482487
0.000336599
0.00119819
0.00123109
0.000938476
0.000995758
0.000977545
0.000767514
0.00075575
0.000710063
0.000871742
0.000924864
0.000727425
0.000434052
-0.000199228
0.000610113
0.000622242
0.00102917
0.000653653
0.000176588
0.000656674
0.000741471
0.000705185
0.000110919
0.000791293
0.000561266
0.000631766
0.00099233
0.000757892
0.00105452
0.000825983
0.000651709
0.00103258
0.000709324
0.000454043
0.00101998
0.00101579
0.000849973
0.00054793
0.000426136
0.000658433
0.000790361
0.00116831
0.00127821
0.000324259
0.000560889
0.00105901
0.000718427
0.000765049
0.000692784
0.000292678
0.000356956
0.000411694
0.000333386
0.000736489
-0.000181106
-0.000264463
0.000288071
0.000403704
0.000521413
0.000596659
0.000582462
0.000702278
0.000867779
0.000722554
0.0006042
0.000839856
0.00023053
0.000764507
0.000338757
0.000746707
0.000566415
6.24862e-05
0.000694326
0.000471483
-0.000515447
0.00052576
0.000467898
0.000612357
0.000291818
0.000449271
0.000599356
0.000526788
0.000461326
0.000465292
0.000506469
0.000595935
0.00061633
0.000590109
0.000592371
0.000619121
0.000608724
0.000543734
0.000596218
0.000557904
0.000577292
0.000619186
0.000623625
0.000515708
-0.000761105
0.000809305
0.000813242
0.000683482
0.000937471
-0.000938387
0.000827921
0.000796618
0.00049341
0.000661864
7.92736e-05
0.000621843
0.000484375
0.000100749
0.000179358
0.00129616
0.000489293
0.000159773
0.000755638
0.000765463
-0.000372235
-0.00018567
0.00113536
0.000807064
0.00123434
0.000640958
0.000795146
0.000478153
0.000258512
0.000427581
0.000430675
0.000483911
0.000437759
0.000329222
0.000456475
0.000603584
0.000479346
0.000289146
0.000559839
0.000656149
0.000582603
0.000811184
8.38556e-05
0.000808748
0.000670866
0.00108097
0.000979397
0.000497498
0.000781425
0.000389242
0.000631728
0.000706331
-0.000538648
0.000599501
0.000837824
0.000549038
0.000888766
9.79013e-05
0.001863
0.00164622
0.000454782
0.000399753
0.000467587
0.00188254
0.000549181
0.000363393
0.000694
0.000929217
-0.000109493
0.00048294
-4.12893e-05
0.00017959
0.0002324
6.5741e-06
0.000928062
0.000929023
0.00065163
0.000227933
0.000636178
0.000686237
0.000573088
0.000869208
0.00078404
0.00123753
0.000761202
0.00120895
0.000649232
0.000770213
0.000994066
0.000664428
0.000704628
0.000608597
0.000476186
0.000624425
0.000427284
0.00032305
0.00031723
0.000434715
0.000433203
-0.000355507
0.000696835
0.000786064
0.00100457
0.000641184
0.000654187
0.000687609
0.000690269
0.000691387
0.000743244
0.000590642
0.000531856
0.000469078
0.000245002
0.000645736
0.000559021
0.000313944
0.000270556
0.000421066
0.000706068
0.000668771
0.000832481
0.000571175
0.00046273
0.000573612
0.000680698
0.000547913
0.000544736
0.000512917
0.000557501
0.000400734
0.000675538
0.000531557
0.000437007
0.000799139
0.000813881
0.000702403
0.000642778
9.82909e-05
0.000218181
5.38038e-05
0.000828639
0.000851463
0.000519449
0.000773059
6.17119e-05
0.000597176
0.000466448
0.000718521
0.000453329
0.000430886
-6.4127e-05
0.00112071
-3.30638e-05
0.000844888
0.000658148
0.000591395
0.000395965
0.000784287
0.000402743
0.000415819
0.000701673
0.000355084
0.000592723
0.000676953
0.000667322
0.00080939
0.000931576
0.000678352
0.000761534
0.000470451
0.000508565
0.000427211
0.0002789
0.000436683
0.000660562
0.000201478
0.000540767
0.000437734
0.00077514
0.000764149
0.000487406
0.000799669
0.000610773
0.000548504
0.00037399
0.000659158
0.000660578
0.000566544
0.000358147
0.000741434
0.000687075
0.000645859
0.000556631
0.000339882
0.000872613
0.000568575
0.000394865
0.000649208
0.000724473
0.00011839
0.000141691
0.000495541
0.000700385
0.00071923
0.00108104
0.000386279
0.00030513
0.000619596
0.000486029
0.000579589
0.000376427
0.000669261
0.000668782
0.000686274
0.000730081
0.000695364
0.000417857
0.00027706
0.000889747
0.000638813
0.000159944
0.00108379
0.000901665
0.000919268
0.000187141
0.000545551
0.000953008
0.000461033
0.000962714
0.00109245
0.000566791
0.00120611
0.000795429
0.000172152
0.000557724
0.000512171
0.0010856
0.000382152
0.000561558
0.000501983
0.000567888
0.000576139
0.000620807
0.000258053
0.000662293
0.000484582
0.000380217
0.000518351
0.000695966
0.000627977
0.000748441
0.000522388
0.000768051
0.000762226
0.000768867
0.00086915
0.000592247
0.00121573
0.00108696
0.00044416
0.000820781
0.000404786
0.000262262
0.000309221
0.000114211
4.804e-05
0.000703519
0.00121359
0.00101008
0.000758534
0.000669565
0.00089714
0.000902123
0.000471532
0.000838346
0.000920531
0.000789973
0.000602201
0.000423745
0.000546975
7.88478e-05
0.000490748
0.000562151
7.93562e-05
0.000551147
0.000859103
0.000596621
0.000587492
0.000529633
0.000610571
0.000494161
0.000304817
0.000739086
0.000624033
0.000445997
0.000566889
0.000388553
0.00130596
-0.000972654
-0.000269988
0.000154382
7.17757e-06
0.000536011
0.00053762
0.000280426
0.000533709
0.000311445
0.000418376
0.00066775
0.000585466
0.00063895
0.000509888
0.000617368
0.000594473
0.000460427
0.000101289
0.000546721
0.000292285
-0.000485571
0.000643067
0.000728957
0.000586066
0.000571184
SCALARS CoVolArea double 1
LOOKUP_TABLE default
281406
147940
238141
230191
192042
218733
192917
188950
200597
226659
257279
204350
279637
257926
263659
284850
223131
228557
260947
280870
284327
287880
227227
207197
371917
291920
284815
340267
399161
391080
307534
266435
294790
295853
309857
308408
414556
273126
259413
232979
266510
256186
296965
272897
302935
261786
295672
279297
188939
254146
193771
266812
306724
358381
254316
208939
200004
219402
365610
222246
200312
237917
236158
345039
308757
327453
288344
222922
331080
249676
295218
258836
350979
336731
359422
301717
282569
267363
293867
242491
212968
215952
221760
219698
218446
327937
288250
264420
262536
399195
246047
309383
329406
259467
303898
292727
340647
250206
227514
360461
131614
184749
245750
362981
221133
214760
223776
188458
206861
236918
269474
209470
289943
327984
299657
284762
284303
229763
300280
320528
270893
338646
298850
296214
320944
292317
348779
292220
303153
299528
276145
310089
261141
297618
222197
315956
275547
236090
256792
210209
269555
252029
313833
266577
232642
247861
252170
259912
244746
222390
303740
278838
316850
225341
280395
320926
243230
239522
426305
250430
228388
274009
339143
299191
379187
283697
251655
261998
268151
242134
254954
252183
275705
260228
279291
269950
254098
269608
277849
295059
203697
190639
206269
243302
211029
207473
214908
215948
258607
322998
312936
301894
350405
360427
328188
305086
242473
255748
215772
313538
266562
278196
320942
341485
219901
275778
188497
193011
193397
218035
203568
207737
229313
176260
201991
289766
229312
237929
268421
261584
310178
297055
232614
237857
289337
172959
199750
241112
212759
211162
208806
236847
237879
282102
295910
295737
267156
233562
249869
304290
288960
354241
338650
408817
254626
289250
323873
269881
273073
266126
309301
208301
250918
311454
287439
246344
267547
311084
290355
253028
266442
298094
237593
231042
264412
258581
284504
379143
360444
372943
329484
337819
316979
310745
306255
358663
340089
334660
332634
290063
279934
312400
283603
251516
294665
287700
275925
290926
296645
402311
367246
357050
290836
214889
303139
317908
227291
286563
217517
313836
289522
220327
206442
211765
261198
275586
246950
218455
246530
216662
205124
196766
212100
210070
226414
258328
243243
240787
247628
326326
237897
190469
285395
245501
319487
244281
250193
349962
262740
348524
255759
274221
250309
280204
222734
332251
349129
236729
279583
395236
430403
253667
324111
286912
288648
258235
299090
299872
333579
315562
345909
316410
309710
313932
274075
280870
280644
292315
297498
280047
267425
364678
296434
292196
233234
262754
298790
331316
363515
370321
288039
345176
282849
233291
330776
246199
322352
157505
159763
260233
150023
252227
175896
255885
231877
229682
199108
423871
330374
324639
331907
316327
380144
250013
272111
310687
312918
238151
230053
253334
243978
219731
188319
164762
169533
247897
170012
222058
201771
227396
204170
228695
208701
223818
268329
250778
264277
271390
330771
240881
263244
234425
286233
299523
279825
308300
293490
280596
294227
306197
329688
272473
257065
244133
308719
271695
277896
254408
246618
286957
262573
291547
271861
318855
295322
292165
264116
280833
316455
345434
350531
368355
287161
269971
322626
295621
350983
323311
412706
243489
275861
328360
291450
311051
289560
328112
283985
293243
308541
409399
302147
348047
273054
281236
319879
370988
374199
407390
296380
280198
347051
300660
270015
281868
283905
259546
281676
289132
289088
279969
309790
358315
256383
257420
242780
286262
263639
237666
228333
249926
272007
352345
334642
346515
287455
277456
298645
294988
260473
276443
289881
225777
260103
236514
230974
217822
237185
263303
264372
260062
247737
265588
220384
205409
232633
249300
250894
336502
309456
339531
291661
300749
282960
287854
311956
257244
244011
224985
222429
254232
196136
264590
228797
262494
295759
233465
231308
209927
215360
326510
270890
331684
282505
275103
257922
234829
241771
258687
240586
226179
254111
269658
315218
248006
251722
225610
235153
281189
263093
268274
306434
306789
286802
282816
302882
271380
262026
231684
300558
316110
323328
325315
357209
359587
343585
336006
307802
324557
219551
273561
204303
202794
276239
261124
270101
246320
274962
304162
315514
349324
328977
277879
314973
306517
317199
298287
215431
242241
217154
223861
329714
210715
327915
223797
225019
249285
149295
457302
303680
246365
385100
268449
334179
391733
259350
288728
262443
223273
219904
229498
248184
203092
244331
281256
271705
231551
298832
301835
285556
275569
256485
250044
SCALARS SignedDistance double 1
LOOKUP_TABLE default
1517.69
1875.98
1178.75
1187.05
1516.29
2037.94
1688.27
1795.77
1779.34
1591.48
1773.62
1250.87
1265.5
1530.4
1705.56
2052.48
1511.13
1575.66
1319.21
1422.73
1275.51
1410.14
1796.13
1831.32
1591.66
1729.06
1529.23
1373.13
2199.29
1822.65
1979.89
2170.9
1201
1495.16
1203.65
1180.14
1382.43
1372.26
1402.21
1776.82
1426.45
1679.11
1442.02
1448.94
1676.95
1311.18
1313.31
1234.66
1863.94
1606.17
1813.22
1664.76
1494.24
2034.97
1956.07
1675.55
1790.42
1946.06
1552.08
1451.37
1649.88
1460.36
1477.09
1571.77
1664.9
1073.93
1300.75
1587.89
1125.55
1492.29
1260
1516.89
1384.19
1555.48
1506.39
1328.71
1337.3
1906.7
2011.29
1880.49
1883.55
1718.49
1788.6
1697.36
1806.66
1954.12
1426.84
1488.34
1590.56
1810.52
1665.09
1319.2
1361.44
1559.31
1443.67
1243.01
1398.55
1268.64
1796.61
1883.07
2007.38
1849.02
1739.75
2087.56
1848.67
1822.99
2052.99
1945.67
1796.43
1925.05
2113.31
1860.9
1120.28
1204.22
1202.49
1549.56
1435.74
1460.57
1307.58
1362.91
1476.34
1334.6
1341.34
1254.6
1195.13
1353.87
1328.57
1177.19
1330.61
1306.62
1297.72
1314.16
1573.09
1412.39
1597.7
1439.46
1238.45
1732.09
1596.68
1692.4
1668.1
1778.4
1208.07
1683.28
1553.92
1442.92
1624.15
1607.68
1666.1
1794.85
1151.71
1337.95
1494.22
1716.35
1470.87
1669.43
1921.98
1841.26
2259.49
1747.48
1791.1
1885.74
1510.3
1541.32
1590.18
1341.37
1426.72
1330.1
1659.27
1540.74
1574.75
1263.32
1246.39
1224.47
1387.44
1298.94
1385.08
1238.4
1255.7
1276.33
1927.72
1836.6
1910.1
1651.43
1734.86
1784.72
1667.99
1703.92
1565.25
1365.81
1440.49
1507.36
1575.51
1569.35
1761.27
1661.15
1468.48
1566.69
1566.17
2028.83
1995.06
1997.47
2050.1
2054.33
1936.18
1898.13
1775.33
1825.6
1910.75
1646.21
1727.68
1579.39
2010.19
1877.39
1920.23
1825.02
1866.54
1716.31
1636.95
1473.7
1421.24
1502.19
1363.92
1607.82
1520.47
1782.63
1679.46
1498.13
1542.5
1589.37
1570.08
1493.21
1608.11
1691.67
1807.75
1500.78
1586.63
1379.96
1595.27
1571.28
1497.48
1385.97
1417.87
1545.41
1338.67
1398.56
1112.86
1225
1266.2
1216.5
1130.6
1659.84
1468.66
1240.1
1254.18
1459.01
1297.59
1162.01
1598.75
1478.17
1615.22
1204.86
1385.04
1390.2
1432.08
1389.29
1339.76
1035.56
1120.8
1065.66
1437.93
1346.48
1375.51
1378.66
1301.18
1697.72
1607.58
1410.39
1527.61
1462.37
1529.4
1438.28
1260.89
1259.75
1240.98
1253.01
1358.11
1296.31
1351.79
1416.35
1377.31
1277.56
2033.01
1994.62
1995.79
2033.07
1884.25
1934.45
1868.83
1951.54
1928.3
1842.48
1878.34
1843.57
1922.07
1939.93
1654.65
1698.77
1646.04
1803.74
1754.77
1774.97
1746.8
1744.73
1785.34
1890.51
1837.97
1848.06
1915.85
2010.29
1680.04
1815.43
1848.98
1947.67
1901.6
1324
1344.26
1567.22
1450.37
1528.96
1384.53
1479.15
1563.94
1626.6
1566.87
1746.86
1625.1
1697.62
1727.42
1650.92
1634.96
1649.73
1703.55
1852.83
1350.56
1318.55
1380.31
1370.9
1334.18
1334.22
1330.07
1664.38
1562.8
1438.21
1491.09
1500.4
1507.65
1456.02
1176.57
1231.64
1180.67
1354.42
1318.68
1352
1410.39
1326.89
1482.96
1371.54
1389.92
1346.29
1709.95
1805.52
1594.27
1657.83
1930.93
1855.84
1977.24
1978.11
1854.52
1964.81
1895.6
2043.49
1768.4
1615.89
1707.59
1798.58
1808.33
1964.23
1834.58
1790.55
1910.05
1855.21
2159.05
1799.99
1968.31
1957.3
1838.75
2037
1682.77
1722.79
2046.13
1906.45
2021.61
1907.82
1822.5
1913.38
1848.65
2013.28
1708.43
1677.33
1852.29
1890.66
1823.49
2162.81
2018.69
2055.81
1896.65
1952.18
2033.37
1791.91
1909.91
1967.82
1152.16
1149.21
1176.43
1177.63
1143.04
1128.06
1188.41
1190.82
1220.01
1570.99
1550.08
1573.7
1497.09
1514.53
1526.46
1332.02
1430.88
1310.13
1396.84
1371
1476.87
1271.9
1327.3
1251.82
1476.58
1407.76
1445.62
1284.79
1404.64
1306.36
1292.89
1260.26
1225.21
1264.75
1368.63
1344.01
1362.11
1355.54
1262.24
1187.63
1182.83
1224.27
1248.64
1225.58
1271.24
1210.07
1180.05
1365.14
1358.34
1371.72
1131.56
1290.89
1234.64
1252
1263.11
1359.65
1294.16
1260.68
1374.29
1344.13
1332.14
1284.4
1328.77
1211.34
1296.05
1299.03
1279.21
1320.07
1345.38
1371.37
1620.69
1573.18
1644.53
1444.08
1499.29
1503.68
1463.26
1490.21
1403.46
1330.7
1339.08
1363.98
1293.13
1198.73
1405.75
1366.59
1314.89
1352.81
1433.92
1708.58
1657.52
1714.44
1695.24
1765.26
1604.34
1509.19
1703.54
1716.87
1780.35
1577.63
1694.32
1586.87
1771.72
1718.43
1719.84
1499.59
1609.75
1543.45
1158.42
1286.87
1198.27
1138.88
1169.6
1723.52
1692.08
1618.93
1653.5
1669.78
1622.57
1475.74
1563.96
1598.16
1279.6
1427.42
1664.37
1565.79
1587.72
1343.2
1485.43
1265.11
1508.76
1553.84
1546.23
1617.57
1679.55
1627.13
1738.08
1685.76
1610.34
1583.06
1917.25
1783.03
1858.94
1850.05
1807.65
1632.26
1730.96
1703.44
1187.08
1101.84
1117.96
1193.56
1272.64
1457.79
1580.03
1566.56
1357.27
1188.22
1393.05
1423.71
1369.74
1440.99
1554.77
1188.35
1429.95
1309.79
1732.65
1507.55
1619.68
1793.7
1862.14
1245.31
1503.04
1354.21
1355.18
1412.44
1679.28
1767.96
1714.03
1596.63
1579.85
1589.48
1704.36
1809.94
1856.66
1850.71
1860.8
1928.05
2010.4
1807.72
1943.86
1854.65
1804.02
1826.98
2114.61
2156.6
2169.54
2138.81
2278.05
1896.92
1966.02
1991.11
1648.94
1664.97
1660.38
1731.09
1791.01
1781.06
1855.77
1824.54
1735.88
1695.33
2022.78
1873.93
1935.37
1997.84
1922.68
1768.7
1835.6
1828.05
