# vtk DataFile Version 4.2
vtk output
ASCII
DATASET POLYDATA
POINTS 642 double
-2373 5931.32 -558.868
354.757 5801.59 -483.107
-2402.1 469.548 -32.2267
1403.61 486.967 55.1102
-651.712 1383.25 2439.05
-1288.05 4616.3 1816.22
-506.514 1745.93 -2068.89
-1294.21 5155.2 -2568.27
1645.76 3117.04 -1098.99
1868.24 3028.28 1292.2
-2927.17 3980.22 -1445.67
-3428.38 3528.52 1690.88
-3294.27 5003.76 988.698
-2346.63 4321.21 2263.8
-1824.37 5457.23 1310.55
-58.8893 5382.06 511.801
-638.123 6404.89 -251.532
67.7436 5900.89 -1353.98
-1921.21 6240.74 -1899.81
-2200.95 4906.59 -2618.91
-3222.2 5326.68 -1381.2
-3661.55 3486.74 180.707
805.654 3836.47 1853.6
1445.76 4264.41 754.03
-2049.69 2149.8 2080.68
-474.155 3059.25 2456.83
-2886.04 1574.04 -700.856
-2987.67 1608.33 980.349
-1006.27 3874.52 -2031.69
-1855.39 2580.88 -1742.83
1128.5 4632.14 -523.82
401.109 4607.04 -1386.56
2294.55 1528.81 943.577
928.7 2256.32 2206.45
562.067 594.696 1612.85
-1756.74 533.288 1676.84
-531.919 332.945 -57.6335
-1494.69 736.2 -1469.48
466.578 755.058 -1406.17
779.727 2237.2 -1805.08
2133.32 1646.37 -715.782
2257.12 2726.55 125.973
-2890.05 5429.93 501.613
-2595.18 5373.9 1238.48
-2000.58 5619.07 705.846
-2967.51 3964.44 2102.57
-2920.13 4717.77 1794.35
-3458.72 4286.49 1417.35
-1599.04 5123.22 1639.57
-2153.91 4995.43 1868.14
-1880.5 4512.34 2141.43
-950.531 6152.43 271.253
-1253.51 6294.85 -337.311
-390.9 4817.71 1324.18
-1002.8 5671.13 736.969
-95.113 6196.28 -372.953
-407.532 6102.29 187.911
18.8808 5819.2 83.5439
-1350.3 6300 -1088.27
-2176.54 6270.95 -1400.56
325.768 5964.8 -847.128
-226.905 6330.78 -880.274
-1610.74 5771.21 -2346.16
-900.475 6070.26 -1696.35
-450.893 5595.46 -1868.5
-2712.95 6004.11 -1713.2
-2863.08 5796.4 -1017.55
-1733.57 5119.13 -2802.59
-2175.2 5674.33 -2489.11
-3157.48 4869.32 -1558.27
-2939.61 5220.29 -2113.74
-2678.04 4462.53 -2185.48
-3284.25 5128.53 -64.1336
-3406.34 3518.66 -579.636
-3369.86 4458.78 -525.631
-3632.09 4348.9 580.898
-3632.69 3521.5 960.37
858.54 4678.08 911.385
838.883 4906.28 184.407
197.268 4106.75 1862.14
551.508 4473.35 1466.15
1717.93 3756.64 1055.49
1230.62 4122.62 1344.66
1358 3521.3 1680.13
-1926.96 3831.93 2394.27
-928.077 3616.78 2276.03
-2924.75 3162.4 2013.39
-2352.28 3554.06 2417.16
-412.938 2356.77 2561.2
-1412.69 3074.2 2393.34
-1368.81 1503.76 2300.13
-3585.21 2583.92 499.65
-3303.29 2730.95 1298.22
-3062.08 2581.03 -1031.97
-3439.03 2576.36 -318.972
-2813.76 902.391 556.943
-3087.43 1527.57 -2.18721
-2832.97 913.24 -482.215
-2150.72 4101.79 -2383.75
-2283.53 3326.39 -1745.02
-1349.54 4989.25 -2536.55
-1800.47 4652.13 -2649.96
-1129.19 1873.55 -1969.84
-1486.45 3341.37 -2180.91
-505.581 2374.97 -2110.14
259.393 5260.71 -1646.32
-431.041 5083.86 -2010.79
667.37 5432.29 -798.968
584.02 5477.12 -1093.94
1161.41 3488.11 -1383.57
573.16 4593.01 -1186.87
1585.45 3694.46 -844.654
2001.79 905.438 540.431
1603.82 979.36 1273.87
1082.83 460.061 837.107
1509.84 2625.6 1774.58
1786.15 1760.52 1555.48
2268.32 2198.51 1113.28
-97.0428 987.521 2143.32
823.397 1323.28 2001.82
261.964 1827.86 2416.34
157.897 343.747 1004.96
635.375 346.945 18.7715
-1062.59 938.948 2274.42
-602.829 477.579 1821.79
-1682.27 325.648 67.2139
-1295.9 348.977 993.554
-2113.59 396.387 1002.1
103.915 365.193 -872.392
955.07 580.631 -726.209
-2077.13 538.27 -719.33
-1160.38 349.515 -914.571
-29.7744 1174.55 -1749.44
-597.408 677.627 -1506.9
-1114.76 1103.62 -1794.59
1367.01 1144.32 -1036.9
1913.85 978.455 -393.727
145.666 1990.45 -2011.88
704.973 1475.28 -1728.61
2037.24 2111.69 -809.8
1474.09 1905.85 -1307.62
1268.23 2693.94 -1512.53
2401.54 1475.34 74.0276
2060.14 2941.47 -503.359
2428.43 2169.6 -278.016
2562.04 2208.18 467.159
2212.36 2790.18 674.445
214.719 2660.04 2482.55
908.928 3080.8 2156.43
206.815 3392.42 2298.59
-2548.52 865.133 1470.97
-2033.17 1210.48 2161.3
-2572.34 1691.3 1680.21
-1661.58 1308.93 -1707.94
-2411.7 1044.67 -1071.89
-2474.02 1991.29 -1305.23
747.739 3062.47 -1751.88
61.3847 2748.59 -2093.76
-458.174 3911.76 -2010.74
1903.77 3733.72 444.034
1860.53 3713.36 -294.416
1472.55 4289.1 32.6258
-2613.66 5588.5 -6.40137
-2537.69 5569.13 661.035
-2105.37 5738.85 171.503
-2969.1 5233.73 1133.09
-2767.83 5425.36 909.288
-3121.79 5248.68 773.518
-1959.21 5577.32 1039.57
-2382.11 5529.28 1019.02
-2207.33 5443.95 1288.44
-3234.37 3737.93 1923.91
-3260.15 4111.69 1810.3
-3480.13 3877.03 1590.62
-2653.87 4526.16 2092.47
-2960.58 4352.89 1989.57
-2665.28 4176.63 2232.27
-3403.7 4684.06 1205.21
-3218.98 4532.88 1626.3
-3144.9 4881.23 1413.4
-1539.57 4911.75 1764.58
-1748.42 4842.61 1910.64
-1674.78 4629.16 1990.93
-1992.59 5260.46 1595.1
-1864.48 5074.62 1769.76
-1700.12 5308 1492.37
-2087.22 4420.73 2238.6
-2008.13 4762.13 2035.23
-2265.52 4681.09 2100.99
-2783.31 5098.75 1535.36
-2531.23 4902.92 1879.9
-2381.99 5215.36 1597.61
-1507.85 6041.61 90.0128
-1810.51 6042.34 -544.473
-1379.95 5688.73 754.108
-1444.55 5910.18 414.81
-897.644 6404.38 -224.976
-1041.3 6273.76 33.3749
-812.338 6330.08 11.7804
-921.634 4613.19 1507.16
-1304.6 5100.86 1486.56
-534.871 5694.18 605.645
-919.453 5258.75 1008.06
-144.568 5046.43 961.264
-1407.9 5297.01 1344.37
-1369.83 5456.28 1134.22
145.606 6018.62 -434.675
-10.9618 6015.15 -111.631
197.912 5830.09 -197.677
-517.143 6283.47 -11.1286
-266.887 6176.51 -44.4192
-383.413 6334.73 -319.235
-64.9485 5693.27 301.588
-175.053 5971.11 147.816
-326.508 5905.63 325.88
-890.133 5934.02 531.333
-597.749 5963.83 429.948
-684.471 6173.77 246.991
-1812.77 6193.51 -1091.71
-2286.62 6116.8 -1073.43
-785.556 6412.76 -554.422
-1335.67 6309.08 -716.49
-2068.58 6322.29 -1607.65
-1887.71 6265.9 -1376.8
-1823.12 6277.93 -1583.42
354.532 5897.94 -705.544
135.467 6109.65 -661.087
-66.2246 6158.38 -1126.32
54.9219 6177.56 -875.795
210.009 5964.81 -1093.49
-152.468 6293.75 -640.813
-404.415 6395.39 -602.173
-1461.28 5443.98 -2502.8
-1195.94 5677.73 -2161.55
-990.473 5325.37 -2235.86
-1582.33 6129.25 -1893.02
-1382.62 5942.07 -2047.86
-1767.17 6033.64 -2152.8
-100.904 5781.76 -1580.44
-686.353 5875.03 -1803.62
-287.128 6038.52 -1456.84
-578.303 6398.87 -916.865
-419.977 6265.67 -1215.92
-1101.87 6222.43 -1424.1
-2539.06 6090.3 -1233.03
-2608.7 5920.14 -787.666
-2287.63 6217.4 -1838.21
-2442.57 6219.02 -1524.59
-3073.94 5592.72 -1213.05
-2818.92 5938.66 -1398.97
-3031.74 5690.75 -1551.74
-1560.36 5157.43 -2706.87
-1668.25 5421.09 -2645.06
-2238.58 5256.37 -2625.77
-1898.02 5367.82 -2733.52
-1892.79 5041.63 -2807.18
-1854.52 5775.34 -2459.56
-2039.92 6027.85 -2243.99
-3014.6 4409.46 -1606.33
-2965.87 4686.73 -1874.17
-2809.84 4303.44 -1924.21
-3165.56 5284.02 -1759.27
-3101.5 5066.78 -1829
-3239.52 5093.25 -1501.09
-2478.07 4706.5 -2418.65
-2818.5 4947.14 -2148.46
-2606.89 5097.62 -2386.09
-2486.65 5888.55 -2159.84
-2623.24 5458.86 -2365.88
-2899.37 5608.91 -1984.34
-2851.17 5563.08 -331.434
-3205.47 5268.54 -832.286
-3071.32 5435.9 -594.913
-3124.57 5290.84 214.119
-3351.15 5058.51 546.11
-3083.16 3641.73 -1055.22
-3152.24 4300.42 -1076.23
-3602.62 3937.45 -66.2322
-3424.03 4009.39 -555.535
-3573.45 3468.77 -225.966
-3236.45 4757 -1120.83
-3264.76 4978.07 -1082.19
-3604.54 3899.13 1255.36
-3582.63 3526.92 1384.04
-3529.6 4709.49 819.254
-3588.63 4354.06 1023.99
-3730.09 3515.81 509.174
-3677.44 3924.7 753.911
-3719.85 3933.26 378.394
-3387.52 4830.63 -299.424
-3626.94 4367.11 143.501
-3543.15 4749.2 340.962
423.829 5401.48 -53.0757
473.974 5530.47 -314.972
377.127 4966.42 868.001
272.705 5138.61 462.205
1249.58 4490.04 593.418
925.878 4752.04 596.225
1162.02 4495.96 842.721
-292.252 4251.27 1809.4
32.7865 4439.12 1639.1
690.749 4192.65 1661.45
408.135 4321.86 1659.93
520.562 3968.75 1871.19
249.064 4597.02 1442.43
369.675 4752.04 1200.36
1799.02 3457.6 1194.74
1573.86 3651.69 1379.65
1598.78 3347.67 1532.43
1366.33 4203.76 1057.43
1487.17 3951.99 1216.01
1603.67 4015.3 906.07
1090.38 3683.4 1786.33
1311.77 3840.89 1517.81
1047.73 4002.61 1607.22
723.399 4595.51 1207.44
897.126 4323.68 1426.27
1060.41 4423.5 1145.48
-1688.56 4196.82 2194.08
-1089.09 4233.76 1819.2
-2056.5 4053.44 2377.98
-1887.43 4140.52 2297.58
-576.858 3437.47 2330.87
-1522.9 3951.24 2257.14
-1334.9 3555.8 2162.4
-3206.43 3351.88 1890.66
-2998.46 3543.43 2094.73
-2316.91 3190.66 2315.38
-2664.65 3377.54 2230.46
-2500.49 2829.66 2043.83
-2688.53 3750.94 2268.87
-2367.14 3913.38 2375.02
-560.965 1771.88 2435.21
-826.119 1808.53 2405.08
-925.759 1426.84 2440.68
-981.973 2956.56 2448.14
-758.025 2531.41 2479.24
-403.194 2692.35 2514.3
-1769.34 1626.64 2167.62
-1300.83 2068.3 2297.77
-1808.09 2647.27 2216.33
-2055.57 3685.38 2489.73
-2000.28 3425.9 2452.41
-1844.92 3440.61 2433.09
-3542.37 3168.38 1208.31
-3424.21 3221.02 1548.22
-3650.27 3030.05 335.25
-3607.13 3086.5 717.86
-3200.95 2133.15 1112.87
-3477.09 2627.84 895.695
-3377.15 2194.86 711.374
-2994.76 3045.08 -1160.02
-3223.75 2973.55 -829.227
-3219.02 2141.36 -572.947
-3264.97 2546.12 -708.123
-3045.32 2178.83 -883.771
-3426.8 2999.83 -429.312
-3574.37 3000.03 -78.5828
-2639.49 640.546 258.519
-2853.02 875.585 -37.1671
-2645.37 646.115 -280.087
-3109.07 1575.53 481.864
-2988.65 1124.97 239.823
-2883.49 1153.74 812.869
-2890.8 1145.82 -619.789
-2988.24 1108.92 -273.934
-2994.33 1493.25 -394.798
-3580.33 2569.3 107.936
-3347.01 2122.01 -150.647
-3434.79 2159.57 287.236
-2524.65 4118.2 -2135.09
-2663.41 3722.08 -1469.27
-2187.13 4443.17 -2537.94
-2395.04 4241.12 -2333.65
-2127.24 3060.34 -1779.13
-2274.33 3905.93 -2189.76
-2092.13 3673.1 -2125.89
-1328.58 5113.09 -2565.47
-1616.5 5086.07 -2698.21
-1649.47 4495.43 -2535.59
-1635.79 4846.71 -2633.49
-1329.64 4643.82 -2460.78
-1768.28 4998.32 -2749.87
-1867.51 4777.26 -2724.94
-823.054 1814.63 -2035.92
-796.255 2187.77 -2109.84
-494.383 2043.21 -2107.61
-1520.46 3077.81 -2053.39
-1098.64 2457.91 -2071.35
-1419.39 2036.55 -1861.34
-542.296 2915.18 -2135.67
-912.128 2679.64 -2119.31
-1482.9 3558.03 -2138.5
-1920.24 4326.19 -2568.12
-1819.56 4215.34 -2484.25
-1862.33 3948.27 -2395.26
-388.896 5224.07 -2008.08
-942.94 5108.61 -2382.96
[...]
POINT_DATA 642
SCALARS Mean_Curvature double 1
LOOKUP_TABLE default
0.000587754
0.000883233
0.00111848
0.00125108
0.00136741
0.00250288
0.00158755
0.00426836
0.000969056
0.000670468
0.00113653
0.00178221
0.00118432
0.000973677
0.00119103
-0.00169136
0.002051
0.00122276
0.00226087
0.000570169
0.00164538
0.000186248
0.000706311
0.000984204
0.000210829
0.000337189
2.62269e-05
1.97173e-05
-0.00110435
-0.000139306
-0.000698096
0.000143928
0.00146751
0.000668986
0.00122708
0.00127089
3.83978e-05
0.00123543
0.00149223
0.000429295
0.00136915
-0.00030244
0.0007843
0.00102288
-0.000668842
0.00101251
0.000972236
0.000847097
0.00121905
0.00109949
0.00107045
0.00112428
0.000760886
0.000533069
-0.00112701
0.00103609
0.00133041
0.000500018
0.000463631
0.00154053
0.00279204
0.00192653
0.000710409
0.00111344
0.00039728
0.00156447
0.000735739
0.00579559
0.00133517
0.000383834
0.00211363
0.00117046
0.000880444
0.000471522
-0.000343298
0.000408759
0.000126568
0.000494633
-0.000286742
0.000557993
0.000878566
0.000896662
0.000904336
0.000806452
-0.000141161
-0.00152717
0.000912343
0.00163119
0.00129782
-0.00016537
-0.000221999
0.00121883
-5.46557e-06
0.00107282
0.00066074
0.00082829
-1.65209e-06
0.001701
0.000845575
-0.000354799
-0.000323085
0.000420016
0.000696011
0.00488823
-0.000109788
0.00255296
0.000834532
0.000254758
0.00121089
0.000619846
-0.00149565
0.000708631
0.00114285
0.000926685
0.000701681
0.000423363
0.000923046
0.00187634
0.000193796
0.000540783
0.000817994
0.000396697
0.000262742
0.00141035
0.00141311
-2.95179e-05
-7.57132e-05
0.00125812
0.00112144
0.000485987
0.000461986
0.00124848
0.000216072
0.00122889
0.00129509
0.000241087
0.0011811
0.000621246
0.00136258
0.000340942
0.000550429
0.000655447
0.00102023
0.000644058
0.00205462
0.00289327
0.000224312
0.000601212
0.000684212
0.000921888
0.00130335
0.00251093
-0.000147184
0.00204687
0.00163489
0.000434469
0.000343253
0.00101188
0.000592955
0.00084829
0.000964504
0.000494756
-0.000338961
0.000843039
-0.000239986
0.0011551
0.000939739
0.00117237
0.00135267
0.00111081
0.000886462
0.00132695
0.00100542
0.0012967
0.00126156
0.00104213
0.0013632
0.0010095
0.00090567
0.000993587
0.000303811
0.00126987
0.000161907
0.001062
0.00113647
0.00141844
0.00158114
0.00119712
0.00124344
0.00110383
0.00118106
0.00103368
0.000437941
-0.0005625
-0.000505435
0.000686916
0.0019799
0.00119166
0.00203521
-0.002043
0.000942372
0.000643711
-0.000958481
-0.0002028
0.000841542
0.00157161
0.000820025
0.00125339
0.00067382
0.00156935
0.00134084
0.000997576
0.00281839
0.00130833
0.000676149
0.00284491
0.00105283
0.00184979
-0.000686587
0.000271165
0.000655851
0.00107723
0.0030031
0.00138038
0.00093291
0.00104405
0.00155146
0.00132934
0.00190093
0.00115498
0.00128509
0.00172133
0.000431596
0.000247945
-0.000629969
0.000698016
0.00066096
0.00109553
0.000845478
0.000787994
0.000951254
0.00127075
0.00124725
0.000401334
0.0010149
0.00104973
0.00171897
0.00235077
0.000865771
0.00151747
0.00164061
0.00414486
0.00163932
0.00137239
0.00254347
0.00379766
0.00192702
0.0020397
0.000884766
0.000651906
0.00089195
0.00233995
0.00116761
0.00226127
0.000699357
0.000254609
0.000943973
0.00127383
0.00171493
0.00138338
0.000426771
0.000878479
0.000681691
0.000595885
0.0010885
-0.000237591
-0.000638199
0.000312004
0.000822654
0.000816959
0.000611453
0.000902329
0.000945043
0.00160714
0.00132685
0.000960046
0.00147774
0.000394263
0.00125821
0.000589326
0.000943521
0.00110728
5.88586e-05
0.00120043
0.00216425
-0.00173518
0.000746391
0.00100274
0.000888687
0.000834726
0.000485561
0.000859609
0.000766982
0.000429034
0.000613517
0.000746624
0.000875074
0.000905803
0.000866663
0.00085787
0.000910018
0.000851586
0.000668147
0.000837923
0.000823846
0.000837089
0.000956519
0.000934747
0.000421867
-0.00164759
0.00195977
0.00071812
0.00308556
0.00372096
-0.00251488
0.00142282
0.00124177
0.00102468
0.000700486
-0.00047422
0.000850902
0.000925578
-0.000115055
-0.000119026
0.00156863
0.00151336
0.000241689
0.000309278
-0.000525103
-0.000172979
-0.000399327
0.0036375
0.00129694
0.00189369
0.000888689
0.00124336
0.000777417
8.25124e-05
0.000673894
0.00065524
0.000562941
0.000979327
0.000347929
0.000812066
0.000843792
0.000767659
0.000113957
0.000567506
0.00108441
0.000803652
0.00149154
0.000207321
0.00105052
0.000309918
0.002058
0.00188531
-5.40376e-05
0.00128271
0.00053172
0.000866704
0.000784536
-0.0014314
0.0013509
0.00135504
0.000306812
0.00144141
-3.84558e-06
-0.000418888
-0.0013176
0.00020903
-0.00018784
0.000916339
0.000365257
0.00300491
0.00063225
0.00103873
0.000656455
-0.00026909
0.000778846
0.000170286
0.000296288
0.000163471
-0.00140053
0.00339143
0.00100303
0.00170054
0.00189701
0.0133975
0.00102756
0.000955749
-0.000546449
0.00472485
0.00222801
-1.87568e-05
0.00369042
0.00150872
0.00412131
0.00525895
0.00168105
0.00104822
0.000854299
0.000647693
0.000872148
0.00110608
0.000724378
0.000467109
0.000414633
0.000435671
5.27541e-05
0.00162131
0.00128363
0.00197866
0.000818218
0.000938432
0.00127079
0.00114485
0.00105795
0.00133374
0.00114116
0.000627404
0.000737603
0.000397113
0.000504567
0.000222553
0.00014551
1.79023e-05
0.000660114
0.00091248
0.00082944
0.00142809
0.000441071
0.00103391
0.000668392
0.00105467
0.000577895
0.000845098
0.00082439
0.000729644
0.000373992
0.00122636
0.000583814
0.000338754
0.000738394
0.00121685
0.00123749
0.000877799
5.90603e-06
7.71217e-05
1.10986e-05
0.00213497
0.00165527
0.00118975
0.00128037
-0.000323338
0.000801391
0.000783988
0.00085946
0.00116964
0.000657916
-0.000127915
0.00134869
-0.00012083
0.00182066
7.91444e-05
0.000698874
0.000763085
0.00105235
5.15658e-05
0.000600265
0.000985392
0.000238603
0.000606526
0.00119637
0.00138441
0.00140825
0.00197228
0.000825326
0.00142682
0.00103387
0.000912314
0.000362265
7.09723e-05
0.000633887
0.000697669
0.000338419
0.000683038
0.00049693
0.000992865
0.00169955
0.000716099
0.00114744
0.00118207
0.000826786
0.00049797
0.000842868
0.0010177
0.000844044
0.000408558
0.00123446
0.00093499
0.000827309
0.00115083
0.00042541
0.00105976
0.000210049
0.000365739
0.000476946
0.00104557
0.000355749
0.000198485
0.000706327
0.00130761
-7.13511e-05
0.00206004
0.000691748
0.000326198
0.000614293
0.00071759
0.00112579
0.000454984
0.000988104
0.00112663
0.00115721
0.00117403
0.00103793
0.000765311
-6.08225e-05
0.000929689
0.000577764
0.000430755
0.000934135
0.00221836
0.00104529
0.000463398
0.000981712
0.00221236
0.000207868
0.000925822
0.0010612
0.00114288
0.00255751
0.00172858
0.000424218
0.000720436
0.000404091
0.00195168
0.000273408
0.000815879
0.000612969
0.000722357
0.000748288
0.000875428
-3.10657e-05
0.00100266
0.000332258
0.000298126
0.000550505
0.00124078
0.00075946
0.00118634
0.000544218
0.00145137
0.00125114
0.00133765
0.00144162
0.00170274
0.00132158
0.00220668
0.00073392
0.00143362
0.000417084
0.00013702
0.000681591
0.000378192
4.00695e-06
0.0016005
0.00174958
0.00182579
3.39927e-05
0.00164805
0.00222901
0.00036196
-0.000511595
0.00141539
0.00149246
0.00165101
0.000630801
0.000707104
0.000470964
4.45674e-05
0.000652892
0.000892807
0.000346762
0.00170103
-0.000593474
-0.000155965
0.000789875
0.000594831
0.000754762
0.000691087
0.000267686
0.000792231
0.000742096
0.000419581
0.00080176
0.000332203
-0.0085488
-0.00108273
-0.000754752
5.35255e-05
0.000321002
0.000850475
0.00138896
0.000105291
0.000941283
0.000709138
0.000611471
0.00095874
0.000795897
0.000880006
0.000910705
0.000791141
0.000927375
0.000853511
-4.50327e-05
0.000458595
0.000260498
-0.000889368
0.00252624
0.00109548
0.00082757
0.000562377
SCALARS CoVolArea double 1
LOOKUP_TABLE default
250821
74328.5
139974
134579
95158
189260
104566
70488
117201
152311
192387
100508
154614
125300
149272
224521
87860.6
110263
113479
148365
142046
185088
130429
104927
312983
221151
192358
264308
460539
390159
190219
233927
163860
197980
188924
185694
393912
147079
133304
141177
126490
176689
197561
143239
241798
144577
168512
166996
82715.5
121905
85620.5
137824
222767
353881
163056
94857.8
73475.5
150301
245233
101700
66856.5
98690.2
127203
217271
227244
177823
185780
43917.4
180144
159486
136199
146205
228873
277861
271238
180792
185628
170995
209914
162086
107325
109691
111748
118063
123652
294344
192579
125474
168538
309172
172430
187490
242027
150593
192656
183332
250635
115902
107333
330063
81719.7
56348.9
165780
167488
148212
68321.2
85781.8
96651.5
82093.8
139356
209182
114569
173329
210376
191651
201883
168526
110946
205936
217779
170930
247329
217961
177041
190107
205012
268977
177944
180496
197614
166843
187750
176801
178492
111102
215947
157632
142947
133093
129653
161246
161106
179222
173975
85979.4
85921.6
163382
142637
132307
115804
158444
117796
232494
98945.1
151816
242068
153081
129218
382187
134505
111414
190018
275880
224218
380074
156205
134999
148759
179214
137742
131768
131423
160815
141000
147670
153063
138212
156760
166193
170599
130272
78163.6
143428
117086
91621.4
92135.7
90216.3
92061.8
123117
180102
165793
158251
300676
362070
221975
213914
114377
137143
76137.3
303264
236082
260826
341143
343151
131745
140780
83131.7
85688.2
110107
82055.9
86084.6
88468.6
137377
71336.3
108362
135324
100789
87467.6
196422
193148
180243
174795
83559
112591
160355
59121.3
75547
110371
82913.5
92107.4
84094.1
100565
135600
211272
203339
176854
164493
110144
143927
200780
161788
211192
188709
277309
131728
192741
160774
115278
158389
133734
157654
49794.9
92512.9
160229
117193
80765.3
121485
153431
213292
150123
182494
131329
107061
96846
157286
147558
149975
221105
194023
203010
237014
216109
212045
206339
180713
302342
299376
238797
258700
204649
188833
193093
175764
135749
168698
180444
174259
189414
178883
284980
246405
220238
250918
138417
194305
280024
137980
222463
111525
283584
222757
115527
111751
125550
177436
182409
144142
113082
145488
108092
103389
96647.8
117691
109952
119881
138045
121999
120566
204070
382065
92232
84008.4
175585
141647
304696
127476
131554
259307
161045
299811
140323
131977
164582
233366
111099
247214
290230
136923
232864
416251
398259
85080.5
178412
164380
191119
148762
183841
204422
257978
223345
249170
238306
230262
217390
172274
186239
194401
188636
191035
157157
144018
285335
197061
201570
111987
145251
206425
195143
252463
251094
217272
346784
136857
111912
251402
136720
257667
24879.3
36925.1
231902
78964.5
223501
36325.2
89454.5
137624
138287
97561
352392
226960
296682
325495
226815
354959
85015.4
113927
160979
160580
73171.3
107548
129775
231386
62260.1
60583.7
81072.4
42772.9
135603
46529.5
66654.7
74462.4
106085
105713
131117
108017
117440
189749
158931
201634
208739
292331
93870.1
157283
99025.2
174682
189116
166224
173991
178044
158897
182634
200572
215290
186653
167025
154019
220902
190683
190963
126860
136515
149170
149943
189168
174736
205770
197378
189095
167310
179496
222460
204303
235380
247872
183445
160485
199760
188646
308611
257698
385565
105615
154254
201742
174746
217017
177679
205630
174306
182669
204365
374424
215194
304192
152418
177327
205327
243340
248806
330712
193478
174086
264429
207472
155665
165671
154789
138513
179831
157937
176829
171865
228756
286422
164601
161881
150206
167368
161258
132663
101476
136271
143753
222396
195651
214204
181299
165561
183510
196793
140992
169335
172544
120549
173496
122572
137947
133261
140592
139420
188823
190086
154130
140619
129074
78906.4
143437
171768
146513
211704
175443
220140
174834
161476
162104
166704
178053
162720
168714
113624
131967
168831
85118.6
108251
122278
172683
150057
94335.6
149419
95571.6
94320
156372
94580.6
161010
183437
162494
153629
119413
133425
158983
139215
126266
152434
154203
313614
139190
163943
147009
137675
149347
138358
137914
199285
167120
163018
164131
185641
129818
143171
101021
177009
185991
227241
238805
285272
300047
276344
163386
154110
177701
123824
123617
77143.6
116029
234599
138283
150425
116529
165362
178313
258434
310279
254795
177855
224672
160303
209131
210219
115252
145958
120545
130973
316319
114417
245548
136470
132703
155509
92989.4
609650
392746
202209
256565
155316
175609
359629
156484
188331
165783
115536
113236
124102
140101
102985
137418
173687
233403
139802
255397
237225
140533
143897
139845
136033
SCALARS SignedDistance double 1
LOOKUP_TABLE default
729.456
908.304
538.229
541.743
775.3
1034.93
816.341
1028.01
824.291
729.047
941.582
566.36
576.012
752.657
828.319
1086.34
721.297
725.883
722.745
692.404
646.7
667.708
832.967
848.185
803.112
806.798
777.148
675.566
1364.41
895.627
1043.02
1160.61
564.514
691.616
543.287
549.533
644.141
633.323
651.298
830.476
692.981
826.408
694.465
684.061
823.192
615.174
601.506
564.403
890.826
786.23
884.273
797.188
692.69
1033.45
949.138
802.933
856.27
949.316
934.98
784.989
834.497
702.627
738.608
958.347
885.24
509.795
591.797
918.414
550.412
719.609
640.516
730.538
694.013
747.239
757.494
640.929
636.452
883.57
1026.98
866.241
860.606
794.877
816.471
782.078
867.936
1044.88
671.353
751.16
770.862
1057.59
865.196
603.889
661.485
732.545
677.319
605.449
701.08
613.768
950.145
1099.54
997.327
901.562
797.233
1345.41
860.922
947.254
1105.81
970.962
879.582
901.583
1141.27
859.044
510.174
548.81
557.724
715.328
701.694
699.415
622.617
626.878
707.016
634.014
629.55
607.336
548.006
647.883
627.358
576.295
612.404
608.35
610.07
626.153
734.312
656.175
814.571
685.952
569.384
803.807
755.207
801.778
783.453
827.143
581.299
775.444
749.1
733.901
805.196
774.681
776.489
837.571
533.382
742.888
772.521
863.555
789.918
796.599
904.186
854.483
1334.9
819.579
830.812
880.41
730.909
786.738
751.984
625.159
677.966
617.318
807.829
745.814
746.968
580.861
563.6
551.492
672.877
594.134
675.008
561.204
572.057
578.312
913.211
885.621
917.745
787.432
833.286
862.196
837.612
839.578
771.54
637.332
701.992
721.03
736.492
842.333
891.408
792.443
690.481
738.915
745.259
1061.57
970.956
998.624
1055.14
1102.53
940.556
981.343
853.772
881.609
925.492
785.049
826.809
744.18
1014.88
907.025
920.478
903.481
900.78
826.247
954.618
748.53
665.771
780.872
792.014
889.301
862.186
864.72
817.584
686.862
753.793
740.349
752.637
718.602
820.728
960.196
1100.25
837.733
888.572
701.204
741.705
888.848
685.725
654.794
644.675
940.306
665.004
663.463
600.634
658.166
588.222
575.941
545.377
930.146
769.107
635.639
702.57
867.042
664.282
602.13
785.085
700.643
778.649
628.943
671.777
696.388
675.392
648.67
642.138
456.055
558.21
490.252
680.003
649.527
656.346
658.558
601.248
922.415
799.021
656.809
750.466
694.663
731.532
702.015
614.671
596.238
565.474
598.014
665.24
611.077
656.028
716.927
665.668
584.069
1063.25
997.641
1018.81
1147.23
881.044
921.47
862.939
905.023
896.971
846.887
858.737
858.268
890.365
908.409
762.74
778.74
757.036
829.944
805.676
820.473
806.177
798.665
815.205
871.117
840.281
849.103
923.768
1032.19
854.382
883.279
902.135
1011.27
1012.46
610.64
634.002
808.881
682.727
757.663
646.72
730.519
735.024
774.472
795.422
867.433
773.007
799.471
903.778
844.834
802.789
872.42
925.63
975.317
670.376
610.617
665.042
685.684
610.13
616.7
617.796
820.656
738.935
659.385
696.165
689.039
711.699
693.71
533.166
582.4
533.312
658.057
688.918
731.775
767.775
705.111
757.16
639.91
645.407
633.147
851.205
1006.11
828.061
841.079
1009.03
990.458
1174.45
1010.14
909.153
964.421
901.487
1057.74
887.976
885.477
802.086
859.937
858.057
1145.15
865.515
842.674
932.335
870.007
1397.68
969.003
1020.41
1142.03
1058.07
1234.45
795.994
845.135
955.297
965.752
988.33
916.499
909.542
1014.57
955.899
1147.83
834.587
787.803
858.021
876.882
842.576
1159.98
966.403
995.064
879.865
916.577
1098.7
894.988
975.616
999.829
535.627
527.001
549.604
536.409
517.842
506.226
539.583
557.113
562.966
722.459
742.655
747.545
701.926
718.085
705.681
622.371
675.234
640.395
712.572
639.675
722.025
592.758
616.688
571.408
684.586
657.522
674.76
609.226
675.889
630.432
621.771
612.263
578.791
612.291
637.96
631.848
634.782
712.379
598.939
551.281
535.172
587.77
580.729
565.884
624.542
565.302
545.476
637.798
700.461
640.097
554.774
622.017
593.389
588.552
620.027
653.104
602.38
584.64
653.916
637.301
602.541
581.511
617.029
561.434
606.923
585.326
584.446
601.666
634.893
640.227
753.746
754.513
778.994
681.467
704.748
718.071
716.049
716.493
657.946
631.946
610.369
632.215
609.527
547.407
648.611
642.937
618.96
640.096
688.501
826.058
770.126
818.538
815.165
823.904
762.205
724.999
788.47
794.27
829.463
799.701
808.413
783.024
820.403
792.111
797.658
685.976
766.65
742.929
532.124
605.43
547.502
523.118
555.105
795.742
798.433
763.755
779.39
807.556
764.606
746.1
746.263
753.735
606.786
704.971
817.401
750.736
759.109
671.097
745.345
628.763
692.308
719.71
734.793
784.677
786.924
752.515
806.421
782.472
752.128
739.752
904.296
844.097
879.355
870.79
849.537
761.289
811.503
798.097
545.65
483.012
503.262
573.621
655.689
771.933
822.759
852.131
747.623
578.07
669.304
724.927
626.335
672.859
805.821
582.15
754.408
694.164
852.447
769.817
823.381
884.447
928.504
567.49
828.92
675.115
660.865
683.644
803.717
835.978
835.733
742.278
758.611
844.169
899.891
939.228
863.446
874.533
873.379
898.832
955.188
859.674
964.696
869.653
838.815
853.586
1155.2
1172.63
1255.46
1157.58
1447.44
888.225
973.261
945.343
763.142
767.493
772.062
805.413
838.833
826.064
857.305
843.381
807.033
786.604
1076.88
876.623
911.063
1111.68
916.264
828.816
852.915
856.211
