# vtk DataFile Version 4.2
vtk output
ASCII
DATASET POLYDATA
POINTS 642 double
-2448.04 6146.82 -482.682
581.11 5982.49 -400.297
-2489.79 306.422 -33.9909
1486.54 319.417 35.6035
-632.512 1344.41 2686.99
-1162.42 4765.02 2078.88
-513.769 1667.68 -2327.15
-1140.84 5213.06 -2814.31
1858.97 3167.18 -1278.79
2072.55 3082.68 1431.08
-3135.99 3878.53 -1617.34
-3589.62 3508.45 1801.14
-3442.34 5122.09 1048.32
-2395.96 4407.89 2489.24
-1816.88 5691.46 1445.9
34.7208 5594.88 748.225
-608.083 6639.53 -209.409
194.784 6060.67 -1494.54
-1908.68 6425.98 -1983.89
-2309.49 4882.96 -2813.55
-3419.6 5394.6 -1393.95
-3885.11 3476.58 136.836
913.427 3973.45 2080.51
1654.28 4457.33 819.001
-2149.16 2124.03 2312.2
-484.38 3121.31 2725.39
-3087.3 1517.03 -815.21
-3179.1 1534.23 1045.62
-948.573 3823.29 -2375.76
-1974.36 2509.03 -1996.88
1368.24 4739.08 -672.588
582.148 4615.11 -1704.17
2454.23 1466.12 1021.74
1048.8 2227.88 2410.27
616.927 450.457 1718.9
-1788.49 381.387 1781.26
-531.861 110.396 -56.2287
-1562.4 588.3 -1607.87
527.531 608.444 -1557.21
900.836 2223.25 -2062.99
2299.58 1576.57 -849.237
2516.75 2832.65 103.346
-3007.45 5628.93 526.791
-2676.42 5567.55 1338.55
-2069.91 5882.47 766.14
-3086.09 3994.22 2271.41
-3034.27 4823.65 1930.09
-3626.14 4341.42 1502.45
-1512.29 5313.78 1850.23
-2172.39 5168.56 2060.55
-1807.07 4638.5 2396.48
-986.407 6370.09 415.307
-1342.21 6509.22 -293.431
-334.417 5037.19 1548.92
-893.09 5848.93 979.77
41.747 6415.99 -307.55
-300.163 6311.75 346.035
218.467 5998.53 234.129
-1356.52 6528.25 -1111.79
-2226.41 6495.36 -1349.35
505.743 6153.81 -879.93
-149.09 6544.72 -925.032
-1530.53 5917.39 -2509.36
-849.016 6250.47 -1822.06
-360.235 5712.05 -2067.24
-2815.5 6122.4 -1762.62
-3002.02 5942.12 -979.502
-1679.98 5133.56 -3073.96
-2230.51 5764.93 -2631.25
-3380.76 4814.88 -1637.96
-3095.68 5232.41 -2246.64
-2846.26 4406.36 -2345.73
-3467.62 5247.77 -67.4654
-3624.69 3506.77 -695.011
-3609.63 4486.02 -582.098
-3844.61 4393.81 595.925
-3846.87 3503.89 997.564
1008.52 4917.34 1022.07
1061.35 5126.11 238.927
241.198 4270.31 2109.58
644.748 4679.93 1659.89
1934.36 3883.23 1165.05
1396.71 4288.79 1502.23
1522.96 3618.28 1869.89
-1840.83 3890.29 2668.66
-855.57 3807.21 2488.37
-3041.41 3085.06 2191.35
-2430.4 3530.81 2631.87
-439.781 2340.4 2813.76
-1457.96 3015.85 2670.04
-1431.88 1523.49 2560.18
-3785.56 2530.96 528.93
-3482.95 2656.43 1399.63
-3254.55 2540.5 -1183.21
-3652.98 2531.85 -397.072
-2966.67 791.564 582.663
-3293.95 1453.59 -18.7986
-2976.02 803.214 -534.359
-2253.23 3980.52 -2608.19
-2482.18 3243.91 -1941.17
-1205.3 4917.88 -2810.39
-1714.32 4561.47 -2925.57
-1214.19 1824.76 -2226.98
-1477.79 3280.23 -2489.7
-506.705 2365.4 -2407.42
428.136 5336.15 -1864.23
-273.997 5033.41 -2292.09
935.342 5582.9 -751.857
805.956 5600.16 -1207.68
1334.14 3588.24 -1617.27
852.704 4676.83 -1422.78
1801.93 3824.31 -999.379
2121.62 777.943 566.495
1700.72 859.468 1383.02
1147.41 287.031 886.736
1675.98 2637.49 1957.77
1924.53 1731.39 1742.05
2451.62 2223.33 1251.9
-47.5074 873.761 2314.43
919.876 1239.29 2176.91
318.406 1780.31 2639
164.956 128.971 1023.47
648.357 131.048 10.6085
-1099.94 829.912 2425.95
-589.377 315.094 1913.93
-1693.48 104.69 45.7115
-1293.95 135.276 1017.42
-2181.54 224.266 1028.54
119.785 161.785 -927.954
1040.02 408.203 -807.101
-2149.71 362.531 -807.35
-1176.4 144.276 -962.452
4.81637 1058.14 -1971.1
-583.794 515.188 -1658.91
-1133.4 1002.54 -2031.93
1492.2 1020.39 -1189.9
2039.95 848.854 -465.319
218.807 1936.22 -2273.9
793.858 1389.31 -1946
2233 2152.36 -997.317
1643.1 1869.82 -1514.28
1443.95 2704.06 -1735.16
2577.12 1395.92 50.1758
2298.98 3002.98 -608.938
2655.83 2211.68 -373.789
2790.66 2241.2 504.977
2455.32 2886.28 735.404
272.879 2676.55 2736.6
1035.91 3145.14 2382.03
257.82 3516.76 2551.08
-2670.59 760.514 1546.29
-2111.28 1145.36 2347.74
-2747.08 1665.29 1844.39
-1787.93 1278.99 -1952.32
-2540.38 945.957 -1229.03
-2620.93 1918.22 -1516.18
879.901 3129.36 -2023.46
133.991 2751.96 -2377.49
-293.204 3986.58 -2309.52
2149.02 3865.43 471.965
2103.67 3846.04 -365.674
1699.08 4490.26 23.6405
-2708.14 5809.46 42.2655
-2614.22 5804.83 700.918
-2189.18 5972.16 230.032
-3086.12 5390.37 1213.19
-2868.73 5622.37 967.262
-3253.89 5406.86 812.165
-1987.99 5824.07 1127.86
-2437.73 5757.29 1090.64
-2247.03 5665.25 1407.59
-3374.29 3746.14 2065.7
-3403.64 4159.49 1934.96
-3645.78 3902.22 1685.05
-2738.13 4622.67 2268.56
-3080.22 4422.23 2139.35
-2752.88 4229.77 2424.28
-3563.76 4766.29 1281.21
-3361.9 4612.15 1738.69
-3277.85 4993.4 1513.05
-1419.62 5072.53 1996.16
-1669.28 5000.07 2147.32
-1560.95 4756.05 2246.49
-2000.1 5464.85 1760.96
-1831.8 5259.28 1974.39
-1651.46 5525.19 1669.61
-2077.53 4533.15 2483.68
-1984.14 4914.06 2263.48
-2299.17 4811.78 2311.16
-2882.83 5246.68 1655.76
-2604.29 5045.63 2046
-2437.08 5400.82 1742.45
-1605.52 6261.96 163.754
-1895.17 6268.75 -479.831
-1397.62 5929.47 899.16
-1506.17 6138.3 533.436
-934.444 6631.07 -188.309
-1111.46 6492.45 123.93
-817.922 6557.95 110.885
-818.133 4825.59 1767.34
-1178.69 5288.26 1706.36
-433.581 5879.02 841.95
-806.53 5477.77 1237.76
-67.4563 5281.75 1170.13
-1299.46 5511.32 1537.51
-1315.86 5701.88 1311.06
330.854 6219.85 -356.971
165.808 6216.12 0.710726
412.216 6012.18 -79.7872
-444.733 6512.27 91.3187
-141.492 6395.63 61.0977
-293.755 6563 -264.057
103.809 5879.11 501.123
-18.1007 6166.16 307.281
-193.79 6087.53 527.819
-869.897 6144.07 736.78
-517.128 6158.57 638.118
-645.793 6393.75 402.68
-1884.09 6426.99 -1019.17
-2348.8 6336.29 -1001.01
-800.425 6641.17 -562.458
-1388.75 6537.07 -705.057
-2089.37 6542.75 -1630.59
-1901.05 6518.71 -1340.8
-1791.51 6514.95 -1619.44
565.435 6088.18 -657.52
297.315 6322.92 -630.497
37.3642 6344.81 -1225.4
184.301 6380.27 -917.409
360.364 6137.98 -1192.6
-42.0726 6518.43 -622.631
-352.74 6628.51 -596.314
-1350.46 5571.18 -2686.63
-1094.38 5808.69 -2346.75
-877.378 5433.3 -2432.34
-1528.75 6321.57 -1992.65
-1307.89 6105.63 -2198.08
-1719.26 6201.5 -2283.5
3.47926 5923.54 -1759.77
-612.934 6010.49 -1964.45
-206.64 6205.68 -1600.02
-564.837 6617.47 -962.803
-370.858 6459.23 -1313.87
-1081.97 6433.17 -1497.14
-2638.64 6270.91 -1186.08
-2716.86 6103.82 -728.936
-2346.08 6358.18 -1904.09
-2530.55 6389.97 -1530.43
-3241.05 5705.96 -1196.8
-2949.86 6080.69 -1391.56
-3180.1 5792.71 -1582.51
-1439.38 5195.03 -2958.7
-1604.87 5537.47 -2833.98
-2328.25 5291.16 -2798.12
-1922.73 5444.35 -2897.26
-1948.09 5032.47 -3031.55
-1839.13 5904.61 -2620.27
-2064.25 6163.22 -2362.14
-3242.65 4346.77 -1708.45
-3161.75 4636.33 -1996.26
-3006.56 4212 -2059.12
-3339.23 5325.3 -1833.75
-3295.59 5035.45 -1938.6
-3462.89 5088.77 -1551.12
-2610.67 4673 -2597.29
-2980.5 4909.25 -2297.34
-2740.6 5089.11 -2560.41
-2564.43 5989.78 -2255.19
-2724.21 5515.18 -2499.24
-3018.02 5687.69 -2067.41
-2983.66 5745.82 -285.528
-3401.96 5357.4 -827.037
-3237 5578.06 -569.266
-3271.11 5452.03 228.132
-3513.27 5184.14 562.859
-3315.13 3618.75 -1186.16
-3385.61 4262.75 -1178.13
-3820.05 3951.43 -128.968
-3649.76 4018.58 -644.8
-3794.57 3460.82 -298.931
-3476.92 4728.78 -1180.43
-3498.53 4999.11 -1102.47
-3800.34 3918.56 1308.62
-3772.11 3507.89 1446.61
-3705.9 4786.22 853.906
-3775.75 4399.43 1070.51
-3945.77 3500.91 516.618
-3881.02 3940.58 783.939
-3935.51 3949.93 365.664
-3604.44 4893.75 -333.601
-3842.79 4410.05 106.157
-3729.46 4827.49 335.179
631.342 5606.17 84.0492
718.753 5711.16 -219.595
510.508 5212.39 1001.82
494.512 5387.8 583.318
1452.8 4708.8 636.761
1099.64 4992.23 675.065
1343.63 4713.54 932.627
-270.755 4428.9 2064.5
67.423 4637.2 1871.68
791.548 4361.96 1877.73
475.55 4504.76 1884.62
595.89 4122.48 2112.56
309.168 4817.22 1643.45
453.967 4988.84 1375.37
2013.53 3542.88 1320.7
1766.06 3762.25 1531.92
1789.14 3417.81 1696.86
1556.31 4385.53 1171.62
1680.59 4099.75 1350.72
1817.63 4177.7 995.312
1229.12 3801.45 1996.74
1478.62 3972.28 1694.81
1185.46 4151.97 1803.55
846.987 4820.83 1362.03
1028.81 4511.45 1604.61
1220.18 4629 1279.88
-1581.21 4323.76 2452.29
-1015 4364.21 2128.05
-2047.06 4135.36 2640.07
-1816.58 4240.23 2565.52
-584.026 3537.72 2608.22
-1456.33 4012.86 2551.81
-1307.8 3596.96 2493.7
-3345.98 3298.7 2034.87
-3116.92 3519.55 2271.95
-2395.99 3114.45 2531.73
-2765.61 3320.48 2430.55
-2614.2 2749.81 2253.63
-2786.88 3754.85 2467.98
-2434.35 3954.02 2595.27
-572.143 1751.6 2686.96
-873.4 1809.22 2658.67
-963.299 1421.99 2692.1
-999.442 2999.17 2719.99
-807.736 2521.22 2737.52
-423.665 2727.02 2787.09
-1838.97 1654.03 2440.94
-1361.51 2056.17 2548.28
-1862.38 2595.13 2470.35
-2055.98 3710.15 2756.6
-2028.57 3370.44 2717.97
-1786.08 3464.64 2721.74
-3739.88 3113.59 1267.82
-3591.8 3154.15 1647.59
-3868.52 3002.98 328.722
-3824.59 3047.56 756.874
-3377.85 2057.23 1199.75
-3667.93 2567.92 964.614
-3565.86 2110.83 764.001
-3193.08 3026.06 -1332.17
-3437.43 2959.34 -956.448
-3416.07 2067.88 -660.349
-3473.22 2506.38 -817.288
-3228.26 2104.87 -1015.68
-3647.48 2978.05 -527.57
-3798.06 2977.78 -140.034
-2762.05 502.922 272.249
-3005.54 760.002 -37.757
-2766.39 508.922 -304.996
-3302.15 1492.66 510.299
-3178.41 1038.36 255.182
-3080.41 1070.48 853.1
-3082.79 1080.03 -712.411
-3182.05 1032.88 -302.786
-3213.55 1434.66 -460.176
-3789.84 2518.2 76.9001
-3547.82 2039.6 -198.506
-3631.95 2070.36 289.962
-2702.95 4000.46 -2296.79
-2860 3618.19 -1689.27
-2292.03 4379.74 -2753.31
-2538.16 4150.2 -2531.69
-2285.22 2968.8 -2021.01
-2413.5 3770.57 -2394.33
-2192.55 3543.51 -2358.74
-1175.97 5040.77 -2838.53
-1484.12 5003.35 -2962.22
-1548.08 4401.29 -2813.34
-1517.89 4769.07 -2902.35
-1208.18 4573.79 -2746.53
-1688.16 4913.72 -3023.82
-1887.68 4707.5 -2983.42
-872.057 1748.8 -2297.58
-833.577 2153.3 -2397.22
-500.566 2009.13 -2399.52
-1631.39 2980.14 -2309.61
-1174.59 2410.05 -2351.64
-1539.73 1992.16 -2115.95
-541.378 2915.46 -2439.7
-926.065 2656.32 -2414.64
-1352.28 3538.54 -2461.76
-1939.56 4221.61 -2837.59
-1750.86 4108.09 -2770.43
-1918.53 3825.02 -2654.66
-269.315 5292 -2254.47
-813.137 5059.05 -2599.25
320.036 5715.57 -1707.16
[...]
POINT_DATA 642
SCALARS Mean_Curvature double 1
LOOKUP_TABLE default
0.000664712
0.000858593
0.000874672
0.0010189
0.00150937
0.00182496
0.00123797
0.00232132
0.000845596
0.000519921
0.00103293
0.00140902
0.00097678
0.000914891
0.00090159
-0.000963524
0.00151638
0.00101195
0.00174043
0.000501499
0.0013477
0.000301879
0.000628914
0.000807116
3.33512e-06
0.000299586
-2.78538e-05
5.83511e-06
-0.00102122
-0.000233565
4.77281e-05
3.94819e-05
0.00116318
0.000565473
0.000989766
0.00109048
5.98153e-05
0.00100456
0.00115846
0.00044077
0.000992755
-2.71113e-05
0.000740382
0.000902915
-0.000258829
0.000888856
0.000811527
0.000740266
0.00105842
0.000966594
0.00108795
0.000875474
0.000662924
0.000359586
-0.000227481
0.000861005
0.00111828
0.000499958
0.000287556
0.00161357
0.00170673
0.00142825
0.000836203
0.000876852
0.00034458
0.00114209
0.000580905
0.00380281
0.00103281
0.000528052
0.00175195
0.000910753
0.000694545
0.000467406
-0.000137864
0.00058244
0.000277099
0.000532735
-5.32413e-05
0.000475092
0.000765478
0.000798788
0.000768688
0.000723259
0.00042125
-0.00028718
0.000827194
0.00108951
0.00107291
0.000137245
0.000210805
0.000981407
7.37122e-05
0.000905307
0.00063159
0.000574077
-2.95935e-05
0.00116684
0.000747883
-0.000442824
-8.71284e-05
0.00152266
0.000433329
0.00197836
-2.32922e-05
0.00138506
0.00187509
0.000943418
0.000905553
0.000544206
-0.00064506
0.000643102
0.000967547
0.00077978
0.00058793
0.000364438
0.000994841
0.00146547
0.000234439
0.000491957
0.000743932
0.000510652
0.000315241
0.000966846
0.00110918
0.000173777
-2.74321e-05
0.00104045
0.00092252
0.000409375
0.000518957
0.00107829
0.000243485
0.000964586
0.00126042
0.000286105
0.000976269
0.000497185
0.00095739
0.000483728
0.000534508
0.000564414
0.000891971
0.00044009
0.00164617
0.00211128
0.000251128
0.000552305
0.000655649
0.000800169
0.00103268
0.00171997
1.69302e-05
0.00175189
0.00095071
0.000300209
0.000387422
0.000697973
0.00057903
0.000762522
0.000855177
0.000431393
-0.000250481
0.000873423
-0.00027535
0.000954086
0.000822235
0.000951421
0.000915916
0.000904899
0.00083957
0.00108568
0.000854383
0.00102723
0.000975611
0.000870107
0.00105974
0.00086611
0.000797286
0.000842604
0.000402588
0.00108902
0.000341365
0.000843214
0.000914405
0.00113844
0.00118786
0.0010242
0.000995184
0.000897707
0.000998632
0.000894714
0.000380361
-0.000534468
-0.000406475
0.000442112
0.00145818
0.000985061
0.00152141
-0.00149646
0.000807256
0.00068476
-0.000747748
-0.000169069
0.000714974
0.00106719
0.000756145
0.00106613
0.000710428
0.00127018
0.00108334
0.000856466
0.00160326
0.00110648
0.000685231
0.00165397
0.000985142
0.001431
-0.000311165
0.000426784
0.000563557
0.000740964
0.00235553
0.00128451
0.00093517
0.00123934
0.00136901
0.00106891
0.00130169
0.000931293
0.00115935
0.00135246
0.000497346
0.000345947
-0.000449581
0.000531825
0.000595583
0.00119918
0.000805072
0.000418687
0.000829605
0.0010468
0.0009664
0.000287932
0.000877164
0.000819722
0.00111155
0.00175124
0.000794967
0.00137181
0.00130101
0.0018898
0.0014479
0.00110268
0.00121558
0.00221439
0.00154763
0.00149716
0.000683406
0.0005084
0.000789584
0.00160095
0.00129946
0.0018978
0.000484551
0.000325537
0.00111313
0.0010022
0.00128453
0.00102105
0.000358235
0.000584603
0.000547837
0.000451781
0.000947434
-0.000214571
-0.00053034
0.000280737
0.000640364
0.000696044
0.000581059
0.000727238
0.000905466
0.00129059
0.00105124
0.000799794
0.00121388
0.000291445
0.00107275
0.000485674
0.000902102
0.000835047
-2.22512e-06
0.00102057
0.00106791
-0.000921186
0.000669979
0.000698879
0.000766424
0.000550713
0.000497587
0.000759245
0.000647738
0.000469389
0.000541593
0.00062946
0.00077029
0.000782466
0.000755332
0.000752776
0.000787763
0.000757547
0.000629773
0.000740915
0.000705188
0.000726979
0.00080889
0.000805672
0.000396835
-0.00134548
0.00143418
0.000830935
0.00150887
0.0019861
-0.00192769
0.00116607
0.00108323
0.000743904
0.000700244
-0.000223363
0.000754317
0.000654646
-8.85198e-05
-9.14213e-05
0.00161875
0.000967134
0.000188951
0.000519634
2.26416e-07
-0.000265381
-0.000333632
0.00236287
0.00108231
0.0016003
0.000794894
0.00103972
0.000618986
0.000226873
0.000574391
0.000532271
0.000543695
0.000714084
0.000322386
0.000665978
0.000757116
0.000636583
0.000184336
0.000580263
0.000905692
0.000669118
0.00121368
0.000126265
0.00103811
0.0005844
0.00185474
0.00163169
9.69692e-05
0.00107698
0.000482681
0.000786901
0.000758685
-0.00105114
0.000936354
0.00118837
0.000508793
0.00120961
-8.59016e-05
0.00310168
0.00118797
0.000207088
-0.000253837
0.000697865
0.00212125
0.00150861
0.000533512
0.000934323
0.000872263
-0.00017181
0.000609298
7.28699e-05
0.000253399
0.000151778
-0.000496063
0.00188542
0.00111348
0.00100183
0.00091674
0.00236269
0.000878937
0.000648377
0.000101003
0.00218212
0.00193938
0.000373906
0.00248106
0.000963993
0.0018527
0.00209031
0.000958954
0.000944306
0.000753387
0.00057355
0.000772315
0.000594137
0.000557896
0.0004644
0.000412
0.000477036
-0.00026347
0.00101531
0.00110121
0.00172834
0.000769625
0.000828765
0.00100341
0.00094372
0.000911471
0.00106239
0.000867016
0.000601319
0.000602765
0.000320822
0.000591609
0.000363021
0.000181993
9.86619e-05
0.000563454
0.000827885
0.000749997
0.00123738
0.00058966
0.00071235
0.000715923
0.000909887
0.000589501
0.000701512
0.000686285
0.000683122
0.000388914
0.00095954
0.000588658
0.000420244
0.000822437
0.00111357
0.000990309
0.000850238
2.94591e-05
0.000111312
1.34087e-05
0.00158711
0.00122795
0.000839207
0.0010772
-0.00016879
0.000720445
0.000638247
0.000901117
0.000794937
0.000555088
-0.000128226
0.00136821
-0.000113092
0.00142023
0.000366275
0.000689197
0.000583854
0.00101715
0.000206989
0.000498587
0.000865341
0.000298575
0.000651758
0.000960441
0.0010353
0.00117096
0.00150119
0.000732796
0.00111294
0.000755433
0.000733874
0.00041978
0.000151667
0.000527173
0.000741597
0.000190975
0.000610724
0.000494451
0.000963815
0.00117208
0.000576276
0.00102611
0.000932922
0.000687587
0.000433688
0.000783022
0.000868299
0.00073711
0.000379407
0.00102702
0.000841808
0.000759987
0.000903614
0.000358986
0.0010581
0.000469134
0.000343432
0.000586752
0.000955603
0.000238445
0.000156637
0.000630689
0.0011013
0.000307928
0.0017557
0.000541518
0.000300488
0.00062146
0.000601024
0.000916538
0.00040791
0.000861815
0.000913797
0.000943319
0.000984641
0.000921803
0.000628688
7.16209e-05
0.000900474
0.000545283
0.000254516
0.00112128
0.00164208
0.00097889
0.000285414
0.000730343
0.00165197
0.000302484
0.00100729
0.00119809
0.000883287
0.00197911
0.00127407
0.000250151
0.000644671
0.000490079
0.00163006
0.000302387
0.000710821
0.000565374
0.000672026
0.000690642
0.000779998
8.63311e-05
0.000865948
0.000400655
0.000340629
0.000554163
0.000990993
0.000733826
0.00100291
0.000524961
0.00113145
0.00104133
0.00109029
0.00121423
0.00115813
0.00134365
0.00177676
0.000517929
0.00117187
0.000409456
8.43574e-05
0.000528409
0.000251036
-4.23474e-05
0.0010737
0.00165511
0.00157814
0.000327942
0.00109827
0.00175601
0.000625565
-0.000199985
0.00120189
0.00149951
0.0010183
0.00065405
0.000491894
0.000514888
6.72785e-05
0.000607653
0.000727198
0.000178049
0.00127306
0.000226171
0.000153901
0.000708283
0.000596668
0.00071467
0.000604038
0.000279604
0.000846586
0.000737581
0.000445002
0.000692078
0.000359535
-0.000914635
-0.00113105
-0.000641619
0.000182103
0.000545416
0.000702576
0.000830018
0.000177741
0.000770689
0.000523562
0.000544348
0.000844688
0.000723639
0.000800006
0.000655345
0.000730918
0.000803505
0.000694988
-0.000105304
0.000525701
0.0002684
-0.000651944
0.00124657
0.000957944
0.000723361
0.000593802
SCALARS CoVolArea double 1
LOOKUP_TABLE default
257016
91473.3
170409
163234
121462
196097
130910
112758
141986
175006
213491
131338
192244
164914
184869
242038
127000
143458
156935
190976
185982
214914
157125
133115
331862
240167
221106
286920
417215
384235
236379
239264
203963
227202
226727
223138
397341
185873
170335
165870
168684
196694
227773
181141
257188
179401
207085
200801
111012
160234
113312
178157
248004
350330
185107
126289
106882
166215
284917
132646
106087
139302
155038
260184
255642
225885
216893
93924.8
230389
182181
183473
179957
269992
294241
296725
215835
213272
198996
238010
184676
136688
139696
142529
146582
143144
299105
219439
168490
196615
340876
186021
224406
268925
183151
225030
216088
277401
155830
141766
334011
81709.5
86835.9
188538
251342
166551
112110
119925
118976
118169
167867
220443
140684
208431
246037
224296
225938
200408
143776
233991
247100
200589
272307
239850
216255
230924
228223
289500
212873
217609
229303
199249
225058
199380
214586
142043
244885
192836
169121
168499
148109
191115
188235
220828
203166
125571
131808
189030
176319
163634
144404
202767
167080
256826
131708
190492
261788
177357
162332
398866
167566
144151
213319
294256
243646
374039
194183
168841
182348
206856
166877
167324
167206
195037
176726
187587
188328
173286
190558
199359
207924
148193
107623
156254
153337
125316
125192
125388
126826
162899
222979
210120
200181
314897
356103
259536
244127
153207
173306
115547
300643
237774
252218
321679
334845
153893
186758
110458
114317
131075
119973
118549
122005
168205
98598.2
131913
185716
133946
129092
213777
207859
221585
214846
126521
148669
197984
87782.2
109774
148457
121131
127306
118985
140005
167823
230782
244782
212550
194575
143817
175010
234191
200849
256847
236232
321560
166336
221997
214562
162194
192911
172539
205074
94460.3
140564
209826
175281
132709
165934
203295
236417
178587
205607
182873
142024
134597
188926
178238
187512
273120
246236
258475
267177
257079
246717
239608
219372
321196
308692
266718
281178
229283
214824
229803
207742
169620
206357
212349
204172
219232
213442
322475
281416
262212
257451
159566
233787
286151
163285
238410
141299
290823
242157
144684
138421
149118
202690
211037
174989
142766
175436
138322
131628
124280
143835
137820
149762
172639
155920
154015
208229
345754
133932
110557
217544
178383
296788
161436
165566
289068
189986
313764
174950
176549
188995
243951
140640
271771
309940
164836
237628
401482
404345
133930
222992
196941
219468
181048
218229
232383
281472
251020
278754
262882
253587
245598
202374
216513
218527
217961
223913
194379
181544
309250
226374
227183
148079
180236
232065
235705
284822
287533
233997
336485
184607
146829
276375
170101
277075
54463.4
58504.6
224321
88684.6
231596
67326.5
141839
164092
164468
124121
387382
268692
303193
315036
257793
346375
134968
164306
217292
222185
129681
143577
172069
218401
112564
95740
98708.7
76594.5
174183
82448.2
125914
112531
140609
133426
158964
136430
149877
211416
188275
218406
224605
301414
136583
186108
136177
208254
222328
200088
215082
212855
195970
217407
232777
250413
211876
191213
179208
245136
212289
216482
164699
166692
189850
182741
219805
202600
239443
226298
220324
195686
209428
249234
246296
267685
283468
212666
192392
237872
220041
318595
274335
389926
146705
191676
241467
210972
246232
211763
244588
206741
215342
237016
381892
238905
314609
188532
206142
238839
282131
286134
349939
224676
205812
287675
234317
190776
201423
193726
174417
208806
197813
211473
204930
250985
306164
192753
188643
177339
202766
190628
161775
139543
169594
181669
262597
238270
255329
212687
198847
217793
226187
176747
200465
207229
151406
198297
153315
162239
155697
166017
175273
211216
208847
182143
176415
151088
112388
169077
192504
175126
249599
215050
255856
209995
204995
198714
203296
219446
191537
188797
141573
155955
194805
112064
154279
151310
200412
195173
134027
170080
125107
123774
208896
143751
213907
213984
195425
183918
152424
163416
188315
166963
154085
181922
187966
300857
170242
188611
167282
163969
187267
172850
174874
232049
210262
200762
199345
220392
173777
174337
137205
218780
227409
256978
264707
308466
317951
296025
217086
198508
221382
148715
171851
111871
135762
237142
174359
184630
155473
198881
220403
272096
315757
277177
209251
251279
203332
232125
226371
143580
172455
147520
156733
314467
139894
269751
160821
158874
182160
85619.3
539219
334349
211158
310919
188082
232125
363622
187620
217714
194223
146114
142083
154361
173076
130308
169365
205938
237685
163735
263747
256050
195250
181691
171957
166209
SCALARS SignedDistance double 1
LOOKUP_TABLE default
977.206
1217.23
736.714
744.877
1018.7
1351.98
1083.44
1296.32
1123.85
997.668
1214.89
781.243
790.068
1004.06
1107.92
1398.73
972.075
994.331
910.081
921.619
850.194
897.71
1132.78
1155.2
1050.73
1095.83
1005.76
890.423
1623.57
1176.55
1326.8
1468.29
763.645
941.129
748.131
749.96
874.266
864.94
887.084
1125.74
927.652
1091.63
931.252
926.762
1097.05
832.542
823.455
772.757
1202.21
1050.53
1185.71
1073.59
942.997
1343.21
1276.23
1081.13
1154.93
1261.75
1123.16
1008.92
1094.66
940.771
978.781
1139.8
1109.57
684.291
815.51
1179.64
728.094
968.618
846.746
979.807
911.295
1003.19
997.013
860.961
856.549
1203.2
1334.78
1183.76
1180.57
1082.98
1120.17
1067.35
1176.4
1314.96
910.971
973.734
1027.93
1295.77
1127.31
828.371
877.436
992.401
918.47
800.665
913.435
812.201
1210.94
1341.61
1317.53
1221.37
1090.72
1579.74
1169.4
1220.84
1405.08
1280.01
1163
1223.13
1451.49
1172.45
700.071
753.968
759.051
974.624
936.79
944.503
834.068
857.805
941.675
854.545
852.711
804.793
749.685
872.143
848.154
756.538
838.551
825.488
829.138
838.031
997.731
893.496
1058.31
921.522
779.17
1096.69
1018.28
1083.3
1064.88
1125.5
773.042
1056.82
1012.35
966.3
1058.69
1038.06
1054.89
1139.06
725.16
941.737
996.74
1143.25
986.121
1073.24
1222.13
1162.26
1623.33
1111.3
1132.37
1194.71
975.679
1028.78
1014.54
848.63
915.268
841.588
1076.08
992.003
1013.2
793.63
776.485
762.596
890.57
813.712
891.65
772.233
784.593
795.695
1235.17
1191.44
1233.08
1062.95
1123.96
1159.21
1108.68
1119.26
1022.31
864.892
936.189
970.204
999.503
1065.69
1165.9
1065.63
927.998
1000.05
1005.66
1365.12
1294.41
1310.35
1367.61
1394.04
1259
1274.51
1149.08
1183.66
1236.13
1061.64
1115.8
1012.25
1326.75
1214.43
1236.78
1199.81
1206.39
1111.99
1155.74
979.279
901.912
1006.12
992.94
1124.63
1081.58
1163.28
1095.03
942.397
1002.39
1007.01
1015.08
965.239
1072.34
1176.88
1296.52
1036.5
1099.8
924.741
1010.32
1077.95
940.901
881.058
886.067
1120.54
875.512
893.311
748.87
842.786
802.766
782.225
735.05
1197.3
1000.98
825.225
874.106
1065.13
873.693
783.73
1045.95
947.163
1046.27
815.389
906.04
924.487
912.79
882.07
870.802
635.672
734.36
669.438
920.604
866.877
884.118
882.844
820.634
1163.63
1053.23
892.819
997.137
935.489
985.923
940.245
815.973
796.615
774.298
796.777
882.62
823.362
874.637
938.377
891.083
799.072
1369.19
1314.89
1315.89
1417.25
1194.74
1236.15
1177.41
1234.08
1220.1
1156.96
1176.22
1165.17
1210.81
1228.68
1041.4
1066.54
1034.1
1132.91
1101.35
1119.31
1099.26
1093.52
1118.51
1188.83
1151.09
1160.11
1240.38
1333.68
1127.87
1187.37
1201.8
1307.89
1294.36
833.368
856.345
1044.48
924.478
998.517
878.145
961.76
996.339
1039.2
1048.2
1143.99
1041.69
1082.06
1168.62
1092.86
1073.09
1128.99
1181.48
1259.24
881.921
832.309
887.078
898.552
833.297
840.633
839.148
1087.88
997.941
901.585
944.908
943.047
962.051
933.877
733.55
782.53
732.086
871.72
882.843
918.999
974.759
895.393
973.855
868.688
876.031
855
1123.26
1258.07
1068.71
1103.08
1299.53
1256.55
1402.06
1333.53
1229.39
1284.09
1222.7
1367.54
1197.57
1142.38
1082.84
1157.69
1160.54
1389.33
1171.5
1138.87
1238.64
1176.41
1629.84
1248.62
1329.35
1391.89
1293.65
1476.94
1074.85
1115.99
1310.39
1289.89
1331.95
1233.18
1208.02
1283.33
1237.61
1399.99
1100.44
1067.64
1170.93
1195.61
1151.45
1477.27
1303.59
1333.66
1197.78
1243.73
1383.13
1166.83
1271.01
1322.02
726.926
720.453
745.557
736.546
712.099
699.639
738.895
753.363
767.386
986.624
995.895
1004.59
950.343
967.206
961.83
847.956
914.298
855.712
937.868
864.987
966.117
804.127
839.488
782.971
931.957
892.078
916.463
821.646
906.779
841.017
836.478
818.023
780.746
819.076
865.823
854.491
861.549
923.08
804.821
747.746
736.848
788.867
789.321
773.291
833.821
761.683
741.726
864.553
908.743
868.152
722.52
835.028
794.911
792.424
828.287
875.446
820.796
797.845
878.423
860.435
830.653
799.604
839.916
761.539
819.548
808.733
801.039
826.799
858.703
868.692
1025.07
1011.28
1050.44
920.981
954.334
967.329
943.213
957.79
892.923
845.625
837.801
860.247
823.185
752.551
885.113
868.929
838.762
864.296
923.888
1098.24
1048.46
1103.8
1098.94
1115.72
1028.99
970.306
1072.96
1081.07
1126.89
1047.06
1086.9
1047.27
1118.23
1081.26
1087.26
942.061
1032.5
995.088
726.994
821.241
751.318
714.856
745.044
1085.49
1076.13
1038.66
1055
1071.93
1040.82
988.469
1006.8
1011.7
816.078
938.591
1082.97
1014.25
1027.34
887.552
990.717
831.58
945.351
981.453
990.996
1049.23
1063.94
1026.23
1097.78
1065.31
1020.69
1003.41
1220.12
1141.31
1188.42
1175.19
1149.56
1035.74
1100.5
1083.22
746.16
676.921
694.301
765.114
843.672
995.221
1075.84
1094.9
930.907
765.521
895.951
935.937
858.293
913.443
1035.91
763.908
979.042
891.716
1130.35
993.338
1086.68
1174.68
1220.31
781.469
1056.67
880.283
876.035
908.656
1080.31
1131.2
1107.3
1010.66
1020.08
1096.12
1165.68
1221.1
1175.03
1179.84
1183.35
1223.47
1286.83
1160.98
1272.99
1178.6
1140.94
1158.98
1414.97
1460.29
1526.68
1461.32
1706.42
1205.87
1282.3
1274.75
1040.79
1046.54
1050.17
1096.54
1136.93
1126.32
1170.65
1150.92
1098.48
1069.17
1359.77
1189.31
1232.29
1374.03
1231.86
1124.49
1158.75
1160.91
