# vtk DataFile Version 4.2
vtk output
ASCII
DATASET POLYDATA
POINTS 642 double
-2268.59 5585.41 -686.741
-34.3021 5534.46 -644.088
-2278.31 731.84 -29.8832
1283.2 752.3 91.2657
-684.019 1412.92 2009.06
-1557.38 4376.33 1370.43
-492.714 1845.3 -1628.74
-1486.75 5171.56 -2254.91
1317.2 3025.28 -804.607
1540.13 2935.49 1074.91
-2726.88 4175.14 -1181.44
-3180.78 3569.25 1519.64
-3068.58 4809.19 897.144
-2320.22 4173.51 1884.83
-1865.47 5079.92 1084.89
-212.711 5189.86 277.875
-711.241 6034.02 -338.952
-147.391 5668.28 -1127
-1991.12 5892.87 -1786.57
-2041.56 4966.12 -2325.18
-2875.74 5244.19 -1370.94
-3299.73 3506.02 265.566
649.567 3607.95 1485.87
1115.49 3941.88 666.923
-1892.83 2199.32 1672.54
-454.223 2947.85 2030.3
-2551.42 1674.83 -502.709
-2672.11 1734.98 872.773
-1001.22 4032.47 -1467.26
-1646.03 2706.98 -1318.59
916.825 4345.72 -456.678
192.383 4607.28 -1085.64
2032.94 1611.72 806.37
735.739 2291.06 1880.22
477.264 820.448 1441.86
-1720.96 776.429 1514.32
-531.95 691.027 -59.2124
-1389.58 947.829 -1237.82
376.985 966.962 -1146
593.115 2246.77 -1381.2
1871.94 1721.44 -465.425
1820.71 2535.05 149.835
-2727.9 5091.37 466.107
-2492.73 5051.91 1081.36
-1875.54 5186.87 621.574
-2791.32 3921.75 1820.04
-2757.92 4544.75 1574.4
-3190.86 4200.9 1287.15
-1783.69 4836.85 1304.56
-2167.59 4714.85 1542.98
-2054.91 4316.89 1735.43
-913.886 5820.84 3.87194
-1103.8 5955.13 -411.358
-465.065 4438.03 938.58
-1077.42 5479.29 486.181
-345.522 5868 -501.199
-601.299 5804.12 -93.3083
-334.916 5559.36 -197.598
-1324.8 5885.73 -1043.25
-2136.96 5870.82 -1523.5
-11.805 5668.65 -871.829
-374.115 5984.06 -832.782
-1769.98 5544.92 -2086.27
-979.667 5764.49 -1490.27
-617.907 5425.1 -1529.17
-2546.29 5802.72 -1657.1
-2652.42 5566.13 -1091.33
-1858.32 5103.58 -2447.49
-2100.88 5526.17 -2238.7
-2796.1 4984.81 -1438.15
-2673.7 5245.19 -1890.33
-2411.4 4584.08 -1936.85
-2972.82 4928.45 -47.8304
-3060.11 3538.03 -372.929
-2965.99 4413.48 -428.101
-3279.5 4286.46 569.276
-3280.61 3561.28 908.31
630.579 4283.09 751.38
471.686 4561.34 114.633
139.432 3847.09 1467.95
415.997 4141.17 1166.46
1376.96 3538.14 888.993
975.55 3850.34 1102.87
1107.6 3353.96 1375.76
-2142.49 3725.85 2021.73
-905.761 3511.52 1861.06
-2756.87 3300.13 1719.36
-2255.71 3599.03 2039.17
-359.097 2361.35 2143.52
-1375.88 3111.24 2045.14
-1245.86 1424.08 1865.03
-3262.49 2663.23 455.199
-3007.98 2854.61 1126.27
-2762.58 2631.62 -775.386
-3095.2 2637.74 -180.186
-2554.21 1050.6 509.691
-2745.25 1646.77 41.958
-2575.33 1056.64 -380.364
-1991.8 4320.22 -2028.72
-1931.95 3461.88 -1455.82
-1517.18 5224.38 -2203.63
-1911.81 4749.89 -2366.47
-986.856 1947.8 -1568.03
-1688.24 3265.44 -1715.03
-506.971 2381.9 -1632.22
-83.3821 5251.02 -1282.28
-566.624 5282.03 -1735.59
355.234 5246.51 -799.038
221.594 5322.84 -893.499
904.304 3306.39 -1001.2
81.1529 4433.44 -863.427
1255.29 3473.8 -591.75
1816.43 1107.36 502.578
1458.99 1160.57 1093.34
992.208 737.608 765.534
1243.11 2600.62 1483.31
1565.81 1781.04 1235.02
1984.06 2124.91 886.974
-175.33 1154.53 1853.07
666.541 1440.86 1721.41
175.121 1891.84 2040.02
155.163 693.876 989.742
623.053 695.627 30.047
-989.893 1092.63 1998.96
-627.165 736.774 1685.06
-1678.33 684.862 106.79
-1302.77 696.317 964.704
-2015.2 696.333 964.933
87.0787 696.381 -789.421
814.182 850.008 -593.409
-1965.86 814.969 -570.236
-1142.54 689.84 -848.32
-86.7127 1347.16 -1388.34
-624.694 915.497 -1250.82
-1084.71 1218.5 -1363.18
1161.99 1328.29 -774.585
1720.84 1177.17 -265.178
29.6958 2058.68 -1593.57
576.535 1589.82 -1350.25
1733.05 2026.93 -493.727
1196.91 1943.07 -978.103
995.619 2661.18 -1150.45
2101.56 1591.95 122.71
1680.86 2840.7 -333.438
2074.97 2065.56 -111.906
2184.03 2087.13 416.386
1793.26 2614.63 601.954
132.076 2619.03 2062.13
711.705 2957.27 1797.23
137.232 3169.68 1906.01
-2342.8 1012.47 1352.39
-1903.34 1248.58 1789.78
-2288.17 1717.29 1383.64
-1449.27 1280.17 -1298.06
-2161.51 1145.46 -737.929
-2264.06 2118.01 -947.953
542.523 2931.97 -1309.06
-44.3973 2727.32 -1636.78
-660.529 3805.32 -1719.62
1519.48 3502.53 406.213
1482.87 3485.44 -175.337
1112.61 3959.52 36.16
-2483.86 5216.6 -95.8331
-2434.64 5151.66 599.636
-1976.31 5367.27 63.4562
-2798.02 4966.83 1006.3
-2633.31 5090.99 828.774
-2923.63 4977.34 718.531
-1928.6 5159.26 903.747
-2315.85 5135.33 913.545
-2170.94 5083.89 1100.4
-3025.2 3729.96 1689.32
-3040.05 4034.81 1608.4
-3222.55 3838.9 1451.23
-2545.75 4356.88 1783.53
-2785.71 4241.61 1744.04
-2546.37 4083.3 1896.32
-3151.66 4554.87 1084.49
-2998.22 4405.47 1446.59
-2945.36 4699.98 1255.2
-1768.44 4682 1395.53
-1925.64 4614.16 1526.45
-1905.18 4438.66 1583.3
-2019.07 4936.08 1322.13
-1964.25 4793.64 1433.41
-1828.05 4974.6 1200.05
-2171.27 4240.16 1829.18
-2107.15 4525.27 1656.96
-2264.3 4463.89 1745.24
-2647.14 4850.27 1337.66
-2447.24 4658.64 1595.8
-2325.47 4908.15 1355.98
-1347.44 5692.55 -43.3341
-1668.82 5671.39 -652.842
-1359.85 5303.61 513.461
-1353.38 5550.56 199.206
-843.412 6039.58 -301.728
-934.542 5936.67 -137.466
-822.075 5977.97 -179.987
-1113.49 4220.09 1066.84
-1544.69 4809.34 1134.78
-727.991 5412.48 179.344
-1150.29 4903.18 601.875
-233.363 4655.24 596.096
-1650.31 5015.41 1019.93
-1497.42 5138.54 873.041
-185.154 5728.47 -587.687
-327.243 5731.3 -319.1
-175.515 5559.88 -413.01
-659.85 5940.61 -205.14
-494.217 5855.24 -239.713
-554.414 5987.33 -428.1
-418.399 5402.71 40.8133
-456.176 5702.01 -136.803
-556.988 5641.68 -17.9597
-901.528 5598.42 236.895
-760.963 5686.62 70.6276
-771.422 5848.85 -38.0992
-1696.08 5854.63 -1201.4
-2211.61 5736.82 -1205.15
-762.683 6044.51 -545.842
-1242.49 5924.87 -727.521
-2086.83 5901.63 -1634.3
-1887.39 5822.23 -1421.98
-1893.98 5840.36 -1567.32
-5.53586 5636.38 -855.996
-158.17 5794.15 -755.333
-246.343 5875.38 -978.901
-188.113 5853.35 -848.482
-47.5006 5705.42 -953.038
-358.104 5949.11 -703.737
-511.591 6020.95 -634.801
-1633.86 5254.56 -2230.56
-1356.46 5483.37 -1867.72
-1118.3 5174.06 -2013.36
-1684.35 5781.06 -1735.03
-1510.28 5682.53 -1796.82
-1886.84 5765.88 -1947.85
-279.9 5579.66 -1289.92
-814.369 5666.48 -1530.3
-425.929 5791.58 -1226.06
-600.636 6041.73 -852.076
-501.384 5966.17 -1061.9
-1123.11 5850.89 -1302.76
-2407.61 5772.9 -1341.48
-2455.09 5607.21 -898.78
-2215.85 5940.09 -1752.55
-2323.74 5893.8 -1570.72
-2802.55 5424.52 -1251.87
-2620.73 5710.89 -1439.03
-2784.27 5535.63 -1523.73
-1732.96 5135.98 -2374.09
-1828.18 5255.13 -2348.22
-2085.97 5228.72 -2339.05
-1908 5253.92 -2417.39
-1904.52 5100.98 -2476.4
-1931.72 5562.05 -2195.96
-2043.3 5793.48 -2042.14
-2639.65 4532.17 -1448.7
-2641.88 4790.31 -1692.08
-2497.3 4482.38 -1724.14
-2850.26 5262.51 -1638.56
-2791.6 5164.31 -1662.85
-2865.09 5146.32 -1425.64
-2272.64 4780.49 -2136.36
-2560.8 5026.4 -1917.21
-2392.13 5143.29 -2109.78
-2374.92 5736.02 -2010.69
-2450.14 5397.29 -2130.39
-2700.89 5502.12 -1851.88
-2650.74 5262.3 -417.818
-2872.87 5137.77 -843.319
-2804.61 5203.18 -647.005
-2894.08 5013.38 195.481
-3103.06 4849.78 528.561
-2680.76 3675.2 -839.97
-2774.06 4380.74 -889.51
-3257.88 3915 47.0506
-3057.9 3991.77 -393.771
-3219.44 3484.51 -95.609
-2852.45 4825.58 -1017.29
-2878.4 4978.19 -1044.26
-3272.7 3872.16 1181.55
-3267.11 3565.37 1298.46
-3248.87 4595.19 770.692
-3271.67 4286.58 955.253
-3370.9 3548.29 504.638
-3346.08 3902.69 711.871
-3363 3905.74 410.804
-3011.47 4740.31 -223.49
-3268.05 4304.02 220.238
-3248.36 4633.54 363.993
120.34 5068.66 -310.148
75.244 5243.11 -488.842
115.829 4597.68 753.637
-215.693 4741.12 391.812
927.641 4129.25 541.125
659.241 4344.3 476.786
880.658 4139.04 714.49
-301.351 3960.14 1407.74
-2.85074 4114.84 1272.08
544.353 3919.71 1314.24
313.251 4029.14 1304.8
412.627 3718 1478.5
169.906 4236.34 1125.68
252.022 4372 923.063
1460.88 3308.68 999.242
1277.7 3463.88 1143.02
1303.73 3224.65 1271.55
1068.99 3901.92 886.083
1185.35 3704.59 1010.01
1269.18 3743.81 777.092
881.014 3485.45 1447.83
1056.26 3623.38 1237.64
842.679 3761.29 1297.43
534.139 4226.65 970.012
699.747 4017.46 1148.98
814.366 4084.79 941.249
-1871.68 3944.81 1817.5
-1193.83 4032.32 1287.2
-2148.64 3913.66 1939.83
-2037.37 3974.4 1870.91
-554.13 3331.01 1871.59
-1653.29 3855.59 1845.85
-1369.11 3518.61 1593.99
-3002.8 3449.12 1655.78
-2821.07 3594.12 1791.8
-2203.95 3336.77 1939.68
-2517.69 3484.55 1907.53
-2318.9 2974.59 1672.96
-2544.34 3749.45 1940.29
-2302.42 3832.1 1996.9
-529.12 1805.31 2031.08
-739.035 1806.08 1995.11
-854.776 1392.83 2013.11
-989.258 2834.59 2025.93
-680.865 2536.35 2056.92
-365.829 2615.7 2075.19
-1680.8 1561.21 1686.85
-1189.36 2096.6 1875.53
-1731.02 2732.57 1812.72
-2113.97 3618.23 2036.3
-1963 3513.4 2041.88
-1903.44 3472.24 2043.09
-3208.37 3266.67 1123.65
-3163.64 3340.66 1397.14
-3285.01 3066.08 348.858
-3228.22 3149.46 650.348
-2921.9 2254.28 974.366
-3172.77 2715.28 783.062
-3075.73 2332.31 628.845
-2681.79 3058.4 -853.854
-2885 2984.66 -611.267
-2910.58 2256.47 -427.619
-2931.75 2598.03 -522.836
-2765.78 2292.85 -662.145
-3073.41 3029.42 -258.719
-3213.29 3029.51 35.3373
-2447.63 851.912 236.287
-2591.22 1039.55 -37.4496
-2456.39 857.721 -239.652
-2790.73 1716.13 435.654
-2654.75 1249.77 212.921
-2502.88 1275.4 742.428
-2537.94 1201.56 -426.148
-2631.94 1201.47 -211.121
-2611.48 1583.99 -264.887
-3244.64 2645.4 170.887
-3024.64 2255.4 -65.195
-3116.94 2306.95 288.792
-2252.04 4335.51 -1887.17
-2350.01 3913.71 -1062.06
-2035.37 4584.9 -2187.22
-2181.12 4426.4 -2015.73
-1870.34 3212.73 -1391.28
-2071.34 4147.26 -1851.93
-1935.56 3904.71 -1722.63
-1483.95 5178.42 -2262.7
-1758.87 5136.13 -2398.26
-1888.43 4630.15 -2121.97
-1869.47 5009.56 -2247.27
-1552.52 4771.11 -1993.81
-1903.55 5097.73 -2479.69
-1911.68 4882.28 -2409.74
-746.536 1902.22 -1610.11
-746.527 2225.47 -1637.08
-484.073 2069.7 -1632.14
-1475.11 3055.02 -1696.52
-989.173 2523.22 -1614.22
-1204.24 2112.38 -1461.95
-552.871 2895.88 -1636.19
-891.255 2711.8 -1645
-1742.69 3538.69 -1693.15
-1881.5 4471.49 -2245.97
-1860.19 4346.72 -2184.44
-1822.98 4104.03 -2074.94
-540.159 5275.64 -1702.53
-1206.87 5205.75 -2028.65
[...]
POINT_DATA 642
SCALARS Mean_Curvature double 1
LOOKUP_TABLE default
0.000637208
0.000278932
0.00216969
0.00222877
0.000332148
0.00307469
0.00175054
0.0195471
0.00134902
0.00103697
0.00600938
0.00327541
0.00185655
0.00170126
0.00174722
0.00951988
0.00441155
0.00171463
0.00359744
-6.97617e-05
0.00248996
-0.0001045
0.000791138
0.00133125
0.000441926
0.00041713
0.000559703
0.000267918
-0.00268394
-0.0010435
0.00811598
0.00634564
0.00217983
0.000902251
0.00211264
0.00226138
1.35258e-05
0.00273541
0.00264099
0.000226329
0.00286385
-0.00124646
0.00128965
0.00154875
-0.00165439
0.00136555
0.00171496
0.00131906
0.0015997
0.00141766
0.000735403
0.00133947
0.00169808
0.000677429
0.00749514
0.00165433
0.00221268
-6.80272e-05
0.000238691
0.0017325
0.0116345
0.00362894
7.67226e-05
0.00191709
-0.00173518
0.00316246
0.00167899
-0.0164871
0.00257362
0.000103949
0.00218629
0.00190269
0.00153744
0.000499682
-0.000971381
-0.000167175
-0.00010949
0.000137334
-0.0016084
0.000872043
0.00148765
0.000984756
0.00141392
0.000963481
0.0035782
0.00336926
0.00123763
0.00365826
0.00156903
0.00465235
-0.000927921
0.00190087
-0.000359337
0.0014805
0.000670836
0.0023781
0.000361882
0.00487282
-0.00178473
-0.000564515
-0.00572585
-0.0178564
0.00184216
-0.0121641
-0.000130371
0.0089328
0.00146425
0.0037169
-0.000745731
0.000600222
-0.00447583
0.000872557
0.00161839
0.00160166
0.00132309
0.000519348
0.000361682
0.00312604
7.56471e-05
0.000803112
0.000606916
0.000133881
0.000153083
0.00315325
0.00263825
-0.00035243
-6.9034e-05
0.00148386
0.00170666
0.000776589
0.000555196
0.00132607
0.000294012
0.00247171
0.000133127
9.5799e-05
0.00186509
0.00119065
0.00211405
0.000155809
0.000702481
0.000904718
0.00104855
0.00181549
0.00343309
0.00504867
-0.000709274
0.000436692
0.000732591
0.00129577
0.00270796
0.00483095
-0.000425078
0.00192012
0.0024325
0.00066519
8.04664e-05
0.002336
0.000348176
0.001029
0.0012523
0.000416411
-0.000753509
0.000244951
-8.63951e-05
0.00157311
0.00151827
0.00158022
0.00290252
0.00118344
0.00141196
0.0020663
0.00136614
0.00257137
0.00167315
0.00183054
0.00189275
0.00146041
0.00115345
0.00152093
0.000724018
0.00181881
-0.000102584
0.00205838
0.00204241
0.00395025
0.002083
0.00143613
0.0022067
0.00167581
0.00147635
0.00129079
0.00063916
-0.000787047
-0.00237567
0.00147398
0.00354908
0.00237351
0.00381879
-0.0031442
0.00112236
-0.00113528
-0.00187587
-0.00126244
-9.60749e-05
0.0031332
0.000907004
0.00198102
0.000407004
0.00237881
0.00234299
0.00158853
-0.00551169
0.00205453
0.00296644
-0.00473957
0.00326714
0.00386724
0.00422675
-0.000477631
0.00104821
-0.00103431
0.00235733
-0.00859914
0.000927603
-0.00290603
0.00190847
0.00288964
0.00383229
0.00413803
0.0014714
0.00310468
-0.00106169
-0.000453685
-0.00829003
0.00133777
0.00137483
0.001211
0.000958367
0.0021167
0.00143688
0.00178049
0.00252902
0.000602367
0.00134789
0.00132611
0.00431335
0.00356042
0.00147534
0.00231994
0.00280087
0.018005
-0.000618773
0.00185368
0.00775197
-0.00260268
0.00297444
0.00389004
-0.00128533
0.000988091
0.0010318
0.00468817
0.000749377
0.00297253
0.00135324
0.00046586
0.000328607
0.00268964
0.00278529
0.00292073
0.000926924
0.00209981
0.00127019
0.00106639
0.00159303
-0.00267803
-0.000929674
0.000550008
0.00145321
0.00113484
0.00100387
0.0015209
0.000618948
0.00213182
0.00228035
0.00100586
0.00214801
0.000825225
0.00154261
0.000650362
0.000782046
0.00217227
-0.000148649
0.00181013
-0.00546656
-0.00316006
0.000876979
0.00141579
0.00148518
0.00185687
0.000405704
0.00103686
0.00114578
0.000105899
0.00067377
0.00295734
0.00110675
0.0013828
0.00120608
0.00105052
0.00121653
0.00133858
0.000681917
0.00106031
0.00134752
0.00131607
0.00145428
0.00119312
-0.00262764
-0.00254652
0.00120451
0.000624834
-0.0010394
0.00707798
-0.00354339
0.0023007
0.00111907
0.0012999
0.00105192
-0.00128553
0.0014493
0.00247809
0.000171603
-2.59157e-05
0.00112679
-0.00172433
0.000908301
-0.00023582
-0.00142814
-0.00016194
-0.000537147
-0.000438884
0.00327815
-0.000155168
0.000987271
0.0022091
0.00128273
-0.000740483
0.000988122
0.00123596
0.000599685
0.00187783
0.000510558
0.00132163
0.000955325
0.0012552
-3.37411e-05
0.000532744
0.00179879
0.0016799
0.00248701
0.000473778
0.000644907
-0.00148043
0.0012599
0.00184976
-0.000717442
0.00185125
0.000606853
0.00103774
0.00113444
-0.00226775
0.000198306
0.00153125
0.000735893
0.00412016
-0.00265886
0.0486116
0.000135628
-0.00247325
-0.00438073
0.00150517
-0.019308
-0.00662505
0.000861809
0.000974545
0.00012461
-0.00245155
-0.000105559
0.000586144
0.000231661
0.000417907
-0.00185361
-0.015186
-0.0214123
-0.00700112
-0.00987017
0.0528466
0.00231015
0.000143784
0.00173571
-0.0522168
-0.0073657
-0.00494016
-0.0420807
0.00894658
0.00813672
0.0407183
-0.0121647
0.00114412
0.0011613
0.000838869
0.00121047
-0.00361002
0.000822219
-0.0024501
-0.00061424
0.00030317
-0.00199042
0.00405423
-0.000348084
-0.00135079
0.000685703
0.00129453
0.0018401
0.0018777
0.00136192
0.00229437
0.00226377
0.000467641
0.0013089
0.000701101
9.22362e-05
-0.000256101
8.5353e-05
-2.61006e-06
0.000931157
0.00142492
0.00122609
0.00154636
-0.000122091
0.00200876
0.000231601
0.00110895
0.000575239
0.00149471
0.00135069
0.000849042
0.000309564
0.00178301
0.000572566
-6.24933e-05
0.000332345
0.00107805
0.00165341
0.000545178
-1.16412e-05
7.88309e-05
3.74019e-05
0.00331135
0.00320007
0.00264961
0.00214437
-0.000404912
0.00113479
0.001409
0.000357915
0.00246271
0.000805245
-5.38178e-05
0.000657426
-8.34228e-05
0.00214879
-0.000497297
0.000515483
0.00109683
0.000772356
-0.000309147
0.0010801
0.00137209
4.4231e-05
0.000291141
0.00214965
0.00251204
0.002137
0.00293542
0.00112438
0.00257087
0.00191709
0.00168751
0.000132869
-5.06018e-05
0.00122623
0.000507378
0.0010838
0.00109247
3.25787e-05
0.00059451
0.00348256
0.00105194
0.00190817
0.00175033
0.00150861
0.00085931
0.000898555
0.00139865
0.000950382
0.000509058
0.00177535
0.00117686
0.0012182
0.00131109
0.000709823
0.000799946
-0.000429372
0.000450654
0.000213378
0.000997978
0.000691675
0.000271946
0.000805482
0.00054202
-0.000627431
0.00237465
0.00128097
0.000400697
0.000799541
0.00137299
0.00147355
0.000592642
0.00129997
0.00211229
0.00186136
0.00176034
0.00126771
0.00103798
-0.000589586
0.00151284
0.00142839
0.00058795
0.000598642
0.00377865
0.00212787
0.00156746
0.00197272
0.0036852
8.47859e-05
0.000906811
0.000566961
0.00167858
0.00398527
0.00349517
0.0012224
0.00108028
1.85566e-05
0.0024522
0.000253335
0.00110324
0.000826229
0.000757923
0.000817992
0.000969086
-0.000610502
0.00143178
0.000444329
4.07891e-05
0.000550634
0.00210631
0.000575489
0.00185653
0.000943324
0.0029707
0.00226895
0.00254465
0.00171571
0.0030282
0.00184873
0.00197404
0.00203364
0.00254725
0.000412842
0.000427797
0.00128539
0.000767882
-3.0402e-05
0.00385491
0.00158463
0.00192543
-0.000300471
0.00329295
0.00412741
-0.000188466
-0.0010846
0.00278272
0.000868199
0.00427766
0.00163671
0.00239745
0.000642496
0.000195673
0.000311269
0.00157596
0.000874408
0.00193888
-0.00196762
-0.000694717
0.000965962
0.00039345
0.000760475
0.00130255
0.00066661
0.000452479
-0.000178632
0.000200215
0.00127311
0.000298828
0.00786115
-0.00170436
-0.00162605
-0.00166988
0.00908013
0.00138328
0.00139892
-2.39973e-05
0.00135015
0.00131767
0.000741755
0.00124388
0.000736182
0.000947035
0.00287499
0.000899109
0.00115895
0.00119166
-0.0012829
0.000244591
-0.000225468
-0.00287823
-0.00830526
0.00139176
0.001232
0.000363511
SCALARS CoVolArea double 1
LOOKUP_TABLE default
249186
65028.6
92531.9
91800.8
64786.6
186540
66029.8
20189.6
79963.8
113698
191767
54894
96970.5
66294.1
84919.6
168180
33798.2
62429.7
52569.4
84247.9
74559.4
139654
94180.6
66494.7
277995
224195
143642
228869
608799
375172
107740
261206
101638
152139
125679
124004
392694
80945.6
79964.3
108957
66025.2
157327
150007
87990.1
222695
92666.3
108367
114982
48410.9
67689.7
56520.2
86601.4
179941
397424
147952
52902.5
33558.2
168713
186970
69240.3
14853.7
41447.6
97539.5
136180
175242
95687.6
131162
8501.1
92044.2
134293
72217.8
93860.3
149739
261220
235163
130792
147552
143009
160656
131389
66030.5
67794
68349.3
78449.8
105747
281444
156667
61110.5
124845
262572
181598
130170
197380
100409
145141
131780
207986
53248.8
70947.1
341567
89158.7
40984
127165
120722
126513
17903.7
105851
65033
33826.1
102508
297780
80895.3
120230
153755
141139
166173
128088
66397.9
161556
176416
126194
216373
190742
102985
123729
177410
247944
123038
121979
144231
114517
130686
147622
119075
72645.3
172615
104523
106219
83435.3
111069
121808
119053
114080
121705
38139.2
28436.1
126969
95824.7
89373.3
80099
88188.6
46856.9
194242
67338.1
92950.8
224653
123801
79277.8
467887
87946.4
67034
174975
251939
209979
408501
98428.3
87343.4
97587.8
129734
98377.6
79745.8
78598.7
108221
87076.5
86141.8
98331
82327.8
104937
115067
113015
109069
41947
144418
64898.5
45741.5
42721
46326.5
46645.4
66268.1
115210
100017
97657
274353
382458
160867
154749
56678.4
78709.9
25357.8
336220
271909
286121
422021
373337
118100
70465.6
52008.9
48460
83987.4
33765.8
42533.9
43208.8
108292
40315
73020.3
74808.3
55077.8
36163.9
168494
185853
115106
97777.5
33021.7
57473.8
110580
35827
34080
53854.2
29215.4
37337.4
38788.6
44415.8
96474.2
192700
130621
113644
111552
65468
98894
139586
99172.5
138835
111982
200562
84152.4
144687
72121.7
50734
101214
76221.9
83903
16425.6
43792.7
80763.8
38206.9
23348.9
57264.3
74202.6
184431
109815
164248
57646.2
64936.7
47370.1
108831
104450
101055
127265
112820
111702
179363
136852
143790
145661
117992
281846
297930
197509
217913
167306
147335
134166
129009
86714.7
110862
133032
129681
145513
127739
223369
199406
153834
295429
112234
129371
375730
103287
238372
68960.8
283369
196226
74937.6
73372
94384.7
140563
118081
96778.9
71475
99929.1
65866.9
64325.7
59020.3
81701
71046.8
77468.8
84575.2
74097.7
73513
224292
426418
40238.6
54809.9
161590
133934
373928
78500.4
83724.1
213718
117572
282228
84396
63786.1
128490
222532
77834.5
241202
247759
99690.3
255447
457251
395033
22203.7
127080
145726
150519
99239.6
130728
166148
214840
180950
200238
214555
196975
172322
126790
131199
159837
145905
133099
96541
82587.8
250169
158675
175277
63858.2
96356.7
171116
133250
201885
190855
206761
440041
75684.1
64292.9
201367
73506.4
213561
10034.8
22815.1
314449
97108.4
244183
19492.4
32983
98490.2
100790
66380.8
290457
152679
270468
392843
205188
508282
38649.8
73536.7
126269
60721.6
16428.7
52164.5
65682.1
307681
11067.1
38089.4
75826.4
12066
82902
8498.99
13950.1
22353.6
52386.7
66809.9
92636.1
68015
122744
183828
121302
141849
222421
306946
37139.4
154945
77787.4
123914
138381
115937
110564
124515
101777
125275
148658
158295
148449
135270
114878
186931
162099
152236
71661.1
97112.2
91802.3
105178
142369
138414
154698
152836
139228
124604
133925
183602
142822
192420
195688
145175
115311
138041
144442
298813
239826
385328
49827.2
93502.7
134877
111568
158578
121276
137803
127525
134538
149890
369718
186371
294577
99280.9
140189
157591
183678
195512
311923
143701
125089
233017
169557
99987
108065
94281.5
85950.8
137811
95335.6
120369
114134
200075
260705
118398
126542
109221
112565
121064
95708.5
45334.4
87405.4
83884.4
157185
126394
144301
133637
115514
131893
150831
85776.5
123306
121277
76686.6
136047
83749.5
108130
103872
109464
88835.3
154171
163427
111592
93322.5
105675
40920.3
105063
141825
106819
151882
117279
166140
121327
92792.3
105430
111021
112210
117472
139551
79401.8
93283.5
123970
56381.2
46755.3
80438.5
124230
80234
41093.6
129704
60834.3
65778.2
79634.8
34448.7
81774.3
135201
113753
110613
74272
92706.5
115126
101800
88243.6
109779
104544
301780
97793.2
124307
126028
103516
94953.8
91617.2
86324.7
142256
96235.3
102747
110026
134091
63810.3
107163
59225
97040.5
112565
176914
191779
239734
272328
247705
79423.1
95189.1
112765
89410.9
50062.3
35211.1
95415.9
258972
78154.3
111930
53861.4
100311
96732.6
254772
322436
218299
126108
186181
108127
209908
216813
75168.3
110364
83474.9
96693.8
344892
82704.7
178858
105442
92875.6
115030
129486
810993
575305
228988
193764
108494
95011.2
380096
109762
146658
125374
72809.6
76068.2
81201.2
79507.2
67075.4
89217.7
126185
237964
112375
257244
207894
94925
90667.1
101259
99501.3
SCALARS SignedDistance double 1
LOOKUP_TABLE default
347.819
393.915
230.96
218.268
366.708
478.014
360.981
670.884
336.889
311.888
551.113
221.22
235.12
323.829
365.402
732.814
302.33
289.898
375.435
362.301
291.024
296.162
360.966
363.447
362.222
338.612
414.475
328.809
983.909
457.128
670.826
859.698
239.772
289.795
224.836
223.451
273.869
263.438
281.769
366.237
313.793
387.995
294.374
282.454
391.187
261.549
241.969
236.658
368.558
344.289
378.655
352.308
301.911
522.575
605.866
342.965
363.472
432.062
634.74
378.356
366.496
304.525
346.347
704.941
562.194
238.617
248.73
531.528
249.813
313.457
283.555
311.418
331.147
326.705
359.431
280.153
279.373
368.29
589.889
358.238
346.722
333.314
331.395
325.747
377.354
655.104
279.655
383.233
344.28
761.371
412.932
263.02
306.539
303.258
294.13
322.033
357.532
330.597
570.096
763.573
600.477
542.25
324.975
921.983
364.935
424.505
776.907
637.143
479.444
381.017
740.795
354.145
204.124
220.642
225.481
301.671
307.231
289.765
280.065
259.797
317.805
274.018
269.053
298.554
235.067
279.151
268.366
267.684
268.053
254.283
252.715
274.884
312.643
277.365
369.62
305.968
227.56
326.468
355.439
351.977
330.737
345.812
258.825
320.37
302.771
321.015
384.982
340.102
330.305
352.42
252.817
352.367
422.953
370.714
401.659
350.232
395.949
369.24
1043.17
346.646
345.257
373.842
331.998
357.084
321.926
273.689
299.127
270.908
364.463
340.132
311.662
239.551
230.892
221.244
304.078
247.805
308.479
232.376
231.948
232.121
383.542
383.349
399.613
324.365
348.028
361.125
364.614
368.24
340.359
270.918
302.733
306.4
319.966
517.215
463.229
344.521
291.987
305.549
309.444
511.296
437.742
464.688
507.692
685.746
420.753
570.876
370.514
387.529
408.528
320.568
350.958
304.374
506.596
407.102
428.331
476.974
402.822
350.416
719.007
361.684
285.012
423.025
382.154
492.336
452.609
362.398
347.766
288.865
332.941
334.782
310.696
305.294
499.489
690.354
934.487
516.95
609.528
330.234
315.76
647.916
281.728
282.085
252.607
672.575
313.519
294.944
333.802
327.684
246.838
238.628
224.154
558.36
425.599
318.429
429.558
532.204
294.277
283.444
347.431
324.248
333.027
285.712
278.98
304.022
293.628
279.966
265.443
174.244
249.809
210.9
285.901
291.299
278.6
294.436
247.22
546.251
376.687
275.689
340.117
302.793
309.673
302.76
273.596
267.644
248.463
272.267
307.871
269.273
292.986
341.261
298.967
248.127
616.896
495.155
620.194
733.296
371.06
408.286
358.461
373.08
372.177
350.605
352.482
374.625
375.876
407.691
318.821
315.271
310.48
347.075
334.932
337.561
336.414
328.964
327.843
364.63
343.753
354.906
424.953
498.793
370.167
378.604
456.846
586.814
482.274
243.678
278.718
421.562
296.784
392.617
276.53
336.606
310.414
348.831
367.235
438.534
335.708
348.409
445.537
445.115
414.755
432.959
545.196
587.262
314.861
252.614
307.307
332.182
254.934
258.539
266.119
375.995
315.896
270.67
299.152
280.471
308.348
306.518
211.95
280.876
215.009
314.483
354.345
409.824
357.944
334.246
408.428
272.08
286.126
273.527
432.451
562.575
445.901
430.872
599.321
616.43
851.324
670.412
547.878
440.794
386.346
562.093
537.416
521.607
344.585
369.864
364.836
808.213
367.768
356.794
432.459
377.703
1014.14
625.901
694.789
840.09
727.833
859.834
359.247
456.516
525.902
525.725
406.581
433.205
486.969
709.209
601.753
829.859
465.027
337.665
355.391
365.294
345.794
867.5
409.325
449.705
372.13
383.769
680.278
421.882
461.189
430.415
234.87
216.854
247.573
217.586
211.352
199.587
220.641
247.248
239.19
298.453
333.21
335.928
306.522
308.159
294.351
254.414
286.757
279.46
343.123
295.558
312.912
269.669
253.727
229.678
284.86
276.815
288.112
272.517
289.508
275.915
266.926
267.372
261.459
265.685
271.228
273.539
269.923
325.569
283.742
233.191
213.85
279.561
252.053
233.685
271.577
248.056
236.937
272.085
348.718
272.59
259.035
270.586
250.887
256.77
269.073
293.62
249.722
242.121
289.706
272.606
237.678
253.524
252.18
244.257
265.046
236.877
253.676
245.271
270.851
272.235
310.702
331.313
340.684
291.555
310.215
306.305
351.378
341.767
283.178
280.111
244.888
259.51
261.548
227.112
276.97
278.886
262.154
274.603
300.38
363.7
320.902
364.311
356.15
350.129
340.093
306.727
331.906
336.659
350.433
376.127
361.048
334.089
341.332
330.677
327.998
275.109
320.814
326.085
224.645
244.498
223.116
216.807
240.222
334.047
354.403
321.658
333.983
381.803
310.415
318.048
323.439
332.016
272.196
316.029
377.901
308.428
315.131
296.617
315.478
289.882
291.487
295.679
323.2
351.126
343.555
311.13
336.53
326.764
318.319
319.309
416.39
358.271
377.208
383.351
362.937
314.352
345.117
328.376
224.279
177.542
193.448
279.368
336.073
354.539
371.458
395.342
411.094
286.468
312.757
391.905
256.5
299.472
431.706
287.504
349.401
338.342
405.537
355.715
365.828
407.353
462.066
228.456
385.542
362.193
338.005
350.35
362.368
355.381
385.926
309.448
320.748
381.337
453.309
482.663
360.637
378.707
373.766
372.03
411.759
366.891
470.919
369.475
353.12
360.921
805.964
690.681
855.9
689.447
1078.54
371.424
501.179
410.738
318.92
316.982
327.333
339.033
357.592
346.84
356.79
350.058
339.003
332.801
693.218
372.075
388.044
816.47
503.891
349.668
360.851
364.426
