# vtk DataFile Version 4.2
vtk output
ASCII
DATASET POLYDATA
POINTS 642 double
-2979.41 7335.2 -157.435
1682.56 7150.08 -114.412
-3037.7 -625.231 -44.4578
2004.08 -629.998 -31.0003
-551.02 932.425 3893.66
-680.708 5641.83 3534.71
-526.7 1077.57 -3721.34
-644.29 5864.47 -3959.03
3130.94 3360.18 -2244.88
3255.59 3333.77 2243.66
-4338.99 3537.98 -2420.21
-4541.15 3445.35 2425.06
-4334.98 5763.11 1403.15
-2861.1 4843.2 3641.2
-1972.57 6979.53 2172.12
690.165 6828.82 1910.64
-536.391 7970.29 -78.4879
807.735 7073.04 -2262
-2052.67 7349.19 -2484.5
-2915.34 4963.57 -3878.83
-4401.96 5857.89 -1570.81
-5153.02 3440.24 -11.2087
1615.65 4674.28 3377.78
2896.85 5471.35 1262.41
-2787.08 1950.13 3544.75
-520.013 3362.06 4268.86
-4223.84 1070.8 -1415.39
-4264.43 1055.57 1407.22
-652.703 3569.38 -4177.3
-2668.12 2090.27 -3428.66
2776.92 5506.68 -1305.04
1526.94 4808.73 -3361.99
3347.78 1016.71 1417.14
1728.21 1984.41 3567.34
946.1 -415.187 2313.45
-2034.04 -469.165 2349.38
-529.265 -1158.16 -48.9542
-1952.31 -329.874 -2332.23
901.292 -317.628 -2318.72
1636.6 2019.56 -3480.23
3262.13 1068.56 -1440.65
3970.33 3287.22 -13.3154
-3760.49 6643.92 698.286
-3266.41 6568.81 1898.4
-2519.05 7257.91 1122.82
-3829.8 4181.53 3176.53
-3762.07 5394.48 2681.19
-4596.97 4652.89 1997.48
-1327.57 6430.83 2997.89
-2503.57 6073.17 3062.88
-1766.39 5341.85 3769.91
-1236.66 7667.38 1048.86
-1770.37 7777.31 -111.53
53.5469 6250.77 2797.29
-591.955 7076.5 2126.68
644.255 7732.49 -96.7377
147.544 7627.75 1033.33
1226.07 7162.02 961.989
-1360.57 7758.96 -1294.23
-2629.4 7579.18 -1348.06
1341.92 7283.9 -1204.96
189.489 7767.03 -1243.44
-1361.04 6744.45 -3387.61
-614.745 7297.72 -2472.77
95.9132 6540.78 -3155.85
-3396.76 6796.39 -2131.41
-3818.89 6771.09 -888.889
-1789.72 5515.01 -4152.18
-2602.64 6303.11 -3384.35
-4576.44 4746.1 -2116.17
-3861.24 5513.27 -2897.24
-3777.82 4275.6 -3259.04
-4488.3 5890.42 -59.25
-4886.18 3453.33 -1239.13
-4891.22 4685.17 -817.603
-4991.16 4671.99 733.061
-5029.27 3447.11 1253.55
1921.08 6223.59 1704.81
2295.7 6327.56 573.258
577.535 5167.62 3535.1
1254.77 5811.89 2800.26
3209.26 4491.57 1821.52
2410.04 5162.54 2434.58
2527.25 4067.25 2947.89
-1779.53 4158.92 4179.18
-615.772 4529.69 3992.72
-3800.36 2731.54 3141.83
-2976.96 3450.02 3816.42
-519.303 2140.65 4212.99
-1710.57 2729.01 4098
-1737.2 1350.81 3890.34
-4939.37 2214.03 711.75
-4518.59 2257.61 1953.81
-4395.4 2250.58 -1942.72
-4875.18 2228.08 -754.113
-3804.57 80.2659 729.05
-4446.49 944 -47.1772
-3802.32 85.9997 -791.598
-2916.14 3539.44 -3869.31
-3562.65 2820 -3033.67
-646.166 4759.09 -4377.65
-1761.49 4296.21 -4402.82
-1647.54 1463.78 -3707.82
-1681.46 2847.08 -4015.71
-520.288 2196.48 -4082.18
1256.91 6026.18 -2999.03
469.343 5333.82 -3747.48
2347.33 6497.15 -780.849
1951.73 6458.44 -1874.84
2414.15 4040.01 -2892.42
2283.37 5250.17 -2497.96
3120.77 4459.63 -1830.74
2826.29 45.7754 727.676
2293.98 138.364 1950.2
1563.03 -679.297 1185.94
2625.95 2634.97 3010
2715.34 1406.4 2656.02
3505.45 2160.69 1943.43
208.543 153.661 3222.71
1451.46 660.216 3126.54
658.964 1400.28 3863.59
266.752 -1045.14 1216.91
806.51 -1073.37 -31.2655
-1289.19 122.684 3265.52
-538.52 -620.156 2467.75
-1853.51 -1092.92 -27.8231
-1338.24 -1042.66 1218.86
-2614.65 -714.565 1225.3
252.518 -996.052 -1261.94
1519.35 -601.812 -1227
-2590.36 -636.856 -1236.97
-1304.58 -1003.04 -1268.93
203.881 275.819 -3140.79
-536.72 -489.339 -2438.79
-1271.95 248.795 -3180.27
2201.29 236.579 -1943.97
2785.87 85.0287 -779.184
610.433 1494.47 -3728.66
1371.53 753.976 -3081.02
3398.56 2169.65 -1928.02
2575.8 1488.86 -2599.56
2490.84 2665.52 -2959.16
3538.06 892.773 -28.6856
3697.27 3307.18 -1178.44
3909.56 2160.36 -770.191
3970.02 2151.79 718.744
3807.5 3298.32 1155.98
636.254 2651.8 4143.26
1787.47 3370.64 3665.39
611.838 4055.81 4028.66
-3340.25 101.459 1993.95
-2551.39 608.629 3207.87
-3724.64 1370.97 2695.72
-2425.98 739.577 -3106.16
-3256.04 210.22 -1960.09
-3565.1 1496.28 -2574.95
1684.52 3364.86 -3544.8
568.805 2682.92 -3998.21
438.281 4196.7 -3937.61
3581.94 4492.05 669.757
3548.47 4483.94 -718.88
3037.91 5561.62 -27.7537
-3365.47 6973.76 274.618
-3174.17 7003.31 934.841
-2733.17 7276.66 502.339
-3841.32 6211.44 1674.95
-3546.48 6638.7 1321.64
-4083.05 6236 1065.46
-2271.32 7158.83 1666.53
-2918.52 6954.71 1529.78
-2633.94 6828.82 2061.39
-4225.87 3817.35 2835.18
-4268.28 4426.39 2630.66
-4612.92 4050.78 2237.9
-3346.23 5135.1 3209.93
-3829.43 4806.01 2964.86
-3370.01 4527.3 3447.16
-4505.85 5230.77 1716.66
-4219.73 5048.71 2368.33
-4096.39 5605.14 2072.32
-1013.55 6060.73 3303.66
-1556.15 5923.71 3426.19
-1225.13 5522.59 3684.67
-2253.21 6575.69 2650.38
-1920.61 6288.65 3064.63
-1653.92 6741.21 2616.73
-2317.31 5114.27 3747.1
-2149.07 5728.79 3456.17
-2707.73 5489.78 3401.43
-3555.08 6026.63 2322.55
-3161.06 5776.31 2919.85
-2915.67 6361.53 2522.75
-2130.06 7546.49 489.826
-2381.28 7556.94 -167.525
-1609.09 7298.24 1603.83
-1875.78 7464.67 1079.63
-1141.89 7931.31 -73.1333
-1488.49 7780.56 498.846
-902.734 7883.92 500.498
-331.146 5943.41 3169.13
-681.291 6404.21 2943.13
61.4842 7037.96 2036.46
-308.546 6709.9 2468.73
404.578 6551.27 2346.99
-983.722 6766.86 2600.14
-1269.73 7055.29 2197.5
1188.47 7479.15 -104.885
977.836 7493.14 462.738
1475.86 7189.96 435.764
-181.775 7861.92 495.195
398.635 7727.57 485.016
61.2071 7898.94 -88.7787
963.057 7047.9 1462.86
714.022 7430.67 1021.72
435.908 7294.83 1505.44
-898.923 7435.59 1629.92
-203.843 7420.6 1599.52
-543.268 7721.36 1065.85
-2250.31 7725.92 -775.108
-2825.85 7490.86 -769.704
-899.395 7932.92 -664.736
-1591.54 7816.07 -706.231
-2359.91 7510 -1921.34
-2043.97 7773.65 -1370.63
-1762.1 7661.21 -1930.52
1546.38 7269.47 -656.783
1026.2 7577.92 -662.632
518.136 7474.28 -1780.15
783.035 7569.69 -1240.72
1093.21 7219.14 -1752.75
430.678 7809.56 -673.046
-160.573 7934.89 -672.327
-1001.3 6329.79 -3715.77
-656.586 6676.62 -3338.05
-311.521 6220.49 -3583.49
-1371.04 7394.42 -2550.13
-1023.83 7084.64 -2979.74
-1715.68 7092.03 -2978.35
492.608 6848.18 -2723.48
-252.009 6954.11 -2848.78
149.554 7245.69 -2377.39
-525.93 7847.59 -1269.14
-165.227 7606.11 -1861.55
-984.579 7590.67 -1912.4
-3271.09 7232.92 -1133.12
-3418.25 7102.25 -523.418
-2749.51 7125.12 -2336.9
-3040.16 7234.36 -1750.68
-4155.29 6359.47 -1240.62
-3667.98 6845.17 -1520.56
-3951.28 6369.4 -1867.3
-1212.53 5725.09 -4102.17
-1587 6179.7 -3825.48
-2798.21 5646.89 -3689.76
-2207.4 5933.54 -3794.57
-2365.22 5250.64 -4057.41
-1985.29 6578.1 -3437.17
-2345.71 6875.94 -2977.91
-4482.16 4153.14 -2298.14
-4229.85 4528.9 -2723.99
-4102.69 3917.07 -2867.45
-4187.63 5712.69 -2259.21
-4286.12 5145.47 -2537.89
-4553.73 5306.72 -1872.49
-3373.73 4635.22 -3596.55
-3873.11 4917.26 -3129.42
-3432.68 5263.27 -3446.97
-3040.89 6599.03 -2806.51
-3276.38 5946.94 -3190.12
-3677 6197.63 -2557.39
-3796.9 6716.3 -108.312
-4464.28 5903.83 -844.098
-4180.48 6344.44 -490.927
-4160.48 6294 324.019
-4469.77 5854.73 698.325
-4597.3 3494.74 -1830.36
-4708.24 4138.84 -1688.8
-5070.96 4057.22 -388.037
-4923.37 4080.64 -1042.33
-5060.82 3435.78 -631.868
-4781.31 4748.1 -1496.22
-4708.76 5291.17 -1234.75
-4878.84 4052.94 1656.95
-4837.23 3445.76 1861.66
-4722.6 5242.04 1089.21
-4838.93 4680.89 1379.77
-5146.82 3447.27 611.849
-5039 4059.49 994.661
-5135 4061.83 364.535
-4761.27 5310.57 -446.999
-5022.83 4684.33 -16.6155
-4800.6 5300.32 358.783
1778.42 6788.64 737.816
1991.43 6805.9 201.287
1304.82 6542.14 1832.6
1529.8 6672.01 1300.43
2648.7 5890.82 956.774
2145.4 6295.23 1166.67
2438.56 5882.76 1502.98
-34.0399 5389.84 3524.54
353.494 5731.89 3209.14
1454.17 5273.81 3121.81
939.912 5514.73 3192.51
1111.02 4935.59 3490.08
718.612 6040.56 2827.22
1007.76 6298.58 2407.18
3263.88 3935.74 2054.91
2915.99 4290.8 2414.67
2912.34 3725.28 2633.03
2696.58 5339.41 1871.26
2838.68 4848.11 2152.73
3086.36 5000.74 1553.96
2092.62 4382.44 3195.79
2496.87 4635.75 2716.2
2048.2 4937.3 2939.17
1618.94 6052.55 2285.81
1857.28 5520.81 2654.26
2197.23 5730.42 2095.96
-1241.63 4974.35 3945.74
-655.431 5114.16 3760.17
-2315.99 4512.53 3963.1
-1784.39 4758.29 4015.45
-561.368 3961.63 4178.37
-1236.28 4378.11 4140.75
-1200.03 3789.16 4188.45
-4209.51 3080.7 2821.02
-3871.24 3447.06 3210.64
-2931.98 2760.08 3731.53
-3418.51 3087.88 3521.64
-3310.44 2354.01 3372.18
-3430.01 3815.76 3539.86
-2952.61 4151.45 3776.17
-555.485 1512.55 4079.89
-1109.13 1689.02 4103.83
-1136.03 1127.32 3952.96
-1120.21 3049.98 4240.57
-1078.58 2380.96 4180.22
-500.018 2763.38 4314.47
-2304.11 1582.24 3803.18
-1696.4 1960.16 3960.83
-2271.14 2318.3 3850.33
-2374.01 3812.11 4070.37
-2378.86 3108.52 4042.55
-1794.62 3462.45 4243.36
-4845.74 2850.01 1643.67
-4583.62 2855.61 2221.55
-5099.08 2825.94 352.161
-5005.97 2835.6 985.091
-4416.17 1627 1682.6
-4772.68 2218.04 1346.18
-4650.64 1637.62 1061.65
-4370.04 2859.92 -2169.47
-4676.42 2829.62 -1604.99
-4573.24 1639.71 -1101.6
-4674.16 2221.18 -1366.33
-4326.85 1661.96 -1686.51
-4915.83 2825.51 -995.567
-5066.53 2822.21 -391.631
-3456.44 -317.848 346.935
-3847.88 35.7337 -45.2962
-3455.93 -313.631 -426.678
-4396.09 977.995 684.789
-4180.09 467.614 339.371
-4084.85 520.674 1089.71
-4064.27 550.979 -1127.63
-4181.71 473.543 -425.863
-4404.95 960.06 -758.5
-4985 2200.63 -23.6395
-4712.28 1572.87 -402.664
-4753.49 1574.46 344.408
-3728.29 3561.65 -3234.07
-3986.63 3182.86 -2734.99
-2937.5 4246.28 -3914.35
-3367.49 3896.77 -3615.94
-3150.48 2471.72 -3297.75
-3279.56 3206.71 -3535.86
-2834.18 2899.43 -3699.06
-634.374 5297.53 -4238.16
-1212.89 5141.1 -4370.26
-1233.98 3989.51 -4400.73
-1213.44 4545.65 -4442.97
-699.085 4244.27 -4358
-1798.08 4912.41 -4381.78
-2325.02 4632.47 -4198.73
-1101.15 1255.74 -3749.42
-1074.25 1831.46 -3961.62
-520.426 1632.79 -3957.33
-2185.58 2474.79 -3769.11
-1627.44 2083.06 -3902.28
-2158.98 1711.19 -3587.59
-532.265 2825.33 -4144.12
-1080.74 2453.55 -4081.2
-1173.45 3215.31 -4156.74
-2355.48 3911.03 -4188.03
-1787.52 3612.31 -4311.73
-2343.76 3237.03 -4053.54
293.752 5961.99 -3499.52
-106.803 5598.62 -3905.87
[...]
POINT_DATA 642
SCALARS Mean_Curvature double 1
LOOKUP_TABLE default
0.000638364
0.000587207
0.000507055
0.000545401
0.000769488
0.000683644
0.00051728
0.000697027
0.00047046
0.000288592
0.000544935
0.000616701
0.000491104
0.000505085
0.000466564
0.000174802
0.00055575
0.000503204
0.000614164
0.000626381
0.000576398
0.000465806
0.000427318
0.000462082
-0.000135034
0.00030077
0.000486193
0.000278677
-0.000171554
-2.85509e-05
-3.11264e-05
0.000503692
0.000503811
0.000335038
0.000493303
0.000572349
0.00019468
0.000490767
0.000516045
0.000438887
0.000499829
0.00049504
0.000484808
0.000489303
0.000404747
0.000485229
0.000467167
0.000456354
0.000511908
0.000503718
0.00057336
0.000513045
0.000350487
5.48895e-05
0.000297161
0.000483034
0.000528995
0.000569193
-1.0684e-05
0.000728376
0.000479747
0.000537047
0.000575673
0.000150929
0.000229801
0.000490315
0.000450409
0.000553102
0.000495803
0.000636503
0.000515659
0.000382296
0.000339844
0.000425157
0.000175959
0.000514041
0.000495229
0.000442408
2.29061e-05
0.000356266
0.000463838
0.000473045
0.000453415
0.000457395
0.000692672
-5.34868e-05
0.000513526
0.00049308
0.000312248
6.38789e-05
0.000528086
0.000490316
0.000252146
0.000473905
0.000443911
0.000347598
0.000277368
0.000535953
0.000561757
-0.000197947
0.000889298
0.000655832
0.00028569
-0.000114594
0.000435942
0.000475255
0.000187797
0.000744088
0.000504468
0.000401093
0.000384669
0.000448086
0.00049888
0.000466043
0.000417656
0.000279971
0.000561395
0.000510969
0.000321709
0.000413606
0.000501526
0.000525872
0.00047034
0.000442347
0.000542966
0.000475326
0.000288469
0.000497697
0.000523311
0.000329262
0.00048209
0.000523354
0.000365046
0.000457807
0.000584425
0.000367664
0.0004938
0.000341237
0.000460716
0.000719401
0.000395245
0.000327878
0.000501465
0.000245613
0.000607197
0.000601181
0.000395522
0.000366097
0.000462611
0.000495672
0.000508072
0.000482199
0.000619933
0.000487652
0.000469914
0.000179743
0.000410284
0.00035135
2.31601e-05
0.000454701
0.00049207
0.000414582
6.86392e-05
0.000502432
2.16058e-05
0.000491379
0.000480965
0.000487873
0.000514525
0.000486238
0.000475271
0.000516526
0.000476312
0.000499109
0.00046464
0.000479577
0.000489894
0.000477561
0.000469679
0.000472167
0.000523629
0.000529977
0.000532484
0.000506918
0.000494768
0.000494294
0.00046792
0.000481347
0.000522577
0.000474669
0.000472601
0.000483698
0.000245765
1.29989e-05
2.24552e-05
0.000198287
0.000550667
0.000530489
0.000566885
-0.000114591
0.000592653
0.000601985
0.000133839
-7.13811e-05
0.000476952
0.000385639
0.000483371
0.00051424
0.00054979
0.000550692
0.000506059
0.000483087
0.000553874
0.000546772
0.00056924
0.000508812
0.000551798
0.000569473
0.000659747
0.00048093
0.000428125
0.000125843
0.000502207
0.000928698
0.000758868
0.000619494
0.000597943
0.000520576
0.000495107
0.000503285
0.000566441
0.000582351
0.000569118
0.000530246
0.000293509
0.000660494
0.000617007
0.000655802
0.000488541
0.000158738
0.000500973
0.000534305
0.000523574
5.97015e-05
0.000619602
0.000433675
0.00047065
0.000495399
0.000598648
0.000663547
0.000485196
0.000475503
0.000610884
0.000485729
0.000373318
0.000443124
0.000580443
0.000475414
0.00047406
0.000442485
0.000487884
0.0004543
0.000719915
0.000634426
0.000367761
0.000618516
0.000643858
0.000503911
0.000490672
0.000496092
0.000300792
0.000341674
0.00035942
0.000302544
0.000526168
-6.66727e-05
0.000143297
0.000333764
0.000246738
0.000399842
0.000604033
0.000523464
0.000498927
0.000547934
0.000497064
0.000460287
0.0005315
0.000280059
0.000512183
0.000267048
0.000523843
0.000434881
0.000258165
0.000535264
0.000208249
-0.00013176
0.000435855
0.000348281
0.000468361
0.000180285
0.000372557
0.000455278
0.000429661
0.000408194
0.000426544
0.000407253
0.000427548
0.000465504
0.000436345
0.000452369
0.000468114
0.000466434
0.000441981
0.000460083
0.000437772
0.000456222
0.000462203
0.000465815
0.000547246
-2.7416e-05
0.000457983
0.000568744
0.000329013
0.0006037
-4.66114e-05
0.000546257
0.000534202
0.000439473
0.000512434
0.000218593
0.000475462
0.000436522
0.000399154
0.000638164
0.000684532
0.000241928
0.000167384
0.000695918
0.000913438
-0.000119977
-4.18376e-05
0.000490334
0.00054067
0.000830539
0.000505319
0.000557482
0.000408708
0.000262223
0.000283957
0.000370919
0.00039178
0.000293962
0.000357072
0.000314172
0.000455075
0.000327804
0.000356659
0.000470325
0.000462965
0.000445774
0.000529743
0.000174268
0.000557254
0.000559042
0.000577273
0.00057207
0.000542637
0.000527369
0.000320368
0.000458457
0.000586384
2.22838e-05
0.000404418
0.000510443
0.000230703
0.000633159
0.000422796
0.000581172
0.000790316
0.00066224
0.00064526
0.000592812
0.000987113
0.00039363
0.000306117
0.000455389
0.000578568
-6.81024e-05
0.000445149
0.000130175
0.000215979
0.000368177
-7.88747e-05
0.000491714
0.000779239
0.000599568
0.000152266
0.000360516
0.000492372
0.000472452
0.000734849
0.000434075
0.000504911
0.000620838
0.000531749
0.000547442
0.00050698
0.000530821
0.000492063
0.000494413
0.000468971
0.000419221
0.000472607
0.00055602
0.000167626
0.000148699
0.000419699
0.000302291
4.96972e-05
0.000493517
0.000542769
0.000494435
0.000485224
0.000484486
0.000484014
0.00049008
0.000495237
0.000506573
0.000430355
0.000441394
0.000391494
0.000269384
0.000549648
0.000586209
0.000426361
0.00041876
0.000320777
0.000523399
0.000551153
0.000511005
0.000490029
0.0003768
0.000369042
0.000483189
0.000449167
0.000428738
0.000412026
0.000434295
0.000373592
0.000482876
0.00043154
0.000396889
0.000548177
0.000533269
0.000486473
0.000433721
0.000213346
0.000345951
0.000173726
0.000513652
0.000560528
0.000382713
0.000521748
0.000248118
0.000472051
0.000369495
0.000456997
0.000343382
0.000365147
0.000122373
0.000702154
0.000175089
0.000520546
0.000613603
0.000469637
0.000343401
0.000496864
0.000429842
0.000391164
0.000520678
0.000373561
0.000422401
0.000468244
0.000445602
0.000526621
0.000559298
0.000576031
0.000508032
0.00034369
0.000384334
0.000366748
0.000349093
0.000386728
0.000488047
0.000327071
0.000461189
0.000378473
0.000527138
0.00050521
0.000416541
0.000551577
0.000424634
0.00043817
0.000345725
0.000503664
0.000478886
0.000423959
0.000358471
0.000508718
0.000511689
0.000494501
0.0004101
0.000371211
0.000521119
0.000471316
0.000474295
0.000519242
0.000506494
0.000201041
0.000309623
0.000357033
0.000499484
0.000622944
0.000503639
0.000340853
0.000376511
0.000517013
0.00040069
0.000400411
0.000378224
0.000490438
0.000483347
0.000486419
0.000508611
0.000491181
0.000280846
0.000498373
0.000655649
0.000600838
0.00031398
0.000682537
0.000476722
0.000667498
0.00028806
0.000459913
0.000520958
0.000537504
0.000653966
0.000691344
0.000428801
0.000642222
0.000483877
0.000274493
0.00045168
0.000440013
0.00056724
0.000419171
0.00042502
0.000427876
0.000450556
0.000443239
0.000467147
0.000340306
0.00047808
0.000457712
0.000388938
0.00044164
0.000476488
0.000483442
0.000507717
0.000478519
0.000512427
0.00051335
0.000512586
0.000544717
0.000333992
0.000760749
0.000525712
0.000464724
0.000541958
0.000404961
0.000502343
0.000139066
3.45505e-05
0.000439779
0.000496132
0.000568592
0.000529971
0.000635341
0.000480624
0.000504897
0.000683662
0.000707416
0.000542479
0.000572368
0.000536733
0.000487112
0.000374535
0.000445497
0.000156829
0.000456966
0.000428223
0.000242152
0.000398173
0.00056284
0.000567075
0.000459413
0.000425349
0.000466097
0.000416912
0.000300579
0.000509028
0.000462803
0.000427007
0.000425797
0.000379432
0.000963604
-0.00040647
0.000341934
0.00057605
-0.000179437
0.000418297
0.000442481
0.000365956
0.000360587
0.000235977
0.000303221
0.000484611
0.000453909
0.00045841
0.000448424
0.000476828
0.000399523
0.000297127
0.000350343
0.000464294
0.000283206
-0.000158935
0.00037374
0.000502756
0.000465529
0.00046966
SCALARS CoVolArea double 1
LOOKUP_TABLE default
349082
277573
346564
342933
319405
295640
305296
311740
305484
321748
337376
328106
428746
413846
402863
386960
393251
389123
433159
434483
441543
425208
371238
359324
454633
406005
417302
449162
442601
449583
407828
372560
443295
422890
446167
449775
476265
421967
414615
376491
424838
394885
416978
433748
408055
404145
447668
414048
348333
421998
357627
419502
415879
409241
400414
365938
385011
348921
483524
393623
362932
413594
396704
471189
411930
481336
418776
408171
480424
395690
468335
400662
475927
426037
475621
452739
411861
398847
388801
362403
370252
361337
380614
362228
392338
405102
414874
427935
389417
483383
387642
453846
432882
393305
445543
423980
464249
406177
401197
428656
316848
390683
366641
470969
352528
389672
378792
338886
381350
362281
397010
349183
426207
468954
427319
399137
442146
390054
420656
457137
400037
467967
417604
423959
467015
417929
472011
426139
450621
420566
411796
454527
388166
443574
375107
450864
416220
368344
417845
361881
422521
373183
465519
384247
425271
439738
381660
414498
403358
384505
465277
454063
450444
405291
438237
440081
385755
387313
479523
404901
391117
401701
426767
414150
432545
438834
399060
400742
387486
388125
415682
397076
414820
401575
435762
410569
394771
406263
415295
445425
339358
357718
341751
409263
370660
359412
372386
377162
424023
493905
488051
480210
430848
421122
439999
412404
388629
395587
397365
379651
369967
392854
391486
396213
360733
416856
347116
353925
336925
397466
365037
365774
349608
341821
366211
461110
425573
439819
401590
391711
448778
424812
403259
401657
449205
341728
365819
409104
374231
363695
373376
410111
383248
404458
392420
448078
407291
397840
384669
420879
435464
506888
499484
536587
413108
410437
477999
430685
413527
423888
468724
388094
415568
467623
435064
411413
425877
471524
400924
401555
389745
466875
409555
398685
403114
411772
453993
539506
532993
538402
434980
467205
433034
429120
451758
430277
426803
459096
431844
406315
411009
455562
417578
395798
446728
420060
405388
419672
444116
532993
516821
514162
380157
341901
414044
393769
353644
384175
372152
384917
385298
374121
345251
343635
372113
398202
375040
364463
374944
374591
352650
342847
350787
355212
380219
425895
418758
417015
369633
381708
414197
358650
390038
374402
420441
390749
400779
458939
402429
428600
400415
431869
377522
389653
378418
444918
428244
375937
397525
438583
489803
458376
489268
462930
416188
396032
443321
421977
430010
429236
464526
410847
416612
445714
403068
397629
404467
435639
421032
421627
408685
470966
423854
415726
388207
410224
441437
496528
509161
513885
404807
411424
440272
390035
417147
384775
431061
355618
373669
394312
337895
353927
382616
434893
364032
362201
348147
479561
414372
396323
400945
408809
456976
454149
455450
468670
416791
378966
394809
387593
359591
377002
366955
324405
345959
387620
339320
356566
361883
394109
343843
360523
348646
375392
379774
364454
366181
376947
416787
432635
429865
422470
417946
431336
414572
460173
429842
419309
421116
432764
464908
388127
393866
377933
440400
399445
395249
405122
399316
449065
400680
417898
396962
457785
420737
416801
391769
410716
446269
512321
505877
518492
421867
406529
462822
426827
433014
430529
487777
398189
417032
467946
426281
426881
423430
464631
414384
427441
426023
487065
425711
431052
416110
422377
462760
522253
524287
530668
422419
410251
463099
422695
403555
416689
438083
403567
417550
442065
420460
408260
425965
466234
377403
391153
371991
434834
398678
381014
380664
394272
430891
506279
498613
502442
420338
412380
441540
419333
404387
413998
439249
363018
384878
398750
372294
353118
380964
422324
373590
378062
367981
426906
374427
376027
360175
376273
403399
491358
476189
492292
428846
454022
424354
428584
462306
375366
374941
404681
373517
375373
372292
438706
384283
381372
455664
402611
369149
380284
405593
507776
484828
512717
404097
421361
393873
383701
398530
388021
391465
368549
387761
418523
395007
398340
376892
356704
384842
456029
441040
446031
433570
462502
428688
425036
452407
419956
430501
400427
429581
462544
434707
454421
448130
445396
451195
517664
494860
504141
369437
430528
372757
358239
409382
411246
426163
403244
412318
444585
413149
445978
420283
399289
435737
481483
481633
467616
356104
386700
356095
357396
413003
356216
433041
356869
360270
389647
331884
453389
379565
360341
471075
429480
479847
481584
387510
421490
388750
368200
379261
369081
390437
351319
378183
417516
372733
379111
388683
390843
412004
448757
429100
426461
SCALARS SignedDistance double 1
LOOKUP_TABLE default
2339.71
2861.9
1881.14
1882.43
2250.07
3097.7
2639.15
2601.62
2798.64
2525.37
2630.14
1988.77
2016.91
2310.95
2617.01
3121.5
2342.99
2475.37
1925.43
2154.9
1937.43
2201.23
2837
2889.36
2458.75
2715.03
2358.06
2136.89
3165.94
2853.01
3030.51
3255.54
1888.65
2369.54
1925.78
1838.18
2186.01
2167.18
2207.16
2787.17
2187.14
2594.06
2226.39
2255.38
2537.79
2069.79
2084.16
1967.87
2840.16
2445.61
2718.56
2574
2351.68
3133.24
2970.86
2571.67
2736.79
2996.15
2286.38
2089.01
2551.82
2290.76
2182.75
2318.42
2558.7
1701.02
2036.15
2175.46
1764.16
2248.61
1864.06
2316.86
2129.82
2406.9
2278.83
2043.84
2078.82
3014.89
3071.97
2975.27
2990.06
2709.25
2839.63
2681.31
2702.2
2975.43
2222.13
2301.24
2473.17
2664.81
2445.43
2095.52
2142.83
2447.38
2264.93
1947.96
2161.52
1988.09
2669.96
2769.4
2957.92
2673.89
2756.77
2997.51
2905
2793.86
2982.96
2956.14
2777.88
3016.86
3143.47
2929.8
1790.53
1911.12
1899.28
2454.01
2188.33
2227.11
2056.4
2141.13
2305.97
2065.36
2095.97
1970.09
1901.2
2080.73
2063.32
1842.6
2101.34
2069.11
2033.36
2071.8
2462.12
2224.37
2436.07
2244.77
1952.18
2722.12
2490.36
2589.36
2560.18
2798.97
1893.69
2664.58
2319.82
2134.92
2530.62
2522.56
2614.28
2806.08
1831.4
2015.08
2282.05
2540.48
2245.41
2593.69
3012.1
2915.74
3257.4
2736.14
2810.92
2967.59
2334.52
2365.96
2475.63
2114.69
2220.83
2097.71
2562.4
2382.77
2427.64
2004.07
1989.82
1956.45
2170.49
2061.58
2164.28
1979.58
2003.95
2034.39
2963.47
2781.85
2914.11
2530.98
2641.03
2719.5
2498.68
2562.78
2369.61
2150.66
2234.21
2325.19
2470.95
2418.96
2689.3
2579.06
2304.85
2441.56
2424.75
3124.44
3060.74
3060.46
3115.38
3125.33
2948.05
2843.38
2713.64
2788.18
2929.95
2525.59
2643.42
2442.77
3072.57
2870.46
2952.93
2765.84
2851.63
2623.58
2398.35
2223.74
2240.78
2294.13
1933.68
2285.49
2168.6
2702.78
2556.94
2360.04
2409.05
2491.35
2414
2309.64
2374.89
2494.04
2658.5
2212.36
2333.46
2031.36
2497.01
2414.49
2360.63
2194.35
2250.35
2276.79
2028.55
2168.93
1733.98
1821.87
1957.32
1858.82
1767.64
2374.55
2136.2
1893.58
1921.48
2086.38
1921.75
1770.44
2428.12
2263.76
2460.75
1834.06
2051.98
2043.86
2209.09
2121.85
1993.32
1670.8
1750.86
1701.14
2226.48
2086.95
2131.68
2152.41
2049.72
2548.66
2460.32
2214.63
2343.84
2282.29
2320.52
2173.28
1986.64
1991.86
1980.59
1984.33
2103.03
2049.57
2100.36
2163.49
2117.06
2032.16
3087.3
3039.75
3085.81
3088.81
2971.99
3035.29
2954.99
3060.7
3047.3
2919.68
2982.08
2910.77
3048.85
3062.86
2613.66
2687.48
2601.05
2857.37
2776.61
2800.87
2759.77
2763.71
2833.18
2997.88
2917.8
2929.34
2916.67
3074.87
2486.63
2711.89
2848.7
2912.94
2856.65
2085.63
2107.12
2410.51
2255.77
2366.44
2171.13
2280.8
2444.44
2542.81
2320.35
2686.98
2550.88
2632.28
2534.44
2567.43
2549.55
2428.72
2510.92
2718.74
2100.5
2079.15
2155.1
2124.78
2125.32
2114.99
2110.8
2560.05
2445.63
2279.87
2346.8
2374.18
2354.78
2261.17
1876.86
1942.36
1889
2121.6
2038.27
2056.89
2153.31
2052.34
2236.73
2156.1
2198.37
2122.2
2589.67
2700.65
2385.18
2478.32
2851.4
2761
2921.05
2745.53
2583.19
2953.37
2797.45
3064.07
2455.62
2356.34
2688.56
2802.15
2774.08
2946.23
2864.87
2823.47
2977.09
2918.96
3071.2
2619.85
2899.14
2877.36
2754.34
2863.89
2622.55
2665.72
3103.5
2864.66
3001.51
2909.49
2740
2944.65
2836.18
3014.52
2652.53
2616.15
2911.48
2973.02
2867.21
3205.82
3104.45
3148.73
2987.58
3045.51
3078.17
2766.65
2935.21
2957.55
1826.46
1828.57
1866.24
1870.83
1825.32
1806.12
1901.69
1886.06
1938.2
2490.35
2389
2433.79
2333.8
2360.02
2410.57
2047.54
2205.81
2016.64
2138.28
2165.98
2273.05
2010.76
2090.05
1987.95
2335.13
2214.9
2268.4
2009.49
2174.32
2039.11
1976.16
1960.03
1932.42
1962.49
2161.29
2105.45
2151.45
2067.03
1980.52
1887.88
1887.17
1929.22
1969.1
1947.31
1952.24
1917.21
1876.33
2155.31
2053.8
2167.49
1796.74
1967.62
1920.56
1976.73
1942.64
2104.13
2039.79
1982.43
2158.55
2094.13
2117.52
2052.21
2109.96
1918.32
2017.3
2074.8
2038.76
2095.77
2096.06
2159
2549.71
2444.62
2562.4
2257.41
2346.9
2334.55
2276.45
2321.91
2195
2109.63
2128.65
2161.73
2023.66
1898.84
2218.73
2144.4
2047.78
2104.87
2214.42
2676.52
2599.18
2640.23
2626.33
2770.18
2482.47
2348.27
2697.62
2714.38
2799.44
2395.03
2580.84
2362.89
2793.48
2703.28
2684.52
2358.63
2509.84
2389.88
1838.11
2007.35
1896.98
1808.96
1844.79
2723.92
2639.44
2457.28
2540.24
2620.67
2447.27
2206.52
2386.48
2522.32
1983.61
2152.52
2559.07
2363.05
2381.38
2056.09
2189.72
1938.32
2395.15
2445.02
2420.86
2490.43
2627.78
2567.06
2735.34
2653.53
2531.11
2488.45
2996.78
2768.65
2889.99
2907.75
2834.95
2557.95
2707.8
2658.5
1876.08
1776.13
1789.61
1879.47
1971.16
2159.62
2291.02
2234.18
2041.17
1869.41
2177.21
2183.44
2173.76
2264.65
2391.34
1870.38
2095.76
1990.21
2624.31
2324.45
2456.31
2698.62
2803.82
1969.09
2275.19
2099.14
2109.3
2207.18
2597.76
2743.18
2663.93
2507.71
2468.53
2397.55
2475.09
2662.05
2914.87
2898.68
2913.83
3021.86
3130.05
2800.37
2998.17
2908.4
2827.43
2868.51
3059.85
3243.65
3201.11
3179.92
3218.68
2975.55
3049.03
3106.48
2604.78
2633.02
2617.53
2718.04
2817.2
2798.69
2926.92
2869.48
2730.26
2674.76
3072.81
2938.48
3030.39
3042.71
3001.46
2766.36
2888.75
2863.29
