# vtk DataFile Version 4.2
vtk output
ASCII
DATASET POLYDATA
POINTS 642 double
-2327.45 5787.31 -611.762
195.381 5686.46 -545.207
-2347.08 578.998 -31.267
1350.72 599.081 69.7338
-665.319 1400.89 2264.55
-1387.63 4516.29 1633.89
-500.871 1791.94 -1889.28
-1367.63 5146.29 -2431.48
1505.41 3080.13 -976.276
1731.62 2990.36 1200.45
-2795.34 4066.6 -1315.5
-3322.19 3544.27 1617.44
-3197.42 4923 949.549
-2325.91 4260.57 2107.45
-1839.25 5298.91 1216.87
-86.0959 5249.8 342.629
-664.245 6248.13 -284.852
-21.1671 5799.02 -1258.93
-1940.95 6106.57 -1847.26
-2133.36 4929.83 -2488.28
-3082.09 5286.57 -1375.65
-3510.87 3494.25 214.062
737.397 3742.24 1700.71
1307.07 4131.54 714.417
-1984.36 2168.95 1915.1
-466.12 3014.11 2277.7
-2749.68 1612.63 -620.71
-2857.89 1658.67 936.22
-1031.12 3922.25 -1786.27
-1773.97 2629.65 -1567.66
1053.34 4546.99 -509.108
260.404 4596.42 -1177.72
2185.91 1566.71 888.097
847.919 2272.6 2069.54
525.953 690.105 1541.25
-1739.1 635.469 1607.17
-531.926 482.676 -58.438
-1449.9 830.583 -1374.12
427.717 847.605 -1300.96
700.528 2243.11 -1630.19
2022.58 1685 -617.711
2079.02 2650.58 138.594
-2817 5290.95 485.898
-2547.31 5240.46 1171.54
-1952.32 5439.16 667.979
-2890.92 3945.55 1986.16
-2848.08 4645.58 1702.52
-3346.85 4250.13 1361.41
-1669.15 4999.31 1498.11
-2152.38 4877.68 1734.75
-1945.05 4429.29 1970.17
-931.316 6010.51 165.196
-1191.9 6152.42 -368.233
-424.758 4665.91 1168.81
-1115.51 5603.95 580.609
-194.968 6053.75 -423.092
-485.761 5969.74 73.8876
-121.584 5705.72 -26.559
-1342.24 6137.56 -1071.8
-2152.26 6110.63 -1446.32
191.971 5838.36 -839.994
-284.364 6186.41 -855.333
-1673.76 5675.03 -2236.29
-935.173 5945.11 -1609.95
-518.028 5524.29 -1728.79
-2643.43 5922.9 -1685.44
-2772.1 5699.35 -1046.52
-1811.41 5143.61 -2611.52
-2141.19 5613.16 -2389.41
-3006.43 4913.51 -1506.46
-2830.24 5223.28 -2021.2
-2565.12 4508.61 -2079.15
-3157.8 5046.32 -59.6396
-3260.48 3526.83 -496.871
-3204.39 4440.81 -485.186
-3486.47 4320.69 573.931
-3486.8 3535.89 937.364
760.852 4514.02 841.06
686.63 4757.39 149.764
171.167 3997.1 1696.52
492.153 4333.69 1338.24
1574.32 3667.63 984.036
1121.8 4009.12 1241.06
1250.48 3452.92 1552.65
-2005.2 3790.82 2215.32
-902.329 3615.5 2167.18
-2850.78 3217.82 1891.31
-2307.21 3572.13 2267.24
-392.22 2362.48 2388.76
-1368.83 3139.03 2232.55
-1321.66 1478.3 2121.56
-3451.55 2618.05 480.718
-3181.52 2781.99 1228.16
-2934.97 2604.94 -926.4
-3295.6 2603.73 -263.202
-2709.96 969.598 538.956
-2945.9 1576.83 12.6329
-2736.09 978.128 -445.824
-2088.44 4191.9 -2229.22
-2143.12 3383.99 -1614.7
-1429.52 5050.5 -2357.01
-1888.15 4717.28 -2475.52
-1070.37 1905.14 -1799.75
-1520.91 3370.61 -1934.18
-505.635 2379.01 -1910.17
134.64 5238.7 -1484.04
-543.664 5154.69 -1835.81
508.875 5332.92 -862.832
429.453 5403.99 -1020.8
1050.42 3415.4 -1224.47
385.643 4536.93 -1018.61
1444.1 3603.79 -739.243
1922.76 990.588 523.815
1541.07 1057.61 1198.75
1042.35 577.044 805.402
1398.19 2615.93 1652.19
1693.41 1773.3 1424.6
2147.37 2173.21 1018.55
-130.379 1060.3 2024.83
757.982 1375.23 1883.91
224.763 1856.54 2262.25
155.462 489.591 996.435
629.007 492.583 23.938
-1035.33 1007.14 2167.67
-612.561 586.131 1762.41
-1678.31 475.421 83.2279
-1298.37 493.686 979.811
-2070.21 517.011 985.682
95.3538 502.073 -836.597
896.842 695.118 -670.812
-2029.41 655.574 -657.641
-1151.49 489.71 -884.686
-53.2263 1248.66 -1598.78
-607.976 782.227 -1401.36
-1102.19 1161.04 -1620.99
1282.2 1223.74 -930.004
1830.98 1063.71 -341.895
96.2503 2022.07 -1835.56
649.445 1526.55 -1577.24
1908.45 2079.03 -680.406
1359.35 1924.25 -1168.88
1152.37 2683.01 -1361.5
2279.24 1526.45 92.7013
1900.85 2899.48 -431.652
2277.59 2130.67 -209.509
2404.3 2169.24 443.764
2042.51 2720.52 638.659
177.912 2644.89 2308.87
825.233 3032.26 2005.41
175.689 3302.96 2131.88
-2465.52 930.602 1421.72
-1978.38 1240.39 2017.61
-2454.47 1704.51 1563.08
-1574.16 1310.1 -1537.73
-2315.65 1099.4 -947.584
-2381.81 2042.81 -1158.7
660.998 3011.79 -1568.43
15.1055 2742.56 -1903.9
-551.383 3859.89 -1967.97
1741.07 3640.24 427.06
1700.01 3620.08 -245.028
1321.97 4151.37 37.6518
-2555.42 5436.19 -41.6166
-2490.58 5400.87 634.581
-2050.59 5582.39 128.61
-2894.94 5125.16 1079.81
-2706.54 5288.96 873.182
-3036.8 5138.77 749.343
-1943.96 5406.38 981.394
-2350.5 5369.76 972.563
-2187.55 5293.44 1208.13
-3143.59 3733.68 1826.9
-3166.17 4079.55 1726.11
-3370.36 3860.55 1529.4
-2603.5 4458.08 1968.52
-2883.71 4306.11 1887.58
-2611.55 4139.38 2097.27
-3297.87 4629.37 1154.51
-3125 4479.34 1550.7
-3058.67 4805.19 1346.51
-1629.77 4809.54 1609.29
-1814.52 4741.92 1750.47
-1762.7 4547.09 1819.54
-1997.15 5123.13 1481.62
-1898.55 4953.25 1629.86
-1746.25 5163.84 1371.77
-2110.38 4344.56 2068.82
-2039.3 4660.96 1878.5
-2255.56 4590.92 1954.89
-2722.22 4996.87 1453.65
-2489.75 4802.54 1763.66
-2352.9 5087.67 1498.07
-1441.55 5895.28 36.7707
-1753.8 5892.28 -587.887
-1374.37 5526.94 649.08
-1404.72 5758.39 328.81
-873.711 6251.28 -254.121
-994.696 6129.35 -34.011
-812.708 6179.67 -62.9762
-997.081 4459.2 1325.43
-1397.96 4977.13 1338.98
-606.892 5571.83 436.543
-1002.07 5106.26 848.618
-192.893 4885.3 820.85
-1492.99 5155.61 1215.03
-1408.47 5288.82 1013.16
13.0172 5890.86 -493.869
-137.405 5888.4 -193.68
47.0318 5713.47 -282.568
-572.678 6134.79 -87.7156
-358.184 6035.66 -122.45
-450.697 6185.38 -361.861
-193.387 5570.83 158.328
-286.918 5850.07 33.2157
-420.302 5792.25 185.65
-911.46 5799.95 380.136
-656.574 5841.98 282.01
-716.644 6031.92 132.354
-1760.35 6043.21 -1142.3
-2251.22 5963.29 -1126.49
-775.97 6258.84 -550.471
-1296.12 6152.83 -724.347
-2065.91 6156.45 -1606.04
-1882.01 6087.86 -1405.04
-1849.51 6105.14 -1568.75
204.45 5779.7 -753.617
17.9716 5971.45 -693.24
-139.539 6037.06 -1061.33
-40.1678 6041.48 -855.718
105.522 5853.97 -1029.67
-234.093 6145.48 -661.586
-445.009 6238.01 -611.891
-1538.68 5367.69 -2381.34
-1263.51 5595.43 -2037.87
-1061.84 5246.74 -2110.35
-1622.22 5995.28 -1826.31
-1434.07 5836.96 -1946.28
-1810.6 5921.3 -2064.86
-175.002 5692.29 -1458.95
-736.509 5789.02 -1695.48
-344.38 5930.66 -1360.12
-587.906 6250.43 -887.992
-454.424 6137.77 -1150.12
-1113.6 6073.89 -1373.86
-2478.05 5963.66 -1272.81
-2540.98 5793.38 -831.406
-2252.71 6113.78 -1797.65
-2387.14 6092.9 -1533.12
-2960.84 5519.19 -1227.72
-2732.44 5842.75 -1411.35
-2929.04 5623.57 -1536.54
-1649.38 5164.49 -2541.9
-1730.43 5351.8 -2518.36
-2175.27 5241.26 -2504.04
-1892.93 5320.53 -2610.63
-1888.16 5073.43 -2625.61
-1878.32 5686.01 -2349.26
-2033.4 5932.36 -2160.65
-2858.6 4459.38 -1538.32
-2832.7 4726.19 -1795.65
-2677.66 4374.06 -1837.26
-3039.87 5266.59 -1708.76
-2970.49 5100.22 -1757.19
-3084.55 5107.98 -1468.75
-2390.39 4734.02 -2299.14
-2710.5 4978.12 -2050.31
-2516.59 5112.17 -2268.87
-2437.29 5822.95 -2096.55
-2552.52 5427.7 -2270.86
-2817.93 5560.41 -1928.94
-2764.84 5438.08 -365.595
-3070 5211.48 -836.566
-2959.72 5338.78 -614.91
-3027.96 5178.41 205.545
-3244.53 4972.24 537.107
-2921.61 3657 -960.988
-2994.84 4329.89 -1002.87
-3457.58 3928.23 -20.6365
-3271.29 4002.62 -490.953
-3425.37 3474.86 -173.653
-3074.69 4781.93 -1078.99
-3104.37 4972.52 -1067.36
-3468.95 3887.1 1221.87
-3453.34 3541.57 1345.22
-3412.92 4660.27 798.081
-3459.4 4324.65 994.219
-3582.57 3527.65 506.094
-3539.67 3914.98 735.333
-3572.51 3921.93 389.977
-3235.78 4791 -271.573
-3478.97 4339.59 172.658
-3418.75 4698.84 348.02
287.085 5262.46 -154.635
307.148 5409.93 -384.493
285.933 4796.19 789.35
90.4084 4961.43 399.179
1114.04 4340.24 568.381
812.371 4584.74 545.057
1042.58 4347.58 785.878
-300.514 4130.18 1639.28
14.2814 4304.56 1483.75
626.745 4078.04 1516.23
366.132 4198.74 1510.18
473.405 3864.35 1708.26
212.31 4447.31 1308.72
316.703 4591.58 1084.35
1656.48 3397.09 1111.55
1447.5 3574.41 1278.82
1473.25 3297.59 1422.47
1240.8 4079.06 983.419
1359.43 3849.92 1127.8
1461.89 3903.09 849.172
1000.35 3601.59 1644.76
1202.68 3750.53 1399.78
958.871 3901.19 1476.37
642.899 4442.22 1106.02
812.06 4196 1308.41
955.718 4283.12 1057.93
-1765.48 4105.16 2024.8
-1136.46 4145.62 1602.94
-2082.7 3995.93 2195.76
-1947.79 4073.23 2118.32
-569.149 3396.27 2146.25
-1545.31 3934.96 2060.7
-1347.52 3534.19 1928.86
-3116.89 3390.9 1792.56
-2922.17 3562.51 1971.75
-2268.31 3246.61 2163.55
-2600.29 3419.65 2095.75
-2424.45 2886.77 1895.79
-2625.64 3749.77 2132.86
-2331.43 3882.47 2222.08
-549.956 1785.12 2265.71
-792.12 1807.29 2234.8
-898.157 1419.68 2265.39
-968.986 2919.98 2264.15
-723.832 2534.31 2304.19
-387.957 2663.34 2331.13
-1727.85 1602.29 1976.71
-1257.03 2077.2 2125.77
-1777.76 2680.7 2044.89
-2078.53 3666.51 2300.02
-1995.1 3465.93 2261.02
-1900.69 3399.17 2261.92
-3406.01 3207.62 1170.48
-3313.42 3269.2 1482.71
-3500.55 3046.59 340.966
-3454.4 3112.89 690.705
-3083.25 2183.84 1054.62
-3349.07 2666.48 848.741
-3250.68 2251.83 676.318
-2863.15 3054 -1036.84
-3081.08 2980.35 -740.382
-3088.27 2189.91 -512.532
-3125.35 2569.99 -632.094
-2925.59 2227.33 -792.246
-3278.86 3013.1 -359.957
-3424.24 3013.42 -33.4472
-2558 731.047 249.191
-2749.12 947.576 -37.4031
-2565.12 736.79 -263.151
-2977.73 1632.27 462.85
-2854.75 1180.07 229.093
-2741.45 1206.6 785.529
-2750.26 1180.57 -547.309
-2846.7 1154.5 -251.318
-2840 1530.8 -345.155
-3439.92 2602.19 132.118
-3212.71 2177.17 -116.326
-3301.84 2220.41 286.905
-2406.91 4205.4 -2028.77
-2529.93 3798.39 -1307.11
-2124.42 4496.83 -2387.85
-2302.13 4312.13 -2201.19
-2019.56 3122.35 -1618.33
-2185.52 4000.74 -2053.81
-2028.68 3764.18 -1964.35
-1384.85 5147.4 -2440.31
-1696.18 5175.55 -2573.23
-1721.6 4562.31 -2350
-1719.13 4900.75 -2455.42
-1417.13 4692.53 -2267.52
-1866.23 5074.28 -2588.83
-1898.33 4838.13 -2539.14
-789.722 1854.02 -1858.77
-773.466 2206.49 -1913.77
-489.847 2058.48 -1909.3
-1432.68 3148.82 -1878.41
-1048.08 2485.94 -1881.33
-1333.73 2066.81 -1691.85
-543.966 2909.65 -1928.76
-902.293 2692.28 -1920.35
-1623.86 3535.32 -1963.6
-1938.77 4407.52 -2377
-1911.58 4274.78 -2305.76
-1838.13 4035.93 -2206.53
-486.829 5207.79 -1826.79
-1070.88 5110.74 -2212.3
73.9154 5503.58 -1412.02
[...]
POINT_DATA 642
SCALARS Mean_Curvature double 1
LOOKUP_TABLE default
0.000557703
0.000849683
0.00142349
0.00150914
0.00109245
0.00299217
0.00179851
-0.00767912
0.00107283
0.000820914
0.000802569
0.00217879
0.0013738
0.00108446
0.00154096
-0.00289534
0.00266553
0.00139948
0.00275383
0.000906798
0.00191808
8.06378e-05
0.000764723
0.00114082
0.000302907
0.000319969
0.000194816
6.98376e-05
-0.00193909
-8.70283e-05
0.00640573
0.00123729
0.00173292
0.000754047
0.00147179
0.00149318
2.59418e-05
0.00152835
0.00187175
0.00040689
0.00182234
-0.000603009
0.00085932
0.0011425
-0.00100616
0.00111543
0.00116564
0.000974444
0.00136932
0.00121352
0.000969027
0.0015198
0.00090418
0.000656537
-0.00407078
0.00120682
0.00150979
0.000583092
0.000548716
0.00135998
0.00420622
0.00247234
0.000502297
0.00123866
0.000425206
0.00203028
0.000948894
0.00803532
0.0017141
0.000276118
0.00229887
0.0013979
0.00107217
0.000488541
-0.000546775
0.000217684
1.55233e-05
0.000378852
-0.000647622
0.000645989
0.00100836
0.00096759
0.00104229
0.000870907
-0.000629523
0.00387338
0.000989617
0.00228735
0.00144348
-0.00215974
-0.000544396
0.0014713
-9.74082e-05
0.00122254
0.000677148
0.00123634
7.30489e-05
0.00264552
0.00103188
-0.000344488
-0.00193698
-0.0025337
0.00100412
0.00469505
-0.000142299
0.00423945
-0.000424872
-0.00335255
0.00209515
0.000670172
-0.00207166
0.000763668
0.00129982
0.00109163
0.000843085
0.000469128
0.000775359
0.00227737
0.00015125
0.000605676
0.000804949
0.000291294
0.000224065
0.00193928
0.00175925
-0.000179699
-8.84467e-05
0.00140847
0.00133704
0.000564681
0.000434666
0.00134715
0.000218709
0.00151032
0.0009654
0.000201854
0.00137542
0.000765377
0.00175834
0.000272233
0.00059347
0.000737236
0.00108066
0.00089617
0.00241412
0.00363626
5.09973e-05
0.000592196
0.000698207
0.00104502
0.00166655
0.00324108
-0.000287933
0.00212918
0.00217819
0.000535604
0.000294681
0.00140815
-0.00358323
0.000914396
0.0010549
0.000500567
-0.000436481
0.000694466
-0.000198871
0.00132862
0.00110537
0.00137075
0.00185184
0.00123423
0.000970087
0.00155886
0.00114255
0.00161804
0.00149178
0.00123724
0.00160642
0.00115657
0.000994311
0.00113628
0.000289109
0.00144829
2.41223e-05
0.00132804
0.00137641
0.00168464
0.00189299
0.00132473
0.00151105
0.00131023
0.00129993
0.0011396
0.000503714
-0.000575034
-0.00061844
0.000962825
0.00246959
0.00142216
0.00260585
-0.00251798
0.00107838
0.000405648
-0.00115256
-0.000246086
0.00162131
0.00114727
0.000884068
0.00144254
0.000611385
0.00185839
0.00159483
0.00115772
0.00434473
0.0015421
0.00101114
0.00506579
0.00128525
0.00221753
-0.000812658
5.89815e-05
0.000774178
0.001352
0.0032773
0.00140217
0.000955776
0.000553577
0.00164054
0.00165627
0.00257651
0.00160393
0.00133571
0.00210292
0.000349706
0.000127201
-0.000688935
0.000943983
0.000883422
0.000956686
0.000892498
0.00131508
0.00106547
0.00146767
0.00157023
0.000486994
0.00117159
0.00123295
0.0024372
0.00287858
0.000988577
0.0016527
0.00197116
-0.0131587
0.00178913
0.00157117
0.00439247
0.0064749
0.00227054
0.0025765
0.00125953
0.000814507
0.000984042
0.00309322
0.000977757
0.00254328
0.000929071
0.000279222
0.000745744
0.0016192
0.00209933
0.00181167
0.000521594
0.00123331
0.000825846
0.000757019
0.00121825
-0.000243929
-0.000716997
0.000370687
0.00100184
0.000927126
0.000676991
0.00109488
0.000900395
0.00186809
0.00164054
0.00103626
0.00171645
0.000518252
0.00138915
0.000655977
0.000928261
0.0014094
0.000112121
0.00135915
0.00409103
-0.00268764
0.000786726
0.00125493
0.00104263
0.00114897
0.000452924
0.000934342
0.000889928
0.000362165
0.000667992
0.000900743
0.000961816
0.00102984
0.000969301
0.000945558
0.00102078
0.000954677
0.000682122
0.000923397
0.000956043
0.000940209
0.00110467
0.00104359
0.00100223
-0.0021221
0.00239669
0.000676743
-0.00156589
-7.9747e-05
-0.00276701
0.00167364
0.00131801
0.00130015
0.000751353
-0.000721222
0.000977214
0.00131213
-8.52667e-05
-8.5246e-05
0.00139287
0.00228834
0.000338821
0.000115672
-0.000853242
-0.000134069
-0.000410171
0.00546912
0.00217852
-0.00324683
0.000955183
0.00146965
0.000930533
-0.00013757
0.000770608
0.000800116
0.000575183
0.00125108
0.000389214
0.000958623
0.000900718
0.000915473
5.40993e-05
0.000560618
0.00124786
0.00107263
0.00172751
0.000292196
0.000941988
-0.000105342
0.00189901
0.00189707
-0.000221155
0.00146457
0.000578499
0.000923881
0.000784526
-0.00170356
0.0019627
0.0015472
0.000258662
0.00208273
-7.71732e-06
0.0350388
-0.0108917
0.00025364
-0.000159127
0.00130279
-0.00550897
0.00666979
0.000714888
0.00107612
0.000441582
2.06811e-05
0.00111221
0.000252154
0.000312974
0.000526374
-0.0019591
0.00801487
-0.00115055
0.00406606
0.00383805
0.0141787
0.00131114
0.00152347
0.00262057
-0.0173365
-0.000214252
-0.000316377
0.00471332
-0.00271298
0.0144171
0.0230314
0.00305511
0.00115914
0.000958307
0.000714683
0.000967274
-0.00066548
0.000869111
0.000390044
0.000112629
0.000392443
-0.000389794
0.00250481
0.00125422
0.00202073
0.000818616
0.00103791
0.00152445
0.00135967
0.00118422
0.00161632
0.00144164
0.000626069
0.000897209
0.000477393
0.000396609
8.24312e-05
0.000132276
-2.08649e-05
0.000746119
0.00101797
0.000933139
0.00152158
0.000294319
0.00137849
0.00054493
0.00115665
0.000561921
0.00100399
0.000979532
0.000758641
0.000357386
0.0014623
0.000568518
0.000229236
0.000618419
0.00122919
0.00144062
0.000830625
-5.18119e-06
6.72541e-05
1.67535e-05
0.00255299
0.00216446
0.00159554
0.00147348
-0.000418587
0.000876139
0.000951319
0.000740589
0.00156717
0.000736332
-0.00011129
0.00120676
-0.000113448
0.00208154
-0.00016486
0.000663703
0.000904491
0.00101047
-7.75948e-05
0.000732159
0.00109839
0.000171841
0.000520022
0.00143938
0.00174504
0.00161749
0.00235266
0.000934234
0.00177083
0.00132298
0.00106565
0.000289256
1.25409e-05
0.000770352
0.00061514
0.000554604
0.000775919
0.00044489
0.000927155
0.0024345
0.000976582
0.00124059
0.00140762
0.000994507
0.000575226
0.000877323
0.00115655
0.000923779
0.00043957
0.00141843
0.00102023
0.000907558
0.00129952
0.000507898
0.00102607
-4.48963e-05
0.000390314
0.00039185
0.00103575
0.000467265
0.000230443
0.000761643
0.00130923
-0.000353843
0.00219201
0.000854191
0.000352126
0.000630965
0.00086714
0.0012569
0.000502044
0.00109757
0.00138538
0.00137968
0.00135872
0.00112086
0.000880041
-0.00020322
0.00107643
0.000711278
0.000592849
0.000752725
0.00274702
0.00121323
0.000720417
0.00126569
0.00278541
0.000160937
0.000849191
0.000878527
0.00136687
0.00305121
0.0022469
0.000644259
0.000805581
0.000309845
0.00217867
0.000257323
0.000907207
0.000671234
0.000753082
0.000785434
0.000937847
-0.00034164
0.00110182
0.000543135
0.000231419
0.000540608
0.00151268
0.000733619
0.00137071
0.000596968
0.00182529
0.0014808
0.00165685
0.00156416
0.00219613
0.00133241
0.00236666
0.00105072
0.00175134
0.000436043
0.000238996
0.000840643
0.000506445
8.22828e-05
0.00224035
0.00172613
0.00193997
-0.000108679
0.00214208
0.00264448
0.000165406
-0.000717029
0.00164143
0.00120863
0.00256511
0.000693145
0.00117286
0.000465404
5.84227e-05
0.000612712
0.00107348
0.000500778
0.00192147
-0.00119243
-0.000385862
0.000852069
0.000551651
0.000769112
0.000796059
0.000262133
0.000703586
0.000443331
0.0003597
0.000923025
0.000309672
8.38498e-05
-0.00120477
-0.000939659
-0.00117111
0.00716273
0.00100906
0.00147426
2.17802e-05
0.00108271
0.000900679
0.000669533
0.00105546
0.000821456
0.000929861
0.00170476
0.000835305
0.00102053
0.000980127
1.45275e-05
0.000386413
0.000239127
-0.00233898
-0.00256849
0.00120711
0.000919047
0.00051157
SCALARS CoVolArea double 1
LOOKUP_TABLE default
248590
66171.2
119857
116100
80538.8
186373
87582.6
45289.7
101212
136769
177954
80762.6
130075
99669.9
125930
211386
63667
89813.9
86336.3
115768
113168
165837
114221
87749.9
298068
215472
172521
249117
529791
399960
163196
230221
137363
178706
162941
160561
392867
120316
110017
126549
99695.6
166129
177630
119281
232876
122171
143040
144877
66146.5
97987
70892.8
110182
205513
361136
155844
76112.6
54386.7
145568
218089
85360.4
42675.3
73253.1
111927
185925
203720
144308
164164
19258.3
143899
146936
107112
124001
198288
268117
255318
158872
168585
153825
188382
148497
89189.1
91194.7
92729.1
100539
123117
296884
176326
96549.3
149818
288076
170111
163248
223737
129277
172167
161800
232682
89795
83147.1
332125
84181.9
44363.9
150423
79021.5
137714
40953.7
66367.1
88383.5
57939.2
121492
212366
99121.4
150562
186667
170245
186493
149780
91152.9
187541
199625
151619
232758
205243
148152
162568
191869
258031
154693
155916
175836
145542
163279
163570
154168
92990.2
197446
134877
126869
111074
120360
143317
143313
151539
153277
63469.8
58942.8
147130
121829
113227
99358.1
129089
86307.9
216602
81912.5
126121
232442
138904
107643
423044
114006
91564.7
180222
264592
214709
388284
131560
113951
126976
158723
119943
109121
108522
138538
117866
121349
129845
114795
134749
144597
146203
120266
61381.9
138984
94272.6
71062.6
71653.7
69399.5
71322.9
98044.8
152308
137187
131852
290602
369043
194118
190211
89245.1
112789
52586.3
311101
240888
285253
371239
359147
120991
104111
67954.2
68709.2
97963
59668
66584.9
68150
111252
55732.3
94198.9
96854.6
82260.9
63088.7
186009
187498
152254
144932
58673.3
88726.4
136707
44583.4
55842.9
86090.6
58866.4
68790
63313
75882
115157
201056
169605
151993
144161
90307.3
123167
176317
135797
180291
156561
245641
110454
172761
123526
85938.2
135170
109025
126252
27774.4
64219.9
124155
77521.3
47157.6
92543
119950
196457
132408
169927
98576.9
87279
74328.7
135916
128705
127395
183671
159220
164804
214829
185447
186195
182593
154691
287091
295097
221012
242898
188862
171862
168382
155314
114295
144221
159869
155056
170346
156796
259118
224944
192331
257393
124158
158512
291405
122065
220392
92880.3
281404
210765
97605.4
95039.2
111400
160549
162220
124003
94773
126092
89493.2
86130.5
79877.6
101724
92831.8
101349
115534
101026
99881
204128
401011
67173.7
70382.7
175770
141957
334417
106105
110476
236708
142451
290665
117088
101855
149130
227636
94893
231053
274757
119607
236236
436901
403137
54806.6
150425
147097
173173
127795
161337
187045
241143
205255
229128
222005
215249
198554
152839
164436
179436
170243
168195
132359
118859
269867
179188
187058
89847.3
123322
190209
168845
231109
226393
210199
365547
100669
89622.3
232204
112193
243447
18805.6
35184.4
261411
84398.3
232761
25764.4
52800.4
120870
121503
82694
315256
188622
293507
351501
198250
387052
49786.7
76423.2
107755
108780
40756.9
83113.1
97159.1
258550
30582.1
40421.1
75851.1
24111.4
112005
21124.5
40937.6
48986.7
82932.2
88559.7
113803
90430.6
98007.2
177957
139429
181833
202655
285118
66241.3
143560
79010.7
152886
167490
144521
146936
155292
134557
158894
179003
191633
170303
152638
137813
205976
177859
174426
102800
118642
123694
129999
169256
158025
183975
178581
168317
149028
160070
205658
177460
215870
225161
165952
140548
173916
168974
303547
248773
384572
80338.5
129140
174566
149608
195619
154691
178278
153761
161742
181994
371193
201415
298985
129229
160173
184263
217762
225213
320727
172695
153340
250283
190720
132270
141640
129258
115626
161574
131662
153396
149247
215594
274675
145452
145821
132547
144282
143092
115472
76928.7
114917
118876
195255
167073
185957
160992
144072
161378
177430
117600
149546
150201
101111
157633
104702
124205
120061
126089
117026
174067
178580
135896
118744
117548
60454.8
127029
158987
129113
186476
150151
196823
151961
132340
138047
142862
150340
143667
156312
97907.1
116538
150627
71121.8
80197.1
104426
153343
120142
70316.8
138606
79129.9
79420.9
122537
66150
126492
163010
141495
134630
99127
115156
140125
122506
109315
133819
132700
311560
121315
148117
136217
122124
125602
117506
115102
176749
137979
137981
141360
163104
101009
125756
80210
145922
156797
206916
220401
268041
288058
263450
127726
127300
149647
109072
91508.8
57404.6
105976
238896
114153
131129
90422.4
140954
146696
252836
310631
240094
156326
208002
134744
202527
207146
97655.4
129938
104048
115395
320284
99744.7
222377
121938
115930
138353
89250.9
703592
452271
202438
246048
134694
137121
373076
136219
169863
147790
96647.8
96199.1
105250
117457
86722.4
116678
152871
241399
126246
256634
236320
120399
120396
121784
118659
SCALARS SignedDistance double 1
LOOKUP_TABLE default
561.026
696.956
404.454
408.212
605.541
816.042
630.647
864.955
621.775
551.709
742.022
421.289
432.472
577.322
637.055
885.936
546.707
543.97
588.794
542.302
502.987
513.739
632.937
645.818
629.489
609.202
625.414
530.923
1187.29
715.384
929.745
964.124
431.603
522.295
410.079
412.312
489.313
477.64
492.437
631.92
539.519
642.034
531.494
516.807
641.103
468.117
450.068
424.031
675.746
603.401
675.6
610.27
529.353
824.875
735.708
611.735
651.204
738.286
810.616
624.551
648.806
539.803
574.209
844.107
741.326
394.59
446.717
702.986
426.892
549.57
494.585
555.172
545.443
573.724
593.512
491.622
488.033
668.936
825.085
652.879
645.629
601.627
612.966
589.384
656.989
952.459
510.627
598.072
594.903
920.979
683.209
457.636
514.196
555.204
514.41
476.134
557.472
488.966
779.553
946.484
803.401
678.039
595.016
1155.17
653.396
739.386
910.677
772.585
700.959
684.131
966.429
648.114
382.289
408.379
419.185
541.516
540.171
531.239
479.988
469.858
547.571
484.196
478.986
484.008
412.118
494.931
477.81
452.105
468.682
460.841
463.401
481.409
555.917
496.957
635.486
526.79
425.397
606.166
589.585
611.542
593.442
626.48
451.566
586.478
566.76
568.048
634.128
595.544
587.182
631.933
407.804
595.787
624.066
664.528
644.545
605.873
689.772
646.082
1256.34
622.486
628.529
668.496
565.637
613.73
571.475
476.024
517.303
472.084
629.363
581.581
564.971
436.507
422.455
414.021
524.464
446.97
525.628
422.143
429.978
431.86
692.022
676.836
704.247
597.822
632.069
655.23
645.95
644.245
596.625
480.663
538.541
549.822
562.748
702.337
703.545
606.753
527.202
560.162
564.471
846.186
750.326
784.62
837.789
922.254
721.058
785.013
652.044
674.014
714.298
595.794
629.473
563.432
793.252
696.216
709.186
697.036
689.711
629.69
839.233
592.713
506.635
630.55
636.33
725.369
701.555
657.979
624.056
517.703
582.83
560.904
571.214
550.661
656.136
830.354
1007.5
705.89
759.173
548.306
562.778
777.992
516.093
499.905
479.623
823.809
524.317
510.028
497.537
532.977
443.399
432.15
410.656
717.151
602.895
500.644
593.101
697.194
513.949
475.775
607.892
536.513
592.711
490.48
510.727
535.939
515.309
491.998
485.372
334.817
434.624
376.184
516.485
497.729
499.102
507.313
452.95
760.304
623.351
498.216
580.814
529.927
556.483
537.337
475.334
460.298
423.25
465.196
517.265
468.373
506.383
563.334
512.534
438.687
862.699
781.497
835.324
954.563
668.734
709.162
649.384
682.905
677.891
639.159
646.418
653.14
675.252
693.628
576.41
584.462
567.946
627.052
607.451
620.51
609.689
601.137
611.4
658.832
630.807
639.841
706.912
807.377
659.845
673.506
717.839
833.881
803.125
457.788
487.648
652.231
515.409
614.795
492.264
569.242
557.916
596.69
621.44
677.485
591.758
610.542
718.851
677.326
630.467
686.411
739.466
790.686
526.009
459.176
517.296
540.686
458.401
468.487
469.026
637.614
562.853
496.232
529.343
518.932
542.321
530.488
398.549
448.297
399.607
514.866
551.357
607.611
611.079
561.001
614.707
483.572
492.023
484.417
667.553
818.338
666.464
662.376
827.052
826.174
1030.34
865.436
707.306
747.249
686.293
849.469
676.233
678.687
611.717
656.744
652.412
986.642
657.667
640.757
724.263
663.531
1254.26
760.157
809.487
970.043
881.966
1057.43
608.106
665.217
748.542
727.062
746.119
700.492
696.548
839.791
753.903
1018.49
663.696
595.156
648.654
662.563
635.114
959.971
735.465
761.76
666.965
695.087
910.189
709.348
764.901
767.261
407.631
395.96
421.835
403.685
388.923
378.154
405.39
427.607
426.674
544.634
571.375
572.904
535.562
547.601
533.275
469.472
511.87
492.121
556.438
496.532
553.382
454.416
464.619
428.541
519.074
498.715
512.276
473.272
518.369
482.953
474.658
470.299
449.804
469.491
484.623
481.973
482.212
557.901
460.004
418.36
399.773
454.243
444.277
428.671
479.319
433.692
416.368
485.081
556.406
486.552
436.461
476.585
452.433
451.91
475.632
502.962
453.831
443.426
502.324
485.624
449.886
442.919
466.611
432.221
463.903
436.893
445.32
453.292
483.183
486.374
570.111
578.112
596.62
517.691
536.387
548.598
566.157
552.903
500.148
486.845
456.389
477.778
464.28
414.424
490.798
491.523
468.648
488.124
530.334
637.048
580.776
623.626
625.157
626.707
582.897
554.305
597.132
602.179
629.077
626.616
621.289
598.771
620.052
597.88
601.05
513.857
582.464
571.435
401.865
455.635
412.362
392.538
426.402
599.526
610.88
580.071
594.026
633.816
572.999
571.883
569.431
577.273
470.173
543.295
634.312
567.501
574.679
519.286
572.67
488.399
524.868
544.375
562.171
605.279
603
568.795
610.233
592.733
571.64
562.718
695.392
642.208
670.68
666.161
645.914
576.99
615.953
601.782
410.353
357.509
372.903
445.727
529.212
609.164
642.301
670.759
611.718
453.828
521.208
585.634
471.236
518.391
654.855
466.396
593.871
552.048
663.379
608.484
633.286
686.639
733.073
423.635
653.901
558.902
523.579
533.378
615.073
635.891
652.338
561.669
580.912
657.666
711.822
748.521
653.085
668.604
664.86
680.735
730.537
654.606
757.323
660.887
633.506
647.448
997.393
969.558
1088.95
953.971
1329.59
672.07
773.255
721.607
578.677
578.923
583.818
611.504
638.286
625.427
648.474
637.075
610.619
595.634
903.105
665.615
693.022
956.197
718.542
629.186
646.911
650.67
