# vtk DataFile Version 4.2
vtk output
ASCII
DATASET POLYDATA
POINTS 642 double
-2770.86 6917.08 -251.147
1317.54 6710.38 -184.646
-2835.54 -288.075 -41.3957
1811.15 -288.999 -14.3304
-575.043 1108.63 3487.78
-816.905 5321 3013.21
-525.556 1310.53 -3228.21
-773.301 5616.97 -3547.81
2664.03 3306.09 -1906.68
2825.36 3256.7 1948.44
-3903.36 3630.03 -2148.56
-4193.76 3460.28 2201.32
-4005.86 5537.35 1273.41
-2673.25 4694.57 3245.43
-1886.37 6525.02 1914.13
452.231 6372.78 1512.07
-550.727 7491.37 -109.734
605.563 6693.53 -1991.77
-1973.15 7034.33 -2305.4
-2704.32 4900.91 -3508.99
-4064.39 5680.94 -1488.44
-4698.24 3449.29 25.5546
1349.23 4437.47 2908.38
2439.28 5121.61 1092.97
-2548.85 2026.31 3107.3
-510.874 3296.05 3710.47
-3816.3 1254.44 -1210.78
-3874.9 1240.4 1278.29
-742.229 3659.35 -3546.96
-2407.73 2243.51 -2917.94
2263.95 5217.27 -1094.83
1192.87 4705.56 -2791.18
3028.12 1191.87 1281.54
1483.72 2087.2 3150.91
825.227 -96.8276 2101.46
-1937.01 -164.585 2149.41
-530.705 -699.793 -50.9914
-1812.04 12.1704 -2081.78
763.708 28.3134 -2059.16
1364.67 2117.87 -2980.25
2913.67 1262.85 -1253.53
3447.63 3156.17 20.5304
-3476.72 6295.09 632.099
-3035.22 6223.17 1697.75
-2345.55 6786.76 996.255
-3550.64 4112.32 2858.58
-3488.26 5193.88 2414.31
-4243.72 4541.35 1817.62
-1344.3 6029.44 2595.18
-2352.59 5761.15 2713.71
-1724.48 5096.11 3293.44
-1144.14 7192.4 848.286
-1630.79 7313.99 -164.107
-92.916 5815.27 2350.11
-662.638 6612.62 1749.92
453.704 7251.76 -147.17
12.3636 7139.7 820.319
886.743 6719.07 723.144
-1354.81 7315.93 -1215.72
-2472.67 7216.43 -1304.81
1063.2 6864.07 -1076.93
82.572 7322.94 -1122.16
-1375.17 6453.19 -3082.87
-685.389 6909.28 -2244.91
-56.5134 6220.55 -2777.15
-3187.28 6552.65 -1988.93
-3523.86 6475.27 -896.528
-1718.13 5356.49 -3798.82
-2460.08 6102.17 -3119.44
-4165.04 4727.79 -1941.2
-3601.09 5385.67 -2676.48
-3448.11 4292.48 -2932.13
-4120.45 5662.93 -64.8145
-4428.25 3469.44 -1061.16
-4441.15 4603.63 -746.187
-4586.2 4568.86 677.738
-4608.91 3461.56 1154.72
1582.35 5761.08 1451.18
1852.31 5900.4 450.514
442.815 4853.24 3017.3
1021.39 5412.56 2383.67
2742.76 4291.81 1581.15
2033.39 4861.56 2093.82
2155.82 3924.27 2560
-1740.77 4071.02 3654.95
-686.165 4308.82 3435.71
-3512.72 2844.19 2809.09
-2768.16 3470.08 3395.22
-503.595 2226.73 3711.47
-1608.41 2831.87 3591.46
-1629.29 1458.64 3439.5
-4521.61 2329.96 643.459
-4140.72 2396.59 1756.16
-3976.7 2363.56 -1684.33
-4433.63 2344.53 -640.35
-3508.97 346.674 674.958
-4038.97 1141.74 -45.0912
-3508.01 354.034 -707.546
-2668.94 3650.7 -3423.04
-3179.78 2965.72 -2645.08
-787.889 4744.29 -3824.44
-1682.48 4340.32 -3903.6
-1497.85 1617.14 -3175.52
-1585.88 3003.47 -3464.42
-515.757 2282.52 -3483.86
973.21 5751.98 -2594.96
230.752 5154.81 -3254.8
1863.33 6153.12 -738.916
1562.99 6126.33 -1633.43
2011.29 3894.14 -2441.19
1799.89 5029.46 -2134.95
2632.27 4249.13 -1540.12
2568.87 310.955 668.043
2074.04 403.484 1754.99
1406.67 -332.539 1077.49
2281.85 2650.89 2630.83
2429.67 1548.24 2351.41
3126.67 2214.44 1713.7
121.925 424.693 2903.85
1262.36 884.301 2794.79
534.935 1556.26 3431.14
220.209 -631.016 1133.92
733.703 -644.786 -18.1785
-1224.06 386.869 2966.79
-551.792 -281.256 2265.12
-1779.38 -673.125 -9.29813
-1310.99 -626.041 1134.74
-2452.6 -379.883 1146.59
198.094 -579.043 -1140.83
1344.99 -233.182 -1083.83
-2426.42 -276.89 -1094.05
-1252.09 -589.576 -1154.39
130.588 578.007 -2737.84
-548.719 -116.287 -2170.74
-1213.86 544.361 -2792.03
1944.82 530.229 -1692.53
2513.5 363.323 -681.116
472.451 1676.52 -3212.64
1157.31 1003.34 -2689.84
2974.98 2205.39 -1623.4
2243.88 1654.65 -2232.04
2106.3 2695.09 -2525.33
3195.42 1081.7 -9.24193
3186.39 3210.29 -980.187
3472.41 2221.52 -653.49
3562.97 2217.2 645.18
3318.84 3178.82 998.594
501.368 2681.36 3638.01
1512.92 3312.79 3203.56
475.664 3890.87 3491.65
-3103.35 347.653 1830.56
-2386.73 821.083 2910.32
-3379.38 1502.4 2400.6
-2208.46 977.236 -2726.6
-2996.78 490.498 -1716.36
-3212.49 1661.65 -2214.97
1385.66 3303.73 -3000.9
410.276 2723.65 -3412.92
194.216 4139.07 -3358.18
3060.13 4286.28 592.626
3018.93 4274.43 -601.188
2545.77 5189.16 -11.0475
-3109.96 6569.81 199.047
-2949.39 6586.81 846.917
-2524.66 6813.38 410.873
-3556.51 5926.03 1508.31
-3286.7 6287.88 1191.29
-3773.5 5947.95 969.822
-2146.99 6689.88 1468.86
-2719.88 6541.13 1367.56
-2468.75 6426 1827.92
-3911.09 3788.31 2563.44
-3949.53 4331.47 2382.5
-4260.57 3996.57 2037.27
-3110.01 4955.49 2878
-3548.85 4670.19 2672.28
-3131.42 4419.8 3087.76
-4161.39 5064.47 1559.22
-3903.4 4894.09 2143.29
-3792.08 5389.45 1872.42
-1108.09 5698.12 2837.22
-1543.32 5594.72 2979.31
-1288.97 5243.4 3173.8
-2130.47 6188.58 2339.34
-1847.84 5927.25 2683.69
-1612.74 6310.38 2284.97
-2192.13 4916.24 3309.96
-2048.51 5447.61 3043.54
-2534.36 5258.23 3025.42
-3298.03 5754.99 2085.31
-2940.54 5522.6 2612.67
-2719.8 6030.57 2248.29
-1947.38 7079.42 385.86
-2202.13 7089.72 -265.082
-1517.98 6805.85 1365.34
-1738.91 6983.87 902.856
-1068.77 7461 -100.383
-1358.27 7310.88 384.956
-867.29 7403.02 385.175
-488.839 5544.09 2669.34
-820.562 5994.22 2501.77
-99.1331 6599.04 1630.91
-461.745 6260.67 2037.74
232.105 6097.03 1921.29
-1048.02 6311.74 2227.11
-1249.97 6574.78 1894.33
910.583 7012.59 -164.825
717.252 7016.68 326.093
1120.66 6743.04 279.811
-255.666 7371.82 376.22
231.007 7238.69 359.795
-44.7031 7414.88 -130.69
666.435 6604.94 1142.99
478.736 6954.6 797.764
233.062 6833.67 1187.09
-871.91 6960.17 1345.19
-292.213 6946.43 1291.17
-564.855 7235.56 860.372
-2118.42 7268.07 -825.16
-2636.81 7089.5 -815.89
-861.224 7467.95 -617.749
-1529.2 7355.47 -691.779
-2244.42 7185.17 -1799.77
-1981.77 7351.8 -1323.09
-1747.34 7270.31 -1807.16
1225.75 6834.85 -624.463
791.734 7122.23 -626.643
362.814 7057.92 -1583
587.163 7133.08 -1116.05
850.461 6816.15 -1552.85
282.522 7344.09 -635.792
-216.733 7467.04 -630.761
-1072.89 6058.56 -3352.48
-778.985 6348.66 -2992.73
-486.163 5923.09 -3174.21
-1398.91 7014.92 -2352.07
-1094.75 6729.54 -2709.84
-1678.78 6785.77 -2737.14
333.005 6497.68 -2387.09
-366.616 6591.15 -2540.78
38.7534 6858.38 -2105.23
-532.765 7403.4 -1151.74
-225.602 7186.97 -1665.85
-1011.02 7170.71 -1758.74
-3041.43 6899.42 -1116.59
-3156.49 6749.8 -572.982
-2596.24 6848.95 -2175.05
-2858.09 6942.26 -1649.83
-3835.45 6125.76 -1200.82
-3417.41 6578.5 -1449.11
-3680.83 6160.32 -1749.22
-1236.84 5519.64 -3705.58
-1552.76 5957.15 -3485.16
-2630.04 5498.61 -3379.8
-2091.36 5749.97 -3472.15
-2217.45 5141.45 -3707.64
-1905.74 6341.75 -3157.84
-2228.09 6622.2 -2759.55
-4045.92 4194.82 -2083.89
-3855.39 4532.48 -2462.15
-3713.87 3985.54 -2573.46
-3893.21 5555.06 -2101.39
-3953.72 5065.42 -2330.77
-4191.23 5197.08 -1749.8
-3100.48 4618.84 -3242.85
-3563.43 4873.78 -2839.8
-3196.69 5168.55 -3151.16
-2865.13 6375.21 -2606.19
-3075.97 5777.49 -2947.08
-3440.81 6007.04 -2378
-3494.82 6377.68 -158.177
-4088.56 5701.26 -826.924
-3840.26 6074.35 -506.96
-3831.12 6001.2 287.08
-4120.38 5619.89 643.958
-4134.83 3536.94 -1609.66
-4233.88 4165.15 -1512.85
-4618.96 4012.74 -311.11
-4464.93 4053.54 -917.175
-4602.77 3441.43 -525.67
-4328.27 4708.81 -1384.37
-4293.75 5163.2 -1179.42
-4491 4001.01 1523.58
-4454.17 3460.83 1704
-4353.79 5076.5 999.469
-4455.36 4576.26 1262.56
-4716.07 3461.59 568.942
-4620.62 4011.57 912.877
-4705.06 4016.52 353.806
-4352.56 5152.86 -415.574
-4603.28 4580.57 13.6743
-4412.55 5127.86 342.252
1371.7 6351.18 522.108
1552.81 6395.51 70.9512
1011.22 6070.84 1527.08
1165.09 6207.22 1038.81
2209.39 5475.07 831.556
1758.82 5834.66 984.485
2033.25 5473.79 1289.06
-134.704 5053.89 2997.29
237.328 5342.65 2723.27
1200.94 4956.18 2670.48
759.304 5158.37 2716.33
911.266 4655.9 2991
561.044 5604.19 2394.08
796.564 5832.39 2030.03
2808.71 3809.91 1788.31
2493.05 4118.68 2095.16
2501.95 3630.62 2295.98
2275.18 5010.47 1612.25
2411.56 4595.69 1859.42
2620.05 4722.66 1345.98
1769.88 4190.7 2763.1
2118.85 4413.12 2346.29
1724.67 4667.69 2527.03
1329.03 5616.97 1946.57
1545.76 5168.4 2270.87
1833.46 5345.69 1794.6
-1312.02 4752.5 3408.25
-764.014 4851.03 3179.6
-2181.03 4389.35 3509.28
-1739.18 4583.02 3512.3
-577.272 3831.39 3612.8
-1281.57 4248.43 3580.08
-1216.85 3732.97 3596.04
-3889.07 3145.51 2543.31
-3587.42 3463.94 2882.88
-2725.78 2874.98 3301.91
-3169.62 3156.9 3138.83
-3049.52 2485.42 2980.02
-3184.45 3788.38 3164.69
-2750.66 4081.64 3361.36
-571.853 1629.29 3587.5
-1028.08 1763.96 3585.86
-1077.62 1277.08 3527.71
-1068.51 3060.54 3696.39
-983.135 2442.12 3661.91
-478.97 2777.16 3773.24
-2131.49 1646.82 3347.55
-1569.34 2008.61 3449.52
-2109.71 2413.19 3357.39
-2226.59 3778.09 3618.67
-2232.28 3192.05 3580.05
-1743.04 3476.53 3718.15
-4446.94 2936.69 1502.89
-4220.99 2949.3 2014.26
-4656.42 2891.61 333.458
-4582.18 2909.69 899.729
-4036.36 1780.47 1511.24
-4371.16 2343.63 1210.22
-4256.75 1807.19 955.26
-3937.99 2927.45 -1887.64
-4225.55 2882.93 -1383.88
-4150.37 1795.2 -954.018
-4237.87 2332.82 -1181.11
-3922.14 1823.43 -1457.65
-4456.49 2884.54 -843.013
-4610.84 2882.06 -316.86
-3207.19 -16.5893 320.046
-3549.57 305.945 -42.981
-3207.57 -10.7817 -386.338
-4002.44 1173.54 620.058
-3827.68 689.638 308.434
-3736.4 734.667 1002.36
-3717.61 771.38 -990.302
-3830.8 698.479 -386.164
-3996.81 1147.83 -666.502
-4554.02 2318.66 0.878444
-4289.63 1740.39 -340.86
-4348.28 1751.26 318.587
-3361.01 3680.75 -2893.68
-3575.59 3315.94 -2377.63
-2703.69 4259.92 -3506.7
-3070.05 3947.69 -3234.08
-2837.53 2644.27 -2861.64
-2957.32 3370.32 -3132.93
-2587.97 3107.51 -3219.68
-756.449 5137.59 -3786.59
-1238.53 5027.04 -3919.05
-1293.06 4110.48 -3833.03
-1253.08 4566.16 -3904.12
-847.575 4342.74 -3779
-1710.82 4851.65 -3950.17
-2148.06 4615.73 -3777.96
-1026.68 1453.81 -3233.12
-987.026 1970.96 -3407.52
-515.238 1795.42 -3416.08
-1990.14 2650.47 -3237.14
-1462.38 2208.29 -3348.95
-1940.57 1827.78 -3055.96
-534.401 2868.74 -3530.29
-1010 2536.14 -3483.54
-1186.09 3343.07 -3564.52
-2178.55 3976.3 -3719.73
-1727.98 3764.63 -3772.59
-2178.64 3421.69 -3549.16
101.117 5695.03 -3058.91
-317.556 5357.42 -3459.28
[...]
POINT_DATA 642
SCALARS Mean_Curvature double 1
LOOKUP_TABLE default
0.000726007
0.000701107
0.000578733
0.000649444
0.00110341
0.000832548
0.000621421
0.000816068
0.000569851
0.000292439
0.000621711
0.000783642
0.000596654
0.000648114
0.000544195
-6.83161e-05
0.000730381
0.000614954
0.000861182
0.000660651
0.000740314
0.000474232
0.000477516
0.000539401
-0.00024578
0.000283934
0.000331945
0.000155969
-0.000378545
-0.000159481
-9.77153e-05
0.00030807
0.000631676
0.000365204
0.000597965
0.000733151
0.000146174
0.000601383
0.000646352
0.000453559
0.000593941
0.000402121
0.000578684
0.000589702
0.000392105
0.000582791
0.000547673
0.000528634
0.000647395
0.000601558
0.000740784
0.000595901
0.000448568
8.69924e-05
0.000275159
0.000570771
0.000665638
0.000608854
-3.08675e-05
0.00101516
0.000601191
0.000690979
0.000718938
0.000248364
0.000279565
0.000599257
0.000461866
0.000937641
0.000605421
0.000716789
0.000771015
0.000458271
0.000396502
0.000460921
0.000128793
0.000612664
0.000512141
0.00047767
1.23076e-05
0.000368356
0.000539776
0.000558226
0.000525442
0.000528746
0.000848058
-8.93778e-05
0.000602506
0.00057559
0.000473228
5.74535e-05
0.000629814
0.000591765
0.000198504
0.000564555
0.000502617
0.000380071
0.000171974
0.000688798
0.000693924
-0.000357368
0.000980303
0.000940359
0.000210413
2.48774e-05
0.000343254
0.000547135
0.00052417
0.000923706
0.000624325
0.000414552
0.000300568
0.000500223
0.000606658
0.000539743
0.00045006
0.000271373
0.000731811
0.000696087
0.00030598
0.000443013
0.000587679
0.000583078
0.000456636
0.00053452
0.000666345
0.000491254
0.000207381
0.00061725
0.000620013
0.000325629
0.000529579
0.000647156
0.00034766
0.000553357
0.000751152
0.000359483
0.000601767
0.00035576
0.000536914
0.000812226
0.000461108
0.000374312
0.000596771
0.00021913
0.000836485
0.000868247
0.000311158
0.000374211
0.000527051
0.000577696
0.000627217
0.000592928
0.000491812
0.000711295
0.000523516
0.000127204
0.000426089
0.000374857
0.000194765
0.00053738
0.000591578
0.000416576
-3.52867e-05
0.000589289
-0.000138509
0.000593136
0.000574674
0.000586003
0.000542663
0.000581567
0.000574046
0.000641636
0.000564904
0.000611197
0.000546681
0.000570532
0.000587698
0.000568278
0.000551398
0.000558004
0.000577846
0.000660925
0.000592002
0.000600521
0.00057974
0.000617883
0.000559743
0.000610467
0.00065676
0.000564796
0.000571268
0.000589147
0.000265714
-0.000253027
-0.000131802
0.000187279
0.000708743
0.000638603
0.000745942
-0.00048271
0.000655763
0.000662278
-9.80489e-05
-0.000160237
0.000551752
0.000467708
0.000566707
0.000646541
0.000654454
0.000704397
0.000627052
0.000573818
0.000658299
0.000693766
0.000678674
0.00066396
0.000688729
0.000740735
0.000549341
0.000515588
0.000456238
0.000196607
0.000787703
0.00113118
0.000888088
0.000816042
0.000789099
0.000645452
0.000613395
0.000611926
0.000724029
0.000752243
0.000688459
0.000485556
5.42669e-05
0.000667393
0.000639797
0.000862092
0.000574623
0.000157298
0.000582022
0.000637287
0.000615667
5.55856e-05
0.000732922
0.000489361
0.000542723
0.00071918
0.00070661
0.00088036
0.00063297
0.000535833
0.000824498
0.000587636
0.000370637
0.000742793
0.000794835
0.000632762
0.000510565
0.000433616
0.000583527
0.000579032
0.000978177
0.00096372
0.000329273
0.000636474
0.000889218
0.000612518
0.000609591
0.000594847
0.000284296
0.000331391
0.000377965
0.000310465
0.000636962
-0.000152789
-8.50701e-05
0.000308227
0.000313007
0.000455588
0.000616491
0.000549624
0.000602363
0.000705889
0.000606701
0.000533478
0.000682936
0.000242154
0.000636885
0.000293592
0.000643369
0.000492961
0.000135985
0.000603289
0.000308521
-0.000352165
0.000475459
0.000403663
0.000543784
0.000224108
0.000411476
0.000529263
0.000480889
0.000439696
0.000446343
0.000464503
0.000514431
0.000544181
0.000515904
0.000524004
0.000546246
0.00054131
0.000497441
0.000531351
0.000498979
0.000518025
0.000541758
0.000546839
0.000556168
-0.000432682
0.000612614
0.000716943
0.000473951
0.000736925
-0.000500574
0.000687415
0.000667769
0.000465127
0.00060178
0.000169502
0.000554229
0.000461716
0.000238105
0.000415754
0.00100527
0.000340238
0.000151473
0.000776351
0.000954543
-0.000319164
-0.000156501
0.000761801
0.000679206
0.00105908
0.000578154
0.000683528
0.00044103
0.000263093
0.000351219
0.000397641
0.000443299
0.000354895
0.000342196
0.00036962
0.000531631
0.000403663
0.000329625
0.000526646
0.000558766
0.000516034
0.000666827
0.000103769
0.000694491
0.000648847
0.000807002
0.000762324
0.000597896
0.000655957
0.000343977
0.000550178
0.000666881
-0.000273697
0.000494708
0.000672956
0.000391577
0.000754822
0.000280188
0.00116419
0.00124481
0.000588401
0.000629215
0.000483122
0.00147077
0.000402358
0.00031377
0.000565869
0.000800302
-0.000103221
0.000464268
-1.23479e-05
0.000179585
0.00029668
-3.34221e-05
0.000677349
0.000871713
0.000613382
0.000166386
0.000292359
0.000592273
0.000536181
0.00092087
0.000515528
0.000861961
0.000749303
0.000815362
0.000615629
0.000619592
0.000718247
0.000583996
0.000599378
0.000544024
0.000444791
0.00055464
0.000513542
0.000218321
0.000223098
0.000442182
0.000365841
-0.000200449
0.000598632
0.000670307
0.000682586
0.000569497
0.000573984
0.000579915
0.000590877
0.000595546
0.000623892
0.00050396
0.000491927
0.000428048
0.000240698
0.000622608
0.000606365
0.000387059
0.000351586
0.000363805
0.000635896
0.000625234
0.000659484
0.000539426
0.000411887
0.000458473
0.000582525
0.00050646
0.000487048
0.000455603
0.000495656
0.0003915
0.00057827
0.000484549
0.000422276
0.000703099
0.000670511
0.000593237
0.000533579
0.000147346
0.000281764
9.83907e-05
0.000649958
0.000709053
0.0004397
0.000649529
0.000151343
0.000537831
0.000412397
0.000577955
0.000380127
0.00039348
6.50303e-06
0.000933311
4.89053e-05
0.000668695
0.000684447
0.000532742
0.000358815
0.000637028
0.000441664
0.000401358
0.000620816
0.000369283
0.000514951
0.00057073
0.000548555
0.000664072
0.000734843
0.000657376
0.000632296
0.000390015
0.000438047
0.00040138
0.000320795
0.000409866
0.000583347
0.000257787
0.000508933
0.000408032
0.000654575
0.000628642
0.000453339
0.000684324
0.000508827
0.000494314
0.000356973
0.000589819
0.00057036
0.000494247
0.000357398
0.000625768
0.000606934
0.000578409
0.000474616
0.000355066
0.000702179
0.000533354
0.000449549
0.000606697
0.000618547
0.000119614
0.000195689
0.000428288
0.000590918
0.000743382
0.000761965
0.000350115
0.000337911
0.000590609
0.000443836
0.000475315
0.000376817
0.000583604
0.000578197
0.000585191
0.00062213
0.00059213
0.000337451
0.000398468
0.000814355
0.000659707
0.000207573
0.000922469
0.000650045
0.00082975
0.000212217
0.000510582
0.000713044
0.000516113
0.000841136
0.000923686
0.000485353
0.000912598
0.000626111
0.000206256
0.000512863
0.000489663
0.000824905
0.000411778
0.000494705
0.00046968
0.000513992
0.000514905
0.000547172
0.000317789
0.000572776
0.000485183
0.000388777
0.000486849
0.000585098
0.000563422
0.000631007
0.000511624
0.000636277
0.000637793
0.000636475
0.000714527
0.000411853
0.00103468
0.000804486
0.000475424
0.000680501
0.000408036
0.000403979
0.000206006
6.33228e-05
0.000186653
0.000599308
0.000903687
0.000747914
0.000775984
0.000573859
0.000655514
0.000859142
0.000693532
0.000688369
0.000724901
0.000675437
0.000554077
0.00039922
0.00051483
8.82654e-05
0.000474676
0.000500201
0.000130555
0.000440313
0.000731739
0.000660967
0.000528359
0.000482494
0.00054626
0.000453178
0.000313608
0.000625301
0.000545225
0.000443533
0.000504472
0.000388053
0.00131777
-0.000782702
4.92424e-05
0.000304926
-8.46864e-05
0.000476192
0.000480174
0.000330124
0.000441351
0.00025412
0.000350842
0.000581409
0.00052229
0.000554315
0.000480539
0.000554425
0.000497024
0.000367131
0.000224487
0.000519243
0.000290466
-0.000362858
0.000489514
0.000620551
0.00052986
0.00053155
SCALARS CoVolArea double 1
LOOKUP_TABLE default
304558
196211
282212
275597
242867
243112
236710
237139
241454
263027
287184
254273
339246
320878
317627
320014
290747
291054
331354
342186
348542
340983
281228
264307
401551
333446
333331
380647
409377
408378
346337
299953
355100
344778
364702
365558
434151
332470
321237
286242
331023
306329
344278
336853
341686
318512
356093
333001
249701
320516
256879
326771
348588
372996
309216
270203
271651
265678
414232
290080
265087
307387
299136
396667
347369
391273
339201
303321
392747
305019
367824
314419
401279
369557
404432
361851
332993
316980
330053
287037
271819
272128
281827
274291
283678
354585
338163
329346
310622
432505
299358
367064
370250
312414
359586
345331
387812
314116
293493
384257
195332
263764
290021
412001
268252
284397
289477
244545
273692
285464
314353
262268
344955
384062
350794
328036
346095
293185
347200
373697
321066
388447
344081
347538
379938
341054
395490
346034
361726
347183
329807
367598
309130
355066
281751
367853
332059
286141
319973
265773
328597
297827
375217
310888
310341
327248
300241
319914
305581
283445
370216
351536
364989
295950
342771
365865
295799
295422
444087
310450
291068
321014
371913
342698
394367
345493
310060
317213
312955
298561
317848
310408
331203
317059
341811
325834
309784
324007
332367
354927
252448
255170
254198
308284
273449
266781
277970
279852
324955
391244
382922
372831
379096
376914
370993
346278
301793
311525
287628
333079
300870
315676
340538
357127
272617
331755
249515
254481
245982
288923
266535
269877
273048
238728
261889
357834
304351
317379
316821
309308
366477
349110
303285
302714
353427
238793
265161
307107
276632
270808
273751
305401
292757
326402
328778
355527
320973
299231
302923
350356
347697
416075
404042
461235
318124
336440
388992
337816
328905
330414
375358
283996
319869
375878
350476
316647
333412
378300
331272
310146
312811
369564
307340
299124
318685
318805
353377
445225
432451
442218
370578
389216
362734
357740
364507
384663
369677
383133
370028
334677
329604
368891
336544
308954
355362
340062
326705
341459
354917
454263
426853
420242
320883
260537
345688
343525
275120
322406
275659
336665
324669
278157
258361
260686
302953
321652
296943
274623
296536
276314
261037
252111
264376
265011
284502
322018
309527
307183
289894
337925
309432
254774
326175
293350
352268
302549
310093
391499
316854
376698
312559
337915
297206
316467
283526
375587
377261
290671
322762
404847
451121
336371
390758
355085
338336
312604
355794
347716
370374
360228
392137
352538
350440
364685
324514
325489
327681
347519
346955
337563
324843
404717
346417
340166
294092
321513
352931
397068
420486
426854
331537
364948
346259
295215
365139
299826
360669
237939
246435
305487
216902
282003
260571
329480
282649
278965
256800
443043
362938
347172
354792
352338
409589
330244
344290
371183
355665
296732
293608
305995
284178
285250
257362
223587
238746
299646
235069
276236
264613
291925
257260
279304
262350
279495
310575
293677
300528
309703
357966
315850
324595
306900
339146
352239
334111
369977
348248
336861
345126
356396
383419
316455
308792
294529
358182
319242
322628
315579
306304
352738
317771
341316
320816
373866
344298
341490
313405
331535
366162
412693
411097
427610
340579
324280
378913
347898
379886
363137
437575
307107
332460
384854
345452
356241
342806
382855
336467
346990
355633
435852
349774
377394
330819
336725
376648
431299
434117
453690
345914
331723
391285
348236
323278
335783
345399
317622
335009
350519
341398
330877
354280
398590
302080
308691
291760
344683
316185
293519
289027
306687
335114
413214
399942
408186
339928
331501
354934
343444
318051
330574
348381
279073
306806
299167
284446
267780
292179
325939
304188
302357
293816
329353
278552
273923
280382
295728
308982
396958
375232
398721
346938
362958
339878
344737
373005
302660
290854
293403
278171
298652
264396
336794
288573
307147
361411
302515
281956
276155
289156
401401
359060
406808
329584
331928
310842
293636
301485
308749
297417
280488
305934
327778
340689
305526
299331
273605
291020
349094
331205
336871
357112
370398
344330
340149
361654
333345
328434
300162
352467
374826
367869
372784
391582
390854
381104
411789
382930
396166
276673
337128
271165
260953
322788
321524
330526
309246
328883
359400
351264
383466
363896
324733
360088
376437
381843
362504
268996
296199
269734
274477
355119
265853
368368
272853
275588
301259
216885
439815
321683
282898
420694
328724
394202
421420
309020
339545
310948
279488
280136
283663
302254
259246
296442
333845
306277
286182
330392
334148
336455
343126
321564
316310
SCALARS SignedDistance double 1
LOOKUP_TABLE default
1860.5
2287.85
1466.33
1472.79
1825.49
2477.45
2079.76
2133.68
2199.91
1975.81
2128.55
1554.18
1574.68
1850.26
2082.5
2487.22
1854.28
1947.97
1572.06
1732.87
1551.21
1738
2224.49
2266.98
1945.11
2135.23
1880.4
1690.67
2579.93
2246.75
2408.29
2620.39
1483.71
1854.31
1498.96
1452.08
1712.04
1698.79
1733.11
2194.39
1741.48
2060.35
1766.67
1781.91
2034.57
1621.36
1629.87
1535.21
2273.12
1954.05
2195.81
2041.49
1847.83
2486.45
2378.66
2048.72
2185.92
2382.83
1845.24
1717.95
2021.16
1801.24
1776.5
1869.21
2033.03
1329.99
1607.1
1815.21
1386.5
1813.92
1509.65
1851.41
1690.1
1907.69
1826.31
1624.09
1644.8
2362.26
2446.91
2330.71
2338.44
2126.76
2221.27
2103.19
2186.7
2372.81
1755.34
1823.31
1951.47
2155.26
1994.48
1636.59
1680.59
1924.78
1781.27
1531.38
1714.44
1564.18
2163.61
2240.64
2423.86
2208.06
2158.1
2444.67
2285.61
2221.63
2444.07
2365.08
2202.16
2375
2543.27
2301.96
1395.13
1494.79
1488.12
1922.02
1750.21
1780.32
1614.24
1684.35
1819.38
1638.68
1653.95
1547.79
1484.67
1656.2
1633.92
1447.9
1647.29
1619.64
1600.11
1624.82
1940.5
1746.48
1944.68
1772.37
1533.49
2140.55
1966.44
2072.4
2037.89
2198.89
1489.77
2088.29
1878.64
1730.9
2000.51
1982.82
2057.03
2213.26
1430.74
1612.52
1828.9
2051.01
1789.68
2049.42
2371.09
2282.79
2663.38
2155.56
2212.4
2331.36
1852.11
1881.51
1957.8
1659.49
1754.04
1646.72
2035.48
1889.94
1925.71
1567.67
1550.96
1524.64
1708.66
1611.59
1705.23
1542.27
1563.3
1587.57
2362.14
2233.91
2333.43
2021.18
2114.04
2174.52
2012.32
2063.22
1902.54
1689.08
1767.26
1844.75
1944.78
1916.23
2143.05
2040.63
1811.63
1927.91
1921.23
2475.87
2438.28
2438.27
2488.87
2487.12
2359.3
2290.26
2167.52
2228.36
2336.45
2010.52
2108.91
1938.43
2449.52
2292.57
2351.31
2215.56
2277.55
2093.27
1954.4
1786.79
1757.48
1825.59
1596.25
1896.16
1788.78
2166.05
2044.13
1854.05
1898.98
1962.21
1919.58
1830.35
1934.41
2026.22
2156.55
1797.6
1898.46
1654.81
1968.23
1916.41
1853.75
1716.38
1760.2
1836.93
1629.48
1719.61
1365.07
1465.88
1555.43
1486.56
1390.95
1960.32
1749.76
1511.93
1525.51
1720.99
1556.05
1408.37
1946.07
1809.18
1969.46
1459.75
1668.36
1666.25
1757.7
1702.3
1617.73
1295.37
1377.54
1325.72
1764.61
1652.78
1689.14
1696.73
1609.41
2044.96
1962.01
1741.27
1864.72
1800.99
1865.46
1748.24
1558.08
1560.36
1543.76
1553.26
1664.37
1604.77
1659.71
1724.02
1682.32
1587.37
2464.36
2427.45
2442.04
2457.83
2331.74
2386.9
2315.36
2410.51
2388.2
2285.42
2332.39
2282.62
2383.99
2400.84
2049.85
2106.15
2040.08
2237.85
2175.48
2197.95
2163.96
2164.8
2217
2345.67
2281.94
2293.14
2336.58
2445.83
2014.28
2194.89
2261.22
2351.1
2297.95
1638
1659.03
1913.67
1783.47
1875.49
1709.19
1808.91
1928.41
2007.78
1879.97
2133.29
2005.41
2087.93
2070.85
2022.02
2006.94
1968.71
2033.11
2216.46
1658.72
1632.65
1699.14
1676.5
1658.63
1653.78
1649.99
2033.28
1925.29
1784.49
1842.81
1860.68
1857.32
1788.57
1463.96
1522.75
1471.92
1667.84
1614.26
1642.39
1716.26
1625.58
1805.51
1694.29
1722.53
1664.79
2077.37
2173.64
1923.1
2002.09
2309.68
2233.22
2366.74
2318.9
2181.04
2385.01
2291.19
2472.49
2071.58
1921.42
2112.22
2210.8
2211.46
2360.19
2258.64
2214.19
2346.9
2293.8
2518.88
2138.98
2359.89
2331.21
2212.05
2360.3
2071.21
2111.59
2493.51
2293.19
2430.42
2327.16
2202.35
2338.3
2255.31
2417.86
2098.89
2065.53
2289.97
2337.13
2255.31
2597.14
2467.76
2508.92
2346.89
2404.14
2461.29
2195.31
2333.37
2370.39
1428.67
1427.54
1460.45
1462.61
1422.98
1406.53
1479.73
1475.59
1514.38
1949.64
1900.49
1933.56
1847.77
1865.17
1890.62
1632.64
1756.49
1600.23
1701.03
1698.74
1802.16
1575.87
1641.21
1553.77
1829.7
1740.22
1785.31
1583.47
1722.59
1607.37
1576.33
1546.11
1513.54
1550.34
1694.26
1658.76
1686.38
1645.65
1557.89
1473.53
1471.25
1514.2
1543.85
1519.5
1544.94
1501.2
1465.73
1689.72
1645.69
1698.41
1404.45
1575.09
1516.51
1549.32
1536.3
1666.2
1600.97
1558.63
1696.84
1652.16
1655.42
1599.03
1650.41
1500.97
1597.23
1618.39
1590.21
1639.35
1655.74
1695.61
2004.78
1933.28
2024.33
1779.79
1849.06
1846.53
1798.18
1832.99
1730.1
1649.48
1663.51
1691.16
1594.41
1486.87
1740.83
1687.01
1617.94
1664.16
1756.83
2107.83
2046.87
2096.48
2079.32
2181.93
1967.84
1855.47
2112.78
2129.04
2200.27
1917.92
2070.8
1910.47
2193.33
2127.21
2122.28
1855.19
1981.82
1893.99
1437.36
1584.99
1486.01
1414.34
1445.47
2135.8
2086.6
1975.08
2027.93
2062.99
1974.05
1775.94
1911.12
1980.11
1573.37
1728.69
2037.57
1904.27
1926.28
1636.17
1781.21
1538.55
1872.93
1921.57
1907.5
1976.32
2072.35
2014.46
2149.55
2085.32
1989.8
1956.13
2364.09
2191.22
2285.85
2285.91
2231.33
2013.95
2134.91
2098.55
1472.47
1378.42
1393.89
1474.56
1559.51
1740
1881.12
1846.46
1637.36
1466.87
1716.65
1743.41
1700.04
1780.51
1896.68
1468.74
1703.54
1587.44
2106.58
1843.16
1963.66
2172.46
2262.43
1544.22
1818.63
1662.59
1666.44
1740.05
2059.29
2170.94
2105.68
1972.2
1943.98
1919.62
2011.73
2170.96
2293.68
2282.6
2295.47
2379.45
2473.12
2217.85
2376.54
2288.97
2227.29
2256.53
2529.25
2583.37
2594.97
2575.07
2659.43
2340.88
2410.71
2450.58
2042.4
2063.62
2054.61
2138.54
2214.47
2201.89
2296.87
2256.23
2146.18
2097.93
2454.45
2313.29
2386.79
2420.81
2366.01
2181.01
2269.68
2255.53
