# vtk DataFile Version 4.2
vtk output
ASCII
DATASET POLYDATA
POINTS 642 double
-2406.62 6030.83 -523.183
460.775 5883.77 -443.522
-2441.9 394.224 -32.9814
1441.36 409.697 45.7704
-642.597 1367.02 2555.37
-1227.52 4684.79 1938.31
-510.084 1711.16 -2189.26
-1220.94 5174.67 -2687.91
1743.63 3140.91 -1182.44
1962.38 3053.71 1356.01
-3023.02 3930.11 -1527.51
-3502.42 3518.8 1741.71
-3362.23 5058.72 1016.08
-2367.05 4361.77 2369.02
-1818.98 5565.58 1373.6
-19.3099 5480.29 623.76
-623.065 6513.2 -231.04
127.245 5973.64 -1419.08
-1913.2 6328 -1938.05
-2250.49 4893.93 -2708.91
-3314.87 5357.08 -1386.39
-3764.82 3481.91 159.612
854.568 3900.19 1958.39
1541.59 4354.05 783.223
-2094.97 2137.64 2188.98
-479.119 3088.79 2580.66
-2979.29 1547.98 -754.413
-3076.22 1574.2 1010.52
-979.347 3850.21 -2193.69
-1910.59 2547.69 -1860.56
1236.5 4676.13 -597.945
486.525 4610.42 -1533.91
2368.48 1500.72 980.218
984.184 2243.79 2300.59
587.198 528.582 1661.81
-1770.68 463.107 1725.09
-531.902 230.152 -57.0073
-1525.82 668.793 -1533.84
494.345 688.445 -1476.73
835.228 2231.52 -1924.53
2209.8 1615.68 -778.917
2377.81 2776.55 115.892
-2943.32 5523.08 513.02
-2631.43 5464.18 1284.75
-2032.61 5741.31 733.2
-3021.63 3977.95 2181.04
-2972.08 4766.99 1857.27
-3535.9 4311.79 1456.48
-1556.46 5210.51 1737
-2160.22 5075.82 1957.85
-1843.35 4570.32 2259.33
-966.269 6252.21 339.604
-1294.95 6393.3 -316.691
-365.574 4919.7 1428.48
-947.066 5749.08 850.972
-30.2823 6296.86 -341.405
-356.672 6197.39 262.538
112.203 5900.61 154.436
-1353.92 6406.88 -1099.11
-2197.85 6376.46 -1374.42
411.313 6052.09 -859.848
-189.965 6429.65 -900.043
-1571.55 5838.34 -2421.67
-876.531 6154.03 -1754.99
-408.32 5647.59 -1960.53
-2760.3 6058.78 -1734.93
-2926.76 5863.46 -999.224
-1701.18 5120.06 -2932.17
-2200.15 5716.17 -2555.42
-3260.78 4842.51 -1594.73
-3012.74 5223.63 -2175.93
-2755.76 4434.88 -2259.29
-3369.49 5184.03 -66.0653
-3506.95 3513.12 -633.912
-3481.41 4471.19 -552.326
-3730.77 4369.31 587.212
-3731.96 3512.89 977.135
927.19 4789.23 961.816
942.127 5008.25 209.316
216.818 4182.3 1976.28
593.905 4568.97 1555.18
1817.51 3815.95 1105.68
1306.76 4199.81 1417.02
1433.5 3566.79 1767.72
-1882.96 3859.38 2520.2
-890.538 3710.74 2361.79
-2977.72 3125.99 2096.06
-2387.04 3542.87 2517.03
-425.902 2350.27 2678.38
-1435.09 3045.01 2522.86
-1398.79 1515.44 2421
-3677.47 2559.72 513.017
-3386.25 2696.39 1345.33
-3150.54 2562.94 -1102.68
-3537.76 2556.32 -355.73
-2884.54 852.467 568.928
-3183.25 1493.7 -10.5107
-2898.48 864.263 -506.31
-2196.97 4044.2 -2487.52
-2375.83 3287.98 -1835.26
-1282.96 4956.45 -2662.98
-1754.92 4609.04 -2776.01
-1168.88 1851.26 -2088.25
-1478.34 3315.05 -2330.06
-505.94 2371.12 -2247.46
339.498 5291.26 -1749.69
-357.056 5053.67 -2139.98
790.911 5501.62 -772.781
687.092 5531.94 -1145.83
1240.2 3535.48 -1491.98
702.726 4631.32 -1298.44
1684.56 3755.15 -916.41
2056.91 846.588 552.32
1648.12 924.418 1324.67
1112.12 379.933 859.735
1586.55 2631.48 1859.02
1849.99 1748.48 1642.77
2352.64 2211.76 1177.76
-74.0995 935.673 2223.08
868.093 1285.41 2082.82
287.904 1806.62 2520
160.662 244.222 1012.68
640.832 247.129 15.0418
-1080.09 889.8 2344.71
-596.465 402.665 1863.9
-1686.69 223.303 56.9156
-1294.7 250.062 1004.1
-2144.6 315.931 1014.03
110.817 271.426 -897.721
994.5 501.256 -763.813
-2110.41 457.259 -760.529
-1167.43 254.299 -936.275
-13.7614 1121.7 -1852.28
-590.847 603.472 -1577.84
-1123.38 1058.74 -1907.01
1424.97 1087.83 -1108.47
1971.74 918.943 -427.567
179.57 1966.45 -2132.93
744.961 1437.12 -1829.57
2127.06 2131.74 -897.116
1552.36 1890.54 -1403.16
1348.94 2699.45 -1615.66
2483.28 1439.13 62.4897
2170.21 2970.05 -552.35
2533.08 2191.44 -323.193
2668.68 2226.69 484.342
2325.59 2835.52 701.635
241.187 2668.56 2600.46
967.266 3111.66 2260.57
229.719 3451.09 2414.61
-2604.91 817.762 1505.38
-2069.74 1182.72 2250.78
-2653.04 1680.28 1757.2
-1720.49 1299 -1822.36
-2472.61 1001.17 -1147.65
-2540.68 1956.97 -1403.87
808.347 3094.57 -1877.49
94.5114 2750.87 -2224.69
-378.041 3950.76 -2147.27
2016.65 3795.57 456.565
1972.18 3775.5 -327.662
1576.8 4382.53 28.5732
-2656.2 5691.22 16.5052
-2572.23 5680 679.458
-2143.71 5846.7 199.259
-3022.22 5306.73 1169.96
-2813.32 5517.35 935.628
-3181.93 5322.32 790.982
-1971.61 5691.9 1079.99
-2406.52 5635.53 1051.76
-2224.23 5546.58 1343.61
-3298.37 3741.47 1989.71
-3325.88 4133.75 1867.9
-3556.29 3888.59 1633.85
-2691.58 4571.33 2174.8
-3015.13 4384.93 2058.9
-2704.76 4201.44 2322.15
-3477.26 4721.97 1240.24
-3284.58 4569.57 1678.23
-3205.71 4933.2 1459.44
-1482.24 4984.95 1871.4
-1709.12 4914.49 2020.27
-1619.95 4687.11 2108.82
-1994.12 5354.96 1672.13
-1846.87 5159.55 1864.84
-1674.92 5408.12 1574.66
-2079.48 4472.9 2352.97
-1994 4832.27 2141.39
-2278.6 4741.98 2199.07
-2828.18 5167.66 1591.17
-2563.53 4969.8 1957.55
-2405.83 5301.75 1664.94
-1553.11 6142.95 124.794
-1849.97 6147.69 -514.293
-1386.89 5799.78 822.437
-1472.79 6015.27 470.825
-914.53 6509.26 -207.139
-1073.69 6374.29 76.5289
-814.143 6434.95 59.2569
-872.653 4713.4 1628.93
-1244.71 5187 1588.1
-487.469 5779 716.434
-866.074 5360.78 1114.97
-109.515 5155.81 1057.66
-1355.36 5395.51 1433.5
-1342.6 5570.01 1216.94
232.827 6110.13 -397.302
72.2439 6106.42 -58.3725
298.162 5912.92 -142.134
-482.256 6388.31 37.7996
-207.541 6276.51 5.78992
-340.572 6439.39 -292.561
15.1118 5778.45 395.884
-101.346 6059.41 222.95
-264.251 5987.98 420.28
-879.101 6029.6 629.102
-559.471 6052.07 527.86
-665.366 6274.32 320.951
-1846.65 6300.76 -1057.43
-2313.95 6219.17 -1038.96
-792.315 6518.32 -557.785
-1361.21 6414.77 -710.94
-2076.16 6427.71 -1615.84
-1893.28 6384.18 -1358.56
-1807.38 6389.93 -1598.4
453.793 5984.18 -680.264
211.986 6207.32 -644.636
-17.5568 6243.7 -1171.9
116.125 6271.04 -893.7
280.217 6043.74 -1138.97
-100.001 6397.08 -630.735
-379.443 6503.11 -598.318
-1408.78 5501.03 -2587.42
-1148.76 5737.24 -2247.51
-939.815 5373.39 -2324.26
-1556.66 6218.55 -1939.07
-1347.67 6016.54 -2117.47
-1742.58 6111.27 -2213.43
-51.7763 5846.14 -1663.52
-652.557 5935.88 -1877.29
-249.213 6114.84 -1523.13
-571.902 6500.14 -937.683
-396.845 6354.73 -1261.25
-1092.91 6320.81 -1458
-2583.95 6174.47 -1209.64
-2657.59 6005.4 -759.654
-2313.85 6283.69 -1867.99
-2482.59 6299.69 -1525
-3151.18 5644.56 -1204.66
-2879.24 6004.38 -1394
-3101.07 5737.77 -1564.86
-1499.06 5167.48 -2827.37
-1635.01 5473.56 -2732.14
-2280.68 5270.79 -2706.48
-1907.39 5402.55 -2810.57
-1914.87 5033.56 -2916.3
-1844.71 5835.65 -2534.41
-2049.34 6091.2 -2299.35
-3120.37 4379.01 -1653.37
-3056.64 4662.28 -1929.91
-2900.66 4259.3 -1985.8
-3247.68 5301.2 -1793.85
-3191.44 5049.7 -1879.35
-3343.89 5088.76 -1523.93
-2539.11 4689.98 -2501.17
-2893.21 4928.28 -2216.93
-2668.88 5091.74 -2466.83
-2522.11 5934.89 -2203.81
-2670.43 5483.62 -2428.5
-2954.29 5644.38 -2022.47
-2911.76 5647.92 -309.551
-3296.98 5309.15 -829.672
-3147.85 5501.91 -582.512
-3191.78 5366.04 220.431
-3425.55 5116.86 553.41
-3191.17 3631.12 -1116.96
-3260.2 4282.25 -1124.21
-3702.81 3943.83 -95.9589
-3528.44 4013.72 -597.677
-3675.52 3464.94 -260.36
-3347.66 4742.69 -1148.69
-3373.48 4986.04 -1091.73
-3695.72 3907.89 1279.57
-3670.52 3517.75 1412.35
-3610.81 4744.58 834.845
-3675.53 4374.83 1045.13
-3830.1 3508.61 512.2
-3771.62 3931.82 767.432
-3819.85 3940.96 371.89
-3488.72 4859.2 -316.14
-3727.25 4386.69 125.427
-3629.14 4784.97 337.696
519.482 5496.22 11.898
587.854 5613.77 -269.735
438.592 5080.63 927.942
381.265 5257.38 517.156
1343.23 4591.65 612.644
1005.46 4863.93 632.241
1245.4 4596.96 883.618
-283.512 4333.63 1927.03
47.8611 4530.85 1746.36
736.511 4271.04 1761.22
438.573 4406.38 1763.4
554.616 4040.03 1982.75
276.138 4699.06 1534.97
407.894 4861.8 1280.85
1897.8 3497.69 1252.68
1662.09 3703.44 1449.71
1686.26 3380.72 1608.29
1453.59 4288.24 1109.64
1576.03 4020.86 1277.79
1702.06 4090.98 946.72
1153.76 3738.45 1883.47
1388.2 3902.07 1599.38
1110.64 4071.93 1697.73
779.936 4700 1278.37
957.252 4410.77 1508.27
1133.6 4518.85 1206.98
-1637.28 4256.06 2312.83
-1055.04 4293.28 1964.4
-2048.26 4091.93 2500.43
-1851.64 4186.63 2421.34
-580.906 3484.51 2459.07
-1491.73 3978.81 2394.27
-1323.22 3574.07 2317.84
-3270.15 3326.59 1957.59
-3052.4 3531.81 2177.19
-2352.52 3154.69 2416.01
-2710.63 3350.4 2323.03
-2552.61 2792.37 2141.39
-2733.26 3752.4 2361.21
-2396.47 3932.77 2477.61
-566.87 1762.78 2551.58
-848.37 1809.16 2522.14
-943.53 1426.79 2557.95
-990.425 2977.8 2574
-781.17 2527.54 2598.79
-412.979 2709.6 2640.18
-1800.44 1640.81 2295.15
-1329.42 2062.58 2414.08
-1831.79 2623.48 2333.87
-2051.45 3697.33 2615.29
-2010.5 3399.94 2577.78
-1814.45 3453.84 2566.92
-3633.76 3142.73 1235.28
-3501.27 3189.44 1593.95
-3751.46 3017.85 331.871
-3708.77 3068.45 736.031
-3282.49 2098.13 1153.03
-3565.03 2600.46 927.596
-3464.24 2155.98 735.636
-3085.98 3037 -1241.05
-3322.19 2967.51 -888.612
-3309.67 2107.63 -613.696
-3361 2528.34 -759.073
-3129.21 2144.93 -945.337
-3528.63 2990.05 -475.387
-3677.64 2990.06 -107.791
-2696.07 577.293 264.901
-2923.5 823.274 -37.3166
-2701.23 582.996 -291.698
-3198.53 1537.19 494.984
-3077.95 1085.23 247.058
-2976.67 1115.56 831.574
-2981.6 1116.79 -664.395
-3079.92 1074.52 -287.87
-3095.62 1467.13 -425.691
-3677.03 2545.98 92.9192
-3439.64 2084.02 -173.238
-3525.89 2118.26 288.188
-2606.66 4062.01 -2209.46
-2753.66 3673.16 -1572.7
-2234.39 4411.78 -2638.17
-2460.63 4196.97 -2425.06
-2200.43 3018 -1890.49
-2337.72 3842.61 -2283.69
-2138.26 3612.51 -2233.99
-1260 5072.61 -2690
-1552.53 5040.82 -2816.91
-1601.69 4451.2 -2663.59
-1579.84 4810.72 -2757.03
-1271.87 4611.07 -2593
-1723.56 4954.88 -2874.36
-1870.26 4741.66 -2847.77
-845.929 1785.25 -2157.04
-813.049 2172.78 -2243.11
-497.358 2029.11 -2242.94
-1573.12 3032.01 -2172.55
-1133.53 2436.52 -2201.18
-1475.82 2015.91 -1978.66
-541.822 2916.3 -2276.5
-918.393 2669.59 -2255.8
-1413.2 3553.13 -2287.89
-1924.08 4275.66 -2694.87
-1781.99 4165.58 -2616.6
-1886.3 3890.67 -2517.28
-330.684 5250.81 -2125.12
-906.496 5056.63 -2446.7
242.203 5643.69 -1612.34
72.0385 5483.36 -1823.2
[...]
POINT_DATA 642
SCALARS Mean_Curvature double 1
LOOKUP_TABLE default
0.000618365
0.000871852
0.000982984
0.00112874
0.00146894
0.00215147
0.00142243
0.00325192
0.000908612
0.000590797
0.0011263
0.00158515
0.00108158
0.000939498
0.00103384
-0.00127512
0.00176717
0.00111894
0.00199546
0.000504548
0.00149524
0.000244847
0.000666709
0.000888648
0.000113959
0.000316441
-7.97206e-06
7.53472e-06
-0.0010723
-0.000187629
-6.50002e-05
6.11277e-05
0.00131345
0.00061781
0.00110212
0.00117206
4.797e-05
0.00111096
0.0013145
0.000435861
0.00116067
-0.00015146
0.000762993
0.000965612
-0.000467081
0.000951451
0.000887363
0.00079032
0.00114179
0.00103396
0.00109512
0.000982101
0.000701498
0.000445943
-0.000584228
0.000947323
0.00122097
0.000492707
0.000382431
0.00160885
0.00220164
0.00166351
0.000789504
0.00101227
0.000362596
0.00133807
0.000649573
0.00470713
0.00117007
0.000451893
0.00195001
0.00104027
0.000784971
0.000467156
-0.000235898
0.000502336
0.000199942
0.0005292
-0.000145782
0.000514554
0.000818745
0.000850582
0.000835109
0.00076511
0.000144057
-0.000563605
0.00087107
0.00133387
0.00119453
5.80087e-05
-6.42956e-06
0.0010939
3.61177e-05
0.000990045
0.000648106
0.000667782
-2.28009e-05
0.00136613
0.000776013
-0.000409908
-5.33841e-05
0.00120393
0.000556782
0.00313257
-7.38189e-05
0.00190581
0.00190559
0.000678652
0.000995953
0.00058402
-0.00105562
0.000675582
0.00105572
0.00084814
0.000639953
0.000394591
0.000973925
0.00166702
0.000216332
0.00051293
0.000792502
0.000457373
0.000287374
0.00116131
0.00124918
6.9418e-05
-5.70731e-05
0.00115494
0.00101413
0.000446886
0.000488672
0.001171
0.00022627
0.00109196
0.00132352
0.000264397
0.00107717
0.00055162
0.00114022
0.000402053
0.000538775
0.000610124
0.000961105
0.000537242
0.00184478
0.00249264
0.000249882
0.000584577
0.000672857
0.00085715
0.00115115
0.00210661
-6.20054e-05
0.00192643
0.00128507
0.000371096
0.000367554
0.000839834
0.000574859
0.000807882
0.000909885
0.000458323
-0.000295291
0.00088016
-0.000260083
0.00105178
0.000877204
0.00105651
0.00111294
0.00100687
0.00086161
0.0012038
0.00092842
0.00115153
0.0011194
0.000947938
0.00121629
0.000935961
0.000852604
0.00091592
0.00034548
0.00118388
0.000248628
0.000941756
0.00102005
0.00127965
0.00138472
0.00111244
0.00111267
0.000997011
0.00109572
0.00096643
0.000404736
-0.000538797
-0.000455617
0.000557275
0.00171482
0.00108121
0.00176498
-0.00176173
0.000870165
0.000677563
-0.000856787
-0.000188602
0.000758552
0.00129484
0.000789365
0.00115908
0.000694476
0.00141951
0.00120897
0.00092289
0.00211388
0.00119884
0.000665138
0.00213231
0.00102078
0.00163579
-0.000512593
0.00035642
0.000603997
0.00090328
0.00270908
0.00131808
0.000929144
0.00118964
0.00147111
0.00119026
0.00157547
0.00102075
0.0012303
0.00152624
0.000427004
0.000318871
-0.000320052
0.000594687
0.000604855
0.00116525
0.000833711
0.000568853
0.00089104
0.00115891
0.00109708
0.000345571
0.000937697
0.000932766
0.00138939
0.00204239
0.000819404
0.00144867
0.00147174
0.00276685
0.00154042
0.00124124
0.0017859
0.00291744
0.00173684
0.00175913
0.000764385
0.000573816
0.000837636
0.00195722
0.00124937
0.00208768
0.000585769
0.000276834
0.00104136
0.00112692
0.00149745
0.00118317
0.000389412
0.000720963
0.000609175
0.000516864
0.00101617
-0.000227303
-0.000586665
0.000291748
0.000728134
0.000757326
0.000591645
0.00080651
0.000937694
0.00145302
0.00118176
0.00088499
0.0013444
0.000338116
0.00116895
0.000538949
0.00093155
0.000962481
1.29495e-05
0.0011216
0.00148416
-0.00124384
0.000714692
0.000835382
0.000824062
0.000679491
0.000495357
0.000809579
0.000702385
0.000454844
0.000578798
0.000691095
0.000826384
0.000840991
0.000811483
0.000807334
0.000849084
0.000804299
0.00065054
0.000789368
0.000762936
0.000782232
0.000881446
0.000867552
0.00037971
-0.00149855
0.00169083
0.00078047
0.00205656
0.0026607
-0.00224043
0.00129365
0.00116812
0.000876893
0.000698885
-0.000349224
0.00079691
0.000771359
-0.000111901
-0.000115912
0.00161226
0.00120159
0.000212287
0.000414798
-0.000280205
-0.000212679
-0.000380417
0.00294378
0.00117862
0.00173842
0.000836975
0.00113828
0.000693186
0.000172542
0.000624728
0.00058688
0.000554747
0.000843975
0.000331154
0.000737712
0.000802403
0.00069842
0.000149237
0.000574704
0.000997736
0.000710026
0.00136016
0.000162417
0.00107221
0.00048667
0.00201648
0.00179906
-1.41417e-06
0.00117985
0.000508295
0.000828413
0.000778259
-0.00125208
0.00111799
0.00127485
0.000411587
0.00129576
-4.31105e-05
0.00281827
0.000154385
0.000185525
-0.00027346
0.000805725
0.0016077
0.00210086
0.000583908
0.000992052
0.000772851
-0.000221543
0.00068339
0.000121961
0.000275772
0.000148839
-0.000916951
0.00247544
0.00113268
0.00126395
0.00134272
0.00382577
0.000941106
0.000754252
-0.000231004
0.00310974
0.00211679
0.000171622
0.00306386
0.00120645
0.00268339
0.00303103
0.0012319
0.00100098
0.000802068
0.000611388
0.00082069
0.000854867
0.000639642
0.000476568
0.000415886
0.000458413
-0.000102481
0.00126809
0.00119512
0.00188168
0.000799416
0.000884104
0.00113219
0.00104144
0.000985709
0.00119087
0.000996785
0.000617769
0.000664237
0.000357107
0.00055271
0.000293679
0.000159695
5.34107e-05
0.000611958
0.000868783
0.00078554
0.00134461
0.000526007
0.000856089
0.000705991
0.000983782
0.000586567
0.000770871
0.000750613
0.000709857
0.000381999
0.00108633
0.000588459
0.000389373
0.000788409
0.00117787
0.00110976
0.000875945
1.59053e-05
9.06077e-05
1.06713e-05
0.00186833
0.00142026
0.00100132
0.00118137
-0.000249924
0.000761258
0.000706549
0.000894548
0.000971238
0.000606118
-0.000131128
0.00137783
-0.000119892
0.0016313
0.000223497
0.000701521
0.000674447
0.00104634
0.000128559
0.000544176
0.000921766
0.000271032
0.000637943
0.00107357
0.00119828
0.00129162
0.00173388
0.000775256
0.00126223
0.000884741
0.000823171
0.00039576
0.000109415
0.00057456
0.000732527
0.000244978
0.000643367
0.000500785
0.000990666
0.00139309
0.000625164
0.00109267
0.00105666
0.000749752
0.000464269
0.0008171
0.000940913
0.000793636
0.000392657
0.00112856
0.000888776
0.000793607
0.00103672
0.000388991
0.00107146
0.000348
0.000354057
0.000534086
0.00101267
0.000294742
0.00017765
0.000669817
0.00122177
0.000117001
0.00192995
0.000612904
0.000312297
0.000614365
0.000653361
0.00102994
0.000429138
0.00092608
0.00101295
0.00104563
0.00107769
0.000984203
0.000697445
9.42101e-06
0.000902246
0.000552044
0.00032834
0.00103875
0.00192632
0.000995776
0.000365622
0.000841114
0.0019271
0.000252181
0.000972475
0.00114533
0.00101249
0.00226595
0.00148588
0.000326104
0.000680653
0.000449996
0.0017969
0.000285701
0.000762897
0.000588729
0.000699782
0.000721377
0.00082974
3.07791e-05
0.00093348
0.00035549
0.000321074
0.000555722
0.00110947
0.000751646
0.00109397
0.000531496
0.00128197
0.00114319
0.0011987
0.00133632
0.0014232
0.00133399
0.00201065
0.000610649
0.00129427
0.000413862
8.84981e-05
0.000605197
0.000311964
-2.71943e-05
0.00130603
0.0017245
0.00171884
0.000171377
0.00136903
0.00200219
0.000485207
-0.000370976
0.00131294
0.00153659
0.00126183
0.000644065
0.000561545
0.000491339
5.33944e-05
0.000640415
0.000802822
0.000257118
0.00150435
-0.000177512
-7.37633e-06
0.000750081
0.000601654
0.000737877
0.000644457
0.000273069
0.000826922
0.000750006
0.000436234
0.000745207
0.000344247
-0.00231515
-0.001117
-0.00066998
0.000187518
0.000709499
0.000772462
0.00103246
0.000140713
0.000853419
0.000612737
0.000579882
0.000900613
0.000763869
0.000843191
0.000749857
0.000762658
0.000865319
0.000777617
-9.77354e-05
0.000495934
0.000261095
-0.000739892
0.00166837
0.00102885
0.000775963
0.000581909
SCALARS CoVolArea double 1
LOOKUP_TABLE default
253243
81534.8
153981
147647
106705
192219
116602
91136.6
128503
162805
202323
114546
171837
143407
165754
232640
105521
125145
133177
168593
162235
198658
142373
117546
322034
229570
205718
274734
434603
386591
213224
236231
182286
211371
206449
202928
395200
165053
150083
152153
145690
185355
211438
160421
248548
160441
186234
182471
95229.1
139228
97633.4
156575
234338
351459
172203
108858
88162.8
156761
263804
115055
84606.1
117071
139292
237552
241398
200221
200190
65526.1
203841
169361
157560
161677
248408
285198
282757
196639
198072
183590
223342
172278
120521
123181
125586
130870
131196
295204
204609
145370
181448
324214
177357
204406
254452
165491
207320
198338
263022
134110
123180
331069
79101.7
68928.9
176174
210711
156232
88221.4
97012.3
106017
98661.7
152276
212901
126250
189380
226763
206610
212814
182688
125594
218751
230985
184509
258406
227658
195585
208971
215215
277882
194054
197522
212308
181640
204868
186801
195114
124894
229083
173696
154698
149040
137457
174581
173531
198388
187621
103402
106381
175033
157813
146344
128485
178768
140298
243582
113118
169589
250424
163868
144440
391035
149402
126097
200390
284196
232589
376466
173551
150291
164081
192215
150811
147877
147697
176428
157307
166022
169237
154369
172214
181331
187683
138044
91090.9
148573
133475
106740
107032
105917
107579
141169
199705
186060
177243
307211
358521
240099
228392
132161
153820
93770.4
301054
235778
254318
329896
337836
141210
162871
95068.7
98388.3
119292
98939.8
100556
103479
152254
83343.5
118730
159230
115251
105975
203863
199024
199440
193740
102714
129042
177447
71403.4
90703.1
127656
100246
108214
99659.7
118385
150927
220215
225083
193400
178271
125084
158140
216474
179751
232371
210750
298202
147274
206272
185920
136574
174264
151333
179496
69408.9
114138
183625
144439
104613
141822
176502
224081
162923
192730
154861
122425
113701
171810
161310
166731
245586
218110
228869
251255
235607
228484
221913
198549
311437
303301
251470
269135
215829
200656
210045
190337
151120
185911
195014
187876
202982
194591
302460
262188
239561
252449
148077
213687
280842
149419
228671
124961
286669
231543
128611
123782
136067
189066
195753
158255
126430
159150
121659
116045
109005
129402
122459
133328
153790
137249
135597
204489
361071
110932
95443.6
196983
160260
298890
142854
146871
273514
174154
306205
156245
152636
175641
237898
123996
258378
299655
149499
233720
407981
400200
107110
198816
178707
203953
163489
199578
217063
268977
235996
262821
249718
240903
230336
185986
200465
205245
201865
206292
174247
161276
296316
210374
212992
128334
161209
218092
213650
267279
267920
224208
340338
159484
127702
263100
152258
266891
36445.7
44554.1
225530
81937.9
226996
48759.9
113812
149568
150169
109187
371140
247913
299524
318344
241952
347865
108048
137501
189241
191047
97266.8
124093
150097
222799
85522.8
76307.5
88076.4
57577.3
154277
63041.7
96536.9
91975.4
121806
118183
143671
120798
132441
199288
172668
208606
215491
295290
113309
170012
115389
190031
204311
181644
192856
193984
175901
198747
215408
231494
198160
177775
165418
231775
200270
202603
144055
149931
167595
164661
203156
187229
221125
210572
203447
180231
193163
234550
223407
249840
264059
196507
174910
217375
202861
312865
264907
387133
124179
171498
220160
191566
230691
193391
223808
189028
197551
219524
377488
225711
308623
168914
190196
220519
261154
265770
338992
207816
188589
274858
219592
171826
182147
172614
154834
192914
176229
192828
187112
238644
295223
177647
173868
162625
183546
174497
145629
118861
151418
161064
240969
215296
233273
195612
180736
199152
210268
157340
183454
188350
134557
184745
136165
148569
143197
151754
155624
199090
198470
166942
156722
138502
93531
155078
181034
159304
229135
193462
236491
190918
181566
178889
183454
197140
175960
177702
125796
142753
180915
96634.5
128977
135255
185577
170835
112127
158361
108470
106879
180413
116383
185300
197539
177444
167336
134266
146867
172339
151599
138731
165794
169539
304707
153203
175176
155890
149357
166482
153778
154554
214440
187025
180358
180156
201518
150036
156793
117078
196870
205312
241005
250876
296252
308297
285356
188097
174028
197598
134812
145975
92464.7
124362
234550
154777
165538
134414
181043
198365
264176
311959
265041
192441
236680
179644
217962
216118
128016
157805
132648
142486
314898
125645
255642
147394
144566
167611
81377.9
573225
359350
204941
283558
170241
203500
360484
170745
201660
178706
129294
126048
137752
155530
115169
152014
188429
234045
150314
258371
245538
167919
160953
154184
149347
SCALARS SignedDistance double 1
LOOKUP_TABLE default
844.455
1050.97
627.654
636.12
889.852
1182.25
940.852
1159.16
962.779
853.559
1072.4
665.168
674.463
869.929
959.758
1232.24
838.247
849.837
808.186
799.678
741.954
773.692
970.525
988.919
918.741
940.914
882.05
775.104
1487.94
1024.12
1170.18
1300
655.702
806.093
637.531
640.976
750.433
739.746
759.799
966.061
802.156
946.927
805.033
796.764
949.778
715.745
702.938
659.779
1035.58
909.077
1025.23
925.473
807.666
1176
1101.1
931.482
995.791
1093.53
1021.85
891.087
955.689
813.626
852.269
1040.56
983.806
590.603
696.265
1047.9
633.611
835.684
737.5
847.059
794.625
866.544
868.715
742.871
738.121
1032.37
1169.28
1013.62
1008.24
928.381
956.976
913.771
1011.98
1164.06
782.386
854.685
890.224
1168.02
987.788
707.93
760.87
852.833
789.103
693.994
798.342
704.407
1069.15
1209.37
1144.73
1051.77
933.421
1457.16
1003.42
1078.01
1246.27
1113.51
1009.2
1049.9
1288.07
1004.85
597.442
643.05
650.948
834.94
811.189
811.994
720.442
734.062
814.481
736.178
732.732
699.499
638.737
751.915
729.566
659.176
717.417
709.133
711.209
724.451
855.973
766.486
929.671
794.212
666.576
939.181
877.863
932.185
913.417
965.35
669.708
905.408
870.332
842.806
922.167
896.646
905.04
977.125
619.898
838.864
875.96
994.96
880.283
925.23
1051.03
997.327
1468.49
954.685
970.015
1025.56
844.489
900.645
873.867
726.931
788.883
721.757
932.976
857.748
870.715
678.378
661.558
649.756
773.532
694.31
773.388
659.816
670.018
677.787
1062.79
1027.57
1063.67
915.716
969.067
1000.28
964.895
970.33
889.144
741.82
811.055
837.573
858.844
945.454
1017.97
917.813
800.777
858.157
865.61
1193.79
1119.94
1143.42
1199.57
1235.65
1087.51
1117.6
991.807
1021.63
1069.83
914.856
962.598
869.45
1159.99
1048.99
1066.5
1041.26
1042.54
958.504
1044.77
855.189
774.909
884.744
888.634
999.427
966.071
1004.7
947.374
805.862
869.589
860.653
874.668
832.701
936.766
1057.31
1183.45
926.458
982.875
805.365
866.97
973.134
802.927
759.815
754.434
1022.74
758.182
771.25
668.71
744.894
686.718
671.204
633.511
1060.98
875.424
724.247
783.15
963.567
763.568
689.047
906.061
813.956
902.395
717.139
782.217
803.405
785.374
755.636
749.131
539.726
640.661
572.458
792.835
750.671
761.426
763.204
702.658
1034.26
917.351
766.079
864.288
806.404
850.028
813.071
708.383
689.06
662.807
687.543
765.876
708.998
757.314
820.655
770.246
682.286
1204.96
1145.03
1152.95
1275.77
1026.48
1064.98
1007.59
1057.66
1046.27
990.095
1004.37
1000.18
1038.43
1055.63
892.607
909.899
885.148
970.908
942.512
958.697
941.705
934.437
954.359
1018.18
983.922
992.23
1069.73
1169.92
982.817
1025.89
1041.28
1147.56
1145.83
712.677
737.641
918.049
794.277
865.09
752.989
838.43
856.022
896.833
912.762
995.788
897.059
929.853
1027.21
959.121
924.43
992.672
1046.88
1107.8
768.215
711.979
766.459
784.17
712.652
719.12
720.154
945.143
858.825
771.512
811.515
806.35
827.572
805.023
625.018
672.152
624.48
755.653
779.959
816.614
866.794
795.866
853.749
745.459
750.902
735.386
977.309
1119.72
940.314
962.257
1139.15
1110.74
1276.42
1158.9
1058.23
1113.19
1050.54
1202
1034.6
1010.64
932.202
998.029
998.333
1256.02
1007.89
978.944
1074.08
1011.62
1498.67
1101.08
1164.21
1256.72
1170.6
1318.05
925.1
967.162
1119
1119.98
1149.77
1064.09
1049.63
1138.41
1089.6
1258.86
952.261
915.511
1002.91
1024.89
986.161
1302.95
1123.95
1152.03
1027.59
1068.59
1230.06
1022.02
1114.89
1152.05
623.79
616.537
640.819
628.844
608.107
595.721
628.94
647.563
656.762
844.116
859.237
866.047
816.474
832.808
824.082
727.763
786.389
741.923
819.149
741.697
835.722
690.401
720.034
667.951
799.591
765.614
786.5
706.724
783.542
729.945
721.547
708.033
671.828
708.598
743.215
734.72
739.524
812.212
693.576
642.838
627.503
678.013
678.956
662.915
722.124
655.049
635.136
742.553
797.206
745.447
633.274
720.757
687.692
680.785
717.179
755.943
703.803
682.571
757.696
740.701
706.967
681.713
720.6
652.117
705.097
687.954
682.471
706.016
738.528
745.795
879.16
874.241
904.436
792.68
819.456
834.142
820.039
825.931
767.619
730.912
714.365
736.988
708.029
643.122
757.976
748.143
719.907
743.55
798.819
952.973
899.096
950.056
946.555
959.194
884.338
838.311
919.652
926.523
966.822
914.951
936.587
905.472
957.699
925.675
931.812
804.297
889.234
859.668
621.642
705.83
642.362
610.976
642.987
929.416
927.422
892.623
908.162
930.054
893.431
859.529
867.011
871.868
702.136
815.127
939.144
873.993
884.738
772.181
860.684
723.172
809.352
841.124
854.043
907.016
914.41
878.263
941.869
913.369
875.59
861.363
1049.87
981.434
1022.39
1010.88
988.428
889.123
944.739
930.652
637.723
573.682
592.531
660.88
741.885
877.6
941.621
967.736
834.913
665.047
775.197
819.776
733.594
784.175
911.653
661.045
860.998
786.079
983.144
873.591
947.811
1019.42
1063.21
666.478
938.174
770.087
759.11
785.009
932.339
973.406
962.118
866.049
880.931
964.03
1029.25
1070.96
1007.61
1015.6
1016.55
1050.04
1109.12
999.414
1107.66
1012.56
978.227
994.49
1245.55
1302.33
1374.59
1298.33
1566.05
1034.92
1113.13
1097.89
891.615
897.123
900.588
939.559
976.399
965.718
1002.55
986.01
940.947
916.74
1204.23
1021.04
1059.7
1230.31
1062.29
965.715
994.159
997.029
