# vtk DataFile Version 4.2
vtk output
ASCII
DATASET POLYDATA
POINTS 642 double
-3439.25 8144.23 -55.3557
2338.9 8073.1 -51.6929
-3457.83 -1314.43 -47.6422
2411.77 -1318.02 -46.8293
-526.143 510.75 4672.32
-534.992 6283.72 4568.34
-524.936 555.74 -4691.13
-530.989 6346.73 -4763.21
4098.92 3425.34 -2900.46
4139.83 3424.06 2831.18
-5210.03 3438.53 -2945.62
-5256.98 3431.95 2876.32
-5020.89 6208.56 1669.29
-3290.54 5138.66 4422.11
-2224.51 7866.34 2695.11
1137.51 7798.61 2641.4
-525.164 8942.75 -49.7313
1169.16 7874.96 -2792.01
-2257.71 7964.71 -2850.62
-3319.13 5160.95 -4566.99
-5049.9 6229.87 -1778.7
-6065.69 3431.72 -45.6408
2186.86 5101.58 4337.06
3853.8 6132.12 1624.62
-3281.84 1721.58 4408.8
-524.808 3426.97 5400.65
-5002.02 658.985 -1755.69
-5015.93 650.938 1669.51
-534.86 3441.66 -5471.54
-3235.61 1754.15 -4430.01
3826.84 6123.12 -1710.19
2176.09 5107.33 -4419.7
3994.3 637.025 1677.28
2225.97 1727.5 4400.24
1197.36 -1076.55 2737.01
-2254.12 -1093.79 2747.78
-525.225 -2094.27 -47.8012
-2235.42 -1049.22 -2814.34
1184.97 -1045.49 -2811.71
2199.12 1743 -4450.59
3969.44 652.291 -1761.15
4991.92 3422.15 -45.8942
-4367.33 7315.63 841.497
-3777.46 7236.05 2302.22
-2912.42 8169.62 1381.03
-4423.48 4322.95 3802.85
-4345.47 5788.39 3212.6
-5323.72 4876.84 2365.63
-1408.28 7219.47 3786.19
-2870.96 6670.2 3746.47
-1956.66 5811.98 4687.42
-1416.11 8646.65 1388.06
-2030.78 8727.06 -52.3604
330.502 7151.33 3715.67
-528.484 8051.01 2805.23
972.6 8713.71 -50.8023
363.424 8635.51 1384.87
1826.2 8120.8 1358.14
-1428.84 8674.45 -1500.07
-2955.48 8262.8 -1506.13
1850.31 8162.1 -1473.12
371.379 8677.04 -1496.67
-1425.94 7308.73 -3970.39
-531.319 8119.08 -2950.21
349.184 7236.53 -3897.09
-3824.15 7295.18 -2434.79
-4399 7352.05 -949.645
-1975.97 5852.44 -4859.06
-2909.17 6728.05 -3907.12
-5336.4 4885.78 -2469.64
-4381.75 5814.42 -3341.71
-4422.21 4329.41 -3899.57
-5241.99 6349.4 -49.0026
-5823.98 3432.97 -1550.34
-5784.64 4887.37 -950.022
-5810.37 4891.66 857.479
-5869.85 3432.2 1471.76
2640.99 7134.07 2239.59
3202.56 7206.37 812.493
878.834 5765.98 4603.93
1765.98 6593.85 3660.4
4172.98 4842.25 2313.96
3205.52 5728.52 3135.45
3301.25 4302.58 3732
-1972.8 4325.74 5179.4
-531.444 4906.17 5153.27
-4414.55 2544.22 3793.67
-3433.21 3432.2 4648.52
-524.693 1926.61 5226.74
-1960.05 2542.24 5139.26
-1965.71 1024.28 4729.22
-5794.08 1975.69 853.895
-5299.67 1994.4 2353.33
-5262.57 2002.48 -2427.36
-5775.81 1980.65 -943.915
-4390.57 -482.632 848.519
-5239.6 511.119 -47.8504
-4389.04 -480.835 -941.777
-3425.01 3437.46 -4735.13
-4347.65 2562.99 -3824.93
-530.556 4945.7 -5368.46
-1981.5 4339.33 -5318.17
-1942.68 1059.55 -4747.35
-1947.96 2559.47 -5191.2
-524.311 1944.13 -5263.27
1787.25 6636.79 -3796.56
879.527 5791.65 -4738.44
3240.45 7250.78 -923.63
2673.93 7184.96 -2362.81
3263.76 4293.52 -3787.84
3189.3 5729.93 -3222.07
4143.53 4833.03 -2392.16
3357.41 -496.476 850.937
2756.23 -410.291 2322.26
1897.58 -1382.07 1402.07
3332.88 2543.16 3759.99
3300.94 1067.59 3214.96
4265.76 1984.54 2359.44
366.62 -424.921 3850.95
1833.14 168.72 3768.21
910.002 1032.98 4712.44
382.277 -1860.98 1415.6
998.392 -1919.26 -46.6258
-1419.84 -435.245 3861.95
-525.445 -1312.95 2886.52
-2047.48 -1922.06 -46.555
-1433.22 -1863.66 1416.77
-2950.89 -1392.49 1407.11
379.021 -1843.05 -1504.13
1885.32 -1358.03 -1488.49
-2940.19 -1369.15 -1491.93
-1428.51 -1844.61 -1504.86
359.056 -385.193 -3903.11
-525.299 -1270.28 -2953.44
-1410.91 -394.013 -3912.9
2729.93 -380.004 -2396.44
3345.96 -484.968 -941.901
892.441 1063.71 -4743.76
1809.85 199.326 -3826.19
4238.46 1992.07 -2437.88
3259.23 1093.47 -3272.47
3290 2552.36 -3812.55
4225.64 492.006 -46.7057
4741.42 3422.34 -1538.54
4758.68 1969.4 -949.668
4770.68 1966.33 857.794
4779.39 3422.7 1456.68
914.364 2535.81 5160.99
2350.41 3427.26 4598.59
904.298 4311.6 5123.24
-3810.44 -418.827 2328.91
-2895.62 151.221 3789.82
-4354.64 1060.27 3224.18
-2861.96 194.995 -3831.91
-3782.81 -385.767 -2400.09
-4292.86 1100.32 -3260.63
2315.17 3426.68 -4633.37
894.214 2546.81 -5184.53
874.076 4314.22 -5145.74
4653.01 4855.71 839.174
4641.85 4852.95 -930.439
4068.25 6267.44 -46.5797
-3924.55 7755.44 396.204
-3679.81 7803.13 1127.95
-3189.87 8183.91 670.335
-4447.77 6766.77 2012.14
-4110.04 7315.73 1590.68
-4735.2 6796.31 1268.17
-2588.48 8062.41 2059.15
-3373.72 7749.61 1861.71
-3029.1 7605.65 2530.74
-4883.38 3882.38 3374.41
-4932.94 4614.81 3127.82
-5337.9 4161.45 2647.68
-3859.58 5487.91 3867.82
-4424.66 5073.95 3545.72
-3888.69 4744.61 4154.29
-5217.94 5564.08 2037.52
-4880.03 5354.79 2820.02
-4736.35 6030.28 2473.34
-974.543 6783.34 4220.39
-1696.41 6558.68 4293.2
-1248.72 6075.67 4674.63
-2571.2 7318.12 3261.02
-2154.68 6984.88 3807.57
-1827.91 7582.51 3273.56
-2642.38 5497.28 4602.09
-2433.03 6268.59 4260.87
-3112.32 5937.11 4137.41
-4109.71 6556.35 2795.83
-3648.64 6269.89 3529.11
-3362.14 7000.77 3067.68
-2491.58 8501.59 670.227
-2754.15 8482.7 -56.1433
-1831.35 8291.9 2056.61
-2174.44 8443.87 1395.25
-1284.1 8890.51 -49.3232
-1732.72 8744.83 678.953
-978.955 8865.14 680.339
-97.6378 6749.21 4177.88
-534.738 7244.61 3811.42
318.858 7989.11 2762.11
-94.189 7647.67 3297.56
744.904 7504.83 3201.84
-973.305 7676.99 3327.4
-1381.94 8011.38 2785.77
1679.41 8441.61 -51.2308
1429.6 8483.19 667.415
2107.73 8142.14 662.018
-72.488 8859.46 679.414
678.654 8730 676.595
232.373 8882.29 -50.3433
1500.85 8007.38 2023.71
1114.45 8429.61 1388.38
771.892 8281.2 2045.94
-975.463 8418.43 2130.76
-76.8927 8413.1 2127.07
-525.576 8717.28 1408.18
-2523.51 8575.97 -787.419
-3226.18 8252.51 -785.52
-979.484 8879.57 -781.71
-1742.88 8757.14 -783.513
-2626.14 8157.81 -2197.43
-2215.25 8554.08 -1529.15
-1866.62 8411.9 -2209.15
2123.89 8168.66 -768.176
1440.69 8509.86 -772.357
788.807 8338.18 -2172.46
1129.6 8472.11 -1501.14
1530.37 8064.56 -2153.2
685.168 8755.09 -780.621
-69.8412 8881.37 -782.433
-981.325 6859.97 -4411.47
-532.916 7332.05 -3997.09
-86.9068 6829.84 -4374.78
-1404.89 8121.61 -2951.99
-984.566 7777.56 -3505.32
-1855.29 7681.91 -3447.84
774.263 7597.19 -3376.42
-84.7398 7723.07 -3460.73
334.684 8057.24 -2907.26
-524.511 8754.47 -1518.7
-70.803 8469.57 -2252.54
-985.525 8467.25 -2255.91
-3722.77 7868.77 -1243.49
-3951.07 7793.01 -505.481
-3072.88 7684.64 -2675.61
-3418.59 7823.64 -1989.96
-4769.69 6828.09 -1377.88
-4154.96 7369.19 -1709.55
-4488.94 6805.61 -2132.06
-1258.99 6130.07 -4863.22
-1717.15 6625.18 -4477.46
-3146.66 5974.19 -4290.62
-2462.09 6319.13 -4428.5
-2665.25 5524.17 -4753.2
-2184.48 7059.27 -3981.67
-2609.27 7397.35 -3422.53
-5318.41 4166.43 -2734.89
-4939.77 4623.15 -3229.99
-4861.04 3887.19 -3454.51
-4771.05 6055.23 -2592.3
-4910.3 5371.65 -2937.76
-5239.96 5576.93 -2145.25
-3905.47 4757.43 -4273.93
-4452.41 5090.62 -3668.77
-3893.44 5513.2 -4006.09
-3407.25 7062.31 -3216.05
-3689.96 6311.66 -3674.81
-4153.67 6598.83 -2929.24
-4423.05 7375.34 -52.2567
-5201.9 6326.15 -923.091
-4863.58 6881.11 -503.873
-4849.16 6867.39 401.463
-5191.43 6316.23 821.881
-5543.73 3436.53 -2259.54
-5634.11 4166.31 -2030.37
-5988.03 4167.22 -501.641
-5854.88 4166.65 -1262.17
-5995.19 3431.36 -806.434
-5623.5 4906.31 -1728.07
-5491.26 5585.75 -1383.8
-5666.17 4163.34 1946.16
-5615 3431.98 2196.17
-5479.49 5577.3 1281.4
-5620.21 4900.51 1628.13
-6021.01 3432.24 718.46
-5889.82 4168.67 1174.79
-6006.14 4169.47 411.665
-5584.23 5647.82 -506.166
-5873.77 4909.65 -45.8646
-5594.81 5650.4 411.131
2557.25 7719.44 1096.11
2809.3 7687 385.995
1910.99 7504.01 2462.57
2245.53 7646.08 1807.95
3569.23 6699.75 1232.44
2959.13 7208.58 1544.46
3292.34 6674.52 1956.55
176.722 6035.95 4607.42
619.519 6499.61 4214.25
2005.25 5879.78 4047.43
1343.04 6208.06 4173.42
1551.18 5453.8 4514.35
1068.5 6908.1 3725.99
1471.27 7229.16 3184.54
4199.44 4142.64 2596.16
3793.89 4586.89 3063
3757.47 3869.76 3314.06
3581.32 5960.77 2410.22
3731.06 5307.15 2754.25
4056.75 5509.1 1987.71
2774.22 4715.46 4074.84
3291.4 5035.15 3469.05
2737.04 5438.9 3782.5
2241.2 6910.15 2990.86
2524.27 6199.48 3444.57
2968.35 6473.69 2723.41
-1252.2 5388.36 5000.76
-533.713 5617.77 4910.85
-2653.92 4747.83 4860.1
-1980.24 5085.04 4983.93
-528.283 4175.85 5330.23
-1259.21 4632.92 5234.22
-1256.84 3882.45 5343.73
-4878.82 2982.34 3370.76
-4474.36 3432.05 3851.92
-3391.5 2570.7 4580.39
-3958.9 2983.67 4268.13
-3872.11 2122.13 4134.76
-3962.45 3881.43 4272.83
-3398.68 4295.77 4592.81
-526.771 1194.67 5013.05
-1252.36 1442.85 5061.27
-1252.44 741.946 4748.52
-1250.39 2980.39 5338.66
-1249.24 2220.86 5234.82
-522.869 2671.89 5378.33
-2653.51 1343.67 4632.36
-1976.84 1765.3 4986.68
-2641.13 2116.71 4829.97
-2728.07 3885.56 4979.44
-2727.11 2980.93 4973.72
-1993.54 3433.98 5251.87
-5656.74 2702.6 1942.67
-5329.7 2704.52 2643.14
-5995.14 2695.65 410.089
-5877.21 2697.19 1171.83
-5194.69 1305.13 2027.67
-5598.7 1969.07 1620.4
-5458.82 1292.64 1275.52
-5264.66 2713.33 -2701.26
-5603.85 2707.29 -2013.27
-5437.75 1299.81 -1363.42
-5569.88 1975.72 -1703.72
-5166.33 1317.36 -2107.6
-5851.96 2699.17 -1257.54
-5986.6 2696.3 -501.927
-3959.43 -942.9 405.325
-4440.89 -534.345 -47.6974
-3958.75 -941.781 -499.876
-5179.15 548.515 819.729
-4865.51 -23.0396 404.337
-4749.64 48.0628 1274.27
-4739.74 56.9269 -1363.71
-4865.01 -22.131 -499.392
-5183.59 545.134 -914.77
-5861.9 1956.65 -46.4086
-5570.7 1220.26 -501.91
-5580.98 1217.02 409.146
-4447.24 3439.49 -3924.8
-4821.34 2994.28 -3421.18
-3406.37 4304.43 -4705.39
-3956.11 3886.34 -4364.1
-3823.02 2147.38 -4170.63
-3932.14 2994.03 -4336.91
-3368.9 2586.37 -4641.75
-530.612 5663.99 -5111.64
-1259.85 5424.07 -5185.73
-1261.33 3895.94 -5483.61
-1264.33 4656.27 -5406.29
-535.44 4200.03 -5484.77
-1999.15 5113.82 -5158.1
-2671.84 4764.68 -5003.19
-1241.61 784.456 -4761.58
-1238.82 1480.13 -5066.26
-524.443 1232.43 -5026.19
-2611.96 2143.94 -4859.64
-1955.6 1792.97 -5012.48
-2610.93 1382.44 -4634.97
-526.805 2688.81 -5389.46
-1243.52 2238.84 -5276.6
-1250.08 2994.88 -5398.22
-2732.87 3892.57 -5090.62
-1993.01 3441.92 -5348.53
-2719.83 2990.43 -5054.07
629.419 6552.42 -4376.54
[...]
POINT_DATA 642
SCALARS Mean_Curvature double 1
LOOKUP_TABLE default
0.000439807
0.000420156
0.00040851
0.000414192
0.000435266
0.000456184
0.000408242
0.000437769
0.000383851
0.000370847
0.000436583
0.00042449
0.000363364
0.000361676
0.000376789
0.000344713
0.000371115
0.000365611
0.000363285
0.000402036
0.000368459
0.000371891
0.00035425
0.000359329
0.000291922
0.000327696
0.000385955
0.000351748
0.000355224
0.00024996
0.000259798
0.00040926
0.000364992
0.000335249
0.000363721
0.000374074
0.000298635
0.000361959
0.00036591
0.000371554
0.000365429
0.000401124
0.000357754
0.000364294
0.000356372
0.000362765
0.000361324
0.000358516
0.000362958
0.000366496
0.000371277
0.000374345
0.000313594
0.000241332
0.000328085
0.000363519
0.000369746
0.000389971
0.000241974
0.000392232
0.000360245
0.00037054
0.000375171
0.000272408
0.000291378
0.000365621
0.000373585
0.000349508
0.000365831
0.000397868
0.000357733
0.000344735
0.000326197
0.000349627
0.000294464
0.00036726
0.000373407
0.000358444
0.000246584
0.000346164
0.000361142
0.000359455
0.000359002
0.000358169
0.000391074
0.000228844
0.000374899
0.000367225
0.000297668
0.000237581
0.000349083
0.000364995
0.000324889
0.000361197
0.000358741
0.000336012
0.000342127
0.0003691
0.000368214
0.000225892
0.000425771
0.000373196
0.000362284
0.00024191
0.000383547
0.000363866
0.000269712
0.00040604
0.000365109
0.000358794
0.000357401
0.000360628
0.00036462
0.00036228
0.00035446
0.000330234
0.000369224
0.000354588
0.000335956
0.000353825
0.000363552
0.000368132
0.000378883
0.000351237
0.000375299
0.000366931
0.000340535
0.000367645
0.000373214
0.000338518
0.000370265
0.000368751
0.000348343
0.000356997
0.000375541
0.000349123
0.000363402
0.000340463
0.000360633
0.000408108
0.00034975
0.000323223
0.000368292
0.000339566
0.000376431
0.000362502
0.000379124
0.000351593
0.000361849
0.000368476
0.000367071
0.000365097
0.000413098
0.000359663
0.000363881
0.000312485
0.000356229
0.000343683
0.000149103
0.000353342
0.000361757
0.000358575
0.000281537
0.000367235
0.000282142
0.00036441
0.000362743
0.000364801
0.000369386
0.000364124
0.000362067
0.000366914
0.000362711
0.000364738
0.000360316
0.000362547
0.000363976
0.000362028
0.000361104
0.000361497
0.000370078
0.000370486
0.000369719
0.000361374
0.00037046
0.00036137
0.000369407
0.000355521
0.000364861
0.000361656
0.000360923
0.000362613
0.000301938
0.00033352
0.000280913
0.000303966
0.000373658
0.000374628
0.000373416
0.000318093
0.000397712
0.0003989
0.000325428
0.000257522
0.000363052
0.000341815
0.00036416
0.000365421
0.000372227
0.000372711
0.000365673
0.000363592
0.000394817
0.000369064
0.000376882
0.000362557
0.000373521
0.000375868
0.000432303
0.000373506
0.000360126
0.000265689
0.000346974
0.000471961
0.000441453
0.00038314
0.000380281
0.000369112
0.000363467
0.000366149
0.000375814
0.000378355
0.000373781
0.000408169
0.000384355
0.000430154
0.000417442
0.000388352
0.000365199
0.000283295
0.000369153
0.000375584
0.00037254
0.000267676
0.000394342
0.000361083
0.000363931
0.000354883
0.000390677
0.000375545
0.000361859
0.000372743
0.000382132
0.000363794
0.000354306
0.000326701
0.000367499
0.000358726
0.000374959
0.000375521
0.000358498
0.000358835
0.000388604
0.000357796
0.000366616
0.000400692
0.000370814
0.000366345
0.00036416
0.000365648
0.000337026
0.000355168
0.000345841
0.000325438
0.000371117
0.000233417
0.000354172
0.000344169
0.000291423
0.000348659
0.000413437
0.00039379
0.000365728
0.000371145
0.000365347
0.000360135
0.000367362
0.000333458
0.000364592
0.000308497
0.000372626
0.000358525
0.000356109
0.000390812
0.000282196
0.000261195
0.000363071
0.000323602
0.000362471
0.000267258
0.000332976
0.000358596
0.000355068
0.000352157
0.000359737
0.000339254
0.000343377
0.000359869
0.000347852
0.000358389
0.00036131
0.000361127
0.000357655
0.000360177
0.000356082
0.000362177
0.000359571
0.000360346
0.000388285
0.000349594
0.000356651
0.000368677
0.000307849
0.000400168
0.000340723
0.000372274
0.00037116
0.000354239
0.000370713
0.000285803
0.000362533
0.000358728
0.000412195
0.000436425
0.000360531
0.000291999
0.000289002
0.000414472
0.000464622
0.000353493
0.000234896
0.000346819
0.000378146
0.000432435
0.000374504
0.000377977
0.000350144
0.000319571
0.000311987
0.000342573
0.000341753
0.000306621
0.000348723
0.000326497
0.00035753
0.000319882
0.000347112
0.000363299
0.000356952
0.000357181
0.000368991
0.000312553
0.000374451
0.000378487
0.000372125
0.000374258
0.000378586
0.000370309
0.000331199
0.000353889
0.000389649
0.000320007
0.000346734
0.000355863
0.00027188
0.000407175
0.000400612
0.000359038
0.000364539
0.000412666
0.000408215
0.000443727
0.000426627
0.000365421
0.000330634
0.000350978
0.000366097
0.000189737
0.000341962
0.000362913
0.000248873
0.000327985
0.000282493
0.000351469
0.00042842
0.000415855
0.000277923
0.000396783
0.000364815
0.000361882
0.00035535
0.000356631
0.000354434
0.000384254
0.000359535
0.000382545
0.000364686
0.00037991
0.000365029
0.000364846
0.000359672
0.000360717
0.000358587
0.000377515
0.000290875
0.000276597
0.000351879
0.000317663
0.000308773
0.000364061
0.00037421
0.000364286
0.000364583
0.000364515
0.000363141
0.000364321
0.000365258
0.000366295
0.000352094
0.000358412
0.000347493
0.000335338
0.000380864
0.000398625
0.000365787
0.000382765
0.000322244
0.000369268
0.000375919
0.000365437
0.000371295
0.000344727
0.000330468
0.000362255
0.000358478
0.000353417
0.000354602
0.000355246
0.000344923
0.000363446
0.00035589
0.000350006
0.00036877
0.000368572
0.000363413
0.000350192
0.000315769
0.000358291
0.000306202
0.000366608
0.000376372
0.0003396
0.00036712
0.000334663
0.000364116
0.000341421
0.000356345
0.000338056
0.000340584
0.000303304
0.000391942
0.00033927
0.000365789
0.000382692
0.000374393
0.00033797
0.000358614
0.000367431
0.000354377
0.000371512
0.000348328
0.000343584
0.000356622
0.000350803
0.000369057
0.000372705
0.00038441
0.000365617
0.000336198
0.000343451
0.000335001
0.000344342
0.000347829
0.000362892
0.000348667
0.000364884
0.000343858
0.000369488
0.000365763
0.000355247
0.000373814
0.000349435
0.00035783
0.000338673
0.000369884
0.000361749
0.000349929
0.000345735
0.00036635
0.000370014
0.000367118
0.000347598
0.000352949
0.000360761
0.000363535
0.000370298
0.000370512
0.000366288
0.000348492
0.000373969
0.000324679
0.000370391
0.000365711
0.000355599
0.000344771
0.000368652
0.000358684
0.000347918
0.000345682
0.000350891
0.000365692
0.000362935
0.000363274
0.000366593
0.000364422
0.000316956
0.000398309
0.000389392
0.000388063
0.000372235
0.000384827
0.000356539
0.000394908
0.000357238
0.000365679
0.000354896
0.000398676
0.000389146
0.000392457
0.000355447
0.000376819
0.000362121
0.000343388
0.000356762
0.00035298
0.000351987
0.000364331
0.000347493
0.000356094
0.000358292
0.0003529
0.000359984
0.000326146
0.000360783
0.000367102
0.000354303
0.000359524
0.000358615
0.000364453
0.000363656
0.00037141
0.000367192
0.00036641
0.000367634
0.000369145
0.000334788
0.000372936
0.000361033
0.000365079
0.000372386
0.000361169
0.000388019
0.000277407
0.000242848
0.000436594
0.000365421
0.000356337
0.000362499
0.000389761
0.000361814
0.000363386
0.000381603
0.000409361
0.00037204
0.000372985
0.00037077
0.000368339
0.000344965
0.000345485
0.000309154
0.000364669
0.000342288
0.000360789
0.00034884
0.000379857
0.000374531
0.000358449
0.000350212
0.000357559
0.000358209
0.000311268
0.000360223
0.000334172
0.000363824
0.000349616
0.000348251
0.000395715
0.000274757
0.000415059
0.000519779
0.000135119
0.000350046
0.00037229
0.000348484
0.000328974
0.000316825
0.000324773
0.000359933
0.000358967
0.000350069
0.000364527
0.000362076
0.000333009
0.000316446
0.000375796
0.000363265
0.0003135
0.000255141
0.000324448
0.000360336
0.000363738
0.000362232
SCALARS CoVolArea double 1
LOOKUP_TABLE default
480841
468459
485073
485358
480543
465703
470795
479470
468136
474046
477098
482328
623792
619070
612424
599462
615738
612738
630814
627796
629770
621250
602226
600125
620493
608543
619942
624643
606275
608926
600741
599123
628509
616438
626612
629577
622960
620745
619677
605788
623463
616002
589597
648496
584029
591016
651682
592880
576581
645672
580506
640657
586830
568896
633570
581013
637575
572015
651889
596560
579880
645286
595219
650353
584126
662903
595818
595343
662002
593430
661308
591427
653877
586610
652650
653217
591768
625735
569584
568332
624546
575142
629111
575640
641163
574751
589876
647146
583288
643393
588878
650912
590821
582674
647964
595347
652452
593604
644413
581220
583694
648714
576004
636526
572256
634365
577350
571718
633966
568483
628184
569842
597560
657241
595909
583621
652573
590649
592608
652224
586638
654962
592796
594495
656685
593419
656202
597066
651174
592247
592926
651714
582949
648673
583674
650064
595052
575936
642546
583757
643274
574558
657850
580112
652088
654785
584527
640096
637455
632611
658807
656571
653984
643176
650293
641832
626614
628274
632077
634778
632318
628174
579176
592383
576507
643860
595834
585763
577573
592699
637487
581397
597867
582185
642698
598643
584611
587747
599724
645231
563529
584510
565428
636088
588696
574184
579527
590576
639916
720246
718776
716877
590097
578206
632873
589440
580444
590621
635214
559746
577305
623143
578268
563456
581755
630331
567857
582398
563425
634538
587156
578200
565439
582155
624723
706417
703437
708265
597396
582586
640308
596876
593523
602137
649368
567500
586541
636638
590127
576089
590853
638189
581515
595526
576025
648730
600465
592614
577322
594554
638060
717682
716825
721587
602737
582739
655211
607497
592411
606780
654242
582321
601839
652919
605724
591218
606383
654746
579044
598911
577572
653711
604870
591501
589230
603957
652309
733909
732991
733578
597681
648822
601537
599109
645651
575964
594870
643425
596641
582979
599924
648351
598255
581580
646162
600384
586072
599645
644484
723946
722474
723298
575567
561134
619400
576166
563227
575295
619245
559682
572917
620107
573641
564204
573276
617876
568319
580604
568323
621595
579523
567179
568507
579915
622483
692673
694454
694124
582563
562723
637982
588417
571039
585075
631098
580273
595748
640086
595875
584326
596570
640731
576512
591193
579220
632932
590003
575084
583852
592832
639336
713952
714046
710827
596601
580531
643214
598241
586372
598038
644406
572921
589799
640831
592341
580083
593341
641430
585219
600085
584319
645834
601003
589404
586456
600220
643763
719540
719793
721004
591163
572974
644751
595667
574170
589455
632060
577092
596794
634174
594489
575053
600346
646305
566833
579006
564170
630002
582060
571566
567879
580999
628476
716656
710812
709582
586572
573287
630897
586379
566902
582979
623168
563083
581359
623133
580517
565662
584914
630876
560355
574308
561674
620671
575736
563116
564423
575923
621549
702954
698805
698780
586349
602552
585528
650444
604734
592598
590435
603845
648893
572463
592928
575689
641430
595285
579371
589342
598975
648505
580919
595561
577887
647169
599117
588720
580605
596239
641672
725791
722264
725074
600164
583924
648606
602240
586576
600578
645927
581875
599169
650373
602804
591305
601848
648540
584333
601060
585654
646296
601503
586939
592779
603877
650742
726139
727072
725067
598337
583704
643963
598870
585227
598632
642970
583807
598942
643775
599467
586203
599442
644206
569940
588877
570300
641153
593110
580623
581657
593535
641810
720730
720145
719860
599178
585153
641765
598582
588805
599958
643938
566457
585077
631291
586245
570264
589850
638722
568667
584536
564383
640966
590990
583488
569570
586026
631235
715806
711931
716633
602513
648370
603696
605004
651037
567013
588238
641884
593328
577718
595322
645667
593887
572899
649479
600235
580155
597091
643253
725862
724277
727304
590525
635158
590857
588767
630635
584870
626685
583854
587647
634075
576593
627598
580041
577569
624346
707614
703671
705166
602372
652014
605304
604034
649030
598423
645574
599970
602618
650922
596269
646922
599139
598598
644938
728812
725781
726973
585783
640017
590979
586537
631735
599173
642406
599532
599283
642781
586574
631788
587125
589231
638431
716344
715801
711539
575746
622900
577626
575115
619187
578453
623175
578016
579456
623609
585176
621410
581067
584693
627178
694921
696631
694895
584803
632454
587221
582616
623793
579575
621722
578470
583753
631184
575923
620988
576356
577178
621522
702373
697584
698385
SCALARS SignedDistance double 1
LOOKUP_TABLE default
3265.68
3979.39
2727.72
2713.24
3123.71
4294.42
3762.5
3476.71
3998.91
3617.87
3611.41
2873.21
2919.29
3259.63
3677.36
4400.39
3333.61
3532.6
2656.61
2939.05
2707.12
3122.04
4071.35
4145.42
3476.4
3871.27
3276.55
3022.57
4385.85
4074.73
4318.26
4476.13
2712.8
3408.23
2795.88
2646.17
3153.99
3116.06
3165.15
3957.66
3072.51
3583.83
3157.18
3209.18
3552.16
2979.15
3005.58
2854.31
3939.76
3420.62
3732.43
3638.31
3366.03
4473.01
4138.21
3606.38
3820.39
4187.2
3247.58
2814.99
3619.14
3284.17
2957.85
3289.34
3621.46
2463.76
2859.09
2937.12
2537.24
3051.28
2619.89
3210.07
3035.24
3406.96
3197.88
2921.35
2956.19
4341.28
4371.19
4279.7
4312.18
3881.49
4088.3
3844.43
3690.86
4207.43
3157.86
3265.56
3536.58
3754.18
3324.23
3031.78
3089.21
3501.13
3241.8
2798.91
3062.17
2847.49
3634.33
3876.7
3844.47
3519.54
3929.25
4214.27
4125.25
3942.07
4114.94
4115.04
3926
4310.68
4364.77
4187.94
2599.41
2754.67
2738.08
3513.43
3064.91
3102.63
2954
3057.7
3284.27
2914.9
2966.97
2831.59
2748.97
2931.99
2914.8
2650.39
3020.47
2979.18
2908.74
2989.35
3499.33
3193.17
3424.09
3187.38
2795.65
3883.83
3536.57
3548.2
3590.82
4003.91
2713.06
3783.51
3171.12
2945.47
3535.31
3608.98
3732.54
3988.52
2649.17
2844.8
3104.88
3540.43
3161.54
3691.88
4300.35
4195.56
4526.6
3903.59
4010.7
4247.48
3301.5
3337.16
3495.48
3037.36
3163.74
3013.87
3593
3364.87
3425.08
2895.65
2883.92
2838.97
3106.95
2975.07
3096.56
2872.59
2903.65
2943.85
4110.39
3837.07
4015.57
3538.08
3669.56
3791.14
3476.76
3558.23
3324.1
3085.21
3181.04
3290.98
3534.17
3403.66
3794.3
3664.49
3303.25
3474.44
3442.17
4425.7
4264.5
4274.16
4362.77
4460.14
4093.64
3948.31
3785.96
3885.85
4081.67
3550.19
3699.93
3451.29
4297.7
3996.15
4117.42
3864.3
3971.82
3675.73
3221.09
3051.2
3231.3
3276.77
2672.37
3023.09
2931.11
3764.84
3578.92
3380.2
3435.79
3551.65
3406.95
3282.27
3197.71
3374.83
3618.63
3005.31
3158.66
2769.34
3557.44
3434.62
3382.51
3173.95
3242.78
3230.56
2795.03
3038.61
2496.2
2573.72
2738.33
2595.72
2536.72
3179.16
2901.46
2669.94
2713.72
2877.34
2668.07
2531.08
3336.93
3107.93
3396.26
2604.29
2791.49
2804.25
3059.65
2896.5
2738.85
2437.23
2517.7
2468.2
3140.72
2945.61
3007.44
3077.42
2947.24
3581.1
3409.37
3165.27
3314.6
3250.67
3156.83
2985.2
2863.55
2871.7
2870.99
2867.28
3003.38
2951.81
2998.63
3067.83
3014.99
2938.27
4335.15
4241.38
4415.06
4395.25
4268.56
4355.26
4248.42
4367.65
4388.86
4202.57
4299.36
4179.99
4400.12
4410.21
3748.91
3856.1
3731.85
4109.49
3986.7
4015.09
3959.04
3970.44
4078.4
4322.55
4205
4219.79
4014.39
4298.67
3461.82
3712.84
4037.05
3994.38
3963.06
2988.25
3013.99
3403.06
3198.26
3346.26
3103.17
3236.89
3399.48
3490.73
3181.14
3812.33
3663.21
3696.4
3398.54
3659.39
3631.99
3409.14
3508.45
3695.95
2998.39
2979.54
3078.38
3051.96
3078.67
3057.5
3053.17
3625.96
3487.62
3280.83
3364.77
3411.57
3348.42
3204.97
2723.12
2797.61
2739.32
3038.14
2901.13
2892.33
3031.06
2916.76
3119.69
3093.76
3162.52
3057.38
3568.18
3749.59
3279.91
3401.17
3992.85
3777.1
4001.43
3605.42
3341.26
3959.73
3654.5
4125.39
3175.18
3193.1
3839.57
3998.52
3928.58
4168.24
4083.88
4036.5
4261.35
4170.8
4277.76
3543.57
3894.21
3926.54
3856.17
3852.15
3723.39
3772.48
4281.81
4018.61
4184.18
4042.54
3852.17
4152.02
3993.33
4234.42
3758.59
3717.15
4158.03
4251.15
4093.75
4400.86
4406.2
4456.28
4274.92
4342.95
4342.01
3912.38
4133.39
4145.56
2637.61
2647.22
2693.31
2701.71
2645.53
2620.19
2762.7
2722.77
2802.81
3562.45
3331.48
3383.55
3286.43
3313.53
3457.3
2881.01
3069.35
2857.94
3021.88
3107.68
3232.24
2895.15
2998.64
2871.57
3347.58
3169.77
3236.79
2868
3078.89
2915.42
2805.65
2801.11
2791.71
2813.15
3107.28
2989.42
3094.59
2933.2
2839.52
2736.9
2739.45
2774.85
2830.84
2823.68
2794.14
2766.3
2718.48
3091.62
2882.71
3106.4
2601.85
2744.88
2731.34
2846.99
2785.81
2977.01
2924.43
2837.73
3093.26
3003.53
3058.77
2977.66
3047.56
2768.05
2864.8
3005.48
2955.13
3025.34
2997.21
3094.09
3635.61
3469.24
3628.65
3216.26
3347.98
3318.76
3245.54
3305.33
3135.86
3051.57
3072.61
3117.99
2886.76
2732.08
3183.32
3065.29
2908.75
2984.13
3120.65
3822.86
3695.55
3734.94
3717.27
3920.09
3509.97
3339.61
3827.2
3832.49
4004.94
3336.94
3556.7
3279
3988.83
3819.94
3781.01
3365.07
3566.73
3372.63
2653.41
2857.41
2727.26
2618.62
2658.96
3893.01
3664.19
3348.87
3489.26
3675.84
3340.21
3081.26
3288.54
3572.05
2807.4
2993.19
3531.78
3231.29
3235.03
2899.97
2997.94
2766.65
3422.83
3497.39
3453.38
3540.25
3731.73
3680.03
3911.21
3796.72
3622.49
3560.02
4260.86
3927.44
4098.98
4155.33
4046.55
3657.48
3855.24
3781.9
2690.03
2589.91
2599.55
2701.61
2802.11
3031.66
3104.92
3067.36
2866.08
2690.38
3109.21
3026.81
3139.28
3240.37
3272.18
2693.81
2918.08
2814.67
3658.43
3298.33
3453.41
3728.6
3839.73
2829.94
3184.88
2977.22
3000.76
3152.19
3691.27
3894.16
3788.37
3585.13
3487.42
3367.9
3426.92
3654.15
4161.14
4135.6
4155.8
4315.97
4454.91
3982.58
4277.95
4155.61
4044.35
4096.9
4000.16
4554.94
4365.35
4268.25
4442.61
4258.04
4350.89
4431.7
3732.52
3764.99
3739.41
3884.02
4029.75
3994.71
4189.94
4096.65
3899.99
3825.08
4299.04
4199.47
4331.78
4324.38
4286.15
3942.05
4128.09
4081.71
