# vtk DataFile Version 4.2
vtk output
ASCII
DATASET POLYDATA
POINTS 642 double
-2893.3 7167.97 -191.901
1539.1 6970.99 -138.948
-2955.72 -488.999 -43.3441
1925.53 -492.607 -25.0984
-559.899 1006.35 3732.81
-730.566 5512.3 3325.06
-526.521 1173.58 -3523.51
-689.567 5765.4 -3793.76
2941.65 3340.13 -2109.63
3081.49 3304.88 2124.54
-4163.05 3571.63 -2311.97
-4400.52 3450.56 2334.93
-4201.38 5672.6 1350.65
-2783.14 4783.6 3482.59
-1934.41 6797.45 2068.05
595.106 6643.1 1752.61
-541.2 7777.12 -89.4367
728.353 6918.41 -2153.78
-2018.25 7223.8 -2412.45
-2831.34 4934.68 -3732.16
-4267.59 5785.8 -1535.58
-4969.95 3443.42 1.76881
1506.73 4580.88 3188.13
2711.03 5332.26 1193.13
-2690.38 1983.58 3368.72
-516.89 3338.24 4043.44
-4061.08 1146.8 -1335.83
-4108.22 1131.58 1355.33
-686.232 3604.79 -3924.65
-2561.32 2152.78 -3223.9
2569.03 5388.41 -1221.63
1393.12 4762.91 -3136.07
3218.97 1088.62 1363.14
1629.56 2027.83 3399.6
897.092 -286.026 2228.21
-1993.95 -346.253 2269.18
-529.918 -973.024 -49.6572
-1895.8 -190.709 -2232.39
845.549 -176.851 -2215.59
1526.25 2062.49 -3280.14
3121.45 1147.92 -1367.93
3760.09 3239.38 -1.1075
-3644.59 6504.93 671.117
-3171.18 6430.98 1817.57
-2447.55 7070.46 1072.07
-3715.92 4153.51 3049.12
-3650.35 5314.14 2573.98
-4454.04 4607.99 1924.77
-1328.86 6269.69 2836.77
-2439.53 5948.88 2923.05
-1743.95 5243.99 3580.1
-1199.48 7475.05 971.008
-1715.65 7589.81 -130.992
-5.50008 6075.01 2617.07
-616.627 6887.48 1978.7
570.176 7538.17 -114.369
95.8228 7429.81 951.201
1092.57 6980.48 869.012
-1356.61 7579.67 -1260.7
-2565.48 7435.52 -1326.55
1231.88 7113.17 -1152.69
148.011 7587.49 -1194.07
-1361.87 6628.18 -3266.29
-641.209 7139.11 -2380.68
36.2139 6409.3 -3004.64
-3312.24 6697.91 -2073.19
-3700.26 6652.38 -888.678
-1758.31 5449.7 -4009.82
-2544.31 6221.22 -3278.25
-4413.55 4733.68 -2045.48
-3757.14 5459.51 -2808.8
-3645.69 4278.73 -3127.77
-4339.65 5798.93 -61.6256
-4701.03 3459.39 -1169.53
-4710.86 4650.9 -789.987
-4828.36 4630.01 710.225
-4860.33 3452.34 1212.96
1783.15 6038.07 1601.6
2116.52 6155.33 523.751
521.793 5042.23 3325.55
1158.99 5651.93 2631.56
3020.27 4413.33 1724.25
2256.73 5042.94 2296.64
2376.42 4011.9 2791.5
-1757.85 4124.18 3970.69
-642.206 4444.35 3766.51
-3682.87 2775.2 3008.71
-2891.48 3457.01 3647.31
-514.538 2176.73 4010.74
-1667.61 2769.96 3893.29
-1693.11 1399.48 3712.08
-4770.54 2260.93 683.955
-4365.53 2312.99 1874.21
-4225.66 2297.05 -1840.19
-4696.87 2275.7 -710.007
-3685.96 188.812 706.912
-4283.48 1025.18 -46.7085
-3684.09 195.248 -758.669
-2815.77 3578.59 -3690.85
-3408.27 2877.84 -2876.88
-695.101 4744.12 -4158.97
-1725.46 4307.67 -4205.93
-1587.64 1529.52 -3493.98
-1640.55 2909.33 -3791.92
-518.633 2234.63 -3841.86
1144.33 5913.21 -2836.83
376.165 5256.17 -3550.96
2155.48 6356.15 -761.038
1797.9 6321.97 -1777.44
2250.21 3982.91 -2711.25
2092.7 5160.38 -2353.23
2922.26 4376.97 -1714.64
2722.05 152.924 703.488
2204.56 245.841 1872.51
1499.25 -539.464 1142.31
2486.8 2643.6 2857.37
2599.96 1466.22 2535.92
3352.94 2185.67 1853.13
174.323 264.325 3094.93
1375.36 752.298 2994.07
608.924 1465.46 3690.38
246.974 -879.302 1182.01
775.188 -901.324 -26.3807
-1263.1 230.252 3145.41
-543.262 -483.211 2385.7
-1821.66 -924.75 -21.1946
-1325.7 -875.713 1183.64
-2548.83 -579.798 1192.63
229.822 -827.82 -1213.18
1448.6 -452.626 -1170.37
-2523.51 -491.51 -1180.76
-1282.65 -836.219 -1222.46
174.043 400.001 -2980.61
-540.978 -337.712 -2332.03
-1247.53 370.168 -3026.25
2097.56 356.131 -1845
2675.64 197.569 -741.292
554.923 1570.61 -3521.63
1284.78 856.776 -2925.3
3228.14 2189.21 -1809.69
2441.68 1558.82 -2454.21
2334.9 2679.41 -2785.05
3400.21 969.784 -21.855
3490.37 3270.55 -1099.67
3735.16 2188.82 -725.952
3807.38 2181.03 689.578
3610.41 3254.61 1092.62
581.558 2666.21 3939.55
1676.38 3350.01 3479.2
556.112 3992.76 3811.68
-3245.2 201.746 1927.87
-2484.43 695.655 3088.82
-3587.54 1426.44 2579.14
-2338.32 839.305 -2954.84
-3151.4 324.538 -1864.02
-3422.03 1565.5 -2431.78
1562.89 3342.94 -3325.96
504.7 2701.47 -3762.01
341.974 4174.78 -3703.39
3370.85 4411.34 638.025
3333.93 4401.84 -672.58
2838.07 5413.24 -21.4768
-3260.42 6812.62 245.288
-3081.15 6837.27 898.756
-2647.61 7090.93 465.933
-3725.09 6097.41 1607.75
-3439.99 6498.82 1268.81
-3957.07 6120.94 1026.47
-2218.36 6971.57 1587.02
-2835.85 6789.97 1464.17
-2564.36 6667.99 1967.21
-4098.03 3805.32 2726.14
-4138.89 4388.27 2530.84
-4470.32 4028.86 2156.82
-3249.38 5063.19 3076.73
-3715.07 4751.54 2847.41
-3272.22 4483.89 3303.16
-4366.32 5163.85 1653.09
-4091.28 4986.66 2277.75
-3972.6 5518.68 1991.88
-1044.97 5914.37 3116.47
-1545.3 5792.17 3247.7
-1243.76 5410.16 3480.2
-2200.46 6421.5 2526.07
-1887.07 6144.36 2912.3
-1633.07 6568.63 2483.8
-2263.03 5035.4 3572.2
-2104.5 5616.99 3291.5
-2635.39 5397.83 3251.44
-3449.85 5918.05 2227.2
-3070.17 5674.98 2796.61
-2834.27 6229.58 2412.67
-2057.03 7357.69 449.157
-2308.54 7368.6 -203.998
-1570.76 7099.76 1509.12
-1819.8 7270.53 1010.49
-1112.63 7741.36 -82.5877
-1436.76 7590.57 455.228
-888.138 7689.68 456.574
-392.05 5782.11 2967.63
-732.139 6238.04 2765.93
-0.644156 6858.19 1876.4
-366.767 6527.62 2296.47
335.017 6367.26 2174.87
-1004.07 6583.45 2451.01
-1258.23 6862.25 2076.66
1079.78 7289.98 -125.757
876.305 7299.57 410.993
1336.31 7007.26 376.788
-209.548 7663.99 449.945
333.886 7529.7 437.457
20.6594 7703.58 -103.454
845.448 6866.45 1337.22
622.576 7236.77 935.367
357.308 7106.1 1381.53
-886.74 7242.93 1518.74
-236.87 7227.62 1479.58
-550.591 7524.83 986.482
-2197.27 7544.76 -790.105
-2748.15 7330.84 -783.47
-883.727 7745.29 -644.675
-1566.42 7630.03 -698.497
-2311.7 7380.06 -1870.81
-2017.4 7606.89 -1348.11
-1753.12 7505.23 -1879.5
1420.43 7093.37 -641.128
934.533 7393.77 -646.138
457.507 7305.38 -1700.93
706.321 7392.74 -1189.91
997.765 7055.24 -1672.29
373.145 7621.77 -656.362
-182.024 7746.36 -654.263
-1023.93 6221.09 -3570.8
-700.75 6544 -3200.7
-377.155 6099.51 -3419.76
-1378.54 7242.69 -2470.46
-1048.14 6941.79 -2871.99
-1697.26 6970.16 -2882.09
430.139 6705 -2589.09
-295.854 6805.88 -2725.78
106.835 7088.21 -2268.59
-527.893 7668.24 -1221.1
-188.058 7436.45 -1782.78
-993.484 7420.31 -1849.43
-3178.9 7100.21 -1122.58
-3312.13 6960.97 -540.098
-2687.07 7013.73 -2271.18
-2966.55 7117 -1708.12
-4027.73 6265.5 -1221.91
-3568.09 6738.63 -1489.39
-3842.56 6284.46 -1818.17
-1217.18 5642.73 -3944.25
-1569.83 6090.53 -3690.12
-2730.44 5585.75 -3566.42
-2159.48 5858.75 -3664.86
-2306.53 5204.23 -3918.75
-1951.08 6482.9 -3325.75
-2296.88 6773.35 -2889.78
-4307.76 4166.14 -2211.49
-4080.53 4525.78 -2619.04
-3946.85 3940.04 -2748.92
-4069.46 5647.68 -2194.77
-4154.78 5109.58 -2455.47
-4410.5 5259.94 -1822.05
-3264.12 4624.65 -3455.15
-3750.34 4895.27 -3014.59
-3338.85 5222.08 -3330.31
-2969.57 6508.32 -2725.55
-3195.21 5877.51 -3092.59
-3581.84 6120.11 -2484.66
-3674.17 6580.93 -126.693
-4313.57 5821.53 -835.537
-4043.31 6236.08 -495.7
-4026.65 6176.96 308.888
-4328.25 5760.68 675.8
-4410.37 3511.15 -1742.31
-4517.57 4146.55 -1618.53
-4888.55 4038.38 -358.886
-4738.43 4068.73 -993.812
-4875.83 3437.69 -590.727
-4601.42 4728.49 -1451.14
-4543.76 5237.55 -1211.06
-4722.37 4031.69 1602.27
-4682.74 3451.05 1797.3
-4573.48 5175.26 1052.54
-4684.11 4638.34 1331.99
-4973.14 3452.48 593.591
-4870.04 4039.56 961.038
-4961.71 4042.82 359.01
-4596.95 5246.26 -434.966
-4853.98 4641.87 -5.90181
-4643.74 5230.69 351.269
1615.61 6610.34 653.727
1817.06 6638.23 151.749
1185.59 6352.4 1708.69
1383.43 6483.64 1195.15
2470.34 5724.39 905.288
1988.13 6110.5 1092.76
2273.72 5719.34 1415.79
-75.8881 5255.92 3311.66
305.155 5575.59 3012.46
1350.35 5147.2 2939.34
865.465 5372.09 2999.8
1028.83 4824.65 3288.28
653.886 5865.12 2651.69
921.092 6111.23 2254.43
3079.74 3886.87 1947.2
2744.46 4223.64 2285.72
2746.23 3689.06 2497.14
2525.3 5208.61 1766.1
2665.22 4748.49 2034.04
2897.16 4890.9 1469.44
1961.16 4307.4 3021.16
2343.11 4548.09 2566.82
1916.24 4830.36 2772.58
1500.56 5877.85 2148.25
1730.09 5380.12 2499.03
2049.07 5576.76 1973.64
-1263.34 4886.48 3729.74
-695.718 5009.19 3526.11
-2258.17 4463.81 3781.56
-1760.56 4689.01 3815.08
-568.39 3911.35 3950.12
-1249.89 4326.12 3916.16
-1203.17 3767.77 3950.95
-4079.31 3105.3 2709.61
-3755.48 3452.93 3079.55
-2847.15 2804.66 3558.92
-3316.48 3114.05 3368.52
-3203.82 2405.32 3215.26
-3329.4 3804.19 3389.8
-2869.66 4123.17 3609.89
-562.741 1563.74 3882.9
-1076.9 1723.64 3896.5
-1112.64 1192.35 3784.66
-1098.22 3056.97 4021.4
-1040.66 2406.63 3970.9
-492.319 2771.92 4097.68
-2234.43 1612.92 3623.84
-1643.78 1982.91 3754.19
-2204.25 2356.4 3651.65
-2311.8 3798.34 3889.14
-2317.61 3140.54 3856.52
-1769.04 3468.81 4034.21
-4684.85 2883.83 1586.37
-4436.84 2891.71 2137.91
-4920.7 2852.42 343.524
-4834.49 2865.13 950.086
-4262.36 1688.82 1613.74
-4610.23 2268.5 1291.48
-4491.33 1705.89 1018.86
-4194.88 2887.88 -2057.83
-4493.98 2851.79 -1517.4
-4402.09 1702.98 -1043.71
-4497.69 2267.15 -1293.21
-4162.58 1727.31 -1595.8
-4730.32 2849.7 -936.048
-4882.91 2846.66 -363.303
-3356.03 -195.724 336.012
-3728.14 145.769 -44.457
-3355.8 -190.836 -410.804
-4237.64 1058.24 658.543
-4039.23 559.033 326.795
-3946.29 608.732 1054.29
-3925.95 642.531 -1074.36
-4041.61 566.302 -410.265
-4243.62 1036.83 -723.347
-4811.1 2248.54 -15.0115
-4541.61 1640.7 -378.966
-4589.81 1645.59 333.357
-3580.9 3604.82 -3096.48
-3820.07 3233.63 -2592.19
-2843.21 4248.02 -3751.31
-3248.01 3913.02 -3462.98
-3022.61 2540.69 -3122.91
-3148.91 3267.94 -3374.15
-2732.92 2979.6 -3506.66
-675.945 5230.01 -4060.59
-1217.79 5091.41 -4194.92
-1251.3 4033.53 -4173.21
-1222.06 4546.06 -4230.31
-753.878 4279.46 -4124.99
-1760.89 4883.23 -4213.73
-2253.55 4620.81 -4030.88
-1071.81 1338.44 -3542.28
-1039.51 1890.79 -3738.84
-518.567 1701.48 -3740.88
-2106.37 2544.8 -3553.89
-1560.91 2134.47 -3679.54
-2070.57 1761.55 -3373.58
-532.877 2844.06 -3896.28
-1050.62 2488.13 -3840.6
-1174.14 3266.99 -3915.48
-2282.46 3932.13 -4000.96
-1759.54 3669.41 -4096.05
-2275.55 3307.19 -3849.96
217.581 5852.14 -3322.7
-187.553 5499.16 -3724.2
[...]
POINT_DATA 642
SCALARS Mean_Curvature double 1
LOOKUP_TABLE default
0.000677039
0.000631495
0.000533917
0.000582978
0.000897753
0.000739095
0.000550965
0.000749699
0.000506528
0.000282749
0.000565542
0.000675587
0.000528496
0.000551946
0.000491313
9.29627e-05
0.000615706
0.000543132
0.000702647
0.000647294
0.000637165
0.000474238
0.000445901
0.000490051
-0.000197105
0.000294143
0.000449675
0.000233062
-0.000247575
-8.15768e-05
-7.16899e-05
0.000458563
0.000547191
0.000342802
0.000530686
0.000632925
0.000175138
0.00052977
0.00056188
0.00044674
0.00053509
0.000470506
0.000519954
0.000525719
0.000408146
0.00052007
0.000496383
0.000483174
0.000559853
0.000536798
0.000635151
0.000544818
0.000384566
6.09764e-05
0.00029055
0.000515084
0.000577709
0.000592804
-3.00175e-05
0.000830623
0.000517841
0.000590063
0.000630974
0.000168953
0.000242916
0.000528166
0.000456013
0.000652549
0.000535224
0.000677698
0.000596738
0.000404173
0.000357132
0.000441137
0.000158775
0.000555078
0.000509434
0.000457658
9.39572e-06
0.000359116
0.000491724
0.00050448
0.000479484
0.000483686
0.00076256
-7.78664e-05
0.000547561
0.000523147
0.00036404
5.51785e-05
0.000578999
0.000526618
0.000231419
0.000505945
0.00046592
0.000356591
0.000240565
0.000588327
0.000615516
-0.000269909
0.00096483
0.000754308
0.000251513
-8.27634e-05
0.000411452
0.000502801
0.000282859
0.000818626
0.000546964
0.000404755
0.000376377
0.00046787
0.000537635
0.000493154
0.000430591
0.00027309
0.000624369
0.000572274
0.00031626
0.000426037
0.000536649
0.00055425
0.000471033
0.000473764
0.000588471
0.000489193
0.000262029
0.000538977
0.000560035
0.000326595
0.00050243
0.000568175
0.000361055
0.000490739
0.000644696
0.000366244
0.000532131
0.000344003
0.000487889
0.000772105
0.000413589
0.000342296
0.000536678
0.000227686
0.000686317
0.000690571
0.000366594
0.000367152
0.000487382
0.000526845
0.000550448
0.000516752
0.000592488
0.000539683
0.000493983
0.000154941
0.000418218
0.000356597
7.9082e-05
0.000485026
0.000529229
0.000417761
2.67196e-05
0.00053537
-4.358e-05
0.000527747
0.000515162
0.00052316
0.000532043
0.000520929
0.000507434
0.000561192
0.000508214
0.000538721
0.00049336
0.000512832
0.000525661
0.000510463
0.000499387
0.000503194
0.00055054
0.000576512
0.000563272
0.000546374
0.00052498
0.000536732
0.000494887
0.000528438
0.000574431
0.000506971
0.000506628
0.000521434
0.000249562
-9.29391e-05
-3.94957e-05
0.000187748
0.000604498
0.000570803
0.000629022
-0.000256467
0.000621869
0.000632013
5.26361e-05
-0.000121046
0.000505632
0.000409748
0.000514837
0.000561114
0.000593083
0.000604809
0.000548683
0.00051617
0.000586413
0.000600386
0.000615261
0.000560106
0.000602142
0.000629228
0.000646171
0.000496581
0.000439155
0.000137788
0.000590225
0.00101509
0.000814092
0.000690069
0.0006654
0.00056484
0.000535917
0.000542772
0.000623092
0.000642683
0.000618235
0.000524096
0.000213127
0.000675873
0.00063354
0.000732511
0.000520096
0.000154176
0.000532094
0.000572221
0.000558389
4.7377e-05
0.000668039
0.000452261
0.000496149
0.000565224
0.000644161
0.000746843
0.000530874
0.000498747
0.000686526
0.000522637
0.000365694
0.000550063
0.000654601
0.000523511
0.00048933
0.000441759
0.000525295
0.000490785
0.000816995
0.000749197
0.000352165
0.000640129
0.000736532
0.000543158
0.000529472
0.000532118
0.00029189
0.000334625
0.000364233
0.000303566
0.000567064
-0.000106204
5.72408e-05
0.000324279
0.000265294
0.000418151
0.00061689
0.000533676
0.000536211
0.000603632
0.000535502
0.000486582
0.000585059
0.000263457
0.000556223
0.000273009
0.000568317
0.0004541
0.000210968
0.000559588
0.000233411
-0.000220403
0.000449552
0.000367364
0.000496274
0.000191812
0.000386138
0.000482161
0.000448732
0.000420679
0.000434768
0.000429914
0.000458584
0.000494548
0.000465255
0.000478445
0.000496856
0.000494194
0.000463076
0.00048642
0.000460025
0.000478908
0.000491033
0.000495192
0.000560689
-0.000181352
0.000507031
0.000626665
0.000372597
0.000648945
-0.000208505
0.000596764
0.000582167
0.000451042
0.000547287
0.000205919
0.000505157
0.000447747
0.000341407
0.000572649
0.000801532
0.000267509
0.000158153
0.000739621
0.000958702
-0.000215449
-9.26248e-05
0.000573075
0.000589906
0.000920871
0.000534084
0.000604542
0.000422041
0.000256255
0.000303313
0.000380457
0.000410973
0.000312272
0.000352297
0.000327437
0.000482827
0.000351682
0.000349618
0.000493254
0.000496889
0.000471074
0.000578197
0.000142341
0.00060855
0.000599312
0.00065318
0.000635696
0.000578824
0.000573644
0.000324797
0.000491779
0.000622966
-8.68378e-05
0.000432784
0.000566973
0.000277531
0.000677752
0.000382386
0.000758473
0.000952133
0.000651903
0.000665362
0.000548279
0.0011622
0.000390905
0.000304578
0.000491427
0.000661932
-8.70615e-05
0.000454677
6.21069e-05
0.000201655
0.000345997
-9.25981e-05
0.000551148
0.000823763
0.000606208
0.000152235
0.000308171
0.00052844
0.000498411
0.000826857
0.000450199
0.000614462
0.000677689
0.000619026
0.000577557
0.00054745
0.000585307
0.000526054
0.000532062
0.000497593
0.000428342
0.000503253
0.000546152
0.00017421
0.000164831
0.000431806
0.000319454
-4.36706e-05
0.000531548
0.000589541
0.000546135
0.000516831
0.000517124
0.000518004
0.000526337
0.000531623
0.000548054
0.000455619
0.000460958
0.000404267
0.000254658
0.000582592
0.000604789
0.000419631
0.000398933
0.00033331
0.000568151
0.000582519
0.00056102
0.000509796
0.000388424
0.000395118
0.000518489
0.00047165
0.000450092
0.000426594
0.000455998
0.000380746
0.000516782
0.000450958
0.000407223
0.000605872
0.000582158
0.000523601
0.000467044
0.000187706
0.000325022
0.000143214
0.000559587
0.000614039
0.000400947
0.000567689
0.000214099
0.000497311
0.000382342
0.000494293
0.000352198
0.000374588
7.5736e-05
0.000789339
0.000124933
0.000570462
0.000654552
0.0004905
0.00034752
0.000544072
0.00043783
0.000395249
0.000558399
0.00037364
0.000455027
0.000504122
0.000480535
0.000574744
0.000619405
0.000613641
0.000551874
0.000355668
0.000401367
0.000379892
0.000341025
0.000395225
0.000523672
0.000304468
0.000480408
0.000388895
0.000573527
0.000548657
0.000430521
0.00060036
0.000452808
0.000458546
0.000348983
0.000537028
0.00051194
0.000448466
0.000358213
0.000550729
0.000547657
0.000526397
0.000431534
0.00036659
0.000582256
0.000496992
0.000473114
0.000554716
0.000547141
0.000160538
0.00026336
0.000381774
0.000532183
0.000685931
0.000582294
0.000340309
0.000364777
0.000551319
0.000416205
0.000424236
0.00037897
0.000524515
0.000517892
0.000521723
0.000549861
0.000527343
0.000295578
0.000472356
0.000722011
0.000634821
0.000271299
0.000774095
0.000527845
0.000734292
0.000256059
0.000480506
0.000583836
0.000538289
0.000727142
0.00077962
0.00044894
0.000734776
0.000529506
0.000247378
0.000475596
0.000460818
0.000654822
0.000420249
0.00045017
0.000444063
0.00047453
0.000469788
0.00049648
0.000339328
0.00051234
0.000470997
0.000390382
0.000459689
0.00051461
0.000513991
0.000551817
0.000494025
0.000555627
0.000557726
0.000555628
0.000605212
0.000347797
0.000872658
0.000612175
0.000476875
0.0005913
0.00040688
0.000482534
0.000152675
3.69966e-05
0.000347304
0.000533064
0.000680013
0.000601113
0.000695788
0.000515202
0.000554091
0.000763495
0.000739306
0.00059438
0.000630924
0.000586425
0.000513581
0.000383043
0.000475538
0.000121443
0.000466301
0.000455678
0.000194721
0.000411377
0.000609933
0.000625905
0.000485426
0.000446871
0.000496348
0.000429711
0.000307133
0.000551079
0.000491611
0.000435577
0.000454888
0.000383619
0.00111496
-0.000575544
0.000248687
0.000476347
-0.000147384
0.000438726
0.000452543
0.000356539
0.000386528
0.000235506
0.000316175
0.000520284
0.000478926
0.000493582
0.000461999
0.000506352
0.000433013
0.000316945
0.000307913
0.000487427
0.000285838
-0.000243741
0.000409785
0.000545733
0.000489567
0.000494543
SCALARS CoVolArea double 1
LOOKUP_TABLE default
329433
243294
320368
315484
288195
271814
276736
280744
278723
296961
315819
298065
392076
375832
367181
357297
351198
348449
392174
396808
403939
390118
333094
319104
431355
374754
381609
419974
426753
430615
381382
339819
407479
390154
412814
415477
457133
385228
376311
338132
386743
356890
386850
393928
379819
369022
410003
380777
307096
380236
315842
380987
387626
392147
361814
326334
338049
312963
455255
351411
322734
369915
356724
440691
384536
445144
385812
367269
445021
357869
428358
365006
445172
401757
445881
415468
379167
364038
363632
330259
328495
324138
338929
325395
346766
382723
383287
387359
356156
461755
350671
418189
406858
359927
409931
391809
432162
369040
356117
408984
264705
338113
333652
447624
316171
346239
343075
298936
336376
329983
361194
312501
393126
434065
395970
369036
402510
350427
390121
422465
367155
434800
386765
392606
431451
386032
439878
393453
414033
390156
378042
418763
354866
406939
336479
416144
381875
333631
377351
321218
383385
341185
428737
352981
378801
394796
347001
375075
362466
341892
426990
413017
413822
360254
398864
408503
347355
348351
463175
365559
349349
367079
403333
384094
414729
400532
362468
366442
355883
350899
375150
361714
380533
367080
397233
375724
359735
372485
381181
408260
302010
315235
304013
367511
330460
320991
333743
337209
383532
451792
444959
436110
408263
400390
410625
384496
353263
360994
352293
357941
339340
358557
367775
377789
323443
381451
306551
312423
298180
352847
324270
326240
316470
298554
321725
418399
375009
389405
365681
356806
415092
393985
363283
361254
410164
299263
324375
366988
334052
325208
332406
367063
345481
371182
364142
409924
371334
357763
350869
391626
399427
469700
460512
505743
374507
379637
442519
393848
378868
386222
431222
346968
377294
430780
401382
374100
388862
434291
371199
363613
357218
428264
368419
358546
368193
373660
413438
501434
492774
499827
407992
434944
403822
399593
415974
410338
401598
427481
405609
376292
376841
419784
384177
360227
409279
387087
372809
387289
407351
500397
479877
475734
353640
306766
384861
371118
320424
357443
331311
362962
359071
333499
308332
308260
342574
365501
342469
326923
342244
333108
314073
304642
314284
317194
339793
382105
372633
370603
334989
360277
371624
315455
363021
339811
389954
354598
363623
430352
366937
405840
364110
393419
343180
357127
339223
415711
405845
340563
365880
421909
472370
408815
448913
418140
383863
361652
407126
391151
404851
400571
434286
386108
388693
411911
370396
367236
372177
398888
390657
387454
374655
442792
391806
384358
349600
373966
404602
455634
472395
477773
373721
390061
401803
351059
395211
349272
400405
308501
323073
355385
286526
320890
334098
392448
329898
326667
310173
462958
392185
373902
380288
384787
436703
403030
409367
427607
391197
345140
352631
353660
327107
340014
321291
281749
301780
349973
295846
323119
321631
351616
307404
326312
312483
334438
350430
334321
337520
347938
390015
384203
385027
374162
385766
398947
381770
423517
396514
385796
389959
401312
431352
357857
358143
342813
405711
365470
364656
368857
360966
409997
366770
386215
365309
423202
389013
385726
359029
377840
412685
471694
466600
480975
388474
372794
428444
394418
409869
401924
465411
361543
382450
434005
393186
397551
390301
431055
382518
394554
397097
464408
394103
407674
381454
387227
427394
484862
487201
498129
390736
377934
432884
391739
370546
383473
400048
368565
383527
404591
387934
376330
395959
437471
345499
356633
338166
397546
364369
344747
343057
358065
391546
467836
458042
463499
387203
379329
405724
387762
369090
379578
401653
328029
351741
357272
335321
316775
343852
382569
343563
345291
336656
386817
334393
334608
326259
341819
363798
452095
434426
453225
395460
416951
389908
394467
425998
344690
338719
358447
333213
342399
327882
397762
344522
349802
417618
362314
332046
337399
357701
464903
434526
470153
372830
384104
359330
346596
357847
354867
351752
331593
353613
380821
370611
359396
344210
321156
345035
411536
395071
400478
402165
425236
394408
390484
415038
385176
388623
359988
397945
426686
407194
419826
424206
421864
420304
475312
449142
460044
330685
392228
331088
317376
372341
374704
386341
364957
377855
409277
386618
418944
396225
367971
403300
438300
440160
423904
319445
348251
319622
322393
386546
318206
405785
320919
324321
351935
283641
442535
352344
325491
450245
386642
444857
454486
354620
386955
356018
331241
337509
333441
353149
312592
344012
382363
343398
339559
363095
366007
380423
404864
383718
379971
SCALARS SignedDistance double 1
LOOKUP_TABLE default
2148.3
2632.5
1713.5
1716.88
2078.29
2849.71
2413.77
2416.2
2557.88
2304.05
2428.37
1813.55
1838.4
2123.78
2402.23
2864.49
2146.05
2263.59
1783.29
1987.84
1783.2
2015.23
2589.86
2638.3
2250.67
2481.98
2170.85
1959.6
2924.07
2609.12
2778.43
2999.87
1725.37
2161.72
1753.78
1681.97
1994.57
1977.99
2015.51
2548.49
2008.31
2380.77
2041.18
2064.95
2335.51
1889.25
1900.63
1793.74
2613.73
2248.02
2510.57
2359.5
2149.23
2872.16
2734.04
2361.95
2517.48
2750.25
2105.23
1940.22
2337.15
2093.5
2021.59
2134
2346.24
1550.34
1865.06
2027.3
1612.07
2077.21
1718.9
2130.81
1952.01
2206.34
2095.99
1873.62
1904.58
2751.66
2819.41
2715.42
2727.31
2474.86
2590.4
2448.43
2497
2731.94
2034.56
2109
2261.89
2456.11
2265.13
1910.97
1956.11
2237.13
2070.27
1779.41
1980.82
1816.99
2467.7
2556.82
2751.93
2491.59
2515.4
2768.5
2656.32
2564.11
2766.63
2719.57
2546.3
2758.09
2902.65
2677.27
1630.77
1743.04
1733.28
2239.82
2012.98
2048.11
1878.46
1957.26
2110.68
1894.53
1918.58
1799.85
1732.67
1910.77
1891.27
1681.98
1919.25
1887.84
1858.91
1892.2
2252.81
2031.65
2238.61
2054.72
1783.21
2488.09
2279.8
2384.9
2350.69
2557.08
1730.28
2432.79
2143.64
1972.99
2318.95
2304.44
2390.32
2567.33
1669.79
1851.77
2099.63
2342.19
2061.68
2374.41
2754.22
2660.91
3016.2
2502.44
2570.79
2711.29
2140.64
2170.28
2267.79
1931.14
2033.31
1915.32
2351.76
2184.35
2225.26
1828.04
1812.08
1782.21
1983.22
1880.65
1979.44
1803.52
1826.28
1854.22
2724.07
2563.86
2683.36
2327.58
2429.7
2501
2302.79
2363.81
2182.86
1964.78
2045.86
2131.77
2259.31
2217.78
2468.79
2362.67
2106.37
2235.38
2222.42
2865.28
2812.28
2810.68
2863.02
2865.4
2713.05
2621.18
2495.25
2564.94
2692.79
2319.49
2430.02
2239.81
2822.51
2639.86
2712.7
2544.99
2621.8
2410.96
2222.8
2049.79
2045.6
2104.15
1796.53
2131.14
2016.88
2487.64
2351.06
2156.34
2203.89
2278.54
2215.75
2116.74
2200.81
2308.11
2457.17
2046.56
2159.75
1880.88
2283.6
2213.48
2157.1
2001.9
2052.96
2096.13
1870.07
1989.31
1584.79
1675.54
1796.77
1711.07
1613.88
2209.73
1982.02
1739.52
1761.56
1938.18
1775.34
1620.74
2235.75
2083.09
2264.68
1682.16
1899.99
1892.8
2029.41
1956.35
1843.74
1518.99
1599.33
1549.25
2040.95
1912.82
1953.92
1968.83
1872.21
2344.9
2260.62
2024.27
2150.35
2087.88
2140.83
2004.33
1812.9
1818.39
1803.74
1809.53
1926.08
1869.91
1922.59
1986.18
1940.05
1852.41
2835.58
2794.64
2825.22
2831.49
2712.92
2774.11
2696.97
2799.52
2780.7
2663.69
2720.13
2657.83
2780.53
2795.41
2386.62
2453.14
2374.47
2607.82
2534.57
2558
2520.1
2522.51
2584.59
2734.44
2661.38
2672.24
2685.88
2823.61
2296.56
2505.98
2612.54
2689.11
2630.13
1905.61
1926.43
2210.55
2066.3
2167.71
1985.19
2090.23
2237.88
2329.06
2144.82
2463.79
2330.54
2414.85
2351.61
2345.49
2330.44
2240.1
2315.63
2518.12
1921.09
1898.59
1971.36
1942.92
1936.88
1928.97
1924.59
2346.32
2236.02
2080.8
2144.25
2168.05
2154.98
2071.35
1710.03
1773.24
1720.68
1937.45
1867.03
1891.14
1978.68
1880.06
2061.9
1970.34
2006.42
1937.39
2385.51
2484.22
2200.19
2287.89
2631.6
2550.39
2698.77
2577.72
2426.98
2729.33
2601.2
2829.27
2305.12
2182.96
2456.36
2563.09
2547.01
2708.25
2621.27
2577.35
2722.47
2666.95
2845.54
2427.61
2684.1
2657.41
2534.93
2660.06
2400.75
2443.27
2860.37
2633.25
2770.07
2676.68
2524.14
2700.35
2602.08
2771.17
2430.22
2395.27
2661.32
2717.08
2621.01
2963.67
2847.88
2890.9
2729.68
2787.44
2829.64
2536.51
2693.91
2719.6
1665.69
1666.55
1702.96
1706.46
1662.01
1643.72
1731.07
1720.76
1767.05
2272.6
2193.96
2234.76
2139.28
2161.75
2201.46
1882.39
2027.04
1847.9
1961.58
1977.53
2081.36
1834.97
1909.1
1812.92
2131.72
2023.45
2073.72
1837.35
1992.56
1864.84
1814.88
1792.92
1761.79
1794.31
1972.87
1925.99
1963.84
1896.36
1809.66
1720.66
1719.04
1762.48
1797.63
1774.22
1787.52
1748.91
1710.85
1967.52
1889.73
1978.23
1637.15
1812.07
1757.53
1804.74
1778.41
1927.85
1862.9
1811.67
1972.38
1915.56
1931.5
1869.19
1923.83
1750.73
1849.4
1890.19
1857.94
1911.97
1918.97
1972.26
2330.63
2238.9
2346.26
2065.22
2146.6
2138.56
2084.13
2125.18
2007.86
1924.06
1940.32
1971.58
1851.29
1732.74
2025.83
1960.04
1875.91
1928.04
2030.6
2447.14
2377.55
2421.6
2406.36
2534.45
2275.74
2149.64
2462.35
2479.68
2557.99
2204.37
2379.32
2179.97
2551.88
2472.48
2460.53
2156.23
2297.51
2191.05
1676.28
1836.82
1731.7
1649.95
1683.21
2486.87
2419.35
2266.93
2337.7
2397.17
2260.35
2031.07
2197.93
2304.92
1818.56
1982.55
2351.36
2180.73
2201.54
1887.96
2026.7
1777.15
2184.76
2234.02
2214.57
2283.12
2404.65
2344.44
2499.21
2424.34
2313.03
2274.29
2742.7
2536.16
2647.2
2657.1
2592.19
2339.09
2477.15
2433.17
1713.64
1615.57
1628.78
1715.57
1806.09
1988.83
2128.45
2077.88
1879.47
1707.74
1990.74
2014.09
1983
2069.7
2198.17
1708.86
1937.22
1828.41
2416.12
2130.27
2257.67
2490.89
2589.42
1797.48
2091.55
1924
1930.77
2018.36
2381.68
2512.63
2439.01
2291.71
2256.25
2204.83
2284.75
2468.91
2664.78
2650.73
2664.99
2763.1
2865.48
2565.98
2747.08
2658.35
2586.08
2622.16
2853.99
2970.82
2957.76
2939.89
2990.32
2719.85
2791.6
2842.17
2377.65
2403.3
2390.53
2484.72
2574.36
2558.71
2673.45
2623.02
2495.12
2442.22
2823.88
2686.99
2771.27
2791.41
2745.87
2530.92
2639.59
2618.91
