# vtk DataFile Version 4.2
vtk output
ASCII
DATASET POLYDATA
POINTS 642 double
-60.4369 146.806 88.8351
118.902 147.35 86.7978
-53.8847 -191.025 79.2271
113.456 -190.63 79.5043
30.68 -107.941 205.997
32.1563 91.6424 233.521
30.5083 -109.739 -56.0262
31.3469 75.4282 -47.7977
140.807 -11.6033 9.09981
152.582 2.47422 167.233
-81.2987 -14.5719 5.47331
-96.0258 0.391107 163.642
-103.774 86.0319 140.059
-51.7944 47.0301 221.897
-24.4553 148.686 179.674
86.0307 147.261 179.828
30.5541 181.395 88.5773
81.6862 136.338 1.79084
-21.0153 137.105 1.88239
-37.6611 40.1589 -37.1612
-89.8017 81.5884 41.4985
-109.909 -9.6508 103.675
111.907 48.0679 223.114
163.687 83.3295 139.46
-35.6743 -64.9805 197.792
28.6692 3.68619 248.592
-70.4124 -125.137 48.6297
-79.7121 -112.007 128.167
28.2096 -18.1803 -86.8656
-34.0591 -76.8785 -43.152
150.394 83.3007 42.8699
97.2433 44.2324 -36.4442
140.519 -108.156 129.844
96.3522 -65.1025 198.786
72.9384 -183.049 153.527
-12.9685 -188.599 154.344
29.6885 -218.352 90.6767
-21.3549 -183.998 15.7179
76.9779 -180.524 16.627
90.5879 -76.7565 -40.7426
123.928 -113.578 46.6612
168.144 -9.88329 94.2182
-89.6016 120.753 117.211
-73.7483 120.543 162.051
-47.923 154.467 135.821
-78.6771 24.7837 197.522
-83.9678 72.5431 183.772
-102.383 41.8884 158.238
2.73789 125.115 213.619
-42.6028 103.56 205.881
-10.5591 72.4639 233.836
-0.00876366 173.321 140.032
-19.6292 170.87 85.5496
59.8381 123.806 215.231
29.5341 158.362 185.521
80.6627 170.961 86.855
61.0586 173.461 139.234
106.971 154.613 136.118
0.219563 167.905 38.548
-43.0267 150.277 42.039
104.402 148.796 41.9668
59.3658 167.75 38.209
3.58266 112.15 -27.6918
30.4776 144.199 -1.63623
57.3613 111.72 -28.0576
-62.6396 114.972 16.3561
-81.8024 117.739 63.3399
-3.46402 60.6574 -49.1493
-34.3099 95.4066 -22.708
-86.7096 38.9498 22.6328
-67.8058 68.3364 -2.51165
-63.4764 14.2582 -16.988
-104.521 88.821 93.285
-94.5148 -5.49801 47.7303
-104.818 44.317 66.5855
-106.546 46.4075 119.325
-113.872 -11.3199 127.532
132.22 120.193 163.647
147.255 118.038 117.836
73.5722 74.8776 234.824
103.476 103.703 209.197
161.927 43.3846 156.99
142.957 71.076 185.154
137.461 25.8222 199.244
-8.46132 22.2345 246.448
30.9431 40.0601 250.428
-71.7492 -25.4995 187.894
-47.789 3.49001 221.04
29.7794 -48.3129 228.725
-5.59602 -22.8416 233.967
-7.46137 -93.9033 208.422
-103.079 -49.1184 116.756
-95.5224 -48.0263 145.187
-78.6732 -59.165 15.7467
-87.9001 -63.0593 68.3362
-65.9474 -162.063 99.1717
-82.6662 -126.976 80.3913
-69.0843 -164.232 59.6754
-30.7725 -19.9913 -52.9991
-60.0264 -46.5438 -20.56
29.6548 17.9328 -75.9041
3.38292 -2.82319 -75.8104
-2.93764 -96.6131 -56.8551
2.12761 -36.7482 -74.1714
28.8945 -59.961 -69.0472
95.1606 94.8936 -23.0568
65.6271 62.2322 -49.9371
142.923 117.032 60.9802
123.956 114.539 16.4202
122.431 18.7385 -14.5635
127.672 68.5774 -2.72916
147.137 38.9311 23.1566
122.47 -161.21 95.6613
110.437 -148.888 141.6
95.0434 -192.634 118.789
129.453 -23.4946 190.166
124.568 -96.7545 167.119
148.286 -54.2283 143.569
53.4976 -150.027 177.914
91.9217 -121.557 183.791
68.1799 -94.3036 208.136
53.4326 -214.511 127.504
81.2966 -214.362 81.2758
5.8906 -155.395 174.239
25.3818 -194.623 160.102
-20.0332 -214.442 84.4567
1.28885 -219.112 128.869
-36.7498 -196.79 122.658
61.1742 -210.487 41.9241
99.9732 -192.436 48.1927
-42.4886 -194.975 43.5032
-4.4012 -211.412 40.9502
51.9351 -134.794 -35.1003
29.2018 -185.973 11.857
7.01309 -135.776 -33.739
106.116 -160.71 33.1686
122.157 -167.716 66.2497
60.6437 -97.9316 -56.3799
82.3407 -117.539 -29.793
139.501 -58.734 18.462
116.875 -88.0541 -7.72304
118.718 -45.1222 -16.6259
138.977 -122.253 88.034
154.927 -2.39501 49.5764
150.25 -54.3598 71.1398
160.327 -51.6115 110.794
167.183 -5.93372 128.318
67.1527 -24.6265 232.294
110.069 4.69328 221.119
70.3051 25.5443 244.402
-49.928 -155.703 139.123
-31.4372 -123.808 182.244
-64.5358 -97.2824 168.158
-25.7919 -119.054 -28.5574
-54.4088 -163.135 31.152
-58.4589 -90.1638 -10.4697
89.3572 -18.6918 -49.8476
55.1219 -37.296 -71.7262
55.1062 -0.155402 -73.7827
167.624 47.5786 119.498
165.83 43.7702 68.4717
165.612 86.003 89.3897
-76.7246 135.309 104.219
-71.8098 138.566 127.091
-56.3875 151.227 112.003
-92.5949 102.866 150.769
-84.0104 121.502 139.782
-98.9764 103.798 129.163
-36.9992 153.735 158.191
-61.7912 139.007 150.287
-50.0588 136.511 171.999
-89.3925 13.4341 181.754
-92.6926 32.6609 178.637
-100.697 17.4336 163.854
-68.4154 60.1709 204.43
-81.1149 47.7371 192.715
-66.4712 35.8356 211.537
-102.99 67.8554 148.942
-94.3127 59.8446 170.243
-96.2234 80.8447 161.581
17.8318 108.436 226.452
-4.99607 101.276 225.142
10.883 83.3851 234.731
-34.5024 128.098 194.55
-20.3554 116.42 210.897
-10.9311 139.027 198.195
-32.0303 59.9655 229.175
-27.5057 89.4201 221.01
-48.3446 75.6823 214.872
-81.5577 97.1704 174.159
-66.1254 88.0578 196.091
-59.7661 114.215 185.704
-34.0359 164.518 114.217
-41.7651 159.932 86.57
-13.0411 164.265 161.793
-24.4678 166.904 139.796
5.98042 177.044 87.2837
-8.62939 173.596 114.596
16.5636 180.066 112.684
45.4335 107.736 226.974
30.665 126.429 214.751
58.9655 155.162 184.042
45.193 143.154 200.174
73.0345 137.137 199.26
15.0903 144.196 200.08
1.73719 156.22 184.366
101.896 160.461 87.0437
94.0472 164.997 113.901
113.623 151.7 111.522
44.5646 180.08 112.591
69.7038 173.626 114.431
54.8054 177.148 87.8357
97.6746 153.124 157.992
85.1636 166.957 139.188
74.2211 163.881 160.877
14.3802 169.757 165.907
45.5328 168.933 165.131
30.2584 174.528 139.407
-32.0858 163.85 60.8398
-51.9989 150.666 64.2039
14.9322 174.764 62.3507
-10.2816 172.293 60.2853
-33.0195 145.55 21.4938
-22.0189 161.396 39.5962
-11.1158 154.745 19.3727
112.891 149.683 64.572
92.7936 162.608 62.3699
71.0458 154.128 19.0754
82.0423 160.057 39.4254
94.0194 144.379 21.1695
69.9489 171.403 61.3058
45.2993 174.895 62.5172
17.7898 94.6929 -37.9297
30.64 113.409 -27.6953
44.0166 94.2667 -38.2433
2.67759 142.922 -1.50462
15.6101 129.68 -15.675
-8.59737 125.581 -14.7897
69.2349 125.119 -14.9466
45.233 129.625 -15.76
57.7192 142.8 -1.63133
30.3484 169.845 37.073
45.0749 159.05 16.791
15.4814 159.058 16.8985
-63.5265 135.595 49.5218
-71.973 133.75 76.4862
-43.4399 127.745 8.00836
-54.3963 133.345 27.2328
-87.3242 100.467 51.8016
-72.5985 117.802 36.9303
-77.5065 99.3771 27.221
13.0148 68.3105 -50.6878
-2.61314 89.0982 -37.7173
-36.2684 70.9896 -29.1983
-20.6112 81.1972 -34.9241
-19.8692 51.6905 -44.318
-16.6886 105.06 -26.3
-28.9118 116.878 -12.4217
-83.0176 9.51108 12.4096
-76.739 27.7256 -0.447071
-74.1561 -1.66331 -6.03879
-79.7425 76.9025 17.1781
-78.292 54.839 9.04722
-89.4721 62.1931 32.4797
-53.0956 27.7461 -28.4256
-66.74 42.0944 -11.2965
-54.3302 55.6513 -20.3892
-49.4987 106.288 -4.87846
-52.6751 83.2767 -13.6038
-66.7669 92.5379 5.4492
-88.9537 119.828 92.4647
-99.8224 85.3193 67.9573
-96.289 102.615 79.8235
-99.9542 104.399 105.905
-105.151 89.1275 118.118
-87.9983 -11.9645 21.0476
-92.6381 16.454 36.311
-107.602 16.3887 80.0785
-103.362 20.2021 60.4955
-104.539 -3.42414 75.9231
-98.0496 43.4458 47.7767
-100.035 63.9331 56.0241
-105.934 14.2578 144.806
-106.514 -5.89985 146.129
-106.016 70.9317 130.577
-106.195 46.3011 139.375
-114.535 -12.452 118.607
-110.492 7.83157 126.208
-108.706 7.39874 108.362
-105.877 68.9897 78.8798
-106.848 46.2649 90.0346
-106.153 72.6399 105.854
128.507 137.484 128.574
133.103 133.922 102.159
110.802 135.738 173.287
120.852 138.642 151.67
157.831 101.17 129.959
141.8 120.098 141.522
150.601 101.772 151.27
53.4395 84.1044 236.117
68.9536 100.636 227.302
107.811 77.705 216.972
89.7057 90.7328 224.167
92.9686 62.6513 230.251
83.3869 115.099 213.795
96.5847 126.824 196.788
158.353 21.7714 163.795
150.995 35.4661 178.934
146.473 14.6901 183.281
155.097 78.4721 161.823
154.843 57.7563 171.068
164.131 64.5333 148.386
126.608 35.8165 212.506
141.273 47.5782 193.752
128.096 60.4435 205.954
119.501 114.142 188.08
124.662 88.7727 198.344
139.347 97.0801 175.629
9.83608 54.7892 245.318
31.8631 66.501 242.482
-31.0742 34.1712 235.013
-10.6781 43.4909 242.081
29.6343 20.2758 251.564
9.67441 29.3565 250.683
10.1957 12.8941 250.422
-85.4872 -11.8539 175.949
-75.7853 3.25289 195.197
-43.8648 -24.6053 214.117
-60.0743 -10.3786 206.319
-54.9925 -43.5862 195.951
-63.8336 15.4312 211.403
-50.9981 24.6416 223.829
30.5669 -85.7253 212.786
12.0393 -71.7825 215.2
10.7167 -102.382 208.553
11.2382 -7.99157 243.702
11.9981 -34.0557 234.001
28.8467 -18.775 240.173
-21.4882 -83.4365 206.652
-7.52369 -57.4858 217.229
-23.1267 -42.3799 218.484
-29.3702 13.8432 235.165
-26.7614 -10.016 229.816
-6.93331 3.29599 242.779
-107.22 -26.2826 135.604
-98.5163 -24.4256 154.001
-109.954 -23.5692 115.465
-111.174 -24.2101 122.095
-82.5528 -80.2653 137.498
-102.198 -48.3692 128.705
-87.2638 -80.2821 119.282
-80.722 -33.974 9.46746
-87.1233 -34.2343 27.5709
-79.8632 -97.541 55.5204
-83.8567 -61.5788 36.1493
-76.6346 -86.3642 27.1466
-93.5454 -29.1176 56.5986
-103.28 -25.3307 89.9633
-60.1998 -179.053 89.2449
-70.4313 -163.178 76.5615
-63.4091 -179.247 67.7278
-81.8277 -121.086 101.715
-77.7223 -142.779 87.4404
-73.6271 -137.941 111.608
-71.1316 -149.889 56.2132
-77.4681 -146.093 70.2568
-80.6185 -129.864 68.3979
-96.6434 -57.3653 99.8195
-83.4691 -102.667 77.7441
-85.2269 -91.9525 94.4063
-63.0788 -17.3106 -20.6372
-72.9415 -28.4205 -7.0933
-32.2219 4.23167 -45.1092
-48.6574 -4.90498 -33.5898
-47.983 -63.4496 -33.1293
-47.5972 -32.9682 -36.2397
-32.8458 -44.7367 -47.2433
30.5771 47.1395 -60.8957
16.4631 35.626 -64.8212
16.9124 -11.6868 -84.0733
17.7123 6.59358 -78.0185
28.6283 -4.41705 -83.1322
1.53219 25.926 -63.2158
-13.2274 16.0761 -57.4661
13.3729 -104.526 -58.2572
11.8975 -82.3616 -64.4197
30.3983 -93.4064 -62.6024
-15.0235 -59.8286 -57.485
-0.957267 -71.231 -62.8296
-18.7838 -88.0598 -51.9505
28.1698 -29.0983 -83.8737
13.7733 -45.2769 -75.4014
16.8752 -24.1266 -84.2276
-13.192 -11.6329 -68.1376
1.99726 -18.1455 -79.6671
-13.9571 -26.9332 -67.2411
63.845 88.2739 -38.9296
49.3804 68.8454 -50.8865
90.0476 116.277 -12.6248
[...]
POINT_DATA 642
SCALARS Mean_Curvature double 1
LOOKUP_TABLE default
0.0085961
0.010579
0.0226303
0.0434858
0.0104269
0.00643279
0.012497
0.0031684
0.01885
0.00803516
0.0182419
-0.00750327
0.0295992
0.0164764
0.0153388
0.0128475
0.0206641
0.0125936
0.0139897
0.00848838
0.0080001
0.0136992
0.0144808
0.0262268
-0.0193751
0.0153715
-0.0107443
0.0159238
0.0708429
0.0117218
0.00882161
0.0101689
0.0218079
-0.0148243
0.0236344
0.0243588
-0.0121511
0.0269823
0.0179353
0.00914862
-0.0135028
0.0182247
0.0169112
0.0142345
0.0137803
0.0142932
0.0154312
0.0156552
0.0146382
0.0108592
0.00850435
0.0123442
0.0112828
0.0155328
0.0164647
0.0135489
0.0136373
0.0150059
0.016616
0.0140446
0.0136778
0.0185382
0.0168014
0.00719517
0.0167826
0.0170611
0.00996918
0.00998912
0.0182098
0.00403393
0.0101002
0.000542117
0.0220402
-0.00217015
0.0135514
-0.00163239
0.0422853
0.01457
0.0110286
0.0102548
0.0148915
0.0109265
0.0122372
0.0141838
0.026296
0.0153153
0.0069137
0.00928347
0.0110729
0.00926481
0.0178539
0.0304332
0.0145711
0.00866138
-0.00501303
0.00621268
0.0240359
0.0295105
0.0144228
0.00529169
0.0323831
0.0141338
0.0214088
0.0122646
-0.00922942
0.0176108
0.0175258
0.0130397
0.0180015
0.00183041
0.00941207
0.00680636
0.0035526
0.00644663
0.0183872
0.00812093
0.0160608
0.00166451
0.00382063
0.0150531
0.0180389
0.0192305
0.0285489
-0.001161
0.029548
0.0145425
0.0321493
0.0241245
0.0244368
0.0208814
0.0248618
0.0226257
0.021192
0.00552695
0.0188551
0.0129804
0.0272422
0.0265356
0.0124648
0.0174373
0.0137904
0.00355594
0.0200702
-0.00109198
-0.00685451
0.0145948
0.0172662
0.0102498
0.0117979
0.0163686
0.00389542
0.0136994
0.0178153
0.0128804
0.0187522
0.0129765
0.0108584
0.00962503
0.0146648
0.000210983
0.0153217
0.0265641
0.0154047
0.017029
0.00988201
0.0177073
0.0148554
0.0208663
0.0132919
0.0118472
0.0139175
0.0164945
0.0136905
0.0260241
0.0116732
0.00876886
0.0190724
0.0134287
0.00683884
0.0196992
0.0171297
0.0142073
0.0060137
0.0135111
0.0122935
0.0156005
0.00922504
0.00930726
0.00989226
0.0148046
0.0119913
0.0140659
0.0104828
0.00865594
0.0169524
0.0187601
0.00634576
0.00661389
0.0166295
0.014267
0.00777739
0.0153883
0.0105473
0.0131193
0.0139093
0.017773
0.0129858
0.0132704
0.00820512
0.0166905
0.00667188
0.00678088
0.0126757
0.0199913
0.0169916
0.0226408
0.0182787
0.00143893
0.0194342
0.0134482
0.00538844
0.0205344
0.013585
0.0160078
0.0145189
0.0127782
0.015752
0.0139927
0.0126956
0.0134501
0.0157552
0.00694734
0.00723979
0.00730507
0.00649017
0.0155713
0.0117104
0.015271
0.0144019
0.012141
0.0164057
0.0151696
0.0159379
0.0149646
0.013629
0.00593467
0.015211
0.0165659
0.00884948
0.0155482
0.0131122
0.0144807
0.00980957
0.00642388
0.0125158
0.00523389
0.0168443
0.0151158
0.00131087
0.0162134
0.0128464
0.0145771
0.00748896
0.00600404
0.016831
0.0119031
0.00917712
0.0156563
0.0134794
0.0150543
0.0164774
0.0157387
0.0137839
0.019492
0.0212364
0.0148771
0.0018774
0.0136882
0.013895
0.00784837
0.00642139
0.0127097
0.00259516
0.0214411
0.0101652
0.0109258
0.0581176
0.0136385
-0.00526691
0.0172906
0.00291673
0.00355682
0.0112782
0.0054327
0.0153133
0.0144661
0.0195592
0.0147988
0.0149921
0.011514
0.016766
0.00907651
0.0182892
0.00871192
0.0157369
0.0156116
0.0134678
0.00937103
0.011211
0.0124821
0.0149811
0.0184679
0.0176383
0.0135359
0.0114379
0.0161995
0.0111608
0.0123469
0.0149721
0.00589158
0.0136756
0.0093144
0.0175571
0.0208256
0.0283666
0.00342957
0.00872067
0.00999516
0.00805431
0.0125684
0.0126146
0.0191539
0.00609195
-0.00584767
0.0188896
0.013021
0.0136649
0.00574283
0.0252018
-0.00153823
0.0131512
0.0141446
0.00948346
0.0121396
0.0160408
0.013248
0.00222342
0.0412521
0.00258352
0.0218093
-0.000606886
0.00959254
0.00857755
0.00209117
0.00522708
0.0118433
0.000231782
0.0027222
0.0117602
0.0148706
0.0294628
0.0125135
0.0150397
0.00876033
0.0090943
0.033996
0.0248358
0.00242212
0.00790846
-0.00467902
0.0115458
0.0142895
-0.00438588
0.00463866
0.0133046
0.00918462
0.00108887
0.00999402
0.0118205
0.0361128
0.0168193
0.0263421
0.00913973
0.00267265
0.0254417
0.0196699
0.0125897
0.00146432
0.00788684
0.0206004
0.0269877
0.0192127
0.0378944
0.0211617
0.0441471
0.0164875
0.0123428
0.0141879
0.0154389
0.016122
0.00998005
0.0119456
0.00937676
0.0106796
0.0149045
0.0151055
0.0160409
0.0106293
0.0170128
0.0155558
0.00773895
0.0121203
0.00282394
0.0135738
0.0144488
0.00904891
0.00486573
0.0116436
0.00878742
0.0165853
0.0162217
0.0116962
0.033112
0.00742365
0.0227173
0.0132472
0.00437822
0.0133517
0.0249726
0.0090785
0.00598221
0.00653621
0.00460255
0.00736001
0.0247745
-0.0188138
0.0123072
0.0124109
0.0104208
0.0190584
0.00773885
0.016906
0.0194892
0.00111209
0.010242
0.013357
0.0224163
0.0159947
0.0153857
0.0162299
0.0186867
0.0118115
0.0144998
0.0328334
0.0237904
0.0245614
0.0160029
0.0081169
0.0346464
0.00738662
-0.00527523
0.0405104
0.0127288
0.016867
0.00481927
0.022273
0.0157147
0.0167159
0.0221732
0.0364463
0.0291688
0.0026312
0.0242343
0.0259981
0.0277088
0.018837
0.0230154
0.0241181
0.0253911
0.0254984
0.0172935
0.0216167
0.0214227
0.0219664
0.0219435
0.0252794
0.0257233
0.0281262
0.0288382
0.0261608
0.027926
0.0152562
0.0220359
0.0088616
0.0208406
0.0195418
0.00304881
-0.00133243
-0.0083049
0.00183978
0.0200507
0.0129496
0.0123638
0.017974
0.0363006
0.0520625
0.0158058
0.0308473
0.0015621
0.0166731
-0.00725242
0.0296087
0.0260391
0.0176105
0.0223541
0.0167191
0.0166891
0.00769459
0.00340633
0.00981772
0.0104218
0.012684
0.0146603
0.0130084
0.00867801
0.0104905
0.014122
0.00208599
0.0108431
0.00890321
0.0285328
0.00839482
0.0126693
0.0122118
0.0189735
0.0126506
0.00599409
0.0173639
-0.00277445
-0.00364054
0.0124496
0.00258247
0.0168421
0.00173148
0.00095316
0.0139468
0.0105142
0.0252102
0.0261743
0.00623471
0.0168013
-0.0020222
-0.00525625
0.0145393
-0.00139528
0.00944142
0.0100963
0.0117995
0.0233146
0.0179668
0.0095794
0.0108651
0.0123378
0.0228841
0.023132
0.0112399
0.0203229
0.00981818
0.0131172
0.00476596
0.0218491
0.00825505
0.0157746
0.0043612
0.00898546
0.0160655
0.0135664
0.0140875
0.0083128
-0.00179687
0.00998382
0.022757
-0.00428763
-0.0105684
0.022837
0.00892028
0.0178109
0.0158082
0.0219861
-0.00336088
0.0155476
0.0192319
0.0197736
0.0285164
0.00721633
0.0278239
0.0284202
0.0196701
0.00624102
0.0172862
0.0122127
0.0126434
0.008188
-0.0040442
0.00452592
0.0130659
0.0134068
0.00900519
0.00402025
0.00439217
-0.00299982
0.0258217
0.0345333
0.0152839
0.00413445
0.000333953
0.010403
0.00333172
0.00827192
0.0179126
0.0275142
0.0133994
0.0365246
0.0149875
0.0205874
-8.38107e-05
0.00886676
0.014548
0.0149632
0.00440845
0.00325693
0.00647869
0.0138276
0.0208148
0.0128832
0.022198
0.00984898
0.021108
0.0222584
0.00486621
0.0177805
0.00537917
SCALARS CoVolArea double 1
LOOKUP_TABLE default
453.857
447.918
298.16
189.776
411.991
439.219
240.657
448.616
346.909
364.462
315.814
363.681
396.175
567.027
625.764
650.254
671.218
558.252
549.091
738.87
533.229
426.805
560.388
429.941
786.539
402.529
711.415
656.85
156.459
501.556
498.594
646.349
468.382
731.113
458.179
403.655
748.889
474.447
534.414
529.311
1015.75
444.581
497.905
639.507
613.342
447.763
582.412
526.371
598.099
681.456
656.175
710.836
690.947
613.015
643.533
666.332
710.076
592.834
624.056
530.62
553.458
626.772
510.117
625.662
511.233
517.588
586.94
609.16
490.352
620.042
522.862
561.059
443.207
701.883
530.47
753.969
278.826
620.599
604.376
578.759
609.235
451.882
611.551
428.848
431.579
523.094
727.802
530.045
698.894
627.495
524.042
484.562
579.186
536.676
1145.87
512.819
391.256
281.183
559.833
532.793
387.37
416.473
368.893
459.345
576.766
494.527
544.239
534.164
501.592
590.337
510.309
586.208
499.875
698.079
462.21
704.725
502.547
706.839
685.703
595.106
501.043
545.55
490.533
658.084
403.005
583.351
425.056
412.721
534.346
387.064
376.657
529.196
574.524
750.006
650.08
551.002
201.719
319.457
640.422
421.009
566.111
560.965
529.338
724.302
875.826
469.32
438.93
693.322
482.055
472.188
695.264
670.768
552.214
715.941
517.898
629.089
608.226
507.669
454.191
615.255
500.41
426.471
538.553
574.969
597.102
532.554
545.907
440.489
599.149
607.023
665.065
430.915
499.197
426.778
610.024
535.853
456.567
425.575
523.278
488.744
560.808
607.366
598.125
658.957
604.631
582.739
640.359
646.686
678.465
652.87
712.11
727.864
689.203
619.482
627.227
621.86
675.973
708.386
716.087
554.453
643.301
663.602
645.555
615.593
613.233
611.24
575.946
636.471
599.53
707.824
676.102
665.703
588.8
598.509
649.085
728.209
751.01
821.967
562.657
561.406
713.816
596.634
528.972
522.311
581.331
538.622
585.089
586.505
562.636
543.07
622.329
711.497
547.284
573.775
533.882
587.19
555.232
488.26
494.553
553.284
582.049
730.297
666.759
678.65
577.75
581.374
545.617
515.972
538.208
529.273
525.327
561.567
520.334
579.738
509.037
671.274
457.217
516.991
548.533
555.815
483.823
513.856
524.758
526.069
616.903
519.933
582.586
555.987
560.462
539.821
540.508
505.05
507.792
442.586
397.997
523.665
664.45
615.728
578.12
648.09
561.542
499.317
494.863
405.911
446.805
572.039
207.305
513.321
663.313
530.011
794.942
566.137
621.404
627.602
643.93
588.094
485.521
557.39
559.313
558.955
549.486
634.306
548.772
587.566
563.085
637.2
451.627
470.856
429.587
544.117
494.44
407.484
442.383
504.909
619.989
688.028
698.844
678.828
616.635
607.246
538.464
572.893
361.345
434.787
358.214
555.929
515.694
722.334
584.182
763.798
442.545
458.274
606.815
715.128
515.621
454.203
645.173
506.111
581.442
699.531
761.162
520.252
654.756
491.514
373.088
495.217
372.912
209.358
617.508
471.733
734.814
432.392
629.999
854.353
852.041
731.277
925.811
843.76
398.505
382.868
327.864
655.803
444.416
590.314
338.342
283.811
441.98
834.171
698.576
665.206
562.245
450.819
721.356
635.574
499.695
599.989
637.275
525.339
536.982
215.536
372.522
230.481
607.644
726.516
336.83
494.795
427.902
643.926
500.012
422.339
315.439
460.347
233.105
485.683
291.07
510.672
494.293
528.974
522.55
465.95
574.269
474.12
525.703
567.586
545.538
496.972
495.08
466.832
511.46
543.427
526.931
537.319
518.582
521.126
482.894
588.697
568.123
514.198
520.261
547.514
532.56
551.889
279.621
496.725
366.161
593.73
658.454
568.2
409.195
537.427
596.731
546.086
834.407
616.214
628.337
811.045
738.688
496.443
646.478
435.407
659.247
533.797
490.873
646.413
604.675
526.244
553.647
461.151
504.092
594.27
534.192
736.626
507.804
348.059
465.756
497.158
603.846
573.876
562.63
680.597
757.973
338.499
433.639
433.457
516.471
451.227
483.134
513.156
434.837
511.753
480.114
658.772
382.25
406.538
398.154
547.053
485.57
523.346
407.669
307.401
721.952
495.417
370.287
421.172
426.148
376.545
466.388
400.637
385.024
331.996
539.736
759.441
348.088
697.139
376.274
606.754
846.219
678.359
686.093
884.083
601.666
699.987
605.837
592.523
276.275
200.655
550.792
319.341
519.469
302.612
753.273
298.062
330.665
411.013
342.857
417.322
539.241
751.052
460.178
466.689
486.989
799.153
434.911
643.039
541.648
447.981
444.237
864.601
705.781
845.097
250.429
764.952
310.942
436.575
559.12
541.374
640.217
555.17
817.274
582.449
677.308
976.511
543.704
489.236
564.016
527.237
425.643
363.943
332.426
834.816
607.023
657.058
709.726
741.322
703.505
683.301
533.695
466.677
425.257
392.411
519.49
672.947
590.339
419.86
442.349
551.29
521.352
678.058
535.531
596.932
438.328
581.482
450.542
576.283
645.636
588.392
548.121
512.793
646.44
665.812
759.234
553.62
701.033
820.302
643.865
801.753
579.075
649.731
390.759
749.634
615.401
402.915
429.404
325.397
572.218
282.044
313.634
520.322
489.293
420.574
435.027
547.5
779.63
889.75
859.418
761.419
606.911
651.924
627.548
675.437
743.307
449.333
259.1
467.459
498.101
676.62
522.681
704.618
581.178
389.715
236.727
553.651
336.655
552.643
470.297
698.333
532.585
424.701
408.959
596.273
516.33
582.631
526.712
539.997
605.987
434.717
522.193
476.71
421.186
660.62
470.542
515.702
SCALARS SignedDistance double 1
LOOKUP_TABLE default
37.3493
37.2909
38.7173
40.4721
44.0138
38.5494
40.6891
42.4993
47.7881
46.1883
47.0728
46.2978
43.4146
38.8439
33.5467
33.9478
34.7504
38.0635
37.8904
45.6096
45.1428
48.4653
38.8963
42.4107
49.6117
43.3369
52.1327
47.4915
40.9995
44.5508
46.0139
47.2697
47.2313
48.5575
41.6811
42.8131
43.7251
42.3305
46.5523
45.6291
52.2986
48.853
37.4403
35.647
35.0133
42.9148
39.8508
42.6222
35.0124
37.2765
38.838
35.8793
34.8427
34.4952
32.8802
34.8758
36.0135
35.434
35.4949
36.5744
36.63
35.3248
40.6717
38.5581
40.6937
39.8847
40.2369
43.6176
41.7855
47.7433
44.4553
47.1224
44.2058
50.6913
46.5099
46.3295
45.3482
36.3573
38.3071
38.8465
36.7175
43.5499
39.696
43.3636
41.2187
39.9169
45.3742
43.4413
45.5921
44.2384
45.0469
49.1648
45.1084
48.7136
50.8871
43.3235
50.6776
46.1013
47.0835
46.9449
41.9519
42.9814
41.6729
44.5179
46.8212
41.8999
43.5827
40.3436
40.007
48.0199
44.4398
47.8139
45.7026
42.6795
40.0044
45.9668
47.2904
50.6273
45.0472
41.9718
44.7152
34.0352
33.356
46.4585
42.693
33.3393
32.0903
38.4869
34.802
40.2541
37.1164
35.3551
39.8847
44.7595
40.3112
52.7221
48.9923
42.6536
42.6887
48.2761
46.0853
48.0958
47.1248
51.0685
51.0571
49.4061
45.7365
44.0843
43.4039
42.1456
42.8472
42.0824
46.7198
41.8882
48.7511
45.3745
47.6691
45.3641
43.3286
46.213
45.7703
44.0949
36.4996
35.3057
36.1038
37.049
36.2033
39.2392
34.1416
35.0789
34.5513
44.3223
42.2183
45.0494
40.1215
41.1811
41.5855
43.2123
41.6616
41.082
36.5919
37.182
39.5159
35.1412
36.3242
34.0416
39.1499
37.8874
38.426
37.6497
38.0718
36.0621
35.3947
36.0967
33.0545
33.2128
36.0853
35.949
35.0816
36.7029
35.332
33.1348
34.6139
34.1423
34.6504
32.8852
35.9679
35.2036
36.8334
35.0729
35.9748
36.0287
34.369
33.3109
33.0994
32.3785
32.6961
35.2074
35.3228
36.8482
36.3266
35.1987
37.0297
35.9329
36.5275
36.9476
35.9575
36.7453
36.2745
37.1422
35.1181
36.2974
42.9628
41.1831
43.0631
37.7608
39.5548
39.1974
39.1881
39.5888
37.7081
35.3332
36.9538
36.89
37.9507
38.5847
38.2294
37.4697
42.9017
40.2707
42.4256
42.9052
42.9444
44.3545
44.0663
44.6253
40.6395
39.4755
48.1364
46.9893
46.2241
45.0058
46.1355
46.4993
46.7422
44.6339
44.1048
40.8906
43.6759
42.5318
38.675
43.379
40.2251
40.319
44.8635
47.9677
48.9933
47.5061
47.3465
49.3993
47.0321
45.9039
46.6071
44.7265
45.781
45.9533
48.9683
47.3912
48.1191
45.6241
46.6367
45.9275
37.0343
37.8761
34.4229
35.2689
39.0577
36.9521
37.621
38.1465
36.8114
38.6004
37.4204
38.7046
34.9873
34.3197
44.4788
43.9112
44.7924
40.2251
42.2867
43.0027
41.4186
41.9832
39.9399
36.1427
38.4397
38.4538
38.2201
39.0376
41.2101
39.624
41.0856
40.2404
42.2488
45.7776
44.5996
44.5641
44.4357
46.7136
43.0804
42.4328
48.5565
48.4513
44.8698
43.7809
44.1879
44.9235
49.8028
47.954
46.3454
42.9168
43.6707
43.2623
44.9707
44.3717
48.0573
48.0832
50.3037
45.8241
51.8628
47.8297
48.6617
53.8631
50.347
46.9393
51.598
49.9106
42.2156
43.4425
41.2282
49.454
45.7002
44.2551
46.5846
45.937
51.245
50.7975
53.8938
52.8643
46.286
46.5522
48.2054
47.0645
45.0135
45.9346
46.288
44.6915
43.9302
41.6568
42.387
41.9342
45.017
46.8651
41.206
46.4026
44.5636
45.4418
45.9241
43.2814
41.8475
45.3371
41.7029
44.9022
42.1778
45.3477
42.2346
43.286
39.4175
40.6281
45.4626
43.3573
43.813
38.2211
37.9008
43.1067
40.4169
43.2086
37.4581
38.2294
47.0528
47.1548
48.113
44.6006
46.0136
47.2983
46.4955
45.7307
45.4025
41.0584
43.1919
43.956
44.8589
43.5422
39.565
43.1233
43.4918
44.2342
39.8457
43.5101
43.1878
46.1574
48.3135
46.3774
48.7426
50.6515
46.7339
53.0064
53.8013
47.9925
43.0987
42.405
44.8396
43.7063
43.0559
43.7704
47.3517
43.1014
44.3851
43.1072
43.8422
41.8088
36.5007
35.954
36.7787
35.8377
38.6342
34.4965
38.468
43.0677
46.531
42.2103
47.313
46.8136
45.2509
41.6614
35.6248
34.6461
37.7231
35.5446
34.5571
40.506
39.6075
34.8392
36.8924
37.4924
37.0158
32.7525
35.2431
39.2798
37.5549
33.6345
42.5255
36.6515
39.1209
36.8144
33.8995
37.6809
34.5194
39.2226
33.747
38.0913
40.1343
40.1724
40.1155
44.3256
50.5034
51.8586
51.2654
50.8556
44.3865
35.3693
39.0936
39.2422
46.3891
45.8598
50.5532
47.8806
48.9287
49.5329
52.4487
41.238
40.1117
44.1818
42.0625
44.4228
40.8636
52.3475
48.6447
48.2649
47.9829
47.0061
46.7389
47.6292
46.5069
46.9737
46.119
52.7615
44.4863
49.7214
48.6353
48.4334
48.2551
46.0276
48.0834
48.443
49.992
48.8593
50.8092
49.6665
51.5309
52.7032
45.294
46.2919
53.8161
49.4016
47.274
46.2454
47.0574
53.9608
50.4015
52.8782
48.6034
45.6431
47.0901
44.7248
44.3229
44.6645
41.609
42.9803
44.6617
44.6421
38.7214
42.2938
40.431
39.4055
40.651
43.548
43.0438
43.9068
42.3583
43.2372
42.3839
43.3711
43.4653
42.3098
44.5804
43.1233
43.8301
44.5292
45.3779
45.9851
50.253
50.5556
50.1503
42.2704
43.4887
41.9621
39.9196
50.8436
41.2211
41.0054
42.5363
41.7921
49.9585
47.3562
43.1753
44.797
47.6296
45.2178
46.0414
46.7194
47.3711
51.4658
50.4606
43.2965
46.9614
45.8613
47.294
47.6739
48.7976
45.9111
42.2507
46.1942
45.7324
45.1204
44.6833
47.8136
46.0028
42.1651
42.1341
46.3159
43.403
45.7198
45.4344
46.7893
46.8808
45.7461
45.9229
49.4706
46.5803
47.2484
49.1274
47.8754
38.5227
44.1799
40.0052
40.7881
44.9247
46.5117
46.1198
45.9257
