# vtk DataFile Version 4.2
vtk output
ASCII
DATASET POLYDATA
POINTS 642 double
-30.8297 18.888 -81.6032
-29.8949 18.8874 -81.6044
-30.6468 17.1968 -81.6322
-30.0887 17.2044 -81.6288
-30.3636 17.5206 -81.0656
-30.3576 18.5826 -80.8281
-30.37 17.5209 -82.2521
-30.3623 18.4543 -82.274
-29.8564 18.0052 -81.9855
-29.7953 18.0538 -81.2378
-30.876 17.9937 -81.9957
-30.9424 18.0455 -81.2385
-31.0005 18.5175 -81.3464
-30.7672 18.3492 -80.9298
-30.6538 18.8934 -81.1187
-30.0679 18.8907 -81.1169
-30.3609 19.0916 -81.6076
-30.1075 18.7993 -82.0441
-30.6153 18.8011 -82.0454
-30.6678 18.2527 -82.2083
-30.9442 18.4814 -81.8436
-30.9774 18.0228 -81.6017
-29.9582 18.3526 -80.9305
-29.726 18.5155 -81.3458
-30.6726 17.7582 -81.0936
-30.3605 18.0642 -80.8328
-30.7971 17.5217 -81.8275
-30.8123 17.5408 -81.4467
-30.368 17.9659 -82.3576
-30.6581 17.6958 -82.2297
-29.7841 18.4828 -81.8412
-30.0603 18.2598 -82.2026
-29.9204 17.552 -81.4424
-30.0541 17.7625 -81.0876
-30.1812 17.2108 -81.3293
-30.5514 17.2044 -81.3357
-30.3718 17.0903 -81.6217
-30.5336 17.2655 -81.9258
-30.2146 17.2767 -81.9228
-30.0823 17.7038 -82.2186
-29.9423 17.5425 -81.8201
-29.7585 18.0335 -81.603
-30.9388 18.7425 -81.4708
-30.8809 18.7359 -81.2186
-30.7764 18.9314 -81.3772
-30.8952 18.1876 -81.0867
-30.9219 18.4584 -81.1128
-30.9913 18.2638 -81.2652
-30.4941 18.7545 -80.9206
-30.7398 18.6434 -80.9767
-30.5619 18.493 -80.836
-30.5223 19.0535 -81.3395
-30.6445 19.0258 -81.6074
-30.2236 18.7528 -80.9208
-30.3598 18.949 -81.0804
-30.078 19.0244 -81.6072
-30.1998 19.053 -81.3392
-29.9469 18.9303 -81.3766
-30.5109 18.9951 -81.859
-30.7466 18.8877 -81.8209
-29.9763 18.8848 -81.8211
-30.2115 18.9943 -81.8591
-30.471 18.6362 -82.2033
-30.3609 18.8461 -82.0777
-30.2518 18.6361 -82.2017
-30.8178 18.6723 -81.9606
-30.9148 18.7217 -81.7254
-30.5112 18.3703 -82.2713
-30.6677 18.5444 -82.1617
-30.9122 18.2202 -81.9307
-30.8297 18.3899 -82.0576
-30.8054 18.1167 -82.1129
-31.0057 18.5263 -81.5957
-30.93 18.0104 -81.8178
-30.9923 18.2606 -81.7196
-31.0249 18.2748 -81.4761
-30.9878 18.0333 -81.3997
-29.8443 18.7334 -81.2156
-29.7853 18.7407 -81.4716
-30.1566 18.4949 -80.838
-29.9845 18.6412 -80.9762
-29.7379 18.2681 -81.264
-29.8059 18.4569 -81.1115
-29.8353 18.1918 -81.0845
-30.5636 18.2122 -80.8323
-30.359 18.3449 -80.7914
-30.8377 17.9154 -81.1509
-30.7434 18.0566 -80.9709
-30.3618 17.7734 -80.9533
-30.5408 17.9065 -80.9257
-30.5106 17.6107 -81.0566
-30.9125 17.7864 -81.5136
-30.8952 17.82 -81.3339
-30.8667 17.7736 -81.9377
-30.8965 17.7648 -81.7281
-30.7404 17.3049 -81.5535
-30.8136 17.5025 -81.6348
-30.7142 17.3208 -81.715
-30.6724 17.9693 -82.2535
-30.7942 17.8466 -82.1239
-30.3646 18.2137 -82.328
-30.5078 18.098 -82.3214
-30.5015 17.5842 -82.2679
-30.5111 17.831 -82.3317
-30.3693 17.7191 -82.3321
-30.0577 18.545 -82.157
-30.2153 18.3739 -82.2662
-29.8108 18.7186 -81.7275
-29.9078 18.6699 -81.9581
-29.9251 18.1268 -82.1039
-29.8986 18.3937 -82.0518
-29.8186 18.2275 -81.9245
-29.9915 17.3167 -81.5472
-30.0187 17.34 -81.3719
-30.1162 17.1747 -81.4975
-29.8985 17.9228 -81.1491
-29.971 17.6385 -81.2658
-29.8539 17.8302 -81.338
-30.274 17.343 -81.1679
-30.1049 17.4519 -81.189
-30.215 17.6137 -81.0536
-30.2786 17.1054 -81.4839
-30.2084 17.1237 -81.6245
-30.4576 17.3385 -81.1709
-30.3699 17.1697 -81.3204
-30.532 17.1221 -81.6259
-30.4622 17.1054 -81.4858
-30.616 17.1683 -81.5007
-30.2839 17.1394 -81.7634
-30.142 17.2092 -81.7514
-30.599 17.202 -81.7551
-30.4625 17.1374 -81.7655
-30.2907 17.3906 -82.1376
-30.3736 17.2342 -81.9478
-30.4526 17.3861 -82.1391
-30.0706 17.3728 -81.8813
-30.0219 17.3328 -81.7078
-30.239 17.5874 -82.2629
-30.1343 17.4622 -82.1176
-29.8704 17.79 -81.9278
-29.9767 17.6061 -82.0408
-29.945 17.8588 -82.1082
-29.9196 17.5181 -81.6261
-29.8051 18.0218 -81.8117
-29.8365 17.7819 -81.723
-29.8252 17.7966 -81.5142
-29.7488 18.0442 -81.4003
-30.1806 17.9069 -80.9213
-29.9814 18.0605 -80.9694
-30.1565 18.2148 -80.833
-30.7113 17.3268 -81.3767
-30.626 17.4406 -81.1911
-30.7654 17.6289 -81.267
-30.6099 17.451 -82.1234
-30.6711 17.3581 -81.8862
-30.7651 17.59 -82.0504
-30.0632 17.9778 -82.2417
-30.2262 17.8338 -82.3263
-30.2231 18.1035 -82.3193
-29.7048 18.2802 -81.4773
-29.7421 18.2663 -81.717
-29.7219 18.5243 -81.5983
-30.8834 18.8316 -81.5439
-30.8701 18.8427 -81.4202
-30.813 18.9143 -81.5074
-30.9552 18.6298 -81.2825
-30.9204 18.7445 -81.3436
-30.9785 18.6369 -81.4043
-30.7224 18.926 -81.2447
-30.834 18.844 -81.2883
-30.7782 18.8267 -81.1622
-30.9278 18.1077 -81.1718
-30.951 18.2321 -81.1705
-30.9681 18.1389 -81.2456
-30.8525 18.4072 -81.0113
-30.9124 18.3237 -81.0884
-30.8424 18.269 -81.0037
-31.0038 18.3911 -81.2989
-30.9677 18.3657 -81.19
-30.9716 18.4944 -81.2276
-30.4149 18.6611 -80.8589
-30.5356 18.6288 -80.8675
-30.4472 18.5484 -80.8232
-30.7027 18.7791 -81.0371
-30.6234 18.7117 -80.9411
-30.5752 18.8346 -81.0083
-30.6713 18.425 -80.8718
-30.656 18.5706 -80.8945
-30.7607 18.4966 -80.9407
-30.9118 18.6019 -81.156
-30.8452 18.5563 -81.038
-30.8198 18.7011 -81.0895
-30.7138 18.9927 -81.4863
-30.758 18.9549 -81.6055
-30.5943 18.9852 -81.2189
-30.6582 19.0039 -81.3501
-30.5098 19.0741 -81.6078
-30.5855 19.0558 -81.4759
-30.4417 19.0905 -81.4737
-30.3008 18.6608 -80.8593
-30.3583 18.7667 -80.9128
-30.2071 18.9333 -81.0894
-30.2847 18.8621 -80.9914
-30.1447 18.8321 -81.0072
-30.4336 18.863 -80.9917
-30.5131 18.9346 -81.0903
-29.9654 18.9537 -81.6059
-30.0093 18.9916 -81.4865
-29.9111 18.9139 -81.5079
-30.2798 19.0901 -81.4735
-30.1367 19.0549 -81.476
-30.2122 19.0736 -81.6075
-30 18.9238 -81.2436
-30.0644 19.003 -81.3499
-30.1275 18.9841 -81.2182
-30.4416 19.018 -81.2009
-30.2792 19.0175 -81.2007
-30.3605 19.0724 -81.3335
-30.7004 18.9676 -81.7227
-30.798 18.8965 -81.6985
-30.4395 19.0587 -81.7387
-30.577 19.0257 -81.735
-30.6851 18.8563 -81.938
-30.6368 18.9507 -81.8471
-30.5705 18.9072 -81.9613
-29.9256 18.8944 -81.6993
-30.0222 18.9658 -81.7227
-30.152 18.906 -81.9612
-30.0858 18.949 -81.8472
-30.0378 18.8539 -81.9374
-30.1453 19.0249 -81.735
-30.2827 19.0584 -81.7387
-30.4064 18.5372 -82.2499
-30.3612 18.6467 -82.2089
-30.3171 18.5376 -82.2489
-30.4937 18.8343 -82.0694
-30.4236 18.7482 -82.1483
-30.5418 18.7253 -82.1354
-30.181 18.7246 -82.1337
-30.2984 18.748 -82.1477
-30.2285 18.8339 -82.0684
-30.361 19.0117 -81.8649
-30.2882 18.9341 -81.9776
-30.4338 18.9345 -81.9776
-30.8402 18.8105 -81.7785
-30.8734 18.8219 -81.6579
-30.7237 18.7477 -82.0083
-30.7872 18.7874 -81.8994
-30.9385 18.6074 -81.7877
-30.8736 18.7014 -81.8477
-30.8922 18.581 -81.9038
-30.4286 18.4198 -82.2787
-30.4986 18.5082 -82.2437
-30.6741 18.4003 -82.1941
-30.5909 18.4597 -82.2259
-30.5916 18.315 -82.2483
-30.574 18.6004 -82.1877
-30.6471 18.6801 -82.1121
-30.8932 18.0918 -81.9693
-30.864 18.1742 -82.0279
-30.8525 18.0469 -82.051
-30.894 18.4417 -81.9556
-30.8814 18.3103 -81.9956
-30.9349 18.351 -81.8915
-30.7446 18.1862 -82.1677
-30.8155 18.2535 -82.0889
-30.7548 18.3264 -82.1448
-30.7477 18.6175 -82.0706
-30.7575 18.4739 -82.1161
-30.8319 18.5353 -82.0164
-30.9356 18.7368 -81.5981
-30.982 18.5109 -81.7228
-30.9692 18.627 -81.6615
-30.9835 18.6364 -81.531
-31.0117 18.5288 -81.4683
-30.8997 18.001 -81.9201
-30.9337 18.1182 -81.8747
-30.9894 18.1408 -81.6585
-30.9675 18.134 -81.7672
-30.9619 18.0175 -81.7114
-30.959 18.2474 -81.8281
-30.9751 18.3746 -81.7813
-30.9977 18.15 -81.3344
-30.9681 18.0404 -81.3071
-31.0226 18.3997 -81.4102
-31.0159 18.2756 -81.3681
-30.992 18.0267 -81.4978
-31.0131 18.15 -81.4357
-31.0108 18.1451 -81.5408
-31.0084 18.3958 -81.6598
-31.0169 18.2717 -81.5979
-31.025 18.4041 -81.5327
-29.8539 18.8422 -81.4195
-29.8408 18.8305 -81.5457
-29.9457 18.8237 -81.1599
-29.8902 18.8421 -81.2863
-29.7466 18.6344 -81.4041
-29.8044 18.7427 -81.3418
-29.7708 18.628 -81.2801
-30.2688 18.549 -80.8242
-30.1824 18.6289 -80.8692
-29.9647 18.4978 -80.941
-30.0655 18.5708 -80.8959
-30.0511 18.4292 -80.8736
-30.0973 18.7091 -80.9414
-30.0201 18.7755 -81.0359
-29.7652 18.1465 -81.2443
-29.7791 18.2357 -81.1691
-29.8065 18.1137 -81.1705
-29.7559 18.4928 -81.2258
-29.7605 18.3665 -81.1885
-29.7241 18.3916 -81.2983
-29.8851 18.2715 -81.0032
-29.8155 18.324 -81.0871
-29.8749 18.4082 -81.0108
-29.9059 18.6984 -81.0872
-29.8819 18.5555 -81.0363
-29.8151 18.6002 -81.1534
-30.4606 18.4183 -80.8022
-30.3579 18.4815 -80.8031
-30.6699 18.2837 -80.8694
-30.5696 18.3513 -80.8246
-30.3599 18.2048 -80.8014
-30.4624 18.2774 -80.8015
-30.4583 18.1386 -80.8209
-30.9023 17.9899 -81.1969
-30.872 18.0525 -81.1082
-30.7126 17.9079 -81.0248
-30.7979 17.9822 -81.0568
-30.7552 17.8397 -81.1205
-30.8251 18.1277 -81.0188
-30.7617 18.2035 -80.94
-30.3625 17.6277 -81.0174
-30.4409 17.6922 -80.9976
-30.4281 17.5548 -81.0561
-30.4533 17.9861 -80.8683
-30.4484 17.8426 -80.9316
-30.361 17.9196 -80.8878
-30.5911 17.6794 -81.0713
-30.5279 17.7597 -80.994
-30.6155 17.828 -81.0033
-30.6623 18.1343 -80.8914
-30.6434 17.9813 -80.9377
-30.5553 18.0604 -80.8672
-30.9489 17.9263 -81.3651
-30.9275 17.9484 -81.2786
-30.9584 17.9059 -81.5532
-30.9602 17.913 -81.4585
-30.8489 17.6839 -81.3918
-30.9107 17.7973 -81.4229
-30.8608 17.6618 -81.4796
-30.876 17.8994 -81.974
-30.8973 17.8904 -81.8775
-30.8488 17.6342 -81.7846
-30.8849 17.7618 -81.8338
-30.843 17.6442 -81.8892
-30.9209 17.892 -81.7705
-30.9473 17.8979 -81.6649
-30.6884 17.2334 -81.5999
-30.733 17.3071 -81.6368
-30.6794 17.2424 -81.6682
-30.8173 17.5144 -81.5401
-30.7834 17.3979 -81.5921
-30.7828 17.4083 -81.5008
-30.7525 17.4133 -81.7677
-30.7675 17.4019 -81.6806
-30.8051 17.505 -81.7291
-30.9078 17.7721 -81.6176
-30.8565 17.6294 -81.68
-30.8621 17.6399 -81.5776
-30.8019 17.9809 -82.1271
-30.845 17.929 -82.0549
-30.6706 18.1098 -82.2353
-30.742 18.0451 -82.1898
-30.7314 17.768 -82.1834
-30.7391 17.9039 -82.197
-30.6694 17.8305 -82.2508
-30.3632 18.3485 -82.3002
-30.4349 18.288 -82.3067
-30.4348 18.0295 -82.3489
-30.435 18.1522 -82.3317
-30.3662 18.0869 -82.3481
-30.5088 18.2292 -82.2917
-30.5846 18.1742 -82.2688
-30.4263 17.5451 -82.2634
-30.4372 17.6509 -82.3084
[...]
POINT_DATA 642
SCALARS Mean_Curvature double 1
LOOKUP_TABLE default
2.87473
2.89514
4.489
4.59777
2.59699
2.6928
4.03987
2.89215
2.37015
0.227902
1.23847
2.45032
2.44174
2.6111
2.8549
2.88278
2.80066
2.86488
2.83845
0.617899
2.10925
1.32945
2.57069
2.4453
1.1437
2.71298
1.38596
1.70639
3.55942
2.91238
2.29725
0.461771
1.97613
1.10523
3.65206
3.5277
4.08143
1.81884
1.81116
2.84546
1.4843
1.29313
2.68551
2.83514
2.85654
2.13562
2.7993
2.18001
2.73583
2.78462
2.67504
2.75876
2.74133
2.78621
2.80091
2.66421
2.78272
2.8615
2.84011
2.82684
2.85517
2.84064
2.86027
2.854
2.91938
2.62108
2.61992
0.210158
2.742
0.678525
1.19685
1.2569
2.3165
1.20923
0.86765
1.4879
3.00792
2.8728
2.74812
2.71091
2.84718
2.54911
2.62283
2.62167
2.66713
2.57695
1.38664
2.30905
0.508446
2.55021
0.883211
1.58956
2.12068
1.23825
1.50902
3.50769
1.47327
2.14948
2.37669
2.89506
3.68645
2.37938
3.47029
2.99935
3.32401
2.78076
0.879796
2.63744
2.57962
1.07402
2.09897
0.710788
4.03059
4.13178
4.83441
0.934858
1.37045
1.56168
3.1694
3.53373
0.820622
4.70581
4.72489
3.1659
3.23666
4.55512
4.41973
4.85867
5.09061
1.83441
2.88922
4.88987
4.25263
1.7944
3.95188
1.50018
1.79022
3.59064
3.74705
1.40651
3.2844
0.546063
1.55997
1.29135
1.52452
1.83192
3.1448
2.2548
2.25395
2.59775
4.22032
3.87804
1.3609
3.82117
1.79495
3.123
1.0095
3.14625
2.93163
1.77043
0.721552
2.2322
2.80446
2.79731
2.84299
2.70114
2.80372
2.57769
2.89276
2.90898
2.90573
2.26979
2.22244
0.285646
2.75048
2.57005
2.54809
2.31363
2.58236
2.63876
2.69227
2.71164
2.66759
2.8828
2.76133
2.78118
2.62737
2.68096
2.71973
2.83338
2.80451
2.87168
2.82182
2.86715
2.80143
2.78668
2.75416
2.77779
2.79504
2.78128
2.75824
2.85887
2.84822
2.86902
2.83051
2.81792
2.88641
2.8085
2.91671
2.7966
2.77709
2.76342
2.86448
2.79486
2.82037
2.80187
2.79707
2.75261
2.88611
2.84368
2.78479
2.73485
2.86268
2.88432
2.85676
2.8548
2.87563
2.92537
2.88464
2.8808
2.79811
2.78474
2.89608
2.89243
2.94187
2.82646
2.66353
2.77843
2.82039
2.68068
2.85209
2.79096
2.88216
2.86676
2.74037
2.7661
2.79064
2.71864
2.3984
2.49361
2.03109
2.30604
2.63225
2.84012
2.5623
0.801281
2.71308
2.7739
1.10991
0.640594
3.55255
2.18055
2.54872
1.96342
0.494262
0.873376
3.07988
2.73481
2.8233
2.4972
2.56211
2.35264
2.40555
2.49741
2.36693
1.21024
0.969716
1.03692
1.11848
1.29759
1.00871
0.0251449
2.42644
3.18077
1.92105
1.724
1.28871
2.56848
1.03321
2.10333
1.64757
1.99975
2.89153
2.85193
2.89387
2.86807
2.62345
2.76136
2.72326
2.74138
2.75555
2.76404
2.78174
2.70446
2.74867
2.81556
1.76538
2.32088
0.129571
2.59471
2.64203
2.38512
2.55644
2.62708
2.68494
2.86826
2.80069
2.81168
2.64728
2.68058
2.54189
2.5892
2.48075
2.52619
2.69092
0.615746
2.48903
1.27925
2.68825
0.867171
2.41274
2.54837
3.1009
2.38215
0.545875
2.41896
0.211187
2.21488
0.939641
0.633082
0.512217
2.4852
2.20535
2.41147
3.32325
1.42154
1.4082
1.78283
1.67914
2.09831
1.56887
1.02703
1.36439
1.44512
1.48365
1.31637
1.39907
1.30827
4.57215
2.77699
3.60062
1.67715
2.17586
1.45714
1.53063
1.59656
1.61999
1.53834
1.47916
1.56325
2.64086
3.10105
0.398242
2.65143
2.54342
2.55884
2.54943
3.00978
3.18947
3.55066
3.54586
3.81668
0.724859
0.49093
3.63268
3.32447
3.61847
3.10323
3.36909
3.48759
3.3542
3.26041
3.45212
2.70953
2.75475
2.57964
2.59628
2.32912
2.7696
2.81635
0.246157
2.73702
2.48521
2.79385
2.74815
2.09222
2.44964
2.42442
2.69212
2.75
1.43815
3.40457
0.958584
2.54229
0.843711
0.560247
0.0987417
2.44571
2.00557
2.76109
2.58375
2.77789
4.44463
4.61826
4.97485
2.83104
4.21955
1.34162
4.34912
4.40625
3.96583
0.475834
1.16134
0.750673
1.06383
1.30397
0.79181
1.38467
1.30961
1.63457
3.27898
3.22339
0.471603
3.56257
3.45414
3.17573
0.800261
3.33833
1.37255
1.41348
1.46561
3.61027
5.13102
4.76974
4.10173
4.86846
4.35363
4.94408
4.71147
3.29396
3.08485
3.1428
2.51744
3.04432
2.57486
3.40723
4.92042
5.08816
5.4363
4.42076
4.70274
4.04999
4.32142
4.7792
4.34911
4.22864
4.23642
4.48515
4.97649
4.00347
4.53288
4.98732
1.93284
2.65446
2.53526
4.77629
4.69724
2.29378
5.28718
2.20192
4.61101
4.37923
4.07561
4.17015
4.18147
1.84625
2.01865
2.168
2.05416
1.89957
1.76316
4.9445
3.89188
2.37412
1.8315
4.31804
1.52418
1.7499
1.38116
1.47274
1.46968
3.76416
3.90537
3.51253
3.75862
3.41614
4.00522
1.65638
2.12697
1.14597
0.870463
1.27709
1.52195
1.4746
1.68098
3.30664
2.94214
1.43761
3.46804
2.82683
1.84226
1.38084
1.7536
2.69347
2.06486
1.34958
1.37877
1.33669
1.39771
1.13867
1.38388
1.52009
2.02153
2.2597
1.43178
1.96112
1.78193
3.19042
2.09584
1.53309
1.57037
1.5463
2.46725
2.61376
0.252828
2.55427
2.37766
2.62768
2.54106
2.61417
2.49001
2.50807
2.69548
2.6608
2.48903
2.57804
2.58549
2.25149
2.44467
2.41515
4.77133
3.89239
4.35165
4.22303
1.9378
3.24805
1.23475
2.93068
3.41548
3.55822
1.07806
1.83542
1.79916
1.39138
1.19908
3.87308
1.53612
1.60915
3.87714
3.27874
3.99807
3.82577
3.3934
2.57774
1.64183
1.49343
1.83931
1.49441
0.774703
2.81172
2.91488
1.01006
1.52931
2.97106
3.40394
3.33209
3.28965
1.60116
2.80769
2.95437
0.803146
3.35686
2.91603
2.90933
3.28035
2.66303
3.2521
0.524175
0.721304
3.45718
3.4866
2.76946
3.07653
2.8517
2.34721
0.685914
2.38809
1.88964
1.90076
1.081
0.901819
0.658347
0.943468
1.04385
2.56937
2.36928
2.49463
2.32768
2.53458
2.34103
2.30526
1.89016
SCALARS CoVolArea double 1
LOOKUP_TABLE default
0.00836395
0.00837344
0.00373176
0.0038
0.0068143
0.00847572
0.00484496
0.00649345
0.00642219
0.00643989
0.00663806
0.00640233
0.0154517
0.0170369
0.0201592
0.020058
0.021845
0.0167041
0.0168238
0.0141794
0.0152674
0.0139426
0.016541
0.015519
0.0153344
0.0152177
0.0131147
0.0132816
0.00913208
0.0129646
0.0146973
0.0138696
0.0128012
0.0149925
0.0118288
0.0111858
0.00787503
0.0103926
0.0106815
0.0129266
0.0134294
0.0136883
0.0152897
0.0187445
0.0178122
0.0137419
0.0171272
0.0131777
0.0180576
0.0197481
0.0166751
0.0225481
0.0186237
0.0176563
0.0215774
0.0185572
0.0224919
0.0178683
0.0199141
0.0160981
0.0160251
0.0199127
0.0140117
0.0181018
0.0138717
0.0165579
0.0151309
0.0124572
0.0157251
0.0131893
0.0152989
0.0127896
0.015737
0.0134469
0.0150809
0.0149994
0.0118932
0.0186827
0.0156847
0.016104
0.0189516
0.0129414
0.0169006
0.0133775
0.0167302
0.015148
0.013577
0.016271
0.0139231
0.0161837
0.0135105
0.014057
0.0124424
0.0134129
0.0156162
0.00988279
0.0128875
0.00862054
0.0135664
0.0127174
0.0101351
0.0115131
0.010206
0.0113388
0.00974127
0.0153836
0.0122946
0.014866
0.0161006
0.0125794
0.0147981
0.0127267
0.00990784
0.0132057
0.00866004
0.0133182
0.0141135
0.012588
0.0127372
0.0145274
0.0133051
0.0086535
0.00678793
0.0126274
0.0111357
0.00665179
0.00806393
0.00818646
0.0086154
0.00747462
0.00713175
0.00850743
0.0106579
0.0114131
0.0108405
0.0120454
0.0088499
0.0100512
0.0130917
0.0128321
0.0143816
0.0125411
0.0129821
0.0128557
0.0149644
0.0138941
0.0122146
0.0162008
0.0158061
0.0165828
0.0131897
0.0147951
0.0145728
0.0132891
0.0116008
0.0145953
0.0136379
0.0115413
0.0116939
0.0145837
0.0144427
0.0154599
0.0126997
0.0159751
0.0136941
0.0170612
0.0165505
0.0153942
0.0191374
0.0179035
0.0197702
0.0104366
0.0130667
0.010166
0.017332
0.0150428
0.0153163
0.0142982
0.0146581
0.0163311
0.0138808
0.0169451
0.0133434
0.0201375
0.0187925
0.019317
0.0171538
0.0180835
0.018563
0.0192965
0.0199193
0.0208057
0.0179271
0.0139658
0.0212781
0.0198365
0.0205954
0.0205026
0.0226212
0.0136766
0.0174509
0.0210392
0.0193151
0.019012
0.0194231
0.0210939
0.013858
0.017849
0.013747
0.0225641
0.0204312
0.0205685
0.0191753
0.0198806
0.0213278
0.0238251
0.0237849
0.0245441
0.016718
0.0131255
0.0213036
0.0191179
0.0164991
0.0175443
0.01827
0.0130425
0.0167223
0.0182001
0.017577
0.0164275
0.0191643
0.0213111
0.0107137
0.0136544
0.0106409
0.0176759
0.0156323
0.0154598
0.0153288
0.0155883
0.0175793
0.0217584
0.020364
0.0204236
0.0152304
0.0126051
0.0167063
0.0159969
0.0152303
0.0156405
0.0159956
0.00999287
0.0129646
0.0150201
0.0140068
0.0133269
0.0146141
0.0162476
0.0104214
0.0125865
0.010272
0.0153194
0.0138864
0.0141194
0.0135403
0.0136503
0.0149064
0.0173342
0.0166658
0.0170255
0.0146704
0.0156801
0.0151381
0.0150892
0.0155139
0.0105739
0.0128431
0.0147229
0.013853
0.013986
0.0138889
0.0151885
0.0121545
0.00969051
0.0150682
0.0136764
0.0126642
0.0131851
0.0144798
0.0165152
0.0162545
0.0164344
0.0162596
0.0129531
0.0195776
0.0179688
0.0156995
0.0168249
0.0171884
0.013078
0.0163417
0.0177664
0.0171894
0.0164964
0.0181017
0.0196545
0.0101004
0.0128307
0.0103291
0.0162612
0.0143841
0.0141074
0.014843
0.014682
0.0169134
0.0203556
0.0194208
0.019154
0.0153552
0.0127866
0.0171108
0.01636
0.0149264
0.0154737
0.0158412
0.0104233
0.0131547
0.0160279
0.014682
0.0146447
0.014724
0.0164563
0.0109373
0.0134284
0.01074
0.0157293
0.014688
0.014652
0.0144022
0.0146559
0.0159864
0.0178262
0.0175678
0.0174735
0.0115597
0.00992525
0.0138065
0.0122818
0.0131052
0.0127301
0.0139553
0.0105618
0.0131985
0.0146279
0.0144707
0.0139374
0.0144898
0.014933
0.00676091
0.00876826
0.00628607
0.0132169
0.0108572
0.0117864
0.010505
0.0102601
0.0127343
0.0159469
0.0155071
0.0152737
0.0123856
0.0103344
0.013857
0.0132685
0.0129733
0.0130757
0.013339
0.00928623
0.0108933
0.00981606
0.0102238
0.00922144
0.0118508
0.0132586
0.00777613
0.00967434
0.00780744
0.01248
0.010837
0.011532
0.00937587
0.0100419
0.00986163
0.013435
0.0116996
0.0132658
0.0127424
0.00991373
0.015983
0.0143532
0.0130815
0.0137075
0.0146411
0.0125873
0.0150091
0.0154293
0.0152043
0.0146671
0.0157518
0.0164496
0.0100624
0.0122574
0.0101089
0.0144654
0.0132513
0.013286
0.013623
0.0134099
0.0148237
0.0168877
0.0164841
0.0162132
0.00682066
0.00906199
0.00630898
0.0129956
0.0113075
0.0115773
0.0100843
0.0107195
0.0126603
0.0103527
0.0126387
0.0101245
0.014581
0.0137177
0.0143064
0.0128299
0.0132106
0.0134029
0.0105475
0.0127462
0.010661
0.0136973
0.0134638
0.0124931
0.0141239
0.0136712
0.0145465
0.014737
0.0152854
0.0150098
0.00720636
0.00557063
0.0101203
0.00846433
0.00732439
0.00748687
0.00789179
0.0105601
0.0122568
0.010903
0.0118669
0.0121075
0.012074
0.0114635
0.00544038
0.00683477
0.0061276
0.00767473
0.0070561
0.00724005
0.00944166
0.00777256
0.00935737
0.0104065
0.0100188
0.00883583
0.00665993
0.00575791
0.00817977
0.00723382
0.008772
0.00766468
0.00944215
0.00558885
0.00646279
0.00918182
0.00737679
0.008326
0.00713944
0.00816916
0.0079251
0.0104255
0.00798528
0.0110524
0.0113523
0.0112849
0.0113801
0.0114155
0.0109572
0.0095254
0.0105954
0.0106538
0.0077686
0.006387
0.0112462
0.009101
0.0109479
0.0098219
0.0127748
0.00768473
0.00978636
0.01296
0.0111799
0.0114577
0.0114252
0.0123491
0.0101433
0.0122474
0.0100636
0.0142164
0.013403
0.0136452
0.0129091
0.0131299
0.0136856
0.0141128
0.0148824
0.0148913
0.00884372
0.013119
0.0105112
0.010878
0.0129198
0.0101804
0.0126007
0.0142649
0.0137586
0.0133842
0.0138486
0.014568
0.0119131
0.00987588
0.0135847
0.0128222
0.0129149
0.0126429
0.0137093
0.0153814
0.0153756
0.014938
0.0133704
0.0158421
0.0145888
0.014726
0.0157755
0.0128416
0.016006
0.0142211
0.0142656
0.0157064
0.0152143
0.0158389
0.0154526
0.0160879
0.0167873
0.0173312
0.0175294
0.0174477
0.00886343
0.0122577
0.0103648
0.0112784
0.0133266
0.012869
0.0150082
0.0139671
0.0134841
0.0134493
0.0126265
0.0138794
0.0134169
0.0140049
0.0150529
0.0150896
0.0157574
0.0151233
0.00997387
0.0123459
0.0116702
0.0114043
0.013123
0.0074909
0.0123639
0.00938588
0.00862598
0.010822
0.0126845
0.0138156
0.0133618
0.0138008
0.0142574
0.0140205
0.0148079
0.0150329
0.0122706
0.0133501
0.0130341
0.0131753
0.0138084
0.00961668
0.0100495
0.0101476
0.0108492
0.0125527
0.0108873
0.0132448
0.0118493
0.0102969
0.00995588
0.0134751
0.0119703
0.0136435
0.0121103
0.0142206
0.0131325
0.0133894
0.014832
0.0123207
0.0145868
0.0133147
0.013229
0.0141607
0.0148033
0.0155346
0.0152754
0.0148899
0.0150748
0.0156416
0.0158985
0.0160136
SCALARS SignedDistance double 1
LOOKUP_TABLE default
1.0618
1.06699
1.0432
1.05267
1.04974
1.03957
1.13623
1.06624
1.00601
1.00231
1.01352
1.00796
1.06345
1.04418
1.08994
1.09475
1.07431
1.06555
1.06383
1.00347
1.00702
1.00984
1.05668
1.07164
1
1.02971
1.00508
1.00092
1.0522
1.02398
1.00339
1.00891
1.03355
1.00124
1.02264
1.02549
1.20884
1.0038
1.00887
1.00002
1.01963
1.0333
1.09459
1.07636
1.08525
1.01801
1.05707
1.0109
1.07346
1.03706
1.03625
1.10862
1.09217
1.09847
1.10602
1.08052
1.10447
1.07251
1.08347
1.07631
1.07254
1.08378
1.03005
1.07115
1.03122
1.04809
1.00571
1.00142
1.02175
1.01165
1.02173
1.00065
1.05527
1.01808
1.00135
1.03413
1.02034
1.07225
1.09288
1.05797
1.05301
1.01432
1.02666
1.02471
1.02946
1.08813
1.00249
1.01269
1.00466
1.0021
1.02561
1.01192
1
1.00721
1.0001
1.02665
1.02586
1.02261
1.01216
1.01021
1.04834
1.00172
1.04797
1.04143
1.07759
1.0425
1.00112
1.01333
1.03556
1.00028
1.02486
1.00803
1.04027
1.07597
1.07616
1.00566
1.04595
1.02462
1.053
1.03382
1.02697
1.13914
1.10957
1.05034
1.01161
1.13892
1.1301
1.08245
1.05097
1.00043
1.00526
1.06727
1.06999
1.00774
1.06564
1.01819
1.00708
1.06632
1.03751
1.00072
1.01645
1.00582
1.03904
1.00436
1.02372
1.00014
1.02589
1.00449
1.01108
1.02904
1.0696
1.01779
1.03173
1.04359
1.01339
1.01436
1.00038
1.01822
1.00181
1.01473
1.00018
1.03564
1.04452
1.09735
1.05483
1.09429
1.10816
1.08389
1.08638
1.08183
1.08371
1.0012
1.00459
1.00258
1.04622
1.04791
1.01368
1.05944
1.0577
1.06795
1.05516
1.056
1.05574
1.04646
1.04942
1.07418
1.05667
1.04894
1.05241
1.07001
1.06501
1.06779
1.07058
1.06404
1.10352
1.09798
1.09115
1.09839
1.07548
1.06059
1.09467
1.10271
1.0975
1.08694
1.09509
1.10987
1.06331
1.07372
1.05911
1.07586
1.10037
1.09087
1.08645
1.08285
1.09423
1.12382
1.12246
1.09392
1.06097
1.07344
1.10196
1.09766
1.07122
1.0723
1.07635
1.07873
1.06251
1.06139
1.06298
1.07541
1.08246
1.10084
1.06243
1.01945
1.06253
1.07309
1.05933
1.0579
1.06013
1.05979
1.07445
1.10435
1.07827
1.0786
1.0535
1.04307
1.05098
1.05949
1.00137
1.03965
1.02711
1.01992
1.02602
1.01676
1
1.01834
1.02271
1.05113
1.01552
1.00056
1.0122
1.01675
1.00521
1.00286
1.00326
1.00077
1.01659
1.02298
1.03166
1.01824
1.05439
1.01106
1.03867
1.0736
1.05412
1.0127
1.0066
1.00088
1.01784
1.02913
1.00969
1.00401
1.00039
1.00825
1.04555
1.01346
1.00005
1
1.00169
1.03826
1.02912
1.0443
1.0684
1.06582
1.08817
1.07688
1.08843
1.08694
1.0844
1.07457
1.07302
1.06073
1.06597
1.06454
1.08422
1.07919
1.0054
1.00562
1.00424
1.07221
1.03733
1.06322
1.02036
1.01941
1.05307
1.07219
1.0661
1.05457
1.07435
1.06422
1.03833
1.05882
1.04721
1.05593
1.0182
1.01181
1.01131
1.00165
1.02068
1.01493
1.01865
1.01177
1.00381
1.00747
1.0431
1.03368
1.0003
1.01576
1.01608
1.00223
1.00131
1.01977
1.00706
1.01833
1.00733
1.00104
1.03457
1.00631
1.04178
1.00107
1.01986
1.00055
1.00553
1.01857
1.00038
1.0016
1.01602
1.03525
1.03894
1.00217
1.0019
1.00824
1.00332
1.00522
1.04139
1.02955
1
1.01149
1.0261
1.02244
1.01364
1.00388
1.00017
1.01615
1.01413
1.00743
1.01266
1.01123
1.00076
1.04292
1.01931
1.06844
1.00502
1.00633
1.107
1.06917
1.10818
1.02835
1.03724
1.02184
1.05389
1.06513
1.03951
1.00251
1.00746
1.01805
1.02039
1.02427
1.04798
1.02544
1.01642
1.00005
1.02246
1.04966
1.05937
1.01989
1.04036
1.00139
1.06586
1.05505
1.01262
1.00037
1.02124
1.00604
1.00031
1.00089
1.00824
1
1.02334
1.02235
1.01842
1.0393
1.04594
1.06852
1.09154
1.00246
1.07055
1
1.06665
1.05468
1.05647
1.00652
1.00282
1.00137
1.04081
1.01587
1.01204
1.05507
1.04997
1.03016
1.06763
1.06228
1.0421
1.04129
1.05303
1.04141
1.01176
1.01295
1.00131
1.00236
1.00493
1.03921
1.11405
1.07398
1.08857
1.10589
1.16472
1.15742
1.19876
1.0676
1.04568
1.01565
1.03045
1.03305
1.03151
1.01169
1.08381
1.12581
1.08574
1.20215
1.1702
1.19065
1.0784
1.11704
1.07529
1.0858
1.08203
1.14599
1.02746
1.02405
1.13155
1.07805
1.00115
1.01022
1.00227
1.01817
1.05399
1.00517
1.02358
1.00467
1.1114
1.15109
1.12141
1.09144
1.12903
1.00462
1.03411
1.01509
1.01088
1.02979
1.00518
1.07783
1.0006
1.00148
1.00396
1.01263
1.02305
1.01309
1.04066
1.03095
1.02251
1.11449
1.08729
1.0286
1.04564
1.03218
1.04316
1.00438
1.00485
1.02151
1.01136
1.00067
1.0309
1.00959
1.00091
1.00935
1.00691
1.00227
1.02716
1.00076
1.0072
1.04296
1.01839
1.00086
1.03116
1.01206
1.02336
1.02238
1.00119
1.02969
1.02665
1.00463
1.0003
1.01182
1.06862
1.02074
1.00582
1.00908
1.01742
1.01878
1.0002
1.06338
1.00905
1.00051
1.00265
1.00112
1.01114
1.0011
1.01594
1.00827
1.00552
1.00078
1.06745
1.01788
1.03242
1.03945
1.04221
1.00804
1.02238
1.01985
1.05946
1.05053
1.06554
1.06672
1.02345
1.05971
1.01044
1.0036
1.03994
1.03773
1.00557
1.016
1.02807
1.00438
1.01809
1.05014
1.00102
1.00406
1.10657
1.00447
1.04723
1.06358
1.05159
1.01021
1.00023
1.02151
1.01118
1.0146
1.01218
1.03073
1.00066
1.02217
1.00196
1.0203
1.01735
1.01868
1.00667
1.00519
1.00167
1.01373
1.00137
1.08223
1.01043
1.05593
1.04061
1
1.00083
1.00239
1.00002
1.01374
1.04628
1.00062
1.01433
1.00044
1.0022
1.00004
1.01164
1.0171
1.05325
1.00599
1.00369
1.00936
1.02332
1.00438
1.06622
1.06124
1.07566
1.02497
1.01548
1.00884
1
1.04606
