# vtk DataFile Version 4.2
vtk output
ASCII
DATASET POLYDATA
POINTS 642 double
-31.165 19.3203 -81.634
-29.5577 19.3179 -81.6347
-31.1479 16.5961 -81.6515
-29.5787 16.6038 -81.6537
-30.3608 17.1606 -80.4162
-30.3572 18.82 -80.3334
-30.3614 17.1653 -82.9081
-30.3597 18.7715 -82.9017
-29.1701 17.983 -82.3944
-29.1334 18.0034 -80.8713
-31.5559 17.9769 -82.4005
-31.5941 17.9999 -80.8728
-31.5757 18.7684 -81.1699
-31.1075 18.4741 -80.4207
-30.839 19.2773 -80.8548
-29.88 19.2756 -80.8538
-30.3597 19.5739 -81.6345
-29.8952 19.2368 -82.3954
-30.8241 19.2384 -82.3955
-31.0693 18.4399 -82.83
-31.543 18.7543 -82.0885
-31.7893 17.9873 -81.6278
-29.612 18.4764 -80.4196
-29.1495 18.7645 -81.1697
-31.0807 17.5149 -80.4682
-30.3594 18.0044 -80.1541
-31.5082 17.1715 -82.0849
-31.5212 17.1873 -81.2076
-30.3621 17.9636 -83.1288
-31.0618 17.4952 -82.8349
-29.1785 18.7536 -82.0885
-29.651 18.4432 -82.8261
-29.2068 17.1964 -81.2058
-29.6398 17.518 -80.4691
-29.9125 16.6721 -80.9192
-30.8143 16.661 -80.9159
-30.3634 16.3394 -81.6417
-30.826 16.6726 -82.3841
-29.9021 16.6786 -82.3797
-29.6665 17.4981 -82.8289
-29.2258 17.1824 -82.0804
-28.9397 17.9932 -81.632
-31.4049 19.1 -81.4011
-31.2616 19.0724 -80.9824
-31.0413 19.3555 -81.2514
-31.4079 18.2331 -80.6229
-31.3951 18.6555 -80.7523
-31.6309 18.3767 -80.9861
-30.5925 19.0795 -80.5324
-31.009 18.918 -80.5814
-30.7293 18.6823 -80.3218
-30.6137 19.5054 -81.2194
-30.8065 19.5014 -81.6353
-30.1239 19.0787 -80.5309
-30.3591 19.3489 -80.8094
-29.9137 19.4999 -81.6348
-30.1058 19.5044 -81.2196
-29.6804 19.3533 -81.2512
-30.61 19.4802 -82.0443
-31.029 19.3357 -82.013
-29.691 19.333 -82.0131
-30.1101 19.4792 -82.0442
-30.5842 19.033 -82.7041
-30.3597 19.3046 -82.4375
-30.1348 19.0326 -82.7038
-31.2329 19.0467 -82.2743
-31.3903 19.0905 -81.862
-30.7112 18.6376 -82.9197
-30.9811 18.8808 -82.6608
-31.592 18.3612 -82.2739
-31.3521 18.6322 -82.4992
-31.3647 18.2055 -82.6388
-31.6234 18.8013 -81.6282
-31.715 17.9846 -82.0491
-31.7295 18.3946 -81.8654
-31.745 18.4003 -81.3916
-31.7427 17.9927 -81.219
-29.461 19.0701 -80.9802
-29.3201 19.0962 -81.4013
-29.9863 18.6839 -80.3203
-29.7093 18.9174 -80.5779
-29.0946 18.3768 -80.9858
-29.328 18.6544 -80.7503
-29.3146 18.2344 -80.6221
-30.7467 18.2483 -80.2135
-30.3581 18.4421 -80.1898
-31.39 17.7663 -80.6434
-31.1281 18.0034 -80.3841
-30.3598 17.557 -80.2437
-30.7393 17.7551 -80.2436
-30.7143 17.3016 -80.392
-31.7194 17.5767 -81.4078
-31.6026 17.6109 -81.01
-31.5736 17.5911 -82.2779
-31.7028 17.564 -81.8683
-31.3578 16.8286 -81.4359
-31.577 17.1343 -81.6522
-31.3628 16.8268 -81.8732
-31.0921 17.9654 -82.8944
-31.3568 17.7363 -82.6421
-30.361 18.3912 -83.0635
-30.7256 18.2029 -83.0534
-30.708 17.2966 -82.9258
-30.7251 17.724 -83.0541
-30.3617 17.5354 -83.0646
-29.7379 18.8801 -82.6595
-30.0084 18.6387 -82.9177
-29.331 19.0873 -81.8649
-29.4863 19.0446 -82.2742
-29.3591 18.2108 -82.633
-29.3691 18.633 -82.4969
-29.1318 18.3638 -82.271
-29.3732 16.8377 -81.4398
-29.5145 16.8831 -81.0395
-29.709 16.5797 -81.2906
-29.334 17.7692 -80.643
-29.3732 17.3238 -80.7988
-29.1272 17.6122 -81.0091
-30.1446 16.8848 -80.6207
-29.7487 17.0563 -80.6538
-30.006 17.3043 -80.3924
-30.1192 16.4224 -81.2493
-29.9198 16.4167 -81.6484
-30.5812 16.879 -80.6222
-30.3669 16.5927 -80.8712
-30.8045 16.4101 -81.6449
-30.6113 16.4154 -81.245
-31.0173 16.5684 -81.2827
-30.1106 16.4312 -82.043
-29.7002 16.5811 -82.0105
-31.0269 16.5743 -82.0162
-30.6149 16.4276 -82.045
-30.1415 16.9021 -82.7007
-30.3635 16.6103 -82.4246
-30.584 16.8991 -82.7009
-29.5164 16.8758 -82.2538
-29.372 16.8327 -81.8671
-30.0169 17.298 -82.9232
-29.7574 17.0586 -82.6559
-29.1548 17.6006 -82.2729
-29.3977 17.3155 -82.495
-29.3703 17.7421 -82.6348
-29.1585 17.1427 -81.6474
-29.012 17.9907 -82.0467
-29.026 17.5755 -81.8669
-29.0127 17.5802 -81.4073
-28.9883 17.9986 -81.2184
-29.9794 17.756 -80.2447
-29.5909 18.0052 -80.3844
-29.9704 18.2503 -80.2135
-31.2099 16.8701 -81.0379
-30.9731 17.047 -80.6544
-31.3506 17.3175 -80.7981
-30.9716 17.0519 -82.6578
-31.2183 16.8664 -82.2629
-31.333 17.3065 -82.5002
-29.6325 17.9691 -82.8874
-30.0002 17.7243 -83.0494
-29.9973 18.2048 -83.0495
-28.9808 18.4011 -81.3927
-28.9949 18.3961 -81.8659
-29.0994 18.7974 -81.6319
-31.2843 19.2301 -81.5251
-31.237 19.2391 -81.3164
-31.1161 19.3485 -81.4576
-31.4371 18.9284 -81.0721
-31.3489 19.0944 -81.1863
-31.5032 18.9457 -81.2822
-30.9488 19.3327 -81.0493
-31.1576 19.2281 -81.1056
-31.0582 19.1915 -80.9091
-31.519 18.1089 -80.7509
-31.5316 18.3153 -80.7937
-31.6213 18.1738 -80.9176
-31.2613 18.5705 -80.5712
-31.4087 18.4489 -80.6733
-31.2714 18.3548 -80.5116
-31.6164 18.5758 -81.0706
-31.5275 18.5253 -80.866
-31.502 18.7215 -80.9557
-30.4654 18.9474 -80.4126
-30.6723 18.8921 -80.4145
-30.53 18.7637 -80.316
-30.9307 19.1135 -80.706
-30.808 19.014 -80.5481
-30.7178 19.1909 -80.6796
-30.9229 18.5854 -80.3565
-30.8782 18.8055 -80.4377
-31.0678 18.7006 -80.4852
-31.3435 18.8744 -80.8556
-31.2162 18.7961 -80.6539
-31.1466 19.0099 -80.7693
-30.925 19.4481 -81.4352
-31.0077 19.4162 -81.6349
-30.7337 19.4089 -81.0261
-30.8334 19.4458 -81.2251
-30.5894 19.5549 -81.635
-30.7094 19.5218 -81.427
-30.4869 19.5605 -81.4271
-30.2498 18.9471 -80.4118
-30.3582 19.0985 -80.523
-30.1128 19.3294 -80.8203
-30.2351 19.2293 -80.6613
-30 19.1895 -80.6782
-30.4825 19.2297 -80.6618
-30.6057 19.3302 -80.8208
-29.7136 19.4143 -81.6348
-29.7959 19.4465 -81.4352
-29.6067 19.3463 -81.4577
-30.2323 19.5602 -81.427
-30.0106 19.5207 -81.427
-30.1303 19.5539 -81.6345
-29.7716 19.3306 -81.0487
-29.887 19.444 -81.2253
-29.9858 19.4076 -81.0258
-30.4883 19.4483 -81.0045
-30.2306 19.4479 -81.0044
-30.3595 19.5264 -81.2136
-30.9201 19.4374 -81.8335
-31.1092 19.3398 -81.8103
-30.4865 19.5469 -81.8412
-30.707 19.5096 -81.8416
-30.9339 19.3023 -82.2089
-30.8254 19.4225 -82.0387
-30.7248 19.3749 -82.2308
-29.612 19.3371 -81.8106
-29.8004 19.4351 -81.8329
-29.995 19.3734 -82.2308
-29.8947 19.4204 -82.0384
-29.7857 19.3 -82.2089
-30.0131 19.5081 -81.841
-30.2334 19.5464 -81.841
-30.4625 18.8997 -82.8207
-30.3595 19.0508 -82.712
-30.2565 18.8997 -82.8204
-30.5985 19.2875 -82.4273
-30.4789 19.183 -82.5791
-30.7052 19.1467 -82.5629
-30.0139 19.1457 -82.5626
-30.2403 19.1827 -82.579
-30.121 19.2867 -82.4273
-30.3599 19.501 -82.0504
-30.2341 19.4115 -82.2514
-30.4856 19.412 -82.2514
-31.2219 19.2244 -81.9485
-31.2782 19.225 -81.7407
-31.0361 19.1585 -82.3443
-31.1374 19.2037 -82.1548
-31.479 18.9334 -81.9784
-31.3248 19.0765 -82.0755
-31.404 18.9096 -82.1866
-30.5235 18.7157 -82.9219
-30.6593 18.8466 -82.8214
-31.0339 18.6665 -82.7582
-30.8544 18.7651 -82.8017
-30.8934 18.5457 -82.8892
-30.7899 18.971 -82.6908
-30.9094 19.0738 -82.539
-31.5815 18.1554 -82.3479
-31.4887 18.2945 -82.4667
-31.4777 18.0832 -82.517
-31.4617 18.7027 -82.3005
-31.485 18.5062 -82.3906
-31.5801 18.561 -82.1878
-31.2293 18.3247 -82.7446
-31.3648 18.425 -82.5812
-31.2198 18.5427 -82.6775
-31.1165 18.9772 -82.4795
-31.179 18.7665 -82.5926
-31.306 18.8495 -82.3972
-31.4159 19.1026 -81.6313
-31.5977 18.7877 -81.8639
-31.5222 18.9521 -81.7494
-31.5313 18.9566 -81.5102
-31.6159 18.7954 -81.3936
-31.6393 17.9805 -82.245
-31.6692 18.1806 -82.1611
-31.7756 18.1916 -81.7464
-31.7372 18.1909 -81.955
-31.7665 17.9868 -81.8417
-31.6734 18.388 -82.0733
-31.6515 18.5831 -81.9814
-31.7023 18.1921 -81.1025
-31.6744 17.9969 -81.0275
-31.6762 18.5933 -81.276
-31.7029 18.3989 -81.1855
-31.7822 17.9889 -81.4187
-31.7591 18.1957 -81.3053
-31.7832 18.1925 -81.5103
-31.6937 18.6056 -81.7489
-31.7555 18.4028 -81.6278
-31.7018 18.6092 -81.5065
-29.487 19.2362 -81.3159
-29.4401 19.2269 -81.526
-29.662 19.1894 -80.9074
-29.5645 19.2257 -81.1044
-29.222 18.9417 -81.2819
-29.3755 19.0912 -81.185
-29.2876 18.9255 -81.0706
-30.1844 18.7642 -80.315
-30.043 18.8918 -80.4122
-29.6514 18.7018 -80.4826
-29.8384 18.8061 -80.4345
-29.7948 18.5879 -80.3552
-29.9087 19.0129 -80.5454
-29.7875 19.1118 -80.7035
-29.1054 18.1769 -80.9169
-29.1927 18.3162 -80.793
-29.2062 18.1112 -80.75
-29.2226 18.7189 -80.9544
-29.1958 18.5238 -80.8645
-29.1077 18.5732 -81.0699
-29.4492 18.3561 -80.5108
-29.3134 18.449 -80.6718
-29.4599 18.5713 -80.5692
-29.5737 19.0084 -80.7664
-29.505 18.7958 -80.6511
-29.3798 18.8727 -80.8533
-30.5488 18.5618 -80.2371
-30.3573 18.6513 -80.2551
-30.9356 18.367 -80.3008
-30.7477 18.4667 -80.2532
-30.3588 18.2261 -80.1556
-30.5536 18.3429 -80.184
-30.5512 18.1264 -80.1638
-31.5104 17.8928 -80.76
-31.4046 18.0028 -80.6162
-31.1125 17.7588 -80.4123
-31.2663 17.8809 -80.5008
-31.2467 17.6392 -80.545
-31.2752 18.1241 -80.4888
-31.1277 18.2426 -80.387
-30.3601 17.3384 -80.3269
-30.543 17.4302 -80.3017
-30.5245 17.2185 -80.3941
-30.5494 17.8807 -80.1806
-30.5492 17.6586 -80.2267
-30.3598 17.78 -80.1852
-30.9006 17.4001 -80.4155
-30.7352 17.5276 -80.3072
-30.9191 17.6299 -80.3416
-30.9467 18.1275 -80.281
-30.9404 17.8778 -80.2953
-30.7473 18.0034 -80.2098
-31.6893 17.7976 -81.1148
-31.6082 17.8217 -80.9306
-31.7715 17.7843 -81.515
-31.7465 17.7873 -81.3152
-31.5726 17.3983 -81.1019
-31.6747 17.5848 -81.2067
-31.633 17.3744 -81.3041
-31.5731 17.7998 -82.3507
-31.6584 17.7815 -82.1645
-31.6172 17.3564 -81.9835
-31.6503 17.5668 -82.0771
-31.5525 17.3796 -82.1881
-31.7239 17.7776 -81.9566
-31.7623 17.7809 -81.7468
-31.2533 16.6911 -81.5505
-31.3783 16.8201 -81.6555
-31.2566 16.6916 -81.7568
-31.5635 17.15 -81.4271
-31.482 16.9749 -81.5418
-31.4472 16.9938 -81.3222
-31.4462 16.9854 -81.9811
-31.4821 16.972 -81.7678
-31.5583 17.1396 -81.8726
-31.7281 17.5642 -81.6361
-31.653 17.3395 -81.76
-31.6594 17.3476 -81.5296
-31.3652 17.9706 -82.6572
-31.4731 17.8647 -82.5186
-31.0879 18.2046 -82.8762
-31.2342 18.0893 -82.7794
-31.22 17.6128 -82.7486
-31.2312 17.8461 -82.781
-31.0843 17.7268 -82.8785
-30.3602 18.6005 -82.9866
-30.54 18.5123 -83.0097
-30.5428 18.0826 -83.111
-30.544 18.2944 -83.0762
-30.3617 18.1793 -83.1118
-30.7263 18.4205 -82.999
-30.903 18.3248 -82.9567
-30.5225 17.2193 -82.9283
-30.5399 17.416 -83.0139
-30.3613 17.33 -82.9919
[...]
POINT_DATA 642
SCALARS Mean_Curvature double 1
LOOKUP_TABLE default
1.30399
1.30259
1.49403
1.57172
1.13906
1.30473
1.3018
1.21865
1.1111
1.1828
1.11433
1.17315
1.42416
1.26445
1.35132
1.33718
1.32252
1.31415
1.32046
1.153
1.25152
1.16153
1.27598
1.37461
1.03412
1.3093
1.05825
1.16314
1.44435
1.22492
1.29699
1.20204
1.19654
1.05721
1.41229
1.51654
1.26039
1.45681
1.40035
1.1999
1.05
1.15809
1.34129
1.31644
1.32176
1.25871
1.31008
1.2562
1.32868
1.29547
1.2563
1.36255
1.28811
1.33348
1.37506
1.29809
1.35298
1.32164
1.33118
1.32162
1.31132
1.33126
1.2916
1.30288
1.29419
1.3178
1.28586
1.2084
1.2788
1.13637
1.21143
1.10623
1.3434
1.04604
1.17487
1.18164
1.2119
1.32954
1.28994
1.30845
1.34485
1.25576
1.29385
1.27736
1.28479
1.3016
1.10889
1.2142
1.12292
1.17195
1.14164
1.21635
1.12986
1.07393
0.987566
1.29619
1.32333
1.47553
1.21042
1.12037
1.29806
1.35246
1.29076
1.33836
1.24482
1.28603
1.21267
1.30266
1.33201
1.10362
1.21705
1.1523
1.24533
1.1726
1.45989
1.12888
1.19302
1.09702
1.14589
1.15803
1.15182
1.44932
1.44717
1.13418
1.56773
1.39652
1.54815
1.51009
1.41929
1.50882
1.50164
1.44358
1.22521
1.28425
1.21695
1.26015
1.56155
1.32299
1.21124
1.08933
1.13177
1.10371
1.20623
1.05967
1.00653
1.14715
1.1515
1.16256
1.23776
1.31193
1.16751
1.1433
1.1785
1.19978
1.46171
1.14877
1.17981
1.30342
1.32618
1.21467
1.21048
1.35455
1.32725
1.32687
1.30028
1.33271
1.32702
1.36803
1.33828
1.31547
1.32817
1.24729
1.25205
1.26371
1.27245
1.25555
1.29212
1.30458
1.25864
1.36654
1.33789
1.31054
1.26877
1.33144
1.32025
1.3477
1.24575
1.26935
1.25853
1.3195
1.29076
1.31857
1.29644
1.29768
1.35601
1.34355
1.27807
1.28508
1.31928
1.33702
1.31241
1.3573
1.33653
1.33472
1.33557
1.35739
1.3152
1.31582
1.3021
1.33486
1.29611
1.27166
1.3293
1.32821
1.35831
1.36224
1.36511
1.28723
1.33524
1.31724
1.27992
1.32342
1.32186
1.3396
1.33211
1.31001
1.3197
1.32741
1.31983
1.31482
1.31029
1.28479
1.23816
1.26649
1.2403
1.32073
1.29711
1.30896
1.3065
1.29917
1.32058
1.31978
1.34251
1.34011
1.30837
1.28618
1.32006
1.31912
1.27932
1.31033
1.29187
1.21842
1.24093
1.20259
1.23589
1.16065
1.28765
1.30839
1.09168
1.16439
1.11249
1.26061
1.16995
1.19308
1.17617
1.15416
1.17064
1.30803
1.25718
1.28717
1.32642
1.29456
1.30424
1.35835
1.43957
1.08714
1.06543
1.14265
1.13425
1.10906
1.15307
1.23844
1.18068
1.19039
1.34965
1.2896
1.29985
1.21596
1.12911
1.2777
1.16897
1.28727
1.30494
1.27037
1.33636
1.32287
1.33244
1.30964
1.31902
1.3022
1.3414
1.29297
1.34742
1.274
1.33801
1.34173
1.25028
1.26023
1.24226
1.31461
1.31028
1.34129
1.29119
1.29361
1.28795
1.34825
1.31105
1.32298
1.27537
1.26701
1.29002
1.27067
1.32119
1.31717
1.35235
1.13601
1.19285
1.1432
1.15585
1.09305
1.25042
1.28651
1.11832
1.07778
1.15311
1.23273
1.15476
1.18568
1.14734
1.06027
1.12127
1.26558
1.19255
1.26427
1.17523
1.15384
1.21468
1.22538
1.06363
1.14668
1.08085
1.08352
1.05029
1.05791
1.0445
1.06885
1.00707
1.0675
1.44725
1.36605
1.48526
1.19147
1.28086
1.1726
1.34829
1.34281
1.38074
1.07818
1.0803
1.07276
1.11384
1.10968
1.13046
1.11379
1.17327
1.13227
1.17627
1.20394
1.22314
1.43898
1.34336
1.40364
1.22207
1.17803
1.30535
1.33394
1.33038
1.20855
1.28783
1.27616
1.43591
1.32919
1.45158
1.31945
1.40508
1.30182
1.24492
1.22245
1.31041
1.2917
1.19051
1.23889
1.21933
1.2889
1.31314
1.32458
1.32478
1.31018
1.32201
1.32201
1.10416
1.15758
1.09334
1.21017
1.19875
1.16827
1.19598
1.20147
1.25419
1.3216
1.31253
1.26181
1.54831
1.38558
1.52313
1.1769
1.19267
1.18872
1.45702
1.31049
1.23955
1.15484
1.09044
1.12436
1.17766
1.02744
1.10308
1.14827
1.12886
1.19598
1.13953
1.14767
1.15864
1.16461
1.14527
1.25549
1.14801
1.15339
1.16312
1.1744
1.17268
1.16404
1.45902
1.52107
1.47338
1.46578
1.43319
1.3886
1.52951
1.13605
1.12053
1.59535
1.3998
1.29356
1.31469
1.453
1.45672
1.45543
1.48867
1.59776
1.48105
1.43918
1.53417
1.54558
1.57872
1.50669
1.56397
1.51977
1.49491
1.549
1.36734
1.41993
1.46773
1.46817
1.43857
1.48936
1.46178
1.46621
1.47764
1.48893
1.41715
1.36541
1.27279
1.20327
1.26695
1.34619
1.1297
1.14294
1.11517
1.12604
1.3833
1.36925
1.39746
1.40686
1.56421
1.59809
1.44295
1.53128
1.22906
1.54279
1.04859
1.31759
1.28539
1.23486
1.27641
1.28934
1.23286
1.15635
1.08073
1.1074
1.10571
1.09474
1.10294
1.0762
1.14795
1.12941
1.17799
1.13793
1.16784
1.11476
1.4589
1.17661
1.24817
1.21104
1.20887
1.08858
1.05467
1.14454
1.02195
1.09704
1.07497
1.07263
1.14411
1.14895
1.12717
1.12794
1.15589
1.15922
1.16499
1.09976
1.1441
1.09837
1.08346
1.12203
1.06696
1.1455
1.22184
1.21852
1.3097
1.2804
1.18256
1.15363
1.27251
1.34398
1.31364
1.26905
1.27444
1.18932
1.27574
1.232
1.46848
1.28828
1.40855
1.21582
1.15326
1.13908
1.14593
1.1387
1.13578
1.16355
1.10993
1.16827
1.04555
1.02514
1.16168
1.15149
1.15419
1.15366
1.26643
1.12019
1.2166
1.25278
1.23138
1.51204
1.19338
1.52689
1.51331
1.48551
1.1024
1.20204
1.15
1.11025
1.09297
1.11657
1.11402
1.17851
1.10685
1.1653
1.11593
1.10388
1.12907
1.36254
1.44847
1.31013
1.27669
1.19298
1.21068
1.18087
1.20743
1.33259
1.41945
1.26424
1.38705
1.27826
1.24349
1.14075
1.18404
1.27667
1.37388
1.097
1.22487
1.1723
1.16865
1.18839
1.278
1.37419
1.29147
1.31927
1.36056
1.19903
1.30566
1.31589
SCALARS CoVolArea double 1
LOOKUP_TABLE default
0.0304752
0.0304171
0.0286709
0.0276573
0.0305074
0.0302882
0.0284833
0.0293033
0.0289313
0.0286947
0.029216
0.0289014
0.0496654
0.0514297
0.0536556
0.0536715
0.0545039
0.0511019
0.0511045
0.0508314
0.0496326
0.0496036
0.0510386
0.0498349
0.0527153
0.0491383
0.0498843
0.0519899
0.0455324
0.0494817
0.0487943
0.0502234
0.0507129
0.0521897
0.0499841
0.0488681
0.0531965
0.050304
0.0505855
0.049146
0.0506821
0.0495914
0.0479045
0.0547734
0.0497545
0.0463028
0.0531932
0.0460953
0.0494518
0.0550059
0.0487752
0.0566869
0.050254
0.0493985
0.0561601
0.0500776
0.056574
0.0496097
0.0550945
0.0483295
0.0483324
0.0551366
0.046912
0.053628
0.046849
0.0523631
0.0476061
0.0470047
0.0520199
0.0464193
0.051619
0.0467838
0.0512604
0.0478283
0.0515717
0.0511557
0.0458375
0.0545117
0.0483036
0.0481451
0.0543895
0.0454135
0.0529396
0.0458335
0.0522494
0.0475652
0.0480189
0.0523106
0.0483177
0.0530762
0.0490518
0.052523
0.0478675
0.0480335
0.0543303
0.0458339
0.0510743
0.0441712
0.0510692
0.0465034
0.0451596
0.0495236
0.0456902
0.0492415
0.0445601
0.0517489
0.0468372
0.0473919
0.0519968
0.0463618
0.0510291
0.0457723
0.0451615
0.0532944
0.0461978
0.0474065
0.0533934
0.0476268
0.0478902
0.0541608
0.0486801
0.0534568
0.0480222
0.0474445
0.0509489
0.048617
0.0527176
0.0460781
0.0541597
0.0452319
0.0460164
0.054275
0.0483683
0.0542545
0.0486623
0.0510397
0.0427065
0.045016
0.0531953
0.0472459
0.0530274
0.0463767
0.0513625
0.0467882
0.0535064
0.0522788
0.04618
0.0532457
0.0519414
0.0522713
0.0531967
0.054662
0.0544902
0.053681
0.0509113
0.0533982
0.0512511
0.0492582
0.0497422
0.0503723
0.0505676
0.0511628
0.0425965
0.0485227
0.0433614
0.0526762
0.0498208
0.0481456
0.0510351
0.0507841
0.0547174
0.0405023
0.0458433
0.0404326
0.0528424
0.0482331
0.0479515
0.0468626
0.0478405
0.0517913
0.0430301
0.048581
0.0427808
0.0546556
0.0506989
0.0508488
0.0496457
0.050408
0.053743
0.0587415
0.0591295
0.059834
0.049642
0.043522
0.055438
0.0516522
0.051775
0.0520561
0.0560871
0.042933
0.0490373
0.0553084
0.0512824
0.0508764
0.0512592
0.0552821
0.0433154
0.0494006
0.0432282
0.0559947
0.0518663
0.0516883
0.0509721
0.0515326
0.0554133
0.0614537
0.0614199
0.0618005
0.0487789
0.0427819
0.0554186
0.0512066
0.0489984
0.0500944
0.0532693
0.0426777
0.048738
0.0533067
0.0501833
0.0490335
0.0512248
0.0554305
0.0411849
0.0465795
0.0411368
0.0527502
0.0486695
0.0481817
0.0481405
0.0486464
0.0527318
0.0602344
0.0591242
0.0591319
0.0475583
0.0423969
0.0520642
0.0489002
0.0478658
0.0485621
0.0512647
0.0412497
0.0463816
0.0516888
0.0481024
0.0482186
0.0479699
0.051694
0.0410817
0.0460945
0.0409983
0.0507433
0.0474211
0.0470054
0.0481033
0.0478506
0.0515937
0.0566451
0.0563872
0.0562331
0.047195
0.0508964
0.0481235
0.0480323
0.0504088
0.0415883
0.046535
0.051372
0.0482102
0.0484519
0.0475524
0.0505983
0.0456526
0.0405782
0.0499262
0.0470733
0.0464537
0.0472903
0.0509117
0.0555497
0.0559461
0.055117
0.0485524
0.0427855
0.0545357
0.0506469
0.0484711
0.049854
0.0526714
0.0424865
0.0481757
0.0529985
0.0496664
0.0489974
0.0504117
0.0544637
0.039953
0.0452669
0.0400516
0.0517813
0.0475049
0.0466361
0.0476382
0.0478311
0.0524001
0.0593727
0.058553
0.0584476
0.0477632
0.0424806
0.0523317
0.0492724
0.0472362
0.048284
0.0506416
0.0413154
0.0461612
0.0530145
0.0486375
0.0497948
0.0476761
0.0515688
0.0429203
0.0483999
0.0430153
0.0509863
0.0491385
0.0478031
0.0501856
0.0501405
0.0535611
0.0567721
0.0574351
0.0564246
0.0461137
0.04135
0.0507256
0.0470991
0.0495273
0.0487082
0.0530239
0.0414964
0.047773
0.052598
0.0503274
0.0494309
0.050078
0.0524142
0.0399318
0.0444513
0.0395434
0.0521728
0.04699
0.0482606
0.0451928
0.0456632
0.0499563
0.057588
0.0568992
0.0572978
0.046231
0.0410048
0.0513362
0.0479857
0.0472451
0.0476328
0.050472
0.0410186
0.0458568
0.0472145
0.0456225
0.0441157
0.0474406
0.0511058
0.0400898
0.044622
0.0395729
0.0500042
0.0462849
0.0468506
0.0441356
0.0453352
0.0472365
0.0544896
0.0527333
0.0542226
0.0462396
0.0411857
0.0515838
0.0478461
0.0478524
0.0478213
0.0511642
0.0423947
0.0473759
0.0506258
0.0481551
0.0472659
0.0487552
0.0519473
0.0406845
0.0454956
0.0405063
0.0508749
0.0471644
0.0475008
0.046384
0.0468379
0.0501072
0.056331
0.0556957
0.0558958
0.0386585
0.0450148
0.0398585
0.0525416
0.0480286
0.0478489
0.0473969
0.0476808
0.0518929
0.0409331
0.0473273
0.0413801
0.0531748
0.0494275
0.0491951
0.0482957
0.0489732
0.0522843
0.0427144
0.0481862
0.0428362
0.0526137
0.0496646
0.0480305
0.0497289
0.0498716
0.0533285
0.0583451
0.0585564
0.0585867
0.0466629
0.0404951
0.0515238
0.0485352
0.0502948
0.0497368
0.053662
0.0427222
0.0469097
0.0498053
0.0468568
0.0469993
0.0474595
0.0508837
0.0415448
0.0469012
0.0406771
0.0534244
0.0493935
0.0504388
0.0466283
0.0478631
0.0504972
0.0568427
0.0563
0.0579523
0.0462148
0.0392853
0.0547541
0.0497902
0.0467333
0.0481753
0.0519066
0.0405046
0.0471612
0.0518652
0.0485703
0.0469183
0.0502724
0.0548869
0.0411676
0.0483831
0.0413913
0.0529426
0.0506467
0.0496441
0.0495091
0.0506277
0.0527267
0.0597808
0.0584991
0.0585483
0.0431623
0.037964
0.0509887
0.045597
0.0450666
0.0446864
0.0506774
0.0397336
0.0458898
0.0508893
0.0473069
0.0462252
0.049108
0.0529083
0.040981
0.0460795
0.0407601
0.0527823
0.0485828
0.0492146
0.0471444
0.0477243
0.0510847
0.0579888
0.0577991
0.0579131
0.0429391
0.0507568
0.0449795
0.0464321
0.0515345
0.0409363
0.0468633
0.0515612
0.0488429
0.0474458
0.0494269
0.0530092
0.046511
0.040546
0.0518616
0.0484553
0.0471558
0.0477943
0.0510467
0.0573908
0.0570956
0.0569914
0.0482824
0.0533709
0.0500105
0.049224
0.0511828
0.0455898
0.0513542
0.0472376
0.0480404
0.0525974
0.0475395
0.0507676
0.048316
0.0489818
0.0521223
0.0573627
0.0566749
0.0565942
0.0453493
0.0512363
0.0472204
0.0479441
0.05315
0.0484104
0.0540624
0.0504117
0.0495734
0.052115
0.0477367
0.0536242
0.0499672
0.0501991
0.0539583
0.0588224
0.05946
0.0592069
0.0465228
0.0527127
0.0495576
0.0481448
0.0516194
0.0443958
0.0502298
0.0453083
0.0460993
0.0508206
0.0465202
0.0515134
0.0480243
0.0491232
0.0526254
0.0578007
0.0577176
0.0582125
0.0461132
0.0505067
0.0476631
0.0478662
0.0511925
0.0442853
0.047276
0.0452218
0.0458944
0.0498478
0.0458733
0.0510191
0.0474456
0.045746
0.0473203
0.0544401
0.0529482
0.0547648
0.0450875
0.0505799
0.0468815
0.0462791
0.0497177
0.0456659
0.0497123
0.0468118
0.0471395
0.0504872
0.0475144
0.0507014
0.0485015
0.0480484
0.0501303
0.0549786
0.0546727
0.0547275
SCALARS SignedDistance double 1
LOOKUP_TABLE default
1.47577
1.47947
1.49117
1.50711
1.70654
1.49184
1.59071
1.6523
1.82102
1.748
1.80071
1.7165
1.56215
1.55585
1.38124
1.38515
1.38724
1.51516
1.5117
1.73543
1.68491
1.81132
1.55634
1.56673
1.78829
1.63946
1.82597
1.74875
1.54866
1.70856
1.69621
1.74839
1.74944
1.78188
1.59226
1.58784
1.47214
1.60697
1.65301
1.742
1.85328
1.80714
1.48227
1.45129
1.41105
1.64593
1.55657
1.65009
1.42112
1.48209
1.52216
1.3865
1.41749
1.41104
1.35298
1.41529
1.38505
1.42647
1.42539
1.47042
1.47466
1.42762
1.58749
1.51493
1.58687
1.57171
1.55993
1.69002
1.63304
1.79184
1.71114
1.78579
1.61543
1.85439
1.76234
1.74427
1.69632
1.4612
1.5142
1.51252
1.46392
1.66684
1.56007
1.6558
1.58435
1.52599
1.75313
1.68123
1.74375
1.71145
1.71497
1.80704
1.75996
1.83136
1.88979
1.65712
1.78726
1.64273
1.74431
1.78775
1.64225
1.66685
1.61769
1.67328
1.67162
1.63316
1.6847
1.55546
1.57249
1.80949
1.71339
1.79675
1.68098
1.66479
1.53478
1.77235
1.75715
1.81447
1.67043
1.67253
1.71341
1.38312
1.36408
1.67682
1.55269
1.37067
1.33604
1.49421
1.41423
1.52787
1.46667
1.40791
1.6022
1.62767
1.6045
1.7944
1.72296
1.63141
1.68306
1.83097
1.77411
1.81442
1.79108
1.85738
1.89387
1.81323
1.74799
1.71255
1.68043
1.59468
1.66123
1.67525
1.74671
1.66417
1.72705
1.7515
1.77054
1.69545
1.68049
1.73669
1.75802
1.61002
1.46902
1.43574
1.44352
1.48902
1.45648
1.51106
1.39049
1.42514
1.41515
1.69385
1.63902
1.69114
1.56222
1.60004
1.60111
1.62638
1.60659
1.55649
1.45599
1.47634
1.50814
1.42649
1.45134
1.39493
1.53942
1.5042
1.52656
1.49712
1.51221
1.45884
1.42317
1.44869
1.35708
1.37606
1.41875
1.40587
1.39247
1.45426
1.42346
1.36347
1.39134
1.39217
1.39124
1.36096
1.44646
1.42307
1.4647
1.38909
1.40428
1.42442
1.39838
1.3888
1.36389
1.34702
1.34648
1.38877
1.43018
1.47217
1.42612
1.40364
1.48462
1.44167
1.46505
1.47472
1.44143
1.47038
1.45184
1.48852
1.41704
1.42925
1.63121
1.59743
1.631
1.50207
1.54956
1.54536
1.54617
1.54932
1.5026
1.42754
1.46213
1.4625
1.51294
1.5122
1.53222
1.51369
1.62104
1.56628
1.62864
1.65678
1.64176
1.69657
1.66936
1.72087
1.60439
1.56676
1.80966
1.78303
1.78949
1.69964
1.75048
1.74689
1.75726
1.74318
1.71917
1.59815
1.6696
1.64413
1.52184
1.64909
1.58105
1.54038
1.60563
1.82236
1.82792
1.78792
1.81124
1.84755
1.7836
1.72763
1.71099
1.70329
1.67065
1.69917
1.74424
1.72547
1.78176
1.69596
1.75582
1.69823
1.47113
1.50207
1.41353
1.43441
1.52568
1.47816
1.50693
1.49385
1.45471
1.52107
1.48139
1.53422
1.42433
1.41157
1.70974
1.66369
1.71016
1.56307
1.61384
1.62331
1.60147
1.60769
1.56073
1.45525
1.51493
1.51157
1.51661
1.51491
1.57507
1.54784
1.56723
1.54561
1.59688
1.73452
1.71008
1.73546
1.7224
1.7751
1.66397
1.61657
1.74799
1.76022
1.70751
1.67531
1.72276
1.69653
1.74354
1.76294
1.7551
1.63495
1.6951
1.65316
1.72512
1.73067
1.80802
1.74041
1.7922
1.76415
1.81311
1.82262
1.84814
1.85403
1.86153
1.81842
1.87594
1.87322
1.57312
1.62709
1.54371
1.77787
1.70609
1.71347
1.74396
1.70143
1.81494
1.87676
1.88786
1.86712
1.78131
1.79975
1.77262
1.77687
1.74624
1.76963
1.74472
1.67028
1.67795
1.59132
1.63965
1.59599
1.70721
1.74235
1.59281
1.64352
1.62402
1.70617
1.67497
1.65787
1.60667
1.66069
1.59447
1.70565
1.61952
1.7022
1.64009
1.65626
1.56697
1.60341
1.71695
1.66574
1.69272
1.50984
1.51128
1.63306
1.56511
1.62005
1.51411
1.53307
1.81403
1.79783
1.82644
1.72501
1.76197
1.7833
1.75336
1.75307
1.71019
1.59974
1.65114
1.67195
1.60598
1.61952
1.52039
1.69677
1.66954
1.70785
1.54955
1.62603
1.63834
1.76071
1.80605
1.77644
1.77097
1.82152
1.7828
1.81939
1.8246
1.74853
1.68908
1.67778
1.70708
1.65715
1.66835
1.64459
1.74158
1.68757
1.71464
1.69417
1.70034
1.66531
1.44481
1.42536
1.47611
1.44555
1.39205
1.39012
1.37691
1.68971
1.68973
1.54663
1.65949
1.65692
1.6488
1.55659
1.42449
1.40466
1.48622
1.34085
1.35206
1.41858
1.52681
1.40767
1.45117
1.4537
1.43021
1.34081
1.41791
1.49888
1.38093
1.36936
1.57974
1.45675
1.51987
1.45476
1.38145
1.4836
1.4057
1.51978
1.34395
1.38406
1.5821
1.60436
1.58305
1.61824
1.6396
1.66
1.65862
1.64117
1.61572
1.42807
1.51521
1.51333
1.61673
1.59453
1.71925
1.65812
1.81814
1.75911
1.83391
1.59221
1.59799
1.6993
1.64546
1.68967
1.63646
1.70191
1.8413
1.82316
1.82196
1.80698
1.8042
1.83058
1.78026
1.79151
1.75411
1.7491
1.73366
1.78179
1.69215
1.84402
1.7675
1.73078
1.76686
1.83635
1.86173
1.8446
1.88353
1.85606
1.86173
1.8802
1.7668
1.75203
1.82835
1.80727
1.77078
1.76385
1.78451
1.89019
1.85101
1.8542
1.76034
1.74928
1.75774
1.72778
1.68116
1.71755
1.60793
1.66227
1.72738
1.73685
1.52847
1.60839
1.54575
1.55391
1.57362
1.69591
1.63755
1.66253
1.58562
1.6317
1.60506
1.66512
1.69394
1.68025
1.71535
1.69048
1.67347
1.66057
1.76211
1.73454
1.79317
1.79836
1.76808
1.66446
1.69622
1.68596
1.59484
1.69008
1.63124
1.62767
1.66752
1.54967
1.78866
1.67785
1.58776
1.65288
1.80726
1.721
1.76631
1.79092
1.79058
1.72952
1.7627
1.70644
1.80424
1.76576
1.79803
1.80075
1.7908
1.65001
1.61627
1.67744
1.69572
1.72994
1.68368
1.75421
1.71249
1.64774
1.60929
1.73063
1.64995
1.72957
1.72067
1.77552
1.75266
1.69128
1.66442
1.83537
1.74161
1.78658
1.82476
1.79559
1.52743
1.59881
1.55846
1.57708
1.65309
1.74886
1.70552
1.69259
