# vtk DataFile Version 4.2
vtk output
ASCII
DATASET POLYDATA
POINTS 642 double
-67.8025 156.114 87.884
126.578 156.481 86.2484
-62.7641 -199.093 79.8507
122.449 -198.627 80.0987
30.6767 -113.741 218.755
31.8831 96.2464 244.909
30.5185 -115.817 -67.5664
31.2619 81.4555 -60.0505
154.261 -12.4668 1.78956
165.37 -0.237585 173.961
-94.7173 -15.1093 -1.42418
-108.322 -2.08063 171.22
-115.942 89.3875 143.243
-58.7059 49.1221 232.127
-28.736 156.717 185.469
90.248 155.521 185.566
30.57 192.493 87.6992
86.0408 144.969 -5.68805
-25.3237 145.65 -5.62433
-45.5257 42.9279 -48.7376
-102.426 85.3737 35.9505
-125.075 -11.0091 100.812
119.004 50.1543 233.219
175.466 87.1866 142.71
-44.1221 -69.0302 210.116
28.9617 0.350176 261.953
-84.8877 -128.768 42.6263
-92.7978 -116.367 132.114
28.6429 -18.2599 -99.9974
-42.7942 -79.4038 -54.2132
163.276 86.6902 37.0395
105.718 46.2945 -48.292
153.76 -112.645 133.678
104.838 -69.1674 210.853
78.6779 -190.051 162.65
-18.8522 -194.957 163.844
29.724 -230.175 89.3939
-25.6669 -190.634 5.89614
82.1024 -187.803 7.42825
99.7411 -79.4009 -51.857
138.597 -119.018 41.4291
183.342 -10.9967 92.123
-99.1716 127.867 118.239
-81.528 127.355 167.029
-53.717 163.732 138.254
-88.9795 24.2702 206.589
-93.7163 75.3897 191.315
-114.988 43.0785 162.925
0.465843 131.778 222.419
-48.4257 108.816 214.865
-14.4515 76.2364 245.011
-2.1083 184.061 142.139
-23.1145 181.497 85.1882
61.8169 130.654 223.767
29.6871 166.848 191.784
84.1811 181.568 86.2866
63.1747 184.181 141.463
113.152 163.776 138.455
-1.79431 178.385 34.6015
-49.225 159.385 37.8819
110.487 158.047 37.8686
61.5949 178.17 34.3574
1.54096 119.326 -38.2581
30.4926 153.398 -9.86222
59.3897 118.981 -38.5598
-71.4282 121.539 9.95822
-92.0087 124.679 59.9998
-8.05551 65.1933 -61.4042
-40.6777 100.592 -33.1333
-100.449 40.2571 16.2112
-78.5969 71.3837 -11.3423
-74.6512 15.233 -27.106
-117.486 92.5954 91.8758
-109.954 -7.10707 43.3834
-119.264 45.053 63.1082
-121.328 47.3346 119.624
-127.512 -12.1683 130.133
140.417 126.982 168.365
156.999 125.436 118.876
77.2818 78.3078 246.149
109.526 108.882 217.774
174.922 44.0755 162.101
152.851 74.2031 192.478
148.209 25.1764 207.891
-12.7225 22.1319 258.737
30.9864 41.9953 262.909
-81.9558 -29.7501 197.358
-55.7111 0.583944 232.126
29.8839 -53.6693 242.186
-9.73529 -27.6439 246.664
-10.9368 -98.4567 221.116
-117.791 -53.9836 116.567
-107.48 -53.2665 151.414
-92.9112 -62.2891 10.3422
-103.378 -66.3223 65.2166
-78.069 -167.871 102.709
-98.0314 -130.035 79.9718
-81.898 -169.318 56.4637
-40.6194 -19.6195 -64.2231
-71.5945 -48.2271 -30.028
29.7652 22.7215 -88.5205
-2.37312 0.888835 -87.7461
-7.5378 -100.931 -68.5174
-3.50619 -40.0731 -86.4016
29.2636 -63.9834 -82.9974
101.633 100.165 -33.4023
70.0738 66.4866 -62.0701
153.083 124.056 57.89
132.745 121.085 10.0075
133.661 19.3573 -24.9227
138.578 71.5497 -11.4484
160.847 40.0115 16.5259
135.127 -166.968 99.0787
120.073 -156.081 148.077
103.109 -200.583 123.823
140.163 -28.083 199.161
135.782 -100.182 175.792
161.172 -58.4668 150.035
55.5075 -157.608 189.754
98.1284 -128.144 193.85
71.7975 -98.7944 221.001
56.6545 -224.063 131.58
85.0485 -224.402 81.4796
4.05659 -162.422 186.664
26.0937 -201.792 170.164
-23.6692 -224.471 84.3576
-1.16456 -228.377 132.76
-44.4004 -204.607 127.396
63.342 -220.268 37.1025
107.132 -200.551 42.7766
-49.2167 -203.071 38.7364
-5.86753 -221.378 36.1303
54.8442 -143.823 -43.7523
29.2857 -194.177 2.29779
4.20613 -144.89 -42.4218
118.589 -165.529 24.9986
136.513 -171.272 61.943
65.8955 -101.875 -68.0854
90.3124 -124.418 -38.4602
153.409 -61.793 12.763
128.502 -92.6971 -15.4715
130.352 -46.9014 -26.5203
153.238 -126.505 86.3586
170.312 -4.26035 45.0855
165.473 -58.2936 67.3124
174.842 -56.4261 112.039
181.415 -7.15715 131.249
71.1523 -29.1643 245.085
117.893 1.56759 232.179
74.4787 24.974 257.077
-59.8015 -162.238 146.103
-37.5058 -130.312 192.455
-75.6438 -100.815 176.629
-33.2099 -126.392 -37.0561
-64.9049 -167.95 22.5469
-70.0635 -94.7328 -17.8473
99.3875 -18.4791 -61.2235
61.2357 -40.5349 -84.1378
61.2133 3.01805 -85.8322
182.405 48.0854 120.067
180.036 44.5421 64.844
178.463 89.9994 88.2824
-85.0877 143.531 104.096
-79.2717 146.919 128.919
-62.8194 160.832 112.806
-102.101 108.454 155.112
-92.6537 128.593 142.937
-109.493 109.278 131.254
-42.1262 162.461 162.393
-68.6446 147.138 154.094
-56.1834 144.049 177.395
-100.649 11.83 190.01
-104.115 33.2114 185.842
-113.416 17.0878 169.834
-77.0379 62.9126 213.462
-91.3476 49.3233 200.888
-75.3382 36.566 221.236
-115.93 69.6938 152.976
-105.813 61.7551 176.703
-107.209 83.9586 167.407
16.4951 114.18 236.438
-8.14227 106.275 235.436
8.72082 87.6592 246.343
-39.5916 134.752 202.082
-24.6088 122.351 219.901
-14.249 146.361 205.608
-37.4456 63.0829 240.027
-32.4388 93.8681 231.192
-54.7346 79.6057 224.684
-90.3317 102.122 180.698
-73.8229 92.396 204.508
-66.6283 120.24 192.787
-38.8521 174.737 114.868
-47.2454 170.055 86.0316
-16.3074 173.577 165.679
-28.4199 176.64 141.977
4.12854 188.295 86.6123
-11.6304 184.483 115.253
15.2686 191.032 113.594
46.3807 113.611 236.967
30.617 133.373 223.731
61.0912 163.629 190.164
46.2761 150.987 207.893
76.1875 144.799 206.455
14.0924 151.915 207.879
-0.339006 164.575 190.495
107.52 170.481 86.473
99.0549 175.079 114.591
120.673 161.09 112.465
45.8673 191.045 113.507
72.7195 184.514 115.092
56.7258 188.369 87.0725
102.893 161.903 162.173
89.2122 176.65 141.438
77.4706 173.177 164.868
13.4268 179.259 169.778
46.6576 178.547 169.104
30.3017 185.48 141.736
-37.0756 173.783 58.7265
-58.9639 159.887 61.7728
13.9655 186.095 60.1196
-12.9271 182.944 58.2467
-38.2629 154.455 15.582
-26.168 171.25 35.4018
-14.3881 164.358 13.4986
119.825 158.994 62.1504
97.8187 172.675 60.0868
74.4696 163.785 13.2612
86.3219 170.047 35.301
99.2267 153.393 15.327
72.7941 182.101 59.1529
46.4137 186.205 60.2716
16.6209 101.45 -49.8009
30.6279 120.776 -38.5362
45.0274 101.104 -50.1099
0.764399 151.9 -9.42238
14.7232 138.073 -25.1113
-11.8152 133.616 -23.86
72.503 133.207 -23.9664
46.1596 138.033 -25.1882
59.7243 151.765 -9.50148
30.3807 180.522 33.2195
46.1726 169.012 10.6123
14.4697 169.014 10.7135
-71.8863 143.735 46.1347
-80.8885 141.975 74.2085
-49.9612 135.479 1.02061
-61.8011 141.334 22.0063
-98.8907 105.883 47.2616
-82.3586 124.517 32.309
-88.5208 104.625 21.4141
10.8345 73.7099 -62.93
-5.78684 94.8817 -49.7857
-43.661 74.8224 -40.7303
-26.1458 85.8666 -46.8831
-26.3972 55.3102 -56.3497
-20.8987 111.36 -36.8697
-34.2401 123.987 -21.4526
-96.862 10.4463 6.04482
-89.1423 28.9603 -8.40209
-86.1575 -0.975954 -14.6997
-91.696 80.1143 10.1276
-90.7066 57.057 1.49088
-102.771 64.4612 26.2389
-62.6131 29.414 -39.203
-77.554 44.1775 -20.5092
-63.5796 58.6731 -30.7283
-57.2293 112.358 -13.4281
-61.4845 87.4207 -23.5242
-76.7919 97.2175 -2.42579
-98.7662 127.087 90.9194
-112.386 89.484 64.1718
-107.532 108.354 77.0297
-111.068 110.022 105.543
-118.484 92.6418 118.722
-102.539 -12.6279 16.2092
-107.184 16.3461 30.672
-122.549 16.1837 77.6635
-117.814 19.6693 56.046
-119.596 -5.5924 72.4293
-112.001 44.3246 42.2176
-113.63 65.9976 51.1419
-120.067 14.9368 148.844
-119.475 -7.18991 151.509
-120.414 72.1961 132.088
-120.458 47.395 141.629
-129.748 -13.5966 117.405
-125.131 9.49847 127.3
-123.982 8.68452 107.214
-120.003 70.918 76.6954
-121.721 47.034 89.2949
-120.759 73.9961 105.8
136.631 145.969 130.158
141.965 142.243 102.503
116.999 143.346 178.426
128 146.733 155.141
168.45 107.059 132.034
150.788 127.336 144.363
160.391 107.482 155.552
55.1812 88.1822 247.512
71.6931 105.703 237.443
114.613 81.3716 226.658
94.6084 94.9122 234.071
98.4427 65.4798 241.03
87.3707 121.225 222.346
101.555 133.666 203.916
171.226 20.9411 169.741
163.043 35.5177 186.079
158.321 12.9724 191.158
166.007 82.0582 167.576
166.477 59.5892 177.481
176.821 66.5843 152.534
135.696 36.5668 222.026
151.765 48.9646 201.812
136.854 63.1697 214.785
126.686 120.121 194.797
132.815 93.0377 206.507
148.599 102.064 181.962
7.80811 58.0527 256.986
31.6986 70.0246 254.436
-36.8436 35.3648 246.68
-14.8324 45.9886 253.753
29.8378 19.4674 264.624
7.6559 30.4479 263.211
8.20774 11.08 263.549
-96.7731 -15.2816 184.589
-86.1754 0.398869 204.491
-51.7337 -28.9849 225.233
-69.2585 -14.0868 216.578
-64.0564 -48.3333 206.504
-72.9902 13.5216 221.556
-58.6993 23.9394 234.874
30.5893 -90.1327 227.245
10.1577 -76.7902 229.59
9.02536 -107.485 221.558
9.24905 -12.3308 256.842
10.0031 -39.2494 247.072
29.0967 -23.3658 253.741
-27.807 -87.2311 218.93
-11.1278 -62.3929 230.623
-29.2654 -47.3105 230.725
-35.6898 12.0688 247.187
-32.9099 -13.8788 241.823
-11.3138 0.0723731 255.453
-120.161 -29.855 140.461
-110.452 -27.9452 160.986
-124.667 -27.2903 112.938
-125.645 -28.2461 122.835
-96.7204 -85.1106 143.051
-115.235 -53.5267 132.13
-102.38 -85.2601 121.962
-94.508 -36.4409 3.33849
-101.898 -36.5567 23.3335
-95.4464 -100.617 51.7069
-99.1359 -64.6664 32.437
-90.4511 -90.319 22.645
-108.991 -31.9216 52.9483
-118.262 -28.6168 86.4649
-71.386 -185.652 91.6156
-82.9005 -169.073 77.3943
-74.1452 -185.874 66.8597
-96.284 -125.055 103.776
-90.715 -147.798 89.2515
-85.9092 -143.421 115.469
-84.5026 -153.079 50.6631
-90.8692 -150.458 68.282
-95.2649 -132.894 64.621
-111.783 -61.6017 97.1109
-99.9622 -105.213 75.7723
-101.19 -95.7308 94.7117
-74.2331 -17.3544 -30.4866
-85.1612 -29.9782 -15.5476
-41.6799 6.36869 -56.8614
-58.8329 -3.89012 -44.5304
-58.0313 -65.3878 -43.3002
-57.8715 -33.6001 -46.8072
-42.1715 -46.3107 -58.6241
30.5856 52.5189 -73.8396
13.7109 40.8707 -77.3287
13.8819 -9.47141 -96.8721
14.5928 10.9277 -90.5222
28.9537 -1.18589 -96.1648
-4.00282 30.3105 -75.4082
-20.8626 19.5742 -69.3433
11.1267 -109.701 -69.9506
9.66788 -86.0749 -77.8183
30.469 -97.2114 -75.6819
-22.3076 -62.3054 -69.5198
-6.1608 -74.3325 -75.6871
-25.6028 -91.3887 -63.3364
28.6267 -32.6954 -96.789
11.2877 -49.4853 -88.286
13.9006 -26.3621 -97.0345
-21.4707 -9.77196 -79.5388
-3.85471 -18.0946 -91.8289
-22.1366 -28.4193 -78.7571
66.9228 94.1753 -50.7394
51.3101 74.2265 -63.2358
95.3679 123.434 -21.5972
[...]
POINT_DATA 642
SCALARS Mean_Curvature double 1
LOOKUP_TABLE default
0.00881993
0.0104198
0.0187734
0.0309164
0.00873814
0.00801629
0.0120801
0.00360697
0.0164426
0.00882384
0.0160653
-0.00133021
0.0237115
0.0129206
0.0135871
0.0119585
0.0178074
0.0116954
0.0126025
0.00745555
0.00849652
0.0112201
0.0117197
0.0202035
-0.0127306
0.0148738
-0.00617529
0.0125493
0.0469704
0.0122503
0.010381
0.0102167
0.0169914
-0.00880159
0.0198083
0.0212659
-0.00554468
0.0219739
0.015229
0.0095882
-0.0096037
0.0150322
0.0155108
0.0126239
0.0126612
0.0134559
0.0134619
0.0111738
0.0129839
0.0105543
0.00814115
0.0125827
0.00977999
0.0134259
0.014448
0.011614
0.0136102
0.0137971
0.0145774
0.012852
0.0123497
0.0157539
0.0144742
0.00764204
0.014481
0.0146007
0.00916424
0.00868853
0.0152696
0.00499565
0.00977248
0.00349447
0.0184679
0.000255492
0.0118661
-0.000817458
0.0255871
0.013069
0.0106799
0.0106425
0.0137217
0.0102076
0.0106011
0.0132953
0.0211504
0.0136658
0.00678897
0.0089353
0.00895322
0.0088755
0.0141685
0.0250137
0.0118688
0.00858299
-0.00488191
0.00731484
0.0233081
0.0255908
0.014274
0.00607944
0.0240437
0.0133793
0.0173442
0.0112089
-0.00404995
0.0149833
0.0133051
0.0116986
0.0151101
0.003352
0.00864269
0.00754088
0.00374134
0.00551032
0.0157821
0.00778538
0.0152288
0.00123252
0.00417361
0.0125461
0.015243
0.0162063
0.0226622
-0.000231747
0.0222182
0.0110424
0.0244279
0.0195737
0.0200648
0.0170529
0.0201157
0.0200509
0.0173244
0.0058592
0.0153117
0.0158156
0.0312922
0.0210632
0.0113994
0.014645
0.0120166
0.00473808
0.0156399
0.000652103
-0.0057577
0.0127129
0.0120626
0.00916634
0.0111509
0.0153176
0.00371028
0.0112611
0.0164996
0.0111626
0.0180297
0.0116772
0.0115801
0.00904141
0.0130487
0.00139576
0.0112284
0.0207455
0.0132121
0.014398
0.00984693
0.0144412
0.0133313
0.0155021
0.0124287
0.0111545
0.0123278
0.0149678
0.0116446
0.0202784
0.0109935
0.00836465
0.016432
0.0123948
0.00759254
0.0174725
0.0145388
0.0128572
0.00766554
0.0122854
0.0116469
0.0137725
0.00865831
0.00901536
0.00923511
0.0131412
0.0111139
0.0125509
0.0100787
0.00821889
0.0147896
0.0155608
0.00698178
0.00709675
0.014694
0.0127888
0.00784373
0.0136802
0.0105158
0.0120527
0.0133872
0.0155617
0.0116548
0.0119852
0.00855603
0.014733
0.00725411
0.00736832
0.0120027
0.0164386
0.0146044
0.0187062
0.0155154
0.00316852
0.0167565
0.0124163
0.00641106
0.0174507
0.012392
0.0143132
0.0130636
0.0119057
0.0140902
0.0127151
0.0119249
0.0121896
0.0136979
0.00772396
0.00824429
0.00711566
0.00810383
0.0137449
0.0112066
0.0136175
0.0129386
0.0116448
0.0141935
0.0130207
0.014535
0.0136442
0.0121833
0.00652125
0.0133116
0.0140774
0.0089782
0.0136009
0.0123445
0.0111767
0.0100163
0.00757576
0.0124107
0.00524982
0.0143118
0.0133576
0.00245316
0.0137291
0.00966188
0.0134958
0.00739956
0.00710273
0.0141696
0.00984015
0.00808025
0.0138986
0.0130705
0.0135339
0.0147166
0.0136847
0.0116724
0.0149704
0.0212685
0.0126418
0.00258579
0.0114164
0.0117413
0.00773487
0.0065253
0.0119135
0.00560007
0.0155422
0.0136471
0.0108021
0.0509557
0.0113016
-0.00246155
0.0158033
0.00342606
0.00657391
0.0110442
0.00570528
0.0133073
0.0127348
0.0160589
0.0131612
0.0127998
0.0110031
0.0149297
0.00937058
0.0156123
0.00804436
0.0136825
0.0135448
0.0115595
0.010039
0.0108666
0.0115228
0.0137441
0.0152284
0.015404
0.0121685
0.0103788
0.0141574
0.0108436
0.0118433
0.0123408
0.00612417
0.0124379
0.00862133
0.0145974
0.0173349
0.0245147
0.00437333
0.00888997
0.00928391
0.00779249
0.00969261
0.0120378
0.0175887
0.00666176
-0.00180754
0.0166643
0.0119371
0.0115184
0.00678849
0.0199019
-0.000976379
0.0104955
0.0137266
0.00881124
0.0122341
0.0133462
0.01143
0.00630251
0.0295276
0.0036541
0.0140754
0.000786976
0.00882971
0.00760764
0.00280994
0.00662259
0.00857457
0.0010345
0.00284819
0.013282
0.0142604
0.0226596
0.0118055
0.010623
0.00671775
0.0106849
0.0219091
0.0209164
0.00329314
0.00991615
-0.00282968
0.0104418
0.0118406
-0.00146726
0.00423652
0.0107819
0.00774409
0.00245464
0.00993079
0.0096045
0.0282876
0.0148366
0.0213288
0.00783217
0.00304403
0.0197601
0.017207
0.0119179
0.0014015
0.00835872
0.0178394
0.0229298
0.0134154
0.0294518
0.0186062
0.0325172
0.0145987
0.0111731
0.0121838
0.0134465
0.013874
0.00970254
0.0117556
0.00890883
0.0101415
0.0130143
0.0138074
0.0138925
0.0100895
0.014403
0.0134948
0.00589296
0.010978
0.00354535
0.0111954
0.0133035
0.00897232
0.0047722
0.00971526
0.0101123
0.0144893
0.0145624
0.0121817
0.0265806
0.0099682
0.018315
0.0109339
0.00407158
0.0101317
0.0205879
0.0107945
0.00776403
0.00675364
0.00473955
0.00671053
0.0198345
-0.0130942
0.00909822
0.010637
0.00983911
0.0169188
0.00700618
0.0139045
0.0168733
0.00231218
0.00791916
0.0131201
0.0171822
0.013977
0.0139626
0.0133194
0.0152937
0.0093184
0.0125423
0.0257065
0.0187791
0.0194952
0.0138021
0.00799
0.0272256
0.00649851
-0.00321862
0.0281166
0.0180502
0.0187296
0.00831245
0.0183757
0.0136957
0.0144456
0.017116
0.0300429
0.0247232
0.00436216
0.0202641
0.0208469
0.0219692
0.0164301
0.0199284
0.0197511
0.0205359
0.020115
0.0143109
0.0183844
0.0170457
0.0186036
0.0192043
0.0205371
0.0213035
0.0225734
0.0225265
0.0209658
0.0227769
0.0125332
0.0190023
0.00859608
0.018013
0.0169937
0.00167974
-0.000262337
-0.000747041
-0.00114261
0.0181041
0.0111682
0.0119192
0.0168992
0.0241223
0.0334032
0.0149072
0.0231105
0.00326145
0.023802
-0.00633698
0.0223262
0.0203288
0.0154165
0.0183288
0.0161337
0.0142527
0.004981
0.00414728
0.00975835
0.00903717
0.0105597
0.0126566
0.0108109
0.00802691
0.0101455
0.0133633
0.00183206
0.01012
0.00664739
0.0289814
0.00673721
0.010887
0.00839038
0.0162108
0.0107091
0.00554866
0.0159634
-0.00144137
-0.00116001
0.0124214
0.00311576
0.0138457
0.00363165
0.00494567
0.0102024
0.0112559
0.0200945
0.0208889
0.00724888
0.0143061
0.000309028
-0.0012462
0.0112878
-0.000690865
0.00867611
0.00985028
0.0112727
0.0198407
0.0159221
0.00917574
0.00985073
0.010686
0.0199859
0.0193112
0.00943131
0.0170178
0.00878216
0.0132304
0.00616869
0.0195642
0.0100032
0.0159195
0.0057262
0.00776496
0.0131565
0.012618
0.0126991
0.00612422
-0.000314202
0.0091403
0.0189531
-0.00145307
-0.00840755
0.018926
0.00699466
0.0145779
0.0126208
0.0179006
-0.00111532
0.0127354
0.0161759
0.0160645
0.0211532
0.00822523
0.0260464
0.0218105
0.0183213
0.00665916
0.0161642
0.0114771
0.0115352
0.00623805
-0.00261962
0.00246901
0.0112422
0.0117267
0.00727326
0.00448199
0.00393415
-0.00096895
0.0216365
0.0274935
0.0110823
0.00609937
0.000242684
0.00834005
0.0033911
0.00716622
0.0152645
0.0227359
0.0124241
0.0286799
0.0139474
0.0160601
7.28769e-05
0.0102052
0.0133289
0.0182095
0.00510654
0.00555876
0.00581096
0.013735
0.0172892
0.0113232
0.0188402
0.00817043
0.0165371
0.0192314
0.00522843
0.0180227
0.0084293
SCALARS CoVolArea double 1
LOOKUP_TABLE default
530.608
523.439
390.864
285.623
491.472
512.458
319.632
515.459
418.657
426.312
391.412
431.588
508.312
670.938
731.668
753.901
768.316
658.712
650.594
813.843
619.423
503.699
665.944
541.349
845.247
492.638
764.14
752.477
258.599
586.07
577.842
722.431
571.942
804.866
556.62
502.692
829.187
564.83
631.418
609.667
1032.87
536.106
600.574
748.223
708.581
534.863
682.505
618.032
694.328
778.868
740.302
815.877
783.774
710.569
756.898
760.649
815.964
687.523
732.82
627.807
649.438
734.952
598.759
724.133
600.081
625.089
677.382
697.012
589.829
683.363
611.961
635.156
551.016
759.687
621.01
807.552
390.991
728.712
694.151
668.742
714.872
539.965
712.255
515.451
542.766
628.231
791.42
617.273
767.59
716.889
614.618
595.992
663.37
610.797
1170.99
588.918
489.153
387.535
638.494
610.319
494.233
517.372
466.59
565.357
670.302
595.061
640.529
630.215
611.4
660.16
601.052
653.545
583.792
790.417
564.774
764.851
590.56
788.788
756.586
700.527
589.078
674.153
609.695
724.833
519.098
700.302
560.409
524.963
659.274
506.309
496.337
654.57
675.261
831.959
745.17
638.592
284.835
417.095
741.42
503.356
662.753
631.281
625.857
770.116
928.677
567.608
537.086
779.659
574.041
575.361
782.06
774.512
643.893
806.59
609.589
728.14
682.051
604.561
554.573
676.463
591.866
541.652
634.028
674.98
688.092
652.076
648.477
551.145
695.982
704.41
770.519
511.34
592.555
518.101
712.768
626.353
551.747
513.643
612.304
598.541
653.278
697.944
682.21
763.478
697.639
679.682
726.97
731.009
774.821
776.502
825.586
846.217
779.115
711.178
740.538
719.679
764.463
797.665
817.067
649.183
738.559
772.66
739.692
711.108
710.134
725.26
670.506
731.658
686.732
809.6
769.098
754.433
686.401
699.049
760.509
855.135
876.395
936.404
664.899
654.326
812.909
696.067
623.691
623.056
687.586
632.714
684.624
691.903
660.015
636.759
718.723
810.399
625.924
657.485
612.952
689.124
644.563
582.568
588.243
642.377
683.854
850.23
787.168
798.419
672.07
670.909
652.411
614.701
625.075
623.723
622.863
649.377
608.981
663.496
593.132
742.052
551.309
623.856
624.553
636.738
569.278
600.714
600.08
592.582
691.636
603.88
671.976
674.725
664.329
651.024
638.208
607.134
606.806
550.736
504.717
596.904
724.259
703.175
651.266
708.263
627.685
587.961
597.904
506.125
526.556
653.4
294.745
611.091
739.856
634.509
866.739
646.912
710.269
711.311
751.972
685.168
588.782
654.724
670.899
647.26
648.38
731.671
643.45
678.582
665.167
746.487
533.024
555.904
507.528
652.332
587.418
502.135
539.716
598.587
721.736
808.797
809.867
794.499
712.934
695.011
645.874
671.883
462.071
542.662
461.527
626.476
590.984
797.675
658.733
826.208
525.869
559.031
673.808
779.399
602.526
545.128
721.052
585.804
666.411
783.103
844.65
629.254
751.914
597.509
484.857
583.249
451.52
314.333
697.412
581.443
831.389
513.324
694.175
914.464
902.666
803.877
964.085
888.85
495.794
482.209
438.17
750.246
544.398
675.402
407.162
387.472
523.328
901.102
766.586
762.305
639.272
535.596
792.897
700.682
575.16
672.264
715.943
619.74
639.379
322.921
474.33
332.021
696.982
805.417
433.027
590.734
521.316
728.902
594.396
510.129
416.312
564.462
343.785
586.824
409.861
613.826
586.87
618.992
629.091
560.884
656.005
564.014
616.47
658.286
642.785
594.864
593.248
561.567
611.362
651.012
608.806
613.755
591.88
611.401
563.441
653.201
631.838
592.575
602.529
667.124
642.176
658.874
379.716
578.195
475.774
704.556
732.651
671.427
507.399
612.459
682.899
616.395
883.587
691.085
709.343
852.985
803.649
579.735
707.341
536.507
739.803
631.598
577.47
738.273
698.715
607.958
639.286
558.69
601.541
717.224
655.262
850.73
625.092
465.335
590.556
611.6
706.747
688.658
682.037
758.304
801.226
456.354
505.163
516.852
585.411
562.131
597.33
630.586
548.088
630.469
597.596
753.606
485.464
525.785
529.732
690.338
635.161
671.922
526.464
430.375
830.207
612.631
472.643
534.24
537.21
492.923
586.051
518.692
503.856
443.163
654.846
861.692
449.093
794.3
477.693
697.067
925.583
765.334
754.223
956.57
688.62
837.107
728.94
713.98
397.888
314.845
655.369
422.894
542.583
372.501
788.101
397.427
437.815
505.117
441.067
498.029
639.555
851.88
539.717
544.272
567.158
870.082
521.892
718.694
611.27
523.922
530.987
977.354
814.988
947.21
344.782
816.581
389.789
541.516
663.565
612.759
705.231
630.656
856.096
636.827
740.06
1031.1
641.097
573.527
647.906
622.585
513.733
465.191
434.497
909.735
704.287
748.404
772.838
830.938
783.052
754.054
619.606
546.307
530.717
480.518
600.16
759.026
686.792
517.571
546.494
649.508
630.304
776.706
641.763
694.702
531.303
663.378
534.57
645.453
746.948
684.548
641.777
611.318
737.508
750.34
817.186
652.056
757.846
875.377
726.732
911.696
702.041
774.897
499.235
818.172
704.976
507.826
535.507
446.073
638.325
374.051
422.845
612.303
565.566
517.301
514.035
629.898
862.259
976.383
965.457
870.247
680.752
731.872
694.685
735.276
807.868
547.796
366.625
568.827
584.392
756.279
627.625
787.006
675.499
492.203
342.602
653.438
450.71
649.385
562.674
778.243
609.802
506.582
498.454
659.772
594.801
653.04
595.131
633.558
700.585
546.737
629.712
584.928
522.532
748.127
571.751
607.656
SCALARS SignedDistance double 1
LOOKUP_TABLE default
49.5359
49.5783
51.1416
52.7145
58.6193
50.7167
54.4836
56.7859
63.7143
61.1798
62.7005
60.3003
55.7795
52.4182
45.0194
45.3455
46.1031
50.8691
50.7025
60.1746
59.3701
64.2954
52.3453
55.0489
64.3238
57.4052
67.4441
61.6556
54.4002
59.5198
60.4833
61.9494
61.971
63.4736
54.9598
55.4823
53.8079
55.3937
58.6794
60.8617
67.4155
64.5002
50.0455
47.8018
46.4869
57.0816
53.0696
56.6056
46.9086
49.6367
51.4879
46.8336
46.5384
46.3439
44.1115
46.5685
46.9429
47.0826
47.3229
48.9902
49.1057
47.3143
54.128
51.3054
54.0521
53.2969
53.4141
57.9968
55.7974
63.1266
59.4657
62.6918
57.3985
66.5255
61.8358
61.4107
59.4452
48.6393
51.1567
51.5867
48.9097
58.0641
52.8995
57.5616
54.6555
52.6322
60.4536
57.9465
60.5344
58.8937
59.4926
64.9427
60.6047
64.6192
67.2138
57.6738
66.2269
59.9947
61.8885
62.3082
56.0397
57.6078
55.4541
59.0342
60.6875
55.9121
57.6093
53.448
53.4162
63.71
59.4274
63.3152
59.9078
56.8919
52.8436
61.2758
62.1039
65.7654
58.717
56.415
59.3564
45.4317
44.6481
60.3432
55.0355
44.5723
43.6873
50.9325
46.7721
52.9455
49.5772
47.0122
53.8493
57.0134
54.1239
67.8522
64.5017
56.4954
57.2138
64.0316
61.3976
63.7597
62.7731
66.9756
67.2962
65.0349
61.0005
58.8759
57.9759
55.7579
57.0495
56.4576
61.4029
56.3329
62.7671
60.5072
62.7601
59.8768
58.0388
61.2939
60.9233
57.171
48.8705
47.1959
48.0296
49.7187
48.3706
51.8145
45.5847
46.9412
46.3864
58.917
56.3574
59.4861
53.3241
54.7906
55.1473
57.3222
55.4324
54.1021
48.5644
49.5282
51.7602
47.0363
48.3148
45.6182
52.1003
50.5219
51.3583
50.1943
50.7852
48.2125
47.1537
48.0427
44.1023
44.8617
47.5725
47.0328
46.4178
48.6565
47.1622
44.5045
45.9208
45.6371
45.8353
44.1624
47.9629
47.0885
48.9773
46.4129
47.0563
47.5219
45.8587
44.9619
44.2966
43.4524
43.8935
46.3055
47.3276
49.1683
47.8345
46.4839
49.6087
47.9581
48.8448
49.2741
47.9295
49.115
48.3641
49.7564
46.9214
47.8112
56.6335
54.662
56.7575
50.5479
52.73
52.27
52.2722
52.7678
50.4658
47.3458
49.1905
49.1295
50.7935
51.2543
51.4233
50.5553
56.6208
53.566
56.4497
56.8609
56.906
58.9539
58.1257
59.1219
54.4164
52.8458
63.6489
62.3046
61.7565
59.5739
61.172
61.6306
61.7399
59.8833
59.0872
54.5282
58.0139
56.8702
51.6241
57.3373
53.9962
53.0777
58.4155
63.8047
64.5846
62.8402
63.0243
65.3133
62.485
60.9317
61.0218
59.0408
60.4548
60.4864
64.4395
61.7661
63.5562
60.0242
61.8113
60.823
49.2858
50.4316
46.3374
47.3122
51.9353
49.3804
50.5741
50.6651
48.7298
51.4689
49.7345
51.616
46.8611
46.2222
59.2253
58.2398
59.5363
53.6802
56.0147
56.9397
55.1989
55.6335
53.0425
48.2265
51.1761
51.1334
51.0922
51.4401
54.315
52.5662
54.3971
53.1262
56.0694
60.4384
59.3104
59.5621
59.2985
61.9973
57.5304
56.452
63.1805
63.0861
59.3459
58.2235
59.1651
59.1275
63.2097
62.55
61.3091
56.9842
58.2779
57.4879
59.7462
59.3975
63.67
63.0566
65.0096
61.1452
66.8778
63.6597
64.7198
69.4234
66.2681
62.7701
67.339
65.9464
55.3694
57.4559
54.046
64.3887
59.659
58.8819
62.3326
60.7267
66.1595
67.0735
70.2848
68.9944
61.8669
62.3017
63.1327
62.3306
60.2364
61.2695
61.4436
58.4418
58.1865
55.5182
56.5242
55.6768
59.607
61.572
54.5715
60.0239
57.872
59.9088
60.1513
57.1905
55.8489
59.2285
55.583
59.7024
56.3808
59.9897
56.193
57.115
52.8032
54.3549
59.9373
57.5144
58.3822
50.9057
50.7481
57.0638
53.6856
56.9192
50.5752
51.4445
62.8839
62.8452
64.0723
59.6426
61.4185
62.8654
61.4547
60.8757
60.3842
54.6756
57.5371
58.2683
57.6476
56.9839
52.4256
57.7837
57.756
58.6872
53.008
56.8405
57.2316
61.2753
63.6977
61.6629
63.3612
65.7527
62.1445
67.402
67.9906
62.411
57.629
56.8784
59.3196
57.5822
57.1737
57.6983
61.7537
57.5711
59.0826
57.7428
58.4403
56.2297
48.4169
47.8105
49.4101
48.1406
48.9632
45.9676
48.3293
57.5986
60.6409
54.4323
60.3409
60.3041
58.7839
54.2455
47.3963
46.4376
50.2471
45.6035
45.2967
50.5667
52.3313
46.7938
49.0829
49.4632
48.7827
44.0863
47.2956
51.6344
47.4534
45.044
55.2178
48.9151
51.8182
49.0677
45.466
50.0754
46.5184
52.0673
43.8044
47.7851
53.7058
53.8865
53.6918
56.4571
61.158
62.6661
63.1074
61.3124
56.9838
47.2393
51.655
51.7541
59.0099
58.4249
63.5756
60.6655
65.2284
65.2475
67.8584
54.4441
54.1481
58.7863
56.3655
59.0643
55.2078
64.1095
64.6884
64.1536
63.8121
62.4562
62.6015
63.4861
61.8365
62.4766
61.3394
65.9351
59.4582
64.3239
63.3214
64.4136
64.0335
60.9809
62.4603
64.4232
65.7931
65.1047
67.1185
65.6859
66.8609
69.0187
60.8031
61.3342
68.5267
64.8085
62.6707
61.5624
62.712
70.0983
66.5058
68.7773
63.152
60.74
61.9681
59.6238
58.6462
59.5002
55.7107
57.5056
59.556
59.6675
51.5737
56.2497
53.788
52.2433
53.7768
58.172
57.146
57.9882
55.3998
57.0639
55.7785
57.7304
57.7812
56.8042
59.1593
57.6117
57.8373
58.4822
60.6317
60.2599
65.0336
64.7784
63.993
56.483
58.0422
56.7329
53.87
63.5509
55.2826
55.208
56.9137
54.5041
65.3938
61.5579
56.0256
57.9813
63.3113
60.0069
61.3479
62.2716
62.774
65.213
64.9379
58.0331
62.7198
61.1054
62.8658
63.1962
63.868
59.7612
56.5119
60.2541
60.5375
60.0605
58.7853
62.4862
60.457
56.5844
56.2791
61.1329
57.7982
60.708
59.9974
62.0808
62.0634
60.209
60.5184
65.2839
61.748
62.5331
65.0504
63.5862
51.4917
57.2187
53.2639
54.2741
58.7636
61.6516
61.2255
60.7784
