# vtk DataFile Version 4.2
vtk output
ASCII
DATASET POLYDATA
POINTS 642 double
-61.8534 148.577 88.6456
120.378 149.086 86.6902
-55.6157 -192.532 79.3567
115.2 -192.105 79.6285
30.6798 -109.018 208.44
32.099 92.5088 235.714
30.5109 -110.879 -58.2259
31.333 76.5761 -50.1309
143.378 -11.7783 7.7188
155.026 1.9426 168.516
-83.8677 -14.6838 4.17347
-98.385 -0.0975901 165.108
-106.155 86.6293 140.648
-53.1125 47.4033 223.837
-25.2756 150.208 180.78
86.8399 148.832 180.923
30.5576 183.516 88.4054
82.5181 137.973 0.354319
-21.8379 138.722 0.440936
-39.1656 40.6746 -39.3672
-92.2351 82.2833 40.4257
-112.809 -9.92509 103.127
113.264 48.4453 225.034
165.97 84.0289 140.061
-37.3035 -65.7491 200.155
28.7263 3.02389 251.144
-73.2185 -125.821 47.4793
-82.2306 -112.805 128.902
28.2962 -18.2014 -89.3766
-35.7368 -77.3446 -45.2549
152.877 83.9166 41.7442
98.8791 44.6066 -38.717
143.084 -108.974 130.563
97.9895 -65.8741 201.093
74.0494 -184.361 155.306
-14.1131 -189.777 156.209
29.6916 -220.617 90.422
-22.1809 -185.218 13.8125
77.994 -181.903 14.8388
92.3477 -77.2543 -42.8556
126.772 -114.63 45.6613
171.052 -10.1061 93.7918
-91.4361 122.094 117.397
-75.2373 121.832 162.998
-49.036 156.236 136.283
-80.6466 24.6606 199.253
-85.8409 73.0635 185.207
-104.794 42.1046 159.106
2.30046 126.376 215.3
-43.7164 104.549 207.602
-11.3052 73.1771 235.976
-0.412732 175.389 140.426
-20.291 172.893 85.4791
60.2149 125.103 216.86
29.5636 159.967 186.72
81.3321 172.98 86.7442
61.4658 175.527 139.652
108.162 156.359 136.559
-0.16659 169.904 37.7889
-44.2139 152.003 41.24
105.565 150.549 41.1802
59.7933 169.732 37.47
3.19372 113.503 -29.719
30.4804 145.943 -3.22203
57.7459 113.092 -30.0736
-64.3277 116.198 15.1322
-83.766 119.042 62.6899
-4.35298 61.5145 -51.4846
-35.5261 96.3646 -24.7024
-89.3453 39.1918 21.4144
-69.8702 68.901 -4.18953
-65.6126 14.4347 -18.9192
-107.042 89.4997 93.0146
-97.4794 -5.81749 46.9042
-107.579 44.4425 65.9149
-109.374 46.5796 119.372
-116.502 -11.4858 127.962
133.793 121.475 164.542
149.122 119.439 118.031
74.2817 75.5207 236.992
104.639 104.674 210.839
164.413 43.4999 157.95
144.855 71.6499 186.546
139.524 25.6749 200.886
-9.27998 22.1848 248.796
30.9545 40.4099 252.822
-73.6974 -26.3167 189.698
-49.3039 2.92338 223.15
29.8005 -49.3482 231.291
-6.3862 -23.767 236.388
-8.11549 -94.7517 210.834
-105.902 -50.054 116.662
-97.7845 -49.0521 146.371
-81.404 -59.7575 14.7314
-90.8629 -63.6985 67.7378
-68.2691 -163.15 99.8477
-85.6463 -127.5 80.2864
-71.5827 -165.158 59.0293
-32.6684 -19.9137 -55.1486
-62.2453 -46.8653 -22.3601
29.6741 18.8515 -78.3064
2.27021 -2.11051 -78.0728
-3.81957 -97.4106 -59.0867
1.03996 -37.3884 -76.4912
28.9729 -60.7442 -71.7403
96.4002 95.8689 -25.0328
66.4912 63.0339 -52.2596
144.878 118.352 60.3765
125.646 115.757 15.1934
124.577 18.8529 -16.5449
129.758 69.1257 -4.38637
149.766 39.1211 21.8946
124.914 -162.291 96.2863
112.275 -150.265 142.828
96.6138 -194.107 119.769
131.501 -24.3821 191.873
126.731 -97.3774 168.772
150.744 -55.0663 144.811
53.8689 -151.492 180.186
93.1006 -122.799 185.711
68.861 -95.1427 210.593
54.0577 -216.328 128.295
82.0184 -216.27 81.3152
5.5529 -156.769 176.628
25.5168 -195.936 162.081
-20.7237 -216.339 84.4418
0.81674 -220.859 129.609
-38.2381 -198.247 123.591
61.5935 -212.333 40.9865
101.357 -193.935 47.1393
-43.7859 -196.486 42.5787
-4.67916 -213.305 40.0081
52.4947 -136.512 -36.7355
29.2116 -187.513 10.0399
6.46085 -137.523 -35.3733
108.567 -161.592 31.6082
124.945 -168.315 65.4027
61.6612 -98.6532 -58.6259
83.8789 -118.832 -31.4358
142.162 -59.3134 17.39
119.105 -88.9218 -9.19961
120.948 -45.4614 -18.5126
141.701 -123.039 87.692
157.887 -2.7578 48.7197
153.164 -55.1225 70.3979
163.106 -52.5514 111.01
169.899 -6.16108 128.859
67.9125 -25.5001 234.731
111.566 4.08113 223.221
71.1072 25.4031 246.829
-51.8148 -156.954 140.449
-32.5885 -125.039 184.195
-66.6754 -97.9309 169.771
-27.2132 -120.454 -30.1531
-56.4746 -164.02 29.4724
-60.6869 -91.0181 -11.8684
91.2881 -18.6435 -52.0223
56.3057 -37.92 -74.089
56.2921 0.446855 -76.0677
170.451 47.6715 119.602
168.542 43.9011 67.774
168.108 86.7187 89.1643
-78.3309 136.864 104.187
-73.239 140.152 127.436
-57.6199 153.06 112.153
-94.414 103.904 151.591
-85.6675 122.844 140.379
-100.996 104.801 129.546
-37.9833 155.395 158.991
-63.1016 140.551 151.012
-51.2321 137.941 173.027
-91.54 13.1092 183.332
-94.8749 32.7444 180.008
-103.135 17.35 164.99
-70.0741 60.6767 206.152
-83.076 48.0214 194.272
-68.1748 35.946 213.387
-105.478 68.1842 149.675
-96.5188 60.1979 171.463
-98.3484 81.4086 162.688
17.571 109.517 228.364
-5.60089 102.216 227.114
10.4648 84.1938 236.967
-35.4748 129.352 195.992
-21.1745 117.539 212.623
-11.5657 140.414 199.613
-33.0665 60.5479 231.248
-28.4509 90.2568 222.956
-49.566 76.4211 216.745
-83.2411 98.0936 175.408
-67.601 88.8694 197.701
-61.0783 115.349 187.059
-34.9576 166.465 114.338
-42.8182 161.862 86.4637
-13.6683 166.042 162.529
-25.218 168.751 140.206
5.62991 179.2 87.152
-9.20124 175.685 114.719
16.3126 182.164 112.854
45.6147 108.845 228.892
30.6539 127.747 216.469
59.3721 156.766 185.212
45.3996 144.646 201.656
73.637 138.594 200.635
14.8986 145.667 201.579
1.34094 157.801 185.538
102.977 162.369 86.9325
95.0069 166.915 114.029
114.98 153.487 111.704
44.8175 182.177 112.762
70.2783 175.716 114.555
55.1697 179.296 87.6859
98.678 154.795 158.787
85.9343 168.798 139.611
74.8443 165.652 161.632
14.1972 171.559 166.636
45.7491 170.759 165.88
30.267 176.63 139.843
-33.0407 165.736 60.4291
-53.3364 152.416 63.7304
14.7474 176.937 61.9225
-10.784 174.326 59.8913
-34.0223 147.238 20.3582
-22.8136 163.271 38.7867
-11.7419 156.57 18.244
114.221 151.451 64.1027
93.7575 164.524 61.927
71.7014 155.962 17.9584
82.863 161.958 38.6298
95.0144 146.089 20.0469
70.4891 173.439 60.8914
45.5126 177.064 62.0868
17.5626 95.9815 -40.2109
30.6375 114.8 -29.7762
44.2093 95.5711 -40.5246
2.31555 144.621 -3.02571
15.4426 131.271 -17.4858
-9.21023 127.103 -16.5322
69.857 126.652 -16.6793
45.408 131.219 -17.5696
58.0992 144.498 -3.14414
30.3546 171.877 36.3325
45.284 160.943 15.5996
15.289 160.95 15.7063
-65.131 137.13 48.8707
-73.6893 135.307 76.039
-44.6858 129.199 6.67224
-55.8111 134.847 26.2328
-89.552 101.471 50.9191
-74.478 119.055 36.0423
-79.6257 100.346 26.1106
12.5966 69.3327 -53.0178
-3.22589 90.1888 -40.0302
-37.6816 71.7087 -31.4041
-21.6803 82.0727 -37.2234
-21.1245 52.3727 -46.6094
-17.4918 106.236 -28.3222
-29.9308 118.216 -14.1552
-85.6772 9.6945 11.2112
-79.114 27.955 -1.95589
-76.4457 -1.52963 -7.68726
-82.0387 77.4883 15.8338
-80.6746 55.2502 7.61521
-92.021 62.6064 31.2867
-54.9226 28.0473 -30.4843
-68.8048 42.4779 -13.0428
-56.0952 56.2189 -22.3568
-50.9861 107.421 -6.52093
-54.3672 84.0458 -15.5054
-68.6896 93.4 3.94463
-90.8349 121.193 92.1572
-102.24 86.0842 67.2223
-98.4403 103.675 79.2763
-102.093 105.429 105.827
-107.755 89.7414 118.221
-90.7797 -12.0928 20.1454
-95.4288 16.4206 35.2383
-110.461 16.3312 79.6106
-106.119 20.0869 59.6437
-107.42 -3.85665 75.2529
-100.715 43.6022 46.7103
-102.637 64.3033 55.0841
-108.659 14.4014 145.563
-108.991 -6.14034 147.159
-108.786 71.1427 130.837
-108.943 46.507 139.774
-117.455 -12.6885 118.323
-113.32 8.16438 126.387
-111.631 7.63415 108.121
-108.592 69.333 78.464
-109.693 46.4014 89.8906
-108.953 72.8712 105.849
130.068 139.097 128.87
134.806 135.499 102.224
111.989 137.18 174.261
122.22 140.175 152.324
159.864 102.266 130.345
143.523 121.468 142.056
152.471 102.841 152.08
53.7745 84.8687 238.299
69.4789 101.588 229.249
109.116 78.3934 218.821
90.6489 91.5153 226.065
94.0156 63.1798 232.31
84.1522 116.256 215.431
97.534 128.115 198.147
160.813 21.6016 164.925
153.304 35.4556 180.293
148.738 14.3472 184.783
157.19 79.1273 162.917
157.081 58.0801 172.286
166.574 64.8953 149.149
128.355 35.931 214.314
143.291 47.8159 195.284
129.781 60.9472 207.638
120.881 115.265 189.362
126.228 89.5707 199.905
141.123 98.0131 176.838
9.44708 55.4019 247.544
31.8294 67.1675 244.777
-32.1879 34.3721 237.254
-11.4828 43.9507 244.313
29.676 20.087 254.062
9.28611 29.5339 253.084
9.81612 12.517 252.931
-87.6472 -12.5185 177.605
-77.7707 2.694 196.969
-45.368 -25.4504 216.23
-61.8271 -11.0977 208.27
-56.7227 -44.5058 197.965
-65.5809 15.0483 213.335
-52.4725 24.4776 225.935
30.5724 -86.5426 215.583
11.6934 -72.7402 217.974
10.4007 -103.331 211.041
10.8621 -8.8338 246.206
11.6229 -35.0522 236.49
28.8973 -19.6633 242.774
-22.7141 -84.1466 209.019
-8.20157 -58.4305 219.797
-24.3052 -43.3339 220.82
-30.583 13.4817 237.46
-27.9344 -10.7641 232.101
-7.77041 2.65907 245.195
-109.684 -26.9848 136.508
-100.785 -25.1083 155.336
-112.764 -24.2851 114.954
-113.96 -25.0046 122.157
-85.2864 -81.1904 138.559
-104.681 -49.3638 129.315
-90.1977 -81.2356 119.783
-83.3577 -34.4595 8.31316
-89.9485 -34.6877 26.7807
-82.8928 -98.1351 54.805
-86.7934 -62.1691 35.4517
-79.2791 -87.1058 26.3182
-96.5177 -29.6582 55.8971
-106.144 -25.962 89.2862
-62.3769 -180.273 89.7153
-72.8335 -164.272 76.7112
-65.499 -180.464 67.563
-84.6366 -121.807 102.077
-80.2302 -143.697 87.7699
-75.9768 -138.965 112.332
-73.6808 -150.463 55.1322
-80.042 -146.872 69.8429
-83.4729 -130.409 67.6641
-99.535 -58.1887 99.2851
-86.6401 -103.147 77.3544
-88.2968 -92.6686 94.4412
-65.2053 -17.3196 -22.5137
-75.2712 -28.7299 -8.69766
-34.0506 4.63227 -47.3637
-50.6007 -4.70882 -35.6813
-49.9047 -63.8154 -35.062
-49.5571 -33.0803 -38.2551
-34.6352 -45.0223 -49.4099
30.5797 48.1638 -63.3756
15.9351 36.6271 -67.2111
16.3235 -11.2599 -86.5177
17.1084 7.42338 -80.4025
28.6918 -3.79182 -85.6211
0.45814 26.7574 -65.5378
-14.7105 16.7375 -59.7319
12.942 -105.488 -60.4959
11.4687 -83.0545 -67.0195
30.4146 -94.1044 -65.1297
-16.4236 -60.2926 -59.7789
-1.95348 -71.811 -65.295
-20.101 -88.6758 -54.1308
28.2632 -29.7968 -86.3357
13.296 -46.0985 -77.8649
16.2985 -24.5576 -86.6745
-14.7967 -11.2804 -70.3021
0.864794 -18.1333 -81.9762
-15.5438 -27.2078 -69.4267
64.4339 89.3878 -41.1874
49.7459 69.8645 -53.2404
91.0654 117.623 -14.3464
78.3906 105.618 -28.7904
[...]
POINT_DATA 642
SCALARS Mean_Curvature double 1
LOOKUP_TABLE default
0.00865875
0.0105687
0.0217368
0.0399253
0.00999963
0.00685899
0.0122654
0.00323761
0.0183211
0.00824134
0.0178105
-0.00593452
0.0285406
0.0156066
0.0149677
0.0126877
0.0200528
0.012421
0.0137034
0.00824458
0.00818197
0.0130615
0.0138253
0.0249392
-0.0179844
0.0153218
-0.00974319
0.0151237
0.0648987
0.0118398
0.00925148
0.0102735
0.020788
-0.0134918
0.0228913
0.0238248
-0.0107774
0.0259111
0.0174463
0.00923843
-0.0125876
0.017556
0.0166345
0.0138947
0.0135909
0.0141303
0.015015
0.0145761
0.01427
0.0108134
0.00843368
0.0124895
0.0109309
0.0150587
0.0160292
0.0131087
0.0137337
0.014798
0.0161897
0.0138001
0.0133904
0.0179321
0.016304
0.00731643
0.0163077
0.01654
0.00979996
0.00971988
0.01753
0.00424887
0.00999231
0.00117818
0.0214626
-0.00165111
0.0131772
-0.0015209
0.0380702
0.0142572
0.0109795
0.0103548
0.0146605
0.0107021
0.0118632
0.0140327
0.0251531
0.0150007
0.00687951
0.00921512
0.0105898
0.00919948
0.016856
0.0294216
0.0139845
0.00864015
-0.00502341
0.00637631
0.0239956
0.0288773
0.0144643
0.00549227
0.0303803
0.0139583
0.0204692
0.0119761
-0.00794305
0.0169985
0.016625
0.0127605
0.0173661
0.00219135
0.00920801
0.00699427
0.00342527
0.00624649
0.017768
0.00804124
0.0158776
0.00152873
0.00392727
0.0145014
0.0173855
0.0186051
0.0272076
-0.00094133
0.0277395
0.0136303
0.0302791
0.0231156
0.0234574
0.0197757
0.023754
0.0221127
0.0203159
0.00543664
0.0180595
0.0136655
0.0284702
0.0253841
0.0122504
0.0167706
0.0134171
0.00382943
0.0190052
-0.000671525
-0.00666223
0.0142618
0.0159629
0.0100076
0.0116718
0.0162019
0.00382667
0.0131629
0.0175821
0.0125036
0.0187969
0.0127115
0.0110665
0.00948494
0.0143013
0.000411419
0.0143975
0.0254483
0.014929
0.0164691
0.00989259
0.0169049
0.0145632
0.0194738
0.0131313
0.0116955
0.0135805
0.0161659
0.013241
0.0246306
0.0115528
0.00868575
0.0185703
0.013058
0.00699452
0.0193031
0.0165475
0.0139192
0.00642921
0.013244
0.0121952
0.0152117
0.00910439
0.00924553
0.00975049
0.0144486
0.0118212
0.0137433
0.0103855
0.00858084
0.016515
0.018
0.00650173
0.00675746
0.0162162
0.0139572
0.00779053
0.0150121
0.0105914
0.0129064
0.0138747
0.0172838
0.0127196
0.0129671
0.00829928
0.0162708
0.00684266
0.00692936
0.0125611
0.019161
0.0164803
0.0217557
0.0176468
0.00182992
0.0188473
0.0132448
0.00564531
0.0198868
0.0133486
0.0156718
0.0142107
0.0126027
0.0154153
0.0137227
0.0125692
0.0132002
0.0152917
0.00716197
0.00751339
0.00726211
0.00691486
0.0151738
0.0116165
0.0149445
0.0141126
0.0120477
0.0159242
0.0146824
0.0156641
0.0147011
0.0133204
0.00608652
0.0147696
0.0159974
0.00889689
0.0151356
0.0129567
0.0136928
0.00984236
0.00666442
0.0125967
0.00523212
0.0162565
0.0147588
0.00161198
0.0156686
0.0121007
0.0143841
0.00748283
0.00623205
0.016319
0.0114166
0.00891875
0.0153192
0.0134619
0.0147177
0.0161088
0.0153317
0.013213
0.018356
0.0216118
0.0143675
0.00202172
0.0132119
0.013409
0.00784092
0.00643804
0.0125276
0.00333752
0.0199913
0.0109475
0.0110277
0.057088
0.0132821
-0.00471216
0.0170003
0.00302138
0.00413219
0.0112588
0.00549872
0.0148762
0.0140742
0.0187009
0.0144692
0.0144721
0.0113858
0.0163998
0.00914274
0.0177455
0.00856391
0.0153074
0.0151459
0.0130262
0.00954408
0.0111441
0.0122615
0.014782
0.0177183
0.0171815
0.0132596
0.0112383
0.0157765
0.0111179
0.0122708
0.0143569
0.00598397
0.0134835
0.00917643
0.0169152
0.0200732
0.0275827
0.00365633
0.00877966
0.00984177
0.00799122
0.0119432
0.0124896
0.0188569
0.00627376
-0.00492134
0.0184391
0.0127367
0.0131605
0.00606281
0.0241665
-0.00142709
0.0125529
0.0140877
0.00932767
0.0121951
0.0152956
0.0128575
0.00310375
0.0386338
0.00271781
0.0197759
-0.000195453
0.009438
0.00834272
0.00237872
0.00556614
0.0110457
0.000443083
0.00272561
0.0122966
0.014647
0.0278952
0.0124872
0.0140386
0.00820268
0.0093463
0.0308592
0.0242071
0.0025938
0.0082524
-0.00435046
0.0113083
0.0137118
-0.00371009
0.00452106
0.0127309
0.00884681
0.00136409
0.0100407
0.011317
0.0344069
0.0164292
0.0251871
0.00881799
0.00276393
0.0241359
0.0192364
0.0125208
0.00141112
0.00793653
0.02013
0.0261107
0.0178172
0.0360251
0.0206454
0.0413911
0.0160806
0.0120416
0.0137137
0.015023
0.0155992
0.00991921
0.0119498
0.00925406
0.0105799
0.0144954
0.0148581
0.0155809
0.0105131
0.0164154
0.0150781
0.00730523
0.0118472
0.0029722
0.013026
0.0142428
0.00897062
0.00484176
0.0112213
0.00908524
0.0161736
0.0158795
0.0118932
0.0319758
0.00811102
0.0215966
0.0126879
0.00426764
0.012591
0.0239681
0.00958059
0.00630071
0.00658796
0.00466966
0.00719138
0.0237081
-0.017667
0.0115949
0.0117232
0.0105894
0.0186746
0.00758912
0.0162364
0.0189247
0.00140126
0.00969927
0.0132267
0.0211828
0.0156
0.0150891
0.0155263
0.0179359
0.0112169
0.0140982
0.0312688
0.0226026
0.0234174
0.0156208
0.00806267
0.0329943
0.00719252
-0.00488864
0.0375917
0.0144246
0.0172825
0.00563567
0.0214166
0.0153237
0.0162124
0.0209156
0.0351774
0.0282206
0.00310568
0.0233774
0.024774
0.0263731
0.0183188
0.022359
0.0230917
0.0243283
0.0240906
0.0166326
0.0209207
0.020161
0.0212662
0.02135
0.0242099
0.0247451
0.0269011
0.0273918
0.0248166
0.0268982
0.0146377
0.0214301
0.0087698
0.0202685
0.0188715
0.00287291
-0.00129598
-0.00647927
0.0012576
0.0195379
0.0125675
0.0123177
0.0178351
0.0337213
0.0479156
0.0158351
0.0293736
0.00177452
0.0185006
-0.00723572
0.0279392
0.0246944
0.0171853
0.0214348
0.0166625
0.0161137
0.00702799
0.00357776
0.00982696
0.0101177
0.0122227
0.0141784
0.0124911
0.00855056
0.0104411
0.0139784
0.00205539
0.0106779
0.00843757
0.0286835
0.00800482
0.0122091
0.0113629
0.0185814
0.0122167
0.00586824
0.0170405
-0.00252161
-0.00310635
0.0125967
0.00264122
0.01615
0.0021937
0.00188821
0.0130748
0.0107653
0.0240794
0.0249651
0.00656909
0.0162961
-0.00168742
-0.0043144
0.0137749
-0.00123392
0.00926876
0.0100466
0.0117138
0.0225445
0.017519
0.00950044
0.0106473
0.0119429
0.0222619
0.0222712
0.0108494
0.0196441
0.00957984
0.0131878
0.00510498
0.0215713
0.00861714
0.0159244
0.00457833
0.00876361
0.0154067
0.013318
0.0138528
0.00783534
-0.00159646
0.00980597
0.022045
-0.00367339
-0.0101548
0.0220231
0.00848983
0.017068
0.0150258
0.0210442
-0.00286911
0.014974
0.0185208
0.0189274
0.0267042
0.00719085
0.0278556
0.0268961
0.0195335
0.0063304
0.0171328
0.0120596
0.0124093
0.00771941
-0.00392849
0.0041296
0.0126747
0.0130223
0.00860659
0.00411498
0.00427857
-0.00253858
0.025
0.0329454
0.0142294
0.00447469
0.000289669
0.00990224
0.00335478
0.00798001
0.0173042
0.026474
0.0132064
0.0347782
0.0147879
0.0196001
-6.59251e-05
0.00921696
0.0143627
0.015834
0.00453616
0.003717
0.00634295
0.0138284
0.0200299
0.012552
0.0216446
0.00933953
0.0199767
0.021779
0.00495619
0.0178056
0.00603333
SCALARS CoVolArea double 1
LOOKUP_TABLE default
468.275
462.056
315.376
207.291
427.013
452.786
255.194
461.073
360.42
375.867
330.014
376.223
416.602
586.495
645.56
669.638
689.177
576.938
567.954
752.882
548.876
440.664
580.217
450.46
797.152
418.772
720.974
675.101
174.292
517.012
512.594
660.215
487.757
744.912
476.302
421.608
763.492
490.521
552.924
544.08
1018.12
461.457
517.146
659.903
631.086
463.658
600.962
543.652
616.011
699.47
671.885
730.286
708.437
631.268
664.638
684.071
729.699
610.386
644.302
548.65
571.318
646.902
526.443
643.83
527.606
537.513
603.877
625.85
508.568
631.558
539.258
574.781
462.866
712.383
547.219
763.32
299.65
640.761
621.205
595.483
628.792
468.121
630.305
444.554
451.909
542.881
739.669
545.962
711.342
644.278
540.997
505.262
595.244
550.31
1149.96
526.859
408.823
300.405
573.917
547.278
407.383
435.026
386.916
479.253
594.355
513.002
562.698
552.205
521.97
603.283
526.993
598.563
515.9
715.628
481.005
715.699
518.497
722.771
698.754
615.052
517.353
569.772
512.924
670.185
424.174
605.626
450.042
433.462
557.531
409.704
399.021
552.518
593.655
765.454
667.876
566.63
215.519
337.307
659.564
436.2
584.175
573.906
547.424
732.278
885.355
487.375
457.429
709.603
498.869
490.964
711.686
690.554
569.031
732.971
534.78
647.754
621.425
525.765
472.782
625.991
517.299
447.556
556.395
593.629
614.131
555.035
565.18
461.183
617.185
625.162
684.778
445.568
516.685
443.862
629.248
552.664
474.064
441.669
539.955
509.097
578.014
624.126
613.662
678.425
621.83
600.725
656.667
662.292
696.503
675.987
733.266
750.005
706.04
636.715
648.351
640.028
692.402
724.977
734.781
572.14
661.132
683.935
663.007
633.397
631.164
632.454
593.664
654.292
615.755
726.655
693.395
682.158
606.976
617.198
669.875
751.918
774.479
843.268
581.734
578.753
732.252
615.144
546.568
540.974
601.059
556.16
603.675
606.066
580.71
560.489
640.291
729.892
561.801
589.173
548.415
606.049
571.722
505.731
511.919
569.716
600.884
752.717
689.133
700.925
595.356
598.133
565.508
534.355
554.246
546.813
543.172
578.204
536.761
595.056
524.416
684.459
474.537
536.869
562.807
570.93
499.966
529.569
538.543
537.94
630.773
535.61
599.281
577.969
579.461
560.193
558.836
523.842
526.343
462.795
417.013
537.268
675.416
632.091
591.593
659.071
573.55
515.452
514.537
425.239
460.491
586.929
222.399
531.33
677.409
549.071
808.165
580.138
637.811
643.245
664.137
606.11
504.876
575.483
580.236
575.33
567.836
652.43
566.301
604.672
582.118
657.64
466.708
486.353
443.8
564.366
511.619
424.795
460.33
522.192
639.055
710.528
719.426
700.366
634.82
623.691
558.401
591.536
379.724
454.84
376.824
568.853
529.392
736.312
597.941
775.5
457.638
476.616
618.641
726.745
531.716
470.786
659.359
520.793
597.474
715.647
777.057
540.082
672.725
510.756
394.559
511.831
386.541
228.271
632.685
493.009
753.366
447.412
641.647
864.864
860.99
744.92
932.553
851.898
416.172
401.341
348.081
673.49
463.398
606.754
350.323
302.803
456.371
846.098
710.254
683.107
576.638
466.688
734.318
647.397
513.593
613.393
651.74
543.15
556.557
234.63
391.489
248.921
624.735
741.258
354.569
512.61
445.143
659.942
517.839
438.513
334.044
480.106
252.99
503.951
312.415
529.529
511.548
545.956
542.383
483.515
589.504
490.758
542.353
584.57
563.701
514.75
513.374
484.28
530.111
563.507
542.487
551.531
532.302
537.761
497.696
600.338
579.657
528.636
535.028
569.64
552.564
571.517
297.715
511.424
386.411
615.026
672.629
588.347
427.072
550.756
612.632
559.047
843.217
630.453
643.238
818.318
750.839
512.086
657.467
454.069
674.618
552.172
506.838
663.868
622.529
541.317
569.83
479.342
522.154
617.472
556.814
758.463
530.052
369.883
489.032
518.699
623.119
595.687
584.832
695.457
765.275
359.864
445.674
448.524
528.327
471.565
504.781
535.443
456.055
533.482
501.967
676.424
401.011
428.663
422.557
574.007
513.588
550.982
429.816
330.539
742.339
517.293
389.341
442.174
446.482
398.301
488.835
422.277
407.004
352.445
561.337
778.621
366.737
715.892
395.122
623.635
862.235
695.376
697.724
898.3
617.373
725.804
628.541
614.725
298.377
221.039
570.425
338.044
522.387
313.846
758.789
316.318
350.476
428.071
360.869
431.982
558.301
770.744
475.048
480.98
501.97
812.459
451.045
657.01
554.416
461.779
459.927
886.171
726.311
864.453
267.286
774.159
325.184
456.566
578.663
554.654
652.191
568.919
824.116
591.977
688.68
986.177
562.534
505.216
579.237
545.431
441.847
382.805
350.989
848.47
624.954
673.732
721.001
758.545
718.718
696.4
549.402
481.205
444.515
408.387
534.396
689.136
608.475
437.497
461.603
569.678
541.561
696.42
554.814
614.734
455.084
596.44
465.543
588.964
665.059
606.662
565.407
531.254
663.78
681.866
769.85
571.908
711.215
830.649
659.215
823.035
602.138
673.501
411.022
761.547
631.678
422.494
448.992
347.55
584.079
298.171
333.471
537.151
503.36
438.202
449.441
562.879
795.518
906.42
880.112
782.146
620.696
666.855
639.886
686.271
754.824
467.558
278.456
486.609
514.193
691.674
542.819
719.929
599.31
408.972
255.672
572.005
357.21
570.149
487.617
713.479
546.723
439.462
424.568
607.763
530.458
595.629
538.964
557.488
623.94
455.168
542.689
497.095
439.433
676.806
488.652
531.745
SCALARS SignedDistance double 1
LOOKUP_TABLE default
39.6644
39.642
41.0489
42.7286
46.7523
40.9603
43.3031
45.2657
50.8284
49.0608
50.0791
48.9499
45.8346
41.4466
35.7524
36.1203
36.92
40.4843
40.3016
48.3814
47.8287
51.4872
41.4351
44.8512
52.3471
46.0401
55.0913
50.2055
43.5642
47.4276
48.798
50.09
50.0298
51.3471
44.1315
45.1732
45.5572
44.8364
48.7503
48.535
55.3709
51.8638
39.9014
37.9867
37.1835
45.6169
42.3673
45.3212
37.3004
39.6281
41.2515
37.9899
37.0915
36.7796
35.0731
37.1241
38.1207
37.6446
37.7435
38.9606
39.0418
37.5992
43.2281
40.9993
43.2342
42.4951
42.7181
46.3679
44.5123
50.7008
47.3342
50.0639
46.7709
53.7779
49.438
49.2146
47.9112
38.7042
40.7233
41.2924
39.0201
46.3432
42.2559
46.0498
43.8004
42.3556
48.2146
46.2246
48.4666
47.0159
47.823
52.2157
48.0151
51.7647
54.0182
46.0611
53.7039
48.8726
49.935
49.8884
44.6105
45.803
44.3212
47.3254
49.4615
44.6243
46.1634
42.8177
42.6285
51.0528
47.3177
50.7826
48.4385
45.3661
42.4351
48.8544
50.1652
53.4713
47.6024
44.7457
47.5434
36.1273
35.5408
49.155
45.1395
35.4991
34.3071
40.9242
37.1119
42.603
39.5682
37.634
42.503
47.1068
42.9136
55.6826
51.978
45.3255
45.4407
51.2384
48.9684
51.0896
50.1443
54.1084
54.1609
52.4154
48.613
46.8844
46.1878
44.7551
45.5647
44.7929
49.5543
44.7161
51.4573
48.2429
50.5423
48.1006
46.1015
49.0972
48.6805
46.635
38.8306
37.6007
38.3845
39.5242
38.5471
41.6768
36.328
37.3735
36.7534
47.0964
44.9343
47.7639
42.6341
43.7846
44.2156
45.9392
44.2841
43.5714
38.8324
39.5136
41.8315
37.3907
38.6191
36.2827
41.5812
40.3189
40.8962
40.0713
40.5092
38.4044
37.6191
38.3683
35.1444
35.4336
38.2842
38.0704
37.2539
38.9607
37.6013
35.2902
36.7584
36.3105
36.77
35.0361
38.2483
37.4222
39.1556
37.2461
38.096
38.228
36.5643
35.498
35.2224
34.5151
34.7554
37.3145
37.5765
39.1868
38.5202
37.3453
39.3812
38.2247
38.847
39.2852
38.2175
39.0642
38.5902
39.5021
37.3809
38.491
45.5436
43.784
45.6488
40.2183
42.0869
41.6748
41.67
42.1215
40.0932
37.5704
39.3132
39.2494
40.4044
41.0015
40.737
39.9992
45.4866
42.7303
45.1194
45.5521
45.6446
47.1623
46.795
47.3885
43.3117
42.0418
51.1013
49.9165
49.1701
47.8233
49.0098
49.3992
49.6443
47.5768
47.0014
43.4791
46.4549
45.284
41.1686
46.0774
42.8805
42.7971
47.5121
50.9966
51.9667
50.4436
50.3563
52.4267
49.9877
48.7707
49.3448
47.4143
48.6044
48.7534
51.949
50.1729
51.069
48.3915
49.5401
48.7831
39.3629
40.2833
36.6212
37.5742
41.4703
39.354
40.1485
40.5344
39.0152
41.0562
39.733
41.1336
37.2601
36.5874
47.2739
46.6666
47.6155
42.8105
44.9055
45.7047
44.0967
44.6095
42.436
38.4757
40.8768
40.8944
40.6704
41.3889
43.6965
42.111
43.632
42.7047
44.9156
48.5484
47.4224
47.4413
47.2597
49.6393
45.8728
45.085
51.3446
51.375
47.665
46.5424
47.0221
47.6105
52.3457
50.7153
49.1623
45.6081
46.4877
45.992
47.7144
47.201
51.0349
50.9862
53.3139
48.7874
54.8762
50.8112
51.7033
57.0747
53.4063
49.9607
54.6475
52.9512
44.726
46.1772
43.6927
52.3375
48.3602
47.0627
49.5819
48.6493
54.1696
53.9247
57.0378
55.9809
49.2927
49.5395
51.1198
49.9665
47.8718
48.8491
49.2231
47.2653
46.6616
44.3425
45.1022
44.5654
47.7958
49.6894
43.7502
49.0461
47.1349
48.2097
48.6791
45.9637
44.5516
47.989
44.3928
47.7286
44.9133
48.1267
44.9344
45.9493
41.992
43.3018
48.2053
46.0858
46.6245
40.6495
40.3659
45.7548
42.8783
45.7805
40.0129
40.7531
50.1103
50.1151
51.1881
47.5178
48.9983
50.21
49.3517
48.5951
48.2641
43.6477
45.9669
46.7237
47.2765
46.0787
42.0799
45.8358
46.2412
47.0313
42.3135
46.0442
45.9147
49.0381
51.2602
49.3023
51.5551
53.4653
49.6987
55.7598
56.4864
50.7948
45.8554
45.1287
47.6355
46.414
45.7365
46.5137
50.0883
45.8541
47.2128
45.8669
46.5351
44.4373
38.8183
38.2675
39.08
38.213
40.5893
36.6617
40.3272
45.8143
49.1718
44.6019
49.9618
49.4011
47.834
44.0388
37.9021
36.906
40.1953
37.46
36.6084
42.3887
42.1498
37.0345
39.2684
39.7852
39.2436
34.9467
37.5449
41.7062
39.3987
35.831
44.9595
39.0797
41.5841
39.1948
36.0556
39.9134
36.7904
41.5296
35.6414
39.8941
42.7786
42.7009
42.7609
46.6311
52.4107
53.542
53.773
52.7629
46.8216
37.6913
41.4468
41.5808
48.8245
48.3115
53.1629
50.4268
52.0712
52.6059
55.3831
43.7843
42.7163
47.0045
44.7415
47.1851
43.5926
54.4914
51.715
51.281
51.0134
49.9733
49.7895
50.6854
49.4522
49.9317
49.0225
55.2638
47.3882
52.3967
51.476
51.5202
51.2607
48.9065
50.8588
51.5022
53.0204
51.9792
53.9219
52.7338
54.489
55.8488
48.2037
49.1703
56.6642
52.2953
50.22
49.1741
50.0623
57.0142
53.4964
55.9302
51.4461
48.4606
49.9379
47.5402
47.0529
47.5014
44.2799
45.8083
47.4669
47.5356
41.171
44.9651
43.001
41.7973
43.1249
46.3475
45.7067
46.5922
44.7624
45.821
44.95
46.1234
46.1628
45.0197
47.3664
45.8674
46.497
47.2446
48.2743
48.7734
52.922
53.1922
52.8263
44.907
46.1232
44.8771
42.5907
53.4194
43.9752
43.7153
45.2948
44.2156
52.9073
50.1511
45.6591
47.3522
50.6711
48.0702
48.9083
49.6882
50.2892
54.027
53.2721
46.1695
49.9655
48.7515
50.2745
50.6385
51.6945
48.5622
45.0083
48.8689
48.5725
47.9439
47.3612
50.6061
48.7622
44.9004
44.8607
49.1383
46.138
48.6094
48.1984
49.7124
49.789
48.5267
48.7377
52.4619
49.4904
50.1885
52.1856
50.8946
40.9591
46.7183
42.4533
43.2976
47.6147
49.4076
49.0248
48.7762
