# vtk DataFile Version 4.2
vtk output
ASCII
DATASET POLYDATA
POINTS 642 double
-73.6821 163.717 87.1861
132.703 163.961 85.8273
-69.6566 -205.895 80.2684
129.485 -205.424 80.4833
30.671 -118.679 229.039
31.6994 100.09 253.987
30.5267 -120.871 -76.9142
31.1804 86.3735 -70.0014
165.129 -13.0877 -4.25132
175.725 -2.29975 179.445
-105.549 -15.4699 -7.1637
-118.235 -3.94177 177.24
-125.326 92.4701 145.954
-64.2987 51.0252 240.492
-32.1735 163.332 190.174
93.6317 162.284 190.225
30.5789 201.48 87.0326
89.5625 152.085 -11.6752
-28.8111 152.708 -11.6357
-51.8861 45.2844 -58.1619
-112.498 88.707 31.5611
-137.35 -11.9863 98.5585
124.731 52.0202 241.484
184.783 90.634 145.486
-50.8704 -72.3849 220.083
29.1832 -2.1114 272.789
-96.3287 -131.772 37.8342
-103.264 -120.181 135.474
28.9468 -18.2841 -110.617
-49.7648 -81.6102 -63.2449
173.518 89.73 32.4387
112.444 48.1446 -57.8348
164.288 -116.635 136.911
111.606 -72.5194 220.639
83.2345 -196.016 169.819
-23.451 -200.452 171.175
29.7805 -239.683 88.4531
-29.1792 -196.441 -1.83892
86.118 -193.933 0.0513373
107.053 -81.6366 -60.9496
150.17 -123.32 37.1866
195.623 -11.811 90.6547
-106.834 133.762 119.165
-87.8023 132.99 171.092
-58.3681 171.266 140.264
-97.2964 24.0865 213.955
-101.535 77.9193 197.48
-125.147 44.1466 166.932
-1.34916 137.289 229.53
-53.1187 113.204 222.081
-17.5803 79.3676 254.031
-3.7834 192.632 143.917
-25.9495 190.144 84.9062
63.4343 136.307 230.685
29.8033 173.831 196.816
87.0355 190.202 85.8506
64.8619 192.728 143.328
118.069 171.251 140.406
-3.42074 186.932 31.4495
-54.1947 166.872 34.5702
115.384 165.642 34.5956
63.3888 186.7 31.2646
-0.127819 125.309 -46.7407
30.5045 160.968 -16.3926
61.0619 125.013 -46.9917
-78.4567 127.099 4.80258
-100.159 130.5 57.3963
-11.6866 68.9652 -71.3946
-45.8105 105.064 -41.5131
-111.469 41.4016 10.9446
-87.3007 74.0258 -18.5549
-83.6858 16.1214 -35.3269
-127.66 96.0148 90.7624
-122.312 -8.30618 39.847
-130.974 45.8003 60.347
-133.267 48.1371 119.994
-138.555 -12.8172 132.712
146.985 132.608 172.232
164.833 131.539 119.767
80.279 81.2036 255.278
114.351 113.241 224.684
185.386 44.8049 166.356
160.798 76.9419 198.476
156.826 24.8793 214.987
-16.1154 22.3124 268.666
30.9929 43.7227 272.941
-90.2502 -33.1324 205.073
-62.1133 -1.64286 241.183
29.9601 -57.8979 253.12
-13.0951 -31.4515 257.003
-13.8439 -102.314 231.46
-129.586 -57.8657 116.872
-117.327 -57.2993 156.489
-104.347 -64.8639 5.82813
-115.873 -68.8562 62.6839
-87.7978 -172.802 105.546
-110.048 -132.999 79.82
-91.8005 -173.834 54.0998
-48.465 -19.3663 -73.3044
-80.8866 -49.602 -37.776
29.8585 26.5569 -98.7932
-6.88958 3.82946 -97.5485
-11.2347 -104.658 -77.9721
-7.92467 -42.6893 -96.4085
29.4954 -67.1489 -94.0487
106.822 104.691 -41.7311
73.5965 70.074 -71.9725
161.199 129.939 55.4959
139.762 126.654 4.8435
142.75 19.9071 -33.2989
147.379 74.1461 -18.5784
171.875 41.0526 11.12
145.143 -171.841 102.009
127.893 -161.92 153.396
109.347 -207.352 127.717
148.829 -31.6951 206.559
144.72 -103.233 182.832
171.657 -61.7183 155.243
57.2416 -163.646 199.237
103.21 -133.618 202.018
74.7973 -102.588 231.388
59.1839 -231.919 134.787
88.0251 -232.601 81.6314
2.45477 -167.972 196.639
26.6524 -208.098 177.952
-26.6059 -232.687 84.2366
-3.09992 -236.035 135.891
-50.3747 -211.236 131.017
65.0498 -228.337 33.3702
112.77 -207.442 38.5892
-54.5239 -209.879 35.0282
-7.07811 -229.524 32.4321
57.1512 -151.176 -50.8953
29.3906 -201.087 -5.49356
2.06175 -152.225 -49.6374
128.016 -169.833 18.4247
147.637 -174.894 58.7151
70.0209 -105.347 -77.5386
96.6327 -130.164 -45.5901
164.613 -64.3197 8.04369
137.869 -96.6377 -21.8106
139.713 -48.3597 -34.5716
164.746 -130.186 85.2402
182.614 -5.70499 41.44
177.77 -61.4055 64.298
186.58 -60.1536 113.228
192.97 -8.18161 133.777
74.4254 -32.7695 255.516
124.214 -0.808485 241.232
77.8133 24.7963 267.292
-67.7801 -167.554 151.818
-42.4912 -135.696 200.745
-84.5079 -103.922 183.535
-39.1313 -132.331 -44.1378
-72.9476 -172.176 15.8354
-79.3709 -98.6034 -23.9357
107.379 -18.3655 -70.4483
66.0332 -43.0944 -94.2812
65.9878 5.59572 -95.7476
194.349 48.5664 120.603
191.553 45.3136 61.9529
188.519 93.6275 87.5024
-91.795 150.328 104.081
-85.2889 153.781 130.45
-67.9986 168.641 113.496
-109.737 113.182 158.673
-99.5957 134.452 145.539
-117.926 114.026 133.085
-46.2256 169.585 165.815
-74.1624 153.797 157.192
-61.1225 150.265 181.804
-109.78 10.7065 196.694
-113.362 33.8453 191.731
-123.663 16.9594 174.74
-83.9308 65.2924 220.812
-99.5742 50.7802 207.56
-82.425 37.4104 229.108
-126.243 71.4261 156.518
-115.059 63.438 182.053
-115.904 86.7704 172.156
15.4546 118.977 244.489
-10.6589 110.468 243.728
7.01222 91.2035 255.621
-43.6915 140.282 208.138
-27.9997 127.287 227.142
-16.9157 152.413 211.577
-41.8173 65.7241 248.827
-36.4043 97.5959 239.426
-59.9056 82.8909 232.646
-97.3772 106.328 185.991
-80.0232 96.0737 211.314
-72.1647 125.268 198.504
-42.7267 183.054 115.439
-51.6308 178.311 85.6244
-18.9261 181.165 168.889
-31.6361 184.611 143.809
2.61137 197.364 86.1032
-14.0567 193.231 115.818
14.2508 199.892 114.369
47.1524 118.497 245.002
30.5929 139.078 230.975
62.8009 170.585 195.101
47.154 157.384 214.088
78.7349 151.074 212.275
13.2906 158.22 214.116
-2.01216 171.447 195.428
112.017 178.668 86.0306
103.071 183.314 115.191
126.291 168.759 113.235
46.8886 199.903 114.287
75.1583 193.261 115.661
58.2915 197.421 86.496
107.053 169.069 165.589
92.4961 184.595 143.327
80.0784 180.761 168.16
12.6588 187.04 172.992
47.5569 186.407 172.399
30.3332 194.296 143.701
-41.0886 181.93 57.0694
-64.5331 167.457 59.8762
13.1787 195.22 58.3349
-15.0894 191.589 56.6349
-42.4948 161.796 10.8517
-29.509 179.327 32.0739
-17.023 172.24 8.81034
125.376 166.628 60.2453
101.852 180.909 58.2921
77.2218 171.703 8.6171
89.7589 178.218 32.0258
103.441 160.818 10.6494
75.1146 190.812 57.443
47.3113 195.318 58.4723
15.7012 106.973 -59.3082
30.62 126.892 -47.2227
45.8524 106.687 -59.6072
-0.812087 159.309 -15.7456
13.9857 144.983 -32.6642
-14.4373 140.253 -31.1222
75.1686 139.883 -31.1936
46.9295 144.953 -32.7323
61.3753 159.173 -15.799
30.4057 189.251 30.132
47.0634 177.158 5.71641
13.6442 177.155 5.81027
-78.5776 150.495 43.43
-88.004 148.771 72.467
-55.2128 141.914 -4.59485
-67.771 147.995 17.8042
-108.11 110.529 43.7132
-90.1412 130.213 28.6084
-97.2832 109.147 16.7428
9.0821 78.1709 -72.9168
-8.30567 99.6835 -59.4593
-49.619 78.0634 -50.0326
-30.5303 89.8071 -56.4529
-31.6149 58.3365 -66.1576
-24.3074 116.686 -45.3671
-38.5476 129.932 -28.699
-107.993 11.188 0.72426
-99.1416 30.0306 -14.9295
-95.919 -0.431942 -21.7687
-101.246 82.9692 4.42139
-100.668 58.9793 -4.7159
-113.458 66.5011 21.1988
-70.2708 30.9268 -47.9766
-86.3121 45.9945 -28.0777
-71.0798 61.2167 -39.1632
-63.4143 117.518 -20.2876
-68.539 90.9937 -31.5043
-84.8258 101.288 -8.78
-106.637 133.134 89.7869
-122.407 93.1173 61.2339
-116.565 113.267 74.9078
-119.957 114.906 105.336
-128.755 95.9322 119.324
-114.288 -13.1448 12.1017
-118.896 16.3761 26.0632
-134.616 16.1782 75.7625
-129.544 19.368 52.4797
-131.788 -7.18635 69.6239
-123.305 45.1589 37.7603
-124.595 67.9103 47.27
-131.362 15.4092 152.217
-129.972 -8.25876 155.86
-131.871 73.5466 133.561
-131.803 48.3125 143.718
-141.928 -14.3619 116.882
-136.732 10.742 128.425
-136.305 9.80067 106.502
-131.299 72.7408 74.9239
-133.731 47.7714 88.7049
-132.481 75.4146 105.732
143.128 152.914 131.506
149.058 149.091 102.792
121.992 149.625 182.659
133.741 153.381 158.023
176.966 112.021 133.796
157.998 133.296 146.733
168.275 112.272 159.06
56.5719 91.618 256.687
73.9052 109.96 245.585
120.071 84.4654 234.518
98.5422 98.4707 242.086
102.871 67.887 249.788
90.5722 126.325 229.279
105.569 139.341 209.7
181.651 20.3896 174.605
172.72 35.7586 191.926
167.885 11.7356 197.575
174.759 85.2157 172.269
175.77 61.3136 182.738
186.922 68.5203 156.107
142.953 37.4265 229.815
160.141 50.3294 208.409
143.855 65.5322 221.973
132.44 125.137 200.253
139.349 96.6543 213.116
156.002 106.269 187.09
6.18225 60.7841 266.465
31.5794 72.9487 264.047
-41.4276 36.5595 256.067
-18.1087 48.1498 263.2
29.9727 19.1121 275.174
6.04449 31.5797 273.303
6.60229 9.89744 274.153
-105.913 -17.9615 191.564
-94.5935 -1.77328 212.061
-58.1073 -32.4411 234.335
-76.7061 -16.979 224.965
-71.4258 -52.0649 215.091
-80.4066 12.1659 229.835
-64.897 23.6409 243.84
30.5982 -93.8803 238.647
8.54872 -80.8432 241.047
7.60418 -111.829 232.038
7.61624 -15.695 267.544
8.34774 -43.4066 257.74
29.2802 -26.9798 264.702
-32.8081 -90.4542 228.802
-14.1328 -66.3144 241.39
-34.1818 -51.2054 240.695
-40.7503 10.8518 256.948
-37.8916 -16.8932 251.616
-14.8475 -2.32287 265.765
-130.731 -32.5912 144.541
-120.235 -30.7036 166.654
-136.63 -30.2445 111.215
-137.152 -31.2907 124.037
-107.839 -89.0183 147.47
-125.878 -57.6035 135.208
-114.209 -89.2662 124.247
-105.646 -38.3273 -1.76312
-113.851 -38.3655 19.7417
-107.577 -103.076 48.5262
-111.342 -67.1785 29.3459
-101.575 -93.6373 18.7678
-121.353 -34.1516 50.017
-130.414 -31.238 83.7056
-80.0743 -191.335 93.384
-92.7703 -174.127 78.0836
-82.514 -191.639 66.1296
-107.624 -128.572 105.684
-101.102 -152.197 90.8331
-95.8262 -148.036 118.686
-95.3285 -156.056 46.3875
-101.618 -154.436 66.9586
-106.726 -135.624 61.6439
-124.039 -64.9097 95.1032
-113.112 -107.398 74.2204
-113.955 -98.8826 95.1928
-83.2945 -17.3895 -38.5095
-95.0891 -31.1486 -22.4851
-49.1725 8.16128 -66.3356
-67.0731 -3.07662 -53.4002
-66.1657 -67.025 -51.6483
-66.2028 -34.1809 -55.4062
-49.6104 -47.6909 -67.8664
30.5855 56.9058 -84.2729
11.5147 45.1237 -87.4753
11.5299 -7.74643 -107.224
12.1564 14.3991 -100.689
29.1902 1.33963 -106.726
-8.33528 33.9053 -85.3521
-26.86 22.4598 -79.0248
9.32239 -114.114 -79.4357
7.91198 -89.2196 -88.3845
30.5073 -100.503 -86.0575
-28.1081 -64.3975 -79.3014
-10.3117 -76.964 -86.0225
-31.006 -94.2671 -72.551
28.9359 -35.4865 -107.276
9.31284 -52.7663 -98.7472
11.5815 -28.1031 -107.38
-27.9669 -8.25267 -88.8912
-8.42632 -18.07 -101.783
-28.5633 -29.6782 -88.2262
69.4034 99.0656 -60.251
52.9018 78.6593 -73.2633
[...]
POINT_DATA 642
SCALARS Mean_Curvature double 1
LOOKUP_TABLE default
0.00878719
0.0101401
0.0165723
0.0258092
0.00808421
0.00846049
0.0117816
0.00389959
0.0148444
0.00916762
0.0146128
0.00135827
0.0190468
0.0111625
0.0125106
0.0112716
0.0159997
0.0109993
0.0116816
0.0068763
0.00854623
0.010263
0.0102886
0.016782
-0.0082028
0.0142408
-0.00335984
0.0109502
0.0361998
0.0123707
0.0107058
0.009744
0.0145748
-0.00513124
0.0176068
0.0188774
-0.00130215
0.0192356
0.0140365
0.00982263
-0.00767251
0.0130643
0.0143452
0.0116202
0.0117875
0.0127982
0.0122553
0.00894414
0.0120122
0.0101603
0.00786896
0.0121368
0.00894532
0.0122028
0.0131598
0.0104709
0.0129548
0.0128026
0.0133021
0.0119256
0.011404
0.0141335
0.0130983
0.0077799
0.013071
0.0131022
0.0086551
0.00797539
0.0135608
0.00542961
0.00974381
0.00520225
0.0156514
0.00158391
0.0110191
0.000179618
0.0194391
0.0120589
0.0103754
0.0106713
0.0126916
0.00996958
0.00976289
0.0125363
0.0180296
0.012386
0.0067429
0.00872868
0.00774532
0.00858266
0.0127036
0.0211993
0.010202
0.00857747
-0.00441708
0.00832907
0.0215755
0.0220008
0.0138033
0.00636524
0.0198774
0.0128383
0.0152616
0.0105612
-0.00185293
0.0133998
0.0113098
0.0108345
0.0134257
0.00415403
0.00841846
0.00778588
0.00475612
0.00509968
0.0141701
0.00759752
0.0143121
0.00108728
0.00418851
0.011061
0.0135557
0.0143294
0.0192667
0.000665105
0.0191652
0.00943972
0.020523
0.0169434
0.0174867
0.0154032
0.0174014
0.0181312
0.0149295
0.00646416
0.0129878
0.0164578
0.0302527
0.0177468
0.0107074
0.0129545
0.0109944
0.00531687
0.0131086
0.00141083
-0.00476355
0.0113395
0.00974269
0.00858306
0.0106947
0.0142761
0.00387728
0.00986118
0.0153779
0.0100339
0.0167245
0.0108192
0.0116217
0.00879558
0.0121675
0.00252261
0.00896787
0.0166452
0.0118976
0.0128365
0.00970566
0.0127845
0.0122226
0.0134699
0.0116442
0.0105712
0.0113952
0.0138677
0.0104789
0.0174174
0.01041
0.00807143
0.0144274
0.0124458
0.00814393
0.0157076
0.0130508
0.0119524
0.00834944
0.0114273
0.0110674
0.0125583
0.00831556
0.00881653
0.00884428
0.0120821
0.0105
0.0115664
0.00982626
0.00790147
0.0134399
0.0138708
0.00724976
0.00716691
0.0134453
0.0118697
0.00784813
0.0125701
0.0102355
0.011247
0.0126742
0.0141238
0.0107933
0.0112795
0.00864144
0.0134798
0.00734864
0.00759538
0.0113372
0.01457
0.0131703
0.0164271
0.0139516
0.00420175
0.0151379
0.0116443
0.00683248
0.0153869
0.0115852
0.013207
0.0120479
0.011224
0.0129978
0.0117916
0.0112855
0.0113685
0.0124187
0.00794087
0.00855727
0.00701157
0.00867999
0.0126219
0.0107383
0.0124351
0.0118907
0.0111512
0.0129218
0.0118255
0.013427
0.0126384
0.0112564
0.00679114
0.0120954
0.0126802
0.00892254
0.0123863
0.0116449
0.00962536
0.0099461
0.00820595
0.0118697
0.00528593
0.0128682
0.0122509
0.00303645
0.0121864
0.00802891
0.0124963
0.00731028
0.007765
0.012359
0.00875583
0.00755673
0.0127101
0.0124421
0.0125668
0.0135088
0.0122103
0.0107439
0.0131258
0.019151
0.0113854
0.00316121
0.00986513
0.0104689
0.00768268
0.00664014
0.0113931
0.00720498
0.0123989
0.0153998
0.00998188
0.04372
0.00879586
-0.000418596
0.0146021
0.00377881
0.00870634
0.0107134
0.00585244
0.0121376
0.0116754
0.0142047
0.0120112
0.0115874
0.0106922
0.0135329
0.00946134
0.0139884
0.00771921
0.0124798
0.0122789
0.0104644
0.0102411
0.0104856
0.0109806
0.012631
0.0134001
0.0138828
0.0111866
0.00957243
0.0128656
0.010523
0.0112914
0.0109551
0.00611468
0.0113727
0.00816237
0.0128167
0.0152294
0.0217825
0.00486211
0.0089
0.00884189
0.00760357
0.00792467
0.0116112
0.0163203
0.00637224
0.000495746
0.0151167
0.0114182
0.010426
0.00705673
0.0162744
-0.000675435
0.00902713
0.0132268
0.0083977
0.0120752
0.0122951
0.0104465
0.00869642
0.0226188
0.00416979
0.0111516
0.00112019
0.00820069
0.00723221
0.00227558
0.00713093
0.00713052
0.00134136
0.00314516
0.0129488
0.0139657
0.0191237
0.0107317
0.00867754
0.00595533
0.011964
0.0172352
0.017689
0.00372354
0.0115512
-0.00112859
0.00973805
0.0105688
9.95394e-05
0.0041617
0.00961623
0.00705679
0.00313675
0.00957672
0.00843064
0.0235823
0.0134784
0.0185843
0.00717235
0.00331871
0.0170231
0.015209
0.0109108
0.00160512
0.00876595
0.0156208
0.0204416
0.0109728
0.0244251
0.016782
0.0266047
0.0135419
0.0104994
0.0109923
0.0122596
0.0125538
0.00932807
0.0113021
0.00880271
0.00971846
0.0118704
0.0126848
0.0126065
0.0097505
0.0129341
0.0122103
0.00501919
0.0104168
0.00404406
0.00991779
0.012298
0.00913786
0.00492501
0.00855074
0.0106853
0.0131178
0.0134365
0.0119329
0.0221569
0.0107597
0.0159612
0.00971926
0.00417872
0.00843512
0.0179757
0.0112215
0.00868978
0.00686962
0.00457419
0.00638548
0.0166874
-0.00911706
0.00721868
0.0097928
0.00955913
0.0148928
0.00656236
0.0120989
0.0152144
0.00323506
0.00673317
0.0127961
0.0145012
0.0126911
0.0129382
0.0118165
0.0134582
0.00796134
0.0114324
0.0217123
0.0162175
0.016729
0.0120967
0.00799379
0.0229427
0.00591425
-0.00143582
0.022786
0.0184468
0.0184324
0.00975668
0.0159514
0.0123925
0.0131678
0.0146554
0.0256607
0.0219095
0.00495731
0.0178131
0.0179964
0.0188182
0.0148488
0.0176691
0.0173038
0.0178726
0.0174999
0.012547
0.0162801
0.0157336
0.0164015
0.0171117
0.0178326
0.0185668
0.0193299
0.0192081
0.0182187
0.0194808
0.0109416
0.016913
0.00825438
0.0161234
0.0159431
0.00132212
0.000609635
0.00215479
-0.00192604
0.0171347
0.0101383
0.0112441
0.0155561
0.0181188
0.0241037
0.0133132
0.0180757
0.00536186
0.0248929
-0.00408688
0.0187341
0.0174321
0.0139281
0.0161468
0.0152112
0.0128436
0.00342694
0.00457142
0.00959849
0.00829625
0.00928827
0.0116248
0.00971054
0.00761223
0.00979041
0.0126115
0.00165973
0.0096461
0.00526398
0.0277152
0.00581102
0.0108246
0.0064066
0.0137916
0.00959624
0.00550739
0.0149891
-0.000368751
0.000476021
0.011627
0.00345579
0.0123331
0.00448976
0.00652185
0.0083672
0.0111721
0.0171959
0.0178772
0.00787634
0.0125781
0.00225616
0.00108865
0.00954478
-0.000312304
0.0081734
0.00969932
0.0108254
0.0176466
0.0146242
0.00885491
0.00923223
0.00981362
0.0180755
0.0170674
0.00845604
0.0147906
0.00822258
0.013002
0.00681653
0.0175145
0.0108365
0.0153972
0.00678691
0.00694914
0.0113935
0.0120651
0.0117104
0.00479231
0.00139272
0.00845058
0.016124
0.000635218
-0.00651505
0.0161372
0.00587262
0.0128405
0.0109801
0.0156219
0.000307077
0.0110013
0.0144288
0.0141135
0.0176745
0.010058
0.0228668
0.0185574
0.0168724
0.00690074
0.0148554
0.0109808
0.0107965
0.00514697
-0.00154709
0.00155373
0.0102008
0.0107224
0.00638743
0.00478517
0.00375776
0.000216659
0.0189024
0.0232841
0.0091483
0.00736449
0.000452519
0.00728453
0.00345778
0.00658021
0.0137643
0.0198029
0.0118022
0.0242223
0.0131118
0.013653
0.000299778
0.0105023
0.0122007
0.0189241
0.0056955
0.00720624
0.00534792
0.0134391
0.0152062
0.0103766
0.015992
0.00773755
0.0143689
0.0165039
0.00545436
0.0180362
0.0101389
SCALARS CoVolArea double 1
LOOKUP_TABLE default
595.48
587.656
470.182
369.393
557.662
575.811
388.838
572.867
478.999
480.714
455.087
490.55
606.633
758.588
821.488
841.762
852.225
744.868
737.691
877.856
696.606
574.15
754.649
637.894
899.071
574.6
812.722
830.118
355.439
661.199
652.07
789.927
659.499
868.238
643.438
592.244
901.572
648.333
712.359
680.704
1055.37
615.655
687.639
840.033
789.902
612.23
769.17
695.252
776.686
863.219
812.176
906.192
861.454
793.3
853.388
839.809
906.856
769.086
825.805
711.376
731.534
827.53
676.245
809.857
677.642
717.652
754.335
769.689
677.483
740.285
690.463
699.853
645.744
811.711
699.747
859.877
487.061
820.762
770.536
746.34
806.092
617.054
798.52
593.21
640.484
716.045
846.278
695.12
828.532
792.748
691.397
690.223
733.062
676.084
1198.15
656.912
578.5
482.785
710.607
676.763
584.238
605.912
551.779
655.233
748.033
683.133
719.108
711.393
705.678
720.973
680.977
713.309
653.836
866.92
654.45
818.679
669.7
853.892
818.313
788.12
664.86
781.623
709.184
783.696
622.801
795.67
676.915
621.875
765.521
604.66
597.683
761.126
758.527
902.597
824.52
718.675
371.061
503.51
824.841
574.951
745.006
693.212
707.664
814.455
977.283
653.627
619.24
852.309
655.821
667.095
854.927
859.586
724.439
883.124
690.452
811.043
749.952
687.941
641.817
735.817
671.642
641.71
715.206
760
765.465
751.631
734.857
644.161
778.624
787.487
860.136
583.097
671.964
596.023
799.847
704.272
634.624
592.131
688.526
692.959
732.686
776.435
755.272
852.683
778.056
762.807
799.846
804.185
856.782
881.269
922.584
946.593
855.495
788.529
836.871
803.482
840.34
874.116
904.077
730.011
819.455
865.388
820.677
792.521
793.648
822.373
750.607
812.402
761.714
897.335
848.559
830.699
769.686
785.024
855.106
962.604
982.27
1034.16
751.826
733.513
897.799
780.834
705.05
709.894
778.874
713.07
769.196
782.549
743.719
717.119
800.929
895.227
694.669
730.884
682.502
777.285
722.309
663.992
669.1
720.056
772.005
952.109
890.389
900.934
752.441
747.007
743.587
699.025
700.583
704.965
708.787
722.465
685.671
737.953
667.429
803.041
633.421
715.388
688.815
705.76
640.81
679.058
666.886
654.407
756.034
675.694
748.555
777.315
756.539
749.058
721.01
695.789
690.452
642.238
601.747
660.365
777.612
777.687
715.305
761.986
687.686
667.341
682.098
587.358
605.018
724.96
379.028
694.752
807.19
727.428
931.281
725.839
787.435
782.826
843.615
768.453
675.44
737.997
764.821
723.639
733.532
815.406
725.451
755.354
752.113
839.08
603.892
631.907
577.283
744.211
668.236
585.72
624.179
679.915
807.827
911.887
905.765
893.558
793.166
769.334
737.966
754.607
551.032
634.616
555.085
688.77
658.562
863.255
723.987
879.374
600.99
648.62
735.812
837.29
677.578
626.498
785.91
655.54
737.465
850.229
913.607
726.605
836.625
692.827
575.324
656.904
527.519
408.392
763.251
668.15
908.409
583.339
751.969
969.313
949.363
864.286
1000.24
931.417
582.723
568.285
534.747
829.6
627.425
744.423
474.233
478.52
598.965
964.28
834.093
847.297
705.388
607.684
857.012
759.285
641.617
735.077
785.383
698.362
722.685
421.766
561.298
422.642
770.143
873.004
516.958
672.863
601.836
801.026
673.786
586.862
503.829
650.459
443.888
678.26
517.611
705.544
666.193
694.435
720.25
643.057
726.006
642.047
696.404
735.24
725.53
682.273
677.178
643.82
696.327
742.566
676.622
679.868
654.726
690.361
634.347
711.957
689.801
661.245
678.072
770.521
739.588
753.087
469.859
652.209
570.407
794.064
794.523
751.888
594.824
682.125
758.714
678.189
929.069
753.305
780.616
894.511
859.154
650.263
762.907
624.119
806.258
713.524
652.692
814.775
776.028
679.484
711.111
641.785
685.965
819.758
758.223
943.793
721.958
565.641
696.893
707.51
793.502
783.113
784.047
822.157
844.418
562.512
576.178
592.08
652.384
660.018
691.709
727.559
643.461
734.471
697.579
834.466
577.319
627.887
642.71
810.896
761.773
798.248
627.774
532.606
920.749
711.469
561.02
631.604
635.872
591.36
686.415
622.746
606.177
540.312
751.152
947.944
536.859
871.65
564.779
776.292
986.065
834.715
819.021
1013.5
767.789
950.807
836.117
821.153
504.925
418.586
742.311
515.31
576.391
447.549
827.598
484.349
530.732
589.809
527.642
570.78
722.37
929.78
607.711
612.527
635.624
930.347
597.1
783.83
672.949
592.191
609.391
1067.58
906.923
1031.99
432.643
865.169
461.93
626.627
751.144
674.381
762.074
698.296
893.424
688.836
796.099
1081.5
719.192
643.882
723.099
700.686
590.636
551.422
525.054
977.744
789.656
830.442
830.454
903.75
847.965
815.337
696.103
617.405
623.952
559.734
670.455
831.786
768.02
606.015
636.44
732.65
723.799
861.722
737.07
782.336
615.67
737.219
612.313
707.873
829.186
763.553
723.422
694.322
811.815
821.592
869.074
736.042
810.565
922.972
798.497
999.908
805.568
877.457
591.449
882.376
783.372
597.064
627.646
550.788
701.325
461.071
519.942
693.946
632.514
603.391
584.558
700.528
930.416
1047.06
1049.18
959.794
744.004
800.425
753.886
789.547
867.46
632.57
464.007
653.337
659.116
823.934
712.457
857.818
752.048
578.808
439.617
741.379
554.14
736.687
640.899
845.03
678.097
580.917
583.945
717.46
666.864
714.825
657.813
712.843
779.34
644.722
717.275
674.747
613.684
825.287
665.248
696.049
SCALARS SignedDistance double 1
LOOKUP_TABLE default
59.4409
59.55
61.1104
62.6689
70.3857
60.5885
65.5418
68.301
76.6054
73.3924
75.4642
71.9263
65.3124
63.2812
54.4067
54.6535
55.2958
61.326
61.1541
72.0216
70.8986
77.0954
63.138
65.1381
76.7194
68.8064
79.4389
73.1805
65.2252
71.6682
72.0141
73.9571
73.8378
75.9972
65.7085
65.9102
62.3485
66.1017
68.9023
73.1915
79.9157
77.1393
60.2124
57.7228
55.9687
68.5406
63.8863
67.8693
56.491
59.6064
61.8361
55.5981
56.0334
55.9224
53.2494
56.0472
55.6818
56.6245
56.9902
59.0301
59.196
57.0771
65.1438
61.6607
65.0326
64.2497
64.0258
69.825
67.1693
75.4763
71.5657
75.3699
68.2471
79.2608
74.2973
73.5903
71.2738
58.5769
61.5245
61.8877
58.7855
69.6729
63.8224
69.0535
65.3662
62.8528
72.6795
69.6837
72.6159
70.8217
71.195
77.6228
73.079
77.4514
80.2916
69.2748
78.3316
70.7837
73.8984
74.7677
67.3321
69.2998
66.9973
70.6405
71.4643
67.2325
69.3056
63.9989
64.4019
76.3897
71.5341
75.8368
71.4932
68.4767
63.1009
73.7296
74.1091
78.0068
69.791
68.1977
71.139
54.8095
53.9155
71.5746
65.169
53.7946
52.7968
60.9831
56.4656
63.1709
59.5487
56.5347
65.0521
67.3946
65.3196
79.7232
76.5724
68.0719
68.9643
76.6352
73.9679
76.4593
75.2668
79.4623
80.4438
77.6309
73.2927
70.8199
69.7416
66.6821
68.6359
68.1379
73.278
68.0842
73.7409
72.7776
75.019
71.635
69.8522
73.4792
73.2808
67.664
58.8827
57.1322
57.7366
59.9752
58.2849
62.0657
54.864
56.5511
55.9584
70.65
67.7823
71.0196
64.0082
65.8487
66.0543
68.4906
66.6231
64.5915
58.239
59.446
61.8333
56.6516
58.083
55.0339
62.5514
60.7812
61.7864
60.4865
61.1467
58.2315
56.6553
57.7014
53.3517
54.1534
56.8349
56.0545
55.5416
58.3519
56.6913
53.664
55.1053
54.9889
54.9188
53.2809
57.6703
56.6637
58.8038
55.5389
56.0748
56.8099
55.172
54.2917
53.5642
52.2426
52.8753
55.4112
57.0268
59.1457
57.2152
55.6848
59.7841
57.8243
58.8319
59.2624
57.6706
59.0828
58.2725
59.9624
56.4085
57.2001
67.6866
65.6341
67.8363
60.9108
63.3864
62.8304
62.8597
63.4231
60.8963
57.0491
59.0662
59.006
61.1846
61.491
62.066
61.041
67.6124
64.2133
67.6081
68.5046
68.1068
70.7363
69.4716
71.0953
65.4961
63.7304
76.2487
74.7453
74.3499
71.2917
73.3642
73.7531
73.8258
72.1821
71.1888
65.5933
69.5725
68.304
62.0912
68.6811
64.961
63.5762
68.8496
76.6767
77.2903
75.1884
75.74
78.2469
74.9616
72.9526
72.7301
70.5444
72.1224
72.0431
76.6986
73.1323
75.9964
71.5364
74.063
72.7717
59.2117
60.6191
55.9054
57.0661
62.2316
59.4014
60.9583
60.7477
58.3742
61.8969
59.8701
62.1188
56.64
55.7925
71.0792
69.7788
71.4227
64.4396
67.0217
67.8854
66.24
66.6972
63.6867
58.2121
61.5745
61.4715
61.4844
61.6143
64.8918
63.195
65.1495
63.5514
67.0727
72.4249
71.1944
71.7767
71.3337
74.3006
69.136
67.7205
74.8004
75.0682
71.0027
69.8703
71.2121
70.8043
74.034
74.2882
73.4111
68.3191
70.1239
68.9316
71.8439
71.6522
76.4383
74.8595
76.7666
73.5155
78.8384
76.3859
77.6872
81.4543
78.8856
75.5017
79.9355
78.9642
65.8834
68.6611
64.4062
76.2656
71.3927
70.6109
74.7592
72.5994
78.0118
80.1012
83.4054
81.9411
74.4528
75.0189
75.1905
74.7213
72.6522
73.7083
73.4618
69.6598
69.7109
66.7019
67.8758
66.7142
71.3803
73.4333
65.8353
70.7672
68.4309
71.6995
71.7401
68.8953
67
70.5423
66.7705
71.6256
67.8098
71.8564
67.4535
68.573
63.6998
65.4266
71.667
68.9475
70.3239
61.2078
61.1384
68.1688
64.3139
67.9079
61.0937
62.1049
75.6978
75.5474
77.0334
71.7436
73.8086
75.4706
73.7562
73.1694
72.4045
65.7561
68.9443
69.8647
68.1937
67.8076
62.6496
69.5679
69.316
70.6219
63.5346
67.781
68.314
73.5244
76.197
74.0067
75.0729
78.4616
74.5863
79.195
79.6306
73.9722
69.3556
68.5303
70.986
69.0006
68.6709
68.6974
73.3407
69.4674
71.101
69.6063
70.2766
67.9084
58.1593
57.3558
59.5248
57.9946
57.6068
55.3543
56.5132
69.321
72.0739
64.6276
70.3349
70.7548
69.5005
64.3391
56.8509
56.0486
60.2862
53.7955
53.9701
58.8923
62.7718
56.3147
58.682
59.0866
58.2332
53.0763
56.9566
61.7777
55.7508
54.1995
65.6196
58.863
61.9449
58.9094
54.6803
60.1626
56.2471
62.2522
52.744
55.9226
64.7864
65.0485
64.7768
67.0444
70.7067
72.2891
72.962
70.7093
67.41
56.9691
61.8196
61.8877
69.4283
68.8072
73.4366
71.2185
78.1937
77.3749
80.5141
65.8651
65.4174
70.7693
67.9759
70.8982
66.6861
74.1478
77.5926
76.9441
76.6503
75.1849
75.4414
76.3441
74.4078
75.1266
73.6324
76.7653
71.7593
76.2468
74.7515
77.1889
76.7111
73.0877
74.6355
77.4046
78.794
78.0985
80.1847
78.7125
79.1221
81.9499
73.3896
73.5355
80.618
77.3483
75.1039
74.0513
75.2726
83.0808
79.3735
81.5066
75.2282
72.8826
73.7966
71.5942
70.3197
71.5464
67.0096
69.1409
71.6592
71.9128
61.9639
67.4089
64.4581
62.8343
64.3876
70.0746
68.4565
69.4182
65.8165
68.0987
66.5468
69.2956
69.501
68.4825
71.116
69.4567
69.2933
69.9903
73.046
72.1609
77.1707
76.7968
75.2105
68.0355
69.77
68.6704
65.0216
74.1528
66.7443
66.7015
68.777
64.7172
77.8194
72.4934
66.6186
68.5967
75.9935
71.9621
73.8637
74.7916
75.2585
75.8957
76.6204
70.0946
75.5134
73.652
75.4764
75.7735
76.1222
71.0457
67.884
71.5833
72.328
72.1476
70.2055
74.3823
72.1497
68.0894
67.592
73.1662
69.3522
72.7916
72.0134
74.4548
74.2886
71.776
72.07
78.0893
74.0106
74.9149
77.8533
76.2112
61.9849
67.5144
63.8844
65.1651
69.7697
73.8865
73.2485
72.6592
