# vtk DataFile Version 4.2
vtk output
ASCII
DATASET POLYDATA
POINTS 642 double
-30.861 18.9203 -81.6076
-29.8632 18.92 -81.6091
-30.721 17.1072 -81.6454
-30.0224 17.1247 -81.6418
-30.3635 17.4981 -81.0252
-30.3572 18.5972 -80.789
-30.3683 17.4787 -82.3217
-30.3617 18.4689 -82.3164
-29.8051 18.0006 -82.012
-29.7553 18.0463 -81.2194
-30.9267 17.9899 -82.0214
-30.9791 18.0387 -81.2212
-31.0318 18.5274 -81.338
-30.7906 18.3524 -80.8986
-30.6739 18.9288 -81.0927
-30.0473 18.9262 -81.0907
-30.3608 19.137 -81.6121
-30.0892 18.8292 -82.0751
-30.6329 18.8308 -82.0757
-30.6947 18.2604 -82.2513
-30.9621 18.4881 -81.8507
-31.0515 18.0142 -81.6062
-29.934 18.3561 -80.8985
-29.6939 18.5252 -81.3373
-30.7143 17.7338 -81.0402
-30.3607 18.0566 -80.7958
-30.8783 17.481 -81.8517
-30.9022 17.5011 -81.4228
-30.3677 17.9659 -82.4224
-30.6836 17.6808 -82.269
-29.7607 18.4902 -81.8508
-30.0351 18.267 -82.2419
-29.8296 17.5129 -81.4183
-30.0128 17.7393 -81.0392
-30.1503 17.1523 -81.2938
-30.5809 17.1468 -81.3023
-30.3714 16.9644 -81.633
-30.5696 17.1926 -81.9742
-30.1757 17.2025 -81.9729
-30.0578 17.6896 -82.254
-29.8575 17.5002 -81.8467
-29.679 18.0234 -81.6089
-30.9762 18.7643 -81.4666
-30.9166 18.7606 -81.1994
-30.8046 18.9683 -81.366
-30.9145 18.188 -81.07
-30.9569 18.4674 -81.0897
-31.0203 18.2663 -81.2543
-30.5036 18.7808 -80.8858
-30.7641 18.6618 -80.9452
-30.5751 18.5018 -80.7993
-30.5327 19.0972 -81.3276
-30.6618 19.0682 -81.6121
-30.2132 18.7798 -80.8848
-30.3596 18.9879 -81.0523
-30.0605 19.0666 -81.6118
-30.1893 19.0968 -81.3272
-29.9188 18.967 -81.3655
-30.521 19.0367 -81.8794
-30.7719 18.9209 -81.8398
-29.9505 18.918 -81.8403
-30.2011 19.036 -81.8797
-30.4792 18.6586 -82.2409
-30.3607 18.8793 -82.1105
-30.2425 18.659 -82.2406
-30.8435 18.691 -81.9816
-30.9464 18.74 -81.7357
-30.5224 18.3803 -82.3088
-30.687 18.5594 -82.1932
-30.956 18.2252 -81.9511
-30.8519 18.3973 -82.0774
-30.8391 18.1199 -82.1433
-31.0333 18.5354 -81.5979
-31.0068 18.0036 -81.8383
-31.0338 18.2638 -81.7283
-31.0512 18.2767 -81.4742
-31.0369 18.0254 -81.3917
-29.8087 18.7578 -81.1963
-29.7474 18.7623 -81.4676
-30.1423 18.5043 -80.7995
-29.9591 18.6601 -80.9432
-29.7043 18.2699 -81.2519
-29.7728 18.4652 -81.0895
-29.8071 18.1902 -81.0623
-30.575 18.2095 -80.796
-30.3588 18.346 -80.7511
-30.8782 17.9002 -81.1182
-30.7607 18.0514 -80.9477
-30.362 17.7621 -80.9199
-30.5511 17.8971 -80.896
-30.5292 17.5899 -81.0114
-31.0064 17.7589 -81.5041
-30.9674 17.7951 -81.3055
-30.9263 17.7565 -81.9612
-30.9904 17.7391 -81.742
-30.8132 17.2521 -81.549
-30.9093 17.4586 -81.6393
-30.7987 17.2571 -81.7396
-30.6909 17.9687 -82.2843
-30.8247 17.839 -82.1488
-30.3644 18.2241 -82.3894
-30.5202 18.1034 -82.3712
-30.5198 17.5541 -82.3301
-30.5241 17.824 -82.384
-30.3685 17.704 -82.3922
-30.037 18.5604 -82.1904
-30.2022 18.3845 -82.3071
-29.7789 18.7366 -81.7381
-29.8815 18.6883 -81.9793
-29.8925 18.1294 -82.133
-29.8762 18.4008 -82.0714
-29.7738 18.2318 -81.945
-29.9174 17.2643 -81.5433
-29.9547 17.2923 -81.3393
-30.059 17.091 -81.4812
-29.8554 17.9072 -81.1172
-29.8954 17.604 -81.2161
-29.7706 17.8014 -81.3055
-30.2611 17.3066 -81.1259
-30.0626 17.4177 -81.139
-30.1965 17.5936 -81.0108
-30.256 16.997 -81.4612
-30.1631 17.0102 -81.6379
-30.4699 17.3021 -81.1294
-30.3697 17.1099 -81.2875
-30.5781 17.0031 -81.6382
-30.4846 16.9971 -81.4631
-30.674 17.0803 -81.4827
-30.2579 17.0328 -81.807
-30.0884 17.1301 -81.786
-30.6595 17.1131 -81.7934
-30.487 17.0286 -81.8088
-30.2735 17.3302 -82.1963
-30.372 17.1619 -81.9965
-30.4659 17.3263 -82.1973
-30.0059 17.3129 -81.9207
-29.9439 17.2739 -81.7314
-30.2181 17.5573 -82.3247
-30.0992 17.4205 -82.1629
-29.8061 17.7712 -81.9537
-29.9314 17.5819 -82.07
-29.9089 17.8498 -82.1381
-29.8234 17.4741 -81.6318
-29.7251 18.0138 -81.8333
-29.7419 17.7556 -81.7381
-29.7263 17.7669 -81.5044
-29.6947 18.0348 -81.3913
-30.1714 17.899 -80.8959
-29.9642 18.056 -80.9477
-30.1448 18.2124 -80.7973
-30.7738 17.2786 -81.3444
-30.6665 17.4063 -81.141
-30.8373 17.5949 -81.2177
-30.6449 17.4075 -82.1712
-30.7369 17.2966 -81.9254
-30.8051 17.5679 -82.0769
-30.0415 17.9766 -82.275
-30.2118 17.8267 -82.3767
-30.2103 18.1085 -82.3675
-29.6769 18.2814 -81.4757
-29.6958 18.2687 -81.7272
-29.6924 18.5333 -81.6011
-30.9188 18.8591 -81.5437
-30.9052 18.873 -81.412
-30.8431 18.9493 -81.5042
-30.9921 18.6468 -81.2688
-30.958 18.7683 -81.3319
-31.0143 18.6525 -81.3974
-30.7471 18.9633 -81.2258
-30.867 18.8756 -81.2722
-30.8073 18.8578 -81.1388
-30.9534 18.1052 -81.1557
-30.975 18.234 -81.1566
-30.9967 18.1381 -81.2335
-30.8823 18.4134 -80.9831
-30.9438 18.3271 -81.0653
-30.8682 18.2698 -80.9771
-31.0322 18.397 -81.2892
-31.0013 18.371 -81.173
-31.0068 18.5045 -81.212
-30.4192 18.6816 -80.8216
-30.5477 18.6461 -80.8314
-30.4539 18.5602 -80.7846
-30.7259 18.8066 -81.0071
-30.641 18.7346 -80.9076
-30.5901 18.8662 -80.9769
-30.6899 18.4309 -80.8379
-30.6747 18.5843 -80.8604
-30.7852 18.5068 -80.9086
-30.9479 18.6185 -81.1344
-30.8766 18.5702 -81.0097
-30.8509 18.724 -81.0628
-30.7364 19.0332 -81.4826
-30.7833 18.9933 -81.6102
-30.61 19.0259 -81.1992
-30.6776 19.0452 -81.338
-30.5186 19.1188 -81.6124
-30.5993 19.0994 -81.4721
-30.4467 19.1357 -81.4701
-30.2956 18.6818 -80.8211
-30.358 18.7945 -80.8767
-30.1964 18.9714 -81.0616
-30.2791 18.896 -80.9585
-30.1292 18.8641 -80.975
-30.4388 18.8967 -80.9592
-30.5235 18.9725 -81.0628
-29.9398 18.992 -81.6106
-29.9865 19.032 -81.4828
-29.8805 18.9491 -81.5048
-30.2745 19.1354 -81.4699
-30.1227 19.0985 -81.4723
-30.2032 19.1181 -81.612
-29.9752 18.9606 -81.2246
-30.0449 19.0441 -81.3378
-30.1115 19.0247 -81.1984
-30.4469 19.0604 -81.1804
-30.2736 19.06 -81.1801
-30.3604 19.1172 -81.3214
-30.7222 19.0067 -81.7355
-30.8264 18.9296 -81.7104
-30.4445 19.103 -81.7514
-30.5906 19.0683 -81.7479
-30.7071 18.8887 -81.9632
-30.6552 18.9893 -81.8674
-30.585 18.9438 -81.9878
-29.8967 18.9275 -81.7113
-30 19.0049 -81.7356
-30.1369 18.9429 -81.9882
-30.0669 18.9877 -81.8678
-30.0153 18.8863 -81.963
-30.1314 19.0676 -81.7479
-30.2774 19.1028 -81.7514
-30.41 18.5562 -82.2915
-30.3608 18.6704 -82.248
-30.3123 18.5568 -82.2915
-30.5029 18.8666 -82.1015
-30.4279 18.776 -82.1835
-30.5544 18.7511 -82.1692
-30.1675 18.7508 -82.1685
-30.2934 18.776 -82.1833
-30.2187 18.8666 -82.101
-30.3609 19.0544 -81.8856
-30.2828 18.9729 -82.0054
-30.4387 18.9731 -82.0052
-30.8699 18.8361 -81.7935
-30.9067 18.8477 -81.6661
-30.7476 18.773 -82.0352
-30.814 18.8133 -81.9207
-30.9646 18.6191 -81.7974
-30.9008 18.7193 -81.8628
-30.9093 18.5913 -81.9143
-30.4339 18.4318 -82.3177
-30.5088 18.5238 -82.2818
-30.6963 18.4107 -82.2298
-30.6048 18.4709 -82.2567
-30.6097 18.3238 -82.2878
-30.5887 18.6194 -82.2226
-30.666 18.7022 -82.1438
-30.9434 18.0932 -81.9937
-30.9019 18.1787 -82.0528
-30.8927 18.0472 -82.0775
-30.9117 18.4482 -81.9671
-30.9088 18.3161 -82.0131
-30.9614 18.3567 -81.9031
-30.7721 18.1913 -82.2012
-30.846 18.2599 -82.116
-30.7814 18.334 -82.1763
-30.771 18.6351 -82.0976
-30.7818 18.4856 -82.1446
-30.8548 18.5471 -82.0362
-30.9709 18.7569 -81.6016
-31.01 18.5197 -81.7296
-31.0011 18.6404 -81.6674
-31.0165 18.6506 -81.5307
-31.0407 18.5384 -81.4655
-30.9663 17.9958 -81.9452
-30.9889 18.1189 -81.8939
-31.0502 18.1391 -81.6667
-31.0268 18.1335 -81.781
-31.0361 18.01 -81.7235
-31.0008 18.2516 -81.8417
-31.0029 18.3802 -81.7896
-31.0291 18.1485 -81.3266
-31.0101 18.0329 -81.2939
-31.0408 18.4046 -81.406
-31.0401 18.278 -81.3627
-31.0516 18.0188 -81.4948
-31.0495 18.1481 -81.4322
-31.0574 18.1433 -81.5413
-31.0322 18.4008 -81.6638
-31.0505 18.2739 -81.6007
-31.0436 18.409 -81.5324
-29.8186 18.8722 -81.4114
-29.8048 18.858 -81.5458
-29.9164 18.8545 -81.1363
-29.8573 18.8732 -81.2701
-29.71 18.6498 -81.3972
-29.7668 18.7662 -81.3299
-29.7336 18.6448 -81.2662
-30.2612 18.5612 -80.7845
-30.1692 18.6471 -80.8312
-29.9392 18.5084 -80.9075
-30.0453 18.5852 -80.8596
-30.031 18.4357 -80.8374
-30.0787 18.7326 -80.9065
-29.9964 18.8032 -81.0053
-29.7333 18.1448 -81.2311
-29.7533 18.237 -81.1544
-29.7773 18.1107 -81.1526
-29.7205 18.5026 -81.2101
-29.7262 18.3715 -81.1714
-29.693 18.3971 -81.2881
-29.8585 18.2721 -80.9765
-29.7858 18.327 -81.0653
-29.8456 18.4143 -80.9831
-29.8745 18.7212 -81.06
-29.8507 18.5693 -81.0079
-29.7795 18.6163 -81.1317
-30.4672 18.423 -80.7625
-30.3576 18.4889 -80.7628
-30.6868 18.2839 -80.8364
-30.5821 18.3535 -80.7877
-30.3599 18.2011 -80.7641
-30.4686 18.2763 -80.7619
-30.4639 18.1333 -80.7838
-30.94 17.9796 -81.1733
-30.8958 18.0472 -81.0884
-30.7381 17.8957 -80.9918
-30.822 17.9733 -81.0315
-30.8019 17.8171 -81.0732
-30.8472 18.1241 -80.9951
-30.7822 18.2015 -80.9122
-30.3626 17.6123 -80.9808
-30.4487 17.6776 -80.9606
-30.4364 17.5343 -81.0151
-30.4583 17.9778 -80.8364
-30.4545 17.8324 -80.8985
-30.3614 17.9103 -80.8551
-30.622 17.6564 -81.0193
-30.5434 17.7447 -80.9549
-30.6373 17.8135 -80.9649
-30.6775 18.13 -80.8615
-30.6566 17.9745 -80.9129
-30.5651 18.054 -80.8362
-31.0102 17.9102 -81.3484
-30.9792 17.9338 -81.2562
-31.0377 17.8897 -81.5515
-31.0317 17.8967 -81.4489
-30.9391 17.6488 -81.3611
-30.9937 17.7709 -81.4036
-30.958 17.626 -81.4615
-30.9311 17.8893 -81.9989
-30.9731 17.8769 -81.9016
-30.9379 17.6009 -81.8035
-30.9635 17.7398 -81.8543
-30.9097 17.618 -81.9117
-31.0075 17.8763 -81.7885
-31.0289 17.8825 -81.6731
-30.7665 17.1592 -81.6045
-30.8131 17.2486 -81.647
-30.7571 17.1675 -81.6878
-30.9119 17.4723 -81.5305
-30.8651 17.3522 -81.5924
-30.8601 17.3659 -81.4875
-30.8382 17.3604 -81.7926
-30.8569 17.3502 -81.6949
-30.8974 17.4606 -81.7454
-31.0052 17.7448 -81.6202
-30.9553 17.5929 -81.6889
-30.9629 17.6031 -81.5733
-30.8333 17.979 -82.1542
-30.8859 17.9229 -82.0805
-30.6937 18.1135 -82.2729
-30.7674 18.0465 -82.2203
-30.7557 17.7583 -82.2108
-30.7617 17.9001 -82.2236
-30.6894 17.8242 -82.2832
-30.3627 18.3584 -82.3432
-30.4418 18.2974 -82.3538
-30.4425 18.0332 -82.4133
-30.4437 18.161 -82.3945
-30.3659 18.0934 -82.4164
-30.5245 18.2386 -82.3436
-30.6057 18.1815 -82.3166
-30.4348 17.5075 -82.332
-30.4452 17.629 -82.3706
[...]
POINT_DATA 642
SCALARS Mean_Curvature double 1
LOOKUP_TABLE default
2.71638
2.80187
4.61624
2.81255
2.04295
2.27064
4.38239
1.14273
1.80995
1.63889
1.91195
2.19483
0.646641
2.56849
2.79648
2.8036
2.5955
2.83604
2.8155
1.8689
1.36183
1.82514
2.8439
0.636134
1.64984
2.93619
1.82922
1.88164
3.96991
2.29371
1.36272
1.7413
2.10445
1.79438
1.45152
1.69544
3.42338
1.84117
1.8448
2.03582
1.75265
1.939
2.96189
2.93409
2.71924
1.25304
2.90332
1.67569
2.56679
2.46107
2.43303
2.52279
2.53432
2.67152
2.69465
2.43275
2.59512
2.66686
2.68823
2.88678
2.86328
2.69885
2.56441
2.66408
2.52218
2.93316
2.35865
1.80167
1.01176
1.67108
1.75414
1.89604
1.13496
1.58691
1.81397
1.55751
2.17045
2.86984
2.91832
2.51957
2.59783
1.61857
2.10539
1.30017
2.94006
2.72637
1.81643
1.48266
1.80372
1.84823
1.88668
1.81984
2.14507
1.69635
1.59732
2.10843
1.7407
2.51657
1.97683
1.82799
4.66291
2.0211
3.14198
2.02318
1.96296
1.1711
2.06378
2.69713
2.83311
1.79321
1.68777
1.74754
1.96437
3.35531
3.66282
1.79372
1.83184
1.95866
1.94674
2.2331
1.87826
4.54851
5.13583
1.95086
1.4756
4.59225
4.38469
3.82344
3.36469
2.62673
2.95606
3.44871
2.73366
1.81027
2.61177
1.76747
2.17309
4.20281
2.08496
1.88063
1.96129
1.77295
1.97461
1.68202
1.59793
2.01009
1.89049
1.81147
1.53492
2.79947
3.00612
2.25925
1.78937
2.18033
1.95402
1.90782
1.8542
2.09347
1.93579
1.59293
1.91173
1.19491
2.78205
2.84964
2.58526
2.70054
2.99042
2.80455
2.79547
2.86946
2.84517
1.53555
1.56678
1.5548
2.43173
2.90948
2.50074
1.03366
2.35805
2.60552
2.4382
2.40318
2.34325
2.73854
2.54866
2.68363
2.11475
2.37715
2.56904
2.83574
2.7176
2.82096
2.58142
2.68964
2.68285
2.58808
2.54314
2.51338
2.58023
2.63564
2.63126
2.77147
2.76188
2.80187
2.73761
2.73524
2.69389
2.55358
2.74845
2.59469
2.52338
2.54622
2.72893
2.58277
2.67085
2.64666
2.64825
2.57009
2.7694
2.78897
2.56402
2.55239
2.93256
2.8225
2.81431
2.82841
2.73595
2.91197
2.82719
2.97294
2.59748
2.56035
3.13511
2.39632
3.06449
2.72628
2.1646
2.30008
2.35599
2.17022
2.80447
2.65829
2.81563
2.79072
2.44103
2.70566
2.97424
2.79361
0.841756
1.40655
1.09026
1.40026
1.25521
1.72856
1.2097
1.88069
2.7169
2.66407
1.86168
1.68289
1.82377
1.49673
1.63012
1.62887
1.73816
1.94981
1.9164
2.25377
1.56657
1.3005
2.89431
1.39993
2.51794
1.09964
0.920276
1.83591
1.64091
1.84667
1.77106
1.65889
1.72316
1.63217
1.73086
2.02487
1.26276
1.5092
1.91889
1.70531
1.71707
1.5669
1.6382
1.40928
2.84935
2.80733
2.81174
2.76054
2.77297
2.87693
2.91094
2.53192
2.61793
2.74069
2.58577
2.76538
2.60084
2.69329
1.71278
1.40981
1.76151
2.7952
3.43427
1.04159
2.48843
0.698008
2.57713
2.83065
2.77199
2.84302
2.66728
2.52195
2.23921
2.22988
0.864313
3.13047
2.34883
1.67136
1.59752
1.80232
1.67284
1.91059
1.31623
0.789329
1.72183
1.62919
1.96846
1.32415
1.89052
1.69117
1.70551
1.64712
1.69657
1.0484
1.72077
1.20915
2.10985
2.50582
1.88155
2.17108
1.94534
2.18057
1.65101
1.80054
1.73688
1.6636
1.65789
1.84382
1.61474
1.52716
3.21712
2.42141
2.87544
1.84918
2.06461
2.00845
1.65756
2.14231
1.66589
1.60609
1.58917
1.60578
1.96007
1.84286
1.77503
1.87649
1.8704
1.85598
2.07898
1.45077
2.13294
3.7498
2.04093
4.59146
1.97332
1.71477
4.12852
1.91189
1.55434
1.98829
2.08745
1.92903
3.16416
1.99766
3.36669
1.85327
2.58467
1.96643
2.29602
1.32093
2.61478
2.69136
1.71424
1.64168
1.60563
2.80075
2.65817
1.21172
0.727448
0.972172
2.87772
2.79988
1.83075
1.71677
1.77582
1.83901
1.85799
1.69564
1.60547
1.68003
1.55695
2.25057
1.23487
1.86113
1.9258
2.45178
4.31407
2.18681
1.97219
1.99436
3.79921
3.11077
3.5455
1.69877
1.72816
1.91627
1.66501
1.7665
1.80676
1.58701
1.60073
2.11656
2.0998
2.21313
1.96919
1.64299
1.91195
1.81981
1.71491
2.41659
2.16748
2.26267
2.48997
2.79743
4.57614
4.47928
3.97477
4.08545
4.185
4.98682
4.15234
2.08975
1.91537
1.55942
1.76035
1.83042
1.76207
1.3982
5.38726
4.83214
4.43383
4.09002
4.73138
3.64635
4.01473
4.67667
3.92897
4.03348
4.14707
4.35273
4.0654
2.52497
4.45267
4.54157
2.16916
3.06223
2.57928
3.86143
4.9298
2.70393
3.8323
2.67594
4.11076
4.35442
4.82019
2.64292
4.85486
1.87308
2.35186
2.34177
2.09653
2.33763
1.85591
3.45448
2.61197
2.63833
2.28088
2.33991
1.72283
1.93537
1.67052
1.78832
1.81824
4.02377
4.19616
1.98231
2.13751
1.82774
2.32576
2.17588
1.83011
1.83804
1.8421
2.00873
1.9859
1.86259
1.81779
1.88587
1.93669
2.18755
2.02138
2.05655
2.34798
1.57914
2.11983
2.12206
2.02901
1.82773
1.74891
1.70608
1.59688
1.57724
1.63877
1.6758
2.20263
2.16848
1.59168
2.10071
1.9418
2.0066
2.16948
1.59674
1.73021
1.56107
1.64957
1.8041
1.70515
1.79799
1.30705
1.76312
0.901012
1.54444
1.75806
1.84198
2.69355
2.54692
2.49427
2.1994
2.41693
1.64038
1.159
1.21695
1.44618
1.77755
2.48584
1.90001
2.09725
2.20851
2.01103
2.34588
1.89279
1.6525
1.89864
1.94525
1.92784
1.70965
1.55101
3.77589
2.34067
2.51714
4.66066
2.13066
2.25585
4.21538
1.95793
2.71409
1.98778
1.83935
2.19936
1.90779
1.89191
1.98576
1.84502
1.94736
1.9812
2.10859
1.95494
1.94043
1.87386
1.88852
1.87102
1.824
1.70761
1.89385
2.21224
2.00291
1.95193
2.17075
2.00027
1.69776
1.83167
2.4323
4.47274
1.95805
2.45831
1.82267
1.65928
1.80763
1.72793
1.54695
1.28124
1.7435
1.7665
1.67628
1.64143
1.86484
2.94894
0.894502
2.27254
1.16328
1.41911
1.73949
1.64269
1.43747
SCALARS CoVolArea double 1
LOOKUP_TABLE default
0.00970358
0.00973304
0.00575647
0.0054796
0.00828061
0.00971705
0.00653394
0.00760352
0.00807975
0.00766161
0.00823063
0.00770584
0.0167307
0.0186027
0.0225415
0.0224619
0.0242345
0.018636
0.018726
0.0163513
0.016529
0.0167837
0.0180959
0.0168125
0.0182722
0.0165967
0.0162742
0.0166805
0.0113357
0.0152328
0.0158995
0.0159945
0.0160216
0.0177336
0.0147734
0.0139925
0.012647
0.0138868
0.0141411
0.0152592
0.0166967
0.0165232
0.0170184
0.0209676
0.0200623
0.0151238
0.0189495
0.0146112
0.0201427
0.0218731
0.0183682
0.0250886
0.0208667
0.0197779
0.0241037
0.0207961
0.0250329
0.0201132
0.0222457
0.0180391
0.0179796
0.0222671
0.0156264
0.0201965
0.0155336
0.0181256
0.0166251
0.0142346
0.017306
0.0153928
0.0169737
0.0152136
0.0168947
0.0163595
0.0172468
0.0167746
0.0142343
0.0208877
0.0174956
0.0178542
0.0210825
0.0142644
0.0185788
0.0145855
0.0181919
0.0166805
0.0160043
0.017775
0.016177
0.0180855
0.0161093
0.0175094
0.0155393
0.0163483
0.0192324
0.0128183
0.0161503
0.0114729
0.0158599
0.0150857
0.0124826
0.0137721
0.0127606
0.0133923
0.0116874
0.0169744
0.0141117
0.016348
0.0176466
0.0149908
0.0164569
0.0148592
0.0126785
0.0164601
0.0121316
0.0155378
0.0173498
0.0155062
0.0149496
0.0174206
0.0158867
0.0128667
0.0107256
0.014825
0.0139722
0.0107745
0.0120611
0.0117434
0.0130661
0.0104457
0.0105166
0.0130713
0.0138011
0.015505
0.0140309
0.0152978
0.0114245
0.0125206
0.0161294
0.0158273
0.0173364
0.0150853
0.0162644
0.0156804
0.0185009
0.0173136
0.0145984
0.0180553
0.0172419
0.0180327
0.0164648
0.0178127
0.0180515
0.0164332
0.0148357
0.0174292
0.0160921
0.0136605
0.0140256
0.0162819
0.0164674
0.0166216
0.0144429
0.018031
0.0156478
0.0188614
0.0184682
0.0168598
0.0214333
0.0201092
0.0221634
0.0119305
0.0144915
0.0117146
0.0190996
0.0165288
0.0166841
0.0155288
0.0160975
0.017945
0.0156766
0.0188332
0.0149841
0.0224559
0.0208245
0.0215107
0.0187287
0.0198943
0.0204219
0.0214862
0.0221277
0.0232598
0.0201908
0.0159377
0.0237617
0.0221612
0.0228691
0.0228247
0.0251044
0.0154894
0.0195857
0.0235334
0.021602
0.0212499
0.0216863
0.023557
0.0158266
0.0201022
0.0157226
0.0250428
0.0227466
0.0228417
0.0214654
0.0222072
0.0238309
0.0266068
0.0265718
0.0273309
0.0188306
0.0149401
0.0237127
0.0213323
0.018401
0.0196277
0.0204286
0.0148672
0.0188546
0.0203892
0.0196933
0.0183484
0.0213989
0.0237266
0.0122096
0.0153324
0.0121666
0.0197046
0.0173743
0.0171193
0.017033
0.0173513
0.0196357
0.0243389
0.0228273
0.0228753
0.0169686
0.0142586
0.0185174
0.0177173
0.0163817
0.0170435
0.0172703
0.011563
0.014505
0.0167522
0.0155134
0.015222
0.0161253
0.0179496
0.0126703
0.014901
0.0124733
0.0167922
0.0157509
0.0157799
0.0158097
0.0157646
0.0168402
0.0190735
0.0183869
0.0185584
0.0162713
0.0168504
0.016412
0.0164183
0.0166626
0.0130328
0.0154209
0.0173311
0.0164541
0.016891
0.0160365
0.0167734
0.0140308
0.0116874
0.0162986
0.0151863
0.0151361
0.0152017
0.0168365
0.0181009
0.0183995
0.0179003
0.0183619
0.0147637
0.0219488
0.0201609
0.0172229
0.0187779
0.019006
0.0147477
0.0182815
0.0196238
0.0190511
0.0181324
0.0201778
0.021983
0.0115182
0.014085
0.0116484
0.0178341
0.0157249
0.0152968
0.0161268
0.0159882
0.0185654
0.0227787
0.0215651
0.0212944
0.016979
0.0143546
0.0185945
0.0178767
0.0162488
0.0169234
0.0172266
0.0123931
0.0148414
0.0182681
0.0165337
0.0173122
0.0160616
0.0178229
0.0131273
0.0158901
0.012903
0.0172173
0.0167136
0.016261
0.0171908
0.017128
0.0184645
0.0193027
0.0193951
0.0189978
0.0142732
0.0122219
0.0169574
0.0151122
0.0164623
0.0159326
0.0174989
0.0129655
0.0162041
0.018062
0.0177434
0.017032
0.0177243
0.0182839
0.00950706
0.0116279
0.0089444
0.0165803
0.0138056
0.0148051
0.0133686
0.0131242
0.0159193
0.0197576
0.0192612
0.019061
0.0148008
0.0125303
0.0162244
0.0156126
0.0152102
0.0153663
0.015557
0.0110794
0.0129916
0.0121173
0.01252
0.0115966
0.0139673
0.0155451
0.010137
0.0118192
0.00984051
0.0146294
0.0129287
0.0138815
0.0112529
0.011963
0.0119454
0.0158194
0.0140002
0.015558
0.0143831
0.0115269
0.0177192
0.0159486
0.0149473
0.0152637
0.0163169
0.0142701
0.0167413
0.0166806
0.0165775
0.0157884
0.0174562
0.0182553
0.012293
0.0145015
0.012307
0.0163362
0.0153177
0.0155146
0.0152283
0.0152476
0.0162466
0.018636
0.018031
0.0178992
0.00921149
0.0121213
0.00912398
0.0162095
0.0143233
0.0145178
0.0134095
0.0139546
0.0158481
0.01218
0.0152968
0.0123132
0.0176834
0.0165744
0.0167351
0.0159453
0.0162394
0.0166649
0.0125331
0.0151122
0.0128144
0.0165405
0.0159276
0.0148594
0.0168232
0.0163082
0.0175746
0.0181986
0.0186481
0.0183226
0.0109275
0.00846609
0.0137394
0.0123148
0.0117617
0.0116892
0.0123909
0.0125533
0.0143668
0.013669
0.0140345
0.0143986
0.0142875
0.0143526
0.00874071
0.0106958
0.00925455
0.0120601
0.0111356
0.0116616
0.0126909
0.011517
0.0128193
0.0143253
0.0138308
0.0132241
0.0100608
0.00821952
0.0130949
0.0113864
0.0119241
0.0112283
0.0132655
0.00855938
0.0102799
0.0131563
0.0112186
0.0117014
0.0114555
0.0131099
0.0106195
0.0136271
0.0107287
0.0149121
0.0148591
0.0145986
0.0146544
0.0149129
0.0148397
0.0146528
0.0152735
0.0152822
0.0103813
0.00859326
0.0145603
0.0119885
0.0137902
0.0126097
0.0159896
0.0099888
0.0126848
0.0156013
0.0138976
0.013736
0.014427
0.0156908
0.0126417
0.014982
0.0124042
0.0174587
0.0162845
0.0168067
0.015306
0.0157328
0.0163187
0.0176532
0.0180615
0.0183688
0.0114035
0.0163842
0.0132934
0.0137308
0.0162093
0.0126191
0.0155799
0.0175297
0.0168908
0.0161821
0.0170893
0.0180512
0.0146057
0.0118053
0.0169813
0.0159349
0.0154832
0.0155433
0.0168918
0.0191539
0.0191233
0.0186764
0.0158117
0.0181513
0.0169735
0.0167209
0.0172921
0.0143414
0.0173165
0.0154569
0.0159357
0.0177513
0.0168581
0.0172246
0.0168844
0.0176309
0.0182893
0.0191213
0.018994
0.0189826
0.0120653
0.0153579
0.0135531
0.0142958
0.0166607
0.0152565
0.0181269
0.0166502
0.0159701
0.0162959
0.0154919
0.0173984
0.0167174
0.0170923
0.0183315
0.0185702
0.0193191
0.0188213
0.013028
0.0156443
0.0147877
0.014333
0.0158468
0.0105149
0.0154954
0.0123245
0.0117508
0.014169
0.0152185
0.0163563
0.0157887
0.016559
0.0173601
0.017479
0.0181488
0.0181788
0.0147633
0.0157423
0.0154866
0.0156131
0.0162228
0.0117496
0.0121566
0.0120654
0.0129431
0.0147689
0.0129932
0.0155333
0.0139676
0.0126224
0.0123372
0.015907
0.014384
0.0161334
0.0138839
0.0165334
0.0151214
0.0147932
0.0160393
0.0148102
0.0161049
0.0153912
0.0157067
0.0166445
0.0164541
0.0167156
0.016664
0.0161451
0.0162182
0.0176675
0.017428
0.017463
SCALARS SignedDistance double 1
LOOKUP_TABLE default
1.02298
1.02541
1.01977
1.00121
1.01628
1.00676
1.0799
1.02689
1.05017
1.06523
1.04383
1.04145
1.03507
1.01526
1.04431
1.05018
1.03319
1.03252
1.03116
1.05718
1.00016
1.09863
1.02954
1.04334
1.08375
1.00697
1.09978
1.09161
1.00036
1.00013
1.0332
1.05532
1.10249
1.04501
1.00298
1.00111
1.20026
1.09243
1.10508
1.02521
1.13255
1.09902
1.05994
1.0262
1.04792
1.00462
1.02336
1.0033
1.03199
1.00481
1.00007
1.07085
1.05556
1.06088
1.06139
1.04953
1.06666
1.0323
1.04254
1.03753
1.03726
1.04424
1.0062
1.02832
1.00597
1.01172
1.00301
1.01604
1.00589
1.0697
1.01573
1.02426
1.02456
1.12857
1.01736
1.02043
1.01198
1.02826
1.05325
1.01694
1.01357
1.00196
1.00321
1.00278
1.0002
1.05718
1.03121
1.00326
1.04518
1.00761
1.03678
1.11462
1.01222
1.09733
1.12587
1.00259
1.13001
1.07763
1.01981
1.02587
1.00683
1.01499
1.00633
1.00968
1.02679
1.01385
1.01732
1.00231
1.00943
1.02961
1.00812
1.05866
1.00799
1.00819
1.00988
1.03584
1.13188
1.09503
1.01588
1.01266
1.03648
1.07488
1.06706
1.01466
1.01442
1.10309
1.08019
1.0172
1.01009
1.057
1.01749
1.02409
1.00093
1.10333
1.01526
1.12008
1.08678
1.01074
1.00266
1.10325
1.0205
1.05613
1.1323
1.11644
1.13914
1.08209
1.00034
1.00522
1.0022
1.00176
1.00763
1.00008
1.12223
1.00016
1.08901
1.01306
1.02431
1.0001
1.01104
1.00863
1.0519
1.01727
1.00858
1.05855
1.01332
1.06028
1.06614
1.04841
1.04716
1.04028
1.04182
1.03864
1.00131
1.02237
1.0156
1.01677
1.00318
1.02389
1.02716
1.03148
1.02168
1.02573
1.02498
1.00634
1.02205
1.03523
1.02969
1.01986
1.02277
1.03107
1.0271
1.03002
1.03009
1.02406
1.06299
1.05767
1.05123
1.06171
1.03464
1.02056
1.06012
1.06063
1.05323
1.04138
1.05356
1.06908
1.02683
1.03398
1.01539
1.03491
1.06347
1.05143
1.05036
1.04143
1.04749
1.08478
1.08389
1.05307
1.01897
1.03436
1.06305
1.06326
1.0259
1.02986
1.04209
1.03901
1.01975
1.01701
1.02291
1.02917
1.04224
1.06202
1.02369
1.00161
1.0232
1.03463
1.02728
1.02825
1.02914
1.02729
1.0359
1.0629
1.03511
1.03597
1.02141
1.01134
1.01934
1.02712
1.00265
1.01628
1.00278
1.00795
1.00021
1
1.00254
1.062
1.00195
1.01596
1.06031
1.05321
1.02508
1.00985
1.03468
1.04733
1.04712
1.02003
1
1.0039
1.00009
1.00293
1.03078
1.00296
1.01372
1.04651
1.02489
1.08717
1.10632
1.06212
1.10275
1.129
1.07664
1.02982
1.01534
1.00216
1.00485
1.00356
1.03963
1.0242
1.04305
1.003
1.0226
1.00269
1.02458
1.02386
1.04678
1.04307
1.05302
1.04846
1.04502
1.04118
1.03378
1.02335
1.02923
1.03089
1.05636
1.03978
1.03197
1.00063
1.03199
1.03588
1.00578
1.03087
1.00488
1.00117
1.02081
1.03299
1.03218
1.01735
1.039
1.02928
1.01679
1.02886
1.02483
1.02603
1.00393
1.04695
1.00738
1.02525
1.00212
1.06683
1.00055
1.00037
1.0679
1.072
1.0304
1.00827
1.04838
1.00194
1.07851
1.06067
1.0592
1.00462
1.00011
1.00382
1
1.02809
1.12234
1.05584
1.11111
1.05137
1.13064
1.06193
1.0958
1.12838
1.10122
1.10062
1.13288
1.14938
1.00842
1.00016
1.00285
1.10843
1.05832
1.04426
1.12661
1.11276
1.10726
1.13084
1.13785
1.13327
1.01145
1.04174
1.0268
1.02643
1.0149
1.03122
1.0004
1.00289
1.00996
1
1.00089
1.03137
1.03952
1.07168
1.06005
1.02711
1.05697
1.00173
1.00112
1
1.00145
1.01658
1.00089
1.03941
1.01551
1.00572
1.00023
1.00888
1.01829
1.00141
1.0724
1
1.01565
1.01637
1.02447
1.00312
1.02128
1.00255
1.03215
1.02235
1.05018
1.0468
1.04848
1.00295
1.03091
1.04847
1.05316
1.02082
1.00152
1.00361
1.00002
1.00124
1.00705
1.00934
1.02263
1.00768
1.02545
1.02873
1.00871
1.00118
1.00531
1.03287
1.08137
1.07578
1.11742
1.10112
1.06453
1.15501
1.1511
1.11382
1.02372
1.01781
1.03067
1.00634
1.00925
1.01023
1.06328
1.0038
1.0541
1.0337
1.04721
1.02556
1.04187
1.03437
1.03095
1.0259
1.13591
1.0886
1.15149
1.02402
1.01205
1.01028
1.00177
1.00641
1.00296
1.01213
1.04323
1.0568
1.0074
1.16684
1.11939
1.17814
1.02769
1.05199
1.00015
1.02453
1.01914
1.08091
1.00248
1.00075
1.10095
1.02877
1.09152
1.02123
1.06095
1.00022
1.03479
1.05184
1.0059
1.0825
1.07302
1.1239
1.07094
1.03141
1.07257
1.09586
1.04427
1.02646
1.03553
1.04674
1.09461
1.02967
1.06323
1.06146
1.06167
1.01976
1.11925
1.10051
1.145
1.12598
1.12237
1.05979
1.02599
1.00489
1.00128
1.00052
1.00501
1.05707
1.08304
1.05275
1.05538
1.07442
1.04111
1.08576
1.04615
1.03407
1.02137
1.05544
1.00906
1.04105
1.02796
1.15502
1.10262
1.03779
1.09251
1.07339
1.12054
1.12763
1.124
1.1367
1.14088
1.12012
1.02037
1.0309
1.16376
1.07324
1.01652
1.00001
1.05168
1.1403
1.1154
1.16251
1.07025
1.02145
1.03522
1.01891
1.00138
1.02848
1.00318
1.00071
1.00185
1.01764
1.03089
1.00351
1.01358
1.01334
1.01827
1.00046
1.00634
1.00549
1.00387
1.00564
1.00908
1.0157
1.02112
1.01587
1.07045
1.01521
1.00309
1.00071
1.06598
1.10097
1.1058
1.09198
1.11521
1.02042
1.04691
1.00972
1.04285
1.03753
1.00205
1.0264
1.01132
1.04548
1.08249
1.12447
1.10282
1.10029
1.06433
1.00107
1.03429
1.05688
1.03587
1.0075
1.01958
1.00063
1.01981
1.01137
1.04257
1.02475
1.05784
1.03738
1.00051
1.01472
1.00118
1.00018
1.00562
1.06477
1.03228
1.00349
1.00056
1.02996
1.01004
1.03328
1.01464
1.04224
1.01036
1.00271
1.01437
1.09584
1.02581
1.08658
1.11965
1.08359
1.03734
1.03169
1.04618
1.00227
1.00734
1.01098
1
1.00603
