# vtk DataFile Version 4.2
vtk output
ASCII
DATASET POLYDATA
POINTS 642 double
-57.0316 142.587 89.3037
115.357 143.223 87.0603
-49.6727 -187.5 78.8966
109.205 -187.23 79.1858
30.6792 -105.443 200.151
32.3043 89.6076 228.27
30.4994 -107.062 -50.7641
31.3745 72.6954 -42.2552
134.652 -11.1608 12.369
146.743 3.76642 164.174
-75.1623 -14.2839 8.53355
-90.3814 1.58875 160.11
-97.9689 84.7003 138.702
-48.6464 46.1954 217.285
-22.4944 145.076 177.04
84.0937 143.522 177.215
30.5445 176.329 88.9938
79.704 132.463 5.23278
-19.0551 133.275 5.33621
-34.0668 38.9591 -31.9125
-83.9371 79.9815 44.0891
-102.978 -8.96138 104.97
108.669 47.2131 218.557
158.149 81.7371 138.07
-31.7277 -63.1347 192.078
28.5308 5.31238 242.501
-63.643 -123.531 51.3586
-73.6033 -110.154 126.44
27.9981 -18.1158 -80.8662
-30.0381 -75.7931 -38.1543
144.433 81.8927 45.5722
93.3068 43.3795 -30.997
134.322 -106.282 128.157
92.3892 -63.2584 193.249
70.2514 -179.955 149.187
-10.1993 -185.859 149.772
29.6895 -212.928 91.3005
-19.3509 -181.156 20.3788
74.4431 -177.253 20.9947
86.3725 -75.5777 -35.728
117.063 -111.043 49.0441
161.191 -9.33175 95.2875
-85.2047 117.585 116.788
-70.192 117.494 159.801
-45.2534 150.241 134.722
-73.9744 25.1255 193.393
-79.4671 71.3436 180.353
-96.6236 41.3945 156.229
3.78971 122.131 209.61
-39.9408 101.222 201.755
-8.77401 70.7758 228.72
0.961113 168.345 139.108
-18.0647 166.061 85.722
58.942 120.746 211.361
29.4639 154.566 182.654
79.0762 166.165 87.1233
60.08 168.485 138.249
104.107 150.456 135.074
1.14472 163.143 40.368
-40.1865 146.179 43.9579
101.622 144.628 43.8548
58.3438 163.038 39.9779
4.51009 108.952 -22.833
30.4698 140.061 2.17645
56.4487 108.467 -23.2209
-58.5983 112.108 19.2731
-77.0849 114.675 64.9191
-1.32157 58.6354 -43.6015
-31.4102 93.1875 -17.948
-80.3961 38.3837 25.524
-62.8806 67.0213 1.4651
-58.3747 13.8527 -12.3779
-98.4108 87.2945 93.927
-87.4032 -4.70887 49.69
-98.2316 44.0446 68.1969
-99.7883 46.0055 119.225
-107.507 -10.9162 126.669
128.445 117.154 161.516
142.786 114.722 117.375
71.8745 73.3649 229.644
100.685 101.423 205.268
155.987 43.1386 154.736
138.416 69.7571 181.849
132.517 26.2179 195.341
-6.50228 22.4135 240.847
30.9099 39.2698 244.694
-67.099 -23.538 183.593
-44.1714 4.85856 216.017
29.7261 -45.8219 222.616
-3.71163 -20.6182 228.195
-5.89948 -91.923 202.691
-96.3304 -46.8752 117.113
-90.1753 -45.5293 142.375
-72.135 -57.7587 18.1305
-80.8155 -61.4971 69.7746
-60.404 -159.508 97.5628
-75.4722 -125.855 80.7048
-63.0467 -162.128 61.2947
-26.2167 -20.1923 -47.8456
-54.7107 -45.7723 -16.2767
29.6145 15.7254 -70.1749
6.06949 -4.5295 -70.432
-0.8356 -94.7735 -51.5293
4.7507 -35.2082 -68.6443
28.6934 -58.0456 -62.5445
92.1911 92.6272 -18.3395
63.531 60.343 -44.3817
138.227 113.932 62.4505
119.908 111.704 19.345
117.31 18.4695 -9.82896
122.696 67.3065 1.20112
140.842 38.5053 26.1577
116.582 -158.66 94.2465
106.055 -145.589 138.688
91.2031 -189.192 116.39
124.565 -21.356 186.114
119.352 -95.3404 163.191
142.416 -52.1485 140.572
52.6384 -146.47 172.439
89.126 -118.637 179.217
66.5713 -92.3413 202.286
51.9203 -210.177 125.582
79.571 -209.845 81.1841
6.66683 -152.028 168.519
25.071 -191.59 155.203
-18.4077 -209.971 84.4876
2.42447 -214.969 127.112
-33.1694 -193.421 120.38
60.1641 -206.135 44.1894
96.6155 -188.974 50.7598
-39.3803 -191.459 45.732
-3.73796 -206.917 43.2372
50.5935 -130.713 -31.2457
29.1926 -182.305 16.2311
8.36406 -131.598 -29.9018
100.16 -158.658 36.8806
115.439 -166.429 68.3047
58.1968 -96.2787 -51.0047
78.6384 -114.494 -25.8973
133.125 -57.3569 20.9828
111.537 -86.0226 -4.20504
113.381 -44.3106 -12.1288
132.484 -120.429 88.8829
147.805 -1.51753 51.6215
143.28 -52.5082 72.9333
153.681 -49.3329 110.325
160.669 -5.40494 127.061
65.3479 -22.5286 226.484
106.492 6.17934 216.12
68.381 25.9455 238.597
-45.433 -152.708 135.981
-28.7089 -120.903 177.591
-59.3968 -95.794 164.325
-22.3835 -115.703 -24.7899
-49.3628 -161.092 35.2229
-53.1066 -88.1582 -7.14258
84.7117 -18.8242 -44.6376
52.267 -35.8041 -66.1034
52.2325 -1.57726 -68.3555
160.87 47.3578 119.251
159.372 43.4916 70.1435
159.564 84.3955 89.9581
-72.8751 131.634 104.308
-68.387 134.795 126.273
-53.4417 146.862 111.644
-88.2628 100.468 148.839
-80.0491 118.327 138.369
-94.1101 101.497 128.279
-34.645 149.79 156.288
-58.6626 135.342 148.565
-47.2548 133.12 169.556
-84.2693 14.2448 177.985
-87.4958 32.5082 175.382
-94.8495 17.67 161.151
-64.4316 59.0009 200.334
-76.4243 47.0941 189.008
-62.3822 35.6316 207.125
-97.0253 67.103 147.279
-89.037 59.0173 167.364
-91.0984 79.5612 158.957
18.4678 105.888 221.885
-3.54282 99.0609 220.421
11.8912 81.4757 229.368
-32.1786 125.135 191.094
-18.3883 113.777 206.769
-9.41738 135.745 194.811
-29.5521 58.6023 224.218
-25.2462 87.4476 216.366
-45.433 73.9402 210.413
-77.5269 95.0176 171.18
-62.5987 86.1586 192.251
-56.6382 111.549 182.474
-31.8318 159.873 113.934
-39.2414 155.338 86.8312
-11.54 160.024 160.05
-22.6863 162.51 138.827
6.80641 171.883 87.6045
-7.2726 168.586 114.303
17.1692 175.054 112.289
44.9981 105.121 222.389
30.696 123.3 210.66
57.993 151.357 181.244
44.7008 139.596 196.622
71.597 133.676 195.98
15.5503 140.688 196.479
2.68448 152.466 181.558
99.3063 155.922 87.313
91.7482 160.427 113.599
110.368 147.448 111.081
43.9531 175.07 112.191
68.3411 168.615 114.138
53.9455 172.005 88.1995
95.2687 149.15 156.103
83.3311 162.582 138.189
72.733 159.667 159.095
14.824 165.446 164.174
45.0091 164.561 163.349
30.2368 169.481 138.386
-29.8083 159.371 61.8366
-48.7886 146.503 65.3568
15.3746 169.552 63.3762
-9.09009 167.444 61.2369
-30.6249 141.544 24.2186
-20.125 156.947 41.5393
-9.61974 150.406 22.0786
109.698 145.476 65.7086
90.4888 158.054 63.4406
69.4782 149.769 21.7547
80.0818 155.539 41.3378
91.6461 140.32 23.863
68.6707 166.569 62.3003
44.7902 169.694 63.5466
18.3416 91.6091 -32.4473
30.646 110.124 -22.7181
43.5571 91.1454 -32.7637
3.53608 138.897 2.14473
16.0082 125.907 -11.3374
-7.14047 121.977 -10.6162
67.7582 121.488 -10.7975
44.8166 125.845 -11.4245
56.8163 138.768 2.00374
30.3336 165.004 38.8511
44.5763 154.549 19.6559
15.9391 154.561 19.7636
-59.6871 131.977 51.0833
-67.8491 130.065 77.5779
-40.4589 124.309 11.2088
-51.0217 129.81 29.6212
-81.959 98.1329 53.9454
-68.0647 114.864 39.0663
-72.4094 97.1288 29.8731
14.0167 65.8921 -45.1501
-1.13789 86.5252 -32.19
-32.8982 69.2954 -23.9308
-18.0378 79.1435 -29.4124
-16.8583 50.0816 -38.8687
-14.7794 102.315 -21.4842
-26.484 113.733 -8.27955
-76.6448 9.05673 15.23
-71.0386 27.1877 3.14099
-68.7039 -1.98949 -2.12435
-74.2297 75.5557 20.3807
-72.5724 53.8783 12.4437
-83.3747 61.2398 35.3255
-48.7095 27.0617 -23.5009
-61.8226 41.2105 -7.16588
-50.1262 54.3162 -15.7127
-45.9327 103.643 -0.946818
-48.6197 81.4828 -9.05468
-62.1625 90.5423 9.03992
-84.4353 116.6 93.2244
-94.0185 83.5613 69.7286
-91.1548 100.176 81.1506
-94.8049 102.044 106.105
-98.8288 87.7939 117.896
-81.358 -11.6564 23.1535
-85.9495 16.5574 38.8611
-100.767 16.5643 81.2096
-96.7949 20.4999 62.5235
-97.6516 -2.35487 77.5239
-91.6854 43.0912 50.3275
-93.8143 63.0923 58.2787
-99.3662 13.8782 143.036
-100.577 -5.34436 143.663
-99.3746 70.4738 130.014
-99.593 45.8153 138.494
-107.544 -11.8542 119.394
-103.676 7.01083 125.838
-101.708 6.86179 108.973
-99.3669 68.2116 79.8675
-100.046 45.9552 90.3889
-99.4564 72.1245 105.856
124.759 133.643 127.873
129.018 130.183 101.999
107.961 132.317 170.976
117.584 135.009 150.128
152.95 98.6163 129.053
137.679 116.852 140.259
146.137 99.2641 149.353
52.6328 82.3076 230.897
67.6899 98.3906 222.627
104.694 76.0839 212.569
87.4433 88.895 219.626
90.4665 61.4124 225.333
81.5552 112.375 209.896
94.3247 123.784 193.554
152.481 22.1945 161.109
145.47 35.5272 175.704
141.066 15.5333 179.7
150.093 76.9755 159.236
149.472 57.0359 168.176
158.264 63.7255 146.637
122.421 35.602 208.22
136.424 47.0649 190.109
124.052 59.2772 201.948
116.202 111.509 185.03
120.91 86.9016 194.62
135.094 94.8913 172.742
10.7661 53.3526 240.016
31.9498 64.9221 236.968
-28.3865 33.7491 229.629
-8.73363 42.4349 236.755
29.5306 20.7974 245.594
10.6062 29.0028 244.936
11.0987 13.8502 244.436
-80.3163 -10.2494 171.981
-71.0498 4.60842 190.981
-40.2777 -22.5733 209.092
-55.8965 -8.64416 201.679
-50.8681 -41.3666 191.158
-59.6701 16.374 206.804
-47.4732 25.0914 218.804
30.5499 -83.8323 206.033
12.8281 -69.4956 208.529
11.456 -100.167 202.592
12.1248 -5.9593 237.736
12.8792 -31.6701 228.07
28.7191 -16.6346 233.939
-18.4466 -81.7473 200.832
-5.91877 -55.2103 211.079
-20.3022 -40.0742 212.909
-26.4675 14.744 229.693
-23.9687 -8.21536 224.382
-4.93726 4.85229 237.018
-101.343 -24.5622 133.513
-93.1184 -22.775 150.809
-103.242 -21.8534 116.724
-104.485 -22.2798 122.124
-75.9721 -78.0527 134.964
-96.2428 -45.9715 127.355
-80.1693 -78.0025 118.11
-74.4125 -32.7804 12.1921
-80.3669 -33.1273 29.4183
-72.564 -96.1105 57.1871
-76.8141 -60.1681 37.7885
-70.306 -84.6209 29.0583
-86.4006 -27.8166 58.2822
-96.4383 -23.8202 91.5972
-54.9207 -176.221 88.0834
-64.6673 -160.639 76.244
-58.3423 -176.448 68.1262
-75.0101 -119.443 100.927
-71.6719 -140.687 86.6991
-67.9691 -135.539 109.899
-65.062 -148.568 58.8225
-71.2767 -144.35 71.3295
-73.6819 -128.64 70.1802
-89.7467 -55.3692 101.118
-75.8375 -101.51 78.7177
-77.8488 -90.2426 94.3642
-58.0162 -17.2866 -16.1702
-67.3954 -27.6552 -3.29014
-27.8155 3.2947 -39.7108
-44.0257 -5.38076 -28.5934
-43.3989 -62.5803 -28.5461
-42.9281 -32.7202 -31.4339
-28.5553 -44.0917 -42.0804
30.5687 44.6917 -54.9329
17.7224 33.2385 -59.1103
18.3311 -12.7017 -78.2492
19.1613 4.61434 -72.3422
28.4774 -5.92174 -77.1904
4.13009 23.9567 -57.6852
-9.63118 14.5145 -52.0581
14.4049 -102.297 -52.9002
12.9165 -80.7423 -58.116
30.3526 -91.8064 -56.4823
-11.652 -58.7356 -51.9955
1.40387 -69.8723 -56.9369
-15.6198 -86.6328 -46.7469
27.9378 -27.4145 -78.0111
14.9134 -43.2641 -69.4904
18.262 -23.099 -78.3961
-9.32003 -12.4612 -63.0046
4.72327 -18.1809 -74.1865
-10.1081 -26.3013 -62.0414
62.4401 85.6467 -33.5482
48.509 66.437 -45.2868
87.6229 113.114 -8.51512
75.6363 101.606 -22.0313
[...]
POINT_DATA 642
SCALARS Mean_Curvature double 1
LOOKUP_TABLE default
0.00831512
0.010515
0.0248906
0.05503
0.0117451
0.00529352
0.0132095
0.0031429
0.0200789
0.00738214
0.0193827
-0.0120925
0.0317168
0.0190098
0.0163346
0.0132059
0.0222744
0.0130174
0.0147176
0.00919513
0.0072684
0.0156324
0.0163742
0.0294572
-0.0230003
0.015389
-0.0133206
0.0178999
0.0892008
0.0114084
0.00760098
0.00969341
0.0244355
-0.0185053
0.0251006
0.0254522
-0.0156608
0.029546
0.0191734
0.00899771
-0.015955
0.0199156
0.0176158
0.0151007
0.0141418
0.0146404
0.0164303
0.0188384
0.0156637
0.0108796
0.00867222
0.0117735
0.0123369
0.0169193
0.0177488
0.0148166
0.0131611
0.0154443
0.0177268
0.0146373
0.0143916
0.0201725
0.018026
0.00683019
0.0178891
0.0185635
0.0104084
0.0107358
0.0201114
0.00348646
0.0105574
-0.00114488
0.0229687
-0.00351679
0.0145932
-0.00180176
0.054909
0.015284
0.0111231
0.0100086
0.0153739
0.0117874
0.0133045
0.0144308
0.0294335
0.0160441
0.00698277
0.00945935
0.0124152
0.00937397
0.0215743
0.032673
0.0162259
0.00876305
-0.00493603
0.00601129
0.0241762
0.0308942
0.01413
0.00465423
0.0381727
0.014476
0.0241932
0.0132924
-0.0130875
0.0192542
0.0198017
0.0138262
0.0198539
0.000831352
0.0101381
0.00628702
0.004308
0.00697189
0.0197651
0.00830267
0.0166611
0.00200231
0.00319778
0.0166782
0.0202531
0.0206794
0.0323445
-0.00181842
0.0343784
0.0175767
0.0376061
0.0271399
0.027109
0.0246402
0.0284341
0.0239863
0.0238263
0.00567649
0.0208419
0.0112219
0.0236787
0.0296501
0.013077
0.0192496
0.0147278
0.00279617
0.0233337
-0.00233258
-0.00726073
0.0154155
0.0208715
0.0108885
0.0120996
0.0167279
0.00420986
0.0152572
0.0185475
0.0137499
0.0182929
0.0135093
0.0101345
0.0101404
0.0155633
-0.000190494
0.0179107
0.0290732
0.0167197
0.0184623
0.0098701
0.020329
0.0155637
0.0250023
0.0136967
0.0122698
0.0147733
0.017288
0.0150089
0.0300857
0.0119285
0.00897812
0.0202321
0.0148316
0.00648042
0.0204893
0.0186922
0.0148877
0.00482509
0.0141628
0.0124919
0.0166751
0.00950386
0.00950031
0.0103155
0.0157337
0.0124433
0.0149574
0.0107181
0.0088382
0.0180918
0.0208927
0.00587341
0.00616342
0.0177268
0.0150642
0.00778597
0.0164086
0.0102733
0.0136046
0.0137959
0.0190446
0.0136833
0.0140617
0.00794774
0.0178101
0.00614186
0.00631993
0.012933
0.0223094
0.0184162
0.0249846
0.0198926
0.000373585
0.0210031
0.0138828
0.00461661
0.022198
0.0141229
0.0169186
0.0152946
0.0131306
0.0165932
0.0146612
0.0129938
0.0140251
0.0170736
0.00624697
0.00626239
0.007523
0.00508005
0.0166288
0.0119233
0.0160602
0.0151228
0.0123681
0.0176169
0.0164696
0.016632
0.0156373
0.014534
0.00552333
0.0163336
0.0182201
0.00863767
0.0164467
0.0135059
0.0167762
0.00982571
0.00580327
0.0120605
0.00522774
0.0186071
0.0160808
0.000427546
0.0175267
0.0150164
0.014983
0.00737369
0.00548612
0.0179527
0.0134433
0.00992589
0.0164586
0.0133413
0.0159524
0.0172957
0.0167797
0.0157543
0.0229521
0.0193294
0.0163276
0.00148113
0.0149097
0.0152817
0.00782382
0.00637328
0.0132136
0.000308168
0.0257225
0.00807718
0.0103127
0.0596146
0.0143307
-0.00663211
0.0179749
0.0026398
0.00224603
0.0112088
0.00526841
0.0164247
0.0155938
0.0220778
0.0156602
0.0165282
0.0118749
0.0175287
0.00894477
0.0196623
0.0090869
0.0169188
0.0169285
0.0146666
0.00889036
0.0113552
0.0131781
0.0153143
0.0206605
0.0188716
0.0141578
0.0119024
0.0173688
0.0112127
0.0124724
0.016734
0.00545666
0.013905
0.00969909
0.0192623
0.0227764
0.0304019
0.00272204
0.00858907
0.0103971
0.00822517
0.0145303
0.0130001
0.0198114
0.00539594
-0.00835739
0.0199423
0.0139114
0.0150686
0.00461738
0.0266011
-0.00161805
0.0147851
0.0142538
0.00996446
0.0119033
0.0186361
0.0142576
-4.60569e-05
0.0484422
0.00273902
0.0280028
-0.00188186
0.00979853
0.00920162
0.00128544
0.0042643
0.0140506
-0.000399582
0.00274245
0.00976013
0.0158825
0.033911
0.0123
0.0178589
0.0103837
0.00860399
0.0434215
0.0257977
0.00206831
0.00702217
-0.00543126
0.012212
0.015979
-0.00618986
0.00500181
0.0149526
0.0101364
0.00042622
0.00949883
0.0133099
0.0408646
0.0179034
0.0295441
0.0101105
0.00233654
0.0291119
0.0204121
0.0124458
0.00150237
0.00827781
0.0216162
0.029446
0.0230079
0.0431998
0.0225711
0.0522931
0.0174327
0.0133807
0.0156797
0.0166095
0.0176898
0.0101556
0.0118212
0.00978338
0.0109318
0.0161205
0.015628
0.0170849
0.0107989
0.0187729
0.0168056
0.00907467
0.0128892
0.00252243
0.0150929
0.0149784
0.00932507
0.00499406
0.0126047
0.00793974
0.0175836
0.0170446
0.0110232
0.0356484
0.00521768
0.026337
0.0148245
0.00482207
0.0156369
0.0279506
0.00750452
0.00533685
0.00641521
0.00440829
0.00796137
0.0277189
-0.0218719
0.0144023
0.0153923
0.0091411
0.0198995
0.00819227
0.0187197
0.0208796
0.000372807
0.011793
0.0141923
0.0253393
0.0170203
0.0162958
0.0183375
0.0206705
0.0133863
0.0156839
0.0371476
0.0271972
0.0279219
0.0166592
0.00841426
0.0392817
0.0079027
-0.00615535
0.048169
0.00768078
0.0156083
0.00249409
0.0247746
0.0166096
0.0180767
0.0264335
0.0395531
0.0317437
0.000940154
0.0264806
0.0291516
0.0322458
0.0203848
0.0247895
0.0269718
0.0282726
0.0304083
0.0190562
0.0235029
0.0255937
0.023905
0.0240296
0.0283243
0.0282177
0.0314064
0.0330681
0.0301659
0.030415
0.0169579
0.0237242
0.00892519
0.0224145
0.0214083
0.00416038
-0.00255794
-0.0140048
0.0041836
0.0215308
0.0140446
0.0124791
0.0182092
0.0424171
0.0630987
0.0153547
0.0332385
0.00123702
0.0119987
-0.00687984
0.0344281
0.0298231
0.0186388
0.02494
0.0166647
0.0183694
0.00923054
0.00299263
0.00967799
0.011281
0.0140168
0.0161462
0.0145601
0.00899683
0.0105823
0.0143455
0.00245175
0.0114215
0.00982303
0.0279942
0.00940235
0.0139898
0.0144274
0.0193873
0.0138847
0.00644066
0.0183692
-0.00338057
-0.00503924
0.0117079
0.00245752
0.0188068
0.000403075
-0.00189743
0.0163563
0.00972099
0.0283789
0.0295408
0.00490124
0.0179917
-0.00211829
-0.00777069
0.0166714
-0.00173417
0.00987277
0.0102733
0.0119957
0.0253428
0.0192734
0.00973191
0.0114664
0.0135018
0.0244244
0.0256251
0.0121281
0.0220358
0.0105405
0.0127897
0.00378009
0.0217608
0.00725681
0.0150746
0.00399523
0.00953574
0.0178515
0.0146815
0.0146659
0.00953282
-0.00183559
0.010588
0.0245452
-0.00611236
-0.0120143
0.025018
0.0099627
0.0196137
0.0183015
0.024727
-0.00501685
0.0171978
0.0210749
0.0222646
0.0339135
0.00780561
0.0265334
0.0325546
0.0197326
0.00611803
0.0174432
0.0125209
0.0133013
0.00950986
-0.00384344
0.00557782
0.014222
0.0143907
0.0101083
0.00382848
0.00478602
-0.0043374
0.0278156
0.0388218
0.0184182
0.00346586
0.000506354
0.0117969
0.00322695
0.0093138
0.0197413
0.0304055
0.0138215
0.041357
0.0155332
0.0232546
-0.000111538
0.00787451
0.0147062
0.0123786
0.00399244
0.00209492
0.00683502
0.0138398
0.0229676
0.0137618
0.0230681
0.0115603
0.0244308
0.0231125
0.0045608
0.0178832
0.00376106
SCALARS CoVolArea double 1
LOOKUP_TABLE default
419.803
414.628
258.143
149.809
376.351
407.632
206.976
419.347
314.913
337.885
282.411
334.494
349.738
521.268
579.363
604.807
629.575
514.637
505.094
705.996
497.542
395.253
513.675
382.602
762.234
365.666
689.223
613.119
117.442
465.954
467.486
614.67
423.028
698.534
416.079
362.573
715.366
438.646
490.145
495.101
1011.47
405.582
452.561
591.528
571.873
411.285
539.279
485.385
556.295
639.611
619.313
665.663
649.602
570.246
594.162
624.487
664.473
551.992
576.834
488.616
511.73
579.815
472.338
583.504
473.337
471.233
547.018
569.43
448.495
593.61
484.833
529
398.492
677.773
491.564
733.135
230.556
573.4
564.579
539.661
563.85
414.192
567.737
393.045
385.002
476.487
700.042
493.435
670.728
587.837
483.868
436.8
540.424
505.082
1137.34
479.877
351.643
237.728
528.161
498.739
340.408
373.508
327.238
412.151
535.534
451.861
499.973
491.613
454.182
560.045
471.68
557.627
461.252
656.072
418.882
679.522
466.422
668.129
655.459
547.823
462.977
488.394
438.093
630.907
354.448
530.35
367.071
364.893
480.484
333.219
324.256
474.901
529.048
712.558
608.639
516.034
172.806
278.596
594.788
385.773
523.843
530.924
486.869
706.769
854.22
427.63
395.23
654.685
443.343
429.285
656.069
623.408
513.672
675.558
478.915
585.123
578.558
465.009
410.824
591.224
461.197
378.264
496.696
531.347
557.068
479.743
500.465
392.103
557.028
564.672
618.855
397.303
458.035
386.524
564.916
496.642
416.221
388.516
483.934
441.524
520.614
568.419
562.074
613.449
564.712
540.886
601.8
610.37
636.023
598.746
662.64
675.93
649.54
578.791
577.838
579.514
637.728
669.678
672.72
512.996
601.439
615.984
604.969
573.989
571.628
561.689
534.285
594.553
561.551
664.173
635.758
627.429
546.363
554.94
600.436
672.497
695.727
772.123
518.051
520.695
670.793
553.496
487.903
479.005
535.379
497.566
541.595
540.96
520.58
502.392
580.378
668.568
513.551
538.182
500.246
543.37
516.971
447.688
454.199
515.19
538.292
677.722
614.579
626.644
536.468
541.923
499.099
472.976
500.998
488.354
484.297
522.037
482.066
544.462
473.72
640.383
417.201
470.663
514.928
520.324
445.549
478.046
492.959
499.307
584.647
483.125
543.389
504.973
516.747
492.91
497.211
461.758
464.189
395.299
355.773
491.85
639.02
577.298
546.92
622.885
533.992
462.377
447.899
359.049
417.249
537.878
174.6
472.018
630.523
486.359
763.95
535.474
583.337
590.802
596.563
546.141
439.99
515.109
510.07
520.718
506.786
591.906
508.094
547.245
518.689
589.321
416.411
435.272
396.886
496.581
454.575
367.723
400.877
464.945
575.187
635.51
650.945
628.461
573.615
568.542
492.096
528.935
319.291
388.148
316.096
526.126
484.254
689.663
552.177
736.308
408.109
416.331
580.705
688.505
477.988
416.073
611.744
472.154
543.276
660.29
723.165
474.879
612.875
447.485
321.466
455.755
343.201
166.804
580.909
419.906
690.2
397.319
603.361
831.724
832.245
699.171
910.884
824.927
358.205
339.528
281.405
614.334
399.142
550.291
311.939
240.255
410.138
807.164
673.19
623.858
528.357
413.49
691.94
608.544
467.473
568.683
603.696
483.2
490.145
172.964
328.139
188.438
566.553
691.847
295.826
453.477
388.173
605.711
457.564
384.937
272.395
413.367
188.33
444.218
242.919
467.208
453.893
488.76
476.279
425.107
538.665
435.408
487.315
527.634
502.966
456.384
452.3
426.557
467.752
496.412
489.785
504.045
486.182
482.592
448.646
562.199
541.761
480.738
486.778
496.236
486.676
506.663
238.65
463.298
319.165
542.513
624.26
519.324
368.281
507.553
559.509
515.914
814.94
582.09
593.867
795.591
710.147
459.277
622.196
392.282
622.405
490.589
453.849
604.591
562.215
491.043
515.018
418.652
461.988
539.31
481.131
684.132
454.927
297.121
411.421
446.368
558.685
522.065
510.945
644.904
742.772
289.899
408.759
399.122
490.91
404.273
431.765
460.159
385.256
461.896
429.127
617.657
339.506
354.95
341.479
483.326
419.632
458.762
355.89
253.176
673.805
444.48
325.732
372.075
379.208
325.635
413.708
350.598
334.073
284.668
489.192
714.326
304.784
651.713
332.26
566.721
805.696
636.506
662.568
849.312
565.71
639.153
552.964
541.284
226.412
155.425
504.92
277.203
514.919
279.94
741.929
256.098
284.76
372.125
301.386
383.735
493.682
702.512
425.154
433.471
451.775
767.79
397.29
610.654
512.127
416.415
408.53
812.905
657.392
799.174
212.359
744.114
278.49
389.242
513.544
510.241
612.528
523.577
801.932
561.392
651.563
955.205
498.102
451.131
528.862
483.524
388.201
320.019
290.14
803.548
565.487
618.484
684.396
699.681
666.828
652.809
497.518
433.307
381.05
355.952
484.867
634.675
547.464
379.784
397.701
508.102
474.361
635.028
491.47
556.05
400.627
546.764
416.944
546.774
598.91
544.923
507.875
469.469
605.056
627.025
734.941
511.096
678.235
796.317
608.141
749.969
524.703
593.24
343.415
724.097
578.952
357.184
384.096
274.636
545.02
246.735
268.601
481.538
456.55
380.264
401.936
511.394
741.136
848.941
808.94
711.826
574.486
616.87
598.951
650.648
717.532
407.157
215.283
421.995
460.125
640.649
474.244
668.911
537.341
344.139
194.103
511.219
290.125
512.848
429.623
662.192
500.011
391.258
374.738
570.044
484.203
552.406
499.165
499.073
563.085
388.022
473.237
428.675
380.048
622.704
429.63
480.346
SCALARS SignedDistance double 1
LOOKUP_TABLE default
31.8384
31.716
33.0385
34.9506
37.4032
32.7879
34.6291
36.0328
40.6316
39.3468
39.877
39.6545
37.5136
32.853
28.3469
28.7768
29.5687
32.2008
32.0361
38.9631
38.7692
41.2646
32.7928
36.5078
42.8468
36.8984
45.2317
41.0034
34.8653
37.7473
39.2571
40.5403
40.5365
41.7374
35.7829
37.0032
39.3317
36.9591
41.3448
38.6568
45.1637
41.6329
31.8022
30.1545
29.8143
36.4515
33.9608
36.1537
29.6135
31.7126
33.0557
30.8094
29.4398
28.9765
27.8249
29.4737
30.9465
30.1065
30.1522
31.0119
31.108
29.9105
34.7048
32.7529
34.7795
33.7278
34.2687
36.9843
35.3327
40.6801
37.5692
40.0764
37.9877
43.3804
39.455
39.4342
39.1177
30.9367
32.4269
33.0313
31.1881
36.9659
33.6721
36.9086
34.9727
34.0747
38.5757
36.8454
38.6915
37.6085
38.4889
41.7881
37.9463
41.4484
43.385
36.7584
43.351
39.4231
40.4059
39.9753
35.6448
36.465
35.3064
38.0557
40.5638
35.4629
37.3493
34.3674
33.8076
40.8294
37.5925
40.7158
39.1757
36.1709
34.43
38.9543
40.4884
43.7042
39.0031
35.3891
38.1731
29.0157
28.1036
39.9104
37.3212
28.1861
26.8681
32.4984
29.1842
34.6185
31.4618
29.9192
33.4236
39.6869
33.886
45.6277
41.732
36.2331
36.1866
41.2019
39.1321
40.9176
39.8375
43.8694
43.5682
42.2347
39.0947
37.4322
36.8141
35.8793
36.3211
35.5053
39.9385
35.5376
42.1309
38.6474
40.8221
38.7651
36.6936
39.322
38.7667
37.9409
30.833
29.9984
30.6311
31.2209
30.6718
33.5414
28.885
29.6973
29.1873
37.6712
35.6818
38.5048
34.1187
35.0028
35.4281
36.641
35.3341
35.0471
31.1598
31.6233
33.7162
29.8277
30.8184
28.7753
33.3437
32.1306
32.5079
31.9131
32.21
30.446
30.0542
30.6616
28.0177
28.0379
30.8585
30.8839
29.8687
31.2406
29.8759
28.0586
29.4975
28.9
29.5949
27.9016
30.4872
29.8472
31.2886
29.8578
30.9094
30.8029
29.1264
28.0862
27.9423
27.8483
27.9668
30.2062
29.8337
31.333
31.0895
30.092
31.3654
30.3823
30.9224
31.4126
30.497
31.1371
30.7241
31.4574
29.6854
31.0654
36.8016
34.9799
36.8232
32.051
33.5502
33.2079
33.1816
33.5842
32.0438
29.9446
31.4118
31.3517
32.0282
32.8065
32.3975
31.5426
36.7619
34.3733
36.0701
36.542
36.5043
37.688
37.5498
37.9768
34.2996
33.2923
41.0018
40.2221
39.0951
38.3943
39.3418
39.5414
40.0737
37.6792
37.3391
34.5895
37.1161
36.0544
32.8789
36.9259
33.9289
34.3172
38.4308
40.6862
41.8368
40.4817
40.108
42.1154
39.9682
39.042
40.0766
38.3025
39.0086
39.2234
41.7754
40.6909
41.053
38.9858
39.6972
39.0957
31.5269
32.1724
29.0633
29.7742
33.3494
31.3386
31.8316
32.4367
31.5348
32.6813
31.8644
32.8988
29.5351
28.8885
37.7439
37.3592
38.0618
33.9571
35.9697
36.6164
35.1523
35.7737
33.9307
30.4514
32.6284
32.6535
32.2994
33.4541
35.3298
33.6691
35
34.3508
35.8468
39.1412
37.8621
37.7941
37.6311
39.7106
36.4942
36.0555
41.793
41.5955
38.4129
37.147
37.5057
38.3778
43.4446
41.4024
39.4994
36.4597
36.9871
36.7792
38.4004
37.6194
40.9564
41.0866
43.4808
39.1985
44.7515
40.7257
41.3576
46.162
42.9361
39.7817
44.3358
42.6373
36.2058
36.9201
35.2266
42.4922
39.3066
37.9947
39.4005
39.336
44.1059
43.3022
46.3476
45.3802
39.2318
39.3373
41.3987
40.1043
38.0233
38.9126
39.3209
38.4073
37.3812
35.2295
35.8793
35.6649
38.3241
40.164
35.0691
39.9928
38.3421
38.9567
39.2723
36.7516
35.3918
39.054
35.2608
38.115
35.7094
38.7365
35.8172
36.8732
33.1951
34.3984
38.8266
36.8436
37.1354
32.3993
31.9305
36.7461
34.481
37.0912
31.5362
32.3495
39.8895
39.9938
40.8172
37.7971
39.006
40.1585
39.6177
38.9759
38.6149
34.7488
36.7393
37.2394
38.9179
37.4616
33.8512
36.4537
36.9733
37.5296
33.9006
37.1946
36.7808
39.197
41.22
39.3054
42.032
44.1866
39.7015
46.6096
47.307
41.2687
36.4605
35.7624
38.3482
37.3209
36.6254
37.1052
40.8368
36.3885
37.7822
36.5259
37.2837
35.3377
30.9311
30.5825
31.0103
30.2994
33.9759
29.3273
34.1381
36.4711
39.8736
37.1779
40.8585
40.4822
39.0678
35.8704
30.2904
29.0856
32.1653
30.9635
29.7258
35.9902
33.8001
29.5415
31.2944
31.9036
31.6013
27.7308
29.7256
33.8514
33.2204
28.3684
36.4654
31.0504
33.2363
31.2317
28.6542
32.2186
29.022
33.5087
29.2823
33.8561
33.9858
33.9451
33.9671
39.5014
46.6129
46.8518
45.78
47.0371
38.7425
29.8541
33.3259
33.5064
40.2716
39.7429
44.2039
41.5082
41.4883
42.0765
45.5882
35.0974
33.7909
37.5408
35.5195
37.7413
34.4655
47.1379
41.2503
41.0002
40.7719
39.8725
39.4813
40.2752
39.5667
39.8973
39.1942
46.815
37.5495
43.3105
41.6486
41.1903
41.0533
39.1245
41.3792
41.1017
42.7361
41.3216
43.3498
42.3097
44.4069
45.1995
38.2975
39.4646
46.9464
42.29
40.2319
39.2018
39.8543
46.7658
43.0134
45.6208
41.611
38.7905
40.3151
37.969
37.7258
37.8815
35.1845
36.3892
37.8213
37.8412
32.8409
35.9727
34.2665
33.7867
34.7069
36.7913
36.6701
37.4551
36.6308
36.774
36.358
36.8498
36.9504
35.6989
38.0299
36.4367
37.4529
38.0872
38.3053
39.2118
44.0984
43.9429
43.9113
35.9072
37.1442
35.4203
33.5948
45.7908
34.714
34.6287
35.8825
35.7877
43.1522
40.739
37.1035
38.6049
40.4102
38.4228
39.1204
39.5854
40.2893
45.5812
43.736
36.5324
39.8132
38.8867
40.1878
40.5842
42.0083
39.5014
35.8234
39.7991
39.0707
38.3092
38.2249
41.1334
39.4588
35.6572
35.7359
39.5392
36.8328
38.8504
38.7864
39.8073
39.9241
39.0642
39.1584
42.4182
39.6311
40.2101
41.7869
40.6369
32.5978
38.0061
34.0868
34.683
38.4379
39.5911
39.1351
39.1007
