# vtk DataFile Version 4.2
vtk output
ASCII
DATASET POLYDATA
POINTS 642 double
-61.3723 147.975 88.7096
119.876 148.495 86.7266
-55.0291 -192.018 79.3132
114.609 -191.6 79.5868
30.6799 -108.65 207.61
32.1182 92.2132 234.968
30.5101 -110.49 -57.4776
31.3379 76.1855 -49.3367
142.504 -11.7194 8.18934
154.195 2.12273 168.08
-82.9941 -14.6463 4.61666
-97.5833 0.0676777 164.611
-105.349 86.4236 140.446
-52.664 47.2748 223.176
-24.9967 149.69 180.404
86.5648 148.297 180.55
30.5564 182.794 88.4637
82.2352 137.417 0.842434
-21.5581 138.171 0.930697
-38.654 40.4984 -38.6165
-91.4088 82.0455 40.7899
-111.823 -9.83267 103.313
112.802 48.3158 224.38
165.195 83.7889 139.856
-36.7505 -65.4876 199.353
28.707 3.24788 250.276
-72.266 -125.588 47.8708
-81.3754 -112.532 128.651
28.2669 -18.1946 -88.5227
-35.1666 -77.1852 -44.5389
152.033 83.7054 42.1265
98.3236 44.4783 -37.9445
142.214 -108.694 130.317
97.4337 -65.6115 200.309
73.6726 -183.914 154.704
-13.7248 -189.375 155.578
29.6903 -219.847 90.5081
-21.9002 -184.801 14.4589
77.6509 -181.433 15.4449
91.7496 -77.0846 -42.1363
125.806 -114.273 46.0017
170.063 -10.0308 93.9354
-90.8122 121.637 117.333
-74.7308 121.393 162.676
-48.6578 155.635 136.126
-79.9769 24.7011 198.664
-85.2044 72.8852 184.718
-103.974 42.0305 158.809
2.44907 125.946 214.728
-43.3377 104.212 207.017
-11.0516 72.9341 235.248
-0.275482 174.687 140.291
-20.0656 172.205 85.503
60.0867 124.661 216.306
29.5536 159.42 186.312
81.1042 172.292 86.7818
61.3275 174.825 139.509
107.758 155.765 136.409
-0.0353333 169.224 38.0469
-43.8101 151.415 41.5115
105.169 149.952 41.4476
59.6479 169.058 37.7212
3.32604 113.042 -29.03
30.4795 145.349 -2.6834
57.6149 112.625 -29.3885
-63.7538 115.779 15.5486
-83.099 118.597 62.9103
-4.05121 61.2224 -50.6897
-35.1122 96.0369 -24.0239
-88.4494 39.1091 21.8293
-69.1681 68.708 -3.61823
-64.8862 14.3742 -18.2624
-106.187 89.2664 93.1066
-96.4718 -5.7095 47.1856
-106.64 44.399 66.1426
-108.413 46.5208 119.356
-115.609 -11.4296 127.811
133.258 121.038 164.238
148.488 118.962 117.964
74.0405 75.3014 236.255
104.244 104.343 210.281
163.568 43.4599 157.622
144.21 71.4533 186.072
138.823 25.7238 200.327
-9.00174 22.2001 247.997
30.9508 40.2898 252.008
-73.0348 -26.0391 189.084
-48.7886 3.11561 222.432
29.7934 -48.9967 230.418
-6.11743 -23.4527 235.565
-7.89258 -94.4619 210.012
-104.942 -49.7361 116.691
-97.0141 -48.7047 145.968
-80.4758 -59.5557 15.0777
-89.8555 -63.482 67.9411
-67.4797 -162.779 99.6177
-84.635 -127.318 80.3205
-70.7351 -164.84 59.2471
-32.0243 -19.9397 -54.4179
-61.4911 -46.756 -21.7474
29.6674 18.5394 -77.4892
2.64807 -2.35287 -77.3022
-3.51964 -97.1377 -58.3277
1.4095 -37.1708 -75.701
28.9467 -60.4788 -70.8258
95.9786 95.5353 -24.3603
66.1982 62.7606 -51.47
144.214 117.901 60.581
125.071 115.341 15.6108
123.847 18.8138 -15.8709
129.048 68.9382 -3.82211
148.872 39.0556 22.3241
124.084 -161.922 96.0719
111.65 -149.797 142.41
96.0818 -193.604 119.437
130.805 -24.0809 191.292
125.996 -97.1636 168.209
149.908 -54.7833 144.39
53.7418 -150.995 179.414
92.6991 -122.375 185.058
68.6287 -94.8562 209.757
53.8458 -215.71 128.027
81.7731 -215.62 81.3018
5.66854 -156.304 175.816
25.4707 -195.487 161.412
-20.4884 -215.693 84.447
0.977035 -220.264 129.357
-37.7332 -197.749 123.275
61.4512 -211.704 41.3045
100.887 -193.422 47.4962
-43.3449 -195.97 42.8926
-4.58454 -212.66 40.3275
52.3046 -135.927 -36.1784
29.2079 -186.988 10.6571
6.64775 -136.929 -34.8161
107.736 -161.29 32.1392
123.999 -168.107 65.6897
61.3157 -98.4059 -57.8624
83.3566 -118.391 -30.8764
141.258 -59.1162 17.7555
118.347 -88.6256 -8.69727
120.19 -45.346 -17.8707
140.775 -122.77 87.8073
156.881 -2.63474 49.0111
152.173 -54.8639 70.6496
162.161 -52.2327 110.936
168.976 -6.08337 128.674
67.6538 -25.2033 233.902
111.057 4.28862 222.505
70.8347 25.4494 246.004
-51.1729 -156.529 139.998
-32.1965 -124.619 183.531
-65.9486 -97.7088 169.222
-26.7297 -119.977 -29.6086
-55.7752 -163.717 30.0418
-59.9298 -90.7266 -11.3922
90.6322 -18.6595 -51.2829
55.9039 -37.7079 -73.2849
55.8899 0.24171 -75.2898
169.489 47.6398 119.566
167.619 43.8557 68.0111
167.261 86.4725 89.2402
-77.7851 136.334 104.198
-72.753 139.612 127.318
-57.2009 152.436 112.102
-93.795 103.549 151.311
-85.104 122.387 140.176
-100.31 104.457 129.415
-37.6488 154.83 158.719
-62.6558 140.025 150.765
-50.8333 137.454 172.677
-90.8095 13.2187 182.796
-94.1325 32.7148 179.541
-102.307 17.3774 164.603
-69.5106 60.5037 205.566
-82.4092 47.9237 193.742
-67.5958 35.9069 212.758
-104.632 68.0713 149.423
-95.7688 60.0772 171.047
-97.6271 81.2151 162.311
17.6594 109.149 227.714
-5.39543 101.895 226.444
10.6067 83.9184 236.208
-35.1441 128.924 195.502
-20.8962 117.158 212.036
-11.3498 139.942 199.131
-32.7142 60.3491 230.543
-28.1295 89.9715 222.294
-49.1505 76.1693 216.107
-82.6689 97.7783 174.983
-67.0993 88.5924 197.153
-60.6319 114.962 186.598
-34.6443 165.803 114.296
-42.4603 161.205 86.4997
-13.4551 165.438 162.278
-24.9626 168.122 140.066
5.74936 178.467 87.1966
-9.00657 174.975 114.677
16.3977 181.45 112.796
45.5531 108.467 228.24
30.6576 127.298 215.885
59.2338 156.22 184.815
45.3293 144.139 201.152
73.4321 138.098 200.167
14.9638 145.166 201.07
1.4757 157.263 185.14
102.61 161.72 86.9702
94.6808 166.263 113.986
114.519 152.879 111.642
44.7317 181.464 112.704
70.0827 175.005 114.513
55.0456 178.566 87.7367
98.337 154.226 158.517
85.672 168.171 139.467
74.6325 165.049 161.375
14.2594 170.946 166.388
45.6757 170.138 165.625
30.2641 175.916 139.694
-32.716 165.094 60.5683
-52.8819 151.82 63.8909
14.8102 176.199 62.068
-10.6129 173.634 60.025
-33.6813 146.663 20.744
-22.5433 162.633 39.0617
-11.529 155.949 18.6275
113.769 150.849 64.2619
93.4299 163.872 62.0772
71.4785 155.338 18.3379
82.584 161.311 38.9001
94.676 145.507 20.4283
70.3051 172.746 61.0322
45.4401 176.327 62.2332
17.6397 95.5432 -39.4358
30.6383 114.326 -29.0688
44.1437 95.1276 -39.7495
2.4389 144.042 -2.50869
15.4996 130.729 -16.8702
-9.00168 126.584 -15.94
69.6453 126.13 -16.0904
45.3484 130.676 -16.9545
57.9698 143.92 -2.63023
30.3524 171.186 36.584
45.2128 160.299 16.0043
15.3545 160.306 16.1114
-64.5856 136.607 49.092
-73.1063 134.776 76.1905
-44.2621 128.703 7.12657
-55.3297 134.335 26.5729
-88.7955 101.127 51.2183
-73.84 118.627 36.3438
-78.9057 100.015 26.4883
12.7387 68.9845 -52.2247
-3.01783 89.8171 -39.2438
-37.2009 71.4634 -30.6539
-21.3172 81.7739 -36.442
-20.698 52.1402 -45.8297
-17.2185 105.835 -27.6343
-29.5842 117.76 -13.5659
-84.7734 9.63246 11.6198
-78.3066 27.8766 -1.4421
-75.6667 -1.57494 -7.12617
-81.2584 77.2875 16.2913
-79.865 55.1097 8.10288
-91.1545 62.4648 31.6924
-54.3015 27.9439 -29.784
-68.1022 42.3467 -12.4479
-55.4946 56.0252 -21.6869
-50.4808 107.035 -5.96276
-53.7921 83.783 -14.8588
-68.0359 93.105 4.45648
-90.1954 120.728 92.2611
-101.419 85.8222 67.4718
-97.7086 103.312 79.4618
-101.366 105.076 105.853
-106.872 89.5292 118.185
-89.8338 -12.0492 20.4535
-94.4804 16.4313 35.6034
-109.489 16.3498 79.7694
-105.181 20.1254 59.9334
-106.44 -3.71055 75.4807
-99.8086 43.5484 47.0729
-101.753 64.1762 55.4035
-107.734 14.3535 145.305
-108.149 -6.05814 146.809
-107.845 71.0695 130.747
-108.01 46.4368 139.636
-116.463 -12.6091 118.417
-112.359 8.05195 126.325
-110.636 7.55346 108.202
-107.669 69.215 78.6055
-108.726 46.3545 89.9394
-108.001 72.7913 105.851
129.537 138.548 128.769
134.227 134.962 102.202
111.586 136.689 173.93
121.755 139.653 152.101
159.173 101.892 130.213
142.937 121.001 141.874
151.834 102.476 151.804
53.6607 84.608 237.557
69.3005 101.263 228.587
108.673 78.1587 218.192
90.3285 91.2483 225.42
93.6596 62.9994 231.61
83.8921 115.862 214.874
97.211 127.675 197.685
159.976 21.6588 164.54
152.519 35.4581 179.83
147.968 14.4631 184.272
156.479 78.9027 162.544
156.321 57.9686 171.871
165.744 64.7706 148.887
127.761 35.8905 213.698
142.606 47.7336 194.762
129.209 60.775 207.065
120.412 114.882 188.926
125.696 89.2984 199.374
140.519 97.6947 176.427
9.57931 55.1929 246.786
31.8407 66.9404 243.997
-31.8098 34.3022 236.493
-11.2097 43.7933 243.554
29.6619 20.1493 253.213
9.41803 29.4717 252.268
9.94528 12.6436 252.078
-86.9129 -12.293 177.042
-77.0954 2.88343 196.366
-44.8566 -25.1633 215.511
-61.2309 -10.8537 207.606
-56.1342 -44.1937 197.28
-64.9863 15.1777 212.677
-51.9712 24.5317 225.219
30.5706 -86.2631 214.634
11.812 -72.4144 217.032
10.5086 -103.007 210.195
10.9903 -8.54799 245.354
11.7509 -34.7135 235.643
28.8803 -19.3618 241.89
-22.2994 -83.9049 208.217
-7.97045 -58.1096 218.924
-23.9047 -43.0102 220.025
-30.1708 13.6036 236.679
-27.5353 -10.5101 231.323
-7.48563 2.87468 244.373
-108.846 -26.7471 136.199
-100.013 -24.8766 154.882
-111.808 -24.0418 115.126
-113.014 -24.7355 122.131
-84.3575 -80.8756 138.198
-103.836 -49.0259 129.105
-89.202 -80.9113 119.612
-82.4617 -34.2952 8.70655
-88.988 -34.5341 27.0505
-81.8642 -97.9333 55.0493
-85.7957 -61.9684 35.6896
-78.3799 -86.8528 26.6018
-95.508 -29.4746 56.1355
-105.17 -25.7475 89.516
-61.6384 -179.856 89.5563
-72.0173 -163.898 76.6594
-64.7901 -180.047 67.619
-83.6841 -121.56 101.952
-79.3788 -143.382 87.6567
-75.1779 -138.616 112.085
-72.8134 -150.266 55.4989
-79.1679 -146.604 69.9815
-82.5054 -130.221 67.9128
-98.5515 -57.9095 99.4661
-85.5626 -102.983 77.486
-87.2541 -92.4249 94.4282
-64.4816 -17.3166 -21.875
-74.4786 -28.6253 -8.15138
-33.4294 4.49545 -46.5969
-49.9396 -4.77536 -34.9701
-49.2513 -63.6908 -34.4041
-48.8904 -33.0416 -37.5696
-34.0271 -44.9243 -48.6727
30.5788 47.8153 -62.5328
16.1146 36.2865 -66.3984
16.5234 -11.4051 -85.6861
17.3135 7.14117 -79.5913
28.6702 -4.00412 -84.7745
0.822496 26.4743 -64.7478
-14.2076 16.5121 -58.9612
13.0884 -105.159 -59.7347
11.6145 -82.8179 -66.1377
30.4092 -93.8652 -64.2718
-15.948 -60.1344 -58.9987
-1.61446 -71.6131 -64.4568
-19.6536 -88.4652 -53.3894
28.2317 -29.5597 -85.4979
13.4582 -45.8204 -77.0277
16.4943 -24.411 -85.842
-14.2522 -11.4005 -69.5652
1.24932 -18.1373 -81.1899
-15.0058 -27.1138 -68.6829
64.2336 89.0081 -40.4193
49.6215 69.5172 -52.4392
90.7192 117.164 -13.761
[...]
POINT_DATA 642
SCALARS Mean_Curvature double 1
LOOKUP_TABLE default
0.00863892
0.0105732
0.0220388
0.0410751
0.01014
0.00671624
0.0123309
0.00321203
0.018497
0.00817451
0.017954
-0.0064441
0.0289082
0.0158882
0.0150907
0.0127419
0.0202568
0.0124799
0.0138004
0.008325
0.00812696
0.0132675
0.0140415
0.0253722
-0.0184495
0.015341
-0.0100787
0.015389
0.066829
0.0118
0.0091125
0.010243
0.021132
-0.0139331
0.0231495
0.024011
-0.0112374
0.0262655
0.0176122
0.00920775
-0.0128933
0.0177793
0.0167264
0.0140084
0.013658
0.0141861
0.0151539
0.0149278
0.0143914
0.01083
0.00845728
0.0124465
0.0110456
0.0152141
0.0161721
0.0132533
0.0137069
0.0148706
0.016332
0.0138811
0.0134851
0.0181334
0.0164717
0.00727762
0.0164692
0.0167118
0.00985744
0.00980916
0.0177529
0.00417735
0.0100265
0.000967988
0.0216685
-0.00182586
0.0133013
-0.00156137
0.0394448
0.0143626
0.0109987
0.0103213
0.0147401
0.0107707
0.0119856
0.014088
0.0255323
0.0151078
0.00689064
0.00923748
0.0107484
0.00922257
0.0171726
0.0297713
0.0141824
0.0086465
-0.00502138
0.00631803
0.0240119
0.0290951
0.0144533
0.00542604
0.0310346
0.0140133
0.0207776
0.0120614
-0.00836294
0.017199
0.0169289
0.0128534
0.0175742
0.0020704
0.00927337
0.00693254
0.00345773
0.00631278
0.0179713
0.00806898
0.0159348
0.00157381
0.00389473
0.0146813
0.0175982
0.0188189
0.0276497
-0.00101135
0.0283392
0.0139221
0.03089
0.0234489
0.0237811
0.0201248
0.024108
0.0222823
0.0206049
0.0054627
0.0183283
0.0134397
0.0280773
0.0257665
0.0123241
0.0169891
0.0135434
0.00373997
0.0193525
-0.000809421
-0.00672827
0.0143748
0.0163861
0.010087
0.011714
0.0162605
0.00384757
0.0133396
0.0176593
0.012628
0.0187929
0.0128024
0.0110004
0.00953152
0.0144219
0.000341247
0.0147031
0.0258287
0.0150894
0.0166555
0.00988934
0.0171624
0.0146634
0.0199256
0.0131861
0.0117449
0.013695
0.0162765
0.0133889
0.0250876
0.0115955
0.00871382
0.018741
0.0131717
0.00694258
0.019442
0.0167419
0.0140158
0.00629536
0.0133342
0.0122299
0.0153405
0.00914642
0.00926531
0.0097975
0.0145672
0.0118788
0.0138505
0.0104186
0.00860709
0.0166634
0.0182482
0.00645088
0.00671151
0.0163542
0.0140615
0.00778551
0.0151376
0.0105802
0.0129796
0.0138918
0.0174463
0.0128096
0.013068
0.00826836
0.0164109
0.00678767
0.00688118
0.0126001
0.0194352
0.0166509
0.0220485
0.0178559
0.00170093
0.0190442
0.0133132
0.00556173
0.0201035
0.0134304
0.0157844
0.014315
0.0126624
0.0155298
0.0138144
0.0126126
0.0132866
0.0154444
0.0070932
0.00742653
0.00727537
0.00677902
0.0153051
0.0116481
0.0150556
0.0142106
0.0120786
0.0160859
0.0148455
0.0157555
0.014789
0.0134231
0.00603704
0.0149162
0.0161823
0.00888296
0.0152773
0.0130079
0.0139516
0.00982972
0.00658407
0.012575
0.00523324
0.0164492
0.0148782
0.00151523
0.015849
0.0123461
0.0144503
0.00748639
0.0061549
0.0164934
0.0115754
0.00900251
0.0154353
0.0134719
0.0148289
0.0162314
0.0154684
0.0133946
0.0187248
0.0215091
0.0145353
0.00197423
0.0133712
0.0135695
0.00784508
0.00643191
0.0125883
0.00309667
0.0204618
0.0106878
0.0110017
0.05746
0.0134071
-0.00489959
0.0170989
0.00298628
0.00393548
0.0112673
0.00547616
0.0150242
0.0142031
0.0189795
0.0145794
0.0146404
0.0114278
0.0165265
0.00911998
0.0179286
0.00861342
0.0154498
0.0152995
0.0131729
0.00948698
0.0111661
0.0123343
0.0148535
0.0179633
0.0173324
0.0133534
0.0113069
0.015917
0.0111336
0.0122984
0.0145595
0.00595636
0.013553
0.00922213
0.0171295
0.0203243
0.0278461
0.00358252
0.0087603
0.00989192
0.0080128
0.012147
0.0125294
0.018961
0.00621721
-0.00523072
0.0185901
0.012828
0.0133269
0.00596281
0.024524
-0.00146486
0.0127524
0.0141084
0.00937813
0.0121782
0.0155333
0.0129875
0.00280942
0.0394981
0.0026584
0.020429
-0.000326483
0.00949287
0.00842057
0.00228588
0.00545592
0.0113066
0.000374133
0.00272406
0.0121293
0.0147126
0.0284104
0.0125034
0.0143692
0.00838039
0.00925958
0.0318796
0.0244335
0.00253406
0.00813272
-0.00446013
0.0113854
0.0139027
-0.00393462
0.00455965
0.0129221
0.00895875
0.0012703
0.010029
0.0114832
0.0349729
0.016562
0.0255674
0.00892358
0.0027351
0.024568
0.0193891
0.0125489
0.00142729
0.00791332
0.0202944
0.0264018
0.018282
0.0366429
0.0208204
0.0422946
0.0162205
0.0121374
0.0138664
0.0151615
0.0157699
0.00993972
0.0119508
0.00929343
0.0106135
0.0146308
0.0149433
0.0157381
0.0105535
0.0166098
0.0152361
0.00744685
0.0119392
0.00292114
0.013205
0.0143117
0.0089979
0.0048499
0.0113629
0.00898568
0.0163143
0.0159951
0.0118332
0.0323697
0.00789274
0.0219489
0.012874
0.00430051
0.0128382
0.0242988
0.00942281
0.00618742
0.00657007
0.0046482
0.00724601
0.0240637
-0.0180532
0.0118294
0.0119266
0.0105553
0.0188064
0.00763873
0.01646
0.0191119
0.00130344
0.00987848
0.0132617
0.0215889
0.0157346
0.0151856
0.0157545
0.0181883
0.0114167
0.0142356
0.0317861
0.022995
0.0237914
0.0157542
0.00807777
0.033541
0.00725683
-0.00501897
0.0385554
0.0138785
0.0171457
0.00536593
0.0216978
0.0154556
0.0163811
0.021314
0.0356082
0.0285353
0.00295524
0.0236628
0.0251806
0.0268046
0.0184897
0.0225786
0.0234256
0.0246855
0.0245288
0.0168526
0.0211528
0.0205627
0.0214962
0.0215451
0.0245614
0.025074
0.0273143
0.0278672
0.0252586
0.0272462
0.0148426
0.0216302
0.00880441
0.0204583
0.0190913
0.00292455
-0.00128443
-0.00707031
0.00143955
0.0197039
0.0126922
0.0123375
0.0178872
0.0345941
0.0492934
0.0158355
0.029886
0.0016965
0.0178989
-0.0072524
0.0284886
0.0251412
0.0173275
0.0217381
0.0166882
0.0162979
0.00723537
0.00352122
0.00982623
0.0102179
0.0123749
0.0143347
0.0126602
0.00859245
0.0104587
0.014029
0.00206706
0.0107299
0.00859983
0.0286352
0.00813432
0.0123606
0.0116454
0.0187257
0.0123607
0.00590786
0.0171466
-0.00260784
-0.00328397
0.012557
0.0026203
0.016379
0.00204229
0.00157643
0.0133656
0.0106876
0.024453
0.0253636
0.00646633
0.0164668
-0.0018117
-0.00462326
0.0140286
-0.00128884
0.00932786
0.0100626
0.0117433
0.0228004
0.0176648
0.00952962
0.0107181
0.0120729
0.0224697
0.0225546
0.0109802
0.019873
0.00965792
0.0131678
0.00499423
0.0216831
0.00849766
0.0158793
0.00450086
0.00884192
0.0156272
0.0133941
0.0139348
0.00799329
-0.00167371
0.00986281
0.0222886
-0.00387545
-0.0102831
0.0222906
0.00863549
0.01732
0.0152751
0.0213542
-0.00303446
0.0151658
0.0187546
0.0192073
0.0272979
0.00718623
0.0278696
0.0273994
0.0195908
0.00629792
0.0171878
0.0121142
0.012487
0.00787486
-0.00397808
0.00426384
0.012804
0.013149
0.00873821
0.00408295
0.00431557
-0.00269151
0.0252802
0.0334669
0.0145707
0.00435435
0.000303714
0.0100669
0.00334951
0.0080716
0.0175059
0.0268176
0.013273
0.0353592
0.0148533
0.0199286
-7.24115e-05
0.00910316
0.0144321
0.0155521
0.0044943
0.00356154
0.00638779
0.0138291
0.0202894
0.0126633
0.0218395
0.00950249
0.0203466
0.0219474
0.00492737
0.0177946
0.00581406
SCALARS CoVolArea double 1
LOOKUP_TABLE default
463.36
457.233
309.492
201.286
421.897
448.149
250.22
456.821
355.816
371.968
325.171
371.935
409.594
579.853
638.803
663.023
683.036
570.556
561.511
748.1
543.509
435.907
573.456
443.437
793.511
413.195
717.701
668.895
168.131
511.719
507.769
655.462
481.144
740.206
470.106
415.451
758.487
484.988
546.632
539.027
1017.27
455.682
510.582
652.946
625.026
458.211
594.621
537.765
609.893
693.311
666.524
723.635
702.476
625.039
657.428
678.024
722.991
604.388
637.386
542.488
565.218
640.026
520.858
637.616
522.005
530.702
598.101
620.169
502.328
627.611
533.649
570.092
456.123
708.785
541.493
760.095
292.532
633.877
615.468
589.772
622.106
462.567
623.9
439.166
444.943
536.135
735.617
540.509
707.069
638.557
535.215
498.182
589.79
545.646
1148.53
522.064
402.786
293.803
569.075
542.336
400.555
428.678
380.749
472.468
588.355
506.678
556.425
546.055
515.005
598.861
521.284
594.335
510.455
709.661
474.568
711.941
513.023
717.372
694.29
608.259
511.778
561.518
505.283
666.027
416.922
598.046
441.497
426.365
549.605
401.995
391.387
544.548
587.145
760.201
661.8
561.251
210.714
331.19
653.047
431.005
578.01
569.48
541.254
729.524
882.084
481.194
451.124
704.057
493.11
484.526
706.096
683.827
563.269
727.167
529.003
641.391
616.886
519.592
466.429
622.292
511.524
440.33
550.305
587.256
608.321
547.366
558.607
454.117
611.025
618.967
678.05
440.547
510.72
438.036
622.687
546.92
468.074
436.157
534.268
502.138
572.138
618.397
608.349
671.777
615.949
594.577
651.109
656.957
690.349
668.095
726.042
742.449
700.298
630.84
641.137
633.82
686.788
719.309
728.389
566.103
655.048
676.993
657.042
627.318
625.032
625.206
587.62
648.214
610.215
720.215
687.488
676.534
600.769
610.814
662.777
743.824
766.471
835.993
575.221
572.832
725.955
608.821
540.558
534.594
594.319
550.172
597.33
599.383
574.533
554.539
634.157
723.609
556.838
583.905
543.442
599.601
566.083
499.759
505.983
564.096
594.446
745.066
681.49
693.316
589.346
592.416
558.716
528.077
548.762
540.821
537.06
572.539
531.147
589.809
519.147
679.958
468.61
530.078
557.938
565.772
494.467
524.177
533.823
533.858
626.032
530.26
593.583
570.453
572.953
553.216
552.586
517.409
520.014
455.895
410.463
532.622
671.663
626.508
586.984
655.309
569.434
509.921
507.847
418.682
455.752
581.828
217.176
525.163
672.588
542.539
803.647
575.3
632.2
637.908
657.242
599.954
498.273
569.302
573.098
569.736
561.566
646.241
560.308
598.841
575.618
650.665
461.555
481.043
438.931
557.456
505.744
418.864
454.189
516.279
632.551
702.844
712.392
693.01
628.625
618.082
551.588
585.181
373.425
447.988
370.432
564.428
524.697
731.537
593.236
771.506
452.46
470.328
614.562
722.759
526.216
465.104
654.519
515.771
592.012
710.178
771.652
533.284
666.583
504.158
387.266
506.173
381.829
221.772
627.525
485.796
747.061
442.282
637.653
861.226
857.905
740.266
930.228
849.11
410.112
395.034
341.156
667.453
456.939
601.179
346.188
296.299
451.412
841.998
706.213
676.982
571.727
461.274
729.869
643.343
508.84
608.814
646.793
537.081
549.901
228.055
385.012
242.596
618.927
736.228
348.5
506.521
439.243
654.489
511.768
432.979
327.679
473.381
246.155
497.68
305.079
523.072
505.657
540.17
535.609
477.51
584.302
485.071
536.652
578.776
557.501
508.654
507.128
478.31
523.744
556.652
537.193
546.678
527.623
532.07
492.631
596.344
575.7
523.697
529.955
562.073
545.709
564.796
291.501
506.378
379.485
607.793
667.813
581.517
420.945
546.169
607.2
554.616
840.185
625.611
638.141
815.802
746.694
506.756
653.686
447.685
669.393
545.906
501.377
657.932
616.451
536.166
564.319
473.13
515.981
609.57
549.095
751.045
522.476
362.426
481.087
511.355
616.542
588.262
577.247
690.407
762.733
352.532
441.481
443.353
524.221
464.605
497.408
527.856
448.81
526.038
494.502
670.394
394.576
421.104
414.215
564.823
504.032
541.542
422.251
322.643
735.39
509.82
382.833
434.998
439.521
390.874
481.177
414.872
399.489
345.45
553.966
772.078
360.36
709.525
388.684
617.885
856.839
689.624
693.674
893.477
611.984
717
620.78
607.125
290.787
214.019
563.721
331.617
521.322
309.909
756.859
310.066
343.702
422.219
354.702
426.956
551.821
764.081
469.975
476.093
496.857
807.923
445.533
652.232
550.045
457.048
454.543
878.833
719.311
857.863
261.492
770.996
320.298
449.76
571.989
550.12
648.094
564.208
821.76
588.69
684.777
982.846
556.147
499.777
574.02
539.248
436.301
376.362
344.622
843.791
618.82
668.022
717.121
752.699
713.548
691.922
544.022
476.228
437.917
402.906
529.3
683.618
602.294
431.443
455.019
563.405
534.656
690.151
548.202
608.634
449.326
591.322
460.382
584.627
658.459
600.445
559.497
524.955
657.881
676.411
766.214
565.656
707.714
827.115
653.966
815.82
594.274
665.408
404.104
757.428
626.089
415.807
442.29
339.96
580.01
292.602
326.664
531.39
498.551
432.159
444.503
557.631
790.127
900.768
873.1
775.094
615.992
661.76
635.665
682.556
750.862
461.325
271.806
480.086
508.704
686.551
535.977
714.698
593.154
402.409
249.157
565.725
350.15
564.141
481.709
708.324
541.882
434.393
419.176
603.821
525.608
591.185
534.752
551.517
617.833
448.156
535.719
490.147
433.163
671.277
482.427
526.206
SCALARS SignedDistance double 1
LOOKUP_TABLE default
38.8685
38.8398
40.2602
41.9653
45.8235
40.141
42.3898
44.3269
49.7818
48.0847
49.0586
48.0455
45.0148
40.5465
35.001
35.3818
36.1822
39.6635
39.4817
47.4385
46.9143
50.459
40.5752
44.0236
51.4139
45.122
54.0864
49.2842
42.6922
46.4529
47.8549
49.1308
49.0812
50.3971
43.2845
44.3709
44.9348
43.9639
48.008
47.55
54.3237
50.8398
39.0669
37.1931
36.446
44.6905
41.5103
44.4049
36.5245
38.8177
40.431
37.2729
36.3278
36.0052
34.3296
36.3606
37.405
36.8943
36.9798
38.1464
38.2227
36.827
42.3601
40.1705
42.3724
41.6109
41.8751
45.4353
43.5886
49.6947
46.3594
49.0691
45.901
52.7255
48.444
48.2335
47.0421
37.9061
39.9049
40.462
38.2336
45.3946
41.3876
45.1376
42.9226
41.5267
47.2488
45.2802
47.483
46.0673
46.8802
51.1814
47.0331
50.7264
52.9521
45.1319
52.6775
47.9327
48.9613
48.8796
43.6889
44.8386
43.423
46.3657
48.5614
43.7012
45.2885
41.9776
41.7409
50.0225
46.3421
49.7732
47.5082
44.4539
41.5686
47.8757
49.1913
52.4881
46.7268
43.8058
46.5838
35.4175
34.7995
48.262
44.3141
34.7653
33.5571
40.1013
36.3125
41.7585
38.7278
36.8571
41.6187
46.3116
42.0348
54.682
50.966
44.4202
44.5101
50.2053
47.9906
50.0721
49.117
53.0714
53.1065
51.396
47.6123
45.927
45.2442
43.8688
44.6516
43.8691
48.5943
43.7494
50.5448
47.2694
49.5625
47.1712
45.1449
48.1164
47.6924
45.7734
38.0408
36.8211
37.6096
38.6856
37.752
40.8497
35.5856
36.5944
36.0075
46.1567
44.0138
46.8439
41.7817
42.9001
43.3226
45.0136
43.3942
42.7276
38.073
38.7104
41.043
36.6277
37.8362
35.5227
40.7537
39.4936
40.0578
39.2458
39.6825
37.6107
36.8592
37.598
34.435
34.666
37.5369
37.3498
36.516
38.195
36.832
34.5584
36.0289
35.575
36.049
34.289
37.4752
36.6579
38.367
36.5079
37.3756
37.4805
35.8181
34.7565
34.5029
33.7897
34.0129
36.5962
36.8131
38.3814
37.7748
36.6149
38.5815
37.4477
38.06
38.479
37.4506
38.2776
37.8042
38.7012
36.6123
37.7452
44.6642
42.9009
44.7678
39.3842
41.228
40.8345
40.8284
41.2625
39.2837
36.8115
38.5126
38.4488
39.5736
40.1805
39.8877
39.1331
44.6074
41.8879
44.1992
44.6532
44.7273
46.2081
45.8668
46.4503
42.4072
41.1728
50.0986
48.9122
48.1722
46.8662
48.0256
48.4134
48.6621
46.5811
46.0195
42.6022
45.5134
44.3483
40.3087
45.1619
41.9808
41.9565
46.6144
49.9662
50.9556
49.4449
49.3349
51.3989
48.983
47.7982
48.4146
46.4788
47.6451
47.8023
50.9338
49.2297
50.0653
47.4511
48.5528
47.8123
38.5676
39.4656
35.8769
36.7923
40.6229
38.5375
39.2904
39.7227
38.2665
40.2227
38.9485
40.3085
36.4897
35.8194
46.3185
45.731
46.6519
41.9344
44.0169
44.788
43.1898
43.7174
41.589
37.6858
40.0498
40.0663
39.8391
40.5884
42.8489
41.2665
42.7661
41.8667
44.0105
47.6045
46.465
46.4653
46.2964
48.6488
44.9236
44.182
50.3953
50.3763
46.7163
45.6043
46.0599
46.6952
51.4851
49.7757
48.2061
44.6938
45.5303
45.0652
46.7822
46.2419
50.022
50.0012
52.2793
47.7828
53.8611
49.7918
50.6606
55.9859
52.3664
48.9247
53.6087
51.9188
43.8721
45.248
42.8574
51.3586
47.456
46.104
48.5673
47.7295
53.1802
52.8585
55.9702
54.9221
48.2733
48.5273
50.1522
48.9806
46.9048
47.8505
48.2134
46.387
45.7311
43.4314
44.1804
43.6684
46.8524
48.733
42.8868
48.1498
46.2621
47.2622
47.7445
45.0555
43.6332
47.0896
43.4802
46.7732
43.9866
47.1824
44.018
45.0451
41.1205
42.3951
47.2739
45.1552
45.6702
39.8243
39.5314
44.8445
42.0409
44.9061
39.1423
39.8986
49.0738
49.1115
50.1444
46.529
47.9876
49.2252
48.384
47.6128
47.2814
42.7708
45.0272
45.7888
46.4587
45.2163
41.2126
44.9189
45.3073
46.0827
41.4812
45.1816
44.9794
48.0596
50.2601
48.3136
50.6003
52.4961
48.6944
54.823
55.5721
49.8448
44.9217
44.2065
46.6866
45.4908
44.8149
45.5824
49.161
44.9217
46.2547
44.9272
45.6242
43.547
38.0359
37.485
38.3051
37.4102
39.9189
35.9263
39.6944
44.8841
48.2701
43.7947
49.0615
48.5286
46.9553
43.2334
37.1315
36.1422
39.3591
36.809
35.907
41.746
41.2914
36.2645
38.4669
39.0019
38.4913
34.1967
36.7672
40.8802
38.7697
35.0853
44.138
38.2587
40.7482
38.39
35.3158
39.1597
36.0055
40.7375
34.9956
39.279
41.8829
41.8466
41.8649
45.851
51.7419
52.9491
52.9331
52.0923
45.9974
36.902
40.6523
40.7912
48.0056
47.4843
52.2765
49.5706
51.0035
51.5667
54.3784
42.9203
41.8359
46.0478
43.8172
46.2502
42.6494
53.7589
50.6674
50.2424
49.981
48.9667
48.753
49.6482
48.4525
48.9267
48.0374
54.418
46.4041
51.49
50.5113
50.4735
50.2391
47.9279
49.917
50.4614
51.9912
50.9215
52.8619
51.6929
53.4844
54.7771
47.2121
48.1924
55.6944
51.3083
49.2183
48.1782
49.0403
55.974
52.4481
54.8906
50.5209
47.5016
48.9703
46.5844
46.1255
46.5389
43.3507
44.8507
46.5157
46.5545
40.3386
44.0507
42.128
40.967
42.2846
45.3923
44.8015
45.679
43.9441
44.93
44.0756
45.1881
45.2476
44.1022
46.4215
44.938
45.5899
46.3205
47.2907
47.8293
52.0077
52.2951
51.9189
44.0089
45.2159
43.8904
41.6864
52.5132
43.0439
42.7796
44.3615
43.3972
51.9083
49.2043
44.8215
46.4908
49.6385
47.1032
47.9349
48.677
49.3003
53.1615
52.3208
45.1972
48.9209
47.7568
49.2627
49.6309
50.7039
47.6627
44.0681
47.9476
47.6009
46.9831
46.4444
49.6411
47.8258
43.9715
43.9301
48.1645
45.2116
47.6217
47.2596
48.7183
48.8003
47.5822
47.7817
51.4403
48.5022
49.1821
51.1479
49.8682
40.1337
45.8576
41.6209
42.4356
46.7034
48.4228
48.037
47.8073
