# vtk DataFile Version 4.2
vtk output
ASCII
DATASET POLYDATA
POINTS 642 double
-nan(ind) -nan(ind) -nan(ind)
-nan(ind) -nan(ind) -nan(ind)
-nan(ind) -nan(ind) -nan(ind)
-nan(ind) -nan(ind) -nan(ind)
-nan(ind) -nan(ind) -nan(ind)
-nan(ind) -nan(ind) -nan(ind)
-nan(ind) -nan(ind) -nan(ind)
-nan(ind) -nan(ind) -nan(ind)
-nan(ind) -nan(ind) -nan(ind)
-nan(ind) -nan(ind) -nan(ind)
-nan(ind) -nan(ind) -nan(ind)
-nan(ind) -nan(ind) -nan(ind)
-nan(ind) -nan(ind) -nan(ind)
-nan(ind) -nan(ind) -nan(ind)
-nan(ind) -nan(ind) -nan(ind)
-nan(ind) -nan(ind) -nan(ind)
-nan(ind) -nan(ind) -nan(ind)
-nan(ind) -nan(ind) -nan(ind)
-nan(ind) -nan(ind) -nan(ind)
-nan(ind) -nan(ind) -nan(ind)
-nan(ind) -nan(ind) -nan(ind)
-nan(ind) -nan(ind) -nan(ind)
-nan(ind) -nan(ind) -nan(ind)
-nan(ind) -nan(ind) -nan(ind)
-nan(ind) -nan(ind) -nan(ind)
-nan(ind) -nan(ind) -nan(ind)
-nan(ind) -nan(ind) -nan(ind)
-nan(ind) -nan(ind) -nan(ind)
-nan(ind) -nan(ind) -nan(ind)
-nan(ind) -nan(ind) -nan(ind)
-nan(ind) -nan(ind) -nan(ind)
-nan(ind) -nan(ind) -nan(ind)
-nan(ind) -nan(ind) -nan(ind)
-nan(ind) -nan(ind) -nan(ind)
-nan(ind) -nan(ind) -nan(ind)
-nan(ind) -nan(ind) -nan(ind)
-nan(ind) -nan(ind) -nan(ind)
-nan(ind) -nan(ind) -nan(ind)
-nan(ind) -nan(ind) -nan(ind)
-nan(ind) -nan(ind) -nan(ind)
-nan(ind) -nan(ind) -nan(ind)
-nan(ind) -nan(ind) -nan(ind)
-nan(ind) -nan(ind) -nan(ind)
-nan(ind) -nan(ind) -nan(ind)
-nan(ind) -nan(ind) -nan(ind)
-nan(ind) -nan(ind) -nan(ind)
-nan(ind) -nan(ind) -nan(ind)
-nan(ind) -nan(ind) -nan(ind)
-nan(ind) -nan(ind) -nan(ind)
-nan(ind) -nan(ind) -nan(ind)
-nan(ind) -nan(ind) -nan(ind)
-nan(ind) -nan(ind) -nan(ind)
-nan(ind) -nan(ind) -nan(ind)
-nan(ind) -nan(ind) -nan(ind)
-nan(ind) -nan(ind) -nan(ind)
-nan(ind) -nan(ind) -nan(ind)
-nan(ind) -nan(ind) -nan(ind)
-nan(ind) -nan(ind) -nan(ind)
-nan(ind) -nan(ind) -nan(ind)
-nan(ind) -nan(ind) -nan(ind)
-nan(ind) -nan(ind) -nan(ind)
-nan(ind) -nan(ind) -nan(ind)
-nan(ind) -nan(ind) -nan(ind)
-nan(ind) -nan(ind) -nan(ind)
-nan(ind) -nan(ind) -nan(ind)
-nan(ind) -nan(ind) -nan(ind)
-nan(ind) -nan(ind) -nan(ind)
-nan(ind) -nan(ind) -nan(ind)
-nan(ind) -nan(ind) -nan(ind)
-nan(ind) -nan(ind) -nan(ind)
-nan(ind) -nan(ind) -nan(ind)
-nan(ind) -nan(ind) -nan(ind)
-nan(ind) -nan(ind) -nan(ind)
-nan(ind) -nan(ind) -nan(ind)
-nan(ind) -nan(ind) -nan(ind)
-nan(ind) -nan(ind) -nan(ind)
-nan(ind) -nan(ind) -nan(ind)
-nan(ind) -nan(ind) -nan(ind)
-nan(ind) -nan(ind) -nan(ind)
-nan(ind) -nan(ind) -nan(ind)
-nan(ind) -nan(ind) -nan(ind)
-nan(ind) -nan(ind) -nan(ind)
-nan(ind) -nan(ind) -nan(ind)
-nan(ind) -nan(ind) -nan(ind)
-nan(ind) -nan(ind) -nan(ind)
-nan(ind) -nan(ind) -nan(ind)
-nan(ind) -nan(ind) -nan(ind)
-nan(ind) -nan(ind) -nan(ind)
-nan(ind) -nan(ind) -nan(ind)
-nan(ind) -nan(ind) -nan(ind)
-nan(ind) -nan(ind) -nan(ind)
-nan(ind) -nan(ind) -nan(ind)
-nan(ind) -nan(ind) -nan(ind)
-nan(ind) -nan(ind) -nan(ind)
-nan(ind) -nan(ind) -nan(ind)
-nan(ind) -nan(ind) -nan(ind)
-nan(ind) -nan(ind) -nan(ind)
-nan(ind) -nan(ind) -nan(ind)
-nan(ind) -nan(ind) -nan(ind)
-nan(ind) -nan(ind) -nan(ind)
-nan(ind) -nan(ind) -nan(ind)
-nan(ind) -nan(ind) -nan(ind)
-nan(ind) -nan(ind) -nan(ind)
-nan(ind) -nan(ind) -nan(ind)
-nan(ind) -nan(ind) -nan(ind)
-nan(ind) -nan(ind) -nan(ind)
-nan(ind) -nan(ind) -nan(ind)
-nan(ind) -nan(ind) -nan(ind)
-nan(ind) -nan(ind) -nan(ind)
-nan(ind) -nan(ind) -nan(ind)
-nan(ind) -nan(ind) -nan(ind)
-nan(ind) -nan(ind) -nan(ind)
-nan(ind) -nan(ind) -nan(ind)
-nan(ind) -nan(ind) -nan(ind)
-nan(ind) -nan(ind) -nan(ind)
-nan(ind) -nan(ind) -nan(ind)
-nan(ind) -nan(ind) -nan(ind)
-nan(ind) -nan(ind) -nan(ind)
-nan(ind) -nan(ind) -nan(ind)
-nan(ind) -nan(ind) -nan(ind)
-nan(ind) -nan(ind) -nan(ind)
-nan(ind) -nan(ind) -nan(ind)
-nan(ind) -nan(ind) -nan(ind)
-nan(ind) -nan(ind) -nan(ind)
-nan(ind) -nan(ind) -nan(ind)
-nan(ind) -nan(ind) -nan(ind)
-nan(ind) -nan(ind) -nan(ind)
-nan(ind) -nan(ind) -nan(ind)
-nan(ind) -nan(ind) -nan(ind)
-nan(ind) -nan(ind) -nan(ind)
-nan(ind) -nan(ind) -nan(ind)
-nan(ind) -nan(ind) -nan(ind)
-nan(ind) -nan(ind) -nan(ind)
-nan(ind) -nan(ind) -nan(ind)
-nan(ind) -nan(ind) -nan(ind)
-nan(ind) -nan(ind) -nan(ind)
-nan(ind) -nan(ind) -nan(ind)
-nan(ind) -nan(ind) -nan(ind)
-nan(ind) -nan(ind) -nan(ind)
-nan(ind) -nan(ind) -nan(ind)
-nan(ind) -nan(ind) -nan(ind)
-nan(ind) -nan(ind) -nan(ind)
-nan(ind) -nan(ind) -nan(ind)
-nan(ind) -nan(ind) -nan(ind)
-nan(ind) -nan(ind) -nan(ind)
-nan(ind) -nan(ind) -nan(ind)
-nan(ind) -nan(ind) -nan(ind)
-nan(ind) -nan(ind) -nan(ind)
-nan(ind) -nan(ind) -nan(ind)
-nan(ind) -nan(ind) -nan(ind)
-nan(ind) -nan(ind) -nan(ind)
-nan(ind) -nan(ind) -nan(ind)
-nan(ind) -nan(ind) -nan(ind)
-nan(ind) -nan(ind) -nan(ind)
-nan(ind) -nan(ind) -nan(ind)
-nan(ind) -nan(ind) -nan(ind)
-nan(ind) -nan(ind) -nan(ind)
-nan(ind) -nan(ind) -nan(ind)
-nan(ind) -nan(ind) -nan(ind)
-nan(ind) -nan(ind) -nan(ind)
-nan(ind) -nan(ind) -nan(ind)
-nan(ind) -nan(ind) -nan(ind)
-nan(ind) -nan(ind) -nan(ind)
-nan(ind) -nan(ind) -nan(ind)
-nan(ind) -nan(ind) -nan(ind)
-nan(ind) -nan(ind) -nan(ind)
-nan(ind) -nan(ind) -nan(ind)
-nan(ind) -nan(ind) -nan(ind)
-nan(ind) -nan(ind) -nan(ind)
-nan(ind) -nan(ind) -nan(ind)
-nan(ind) -nan(ind) -nan(ind)
-nan(ind) -nan(ind) -nan(ind)
-nan(ind) -nan(ind) -nan(ind)
-nan(ind) -nan(ind) -nan(ind)
-nan(ind) -nan(ind) -nan(ind)
-nan(ind) -nan(ind) -nan(ind)
-nan(ind) -nan(ind) -nan(ind)
-nan(ind) -nan(ind) -nan(ind)
-nan(ind) -nan(ind) -nan(ind)
-nan(ind) -nan(ind) -nan(ind)
-nan(ind) -nan(ind) -nan(ind)
-nan(ind) -nan(ind) -nan(ind)
-nan(ind) -nan(ind) -nan(ind)
-nan(ind) -nan(ind) -nan(ind)
-nan(ind) -nan(ind) -nan(ind)
-nan(ind) -nan(ind) -nan(ind)
-nan(ind) -nan(ind) -nan(ind)
-nan(ind) -nan(ind) -nan(ind)
-nan(ind) -nan(ind) -nan(ind)
-nan(ind) -nan(ind) -nan(ind)
-nan(ind) -nan(ind) -nan(ind)
-nan(ind) -nan(ind) -nan(ind)
-nan(ind) -nan(ind) -nan(ind)
-nan(ind) -nan(ind) -nan(ind)
-nan(ind) -nan(ind) -nan(ind)
-nan(ind) -nan(ind) -nan(ind)
-nan(ind) -nan(ind) -nan(ind)
-nan(ind) -nan(ind) -nan(ind)
-nan(ind) -nan(ind) -nan(ind)
-nan(ind) -nan(ind) -nan(ind)
-nan(ind) -nan(ind) -nan(ind)
-nan(ind) -nan(ind) -nan(ind)
-nan(ind) -nan(ind) -nan(ind)
-nan(ind) -nan(ind) -nan(ind)
-nan(ind) -nan(ind) -nan(ind)
-nan(ind) -nan(ind) -nan(ind)
-nan(ind) -nan(ind) -nan(ind)
-nan(ind) -nan(ind) -nan(ind)
-nan(ind) -nan(ind) -nan(ind)
-nan(ind) -nan(ind) -nan(ind)
-nan(ind) -nan(ind) -nan(ind)
-nan(ind) -nan(ind) -nan(ind)
-nan(ind) -nan(ind) -nan(ind)
-nan(ind) -nan(ind) -nan(ind)
-nan(ind) -nan(ind) -nan(ind)
-nan(ind) -nan(ind) -nan(ind)
-nan(ind) -nan(ind) -nan(ind)
-nan(ind) -nan(ind) -nan(ind)
-nan(ind) -nan(ind) -nan(ind)
-nan(ind) -nan(ind) -nan(ind)
-nan(ind) -nan(ind) -nan(ind)
-nan(ind) -nan(ind) -nan(ind)
-nan(ind) -nan(ind) -nan(ind)
-nan(ind) -nan(ind) -nan(ind)
-nan(ind) -nan(ind) -nan(ind)
-nan(ind) -nan(ind) -nan(ind)
-nan(ind) -nan(ind) -nan(ind)
-nan(ind) -nan(ind) -nan(ind)
-nan(ind) -nan(ind) -nan(ind)
-nan(ind) -nan(ind) -nan(ind)
-nan(ind) -nan(ind) -nan(ind)
-nan(ind) -nan(ind) -nan(ind)
-nan(ind) -nan(ind) -nan(ind)
-nan(ind) -nan(ind) -nan(ind)
-nan(ind) -nan(ind) -nan(ind)
-nan(ind) -nan(ind) -nan(ind)
-nan(ind) -nan(ind) -nan(ind)
-nan(ind) -nan(ind) -nan(ind)
-nan(ind) -nan(ind) -nan(ind)
-nan(ind) -nan(ind) -nan(ind)
-nan(ind) -nan(ind) -nan(ind)
-nan(ind) -nan(ind) -nan(ind)
-nan(ind) -nan(ind) -nan(ind)
-nan(ind) -nan(ind) -nan(ind)
-nan(ind) -nan(ind) -nan(ind)
-nan(ind) -nan(ind) -nan(ind)
-nan(ind) -nan(ind) -nan(ind)
-nan(ind) -nan(ind) -nan(ind)
-nan(ind) -nan(ind) -nan(ind)
-nan(ind) -nan(ind) -nan(ind)
-nan(ind) -nan(ind) -nan(ind)
-nan(ind) -nan(ind) -nan(ind)
-nan(ind) -nan(ind) -nan(ind)
-nan(ind) -nan(ind) -nan(ind)
-nan(ind) -nan(ind) -nan(ind)
-nan(ind) -nan(ind) -nan(ind)
-nan(ind) -nan(ind) -nan(ind)
-nan(ind) -nan(ind) -nan(ind)
-nan(ind) -nan(ind) -nan(ind)
-nan(ind) -nan(ind) -nan(ind)
-nan(ind) -nan(ind) -nan(ind)
-nan(ind) -nan(ind) -nan(ind)
-nan(ind) -nan(ind) -nan(ind)
-nan(ind) -nan(ind) -nan(ind)
-nan(ind) -nan(ind) -nan(ind)
-nan(ind) -nan(ind) -nan(ind)
-nan(ind) -nan(ind) -nan(ind)
-nan(ind) -nan(ind) -nan(ind)
-nan(ind) -nan(ind) -nan(ind)
-nan(ind) -nan(ind) -nan(ind)
-nan(ind) -nan(ind) -nan(ind)
-nan(ind) -nan(ind) -nan(ind)
-nan(ind) -nan(ind) -nan(ind)
-nan(ind) -nan(ind) -nan(ind)
-nan(ind) -nan(ind) -nan(ind)
-nan(ind) -nan(ind) -nan(ind)
-nan(ind) -nan(ind) -nan(ind)
-nan(ind) -nan(ind) -nan(ind)
-nan(ind) -nan(ind) -nan(ind)
-nan(ind) -nan(ind) -nan(ind)
-nan(ind) -nan(ind) -nan(ind)
-nan(ind) -nan(ind) -nan(ind)
-nan(ind) -nan(ind) -nan(ind)
-nan(ind) -nan(ind) -nan(ind)
-nan(ind) -nan(ind) -nan(ind)
-nan(ind) -nan(ind) -nan(ind)
-nan(ind) -nan(ind) -nan(ind)
-nan(ind) -nan(ind) -nan(ind)
-nan(ind) -nan(ind) -nan(ind)
-nan(ind) -nan(ind) -nan(ind)
-nan(ind) -nan(ind) -nan(ind)
-nan(ind) -nan(ind) -nan(ind)
-nan(ind) -nan(ind) -nan(ind)
-nan(ind) -nan(ind) -nan(ind)
-nan(ind) -nan(ind) -nan(ind)
-nan(ind) -nan(ind) -nan(ind)
-nan(ind) -nan(ind) -nan(ind)
-nan(ind) -nan(ind) -nan(ind)
-nan(ind) -nan(ind) -nan(ind)
-nan(ind) -nan(ind) -nan(ind)
-nan(ind) -nan(ind) -nan(ind)
-nan(ind) -nan(ind) -nan(ind)
-nan(ind) -nan(ind) -nan(ind)
-nan(ind) -nan(ind) -nan(ind)
-nan(ind) -nan(ind) -nan(ind)
-nan(ind) -nan(ind) -nan(ind)
-nan(ind) -nan(ind) -nan(ind)
-nan(ind) -nan(ind) -nan(ind)
-nan(ind) -nan(ind) -nan(ind)
-nan(ind) -nan(ind) -nan(ind)
-nan(ind) -nan(ind) -nan(ind)
-nan(ind) -nan(ind) -nan(ind)
-nan(ind) -nan(ind) -nan(ind)
-nan(ind) -nan(ind) -nan(ind)
-nan(ind) -nan(ind) -nan(ind)
-nan(ind) -nan(ind) -nan(ind)
-nan(ind) -nan(ind) -nan(ind)
-nan(ind) -nan(ind) -nan(ind)
-nan(ind) -nan(ind) -nan(ind)
-nan(ind) -nan(ind) -nan(ind)
-nan(ind) -nan(ind) -nan(ind)
-nan(ind) -nan(ind) -nan(ind)
-nan(ind) -nan(ind) -nan(ind)
-nan(ind) -nan(ind) -nan(ind)
-nan(ind) -nan(ind) -nan(ind)
-nan(ind) -nan(ind) -nan(ind)
-nan(ind) -nan(ind) -nan(ind)
-nan(ind) -nan(ind) -nan(ind)
-nan(ind) -nan(ind) -nan(ind)
-nan(ind) -nan(ind) -nan(ind)
[...]
POINT_DATA 642
SCALARS Mean_Curvature double 1
LOOKUP_TABLE default
127.942
134.839
-nan(ind)
-nan(ind)
196.427
117.659
-nan(ind)
243.375
199.707
244.931
189.533
248.419
207.691
184.114
63.5921
84.4467
88.4326
182.107
179.647
222.115
240.709
228.613
183.242
194.736
217.5
217.715
146.333
167.549
177.95
156.023
234.608
225.42
171.162
216.25
156.317
146.35
-nan(ind)
140.156
137.561
154.477
150.263
231.576
157.646
125.593
88.0817
233.265
187.357
241.189
80.6158
112.3
135.601
59.5827
92.5781
91.5404
61.2709
106.885
73.7112
103.875
122.897
145.097
150.867
129.079
221.76
171.964
222.2
208.288
186.294
236.974
231.388
231.356
238.31
202.553
228.413
205.977
251.386
251.232
243.282
129.382
154.389
143.217
123.572
233.562
180.046
225.005
199.454
170.942
233.135
230.712
221.992
230.234
204.873
188.984
211.116
159.022
167.939
150.001
153.881
138.378
179.77
164.207
215.917
198.175
150.186
165.926
155.666
231.529
238.432
181.39
205.442
209.663
239.506
233.899
150.963
161.041
-nan(ind)
230.979
191.962
214.421
172.168
178.48
203.951
-nan(ind)
-nan(ind)
172.559
154.697
-nan(ind)
-nan(ind)
-nan(ind)
-nan(ind)
-nan(ind)
-nan(ind)
-nan(ind)
139.937
138.101
141.723
140.64
145.896
147.511
141.575
169.733
149.05
171.381
158.203
212.538
179.098
196.443
243.139
228.99
226.766
201.278
161
178.723
190.206
145.181
142.83
147.395
182.409
164.405
198.723
249.053
250.661
218.501
138.87
120.618
109.115
167.341
141.104
181.248
71.0194
102.006
87.67
245.722
237.43
249.099
183.125
214.083
210.994
226.614
220.784
196.213
99.4305
104.539
123.471
82.4839
89.061
67.3092
156.37
120.656
148.18
156.003
148.743
114.673
85.5484
109.028
56.4859
66.1869
86.0851
72.1351
71.1926
103.596
82.9795
71.3931
73.3523
84.5102
66.2929
56.9054
120.704
102.284
119.642
77.8714
88.0293
95.8879
91.2033
86.2179
75.7835
56.0394
64.0191
63.6532
116.893
134.866
102.587
105.292
159.803
130.423
149.147
141.423
127.513
154.239
138.567
164.076
115.624
107.097
237.465
220.866
237.627
172.935
197.593
201.033
202.179
198.232
175.197
123.316
148.071
145.717
164.463
153.682
191.512
176.52
219.617
197.608
226.315
241.632
238.726
236.35
238.827
230.028
226.064
209.579
208.728
216.685
195.202
241.518
236.459
246.403
211.713
224.167
231.516
220.337
236.126
232.187
172.694
236.77
208.735
195.603
217.698
196.008
221.428
243.83
233.554
217.242
243.563
250.054
251.415
247.431
234.617
246.534
237.056
251.835
249.426
248.528
253.641
242.629
126.711
142.006
103.412
112.922
172.236
140.534
160.579
128.52
114.982
152.437
131.008
161.09
104.534
100.311
243.133
228.256
239.122
185.343
209.092
216.646
205.114
205.264
179.398
123.135
149.799
152.846
153.183
141.168
189.919
169.19
198.933
183.845
209.782
242.075
241.713
231.481
236.793
224.575
231.177
212.948
208.719
214.58
200.202
226.287
227.478
229.1
210.38
220.748
226.671
217.169
230.854
222.058
227.827
235.463
208.994
219.303
186.312
200.355
175.059
173.737
177.231
152.538
161.695
149.762
186.28
197.245
94.2359
125.78
-nan(ind)
160.305
151.913
157.428
145.577
148.112
149.226
177.705
158.108
165.866
181.207
175.25
199.763
189.726
158.624
171.122
165.169
234.517
226.003
187.257
207.059
196.64
218.426
210.114
106.072
152.787
134.926
160.799
156.405
152.921
165.525
160.473
171.751
189.347
179.716
172.409
239.069
242.223
209.819
226.363
232.371
239.623
238.423
155.064
165.198
220.846
193.467
211.624
177.092
192.002
204.093
222.574
215.964
235.003
228.877
216.901
244.882
238.496
238.922
218.956
229.627
236.318
97.7688
122.707
-nan(ind)
165.255
155.308
159.055
132.908
144.411
158.187
239.11
223.041
234.764
204.429
213.089
222.828
191.265
202.199
180.522
184.35
186.945
199.891
165.172
174.521
162.922
209.271
191.227
196.721
173.523
184.238
168.63
-nan(ind)
-nan(ind)
130.23
-nan(ind)
-nan(ind)
-nan(ind)
-nan(ind)
184.43
171.671
152.61
162.389
163.442
162.177
155.463
-nan(ind)
-nan(ind)
-nan(ind)
-nan(ind)
-nan(ind)
-nan(ind)
120.341
-nan(ind)
125.095
128.999
121.75
-nan(ind)
-nan(ind)
-nan(ind)
-nan(ind)
-nan(ind)
120.822
-nan(ind)
116.7
-nan(ind)
-nan(ind)
118.075
-nan(ind)
122.328
-nan(ind)
-nan(ind)
111.313
140.585
139.721
137.548
138.24
137.929
140.353
139.134
139.053
-nan(ind)
121.518
120.502
106.694
82.7417
138.587
132.075
146.247
142.39
144.162
135.255
143.16
146.679
144.088
149.935
140.057
138.519
184.988
169.267
185.263
148.657
156.997
157.846
161.091
158.184
151.149
140.303
144.421
143.45
141.893
153.522
149.314
153.462
164.384
205.138
188.854
204.18
195.522
221.747
173.175
161.188
228.86
245.315
181.609
205.757
238.684
222.247
213.874
166.53
187.191
173.502
213.876
224.566
219.31
226.828
226.245
236.265
209.65
225.206
232.811
228.517
157.174
210.987
186.709
173.246
190.978
228.469
215.774
221.667
115.353
158.639
139.182
155.219
163.922
187.394
197.095
191.809
175.028
165.618
222.42
177.588
199.048
212.296
204.076
168.659
183.82
172.497
145.499
141.813
143.308
147.601
149.743
105.06
144.222
143.833
131.949
141.397
160.02
151.285
153.463
150.225
145.498
143.372
144.547
146.756
189.369
165.795
175.903
195.551
203.349
151.324
171.121
159.25
153.866
158.832
226.58
212.041
219.541
207.213
187.115
172.077
179.357
190.555
247.773
250.076
250.729
241.647
227.28
225.487
246.72
243.721
235.663
245.095
168.2
206.162
185.546
199.134
228.68
252.799
244.585
237.523
SCALARS CoVolArea double 1
LOOKUP_TABLE default
0
0
0
0
0
0
0
0
1.36651e-06
1.26104e-06
1.38364e-06
1.24761e-06
2.83176e-06
2.76398e-06
1.71913e-06
1.69071e-06
1.67707e-06
2.21594e-06
2.26442e-06
3.26785e-06
3.33553e-06
4.11926e-06
2.64611e-06
2.75046e-06
3.59596e-06
2.94502e-06
2.30696e-06
2.55656e-06
1.83223e-06
2.1577e-06
3.08942e-06
3.16624e-06
2.60179e-06
3.57607e-06
0
0
0
0
0
2.28009e-06
2.56399e-06
4.03159e-06
1.94353e-06
2.22035e-06
1.31894e-06
2.80331e-06
2.83377e-06
2.88406e-06
1.31071e-06
2.2295e-06
1.92064e-06
1.6628e-06
1.04102e-06
1.04233e-06
1.62812e-06
1.02372e-06
1.6435e-06
1.29389e-06
1.9233e-06
1.75713e-06
1.71016e-06
1.90554e-06
2.16782e-06
2.22825e-06
2.13537e-06
2.74991e-06
2.14643e-06
2.39791e-06
2.89239e-06
3.43046e-06
3.48095e-06
3.08924e-06
3.18845e-06
3.67753e-06
4.14386e-06
3.82785e-06
3.0466e-06
2.15319e-06
1.92082e-06
1.84822e-06
2.12246e-06
2.76214e-06
2.72565e-06
2.68807e-06
2.89549e-06
2.05206e-06
3.2287e-06
3.50605e-06
2.87672e-06
3.54073e-06
2.5036e-06
3.75817e-06
3.17069e-06
3.13914e-06
4.01938e-06
0
2.29647e-06
0
2.9756e-06
2.74269e-06
2.09571e-06
2.5103e-06
2.48862e-07
2.03521e-06
1.02437e-06
2.79283e-06
2.34375e-06
2.04546e-06
2.6081e-06
3.03058e-06
3.28873e-06
3.23257e-06
0
1.20081e-06
0
3.22876e-06
3.19797e-06
3.3059e-06
1.04261e-06
2.27943e-06
2.50822e-06
0
0
5.48136e-07
0
0
0
0
0
0
0
0
0
0
0
9.01538e-07
0
2.57468e-07
1.42729e-06
3.2009e-06
2.62135e-06
2.8512e-06
2.48102e-06
3.54824e-06
4.07033e-06
3.83288e-06
3.11154e-06
3.5166e-06
3.38087e-06
2.84006e-06
1.15063e-06
2.22199e-06
3.15238e-06
1.11979e-06
5.82143e-07
2.45554e-06
3.06154e-06
2.11804e-06
2.53995e-06
3.59528e-06
3.81412e-06
3.01495e-06
5.5745e-07
1.4117e-06
2.46673e-07
2.52058e-06
2.04521e-06
2.40054e-06
1.65753e-06
1.80197e-06
1.93362e-06
2.11572e-06
2.68151e-06
2.12253e-06
2.79823e-06
2.83523e-06
2.8776e-06
2.97949e-06
2.86844e-06
2.82481e-06
2.43295e-07
1.40727e-06
5.50233e-07
1.94045e-06
1.81232e-06
1.65652e-06
2.36713e-06
2.05206e-06
2.51536e-06
2.69801e-06
2.69802e-06
2.36306e-06
7.70925e-07
0
1.65603e-06
1.57225e-06
1.61984e-06
1.56912e-06
1.65776e-06
0
7.60221e-07
1.62979e-06
1.53987e-06
1.62141e-06
1.55263e-06
1.64749e-06
0
7.55403e-07
2.41352e-07
1.64638e-06
1.54403e-06
1.6036e-06
1.6321e-06
1.55019e-06
1.63885e-06
1.73853e-06
1.72683e-06
1.74631e-06
1.07561e-06
5.24764e-07
1.79704e-06
1.67412e-06
2.02584e-06
1.79129e-06
2.07376e-06
5.10037e-07
1.0568e-06
2.04028e-06
1.76363e-06
1.97899e-06
1.6554e-06
1.7895e-06
1.25204e-06
2.03055e-06
1.23849e-06
2.23075e-06
2.18545e-06
2.27571e-06
2.23455e-06
2.17179e-06
2.20152e-06
2.03696e-06
2.18697e-06
2.20276e-06
1.60981e-06
5.99717e-07
2.46393e-06
2.16719e-06
2.76514e-06
2.42211e-06
3.04769e-06
1.30166e-06
2.20146e-06
3.14952e-06
2.6622e-06
2.84732e-06
2.45615e-06
2.57319e-06
2.48196e-06
3.1092e-06
2.30932e-06
3.42947e-06
3.44895e-06
3.54032e-06
3.29159e-06
3.34947e-06
3.41922e-06
3.01752e-06
3.38435e-06
3.35058e-06
1.70141e-06
3.31116e-06
2.58631e-06
2.45155e-06
2.99744e-06
2.53126e-06
3.41415e-06
4.28403e-06
3.97713e-06
4.11317e-06
3.77929e-06
3.76235e-06
2.85425e-06
2.1488e-06
3.32122e-06
3.26451e-06
3.59659e-06
3.46785e-06
4.08024e-06
3.97249e-06
4.32525e-06
3.79219e-06
1.38966e-06
5.51484e-07
1.8839e-06
1.76278e-06
2.35988e-06
2.00734e-06
2.45537e-06
5.34858e-07
1.1193e-06
2.38065e-06
1.94394e-06
2.25726e-06
1.74389e-06
1.8798e-06
2.0818e-06
2.57666e-06
2.07529e-06
2.72785e-06
2.74021e-06
2.85105e-06
2.74397e-06
2.70641e-06
2.67883e-06
2.27346e-06
2.58264e-06
2.60597e-06
1.63901e-06
5.8621e-07
2.83862e-06
2.33988e-06
2.50094e-06
2.37608e-06
2.89971e-06
2.24752e-06
2.85369e-06
3.76837e-06
3.40514e-06
3.59027e-06
3.10069e-06
3.11735e-06
1.51073e-06
2.61875e-06
1.30969e-06
3.2427e-06
3.15757e-06
3.10563e-06
3.08345e-06
3.15467e-06
3.66512e-06
3.43572e-06
3.81634e-06
3.48348e-06
2.92842e-06
2.26453e-06
3.9704e-06
3.40209e-06
3.14505e-06
3.36614e-06
3.25414e-06
2.38908e-06
3.3364e-06
3.18057e-06
3.60607e-06
2.97633e-06
3.99699e-06
4.27439e-06
0
0
0
2.4326e-06
8.68586e-07
1.23381e-06
8.57998e-07
8.17883e-07
2.24109e-06
4.17968e-06
3.41028e-06
3.45106e-06
2.81511e-06
2.23932e-06
3.23183e-06
3.12787e-06
2.52816e-06
2.85811e-06
2.60105e-06
1.27062e-06
2.15253e-06
2.06155e-06
2.19205e-06
1.97358e-06
2.52981e-06
2.98617e-06
0
5.08031e-07
0
2.132e-06
1.39672e-06
1.40922e-06
1.66287e-06
1.62896e-06
1.87797e-06
2.92739e-06
2.38315e-06
2.62281e-06
2.14823e-06
1.27886e-06
2.49548e-06
2.38925e-06
2.7677e-06
2.57926e-06
3.03118e-06
5.78877e-07
1.54543e-06
2.84736e-06
2.28707e-06
2.57217e-06
2.08377e-06
2.37928e-06
2.28371e-06
2.97739e-06
2.39375e-06
3.26761e-06
3.19408e-06
3.20345e-06
3.2978e-06
3.24241e-06
3.21458e-06
2.88582e-06
3.16214e-06
3.23285e-06
0
0
0
2.05361e-06
5.19266e-07
1.27304e-06
0
0
5.21134e-07
2.26821e-06
3.17378e-06
2.35789e-06
3.4383e-06
3.46813e-06
3.56668e-06
3.22655e-06
3.34937e-06
2.87411e-06
7.7068e-07
1.89212e-06
1.3151e-06
8.83313e-07
1.53589e-06
2.45782e-07
3.07781e-06
2.42333e-06
3.03704e-06
2.53682e-06
2.90816e-06
2.02165e-06
0
0
0
0
0
0
0
5.26123e-07
2.39345e-07
0
0
0
0
0
0
0
0
0
0
0
0
0
0
0
0
0
0
0
0
0
0
0
0
0
0
0
0
0
0
0
0
0
0
0
0
0
0
0
0
0
0
0
0
0
5.07838e-07
0
1.21579e-06
2.49096e-07
1.7159e-06
0
0
1.9177e-06
5.29433e-07
1.47822e-06
2.40936e-07
7.644e-07
2.38755e-06
2.85499e-06
2.26658e-06
2.68023e-06
2.95971e-06
3.15979e-06
2.67111e-06
2.76797e-06
2.42581e-06
1.78639e-06
2.21454e-06
2.26483e-06
0
2.4991e-06
9.02317e-07
9.24831e-07
2.52605e-06
2.46827e-06
3.30739e-06
4.17459e-06
3.91822e-06
3.95049e-06
3.67166e-06
3.41945e-06
3.05527e-06
2.19335e-06
3.33418e-06
3.48638e-06
3.63576e-06
3.51985e-06
3.98469e-06
3.6314e-06
4.20618e-06
3.5799e-06
2.62262e-06
3.63137e-06
3.14721e-06
3.15447e-06
3.23242e-06
2.78499e-06
2.99529e-06
2.96936e-06
3.31408e-06
3.69299e-06
1.61873e-06
2.87963e-06
2.3564e-06
2.28053e-06
2.74981e-06
3.73513e-06
3.34127e-06
3.44197e-06
0
4.90987e-07
0
4.98356e-07
2.00275e-06
1.87245e-06
3.02102e-06
2.40045e-06
1.262e-06
8.44404e-07
3.07821e-06
2.8252e-06
3.26456e-06
3.42907e-06
3.42662e-06
1.94077e-06
2.85553e-06
2.47503e-06
0
2.51182e-07
0
5.07774e-07
1.8195e-06
0
1.31508e-06
0
0
0
2.78178e-06
2.28555e-06
2.62959e-06
2.81559e-06
2.46432e-06
1.1804e-06
2.07032e-06
2.07249e-06
2.85684e-06
2.72528e-06
2.96465e-06
3.14233e-06
3.22509e-06
5.18054e-07
1.92507e-06
1.67099e-06
1.45188e-06
2.237e-06
2.13576e-06
2.96693e-06
2.50893e-06
2.19643e-06
2.08708e-06
2.73036e-06
2.45481e-06
2.99172e-06
2.79787e-06
3.9081e-06
3.37908e-06
3.10497e-06
3.16186e-06
3.24098e-06
3.4623e-06
3.51304e-06
3.73688e-06
4.02903e-06
1.65922e-06
2.89767e-06
2.39319e-06
2.45536e-06
3.05875e-06
3.99904e-06
3.65965e-06
3.55496e-06
SCALARS SignedDistance double 1
LOOKUP_TABLE default
1.55758
1.56407
1.55473
1.55795
1.5566
1.56012
1.55586
1.55829
1.56327
1.56526
1.5514
1.55226
1.55508
1.55609
1.55946
1.56301
1.56096
1.5619
1.55788
1.55433
1.5535
1.55079
1.56291
1.56654
1.5538
1.55811
1.55261
1.55297
1.5565
1.55372
1.56552
1.56106
1.5615
1.56046
1.55784
1.55571
1.55626
1.55497
1.55697
1.55857
1.5603
1.56458
1.55654
1.55749
1.55848
1.55367
1.55544
1.55318
1.55983
1.55791
1.55848
1.56028
1.55909
1.56144
1.56124
1.56275
1.56217
1.5638
1.55953
1.55769
1.56331
1.56155
1.55813
1.55991
1.56
1.55577
1.55592
1.55653
1.55599
1.55169
1.55356
1.5524
1.55412
1.55074
1.55156
1.55242
1.55176
1.56485
1.56526
1.56129
1.56309
1.56635
1.56498
1.56445
1.55704
1.55933
1.55263
1.55441
1.55696
1.55565
1.55537
1.55141
1.55193
1.55149
1.5511
1.55408
1.55268
1.55392
1.5536
1.55229
1.55733
1.55547
1.55499
1.55498
1.55602
1.56179
1.55948
1.56494
1.56381
1.5625
1.56363
1.56481
1.55906
1.55929
1.55787
1.56329
1.56133
1.56416
1.55729
1.55885
1.55804
1.55691
1.55714
1.55608
1.55673
1.55542
1.55597
1.55512
1.55658
1.55751
1.55482
1.55562
1.55635
1.55593
1.55534
1.55827
1.55874
1.55685
1.55758
1.56219
1.55958
1.56105
1.56084
1.56473
1.5634
1.56431
1.56575
1.55929
1.56213
1.56059
1.55453
1.55475
1.5531
1.55429
1.55396
1.55288
1.55984
1.55749
1.55843
1.56651
1.56563
1.56647
1.55717
1.55755
1.55795
1.55636
1.557
1.55583
1.55905
1.55807
1.55852
1.55275
1.55339
1.55253
1.55572
1.55452
1.55483
1.5541
1.55427
1.55525
1.56001
1.55918
1.55948
1.55872
1.55893
1.55965
1.55734
1.55815
1.55702
1.55649
1.55671
1.55767
1.5588
1.55821
1.55995
1.55939
1.56002
1.55972
1.56062
1.56067
1.56065
1.56213
1.56139
1.56223
1.56053
1.56035
1.56354
1.56329
1.56399
1.56158
1.56245
1.56188
1.56353
1.563
1.5627
1.56089
1.56182
1.56124
1.55842
1.55762
1.56027
1.55934
1.55778
1.55859
1.55873
1.56379
1.56304
1.56177
1.56245
1.56268
1.56217
1.56127
1.55823
1.55908
1.559
1.55888
1.55901
1.558
1.56098
1.56002
1.56092
1.56055
1.56078
1.55975
1.55682
1.55695
1.55686
1.5568
1.55474
1.55577
1.55462
1.55756
1.5573
1.55508
1.55621
1.55544
1.5571
1.55696
1.55139
1.55198
1.55175
1.55343
1.55255
1.55242
1.55328
1.55284
1.55387
1.55582
1.55477
1.55462
1.5562
1.55375
1.55501
1.55538
1.55458
1.55107
1.55107
1.55098
1.5509
1.55062
1.55153
1.55245
1.5523
1.552
1.55374
1.553
1.55123
1.55196
1.55137
1.55273
1.55188
1.55318
1.56454
1.56457
1.56391
1.56435
1.56595
1.56517
1.56578
1.56058
1.5614
1.56304
1.56221
1.56207
1.56225
1.56307
1.56579
1.56544
1.56499
1.5659
1.56577
1.56665
1.56374
1.56478
1.56397
1.56401
1.56404
1.56498
1.55888
1.55982
1.55654
1.55775
1.55875
1.55823
1.55757
1.55235
1.55301
1.55389
1.55339
1.55312
1.55401
1.55519
1.55668
1.55605
1.5561
1.55687
1.55632
1.55747
1.55459
1.55531
1.55459
1.5557
1.55498
1.55627
1.55171
1.55197
1.55095
1.55139
1.55241
1.55183
1.55214
1.55133
1.55098
1.55182
1.55123
1.55194
1.55073
1.5507
1.55449
1.55398
1.55442
1.55278
1.55341
1.55355
1.55331
1.55334
1.55262
1.55116
1.55182
1.55192
1.55223
1.55171
1.55383
1.55295
1.55299
1.55287
1.55357
1.55788
1.55691
1.55602
1.55638
1.55687
1.5559
1.55489
1.55551
1.55546
1.55591
1.5543
1.55491
1.5544
1.55622
1.55553
1.55572
1.55451
1.55516
1.55432
1.5598
1.55878
1.56191
1.5609
1.56025
1.56065
1.5615
1.56444
1.56413
1.56472
1.56448
1.56534
1.56358
1.56286
1.56301
1.5637
1.56398
1.56239
1.56314
1.56184
1.56536
1.56434
1.5647
1.56289
1.56385
1.56275
1.55834
1.55841
1.55791
1.5603
1.55919
1.56011
1.55785
1.55845
1.55849
1.56451
1.56376
1.56494
1.56094
1.56233
1.5619
1.56302
1.56271
1.56161
1.55689
1.55758
1.55715
1.55835
1.55799
1.55768
1.55914
1.55848
1.55957
1.56031
1.55998
1.55921
1.55747
1.55758
1.55732
1.55738
1.5567
1.55701
1.55657
1.55632
1.55667
1.55622
1.55652
1.55597
1.55708
1.55727
1.55503
1.55529
1.55489
1.55611
1.5557
1.55582
1.55539
1.55556
1.55584
1.55681
1.55631
1.55643
1.5573
1.55776
1.55642
1.55685
1.55726
1.55703
1.55676
1.55477
1.55513
1.5553
1.55522
1.55488
1.55552
1.55594
1.55606
1.55584
1.55563
1.55644
1.55613
1.55666
1.55511
1.55561
1.55543
1.55609
1.55576
1.55626
1.55806
1.55824
1.55755
1.55783
1.55942
1.55853
1.55917
1.55625
1.55657
1.55802
1.55723
1.5576
1.55691
1.55723
1.5629
1.56163
1.56237
1.55999
1.56081
1.56128
1.55974
1.56029
1.5591
1.55795
1.55847
1.55886
1.5589
1.56056
1.55965
1.55987
1.56116
1.56394
1.56357
1.56457
1.56433
1.56447
1.56279
1.56173
1.56547
1.56582
1.56289
1.56452
1.56505
1.5653
1.56479
1.56214
1.56392
1.56253
1.55753
1.5599
1.55864
1.55806
1.55867
1.564
1.56263
1.56335
1.56275
1.56139
1.56034
1.55934
1.55991
1.56102
1.56179
1.56072
1.56136
1.56
1.55464
1.55516
1.55487
1.55426
1.55378
1.55568
1.55415
1.55494
1.55545
1.55539
1.55217
1.5531
1.55242
1.55265
1.55331
1.55471
1.55393
1.55391
1.55515
1.55462
1.55483
1.5546
1.55398
1.55441
1.55333
1.55391
1.55443
1.5545
1.55184
1.55324
1.55252
1.55216
1.55267
1.55406
1.5534
1.55362
1.56182
1.55919
1.56046
1.56118
1.56049
1.55646
1.55698
1.5567
1.55717
1.55803
1.55837
1.5597
1.559
1.55784
1.55737
1.55855
1.55793
1.55911
1.56644
1.56524
1.56593
1.56718
1.56709
1.56498
1.56616
1.5657
1.56487
1.56486
1.56517
1.5666
1.56594
1.56574
1.56611
1.56591
1.56675
1.56706
