# vtk DataFile Version 4.2
vtk output
ASCII
DATASET POLYDATA
POINTS 642 double
-30.8131 18.8702 -81.6009
-29.9118 18.8695 -81.602
-30.6174 17.2398 -81.6287
-30.1172 17.2448 -81.6254
-30.3637 17.5329 -81.0845
-30.3578 18.5741 -80.8503
-30.3705 17.5419 -82.2189
-30.3624 18.4474 -82.2552
-29.865 18.0063 -81.9802
-29.8071 18.056 -81.2435
-30.8695 17.9944 -81.9904
-30.9298 18.0479 -81.2448
-30.983 18.5117 -81.3512
-30.7548 18.3471 -80.9466
-30.6428 18.8738 -81.133
-30.0791 18.8713 -81.1313
-30.3609 19.0654 -81.605
-30.1169 18.7832 -82.0278
-30.6063 18.785 -82.0293
-30.6638 18.2507 -82.2002
-30.9335 18.477 -81.8389
-30.9757 18.0229 -81.6031
-29.971 18.3505 -80.9476
-29.7444 18.5099 -81.3506
-30.6673 17.7614 -81.1003
-30.3607 18.0673 -80.8503
-30.7885 17.5294 -81.8231
-30.799 17.5498 -81.4518
-30.3681 17.9669 -82.3294
-30.6439 17.7052 -82.2063
-29.7955 18.4783 -81.8362
-30.064 18.2579 -82.1953
-29.9495 17.5654 -81.4505
-30.06 17.7661 -81.0948
-30.1995 17.2496 -81.3506
-30.5336 17.2438 -81.3567
-30.3716 17.1527 -81.6181
-30.5257 17.2892 -81.9132
-30.2215 17.2977 -81.9117
-30.0958 17.7127 -82.1973
-29.9555 17.5512 -81.816
-29.7671 18.0349 -81.6035
-30.9197 18.7306 -81.4731
-30.8626 18.7226 -81.2287
-30.7612 18.9111 -81.3832
-30.8822 18.1879 -81.0975
-30.9046 18.4535 -81.1247
-30.977 18.2623 -81.271
-30.4889 18.7396 -80.9405
-30.7264 18.6329 -80.9943
-30.5547 18.4876 -80.8569
-30.5163 19.0285 -81.3463
-30.6347 19.0019 -81.6048
-30.2292 18.7379 -80.9409
-30.3599 18.9273 -81.0959
-30.0879 19.0006 -81.6045
-30.2058 19.0281 -81.3459
-29.9623 18.9101 -81.3826
-30.5054 18.972 -81.8478
-30.7332 18.8695 -81.811
-29.9899 18.8668 -81.8111
-30.2172 18.9712 -81.8477
-30.467 18.6242 -82.1838
-30.3611 18.8277 -82.0598
-30.2562 18.6241 -82.182
-30.8044 18.662 -81.9496
-30.8981 18.7112 -81.7201
-30.5076 18.3661 -82.2565
-30.6586 18.5363 -82.146
-30.9101 18.2181 -81.9291
-30.8212 18.386 -82.0493
-30.7984 18.1157 -82.1048
-30.9908 18.5209 -81.5948
-30.9324 18.0095 -81.8188
-30.9864 18.259 -81.7188
-31.0137 18.2736 -81.4777
-30.974 18.0359 -81.4028
-29.8629 18.7203 -81.226
-29.8048 18.7289 -81.4739
-30.1643 18.4893 -80.8593
-29.9982 18.6307 -80.9941
-29.754 18.267 -81.2701
-29.8234 18.4522 -81.1233
-29.8489 18.1923 -81.0956
-30.5578 18.2133 -80.8512
-30.3591 18.3438 -80.813
-30.8289 17.9189 -81.1579
-30.7344 18.0593 -80.9835
-30.3621 17.7771 -80.9645
-30.5371 17.9098 -80.9374
-30.5051 17.6184 -81.0705
-30.9043 17.7899 -81.5158
-30.8815 17.8262 -81.3396
-30.857 17.7781 -81.9323
-30.8945 17.7665 -81.7275
-30.7082 17.3331 -81.5563
-30.8038 17.5109 -81.6346
-30.689 17.3448 -81.7086
-30.6631 17.9703 -82.2365
-30.7816 17.8506 -82.111
-30.3647 18.2109 -82.3064
-30.5039 18.0968 -82.3015
-30.493 17.6006 -82.236
-30.5043 17.8358 -82.3034
-30.3697 17.7285 -82.2995
-30.0672 18.537 -82.1411
-30.2185 18.37 -82.2533
-29.8278 18.7082 -81.7219
-29.9214 18.6597 -81.9469
-29.9321 18.1259 -82.0963
-29.9081 18.3898 -82.0429
-29.8231 18.2254 -81.9218
-30.0245 17.3437 -81.5505
-30.0492 17.366 -81.3875
-30.1445 17.2217 -81.5061
-29.9077 17.9265 -81.1565
-29.9883 17.6474 -81.2756
-29.8708 17.8375 -81.3443
-30.2812 17.3669 -81.1925
-30.122 17.4685 -81.2091
-30.2207 17.6217 -81.0674
-30.2895 17.1639 -81.4945
-30.227 17.1789 -81.6208
-30.4507 17.3626 -81.1956
-30.3698 17.2122 -81.3425
-30.5128 17.1788 -81.6222
-30.4512 17.1639 -81.4963
-30.5879 17.2169 -81.5094
-30.2927 17.188 -81.7494
-30.1606 17.2437 -81.7411
-30.5789 17.2395 -81.744
-30.4528 17.188 -81.751
-30.2972 17.4175 -82.1111
-30.3736 17.2644 -81.9307
-30.447 17.4134 -82.1122
-30.0822 17.3877 -81.8735
-30.0416 17.3522 -81.7038
-30.2483 17.6036 -82.2318
-30.1496 17.4828 -82.0953
-29.8814 17.7948 -81.9226
-29.9937 17.6171 -82.0277
-29.9552 17.8625 -82.0979
-29.9455 17.5314 -81.6257
-29.8118 18.0227 -81.8105
-29.8447 17.7854 -81.7222
-29.8394 17.8021 -81.5167
-29.7647 18.0474 -81.4031
-30.1854 17.9112 -80.9351
-29.9915 18.0636 -80.9829
-30.1627 18.2158 -80.852
-30.6826 17.3534 -81.3922
-30.6086 17.4581 -81.2129
-30.7476 17.6385 -81.2794
-30.5943 17.4731 -82.0996
-30.6589 17.374 -81.8779
-30.7478 17.6017 -82.0363
-30.071 17.9789 -82.2273
-30.233 17.8386 -82.2994
-30.2274 18.1022 -82.2993
-29.7186 18.2793 -81.4788
-29.7478 18.2648 -81.7164
-29.7377 18.5191 -81.5972
-30.865 18.8166 -81.544
-30.8518 18.8264 -81.4245
-30.7967 18.895 -81.509
-30.9361 18.6205 -81.2899
-30.9012 18.7317 -81.3499
-30.9598 18.6282 -81.4081
-30.709 18.9055 -81.255
-30.8167 18.8269 -81.2969
-30.7627 18.8098 -81.1748
-30.9153 18.1088 -81.18
-30.9369 18.2313 -81.1789
-30.9551 18.1392 -81.2515
-30.8372 18.4037 -81.0261
-30.8971 18.3217 -81.1001
-30.8292 18.2683 -81.0175
-30.9878 18.3878 -81.3044
-30.9513 18.3627 -81.1987
-30.9537 18.4888 -81.2358
-30.4126 18.6494 -80.8803
-30.5288 18.6187 -80.8884
-30.4436 18.5414 -80.8452
-30.6901 18.7637 -81.0536
-30.6136 18.6987 -80.9601
-30.5671 18.8171 -81.0258
-30.6611 18.4213 -80.891
-30.6456 18.5626 -80.9141
-30.7474 18.4907 -80.9583
-30.8935 18.593 -81.1674
-30.829 18.5486 -81.053
-30.8034 18.6887 -81.1038
-30.7012 18.97 -81.4883
-30.7441 18.9337 -81.603
-30.5856 18.9625 -81.2299
-30.6473 18.9807 -81.3568
-30.5047 19.0485 -81.6052
-30.5775 19.0308 -81.478
-30.4388 19.0644 -81.4758
-30.3035 18.649 -80.8809
-30.3585 18.7512 -80.9332
-30.2131 18.9121 -81.1047
-30.2878 18.8432 -81.0097
-30.1532 18.8145 -81.025
-30.4308 18.8442 -81.0099
-30.5074 18.9135 -81.1055
-29.9795 18.9325 -81.6033
-30.022 18.969 -81.4885
-29.9276 18.8945 -81.5094
-30.2828 19.064 -81.4756
-30.1448 19.03 -81.4781
-30.2174 19.048 -81.6049
-30.0136 18.9034 -81.2539
-30.0753 18.9799 -81.3566
-30.1363 18.9613 -81.2292
-30.4386 18.994 -81.2125
-30.2823 18.9935 -81.2123
-30.3605 19.0468 -81.3405
-30.6884 18.946 -81.7159
-30.7828 18.8782 -81.6924
-30.4367 19.0335 -81.7315
-30.5694 19.0018 -81.7279
-30.6738 18.8388 -81.9248
-30.6269 18.9296 -81.8362
-30.5628 18.8873 -81.947
-29.941 18.8761 -81.693
-30.0344 18.9443 -81.7158
-30.1599 18.886 -81.9467
-30.0959 18.9279 -81.8362
-30.0495 18.8364 -81.924
-30.1531 19.001 -81.7278
-30.2856 19.0332 -81.7315
-30.4048 18.5277 -82.2303
-30.3614 18.6341 -82.1888
-30.3191 18.5281 -82.2292
-30.4889 18.8166 -82.052
-30.4213 18.7329 -82.1292
-30.5353 18.7111 -82.1172
-30.1879 18.7103 -82.1152
-30.301 18.7327 -82.1285
-30.2337 18.8161 -82.0509
-30.3611 18.9879 -81.8534
-30.291 18.9128 -81.9624
-30.4311 18.9133 -81.9625
-30.8243 18.7961 -81.7706
-30.8559 18.8074 -81.6537
-30.7117 18.7341 -81.9944
-30.7733 18.7733 -81.8883
-30.9242 18.6004 -81.7822
-30.8587 18.6911 -81.8394
-30.8794 18.574 -81.8961
-30.4265 18.4141 -82.2607
-30.494 18.5001 -82.2252
-30.6665 18.3956 -82.1807
-30.5844 18.4535 -82.2099
-30.5873 18.312 -82.2368
-30.5669 18.5901 -82.1697
-30.6376 18.668 -82.0955
-30.8888 18.0906 -81.9659
-30.8586 18.1724 -82.0229
-30.8445 18.0467 -82.0436
-30.8843 18.4374 -81.9489
-30.8745 18.3074 -81.9902
-30.9275 18.348 -81.8877
-30.7389 18.1847 -82.1592
-30.8093 18.2512 -82.0819
-30.747 18.3231 -82.1345
-30.7362 18.608 -82.0568
-30.7476 18.468 -82.1036
-30.8204 18.5287 -82.0063
-30.9175 18.7257 -81.5964
-30.9692 18.506 -81.7198
-30.9531 18.6194 -81.6587
-30.9657 18.6283 -81.5314
-30.9953 18.5231 -81.4701
-30.8997 18.0008 -81.919
-30.9303 18.1171 -81.8732
-30.988 18.1398 -81.6593
-30.9649 18.1329 -81.7671
-30.9595 18.0175 -81.712
-30.9543 18.2454 -81.8266
-30.9676 18.3719 -81.7792
-30.9843 18.1504 -81.3384
-30.954 18.0431 -81.3118
-31.0082 18.3966 -81.413
-31.0028 18.2742 -81.3715
-30.9816 18.0285 -81.4994
-31.001 18.1505 -81.4379
-31.0024 18.1452 -81.5419
-30.9977 18.3929 -81.6586
-31.0082 18.2703 -81.598
-31.0123 18.4011 -81.5333
-29.8724 18.8259 -81.4239
-29.8595 18.8154 -81.5457
-29.9613 18.8068 -81.1726
-29.9076 18.8251 -81.295
-29.7659 18.6258 -81.4079
-29.8238 18.73 -81.348
-29.7903 18.6188 -81.2876
-30.2728 18.5418 -80.8464
-30.1896 18.6186 -80.8904
-29.9783 18.4918 -80.959
-30.0764 18.5626 -80.916
-30.0617 18.4253 -80.8932
-30.1074 18.6961 -80.9608
-30.033 18.7603 -81.0526
-29.7789 18.1471 -81.2502
-29.7941 18.2352 -81.1777
-29.8185 18.1149 -81.1782
-29.7744 18.4874 -81.2341
-29.7777 18.3637 -81.1973
-29.7413 18.3884 -81.3039
-29.8988 18.2709 -81.0173
-29.8313 18.3222 -81.099
-29.8904 18.4047 -81.0257
-29.9225 18.686 -81.1017
-29.8985 18.5478 -81.0516
-29.8337 18.5914 -81.1649
-30.4571 18.4153 -80.8239
-30.3581 18.4769 -80.8256
-30.6607 18.2833 -80.8875
-30.5629 18.3497 -80.8448
-30.36 18.2063 -80.8213
-30.4593 18.2776 -80.822
-30.4557 18.1408 -80.8395
-30.8916 17.9931 -81.2037
-30.8609 18.0549 -81.1177
-30.7064 17.9107 -81.0335
-30.7887 17.9854 -81.0667
-30.7522 17.8403 -81.1237
-30.8139 18.1293 -81.0311
-30.7508 18.2044 -80.9551
-30.3627 17.6351 -81.0325
-30.4387 17.6976 -81.01
-30.425 17.5651 -81.0732
-30.4511 17.9896 -80.8834
-30.4469 17.8456 -80.9422
-30.3613 17.923 -80.9015
-30.5851 17.6847 -81.0813
-30.5244 17.7634 -81.0038
-30.6113 17.8309 -81.0117
-30.6543 18.1364 -80.9073
-30.6372 17.9845 -80.9501
-30.5505 18.0633 -80.8831
-30.9346 17.9311 -81.3694
-30.9147 17.9528 -81.2841
-30.9501 17.9084 -81.5546
-30.948 17.9169 -81.4611
-30.8319 17.6925 -81.3985
-30.8977 17.803 -81.427
-30.8456 17.6695 -81.4837
-30.8678 17.902 -81.9686
-30.8943 17.892 -81.8757
-30.8459 17.6376 -81.7825
-30.8795 17.7649 -81.8313
-30.8319 17.6509 -81.8838
-30.9136 17.8941 -81.7692
-30.9399 17.9 -81.6648
-30.6559 17.271 -81.5993
-30.7029 17.334 -81.6338
-30.6507 17.2766 -81.6626
-30.8062 17.523 -81.5423
-30.7583 17.4159 -81.5924
-30.7582 17.4256 -81.506
-30.7321 17.43 -81.7615
-30.7437 17.4199 -81.6767
-30.7965 17.513 -81.7268
-30.902 17.775 -81.6183
-30.8527 17.6332 -81.6797
-30.8537 17.6452 -81.5791
-30.7918 17.982 -82.116
-30.8348 17.9313 -82.046
-30.6647 18.1091 -82.224
-30.7335 18.0451 -82.1777
-30.7174 17.7743 -82.1656
-30.7276 17.9064 -82.1814
-30.6575 17.8349 -82.2301
-30.3632 18.3442 -82.2816
-30.4334 18.2847 -82.2892
-30.4323 18.0291 -82.323
-30.4332 18.1502 -82.31
-30.3664 18.0856 -82.3229
-30.5077 18.2278 -82.2815
-30.5822 18.1733 -82.2595
-30.4226 17.5643 -82.2301
-30.4332 17.6638 -82.2753
-30.37 17.6166 -82.2589
[...]
POINT_DATA 642
SCALARS Mean_Curvature double 1
LOOKUP_TABLE default
2.9162
2.93911
4.50642
4.41793
2.59928
2.82414
3.92322
2.65315
2.33963
2.18623
2.33461
2.33869
2.50404
2.62194
2.91187
2.94536
2.91283
2.89757
2.87279
-0.226623
2.16588
0.135806
2.59399
2.53256
0.364412
2.57999
1.11456
0.94991
3.28926
3.13691
2.20339
-0.0194264
1.46526
0.542875
4.2054
4.13546
4.38422
1.90392
0.9079
3.01385
0.793151
1.33287
2.67216
2.85268
2.9209
2.41275
2.74306
2.12426
2.83431
2.87767
2.78012
2.86599
2.83963
2.86272
2.88012
2.79285
2.88818
2.93521
2.91588
2.857
2.89212
2.91409
2.89091
2.93085
2.92807
2.61678
2.6693
2.03713
2.72276
0.356793
2.06435
1.61223
2.34301
-0.173975
1.66283
1.86542
2.54252
2.88739
2.75542
2.79187
2.90548
2.37116
2.68488
2.46187
2.65624
2.62012
2.28049
2.44131
1.82125
2.19203
1.9022
0.643513
2.47321
2.34241
0.61494
3.86953
0.993335
1.47576
2.59248
2.6654
3.06117
2.53936
3.55139
3.07854
3.44838
2.70821
1.59079
2.68294
2.591
1.90422
2.22182
0.886525
3.90782
4.00787
5.08661
1.99763
0.820626
0.699624
3.42517
3.43459
1.93935
4.76761
4.50033
3.40605
4.0445
4.35772
4.6156
5.10009
4.39874
4.07924
4.6109
4.47028
3.7562
3.38268
3.6068
1.11857
1.20006
3.54494
3.63944
2.54881
3.11803
2.07778
1.03492
0.0703138
1.4384
1.52355
2.887
2.34389
2.51028
2.6372
4.09595
3.52102
0.590754
3.76141
1.24576
3.10144
2.07637
3.12562
2.78057
2.07883
1.03529
2.27932
2.83131
2.80588
2.92353
2.70522
2.80285
2.58501
2.95334
2.93095
2.94152
2.22558
2.33772
2.15384
2.73495
2.46279
2.54848
2.36411
2.46963
2.63394
2.80734
2.82242
2.77633
2.94098
2.85868
2.85364
2.72017
2.79212
2.78401
2.82178
2.82109
2.90055
2.91007
2.93648
2.88471
2.88123
2.86692
2.88952
2.90968
2.85357
2.83219
2.92813
2.9197
2.93073
2.90642
2.89088
2.95871
2.90215
2.96943
2.90963
2.88736
2.87777
2.9319
2.8949
2.90606
2.89355
2.88927
2.85753
2.94266
2.88694
2.88532
2.83036
2.87588
2.93218
2.90606
2.8965
2.9352
2.96446
2.94005
2.89575
2.88565
2.88604
2.80228
2.92552
2.82317
2.8947
2.76182
2.84031
2.87026
2.77537
2.91539
2.87348
2.94505
2.93376
2.77517
2.80061
2.77982
2.73941
2.44068
2.54228
2.32793
2.20735
2.51432
2.46792
2.61564
1.95587
2.72499
2.79679
1.62466
1.89594
2.52651
2.212
2.16099
1.94732
1.95281
1.5263
2.39699
2.71903
2.57516
2.47015
2.57543
2.19469
2.37568
2.53933
2.42723
0.0728951
2.07612
0.481602
1.4791
1.61535
1.66614
1.38831
2.30267
2.59994
2.24998
1.97003
2.44922
2.37284
2.10438
1.97836
1.79193
2.18885
2.91468
2.87046
2.9358
2.90904
2.63659
2.7919
2.73424
2.82275
2.83381
2.80572
2.8437
2.74403
2.83816
2.89081
2.21187
2.43015
2.00814
2.60196
2.55585
2.42894
2.56878
2.65091
2.70597
2.89186
2.82968
2.83236
2.70117
2.75798
2.61428
2.65371
2.55012
2.51638
2.64716
1.92075
2.4397
2.08406
2.46234
-0.0785554
2.44657
2.60314
2.38909
2.18088
2.33351
2.30525
1.66537
1.99346
0.962084
1.89862
1.78508
2.51547
2.24867
2.4284
2.41992
2.47818
1.90453
2.45882
0.895158
2.58919
1.04228
2.45131
0.37964
0.570791
1.76758
2.79287
0.20739
2.36003
4.43062
3.97793
4.43244
1.07732
3.73176
2.8072
1.18422
1.11251
1.12288
0.731562
0.87999
1.01366
2.51369
2.56751
1.74781
2.41339
2.80996
2.67347
2.87319
2.87992
2.96202
3.04884
2.90746
3.24837
0.337782
0.411489
3.47666
3.45599
3.65668
3.17635
3.45695
3.57764
3.3065
3.36593
3.2456
2.74925
2.94289
2.87143
2.43502
2.28346
2.79103
2.79489
1.85931
2.5617
2.38877
2.81371
2.77931
2.39362
2.56468
2.45578
2.72168
2.7294
2.11755
2.37873
2.16078
2.13146
1.55353
1.8652
1.72614
2.13011
2.0874
2.75511
2.51719
2.59087
4.31759
4.79783
4.81963
3.44002
4.03877
3.36165
4.70932
4.67775
4.27278
2.25971
0.773372
0.235229
0.465267
0.462973
1.23351
1.01594
0.852636
1.02593
3.16398
3.07333
2.33541
3.84948
3.58151
3.69574
1.30755
3.09688
0.889749
3.41408
1.0722
3.53424
5.0117
4.56467
4.36415
5.0307
4.23596
4.77338
4.84212
3.1623
3.3709
4.10881
3.54597
3.66852
3.56188
4.13488
4.53305
4.97285
5.03695
4.70473
4.66339
4.14677
4.67199
4.94686
4.6273
4.27391
4.35085
4.5574
4.67944
4.19348
4.23183
4.50719
1.16226
4.4254
3.06767
4.76966
4.6003
3.83414
4.73395
1.78349
4.38205
4.13261
3.82277
3.72557
3.9175
3.01455
3.09179
3.09919
3.42721
3.1442
3.38856
4.35046
4.30172
3.92107
3.63298
4.21113
0.751214
1.14604
0.847865
0.960581
1.58724
3.69974
3.65861
3.4574
3.72819
3.41513
3.60966
3.11365
2.339
2.0321
2.16292
2.5789
2.64444
0.83395
2.47925
2.76198
3.07984
2.88575
3.32335
3.15112
3.78491
0.925724
1.13902
3.91269
1.74275
1.89832
1.84229
0.66116
0.407235
0.126254
1.79654
0.771944
2.45856
2.48943
1.08078
1.7485
2.06987
2.94874
0.954467
1.15488
0.995279
1.19993
2.23758
2.56729
2.06206
2.24048
2.38311
2.44824
2.61593
2.5379
2.53191
2.54248
2.7396
2.64605
2.54031
2.65502
2.64654
2.44427
2.52636
2.50083
4.92532
4.26726
4.69215
4.16717
3.27982
2.99255
0.331794
2.77664
3.51255
3.82704
1.90283
2.10579
0.950476
0.840895
0.409994
3.66316
2.96145
2.52049
3.67989
3.58693
3.8707
3.79368
3.45817
1.6674
1.09928
1.19734
1.49635
1.00648
2.30408
3.1
2.8014
2.35667
2.89131
3.38335
3.55661
3.52696
2.37573
2.37991
2.42048
2.34786
1.84503
3.45661
3.18537
3.13938
3.31545
2.85319
2.96015
0.708202
0.816971
2.98311
3.07587
2.82618
3.01344
2.67378
2.45426
2.04392
2.29307
2.1645
2.30225
-0.366061
1.88134
1.80254
2.24313
0.469224
2.57186
2.45657
2.50338
2.42777
2.37727
2.18011
2.2026
2.20892
SCALARS CoVolArea double 1
LOOKUP_TABLE default
0.00772298
0.00772521
0.00298363
0.00309758
0.00628884
0.00784841
0.00419512
0.00610778
0.00612087
0.00613695
0.00630511
0.00608994
0.014817
0.0162438
0.0189129
0.0188052
0.0205079
0.0157347
0.0158674
0.0137602
0.0148395
0.0135237
0.0157488
0.0148523
0.0148614
0.0146247
0.0122764
0.012232
0.00847668
0.011978
0.0142572
0.0134644
0.0117387
0.0144617
0.0101183
0.00956487
0.00618789
0.00932284
0.00968959
0.0120195
0.0125662
0.0131477
0.0144542
0.0176636
0.016663
0.0132107
0.0162931
0.0127106
0.0169342
0.0186265
0.0157521
0.0211504
0.0174228
0.0165401
0.0202308
0.0173579
0.0210947
0.0167095
0.0186855
0.0151272
0.0150471
0.0186751
0.013212
0.0170005
0.0130665
0.0158153
0.0143881
0.011918
0.0150028
0.0128787
0.0148206
0.0123631
0.0152104
0.0130114
0.0147929
0.0146134
0.0114373
0.0175952
0.0148059
0.0151876
0.0178516
0.0124417
0.0160678
0.0128285
0.0160043
0.0143698
0.0131476
0.0157302
0.0134516
0.0156892
0.0127996
0.0132919
0.0118057
0.0128426
0.0148136
0.00853271
0.0118614
0.00759573
0.0128913
0.0120817
0.00954067
0.0108689
0.00909244
0.0104851
0.00882928
0.0146506
0.0117589
0.0141224
0.0153627
0.0121837
0.0143191
0.012382
0.00860296
0.0115836
0.00704088
0.0128773
0.0131779
0.0118297
0.0114359
0.0132458
0.012577
0.00691497
0.00538694
0.0113485
0.00952211
0.00522346
0.006444
0.0066009
0.00710413
0.00642443
0.0059772
0.00693242
0.00945141
0.0101764
0.0095806
0.0110747
0.00790697
0.00897713
0.0118618
0.0123074
0.0134304
0.0120024
0.0119257
0.0123974
0.0141176
0.0129112
0.0116484
0.0156321
0.0152289
0.0158504
0.0115658
0.0135052
0.0136291
0.011935
0.0105416
0.0135822
0.0130486
0.0107222
0.0110426
0.0141382
0.014112
0.0149084
0.0118621
0.0149716
0.0127273
0.0161953
0.0156275
0.0146768
0.0179475
0.0168107
0.0185614
0.0100046
0.0125518
0.00974981
0.0164889
0.0143952
0.0146789
0.0137824
0.0140531
0.0155811
0.0129375
0.0159157
0.0124811
0.0189242
0.0176859
0.0181436
0.016298
0.0170869
0.0175935
0.0182502
0.018831
0.0195799
0.0167376
0.0129713
0.0199526
0.0185898
0.0193315
0.019222
0.0212305
0.0127384
0.0163224
0.0197205
0.0181056
0.0178377
0.0182163
0.0197841
0.012866
0.016661
0.0127671
0.0211765
0.0191536
0.0193044
0.0179774
0.0186264
0.0199904
0.0223275
0.0222861
0.0230111
0.0156323
0.0122294
0.0199883
0.0179313
0.0155558
0.0164749
0.0171683
0.0121438
0.0156273
0.0170876
0.0164928
0.0154728
0.0179672
0.0199923
0.0100743
0.0128344
0.0100012
0.0166208
0.0147128
0.0145961
0.0144528
0.0146634
0.0165163
0.0203926
0.0190883
0.0191506
0.0143612
0.0118002
0.0158335
0.0151538
0.0146712
0.0149311
0.0154241
0.00947327
0.0122877
0.01445
0.0133858
0.0128629
0.01386
0.0154
0.0100588
0.0122229
0.00982406
0.0148807
0.0135424
0.0138081
0.0131571
0.0132757
0.0144237
0.0165248
0.0160011
0.016375
0.013892
0.0151984
0.0145275
0.0144312
0.0149413
0.0101684
0.0125162
0.0144113
0.0135658
0.0135681
0.0136145
0.0148375
0.0117289
0.00925782
0.0145914
0.0132724
0.0122667
0.0128
0.0141358
0.0160865
0.0158898
0.0159605
0.0152241
0.0120831
0.0183732
0.0168655
0.014944
0.0158721
0.0162993
0.0122197
0.0153249
0.0168152
0.0162124
0.0156473
0.0170111
0.0184542
0.00966843
0.0122931
0.00988252
0.0154959
0.0137667
0.0135604
0.0142037
0.0140316
0.0160764
0.0191431
0.0183447
0.0181033
0.014511
0.0119833
0.0163419
0.0155604
0.0142722
0.014749
0.0151868
0.00999331
0.0126851
0.0156384
0.0142825
0.0142354
0.0141999
0.0157906
0.0103605
0.0128648
0.0100278
0.0151745
0.0142413
0.0141844
0.0138627
0.0141902
0.0155696
0.017117
0.0169996
0.0168126
0.0110362
0.00946723
0.0132585
0.0117872
0.012217
0.0120549
0.0129645
0.0100902
0.0126568
0.0138269
0.0138478
0.0132947
0.0138915
0.0143221
0.00558614
0.0076342
0.00527584
0.0121513
0.00980054
0.010642
0.00957116
0.00928351
0.0117759
0.0150649
0.0144693
0.0141867
0.0118267
0.00981656
0.0133549
0.0127492
0.0122051
0.0124305
0.0125171
0.00878735
0.0103269
0.00915792
0.00960448
0.00860741
0.0113044
0.0127409
0.00681579
0.00867539
0.00690896
0.0115239
0.00985333
0.0104555
0.00863877
0.00918613
0.00913523
0.0127415
0.0109409
0.0124252
0.0120662
0.00939295
0.0151254
0.0135899
0.0126223
0.0130858
0.0140752
0.011772
0.0141425
0.0148601
0.014503
0.0141103
0.0149095
0.015572
0.00966856
0.0118595
0.00973664
0.0139938
0.0128681
0.0129265
0.0132977
0.0130452
0.0143823
0.0160755
0.0158357
0.0155457
0.00571577
0.00755485
0.00509727
0.0117637
0.00980541
0.0104375
0.00836413
0.00902084
0.0108952
0.00995025
0.0120619
0.00963807
0.0138382
0.0130692
0.013838
0.0118889
0.0123705
0.0123794
0.00957908
0.011677
0.00995009
0.012094
0.0121382
0.0110112
0.0135335
0.0126962
0.0137179
0.0134744
0.0141612
0.0134194
0.00573157
0.00446776
0.00834487
0.00679722
0.00577041
0.00590797
0.0062123
0.00959439
0.0109941
0.00931942
0.0104746
0.0106802
0.0106524
0.0097966
0.00428626
0.00538274
0.00487758
0.00604284
0.00555142
0.00568515
0.00780568
0.00621719
0.00770586
0.0085604
0.00824178
0.00705423
0.00544388
0.00479642
0.00649973
0.00581412
0.00775676
0.00645491
0.00822937
0.00454958
0.00516946
0.00789392
0.00606642
0.00724454
0.00566269
0.00646965
0.00689597
0.00920116
0.00694232
0.00992908
0.0102496
0.0102722
0.0102543
0.0102727
0.00976905
0.00776688
0.00905446
0.0091543
0.00680144
0.00545823
0.0102707
0.00813907
0.0100454
0.00889714
0.0118542
0.0067429
0.00861723
0.0118089
0.0100031
0.0104343
0.0102298
0.0113222
0.00969898
0.0117069
0.00962408
0.0133967
0.012742
0.0129942
0.0122375
0.0124186
0.0127158
0.013016
0.013664
0.0138459
0.00778188
0.012131
0.00956567
0.00983549
0.0118294
0.00977501
0.0120996
0.0135029
0.0131345
0.0129024
0.0132338
0.013696
0.0112397
0.00941085
0.0125243
0.0119443
0.0123625
0.0118895
0.0129113
0.014296
0.0143495
0.0137881
0.012801
0.015312
0.0140504
0.0142495
0.0152053
0.0123612
0.0153317
0.0136832
0.0138069
0.0152089
0.0143654
0.0151773
0.0147221
0.0152832
0.01601
0.0166938
0.0168022
0.0167556
0.00732247
0.010539
0.00868664
0.0097602
0.0120855
0.0118078
0.0141879
0.0130061
0.0121764
0.0118757
0.0120842
0.0128376
0.0126069
0.0133681
0.0143104
0.0134811
0.0146299
0.0138387
0.00875906
0.011158
0.0103738
0.0101604
0.0119053
0.00642397
0.0113878
0.00840019
0.00760195
0.0097596
0.012076
0.0127926
0.0126021
0.0130773
0.0133812
0.0127512
0.0136419
0.0137102
0.0117892
0.0126443
0.0125002
0.0127174
0.0133405
0.00863734
0.00932748
0.00930577
0.00990541
0.011672
0.0103261
0.0127331
0.0113092
0.00968066
0.00929066
0.0126956
0.0112162
0.0129697
0.0116432
0.0137882
0.0126782
0.0129383
0.0143156
0.0119599
0.0142218
0.0130236
0.0129087
0.0137947
0.0139988
0.0149255
0.0145824
0.0142692
0.0145855
0.0152088
0.0154391
0.0154962
SCALARS SignedDistance double 1
LOOKUP_TABLE default
1.08009
1.0878
1.06614
1.0752
1.06436
1.06347
1.16178
1.07783
1.01141
1.00922
1.0207
1.00212
1.07975
1.06165
1.11254
1.1172
1.09821
1.08402
1.08182
1.01082
1.01048
1.00494
1.07247
1.08825
1.00102
1.04634
1.00019
1
1.07832
1.04362
1.00297
1.01649
1.00391
1.00645
1.06457
1.06455
1.21765
1.00857
1.00007
1.018
1.00162
1.01411
1.11057
1.1007
1.10871
1.02699
1.07462
1.02065
1.09565
1.0584
1.05878
1.13127
1.11339
1.11903
1.13044
1.10206
1.12724
1.09526
1.10824
1.09502
1.09079
1.10701
1.05417
1.09537
1.05604
1.06426
1.02161
1.00099
1.03462
1.01808
1.02745
1.00032
1.0679
1.00645
1.00179
1.04143
1.02827
1.09338
1.11091
1.08107
1.07557
1.02544
1.04931
1.03358
1.04773
1.1045
1.00764
1.02122
1.00594
1.00363
1.03552
1.00969
1
1.00086
1.00615
1.05141
1.0052
1.00066
1.02203
1.02012
1.05879
1.00433
1.08017
1.06314
1.10574
1.0611
1.00034
1.02951
1.04905
1.00002
1.03235
1.01245
1.06556
1.09146
1.12319
1.012
1.01753
1.00006
1.08249
1.05654
1.03754
1.17243
1.12905
1.07862
1.03056
1.15325
1.16576
1.12929
1.07205
1.01301
1.01939
1.08624
1.09902
1.00076
1.09471
1.00166
1.0037
1.09444
1.05952
1.01642
1.03395
1.00935
1.00463
1.01339
1.0052
1.00177
1.03164
1.00815
1.0196
1.04624
1.10039
1.04475
1.00947
1.07546
1.0043
1.03781
1.00012
1.03984
1.00714
1.01805
1.00031
1.04863
1.06454
1.11772
1.07825
1.11334
1.12758
1.10167
1.10974
1.10551
1.10455
1.00699
1.00828
1.00378
1.06638
1.05861
1.0264
1.07246
1.07126
1.08487
1.07465
1.07517
1.07714
1.075
1.06881
1.09664
1.07416
1.06901
1.07151
1.0913
1.08494
1.08807
1.09417
1.08691
1.12729
1.12168
1.11431
1.12093
1.09927
1.08327
1.11605
1.12597
1.12189
1.1114
1.11805
1.13178
1.08488
1.09686
1.08308
1.09965
1.12305
1.11378
1.10819
1.10767
1.11894
1.14628
1.14484
1.11739
1.08721
1.09409
1.125
1.1198
1.09404
1.09645
1.09708
1.0992
1.08774
1.08761
1.08828
1.09803
1.10544
1.12382
1.07968
1.04619
1.07968
1.09572
1.07786
1.07607
1.07836
1.07847
1.09678
1.12685
1.10219
1.10253
1.07189
1.06353
1.06989
1.07782
1.00465
1.05438
1.03712
1.03005
1.04009
1.03064
1.00358
1.01145
1.04103
1.07061
1.02195
1.00021
1.02438
1.02375
1.00922
1.0015
1.00192
1.00017
1.02911
1.04101
1.04789
1.02933
1.0666
1.02166
1.05302
1.08881
1.06928
1.02927
1.00268
1.00444
1.01232
1.01494
1.0078
1.00446
1.00706
1.01277
1.05761
1.01694
1.00102
1
1.00027
1.04477
1.0337
1.05521
1.09182
1.08792
1.11073
1.09696
1.10642
1.10776
1.10469
1.09502
1.09477
1.08197
1.08774
1.08225
1.10483
1.10186
1.00276
1.01017
1.00715
1.0879
1.05222
1.07582
1.0339
1.0387
1.07026
1.09052
1.08549
1.07785
1.09397
1.08439
1.05468
1.07646
1.06349
1.07277
1.03601
1.01881
1.01903
1.00547
1.03135
1.00514
1.02914
1.02699
1.01671
1.0017
1.05361
1.04307
1.0018
1.01943
1.00874
1.00111
1.00082
1.0321
1.01505
1.03107
1.01536
1.00475
1.01542
1.00328
1.01737
1.00846
1
1.00169
1.01904
1.01266
1.00255
1.01802
1.01434
1.01024
1.05964
1.00836
1.0219
1.00171
1.00503
1.0127
1.01236
1.00913
1
1.01271
1.00573
1.00062
1.02301
1.0157
1.00004
1.02336
1.0274
1.01689
1.0252
1.01411
1.00007
1.06307
1.0347
1.08588
1.00183
1.0026
1.13328
1.09744
1.13676
1.05016
1.06711
1.05345
1.07862
1.09134
1.06394
1.00295
1.02415
1.02957
1.02828
1.03398
1.06345
1.04721
1.00957
1.00892
1.03507
1.07078
1.0781
1.02989
1.0536
1.01173
1.08336
1.0712
1.01865
1.00753
1.0283
1.01049
1.00209
1.00024
1.00965
1
1.03049
1.04195
1.03062
1.0559
1.07283
1.10981
1.11535
1.02756
1.09926
1.02044
1.10488
1.10471
1.09227
1.0101
1.0099
1.00017
1.01352
1.00177
1.00423
1.01936
1.01525
1.00289
1.08911
1.08075
1.05253
1.07343
1.08714
1.06669
1.00429
1.03531
1.00002
1.00815
1.02065
1.0572
1.1424
1.0896
1.11071
1.1467
1.17894
1.18228
1.21873
1.08861
1.07504
1.03933
1.05303
1.06143
1.05419
1.03796
1.103
1.15584
1.11528
1.22531
1.19699
1.20114
1.11182
1.15045
1.10618
1.11072
1.10931
1.1775
1.05402
1.04318
1.1455
1.09994
1.01054
1.02355
1.01369
1.04187
1.08025
1.01944
1.0518
1.00321
1.12747
1.16046
1.15111
1.11894
1.15683
1.00189
1.05391
1.03098
1.02967
1.0506
1.00007
1.0953
1.01687
1.01694
1.00452
1.03416
1
1.0017
1.00914
1.00685
1.00215
1.13993
1.11567
1.05615
1.08257
1.05976
1.07012
1.01331
1.00445
1.0298
1.01604
1.00926
1.04367
1.02989
1.00662
1.0222
1.02964
1.0165
1.04916
1.01465
1.01746
1.00476
1.00577
1.01508
1.00883
1.01962
1.01028
1.009
1
1.00033
1.00191
1.0164
1.00661
1.00393
1.03574
1.00335
1.00576
1.01358
1.00273
1.00251
1.00709
1.03379
1.00281
1.00242
1.00411
1.00007
1.02189
1.00569
1.03102
1.01792
1.01236
1.00656
1.08684
1.0355
1.05088
1.05937
1.05918
1.01855
1.03555
1.03358
1.09978
1.08836
1.11087
1.09699
1.04755
1.07608
1.00017
1.00629
1.07299
1.06949
1.00095
1.00244
1.00909
1.00012
1.00137
1.07093
1.01094
1.01262
1.12735
1.0289
1.07707
1.09019
1.07202
1.00085
1.00046
1.00001
1.00302
1.00144
1.02014
1.04912
1.00812
1.03265
1.01188
1.04023
1.03791
1.04866
1.01307
1.00899
1.00063
1.01972
1.00112
1.10981
1.03558
1.07804
1.06813
1.02143
1.00195
1.00023
1.0011
1.0331
1.06661
1.00751
1.03507
1.00595
1.0064
1.00605
1.02032
1.02308
1.06637
1.02396
1.00422
1.00529
1.0112
1.00199
1.08145
1.07678
1.09083
1.03915
1.02552
1.01275
1.00973
1.05694
