# vtk DataFile Version 4.2
vtk output
ASCII
DATASET POLYDATA
POINTS 642 double
-30.6667 18.6903 -81.5834
-30.062 18.6886 -81.5835
-30.494 17.5744 -81.6282
-30.248 17.5773 -81.6258
-30.3672 17.7054 -81.2587
-30.3604 18.4813 -81.0629
-30.3718 17.7249 -81.9807
-30.3638 18.3806 -82.0837
-29.9676 18.0271 -81.9044
-29.9236 18.0764 -81.3085
-30.7674 18.016 -81.9113
-30.8144 18.0676 -81.3096
-30.8183 18.4443 -81.4019
-30.6451 18.3172 -81.1067
-30.5457 18.6819 -81.2671
-30.1795 18.6795 -81.2669
-30.3622 18.8036 -81.5828
-30.1951 18.6281 -81.8877
-30.5313 18.6295 -81.8897
-30.5978 18.2274 -82.0668
-30.8032 18.4185 -81.7803
-30.8771 18.0382 -81.6026
-30.0851 18.3202 -81.1103
-29.9155 18.4433 -81.4023
-30.602 17.8338 -81.205
-30.3627 18.0959 -81.0268
-30.6542 17.6784 -81.7589
-30.6729 17.6868 -81.4976
-30.3688 18.0005 -82.1108
-30.545 17.8153 -82.0043
-29.9308 18.4199 -81.7763
-30.133 18.2339 -82.062
-30.0672 17.6951 -81.4939
-30.1327 17.8421 -81.2057
-30.2927 17.5928 -81.4818
-30.4476 17.5899 -81.4853
-30.3727 17.5588 -81.622
-30.453 17.5896 -81.7851
-30.2928 17.5905 -81.7863
-30.193 17.8188 -82.0044
-30.082 17.6879 -81.7572
-29.8624 18.0494 -81.6024
-30.7505 18.6028 -81.4962
-30.7045 18.5899 -81.3236
-30.6268 18.7114 -81.4375
-30.7603 18.1862 -81.2045
-30.7538 18.3971 -81.2367
-30.8376 18.2441 -81.3335
-30.4445 18.5904 -81.132
-30.6092 18.5239 -81.1597
-30.4925 18.4227 -81.0586
-30.4621 18.7792 -81.4129
-30.5431 18.7665 -81.5836
-30.2778 18.589 -81.133
-30.3614 18.7122 -81.2457
-30.1824 18.765 -81.5832
-30.2625 18.7783 -81.4128
-30.1003 18.7097 -81.4374
-30.4578 18.7489 -81.7486
-30.6154 18.6891 -81.7273
-30.1114 18.6867 -81.7263
-30.2674 18.748 -81.7482
-30.4363 18.5117 -82.0159
-30.3626 18.6546 -81.9058
-30.2901 18.5118 -82.0142
-30.6821 18.5514 -81.8463
-30.7433 18.5919 -81.6726
-30.4706 18.3196 -82.0931
-30.5802 18.4528 -82.001
-30.8095 18.2006 -81.8691
-30.7194 18.3402 -81.9484
-30.7073 18.1144 -81.996
-30.8358 18.4544 -81.587
-30.8382 18.0252 -81.7854
-30.8732 18.2413 -81.6959
-30.8801 18.2555 -81.4958
-30.8598 18.0545 -81.4325
-30.0253 18.5876 -81.3229
-29.9799 18.6007 -81.4967
-30.231 18.4236 -81.0621
-30.1189 18.5218 -81.1617
-29.8994 18.2497 -81.334
-29.979 18.3969 -81.2376
-29.9757 18.1918 -81.2054
-30.5052 18.2144 -81.0333
-30.3613 18.3191 -81.0193
-30.7361 17.9618 -81.2424
-30.6474 18.0844 -81.1161
-30.3648 17.8575 -81.1206
-30.4965 17.9617 -81.0843
-30.4629 17.7468 -81.2221
-30.8074 17.8436 -81.5311
-30.7846 17.8801 -81.3849
-30.7394 17.8479 -81.8558
-30.7919 17.827 -81.7038
-30.5563 17.5986 -81.5863
-30.6684 17.6628 -81.6301
-30.5553 17.5965 -81.6758
-30.5808 18.001 -82.0636
-30.6691 17.9095 -81.9751
-30.3658 18.1954 -82.1241
-30.4678 18.1013 -82.1149
-30.442 17.7566 -81.9989
-30.4582 17.9054 -82.0753
-30.3707 17.8346 -82.053
-30.1486 18.4537 -81.9963
-30.2583 18.3229 -82.0903
-29.9873 18.589 -81.6727
-30.047 18.5499 -81.8429
-30.0254 18.1241 -81.9898
-30.0131 18.3441 -81.9417
-29.9259 18.2082 -81.8622
-30.1833 17.6042 -81.582
-30.1967 17.6202 -81.4845
-30.2675 17.5785 -81.5645
-30.0016 17.9702 -81.2417
-30.0814 17.7494 -81.3526
-29.9557 17.8866 -81.3844
-30.3254 17.6338 -81.3719
-30.2219 17.6673 -81.3554
-30.2701 17.7511 -81.2218
-30.3369 17.5671 -81.5608
-30.3065 17.5643 -81.6234
-30.4131 17.6315 -81.3742
-30.3716 17.5842 -81.4819
-30.4379 17.5632 -81.6245
-30.4073 17.5665 -81.5617
-30.4734 17.5756 -81.5667
-30.3356 17.562 -81.6898
-30.2668 17.5737 -81.6878
-30.4769 17.5721 -81.6895
-30.4111 17.5617 -81.6908
-30.3325 17.6555 -81.9076
-30.3736 17.5838 -81.7909
-30.4127 17.6546 -81.9069
-30.2017 17.6165 -81.777
-30.1848 17.601 -81.6724
-30.3005 17.7574 -81.9988
-30.2436 17.6812 -81.9112
-29.9967 17.8604 -81.8511
-30.1209 17.7454 -81.8972
-30.0643 17.9183 -81.9716
-30.0703 17.6717 -81.6239
-29.9 18.0369 -81.7796
-29.9459 17.8417 -81.6996
-29.9325 17.8534 -81.5302
-29.8781 18.0655 -81.4319
-30.2319 17.9654 -81.0862
-30.0842 18.0902 -81.119
-30.22 18.2169 -81.0359
-30.5412 17.6139 -81.4887
-30.5145 17.6604 -81.3589
-30.6573 17.7412 -81.3544
-30.4989 17.6789 -81.9097
-30.5389 17.6131 -81.7766
-30.6159 17.7387 -81.8973
-30.1524 18.0082 -82.0622
-30.2802 17.9074 -82.0759
-30.2655 18.106 -82.1142
-29.8572 18.2618 -81.4965
-29.8639 18.2476 -81.693
-29.8987 18.4531 -81.5881
-30.7044 18.6587 -81.5464
-30.6933 18.662 -81.4641
-30.6531 18.7037 -81.5229
-30.7682 18.5221 -81.3615
-30.7342 18.5998 -81.4088
-30.7895 18.531 -81.4473
-30.5903 18.705 -81.3503
-30.6671 18.6587 -81.3758
-30.629 18.644 -81.2915
-30.7965 18.1183 -81.2631
-30.8032 18.2196 -81.2649
-30.8288 18.1415 -81.3158
-30.7041 18.3596 -81.1651
-30.76 18.2944 -81.212
-30.7093 18.2537 -81.1509
-30.8342 18.3469 -81.3629
-30.8022 18.3262 -81.2845
-30.7923 18.425 -81.3172
-30.3948 18.5299 -81.0868
-30.4718 18.5117 -81.0895
-30.4154 18.4601 -81.0565
-30.5797 18.611 -81.2082
-30.5285 18.566 -81.1418
-30.4958 18.6428 -81.1929
-30.571 18.3743 -81.075
-30.5541 18.4748 -81.1014
-30.631 18.4241 -81.1252
-30.7349 18.4998 -81.2742
-30.6881 18.4664 -81.1931
-30.6622 18.5637 -81.2366
-30.5863 18.747 -81.5077
-30.6183 18.7263 -81.5836
-30.5072 18.7379 -81.3348
-30.5487 18.7517 -81.42
-30.4563 18.794 -81.5832
-30.5032 18.7824 -81.4999
-30.4123 18.8017 -81.498
-30.3262 18.5296 -81.0876
-30.3607 18.5968 -81.1286
-30.2672 18.7032 -81.2511
-30.3154 18.6574 -81.1848
-30.2281 18.6406 -81.1933
-30.4069 18.6582 -81.1846
-30.4564 18.7045 -81.2511
-30.1087 18.7245 -81.5833
-30.1399 18.7454 -81.5078
-30.0749 18.7022 -81.523
-30.3118 18.8012 -81.4979
-30.2217 18.7812 -81.4999
-30.2683 18.7931 -81.5829
-30.1357 18.7028 -81.3502
-30.1769 18.7502 -81.4201
-30.2176 18.7364 -81.3348
-30.4118 18.7557 -81.3244
-30.3119 18.7551 -81.3244
-30.3618 18.7893 -81.4093
-30.5811 18.7345 -81.6585
-30.6476 18.6951 -81.6437
-30.4117 18.7858 -81.6675
-30.5 18.7673 -81.6657
-30.5763 18.6677 -81.8105
-30.5404 18.7243 -81.7422
-30.4982 18.6962 -81.8227
-30.08 18.6929 -81.6433
-30.145 18.7327 -81.6577
-30.2276 18.6949 -81.8217
-30.1854 18.7226 -81.7414
-30.1503 18.6657 -81.8089
-30.2252 18.7661 -81.6652
-30.3131 18.7853 -81.6673
-30.393 18.4395 -82.059
-30.3631 18.518 -82.0178
-30.3338 18.4399 -82.0582
-30.4494 18.6482 -81.902
-30.4039 18.5896 -81.9651
-30.4833 18.5761 -81.9596
-30.243 18.5756 -81.9575
-30.3217 18.5894 -81.9644
-30.2762 18.6477 -81.9007
-30.3624 18.758 -81.7517
-30.3159 18.7106 -81.8308
-30.4092 18.7111 -81.8312
-30.6829 18.6455 -81.7032
-30.7011 18.654 -81.6203
-30.6086 18.5981 -81.8708
-30.65 18.6279 -81.7901
-30.7786 18.5135 -81.7267
-30.719 18.5758 -81.7619
-30.7486 18.4907 -81.8156
-30.4092 18.3564 -82.0908
-30.4575 18.4213 -82.0592
-30.5933 18.3441 -82.0412
-30.5265 18.3879 -82.0545
-30.5338 18.2769 -82.0856
-30.509 18.4897 -82.0107
-30.5584 18.5489 -81.9495
-30.7899 18.092 -81.8979
-30.7621 18.1611 -81.9396
-30.7457 18.0574 -81.9497
-30.7676 18.3844 -81.8685
-30.7712 18.2758 -81.9106
-30.8142 18.3123 -81.829
-30.6575 18.1721 -82.036
-30.7176 18.2276 -81.9813
-30.6617 18.287 -82.0154
-30.6349 18.5088 -81.9298
-30.6533 18.403 -81.9795
-30.7065 18.453 -81.9024
-30.7526 18.6016 -81.5836
-30.8258 18.4427 -81.6852
-30.7952 18.5282 -81.6325
-30.7988 18.5335 -81.5377
-30.8328 18.4548 -81.4913
-30.8004 18.0194 -81.8625
-30.8317 18.1156 -81.8278
-30.8842 18.1391 -81.649
-30.8655 18.131 -81.7411
-30.8652 18.032 -81.6964
-30.8477 18.2268 -81.7862
-30.8453 18.3354 -81.7404
-30.8571 18.151 -81.3821
-30.8372 18.0625 -81.3595
-30.856 18.356 -81.446
-30.8639 18.255 -81.4108
-30.874 18.0458 -81.5134
-30.878 18.1512 -81.4621
-30.8878 18.1458 -81.5492
-30.8625 18.3535 -81.6412
-30.8841 18.2522 -81.5945
-30.8662 18.3602 -81.5403
-30.0355 18.6604 -81.4638
-30.0249 18.6568 -81.547
-30.0986 18.6413 -81.2912
-30.0611 18.6566 -81.3752
-29.9424 18.5289 -81.4474
-29.9959 18.5979 -81.4082
-29.9636 18.5205 -81.3609
-30.306 18.4602 -81.0582
-30.251 18.5112 -81.092
-30.0986 18.4248 -81.1283
-30.1719 18.4743 -81.1048
-30.156 18.3769 -81.0792
-30.1963 18.5638 -81.1436
-30.1467 18.6081 -81.2089
-29.9088 18.1502 -81.3153
-29.9332 18.2249 -81.2656
-29.9408 18.1257 -81.2628
-29.9412 18.4245 -81.3173
-29.9327 18.3283 -81.2852
-29.9014 18.3485 -81.3636
-30.0237 18.2569 -81.1536
-29.9741 18.2964 -81.2136
-30.0279 18.361 -81.1673
-30.0673 18.5613 -81.2369
-30.0432 18.4657 -81.1944
-29.9969 18.4985 -81.2742
-30.4276 18.3717 -81.032
-30.3606 18.4168 -81.0395
-30.5782 18.2689 -81.0622
-30.5036 18.3217 -81.0393
-30.3619 18.2108 -81.0138
-30.4323 18.2669 -81.0189
-30.4319 18.1563 -81.0216
-30.7856 18.0241 -81.2783
-30.7538 18.0765 -81.2152
-30.6318 17.9577 -81.1494
-30.6971 18.0199 -81.175
-30.6737 17.8958 -81.2165
-30.7081 18.1405 -81.1536
-30.6513 18.2046 -81.1031
-30.366 17.7606 -81.1976
-30.4193 17.7997 -81.1653
-30.4054 17.7201 -81.2418
-30.4304 18.0301 -81.0469
-30.4276 17.9098 -81.094
-30.3635 17.9741 -81.0618
-30.5291 17.7836 -81.2082
-30.4849 17.8442 -81.1447
-30.5552 17.8941 -81.1388
-30.5806 18.1505 -81.0663
-30.5734 18.0229 -81.0907
-30.5042 18.0911 -81.0471
-30.8295 17.9671 -81.4063
-30.8084 17.9892 -81.3386
-30.8518 17.9411 -81.5622
-30.8452 17.9514 -81.4825
-30.7373 17.7725 -81.4393
-30.7992 17.8578 -81.4571
-30.7447 17.7542 -81.5093
-30.7607 17.9442 -81.8913
-30.7951 17.9311 -81.8255
-30.7227 17.7397 -81.7387
-30.7688 17.8313 -81.7833
-30.703 17.7559 -81.8102
-30.826 17.9275 -81.7436
-30.8458 17.9323 -81.6555
-30.5169 17.5817 -81.6126
-30.557 17.5956 -81.6313
-30.5173 17.5808 -81.6467
-30.6722 17.6704 -81.5648
-30.6097 17.6231 -81.6046
-30.609 17.6303 -81.5488
-30.6019 17.6261 -81.7128
-30.607 17.6213 -81.6588
-30.6624 17.665 -81.6937
-30.8051 17.8309 -81.616
-30.7353 17.7326 -81.663
-30.7432 17.7385 -81.5858
-30.6913 18.0082 -81.9926
-30.7282 17.9688 -81.9432
-30.5928 18.1106 -82.0739
-30.6452 18.0584 -82.0381
-30.6065 17.8578 -81.9953
-30.6276 17.952 -82.0235
-30.5653 17.9019 -82.0392
-30.3644 18.3029 -82.1076
-30.4164 18.2549 -82.115
-30.4141 18.0478 -82.1168
-30.4163 18.1454 -82.1236
-30.3673 18.0932 -82.1237
-30.4729 18.2086 -82.1128
-30.5307 18.1635 -82.1002
-30.4005 17.7368 -81.9896
-30.4085 17.7945 -82.0289
[...]
POINT_DATA 642
SCALARS Mean_Curvature double 1
LOOKUP_TABLE default
3.61588
3.65218
4.07064
3.97471
3.36513
3.69468
4.12937
3.04829
2.97131
2.91422
3.06379
2.95985
3.05678
3.15431
3.74295
3.8016
3.9342
3.40731
3.41512
3.19156
3.00751
2.83164
3.17707
3.07422
3.33887
3.17902
3.88217
3.3445
3.37139
3.52678
3.07188
3.20756
3.25055
3.12967
3.58703
3.61431
4.11601
4.65309
4.68778
3.55117
3.80979
2.72786
3.30405
3.51191
3.70955
3.00343
3.11928
2.88981
3.72083
3.59984
3.5339
3.9162
3.7688
3.73115
3.8699
3.81403
3.93605
3.78278
3.70189
3.48934
3.53569
3.71369
3.24627
3.47989
3.17223
3.16798
3.32999
3.25804
3.19884
2.92202
2.962
3.08399
2.9835
2.80809
2.72975
2.67295
2.60441
3.57381
3.36174
3.49358
3.59443
2.82151
3.21777
2.97425
3.2213
3.2856
2.89508
3.05631
3.41402
3.17126
3.15459
2.98629
3.02544
3.20734
3.15031
3.81034
3.87839
4.42084
3.26013
3.22931
3.19129
3.05438
3.77957
3.35372
3.57215
3.14955
3.25215
3.34424
3.26412
3.06349
2.89903
2.92268
3.62708
3.33427
3.62853
2.92932
3.3013
2.91467
3.52216
3.18626
3.20135
4.20518
3.92491
3.42304
4.59717
3.9543
3.90853
3.66549
4.52351
4.42815
4.41858
4.53585
3.93574
4.90036
4.10118
4.44399
4.24377
3.52983
3.82138
2.98925
3.61146
3.28238
3.73776
2.65035
2.99323
2.9281
2.74959
3.20252
3.08312
3.30197
3.36581
3.30593
3.337
3.84918
4.46958
3.56964
3.33435
3.44296
3.06386
2.73534
2.91615
2.94823
3.50316
3.52021
3.6555
3.24776
3.41758
3.15696
3.76565
3.64814
3.6665
2.93924
2.97024
2.97553
3.15099
2.97307
3.11763
2.84181
2.83164
3.08373
3.73212
3.671
3.64277
3.68536
3.69125
3.72493
3.38864
3.58147
3.42468
3.35098
3.41192
3.55861
3.75294
3.67748
3.83222
3.82077
3.89771
3.88123
3.95619
3.71299
3.68111
3.86285
3.81027
3.77128
3.76323
3.7947
3.75174
3.81162
3.73807
3.96238
3.90385
3.90703
3.80622
3.85709
3.87066
3.92066
3.92111
3.9452
3.66049
3.52153
3.84401
3.75823
3.47868
3.63251
3.57141
3.59993
3.72887
3.5903
3.6739
3.48057
3.78338
3.8415
3.0706
3.37542
3.07666
3.47065
3.42295
3.33192
3.34289
3.42434
3.47697
3.74072
3.63159
3.62505
3.31299
3.45072
3.31047
3.30602
3.2198
3.14489
3.0754
3.08977
3.001
3.04188
3.11885
3.21995
3.14739
3.25133
2.97187
3.0317
3.04366
2.98541
2.9869
2.91443
3.18334
3.05859
2.95991
3.2225
3.08528
3.08102
3.30461
2.97296
3.11946
3.14995
3.06101
2.93658
2.82595
2.65647
2.83427
2.80154
2.83281
2.88563
2.91552
2.89342
2.91976
2.84533
2.62376
2.78109
2.63125
2.62887
2.53087
2.84722
3.65143
3.53534
3.68815
3.69609
3.20959
3.52722
3.35446
3.61813
3.65934
3.41156
3.56879
3.35851
3.66123
3.68127
2.97515
2.95239
3.02301
3.11434
2.95653
2.85297
3.12179
3.06377
3.21657
3.59199
3.41639
3.40257
3.44331
3.58211
3.21581
3.29457
3.23831
3.20787
3.24776
2.92124
2.97053
3.02059
2.84997
3.18735
3.05217
3.14868
3.398
3.40153
3.25292
3.06623
3.31951
3.19764
3.45716
3.34179
3.2577
3.12865
3.07018
3.07801
2.78189
2.79685
2.80502
2.84424
3.36011
2.91395
3.35483
3.14054
3.0579
3.39598
3.24884
3.34951
2.92426
2.85445
3.99799
4.18227
4.24384
3.61647
3.95945
3.5829
4.33758
4.29528
3.93718
3.06643
3.37505
3.36373
3.13387
3.13983
3.24943
3.07771
3.4726
3.31196
3.42929
3.27973
3.16734
2.97914
2.95642
3.09857
3.3169
3.3444
4.02784
3.76267
3.82101
3.44975
3.57217
3.60409
3.53172
3.4896
3.30111
3.16893
3.16305
3.32089
3.09012
3.15454
3.29764
3.1161
3.24026
3.15306
3.01238
3.45565
3.34638
3.14954
3.22901
3.1932
3.30619
3.32009
3.03928
2.98328
2.94292
2.97734
3.07439
3.12687
2.97396
3.02026
2.89925
3.26252
3.11453
2.99541
3.84997
3.62967
3.77782
3.35438
3.46236
3.47007
3.53274
3.47595
3.35872
2.91831
2.87152
2.90701
3.45654
3.16004
3.11183
3.27695
3.24235
3.22325
3.42145
3.1126
3.29074
3.24826
3.19436
3.56344
3.37324
3.14177
3.30645
3.34315
3.23686
3.26676
3.73155
3.94223
3.95962
3.64333
4.04592
3.79634
3.90725
3.39784
3.78609
4.0544
4.04115
3.57431
4.16029
4.27903
3.99968
3.78605
3.86038
3.89791
3.72461
4.02543
3.53424
3.66347
3.58323
4.80465
4.63192
4.49867
4.14326
4.14916
4.28931
4.20545
4.65117
4.40158
4.6874
4.21061
4.19112
4.67953
4.45281
4.60513
4.1704
4.34531
4.00574
4.05384
4.19556
4.78632
4.42287
4.313
4.34215
4.49645
4.79637
4.63167
4.89242
4.80484
4.38276
4.09063
4.65699
4.60932
4.18745
4.42993
4.14085
3.9062
3.81222
3.67324
3.6895
3.52754
3.83553
4.27302
2.9666
3.14519
3.12573
3.66931
3.34467
3.28713
3.46645
3.42378
3.59733
4.1783
3.75508
3.95231
3.93478
3.88915
4.05775
3.70049
3.39233
2.79364
2.8979
2.67109
2.92646
2.68137
2.93993
3.19933
2.69578
2.91526
3.26981
2.96448
2.57029
2.66089
2.75981
3.18387
2.89606
3.31246
3.46741
3.15792
3.31643
3.33179
3.15177
3.01852
3.14245
3.06162
2.95907
3.0437
3.38226
3.26865
3.28192
3.31335
3.26368
3.10226
3.15763
3.1646
3.72944
3.39032
3.5221
3.56434
3.35167
3.2105
3.45232
3.26092
3.30333
3.32735
2.9408
3.22694
3.21665
3.13582
3.4352
3.32214
3.3415
3.32812
4.01079
4.17262
3.97964
3.8342
3.68371
4.44133
4.25931
4.5286
4.57923
4.54531
3.15074
3.572
3.42727
3.32025
3.68922
4.07594
3.92026
3.74593
3.18272
3.42218
3.35455
3.21087
3.26379
3.52763
3.41362
3.47213
3.43806
3.50927
3.22947
3.33389
3.29225
3.07203
3.08231
3.33787
3.15861
3.22708
2.8752
2.6493
2.79436
2.82984
2.83064
2.78931
2.96072
2.86944
2.763
2.81212
3.26618
2.99985
3.09583
3.16528
3.0134
2.64611
2.75169
2.72114
SCALARS CoVolArea double 1
LOOKUP_TABLE default
0.0036054
0.00355781
0.000764173
0.000794626
0.00286325
0.00366389
0.00148296
0.00348951
0.00397441
0.00396968
0.00406096
0.00397532
0.00940846
0.00988309
0.00937845
0.00923858
0.00977011
0.00872529
0.00884534
0.00938096
0.0102718
0.0106497
0.00943788
0.00924267
0.0102762
0.00950101
0.00674366
0.00715243
0.00476974
0.00584416
0.00973251
0.00917775
0.00690553
0.00988663
0.00266382
0.00251941
0.00137012
0.00311742
0.00331921
0.00609049
0.00713653
0.0103707
0.00808808
0.00963798
0.00822161
0.00875526
0.00991008
0.00865806
0.00834455
0.0100265
0.00852733
0.0100356
0.00835456
0.0081194
0.00968072
0.00825984
0.00996401
0.00814149
0.00940132
0.00794034
0.007822
0.00935943
0.00766405
0.00910533
0.00757014
0.00969559
0.00838537
0.00758212
0.00945517
0.00952084
0.0103298
0.00853778
0.0101492
0.00976883
0.0112622
0.0106503
0.00846526
0.00945
0.00812352
0.00816325
0.0095077
0.00831704
0.00959116
0.00834869
0.0100051
0.00822164
0.00937751
0.0106948
0.00858791
0.0106576
0.00730834
0.00990341
0.00870562
0.00836144
0.0105878
0.00303978
0.00667623
0.00288513
0.00777752
0.00727305
0.00609143
0.00677714
0.00366477
0.00533862
0.00395158
0.00920089
0.00746675
0.00811892
0.00933651
0.00842758
0.00991138
0.00909693
0.00308428
0.00430274
0.00172587
0.00913403
0.0084575
0.00879927
0.00399292
0.00607589
0.00717351
0.00147645
0.00124614
0.00395022
0.00226007
0.00121912
0.00138706
0.00162788
0.00182668
0.00187558
0.00173307
0.00177871
0.00341668
0.00318652
0.00340321
0.00467585
0.00306223
0.00370677
0.00493823
0.00822414
0.0071298
0.00744785
0.0068312
0.00935376
0.0103191
0.00977019
0.00858259
0.0104495
0.0101744
0.00979639
0.00428342
0.00612803
0.00870339
0.00477864
0.00430834
0.00690416
0.00802942
0.00555617
0.0069
0.0101547
0.0106035
0.00977989
0.00603956
0.00772798
0.00609789
0.00950287
0.00866395
0.00883364
0.00892389
0.00872328
0.00956121
0.00661877
0.00831639
0.00653052
0.00996869
0.00922039
0.00942874
0.0091897
0.00912215
0.00963883
0.00619029
0.0080792
0.00624672
0.0097154
0.00908342
0.00901799
0.00940153
0.00922947
0.0100419
0.0104613
0.0106888
0.0105196
0.00798719
0.00611124
0.00962968
0.0089746
0.00926899
0.00915893
0.0100258
0.0060855
0.0078763
0.00948422
0.00876965
0.00880393
0.0088473
0.00956843
0.00599693
0.00787301
0.00603221
0.00998105
0.00907086
0.00921931
0.00884203
0.00891224
0.00957535
0.0105703
0.0105236
0.0107981
0.00770123
0.00603824
0.00972149
0.00881036
0.00847717
0.00845375
0.00904515
0.00592876
0.0076267
0.00895776
0.0083993
0.00836887
0.0087735
0.00970399
0.00580179
0.0073038
0.00575711
0.00900029
0.00821979
0.00835612
0.00824707
0.00818238
0.00891781
0.0101349
0.00982251
0.00987109
0.00782963
0.00612054
0.00919768
0.00860934
0.00943363
0.0089812
0.010055
0.00570203
0.00742948
0.00961599
0.00853029
0.00853455
0.00837098
0.0091204
0.00704508
0.00872691
0.00655435
0.0103608
0.00983049
0.0101284
0.00915512
0.00948776
0.00999922
0.0102194
0.0105534
0.0107226
0.00786794
0.010362
0.00911596
0.00885546
0.00972948
0.00708474
0.00931106
0.0112416
0.0105267
0.0106329
0.0103416
0.0108262
0.00828619
0.00641687
0.00996731
0.00939456
0.00950669
0.00951798
0.0108306
0.0115018
0.0118213
0.0111367
0.00772348
0.0060466
0.00935483
0.00862693
0.00881392
0.00863706
0.00938294
0.00609584
0.00774202
0.00947721
0.00868279
0.00892756
0.00867716
0.00938603
0.00638213
0.00798517
0.00643899
0.00939916
0.00875546
0.00886191
0.00896087
0.00881009
0.00955437
0.0101525
0.0102577
0.0101983
0.00798356
0.00617141
0.0100466
0.00909676
0.00883202
0.00885092
0.00969126
0.00683147
0.00866391
0.011012
0.0100389
0.0102493
0.00956817
0.0101875
0.0057656
0.00781663
0.00506375
0.0100891
0.00947312
0.00945946
0.0088714
0.00931421
0.0107363
0.0111026
0.0115579
0.0110447
0.00813828
0.00665269
0.0102838
0.00903639
0.00854179
0.00900364
0.00884822
0.0065987
0.00891608
0.00877715
0.00953518
0.0081376
0.0103855
0.0110035
0.00163119
0.00277532
0.00160827
0.00693822
0.00443515
0.00485895
0.00451169
0.00427041
0.00658189
0.0109984
0.00941248
0.00945056
0.00761336
0.00620477
0.00876754
0.00836046
0.00668066
0.00747904
0.00680451
0.00539506
0.0065697
0.00542003
0.00610652
0.00530543
0.00735767
0.00834417
0.0025453
0.00364054
0.00271846
0.0056801
0.00445172
0.00460495
0.00436626
0.00436303
0.00488155
0.00775424
0.00620806
0.0068302
0.00728741
0.00564363
0.00891775
0.00818842
0.00836923
0.00832725
0.00934608
0.00602308
0.00762528
0.00957235
0.00862344
0.00894687
0.008394
0.00898646
0.00647942
0.0084362
0.00680956
0.00967251
0.00916287
0.00899515
0.00964537
0.00940444
0.00990569
0.009882
0.0102763
0.0101954
0.00168043
0.00216748
0.00126695
0.00553307
0.0035043
0.00477685
0.00207163
0.00259577
0.00330134
0.00675931
0.00874674
0.00678351
0.00926463
0.00937801
0.00986644
0.00839858
0.00884767
0.00756041
0.00386344
0.00527869
0.00503032
0.00407765
0.004763
0.00327796
0.00860084
0.0066188
0.00821138
0.00673141
0.00772453
0.00541071
0.00131472
0.00107437
0.00189283
0.00152251
0.00129343
0.00129365
0.00132599
0.00386281
0.00366318
0.00226832
0.0029198
0.00317096
0.00297099
0.0023808
0.00103639
0.00124743
0.00121579
0.00129596
0.00122942
0.00128312
0.00194228
0.00140747
0.00175814
0.00186731
0.00180263
0.0014859
0.00137282
0.00129579
0.00152608
0.00140363
0.00247223
0.00174562
0.00242663
0.00122648
0.00130792
0.00229794
0.00163581
0.00226844
0.00137352
0.0015221
0.00245549
0.00323044
0.00245257
0.00319675
0.00351747
0.00367931
0.00358106
0.00349203
0.00309874
0.00195259
0.00253113
0.0025728
0.0022352
0.00168085
0.00384876
0.0028843
0.00484706
0.00363269
0.00576819
0.00254798
0.0032656
0.00539193
0.00412599
0.00475495
0.00392575
0.00433012
0.0064545
0.00743534
0.00619795
0.00738023
0.00771519
0.00824438
0.00695359
0.00722189
0.00653611
0.00546716
0.00633855
0.00660063
0.00286804
0.00696558
0.00447101
0.00448524
0.00681875
0.00684563
0.00863741
0.0105191
0.00995797
0.0101537
0.00933011
0.00897645
0.00832299
0.00648618
0.00866529
0.00903095
0.00955925
0.00916839
0.0101149
0.00954914
0.010682
0.00935624
0.0077493
0.0103815
0.00912055
0.00939364
0.0100186
0.00833101
0.0097288
0.00906727
0.00957162
0.0105308
0.00786551
0.00961473
0.00877937
0.00884917
0.00970553
0.0111446
0.0107264
0.0108498
0.00209668
0.00318513
0.0024984
0.00347937
0.00568081
0.00531639
0.00846813
0.0067436
0.00474402
0.00398171
0.00873833
0.00779587
0.00896819
0.00961082
0.00959567
0.0054007
0.00790345
0.0068776
0.00324681
0.00412321
0.00385848
0.00405259
0.00521968
0.00208438
0.00536965
0.00334716
0.00263479
0.00354704
0.00744387
0.00630296
0.00704554
0.00762267
0.00708003
0.00515197
0.00624512
0.00609232
0.00770678
0.00709283
0.00772651
0.00843674
0.00881468
0.00367046
0.00501483
0.00446926
0.00458339
0.00592584
0.00655034
0.00835483
0.00734725
0.00614389
0.00550726
0.00712266
0.00642366
0.00797478
0.00812614
0.0104809
0.00932739
0.00900706
0.00959968
0.00887756
0.0102199
0.00979081
0.0099717
0.0106931
0.00779695
0.009536
0.00878159
0.00881085
0.00979145
0.0111663
0.0108619
0.010634
SCALARS SignedDistance double 1
LOOKUP_TABLE default
1.26953
1.28185
1.23721
1.2362
1.20997
1.28117
1.34129
1.184
1.11098
1.09917
1.11871
1.09735
1.22878
1.21673
1.31839
1.32851
1.33824
1.26204
1.26444
1.10913
1.11972
1.03417
1.22475
1.23898
1.06892
1.18634
1.15015
1.0937
1.23607
1.23588
1.12461
1.10337
1.10514
1.0732
1.31323
1.30853
1.32726
1.24362
1.23126
1.21119
1.1302
1.05568
1.26994
1.29861
1.32035
1.1431
1.23608
1.13118
1.29643
1.27004
1.2649
1.35094
1.31946
1.3161
1.35894
1.3177
1.34732
1.31435
1.321
1.27267
1.27555
1.31834
1.23087
1.2851
1.2306
1.20853
1.20331
1.11711
1.18648
1.09189
1.13451
1.09144
1.195
1.07292
1.05039
1.13415
1.08953
1.29295
1.27875
1.27702
1.28561
1.13533
1.22889
1.14607
1.20415
1.26297
1.09326
1.14386
1.13034
1.11457
1.12528
1.0773
1.05386
1.10258
1.08209
1.20056
1.11938
1.18025
1.16135
1.16036
1.16177
1.13019
1.31001
1.24068
1.29404
1.19459
1.12477
1.21064
1.20349
1.10483
1.12514
1.09631
1.2026
1.2214
1.28382
1.09095
1.0551
1.04549
1.27366
1.17596
1.13351
1.34665
1.28799
1.26465
1.36355
1.2877
1.33715
1.28013
1.28076
1.22968
1.23506
1.28122
1.29728
1.27089
1.31305
1.1824
1.16979
1.29302
1.25257
1.11773
1.19591
1.14365
1.10514
1.06643
1.06
1.04902
1.10653
1.14124
1.14824
1.2055
1.22139
1.17167
1.06649
1.27661
1.19265
1.2064
1.14553
1.22588
1.13677
1.1189
1.05625
1.17972
1.26426
1.29887
1.28657
1.27428
1.29757
1.25866
1.32609
1.31792
1.30548
1.11293
1.13156
1.10026
1.22466
1.17857
1.17393
1.18614
1.18767
1.23783
1.28315
1.27707
1.27708
1.28974
1.281
1.30853
1.24936
1.26364
1.25469
1.27004
1.26193
1.2827
1.31048
1.29146
1.34441
1.33754
1.33702
1.33575
1.34103
1.29287
1.30542
1.34657
1.33827
1.32879
1.33008
1.33969
1.29845
1.31709
1.29837
1.34208
1.33802
1.33478
1.32266
1.33125
1.34132
1.36176
1.36011
1.35252
1.29954
1.27018
1.34099
1.32493
1.27458
1.30108
1.29587
1.27499
1.2981
1.29469
1.2999
1.27342
1.31953
1.33798
1.20432
1.24534
1.20254
1.28007
1.25564
1.24794
1.24846
1.25615
1.28037
1.33564
1.3102
1.31102
1.23183
1.24258
1.24131
1.24319
1.15881
1.1957
1.16199
1.15084
1.16932
1.14839
1.14504
1.11002
1.20234
1.22526
1.10059
1.0943
1.11966
1.13102
1.10829
1.0944
1.0983
1.09559
1.1242
1.20218
1.1709
1.17067
1.23399
1.15212
1.19358
1.2325
1.21596
1.1034
1.07806
1.04189
1.04572
1.046
1.06345
1.08565
1.10768
1.10396
1.18414
1.13195
1.04003
1.09658
1.07577
1.13126
1.10472
1.17053
1.30113
1.27865
1.30985
1.3095
1.26839
1.29644
1.27998
1.29081
1.29553
1.26251
1.28194
1.25717
1.3022
1.30707
1.10112
1.13894
1.11422
1.23849
1.18854
1.19369
1.18327
1.1854
1.22621
1.28708
1.26076
1.26929
1.27455
1.2831
1.20845
1.2444
1.21854
1.22899
1.19234
1.10746
1.12856
1.09323
1.10982
1.0615
1.15081
1.17721
1.15909
1.12744
1.17622
1.15744
1.11792
1.13975
1.07005
1.09852
1.08427
1.17238
1.12592
1.16402
1.07227
1.08975
1.059
1.0626
1.03034
1.0672
1.04867
1.1062
1.09487
1.11054
1.09553
1.13207
1.08057
1.06365
1.22405
1.18582
1.21049
1.10294
1.15285
1.15799
1.15899
1.15155
1.13461
1.08099
1.0948
1.08072
1.13791
1.1248
1.10409
1.13032
1.19816
1.17056
1.2045
1.15309
1.12563
1.18965
1.14025
1.19542
1.09699
1.09658
1.33012
1.30878
1.32517
1.24426
1.28171
1.27553
1.25906
1.27414
1.23449
1.14267
1.18932
1.19671
1.16515
1.15649
1.22718
1.19922
1.11091
1.14743
1.14312
1.25342
1.23983
1.16694
1.20043
1.16915
1.24187
1.23443
1.1185
1.10452
1.11108
1.10679
1.08431
1.10317
1.09573
1.09139
1.13773
1.2049
1.17993
1.17217
1.22259
1.24548
1.25622
1.16456
1.22272
1.16825
1.31388
1.27233
1.27097
1.10177
1.07265
1.07805
1.04901
1.051
1.06798
1.0401
1.02588
1.07993
1.24461
1.20607
1.18301
1.25322
1.22846
1.29801
1.08244
1.15143
1.0921
1.14
1.11623
1.1998
1.28782
1.25954
1.34715
1.31762
1.31522
1.3178
1.34647
1.23403
1.29556
1.33896
1.32306
1.29375
1.33434
1.34786
1.25927
1.28595
1.25554
1.3336
1.31539
1.30932
1.30521
1.31277
1.33882
1.3793
1.36375
1.35933
1.25808
1.23156
1.31135
1.28443
1.22803
1.25572
1.25232
1.23437
1.25947
1.2623
1.26087
1.2364
1.28715
1.30151
1.33569
1.31364
1.33343
1.25519
1.27596
1.25076
1.27151
1.27838
1.26474
1.29449
1.27423
1.27873
1.20225
1.20637
1.20786
1.20227
1.13932
1.17195
1.15355
1.32781
1.31269
1.24993
1.28448
1.25333
1.27516
1.22893
1.09523
1.14054
1.11557
1.16082
1.16453
1.13733
1.17517
1.17714
1.21213
1.20561
1.22678
1.18234
1.18065
1.10964
1.13534
1.15446
1.11226
1.09267
1.06425
1.05686
1.03425
1.05458
1.0885
1.10164
1.07744
1.08674
1.04289
1.04717
1.05749
1.06068
1.06457
1.05441
1.05386
1.04424
1.13385
1.11095
1.11999
1.12889
1.15949
1.11933
1.18285
1.14642
1.11732
1.10907
1.26684
1.19407
1.2218
1.23563
1.21472
1.15092
1.18167
1.17971
1.24369
1.26995
1.2656
1.21603
1.16142
1.19489
1.08467
1.13962
1.22236
1.25331
1.07468
1.08891
1.04988
1.05999
1.05743
1.20508
1.11595
1.14859
1.32811
1.24843
1.29824
1.30122
1.26648
1.20857
1.17116
1.18371
1.21033
1.21796
1.13259
1.22149
1.18091
1.15778
1.17687
1.22394
1.20056
1.24847
1.13201
1.18035
1.13983
1.13047
1.1121
1.29607
1.23421
1.26029
1.25518
1.21638
1.13297
1.09929
1.10608
1.14927
1.19735
1.18354
1.19004
1.14294
1.09874
1.06831
1.1029
1.135
1.18711
1.09369
1.08724
1.07988
1.06535
1.0478
1.24109
1.21981
1.23246
1.19119
1.14391
1.0825
1.11175
1.15957
