# vtk DataFile Version 4.2
vtk output
ASCII
DATASET POLYDATA
POINTS 642 double
-65.4935 153.169 88.1729
124.172 153.59 86.4179
-60.0106 -196.504 79.6681
119.643 -196.037 79.9258
30.6783 -111.87 214.738
31.9626 94.778 241.344
30.5159 -113.875 -63.9252
31.2915 79.5508 -56.1808
150.023 -12.2077 4.11433
161.34 0.598056 171.837
-90.496 -14.9525 0.773281
-104.458 -1.32354 168.854
-112.182 88.2711 142.215
-56.5261 48.428 228.886
-27.3911 154.17 183.641
88.9237 152.908 183.756
30.5656 188.995 87.97
84.668 142.228 -3.34021
-23.965 142.935 -3.2676
-43.0486 42.0373 -45.081
-98.4724 84.1405 37.6829
-120.296 -10.6005 101.71
116.768 49.4679 230.018
171.791 85.9192 141.659
-41.4766 -67.7445 206.238
28.8714 1.36643 257.741
-80.3794 -127.612 44.5104
-88.6941 -114.946 130.843
28.5122 -18.2423 -95.8607
-40.0542 -78.5841 -50.7134
159.245 85.5778 38.8604
103.07 45.6174 -44.5694
149.629 -111.175 132.451
102.183 -67.8782 207.049
76.8843 -187.802 159.814
-17.0261 -192.903 160.915
29.708 -226.457 89.7842
-24.3088 -188.477 8.95422
80.5265 -185.485 10.297
96.8698 -78.5552 -48.3378
134.029 -117.321 43.0776
178.558 -10.6596 92.7477
-96.1669 125.603 117.901
-79.0807 125.191 165.455
-51.8983 160.809 137.482
-85.7343 24.3973 203.727
-90.6568 74.4594 188.929
-111.02 42.6879 161.411
1.17753 129.661 219.647
-46.5922 107.139 212.04
-13.2279 75.0365 241.494
-1.45034 180.697 141.463
-22.0116 178.139 85.3004
61.1914 128.48 221.076
29.6396 164.155 189.815
83.0692 178.215 86.4625
62.5117 180.825 140.75
111.218 160.88 137.71
-1.16096 175.075 35.8385
-47.2769 156.496 39.1849
108.571 155.114 39.1545
60.8941 174.872 35.5675
2.18652 117.038 -34.9379
30.4879 150.48 -7.28883
58.7459 116.67 -35.2604
-68.6735 119.433 11.9702
-88.8078 122.459 61.0374
-6.62386 63.7504 -57.5338
-38.6717 98.9141 -29.8535
-96.1332 39.8336 18.2465
-75.2003 70.3983 -8.54746
-71.1301 14.9116 -23.9127
-113.458 91.3492 92.3173
-105.111 -6.61645 44.7575
-114.713 44.7995 64.1954
-116.674 47.0352 119.514
-123.228 -11.9061 129.226
137.842 124.821 166.869
153.934 123.085 118.542
76.1132 77.2093 242.585
107.629 107.223 215.074
170.832 43.8338 160.47
149.745 73.186 190.161
144.832 25.3467 205.15
-11.3865 22.1232 254.865
30.9772 41.359 258.987
-78.734 -28.4173 194.367
-53.2162 1.48297 228.621
29.8525 -51.9981 237.937
-8.42955 -26.1415 242.654
-9.82694 -96.9932 217.099
-113.172 -52.4588 116.551
-103.679 -51.6475 149.443
-88.4381 -61.2981 12.0686
-98.5059 -65.3139 66.198
-74.2568 -166.008 101.595
-93.2511 -128.991 80.072
-77.9349 -167.654 57.4335
-37.5359 -19.7286 -60.6908
-67.9616 -47.6959 -27.0326
29.7288 21.2173 -84.5326
-0.578511 -0.274366 -83.9613
-6.0932 -99.5341 -64.8465
-1.74898 -39.0339 -82.527
29.1581 -62.7331 -78.6373
99.5985 98.4609 -30.1438
68.6883 65.1272 -58.2428
149.897 121.81 58.8471
129.992 118.981 12.0234
130.122 19.1563 -21.6607
135.145 70.5853 -8.68899
156.538 39.6474 18.622
131.174 -165.125 97.968
117.032 -153.815 146.023
100.609 -198.018 122.263
136.787 -26.6513 196.308
132.274 -99.0601 173.055
157.102 -57.1645 148.002
54.8569 -155.237 186.033
96.1629 -126.045 190.676
70.6443 -97.3536 216.946
55.6504 -221.036 130.31
83.8739 -221.225 81.4165
4.65165 -160.242 182.764
25.8697 -199.452 167.057
-22.5201 -221.289 84.3948
-0.396717 -225.426 131.531
-42.0263 -202.097 125.941
62.666 -217.159 38.5974
104.9 -197.933 44.4553
-47.1165 -200.477 40.2167
-5.40229 -218.227 37.6175
53.9329 -140.964 -40.999
29.2521 -191.55 5.32848
5.06983 -142.021 -39.6511
114.755 -163.953 27.5718
132.051 -170.037 63.2657
64.2616 -100.59 -64.4101
87.8197 -122.221 -35.7094
149.031 -60.8215 14.58
124.847 -91.2063 -13.0221
126.694 -46.3389 -23.3961
148.745 -125.128 86.8541
165.487 -3.68134 46.5031
160.681 -57.0672 68.5047
170.273 -54.936 111.618
176.923 -6.76371 130.299
69.8854 -27.7431 241.042
115.429 2.53149 228.677
73.1697 25.1097 253.089
-56.6904 -160.179 143.893
-35.5815 -128.245 189.234
-72.1657 -99.6655 173.952
-30.8819 -124.079 -34.3426
-61.6751 -166.384 25.2127
-66.4185 -93.2659 -15.5049
96.2467 -18.5362 -57.639
59.3294 -39.5217 -80.2111
59.3135 2.01357 -82.0089
177.749 47.9186 119.879
175.556 44.2763 65.9808
174.467 88.6761 88.613
-82.4603 140.915 104.123
-76.9262 144.275 128.337
-60.7971 157.801 112.548
-99.1126 106.656 153.735
-89.938 126.341 141.936
-106.191 107.495 130.573
-40.5167 159.7 161.065
-66.4874 144.563 152.891
-54.2545 141.655 175.687
-97.0969 12.3098 187.408
-100.515 33.0084 183.563
-109.414 17.1732 167.939
-74.3345 62.0235 210.609
-88.1309 48.7973 198.305
-72.5574 36.2962 218.176
-111.873 69.0811 151.656
-102.2 61.1351 174.648
-103.781 82.934 165.564
16.9097 112.346 233.292
-7.15511 104.677 232.196
9.39556 86.3004 242.705
-37.9883 132.631 199.713
-23.277 120.462 217.071
-13.2052 144.032 203.275
-35.7396 62.0816 236.603
-30.8883 92.4481 227.985
-52.7207 78.3535 221.588
-87.5776 100.532 178.638
-71.4033 91.0048 201.857
-64.4681 118.318 190.558
-37.3362 171.508 114.657
-45.5257 166.856 86.1968
-15.2825 170.639 164.445
-27.169 173.555 141.28
4.71607 184.756 86.819
-10.6834 181.064 115.042
15.6719 187.579 113.301
46.082 111.739 233.826
30.6297 131.173 220.904
60.4219 160.942 188.235
45.9343 148.511 205.469
75.1936 142.372 204.186
14.4058 149.475 205.433
0.315484 161.922 188.565
105.755 167.312 86.65
97.4805 171.889 114.368
118.464 158.12 112.169
45.4621 187.591 113.213
71.7677 181.095 114.879
56.1177 184.838 87.3073
101.257 159.127 160.85
87.9328 173.579 140.719
76.4498 170.239 163.6
13.7264 176.247 168.544
46.3048 175.502 167.838
30.2886 182.039 140.989
-35.5048 170.634 59.384
-56.7784 156.965 62.5272
14.2704 182.533 60.8201
-12.0894 179.584 58.8833
-36.6111 151.627 17.4376
-24.8632 168.131 36.7129
-13.3577 161.311 15.3414
117.648 156.044 62.9048
96.2394 169.489 60.7979
73.392 160.724 15.086
84.9777 166.888 36.5904
97.5844 150.532 17.1612
71.8933 178.719 59.8271
46.0631 182.65 60.9774
16.9845 99.3148 -46.0753
30.6314 118.432 -35.134
44.7081 98.944 -46.387
1.37206 149.048 -6.93881
15.0056 135.41 -22.1487
-10.7975 131.062 -21.012
71.4691 130.638 -21.1339
45.8645 135.365 -22.2286
59.0876 148.916 -7.03141
30.3706 177.142 34.4296
45.826 165.86 12.5439
14.7897 165.863 12.6476
-69.2613 141.142 47.197
-78.0951 139.362 74.9104
-47.9066 133.011 3.22054
-59.4696 138.785 23.65
-95.2673 104.134 48.6729
-79.2987 122.358 33.7604
-85.0702 102.926 23.2422
11.5198 71.9948 -59.0586
-4.79506 93.0401 -45.9941
-41.3333 73.5953 -37.0999
-24.4186 84.3731 -43.1362
-24.3507 54.1559 -52.5475
-19.571 109.338 -33.5453
-32.5621 121.718 -18.6172
-92.5149 10.1568 8.07574
-85.2405 28.5618 -5.88064
-82.3663 -1.18988 -11.9595
-87.9468 79.0637 12.3518
-86.8077 56.3399 3.88807
-98.5902 63.7173 28.2048
-59.6263 28.8644 -35.806
-74.1454 43.5012 -17.5876
-60.6635 57.7075 -27.4611
-54.8053 110.408 -10.7439
-58.7197 86.0825 -20.4054
-73.6435 95.6988 0.0552058
-95.6835 124.771 91.389
-108.451 88.1301 65.3475
-103.996 106.498 77.8905
-107.586 108.194 105.644
-114.361 91.4588 118.515
-97.9607 -12.4215 17.7644
-102.613 16.3624 32.4562
-117.843 16.2235 78.4161
-113.254 19.8181 57.4448
-114.855 -4.93387 73.5264
-107.603 44.0308 43.9637
-109.35 65.3122 52.6704
-115.641 14.7394 147.553
-115.389 -6.77668 149.815
-115.903 71.7526 131.573
-115.993 47.0458 140.876
-124.972 -13.2607 117.711
-120.558 8.99217 126.917
-119.175 8.26604 107.545
-115.572 70.2738 77.3855
-117.038 46.7762 89.5253
-116.168 73.5265 105.823
134.082 143.283 129.65
139.185 139.603 102.394
115.047 140.927 176.793
125.751 144.166 154.035
165.111 105.167 131.366
147.964 125.038 143.457
157.308 105.655 154.194
54.6353 86.8762 243.927
70.8309 104.082 234.256
112.476 80.1984 223.602
93.0703 93.5709 230.954
96.7177 64.5708 237.628
86.1209 119.275 219.654
99.9882 131.486 201.665
167.167 21.1865 167.859
159.257 35.4725 183.818
154.589 13.4924 188.67
162.579 80.8874 165.755
162.83 58.9747 175.449
172.848 65.8962 151.189
132.848 36.2911 219.013
148.477 48.4903 199.261
134.108 62.2865 211.995
124.432 118.211 192.679
130.257 91.6699 203.935
145.696 100.467 179.966
8.4452 57.0095 253.303
31.7478 68.904 250.681
-35.0396 34.952 243.015
-13.5376 45.1785 250.076
29.7778 19.6755 260.511
8.2885 30.0628 259.271
8.83427 11.6091 259.414
-93.2179 -14.2146 181.87
-82.9008 1.27887 201.556
-49.253 -27.6165 221.715
-66.3606 -12.933 213.331
-61.1956 -46.8538 203.172
-70.1033 14.0969 218.347
-56.2756 24.1198 231.387
30.5837 -88.712 222.735
10.7667 -75.2149 225.092
9.56773 -105.842 217.465
9.88073 -10.9826 252.69
10.6397 -37.6177 242.937
29.0214 -21.9341 249.473
-25.8339 -86.0119 215.075
-9.97716 -60.8548 226.413
-27.3379 -45.772 226.861
-33.7054 12.5962 243.394
-30.9706 -12.6766 238.028
-9.93392 1.0582 251.451
-116.065 -28.7539 138.9
-106.672 -26.8498 158.783
-120.026 -26.125 113.692
-121.114 -27.0077 122.498
-92.3104 -83.5876 141.31
-111.113 -51.9147 130.994
-97.6856 -83.6972 121.103
-90.1639 -35.6817 5.29339
-97.2424 -35.8372 24.6953
-90.6093 -99.6555 52.9253
-94.3424 -63.6927 33.6226
-86.1043 -89.0537 24.1048
-104.151 -31.0444 54.0933
-113.538 -27.586 87.5563
-67.9164 -183.518 90.8919
-79.0016 -167.172 77.1231
-70.815 -183.722 67.1361
-91.7889 -123.754 103.084
-86.6518 -146.162 88.66
-82.0398 -141.663 114.235
-80.2807 -152.02 52.3834
-86.6566 -149.008 68.8574
-90.718 -131.893 65.7976
-107.011 -60.2854 97.9396
-94.7919 -104.398 76.3799
-96.1804 -94.5288 94.5817
-70.7128 -17.3412 -27.3759
-81.3014 -29.5025 -12.8667
-38.7264 5.6847 -53.1671
-55.6238 -4.2078 -41.0814
-54.862 -64.7686 -40.0755
-54.6288 -33.3896 -43.4704
-39.2451 -45.7957 -55.0292
30.5844 50.8177 -69.7668
14.5752 39.2156 -73.3839
14.8223 -10.1624 -92.8392
15.5643 9.56484 -86.5739
28.8538 -2.19236 -92.0556
-2.28071 28.9203 -71.5543
-18.4868 18.4623 -65.5924
11.8327 -108.034 -66.268
10.3656 -84.8819 -73.6452
30.45 -95.9749 -71.5958
-20.0248 -61.5118 -65.7201
-4.52679 -73.3374 -71.6479
-23.4742 -90.3123 -59.7547
28.4917 -31.5785 -92.712
12.0671 -48.1806 -84.2236
14.8254 -25.6648 -93.0001
-18.8911 -10.3624 -75.9243
-2.03171 -18.1077 -87.9762
-19.5884 -27.9394 -75.1041
65.9542 92.2977 -47.0215
50.697 72.5195 -59.3388
93.6928 121.149 -18.7794
[...]
POINT_DATA 642
SCALARS Mean_Curvature double 1
LOOKUP_TABLE default
0.00879076
0.0105035
0.0197798
0.0334826
0.00911821
0.00769174
0.0120914
0.0034699
0.0171225
0.00864532
0.0167539
-0.00278911
0.0256102
0.0138261
0.0140947
0.0122506
0.0186229
0.0119818
0.0130136
0.00771971
0.00842563
0.0118003
0.0124301
0.0218674
-0.0146699
0.0150905
-0.00744744
0.0133889
0.0528126
0.0121208
0.0100577
0.0103192
0.0183185
-0.0104636
0.0209024
0.0222926
-0.00746467
0.0233946
0.016008
0.00944321
-0.0106164
0.0159555
0.0159604
0.0130859
0.0130309
0.0137137
0.0140198
0.0123226
0.0134442
0.0106668
0.00825675
0.0126284
0.0101806
0.0140102
0.0150369
0.0121443
0.0137417
0.0142022
0.0151646
0.0132184
0.0127403
0.0165261
0.0151295
0.00754497
0.0151414
0.0153271
0.00938761
0.00905993
0.0160581
0.00474264
0.0098258
0.00266064
0.0196899
-0.000406835
0.0123295
-0.00113257
0.0294616
0.0135018
0.0107909
0.0105667
0.0140855
0.0103436
0.0110526
0.013572
0.0225801
0.0141843
0.00681342
0.00903777
0.00953416
0.00900837
0.0150119
0.0266945
0.0126221
0.00860336
-0.0049758
0.00691114
0.0237077
0.0269926
0.014407
0.00591186
0.0261812
0.0135949
0.0184269
0.011477
-0.00531929
0.0156855
0.0144273
0.0120797
0.0159447
0.00295608
0.00881373
0.00737094
0.00349782
0.00576646
0.0164893
0.00787148
0.0155124
0.00130484
0.00409878
0.0132554
0.0160079
0.017079
0.0242585
-0.000520298
0.0239634
0.0118681
0.0263967
0.0208151
0.0212744
0.0178905
0.021417
0.0208588
0.0183641
0.00557974
0.0162655
0.0151234
0.0306293
0.0226681
0.0117039
0.0153865
0.0125112
0.00442693
0.0167796
0.000210073
-0.00612211
0.0133129
0.0133281
0.00945099
0.0113399
0.0156929
0.00372483
0.0119376
0.016937
0.0116512
0.0184507
0.0120436
0.0114544
0.00917867
0.0134793
0.000991122
0.0123426
0.0225305
0.0138001
0.0151605
0.00988052
0.0152698
0.0137942
0.0167432
0.0127081
0.0113647
0.0127549
0.0154139
0.0122105
0.0217137
0.0112139
0.00848884
0.0172629
0.012521
0.00736233
0.0181932
0.0152238
0.0132421
0.00726992
0.0126378
0.0118782
0.0143023
0.00880683
0.00910857
0.00941486
0.0136261
0.0113812
0.0129963
0.0101845
0.00835292
0.0154324
0.016391
0.00682525
0.00700727
0.0152476
0.0132024
0.00782961
0.014158
0.0105791
0.0123743
0.0136168
0.0161821
0.0120402
0.0123225
0.00847712
0.015291
0.00714441
0.00722871
0.0122364
0.0173671
0.0152859
0.0197735
0.016255
0.00269699
0.0174969
0.0127351
0.00616708
0.0183493
0.0127417
0.0148225
0.013486
0.0121755
0.0145736
0.0130865
0.012195
0.0125518
0.0142666
0.0075621
0.00801426
0.00718074
0.00772537
0.0142609
0.0113737
0.0141005
0.0133669
0.011814
0.0148036
0.0135913
0.014978
0.0140519
0.0125991
0.00638015
0.0138275
0.0147524
0.0089655
0.0141388
0.0125861
0.012014
0.00996445
0.00724443
0.0125718
0.00524227
0.0149981
0.0138764
0.00217401
0.0144399
0.0104687
0.0138637
0.00743463
0.00678488
0.0150025
0.0103743
0.00836755
0.0144225
0.0132619
0.0139569
0.0152393
0.014313
0.0121562
0.016057
0.0216971
0.0132354
0.00236489
0.0120765
0.0123315
0.00778224
0.00648284
0.0121262
0.00483645
0.0170512
0.0127116
0.0109914
0.0536318
0.0121691
-0.00331748
0.0162625
0.00327429
0.00563452
0.0111455
0.00564249
0.0138427
0.0132157
0.016962
0.0136588
0.0133866
0.0111336
0.0154833
0.00930072
0.0163918
0.00821623
0.01428
0.0141087
0.0120629
0.00989274
0.0109905
0.0117699
0.0141558
0.0161081
0.0160799
0.0125871
0.0106992
0.0147645
0.0109611
0.0120302
0.0130273
0.00610217
0.012864
0.00883655
0.0154269
0.0183187
0.025664
0.00412735
0.00886774
0.0094863
0.00786125
0.0105048
0.0122174
0.0180737
0.00658592
-0.00286986
0.0173351
0.0121926
0.0120602
0.00659467
0.0214746
-0.00114048
0.0112149
0.0138852
0.00900017
0.0122477
0.0139195
0.0119325
0.00515919
0.0327788
0.00336538
0.0158443
0.000540956
0.00905763
0.00784493
0.00277981
0.00627476
0.00939128
0.000851422
0.00277121
0.0131049
0.0143639
0.0244651
0.0121573
0.0118047
0.00715592
0.0101294
0.0246699
0.0222475
0.00304607
0.00925706
-0.00348622
0.0107687
0.0124571
-0.00224839
0.00430846
0.0114055
0.00811107
0.0020808
0.0100118
0.0101893
0.0304937
0.0154294
0.0226602
0.00816698
0.00294325
0.0212409
0.0180008
0.0122011
0.00136938
0.00819325
0.0187716
0.0240725
0.0148448
0.0317956
0.0193627
0.0355234
0.0151113
0.0114665
0.012741
0.0140209
0.0144892
0.00979839
0.0118799
0.00901567
0.0103167
0.0135437
0.014215
0.0144766
0.0102342
0.0151224
0.0140443
0.00637424
0.0112503
0.0033398
0.0118336
0.013685
0.00892895
0.00478665
0.0102579
0.00976885
0.0151116
0.0150406
0.0121508
0.0286839
0.00939385
0.0194657
0.0115042
0.00409822
0.0109794
0.021761
0.0104525
0.00723773
0.0066964
0.0047521
0.00686122
0.0212408
-0.0148088
0.0099815
0.0108917
0.010212
0.0176424
0.00721468
0.0147238
0.0176262
0.00199366
0.00853022
0.013176
0.0185101
0.01458
0.0143968
0.0140801
0.0161783
0.0099571
0.0130963
0.0276836
0.020057
0.0208718
0.0145359
0.00799397
0.0292567
0.00674943
-0.00388575
0.0312172
0.0172933
0.0182853
0.0074272
0.019473
0.014307
0.015067
0.0183993
0.0319629
0.0259881
0.00399172
0.0214101
0.0221856
0.0234949
0.0171089
0.0208259
0.0209248
0.0218134
0.0214906
0.0151271
0.0192986
0.0178618
0.0196274
0.0199876
0.0218489
0.022504
0.0240734
0.0242089
0.0221848
0.0243225
0.0132609
0.019944
0.00865238
0.0188781
0.0175553
0.00207031
-0.00066985
-0.00266796
-0.000252866
0.018551
0.0116832
0.0121219
0.0173409
0.0274891
0.0384854
0.0154566
0.0254699
0.0025837
0.0222319
-0.00681485
0.0242829
0.0217541
0.0161174
0.0193855
0.0163827
0.0148779
0.00578825
0.00393956
0.00980073
0.00941317
0.0111695
0.0131848
0.0113862
0.00823414
0.010268
0.0136097
0.00186444
0.0103363
0.0072734
0.028976
0.00717025
0.0112503
0.00943079
0.0172337
0.0112429
0.00565304
0.0163544
-0.00186549
-0.00186349
0.0125847
0.00290619
0.0146212
0.00315709
0.00393785
0.0111972
0.0111538
0.0215167
0.0223098
0.00707638
0.015037
-0.000532816
-0.00231101
0.0121312
-0.000865049
0.00888394
0.00992573
0.0114455
0.020808
0.0165251
0.00929124
0.0101428
0.0111094
0.0208112
0.0203559
0.00993783
0.017993
0.00907381
0.0132418
0.00581721
0.0204152
0.00948136
0.0160461
0.00526021
0.008141
0.0139502
0.012854
0.0131482
0.00674359
-0.000853438
0.00940477
0.0201517
-0.00231665
-0.00912699
0.0201024
0.00750824
0.0154183
0.0134517
0.018965
-0.00167809
0.0135676
0.0169807
0.0170419
0.0229155
0.00762572
0.0270632
0.0235915
0.0188249
0.0065549
0.0166029
0.0116954
0.011849
0.0067403
-0.00318382
0.00307236
0.0117665
0.0121945
0.00773761
0.00433831
0.0040381
-0.00151478
0.0228945
0.0294407
0.0121196
0.00547118
0.000222607
0.00886886
0.00336452
0.00743751
0.0159671
0.0241118
0.0127057
0.0308043
0.0142872
0.0173155
6.10685e-06
0.00991124
0.0137526
0.0175203
0.00487006
0.00485681
0.00601509
0.0137944
0.0182584
0.0117554
0.0199759
0.00849445
0.0176941
0.0202889
0.00513382
0.017939
0.00757378
SCALARS CoVolArea double 1
LOOKUP_TABLE default
506.048
499.211
360.976
254.377
466.164
488.771
293.974
493.929
395.752
406.217
367.24
409.579
471.667
637.652
697.685
720.64
736.9
626.324
617.859
789.767
591.126
478.287
632.189
505.203
825.871
462.891
746.745
722.298
224.146
558.453
551.303
697.545
538.731
781.16
524.571
470.102
802.817
534.68
600.699
583.499
1026.21
506.429
567.681
713.43
677.941
506.379
650.151
588.77
663.333
747.338
713.259
781.935
754.155
679.277
720.424
730.514
781.768
656.933
697.794
596.432
618.527
700.101
569.966
692.195
571.234
590.374
648.359
669.17
557.393
662.584
582.984
611.163
515.82
740.697
591.703
789.391
354.799
693.951
665.361
639.704
680.71
511.365
679.838
486.996
506.492
594.679
770.932
588.727
745.058
688.26
585.557
560.145
636.717
586.682
1162.08
564.149
456.732
352.552
612.407
585.4
459.999
484.553
434.917
531.415
640.461
562.361
610.206
599.471
575.977
637.575
571.528
631.588
557.237
761.123
531.377
745.158
561.639
763.272
733.549
667.006
560.628
633.099
571.655
702.99
481.073
663.348
516.575
488.666
619.026
468.538
457.924
614.246
643.264
805.741
714.731
609.494
255.742
385.232
709.365
476.651
631.73
608.416
594.94
754.596
911.204
535.632
505.783
752.104
543.977
541.56
754.427
741.716
614.057
777.58
579.767
696.558
657.546
573.371
522.08
655.789
562.217
504.163
603.368
642.856
658.903
613.948
615.695
515.693
664.818
673.073
736.657
484.995
562.611
488.764
679.813
597.153
520.822
484.846
583.731
563.087
623.458
668.624
654.963
729.839
667.543
648.404
699.307
703.718
743.906
736.855
789.085
808.256
750.278
681.848
704.119
688.137
735.917
768.882
784.421
618.721
707.996
737.597
709.29
680.384
678.802
688.562
640.194
701.128
658.622
776.686
739.136
725.782
654.983
666.649
724.711
814.395
836.206
899.556
632.035
624.46
780.979
664.061
593.135
590.496
653.298
602.437
652.648
657.872
628.587
606.552
687.709
778.52
600.409
630.272
587.22
656.139
615.599
552.078
557.962
613.469
650.899
811.72
748.338
759.824
641.752
642.181
618.042
582.923
596.911
593.239
591.04
621.469
580.327
636.132
565.696
719.251
520.754
589.424
600.235
610.736
542.048
572.12
575.489
570.442
667.535
576.906
643.249
636.329
630.402
614.769
606.917
574.008
575.094
516.052
469.287
573.253
704.736
675.114
627.51
688.578
605.935
558.9
565.373
474.685
499.288
626.869
265.007
579.425
714.969
600.328
843.331
619.457
681.47
684.414
717.289
653.837
555.738
623.359
635.187
618.711
616.444
700.287
612.821
649.475
632.344
711.419
506.685
528.038
481.996
617.616
557.291
471.233
508.158
568.222
689.135
769.936
773.997
757.262
682.271
666.884
611.22
640.305
429.151
507.916
427.422
603.47
566.287
773.319
634.541
806.207
498.462
526.03
651.408
758.239
574.416
515.35
696.672
559.926
639.305
756.907
818.211
593.519
720.442
562.69
449.719
555.184
424.848
279.733
672.088
547.254
801.121
487.179
673.083
894.318
885.751
780.704
951.243
873.901
463.874
450.149
402.244
720.014
512.673
648.739
383.819
353.684
496.127
878.765
743.303
730.798
614.503
508.394
769.4
679.305
550.612
648.893
690.321
589.662
607.094
287.166
441.567
298.712
668.802
780.05
401.818
559.802
491.072
701.742
564.318
481.639
383.612
531.447
307.213
553.485
370.585
580.1
557.074
590.29
594.781
530.166
629.695
534.924
586.908
629.2
611.544
562.733
561.648
530.816
579.276
616.44
582.852
589.083
568.337
582.1
537.227
631.914
610.856
567.116
575.266
628.427
606.322
624.025
346.777
551.329
440.308
669.737
709.175
639.468
475.194
587.422
654.888
593.546
867.291
667.33
682.975
838.727
782.773
553.04
687.315
503.753
714.316
600.331
549.376
709.135
668.914
581.421
611.981
527.327
570.024
678.029
616.349
814.745
587.904
427.58
550.383
575.053
673.789
652.297
643.56
733.776
786.342
417.61
480.534
489.371
561.92
525.941
561.087
593.348
511.851
591.768
559.769
723.089
451.652
487.31
487.258
644.501
587.181
624.072
488.265
391.213
795.68
575.019
439.654
497.755
500.932
455.59
547.776
480.171
465.417
407
618.079
828.985
416.347
763.957
444.977
667.905
901.616
738.283
730.993
934.279
659.935
793.434
688.979
674.295
358.135
277.002
622.016
388.849
533.135
347.561
775.505
365.142
403.112
474.193
409.06
471.514
607.707
820.703
514.167
519.057
541.41
847.387
493.797
694.201
588.569
498.994
502.424
941.922
780.086
914.768
313.378
799.364
363.753
508.398
630.14
589.737
684.121
605.91
843.032
618.497
719.439
1012.88
610.632
546.737
620.314
592.441
485.11
432.633
401.063
885.176
672.699
718.491
751.912
802.757
757.957
731.17
591.53
520.24
496.251
451.567
574.011
731.505
655.958
485.351
512.79
618.022
595.125
744.909
606.865
662.649
500.646
636.544
506.653
622.837
715.071
654.079
611.391
579.76
708.706
723.438
798.256
620.356
739.009
857.73
699.944
877.325
662.67
735.269
464.392
794.981
675.657
474.132
501.139
406.857
616.314
343.107
387.047
582.21
540.801
485.645
488.172
603.389
836.255
949.102
932.567
835.822
657.014
706.168
672.833
715.573
786.407
515.989
331.115
536.549
556.577
730.844
594.627
760.433
645.844
459.407
307.481
620.968
413.053
617.545
533.094
752.84
584.605
479.557
468.21
638.847
568.852
630.198
572.444
603.545
670.538
510.184
595.751
550.446
489.111
719.737
538.14
576.562
SCALARS SignedDistance double 1
LOOKUP_TABLE default
45.7096
45.714
47.2377
48.825
53.9664
46.9018
50.1617
52.3222
58.7087
56.4587
57.7719
55.8552
51.9592
48.1689
41.3875
41.7062
42.5252
46.8355
46.661
55.5145
54.8539
59.3032
48.0834
51.0917
59.5915
52.9719
62.5819
57.1925
50.1814
54.8515
55.9434
57.3223
57.2754
58.7187
50.7394
51.3359
50.5976
51.2689
54.6318
56.0276
62.6301
59.5878
46.1431
43.9392
42.8391
52.6256
48.8505
52.236
43.1288
45.7471
47.494
43.3972
42.8709
42.5796
40.6283
42.9022
43.5152
43.4088
43.5304
45.0933
45.2091
43.4772
49.9029
47.3025
49.8258
49.0794
49.2474
53.4081
51.4356
58.3416
54.755
57.7644
53.2986
61.6269
56.983
56.6619
54.8376
44.7861
47.1043
47.5809
45.0813
53.5137
48.7661
53.0808
50.4612
48.6366
55.6646
53.3502
55.8508
54.2518
54.9671
60.0274
55.7667
59.6206
62.0706
53.1827
61.4081
55.7345
57.2122
57.4662
51.6005
52.9981
51.0492
54.4915
56.3162
51.5512
52.9732
49.2829
49.2243
58.7693
54.6972
58.424
55.4912
52.3868
48.8756
56.4381
57.4388
60.9765
54.4173
51.862
54.7884
41.7851
41.1087
55.9498
51.2481
41.0383
40.0868
46.9763
43.0834
48.9338
45.7548
43.4125
49.4581
53.0985
49.7652
63.1132
59.6301
52.077
52.6429
59.0805
56.5065
58.8399
57.8833
61.9811
62.1832
60.0726
56.1866
54.1752
53.3581
51.4874
52.6017
51.8679
56.7497
51.9025
58.3049
55.7405
58.0187
55.2816
53.3689
56.5441
56.1735
53.106
44.9423
43.4495
44.2494
45.778
44.5329
47.8963
41.9891
43.2436
42.5895
54.3311
51.8659
54.9275
49.1507
50.4936
50.9117
52.9199
51.0264
49.9788
44.7259
45.6258
47.8707
43.3167
44.5205
41.9948
47.9989
46.5344
47.2368
46.2596
46.7327
44.43
43.4587
44.245
40.588
41.2086
43.9452
43.5324
42.8534
44.816
43.4012
40.9421
42.3319
42.0084
42.2871
40.6473
44.1391
43.3524
45.1391
42.8474
43.5568
43.8921
42.2435
41.2935
40.7539
39.9845
40.3414
42.7889
43.5375
45.263
44.1977
42.9166
45.6003
44.1105
44.9705
45.3887
44.1279
45.2149
44.5192
45.7287
43.213
44.1717
52.2842
50.4301
52.4004
46.5251
48.6137
48.1133
48.1036
48.6516
46.4111
43.5326
45.3277
45.2651
46.7508
47.2306
47.32
46.4355
52.2795
49.3443
52.0711
52.4489
52.5621
54.3781
53.7039
54.5443
50.1354
48.5987
58.7208
57.5372
56.8243
55.0234
56.4514
56.8752
57.0453
55.0927
54.3326
50.1608
53.5265
52.3532
47.6004
52.9632
49.7286
49.1036
54.2267
58.7613
59.6528
58.0168
58.1139
60.2638
57.6038
56.2041
56.447
54.5214
55.8584
55.9377
59.6006
57.2838
58.6947
55.5074
57.0337
56.1421
45.4221
46.4705
42.5199
43.5544
47.9043
45.5013
46.5628
46.7256
44.9485
47.397
45.7897
47.5003
43.0413
42.4558
54.5705
53.7172
54.9129
49.4338
51.6612
52.6024
50.8645
51.3516
48.8756
44.4118
47.1408
47.1675
47.0401
47.5064
50.1711
48.4984
50.2053
49.0666
51.7409
55.7855
54.6618
54.8203
54.6176
57.1221
52.9885
52.0409
58.5604
58.5102
54.8263
53.6803
54.4197
54.6171
58.9452
57.9426
56.5791
52.5398
53.704
53.016
54.9913
54.5906
58.737
58.4094
60.6626
56.3635
62.3166
58.677
59.6536
64.6642
61.2968
57.8149
62.4379
60.8685
51.1897
53.0866
49.9296
59.7198
55.2102
54.2937
57.3764
56.0148
61.5431
61.9642
65.1396
63.9446
56.9225
57.3262
58.3821
57.5129
55.3792
56.4493
56.8022
54.0569
53.6953
51.1814
52.0813
51.35
55.0443
56.9069
50.3207
55.7826
53.7142
55.3777
55.7277
52.8212
51.4568
54.7781
51.2399
55.0277
51.9503
55.3385
51.8443
52.77
48.5372
50.1074
55.3447
53.0934
53.8111
46.8934
46.6743
52.6811
49.4474
52.5693
46.4655
47.3203
57.874
57.8957
59.0747
54.9029
56.5873
58.0093
56.7056
56.1244
55.6886
50.3234
53.0348
53.776
53.3677
52.7169
48.4757
53.1392
53.263
54.1494
48.8489
52.6175
53.0028
56.4669
58.8494
56.8332
58.7725
60.9347
57.2738
62.873
63.5343
57.9283
53.0169
52.3125
54.7989
53.2057
52.7312
53.4999
57.162
52.969
54.4141
53.1523
53.7366
51.6977
44.6135
44.0631
45.3512
44.1914
45.6795
42.287
45.1674
53
56.1537
50.5521
56.4341
56.0598
54.555
50.2375
43.6739
42.7521
46.3544
42.422
41.9214
47.3838
48.4729
43.0788
45.2787
45.6477
45.0897
40.5718
43.4163
47.8278
44.287
41.4555
51.0443
45.1319
47.7647
45.2761
41.8133
46.1159
42.693
47.9966
40.5913
44.6823
49.4459
49.5911
49.4316
52.5774
57.8294
58.9133
59.4924
58.005
52.9785
43.569
47.73
47.8476
54.8983
54.3763
59.6088
56.7566
60.1257
60.3301
62.9628
50.2813
49.603
54.1546
51.7799
54.4227
50.7099
60.2318
59.5958
59.1685
58.7634
57.5499
57.634
58.5363
56.9704
57.5741
56.558
61.7061
54.8103
59.6902
58.7407
59.4075
59.0099
56.2782
57.9432
59.4046
60.8327
60.0235
61.9654
60.6502
62.0573
63.9045
55.8374
56.5791
63.8983
59.932
57.8232
56.6918
57.7931
65.005
61.4211
63.7424
58.5297
55.9902
57.3011
54.9354
54.1083
54.784
51.2953
52.9292
54.8574
54.9108
47.5251
51.8612
49.5987
48.1471
49.641
53.5728
52.6892
53.541
51.2581
52.7007
51.6074
53.2664
53.2418
52.2542
54.5242
52.9889
53.418
54.17
55.8626
55.8418
60.2014
60.1878
59.6297
52.0001
53.4153
52.1919
49.3925
59.6687
50.8549
50.7148
52.3457
50.4226
60.4905
57.1978
51.969
53.8402
58.3857
55.3656
56.4986
57.3618
57.9499
60.8772
60.3562
53.3878
57.7941
56.3057
57.9482
58.293
59.1083
55.329
52.0557
55.8125
55.9134
55.2986
54.3369
57.8548
55.9227
52.0457
51.8537
56.4537
53.2341
55.9781
55.311
57.2626
57.288
55.6724
55.9553
60.2882
56.9475
57.7244
60.065
58.6511
47.3986
53.1726
49.0851
50.0572
54.4249
56.8835
56.4931
56.1156
