# vtk DataFile Version 4.2
vtk output
ASCII
DATASET POLYDATA
POINTS 642 double
-76.633 167.59 86.8557
135.774 167.776 85.6219
-73.0595 -209.412 80.4547
132.969 -208.939 80.6515
30.6674 -121.235 234.226
31.6159 102.074 258.546
30.531 -123.463 -81.6514
31.1385 88.8819 -75.0442
170.626 -13.382 -7.34562
180.97 -3.2964 182.236
-111.022 -15.6333 -10.113
-123.255 -4.8382 180.264
-129.953 94.1371 147.356
-67.1268 52.0474 244.746
-33.8993 166.711 192.555
95.3315 165.729 192.585
30.5824 206.031 86.7122
91.3423 155.729 -14.6838
-30.5737 156.326 -14.6562
-55.1014 46.5114 -62.943
-117.553 90.4817 29.3716
-143.566 -12.4438 97.4602
127.622 53.016 245.69
189.434 92.4687 146.92
-54.2551 -74.1107 225.12
29.2883 -3.27477 278.283
-102.073 -133.313 35.4358
-108.529 -122.191 137.221
29.0835 -18.2891 -115.991
-53.2556 -82.7797 -67.8336
178.639 91.3676 30.1554
115.812 49.1399 -62.664
169.572 -118.751 138.587
115 -74.2367 225.593
85.5051 -199.13 173.381
-25.7351 -203.352 174.8
29.8147 -244.468 88.0102
-30.9672 -199.512 -5.68061
88.1484 -197.137 -3.68113
110.721 -82.8063 -65.5788
155.968 -125.468 35.0365
201.845 -12.1985 89.9803
-110.684 136.789 119.662
-90.9679 135.879 173.157
-60.7107 175.098 141.299
-101.494 24.0691 217.695
-105.473 79.2741 200.618
-130.281 44.7238 169.018
-2.25924 140.113 233.114
-55.4867 115.471 225.718
-19.1573 80.9823 258.595
-4.62345 196.938 144.838
-27.3847 194.54 84.7665
64.2565 139.199 234.181
29.8586 177.398 199.352
88.4793 194.591 85.6388
65.7075 197.021 144.288
120.532 175.058 141.416
-4.24307 191.277 29.8708
-56.6954 170.702 32.9104
117.854 169.524 32.9528
64.2918 191.043 29.7109
-0.979032 128.392 -51.0082
30.5102 164.839 -19.6559
61.9183 128.118 -51.2362
-81.9854 129.985 2.20572
-104.249 133.505 56.1089
-13.4991 70.9074 -76.4658
-48.4017 107.414 -45.738
-117.021 42.0161 8.25777
-91.6889 75.4244 -22.2144
-88.253 16.6051 -39.4994
-132.758 97.8621 90.2124
-128.54 -8.88433 38.0516
-136.906 46.2332 58.9679
-139.3 48.5644 120.236
-144.17 -13.1309 134.111
150.287 135.496 174.204
168.779 134.661 120.238
81.7919 82.7101 259.884
116.773 115.503 228.175
190.662 45.2372 168.541
164.804 78.3921 201.533
161.16 24.8044 218.611
-17.8127 22.4824 273.687
30.988 44.6417 277.999
-94.4555 -34.8188 208.995
-65.3483 -2.71983 245.792
29.9968 -60.0079 258.671
-14.7961 -33.3467 262.254
-15.349 -104.316 236.704
-135.523 -59.8111 117.148
-122.358 -59.2819 159.068
-110.107 -66.1838 3.50699
-122.18 -70.1173 61.3911
-92.6791 -175.377 106.962
-115.996 -134.634 79.7915
-96.6679 -176.242 52.9584
-52.3959 -19.2512 -77.9121
-85.5681 -50.3051 -41.7245
29.9045 28.4809 -104.003
-9.12527 5.28998 -102.553
-13.092 -106.61 -82.7661
-10.11 -43.9844 -101.505
29.5954 -68.7436 -99.5976
109.434 107.064 -45.9324
75.359 71.9348 -77.0082
165.273 132.973 54.3151
143.284 129.55 2.2435
147.352 20.2075 -37.5417
151.817 75.5258 -22.2037
177.437 41.6372 8.3754
150.164 -174.396 103.517
131.85 -164.893 156.108
112.416 -210.869 129.633
153.213 -33.4857 210.34
149.206 -104.869 186.399
176.97 -63.3243 157.865
58.1529 -166.694 204.008
105.793 -136.428 206.156
76.3366 -104.559 236.638
60.4357 -235.938 136.383
89.5141 -236.783 81.7008
1.60507 -170.78 201.655
26.9226 -211.409 181.778
-28.0838 -236.872 84.1627
-4.05685 -239.94 137.452
-53.3291 -214.675 132.789
65.9024 -232.466 31.5345
115.572 -211.004 36.5336
-57.165 -213.396 33.2004
-7.69946 -233.675 30.6221
58.3004 -154.901 -54.5499
29.4487 -204.645 -9.39407
1.0082 -155.93 -53.3469
132.56 -172.141 15.1292
153.045 -176.936 57.1836
72.0744 -107.19 -82.3405
99.7874 -133.122 -49.2306
170.276 -65.6186 5.6298
142.595 -98.6876 -25.0459
144.435 -49.1069 -38.6628
170.554 -132.127 84.7559
188.809 -6.41263 39.5903
183.987 -62.964 62.7938
192.518 -61.9905 113.881
198.823 -8.70102 135.096
76.0882 -34.5652 260.812
127.408 -1.95301 245.846
79.4866 24.793 272.451
-71.8054 -170.27 154.727
-45.0295 -138.45 204.941
-88.9543 -105.571 187.042
-42.0979 -135.342 -47.7829
-76.9132 -174.428 12.4955
-84.0495 -100.613 -27.0541
111.383 -18.3224 -75.132
68.4013 -44.3638 -99.4395
68.3438 6.89179 -100.804
200.386 48.8478 120.911
197.397 45.7526 60.5041
193.533 95.5828 87.1405
-95.1717 153.809 104.102
-88.3304 157.289 131.244
-70.6085 172.605 113.862
-113.595 115.634 160.489
-103.091 137.456 146.871
-122.174 116.499 134.052
-48.2853 173.215 167.555
-76.9449 157.194 158.767
-63.6087 153.443 184.041
-114.406 10.1971 200.079
-118.035 34.2224 194.727
-128.831 16.9414 177.242
-87.3936 66.546 224.543
-103.718 51.5732 210.958
-85.9837 37.9147 233.098
-131.406 72.3941 158.374
-119.712 64.3414 184.79
-120.253 88.2882 174.562
14.9403 121.444 248.542
-11.9208 112.635 247.907
6.15989 93.0288 260.287
-45.7583 143.127 211.193
-29.6998 129.83 230.791
-18.2585 155.517 214.592
-44.0222 67.0952 253.281
-38.4013 99.5262 243.589
-62.5174 84.5894 236.675
-100.927 108.517 188.668
-83.1501 97.9883 214.755
-74.9599 127.863 201.393
-44.6737 187.274 115.745
-53.8311 182.506 85.4274
-20.2418 185.027 170.532
-33.2583 188.662 144.756
1.84197 201.943 85.8582
-15.2784 197.646 116.118
13.7442 204.37 114.775
47.5453 121.007 249.045
30.5841 141.993 234.628
63.6611 174.136 197.594
47.5975 160.645 217.207
80.0217 154.278 215.22
12.8861 161.434 217.251
-2.85449 174.959 197.917
114.271 182.833 85.8141
105.083 187.498 115.51
129.107 172.665 113.632
47.3964 204.382 114.694
76.3862 197.674 115.965
59.0831 201.995 86.2199
109.139 172.718 167.329
94.1489 188.636 144.302
81.3902 184.624 169.845
12.2711 190.991 174.636
48.0077 190.397 174.083
30.3479 198.75 144.718
-43.1027 186.079 56.2473
-67.3281 171.324 58.936
12.7775 199.833 57.4408
-16.1879 195.973 55.8316
-44.6266 165.549 8.48087
-31.1919 183.449 30.4126
-18.3506 176.262 6.46008
128.164 170.524 59.2972
103.878 185.1 57.4011
78.6059 175.741 6.28924
91.4884 182.382 30.3881
105.567 164.61 8.30386
76.2899 195.231 56.5907
47.7641 199.925 57.5703
15.2412 109.793 -64.0884
30.6166 130.036 -51.587
46.2725 109.536 -64.3801
-1.61726 163.102 -18.9151
13.6059 148.517 -36.4556
-15.7679 143.655 -34.7698
76.5217 143.304 -34.8261
47.3255 148.492 -36.5191
62.2176 162.968 -18.9586
30.4178 193.687 28.5821
47.5142 181.309 3.27147
13.2247 181.305 3.36137
-81.9393 153.968 42.0725
-91.5719 152.25 71.6175
-57.8632 145.23 -7.4245
-70.7763 151.419 15.6927
-112.729 112.955 41.957
-94.0391 133.168 26.7518
-101.668 111.516 14.3934
8.20077 80.4572 -77.9873
-9.56839 102.154 -64.3224
-52.6204 79.754 -54.7259
-32.7214 91.8571 -61.266
-34.2352 59.9014 -71.1382
-26.0289 119.445 -49.6396
-40.7229 133.001 -32.3435
-113.607 11.567 -2.01796
-104.199 30.6003 -18.2619
-100.874 -0.157835 -25.3635
-106.041 84.5 1.53855
-105.689 59.9998 -7.88146
-118.837 67.6055 18.6557
-74.133 31.7443 -52.4373
-90.7407 46.9564 -31.9353
-74.8751 62.54 -43.4489
-66.5208 120.203 -23.737
-72.0814 92.8737 -35.5222
-88.8591 103.434 -11.9795
-110.597 136.248 89.252
-127.443 95.0377 59.789
-121.116 115.826 73.8778
-124.426 117.458 105.264
-133.819 97.7202 119.669
-120.221 -13.3988 9.96981
-124.81 16.4297 23.7193
-140.713 16.2257 74.818
-135.499 19.2597 50.6898
-137.964 -7.94083 68.214
-129.026 45.6285 35.5202
-130.127 68.9625 45.3429
-137.044 15.6398 153.949
-135.281 -8.79782 158.066
-137.59 74.3483 134.381
-137.482 48.7904 144.85
-148.046 -14.7 116.745
-142.553 11.3507 129.064
-142.526 10.3824 106.218
-136.97 73.7565 74.0301
-139.8 48.1897 88.405
-138.37 76.2532 105.699
146.391 156.454 132.212
152.622 152.592 102.945
124.501 152.832 184.815
136.63 156.779 159.504
181.254 114.581 134.713
161.624 136.345 147.955
172.252 114.749 160.847
57.2699 93.3996 261.308
75.0218 112.161 249.682
122.814 86.0732 238.495
100.523 100.332 246.146
105.107 69.1423 254.225
92.1834 128.948 232.785
107.594 142.255 212.629
186.924 20.1571 177.085
177.59 35.9493 194.906
172.715 11.1662 200.841
179.158 86.8865 174.646
180.428 62.261 185.414
191.983 69.59 157.966
146.592 37.9384 233.777
164.344 51.095 211.771
147.376 66.7778 225.628
135.33 127.729 203.019
142.634 98.5389 216.462
159.722 108.453 189.686
5.36715 62.1915 271.27
31.522 74.4543 268.9
-43.7211 37.2288 260.805
-19.7469 49.2837 267.994
30.0308 19.0235 280.508
5.23617 32.2196 278.401
5.79173 9.39173 279.512
-110.547 -19.2832 195.095
-98.8573 -2.82181 215.91
-61.332 -34.1547 238.972
-80.4782 -18.4025 229.235
-75.1645 -53.9159 219.446
-84.1552 11.5497 234.043
-68.02 23.5758 248.385
30.6001 -95.8288 244.345
7.71832 -82.9058 246.816
6.87419 -114.091 237.33
6.78641 -17.3384 272.977
7.5027 -45.4858 263.158
29.368 -28.7725 270.255
-35.291 -92.1232 233.762
-15.6858 -68.2942 246.836
-36.6474 -53.1469 245.762
-43.2887 10.3123 261.895
-40.4128 -18.3764 256.597
-16.6269 -3.45746 270.998
-136.098 -33.9292 146.63
-125.222 -32.0685 169.526
-142.703 -31.7129 110.467
-142.921 -32.7662 124.798
-113.401 -91.0097 149.693
-131.297 -59.6313 136.834
-120.11 -91.3003 125.451
-111.278 -39.254 -4.38744
-119.894 -39.2644 17.88
-113.602 -104.326 46.8875
-117.467 -68.4612 27.7626
-107.192 -95.3517 16.7499
-127.58 -35.2692 48.5357
-136.572 -32.5478 82.3344
-84.3589 -194.316 94.2322
-97.6816 -176.774 78.4157
-86.6438 -194.659 65.7478
-113.269 -130.438 106.707
-106.33 -154.513 91.6538
-100.834 -150.417 120.333
-100.779 -157.707 44.3046
-107.015 -156.57 66.3544
-112.437 -137.085 60.1616
-130.241 -66.5481 94.1537
-119.688 -108.562 73.4258
-120.359 -100.519 95.5113
-87.8874 -17.409 -42.5863
-100.121 -31.718 -26.024
-52.9178 9.0847 -71.128
-71.2396 -2.66414 -57.8998
-70.277 -67.8834 -55.9083
-70.4168 -34.4946 -59.7769
-53.3363 -48.4158 -72.5542
30.5853 59.1286 -89.5307
10.4204 47.2755 -92.6217
10.369 -6.89966 -112.484
10.9567 16.1381 -105.852
29.2981 2.58479 -112.074
-10.481 35.7352 -90.4129
-29.8455 23.9324 -83.9535
8.41776 -116.404 -84.2469
7.04881 -90.8484 -93.665
30.5205 -102.218 -91.2596
-31.0142 -65.4851 -84.2729
-12.3806 -78.336 -91.2411
-33.7154 -95.7872 -77.2374
29.0742 -36.8571 -112.589
8.3333 -54.3906 -104.046
10.4333 -28.9591 -112.632
-31.1955 -7.48376 -93.6724
-10.6829 -18.0614 -106.86
-31.7564 -30.324 -93.0643
70.6564 101.58 -65.0475
53.7127 80.9264 -78.3405
101.841 132.514 -32.4304
[...]
POINT_DATA 642
SCALARS Mean_Curvature double 1
LOOKUP_TABLE default
0.00874109
0.00997342
0.0156993
0.023809
0.00782998
0.00856013
0.0116484
0.0040773
0.014149
0.00928864
0.0139565
0.00233234
0.0169428
0.0105224
0.0120029
0.0109173
0.0152174
0.0106775
0.0112728
0.00663413
0.0085164
0.00999714
0.00974689
0.0153454
-0.00617803
0.0138906
-0.00208653
0.0103301
0.0322324
0.0122995
0.0106485
0.00947964
0.0136473
-0.00358223
0.0166702
0.0178303
0.000479591
0.0181701
0.0137617
0.00988122
-0.00693016
0.0122909
0.0137712
0.0111737
0.0113866
0.0124733
0.0117647
0.00815842
0.0115792
0.00995439
0.00776213
0.0118013
0.0086449
0.0116798
0.0126091
0.0100343
0.0125187
0.0123357
0.0127408
0.0115275
0.0110086
0.0134482
0.0125278
0.00779815
0.0124857
0.01246
0.00843936
0.00769263
0.0129005
0.00558396
0.00973293
0.00587371
0.0145465
0.00213842
0.0107135
0.000751216
0.0175712
0.0116008
0.0102113
0.0106232
0.0122142
0.00990696
0.00945589
0.0121689
0.0167208
0.0117752
0.00671517
0.00864687
0.00728201
0.00844458
0.0122307
0.0195474
0.00952826
0.00856757
-0.00411216
0.00877976
0.0204624
0.0202933
0.0135099
0.00644748
0.0182693
0.0125366
0.0144293
0.0102629
-0.000965154
0.0127725
0.0106056
0.0104516
0.0127245
0.00449161
0.00837898
0.00781255
0.00546658
0.00496866
0.0134394
0.00750658
0.0137926
0.000993903
0.00417671
0.0104284
0.0128835
0.0135631
0.0179078
0.00118846
0.0179765
0.00887515
0.0189619
0.0158802
0.0164189
0.0146411
0.0163019
0.0172484
0.0138675
0.0067152
0.0120316
0.0162915
0.0284722
0.0164902
0.0103904
0.0122814
0.0105833
0.0055188
0.0120226
0.00167376
-0.00422016
0.0107459
0.00890361
0.00832612
0.0104988
0.0137568
0.0040235
0.00925238
0.0148131
0.00951758
0.0160333
0.0104327
0.0115321
0.00866652
0.0117721
0.0031203
0.00813628
0.014982
0.01135
0.012198
0.00959637
0.012188
0.0116982
0.0127987
0.011283
0.0102931
0.0109716
0.0133538
0.00998284
0.0162895
0.0101182
0.00794259
0.013501
0.0125599
0.00834713
0.0148762
0.0124063
0.0115348
0.00855833
0.0110471
0.0107652
0.0120532
0.00813886
0.00872627
0.00865565
0.0116054
0.0102174
0.0111345
0.00969743
0.00774307
0.0128842
0.0131688
0.00731171
0.00714391
0.0128905
0.0114489
0.00784535
0.0120832
0.0100575
0.0108906
0.0122796
0.0135017
0.0103968
0.0109608
0.00865362
0.0129255
0.00733123
0.00763712
0.0110152
0.0138014
0.0125959
0.0154468
0.0132769
0.00465862
0.0144033
0.0112884
0.00697307
0.0144737
0.0111773
0.0127179
0.0116012
0.010902
0.012491
0.0113693
0.0109833
0.0109615
0.0118404
0.00798856
0.0086133
0.00695912
0.0088135
0.01213
0.0104902
0.0119001
0.0114149
0.010883
0.0123849
0.011314
0.0129103
0.0121729
0.0108593
0.00685957
0.0116023
0.012084
0.00883805
0.0118535
0.0112857
0.00907137
0.0098505
0.00841949
0.0115277
0.00531074
0.012236
0.0117684
0.00326624
0.0115467
0.00741823
0.0120092
0.00728695
0.00799921
0.0115766
0.008312
0.00738782
0.012172
0.0120627
0.0121237
0.012972
0.0115708
0.0103771
0.0124384
0.0179228
0.0108428
0.00342498
0.00915534
0.00997104
0.0076561
0.00668964
0.0111226
0.00779623
0.0111223
0.0159058
0.00946451
0.0402374
0.007627
0.000470772
0.0139675
0.00394936
0.00954797
0.0105153
0.00590638
0.0116161
0.0112371
0.0134637
0.0114864
0.0111259
0.0105267
0.0128759
0.00942577
0.0133281
0.00758849
0.0119474
0.0117487
0.00999724
0.0102543
0.0102653
0.0107185
0.0120501
0.0126908
0.0131807
0.0107352
0.00922815
0.012294
0.0103462
0.0110009
0.0103836
0.00610868
0.0108391
0.0080144
0.0120814
0.0143457
0.0205379
0.00504729
0.00888346
0.00863277
0.00751862
0.00721387
0.0113804
0.01571
0.00611732
0.00146363
0.0144181
0.011193
0.00995169
0.00712686
0.0145416
-0.00045039
0.00843547
0.0129236
0.00823717
0.0119338
0.011839
0.0100624
0.00955819
0.0199025
0.0044879
0.0102259
0.00121593
0.00794027
0.00711474
0.00188478
0.00722661
0.00665189
0.00143766
0.00332244
0.0125708
0.0137681
0.0176966
0.0101673
0.00807301
0.00572609
0.0124837
0.0157731
0.0162216
0.00386106
0.0122285
-0.000309793
0.0094281
0.010072
0.000703017
0.00417272
0.00921973
0.00681176
0.00336067
0.00930386
0.00799575
0.0217292
0.0128825
0.0174277
0.00692856
0.00346841
0.0160129
0.0142182
0.0103732
0.00178704
0.00891673
0.0146898
0.0193152
0.0100844
0.0224678
0.0159838
0.0242993
0.013085
0.0102223
0.0104749
0.0117504
0.0119602
0.00909219
0.0110185
0.00877349
0.00951042
0.0113925
0.0121313
0.0120555
0.0095784
0.0123016
0.0116969
0.00469648
0.0102078
0.00426939
0.0094155
0.0117824
0.00920623
0.00509141
0.00809292
0.0108129
0.0125097
0.0129153
0.0116866
0.020447
0.0108916
0.0149642
0.00921142
0.00428179
0.00777294
0.0169123
0.0113113
0.00898831
0.00690163
0.00447352
0.0062754
0.0153292
-0.00732475
0.00646447
0.00956496
0.00956284
0.0139034
0.00636325
0.0113586
0.014492
0.00366802
0.00628938
0.0125913
0.0133256
0.0121197
0.0124802
0.0112064
0.0127199
0.00745066
0.0109877
0.0200608
0.0151541
0.0156104
0.0113598
0.00797868
0.02118
0.00563974
-0.00053346
0.0209481
0.0179818
0.0179978
0.0102578
0.0149098
0.0118123
0.0126525
0.01367
0.0237586
0.0206581
0.00513018
0.0167638
0.0168327
0.0174945
0.0141891
0.0166794
0.0162528
0.0167565
0.016424
0.0117866
0.0153536
0.0151454
0.0154868
0.016159
0.0167024
0.0173536
0.018006
0.0178778
0.0170691
0.018137
0.0102506
0.015974
0.00806684
0.015271
0.0154006
0.00122287
0.00113192
0.00296092
-0.00197939
0.0166286
0.00974288
0.010903
0.0148692
0.0162713
0.0211784
0.0124979
0.0164274
0.00672366
0.0240743
-0.00261717
0.0174161
0.0162505
0.0132779
0.0151688
0.014692
0.0122424
0.00296795
0.00471557
0.00948895
0.00800917
0.00874046
0.0111606
0.00936338
0.00746303
0.00961542
0.0121883
0.00156489
0.00942963
0.00469712
0.026259
0.0054045
0.0111924
0.00573213
0.0127766
0.00914993
0.00556094
0.0145494
0.00010502
0.00119144
0.0111168
0.00347549
0.0117314
0.00481155
0.00683823
0.00770594
0.0110158
0.0160411
0.016617
0.00818115
0.0117714
0.00315357
0.00204272
0.00884827
-4.50184e-05
0.00792248
0.00963172
0.0106215
0.0166997
0.0140285
0.00869761
0.00896128
0.00945491
0.0171956
0.01611
0.00809023
0.0138117
0.00800426
0.0127887
0.00705384
0.0165441
0.011062
0.0150084
0.00730071
0.00657075
0.0106756
0.0118123
0.0112662
0.00425915
0.002277
0.0081552
0.0149644
0.00141097
-0.00559325
0.0148529
0.00544571
0.0121666
0.0103286
0.0146551
0.000953478
0.0102655
0.0136719
0.0133529
0.0164115
0.0109769
0.0211243
0.0172715
0.0161753
0.00697281
0.0141505
0.01077
0.0104759
0.00472151
-0.000826528
0.00113055
0.00974245
0.0102932
0.00607461
0.00490662
0.00371171
0.000710882
0.017634
0.0215958
0.00839311
0.00787055
0.000623401
0.00691553
0.00349882
0.00635047
0.0131133
0.0185712
0.0115321
0.022388
0.0127221
0.0127371
0.000435675
0.0104939
0.0116394
0.0188251
0.00596434
0.00790917
0.00512946
0.0132622
0.0143019
0.00996811
0.0147594
0.00762635
0.0135798
0.0152232
0.00557133
0.0178485
0.0106916
SCALARS CoVolArea double 1
LOOKUP_TABLE default
629.36
621.303
511.573
413.569
591.834
609.24
425.656
603.121
510.502
509.886
488.229
521.723
658.326
804.129
868.302
887.537
896.393
790.104
783.421
911.495
738.04
612.702
800.657
688.52
928.663
619.074
839.752
869.661
408.655
701.512
692.727
825.994
704.97
901.841
689.845
640.742
940.743
693.678
754.971
718.835
1069.96
657.786
733.201
887.878
832.492
653.633
815.027
735.666
819.81
907.734
849.994
953.445
901.714
836.407
903.674
880.885
954.372
811.986
874.459
755.283
774.569
875.993
717.349
855.235
718.763
766.295
794.672
807.277
724.176
771.104
732.491
734.403
695.992
839.88
741.559
889.557
537.208
868.857
810.699
787.293
854.098
658.086
843.866
635.03
692.234
761.331
875.426
737.036
860.957
832.545
731.486
738.976
769.308
711.043
1214.21
694.004
626.775
533.577
749.83
711.893
630.856
653.161
596.937
702.435
787.824
729.926
759.471
753.809
755.116
753.433
723.711
745.515
690.848
906.567
701.815
847.8
712.355
886.882
851.015
833.364
704.727
837.063
760.448
814.895
678.315
844.217
737.602
672.704
820.685
655.443
650.349
816.52
801.284
940.249
865.207
761.645
420.001
549.682
867.774
612.872
788.103
726.405
750.544
839.348
1003.97
699.092
661.839
890.248
699.731
716.04
893.124
903.248
767.271
923.103
733.812
853.935
786.975
732.059
688.052
769.379
714.117
694.227
757.637
804.381
805.986
802.915
779.862
692.238
821.835
830.911
906.894
621.65
713.629
636.941
845.28
745.332
678.331
634.381
728.871
742.545
774.365
817.86
793.929
899.344
820.422
806.369
837.835
842.93
899.718
935.906
973.469
998.97
895.462
828.842
887.052
847.32
880.096
914.122
949.756
772.283
861.695
913.752
863.212
835.065
837.511
873.009
792.404
854.558
801.232
943.389
890.053
870.713
813.223
829.934
904.374
1018.42
1037.23
1085.27
797.142
774.99
942.319
825.053
747.799
755.516
826.813
755.184
813.32
830.155
787.661
759.3
843.879
939.754
731.265
769.938
719.605
823.757
763.477
706.86
711.674
761.226
818.506
1005.27
944.488
954.641
794.535
786.859
791.356
743.174
740.493
747.658
754.434
760.366
726.174
777.94
707.073
835.344
676.887
763.416
722.442
742.057
678.048
721.339
702.78
688.404
789.983
713.543
788.93
831.366
805.939
801.242
764.362
742.553
734.109
689.927
653.784
694.047
806.514
816.861
749.476
790.99
720.423
710.076
725.249
629.035
649.112
762.994
425.521
738.045
843.246
777.239
966.699
770.4
828.244
820.45
891.335
812.123
720.306
781.656
813.612
763.95
778.223
859.526
768.74
795.38
797.483
887.27
641.635
672.751
614.922
792.207
710.959
630.178
668.688
722.823
852.739
965.777
956.359
945.606
834.68
808.137
786.174
797.454
598.263
682.536
605.506
722.139
695.073
898.315
758.8
907.453
641.556
696.471
769.384
868.646
717.172
670.379
820.106
692.669
774.062
884.311
949.251
778.808
881.746
744.241
621.435
695.144
569.899
458.5
797.378
711.824
947.313
620.427
783.209
998.292
974.529
895.399
1020.26
955.53
629.168
614.023
585.646
870.639
670.513
780.03
512.114
526.844
640.21
999.524
872.322
892.608
740.381
645.48
891.462
790.99
677.178
768.513
822.553
738.885
765.212
475.448
606.933
471.154
807.896
908.72
561.396
715.721
643.893
839.129
715.374
627.723
550.013
694.778
497.789
727.727
575.816
754.805
707.93
733.632
768.056
686.411
762.755
683.39
739.059
775.491
768.811
728.942
721.138
687.082
740.72
790.458
711.781
714.979
688.044
732.375
672.229
743.966
721.504
697.892
719.271
824.977
791.653
803.309
518.41
692.54
620.12
839.57
827.192
792.177
641.528
720.281
799.409
711.247
954.204
785.629
818.633
918.403
888.413
687.085
793.551
670.312
840.683
755.871
692.431
854.751
815.688
717.66
748.404
685.136
730.523
872.672
811.874
991.537
771.764
618.014
752.269
757.14
838.57
831.602
837.298
855.238
868.959
619.541
615.799
632.62
689.705
712.096
740.164
777.415
692.792
789.306
749.539
876.692
626.32
681.139
701.762
873.433
827.577
863.767
680.623
585.391
967.619
762.586
607.834
682.75
688.653
642.441
738.175
677.986
659.713
591.699
800.81
992.817
583.158
910.748
610.471
818.808
1016.55
870.374
853.911
1042.33
810.559
1009.13
892.619
877.936
561.388
474.112
787.032
564.598
598.81
490.673
851.755
530.438
579.655
635.425
573.679
610.142
765.079
968.741
643.568
649.07
671.642
962.352
636.912
817.899
706.097
629.07
651.776
1112.67
954.67
1075.7
480.574
892.315
501.236
669.764
796.372
707.101
792.358
734.848
914.474
717.893
825.988
1108.56
758.875
680.56
763.243
740.629
631.338
596.443
573.234
1015.03
835.246
874.848
861.78
941.066
881.322
847.838
737.266
655.694
673.591
602.422
707.806
869.912
810.295
653.762
683.681
775.988
772.733
906.686
788.298
829.587
661.185
777.44
654.805
742.08
871.289
804.124
766.587
737.272
849.746
859.333
897.298
780.057
839.721
948.489
836.439
1044.96
859.208
929.936
639.479
917.391
824.399
643.615
676.277
605.53
737.053
508.868
571.616
737.793
668.353
649.402
622.529
737.818
966.016
1083.75
1091.52
1005.79
777.378
836.705
785.612
819.077
900.024
676.998
516.468
697.03
698.875
859.768
755.592
895.066
791.23
624.013
492.227
788.464
609.995
783.822
681.827
879.946
714.6
621.158
631.148
748.864
706.392
747.969
691.913
754.271
820.337
696.319
762.038
720.989
662.448
866.929
716.439
745.295
SCALARS SignedDistance double 1
LOOKUP_TABLE default
64.4514
64.613
66.1296
67.6899
76.4315
65.6165
71.2207
74.1165
83.1216
79.5526
81.8699
77.8702
70.46
68.7936
59.0467
59.3046
59.9509
66.6061
66.4142
78.1042
76.7156
83.5449
68.6225
70.2147
82.6745
74.544
85.4875
79.1487
70.7014
77.7612
77.7979
80.0536
79.8221
81.9758
71.0503
71.1268
66.7499
71.482
74.4231
79.399
86.1924
83.5407
65.3174
62.7057
60.7361
74.341
69.2959
73.6508
61.3511
64.719
67.0802
60.0094
60.9014
60.7543
57.8626
60.9143
60.0796
61.408
61.8616
64.1907
64.3834
61.9842
70.6463
66.86
70.5351
69.733
69.44
75.7251
72.895
81.7597
77.6839
81.7612
73.6849
85.7703
80.5741
79.7442
77.2499
63.5566
66.7565
67.0807
63.8394
75.5838
69.2891
74.8453
70.8215
68.0053
78.8562
75.6614
78.7066
76.8196
77.1961
83.9518
79.4906
83.8584
86.8459
75.0927
84.3208
76.3458
80.0074
81.1398
73.0584
75.2507
72.728
76.498
77.0379
72.9542
75.1243
69.4198
69.8656
82.785
77.7197
82.1602
77.4664
74.2932
68.2366
79.9917
80.1985
84.1715
75.4224
74.171
77.1449
59.5632
58.6241
77.3271
70.1222
58.4938
57.2886
66.1188
61.3287
68.2219
64.6418
61.3011
70.6592
72.6972
70.9921
85.5553
82.3171
73.8656
74.999
83.3034
80.2909
82.8952
81.6027
85.8625
87.0175
83.9708
79.479
76.8119
75.7358
72.1931
74.4314
74.0957
79.2968
73.9176
79.1914
78.9073
81.2368
77.5792
75.8101
79.6374
79.5372
73.1798
63.9734
62.0753
62.6171
65.2113
63.2799
67.2579
59.6309
61.4275
60.8097
76.5598
73.5491
76.9524
69.4291
71.4345
71.6394
74.1907
72.2722
69.8221
63.1486
64.4943
66.9012
61.5567
62.991
59.8432
67.8792
65.9733
67.0635
65.6716
66.4559
63.2219
61.4896
62.6043
57.9724
58.8235
61.4935
60.6498
60.1438
63.2395
61.5508
58.3032
59.8006
59.7699
59.5595
57.8852
62.5679
61.5122
63.7764
60.1422
60.6683
61.4671
59.9484
58.9804
58.2132
56.6394
57.3714
60.0496
61.8779
64.2148
61.9844
60.4688
64.9262
62.7713
63.9526
64.3538
62.5562
64.2204
63.2614
65.1266
61.1895
61.9731
73.3042
71.1538
73.459
66.1138
68.7228
68.2138
68.2418
68.7573
66.1262
61.9092
64.0799
64.0224
66.4584
66.6879
67.4421
66.4201
73.2145
69.6833
73.2943
74.3289
73.7896
76.6811
75.1803
77.1329
71.107
69.2782
82.6647
80.9764
80.7471
77.2628
79.5171
79.8674
80.0131
78.4707
77.3746
71.1809
75.3992
74.1083
67.3726
74.4866
70.5213
68.8368
73.9963
83.1427
83.7049
81.4185
82.1774
84.7526
81.2708
78.9899
78.636
76.4755
77.9439
77.8277
82.8285
79.0504
82.2418
77.3154
80.2533
78.7722
64.2255
65.7984
60.8219
62.01
67.5232
64.5384
66.2742
65.7872
63.2983
67.0803
64.9317
67.4467
61.5166
60.7378
77.1123
75.5974
77.4103
69.8212
72.583
73.5049
71.8787
72.2706
69.1573
63.2031
66.8247
66.6507
66.7271
66.7971
70.2501
68.5783
70.5846
68.8301
72.6273
78.4903
77.2333
77.8527
77.3859
80.5023
75.0541
73.3766
80.5184
81.1382
76.9749
75.7396
77.2657
76.6989
79.6648
80.2678
79.5536
74.0238
76.096
74.7518
77.9
77.8651
82.8722
80.7707
83.0859
79.755
84.9593
82.9116
84.2207
87.5786
85.2612
81.9799
86.3395
85.5182
71.1821
74.2942
69.617
82.1777
77.2379
76.6511
80.9894
78.5065
83.926
86.6944
89.9844
88.5233
80.8288
81.4431
81.3066
80.982
78.8512
79.9896
79.5339
75.2919
75.5452
72.4259
73.7148
72.2911
77.3424
79.435
71.4699
76.1426
73.9993
77.6843
77.5181
74.7603
72.6449
76.2223
72.5154
77.6449
73.6271
77.826
73.1578
74.2963
69.2677
71.0205
77.569
74.702
76.2872
66.4479
66.4436
73.8227
69.7976
73.5012
66.4815
67.5056
82.2319
81.9913
83.5517
77.8994
80.0829
81.8356
79.9417
79.3636
78.3695
71.3254
74.7516
75.7062
73.4917
73.2897
67.7517
75.6639
75.2111
76.6387
68.9122
73.2859
73.9109
79.7462
82.5349
80.3572
81.1909
84.7354
80.8463
85.3621
85.5506
80.0493
75.3135
74.5892
76.9589
74.7329
74.5184
74.288
79.2663
75.4302
77.0698
75.6826
76.2805
73.8098
63.0584
62.1998
64.5442
63.0308
62.0021
60.0377
60.6909
75.2449
77.9265
69.6886
75.7098
75.9656
74.9514
69.5294
61.6846
60.789
65.3486
57.9502
58.3402
63.1589
67.8039
61.0083
63.7073
63.9842
62.9502
57.6034
61.76
66.8239
60.0144
58.9211
71.0273
63.9283
67.1852
63.854
59.3796
65.1621
61.0808
67.4943
57.3679
60.1061
70.3442
70.6007
70.3355
72.3093
75.6432
77.3143
77.3746
75.6489
72.6775
61.8574
66.8363
66.8905
74.5845
73.9416
78.8205
76.5538
84.7653
83.2336
86.9676
71.551
71.1843
76.8124
73.8633
76.8569
72.5257
79.5139
84.1382
83.3741
83.1891
81.5469
81.8464
82.9233
80.7882
81.5661
79.8274
82.3958
77.88
82.4316
80.159
83.6366
83.0761
79.1942
80.7175
83.9689
85.356
84.6788
86.7175
85.2764
85.5188
88.4553
79.6965
79.7504
86.696
83.5805
81.3885
80.3288
81.6028
89.6133
85.846
87.8321
81.1814
79.0689
79.8544
77.6793
76.2211
77.6379
72.6671
75.0872
77.7136
78.0054
67.2088
73.0112
69.8167
68.165
69.7999
76.0494
74.2186
75.2275
71.2742
73.5846
72.0299
75.2002
75.4076
74.5082
77.0452
75.4262
75.0844
75.6606
79.3445
78.2453
82.9278
82.9217
81.2589
73.886
75.7936
74.7043
70.734
79.1333
72.5584
72.5533
74.7391
70.016
84.1186
78.0235
71.8191
74.1232
82.3936
78.0146
80.1656
81.2132
81.5802
81.6349
82.4782
76.1091
82.0064
79.99
81.8603
82.1393
82.3563
76.6487
73.6125
77.3107
78.3513
78.3378
75.981
80.4015
78.0294
73.85
73.2674
79.2786
75.2465
78.9196
78.0401
80.7177
80.4564
77.585
77.8197
84.6075
80.1835
81.1709
84.3302
82.5907
67.3014
72.9792
69.3562
70.7494
75.5304
80.0731
79.2582
78.6126
