# vtk DataFile Version 4.2
vtk output
ASCII
DATASET POLYDATA
POINTS 642 double
-30.7373 18.7827 -81.5911
-29.9892 18.7816 -81.5916
-30.538 17.4175 -81.6281
-30.2017 17.4216 -81.6249
-30.3656 17.6121 -81.1785
-30.359 18.5302 -80.9576
-30.3716 17.6334 -82.0872
-30.363 18.4151 -82.1708
-29.9082 18.0132 -81.9491
-29.8612 18.0652 -81.2726
-30.8277 18.0012 -81.9583
-30.8764 18.0565 -81.2739
-30.9009 18.4811 -81.3753
-30.6989 18.3345 -81.0257
-30.592 18.7789 -81.2009
-30.1312 18.7765 -81.2
-30.3614 18.935 -81.5928
-30.1576 18.707 -81.9554
-30.5671 18.7085 -81.9573
-30.6357 18.2396 -82.1436
-30.8733 18.4514 -81.8122
-30.9392 18.0273 -81.604
-30.0293 18.3377 -81.0284
-29.8302 18.4798 -81.3752
-30.6417 17.7864 -81.1419
-30.3616 18.0812 -80.935
-30.7268 17.5885 -81.7951
-30.7395 17.6044 -81.4735
-30.3685 17.9793 -82.2156
-30.5888 17.7556 -82.1008
-29.8587 18.4528 -81.8085
-30.0939 18.2466 -82.1381
-30.0015 17.6153 -81.4699
-30.0919 17.7952 -81.1431
-30.2618 17.4359 -81.4324
-30.4754 17.4318 -81.4369
-30.372 17.3833 -81.6188
-30.4831 17.4391 -81.8429
-30.2622 17.4407 -81.8441
-30.1494 17.7609 -82.098
-30.0104 17.6032 -81.7911
-29.8032 18.0393 -81.604
-30.8331 18.6705 -81.4843
-30.7807 18.6585 -81.2761
-30.6914 18.8126 -81.4108
-30.8225 18.1877 -81.1488
-30.8278 18.4277 -81.1798
-30.9096 18.2541 -81.3
-30.4652 18.6663 -81.0372
-30.6653 18.5806 -81.0776
-30.5219 18.4581 -80.9579
-30.4881 18.9046 -81.3796
-30.5875 18.8849 -81.5931
-30.2547 18.6646 -81.0381
-30.3605 18.8205 -81.1717
-30.1361 18.8837 -81.5927
-30.2349 18.904 -81.3794
-30.0335 18.8114 -81.4104
-30.4804 18.8608 -81.7958
-30.6724 18.7814 -81.767
-30.0524 18.7789 -81.7664
-30.2432 18.8599 -81.7955
-30.4507 18.5688 -82.0986
-30.3618 18.7413 -81.9795
-30.274 18.5688 -82.0969
-30.743 18.61 -81.8982
-30.8201 18.656 -81.6956
-30.4893 18.3441 -82.1787
-30.6192 18.4968 -82.0749
-30.8706 18.209 -81.9062
-30.7748 18.3654 -82.0041
-30.7594 18.113 -82.0583
-30.9163 18.4915 -81.5908
-30.9006 18.0131 -81.8087
-30.9395 18.2512 -81.71
-30.9526 18.266 -81.4858
-30.9233 18.0435 -81.4152
-29.9468 18.6563 -81.2744
-29.8943 18.6687 -81.4848
-30.1992 18.4593 -80.9612
-30.0609 18.5784 -81.0787
-29.8259 18.2596 -81.3002
-29.9028 18.4271 -81.1797
-29.9117 18.193 -81.1487
-30.5313 18.2154 -80.9401
-30.3601 18.3346 -80.9155
-30.7886 17.9363 -81.1943
-30.6927 18.071 -81.0454
-30.3635 17.8096 -81.0374
-30.5183 17.9314 -81.004
-30.4832 17.6726 -81.1453
-30.8704 17.8069 -81.5219
-30.8428 17.8462 -81.3573
-30.806 17.805 -81.9004
-30.8591 17.786 -81.7194
-30.616 17.4639 -81.574
-30.7418 17.5706 -81.6337
-30.6166 17.4602 -81.6927
-30.6212 17.9813 -82.1521
-30.7264 17.8747 -82.047
-30.3652 18.2022 -82.2167
-30.4858 18.0962 -82.2094
-30.4631 17.6769 -82.1062
-30.4785 17.866 -82.1824
-30.3706 17.7781 -82.1649
-30.1079 18.4977 -82.0702
-30.238 18.3478 -82.1759
-29.9082 18.653 -81.6965
-29.9844 18.6082 -81.8951
-29.9727 18.1233 -82.0504
-29.9563 18.3693 -81.9972
-29.8646 18.2166 -81.8985
-30.122 17.4724 -81.5687
-30.1419 17.4933 -81.4447
-30.2275 17.4188 -81.5417
-29.9485 17.9445 -81.1935
-30.027 17.6849 -81.3081
-29.8996 17.8534 -81.358
-30.309 17.5016 -81.2992
-30.1811 17.562 -81.2913
-30.247 17.6775 -81.1452
-30.3217 17.3936 -81.5353
-30.2801 17.3946 -81.6209
-30.4263 17.4984 -81.3018
-30.3706 17.4183 -81.4304
-30.4625 17.3934 -81.6224
-30.4206 17.3931 -81.5366
-30.5104 17.4151 -81.5446
-30.3203 17.3915 -81.7126
-30.2264 17.4147 -81.7096
-30.5158 17.4124 -81.7122
-30.4258 17.3913 -81.7141
-30.3185 17.5373 -81.9995
-30.3737 17.4276 -81.852
-30.4268 17.5353 -81.9993
-30.1445 17.489 -81.8264
-30.1221 17.4677 -81.6877
-30.2795 17.6787 -82.1046
-30.2033 17.5782 -81.998
-29.9319 17.8203 -81.8928
-30.059 17.6726 -81.965
-30.0076 17.8852 -82.0396
-29.9986 17.584 -81.6258
-29.8407 18.0258 -81.8012
-29.882 17.804 -81.7141
-29.8727 17.8188 -81.5217
-29.8155 18.055 -81.415
-30.2077 17.9347 -81.0055
-30.0368 18.0766 -81.0476
-30.1916 18.218 -80.9423
-30.5938 17.4841 -81.4493
-30.5532 17.5526 -81.2944
-30.7118 17.6752 -81.3092
-30.5393 17.5734 -81.9981
-30.595 17.4829 -81.8271
-30.6787 17.6621 -81.9684
-30.1114 17.9895 -82.1485
-30.2595 17.8685 -82.1817
-30.2466 18.1014 -82.2081
-29.7837 18.2723 -81.4867
-29.7963 18.2573 -81.7073
-29.8159 18.49 -81.5924
-30.782 18.741 -81.5449
-30.7697 18.7468 -81.4444
-30.7223 18.8012 -81.516
-30.8504 18.5742 -81.3249
-30.8152 18.6687 -81.3791
-30.8737 18.5832 -81.4269
-30.6471 18.8064 -81.3034
-30.7389 18.7447 -81.3367
-30.6929 18.7284 -81.2338
-30.8588 18.113 -81.2189
-30.8714 18.2263 -81.2198
-30.8951 18.14 -81.2809
-30.7693 18.384 -81.0948
-30.8283 18.3098 -81.1547
-30.7691 18.2626 -81.0826
-30.9122 18.3695 -81.332
-30.8768 18.3463 -81.24
-30.8722 18.4596 -81.2753
-30.4027 18.5912 -80.9844
-30.4985 18.5674 -80.9896
-30.4282 18.5036 -80.9515
-30.6324 18.6889 -81.1319
-30.5689 18.6342 -81.0518
-30.5296 18.7311 -81.1102
-30.6145 18.4006 -80.9825
-30.5977 18.5213 -81.0081
-30.6873 18.4599 -81.0417
-30.8118 18.5489 -81.2204
-30.7562 18.5099 -81.123
-30.7299 18.6282 -81.1707
-30.6417 18.8593 -81.4978
-30.6792 18.8312 -81.5922
-30.5447 18.851 -81.2829
-30.5961 18.8671 -81.3887
-30.4798 18.9218 -81.5931
-30.5391 18.9073 -81.4885
-30.4249 18.9337 -81.4864
-30.3155 18.5908 -80.9853
-30.3594 18.6749 -81.0321
-30.2411 18.8085 -81.1788
-30.3021 18.7512 -81.0983
-30.1923 18.7286 -81.1102
-30.4181 18.752 -81.0983
-30.4806 18.8098 -81.1792
-30.0458 18.8298 -81.5921
-30.0826 18.8582 -81.4979
-30.0036 18.8003 -81.5162
-30.2976 18.9333 -81.4862
-30.1841 18.9064 -81.4885
-30.2433 18.9212 -81.5927
-30.0768 18.8044 -81.3026
-30.1276 18.866 -81.3886
-30.1783 18.8498 -81.2825
-30.4245 18.8756 -81.2689
-30.2974 18.8751 -81.2688
-30.361 18.9188 -81.3748
-30.633 18.8414 -81.6852
-30.713 18.7889 -81.666
-30.4236 18.91 -81.6977
-30.5335 18.8852 -81.695
-30.6232 18.755 -81.8655
-30.5819 18.8279 -81.7868
-30.5289 18.7924 -81.8822
-30.0125 18.7869 -81.666
-30.0912 18.8397 -81.6847
-30.1952 18.7911 -81.8814
-30.1421 18.8263 -81.7864
-30.1016 18.7528 -81.8641
-30.1901 18.8842 -81.6946
-30.2997 18.9096 -81.6975
-30.3984 18.4844 -82.1445
-30.3622 18.5767 -82.1016
-30.3268 18.4848 -82.1437
-30.468 18.7329 -81.974
-30.412 18.6617 -82.0446
-30.5079 18.6446 -82.0364
-30.2167 18.644 -82.0343
-30.3119 18.6616 -82.0438
-30.2559 18.7323 -81.9728
-30.3616 18.873 -81.8001
-30.304 18.8118 -81.8935
-30.4195 18.8123 -81.8938
-30.7517 18.7241 -81.7353
-30.7762 18.7344 -81.6356
-30.6587 18.6684 -81.9315
-30.7102 18.7035 -81.8379
-30.8534 18.5614 -81.7551
-30.7885 18.6374 -81.8003
-30.8159 18.5361 -81.8574
-30.4175 18.3865 -82.1779
-30.475 18.462 -82.143
-30.6317 18.3716 -82.1158
-30.5554 18.4224 -82.1348
-30.5624 18.2955 -82.1678
-30.5369 18.5414 -82.09
-30.5967 18.6103 -82.0215
-30.85 18.0886 -81.9397
-30.8191 18.1657 -81.9891
-30.8028 18.0488 -82.0039
-30.8309 18.414 -81.9127
-30.8303 18.2928 -81.9567
-30.8788 18.3322 -81.8631
-30.7034 18.1776 -82.1061
-30.7701 18.2397 -82.0393
-30.7084 18.3064 -82.0816
-30.6852 18.5611 -81.994
-30.7021 18.438 -82.045
-30.7653 18.494 -81.9568
-30.8338 18.6679 -81.5894
-30.9019 18.4783 -81.7036
-30.8754 18.5784 -81.6455
-30.8824 18.5851 -81.534
-30.9156 18.4925 -81.4797
-30.8626 18.0059 -81.8987
-30.8936 18.1143 -81.8573
-30.9478 18.1385 -81.6562
-30.9284 18.1305 -81.7587
-30.9272 18.0209 -81.7081
-30.9118 18.2366 -81.8114
-30.9145 18.3563 -81.7628
-30.9249 18.1505 -81.3578
-30.9005 18.0514 -81.3324
-30.935 18.379 -81.4282
-30.9373 18.2659 -81.3893
-30.9364 18.035 -81.5054
-30.9456 18.1507 -81.4484
-30.9537 18.1451 -81.5454
-30.9363 18.376 -81.6508
-30.9539 18.2626 -81.5968
-30.9438 18.3835 -81.5363
-29.9565 18.7458 -81.4439
-29.9447 18.7395 -81.5459
-30.0325 18.7257 -81.2325
-29.987 18.7429 -81.3354
-29.8552 18.5811 -81.4269
-29.9122 18.6671 -81.3778
-29.8787 18.5727 -81.3235
-30.2905 18.5038 -80.9531
-30.2219 18.567 -80.9922
-30.0404 18.4608 -81.0439
-30.1261 18.5209 -81.011
-30.1104 18.4038 -80.9861
-30.1539 18.6316 -81.0532
-30.0921 18.6858 -81.1317
-29.8415 18.1486 -81.2801
-29.8632 18.2312 -81.2198
-29.8771 18.1201 -81.2179
-29.859 18.4588 -81.2746
-29.8558 18.3481 -81.2398
-29.8211 18.3708 -81.3322
-29.9617 18.2657 -81.0843
-29.9035 18.3113 -81.1552
-29.9608 18.3853 -81.096
-29.9975 18.6258 -81.1698
-29.9731 18.5092 -81.1231
-29.9176 18.5476 -81.2193
-30.4415 18.3967 -80.9278
-30.3592 18.4503 -80.933
-30.6188 18.2782 -80.9734
-30.5323 18.3385 -80.9412
-30.3608 18.2104 -80.9155
-30.4454 18.2747 -80.9191
-30.4437 18.1493 -80.9277
-30.8437 18.0066 -81.2371
-30.8105 18.0648 -81.1629
-30.6732 17.9295 -81.084
-30.7466 18.0003 -81.1156
-30.7205 17.8604 -81.1612
-30.7625 18.1351 -81.0893
-30.7012 18.2058 -81.0267
-30.3645 17.6888 -81.1156
-30.4291 17.7394 -81.0841
-30.4138 17.6342 -81.1616
-30.4411 18.0078 -80.9601
-30.4379 17.8714 -81.0113
-30.3624 17.9446 -80.9759
-30.56 17.7225 -81.1374
-30.5062 17.7951 -81.0672
-30.5867 17.8553 -81.0667
-30.6179 18.144 -80.9835
-30.6072 18.0013 -81.0145
-30.5279 18.0766 -80.9608
-30.8898 17.9454 -81.3845
-30.8678 17.9683 -81.3073
-30.9135 17.919 -81.5584
-30.9063 17.9295 -81.4698
-30.7989 17.7188 -81.4133
-30.8599 17.8222 -81.4387
-30.8106 17.6971 -81.4932
-30.8233 17.9178 -81.9371
-30.8591 17.9049 -81.858
-30.7952 17.6748 -81.765
-30.8367 17.7884 -81.8131
-30.7739 17.692 -81.8522
-30.8897 17.9028 -81.7626
-30.9085 17.9093 -81.6627
-30.5677 17.4321 -81.6073
-30.6179 17.4594 -81.6333
-30.5688 17.431 -81.6536
-30.7429 17.582 -81.5536
-30.6784 17.5078 -81.5999
-30.6751 17.5183 -81.5296
-30.6712 17.5099 -81.74
-30.6769 17.5042 -81.6697
-30.7364 17.572 -81.7132
-30.8704 17.792 -81.6182
-30.8072 17.6681 -81.6736
-30.8126 17.677 -81.582
-30.7453 17.9911 -82.06
-30.7873 17.9456 -82.0008
-30.6313 18.1076 -82.1557
-30.692 18.0485 -82.1136
-30.6589 17.8105 -82.0807
-30.6772 17.9244 -82.1052
-30.608 17.8633 -82.1331
-30.3638 18.3245 -82.197
-30.425 18.27 -82.2049
-30.4227 18.0346 -82.2174
-30.4247 18.1458 -82.2176
-30.3668 18.0864 -82.2219
-30.4912 18.2177 -82.2019
-30.5587 18.1673 -82.187
-30.4096 17.6499 -82.0974
-30.4189 17.7265 -82.1401
[...]
POINT_DATA 642
SCALARS Mean_Curvature double 1
LOOKUP_TABLE default
3.20312
3.24652
3.72203
3.69766
3.16399
3.23769
3.79632
2.63514
2.38555
2.48195
2.40577
2.48762
2.71643
2.80158
3.27236
3.32577
3.40494
3.06868
3.06929
2.57086
2.56833
2.15399
2.80539
2.76704
2.42143
2.76473
2.98618
2.56555
3.13093
3.26771
2.62148
2.59466
2.58942
2.17989
4.64471
4.61872
4.07214
4.22541
4.27159
3.20299
2.88178
2.07764
2.89337
3.09749
3.25821
2.62266
2.85034
2.46818
3.24585
3.18765
3.12539
3.35714
3.2974
3.25884
3.3403
3.31153
3.38366
3.30018
3.26463
3.12941
3.17093
3.26629
2.97503
3.13957
2.95913
2.82011
2.93986
2.7065
2.80788
2.32244
2.4685
2.36097
2.60139
2.09845
2.07227
2.27309
2.15185
3.14205
3.00153
3.11494
3.18892
2.39067
2.91092
2.59985
2.83927
2.89916
2.24108
2.62607
2.83945
2.60116
2.59586
2.06236
2.25887
2.47994
2.1736
3.25207
3.03423
3.7608
2.91991
2.83489
2.66054
2.56786
3.55104
3.14292
3.38634
2.78317
2.76363
2.95728
2.84317
2.4371
2.46656
2.25798
3.24572
3.28561
3.89283
2.32695
2.27103
1.73178
4.11517
2.94793
2.68382
4.9142
3.85531
4.05559
4.94633
3.71454
4.80543
3.77273
4.11452
4.01112
4.09667
4.1205
3.49495
4.47797
3.68638
3.73945
3.72318
3.35097
3.40251
2.39576
3.03588
2.76576
2.62358
1.6434
2.19388
1.96378
2.29863
2.67619
2.6877
2.89922
3.21413
3.02783
2.4586
3.55107
3.81107
3.13983
2.88231
3.19493
2.5922
2.34283
2.36106
2.57885
3.11207
3.06668
3.22484
2.89676
3.02965
2.7845
3.29191
3.20006
3.22918
2.47802
2.58513
2.53868
2.85504
2.60445
2.76539
2.52828
2.52501
2.81589
3.26657
3.22953
3.19177
3.24615
3.25095
3.26136
3.01204
3.16108
3.05088
2.9868
3.03248
3.14553
3.29262
3.25935
3.31905
3.31886
3.36454
3.36223
3.41602
3.23427
3.20568
3.34856
3.33303
3.30569
3.30888
3.30127
3.31178
3.31282
3.288
3.41834
3.37198
3.37942
3.31773
3.34541
3.34992
3.37337
3.36933
3.36228
3.25857
3.15381
3.33493
3.27755
3.10429
3.22867
3.18845
3.20622
3.29291
3.21179
3.25347
3.12116
3.30316
3.3349
2.80836
3.02135
2.76523
3.11813
3.02136
2.99488
2.99607
3.02166
3.1277
3.27871
3.23765
3.23356
2.93394
3.05304
2.9673
2.98977
2.79762
2.7538
2.60579
2.4938
2.52293
2.55732
2.73008
2.64571
2.82918
2.90789
2.31155
2.39597
2.42007
2.54619
2.44323
2.34846
2.59598
2.39097
2.3337
2.83932
2.68335
2.66108
2.87119
2.5576
2.66959
2.76997
2.68996
2.2594
2.15724
1.98394
2.15229
2.06115
2.2365
2.31328
2.47311
2.36818
2.57633
2.41434
1.99396
2.35808
2.19781
2.22433
2.06224
2.51593
3.19799
3.15015
3.23109
3.23204
2.86477
3.09097
2.98603
3.18066
3.20772
3.06242
3.16281
3.01048
3.21497
3.23295
2.58014
2.61447
2.62359
2.81415
2.69616
2.57327
2.80863
2.77065
2.88626
3.1717
3.05743
3.04708
3.02835
3.12183
2.83975
2.93114
2.81366
2.78612
2.83637
2.42493
2.53656
2.33004
2.44188
2.44706
2.64
2.77793
2.8815
2.84812
2.97719
2.51105
2.70655
2.58758
2.43453
2.69916
2.59847
2.72721
2.55803
2.63855
2.07085
2.344
2.10326
2.18707
2.24782
2.14191
2.44071
2.44769
2.11141
2.57598
2.40092
2.62826
1.77894
2.04649
3.54755
3.45779
3.74224
2.81774
3.11016
2.98402
3.504
3.49178
3.00206
2.00659
2.49262
2.34168
2.6063
2.52068
2.61664
2.52014
3.08924
2.90817
3.1194
2.83531
2.66184
2.6303
2.32521
2.792
2.74531
2.79963
3.60499
3.51135
3.5928
3.25377
3.41543
3.50175
3.26025
3.31535
3.0925
2.79573
2.92478
3.047
2.58654
2.60153
2.93636
2.79992
2.67865
2.67776
2.54021
3.05693
2.95871
2.74719
2.8142
2.79174
2.96771
2.92486
2.44903
2.39656
2.31976
2.29548
2.39762
2.57461
2.44297
2.44857
2.47168
2.86616
2.72684
2.63067
3.51244
3.50511
3.59869
2.9667
3.3009
3.03374
4.56173
3.80678
4.06155
2.42037
2.19788
2.32047
2.44055
2.06897
2.34783
2.09738
1.83996
2.52582
3.51856
3.04978
2.98726
4.01713
3.56079
4.53399
2.57293
2.66524
2.54097
2.8091
2.66035
3.23683
3.7713
3.75366
4.86904
4.58725
3.95573
4.01702
4.45181
3.45042
4.2444
4.84289
4.71827
4.51402
4.7204
4.86692
3.73571
3.64555
3.59101
4.33667
3.83087
3.72984
4.49828
4.37578
4.81618
4.86101
4.84944
4.86593
3.9133
3.82973
3.94987
3.93984
4.1987
4.07303
4.27859
3.88008
3.87965
4.37801
4.09771
4.26389
3.8557
3.90208
3.68347
3.59748
3.78176
4.30931
3.83419
3.70371
3.91558
3.97226
4.43295
4.17521
4.48815
4.4057
3.91339
3.66107
4.18498
4.1665
3.29405
3.87
3.26055
3.63628
3.44304
3.35373
3.47076
3.25729
3.46038
3.67634
2.35938
2.60835
2.55392
2.88265
2.74818
2.5626
3.04348
2.88575
3.14499
3.47617
3.23204
3.18023
3.3396
2.87793
3.148
2.9027
2.63714
2.14947
2.24255
1.45581
2.13706
1.11271
2.26792
2.37859
2.14719
2.43199
2.18671
2.0982
1.78212
1.93001
2.08217
2.19017
2.0387
2.10926
2.90597
2.62038
2.77099
2.76648
2.64619
2.59822
2.79032
2.69629
2.52216
2.50978
3.01128
2.85705
2.87058
2.9463
2.88776
2.64417
2.76574
2.74546
3.43439
4.08583
3.70904
3.14883
2.78976
2.9746
2.49706
2.78286
3.41277
3.99441
2.25424
2.56836
1.84476
2.36506
2.00172
3.2869
2.69797
2.99626
3.64904
3.69417
3.67476
3.61164
3.4769
4.03606
3.32469
3.92708
4.1027
4.10365
2.61674
3.16159
3.01818
2.80225
2.98273
3.38122
3.14558
3.36873
2.62378
3.09063
2.87746
2.66449
2.72291
3.378
3.1844
3.18231
3.1937
3.22769
2.73423
2.80333
2.7385
2.53024
2.76343
3.09632
2.90286
2.77364
2.37798
2.1344
2.36828
2.44036
2.55049
2.20462
2.48143
2.29724
2.13309
2.1989
2.82822
2.69413
2.72463
2.77967
2.59962
2.17236
2.37465
2.43442
SCALARS CoVolArea double 1
LOOKUP_TABLE default
0.00530515
0.00527622
0.00139504
0.00144437
0.0042521
0.00539637
0.0024132
0.00465745
0.00505216
0.00498134
0.00520441
0.00497592
0.0119999
0.0128512
0.0135928
0.0134627
0.0145208
0.0118467
0.0119805
0.0117377
0.0126758
0.0124073
0.0123547
0.0118934
0.0129559
0.012066
0.00969883
0.00972686
0.00636627
0.00836348
0.0120819
0.0114857
0.00926509
0.0124387
0.00472521
0.0044738
0.00258956
0.00553995
0.005877
0.00860919
0.0100588
0.0120014
0.010983
0.0132367
0.0119084
0.0109098
0.01286
0.01065
0.0121065
0.0138722
0.0117684
0.0149521
0.0123061
0.0117996
0.0143425
0.0122268
0.0148892
0.0118844
0.0134789
0.0111186
0.0110115
0.0134461
0.0101424
0.0125539
0.010024
0.012599
0.0111776
0.00972188
0.0121066
0.0114677
0.012729
0.0106329
0.0126999
0.0117121
0.0133069
0.0127527
0.0100599
0.0130949
0.011142
0.0112977
0.0132262
0.0102921
0.0125587
0.0104754
0.0128853
0.0110446
0.011452
0.0132675
0.0111577
0.0133877
0.00996814
0.0120027
0.0105307
0.010771
0.0131564
0.00495588
0.00942497
0.00481007
0.0101734
0.00958686
0.00779187
0.00872951
0.00565373
0.00743016
0.0057937
0.0118028
0.00959048
0.0108972
0.0121887
0.0104723
0.0122414
0.0109555
0.00497047
0.00673101
0.00310065
0.0111592
0.0109282
0.0105823
0.00650389
0.00888044
0.00975866
0.00279122
0.00232081
0.00644604
0.00418387
0.00226916
0.00261453
0.00292441
0.00342611
0.00339764
0.00315065
0.00333827
0.00568385
0.00579586
0.00569169
0.00762097
0.00503355
0.00566568
0.00775222
0.0104397
0.0100925
0.00971079
0.00944944
0.0111138
0.0126125
0.011694
0.0101856
0.0131667
0.0126906
0.0126741
0.00675432
0.00902954
0.0113352
0.00759105
0.00709565
0.00994025
0.0104532
0.00769814
0.00888558
0.0122015
0.0125729
0.012322
0.00855716
0.0109116
0.00891117
0.0125836
0.0118168
0.0115805
0.0129105
0.0123099
0.0135453
0.00824205
0.0103493
0.00808007
0.0129802
0.011668
0.0119362
0.0114371
0.0114736
0.0124197
0.00906227
0.0115165
0.00893171
0.0137942
0.0129005
0.0130582
0.0125721
0.0127597
0.0134763
0.0139859
0.0143588
0.0145476
0.0117728
0.00901159
0.0141916
0.0132082
0.0137166
0.0135915
0.0149857
0.0089134
0.0115415
0.0140034
0.0128791
0.0127943
0.0129757
0.014084
0.00890246
0.0116783
0.00888812
0.0149386
0.0135156
0.0136779
0.0128791
0.0131913
0.0141761
0.015758
0.015713
0.0161928
0.0111444
0.00868344
0.014243
0.0128222
0.011646
0.0119918
0.0126231
0.00858195
0.0110975
0.0125312
0.0119626
0.011541
0.012814
0.0142337
0.00769747
0.00973994
0.00764113
0.0123487
0.0110805
0.0111493
0.0110193
0.0110353
0.0122507
0.0146176
0.0138576
0.0139151
0.0107551
0.00859219
0.0122329
0.0115995
0.0120314
0.0117943
0.0127301
0.00746362
0.00967636
0.0120819
0.0108913
0.0107795
0.0109004
0.0119935
0.00870525
0.0106998
0.00827541
0.0127565
0.0119276
0.012206
0.0113726
0.0116264
0.0123828
0.0131972
0.0132773
0.0135296
0.0106233
0.0128611
0.0117509
0.0115201
0.0122892
0.00878068
0.0111871
0.0131319
0.0123817
0.0124744
0.0122778
0.0130472
0.0100282
0.00783253
0.0122903
0.0113796
0.0111056
0.0112828
0.0126991
0.0139436
0.0140511
0.0136195
0.011011
0.00864629
0.0133464
0.0122789
0.0116688
0.0118998
0.012547
0.00872548
0.0110564
0.0127949
0.0120495
0.0119953
0.0123639
0.0133967
0.00793069
0.0100093
0.00806068
0.0122232
0.0111063
0.0111138
0.0114303
0.0112444
0.0125406
0.0141422
0.0138854
0.0137584
0.0109234
0.00869602
0.0130192
0.0120931
0.0114452
0.0116288
0.0123855
0.0084258
0.0106811
0.0135929
0.0122967
0.012606
0.0118707
0.0128942
0.00793527
0.010395
0.00723534
0.012725
0.0120687
0.0119667
0.0115765
0.0119941
0.0134799
0.014049
0.0144168
0.0139448
0.00973671
0.00811675
0.012117
0.0106587
0.0107163
0.0108577
0.0112682
0.00842047
0.0110416
0.0116726
0.0120387
0.0109238
0.0125282
0.0130701
0.00284619
0.00458966
0.00282904
0.00961642
0.00676188
0.00726164
0.00701608
0.00660783
0.00941131
0.0134941
0.0123674
0.0122268
0.00974548
0.00801529
0.0111261
0.0106165
0.00914715
0.00982395
0.00928631
0.0070226
0.00843312
0.00709834
0.00781166
0.00684704
0.00936503
0.0105978
0.00404947
0.0054918
0.00421234
0.00804227
0.00651885
0.0068569
0.0060852
0.00624017
0.00665089
0.0100872
0.00827111
0.00924
0.00950183
0.00739761
0.0117533
0.0106763
0.0105815
0.0106464
0.0117572
0.00851778
0.0105383
0.0121899
0.0113927
0.0114857
0.0113641
0.0119924
0.00814184
0.0103273
0.00837749
0.0119865
0.0112269
0.0111667
0.0116692
0.0114285
0.0122511
0.012801
0.0130214
0.0128569
0.00290873
0.00371971
0.00228734
0.00801052
0.0055796
0.00704271
0.00371542
0.00442138
0.0055462
0.0083494
0.0106203
0.00826474
0.0117759
0.0115299
0.012124
0.0104291
0.0109111
0.0099654
0.00598173
0.00781624
0.00717313
0.00664775
0.00739584
0.00562523
0.011196
0.00927619
0.0109182
0.00952133
0.0105992
0.00824396
0.00242656
0.0019819
0.00351525
0.00282113
0.0024331
0.00242603
0.0025127
0.00598863
0.00608313
0.00415512
0.00515236
0.00545292
0.00524062
0.00436348
0.00191418
0.002299
0.0021997
0.00245224
0.00229891
0.00241099
0.00348223
0.00259983
0.00325773
0.00352703
0.00340071
0.00282706
0.00253738
0.00235464
0.00287752
0.00262358
0.00445723
0.00322791
0.00447417
0.00223798
0.00242087
0.00424441
0.0030291
0.00410234
0.00256758
0.00286978
0.00403021
0.0054349
0.00403743
0.0057722
0.00611579
0.00630072
0.00616478
0.00608378
0.00560726
0.00368591
0.00472877
0.00480335
0.00390376
0.00293043
0.00659589
0.00502074
0.00739638
0.0059799
0.00878568
0.00403422
0.00522592
0.00800827
0.00638015
0.00699541
0.00637333
0.0072252
0.00814628
0.00962202
0.00793417
0.0104335
0.0102911
0.0108624
0.00940579
0.0097286
0.00926287
0.0087625
0.00950467
0.0099869
0.00467702
0.00975103
0.00678415
0.00671945
0.00928965
0.008412
0.0105704
0.0123315
0.0118591
0.0118085
0.0115905
0.0117047
0.00991846
0.00792175
0.010883
0.0107924
0.0111268
0.0107413
0.0117923
0.0123105
0.0129044
0.0118998
0.0103013
0.0130507
0.0117493
0.0119842
0.0126679
0.0103161
0.0123945
0.0113174
0.0117668
0.0130304
0.0107811
0.0123213
0.0115645
0.0118105
0.0126505
0.0139626
0.0136507
0.0137618
0.00361732
0.00537518
0.00427145
0.00558722
0.00831411
0.00790108
0.0113263
0.00950449
0.00740249
0.00652618
0.0106404
0.0103852
0.0111381
0.011866
0.0122592
0.00830028
0.0109399
0.00982697
0.00523822
0.00693029
0.00632236
0.00634242
0.00786457
0.00366943
0.00831405
0.0055803
0.0046164
0.00611419
0.00976178
0.00906929
0.00963568
0.0103423
0.0101943
0.00834083
0.00958649
0.00926932
0.00980682
0.00959674
0.0100696
0.010677
0.01117
0.00551035
0.00682406
0.00637048
0.00665791
0.0083187
0.0084198
0.0106103
0.0093615
0.00786478
0.00721164
0.00958854
0.00854181
0.010352
0.00985866
0.0122873
0.0110703
0.0109591
0.0119122
0.0106225
0.0123862
0.0116451
0.0116964
0.0124765
0.0106148
0.012139
0.0115229
0.0114415
0.0122307
0.0133161
0.0132433
0.0130764
SCALARS SignedDistance double 1
LOOKUP_TABLE default
1.17381
1.1874
1.15402
1.15739
1.14616
1.17509
1.26232
1.12701
1.05486
1.04726
1.05814
1.0428
1.15651
1.14116
1.21532
1.22457
1.2183
1.17762
1.17765
1.04773
1.06378
1.00153
1.15027
1.1678
1.01148
1.11475
1.05707
1.03398
1.16826
1.14823
1.05826
1.05474
1.04752
1.02575
1.251
1.25152
1.26496
1.11495
1.08712
1.12067
1.03344
1.01028
1.19159
1.20491
1.21602
1.08375
1.15882
1.07372
1.19874
1.16802
1.16392
1.24335
1.2177
1.2157
1.24742
1.21107
1.23815
1.20509
1.22018
1.18765
1.18855
1.21584
1.14796
1.19819
1.14919
1.13612
1.11025
1.03392
1.11428
1.04166
1.06976
1.02276
1.12869
1.02305
1.00566
1.08381
1.04896
1.193
1.19934
1.1864
1.1847
1.0771
1.1447
1.0839
1.12692
1.18385
1.04245
1.07801
1.04768
1.04139
1.07211
1.02983
1.00678
1.04201
1.01845
1.12287
1.03088
1.06795
1.09125
1.09118
1.10429
1.05609
1.21327
1.15883
1.21458
1.12432
1.04259
1.11957
1.1214
1.03761
1.07412
1.03642
1.13791
1.17374
1.23399
1.04495
1.0118
1.00918
1.22145
1.13187
1.07858
1.28857
1.21537
1.21624
1.25036
1.21493
1.2877
1.22665
1.17497
1.11936
1.12571
1.18695
1.20449
1.14179
1.22045
1.06867
1.07038
1.2125
1.16096
1.06179
1.11413
1.06723
1.02662
1.02804
1.01278
1.01127
1.06053
1.06791
1.08103
1.12514
1.18197
1.11351
1.00541
1.18824
1.06784
1.12832
1.06378
1.13791
1.06286
1.06646
1.00068
1.11316
1.17127
1.21109
1.18487
1.1946
1.21853
1.18239
1.22188
1.21607
1.20708
1.0575
1.06527
1.03663
1.153
1.1136
1.10506
1.13021
1.13052
1.16481
1.17309
1.1772
1.17725
1.18565
1.17728
1.20445
1.1637
1.16612
1.16779
1.18539
1.17505
1.1867
1.20593
1.19194
1.23937
1.23153
1.22739
1.22731
1.2198
1.18727
1.21285
1.23771
1.23441
1.22473
1.22729
1.23702
1.1939
1.20882
1.19435
1.22087
1.22797
1.22458
1.21638
1.2215
1.23005
1.25529
1.25242
1.23509
1.20102
1.1829
1.23521
1.22191
1.18698
1.20506
1.20084
1.18575
1.19618
1.19809
1.19965
1.18834
1.21373
1.23253
1.14255
1.15199
1.13876
1.1936
1.16184
1.16458
1.16631
1.16256
1.1947
1.23341
1.21133
1.21246
1.15521
1.15996
1.16306
1.16543
1.07933
1.12406
1.09755
1.08119
1.10718
1.08841
1.07545
1.04
1.12633
1.14831
1.05052
1.03142
1.06562
1.07017
1.04762
1.04031
1.0278
1.02922
1.07116
1.124
1.10944
1.10075
1.14866
1.08436
1.1211
1.16132
1.14255
1.05094
1.02876
1.0102
1.00181
1.00169
1.01007
1.02254
1.05084
1.04825
1.12087
1.07037
1.00133
1.04438
1.03115
1.08371
1.06282
1.11256
1.20092
1.18906
1.21493
1.20621
1.19006
1.20633
1.19263
1.195
1.19796
1.17782
1.18337
1.17339
1.20513
1.20924
1.04045
1.07909
1.05244
1.16582
1.12321
1.1353
1.11363
1.11659
1.14891
1.18735
1.17485
1.18138
1.18816
1.18428
1.13248
1.16138
1.13985
1.15033
1.11447
1.0594
1.07414
1.03916
1.06436
1.00216
1.0853
1.10298
1.08976
1.059
1.11878
1.09104
1.04354
1.0619
1.00649
1.03488
1.02731
1.10105
1.06187
1.0957
1.0339
1.04098
1.01044
1.01537
1.00247
1.03412
1.00213
1.03559
1.04008
1.04685
1.02419
1.06991
1.03277
1.01568
1.14441
1.08683
1.11607
1.02932
1.06185
1.09
1.03737
1.03049
1.03787
1.02849
1.03328
1.01762
1.07636
1.06004
1.03941
1.06745
1.11248
1.09262
1.11844
1.07804
1.05354
1.12918
1.07873
1.14154
1.00969
1.0202
1.2431
1.22204
1.24994
1.15727
1.19384
1.1838
1.1768
1.19885
1.15894
1.06952
1.11235
1.11617
1.08922
1.08704
1.14745
1.13051
1.04357
1.07742
1.08629
1.16921
1.16199
1.10089
1.1257
1.09013
1.16588
1.15346
1.05806
1.04654
1.06344
1.04274
1.0319
1.03467
1.04378
1.03134
1.07758
1.12541
1.10389
1.11357
1.15006
1.18756
1.19084
1.1029
1.169
1.10771
1.25672
1.21977
1.22573
1.0494
1.03357
1.015
1.00052
1.00481
1.00697
1.00266
1.00075
1.01366
1.18574
1.15546
1.1215
1.2085
1.18741
1.23077
1.01741
1.08749
1.02649
1.06873
1.06052
1.14948
1.2275
1.18386
1.2758
1.26878
1.24545
1.26097
1.28915
1.17685
1.2257
1.25278
1.23226
1.22542
1.23369
1.25207
1.18102
1.22398
1.18564
1.28297
1.25994
1.24752
1.25386
1.26304
1.27173
1.2786
1.27773
1.29694
1.16837
1.14117
1.22592
1.1975
1.09886
1.14683
1.12526
1.14096
1.1699
1.14193
1.15507
1.11361
1.20165
1.22338
1.25637
1.22394
1.25156
1.11574
1.16486
1.14103
1.16097
1.17161
1.14193
1.19567
1.15924
1.15371
1.0913
1.11758
1.06821
1.07686
1.03988
1.06318
1.05394
1.24757
1.22931
1.16566
1.20047
1.1689
1.1814
1.11772
1.04481
1.0779
1.05856
1.06823
1.10018
1.07173
1.08697
1.10245
1.12632
1.10152
1.13855
1.08534
1.1004
1.0193
1.04025
1.07832
1.04911
1.0416
1.01382
1.0241
1
1.01839
1.03457
1.04869
1.03237
1.03543
1.00321
1.01099
1.01188
1.02792
1.02541
1.00885
1.01759
1.00566
1.05952
1.05007
1.0552
1.05326
1.08521
1.05449
1.10736
1.08502
1.06088
1.05223
1.17957
1.11467
1.13692
1.15043
1.13687
1.08157
1.10765
1.10719
1.17888
1.23094
1.21451
1.15581
1.10787
1.13655
1.01947
1.07382
1.17395
1.20098
1.02277
1.03575
1.00006
1.01388
1.00739
1.14989
1.0518
1.0915
1.23381
1.14307
1.20367
1.20765
1.17943
1.09859
1.05528
1.05627
1.08337
1.0898
1.0735
1.13786
1.09659
1.09222
1.09527
1.12214
1.10713
1.164
1.06168
1.09215
1.06114
1.06445
1.04489
1.21717
1.14842
1.17736
1.1686
1.12504
1.05999
1.02382
1.02075
1.08578
1.13568
1.10399
1.11697
1.06816
1.03823
1.02554
1.05904
1.07827
1.12921
1.04723
1.0294
1.02599
1.01679
1.00014
1.16043
1.15038
1.16222
1.11286
1.07923
1.03864
1.05739
1.10963
