# vtk DataFile Version 4.2
vtk output
ASCII
DATASET POLYDATA
POINTS 642 double
-31.67 20.0899 -81.65
-29.0486 20.0889 -81.6501
-31.672 15.8347 -81.6512
-29.0466 15.8362 -81.6515
-30.359 16.6684 -79.56
-30.3586 19.2791 -79.5296
-30.3589 16.6657 -83.7518
-30.3588 19.2648 -83.7498
-28.2856 17.9668 -82.9331
-28.269 17.9687 -80.3577
-32.4344 17.9662 -82.9349
-32.4503 17.9683 -80.3574
-32.3707 19.2115 -80.8819
-31.5998 18.7349 -79.642
-31.133 19.9957 -80.3972
-29.5848 19.9952 -80.3973
-30.3589 20.4739 -81.65
-29.5901 19.9814 -82.8946
-31.1278 19.982 -82.8949
-31.5869 18.7268 -83.6406
-32.3584 19.2048 -82.4138
-32.8122 17.9669 -81.6488
-29.1175 18.7356 -79.6411
-28.3492 19.2101 -80.8824
-31.5863 17.2063 -79.6638
-30.3589 17.968 -79.1731
-32.3517 16.7252 -82.4112
-32.3483 16.7297 -80.8918
-30.359 17.9649 -84.1265
-31.587 17.2032 -83.6425
-28.3593 19.2047 -82.4139
-29.1308 18.7271 -83.6402
-28.3717 16.7319 -80.8923
-29.1316 17.2065 -79.6641
-29.5898 15.9422 -80.406
-31.1302 15.9371 -80.4028
-30.3592 15.4466 -81.6502
-31.1297 15.9426 -82.8958
-29.5898 15.9456 -82.8935
-29.1327 17.204 -83.6401
-28.3752 16.7302 -82.4078
-27.911 17.9676 -81.6497
-32.083 19.7258 -81.2559
-31.8264 19.6864 -80.5879
-31.4493 20.1287 -81.0097
-32.1023 18.3591 -79.9398
-32.0693 19.0259 -80.1895
-32.4935 18.6015 -80.5726
-30.7543 19.699 -79.8859
-31.4204 19.4355 -79.933
-30.9953 19.0532 -79.5013
-30.766 20.354 -80.9901
-31.0536 20.3725 -81.6501
-29.9632 19.6989 -79.8857
-30.3588 20.1031 -80.3312
-29.6643 20.3721 -81.6501
-29.9518 20.3539 -80.9902
-29.2689 20.1279 -81.0099
-30.7646 20.3453 -82.3078
-31.4454 20.1212 -82.2884
-29.2728 20.1201 -82.2881
-29.9533 20.3448 -82.3077
-30.7508 19.6831 -83.3988
-30.3589 20.0874 -82.9596
-29.9669 19.683 -83.3986
-31.8174 19.6765 -82.7064
-32.0777 19.721 -82.0429
-30.9889 19.0415 -83.7797
-31.4111 19.4229 -83.3531
-32.4764 18.5966 -82.7195
-32.0541 19.0174 -83.099
-32.0853 18.3543 -83.3461
-32.47 19.2727 -81.6494
-32.7055 17.9673 -82.3283
-32.6991 18.6165 -82.0489
-32.708 18.619 -81.2487
-32.7205 17.9673 -80.9678
-28.8918 19.6859 -80.5879
-28.6369 19.7239 -81.2561
-29.7215 19.0541 -79.4996
-29.2967 19.4359 -79.932
-28.2246 18.6013 -80.5726
-28.649 19.0256 -80.1895
-28.6155 18.3591 -79.9397
-31.0105 18.3701 -79.2907
-30.3587 18.6575 -79.2622
-32.0907 17.5792 -79.9514
-31.6565 17.9684 -79.549
-30.3589 17.2839 -79.286
-31.0063 17.568 -79.3053
-30.9875 16.8916 -79.5291
-32.6904 17.3199 -81.2527
-32.4753 17.338 -80.5824
-32.4666 17.3377 -82.7164
-32.6816 17.3196 -82.0462
-32.0762 16.2065 -81.2593
-32.4573 16.6616 -81.652
-32.0787 16.2051 -82.0445
-31.6479 17.9648 -83.7437
-32.0834 17.5767 -83.3456
-30.359 18.6495 -84.0242
-31.006 18.3647 -84
-30.9891 16.8882 -83.7822
-31.0063 17.5647 -84.0003
-30.359 17.2796 -84.0244
-29.3066 19.4227 -83.3529
-29.7288 19.0416 -83.7793
-28.6409 19.72 -82.0431
-28.9005 19.676 -82.7063
-28.6336 18.3547 -83.3447
-28.6637 19.0174 -83.0988
-28.2423 18.5965 -82.7191
-28.6446 16.2091 -81.2608
-28.9059 16.2558 -80.5999
-29.2711 15.8035 -81.0129
-28.6275 17.5795 -79.9514
-28.6697 16.9178 -80.2078
-28.2464 17.3387 -80.5838
-29.9684 16.2455 -79.907
-29.3112 16.5116 -79.9562
-29.7303 16.8919 -79.5293
-29.9524 15.5735 -80.9912
-29.6626 15.5512 -81.651
-30.7507 16.2423 -79.9046
-30.3596 15.8304 -80.3369
-31.0555 15.5496 -81.6505
-30.7668 15.5701 -80.9901
-31.4489 15.7988 -81.0109
-29.952 15.578 -82.3092
-29.2701 15.8032 -82.2894
-31.449 15.8009 -82.2906
-30.7663 15.5765 -82.3098
-29.9681 16.2509 -83.3947
-30.3592 15.84 -82.9586
-30.7503 16.25 -83.395
-28.9029 16.2529 -82.703
-28.6414 16.2069 -82.0434
-29.729 16.8884 -83.7817
-29.3113 16.5122 -83.3479
-28.2546 17.3395 -82.7145
-28.6745 16.9193 -83.0921
-28.6374 17.5777 -83.3425
-28.2669 16.6645 -81.6517
-28.0141 17.9679 -82.3277
-28.0398 17.3221 -82.0457
-28.0326 17.3209 -81.2533
-28.0023 17.9682 -80.9687
-29.7115 17.5682 -79.3062
-29.0609 17.9684 -79.5487
-29.707 18.3703 -79.291
-31.8154 16.2509 -80.5973
-31.4073 16.5094 -79.9552
-32.049 16.9168 -80.2072
-31.4083 16.5099 -83.3492
-31.8185 16.2493 -82.7063
-32.047 16.9165 -83.0947
-29.0717 17.9651 -83.7406
-29.7123 17.5648 -83.9985
-29.7124 18.3646 -83.9981
-28.011 18.6186 -81.2488
-28.0201 18.616 -82.0487
-28.2502 19.2708 -81.6499
-31.8869 19.9309 -81.4552
-31.7856 19.9497 -81.1207
-31.5743 20.13 -81.3343
-32.1224 19.4659 -80.7247
-31.974 19.722 -80.9128
-32.2452 19.485 -81.0639
-31.3017 20.084 -80.6957
-31.6498 19.9279 -80.7862
-31.4927 19.8653 -80.4777
-32.2996 18.1609 -80.1389
-32.3202 18.4924 -80.2378
-32.4919 18.2799 -80.4506
-31.8518 18.8909 -79.8926
-32.1011 18.7008 -80.0458
-31.8681 18.5512 -79.7733
-32.4544 18.9138 -80.7163
-32.3028 18.8256 -80.3697
-32.2445 19.1335 -80.5232
-30.5536 19.499 -79.6842
-30.8875 19.3945 -79.67
-30.6733 19.1806 -79.4945
-31.2878 19.7387 -80.1467
-31.0972 19.5864 -79.8934
-30.9483 19.8656 -80.1244
-31.3055 18.904 -79.5507
-31.2198 19.2558 -79.6966
-31.5249 19.0966 -79.7633
-31.9701 19.3743 -80.3711
-31.7642 19.2471 -80.0399
-31.6406 19.583 -80.2413
-31.2582 20.2818 -81.322
-31.3791 20.2503 -81.6501
-30.9582 20.2023 -80.6798
-31.115 20.2651 -80.9894
-30.712 20.4479 -81.6501
-30.9122 20.3897 -81.3174
-30.564 20.4452 -81.3178
-30.1637 19.4991 -79.6839
-30.3588 19.7259 -79.8673
-29.9648 20.0754 -80.3478
-30.1562 19.9231 -80.094
-29.7693 19.8653 -80.1244
-30.5615 19.9231 -80.094
-30.753 20.0755 -80.3478
-29.3389 20.2497 -81.6501
-29.4598 20.2812 -81.3221
-29.1441 20.1292 -81.3344
-30.1537 20.4453 -81.3178
-29.8056 20.3894 -81.3175
-30.0058 20.4477 -81.65
-29.4163 20.0834 -80.6959
-29.6029 20.2645 -80.9895
-29.7596 20.202 -80.6799
-30.5654 20.2598 -80.6468
-30.1523 20.2598 -80.6468
-30.3588 20.3869 -80.9813
-31.2566 20.2777 -81.9777
-31.5719 20.1262 -81.9654
-30.5637 20.4402 -81.9818
-30.9113 20.3854 -81.9823
-31.2968 20.0731 -82.5997
-31.1123 20.2569 -82.3086
-30.9551 20.1905 -82.6154
-29.1464 20.1252 -81.9652
-29.4615 20.2768 -81.9775
-29.7628 20.1899 -82.6152
-29.6057 20.2559 -82.3083
-29.4213 20.0722 -82.5993
-29.8066 20.3847 -81.9821
-30.1541 20.4398 -81.9817
-30.5519 19.4836 -83.5971
-30.3588 19.7093 -83.4166
-30.1658 19.4835 -83.5971
-30.7503 20.0606 -82.9435
-30.5599 19.9068 -83.1935
-30.9437 19.8503 -83.1639
-29.7741 19.8499 -83.1637
-30.1578 19.9067 -83.1935
-29.9675 20.0604 -82.9434
-30.3589 20.3776 -82.3165
-30.1534 20.2469 -82.6479
-30.5644 20.2471 -82.6479
-31.7808 19.9436 -82.1779
-31.8847 19.9284 -81.8444
-31.4855 19.8535 -82.8154
-31.6434 19.9187 -82.5101
-32.2365 19.4788 -82.2336
-31.9662 19.7143 -82.3843
-32.1115 19.4576 -82.5705
-30.6702 19.1672 -83.7853
-30.8825 19.3803 -83.6118
-31.5138 19.0863 -83.5206
-31.2116 19.2434 -83.5862
-31.2959 18.8942 -83.7314
-31.0907 19.5719 -83.3917
-31.2805 19.7249 -83.1423
-32.4738 18.2767 -82.8404
-32.302 18.4874 -83.0506
-32.2819 18.1575 -83.1495
-32.2299 19.1255 -82.7692
-32.2856 18.8187 -82.9202
-32.4388 18.9074 -82.5773
-31.8527 18.5448 -83.5104
-32.084 18.694 -83.2402
-31.8372 18.8825 -83.3921
-31.6309 19.5712 -83.049
-31.7521 19.2367 -83.2476
-31.9581 19.3647 -82.9205
-32.1072 19.7417 -81.6498
-32.4392 19.2544 -82.0387
-32.2958 19.5103 -81.8504
-32.2991 19.5127 -81.4486
-32.4467 19.2585 -81.2593
-32.5876 17.9668 -82.6479
-32.6202 18.289 -82.5296
-32.7827 18.2935 -81.85
-32.7264 18.2938 -82.1907
-32.7814 17.9673 -81.994
-32.61 18.6167 -82.391
-32.5557 18.923 -82.2392
-32.6365 18.2913 -80.7644
-32.6037 17.9679 -80.6465
-32.5678 18.9279 -81.0573
-32.624 18.6207 -80.9043
-32.7916 17.9668 -81.3034
-32.7371 18.295 -81.1063
-32.7879 18.294 -81.4481
-32.6158 18.9568 -81.8528
-32.7351 18.6262 -81.6492
-32.6207 18.9588 -81.4455
-28.9333 19.9485 -81.1209
-28.8326 19.9292 -81.4554
-29.2252 19.8649 -80.4778
-29.0685 19.9271 -80.7863
-28.4749 19.4833 -81.0642
-28.7451 19.7208 -80.913
-28.5968 19.4649 -80.7249
-30.0438 19.1809 -79.4937
-29.8296 19.3948 -79.6691
-29.192 19.0975 -79.7616
-29.4971 19.2565 -79.6949
-29.4113 18.9051 -79.5489
-29.6201 19.5865 -79.8928
-29.4297 19.7385 -80.1464
-28.2271 18.2801 -80.4509
-28.3977 18.4924 -80.2376
-28.4189 18.161 -80.1391
-28.4747 19.1327 -80.5236
-28.4161 18.8249 -80.3701
-28.2651 18.9127 -80.7169
-28.8494 18.5515 -79.773
-28.6168 18.7007 -80.0457
-28.8658 18.8912 -79.892
-29.077 19.583 -80.2409
-28.9532 19.2475 -80.039
-28.7481 19.3741 -80.371
-30.6842 18.8615 -79.3515
-30.3586 18.9844 -79.3773
-31.3181 18.5606 -79.4402
-31.0131 18.7173 -79.3735
-30.3588 18.3173 -79.1931
-30.6879 18.5157 -79.25
-30.6868 18.1705 -79.2004
-32.2929 17.7763 -80.1444
-32.1144 17.9685 -79.9191
-31.6362 17.581 -79.5826
-31.8875 17.7692 -79.7293
-31.8542 17.3883 -79.7905
-31.8931 18.1681 -79.7224
-31.6448 18.3571 -79.569
-30.3589 16.9608 -79.4071
-30.6805 17.0821 -79.3792
-30.6693 16.766 -79.5243
-30.6858 17.766 -79.2079
-30.6852 17.4239 -79.2697
-30.3589 17.6203 -79.206
-31.2945 17.0388 -79.5754
-31.0061 17.2244 -79.398
-31.3094 17.3791 -79.4598
-31.3477 18.1717 -79.3897
-31.3442 17.7652 -79.3972
-31.0173 17.9681 -79.2648
-32.6273 17.6453 -80.7689
-32.4819 17.6573 -80.4568
-32.7822 17.6413 -81.4487
-32.7305 17.6409 -81.1086
-32.4307 17.0279 -80.7275
-32.6057 17.3188 -80.9111
-32.5436 17.0131 -81.0651
-32.469 17.6564 -82.839
-32.6129 17.6454 -82.5279
-32.5413 17.0104 -82.236
-32.5959 17.3183 -82.3877
-32.4261 17.0267 -82.5722
-32.7168 17.6416 -82.1887
-32.7751 17.6419 -81.8488
-31.8858 15.9971 -81.4569
-32.1045 16.1873 -81.6518
-31.8866 15.9967 -81.846
-32.4278 16.6796 -81.2652
-32.289 16.421 -81.452
-32.2299 16.4524 -81.0706
-32.235 16.4487 -82.234
-32.2911 16.4196 -81.8521
-32.4313 16.6766 -82.0388
-32.719 17.3107 -81.6497
-32.6016 16.9771 -81.8529
-32.6004 16.9792 -81.4495
-32.1004 17.9653 -83.3704
-32.2804 17.7741 -83.1491
-31.6321 18.3513 -83.716
-31.879 18.1638 -83.5643
-31.8519 17.3856 -83.5112
-31.8787 17.7662 -83.5645
-31.6323 17.5782 -83.7167
-30.3589 18.9725 -83.9033
-30.6812 18.8512 -83.931
-30.6854 18.1667 -84.0952
-30.6856 18.5092 -84.0388
-30.359 18.3127 -84.1002
-31.0069 18.7086 -83.9106
-31.3089 18.5534 -83.8447
-30.6702 16.7626 -83.7878
-30.6816 17.0773 -83.9336
[...]
POINT_DATA 642
SCALARS Mean_Curvature double 1
LOOKUP_TABLE default
0.800995
0.801924
0.817419
0.832313
0.764337
0.806403
0.810216
0.78373
0.779199
0.809038
0.785128
0.797185
0.783378
0.765279
0.783972
0.780617
0.787232
0.779801
0.781349
0.740681
0.774785
0.79917
0.767255
0.780015
0.724576
0.805894
0.825656
0.739845
0.810108
0.780328
0.781471
0.755137
0.756418
0.727269
0.803784
0.812944
0.827039
0.812592
0.810607
0.781311
0.737557
0.759181
0.783872
0.776739
0.781723
0.787575
0.781254
0.769731
0.782235
0.779123
0.772092
0.781074
0.765306
0.78019
0.788992
0.769133
0.782601
0.781279
0.782232
0.784297
0.780247
0.782645
0.782876
0.779534
0.783012
0.780626
0.769609
0.754472
0.78248
0.763792
0.783969
0.765815
0.78914
0.736267
0.791177
0.811366
0.77346
0.780152
0.777993
0.787654
0.783054
0.790796
0.778114
0.789415
0.785326
0.769572
0.751666
0.784794
0.747967
0.773122
0.758155
0.747883
0.743624
0.751725
0.673673
0.802015
0.786533
0.8021
0.791407
0.763226
0.783726
0.79949
0.783764
0.790011
0.750734
0.782608
0.758909
0.775815
0.7812
0.767791
0.784508
0.757773
0.810512
0.768568
0.790619
0.758953
0.771547
0.714184
0.773902
0.743206
0.762512
0.788664
0.783028
0.812067
0.809087
0.762763
0.799005
0.798547
0.787079
0.797743
0.797655
0.792111
0.745325
0.788568
0.734606
0.819952
0.813234
0.789502
0.753665
0.760213
0.755987
0.756103
0.76452
0.735216
0.705088
0.745704
0.746127
0.763928
0.792872
0.772564
0.794031
0.728773
0.767737
0.733891
0.816479
0.747855
0.783063
0.784731
0.793118
0.825017
0.774924
0.771493
0.784731
0.779432
0.790899
0.777533
0.777944
0.781439
0.782635
0.77809
0.78005
0.79931
0.76525
0.789444
0.773808
0.774742
0.767449
0.795791
0.789228
0.784313
0.789766
0.785386
0.790415
0.781947
0.783007
0.782928
0.763764
0.777686
0.771109
0.778796
0.777701
0.779334
0.786378
0.775683
0.785074
0.783497
0.774388
0.776471
0.777596
0.791
0.78151
0.784963
0.782742
0.779135
0.783011
0.784283
0.78391
0.786428
0.794777
0.783845
0.773174
0.775991
0.780445
0.782234
0.785576
0.785526
0.786613
0.780184
0.786324
0.789584
0.772771
0.778897
0.781645
0.787011
0.78414
0.789355
0.78428
0.783524
0.782271
0.778888
0.775884
0.768604
0.785714
0.77379
0.786509
0.783894
0.780078
0.780956
0.780137
0.780996
0.784907
0.778761
0.786757
0.785031
0.779225
0.778682
0.779924
0.780948
0.770778
0.778613
0.779046
0.767294
0.77993
0.775666
0.77762
0.746063
0.781803
0.781722
0.766441
0.756775
0.750708
0.784393
0.776171
0.775485
0.744654
0.758018
0.770265
0.783362
0.784733
0.785436
0.78817
0.775586
0.779746
0.782893
0.790216
0.756522
0.756455
0.734684
0.753769
0.755365
0.775296
0.781888
0.775493
0.766163
0.802739
0.784611
0.796795
0.720194
0.749648
0.789184
0.783915
0.804067
0.780549
0.778743
0.779737
0.779306
0.776967
0.778276
0.777905
0.793863
0.784165
0.783788
0.786041
0.78057
0.780316
0.779579
0.787354
0.783138
0.79436
0.780768
0.774645
0.783025
0.768904
0.772286
0.774403
0.782609
0.784245
0.782451
0.764401
0.77444
0.765631
0.765316
0.781318
0.783356
0.798708
0.76826
0.78726
0.763435
0.770954
0.729358
0.79206
0.796692
0.746253
0.734541
0.763231
0.802094
0.762849
0.7818
0.752386
0.721055
0.744479
0.785553
0.776843
0.79613
0.771853
0.766749
0.808445
0.776511
0.742927
0.749911
0.718104
0.757192
0.739364
0.751807
0.724976
0.704493
0.707625
0.756916
0.797915
0.800868
0.802643
0.759436
0.793921
0.775394
0.81667
0.806154
0.803306
0.733953
0.812761
0.754478
0.754261
0.76069
0.746705
0.747604
0.772664
0.752419
0.749702
0.754531
0.751545
0.811653
0.792483
0.80599
0.752241
0.749483
0.7953
0.7764
0.786984
0.755758
0.766932
0.780398
0.807936
0.77502
0.811778
0.804157
0.808977
0.798251
0.780415
0.769706
0.780611
0.781131
0.754535
0.778225
0.775922
0.782778
0.779909
0.781341
0.780782
0.776641
0.780135
0.779063
0.741265
0.77682
0.771841
0.771412
0.764362
0.762422
0.783459
0.769074
0.789741
0.783599
0.787377
0.785862
0.820654
0.800341
0.805225
0.742224
0.784336
0.742799
0.797819
0.801687
0.803022
0.778973
0.730284
0.75738
0.766147
0.726367
0.728223
0.769017
0.76578
0.767777
0.738496
0.74351
0.767123
0.788226
0.746313
0.804038
0.755753
0.756683
0.765273
0.751266
0.760994
0.74821
0.782482
0.80428
0.790679
0.786732
0.762258
0.77473
0.797276
0.735098
0.813537
0.810867
0.824365
0.825986
0.810267
0.798367
0.785787
0.795485
0.795065
0.796169
0.802372
0.767092
0.804189
0.801
0.802227
0.800359
0.801244
0.795443
0.795601
0.807826
0.764155
0.782748
0.801352
0.794852
0.798768
0.801422
0.790702
0.800478
0.796276
0.801657
0.78175
0.763943
0.784593
0.738255
0.782069
0.808993
0.737589
0.754301
0.778012
0.730157
0.817015
0.770005
0.793475
0.794751
0.801424
0.813703
0.811947
0.804999
0.840868
0.815274
0.834079
0.798072
0.782536
0.779789
0.783192
0.787039
0.751871
0.74342
0.758127
0.765272
0.760044
0.709715
0.757261
0.727548
0.764225
0.76904
0.777822
0.736249
0.754657
0.707767
0.820794
0.814441
0.840247
0.808295
0.740772
0.750624
0.741845
0.782628
0.726883
0.756376
0.742798
0.691932
0.757976
0.777481
0.763663
0.733159
0.756902
0.769682
0.774448
0.758202
0.753306
0.756419
0.737091
0.742642
0.7231
0.758527
0.796055
0.790831
0.781114
0.793849
0.779067
0.765005
0.772741
0.806258
0.772568
0.769829
0.763967
0.773192
0.793511
0.792635
0.799546
0.81384
0.808384
0.809478
0.744117
0.730404
0.759752
0.746837
0.749628
0.812841
0.743672
0.757731
0.74614
0.718989
0.764601
0.752259
0.751534
0.738472
0.775982
0.777488
0.734147
0.773785
0.771773
0.798441
0.828284
0.8085
0.803235
0.810933
0.766583
0.77589
0.77292
0.751742
0.702106
0.778372
0.750646
0.738401
0.750995
0.748673
0.749881
0.738161
0.741152
0.781603
0.813522
0.769938
0.776878
0.752196
0.748739
0.742993
0.74736
0.789667
0.811051
0.792742
0.809157
0.795211
0.772787
0.73306
0.772318
0.797342
0.796562
0.770406
0.800729
0.753686
0.785486
0.771747
0.767041
0.786628
0.769729
0.777289
0.782537
0.799652
0.801032
0.787332
SCALARS CoVolArea double 1
LOOKUP_TABLE default
0.0959229
0.0958382
0.0960773
0.0958539
0.0943607
0.095825
0.09443
0.0945412
0.0930383
0.0938545
0.0931736
0.0939849
0.131583
0.131481
0.133144
0.133136
0.133189
0.131808
0.131845
0.12997
0.130608
0.129188
0.131518
0.13145
0.129914
0.130653
0.130015
0.13025
0.130245
0.12975
0.1305
0.129849
0.129878
0.129845
0.13201
0.13231
0.133672
0.131968
0.131773
0.129507
0.129675
0.129012
0.124945
0.138505
0.125672
0.12344
0.137597
0.123523
0.125614
0.138403
0.124824
0.139436
0.125737
0.125643
0.139414
0.125683
0.139409
0.125599
0.13867
0.125016
0.124958
0.138643
0.123967
0.137995
0.123951
0.137245
0.124524
0.123275
0.13665
0.122282
0.135936
0.122172
0.137094
0.121858
0.135691
0.136239
0.122554
0.138417
0.124824
0.124837
0.138426
0.123388
0.137577
0.123407
0.137066
0.124475
0.122692
0.136251
0.122965
0.136108
0.122986
0.135266
0.12243
0.121908
0.135165
0.124311
0.136101
0.124387
0.135394
0.121952
0.123172
0.13596
0.123153
0.136029
0.12327
0.136619
0.12323
0.124411
0.137189
0.122008
0.135885
0.122203
0.123978
0.136908
0.125244
0.122597
0.135529
0.122266
0.123956
0.136364
0.122884
0.139434
0.126035
0.124014
0.138655
0.126225
0.139586
0.125553
0.139125
0.125199
0.125433
0.139223
0.123934
0.138143
0.124053
0.136806
0.123985
0.123022
0.13636
0.121515
0.135309
0.121713
0.135708
0.121615
0.134712
0.134871
0.122338
0.136114
0.136233
0.137108
0.13722
0.136626
0.135775
0.136669
0.137172
0.135721
0.135225
0.13591
0.135881
0.135998
0.135499
0.136974
0.119971
0.126052
0.120308
0.136323
0.127063
0.124593
0.125692
0.127437
0.137126
0.117957
0.124242
0.118007
0.135818
0.125864
0.123744
0.123803
0.125885
0.135884
0.120209
0.125923
0.119854
0.13709
0.127341
0.125661
0.124473
0.126917
0.136193
0.152085
0.152024
0.152533
0.126462
0.120339
0.13761
0.127854
0.125747
0.127881
0.137623
0.120226
0.126408
0.137594
0.127841
0.12568
0.127836
0.137602
0.120252
0.126399
0.120208
0.137607
0.127847
0.125721
0.125652
0.127817
0.137585
0.153603
0.153588
0.153604
0.126113
0.120008
0.137248
0.127522
0.124732
0.12716
0.136528
0.119916
0.126051
0.136488
0.127121
0.124687
0.127489
0.137237
0.118562
0.124731
0.118551
0.136224
0.126307
0.124184
0.124159
0.126296
0.136196
0.152773
0.152367
0.152387
0.125478
0.119786
0.135832
0.126516
0.123913
0.126234
0.135158
0.118306
0.124241
0.134435
0.125244
0.12297
0.125693
0.135535
0.116851
0.122872
0.116855
0.134496
0.124464
0.122683
0.122374
0.124345
0.134109
0.150854
0.150148
0.150447
0.125429
0.135088
0.126179
0.126411
0.13561
0.116679
0.122678
0.133691
0.124041
0.12187
0.124315
0.134385
0.123736
0.117605
0.135153
0.125281
0.122194
0.12479
0.133961
0.150217
0.149786
0.150496
0.125939
0.119864
0.13709
0.127355
0.12445
0.126938
0.136199
0.119869
0.125962
0.136209
0.126947
0.12449
0.127384
0.137104
0.117853
0.12415
0.11786
0.135807
0.125825
0.123701
0.123768
0.125844
0.135832
0.152506
0.152016
0.152015
0.125359
0.119689
0.135534
0.126341
0.123879
0.126142
0.135099
0.11761
0.123637
0.13421
0.124775
0.122609
0.125182
0.135105
0.117873
0.123638
0.118044
0.134606
0.124899
0.12299
0.122739
0.124809
0.134226
0.150542
0.150006
0.150353
0.123063
0.117452
0.13325
0.124072
0.122504
0.124253
0.13401
0.116623
0.122448
0.13371
0.123947
0.122293
0.123809
0.133219
0.119843
0.125091
0.119861
0.134471
0.125614
0.123528
0.123445
0.125613
0.134237
0.148921
0.149253
0.149388
0.122674
0.116721
0.133863
0.12413
0.122132
0.124056
0.133781
0.118232
0.123937
0.134373
0.124983
0.122959
0.124988
0.134188
0.118188
0.123921
0.118158
0.134142
0.124968
0.122819
0.123059
0.125085
0.134424
0.149451
0.149711
0.149475
0.124213
0.118286
0.135503
0.12567
0.122894
0.125201
0.134369
0.11968
0.125384
0.135086
0.126148
0.123807
0.126455
0.135786
0.1167
0.122739
0.116725
0.13402
0.124229
0.122227
0.122623
0.124397
0.134436
0.150811
0.150398
0.150105
0.119509
0.125323
0.120098
0.13462
0.125845
0.12327
0.124952
0.126417
0.135707
0.117499
0.123115
0.117314
0.133877
0.124356
0.122539
0.122161
0.124212
0.133905
0.118462
0.124017
0.11798
0.135402
0.125559
0.124257
0.12265
0.124912
0.134078
0.14995
0.149726
0.150531
0.126494
0.120449
0.137099
0.127681
0.126159
0.12809
0.137931
0.118498
0.124767
0.13688
0.126575
0.124412
0.126527
0.136698
0.120702
0.12673
0.120396
0.137981
0.12823
0.126241
0.125288
0.127919
0.137365
0.153264
0.153377
0.153733
0.126406
0.120114
0.137806
0.127954
0.124785
0.127479
0.136702
0.120351
0.12662
0.136872
0.127655
0.12504
0.12809
0.137849
0.118463
0.124798
0.118516
0.136262
0.126371
0.124121
0.124259
0.126427
0.136374
0.153359
0.152764
0.152699
0.125402
0.119568
0.135623
0.126381
0.122999
0.125747
0.134419
0.11813
0.124055
0.133969
0.124948
0.122626
0.125545
0.135346
0.116377
0.122196
0.116514
0.133791
0.123713
0.121904
0.121888
0.123672
0.133495
0.150496
0.149666
0.149901
0.124695
0.133871
0.125135
0.125251
0.13411
0.1165
0.122137
0.132832
0.123422
0.121596
0.123543
0.133418
0.122892
0.117409
0.133563
0.123965
0.122038
0.123859
0.132992
0.14888
0.148451
0.148948
0.123604
0.1342
0.124775
0.124898
0.13461
0.123568
0.135144
0.125173
0.12472
0.134171
0.125371
0.135108
0.12617
0.126371
0.135584
0.149996
0.150564
0.150364
0.125658
0.136046
0.12675
0.126118
0.134914
0.12414
0.134247
0.125085
0.125733
0.135674
0.123235
0.134249
0.124434
0.124491
0.134018
0.150863
0.149999
0.150283
0.124203
0.135571
0.125756
0.125184
0.134297
0.125694
0.134828
0.126155
0.126715
0.135912
0.122506
0.133849
0.124
0.124137
0.13421
0.150805
0.150276
0.150056
0.122488
0.133568
0.123855
0.123968
0.133727
0.123859
0.13436
0.125031
0.124846
0.133962
0.123911
0.134089
0.124932
0.12495
0.134312
0.149298
0.149588
0.149319
0.123517
0.133741
0.124531
0.125079
0.134999
0.122543
0.134267
0.124223
0.123833
0.133453
0.125325
0.135473
0.126296
0.126069
0.134951
0.149547
0.150054
0.15034
SCALARS SignedDistance double 1
LOOKUP_TABLE default
2.41429
2.42385
2.40502
2.42064
2.72221
2.42481
2.6044
2.6509
2.88964
2.76161
2.86221
2.73408
2.51494
2.54242
2.31805
2.32194
2.3076
2.48752
2.48235
2.76327
2.66663
2.8253
2.5402
2.53306
2.78886
2.60903
2.8046
2.75919
2.56219
2.73218
2.67041
2.76796
2.77011
2.79103
2.51151
2.47505
2.30218
2.50608
2.55115
2.76998
2.87695
2.84636
2.43618
2.4052
2.34289
2.63244
2.52345
2.64257
2.35345
2.42718
2.4789
2.29081
2.35099
2.3475
2.2792
2.35142
2.29291
2.35627
2.37215
2.42947
2.43841
2.37683
2.56363
2.47122
2.56434
2.55279
2.52586
2.69427
2.62372
2.81364
2.7209
2.82305
2.57562
2.89706
2.77248
2.72412
2.7326
2.4143
2.47083
2.45991
2.41122
2.65003
2.53221
2.64103
2.56212
2.49961
2.77994
2.67876
2.74692
2.71655
2.73552
2.81934
2.80359
2.87727
2.93121
2.59429
2.73702
2.56368
2.76295
2.83139
2.64586
2.67122
2.64085
2.674
2.65492
2.62541
2.69379
2.52771
2.55556
2.85155
2.72822
2.82279
2.6343
2.65775
2.44932
2.79598
2.77561
2.85426
2.6415
2.69865
2.73537
2.30662
2.29368
2.6333
2.43123
2.29284
2.25721
2.39964
2.34064
2.4426
2.39223
2.31959
2.60921
2.52315
2.60673
2.68933
2.62246
2.65304
2.69797
2.89763
2.82157
2.86808
2.79682
2.91411
2.94046
2.85596
2.79338
2.72214
2.67726
2.5617
2.63013
2.69529
2.76253
2.67699
2.61913
2.78557
2.79725
2.70006
2.69076
2.72321
2.78421
2.58502
2.42251
2.38685
2.37609
2.454
2.41529
2.46949
2.32378
2.36876
2.35969
2.68688
2.63317
2.68426
2.53526
2.58238
2.58229
2.57567
2.57773
2.51356
2.38618
2.41395
2.44726
2.3666
2.38613
2.32933
2.51072
2.45329
2.49016
2.45825
2.4725
2.40948
2.34616
2.38154
2.2889
2.30685
2.33213
2.32551
2.30836
2.38116
2.34894
2.29315
2.3119
2.32802
2.31285
2.29144
2.38295
2.34923
2.39301
2.30167
2.32385
2.33678
2.33205
2.31606
2.29464
2.27068
2.2706
2.28908
2.37583
2.42021
2.34822
2.349
2.45143
2.39269
2.42189
2.42811
2.38716
2.42805
2.40365
2.45862
2.35972
2.35168
2.61141
2.57066
2.61142
2.46637
2.51376
2.52044
2.52328
2.51369
2.46829
2.37191
2.41174
2.41183
2.47519
2.46656
2.51125
2.48801
2.59261
2.53851
2.60745
2.66398
2.63118
2.70096
2.66388
2.73083
2.58861
2.54982
2.86146
2.81965
2.85089
2.69433
2.76711
2.74313
2.79149
2.7824
2.74584
2.58495
2.66844
2.63517
2.47855
2.62505
2.55019
2.50001
2.53706
2.88231
2.86516
2.81862
2.84322
2.87705
2.79912
2.71944
2.71018
2.7362
2.60177
2.67277
2.74764
2.74452
2.78862
2.67274
2.75334
2.64042
2.41196
2.45496
2.3625
2.38022
2.49353
2.43643
2.47244
2.43498
2.39668
2.47717
2.43012
2.49983
2.37159
2.3599
2.70868
2.64591
2.70426
2.53052
2.58635
2.58958
2.58407
2.58525
2.53545
2.40612
2.46929
2.46731
2.48813
2.47223
2.54996
2.51943
2.54226
2.51542
2.5678
2.75911
2.7122
2.75118
2.73458
2.7965
2.65357
2.59709
2.7546
2.7562
2.72277
2.65977
2.72893
2.68737
2.759
2.76479
2.76582
2.61744
2.69815
2.63464
2.76723
2.77202
2.81681
2.77346
2.80168
2.80425
2.81935
2.88415
2.90584
2.8821
2.904
2.86246
2.92528
2.89972
2.49217
2.55938
2.46865
2.7607
2.6672
2.69717
2.67818
2.64879
2.75739
2.89508
2.84844
2.84573
2.83538
2.8594
2.7882
2.81708
2.78553
2.81296
2.77399
2.67194
2.68103
2.60059
2.64563
2.59985
2.71118
2.74618
2.61215
2.64281
2.63073
2.72219
2.6768
2.68227
2.60301
2.65319
2.60134
2.71218
2.62993
2.71165
2.63124
2.66456
2.55281
2.59003
2.73025
2.664
2.70216
2.47279
2.47968
2.60999
2.54063
2.59341
2.49268
2.51541
2.88115
2.83586
2.8782
2.75016
2.79083
2.80752
2.75463
2.77687
2.70161
2.5876
2.63894
2.67197
2.52014
2.53829
2.43345
2.7162
2.64691
2.7208
2.47024
2.55605
2.58285
2.7811
2.83843
2.81724
2.78471
2.82912
2.80526
2.82201
2.82448
2.77062
2.69174
2.69908
2.72255
2.63131
2.67229
2.57307
2.75944
2.71586
2.74129
2.72222
2.73054
2.67974
2.35962
2.34493
2.39724
2.36861
2.28642
2.3029
2.25143
2.69339
2.63643
2.42915
2.5243
2.54806
2.5443
2.46461
2.33829
2.31781
2.39875
2.21788
2.24781
2.28316
2.42499
2.31583
2.35048
2.35068
2.32146
2.25575
2.34454
2.41661
2.29628
2.30139
2.48913
2.37813
2.43241
2.37935
2.3138
2.39675
2.33752
2.43668
2.27846
2.29683
2.59641
2.60223
2.59617
2.51798
2.58591
2.60894
2.58612
2.58627
2.49997
2.34643
2.41734
2.41664
2.52197
2.50824
2.61045
2.55879
2.75207
2.64929
2.78443
2.61455
2.62132
2.72549
2.6687
2.7082
2.64646
2.6634
2.91071
2.88363
2.89038
2.85343
2.86399
2.88884
2.82598
2.8437
2.79342
2.73175
2.76286
2.80317
2.59673
2.83745
2.71263
2.7138
2.77803
2.90511
2.92685
2.88975
2.93504
2.89196
2.9208
2.91904
2.8176
2.7819
2.83513
2.85188
2.80871
2.81775
2.83618
2.89227
2.88997
2.85545
2.75702
2.76653
2.76528
2.73373
2.66739
2.71985
2.59653
2.65259
2.73818
2.75433
2.4867
2.57463
2.52166
2.51935
2.55099
2.70232
2.61685
2.64479
2.49339
2.54825
2.51161
2.60856
2.70038
2.70024
2.73816
2.71531
2.66959
2.61322
2.79965
2.75547
2.80359
2.81164
2.77713
2.66728
2.72273
2.71003
2.61562
2.62671
2.63594
2.65195
2.69595
2.46739
2.70761
2.58142
2.49679
2.54972
2.85433
2.75416
2.80559
2.83331
2.81968
2.68335
2.75671
2.73045
2.86537
2.8075
2.84631
2.84728
2.8139
2.6474
2.61904
2.6693
2.69593
2.75381
2.68661
2.76093
2.71951
2.65674
2.61704
2.74468
2.65818
2.74223
2.72869
2.80659
2.76072
2.67502
2.61102
2.87477
2.72696
2.81201
2.85065
2.82337
2.49889
2.55735
2.53142
2.5553
2.62615
2.75265
2.67376
2.64894
