# vtk DataFile Version 4.2
vtk output
ASCII
DATASET POLYDATA
POINTS 642 double
-30.8892 18.9481 -81.6118
-29.834 18.9486 -81.6136
-30.7915 17.0286 -81.654
-29.9537 17.0494 -81.6527
-30.3631 17.4462 -80.9281
-30.3567 18.6086 -80.7582
-30.3667 17.4387 -82.397
-30.3613 18.4958 -82.3844
-29.6934 17.9959 -82.0784
-29.654 18.0346 -81.1667
-31.0373 17.9861 -82.087
-31.0808 18.0279 -81.1682
-31.0827 18.5421 -81.3266
-30.813 18.3548 -80.8699
-30.6922 18.9608 -81.0691
-30.0288 18.958 -81.0669
-30.3607 19.174 -81.6156
-30.071 18.8571 -82.1038
-30.6505 18.8584 -82.104
-30.7558 18.2836 -82.3439
-31.0452 18.5155 -81.8852
-31.18 18.0068 -81.6111
-29.9066 18.3591 -80.8631
-29.6434 18.5392 -81.3259
-30.7783 17.6949 -80.9431
-30.3605 18.0451 -80.7341
-30.9915 17.4264 -81.8922
-31.0133 17.4484 -81.3882
-30.3662 17.9643 -82.5269
-30.7424 17.6554 -82.3512
-29.682 18.5155 -81.8838
-29.9706 18.2897 -82.3369
-29.7199 17.461 -81.3846
-29.9478 17.7006 -80.9438
-30.1236 17.0976 -81.2516
-30.6092 17.087 -81.2555
-30.3701 16.8373 -81.6398
-30.6184 17.0984 -82.0488
-30.1232 17.1081 -82.0462
-29.9926 17.6611 -82.3439
-29.7445 17.4443 -81.8877
-29.5515 18.0155 -81.6146
-31.0181 18.7863 -81.4628
-30.9532 18.7849 -81.1804
-30.8293 19.0003 -81.3559
-30.9828 18.1856 -81.0154
-30.9972 18.4768 -81.0648
-31.1049 18.2735 -81.2234
-30.5119 18.8033 -80.8568
-30.784 18.6768 -80.9199
-30.5859 18.5085 -80.7702
-30.541 19.1325 -81.3178
-30.6757 19.1034 -81.6159
-30.2039 18.8036 -80.8534
-30.3595 19.0225 -81.0274
-30.0467 19.1013 -81.6157
-30.1806 19.1333 -81.3172
-29.8948 18.9979 -81.3555
-30.53 19.0728 -81.8972
-30.7971 18.9525 -81.8585
-29.9249 18.9491 -81.8591
-30.1918 19.0725 -81.8976
-30.4877 18.6781 -82.2721
-30.3605 18.9075 -82.1375
-30.2337 18.6782 -82.2715
-30.8782 18.7126 -82.0066
-30.9805 18.7574 -81.7466
-30.5504 18.4097 -82.3963
-30.7168 18.5832 -82.2383
-31.0639 18.2431 -82.0054
-30.9281 18.4242 -82.1391
-30.9294 18.1313 -82.2265
-31.0996 18.5555 -81.6035
-31.1312 17.9983 -81.8757
-31.1486 18.2796 -81.7519
-31.1613 18.2892 -81.4649
-31.1589 18.0164 -81.3646
-29.7737 18.7807 -81.1779
-29.7065 18.7835 -81.464
-30.1293 18.512 -80.7664
-29.9376 18.6758 -80.9159
-29.6264 18.2761 -81.2233
-29.7392 18.4732 -81.0683
-29.7477 18.1889 -81.015
-30.5885 18.2059 -80.7535
-30.3586 18.3462 -80.7082
-30.9657 17.8748 -81.0414
-30.8117 18.0386 -80.8746
-30.3616 17.7252 -80.8096
-30.581 17.8703 -80.7977
-30.5603 17.542 -80.907
-31.1334 17.7259 -81.4888
-31.0794 17.7622 -81.2563
-31.0417 17.7275 -82.0165
-31.1173 17.7073 -81.7644
-30.9039 17.1884 -81.5366
-31.0286 17.4029 -81.6436
-30.8997 17.1847 -81.7667
-30.7593 17.9677 -82.3862
-30.9181 17.8217 -82.2324
-30.3636 18.2432 -82.4813
-30.5553 18.1166 -82.4791
-30.5447 17.5238 -82.4046
-30.5533 17.8118 -82.4773
-30.3668 17.6848 -82.4778
-30.0056 18.5838 -82.2365
-30.1729 18.4126 -82.3941
-29.7432 18.7546 -81.7499
-29.8459 18.7099 -82.0048
-29.8 18.14 -82.2177
-29.7986 18.4269 -82.1343
-29.6651 18.2487 -82.0001
-29.8346 17.205 -81.5346
-29.896 17.2441 -81.3043
-30.0159 17.0301 -81.4644
-29.7665 17.8811 -81.0411
-29.8022 17.5571 -81.1454
-29.6578 17.7677 -81.2559
-30.2467 17.2544 -81.0622
-30.0166 17.3696 -81.071
-30.1646 17.5459 -80.9071
-30.2337 16.8992 -81.4282
-30.1127 16.8983 -81.648
-30.4842 17.2489 -81.065
-30.3704 17.044 -81.235
-30.6255 16.8865 -81.6458
-30.5066 16.896 -81.4282
-30.7209 17.012 -81.4606
-30.2261 16.9176 -81.8596
-30.0145 17.0336 -81.8321
-30.7313 17.0153 -81.8408
-30.5144 16.9108 -81.8621
-30.2515 17.2638 -82.2703
-30.3698 17.0599 -82.0764
-30.4847 17.2592 -82.2717
-29.9179 17.2362 -81.9786
-29.8452 17.2006 -81.7587
-30.1903 17.5266 -82.3994
-30.0437 17.3653 -82.2353
-29.6898 17.7412 -82.0097
-29.8378 17.5371 -82.1409
-29.8136 17.8313 -82.2233
-29.7058 17.4177 -81.637
-29.6 18.0078 -81.8715
-29.6147 17.723 -81.7612
-29.6005 17.7332 -81.4891
-29.5761 18.0252 -81.3646
-30.141 17.8725 -80.7994
-29.9122 18.0429 -80.8755
-30.1309 18.2091 -80.7565
-30.8344 17.2274 -81.3071
-30.7111 17.3585 -81.0733
-30.9297 17.5477 -81.1458
-30.6951 17.3556 -82.2388
-30.8236 17.2215 -81.9841
-30.8974 17.5244 -82.1466
-29.9709 17.9745 -82.3778
-30.1796 17.8134 -82.4729
-30.1734 18.1209 -82.4748
-29.5681 18.2929 -81.4666
-29.5806 18.2834 -81.7515
-29.6264 18.5527 -81.6071
-30.9538 18.884 -81.5436
-30.9401 18.9013 -81.4043
-30.8697 18.9793 -81.5011
-31.0292 18.6629 -81.2563
-30.9986 18.7923 -81.3203
-31.0536 18.668 -81.391
-30.7693 18.9966 -81.2085
-30.8986 18.9048 -81.257
-30.8344 18.8864 -81.1173
-31.0425 18.0992 -81.0983
-31.0527 18.2364 -81.1129
-31.0957 18.1369 -81.1887
-30.9086 18.4184 -80.96
-30.9885 18.3308 -81.0342
-30.9059 18.2704 -80.9395
-31.1001 18.4093 -81.27
-31.056 18.379 -81.1477
-31.0489 18.5155 -81.1955
-30.423 18.6988 -80.7917
-30.5572 18.6594 -80.8045
-30.4596 18.5691 -80.7545
-30.7461 18.8306 -80.981
-30.6555 18.7535 -80.8806
-30.6033 18.894 -80.9495
-30.7027 18.4346 -80.816
-30.6896 18.5949 -80.8343
-30.8066 18.5155 -80.8813
-30.9844 18.6342 -81.1136
-30.9059 18.5828 -80.9842
-30.8802 18.7449 -81.0382
-30.7547 19.0663 -81.4792
-30.8047 19.026 -81.6143
-30.6237 19.0618 -81.1818
-30.6937 19.0798 -81.3274
-30.5254 19.1552 -81.616
-30.6099 19.134 -81.4689
-30.4506 19.1723 -81.467
-30.2909 18.6998 -80.7891
-30.3577 18.8187 -80.846
-30.1869 19.0056 -81.0367
-30.2741 18.9265 -80.9293
-30.1151 18.893 -80.9461
-30.4434 18.9268 -80.9306
-30.5327 19.0064 -81.0382
-29.9181 19.0248 -81.6149
-29.9684 19.0648 -81.4795
-29.8538 18.9792 -81.5018
-30.2703 19.1722 -81.4667
-30.1119 19.1332 -81.4691
-30.1963 19.1545 -81.6156
-29.9535 18.9927 -81.2078
-30.029 19.0784 -81.3274
-30.0978 19.06 -81.1812
-30.4515 19.0969 -81.1627
-30.2689 19.0967 -81.1623
-30.3603 19.1543 -81.3113
-30.7416 19.0411 -81.7471
-30.8528 18.9593 -81.7218
-30.4487 19.1392 -81.7617
-30.602 19.1042 -81.7587
-30.7298 18.9201 -81.9882
-30.6724 19.0243 -81.8862
-30.5992 18.9779 -82.0126
-29.8692 18.9577 -81.7232
-29.9805 19.0389 -81.7473
-30.1222 18.9774 -82.0135
-30.0494 19.0227 -81.8868
-29.9919 18.9179 -81.9884
-30.1199 19.1033 -81.7588
-30.2731 19.1389 -81.7617
-30.4154 18.5797 -82.3399
-30.3606 18.689 -82.277
-30.3065 18.5799 -82.3395
-30.5116 18.895 -82.1293
-30.4315 18.7955 -82.206
-30.5655 18.7715 -82.1944
-30.1558 18.7714 -82.1941
-30.2894 18.7957 -82.2059
-30.2094 18.8962 -82.1301
-30.3608 19.0917 -81.9034
-30.2778 19.0081 -82.0304
-30.4435 19.008 -82.03
-30.8965 18.8575 -81.807
-30.9392 18.8706 -81.6744
-30.7747 18.7989 -82.0633
-30.8442 18.8396 -81.9432
-31.0173 18.641 -81.817
-30.9367 18.7398 -81.8816
-30.9701 18.6181 -81.9471
-30.4459 18.4606 -82.3961
-30.5258 18.5498 -82.3384
-30.7409 18.4365 -82.2979
-30.6368 18.499 -82.3242
-30.6539 18.3511 -82.3795
-30.6067 18.6406 -82.2605
-30.685 18.7222 -82.1719
-31.0543 18.1008 -82.0547
-31.0024 18.1942 -82.1222
-30.9951 18.051 -82.1524
-30.9945 18.4764 -82.0158
-31.0036 18.3403 -82.0737
-31.0613 18.3818 -81.9488
-30.8492 18.2092 -82.291
-30.9322 18.2814 -82.1912
-30.8475 18.3583 -82.2498
-30.8025 18.6567 -82.1302
-30.8294 18.5103 -82.1957
-30.908 18.5723 -82.0764
-31.0127 18.778 -81.6062
-31.0813 18.5423 -81.7474
-31.0492 18.6588 -81.6765
-31.0618 18.6682 -81.531
-31.0992 18.5558 -81.4614
-31.0845 17.9914 -81.9981
-31.1069 18.1264 -81.9403
-31.1742 18.1441 -81.6814
-31.1494 18.1399 -81.8115
-31.1641 18.0037 -81.7449
-31.1138 18.2691 -81.8809
-31.1049 18.4037 -81.8207
-31.1389 18.1498 -81.2946
-31.1218 18.023 -81.2525
-31.1275 18.4209 -81.3935
-31.1405 18.2885 -81.3414
-31.1776 18.0107 -81.4835
-31.1679 18.151 -81.4143
-31.1801 18.1471 -81.5382
-31.1316 18.4226 -81.6784
-31.1653 18.2884 -81.6072
-31.1387 18.4284 -81.532
-29.7852 18.8992 -81.4038
-29.7702 18.8824 -81.546
-29.8896 18.8824 -81.1149
-29.827 18.901 -81.2553
-29.671 18.6646 -81.3907
-29.7273 18.7892 -81.3184
-29.6927 18.6617 -81.2522
-30.2542 18.5709 -80.7517
-30.1574 18.6628 -80.7984
-29.915 18.5177 -80.8763
-30.0278 18.5972 -80.8288
-30.0111 18.4414 -80.8026
-30.0623 18.7531 -80.876
-29.9751 18.8279 -80.9778
-29.6371 18.1429 -81.1875
-29.6796 18.2393 -81.1127
-29.6896 18.1043 -81.0967
-29.6797 18.5131 -81.1942
-29.6756 18.3784 -81.1477
-29.6287 18.4084 -81.2697
-29.8202 18.2732 -80.9379
-29.7422 18.3318 -81.0339
-29.8183 18.4195 -80.9578
-29.8449 18.7421 -81.0349
-29.8209 18.5817 -80.9815
-29.7432 18.6316 -81.1108
-30.4733 18.4266 -80.7251
-30.3572 18.4943 -80.7273
-30.704 18.2837 -80.8038
-30.5913 18.3545 -80.7596
-30.3598 18.1967 -80.7183
-30.4759 18.2744 -80.7137
-30.472 18.1262 -80.731
-31.0361 17.9617 -81.1087
-30.9763 18.0346 -81.0195
-30.8002 17.8693 -80.8998
-30.8935 17.9539 -80.9511
-30.8792 17.7846 -80.9851
-30.9018 18.1176 -80.9365
-30.8159 18.1993 -80.8665
-30.3622 17.566 -80.8715
-30.4646 17.6347 -80.85
-30.4502 17.4838 -80.9131
-30.4704 17.9596 -80.7558
-30.47 17.8004 -80.7927
-30.3611 17.8868 -80.7637
-30.6701 17.6125 -80.9167
-30.5762 17.706 -80.8469
-30.6853 17.7797 -80.8624
-30.7058 18.1236 -80.8055
-30.6997 17.9543 -80.8245
-30.5866 18.042 -80.7677
-31.1287 17.8887 -81.3106
-31.0866 17.9127 -81.204
-31.1671 17.8696 -81.5464
-31.1568 17.8758 -81.4277
-31.0535 17.6048 -81.3174
-31.115 17.7373 -81.3712
-31.0793 17.5817 -81.4359
-31.0446 17.8733 -82.0603
-31.0946 17.8593 -81.9479
-31.0594 17.5572 -81.8351
-31.0859 17.7087 -81.8934
-31.0251 17.576 -81.9598
-31.1346 17.8577 -81.8183
-31.1586 17.8632 -81.6864
-30.8422 17.0921 -81.6034
-30.9105 17.1809 -81.6537
-30.8443 17.0907 -81.7058
-31.0282 17.4179 -81.5152
-30.9737 17.2907 -81.5878
-30.9625 17.3067 -81.4641
-30.9469 17.2955 -81.8265
-30.9687 17.2864 -81.7105
-31.0149 17.4049 -81.7684
-31.1337 17.7122 -81.6236
-31.0798 17.5479 -81.7021
-31.0872 17.5582 -81.5671
-30.926 17.9764 -82.2399
-30.9896 17.9122 -82.1556
-30.7605 18.126 -82.3734
-30.8477 18.0519 -82.3148
-30.8353 17.7356 -82.2984
-30.8429 17.8911 -82.3175
-30.7543 17.81 -82.3772
-30.3622 18.3857 -82.4323
-30.4572 18.3235 -82.4495
-30.4584 18.0385 -82.5131
-30.4595 18.1766 -82.491
-30.3651 18.1027 -82.5118
-30.5578 18.2621 -82.4457
-30.6557 18.2008 -82.4207
-30.4458 17.4727 -82.4068
[...]
POINT_DATA 642
SCALARS Mean_Curvature double 1
LOOKUP_TABLE default
0.355072
2.76636
2.26082
2.19128
1.90886
1.06318
2.38538
2.0363
1.65476
1.70582
1.66479
1.8398
1.84111
2.16906
2.88486
2.85471
2.59631
1.2564
1.36148
1.89721
1.73441
1.6841
2.11308
1.88334
1.53647
1.88222
1.7127
1.81391
2.74467
1.94382
1.75873
1.81886
1.97905
1.60769
2.03828
2.03511
2.51768
1.66293
1.6218
1.88045
1.63312
1.76346
1.7035
3.04146
2.2597
1.96067
1.75771
1.96387
2.55309
1.33881
1.56748
1.91875
2.40244
2.5264
2.63395
2.18727
2.49827
2.20721
2.33573
2.9267
2.59958
2.4084
1.77575
1.043
1.76699
1.88989
1.73452
1.87724
1.88879
1.58178
1.8147
1.66373
1.86979
1.4813
1.72283
1.68236
2.04411
2.46876
1.37963
1.45296
0.907362
1.96745
1.95502
1.89676
2.00605
1.85611
1.67368
1.78661
1.72176
1.80939
1.78826
1.72923
1.8115
1.5728
1.45243
2.09999
1.78067
2.44155
1.77332
1.65496
2.10757
2.26681
2.25705
1.96643
1.96459
1.95268
2.01262
1.77392
1.99713
1.6366
1.87535
1.64462
1.99538
1.93715
2.0436
1.69788
1.90271
1.74982
1.84904
1.92039
1.81011
4.27581
4.56407
1.83879
1.98804
4.37236
3.57204
2.26819
3.05564
2.58916
2.92288
2.93373
2.39338
1.49205
2.37292
1.59992
2.07802
2.22964
1.90319
1.68624
1.72527
1.62867
1.87781
1.56602
1.45606
1.7902
1.78929
1.78948
1.85074
1.94001
1.89536
1.86833
1.81621
2.0302
1.64817
1.74468
1.70354
1.93726
2.26858
1.72579
1.84018
1.90839
1.5649
2.91131
2.35406
1.67635
3.03533
1.72511
2.84826
2.46105
2.72401
1.76286
2.09113
1.75561
1.79161
1.88067
1.88091
1.89812
1.99529
1.8584
2.64052
0.885805
1.24929
2.54074
2.59263
2.7623
1.75669
1.40705
1.78743
1.59604
1.54064
2.92961
2.1229
2.56248
2.80634
2.55835
2.55275
1.92315
2.50266
2.91745
2.39925
2.74859
2.78689
2.9313
2.7944
2.73685
2.39198
2.04778
2.52291
2.53352
1.94941
2.54977
2.49442
2.5444
2.60812
2.50682
2.51664
2.46128
2.53849
3.06083
2.03584
2.29639
2.64145
2.60847
2.91766
2.93086
2.3941
2.88084
2.57825
2.84117
2.30013
2.02222
1.92503
1.71213
1.92657
1.75156
1.84824
2.01068
1.96274
1.80479
2.57512
2.76796
2.78187
2.82223
1.45548
1.09124
1.82973
1.57554
1.81575
1.8955
1.92932
1.95897
2.04783
1.82967
1.79396
1.93205
1.92147
1.86748
1.65797
1.61955
1.68838
1.77985
1.71742
1.7036
1.70713
1.85834
1.82926
1.89785
1.85187
1.92027
1.64895
1.91863
1.89439
1.87816
1.8067
1.66458
1.55826
1.72773
1.6824
1.57246
1.66212
1.75741
1.78891
1.88991
1.7708
1.77444
1.8029
1.73783
1.64552
1.78893
1.67673
1.74106
2.80503
0.685588
2.82761
2.4235
1.75577
3.05614
1.70426
1.19028
3.04102
1.68585
1.55437
1.72742
2.79861
2.61826
1.84611
1.93322
1.85487
1.89055
1.87027
1.94831
1.97447
1.87608
1.86978
3.12239
1.63677
1.38399
2.05959
1.45726
1.84753
1.84105
2.12322
2.21122
2.06434
1.69943
1.73609
1.73056
1.71626
1.6749
1.79166
1.9489
1.60162
1.53616
1.8452
1.74659
1.80284
1.75362
1.60007
1.59376
1.68431
1.85705
1.80051
1.7978
1.86785
1.81758
1.75015
1.90929
1.67307
1.91078
1.57458
1.61373
1.54949
1.51899
1.48537
1.73772
1.49016
1.44114
2.21397
2.2284
2.65634
1.72981
1.94194
1.99474
1.64363
2.1187
1.49835
1.46653
1.45688
1.46148
1.69818
1.67568
1.65339
1.68793
1.79909
1.72411
1.80094
1.89287
2.0288
2.53554
2.24884
2.36005
2.03761
1.74769
2.32724
2.11399
2.17393
1.93946
2.04959
2.02513
2.65588
1.99192
2.77255
1.91863
2.65177
1.86019
2.00163
1.97391
1.86013
1.88621
2.02801
1.85234
1.92142
1.37547
1.44102
1.81753
1.88563
1.82013
1.63201
1.89387
1.66303
1.63782
1.62197
1.82732
1.80118
1.6761
1.70843
1.74447
1.84109
1.88352
1.84335
1.92538
2.0992
2.00646
2.12738
2.07303
2.02894
2.07041
2.00803
1.93732
1.90957
1.67791
1.63105
1.76896
1.5879
1.60733
1.67594
1.47243
1.46058
2.0479
1.84339
1.95782
1.84899
1.89123
1.85942
1.84503
1.63739
1.92808
1.99741
2.07142
2.05726
1.97479
2.1378
2.66485
2.35412
2.06984
3.4968
4.12597
3.44822
1.83477
1.78824
1.97201
1.75144
1.82656
1.75298
2.14916
2.31937
2.76377
2.08024
3.60425
4.39621
3.24859
2.09243
2.57247
2.36282
2.25053
2.13421
4.48906
2.96756
2.5015
3.35847
4.22044
2.35904
2.93252
2.60513
2.61421
4.71625
2.52887
3.10033
2.76908
3.753
3.56586
2.25848
2.3251
2.24644
1.56286
2.20562
2.18249
2.09496
2.1931
1.54424
2.85083
2.37184
2.39802
2.27766
2.28463
1.56103
2.00503
1.67906
1.77044
1.65816
2.33133
2.46171
1.9255
2.1678
1.94543
2.28682
2.01954
1.61045
1.62446
1.66049
1.73996
1.69604
1.69326
1.7134
1.69447
1.77822
1.90817
1.86702
1.78538
2.12629
1.54077
2.02716
2.05429
1.79507
1.62594
1.6018
1.63307
1.46318
1.51677
1.54173
1.52823
1.82832
1.78361
1.48747
1.80771
1.75291
1.79039
1.84057
1.45065
1.64647
1.48525
1.5484
1.71147
1.62106
1.74872
1.7492
1.81951
2.09172
1.88004
1.75756
1.76017
2.3148
1.97747
2.233
1.82395
1.87708
1.81386
1.86324
1.78912
1.92771
1.92584
1.93641
1.93347
2.08524
1.92915
1.99929
1.98788
1.8297
1.86013
1.77066
1.99329
1.67381
1.6
1.47865
1.9241
2.04918
2.0332
2.28454
1.91204
2.24924
2.18727
2.03584
2.62471
1.70748
1.98271
2.32456
1.60681
1.6507
1.85695
1.71438
1.67919
1.67982
1.8281
1.7358
1.94876
1.67478
1.80649
1.66965
1.66176
1.64208
2.11515
2.60898
1.93351
1.95967
1.90609
1.9617
1.75139
1.98368
2.29962
2.46015
1.86258
2.31483
1.87607
1.74971
1.71462
1.72469
1.8288
1.81297
1.61247
1.81275
1.67697
1.62181
1.77604
1.68097
1.84302
1.9056
2.05446
1.82775
1.73397
1.81081
1.78193
SCALARS CoVolArea double 1
LOOKUP_TABLE default
0.0111116
0.011165
0.00829513
0.00767792
0.0110732
0.010927
0.00894842
0.00978834
0.0106662
0.0100842
0.0108493
0.0101702
0.0192659
0.020974
0.0248495
0.024761
0.0262079
0.020842
0.0208403
0.0208373
0.0201017
0.0211776
0.0204305
0.019341
0.0230885
0.019927
0.0208578
0.0215811
0.0155042
0.0198075
0.0193849
0.0203584
0.0207432
0.0225221
0.0189768
0.0181027
0.019262
0.0187629
0.0190158
0.0197949
0.0213898
0.0209636
0.0190549
0.0234223
0.0221904
0.0184596
0.0213877
0.0180224
0.0220354
0.0238343
0.0199649
0.0272314
0.0228126
0.0217939
0.0264817
0.0227236
0.0272134
0.0221486
0.0244348
0.0201332
0.0201015
0.0244855
0.0182344
0.0223034
0.0181683
0.0207684
0.0187571
0.0181726
0.0206973
0.0194176
0.0211239
0.0194605
0.0200938
0.0206898
0.0215552
0.0208098
0.0183138
0.0232194
0.0195307
0.0195277
0.0230843
0.0176108
0.0210037
0.0179532
0.0210409
0.0186927
0.0203176
0.0218532
0.0205042
0.0225435
0.0206982
0.0222967
0.0200456
0.020799
0.0241784
0.017027
0.0207578
0.0155083
0.0205411
0.0193992
0.0164392
0.0182295
0.016824
0.0179155
0.0157186
0.0203578
0.0180044
0.0184563
0.0203181
0.0191659
0.0205107
0.0188157
0.0166989
0.0212666
0.0160812
0.0197645
0.0223643
0.0198926
0.0193562
0.0225146
0.0204422
0.0184034
0.0160352
0.0191829
0.0181692
0.0164026
0.0172602
0.015796
0.019257
0.0146253
0.0151723
0.0193734
0.0184806
0.0210674
0.0187619
0.0200099
0.0151835
0.0164867
0.0211258
0.0202217
0.0223248
0.0193833
0.0209586
0.0199184
0.0233897
0.0221132
0.0187128
0.0225505
0.0213194
0.0209283
0.0213587
0.022932
0.023232
0.0214378
0.0195483
0.022416
0.0207634
0.018172
0.0184592
0.020269
0.0206826
0.0198266
0.0163496
0.0202335
0.0175725
0.0211057
0.0206768
0.0189266
0.023637
0.0224068
0.0245923
0.0152387
0.0178025
0.0150253
0.021471
0.0193094
0.0194862
0.0184504
0.018912
0.0203927
0.0173418
0.0204707
0.0165416
0.0246613
0.0226047
0.0235679
0.0205456
0.0214609
0.0223334
0.0239855
0.0244514
0.02579
0.0221808
0.0178352
0.0260627
0.0241968
0.0247469
0.0247213
0.0271439
0.0172299
0.0215936
0.0259064
0.0237877
0.0233986
0.0238261
0.0259
0.0177118
0.0220527
0.017622
0.0270973
0.0246488
0.0247145
0.023573
0.0242152
0.0261179
0.0291332
0.0291119
0.0297308
0.0208802
0.0168481
0.0257678
0.0232908
0.0205207
0.0217098
0.0226654
0.0167934
0.0209053
0.0227065
0.0218127
0.0205172
0.0233627
0.0257846
0.0149351
0.0179044
0.0148928
0.0217891
0.0194795
0.0192814
0.0192617
0.0194942
0.0218269
0.0267534
0.0253313
0.0253391
0.0189805
0.0160882
0.0208269
0.0198203
0.0191473
0.0193475
0.0204614
0.014842
0.0177579
0.0209411
0.0191336
0.0193923
0.0189232
0.0204652
0.0163442
0.0189913
0.0161903
0.0206304
0.0197387
0.0195909
0.0201253
0.0199477
0.0212191
0.0222845
0.0225611
0.022332
0.0183021
0.0202932
0.0189017
0.0186479
0.0195259
0.0168064
0.0195648
0.0217916
0.0206947
0.0212251
0.0200845
0.0207455
0.0178512
0.0152571
0.0196583
0.0187803
0.0192424
0.0191966
0.0211918
0.0223046
0.0229628
0.0218543
0.0204903
0.0166903
0.0242825
0.0223123
0.0192762
0.0209004
0.0211946
0.0163683
0.0201003
0.0215752
0.0207783
0.0199526
0.0221072
0.0242271
0.0147765
0.0173824
0.0149068
0.0203012
0.0185679
0.0182094
0.0189595
0.0188238
0.0208958
0.0252388
0.0238056
0.0236975
0.0188466
0.016009
0.021232
0.0199395
0.0187777
0.0192025
0.0202976
0.0160275
0.0186962
0.0228663
0.0206704
0.0218152
0.0196079
0.0210114
0.017067
0.0203235
0.0169086
0.0210891
0.0209949
0.020172
0.02184
0.0216542
0.0231996
0.0230892
0.0240559
0.0230193
0.0185119
0.0159674
0.0215099
0.019391
0.0211678
0.0204712
0.0224073
0.0167673
0.0205929
0.0228625
0.0223723
0.0216253
0.0222811
0.0230031
0.0130658
0.015687
0.0125446
0.0213734
0.0181082
0.0193156
0.0174577
0.0172401
0.0204087
0.0249667
0.0244034
0.0242612
0.0190645
0.0162886
0.0208707
0.0200103
0.0195968
0.019775
0.0202196
0.0145429
0.0169786
0.0163829
0.0165663
0.0155356
0.0181817
0.0201328
0.0136264
0.0157864
0.0132455
0.019232
0.017137
0.0181354
0.0153439
0.0161219
0.0163015
0.0207624
0.0188035
0.0205217
0.0176142
0.0147858
0.0202978
0.018767
0.0190386
0.0188229
0.020399
0.0161295
0.018757
0.0198286
0.0188691
0.0185166
0.0195788
0.0206356
0.0159657
0.0185137
0.0159179
0.0205768
0.0193877
0.0197186
0.0189772
0.0191599
0.0200143
0.0218893
0.0217554
0.0220003
0.0124291
0.0159414
0.0124366
0.021096
0.018609
0.0189443
0.0173919
0.0180433
0.0203362
0.0157434
0.0196059
0.0160169
0.0226341
0.0211229
0.0211837
0.0204252
0.0207795
0.0215788
0.0165068
0.0196583
0.0168009
0.0212402
0.0205441
0.0191054
0.0214447
0.0210228
0.022604
0.0236791
0.024183
0.0237095
0.0154044
0.0121229
0.0182004
0.0168837
0.0179437
0.0172559
0.0186483
0.0165294
0.0186488
0.0177382
0.0180959
0.0185271
0.0184291
0.0186158
0.0129249
0.0154199
0.0128972
0.0181688
0.0166092
0.0178445
0.0166098
0.0159904
0.0170239
0.0193571
0.0186532
0.0192
0.0146851
0.0115894
0.019921
0.017222
0.0163785
0.0162443
0.0185801
0.0124755
0.0155093
0.0185626
0.0165695
0.0163615
0.0175397
0.0199823
0.0143466
0.018367
0.0144989
0.0202336
0.0199551
0.0194808
0.0195196
0.0200063
0.020146
0.0216733
0.021569
0.0215567
0.014135
0.0117702
0.0193044
0.0161019
0.0178879
0.0166068
0.0206917
0.0134266
0.0168236
0.020288
0.018165
0.0179168
0.0190771
0.0207402
0.0164003
0.0192633
0.0161338
0.0224214
0.0208385
0.0213954
0.0196813
0.0201839
0.0210716
0.0231189
0.0234912
0.0238234
0.0151934
0.0210162
0.0173727
0.0179842
0.0209497
0.016331
0.0198965
0.0222094
0.0213494
0.0204373
0.0216473
0.0229162
0.018855
0.0153432
0.0217483
0.0204095
0.019713
0.0199266
0.0215446
0.0243799
0.0243271
0.0238728
0.0202369
0.0229011
0.0215044
0.0210146
0.0211874
0.0181448
0.0205258
0.0190136
0.0200262
0.0223371
0.0186709
0.0203428
0.0191576
0.0196486
0.0208654
0.0238076
0.0227981
0.0230355
0.0160813
0.0198875
0.017697
0.0186971
0.0216807
0.0198309
0.0232288
0.0214218
0.0205785
0.0209822
0.0199208
0.0225234
0.0214725
0.0217662
0.0233665
0.0239801
0.0249466
0.0244184
0.0172459
0.0206628
0.019478
0.0186379
0.020559
0.0146786
0.0201339
0.0164759
0.0160997
0.0189376
0.0195307
0.0211279
0.020251
0.0211378
0.0222753
0.0228922
0.0235404
0.0236154
0.0189988
0.0203962
0.01988
0.019968
0.0208118
0.0156724
0.0164856
0.0162045
0.0170961
0.0193516
0.0169877
0.0200697
0.0181683
0.0166851
0.0165646
0.0208642
0.0191455
0.0210591
0.0176398
0.0208948
0.0191024
0.01833
0.0193905
0.018866
0.0199949
0.0193638
0.0198399
0.0210309
0.0184904
0.0195944
0.0189096
0.0186354
0.0196107
0.0221567
0.0215601
0.0214001
SCALARS SignedDistance double 1
LOOKUP_TABLE default
1.00636
1.00479
1
1.03578
1.13103
1.00089
1.00347
1.06787
1.19026
1.15572
1.17573
1.11167
1.052
1.00505
1.00823
1.0099
1
1.00726
1.00699
1.15956
1.10938
1.21933
1.00577
1.04287
1.21164
1.08248
1.21863
1.2084
1
1.08073
1.13211
1.16596
1.2038
1.18883
1.06663
1.06702
1.20171
1.20388
1.22268
1.12316
1.25998
1.21136
1.0227
1.00691
1.02008
1.07615
1.00637
1.08184
1.00626
1.00001
1.00234
1.04195
1.02689
1.0299
1.01837
1.02849
1.03499
1.01111
1.01583
1.00205
1.00452
1.01648
1.02882
1.00277
1.02856
1.00947
1.02657
1.11464
1.06307
1.19428
1.11228
1.15155
1.0745
1.25745
1.15202
1.1456
1.11232
1.00476
1.01751
1.00621
1.00262
1.07351
1.00639
1.08359
1.01943
1.02287
1.15156
1.08783
1.1617
1.11617
1.15344
1.23328
1.13372
1.22606
1.26556
1.09215
1.24892
1.1584
1.14646
1.1682
1.03075
1.10881
1.01578
1.09249
1.09666
1.04963
1.09073
1.02503
1.0325
1.17376
1.10791
1.18354
1.07632
1.03444
1.03265
1.16713
1.23339
1.20861
1.06544
1.05021
1.152
1.03125
1.01298
1.06733
1.09098
1.06691
1.03048
1.02797
1.01964
1.12062
1.0762
1.02015
1.01958
1.20816
1.02351
1.24127
1.18455
1.04155
1.08307
1.22424
1.14748
1.19124
1.23315
1.24784
1.27687
1.20759
1.12702
1.11528
1.09347
1.04424
1.04711
1.05552
1.22567
1.0607
1.21075
1.14113
1.16122
1.09006
1.10958
1.13406
1.16809
1.06618
1.00131
1.02429
1.0024
1.0148
1.02151
1.01443
1.01665
1.01132
1.01116
1.13406
1.06436
1.12126
1.00306
1.0166
1.0276
1.07442
1.02354
1.01098
1.00314
1.01044
1.01235
1.00151
1.0054
1.00551
1.00074
1.00783
1.00266
1.00221
1.00625
1.00844
1.01153
1.00273
1.02997
1.02656
1.01809
1.0358
1.00158
1.00219
1.03392
1.0243
1.01793
1.00275
1.01833
1.03119
1.00368
1.01427
1.0018
1.00112
1.03662
1.01864
1.02083
1.01602
1.01849
1.05359
1.05353
1.01908
1.00109
1.00003
1.03342
1.03663
1.00391
1.00291
1.01377
1.00149
1.00185
1.00092
1.00263
1.00356
1.01171
1.03286
1.01909
1.0405
1.01867
1.00499
1.00989
1.00027
1.00019
1.01033
1.00327
1.02571
1.00789
1.00842
1.0023
1.00846
1.00024
1.00076
1.0662
1.03585
1.077
1.0794
1.04263
1.07992
1.09448
1.14207
1.03957
1.00025
1.17882
1.18243
1.16215
1.12336
1.16378
1.15786
1.15794
1.12924
1.08497
1.03079
1.0609
1.07074
1.0075
1.07808
1.01542
1.02543
1.0723
1.21099
1.22989
1.18513
1.22059
1.25405
1.19307
1.13856
1.1233
1.07608
1.10619
1.12194
1.16731
1.15112
1.1707
1.11304
1.15059
1.11965
1.00109
1.0053
1.01628
1.01701
1.0056
1.01576
1.00925
1.0206
1.00111
1.00226
1.01059
1.0014
1.03189
1.01388
1.12803
1.07707
1.13347
1.00074
1.0288
1.0639
1.02278
1.05807
1.00181
1.00865
1.00866
1.00215
1.00751
1.00145
1.02044
1.0028
1.02653
1.00203
1.05256
1.13262
1.12465
1.13901
1.11691
1.17812
1.08213
1.04731
1.18717
1.19351
1.14686
1.08946
1.1339
1.09427
1.20093
1.18503
1.17138
1.04005
1.09475
1.07423
1.10754
1.09636
1.23327
1.16794
1.21126
1.16831
1.2526
1.2006
1.22694
1.25653
1.24575
1.22102
1.26506
1.27761
1.02522
1.10248
1.03631
1.22618
1.16884
1.15487
1.24392
1.19849
1.2502
1.26327
1.27279
1.2699
1.14345
1.1744
1.17059
1.14657
1.14263
1.14762
1.11802
1.08968
1.082
1.01937
1.05394
1.00109
1.13511
1.17678
1.01597
1.06724
1.0515
1.09692
1.06284
1.05946
1.06882
1.10052
1.03184
1.15017
1.07033
1.11329
1.03642
1.07849
1.00035
1.03465
1.15616
1.06988
1.10112
1.00256
1.0032
1.0761
1.03039
1.07199
1.00268
1.00029
1.178
1.18261
1.19431
1.11565
1.14755
1.17766
1.16434
1.15419
1.1172
1.03081
1.06989
1.05514
1.06418
1.0464
1.02677
1.10808
1.04593
1.13862
1.02072
1.05167
1.04107
1.16536
1.20377
1.16177
1.23082
1.22997
1.17965
1.2674
1.26613
1.21492
1.07373
1.07866
1.14701
1.05856
1.04851
1.07085
1.18369
1.07915
1.1517
1.11382
1.12574
1.01467
1.00296
1.01215
1.00188
1.00324
1.11053
1.01284
1.12601
1.07292
1.07762
1.08424
1.10023
1.07565
1.09936
1.08657
1
1.00552
1.01481
1.13456
1.05743
1.17285
1.01292
1.00347
1.03524
1.00425
1.03059
1.03587
1.01488
1.06733
1.07728
1.01915
1.19063
1.0708
1.15201
1.01863
1.00121
1.12537
1.01559
1.14403
1.07294
1.09935
1.00425
1.03324
1.00358
1.20047
1.139
1.13581
1.14765
1.14142
1.20107
1.02379
1.13841
1.13715
1.15891
1.10146
1.23721
1.21875
1.26125
1.23788
1.24752
1.01432
1.0067
1.09896
1.05262
1.07977
1.05452
1.15963
1.21225
1.19595
1.18928
1.19056
1.16448
1.21918
1.17138
1.16973
1.14445
1.16593
1.10558
1.17053
1.11946
1.27991
1.20773
1.14898
1.20967
1.20087
1.24743
1.24796
1.26653
1.26047
1.26868
1.26239
1.13035
1.12902
1.2696
1.19055
1.15027
1.13622
1.17291
1.28232
1.24988
1.28794
1.18958
1.14666
1.16748
1.1353
1.09206
1.12682
1.04138
1.07569
1.12328
1.13396
1.00178
1.05279
1.00912
1.00139
1.02254
1.08771
1.03759
1.07409
1.04237
1.05183
1.04075
1.06595
1.12198
1.07736
1.1745
1.09423
1.05697
1.06567
1.15559
1.2002
1.2147
1.21725
1.23742
1.01656
1.12716
1.09073
1.0028
1.14241
1.06395
1.01015
1.06751
1.10574
1.20758
1.21584
1.18525
1.2101
1.18179
1.11727
1.1613
1.18147
1.16472
1.13259
1.14904
1.10625
1.16525
1.14591
1.17026
1.1675
1.18207
1.06477
1.0645
1.10245
1.08426
1.09582
1.08801
1.18034
1.1432
1.05422
1.021
1.14192
1.07799
1.15663
1.12897
1.16491
1.13957
1.11
1.09643
1.22177
1.14075
1.20156
1.23837
1.20289
1.00855
1.06406
1.01769
1.03463
1.09741
1.13924
1.10289
1.11009
