# vtk DataFile Version 4.2
vtk output
ASCII
DATASET POLYDATA
POINTS 642 double
-80.6463 172.916 86.4273
139.947 173.031 85.3494
-77.6303 -214.29 80.6857
137.647 -213.815 80.8586
30.6619 -124.789 241.32
31.5104 104.833 264.754
30.5368 -127.041 -88.1397
31.0824 92.3357 -81.9453
178.143 -13.766 -11.6139
188.148 -4.60698 186.074
-118.506 -15.8393 -14.1932
-130.136 -6.01596 184.386
-136.234 96.5421 149.312
-70.9903 53.502 250.581
-36.2458 171.367 195.813
97.6444 170.467 195.816
30.5863 212.263 86.2933
93.7718 160.758 -18.7746
-32.9799 161.32 -18.7628
-59.5022 48.2284 -69.5051
-124.427 93.0002 26.4081
-152.074 -13.032 96.0132
131.565 54.4289 251.463
195.748 95.0678 148.909
-58.8256 -76.4895 231.965
29.424 -4.77787 285.808
-109.895 -135.445 32.1889
-115.702 -125.019 139.648
29.2558 -18.2905 -123.346
-57.9938 -84.4344 -74.1278
185.583 93.7128 27.079
120.388 50.565 -69.2809
176.771 -121.74 140.919
119.589 -76.5973 232.336
88.5696 -203.484 178.183
-28.8152 -207.443 179.679
29.8647 -250.987 87.4385
-33.4045 -203.82 -10.831
90.9166 -201.612 -8.75512
115.7 -84.4509 -71.9364
163.858 -128.379 32.0937
210.368 -12.7046 89.1266
-115.921 140.969 120.372
-95.2848 139.869 175.989
-63.9016 180.359 142.734
-107.222 24.124 222.826
-110.837 81.2032 204.922
-137.29 45.5542 171.921
-3.49699 144.017 238.008
-58.7192 118.624 230.681
-21.3063 83.2255 264.839
-5.76533 202.804 146.118
-29.3466 200.577 84.5787
65.3855 143.19 238.959
29.93 182.312 202.811
90.4518 200.621 85.3587
66.8567 202.867 145.619
123.873 180.289 142.821
-5.36642 197.241 27.7303
-60.0991 175.986 30.6576
121.221 174.876 30.7201
65.5205 197.006 27.6004
-2.15026 132.665 -56.8167
30.5176 170.177 -24.0783
63.0995 132.418 -57.0153
-86.7877 134.008 -1.33491
-109.813 137.678 54.3775
-15.9526 73.5988 -83.4096
-51.9331 110.709 -51.4918
-124.597 42.8993 4.56022
-97.676 77.4073 -27.2285
-94.4978 17.3035 -45.2237
-139.688 100.505 89.4814
-137.047 -9.64823 35.589
-145.025 46.8873 57.102
-147.545 49.1778 120.634
-151.878 -13.5449 136.092
154.778 139.488 176.915
174.157 138.967 120.907
83.8548 84.8148 266.17
120.066 118.655 232.947
197.861 45.8994 171.561
170.262 80.4397 205.731
167.06 24.7818 223.599
-20.1161 22.7916 280.561
30.974 45.9423 284.903
-100.216 -37.0977 214.38
-69.7686 -4.13578 252.129
30.0457 -62.8635 266.281
-17.1224 -35.9017 269.459
-17.4438 -107.098 243.874
-143.611 -62.4472 117.639
-129.284 -61.9401 162.607
-117.964 -68.0083 0.298286
-130.794 -71.8302 59.6061
-99.2965 -178.984 108.869
-123.997 -136.995 79.7949
-103.198 -179.669 51.4395
-57.7338 -19.1067 -84.2369
-91.9555 -51.2777 -47.1579
29.9665 31.0975 -111.153
-12.1332 7.25829 -109.448
-15.609 -109.336 -89.3267
-13.0449 -45.7266 -108.506
29.7164 -70.9288 -107.165
112.991 110.39 -51.6581
77.7486 74.524 -83.9096
170.819 137.186 52.7272
148.074 133.588 -1.29955
153.649 20.6458 -43.3524
157.878 77.4877 -27.1823
185.03 42.4998 4.61196
156.975 -177.984 105.579
137.259 -168.99 159.838
116.529 -215.769 132.2
159.206 -35.8944 215.553
155.306 -107.201 191.281
184.251 -65.4896 161.444
59.4348 -170.87 210.507
109.342 -140.311 211.826
78.4654 -107.308 243.812
62.1143 -241.472 138.536
91.5323 -242.531 81.7867
0.39754 -174.663 208.515
27.2748 -216.042 186.891
-30.0943 -242.622 84.0513
-5.34272 -245.312 139.56
-57.3045 -219.466 135.161
67.0567 -238.155 29.0784
119.352 -215.952 33.7864
-60.7384 -218.288 30.7453
-8.55876 -239.382 28.2058
59.8515 -159.998 -59.5909
29.5311 -209.58 -14.675
-0.406221 -160.991 -58.4734
138.576 -175.433 10.6525
160.185 -179.92 55.195
74.841 -109.791 -88.9193
104.062 -137.22 -54.2494
178.042 -67.4236 2.29421
149.039 -101.545 -29.4978
150.884 -50.1413 -44.2818
178.479 -134.86 84.1753
197.265 -7.35561 37.0543
192.489 -65.0872 60.7546
200.637 -64.4551 114.821
206.835 -9.40721 136.936
78.3682 -36.9879 268.079
131.772 -3.45347 252.189
81.7608 24.8751 279.499
-77.2971 -174.024 158.72
-48.5225 -142.255 210.694
-95.0006 -107.902 191.853
-46.1204 -139.465 -52.8271
-82.244 -177.624 7.98776
-90.4149 -103.416 -31.3587
116.822 -18.2752 -81.5642
71.5782 -46.0738 -106.529
71.5069 8.65465 -107.768
208.638 49.2851 121.377
205.407 46.4074 58.5394
200.358 98.3814 86.6745
-99.7711 158.61 104.161
-92.4843 162.121 132.351
-74.1672 178.044 114.381
-118.86 119.04 162.984
-107.855 141.606 148.708
-127.956 119.937 135.409
-51.0871 178.208 169.945
-80.7403 161.872 160.929
-66.9975 157.827 187.111
-120.739 9.56374 204.715
-124.427 34.7958 198.847
-135.895 16.9653 180.688
-92.1079 68.3121 229.659
-109.367 52.7165 215.629
-90.8302 38.6817 238.572
-138.41 73.8148 160.962
-126.056 65.6374 188.562
-126.157 90.4612 177.851
14.2469 124.865 254.075
-13.6357 115.651 253.61
5.00783 95.5576 266.636
-48.576 147.066 215.36
-32.0102 133.358 235.77
-20.0869 159.806 218.708
-47.0349 69.0088 259.381
-41.1216 102.214 249.278
-66.0879 86.9541 242.189
-105.764 111.57 192.326
-87.4185 100.665 219.461
-78.7718 131.46 205.338
-47.324 193.066 116.183
-56.8236 188.269 85.1668
-22.0282 190.331 172.796
-35.467 194.222 146.073
0.788953 208.209 85.5371
-16.9427 203.685 116.549
13.0585 210.495 115.343
48.0867 124.482 254.56
30.5748 146.012 239.612
64.8314 179.023 200.996
48.2029 165.132 221.458
81.7783 158.689 219.246
12.3342 165.859 221.518
-4.00074 179.796 201.314
117.334 188.557 85.5261
107.816 193.246 115.966
132.927 178.033 114.188
48.0835 210.507 115.265
78.0584 203.711 116.4
60.1639 208.252 85.8593
111.972 177.737 169.72
96.3954 194.182 145.656
83.1729 189.933 172.164
11.7406 196.415 176.906
48.62 195.866 176.402
30.367 204.843 146.133
-45.84 191.784 55.1384
-71.1247 176.649 57.6695
12.2251 206.146 56.2276
-17.698 201.995 54.7419
-47.535 170.729 5.25793
-33.4821 189.119 28.167
-20.1617 181.807 3.26617
131.956 175.888 58.0172
106.633 190.86 56.1998
80.492 181.307 3.12422
93.8411 188.108 28.1705
108.47 169.843 5.11398
77.8976 201.292 55.4377
48.3827 206.23 56.3465
14.6153 113.683 -70.5992
30.6124 134.39 -57.5288
46.8508 113.462 -70.8796
-2.72453 168.333 -23.2173
13.0794 153.393 -41.6107
-17.5912 148.357 -39.7332
78.3755 148.029 -39.7696
47.8734 153.374 -41.6679
63.3748 168.204 -23.2497
30.4335 199.773 26.4764
48.1298 187.016 -0.0379734
12.6501 187.01 0.0462834
-86.5121 158.773 40.2283
-96.4221 157.052 70.4873
-61.4741 149.816 -11.2747
-74.8757 156.163 12.8163
-119.01 116.353 39.5896
-99.3382 137.286 24.2257
-107.625 114.841 11.1915
7.00181 83.6125 -84.9311
-11.2876 105.579 -70.9463
-56.7123 82.1255 -61.1355
-35.6903 94.7203 -67.8198
-37.7987 62.0808 -77.9679
-28.3827 123.289 -55.4642
-43.6923 137.258 -37.3044
-121.279 12.0942 -5.82179
-111.112 31.4118 -22.8473
-107.667 0.217825 -30.2987
-112.571 86.6871 -2.40009
-112.538 61.4502 -12.2324
-126.167 69.1956 15.1865
-79.4058 32.9162 -58.5655
-96.8019 48.3196 -37.2433
-80.0659 64.3934 -49.3287
-70.7487 123.951 -28.4344
-76.9036 95.5242 -41.0017
-94.3505 106.461 -16.3439
-115.991 140.558 88.561
-134.314 97.7517 57.8511
-127.316 119.398 72.5142
-130.499 121.017 105.201
-140.627 100.282 120.188
-128.329 -13.7376 7.00151
-132.892 16.5438 20.5012
-149.048 16.342 73.5455
-143.664 19.1597 48.261
-146.417 -8.91902 66.2983
-136.86 46.3271 32.4703
-137.676 70.493 42.7418
-144.785 15.9577 156.341
-142.571 -9.53021 161.104
-145.327 75.5668 135.574
-145.192 49.4639 146.471
-156.37 -15.1162 116.679
-150.504 12.1708 130.012
-151.02 11.191 105.909
-144.689 75.2455 72.8117
-148.095 48.815 87.9917
-146.376 77.5296 105.666
150.828 161.324 133.205
157.475 157.42 103.166
127.921 157.26 187.786
140.564 161.461 161.553
187.102 118.13 135.995
166.568 140.556 149.653
177.679 118.19 163.301
58.2193 95.8803 267.603
76.5486 115.226 255.272
126.546 88.3194 243.933
103.217 102.938 251.692
108.163 70.9014 260.308
94.377 132.578 237.579
110.358 146.286 216.641
194.139 19.8919 180.499
184.226 36.2842 199.006
179.309 10.4504 205.329
185.145 89.244 177.899
186.764 63.6353 189.092
198.861 71.1489 160.553
151.538 38.7148 239.216
170.064 52.2178 216.393
152.174 68.5345 230.648
139.261 131.329 206.807
147.103 101.174 221.041
164.779 111.498 193.237
4.26212 64.1421 277.848
31.4462 76.5436 275.536
-46.8376 38.2069 267.283
-21.9691 50.8729 274.568
30.1007 18.9932 287.801
4.13852 33.1582 285.371
4.68503 8.79407 286.84
-116.898 -21.0525 199.93
-104.696 -4.19995 221.196
-65.7411 -36.4598 245.347
-85.6426 -20.3063 235.107
-80.2885 -56.4136 225.414
-89.279 10.7832 239.819
-72.2747 23.5748 254.607
30.6014 -98.551 252.095
6.5761 -85.7348 254.662
5.86766 -117.247 244.551
5.64922 -19.5197 280.428
6.34144 -48.3008 270.594
29.4823 -31.1824 277.86
-38.6558 -94.4525 240.542
-17.8473 -71.0033 254.294
-40.0005 -55.7758 252.716
-46.7386 9.65541 268.675
-43.8597 -20.3571 263.44
-19.0515 -4.92752 278.179
-143.464 -35.7157 149.505
-132.081 -33.9024 173.457
-151.027 -33.6882 109.575
-150.777 -34.7239 125.971
-120.97 -93.7565 152.735
-138.741 -62.3642 139.109
-128.102 -94.0906 127.141
-118.985 -40.4983 -8.02205
-128.16 -40.4832 15.2918
-121.758 -106.055 44.6191
-125.804 -70.2334 25.58
-114.872 -97.7325 13.9399
-136.077 -36.7889 46.5086
-145.007 -34.3213 80.4849
-90.1103 -198.5 95.3455
-104.311 -180.491 78.8445
-92.2005 -198.896 65.2127
-120.918 -133.079 108.151
-113.449 -157.761 92.7861
-107.678 -153.725 122.605
-108.201 -160.124 41.5365
-114.36 -159.607 65.5806
-120.174 -139.162 58.1673
-138.73 -68.7569 92.926
-128.597 -110.226 72.3209
-129.058 -102.807 96.0181
-94.1769 -17.4383 -48.1824
-107.011 -32.4768 -30.8933
-57.9994 10.3628 -77.6907
-76.9339 -2.09706 -64.0724
-75.8906 -69.0937 -61.7715
-76.1769 -34.9433 -65.7817
-58.398 -49.4323 -78.9869
30.5849 62.1783 -96.7165
8.94417 50.2219 -99.684
8.81199 -5.76902 -119.708
9.35029 18.5001 -112.945
29.4361 4.25464 -119.4
-13.3666 38.2463 -97.3617
-33.8805 25.9563 -90.7266
7.19034 -119.582 -90.8326
5.89442 -93.1098 -100.828
30.5325 -104.623 -98.3753
-34.9581 -67.0031 -91.0996
-15.1641 -80.2527 -98.3637
-37.396 -97.9321 -83.6747
29.2478 -38.6932 -119.874
7.01487 -56.5812 -111.301
8.88918 -30.1055 -119.849
-35.5525 -6.43656 -100.264
-13.711 -18.0533 -113.842
-36.0621 -31.2118 -99.7258
72.3688 105.065 -71.5915
54.8251 84.052 -85.2831
[...]
POINT_DATA 642
SCALARS Mean_Curvature double 1
LOOKUP_TABLE default
0.00866449
0.00974502
0.0146403
0.0213513
0.00761177
0.00861647
0.0113977
0.00432402
0.0132668
0.00937555
0.0131783
0.00335665
0.0147049
0.00978977
0.0113785
0.0104614
0.0142521
0.0102495
0.0107491
0.00638384
0.00841622
0.00978188
0.00911648
0.0137223
-0.00393882
0.0133922
-0.000487658
0.0096142
0.0278419
0.0120834
0.0103817
0.0091261
0.012544
-0.0019329
0.0155302
0.0166112
0.00255355
0.016823
0.0134148
0.00989576
-0.00611693
0.0114008
0.013031
0.0106129
0.0108736
0.0120264
0.0111623
0.00731336
0.0110438
0.0096676
0.00763813
0.0112583
0.00829934
0.0110491
0.0119323
0.00952893
0.0118541
0.0117291
0.0120273
0.011017
0.0105121
0.0126032
0.0118265
0.00779457
0.0117675
0.0116947
0.00816515
0.00734898
0.0120817
0.00573926
0.00968921
0.00664628
0.0133109
0.00280041
0.0103703
0.00156396
0.0156838
0.0110111
0.0099712
0.0104895
0.0116018
0.00983604
0.00910712
0.0116826
0.0151706
0.0109816
0.00667497
0.00854016
0.00678197
0.00826068
0.0116839
0.0175488
0.00874732
0.00851112
-0.00364692
0.00923987
0.0187733
0.0181782
0.013077
0.00650694
0.016453
0.0121207
0.0134124
0.00986095
7.79657e-05
0.0119924
0.00982341
0.00998073
0.0118973
0.00488992
0.00838005
0.00779209
0.00634787
0.00487771
0.012582
0.00738279
0.0130794
0.000890254
0.00418016
0.00968912
0.012102
0.0126469
0.0163247
0.00205779
0.0165774
0.00825778
0.0171538
0.0146373
0.0151388
0.0136797
0.0150415
0.0161251
0.0125935
0.00696134
0.0108944
0.0156962
0.0253209
0.0150347
0.00998291
0.0115586
0.0100678
0.00574148
0.0106926
0.00194805
-0.00347224
0.00994789
0.00798761
0.00800608
0.0102319
0.013068
0.00431278
0.00855963
0.0140236
0.00887878
0.0151143
0.00994554
0.0113411
0.00846661
0.0112928
0.00394075
0.00723695
0.0131735
0.0106761
0.0114509
0.00942535
0.0114717
0.0110592
0.0120207
0.0108145
0.00992774
0.0104602
0.0126805
0.00940677
0.0150167
0.00973328
0.00778171
0.0123671
0.0126208
0.00858617
0.0138016
0.0116554
0.011016
0.00868046
0.0105619
0.0103711
0.011437
0.0079287
0.00858273
0.00842939
0.0110091
0.00985916
0.0105902
0.00952409
0.00754258
0.0122022
0.0123265
0.00735341
0.0071091
0.0121864
0.0109391
0.00781084
0.0114714
0.00979539
0.0104292
0.0117271
0.012726
0.00990512
0.0105813
0.00861984
0.0122256
0.00729435
0.00765109
0.0105876
0.0128763
0.0119163
0.0142941
0.0124556
0.0052197
0.0134933
0.0108127
0.00710433
0.0133959
0.0106887
0.012073
0.0110705
0.0104662
0.0118535
0.0108677
0.0105658
0.0104741
0.01113
0.00801119
0.00861654
0.00690468
0.00888719
0.0115171
0.0101519
0.0112408
0.0108199
0.0105156
0.0117304
0.0106909
0.0122361
0.0115675
0.0103692
0.00690746
0.0109633
0.0113904
0.00869717
0.011203
0.010811
0.00845957
0.0096831
0.00864002
0.0110237
0.00535199
0.0115254
0.011158
0.00357115
0.0107691
0.00672143
0.011389
0.00725399
0.00821534
0.0106075
0.00781622
0.00720051
0.0115089
0.0115456
0.0115723
0.0123125
0.0108454
0.00992103
0.0116386
0.016213
0.0101607
0.00375421
0.00827018
0.00939536
0.00760322
0.00676781
0.0107336
0.00831813
0.00980311
0.0161946
0.0087305
0.0358533
0.00631809
0.00149997
0.0131213
0.0041774
0.0104451
0.010223
0.0059699
0.0110004
0.0107007
0.0125483
0.0108666
0.0105778
0.0102532
0.0120814
0.00933633
0.0125026
0.00747044
0.011287
0.0111154
0.00945964
0.0102018
0.00994765
0.0103725
0.0112884
0.0118595
0.0122899
0.0101829
0.00881974
0.0115937
0.0100905
0.0105885
0.00970309
0.00613299
0.0101745
0.00785044
0.0112244
0.0132995
0.0189798
0.0052464
0.00884159
0.00836935
0.00742873
0.00646901
0.0110452
0.0148946
0.00583268
0.00248667
0.0135055
0.0108883
0.00939895
0.00717084
0.0125662
-7.16001e-05
0.00778429
0.0124836
0.00804429
0.0117079
0.0112891
0.00958391
0.0103965
0.0168701
0.00497462
0.00932427
0.00125055
0.00763395
0.00701572
0.00131258
0.0072503
0.00620662
0.00152267
0.00359908
0.0119712
0.013413
0.0160657
0.00947204
0.00751561
0.00554177
0.0130693
0.0144448
0.014385
0.0039983
0.0129926
0.00073554
0.00904218
0.0094831
0.00138386
0.00422359
0.00881861
0.00655477
0.00359685
0.00890258
0.00756001
0.0196086
0.0121604
0.0160368
0.00662367
0.00366352
0.0148324
0.0128769
0.00987825
0.00210478
0.00900124
0.0136299
0.0179455
0.0091383
0.0202581
0.0150065
0.0216444
0.0125054
0.00988484
0.00982557
0.0111213
0.0112801
0.00875688
0.0105996
0.00875184
0.00923435
0.0108043
0.0114501
0.0113853
0.00935565
0.0115745
0.0110332
0.00437277
0.00994869
0.004556
0.00882289
0.0111065
0.00927779
0.00536871
0.00756333
0.0108272
0.0117703
0.0122562
0.0112989
0.0185232
0.0108621
0.0138524
0.00860341
0.00450154
0.00701368
0.0156011
0.0112775
0.00925098
0.00693206
0.00437358
0.00619486
0.0138446
-0.00529335
0.00569285
0.00950665
0.00945825
0.0127418
0.00609684
0.010509
0.0135528
0.00425875
0.00578609
0.0122818
0.0120177
0.0114243
0.011858
0.0104927
0.0118667
0.00685204
0.010414
0.0181416
0.0139243
0.014301
0.0104846
0.00792528
0.0191053
0.00524765
0.000671944
0.018834
0.0172812
0.0171112
0.0106177
0.0137
0.0111025
0.0120169
0.0125634
0.0214577
0.0190913
0.00528435
0.0154551
0.0154554
0.0160004
0.0133543
0.0154393
0.0150276
0.0153966
0.015145
0.0108667
0.0142506
0.0143315
0.0143797
0.0149573
0.0153327
0.0159291
0.0164305
0.0162681
0.0156876
0.0166103
0.00940103
0.014833
0.00779381
0.0142255
0.0147064
0.00130744
0.00165413
0.00367767
-0.00180099
0.0159629
0.00926536
0.0104868
0.0139981
0.0145745
0.0184367
0.0116884
0.0148598
0.0086808
0.0220847
-0.000388452
0.0159088
0.0148502
0.012449
0.0140865
0.0139368
0.0115028
0.00252418
0.00490483
0.00927219
0.00767575
0.00806425
0.0106239
0.00896177
0.00728989
0.00937676
0.0116423
0.00153494
0.00915448
0.00400716
0.0241018
0.00496024
0.0119325
0.00512735
0.0115519
0.00862054
0.00563199
0.0139652
0.00070619
0.00204198
0.0104304
0.00347763
0.011009
0.00518833
0.00718233
0.00697268
0.0107384
0.0147098
0.0151489
0.00843957
0.0108011
0.00421457
0.00303241
0.00808442
0.000383891
0.00762918
0.00952616
0.0103394
0.015529
0.0132687
0.00851573
0.00863291
0.00902771
0.016073
0.0149442
0.00767675
0.0126509
0.00775556
0.0124492
0.00730346
0.0153429
0.011206
0.0144004
0.00788565
0.00611563
0.00984287
0.011418
0.010721
0.00362292
0.00340831
0.0078237
0.0136495
0.00225078
-0.00452238
0.013462
0.0049556
0.0113915
0.00955485
0.0135431
0.0018396
0.00936964
0.012801
0.0123998
0.01501
0.01205
0.0188399
0.0158211
0.0153147
0.00705924
0.0132538
0.0104732
0.0100866
0.00419112
3.85068e-05
0.000726783
0.00922421
0.00977164
0.00574484
0.0050489
0.00367874
0.00130094
0.0159531
0.0196016
0.00762391
0.00841803
0.000917652
0.00659142
0.00353538
0.00611968
0.0122922
0.0170783
0.0111763
0.020251
0.0122049
0.0116824
0.000632538
0.0103945
0.010915
0.0182912
0.00629375
0.0086893
0.00486232
0.0129828
0.0132368
0.00946808
0.0134224
0.00747631
0.0126483
0.0137347
0.00574069
0.0173867
0.0111144
SCALARS CoVolArea double 1
LOOKUP_TABLE default
676.918
668.646
569.462
475.823
639.35
656.483
478.019
645.887
554.773
551.731
534.678
565.914
731.096
867.735
933.832
951.625
958.643
853.753
847.756
959.056
797.24
668.651
864.86
759.561
971.857
683.104
879.797
924.366
485.605
759.167
751.492
877.448
768.642
949.59
755.984
710.443
997.026
758.598
815.396
773.442
1093.72
717.558
797.129
954.836
892.334
712.678
879.92
792.542
880.396
970.609
903.392
1019.66
957.984
896.764
974.011
938.309
1020.89
872.397
942.698
817.084
835.084
943.969
775.645
919.448
777.051
834.812
851.434
859.732
790.511
815.546
792.616
783.776
767.136
880.53
800.985
933.723
607.369
936.291
867.353
845.149
921.708
716.481
907.771
694.821
765.4
824.177
917.013
797.18
907.001
888.778
787.811
806.724
820.258
761.067
1238.7
747.852
695.78
605.711
806.379
761.792
695.907
720.507
660.799
769.022
842.962
796.3
815.58
813.406
824.646
799.851
784.773
791.835
743.782
962.092
768.58
889.818
773.508
932.439
897.433
896.426
761.016
913.985
831.465
859.482
757.245
911.069
822.25
744.03
897.468
726.345
723.901
893.707
860.497
994.164
921.416
822.919
491.609
615.322
927.558
666.824
848.657
773.934
811.021
876.04
1042.83
763.321
721.323
943.704
762.592
785.619
947.114
963.862
828.064
979.404
795.899
913.681
840.481
794.697
753.659
819.153
774.607
768.153
817.154
866.554
862.97
874.13
842.87
759.024
882.455
891.818
972.402
676.834
772.399
694.691
908.969
803.321
739.933
694.977
786.184
812.385
833.06
876.381
848.62
964.828
880.185
867.553
891.172
897.841
960.144
1012.34
1045.05
1072.33
951.675
885.356
957.18
908.775
935.999
970.288
1013.97
831.668
920.965
981.439
923.044
894.719
899.181
943.839
851.019
913.726
857.047
1008.12
948.202
927.004
874.286
892.806
973.212
1096.34
1113.92
1156.99
860.553
833.265
1004.96
886.999
808.012
819.679
894.272
814.376
875.107
897.155
849.452
818.687
904.085
1002.41
783.375
825.462
772.473
889.323
821.782
767.307
771.701
819.561
884.151
1079.67
1020.44
1030.03
853.721
842.889
858.455
805.234
796.98
807.831
819.208
813.379
783.455
835.206
763.468
881.219
738.41
830.952
769.825
793.346
730.301
782.025
754.242
737.835
837.997
767.123
846.123
907.585
876.499
875.424
825.268
808.62
795.36
756.564
727.798
741.986
848.31
872.164
798.271
832.76
767.915
771.311
785.081
687.122
713.947
816.89
492.828
798.16
894.88
848.428
1018.44
836.276
885.952
873.556
958.131
873.5
782.887
843.051
881.783
820.898
841.048
921.815
829.84
851.54
861.001
954.682
695.461
731.197
668.983
859.531
771.388
693.205
731.391
783.386
915.735
1041.34
1027.81
1018.86
892.54
862.57
853.841
857.272
665.079
749.529
677.654
769.89
747.598
948.486
808.527
947.468
699.794
764.515
817.49
913.834
773.07
733.374
868.581
745.533
825.025
931.517
999.139
853.342
946.089
818.004
685.193
748.709
631.917
529.444
845.423
771.786
1000.83
673.11
828.161
1038.98
1010.47
938.771
1049.54
991.56
695.158
679.137
657.26
927.756
730.878
829.886
568.401
595.458
699.672
1051.35
928.764
957.087
790.099
698.75
940.77
836.645
728.027
816.202
875.681
795.267
824.057
552.621
671.263
540.258
860.618
959.407
624.25
775.592
702.852
893.277
773.858
685.894
615.333
756.434
574.861
798.803
659.22
825.265
766.824
788.492
835.256
747.663
814.512
741.965
799.819
832.047
829.618
795.305
783
748.026
803.056
857.667
761.051
764.969
735.472
792.189
726.313
790.298
767.542
750.186
778.781
901.725
865.844
874.787
587.945
750.846
689.997
902.367
873.828
847.246
707.852
775.494
857.672
758.561
990.875
831.03
872.925
954.241
929.948
739.239
838.261
735.681
888.867
814.843
748.566
911.145
870.733
772.146
800.649
745.886
793.477
946.303
887.016
1057.84
840.783
691.202
829.56
826.155
901.464
898.692
911.824
901.643
905.708
700.758
673.893
690.764
744.35
785.918
807.305
846.549
761.436
866.48
821.938
935.874
695.872
755.565
784.456
960.561
919.307
954.942
754.419
659.011
1032.87
833.587
674.305
754.548
763.694
713.709
810.072
756
734.603
664.158
869.749
1055.53
648.44
964.574
674.74
879.667
1058.85
920.042
903.337
1082.47
871.868
1089.74
972.27
958.135
640.694
552.875
849.477
634.681
635.376
554.228
889.498
595.649
648.523
700.712
639.042
666.73
824.536
1022.08
694.397
701.364
722.527
1008.09
693.389
865.691
753.666
682.08
712.648
1174.12
1021.35
1136.43
549.723
932.519
558.295
729.184
859.292
753.676
835.613
787.491
945.726
760.642
868.614
1146.93
813.609
732.194
820.644
796.033
688.945
659.481
641.553
1069.02
900.243
938.753
906.944
992.965
927.915
894.078
796.309
710.619
744.018
663.57
760.951
923.669
869.438
722.186
750.05
836.702
841.421
970.489
861.579
897.405
726.376
835.671
716.202
791.95
929.742
860.502
827.763
797.082
902.241
913.135
938.05
841.998
882.186
985.126
890.451
1107.46
934.104
1002.51
706.658
967.871
881.717
708.862
744.918
682.029
790.35
578.023
644.802
800.638
719.682
714.93
677.049
790.712
1016.31
1135.66
1149.74
1069.69
824.689
888.273
831.042
861.791
947.179
739.317
591.499
758
755.465
910.852
815.19
947.654
845.653
687.506
567.762
855.81
690.118
851.513
739.405
929.292
766.679
678.954
699.611
794.301
763.849
795.523
741.16
812.57
877.807
769.076
824.085
785.277
731.912
926.933
790.583
817.333
SCALARS SignedDistance double 1
LOOKUP_TABLE default
71.3128
71.5255
72.9954
74.5703
84.6729
72.5068
78.9025
82.0297
92.0535
88.0029
90.7583
86.0652
77.7231
76.2311
65.6337
65.8678
66.3262
73.8019
73.6007
86.5048
84.6782
92.3474
76.0349
77.6723
90.6417
82.3605
93.8431
87.4906
78.196
86.0094
85.7762
88.3541
88.2459
90.0305
78.4975
78.4631
72.7743
78.7025
81.7217
87.9082
94.7558
92.2798
72.308
69.5635
67.3208
82.2283
76.7164
81.4742
67.9795
71.629
74.2293
66.0248
67.5395
67.3713
64.1387
67.5508
66.0774
68.0053
68.5057
71.149
71.373
68.661
78.2383
74.0485
78.1126
77.2987
76.769
83.7585
80.6139
90.3292
85.9577
90.5885
81.0755
94.5793
89.1316
88.1533
85.4244
70.4831
73.9213
74.105
70.6862
83.5992
76.7834
82.7918
78.244
75.0379
87.3414
83.7742
86.9997
85.0656
85.4967
92.5171
88.1043
92.5873
95.8122
82.8802
92.3795
83.8942
88.3382
89.7847
80.9531
83.3532
80.5137
84.4785
84.7492
80.6723
83.1376
76.7744
77.4526
91.6152
86.1163
90.8357
85.3005
82.3968
75.416
88.5719
88.4764
92.6984
83.312
82.3811
85.4348
66.0709
65.0213
85.3276
77.14
64.8834
63.6145
72.9789
67.8799
75.3944
71.4927
67.6924
78.5853
79.9217
78.8259
93.3219
89.8693
81.6891
83.0762
92.3297
88.9226
91.7191
90.2082
94.7142
96.0502
92.597
87.9101
85.106
83.847
79.7019
82.4954
82.2816
87.4736
82.0517
86.8158
87.4975
89.7405
85.7313
84.0032
88.0539
88.061
80.6507
70.9044
68.9498
69.3752
72.23
70.2299
74.2396
66.121
68.1267
67.5339
84.6758
81.4551
84.9803
76.8099
79.1131
79.1925
81.8994
79.9795
77.0235
69.9361
71.3949
73.7298
68.2498
69.789
66.4107
75.2095
73.0223
74.3386
72.6927
73.5832
70.1299
68.0942
69.3476
64.2857
65.2462
67.9123
67.146
66.4348
70.0213
68.1362
64.6481
66.1748
66.2647
65.8469
64.2107
69.3533
68.1818
70.5743
66.4343
67.1531
67.8853
66.4531
65.3996
64.5872
62.9818
63.6669
66.4199
68.628
71.0898
68.5346
67.0817
72.1097
69.5295
70.9403
71.2466
69.3503
71.2413
70.0655
72.329
67.8487
68.5272
80.9976
78.7556
81.1576
73.2886
76.0966
75.6062
75.6371
76.13
73.331
68.594
70.8856
70.8319
73.6509
73.7487
74.7461
73.7521
80.8575
77.1272
81.053
82.2706
81.5672
84.9115
83.1257
85.4038
78.8625
76.7203
91.4784
89.6205
89.4816
85.4523
87.9767
88.2261
88.3337
86.9761
85.7373
78.8396
83.4789
82.0701
74.5757
82.3378
78.0389
76.0237
80.9153
92.0386
92.5133
89.9244
90.9579
93.6269
89.9227
87.257
86.7033
84.828
85.8149
85.6795
91.145
87.2208
90.7757
85.3927
88.7138
86.9267
71.0992
72.8562
67.5596
68.7791
74.6462
71.5937
73.4075
72.6447
70.0859
74.3069
71.8714
74.7886
68.2404
67.4319
85.3505
83.5659
85.6123
77.2554
80.1582
81.1065
79.4405
79.9276
76.5836
70.1164
73.95
73.7263
73.8652
73.9171
77.6686
75.9243
78.0168
76.0592
80.1923
86.7982
85.4676
86.3034
85.7748
89.0147
83.0246
81.1339
88.4405
89.1116
85.0608
83.722
85.6232
84.7735
87.8534
88.5909
87.9297
81.8543
84.2934
82.6971
86.39
86.3167
91.6778
88.8151
91.3398
88.3551
92.8998
91.7794
93.2311
96.0327
94.1061
90.8661
95.1575
94.4863
78.4518
81.9509
76.7639
90.2162
85.2921
84.8522
89.467
86.6905
92.0507
95.6636
99.0142
97.3136
89.5627
90.2453
89.6717
89.5953
87.5072
88.6139
87.8871
83.1131
83.5469
80.2251
81.6572
79.9456
85.418
87.6639
79.1397
83.5456
81.709
85.881
85.3431
82.8565
80.4359
83.9828
80.3323
85.9142
81.4808
86.0479
80.9592
82.1288
76.7279
78.756
85.6553
82.6369
84.5399
73.5837
73.6346
81.5788
77.2513
81.1444
73.845
74.8118
91.1112
90.7923
92.5296
86.2184
88.5982
90.5073
88.4182
87.865
86.5145
78.9969
82.6929
83.7943
80.9358
80.7773
74.8808
83.9124
83.2922
84.9189
76.0425
80.8126
81.551
88.2438
91.1834
89.0141
89.5543
92.7519
89.4247
93.7473
93.6683
88.3522
83.408
82.7537
85.0457
82.6874
82.4645
81.8382
87.5961
83.6421
85.3987
83.9697
84.6178
81.9221
69.7062
68.7916
71.5443
69.7081
68.0253
66.3489
66.4478
83.3555
85.8587
76.6549
82.8885
83.2486
82.3833
76.6439
68.2361
67.3662
72.1959
63.6624
64.3666
69.019
74.9325
67.6303
70.4106
70.5628
69.4293
63.8993
68.4396
73.7794
65.8997
65.3545
78.1957
70.6374
74.1844
70.5528
66.0186
72.0219
67.6729
74.5186
63.794
65.8839
78.0429
78.4197
78.0366
79.6299
82.5896
84.3232
84.6011
82.5557
79.8675
68.4167
73.8737
73.9007
81.8732
81.1702
86.1687
83.8825
93.6866
91.0346
95.8509
79.2736
79.0335
85.0228
81.9815
84.9446
80.5418
86.7346
93.1752
92.2305
92.0967
90.3077
90.8028
91.8377
89.5078
90.3138
88.4499
90.0743
86.3532
90.7042
87.45
92.5124
91.7822
87.5429
88.9789
92.908
94.3148
93.6642
95.7656
94.2454
94.3416
97.2344
88.3714
88.2519
94.9756
92.1831
89.9827
88.9757
90.3644
98.5057
94.7679
96.5842
89.2289
87.4957
88.2743
86.0255
84.2549
85.9671
80.4307
83.061
86.1589
86.4817
74.3359
80.6314
77.1099
75.4377
77.2034
84.309
82.0614
83.1771
78.534
81.1952
79.4247
83.0097
83.5873
82.6355
85.3718
83.6362
82.9903
83.502
87.9264
86.5722
91.0743
90.9929
89.4682
81.9217
84.0932
82.9151
78.619
86.6963
80.3803
80.5457
82.814
77.1129
92.4231
85.5745
79.1206
81.4562
91.1993
86.441
88.8242
89.9457
90.124
89.0092
90.5035
84.4981
90.8463
88.6776
90.6176
90.868
90.8673
84.2313
81.4902
85.1673
86.5215
86.7289
83.9447
88.5863
86.05
81.8626
81.1208
87.6104
83.2667
87.265
86.2396
89.2909
88.8804
85.4873
85.5805
93.5019
88.6117
89.735
93.1652
91.3393
74.5619
80.3671
76.7286
78.249
83.297
88.5342
87.4912
86.6901
