# vtk DataFile Version 4.2
vtk output
ASCII
DATASET POLYDATA
POINTS 642 double
-56.6415 142.107 89.3586
114.951 142.754 87.0908
-49.1855 -187.106 78.8571
108.71 -186.855 79.1477
30.679 -105.165 199.484
32.3223 89.3788 227.67
30.4981 -106.762 -50.1638
31.3771 72.384 -41.6254
133.95 -11.1079 12.7389
146.077 3.91558 163.825
-74.4622 -14.249 8.87839
-89.7373 1.72789 159.704
-97.2944 84.5572 138.552
-48.2871 46.1056 216.761
-22.2709 144.667 176.74
83.8727 143.098 176.918
30.5433 175.751 89.0417
79.4789 132.025 5.62561
-18.8325 132.842 5.73028
-33.6571 38.8255 -31.3168
-83.2627 79.8028 44.3874
-102.187 -8.87931 105.115
108.301 47.1201 218.04
157.508 81.5624 137.916
-31.274 -62.9231 191.421
28.5149 5.50146 241.807
-62.8667 -123.351 51.6664
-72.8954 -109.947 126.246
27.9734 -18.1071 -80.182
-29.5788 -75.6717 -37.5872
143.75 81.7375 45.8814
92.855 43.286 -30.3737
133.607 -106.076 127.967
91.9338 -63.0481 192.617
69.9425 -179.607 148.685
-9.87967 -185.552 149.236
29.6904 -212.31 91.3726
-19.119 -180.839 20.9214
74.1417 -176.881 21.506
85.8907 -75.4437 -35.1593
116.272 -110.751 49.3157
160.398 -9.26717 95.4139
-84.7016 117.227 116.741
-69.7865 117.149 159.545
-44.9481 149.759 134.597
-73.4388 25.1686 192.922
-78.9514 71.2107 179.964
-95.965 41.3402 156.005
3.91043 121.792 209.154
-39.6373 100.958 201.283
-8.57017 70.5849 228.137
1.07214 167.775 139.005
-17.8882 165.516 85.7422
58.8401 120.4 210.922
29.456 154.135 182.327
78.8968 165.622 87.1541
59.9678 167.913 138.139
103.779 149.983 134.956
1.25049 162.601 40.5762
-39.8623 145.714 44.1777
101.305 144.154 44.0711
58.2272 162.503 40.18
4.6158 108.59 -22.2769
30.4688 139.592 2.61342
56.3452 108.098 -22.6672
-58.136 111.788 19.6055
-76.5446 114.331 65.1018
-1.07594 58.4076 -42.9729
-31.0798 92.9406 -17.4052
-79.6747 38.3199 25.8519
-62.3195 66.8741 1.91554
-57.7931 13.8077 -11.8523
-97.706 87.1294 93.9995
-86.5889 -4.61632 49.9121
-97.4819 44.0158 68.3814
-99.0174 45.9605 119.215
-106.773 -10.8693 126.587
128.013 116.81 161.274
142.276 114.347 117.323
71.6803 73.1944 229.053
100.365 101.167 204.819
155.309 43.113 154.483
137.896 69.6114 181.474
131.952 26.2668 194.898
-6.27889 22.4394 240.209
30.9056 39.1842 244.038
-66.569 -23.3134 183.103
-43.7593 5.01553 215.447
29.7199 -45.5368 221.922
-3.49731 -20.3638 227.538
-5.71861 -91.6999 202.034
-95.5609 -46.6188 117.166
-89.572 -45.2408 142.057
-71.3876 -57.599 18.3985
-80.0074 -61.3156 69.9395
-59.7723 -159.22 97.3799
-74.6455 -125.74 80.7471
-62.3531 -161.898 61.487
-25.6939 -20.2168 -47.2547
-54.1034 -45.6838 -15.7899
29.6105 15.4726 -69.5229
6.37836 -4.72404 -69.8211
-0.597078 -94.5702 -50.9234
5.05244 -35.0314 -68.0141
28.6694 -57.8222 -61.7952
91.851 92.3741 -17.8008
63.2891 60.1303 -43.748
137.69 113.584 62.6208
119.445 111.388 19.6783
116.727 18.4391 -9.28903
122.128 67.1649 1.64701
140.122 38.459 26.4985
115.906 -158.371 94.0932
105.557 -145.212 138.359
90.757 -188.807 116.111
124.009 -21.1107 185.655
118.752 -95.1863 162.744
141.748 -51.9035 140.228
52.5434 -146.059 171.811
88.809 -118.308 178.696
66.3883 -92.1206 201.618
51.7465 -209.684 125.36
79.3745 -209.334 81.1741
6.75265 -151.635 167.865
25.0371 -191.252 154.624
-18.2253 -209.468 84.4909
2.5543 -214.5 126.913
-32.7594 -193.048 120.116
60.0485 -205.646 44.449
96.2274 -188.593 51.0575
-39.0231 -191.065 45.9894
-3.66226 -206.408 43.5007
50.4401 -130.251 -30.8128
29.1931 -181.884 16.738
8.5206 -131.122 -29.4724
99.4717 -158.427 37.3035
114.67 -166.294 68.5408
57.9167 -96.0968 -50.3908
78.2137 -114.15 -25.4557
132.397 -57.2004 21.2658
110.928 -85.7949 -3.80489
112.772 -44.2179 -11.6171
131.745 -120.226 88.9821
146.988 -1.41668 51.8546
142.484 -52.2939 73.1397
152.923 -49.0702 110.276
159.923 -5.34614 126.92
65.1432 -22.2886 225.823
106.084 6.35046 215.552
68.161 25.9969 237.934
-44.9215 -152.366 135.625
-28.4002 -120.575 177.062
-58.8072 -95.6299 163.889
-21.9938 -115.32 -24.3646
-48.7776 -160.866 35.6921
-52.4934 -87.9327 -6.76421
84.1794 -18.841 -44.0422
51.9391 -35.6341 -65.4635
51.9016 -1.73708 -67.7403
160.1 47.3323 119.222
158.638 43.4631 70.3344
158.865 84.2214 90.0259
-72.4355 131.22 104.319
-67.9957 134.367 126.18
-53.1058 146.365 111.602
-87.7692 100.202 148.622
-79.5962 117.967 138.209
-93.5471 101.243 128.181
-34.3765 149.342 156.071
-58.3062 134.926 148.369
-46.9356 132.736 169.279
-83.6865 14.3401 177.555
-86.9048 32.4952 175.013
-94.1807 17.7003 160.844
-63.9751 58.8711 199.868
-75.8888 47.024 188.586
-61.9146 35.6138 206.623
-96.3434 67.0196 147.098
-88.4354 58.9241 167.04
-90.5097 79.4207 158.66
18.5417 105.601 221.365
-3.37631 98.8109 219.882
12.0071 81.2602 228.755
-31.9135 124.8 190.698
-18.1632 113.478 206.298
-9.24515 135.373 194.426
-29.2694 58.4497 223.653
-24.9885 87.225 215.837
-45.1014 73.7435 209.905
-77.0663 94.7771 170.841
-62.1964 85.9456 191.814
-56.2821 111.248 182.106
-31.5807 159.344 113.902
-38.9528 154.816 86.8618
-11.369 159.541 159.853
-22.4845 162.011 138.717
6.89932 171.293 87.6417
-7.11898 168.013 114.27
17.2388 174.482 112.244
44.9481 104.826 221.867
30.7 122.945 210.194
57.8821 150.925 180.925
44.6447 139.191 196.215
71.4335 133.284 195.607
15.6031 140.288 196.066
2.79237 152.04 181.238
99.0104 155.406 87.3441
91.486 159.907 113.565
109.995 146.965 111.03
43.8827 174.499 112.146
68.1867 168.041 114.104
53.8486 171.417 88.2414
94.9935 148.698 155.889
83.1234 162.086 138.076
72.5638 159.189 158.894
14.8755 164.952 163.976
44.9488 164.062 163.147
30.2343 168.902 138.271
-29.5498 158.863 61.9516
-48.4212 146.029 65.4905
15.4252 168.956 63.4934
-8.95511 166.891 61.3465
-30.3522 141.089 24.5302
-19.9099 156.443 41.7615
-9.44937 149.914 22.3875
109.333 144.998 65.8398
90.2262 157.538 63.5638
69.2997 149.275 22.0609
79.8584 155.026 41.557
91.3761 139.859 24.1709
68.5263 166.021 62.4141
44.7322 169.098 63.6641
18.4053 91.2574 -31.8209
30.6467 109.753 -22.1496
43.5049 90.7896 -32.1382
3.63355 138.44 2.56287
16.0536 125.48 -10.8422
-6.97531 121.569 -10.14
67.5911 121.077 -10.3241
44.7691 125.417 -10.9295
56.7138 138.311 2.42032
30.332 164.454 39.0546
44.5195 154.037 19.9846
15.9912 154.049 20.0923
-59.2492 131.569 51.2619
-67.3766 129.648 77.7046
-40.1187 123.921 11.5743
-50.6373 129.412 29.8936
-81.3428 97.8728 54.1936
-67.5437 114.534 39.3112
-71.8253 96.8789 30.1751
14.1312 65.6182 -44.5205
-0.968722 86.2348 -31.5601
-32.5141 69.1039 -23.3298
-17.7426 78.9128 -28.7824
-16.514 49.9001 -38.2499
-14.5622 102.008 -20.9357
-26.2079 113.379 -7.8074
-75.9162 9.00294 15.5476
-70.3866 27.1271 3.54816
-68.0843 -2.02746 -1.68059
-73.5984 75.4067 20.7449
-71.9176 53.7707 12.8285
-82.6788 61.1337 35.6495
-48.2073 26.9869 -22.9385
-61.2628 41.1126 -6.69831
-49.6473 54.1656 -15.1807
-45.5255 103.347 -0.498517
-48.1558 81.2819 -8.53504
-61.6364 90.3205 9.44889
-83.9184 116.236 93.3131
-93.3543 83.3675 69.9317
-90.5698 99.907 81.3035
-94.2129 101.785 106.129
-98.0993 87.6545 117.873
-80.6018 -11.6211 23.3888
-85.1844 16.5712 39.1508
-99.9873 16.5879 81.3398
-96.0482 20.5356 62.7537
-96.8659 -2.22966 77.706
-90.9603 43.0522 50.6183
-93.1047 63.0001 58.5363
-98.6112 13.8311 142.838
-99.899 -5.2833 143.382
-98.6152 70.4249 129.955
-98.8367 45.7604 138.4
-106.745 -11.7832 119.493
-102.893 6.9152 125.801
-100.909 6.80315 109.046
-98.6222 68.1262 79.9795
-99.2703 45.9212 90.4305
-98.6921 72.0681 105.855
124.33 133.206 127.793
128.551 129.76 101.98
107.637 131.93 170.714
117.212 134.598 149.954
152.391 98.3318 128.952
137.208 116.484 140.116
145.629 98.9827 149.137
52.5401 82.1054 230.301
67.5448 98.1373 222.091
104.339 75.9011 212.068
87.1845 88.6882 219.108
90.1814 61.2734 224.772
81.346 112.069 209.452
94.0676 123.441 193.186
151.812 22.244 160.804
144.84 35.5372 175.337
140.45 15.6312 179.292
149.522 76.8113 158.943
148.858 56.9586 167.848
157.59 63.6381 146.444
121.942 35.583 207.734
135.869 47.0114 189.695
123.589 59.1477 201.492
115.826 111.213 184.683
120.481 86.6913 194.196
134.609 94.6453 172.413
10.872 53.1917 239.413
31.9602 64.7435 236.336
-28.0773 33.7064 229.011
-8.50969 42.3187 236.149
29.5184 20.8634 244.912
10.7128 28.9693 244.28
11.2012 13.9639 243.754
-79.7256 -10.065 171.527
-70.5101 4.76471 190.501
-39.8688 -22.3403 208.521
-55.4212 -8.44506 201.152
-50.3979 -41.1108 190.612
-59.1965 16.4837 206.281
-47.0712 25.1478 218.232
30.5477 -83.6222 205.257
12.9144 -69.2346 207.763
11.5393 -99.9172 201.906
12.2247 -5.7259 237.057
12.9781 -31.3978 227.395
28.7039 -16.3897 233.228
-18.0886 -81.5564 200.153
-5.73573 -54.9476 210.374
-19.9796 -39.8089 212.275
-26.1362 14.8497 229.07
-23.6509 -8.00883 223.764
-4.70996 5.03275 236.362
-100.674 -24.3617 133.283
-92.5055 -22.5851 150.446
-102.475 -21.6573 116.87
-103.719 -22.0575 122.144
-75.2166 -77.7998 134.674
-95.559 -45.6958 127.211
-79.3507 -77.7418 117.979
-73.6918 -32.6409 12.4995
-79.5963 -32.9988 29.6252
-71.7272 -95.9463 57.3726
-76.0088 -60.0072 37.973
-69.5839 -84.4249 29.2699
-85.5816 -27.6674 58.4749
-95.6575 -23.648 91.785
-54.3099 -175.906 87.947
-64.0084 -160.357 76.2126
-57.756 -176.139 68.1725
-74.2224 -119.263 100.844
-70.9758 -140.458 86.6193
-67.318 -135.269 109.706
-64.3727 -148.421 59.1214
-70.5673 -144.163 71.4596
-72.8808 -128.508 70.3859
-88.9614 -55.1386 101.267
-74.9614 -101.377 78.8333
-77.0029 -90.0471 94.363
-57.4401 -17.2836 -15.6618
-66.7655 -27.5653 -2.85969
-27.308 3.18955 -39.0922
-43.4986 -5.43585 -28.0236
-42.8771 -62.4812 -28.027
-42.3974 -32.6939 -30.887
-28.0653 -44.022 -41.4935
30.5674 44.4127 -54.2498
17.8651 32.967 -58.4595
18.4936 -12.8162 -77.5873
19.3267 4.38912 -71.6968
28.4602 -6.09406 -76.5133
4.4295 23.7338 -57.0555
-9.2162 14.3384 -51.442
14.5226 -102.049 -52.2882
13.0312 -80.5611 -57.3881
30.3467 -91.6307 -55.7754
-11.2651 -58.6126 -51.3686
1.67055 -69.7199 -56.2644
-15.2576 -86.4742 -46.1542
27.9105 -27.2215 -77.3446
15.043 -43.0297 -68.8144
18.4206 -22.9825 -77.7333
-8.87499 -12.554 -62.4226
5.03643 -18.1855 -73.5636
-9.66406 -26.2317 -61.4508
62.2802 85.3505 -32.9363
48.4095 66.1649 -44.6503
87.3472 112.759 -8.04715
75.4151 101.289 -21.4881
[...]
POINT_DATA 642
SCALARS Mean_Curvature double 1
LOOKUP_TABLE default
0.00826852
0.0104979
0.0251943
0.05674
0.0119475
0.00514855
0.0133333
0.00314139
0.0202184
0.00728167
0.0195172
-0.0126968
0.0318998
0.0193375
0.0164582
0.0132432
0.0224731
0.0130702
0.0148109
0.00929723
0.007148
0.0158925
0.0166257
0.0298208
-0.0234358
0.0153789
-0.0136229
0.0181118
0.0917708
0.0113678
0.00744467
0.00961119
0.0247515
-0.0189654
0.0252301
0.0255413
-0.0160746
0.0298253
0.0193172
0.00898703
-0.0162683
0.0201165
0.017698
0.0152042
0.0141722
0.0146787
0.0165404
0.0192572
0.0157923
0.010873
0.00868993
0.0116871
0.0124808
0.0171057
0.0179163
0.0149845
0.013077
0.0154877
0.0178607
0.0147004
0.0144696
0.0203763
0.0181595
0.00678272
0.0180058
0.0187521
0.0104638
0.0108393
0.0203495
0.00342128
0.0106347
-0.00135329
0.0230209
-0.00368427
0.0147297
-0.00181189
0.0566222
0.0153578
0.0111368
0.00997645
0.0154225
0.0119152
0.0134374
0.0144551
0.0298373
0.0161228
0.00698832
0.00948187
0.0125908
0.00938327
0.02212
0.0329211
0.0164635
0.00877657
-0.00492187
0.0060153
0.0242096
0.0310459
0.0140677
0.00455939
0.0389432
0.0145002
0.0245781
0.0134268
-0.0136197
0.0194524
0.020076
0.0139329
0.0200937
0.000705055
0.0102439
0.00622115
0.00443964
0.00703838
0.0199065
0.00832534
0.0167367
0.00204408
0.00307698
0.0168869
0.0205701
0.0208379
0.0328454
-0.00190983
0.0349136
0.0180205
0.0383372
0.0275784
0.0274534
0.0252182
0.0289157
0.0241525
0.0242055
0.00570957
0.0211309
0.0110066
0.0232803
0.0300437
0.0131538
0.0194826
0.0148414
0.00270132
0.0237943
-0.00249859
-0.0073017
0.015501
0.021324
0.0109655
0.0121346
0.0167646
0.00425566
0.0154709
0.0186493
0.0138475
0.0182305
0.0135533
0.010028
0.0102182
0.0156788
-0.000228921
0.0182474
0.0293151
0.0168961
0.01863
0.0098717
0.0207053
0.0156459
0.0255377
0.0137447
0.0123241
0.0148825
0.0173816
0.0151851
0.0306302
0.0119543
0.00900078
0.0203605
0.0150465
0.00644758
0.0205671
0.0188903
0.0149626
0.00467489
0.0142339
0.0125142
0.0168137
0.00953824
0.00952657
0.0103727
0.0158475
0.0125016
0.0150695
0.0107484
0.00885565
0.0182374
0.0211673
0.00580785
0.00610009
0.0178641
0.0151638
0.00779141
0.0165364
0.0102237
0.0136607
0.0137616
0.0192052
0.0137666
0.0141623
0.00791422
0.017951
0.00606795
0.00625462
0.0129564
0.0226095
0.0186052
0.0252583
0.0200893
0.000240197
0.021206
0.0139227
0.00451163
0.0223961
0.0141829
0.0170371
0.0153908
0.0131622
0.0166966
0.0147441
0.013026
0.0140922
0.0172477
0.0061461
0.00612624
0.0075555
0.00489168
0.0167514
0.0119498
0.0161574
0.0152137
0.0123964
0.0177576
0.016636
0.0167095
0.0157141
0.0146577
0.00547071
0.0164643
0.0184388
0.00860129
0.0165407
0.0135572
0.0170736
0.00984126
0.00572705
0.0119832
0.00522398
0.0188422
0.0162026
0.000307171
0.017679
0.0153117
0.01502
0.00734658
0.00543366
0.0180636
0.0136584
0.0100164
0.0165598
0.0133048
0.0160647
0.0173831
0.0169065
0.0160434
0.0234273
0.0190144
0.0165209
0.00143073
0.0150554
0.0154648
0.00781894
0.00636652
0.01328
-1.61571e-05
0.026307
0.00782299
0.0102054
0.0596879
0.0143927
-0.00679077
0.0180505
0.00260458
0.00210522
0.011187
0.00524459
0.0165628
0.0157457
0.0224181
0.015763
0.0167364
0.0119225
0.0176018
0.00893627
0.0198253
0.00913227
0.0170688
0.0170951
0.0148262
0.00882667
0.0113705
0.0132862
0.0153436
0.0209352
0.0190167
0.0142235
0.0119563
0.0175201
0.0112114
0.01248
0.016969
0.00537876
0.0139013
0.00974709
0.0194727
0.0230106
0.0306533
0.00262115
0.00857056
0.0104409
0.00825209
0.0147995
0.0130504
0.0198845
0.00530237
-0.00867157
0.0200361
0.0140337
0.0152452
0.00446327
0.0266442
-0.00161957
0.0150011
0.0142677
0.010028
0.011859
0.0190359
0.0143761
-0.000316963
0.0493317
0.00282167
0.0288153
-0.00206522
0.00980006
0.0092811
0.00118567
0.00414108
0.0143302
-0.000484561
0.00274655
0.00943871
0.0160631
0.0344705
0.0122513
0.0182241
0.0105847
0.00856968
0.0447015
0.0258461
0.0020355
0.00690262
-0.00550468
0.0122878
0.0162138
-0.00642367
0.00505693
0.0151774
0.0102655
0.000354323
0.00939849
0.0135188
0.0414939
0.0180473
0.0299598
0.0102359
0.00229037
0.0295927
0.0204631
0.0123781
0.00149294
0.00838655
0.0217215
0.0297691
0.0235014
0.0439114
0.0227537
0.053381
0.0175472
0.0135349
0.0158881
0.0167649
0.0178888
0.0101845
0.0117992
0.009838
0.0109625
0.0162904
0.0156847
0.0171984
0.0107974
0.0190005
0.0169558
0.00924669
0.0129969
0.00248891
0.0152805
0.0150359
0.00937854
0.00501403
0.0127091
0.00783504
0.0177103
0.0171251
0.0109343
0.0359062
0.00490553
0.0268544
0.0150406
0.00487925
0.0159505
0.0283455
0.00730467
0.00527374
0.00640351
0.00438216
0.00805299
0.0280999
-0.0222665
0.0146838
0.015921
0.00890428
0.0199776
0.008254
0.0189609
0.0210128
0.000270387
0.0120055
0.0143652
0.0256496
0.0171632
0.0164139
0.0186209
0.0209264
0.0135904
0.0158405
0.0376913
0.0276643
0.0283562
0.0166987
0.00847643
0.0398673
0.00796515
-0.00624824
0.0490515
0.00704593
0.01546
0.0021878
0.0251035
0.0167012
0.0182624
0.0270111
0.0399116
0.0320607
0.000684561
0.0267155
0.0295482
0.0329011
0.0206199
0.0250607
0.0273308
0.0286442
0.0311494
0.0192755
0.023744
0.0261767
0.0241286
0.0243876
0.0287177
0.0285313
0.0318525
0.0336362
0.030736
0.0306934
0.0171747
0.0239124
0.00894295
0.0225932
0.0216324
0.00438717
-0.00282462
-0.0146188
0.00434177
0.0217159
0.0141876
0.0125139
0.0182424
0.0430192
0.0643975
0.0152769
0.0333683
0.0012011
0.0114936
-0.0067863
0.0350704
0.0303202
0.0187489
0.0252929
0.0166371
0.0185997
0.00939412
0.00295031
0.00965708
0.0113816
0.0141982
0.0163445
0.0147672
0.00902677
0.0105876
0.0143589
0.0025
0.0115132
0.00991972
0.0279444
0.00952064
0.0141643
0.0146976
0.0193736
0.0140497
0.00650417
0.0185129
-0.00344747
-0.00521284
0.0115834
0.00244819
0.0190644
0.000228858
-0.00236347
0.0166871
0.00961167
0.0287898
0.0299711
0.0046794
0.0181249
-0.00201151
-0.00807867
0.0169521
-0.00177144
0.00992272
0.0102952
0.0120141
0.0256014
0.0194328
0.00975495
0.011533
0.0136618
0.0246013
0.0259576
0.0122186
0.0222389
0.0106427
0.0127344
0.00365314
0.0216841
0.00716519
0.014946
0.00396853
0.00961848
0.018092
0.0148589
0.0147467
0.00967072
-0.00180102
0.0106808
0.0247789
-0.00638082
-0.0122189
0.0252794
0.0100872
0.019831
0.0186308
0.0250824
-0.00531662
0.0174097
0.0213084
0.0225991
0.0346684
0.00791703
0.0262313
0.033051
0.0197256
0.00611193
0.0174384
0.012553
0.0133908
0.00968352
-0.00380511
0.00573393
0.014377
0.0145187
0.0102558
0.00380739
0.00484094
-0.0045217
0.0280472
0.0393572
0.0188338
0.00340906
0.000535766
0.0119933
0.00322696
0.00943344
0.0199837
0.0307614
0.0138704
0.0419759
0.0156021
0.0235901
-0.000114243
0.00774725
0.0146976
0.0120477
0.00393099
0.00195724
0.00688256
0.0138409
0.0232436
0.0138728
0.0231019
0.0118179
0.0248851
0.023168
0.00451422
0.017922
0.0035798
SCALARS CoVolArea double 1
LOOKUP_TABLE default
415.949
410.87
253.679
145.435
372.298
404.099
203.228
416.047
311.286
334.906
278.649
331.231
344.667
516.119
574.153
599.704
624.946
509.759
500.178
702.301
493.631
391.792
508.408
377.36
759.557
361.639
686.724
608.119
113.327
462.012
464.15
611.195
417.946
694.842
411.388
358.027
711.654
434.838
485.099
491.291
1011.1
401.26
447.439
586.115
567.23
407.262
534.469
480.728
551.618
634.947
615.168
660.627
644.924
565.447
588.617
619.761
659.394
547.438
571.556
483.924
507.056
574.565
468.14
578.803
469.124
466.058
542.509
564.903
443.871
590.691
480.59
525.404
393.613
675.108
487.231
730.881
225.208
568.108
560.067
535.279
558.799
409.989
562.826
389.119
379.879
471.237
696.929
489.383
667.671
583.346
479.293
431.531
535.95
501.567
1136.47
476.153
347.346
233.004
524.732
494.902
335.141
368.725
322.618
406.787
530.925
447.125
494.908
486.811
448.89
556.64
467.38
554.45
456.796
651.266
414.089
676.745
462.497
663.651
652.106
542.46
458.697
481.944
432.213
627.981
349.094
524.33
360.621
359.6
474.485
327.106
318.366
468.849
523.889
708.197
604.015
512.256
169.862
274.106
589.583
381.855
519.11
527.572
482.09
704.907
851.867
423.011
390.301
650.298
439.058
424.576
651.584
617.992
509.432
670.993
474.593
580.17
575.354
460.181
405.966
588.612
456.827
372.978
491.99
526.459
552.558
473.797
495.325
386.678
552.315
559.932
613.668
393.596
453.392
381.98
559.846
492.256
411.758
384.411
479.482
436.271
516.111
564.08
558.057
608.352
560.269
536.215
597.436
606.315
631.235
592.671
657.093
670.093
645.065
574.189
572.303
574.786
633.459
665.349
667.895
508.339
596.727
610.641
600.439
569.332
566.991
556.136
529.594
589.833
557.287
659.321
631.248
623.16
541.618
550.078
594.986
666.213
689.489
766.527
513.059
516.116
665.981
548.68
483.31
474.189
530.248
492.959
536.72
535.877
515.888
497.839
575.682
663.766
509.79
534.231
496.507
538.483
512.708
443.168
449.701
510.952
533.418
671.816
608.742
620.818
531.828
537.471
493.887
468.155
496.858
483.779
479.768
517.545
477.785
540.554
469.818
636.911
412.756
465.485
511.138
516.334
441.205
474.118
489.434
496.397
581.053
478.981
538.972
499.293
511.908
487.718
492.313
456.973
459.28
390
351.266
488.28
636.181
572.976
543.452
620.105
530.947
458.31
442.554
353.638
414.165
534.115
171.179
467.481
626.855
481.556
760.451
532.226
579.098
586.649
591.25
541.461
434.866
510.374
504.52
516.434
502.026
587.149
503.57
542.698
513.73
583.949
412.464
431.342
393.267
491.228
450.132
363.329
396.27
460.512
570.141
629.635
645.595
622.81
568.748
564.176
486.931
523.977
314.67
382.953
311.509
522.822
480.781
685.989
548.596
733.196
404.327
411.723
577.927
685.547
473.746
411.856
607.966
468.386
538.966
655.734
718.842
469.886
608.182
442.636
315.555
451.266
340.072
162.21
576.675
413.893
685.078
393.394
600.436
829.389
830.137
695.554
909.291
822.817
353.773
334.644
276.269
609.677
393.98
545.645
309.127
235.472
406.754
804.205
670.525
619.272
524.529
409.282
688.733
605.569
463.888
565.172
599.954
478.439
484.796
168.391
323.159
183.83
561.831
687.938
291.279
448.894
383.795
601.342
452.717
380.782
267.619
408.034
183.478
439.687
237.688
462.393
449.356
484.204
471.102
420.542
534.677
431.082
483.059
523.129
498.183
451.931
447.508
422.104
462.838
491.136
485.541
500.305
482.512
478.302
444.838
559.297
538.856
477.017
483.119
490.534
481.613
501.651
234.179
459.635
313.93
536.637
620.313
513.689
363.786
504.326
555.325
512.535
812.896
578.172
590.034
794.05
706.931
455.042
619.65
387.498
618.186
485.728
449.71
599.8
557.39
487.094
510.612
413.893
457.278
533.085
475.168
678.115
448.908
291.415
405.359
440.634
553.616
516.175
505.168
640.802
741.248
284.577
406.287
395.356
488.25
399.07
425.926
454.127
379.689
456.404
423.431
613.073
334.81
349.181
335.156
476.129
412.21
451.537
350.078
247.101
668.369
438.802
320.732
366.555
373.981
319.923
407.79
345.053
328.415
279.418
483.542
709.248
299.949
646.452
327.325
562.157
800.76
631.647
660.268
845.159
561.721
632.296
547.049
535.592
221.017
150.595
499.791
272.66
514.59
277.717
740.772
251.471
279.66
367.859
296.803
380.03
488.514
696.851
421.198
429.762
447.809
764.252
393.082
607.054
508.846
412.943
404.622
806.965
651.928
793.952
208.208
741.853
274.933
383.901
508.462
506.74
609.456
520.084
800.263
559.144
648.768
952.968
492.842
446.788
524.955
478.514
384.049
315.126
285.514
800.111
560.865
614.177
681.636
694.884
662.599
649.4
493.514
429.62
376.177
351.947
481.006
630.339
542.612
375.403
392.737
503.248
469.128
630.19
486.63
551.534
396.545
542.874
413.321
543.468
593.534
539.978
503.384
464.603
600.34
622.534
732.282
506.348
675.789
793.668
604.136
743.963
518.564
586.81
338.111
721.538
575.071
352.068
379.066
269.048
541.995
243.01
263.685
477.269
452.888
375.836
398.288
507.334
736.677
844.186
803.064
706.152
570.83
612.927
595.766
647.92
714.762
402.482
210.509
416.83
455.819
636.527
468.688
664.915
532.276
338.971
189.484
506.511
285.058
508.503
425.055
658.064
496.406
387.612
371.115
567.164
480.678
549.029
496.185
494.49
558.182
382.909
467.658
423.271
375.59
618.432
425.171
476.575
SCALARS SignedDistance double 1
LOOKUP_TABLE default
31.2077
31.0787
32.3783
34.3031
36.6444
32.1333
33.9289
35.3083
39.8098
38.5721
39.0803
38.8924
36.8283
32.1707
27.7477
28.1847
28.9779
31.5261
31.36
38.2194
38.0493
40.4465
32.0927
35.8285
42.0505
36.161
44.4414
40.2839
34.165
36.9722
38.4856
39.7796
39.809
40.9343
35.1015
36.3202
38.8303
36.3307
40.7324
37.8654
44.3609
40.8026
31.1525
29.534
29.2205
35.7134
33.2877
35.483
28.9987
31.0762
32.3959
30.2284
28.8236
28.3564
27.2545
28.8575
30.365
29.4986
29.5434
30.3761
30.4765
29.2975
34.0314
32.0901
34.1081
33.0223
33.5868
36.2197
34.5956
39.8759
36.7837
39.2668
37.2703
42.5478
38.6503
38.6477
38.3991
30.3134
31.7478
32.3795
30.5572
36.2154
32.9875
36.1694
34.2531
33.4069
37.807
36.087
37.8992
36.8505
37.8518
40.9428
37.1412
40.6349
42.5245
36.0221
42.5065
38.6556
39.6549
39.1623
34.9208
35.7112
34.572
37.313
39.8571
34.7748
36.6323
33.6817
33.0957
40.0225
36.8307
39.9037
38.4315
35.4184
33.7877
38.1452
39.7154
42.8951
38.2584
34.6482
37.4511
28.4436
27.502
39.1727
36.7345
27.6004
26.2665
31.8699
28.5303
33.9535
30.8525
29.2855
32.6704
39.1726
33.1368
44.8251
40.8934
35.5208
35.444
40.3863
38.3364
40.1021
39
43.0484
42.7129
41.4049
38.3345
36.668
36.0528
35.1661
35.5792
34.7458
39.1795
34.8004
41.36
37.8764
40.0288
38.0084
35.9266
38.5361
37.9668
37.2297
30.1792
29.3895
30.0036
30.5649
30.0654
32.9696
28.2944
29.079
28.5673
36.9008
34.9389
37.7516
33.4369
34.3018
34.7173
35.8867
34.6155
34.3524
30.5342
30.9911
33.0575
29.223
30.1858
28.1694
32.682
31.4696
31.8459
31.2575
31.546
29.806
29.437
30.0476
27.4398
27.4414
30.2634
30.3066
29.2763
30.6125
29.2605
27.483
28.9143
28.2974
29.0185
27.3263
29.8704
29.2282
30.6653
29.265
30.3322
30.2082
28.54
27.4822
27.3474
27.3429
27.4277
29.6373
29.1991
30.7065
30.4937
29.512
30.7161
29.7624
30.2779
30.7793
29.8689
30.4922
30.0941
30.8063
29.0657
30.4705
36.0647
34.2946
36.0846
31.4091
32.8568
32.5194
32.4907
32.8905
31.4059
29.3295
30.7833
30.7234
31.3476
32.1476
31.7233
30.8758
36.0659
33.6964
35.338
35.8104
35.7696
36.9412
36.8065
37.2148
33.6017
32.589
40.1878
39.4409
38.2772
37.6351
38.5674
38.7463
39.3002
36.8951
36.5724
33.8724
36.3743
35.3208
32.2039
36.1747
33.2076
33.6643
37.6882
39.8503
41.0283
39.68
39.2843
41.2889
39.1582
38.2549
39.3333
37.5581
38.2341
38.4524
40.9571
39.9213
40.2482
38.2264
38.9056
38.3159
30.8969
31.5235
28.4438
29.1369
32.6899
30.6953
31.1578
31.7825
30.9331
32.0072
31.2326
32.2344
28.9146
28.2799
36.9667
36.6093
37.2922
33.2463
35.2473
35.9298
34.4428
35.0641
33.2529
29.7922
31.9682
31.9933
31.62
32.7889
34.6615
32.9895
34.3058
33.6788
35.1117
38.3886
37.1037
37.0233
36.8654
38.9221
35.7412
35.3258
41.017
40.8196
37.7159
36.4073
36.7403
37.6162
42.6973
40.6729
38.708
35.7215
36.2387
36.0433
37.6486
36.8393
40.1484
40.2846
42.7219
38.442
43.9398
39.9152
40.5223
45.273
42.092
38.964
43.5045
41.8154
35.5151
36.1727
34.5283
41.6908
38.5735
37.2776
38.5659
38.5725
43.2659
42.4469
45.4831
44.5321
38.4259
38.5055
40.6454
39.2956
37.2612
38.1176
38.5165
37.6861
36.6244
34.4889
35.1366
34.9481
37.5604
39.3962
34.3628
39.2533
37.6234
38.213
38.5081
36.0246
34.6484
38.3238
34.5183
37.3418
34.9908
37.9804
35.0856
36.1372
32.4872
33.7386
38.0626
36.1009
36.3812
31.732
31.2461
36.0147
33.7984
36.3974
30.8875
31.6707
39.0776
39.1737
39.9911
37.0192
38.2091
39.3293
38.8318
38.1997
37.8351
34.0297
36.0322
36.4805
38.2229
36.7645
33.1895
35.6775
36.2511
36.7597
33.2066
36.4643
36.046
38.3937
40.414
38.498
41.2578
43.3688
38.9071
45.8813
46.5531
40.5053
35.7022
34.9942
37.6507
36.6092
35.8864
36.3379
40.1033
35.6227
37.0245
35.7802
36.5381
34.5835
30.305
29.9615
30.33
29.6697
33.4435
28.7423
33.6585
35.7144
39.1328
36.5997
40.1169
39.7215
38.3643
35.1973
29.6765
28.4387
31.5756
30.4496
29.1842
35.4722
33.1698
28.9283
30.6992
31.301
30.9688
27.1546
29.122
33.2135
32.7332
27.7677
35.7619
30.4185
32.6131
30.5912
28.0459
31.5861
28.4093
32.8309
28.782
33.3803
33.2966
33.2202
33.2774
38.9904
46.1245
46.2285
45.1605
46.4573
38.1844
29.2119
32.6596
32.8439
39.5413
39.0181
43.4596
40.7502
40.6565
41.214
44.8074
34.3911
33.0598
36.7775
34.7564
36.9785
33.7122
46.535
40.4012
40.1595
39.9582
39.0543
38.6762
39.4938
38.7774
39.0983
38.3986
46.1727
36.7534
42.5693
40.8306
40.3567
40.2309
38.3318
40.608
40.2714
41.9098
40.4657
42.4943
41.4704
43.5881
44.3258
37.4933
38.6672
46.1296
41.4924
39.4286
38.3944
39.0301
45.9453
42.1555
44.7851
40.8187
37.9978
39.5587
37.1936
36.9719
37.111
34.4506
35.6374
37.0307
37.0666
32.1756
35.2457
33.5606
33.1492
34.0285
36.0168
35.9414
36.7119
35.9943
36.0048
35.6781
36.1086
36.2087
34.9453
37.2862
35.6729
36.731
37.4069
37.4849
38.4756
43.4132
43.1847
43.1926
35.1689
36.416
34.6821
32.8822
45.0073
33.9973
33.8849
35.122
35.0826
42.3793
39.9779
36.3959
37.8854
39.5893
37.6458
38.3259
38.7656
39.4809
44.8608
42.9948
35.7593
38.9853
38.0791
39.3835
39.784
41.224
38.7632
35.0816
39.0539
38.3057
37.5251
37.4789
40.3653
38.727
34.9438
35.0089
38.7577
36.0812
38.0616
38.0264
39.0113
39.1301
38.2988
38.3837
41.6232
38.8336
39.4018
40.957
39.8074
31.914
37.2907
33.4027
33.9734
37.6874
38.8017
38.3362
38.3213
