# vtk DataFile Version 4.2
vtk output
ASCII
DATASET POLYDATA
POINTS 642 double
-30.6393 18.6513 -81.5808
-30.0903 18.6495 -81.5809
-30.4806 17.6319 -81.6266
-30.2618 17.6343 -81.6245
-30.3677 17.7428 -81.2866
-30.3611 18.4601 -81.1051
-30.3717 17.7626 -81.942
-30.3641 18.3659 -82.0469
-29.9953 18.0349 -81.8829
-29.9526 18.082 -81.3254
-30.7395 18.0243 -81.8888
-30.7857 18.0733 -81.3264
-30.784 18.4274 -81.4136
-30.6232 18.309 -81.1409
-30.5283 18.642 -81.2933
-30.1979 18.6396 -81.2934
-30.3626 18.7507 -81.5796
-30.2099 18.5948 -81.8609
-30.5173 18.596 -81.8629
-30.5815 18.2226 -82.0327
-30.7726 18.4032 -81.7662
-30.846 18.0446 -81.6016
-30.1077 18.3117 -81.1446
-29.9508 18.4263 -81.4141
-30.5848 17.8569 -81.2328
-30.3632 18.1022 -81.0663
-30.6264 17.7191 -81.7435
-30.6467 17.7242 -81.5064
-30.3688 18.0112 -82.0687
-30.5288 17.8421 -81.9666
-29.9621 18.4044 -81.7621
-30.1499 18.2288 -82.0283
-30.0934 17.7317 -81.5028
-30.1504 17.8646 -81.2332
-30.3011 17.6472 -81.495
-30.4399 17.6447 -81.4983
-30.3729 17.6193 -81.6213
-30.4436 17.6462 -81.7649
-30.3021 17.6471 -81.7661
-30.2093 17.845 -81.9674
-30.11 17.7271 -81.7425
-29.893 18.0555 -81.6013
-30.7176 18.5731 -81.5014
-30.6746 18.5603 -81.3431
-30.6021 18.6695 -81.4482
-30.7333 18.1854 -81.2292
-30.7236 18.3832 -81.2608
-30.8061 18.2395 -81.3487
-30.4369 18.559 -81.1696
-30.5874 18.4994 -81.193
-30.4813 18.4067 -81.0997
-30.4524 18.7287 -81.4262
-30.5261 18.7183 -81.5806
-30.2865 18.5576 -81.1707
-30.3619 18.6683 -81.2747
-30.2003 18.7167 -81.5801
-30.273 18.7277 -81.4262
-30.126 18.6676 -81.4482
-30.4492 18.7031 -81.7309
-30.5932 18.6503 -81.7122
-30.1345 18.6479 -81.7111
-30.2768 18.7022 -81.7304
-30.4307 18.4874 -81.9819
-30.363 18.6185 -81.8769
-30.2965 18.4875 -81.9803
-30.6573 18.5256 -81.8249
-30.7123 18.5634 -81.6636
-30.4628 18.3091 -82.0562
-30.564 18.4335 -81.9697
-30.7809 18.1973 -81.851
-30.695 18.3289 -81.9233
-30.6838 18.1163 -81.9674
-30.8014 18.437 -81.5855
-30.8075 18.0325 -81.773
-30.8418 18.2367 -81.6889
-30.8473 18.2505 -81.5005
-30.8294 18.0604 -81.4411
-30.0561 18.558 -81.3428
-30.014 18.5708 -81.5018
-30.2434 18.4075 -81.1031
-30.1415 18.4974 -81.1952
-29.9315 18.2451 -81.3494
-30.0101 18.383 -81.2621
-30.0033 18.191 -81.2304
-30.4946 18.2132 -81.0729
-30.3619 18.3113 -81.0621
-30.7116 17.9746 -81.2648
-30.6277 18.0904 -81.1475
-30.3653 17.8796 -81.1554
-30.4872 17.976 -81.1195
-30.4553 17.7789 -81.2516
-30.7768 17.8635 -81.5352
-30.7565 17.8979 -81.3981
-30.7102 17.8694 -81.8352
-30.7602 17.8489 -81.6956
-30.5371 17.6511 -81.5888
-30.6402 17.7044 -81.6275
-30.5353 17.6503 -81.6685
-30.5643 18.0112 -82.0264
-30.6453 17.9267 -81.9443
-30.366 18.193 -82.0846
-30.4604 18.1048 -82.0751
-30.4347 17.7903 -81.9592
-30.4505 17.9238 -82.0334
-30.3707 17.8598 -82.0106
-30.1655 18.4344 -81.9652
-30.2667 18.3121 -82.0536
-30.0193 18.5605 -81.6635
-30.0727 18.5241 -81.8215
-30.0492 18.1256 -81.9619
-30.038 18.3326 -81.9169
-29.9547 18.2049 -81.8445
-30.2031 17.6557 -81.585
-30.214 17.669 -81.4965
-30.2789 17.635 -81.5698
-30.0262 17.9828 -81.2641
-30.1042 17.7799 -81.3712
-29.9834 17.9042 -81.3975
-30.33 17.6815 -81.3935
-30.2355 17.7091 -81.3769
-30.2787 17.7829 -81.2511
-30.341 17.626 -81.5667
-30.314 17.6238 -81.6224
-30.4092 17.6794 -81.3956
-30.3718 17.6408 -81.4957
-30.4308 17.6229 -81.6234
-30.4036 17.6255 -81.5675
-30.4626 17.6327 -81.5718
-30.34 17.6227 -81.6811
-30.279 17.6321 -81.6793
-30.4651 17.6308 -81.6807
-30.4068 17.6224 -81.6819
-30.337 17.7023 -81.8749
-30.3736 17.6416 -81.7699
-30.4081 17.7016 -81.8741
-30.2207 17.6679 -81.7585
-30.2052 17.6538 -81.6657
-30.3077 17.7909 -81.9595
-30.2573 17.7239 -81.8791
-30.0256 17.8809 -81.8315
-30.1447 17.7787 -81.8694
-30.0883 17.9347 -81.9417
-30.0985 17.712 -81.622
-29.93 18.0437 -81.7679
-29.9766 17.8621 -81.692
-29.9623 17.8726 -81.5341
-29.9085 18.0712 -81.4405
-30.2422 17.9797 -81.1214
-30.1046 18.0962 -81.1505
-30.2317 18.2157 -81.0755
-30.5246 17.6636 -81.5005
-30.5017 17.703 -81.3803
-30.6346 17.7724 -81.3731
-30.4852 17.7221 -81.8774
-30.5204 17.6651 -81.7578
-30.5923 17.773 -81.8687
-30.1693 18.0179 -82.0257
-30.288 17.9256 -82.0342
-30.2733 18.1092 -82.0746
-29.8905 18.2566 -81.5012
-29.8958 18.2429 -81.686
-29.9338 18.4358 -81.5865
-30.6741 18.6234 -81.5474
-30.6636 18.6259 -81.4722
-30.6265 18.663 -81.5259
-30.7351 18.4989 -81.377
-30.7021 18.5699 -81.4212
-30.7553 18.5075 -81.4561
-30.5687 18.6633 -81.369
-30.6394 18.6224 -81.3916
-30.6044 18.6086 -81.3147
-30.7684 18.1211 -81.2833
-30.7735 18.2166 -81.2851
-30.7989 18.1427 -81.332
-30.6777 18.3483 -81.1948
-30.7314 18.2872 -81.2369
-30.6842 18.2492 -81.1804
-30.801 18.3364 -81.3767
-30.7709 18.3169 -81.3039
-30.7595 18.4092 -81.3352
-30.392 18.5041 -81.1276
-30.4619 18.4878 -81.1295
-30.4108 18.4409 -81.0988
-30.5597 18.5784 -81.2387
-30.5132 18.5373 -81.1778
-30.4831 18.6065 -81.2255
-30.5539 18.3621 -81.1133
-30.5373 18.4545 -81.1393
-30.6087 18.408 -81.1597
-30.7041 18.4781 -81.2967
-30.6611 18.4471 -81.2222
-30.6358 18.5361 -81.2635
-30.5652 18.7009 -81.512
-30.5948 18.683 -81.5808
-30.4931 18.6919 -81.3553
-30.5307 18.7047 -81.4325
-30.4475 18.7424 -81.5801
-30.4896 18.7319 -81.5048
-30.4076 18.7488 -81.5031
-30.3302 18.5037 -81.1284
-30.3613 18.5645 -81.1668
-30.2772 18.6604 -81.2795
-30.3205 18.6192 -81.2188
-30.2418 18.6044 -81.2262
-30.4029 18.6199 -81.2185
-30.4474 18.6617 -81.2794
-30.1332 18.681 -81.5805
-30.162 18.6992 -81.512
-30.1026 18.6613 -81.526
-30.3173 18.7483 -81.5029
-30.2362 18.7307 -81.5048
-30.278 18.7415 -81.5797
-30.1583 18.661 -81.369
-30.1957 18.7031 -81.4327
-30.2326 18.6904 -81.3554
-30.4071 18.7073 -81.3462
-30.3174 18.7068 -81.3463
-30.3623 18.7374 -81.423
-30.5611 18.6903 -81.6487
-30.6221 18.6557 -81.6356
-30.4073 18.7355 -81.6565
-30.4873 18.7193 -81.6551
-30.558 18.6309 -81.7891
-30.5245 18.6814 -81.7254
-30.4864 18.6562 -81.7997
-30.1065 18.6533 -81.6351
-30.1659 18.6885 -81.6479
-30.2402 18.6549 -81.7986
-30.2022 18.6797 -81.7245
-30.1694 18.6289 -81.7874
-30.2388 18.718 -81.6545
-30.3183 18.735 -81.6563
-30.391 18.4205 -82.0232
-30.3635 18.4931 -81.9834
-30.3366 18.4208 -82.0226
-30.4423 18.6128 -81.8736
-30.4008 18.5591 -81.9332
-30.4737 18.5469 -81.9285
-30.2534 18.5465 -81.9264
-30.3256 18.5589 -81.9324
-30.2841 18.6122 -81.8723
-30.3628 18.7111 -81.7335
-30.3205 18.669 -81.8067
-30.4053 18.6694 -81.8071
-30.6557 18.6116 -81.6909
-30.6716 18.6193 -81.6147
-30.5887 18.5679 -81.8463
-30.6261 18.5953 -81.7712
-30.7473 18.4915 -81.7148
-30.6908 18.5484 -81.7463
-30.7202 18.47 -81.7978
-30.406 18.3434 -82.0538
-30.4504 18.4037 -82.0239
-30.577 18.332 -82.0087
-30.5146 18.3728 -82.0202
-30.5217 18.2691 -82.0498
-30.4978 18.4674 -81.9778
-30.543 18.5223 -81.92
-30.7617 18.095 -81.8774
-30.7358 18.16 -81.9161
-30.7195 18.0628 -81.9244
-30.7398 18.3707 -81.8487
-30.7442 18.2683 -81.8891
-30.7847 18.3031 -81.8129
-30.6373 18.1706 -82.0045
-30.6938 18.2227 -81.9545
-30.6412 18.2786 -81.9856
-30.6142 18.4859 -81.9029
-30.6325 18.3874 -81.951
-30.6816 18.4345 -81.8789
-30.7201 18.5722 -81.5816
-30.793 18.426 -81.6772
-30.7618 18.5053 -81.6273
-30.7644 18.5101 -81.5396
-30.798 18.4373 -81.4965
-30.771 18.0273 -81.8444
-30.8019 18.1173 -81.8128
-30.853 18.14 -81.6451
-30.8347 18.1321 -81.7318
-30.834 18.0387 -81.6898
-30.8174 18.2225 -81.7737
-30.8138 18.3254 -81.7299
-30.8259 18.1516 -81.3938
-30.8074 18.0683 -81.3727
-30.8219 18.3451 -81.4541
-30.8313 18.2498 -81.4208
-30.8432 18.052 -81.5173
-30.8463 18.1517 -81.4687
-30.8562 18.1465 -81.5509
-30.8295 18.3427 -81.6368
-30.8518 18.2473 -81.5934
-30.8321 18.3491 -81.5422
-30.0663 18.6241 -81.4721
-30.0562 18.6212 -81.5479
-30.124 18.6059 -81.3147
-30.0899 18.6202 -81.3913
-29.9778 18.5054 -81.4563
-30.029 18.5678 -81.4208
-29.9977 18.4973 -81.3768
-30.3118 18.441 -81.1004
-30.2621 18.4873 -81.132
-30.1217 18.4086 -81.163
-30.1896 18.4539 -81.1427
-30.1741 18.3645 -81.1175
-30.2126 18.5352 -81.1797
-30.1676 18.5756 -81.2396
-29.9391 18.1512 -81.3317
-29.9635 18.2219 -81.286
-29.9693 18.1285 -81.2832
-29.975 18.4087 -81.3356
-29.965 18.319 -81.3049
-29.9354 18.338 -81.3775
-30.0495 18.2525 -81.1834
-30.0035 18.2892 -81.2388
-30.0552 18.3496 -81.1973
-30.0945 18.5337 -81.2642
-30.071 18.4464 -81.2238
-30.0285 18.4767 -81.2971
-30.4223 18.3599 -81.0747
-30.3613 18.4015 -81.0826
-30.5617 18.264 -81.0998
-30.4923 18.3135 -81.08
-30.3625 18.2102 -81.0552
-30.4271 18.2626 -81.0607
-30.4271 18.1589 -81.0618
-30.7586 18.0328 -81.2977
-30.7282 18.0823 -81.239
-30.6134 17.9715 -81.179
-30.6749 18.0294 -81.2019
-30.6524 17.9135 -81.2419
-30.6845 18.1429 -81.1822
-30.6304 18.2035 -81.1361
-30.3665 17.7915 -81.2288
-30.4155 17.8267 -81.1979
-30.4025 17.7555 -81.2706
-30.4259 18.0403 -81.0847
-30.4233 17.9279 -81.1296
-30.3641 17.9879 -81.099
-30.5165 17.8116 -81.2375
-30.4761 17.8671 -81.1776
-30.5416 17.9128 -81.1707
-30.5649 18.153 -81.1022
-30.5588 18.033 -81.1246
-30.4942 18.0974 -81.0846
-30.8002 17.9785 -81.4171
-30.7802 17.9998 -81.3537
-30.8208 17.9535 -81.5638
-30.8149 17.9635 -81.4887
-30.7095 17.7996 -81.4508
-30.7698 17.8768 -81.4659
-30.7153 17.783 -81.5159
-30.7322 17.958 -81.8695
-30.7648 17.9453 -81.8091
-30.6921 17.7714 -81.7265
-30.7378 17.8536 -81.7687
-30.6738 17.7866 -81.7915
-30.7947 17.9413 -81.7334
-30.8144 17.9454 -81.6512
-30.5012 17.6377 -81.6126
-30.5372 17.649 -81.629
-30.5013 17.6373 -81.6428
-30.6448 17.7103 -81.5681
-30.5857 17.6711 -81.6048
-30.5859 17.6767 -81.5544
-30.5776 17.6748 -81.7015
-30.5826 17.6703 -81.6534
-30.634 17.7069 -81.6849
-30.7736 17.852 -81.6143
-30.7044 17.7645 -81.6575
-30.7127 17.7692 -81.5866
-30.6677 18.0174 -81.9626
-30.702 17.9809 -81.917
-30.5764 18.1132 -82.0382
-30.625 18.0643 -82.0049
-30.586 17.88 -81.9604
-30.6072 17.9659 -81.9889
-30.5487 17.9203 -82.0011
-30.3648 18.2936 -82.0694
-30.4128 18.2487 -82.0765
-30.4106 18.0551 -82.0755
-30.4128 18.1461 -82.0837
-30.3674 18.0974 -82.0829
-30.4653 18.2051 -82.0744
-30.5189 18.1628 -82.0627
-30.3974 17.773 -81.9503
-30.4047 17.8239 -81.9874
[...]
POINT_DATA 642
SCALARS Mean_Curvature double 1
LOOKUP_TABLE default
3.81687
3.8447
4.25224
4.09293
3.44488
3.92605
4.32409
3.31761
3.25872
3.19383
3.35468
3.22225
3.23983
3.35741
3.97953
4.03573
4.1917
3.60731
3.60317
3.44881
3.2243
3.14324
3.37493
3.239
3.65516
3.40566
4.16061
3.67156
3.51863
3.71882
3.28885
3.46032
3.49136
3.5009
3.27051
3.33224
4.28711
4.79852
4.78231
3.76604
4.10461
3.05002
3.5113
3.73012
3.93446
3.22798
3.27226
3.1269
3.9558
3.81779
3.74511
4.17834
3.9999
3.96792
4.11432
4.05298
4.19696
4.0249
3.92338
3.66567
3.71344
3.93952
3.39802
3.68605
3.33594
3.36213
3.53629
3.48975
3.40308
3.19036
3.19987
3.37527
3.16802
3.11684
3.05174
2.88523
2.88613
3.79642
3.5378
3.68823
3.806
3.06331
3.38715
3.20068
3.42741
3.49856
3.20581
3.27826
3.66849
3.44348
3.47853
3.35604
3.35955
3.56138
3.52239
4.02834
4.14473
4.61238
3.45666
3.46126
3.45351
3.30818
3.94293
3.51188
3.754
3.33925
3.47353
3.54375
3.47998
3.34069
3.12565
3.20325
3.86253
3.4312
3.64166
3.21703
3.63139
3.2833
3.38223
3.33084
3.47105
4.12148
4.0536
3.34939
4.2976
4.11425
3.98275
3.76753
4.68335
4.49486
4.58417
4.72411
4.16998
5.06403
4.30008
4.6266
4.43303
3.75076
4.0363
3.278
3.88332
3.53815
3.98067
2.9976
3.37104
3.32148
3.00515
3.4566
3.30585
3.51634
3.46009
3.44796
3.69089
4.00578
4.66298
3.79736
3.56268
3.61538
3.31251
2.9449
3.18216
3.13662
3.70385
3.74132
3.86297
3.42859
3.61549
3.35647
4.00412
3.87831
3.8951
3.19996
3.1899
3.22009
3.32724
3.18104
3.32386
3.03682
3.02207
3.2395
3.96539
3.89901
3.87055
3.91498
3.91559
3.95968
3.58374
3.80305
3.61617
3.54811
3.60996
3.78003
3.97905
3.88978
4.0796
4.07006
4.14876
4.12359
4.21473
3.9516
3.9173
4.10741
4.04127
4.00261
3.98634
4.03267
3.96609
4.05228
3.94688
4.2227
4.1533
4.15819
4.04752
4.1115
4.12144
4.18202
4.1882
4.2183
3.85414
3.72002
4.09117
3.97846
3.66755
3.83256
3.77298
3.79644
3.9404
3.7875
3.87927
3.6586
4.01123
4.08855
3.28472
3.55455
3.30668
3.67206
3.62973
3.51531
3.51572
3.63043
3.67924
3.97819
3.83991
3.83303
3.54471
3.65726
3.49317
3.47165
3.4181
3.40031
3.30935
3.35625
3.24558
3.28502
3.33925
3.47349
3.32677
3.45305
3.26462
3.3159
3.33384
3.20309
3.24462
3.17736
3.44508
3.33087
3.24016
3.42494
3.29544
3.28983
3.51665
3.1737
3.34101
3.35273
3.2527
3.23152
3.12538
2.98977
3.12533
3.11686
3.10436
3.13792
3.15725
3.1507
3.10321
3.06476
2.98916
3.01457
2.89644
2.86352
2.78774
3.01987
3.8747
3.72846
3.928
3.93344
3.38171
3.74308
3.54191
3.84304
3.88218
3.59819
3.77546
3.55459
3.89428
3.91042
3.2198
3.16991
3.25082
3.28333
3.12381
3.03499
3.31139
3.25064
3.4
3.8052
3.60917
3.59427
3.64678
3.80631
3.42146
3.48938
3.45927
3.42849
3.45989
3.195
3.20793
3.31414
3.13923
3.49409
3.27017
3.35768
3.64805
3.61626
3.45204
3.32644
3.58259
3.4571
3.74481
3.61872
3.54641
3.34366
3.33211
3.31215
3.11421
3.10066
3.13375
3.16581
3.73271
3.29516
3.71114
3.44938
3.39074
3.75449
3.60174
3.65632
3.26027
3.19718
4.19746
4.39803
4.45794
3.94933
4.1992
3.79473
4.56603
4.50508
4.21487
3.44031
3.7614
3.75714
3.39241
3.44108
3.50357
3.34844
3.65927
3.51656
3.60929
3.5113
3.43227
3.21016
3.27235
3.31751
3.55451
3.58381
4.25426
3.92611
3.99027
3.6178
3.72357
3.75412
3.70836
3.66045
3.47169
3.38581
3.33918
3.49481
3.32751
3.40418
3.49428
3.31366
3.48748
3.38772
3.25523
3.66298
3.58626
3.35379
3.45783
3.39878
3.50978
3.52723
3.32423
3.25383
3.23083
3.26292
3.36143
3.38966
3.23149
3.29103
3.13178
3.46154
3.29713
3.16785
4.01144
3.74744
3.88734
3.51331
3.59404
3.70354
3.38983
3.48342
3.33771
3.18139
3.22758
3.19894
3.73587
3.49758
3.42004
3.61757
3.6288
3.53315
3.43013
3.26246
3.49347
3.29402
3.23321
3.35382
3.62787
3.33969
3.5794
3.49026
3.44437
3.40959
3.80027
4.03274
3.84479
3.68303
4.18976
3.91227
4.00557
3.42285
3.51345
3.65268
3.58428
3.30481
3.67651
3.91446
4.18399
3.93497
4.03075
4.06925
3.89651
4.23921
3.49116
3.68776
3.42514
4.57759
4.71727
4.4152
4.21399
4.24803
4.46472
4.35789
4.70475
4.51435
4.81511
4.40138
4.37128
4.78877
4.58981
4.74745
4.34137
4.56626
4.24303
4.28311
4.43282
4.94457
4.66572
4.55621
4.54063
4.73265
4.95162
4.81791
5.05026
4.95608
4.48023
4.24049
4.75772
4.6836
4.46719
4.59629
4.41966
4.08812
4.03373
3.88745
3.87389
3.72746
4.03927
4.48504
3.26995
3.40304
3.38965
3.96937
3.61282
3.55736
3.68507
3.66844
3.83019
4.41143
3.9911
4.22764
4.16616
4.1581
4.33829
4.0097
3.64564
3.09332
3.21644
3.05803
3.28614
3.04768
3.26651
3.50191
3.01606
3.19051
3.65084
3.32923
2.95647
3.02621
3.11051
3.62128
3.3003
3.71392
3.70118
3.41742
3.57037
3.59321
3.40228
3.25973
3.34417
3.27344
3.22584
3.28751
3.58799
3.4866
3.50168
3.5166
3.4695
3.34089
3.37229
3.39207
3.882
3.37841
3.58384
3.6947
3.52683
3.31596
3.71898
3.45058
3.33177
3.32923
3.27643
3.51677
3.61138
3.46255
3.75782
3.41223
3.57615
3.50325
4.18355
4.40686
4.16326
3.99577
3.84793
4.60915
4.5069
4.69892
4.71278
4.69448
3.42972
3.75504
3.60134
3.57477
3.96038
4.31445
4.19459
3.93775
3.44538
3.61982
3.59875
3.46491
3.50504
3.74582
3.58199
3.68055
3.6316
3.68677
3.48313
3.57105
3.52252
3.35878
3.30256
3.5179
3.34869
3.44911
3.14463
2.95579
3.03472
3.05741
3.00555
3.08176
3.20223
3.14301
3.05932
3.10823
3.47732
3.16138
3.291
3.36524
3.22036
2.93685
2.97663
2.90356
SCALARS CoVolArea double 1
LOOKUP_TABLE default
0.00305831
0.00300793
0.000610326
0.000636557
0.00244341
0.00310879
0.00121845
0.00306933
0.00353261
0.0035606
0.00359629
0.00356826
0.00840412
0.00876409
0.00796711
0.00783049
0.00821343
0.00761566
0.00772928
0.00840502
0.00926709
0.00975612
0.0083507
0.00822999
0.00912538
0.00847158
0.00568721
0.00617903
0.00419313
0.00499948
0.00876161
0.00822376
0.00599835
0.00879598
0.00219626
0.00207407
0.00109375
0.00248528
0.00264756
0.00522549
0.0060581
0.00952198
0.00705162
0.00836767
0.00699045
0.00788227
0.00880138
0.00783667
0.00709584
0.00868413
0.00739561
0.00842524
0.00705792
0.00689961
0.00814926
0.0069621
0.00835436
0.00689921
0.00802986
0.00684781
0.0067297
0.00798663
0.00675997
0.00790694
0.00667544
0.00859474
0.00736231
0.0067473
0.00842635
0.0086385
0.00931483
0.0076481
0.00912081
0.00884314
0.0103099
0.00972582
0.00772062
0.00817494
0.0070555
0.0070737
0.00821767
0.00751281
0.00849034
0.00749982
0.00889195
0.00720047
0.00844876
0.00961818
0.00757593
0.0095144
0.0063567
0.00888592
0.0078373
0.00735303
0.00940391
0.00249695
0.00567207
0.00233881
0.00686606
0.00638037
0.0054232
0.00602041
0.00306331
0.00462682
0.00336609
0.00819318
0.00664102
0.00710858
0.00825894
0.00755851
0.00893153
0.00825615
0.00254885
0.00361971
0.00140282
0.00823048
0.00744828
0.00793844
0.00336227
0.00521551
0.00625011
0.00119161
0.000996785
0.00332235
0.00184706
0.000974061
0.00111964
0.00132029
0.00144596
0.00149469
0.00137907
0.00140746
0.00277581
0.00252666
0.00276198
0.00380571
0.00249564
0.0031055
0.00407703
0.00727602
0.00607169
0.00655592
0.00584564
0.00849967
0.00923083
0.00880866
0.00783063
0.00932491
0.0091366
0.00869417
0.00358748
0.00524106
0.00763906
0.00393539
0.00349623
0.00585291
0.00709744
0.00482002
0.00613007
0.009261
0.00969385
0.00876774
0.00518829
0.00663938
0.00517639
0.00836877
0.00753989
0.00780449
0.00758523
0.00749086
0.0081989
0.00595742
0.00749645
0.00589411
0.0088403
0.00826317
0.0084425
0.00828529
0.0081952
0.00858178
0.00525531
0.0069222
0.00535223
0.00832616
0.00778635
0.00766643
0.00824871
0.00799674
0.00880187
0.00918438
0.00936819
0.00911298
0.00674732
0.00517084
0.00812226
0.00757591
0.00780732
0.0077059
0.00840647
0.0051653
0.00667348
0.00799525
0.00741387
0.0074733
0.00748371
0.00807673
0.00505889
0.00663192
0.00510267
0.00836383
0.00761772
0.00775641
0.00749393
0.0075046
0.00806084
0.00887368
0.00882851
0.00904121
0.00655734
0.00516048
0.00822566
0.00747692
0.00736369
0.00725144
0.00781244
0.00505235
0.00647784
0.0077284
0.00719167
0.007257
0.00743367
0.00820656
0.00511491
0.00642676
0.00507472
0.00782937
0.00720048
0.00734497
0.00724428
0.00716617
0.0077531
0.00863701
0.00845019
0.00849519
0.00680228
0.00527765
0.00808866
0.0075321
0.00841326
0.00792855
0.00899203
0.00504389
0.00658566
0.00861494
0.00760602
0.00762752
0.00742082
0.00805634
0.00632588
0.00786349
0.00583976
0.00935096
0.00890392
0.0092033
0.00821485
0.0085564
0.00899473
0.00908243
0.00945754
0.0096022
0.00687599
0.00933459
0.00810013
0.00784403
0.00871789
0.00634159
0.00844417
0.0103172
0.00962376
0.00970399
0.00943836
0.00984785
0.0075325
0.00580475
0.00901385
0.00854667
0.00871163
0.00870931
0.00994077
0.0104535
0.010816
0.0100982
0.0066096
0.00517529
0.00799831
0.00738161
0.00775882
0.00748646
0.00823218
0.00522122
0.00662874
0.00828961
0.00751298
0.00782091
0.00742839
0.00802647
0.00575213
0.00718104
0.00578615
0.00833996
0.00784248
0.00796864
0.0080037
0.00787259
0.00844925
0.00876956
0.00896515
0.00892264
0.00694721
0.00531697
0.00891517
0.0079969
0.00782896
0.00781087
0.00862933
0.00615011
0.00781246
0.00988408
0.00905337
0.00918741
0.00861649
0.00911555
0.00500508
0.00684527
0.00435822
0.0090078
0.0084099
0.00842749
0.00779842
0.00822951
0.00956721
0.00992693
0.0103594
0.0098708
0.00738059
0.00600143
0.00935031
0.00822367
0.00757068
0.00810262
0.00779429
0.00583798
0.00795768
0.00760128
0.00842666
0.00703491
0.00934899
0.00996548
0.0013173
0.00226111
0.00129105
0.00594341
0.00369229
0.00408507
0.00371682
0.00352906
0.00556091
0.00981852
0.00818652
0.00827109
0.00675249
0.00547785
0.00781639
0.00744406
0.00579169
0.00658223
0.00592063
0.00477871
0.00584259
0.00479265
0.00543637
0.00471209
0.0065585
0.0074411
0.00210682
0.00307044
0.00227213
0.00488809
0.00379098
0.00389219
0.00378398
0.00374816
0.00426273
0.00686508
0.00545875
0.00597083
0.00645675
0.00498993
0.0078687
0.00725467
0.00747763
0.00742082
0.00836966
0.0051778
0.00660717
0.00854098
0.00759317
0.00795909
0.00732743
0.00788988
0.00578604
0.00760886
0.00612726
0.00869997
0.00826615
0.00807558
0.00875294
0.00851498
0.0089266
0.00877005
0.0091875
0.00912894
0.00136329
0.00177273
0.00102194
0.00472271
0.00292096
0.00404111
0.00169565
0.00214051
0.00274612
0.00608298
0.00788049
0.00612278
0.00820504
0.00839412
0.00885276
0.00747265
0.00789884
0.00661386
0.00327912
0.00452193
0.00433404
0.00342557
0.00404651
0.00272973
0.00757667
0.00573295
0.00719099
0.00579585
0.00670991
0.0045949
0.0010583
0.000859588
0.00154015
0.00123266
0.00103353
0.00103975
0.00106416
0.0032761
0.0030722
0.0018575
0.0024169
0.00263667
0.00246016
0.0019502
0.000827612
0.00100275
0.000977989
0.00104003
0.000987698
0.00102478
0.00158719
0.00113883
0.00143029
0.00151396
0.00146172
0.00119761
0.00109389
0.00103503
0.00121231
0.00111686
0.0019667
0.00138572
0.00192114
0.000977365
0.00104077
0.00181868
0.00129763
0.00180322
0.00109207
0.00120883
0.00200763
0.00261682
0.00200385
0.0025387
0.0028199
0.00296038
0.00287905
0.00279869
0.00246026
0.00154339
0.00199829
0.00203144
0.0017953
0.00135491
0.00309347
0.00231255
0.00401808
0.00295204
0.00478208
0.00211165
0.00269011
0.00454152
0.00343379
0.00403016
0.0032108
0.0035067
0.00573879
0.00654803
0.00549154
0.00626858
0.00670227
0.00717462
0.00604791
0.00627146
0.00558434
0.00447468
0.00530356
0.00549095
0.00235095
0.00592754
0.00372063
0.00376032
0.00587956
0.00615153
0.00775276
0.00957782
0.00901649
0.00929679
0.00830417
0.00783157
0.00755867
0.00586619
0.00767342
0.00815401
0.00876992
0.00836479
0.00923414
0.00836547
0.00959592
0.00824118
0.00679035
0.00925682
0.008065
0.00833905
0.00893947
0.00750235
0.00868741
0.00815046
0.0086244
0.00945096
0.0068412
0.00855425
0.00774168
0.00776995
0.00859671
0.0099794
0.00957437
0.00968449
0.00170767
0.00264105
0.00205294
0.00288508
0.00482416
0.00454503
0.00739219
0.00582401
0.00401976
0.00333497
0.00786376
0.00679099
0.00798459
0.00858614
0.00847488
0.00456807
0.00683922
0.00589618
0.0026696
0.00333483
0.00314996
0.00336344
0.00438198
0.001669
0.00442921
0.00270863
0.00210825
0.0028473
0.00652477
0.00536481
0.00609193
0.00658621
0.00598055
0.00420711
0.00517497
0.00508012
0.00685032
0.00618512
0.00681533
0.00752109
0.00786284
0.00309952
0.00438003
0.00384223
0.00391034
0.00510954
0.00582322
0.00745162
0.00654774
0.0054688
0.00486985
0.00623399
0.00565077
0.00706426
0.00738009
0.00961763
0.00852972
0.00818127
0.00866297
0.00806538
0.00927757
0.00893059
0.00912587
0.00981589
0.00679227
0.00852185
0.00775451
0.00780772
0.00879987
0.0102029
0.0098513
0.00962418
SCALARS SignedDistance double 1
LOOKUP_TABLE default
1.30628
1.31857
1.27296
1.2686
1.23048
1.32322
1.36368
1.20991
1.13644
1.12396
1.14524
1.12611
1.25674
1.24557
1.35893
1.3691
1.38512
1.29535
1.29759
1.13871
1.14613
1.05982
1.25287
1.26538
1.10009
1.21687
1.18923
1.12077
1.2611
1.26992
1.15503
1.13415
1.12991
1.1009
1.32328
1.3186
1.35107
1.28931
1.27755
1.24546
1.16828
1.07971
1.30164
1.3324
1.35989
1.16851
1.26405
1.15775
1.3372
1.30859
1.30376
1.39343
1.35857
1.35643
1.3986
1.3593
1.39088
1.3566
1.35986
1.30468
1.30901
1.35803
1.25827
1.32062
1.25473
1.23404
1.23642
1.15111
1.21579
1.1184
1.16298
1.12278
1.2197
1.09811
1.07808
1.15662
1.11153
1.33034
1.30981
1.3118
1.32214
1.16149
1.25968
1.17371
1.23503
1.29388
1.11674
1.1709
1.16362
1.14603
1.15079
1.10088
1.08162
1.1379
1.11343
1.23038
1.15668
1.2257
1.19024
1.18623
1.18907
1.16179
1.34225
1.27033
1.32224
1.22051
1.15819
1.24326
1.23448
1.13525
1.14886
1.12322
1.23421
1.24104
1.30475
1.11505
1.07761
1.07398
1.28881
1.1982
1.1576
1.36253
1.31558
1.27984
1.3697
1.31817
1.35261
1.3025
1.31718
1.26812
1.27647
1.31582
1.33138
1.31404
1.3421
1.22622
1.21127
1.32298
1.2874
1.14258
1.22958
1.17333
1.13849
1.09026
1.08559
1.07265
1.12995
1.1706
1.17503
1.23722
1.23885
1.19579
1.09589
1.308
1.24055
1.23408
1.17878
1.25789
1.16826
1.14187
1.08282
1.20532
1.29947
1.33239
1.32515
1.30495
1.32977
1.28864
1.36737
1.35232
1.34489
1.13812
1.1599
1.13035
1.25193
1.20572
1.20326
1.21015
1.21248
1.26412
1.32486
1.31609
1.31687
1.33119
1.32187
1.3484
1.28217
1.30245
1.28801
1.30344
1.29657
1.32023
1.3514
1.32777
1.3855
1.37929
1.37926
1.37803
1.3876
1.33345
1.34596
1.38741
1.37593
1.36648
1.36749
1.37905
1.33547
1.35947
1.3373
1.38881
1.37987
1.37793
1.36493
1.37449
1.38392
1.40287
1.40208
1.39829
1.33539
1.30325
1.38147
1.36457
1.30822
1.33564
1.332
1.30994
1.33549
1.33027
1.33529
1.30588
1.35998
1.37891
1.22839
1.27385
1.22925
1.31405
1.29125
1.27891
1.27977
1.29168
1.31449
1.3759
1.34586
1.34655
1.26617
1.27791
1.27257
1.27322
1.19317
1.22558
1.19212
1.18065
1.19614
1.175
1.17365
1.14029
1.23208
1.25634
1.12576
1.12373
1.14627
1.15878
1.13326
1.11917
1.12972
1.12594
1.1509
1.23196
1.19961
1.1978
1.26722
1.17741
1.22407
1.26189
1.24444
1.12984
1.10207
1.06686
1.07105
1.0714
1.08868
1.11303
1.13273
1.12942
1.20933
1.15856
1.0674
1.12012
1.09813
1.15268
1.12525
1.1938
1.33737
1.31154
1.34849
1.34781
1.29692
1.33212
1.31092
1.32759
1.33497
1.29469
1.31976
1.28793
1.34185
1.34695
1.12871
1.16422
1.14034
1.26553
1.21448
1.21788
1.21188
1.21365
1.25519
1.32669
1.29602
1.30277
1.30662
1.32261
1.2401
1.27628
1.2508
1.26107
1.22402
1.13149
1.15298
1.11921
1.1389
1.09581
1.17803
1.20654
1.18809
1.15927
1.1983
1.18726
1.15156
1.17319
1.11249
1.13024
1.1142
1.20224
1.15445
1.1935
1.09785
1.11478
1.08396
1.08705
1.07207
1.08894
1.08518
1.13872
1.12369
1.13974
1.12755
1.16173
1.10627
1.08899
1.25833
1.22612
1.25218
1.13749
1.1886
1.18547
1.20349
1.19524
1.17292
1.10866
1.12415
1.11403
1.16625
1.15587
1.13546
1.15825
1.22839
1.19966
1.23526
1.18439
1.15728
1.21581
1.17018
1.22001
1.13256
1.1289
1.35709
1.33689
1.35298
1.27489
1.31321
1.30759
1.29031
1.30159
1.26273
1.17241
1.21844
1.22759
1.19652
1.18621
1.25903
1.22627
1.14054
1.17632
1.16987
1.28729
1.27334
1.19558
1.23238
1.19996
1.27147
1.26742
1.14674
1.13107
1.13613
1.13484
1.1148
1.13358
1.12269
1.11955
1.16197
1.2356
1.20543
1.19669
1.25568
1.27202
1.28464
1.18805
1.24243
1.19264
1.32191
1.28547
1.28552
1.12551
1.09442
1.10546
1.08749
1.0851
1.10018
1.07302
1.0585
1.10661
1.26361
1.22628
1.20483
1.26864
1.24824
1.30861
1.12052
1.17571
1.11954
1.16523
1.13943
1.2214
1.31289
1.28964
1.35309
1.33474
1.34143
1.34047
1.36752
1.25231
1.30838
1.3459
1.33178
1.30538
1.34408
1.35611
1.29264
1.31308
1.2857
1.35393
1.33765
1.33507
1.31621
1.33214
1.3457
1.38425
1.36819
1.37268
1.29086
1.26607
1.34163
1.31569
1.27105
1.29289
1.29467
1.27339
1.29597
1.30473
1.3
1.28099
1.31807
1.33099
1.36394
1.34526
1.36164
1.30108
1.31936
1.29517
1.31331
1.31849
1.30611
1.32867
1.31379
1.32044
1.24184
1.24395
1.25305
1.24483
1.18242
1.21495
1.19717
1.35411
1.34
1.28307
1.31264
1.28565
1.30992
1.27309
1.11962
1.16442
1.14604
1.19601
1.19275
1.16459
1.20926
1.20992
1.24414
1.2489
1.25834
1.22331
1.21876
1.14771
1.17557
1.18721
1.13932
1.11709
1.089
1.07965
1.0591
1.07757
1.11325
1.12826
1.10156
1.11159
1.07546
1.07085
1.0814
1.08542
1.08887
1.07945
1.07836
1.07051
1.16669
1.13897
1.14923
1.16253
1.19161
1.14734
1.21108
1.17428
1.14544
1.13671
1.30005
1.22674
1.25598
1.2689
1.24629
1.1779
1.21225
1.20863
1.26975
1.28317
1.28089
1.23683
1.18305
1.21595
1.11723
1.16667
1.24241
1.26883
1.0983
1.11377
1.08255
1.08818
1.09079
1.22538
1.14413
1.17207
1.35705
1.29034
1.32981
1.33027
1.29776
1.25251
1.21524
1.23139
1.25709
1.26525
1.16116
1.25503
1.21263
1.18446
1.20732
1.26577
1.24077
1.27459
1.16127
1.21184
1.17272
1.15825
1.14386
1.32569
1.26464
1.29218
1.28741
1.25141
1.16454
1.13169
1.14079
1.17921
1.22379
1.21456
1.21912
1.17366
1.12731
1.09128
1.12369
1.16046
1.20965
1.11688
1.11239
1.1047
1.08954
1.07391
1.27264
1.24492
1.26063
1.22144
1.17084
1.10483
1.13568
1.18043
