# vtk DataFile Version 4.2
vtk output
ASCII
DATASET POLYDATA
POINTS 642 double
-30.3745 18.1538 -81.5828
-30.3647 18.1538 -81.5828
-30.3722 18.137 -81.5824
-30.3672 18.137 -81.5824
-30.3697 18.1382 -81.5748
-30.3696 18.1503 -81.5747
-30.3697 18.1399 -81.5894
-30.3695 18.1515 -81.5925
-30.3604 18.145 -81.5889
-30.3596 18.145 -81.5764
-30.3786 18.1448 -81.5889
-30.3797 18.1449 -81.5763
-30.3785 18.1512 -81.5792
-30.3749 18.1487 -81.574
-30.3723 18.1525 -81.5784
-30.3669 18.1525 -81.5784
-30.3696 18.1542 -81.5829
-30.3665 18.1542 -81.5879
-30.3726 18.1542 -81.588
-30.3746 18.1489 -81.5923
-30.3788 18.1517 -81.5864
-30.3815 18.1447 -81.5824
-30.3644 18.1487 -81.5741
-30.3609 18.1511 -81.5793
-30.3749 18.1405 -81.5739
-30.3696 18.1451 -81.5715
-30.3755 18.1388 -81.585
-30.3763 18.1384 -81.5798
-30.3696 18.1448 -81.593
-30.3734 18.1414 -81.5902
-30.3605 18.1517 -81.5864
-30.3644 18.149 -81.5922
-30.363 18.1384 -81.5798
-30.3644 18.1406 -81.5739
-30.368 18.1368 -81.5795
-30.3714 18.1368 -81.5796
-30.3698 18.1368 -81.5823
-30.3713 18.1376 -81.5853
-30.3682 18.1376 -81.5854
-30.3658 18.1414 -81.5903
-30.3636 18.1388 -81.5851
-30.3577 18.1449 -81.5825
-30.3763 18.153 -81.5813
-30.3753 18.1522 -81.5787
-30.3737 18.1533 -81.5808
-30.378 18.1468 -81.5747
-30.377 18.1501 -81.5763
-30.3798 18.148 -81.5772
-30.3708 18.1514 -81.5763
-30.3736 18.151 -81.5761
-30.3717 18.1498 -81.5742
-30.371 18.1535 -81.5807
-30.3724 18.1541 -81.5829
-30.3683 18.1514 -81.5763
-30.3696 18.1526 -81.5783
-30.3668 18.1541 -81.5829
-30.3682 18.1535 -81.5806
-30.3656 18.1534 -81.5808
-30.3711 18.1545 -81.5853
-30.3738 18.1542 -81.585
-30.3653 18.1542 -81.585
-30.368 18.1545 -81.5853
-30.3709 18.1532 -81.5908
-30.3695 18.1544 -81.5882
-30.3681 18.1532 -81.5907
-30.3757 18.1534 -81.5874
-30.3765 18.1535 -81.5842
-30.3717 18.1505 -81.5928
-30.3739 18.1524 -81.5907
-30.3796 18.1482 -81.5883
-30.3772 18.1507 -81.5899
-30.3772 18.1468 -81.5908
-30.3791 18.1519 -81.5826
-30.3804 18.1448 -81.5864
-30.3811 18.1487 -81.5847
-30.3811 18.1486 -81.5804
-30.381 18.1448 -81.5787
-30.364 18.1522 -81.5787
-30.363 18.153 -81.5814
-30.3674 18.1498 -81.5742
-30.3656 18.1511 -81.5762
-30.3596 18.1481 -81.5773
-30.3623 18.15 -81.5764
-30.3613 18.1469 -81.5749
-30.3723 18.1471 -81.5723
-30.3696 18.1485 -81.5729
-30.378 18.1429 -81.5748
-30.3757 18.145 -81.5728
-30.3696 18.1408 -81.5723
-30.3725 18.1427 -81.5718
-30.3717 18.1389 -81.5741
-30.3796 18.1411 -81.5806
-30.3791 18.1416 -81.5775
-30.3778 18.1418 -81.5874
-30.379 18.1411 -81.5842
-30.3735 18.1372 -81.5816
-30.3759 18.1383 -81.5825
-30.3734 18.1375 -81.5833
-30.3743 18.1448 -81.592
-30.3763 18.143 -81.5899
-30.3695 18.1485 -81.5935
-30.3718 18.1467 -81.5932
-30.3711 18.1404 -81.5899
-30.3715 18.143 -81.5919
-30.3697 18.1418 -81.5912
-30.3651 18.1524 -81.5906
-30.3673 18.1506 -81.5927
-30.3627 18.1534 -81.5842
-30.3635 18.1534 -81.5874
-30.3618 18.1469 -81.5908
-30.3619 18.1507 -81.5898
-30.3596 18.1483 -81.5883
-30.3658 18.1372 -81.5816
-30.3659 18.1371 -81.5796
-30.3675 18.1368 -81.5812
-30.3613 18.143 -81.5748
-30.3632 18.1391 -81.5768
-30.3601 18.1416 -81.5776
-30.3687 18.1372 -81.5771
-30.3664 18.1376 -81.5768
-30.3675 18.139 -81.5741
-30.369 18.1366 -81.5811
-30.3684 18.1368 -81.5824
-30.3706 18.1371 -81.5772
-30.3697 18.1367 -81.5795
-30.3711 18.1368 -81.5824
-30.3705 18.1367 -81.5811
-30.3718 18.1368 -81.5812
-30.369 18.137 -81.5836
-30.3676 18.1371 -81.5836
-30.3718 18.1372 -81.5836
-30.3705 18.137 -81.5836
-30.3689 18.1388 -81.5878
-30.3698 18.1376 -81.5854
-30.3705 18.1388 -81.5878
-30.3663 18.1379 -81.5853
-30.3659 18.1374 -81.5833
-30.3682 18.1404 -81.5899
-30.3671 18.1391 -81.588
-30.3612 18.1419 -81.5875
-30.3644 18.14 -81.588
-30.3628 18.1431 -81.59
-30.3632 18.1383 -81.5825
-30.3587 18.145 -81.5864
-30.36 18.1412 -81.5843
-30.3596 18.1412 -81.5807
-30.3583 18.145 -81.5788
-30.3667 18.1428 -81.5719
-30.3636 18.1451 -81.5729
-30.3668 18.1471 -81.5723
-30.3734 18.1372 -81.5796
-30.3729 18.1376 -81.5769
-30.3761 18.139 -81.5769
-30.3722 18.1391 -81.5879
-30.373 18.1379 -81.5852
-30.3748 18.14 -81.5878
-30.3648 18.1449 -81.592
-30.3677 18.1431 -81.592
-30.3673 18.1468 -81.5932
-30.3583 18.1487 -81.5806
-30.3582 18.1488 -81.5847
-30.3602 18.1518 -81.5827
-30.3753 18.1535 -81.5822
-30.375 18.1532 -81.581
-30.3742 18.1536 -81.582
-30.3769 18.1519 -81.5789
-30.3759 18.1527 -81.58
-30.3774 18.1523 -81.5803
-30.373 18.153 -81.5796
-30.3744 18.1529 -81.5798
-30.3737 18.1524 -81.5786
-30.3792 18.1457 -81.5755
-30.379 18.1475 -81.5759
-30.3799 18.1462 -81.5765
-30.376 18.1494 -81.575
-30.3776 18.1486 -81.5753
-30.3766 18.1478 -81.5742
-30.3793 18.1498 -81.5781
-30.3785 18.1492 -81.5767
-30.3778 18.1507 -81.5777
-30.3701 18.1508 -81.5753
-30.3713 18.1507 -81.5752
-30.3704 18.1501 -81.5745
-30.3729 18.1519 -81.5773
-30.3721 18.1513 -81.5762
-30.3716 18.152 -81.5773
-30.3733 18.1493 -81.574
-30.3727 18.1504 -81.5751
-30.3743 18.15 -81.575
-30.3762 18.1513 -81.5775
-30.3753 18.1507 -81.5762
-30.3745 18.1517 -81.5774
-30.373 18.1537 -81.5818
-30.3736 18.1539 -81.5828
-30.3717 18.153 -81.5795
-30.3723 18.1534 -81.5807
-30.371 18.1542 -81.5829
-30.3717 18.1538 -81.5818
-30.3703 18.1539 -81.5818
-30.3691 18.1508 -81.5753
-30.3696 18.1514 -81.5763
-30.3682 18.1526 -81.5784
-30.3689 18.152 -81.5773
-30.3676 18.152 -81.5773
-30.3702 18.152 -81.5773
-30.3709 18.1525 -81.5784
-30.3655 18.1539 -81.5829
-30.3662 18.1538 -81.5818
-30.365 18.1536 -81.582
-30.3689 18.1539 -81.5818
-30.3675 18.1539 -81.5818
-30.3682 18.1542 -81.5829
-30.3662 18.153 -81.5796
-30.3669 18.1535 -81.5807
-30.3675 18.1531 -81.5795
-30.3703 18.1531 -81.5795
-30.3689 18.1531 -81.5795
-30.3696 18.1535 -81.5806
-30.3731 18.1542 -81.5839
-30.3743 18.154 -81.5837
-30.3703 18.1544 -81.5841
-30.3717 18.1544 -81.584
-30.3733 18.1543 -81.5865
-30.3725 18.1544 -81.5852
-30.3718 18.1545 -81.5866
-30.3649 18.154 -81.5837
-30.3661 18.1542 -81.5839
-30.3672 18.1545 -81.5866
-30.3666 18.1544 -81.5852
-30.3658 18.1543 -81.5864
-30.3674 18.1544 -81.584
-30.3688 18.1544 -81.5841
-30.3701 18.1523 -81.5919
-30.3695 18.1532 -81.5908
-30.3689 18.1523 -81.5918
-30.3711 18.1543 -81.5881
-30.3703 18.1539 -81.5895
-30.3718 18.1538 -81.5894
-30.3673 18.1538 -81.5894
-30.3687 18.1539 -81.5895
-30.368 18.1543 -81.5881
-30.3695 18.1546 -81.5853
-30.3687 18.1546 -81.5867
-30.3703 18.1546 -81.5867
-30.3752 18.1539 -81.5847
-30.3753 18.1537 -81.5833
-30.3741 18.1539 -81.5877
-30.3747 18.154 -81.5862
-30.3777 18.1529 -81.5853
-30.3762 18.1535 -81.5858
-30.3773 18.1527 -81.587
-30.3704 18.1511 -81.5927
-30.3714 18.152 -81.5919
-30.3744 18.1509 -81.5917
-30.3729 18.1516 -81.5919
-30.3732 18.1498 -81.5927
-30.3724 18.1529 -81.5908
-30.3733 18.1535 -81.5894
-30.3792 18.1462 -81.5888
-30.3785 18.1475 -81.5897
-30.3782 18.1456 -81.5897
-30.3782 18.1513 -81.5882
-30.3786 18.1496 -81.5892
-30.3795 18.1501 -81.5875
-30.3761 18.1479 -81.5917
-30.3774 18.1488 -81.5906
-30.376 18.1499 -81.5913
-30.3749 18.1531 -81.5891
-30.3756 18.1517 -81.5904
-30.3766 18.1524 -81.5888
-30.3765 18.1533 -81.5827
-30.3791 18.1519 -81.5845
-30.3778 18.1528 -81.5835
-30.3777 18.1526 -81.5819
-30.3789 18.1516 -81.5808
-30.3794 18.1448 -81.588
-30.3802 18.1465 -81.5874
-30.3816 18.1467 -81.5836
-30.3811 18.1467 -81.5856
-30.3811 18.1448 -81.5845
-30.3805 18.1486 -81.5866
-30.3801 18.1504 -81.5857
-30.3807 18.1465 -81.5778
-30.3803 18.1448 -81.5772
-30.3799 18.1501 -81.5797
-30.3806 18.1484 -81.5787
-30.3814 18.1448 -81.5804
-30.3813 18.1466 -81.5795
-30.3817 18.1467 -81.5814
-30.3804 18.1506 -81.5836
-30.3813 18.1487 -81.5825
-30.3803 18.1504 -81.5816
-30.3643 18.1532 -81.5811
-30.364 18.1535 -81.5823
-30.3655 18.1524 -81.5786
-30.3648 18.1529 -81.5798
-30.3619 18.1522 -81.5804
-30.3634 18.1526 -81.58
-30.3625 18.1518 -81.579
-30.3687 18.1502 -81.5745
-30.3679 18.1507 -81.5753
-30.365 18.15 -81.5751
-30.3665 18.1504 -81.5751
-30.366 18.1494 -81.5741
-30.367 18.1513 -81.5762
-30.3663 18.1519 -81.5773
-30.3595 18.1463 -81.5767
-30.3604 18.1476 -81.576
-30.3602 18.1458 -81.5756
-30.3615 18.1506 -81.5778
-30.3608 18.1492 -81.5768
-30.3601 18.1497 -81.5783
-30.3628 18.1479 -81.5743
-30.3617 18.1486 -81.5755
-30.3633 18.1494 -81.5752
-30.3648 18.1517 -81.5774
-30.364 18.1507 -81.5762
-30.3632 18.1513 -81.5776
-30.3707 18.1492 -81.5735
-30.3696 18.1497 -81.574
-30.3737 18.1479 -81.573
-30.3721 18.1486 -81.5732
-30.3696 18.147 -81.572
-30.3709 18.1478 -81.5725
-30.371 18.1461 -81.5717
-30.3791 18.1441 -81.5756
-30.3782 18.1449 -81.5745
-30.3755 18.1427 -81.573
-30.377 18.1439 -81.5736
-30.3765 18.1416 -81.5742
-30.3769 18.146 -81.5737
-30.3754 18.147 -81.5732
-30.3696 18.1391 -81.5737
-30.3708 18.1398 -81.5731
-30.3705 18.1385 -81.5745
-30.371 18.144 -81.5715
-30.371 18.1418 -81.5719
-30.3696 18.143 -81.5715
-30.3732 18.1396 -81.5739
-30.3722 18.1406 -81.5727
-30.3738 18.1415 -81.5727
-30.374 18.1461 -81.5723
-30.3741 18.1439 -81.5721
-30.3725 18.1451 -81.5717
-30.3803 18.1432 -81.578
-30.3797 18.1435 -81.5767
-30.3808 18.1429 -81.5814
-30.3806 18.143 -81.5796
-30.3779 18.1397 -81.5786
-30.3794 18.1412 -81.579
-30.3779 18.1395 -81.5801
-30.3784 18.1436 -81.5884
-30.3792 18.1432 -81.587
-30.3772 18.1397 -81.5847
-30.3784 18.1413 -81.5859
-30.3768 18.1401 -81.5862
-30.38 18.143 -81.5853
-30.3806 18.1429 -81.5834
-30.3727 18.1371 -81.5821
-30.3735 18.1373 -81.5825
-30.3727 18.1372 -81.5828
-30.3761 18.1383 -81.5812
-30.3747 18.1377 -81.582
-30.3747 18.1376 -81.5809
-30.3744 18.138 -81.584
-30.3745 18.1378 -81.583
-30.3757 18.1385 -81.5837
-30.3794 18.141 -81.5824
-30.3775 18.1395 -81.5832
-30.3778 18.1394 -81.5817
-30.3769 18.1448 -81.5905
-30.3777 18.1441 -81.5894
-30.3746 18.1468 -81.5924
-30.3758 18.1458 -81.5916
-30.3748 18.1421 -81.5902
-30.3754 18.1438 -81.591
-30.3739 18.1429 -81.5912
-30.3695 18.1503 -81.5931
-30.3706 18.1495 -81.5933
-30.3706 18.1457 -81.5932
-30.3706 18.1476 -81.5934
-30.3696 18.1466 -81.5934
-30.3719 18.1487 -81.5932
-30.3732 18.1478 -81.593
-30.3703 18.1401 -81.5896
-30.3704 18.1411 -81.5906
[...]
POINT_DATA 642
SCALARS Mean_Curvature double 1
LOOKUP_TABLE default
24.6538
24.7905
22.8595
22.8506
26.347
24.0773
23.1991
28.9017
26.6104
28.12
26.2264
28.3359
26.1756
26.6187
19.4632
19.5638
19.1561
25.3969
25.3875
27.5178
27.9707
28.3903
25.984
26.1662
27.0183
27.1507
21.8529
24.4494
25.2576
22.0976
28.1774
27.6217
24.5386
26.5871
23.724
23.8985
22.9548
23.1931
22.0956
22.8442
22.7262
28.2845
25.2468
24.2152
23.0782
27.4811
26.1033
27.4094
20.5004
24.5417
25.234
15.2675
21.6565
20.7137
15.0955
21.5958
17.3025
22.3873
22.2973
24.8163
24.584
22.4397
27.4394
24.823
27.4787
26.6858
26.2397
28.5008
27.3031
28.283
28.078
26.7654
27.1191
27.3282
28.7731
27.9646
28.4126
24.2866
25.3825
24.8821
23.6712
27.2661
25.7316
27.0672
26.8858
26.0949
27.8643
27.5125
27.2534
27.4209
26.6968
26.4952
27.4403
23.658
24.9092
22.5109
23.0688
21.9107
24.1999
23.559
27.7807
26.4564
24.4295
24.2274
23.8674
27.7671
28.6258
26.3207
26.7132
26.7773
28.2042
28.1659
23.2046
23.8856
23.1618
27.4548
25.6964
27.2952
24.7193
24.9931
26.5083
23.1226
22.7536
24.9289
23.7927
23.1298
23.3283
23.2172
22.4735
22.4533
22.8482
22.9816
22.1652
22.5925
23.6103
22.1828
22.641
22.6906
22.0731
24.7314
22.3577
24.0229
23.6004
27.5575
25.8109
26.7098
28.3243
27.1458
26.8743
26.5949
23.5333
25.021
25.9845
22.9639
21.6784
21.0797
24.8927
24.1583
26.6394
28.1554
28.8101
27.4837
24.9377
24.2214
23.8843
25.214
24.6642
25.6605
21.5262
23.5614
23.1413
27.9841
27.455
28.0334
26.3474
26.8947
27.0309
26.6998
26.7799
25.9978
22.6295
23.4726
24.5473
22.5477
22.4661
18.9487
26.0223
24.802
25.7303
25.1663
25.3844
24.227
22.2129
23.7973
16.2699
19.5016
19.4557
18.5967
16.6949
22.6637
20.0967
17.0901
17.816
19.4603
17.0098
15.0013
23.3627
21.6772
23.7977
17.6641
19.419
20.0772
20.7704
19.7287
18.0127
13.7003
15.6202
15.2716
23.6199
24.7588
20.6349
21.7141
24.9017
23.5446
23.9913
24.693
23.2439
23.9648
23.3833
24.7628
21.8547
20.9329
28.4639
27.4487
28.4675
24.9763
26.1883
26.2882
26.3473
26.1866
24.9746
21.9834
23.5082
23.4387
25.5914
25.4372
25.9442
25.7323
27.1922
26.5076
27.393
28.8464
28.3822
27.8412
28.0364
27.8926
27.3708
26.4472
27.3749
27.635
26.4677
28.0769
28.2623
28.528
27.1436
27.8458
27.9226
26.9502
27.7394
27.5548
25.8066
27.6801
26.7464
26.1894
26.5724
26.72
28.0092
28.7834
28.5575
27.9893
28.7009
28.4829
28.0966
28.3662
27.0421
27.5811
28.4601
28.3429
28.6004
28.0875
28.4269
27.5102
24.4554
25.1325
22.3307
23.6007
25.7159
24.7679
25.1687
24.4804
23.206
25.0982
24.1071
25.3977
22.0077
21.6682
27.8276
27.1687
27.6694
25.7754
26.4713
26.6239
26.4907
26.4657
25.832
24.0237
25.028
24.9673
25.6604
25.1853
26.7356
26.2184
26.841
26.5301
27.0917
28.1476
27.9049
27.5384
27.7663
27.4967
27.5328
27.1661
26.8782
27.0987
26.5786
27.3718
27.435
27.4145
26.6861
27.1895
27.2102
27.1743
27.3732
27.2568
28.0498
28.1281
27.5751
27.9149
26.1146
27.0721
25.3864
25.049
25.4625
23.0647
24.1393
22.4273
26.1987
26.9684
22.7099
22.1908
22.5179
23.7657
22.4987
23.0944
21.4994
21.9768
22.434
25.7405
23.8266
24.612
25.1732
24.9616
26.1102
25.5682
22.3174
23.7925
22.684
28.6642
28.2905
25.8548
27.2315
26.5631
27.7316
26.9255
23.8483
24.1671
23.4968
23.3148
24.1421
23.4369
24.4564
24.2812
24.8015
25.3359
24.9952
23.9069
28.482
28.8459
26.6876
27.6256
28.2239
28.3676
28.0746
25.5567
25.6185
27.5394
26.5429
27.3371
25.6925
25.9636
26.6477
27.6151
27.4396
27.9677
27.8594
27.0842
28.5411
28.2954
28.2534
27.0343
27.7923
27.9122
22.9898
23.1968
22.9881
24.0212
23.5051
23.6259
23.382
23.4356
23.7925
27.8561
27.4373
27.9316
26.1744
26.8656
26.9757
26.1174
26.5681
25.0933
25.5672
25.6636
26.422
24.2527
24.8401
24.1441
26.5434
25.8016
25.9316
24.5303
25.1956
24.3702
22.9428
22.7885
23.3462
23.1214
22.7834
22.912
23.0057
25.664
24.8058
23.8828
24.2858
24.3586
24.1633
23.6798
23.0362
23.1711
23.022
23.1354
23.1977
23.0851
23.5179
23.3329
23.5765
23.424
23.5338
23.2462
22.6055
22.654
22.7284
22.5828
22.2593
22.4248
22.2505
22.8184
23.0321
23.0577
23.0417
22.9496
23.0683
22.9467
22.6889
22.7578
23.3488
22.1636
22.3097
22.0314
23.5106
22.9345
23.069
22.743
22.8312
22.4657
22.5248
22.7594
22.1157
22.3053
22.588
22.3925
22.3507
22.8239
22.321
22.3352
22.2806
22.7302
22.0698
22.0355
25.7676
24.2866
25.4654
22.4974
23.2153
23.6982
23.0595
22.8249
22.4602
22.0808
22.1423
22.2073
22.9159
23.1429
22.8849
23.2354
24.0877
27.0769
26.3017
27.2515
26.8257
27.9813
25.286
24.2034
27.9066
28.2345
25.6486
27.0631
28.3806
27.8249
27.5939
24.6929
26.2729
25.1641
26.9298
26.9142
26.9595
27.2729
27.2154
27.4938
26.573
26.9911
27.2332
26.8822
25.5356
26.9507
26.3974
25.8733
26.2337
26.9098
26.6931
26.9642
22.9338
23.781
23.3025
22.9619
23.6976
25.8462
25.9055
25.9133
25.0195
24.3561
27.7064
25.2091
26.7609
27.2194
26.5969
24.2132
25.1758
24.3923
24.2477
23.2958
24.1335
24.0817
22.238
22.4193
21.0261
21.7285
22.4421
22.6476
23.5179
21.1441
22.2007
22.2063
21.3021
21.9358
20.7632
21.1735
25.431
23.6537
24.0095
25.5927
26.2792
23.1629
24.7757
23.8183
23.258
23.4492
28.3033
27.2438
27.8822
27.2338
25.9
24.5441
25.3234
25.8709
28.0318
28.6267
28.3564
27.6254
27.1836
27.9396
28.6061
28.5947
28.4057
28.6813
25.9698
26.783
26.3528
26.931
27.9834
28.6449
28.3857
27.8395
SCALARS CoVolArea double 1
LOOKUP_TABLE default
4.02031e-05
3.92925e-05
9.56323e-06
1.03026e-05
4.67643e-05
4.04386e-05
1.9516e-05
5.66449e-05
6.97422e-05
7.35663e-05
6.9504e-05
7.33847e-05
0.000167813
0.000164536
9.72329e-05
9.52591e-05
9.39523e-05
0.000129194
0.000131857
0.000175123
0.000197847
0.000222931
0.00015556
0.000162185
0.000190488
0.000172187
9.84268e-05
0.000117162
8.58766e-05
9.31814e-05
0.000183566
0.000171173
0.000119557
0.000188574
4.17443e-05
3.86391e-05
1.77923e-05
3.79464e-05
4.11191e-05
9.90493e-05
0.000110326
0.0002198
0.000113291
0.000128114
8.86034e-05
0.000167509
0.000167667
0.000172928
8.87034e-05
0.000129772
0.000113549
9.25259e-05
8.58125e-05
8.63497e-05
9.07402e-05
8.41258e-05
9.14468e-05
8.68428e-05
0.000109807
0.000101976
9.94214e-05
0.000108819
0.000126676
0.00012911
0.000124904
0.000162076
0.000126569
0.00013388
0.00016797
0.000189937
0.000199236
0.000159152
0.000190386
0.000189938
0.000240217
0.000227509
0.000173008
0.000124072
0.00011231
0.000108427
0.000122502
0.000163902
0.000159796
0.000158477
0.000172046
0.000121736
0.000180769
0.000205309
0.000155999
0.00020051
0.000127284
0.000185092
0.000166037
0.000143076
0.00018819
4.22888e-05
0.000100709
3.73781e-05
0.00014068
0.000125718
0.00011025
0.000124687
5.263e-05
9.10045e-05
6.22177e-05
0.000162713
0.000131415
0.000120935
0.000154
0.000158172
0.000189348
0.000180792
4.52789e-05
6.99314e-05
2.45693e-05
0.000179266
0.000155995
0.000172839
6.72246e-05
0.000106762
0.000127337
2.07465e-05
1.63403e-05
6.57342e-05
3.45713e-05
1.56639e-05
1.93309e-05
2.25001e-05
2.24963e-05
2.36919e-05
2.13022e-05
2.16741e-05
4.39699e-05
3.82915e-05
4.33843e-05
6.23811e-05
4.16335e-05
5.39092e-05
6.8428e-05
0.00014801
0.000112078
0.000132346
0.000109532
0.000185852
0.000192933
0.000189895
0.000176432
0.000198029
0.000195613
0.000167362
6.64847e-05
0.000103989
0.000153917
6.46877e-05
5.54359e-05
0.000104166
0.000146219
9.50601e-05
0.000126918
0.000212897
0.000222023
0.000179739
7.44599e-05
9.34752e-05
6.66904e-05
0.000147175
0.000118335
0.000140745
9.38664e-05
0.000103173
0.000110534
0.000125931
0.000160842
0.000126681
0.000166072
0.000169522
0.000171873
0.000178206
0.000171506
0.000166993
6.66885e-05
9.43752e-05
7.46609e-05
0.000111312
0.000104771
9.41341e-05
0.000140356
0.000120395
0.000148358
0.000157552
0.000158198
0.000136704
8.15776e-05
6.52252e-05
9.26374e-05
8.85067e-05
9.10911e-05
8.81219e-05
9.23246e-05
6.56142e-05
8.10847e-05
9.10863e-05
8.6808e-05
9.17197e-05
8.76507e-05
9.22213e-05
6.33761e-05
7.96555e-05
6.52885e-05
9.17007e-05
8.66926e-05
9.018e-05
9.22176e-05
8.71752e-05
9.15537e-05
9.64826e-05
9.58241e-05
9.679e-05
8.69708e-05
7.15529e-05
0.00010157
9.52191e-05
0.000117622
0.000102972
0.000119636
6.95683e-05
8.53084e-05
0.000117785
0.000101457
0.000115063
9.41699e-05
0.000101147
9.58059e-05
0.000118817
9.4965e-05
0.000129401
0.000127525
0.000132877
0.000130627
0.000126776
0.000127782
0.000116029
0.000125756
0.000126639
0.000107636
7.87205e-05
0.000144302
0.000126867
0.000164297
0.000142932
0.000180529
9.63384e-05
0.000127217
0.000177657
0.000152134
0.000155848
0.000143135
0.000150565
0.000130861
0.000166885
0.000117399
0.00020064
0.000194654
0.000205011
0.000172714
0.000182913
0.000190001
0.000176996
0.000195452
0.000196659
0.000113526
0.000197632
0.000153419
0.000144676
0.00017839
0.000128766
0.000183867
0.000241282
0.000218879
0.000217038
0.000214531
0.000221833
0.000168865
0.000124487
0.000198835
0.000195132
0.000199637
0.000202544
0.000234438
0.000236633
0.000254519
0.000226918
9.22999e-05
7.3713e-05
0.000107315
0.000100913
0.000138378
0.000116333
0.000143118
7.28542e-05
9.05102e-05
0.000138934
0.000112982
0.000132421
0.000100065
0.000107153
0.000123042
0.000152657
0.000122115
0.00016016
0.000162033
0.000168973
0.000161657
0.000159774
0.000157176
0.00013084
0.000150219
0.000151477
0.000110851
7.83929e-05
0.000169123
0.000139145
0.00014805
0.000141194
0.000171206
0.0001293
0.000167364
0.000211938
0.000195805
0.000195413
0.000183769
0.000185625
9.89257e-05
0.000138237
8.50397e-05
0.000187388
0.000175191
0.000176197
0.000159591
0.000169768
0.000201578
0.000203304
0.000220017
0.000204014
0.000159927
0.000126803
0.000205005
0.000180882
0.00015318
0.000170939
0.000153788
0.000114279
0.000161205
0.000140766
0.000165933
0.000130287
0.000196315
0.000214855
2.13166e-05
3.69173e-05
2.03252e-05
0.000108909
6.33701e-05
7.29636e-05
6.10582e-05
5.88073e-05
9.67209e-05
0.000200445
0.000153644
0.000159026
0.000136456
0.000107287
0.000162606
0.000154044
0.000111799
0.000132674
0.000116728
9.25897e-05
0.000116631
9.91357e-05
0.000111992
9.77222e-05
0.000133787
0.000153908
3.47666e-05
5.45741e-05
3.89155e-05
9.35387e-05
6.99827e-05
6.97675e-05
7.44862e-05
7.15563e-05
8.58874e-05
0.000141741
0.000111712
0.000120061
0.000124427
9.50893e-05
0.00014629
0.000139538
0.000152497
0.000148006
0.00017201
7.66709e-05
0.000103655
0.000168964
0.000135243
0.000153031
0.00012223
0.00013958
0.00011781
0.000161745
0.000127978
0.000183001
0.000176175
0.000169947
0.000191977
0.000184465
0.000188769
0.000169653
0.000186122
0.000187518
2.29578e-05
3.11375e-05
1.71485e-05
9.23613e-05
5.41291e-05
7.60758e-05
3.09934e-05
3.93062e-05
5.25991e-05
0.000129351
0.000170975
0.000131388
0.000174272
0.000181013
0.00019281
0.0001573
0.000168671
0.00013559
6.45843e-05
9.09417e-05
8.53497e-05
6.79467e-05
8.20193e-05
5.37245e-05
0.000158875
0.000117944
0.000150424
0.000117033
0.000138618
9.17756e-05
1.7842e-05
1.39993e-05
2.79491e-05
2.15656e-05
1.69193e-05
1.75541e-05
1.78855e-05
6.41706e-05
6.08666e-05
3.46562e-05
4.68937e-05
5.10882e-05
4.79747e-05
3.67366e-05
1.31332e-05
1.65376e-05
1.59176e-05
1.73998e-05
1.64475e-05
1.65996e-05
2.83293e-05
1.95817e-05
2.56116e-05
2.72421e-05
2.61881e-05
2.07174e-05
1.75117e-05
1.65733e-05
1.92399e-05
1.7855e-05
3.0753e-05
2.17781e-05
2.95839e-05
1.51913e-05
1.62866e-05
2.76241e-05
2.00221e-05
2.76014e-05
1.71928e-05
1.9079e-05
3.19373e-05
4.09318e-05
3.17464e-05
3.88185e-05
4.35067e-05
4.63565e-05
4.45148e-05
4.29841e-05
3.72749e-05
2.38019e-05
3.02586e-05
3.09141e-05
2.89384e-05
2.21583e-05
4.9102e-05
3.68654e-05
6.91867e-05
4.85435e-05
8.20308e-05
3.50581e-05
4.41041e-05
8.09644e-05
5.86016e-05
7.32173e-05
5.21575e-05
5.61061e-05
0.000116034
0.000131765
0.000110228
0.00011461
0.000130671
0.000139946
0.000119241
0.000122572
0.000104277
7.38435e-05
9.28731e-05
9.48354e-05
4.02125e-05
0.000108727
6.52155e-05
6.80605e-05
0.000113624
0.000127515
0.000162372
0.000212256
0.000195239
0.000210839
0.000171378
0.000153032
0.00016667
0.000126405
0.000158195
0.000177391
0.000202377
0.000187726
0.000207341
0.000165152
0.000203597
0.00016609
0.000138251
0.000198533
0.000168807
0.000174599
0.000186146
0.000161413
0.000176007
0.000173617
0.000188475
0.000205863
0.000108974
0.000169314
0.000139414
0.0001345
0.000161977
0.000213387
0.000195556
0.000200097
2.8868e-05
4.90349e-05
3.64006e-05
5.10808e-05
8.98675e-05
8.99977e-05
0.00014982
0.000116872
7.97642e-05
6.44188e-05
0.000166646
0.000133168
0.000164678
0.000179718
0.000174148
8.79705e-05
0.000136084
0.000114038
4.33011e-05
5.23253e-05
5.04054e-05
5.65124e-05
7.65306e-05
2.60013e-05
7.28105e-05
4.28556e-05
3.2632e-05
4.40999e-05
0.000126653
9.75665e-05
0.000115228
0.000122899
0.000104494
6.75908e-05
8.62263e-05
8.65072e-05
0.000140392
0.000123323
0.000139204
0.000156662
0.00016396
5.53519e-05
8.82365e-05
7.35e-05
7.26896e-05
9.86226e-05
0.000116042
0.000154175
0.000133424
0.000112569
0.000100657
0.000125867
0.000115674
0.000146068
0.000164432
0.000224937
0.000196824
0.000184215
0.000188043
0.000176701
0.000204631
0.000200914
0.000207672
0.000228285
0.00011113
0.000171891
0.000141376
0.000145826
0.000182575
0.000235418
0.000217894
0.000211952
SCALARS SignedDistance double 1
LOOKUP_TABLE default
1.55034
1.55715
1.53114
1.54238
1.53166
1.57052
1.54259
1.54995
1.51261
1.5101
1.51069
1.51128
1.53162
1.54375
1.56324
1.57282
1.57423
1.55638
1.54627
1.52612
1.51908
1.50099
1.54717
1.53135
1.51907
1.54762
1.52101
1.51651
1.54445
1.52905
1.52228
1.53544
1.5191
1.52305
1.54152
1.53009
1.53942
1.53447
1.54583
1.53924
1.52527
1.50319
1.54268
1.54897
1.55635
1.52539
1.53803
1.51781
1.56833
1.55546
1.55996
1.56891
1.5611
1.57861
1.57534
1.57164
1.5816
1.56403
1.56062
1.54824
1.55615
1.57319
1.54681
1.55974
1.55953
1.53301
1.53708
1.5391
1.5334
1.50789
1.51946
1.51552
1.52515
1.50308
1.50468
1.50959
1.50387
1.55312
1.54605
1.56928
1.56178
1.51778
1.53854
1.52392
1.54616
1.56322
1.51497
1.52829
1.53562
1.53112
1.52557
1.50801
1.50887
1.51369
1.51074
1.52669
1.51997
1.52735
1.52562
1.5185
1.54567
1.53539
1.53747
1.5362
1.54361
1.54257
1.55167
1.54095
1.53887
1.52063
1.52553
1.51198
1.53485
1.53205
1.54302
1.51361
1.51717
1.50693
1.53586
1.53092
1.5356
1.54081
1.54444
1.5294
1.53538
1.53483
1.53565
1.53131
1.54216
1.54462
1.5324
1.53679
1.54424
1.53989
1.53833
1.53835
1.53591
1.54907
1.54416
1.51536
1.53062
1.52352
1.52352
1.50512
1.50967
1.50705
1.5043
1.53898
1.53014
1.55422
1.52412
1.52254
1.51476
1.53229
1.5288
1.52379
1.53445
1.54964
1.54801
1.51218
1.50909
1.52696
1.54729
1.54977
1.55281
1.54061
1.54558
1.53748
1.55993
1.55309
1.55654
1.51656
1.52203
1.51309
1.54103
1.53217
1.53434
1.52438
1.52912
1.53486
1.56987
1.56453
1.56642
1.55981
1.56235
1.56609
1.55234
1.55779
1.55009
1.54386
1.54711
1.55237
1.55884
1.5548
1.56614
1.56276
1.56764
1.5653
1.57161
1.57405
1.5736
1.58111
1.5775
1.57681
1.5719
1.56938
1.56307
1.56799
1.5599
1.57822
1.57692
1.5807
1.56845
1.57288
1.57728
1.57243
1.57865
1.57541
1.55489
1.54955
1.56773
1.5612
1.54707
1.55422
1.55339
1.55672
1.56408
1.56458
1.56439
1.55599
1.57279
1.57471
1.54834
1.55322
1.5537
1.55281
1.55282
1.54611
1.55752
1.55975
1.56521
1.56763
1.56733
1.56017
1.54265
1.54521
1.53979
1.54081
1.52823
1.53444
1.52616
1.54531
1.54229
1.52907
1.53562
1.53273
1.5402
1.53946
1.50864
1.51192
1.51226
1.51857
1.51394
1.51159
1.52018
1.51638
1.5222
1.53244
1.52624
1.52529
1.5406
1.52125
1.53163
1.53477
1.52804
1.50739
1.50416
1.501
1.50127
1.50066
1.50517
1.51111
1.50898
1.50774
1.52004
1.51344
1.50151
1.50507
1.50265
1.51337
1.50713
1.51666
1.55526
1.55268
1.5634
1.5591
1.5388
1.54914
1.54223
1.57325
1.5751
1.55488
1.56544
1.55874
1.5715
1.56778
1.51248
1.52075
1.51496
1.53464
1.52812
1.52449
1.53494
1.53155
1.54281
1.55746
1.55046
1.54611
1.56199
1.56824
1.54577
1.55429
1.55545
1.5547
1.54679
1.51305
1.51935
1.52205
1.52064
1.51658
1.52708
1.53595
1.5325
1.52981
1.52905
1.53888
1.53341
1.54062
1.5222
1.52685
1.52421
1.53699
1.52955
1.5377
1.50523
1.50862
1.50313
1.50324
1.51179
1.50768
1.5127
1.51137
1.50861
1.51604
1.51191
1.51726
1.50515
1.50344
1.52965
1.52713
1.52969
1.51861
1.52374
1.52199
1.52446
1.52399
1.52039
1.5097
1.51537
1.51481
1.51639
1.5136
1.52503
1.52025
1.52386
1.52171
1.52708
1.54843
1.54216
1.54008
1.54023
1.54448
1.53612
1.53065
1.54054
1.54027
1.54323
1.53239
1.5366
1.53362
1.54407
1.54014
1.54034
1.53065
1.53589
1.53124
1.55471
1.55385
1.54887
1.55109
1.54396
1.54649
1.53849
1.55068
1.54851
1.5302
1.53908
1.53104
1.54754
1.54769
1.5154
1.51566
1.5112
1.53016
1.52226
1.52742
1.51631
1.51858
1.52276
1.53985
1.5309
1.53371
1.53981
1.53922
1.54322
1.52572
1.53321
1.52749
1.54267
1.53827
1.53757
1.5111
1.50921
1.50717
1.51897
1.51347
1.51762
1.51155
1.51172
1.51742
1.53323
1.537
1.53466
1.53699
1.53704
1.53873
1.52931
1.53216
1.52563
1.52424
1.52398
1.53101
1.54595
1.54514
1.5411
1.5435
1.54195
1.54317
1.54062
1.53017
1.53254
1.53268
1.53246
1.52955
1.53548
1.5383
1.53275
1.53376
1.53167
1.53802
1.53583
1.53701
1.53071
1.53345
1.53308
1.53819
1.53552
1.53811
1.54581
1.54332
1.54074
1.54322
1.54614
1.54473
1.5438
1.53166
1.53365
1.53559
1.53457
1.53328
1.53579
1.53807
1.54333
1.54122
1.54071
1.54283
1.54196
1.54506
1.53616
1.53898
1.53709
1.53941
1.53816
1.54097
1.54062
1.53992
1.54356
1.54184
1.53093
1.53682
1.53227
1.54512
1.54652
1.54219
1.54786
1.54621
1.54767
1.54613
1.51288
1.51912
1.51658
1.52726
1.52313
1.52001
1.53143
1.527
1.53476
1.54074
1.53785
1.5344
1.53555
1.52417
1.53019
1.52982
1.52164
1.50905
1.50901
1.50426
1.50573
1.50294
1.51207
1.51751
1.50443
1.50723
1.5126
1.50626
1.50292
1.5032
1.50387
1.51613
1.50888
1.51518
1.53772
1.52979
1.53544
1.54272
1.54881
1.51751
1.53817
1.527
1.52064
1.52451
1.57073
1.55688
1.56457
1.56271
1.55106
1.53431
1.54187
1.54545
1.52914
1.52732
1.52817
1.52527
1.52041
1.52686
1.51954
1.52317
1.52611
1.52648
1.51143
1.51509
1.51189
1.5133
1.516
1.523
1.51856
1.51904
1.53793
1.5334
1.53543
1.53468
1.531
1.53009
1.52524
1.5279
1.5308
1.53181
1.51584
1.5262
1.52114
1.5189
1.52202
1.5302
1.52643
1.52838
1.52115
1.53638
1.52862
1.52705
1.53387
1.54657
1.54845
1.5476
1.5505
1.54421
1.55224
1.54152
1.54859
1.54995
1.54891
1.54244
1.54892
1.54155
1.50947
1.50552
1.50675
1.51469
1.52129
1.50737
1.51546
1.50966
1.50485
1.5045
1.5443
1.52877
1.53635
1.53361
1.52378
1.51103
1.51696
1.51922
