# vtk DataFile Version 4.2
vtk output
ASCII
DATASET POLYDATA
POINTS 642 double
-30.8457 18.9047 -81.6054
-29.8788 18.9042 -81.6068
-30.682 17.1524 -81.6383
-30.0563 17.1641 -81.6346
-30.3633 17.5111 -81.0511
-30.3574 18.5903 -80.8077
-30.3693 17.4998 -82.2863
-30.362 18.4615 -82.2943
-29.8447 18.0036 -81.9907
-29.7847 18.0521 -81.2335
-30.8895 17.9923 -82.0024
-30.9556 18.043 -81.2325
-31.0169 18.5227 -81.342
-30.7791 18.3509 -80.9138
-30.6641 18.9117 -81.1053
-30.0573 18.909 -81.1034
-30.3608 19.1154 -81.61
-30.0983 18.8147 -82.0599
-30.6242 18.8163 -82.0609
-30.6752 18.2552 -82.2218
-30.9534 18.4853 -81.8476
-31.0009 18.0192 -81.603
-29.9459 18.3545 -80.9142
-29.709 18.5206 -81.3413
-30.6884 17.7493 -81.0758
-30.3604 18.0608 -80.8153
-30.8308 17.5038 -81.8367
-30.8519 17.5232 -81.4369
-30.3679 17.9658 -82.3881
-30.6717 17.6875 -82.251
-29.7741 18.4867 -81.8455
-30.0543 18.262 -82.2134
-29.8788 17.5341 -81.4318
-30.0369 17.7529 -81.0698
-30.1643 17.1781 -81.3099
-30.5676 17.1716 -81.3169
-30.3719 17.0278 -81.627
-30.5494 17.2349 -81.9442
-30.1987 17.2463 -81.9419
-30.0696 17.696 -82.2377
-29.9063 17.5241 -81.8305
-29.7291 18.0285 -81.605
-30.9576 18.7537 -81.4686
-30.8988 18.7484 -81.2088
-30.7909 18.9504 -81.3715
-30.9069 18.1874 -81.0769
-30.939 18.463 -81.1013
-31.0048 18.2652 -81.2599
-30.499 18.7682 -80.9024
-30.7524 18.653 -80.9603
-30.5688 18.4977 -80.8167
-30.5277 19.0764 -81.3333
-30.6536 19.0479 -81.6098
-30.2183 18.7667 -80.9021
-30.3597 18.9691 -81.0659
-30.0688 19.0463 -81.6096
-30.1943 19.0759 -81.3329
-29.9324 18.9493 -81.3709
-30.5161 19.0166 -81.8696
-30.7594 18.9047 -81.8305
-29.9632 18.9018 -81.8308
-30.2061 19.0159 -81.8697
-30.4751 18.6477 -82.2224
-30.3608 18.8633 -82.0947
-30.2473 18.6478 -82.2213
-30.8306 18.6819 -81.9712
-30.9308 18.7312 -81.7306
-30.5136 18.3738 -82.2825
-30.6771 18.5521 -82.1776
-30.9206 18.2218 -81.9344
-30.8362 18.3931 -82.0641
-30.812 18.1174 -82.1198
-31.0196 18.531 -81.5966
-30.9553 18.0074 -81.8237
-30.9975 18.2615 -81.72
-31.0349 18.2758 -81.4748
-31.0072 18.0296 -81.3964
-29.8263 18.7459 -81.2058
-29.7663 18.7518 -81.4696
-30.1493 18.4998 -80.8181
-29.9714 18.651 -80.9592
-29.7221 18.2692 -81.2584
-29.7891 18.4612 -81.1002
-29.8224 18.1913 -81.074
-30.5694 18.211 -80.8141
-30.3588 18.3456 -80.771
-30.8497 17.9105 -81.1412
-30.7526 18.0538 -80.9587
-30.3611 17.7727 -80.9485
-30.5448 17.9034 -80.9149
-30.5168 17.6046 -81.0453
-30.9506 17.7743 -81.5099
-30.9209 17.8102 -81.3245
-30.8809 17.7683 -81.9427
-30.9343 17.7536 -81.7329
-30.7768 17.2776 -81.5514
-30.8564 17.4825 -81.6368
-30.7532 17.2902 -81.7262
-30.6812 17.9687 -82.2691
-30.8076 17.843 -82.1361
-30.3646 18.218 -82.3555
-30.5132 18.1004 -82.3449
-30.5106 17.5686 -82.2993
-30.5178 17.8271 -82.3588
-30.3689 17.7109 -82.3635
-30.0477 18.5528 -82.1735
-30.2118 18.3781 -82.2805
-29.7946 18.728 -81.7329
-29.8946 18.6794 -81.9689
-29.9199 18.1275 -82.1091
-29.8892 18.3972 -82.0605
-29.8089 18.2289 -81.9286
-29.9553 17.2903 -81.5451
-29.987 17.3157 -81.3559
-30.0868 17.1305 -81.4893
-29.8848 17.9173 -81.1392
-29.9368 17.6229 -81.2446
-29.8174 17.8167 -81.3246
-30.267 17.3232 -81.1457
-30.0842 17.4351 -81.1653
-30.2082 17.6074 -81.0424
-30.2673 17.0494 -81.473
-30.1869 17.0675 -81.6305
-30.4641 17.3187 -81.1489
-30.3699 17.1354 -81.3017
-30.5543 17.0634 -81.6317
-30.4736 17.0497 -81.475
-30.6457 17.122 -81.492
-30.2726 17.0893 -81.782
-30.1203 17.1749 -81.7644
-30.626 17.1609 -81.771
-30.4744 17.0846 -81.7848
-30.2832 17.3629 -82.1644
-30.3735 17.2092 -81.9627
-30.4591 17.3582 -82.1661
-30.0434 17.347 -81.8971
-29.9869 17.3058 -81.7181
-30.2289 17.5719 -82.2939
-30.1172 17.4416 -82.1398
-29.854 17.7838 -81.9331
-29.956 17.5943 -82.0544
-29.9393 17.8559 -82.1143
-29.8761 17.4981 -81.6286
-29.7767 18.0181 -81.8181
-29.798 17.7704 -81.7281
-29.7807 17.7824 -81.51
-29.7245 18.0394 -81.3966
-30.1753 17.9027 -80.9083
-29.9715 18.0574 -80.9567
-30.1505 18.2137 -80.8149
-30.7419 17.3023 -81.3611
-30.6449 17.4243 -81.1682
-30.7957 17.6144 -81.2473
-30.6275 17.4289 -82.1472
-30.7021 17.3284 -81.9035
-30.7839 17.5787 -82.0636
-30.0578 17.9771 -82.2525
-30.2194 17.8299 -82.352
-30.2175 18.1059 -82.3425
-29.6911 18.2808 -81.4761
-29.7317 18.2669 -81.7184
-29.707 18.5289 -81.5994
-30.9013 18.8458 -81.5438
-30.8878 18.8582 -81.416
-30.8284 18.9324 -81.5058
-30.9737 18.6385 -81.2755
-30.9392 18.7566 -81.3377
-30.9966 18.6449 -81.4007
-30.7351 18.9452 -81.235
-30.8507 18.8601 -81.2801
-30.793 18.8426 -81.1502
-30.9393 18.1066 -81.1643
-30.9637 18.2329 -81.1629
-30.9769 18.1392 -81.2416
-30.8674 18.4104 -80.997
-30.9276 18.3255 -81.0771
-30.8552 18.2695 -80.9904
-31.0186 18.3942 -81.2939
-30.9838 18.3685 -81.1817
-30.9891 18.4996 -81.2197
-30.4171 18.6718 -80.8393
-30.5419 18.6379 -80.8485
-30.4506 18.5547 -80.803
-30.7147 18.7934 -81.0215
-30.6325 18.7237 -80.9236
-30.5829 18.851 -80.992
-30.681 18.4281 -80.854
-30.6658 18.5778 -80.8766
-30.7733 18.5019 -80.9241
-30.9299 18.6104 -81.1451
-30.8611 18.5635 -81.0236
-30.8356 18.7128 -81.0758
-30.7256 19.0138 -81.4844
-30.771 18.9747 -81.6079
-30.6024 19.0063 -81.2087
-30.6683 19.0254 -81.3438
-30.5144 19.0975 -81.6102
-30.5927 19.0787 -81.4739
-30.4443 19.1143 -81.4718
-30.2981 18.6717 -80.8394
-30.3581 18.7811 -80.894
-30.2016 18.953 -81.075
-30.2818 18.8796 -80.9744
-30.1368 18.8486 -80.9906
-30.4363 18.8805 -80.9749
-30.5185 18.9542 -81.0761
-29.9522 18.9735 -81.6083
-29.9974 19.0126 -81.4846
-29.8954 18.9321 -81.5064
-30.277 19.1139 -81.4716
-30.1293 19.0778 -81.4741
-30.2075 19.0969 -81.6099
-29.9872 18.9428 -81.2338
-30.0542 19.0244 -81.3436
-30.1192 19.0052 -81.2079
-30.4444 19.0401 -81.1903
-30.2763 19.0396 -81.19
-30.3604 19.0959 -81.3272
-30.7116 18.9878 -81.7293
-30.8125 18.9136 -81.7045
-30.4421 19.0819 -81.7454
-30.5841 19.0478 -81.7417
-30.6962 18.8728 -81.9507
-30.6462 18.9705 -81.8575
-30.5778 18.926 -81.9749
-29.9108 18.9114 -81.7053
-30.0108 18.986 -81.7293
-30.1443 18.9249 -81.975
-30.0762 18.9688 -81.8577
-30.0265 18.8704 -81.9503
-30.1381 19.0471 -81.7417
-30.2799 19.0816 -81.7453
-30.4081 18.5466 -82.2702
-30.361 18.6588 -82.2288
-30.3149 18.5471 -82.2695
-30.4984 18.851 -82.086
-30.4258 18.7626 -82.1666
-30.5482 18.7387 -82.1529
-30.1741 18.7382 -82.1516
-30.2959 18.7626 -82.1662
-30.2235 18.8508 -82.0852
-30.3609 19.0338 -81.8756
-30.2854 18.9541 -81.9919
-30.4363 18.9544 -81.9918
-30.8554 18.8238 -81.7862
-30.8903 18.8352 -81.6621
-30.7356 18.7605 -82.0219
-30.8007 18.8007 -81.9101
-30.9518 18.6137 -81.7928
-30.8877 18.7108 -81.8556
-30.9032 18.587 -81.9105
-30.4306 18.4257 -82.2971
-30.5033 18.516 -82.2622
-30.683 18.4049 -82.2092
-30.5976 18.4655 -82.2416
-30.5959 18.3178 -82.2592
-30.5812 18.6101 -82.2054
-30.6566 18.6915 -82.1282
-30.9033 18.0921 -81.9738
-30.8685 18.1754 -82.0312
-30.8656 18.047 -82.06
-30.9031 18.4454 -81.9616
-30.8898 18.3127 -82.0013
-30.942 18.3535 -81.8949
-30.7477 18.1873 -82.1733
-30.8203 18.2556 -82.0942
-30.7641 18.3296 -82.1569
-30.7591 18.6265 -82.0841
-30.7681 18.4795 -82.1291
-30.843 18.5414 -82.0261
-30.9533 18.7471 -81.5998
-30.9943 18.5153 -81.7257
-30.9849 18.6339 -81.6643
-31.0004 18.6438 -81.5308
-31.0269 18.5338 -81.4667
-30.92 17.9988 -81.9268
-30.9434 18.1182 -81.8772
-31.0047 18.1398 -81.6601
-30.9795 18.1335 -81.7691
-30.9833 18.0145 -81.7143
-30.9642 18.2487 -81.8294
-30.9777 18.3767 -81.7818
-31.0115 18.1494 -81.3309
-30.9854 18.037 -81.3019
-31.0348 18.4024 -81.4077
-31.0279 18.2769 -81.3652
-31.008 18.0238 -81.4966
-31.0273 18.1491 -81.4339
-31.0212 18.1444 -81.5403
-31.0181 18.3983 -81.6609
-31.026 18.2726 -81.598
-31.0361 18.4067 -81.5322
-29.836 18.8576 -81.4154
-29.8226 18.8446 -81.5457
-29.9307 18.8395 -81.1478
-29.8734 18.858 -81.278
-29.728 18.6423 -81.4005
-29.7855 18.7546 -81.3358
-29.7521 18.6365 -81.273
-30.2649 18.5554 -80.8036
-30.1757 18.6384 -80.8495
-29.9517 18.5033 -80.9238
-30.0551 18.5783 -80.8771
-30.0409 18.4326 -80.855
-30.0878 18.7212 -80.9234
-30.008 18.7898 -81.0202
-29.7531 18.1464 -81.2396
-29.7655 18.2363 -81.1614
-29.7991 18.1139 -81.1653
-29.7381 18.4979 -81.2179
-29.7438 18.3691 -81.1801
-29.708 18.3944 -81.2931
-29.8718 18.2719 -80.9897
-29.8004 18.3256 -81.076
-29.86 18.4114 -80.9966
-29.89 18.7101 -81.0733
-29.8661 18.5626 -81.0218
-29.7972 18.6084 -81.1424
-30.4639 18.4208 -80.7818
-30.3577 18.4855 -80.7822
-30.6786 18.2839 -80.8524
-30.5761 18.3525 -80.8056
-30.3598 18.203 -80.7822
-30.4655 18.277 -80.7817
-30.4611 18.1361 -80.8026
-30.9124 17.9869 -81.1906
-30.8834 18.0499 -81.0986
-30.7209 17.9045 -81.0153
-30.8089 17.9781 -81.0455
-30.7726 17.8308 -81.104
-30.8361 18.1259 -81.007
-30.7722 18.2025 -80.9257
-30.3622 17.6219 -81.0044
-30.443 17.6884 -80.988
-30.4308 17.548 -81.0453
-30.4555 17.9826 -80.8538
-30.4491 17.8429 -80.9276
-30.3606 17.9165 -80.8752
-30.6019 17.6724 -81.0567
-30.5309 17.758 -80.9891
-30.6206 17.8258 -80.9967
-30.6701 18.1322 -80.8762
-30.65 17.978 -80.9257
-30.5602 18.0573 -80.8518
-30.9725 17.9192 -81.3591
-30.9429 17.9434 -81.2728
-30.9833 17.8997 -81.5525
-30.983 17.9067 -81.4554
-30.8877 17.6683 -81.3793
-30.9417 17.7864 -81.4162
-30.9036 17.6456 -81.472
-30.8893 17.8961 -81.9797
-30.9227 17.8852 -81.8845
-30.8849 17.6199 -81.7912
-30.9111 17.7535 -81.8394
-30.8624 17.6351 -81.8949
-30.9526 17.8854 -81.7764
-30.9729 17.8921 -81.667
-30.7262 17.1958 -81.6022
-30.7693 17.279 -81.6415
-30.7157 17.2057 -81.6772
-30.8595 17.4954 -81.5362
-30.8178 17.3776 -81.5926
-30.8143 17.3899 -81.4959
-30.7914 17.3883 -81.7787
-30.8075 17.3779 -81.6871
-30.846 17.4847 -81.7358
-30.9481 17.76 -81.6184
-30.8997 17.6129 -81.6834
-30.9069 17.6231 -81.5757
-30.8142 17.9799 -82.1385
-30.8594 17.9265 -82.0646
-30.6748 18.1103 -82.2447
-30.7508 18.0453 -82.2013
-30.7447 17.7626 -82.1991
-30.7505 17.9018 -82.2113
-30.6804 17.8269 -82.269
-30.363 18.3536 -82.3219
-30.4375 18.2924 -82.3287
-30.4381 18.0311 -82.3786
-30.4385 18.1558 -82.3598
-30.3662 18.0896 -82.3789
-30.5139 18.2328 -82.3122
-30.5906 18.1766 -82.2854
-30.4305 17.526 -82.2974
-30.4413 17.6392 -82.3407
[...]
POINT_DATA 642
SCALARS Mean_Curvature double 1
LOOKUP_TABLE default
2.82433
2.85651
4.75456
4.37285
1.16096
2.52426
4.11851
3.13255
1.83407
1.232
1.89124
2.10807
2.36285
2.59949
2.81336
2.83465
2.69205
2.83605
2.81386
1.37121
0.625901
1.79919
2.59441
2.34168
1.54031
3.02741
1.77072
1.79813
4.3457
2.53605
1.43024
1.38431
1.98993
1.73316
2.90446
2.82948
3.67804
1.91652
1.81866
1.44217
1.72325
1.9441
2.74466
2.85301
2.79775
0.527381
2.91409
2.37001
2.64383
2.65368
2.55049
2.6489
2.64203
2.72258
2.73757
2.56046
2.6834
2.77926
2.76516
2.83251
2.84807
2.76958
2.76263
2.7527
2.81191
2.85646
2.57928
1.11624
2.49986
1.49895
1.07074
1.92503
2.16614
1.57271
1.75272
1.1514
1.84352
2.87293
2.79077
2.62106
2.76421
3.23305
2.49824
2.70954
2.73805
2.5689
1.74677
1.46239
1.50235
1.41379
1.53539
1.80485
2.44328
1.68703
1.64149
1.47103
1.62506
2.4762
1.62315
1.72014
4.66385
1.24826
3.33788
2.95166
3.20515
2.65764
1.48301
2.61183
2.72186
1.77707
1.19192
1.57469
2.81031
3.81661
4.30928
1.57614
1.6244
1.92689
2.88582
3.41606
1.50949
4.59403
4.76073
2.94312
2.77135
4.68086
4.28618
4.36615
4.50157
2.18465
3.06742
4.1047
3.86202
1.84441
3.74054
1.69021
1.98369
3.7077
2.29875
1.87853
1.6802
1.70707
1.83595
1.65851
1.63561
2.02714
1.79584
1.16636
1.1768
2.62812
3.86434
3.68738
1.59956
3.76515
2.00765
1.58831
1.72098
3.71335
1.5182
1.09594
1.64576
2.2176
2.79697
2.8123
2.73802
2.7178
2.85695
2.62652
2.83947
2.89568
2.87498
1.38063
1.18318
1.22588
2.76401
3.03725
2.79575
2.23189
2.95383
2.72284
2.56445
2.57999
2.53482
2.81402
2.65987
2.72184
2.46867
2.54127
2.64323
2.85785
2.78221
2.84667
2.71752
2.78743
2.73077
2.68773
2.6423
2.65667
2.68391
2.70623
2.69069
2.80556
2.79385
2.82386
2.77175
2.76568
2.80199
2.69744
2.85229
2.68941
2.65836
2.64866
2.7986
2.68611
2.74189
2.72026
2.71709
2.65593
2.82708
2.80574
2.68127
2.65089
2.88324
2.85073
2.82035
2.82757
2.81083
2.9024
2.85262
2.90222
2.70224
2.68042
3.01753
2.76691
3.06389
2.75509
2.50045
2.63003
2.67824
2.51625
2.78952
2.71676
2.83183
2.81103
2.6599
2.73903
2.85659
2.73833
2.34127
2.46528
0.633234
1.30778
2.65801
2.93811
0.88986
1.25862
2.65591
2.71049
1.84819
1.53137
1.76506
0.782127
1.24606
1.2618
1.40986
1.58552
2.31544
2.68328
2.82652
2.51868
2.60614
2.60611
2.52006
2.32855
2.42758
1.81556
1.55955
1.8101
1.67755
1.62682
1.52552
1.08636
1.41396
2.05915
0.36357
0.958388
2.04249
1.49568
1.61939
0.930415
1.318
0.655179
2.87673
2.84971
2.8527
2.82554
2.67441
2.79595
2.76824
2.65206
2.68057
2.73627
2.70524
2.69568
2.66912
2.74692
1.26955
0.672306
1.04964
2.68671
3.00342
2.54542
2.5366
2.45741
2.63358
2.84863
2.77813
2.81443
2.61959
2.59685
2.42417
2.4932
2.17507
2.65814
2.72742
1.51555
1.11682
1.50979
1.36226
1.67655
2.74162
2.3951
1.34747
1.38249
1.34896
1.94001
1.30474
2.07457
1.57645
1.43833
1.37943
2.4393
0.920774
2.17453
2.04003
2.5482
1.85459
2.3398
1.88863
2.29607
1.63572
1.82283
1.77287
1.67857
1.70807
1.8195
1.63714
1.52638
4.51077
2.65575
2.95858
1.79445
2.02262
1.69553
1.64433
1.9142
1.70049
1.64719
1.60929
1.63277
1.95237
1.85276
1.63183
1.81642
1.44928
1.58463
1.91877
1.77063
1.85909
4.60686
4.18224
4.62335
1.47715
1.33751
3.78118
2.94593
3.29009
3.44089
3.23946
3.44089
3.92411
2.97919
4.18085
1.43919
1.70443
1.41593
2.74416
1.32945
2.69859
2.75334
1.09102
2.59603
0.926713
2.78921
2.71651
0.792624
2.09969
2.3608
2.72674
2.80127
1.78102
1.59773
1.73843
1.55314
1.55733
1.48766
1.12644
1.32353
0.780429
2.68075
2.7034
3.04934
4.08315
3.90967
4.70983
2.14012
3.71437
1.60241
3.92789
3.77192
3.53653
1.42503
1.64099
1.55493
1.52969
1.76944
1.60363
1.53078
1.55794
1.92626
3.16079
2.72407
1.34177
2.96908
3.05256
2.72356
1.53396
1.80122
1.83609
1.89572
1.94891
3.3167
4.91712
4.80867
3.93844
4.59893
4.25333
5.04436
4.44778
3.1843
2.9152
0.768219
0.837403
2.37468
0.788872
2.74562
5.41317
4.96233
5.01374
4.20169
4.73947
3.8051
4.04048
4.71207
4.35768
4.24498
4.37552
4.38671
4.71201
2.21206
4.49312
4.7803
2.02364
2.76396
2.50286
4.68935
4.68667
2.57749
4.45558
2.3757
4.43122
4.36159
4.1557
3.87575
4.33307
1.87474
2.09784
2.10385
1.90543
2.08953
1.87521
4.70502
2.47303
2.49613
2.11154
2.0465
1.66327
1.87984
1.55662
1.6691
1.74073
3.78361
3.99481
3.64148
3.44283
3.41612
3.84904
1.86829
1.95725
1.86011
1.82275
1.91066
1.96161
1.873
1.5742
1.75949
1.43625
1.90164
3.14235
2.01655
2.00261
1.51788
1.96102
2.09089
2.04601
1.85404
1.74397
1.6317
1.61762
1.50097
1.64233
1.70588
2.34885
2.18917
1.5396
2.26506
2.10822
1.99287
2.4597
1.61416
1.71121
1.58378
1.38719
1.50858
1.46744
1.45471
1.93923
0.99387
2.33551
2.93614
1.21159
1.37692
2.66668
2.71859
2.48317
2.47777
2.5173
1.8099
2.41522
2.29632
3.91594
3.22348
3.62641
3.27107
1.74411
2.80408
1.69319
1.53949
3.02521
3.03455
1.72782
1.84397
2.00565
1.65866
1.47347
3.69866
1.87512
2.17407
4.13219
1.80783
3.36137
3.94593
3.56592
2.78617
1.94905
1.67821
2.07258
1.85467
1.88127
1.4989
1.63343
1.87763
1.96942
2.0101
1.83372
2.63502
1.89626
1.53223
1.75028
1.73913
1.51059
3.06435
1.11984
1.74753
3.40261
1.93153
1.99178
1.42547
1.4553
3.61555
4.46198
1.32975
2.82796
1.49616
1.21588
1.71604
1.43259
0.869116
0.288474
1.66368
1.15688
1.41951
1.4842
1.7123
2.63722
2.4127
2.50383
2.10495
2.6583
1.4648
1.23086
0.61162
SCALARS CoVolArea double 1
LOOKUP_TABLE default
0.00902365
0.00904166
0.00469273
0.00462003
0.00747342
0.00910058
0.00562209
0.00699946
0.00707444
0.00685778
0.00721616
0.00683808
0.0160826
0.0178099
0.0213675
0.0212764
0.0230909
0.0176743
0.017776
0.0149874
0.0157151
0.0150629
0.0173195
0.0161683
0.0164866
0.015826
0.0144422
0.0148188
0.00995082
0.0139375
0.0151392
0.0145927
0.0142613
0.0159885
0.0134019
0.0126569
0.010027
0.0119357
0.0122353
0.0138852
0.0148387
0.0148159
0.0161355
0.0198382
0.0189458
0.0142775
0.0179956
0.0136745
0.0191292
0.0208333
0.017551
0.0238637
0.0197757
0.0187361
0.0228665
0.0197081
0.023807
0.0190055
0.0211016
0.0170631
0.0169973
0.0211109
0.0148417
0.0191785
0.0147194
0.0173086
0.0158683
0.0131601
0.0164998
0.0139608
0.015943
0.0136556
0.0162602
0.0146313
0.0157729
0.01552
0.0126981
0.0197742
0.0165728
0.0169941
0.0200302
0.0134708
0.0177283
0.0139091
0.0174465
0.0159127
0.0144307
0.0168024
0.0147079
0.0168012
0.0145523
0.0155626
0.0137353
0.0145552
0.0171846
0.0113478
0.0143476
0.00993882
0.0142653
0.0134726
0.0110416
0.0123364
0.0114195
0.0121906
0.0106611
0.0161663
0.0130063
0.0155986
0.016851
0.0134379
0.0154147
0.0134558
0.0113295
0.0149149
0.0104198
0.0140616
0.0155109
0.0137969
0.0139279
0.0159561
0.0143452
0.0106398
0.0085761
0.0138082
0.0125867
0.00851639
0.0099171
0.00995222
0.0106623
0.00882927
0.00868627
0.0105924
0.0121815
0.0132514
0.0123621
0.0134837
0.0100408
0.0112373
0.0145116
0.0140492
0.0155186
0.0134331
0.0144608
0.0140059
0.0165044
0.0153813
0.0130837
0.0168081
0.0163655
0.0172999
0.014883
0.0162833
0.0160942
0.0147648
0.0129807
0.0156463
0.0144482
0.012399
0.0125347
0.0150974
0.015072
0.0160042
0.0135557
0.0169901
0.014668
0.0179373
0.0174874
0.0161115
0.0202986
0.0189984
0.0209681
0.0109078
0.0135839
0.010663
0.0181897
0.0157208
0.0159536
0.0148205
0.0152857
0.0170971
0.0147969
0.0179226
0.0141807
0.0213155
0.0198427
0.0204395
0.0179663
0.0190247
0.0195063
0.0203655
0.0210148
0.0220298
0.0190823
0.0149566
0.0225477
0.0210297
0.0217786
0.0217082
0.0239162
0.0145956
0.0185395
0.0223087
0.0204791
0.0201486
0.0205787
0.0223499
0.014847
0.0190011
0.0147334
0.0238562
0.0216338
0.0217518
0.0203393
0.0210777
0.0226086
0.0252513
0.0252132
0.025986
0.0177842
0.0140277
0.0225485
0.020254
0.0174392
0.0185928
0.0193551
0.013948
0.0177984
0.0192996
0.0186418
0.0173803
0.0203109
0.0225593
0.0114463
0.0145135
0.0113834
0.0187118
0.0165419
0.0163167
0.0162074
0.0165074
0.0186278
0.0230757
0.0216127
0.0216677
0.0160925
0.0134214
0.017585
0.0168362
0.015789
0.0163379
0.0165872
0.0106671
0.013706
0.0157575
0.0146898
0.0140512
0.0153906
0.0171022
0.0112733
0.0134283
0.0110572
0.0158556
0.0144931
0.014608
0.0143503
0.0144118
0.0156556
0.018172
0.0174529
0.0177322
0.0154561
0.0161432
0.0157491
0.0157427
0.0160813
0.0115425
0.0138401
0.0156709
0.014849
0.0151695
0.0146172
0.0156386
0.0127581
0.0103773
0.0155525
0.0141644
0.0135571
0.0138038
0.0152562
0.0169981
0.0168973
0.0169398
0.0173025
0.0138421
0.0207682
0.0190657
0.0164491
0.0177851
0.0180762
0.0139224
0.0173293
0.0187012
0.0181373
0.0173236
0.0191588
0.0208307
0.0105829
0.0133531
0.0107696
0.0170206
0.0150047
0.0146509
0.0154772
0.0153232
0.0177382
0.021565
0.0204919
0.0202098
0.0161758
0.0135773
0.0178535
0.0171305
0.0155756
0.0161896
0.0164976
0.0110934
0.0136896
0.0167456
0.0152526
0.0156378
0.0152412
0.0170985
0.0117766
0.0143266
0.0116538
0.0162984
0.0153631
0.0152155
0.0155069
0.015533
0.0168324
0.0185169
0.0181799
0.0181377
0.0126034
0.0107807
0.0151228
0.01341
0.0145871
0.0141009
0.0155342
0.0114547
0.0144187
0.0161004
0.0158393
0.0151826
0.015854
0.016358
0.0081329
0.0101291
0.00755723
0.0147384
0.0122176
0.013219
0.0117697
0.0115585
0.0141311
0.0176173
0.0171634
0.0169624
0.0131875
0.0110731
0.0146296
0.0140129
0.0137518
0.0137952
0.0141344
0.00999262
0.0116912
0.0106831
0.0111208
0.0101277
0.0126374
0.0140557
0.0088799
0.0107147
0.00879084
0.0134202
0.0118288
0.0126458
0.0101391
0.010892
0.0106596
0.0142038
0.012537
0.0140913
0.0135118
0.0106016
0.016859
0.015155
0.0137506
0.0143888
0.0152896
0.0134148
0.0158668
0.0160152
0.0158867
0.0152154
0.0165886
0.0173382
0.0108828
0.0130389
0.0109317
0.0151028
0.013948
0.0140481
0.0141117
0.0140022
0.0153429
0.0177438
0.0172077
0.0169722
0.00804009
0.0106667
0.0076993
0.0145489
0.0129034
0.0129992
0.0118164
0.0124488
0.0143775
0.0109721
0.0136804
0.0109473
0.0158496
0.0148628
0.0151404
0.0141956
0.014496
0.0148591
0.0115392
0.0138794
0.0115741
0.0152288
0.014766
0.0137807
0.0151596
0.0148516
0.0158241
0.0163728
0.0168095
0.0167121
0.00896728
0.00692675
0.0119321
0.0103359
0.00932323
0.00942094
0.00994397
0.0115544
0.0133909
0.0123182
0.0130231
0.0133445
0.0132592
0.0129698
0.00695727
0.00863156
0.00764066
0.00966638
0.00891483
0.00923326
0.0110913
0.00954543
0.0110431
0.0123176
0.0118556
0.0108736
0.00821601
0.00690803
0.0104078
0.00911384
0.0101932
0.00929079
0.0111748
0.00696969
0.00819493
0.0109796
0.00912368
0.00985251
0.00908659
0.0104065
0.00918758
0.011964
0.00925821
0.0127877
0.0129708
0.0128182
0.0128474
0.0130139
0.0126932
0.0118875
0.0127214
0.0127633
0.00897149
0.00745038
0.0127299
0.0104083
0.0122194
0.011085
0.0141699
0.00877248
0.0111772
0.0142136
0.0125061
0.0125451
0.0128842
0.0138689
0.0111426
0.0132851
0.0109422
0.0155216
0.0144886
0.014957
0.0137503
0.0140528
0.0147502
0.0156708
0.0162875
0.0163566
0.010086
0.0145682
0.0117819
0.0122178
0.0144149
0.011157
0.0138336
0.015652
0.0150842
0.0145204
0.0152265
0.0160818
0.0129701
0.0105537
0.0150979
0.0141527
0.0138846
0.0138189
0.0150423
0.0170536
0.0170178
0.0166074
0.0142564
0.0165643
0.0153938
0.0153842
0.0163831
0.013324
0.0166636
0.0147579
0.0147601
0.0163129
0.016045
0.0165015
0.0161698
0.0168709
0.0175446
0.0179675
0.0182299
0.0181307
0.0105281
0.0139115
0.0120578
0.0128475
0.0149202
0.0140104
0.0163423
0.0151703
0.0147972
0.0149634
0.0137685
0.0154537
0.0148411
0.0152793
0.0164302
0.0168385
0.0173805
0.0168541
0.011396
0.0137925
0.0131478
0.012786
0.0143969
0.00889759
0.0136698
0.0107077
0.0100414
0.0122771
0.0135368
0.0148447
0.0141621
0.0147809
0.0154418
0.0154903
0.0161363
0.0164122
0.013135
0.0141933
0.0138617
0.0140018
0.0146196
0.0106502
0.0108521
0.011
0.0118266
0.0134685
0.0116848
0.0140343
0.0126177
0.0111833
0.0108437
0.014346
0.012849
0.014476
0.0127177
0.0149909
0.013778
0.0138877
0.015338
0.0132747
0.0150465
0.0140256
0.0141694
0.0150496
0.015613
0.0161286
0.0159619
0.0155038
0.015554
0.0162402
0.0163873
0.0165445
SCALARS SignedDistance double 1
LOOKUP_TABLE default
1.03992
1.04485
1.03771
1.02317
1.0241
1.0173
1.10973
1.05077
1.00006
1.02171
1.00173
1.02275
1.0486
1.0275
1.06669
1.07221
1.05267
1.05011
1.04839
1.01995
1.00478
1.0466
1.04249
1.05658
1.02763
1.01131
1.03573
1.0378
1.02193
1.01166
1.01093
1.01169
1.06282
1.00827
1.00329
1.01049
1.20037
1.03665
1.04984
1.00278
1.07089
1.06227
1.07768
1.05126
1.06586
1.01249
1.03997
1.00715
1.052
1.01907
1.01541
1.08852
1.07287
1.07912
1.0833
1.0637
1.08438
1.05093
1.06172
1.05694
1.05415
1.06306
1.01398
1.0487
1.01397
1.03126
1.00072
1.00456
1.01165
1.01899
1.00908
1.00332
1.0427
1.06874
1.00117
1.02212
1.01261
1.05153
1.07415
1.03566
1.03218
1.00434
1.01039
1.01321
1.01138
1.07266
1.00268
1.00666
1.00498
1.00045
1.00488
1.06091
1
1.03815
1.05849
1.01222
1.07844
1.05544
1.00491
1.00282
1.03297
1.0001
1.02396
1.02448
1.05095
1.02585
1.00788
1.00017
1.02309
1.00358
1.0147
1.00722
1.01829
1.03531
1.03505
1.00015
1.0917
1.06026
1.03002
1.02044
1.0054
1.10558
1.08731
1.0286
1.0014
1.12445
1.10131
1.04183
1.02604
1.0158
1.00115
1.04533
1.02659
1.04722
1.03376
1.06085
1.04322
1.03742
1.01849
1.04659
1.00244
1.00793
1.08444
1.05592
1.07575
1.02951
1.01641
1.00213
1.00634
1.01255
1.03165
1.00015
1.08112
1.01415
1.03537
1.00186
1.00167
1
1.00003
1.01116
1.01052
1.02736
1.02597
1.07773
1.03322
1.07678
1.0871
1.06653
1.06566
1.06006
1.06142
1.00863
1.00225
1.00062
1.02885
1.03377
1.00618
1.04691
1.04315
1.04887
1.03752
1.03929
1.03598
1.02142
1.03406
1.05366
1.04149
1.03132
1.0362
1.04999
1.04511
1.04816
1.04863
1.04283
1.08213
1.07615
1.0704
1.0787
1.05396
1.03877
1.07617
1.08132
1.07474
1.06356
1.07416
1.08946
1.04387
1.05238
1.03648
1.05431
1.08056
1.07056
1.06754
1.05923
1.07039
1.10322
1.10203
1.07254
1.03663
1.05326
1.08143
1.07933
1.04841
1.04882
1.05842
1.05831
1.03809
1.0381
1.03916
1.05236
1.06132
1.08034
1.04207
1.00788
1.04195
1.05342
1.04116
1.0417
1.04328
1.04136
1.05428
1.08287
1.05564
1.05637
1.03561
1.02623
1.03388
1.0424
1.00038
1.02714
1.02177
1.01502
1.01238
1
1.00015
1.03711
1.00626
1.03169
1.00683
1.01164
1.00225
1.01107
1.0002
1.01407
1.01574
1.00057
1.00469
1.01159
1.01327
1.00746
1.04382
1.00007
1.02465
1.05889
1.04031
1.02971
1.05084
1.02018
1.05121
1.07313
1.02908
1.00034
1.00315
1.00221
1.03963
1.01015
1.00523
1
1.00705
1.02831
1.01578
1.03686
1.04602
1.04452
1.06621
1.05904
1.07144
1.06691
1.06488
1.05606
1.05252
1.04146
1.0456
1.04699
1.06858
1.05875
1.01127
1.00253
1.00252
1.05415
1.02194
1.04997
1.00999
1.00422
1.03439
1.05184
1.04902
1.03182
1.05626
1.04593
1.02615
1.04108
1.03463
1.04131
1.00008
1.00291
1.00519
1.00123
1.01071
1.04343
1.00953
1.00473
1.01862
1.0279
1.0137
1.02282
1.01544
1.00998
1.03326
1.01599
1.01896
1.00967
1.00383
1.01105
1
1.01394
1.07618
1.02062
1.07822
1.01315
1.06809
1.00156
1.03655
1.07102
1.03276
1.0434
1.0709
1.08929
1.02894
1.00063
1.0007
1.05634
1.00933
1.00142
1.07326
1.06287
1.03312
1.06852
1.07738
1.07359
1.00427
1.00683
1.00177
1.00495
1.00666
1.00176
1.00556
1.0078
1.00274
1.01955
1.00685
1.05176
1.01437
1.02643
1.08367
1.04361
1.08031
1.01359
1.01107
1.00203
1.02872
1.04052
1.01905
1.00798
1.0014
1.01078
1.0091
1.0178
1.03177
1.0072
1.03951
1
1.00968
1.0321
1.04061
1.01376
1.02976
1.0005
1.04822
1.03727
1.00775
1.00761
1.00182
1.00236
1.00577
1.01067
1.01184
1
1.01517
1.0099
1.00864
1.02134
1.0233
1.02969
1.06223
1.00274
1.04491
1.00128
1.03321
1.0092
1.02383
1.00086
1.03539
1.02438
1.07709
1.04938
1.03841
1.10252
1.09564
1.0731
1.04534
1.04097
1.01355
1.01719
1.02524
1.02127
1.02444
1.00026
1.01617
1.00869
1.01837
1.02876
1.07333
1.05659
1.05886
1.06236
1.14737
1.12661
1.17192
1.04547
1.02541
1.00581
1.01835
1.01684
1.01841
1.00168
1.07216
1.0879
1.04348
1.18184
1.14637
1.18047
1.05413
1.08458
1.03602
1.05927
1.05278
1.11057
1.00637
1.00984
1.11465
1.05062
1.02241
1.00146
1.01578
1.00825
1.04453
1.0162
1.00036
1.03317
1.09256
1.13768
1.09533
1.05757
1.10185
1.04009
1.0017
1.00188
1.00002
1.00404
1.03805
1.05386
1.02339
1.02249
1.02145
1.00292
1.07194
1.04968
1.08925
1.07224
1.0644
1.08621
1.05781
1.00145
1.01719
1.00675
1.01795
1.01187
1.03282
1.00086
1.00483
1.02607
1.00555
1.0293
1.00698
1.00205
1.00096
1.02148
1.00763
1.00942
1.00012
1.09663
1.05732
1.00347
1.05643
1.01565
1.064
1.07539
1.05768
1.07982
1.07917
1.05816
1.00808
1.03057
1.11158
1.04005
1.00382
1.00445
1.03649
1.0733
1.052
1.10662
1.02756
1.0009
1.00087
1.00361
1.00666
1.00695
1.00791
1.00331
1.00259
1.00061
1.04869
1.00032
1.02243
1.02152
1.02895
1.00479
1.01213
1.01272
1.02218
1.02039
1.02477
1.03882
1.00536
1.03915
1.03263
1.00022
1.01405
1.01158
1.02677
1.04656
1.06165
1.02998
1.05914
1.03735
1.01925
1.00593
1.07567
1.00667
1.01864
1.04386
1.03147
1.03045
1.02412
1.0738
1.05837
1.05227
1.014
1.01814
1.00485
1.00567
1
1.00632
1.00435
1.00347
1.00168
1.00193
1.00897
1.00447
1.01342
1.05761
1.00517
1.03813
1.01495
1.00011
1.00044
1.01928
1.00747
1.00007
1.02306
1.00395
1.00019
1.00431
1.00153
1.01178
1.00798
1.01439
1.04753
1.03888
1.00068
1.03914
1.06518
1.03222
1.05283
1.04736
1.06112
1.01242
1.00428
1.00567
1
1.03943
