# vtk DataFile Version 4.2
vtk output
ASCII
DATASET POLYDATA
POINTS 642 double
-67.2088 155.354 87.9575
125.959 155.735 86.2917
-62.0588 -198.423 79.8049
121.73 -197.956 80.0555
30.6771 -113.256 217.72
31.9031 95.8666 243.992
30.5178 -115.315 -66.6283
31.2696 80.9644 -59.0532
153.169 -12.4011 2.39013
164.331 -0.0240335 173.414
-93.6304 -15.0699 -0.856162
-107.327 -1.8874 170.612
-114.98 89.0951 142.976
-58.1443 48.9405 231.291
-28.3899 156.059 184.998
89.9071 154.847 185.1
30.5689 191.592 87.7684
85.6873 144.261 -5.08413
-24.9737 144.948 -5.01805
-44.8874 42.6969 -47.7946
-101.409 85.0524 36.3956
-123.844 -10.9054 101.042
118.428 49.9751 232.393
174.522 86.8557 142.437
-43.4417 -68.698 209.117
28.9387 0.608882 260.868
-83.7288 -128.469 43.1113
-91.7421 -115.997 131.784
28.6098 -18.2559 -98.9318
-42.0899 -79.1905 -53.3108
162.24 86.3997 37.5071
105.038 46.1177 -47.3337
152.698 -112.261 133.36
104.155 -68.8346 209.873
78.2164 -189.467 161.921
-18.3838 -194.423 163.094
29.7195 -229.219 89.4931
-25.3166 -190.073 6.68162
81.6982 -187.203 8.16648
99.0025 -79.1817 -50.9489
137.424 -118.582 41.854
182.11 -10.911 92.2809
-98.399 127.282 118.151
-80.8976 126.796 166.623
-53.2489 162.978 138.054
-88.1438 24.3 205.851
-92.9289 75.1471 190.699
-113.966 42.9765 162.532
0.648937 131.23 221.705
-47.9535 108.382 214.138
-14.1366 75.9263 244.105
-1.9391 183.196 141.964
-22.8302 180.632 85.2169
61.6555 130.092 223.074
29.6749 166.153 191.278
83.8946 180.703 86.3316
63.0042 183.318 141.279
112.655 163.029 138.262
-1.63112 177.531 34.9197
-48.7237 158.639 38.2169
109.994 157.29 38.1993
61.4144 177.318 34.669
1.70743 118.734 -37.4039
30.4914 152.645 -9.20098
59.2234 118.383 -37.7108
-70.7198 120.994 10.4762
-91.1854 124.105 60.2658
-7.68775 64.8202 -60.406
-40.1612 100.157 -32.2891
-99.3389 40.1469 16.7363
-77.7223 71.1276 -10.6215
-73.7442 15.1488 -26.2828
-116.453 92.2698 91.9891
-108.709 -6.98207 43.7375
-118.091 44.9857 63.3876
-120.129 47.2568 119.594
-126.408 -12.1013 129.893
139.754 126.423 167.979
156.21 124.829 118.789
76.9808 78.0233 245.231
109.038 108.453 217.079
173.869 44.011 161.679
152.052 73.9385 191.881
147.34 25.2173 207.183
-12.3791 22.1262 257.74
30.9844 41.8293 261.899
-81.1252 -29.4074 196.586
-55.0684 0.813995 231.222
29.8759 -53.2401 241.091
-9.39874 -27.2578 245.63
-10.6496 -98.0774 220.08
-116.603 -53.5915 116.557
-106.499 -52.8522 150.906
-91.7601 -62.0332 10.7888
-102.123 -66.0639 65.4695
-77.0881 -167.388 102.423
-96.8055 -129.76 79.9951
-80.883 -168.884 56.7105
-39.8265 -19.647 -63.3131
-70.6596 -48.0901 -29.2553
29.7558 22.3345 -87.4923
-1.91251 0.589886 -86.7689
-7.16594 -100.568 -67.5714
-3.05533 -39.8063 -85.4019
29.2373 -63.6624 -81.8769
101.11 99.7223 -32.5635
69.7177 66.1342 -61.0824
152.264 123.474 58.1352
132.038 120.54 10.5262
132.749 19.3049 -24.0824
137.694 71.2988 -10.7365
159.737 39.9155 17.0664
134.112 -166.491 98.7905
119.289 -155.497 147.547
102.469 -199.918 123.424
139.293 -27.7155 198.425
134.88 -99.8894 175.086
160.123 -58.1336 149.512
55.3385 -156.998 188.797
97.6214 -127.601 193.032
71.4995 -98.4212 219.957
56.3967 -223.281 131.254
84.7467 -223.583 81.4635
4.21133 -161.862 185.661
26.0363 -201.183 169.368
-23.3733 -223.65 84.3677
-0.967434 -227.615 132.444
-43.7912 -203.956 127.024
63.1685 -219.466 37.4852
106.56 -199.873 43.2063
-48.6779 -202.4 39.1155
-5.74746 -220.566 36.5104
54.6101 -143.086 -43.0412
29.2766 -193.497 3.07981
4.4269 -144.151 -41.7055
117.61 -165.117 25.6614
135.369 -170.943 62.2805
65.4762 -101.54 -67.1387
89.6721 -123.85 -37.7502
152.282 -61.542 13.2326
127.561 -92.3106 -14.8394
129.411 -46.7562 -25.7149
152.081 -126.147 86.4831
169.07 -4.11197 45.4509
164.239 -57.9785 67.6184
173.665 -56.0444 111.928
180.257 -7.05531 131.003
70.8253 -28.799 244.042
117.259 1.81402 231.275
74.142 25.0053 256.05
-59.0004 -161.707 145.533
-37.009 -129.778 191.625
-74.7491 -100.516 175.939
-32.6116 -125.797 -36.3547
-64.0788 -167.542 23.2302
-69.1256 -94.3526 -17.2423
98.5801 -18.493 -60.2999
60.7465 -40.2747 -83.1248
60.7259 2.7591 -84.8449
181.206 48.0416 120.017
178.882 44.4717 65.1362
177.438 89.6533 88.3661
-84.4115 142.855 104.102
-78.6679 146.237 128.769
-62.2987 160.05 112.739
-101.332 107.988 154.757
-91.9548 128.011 142.679
-108.643 108.815 131.077
-41.7122 161.749 162.051
-68.0893 146.474 153.784
-55.6865 143.43 176.955
-99.7338 11.9513 189.34
-103.187 33.1566 185.254
-112.385 17.1078 169.345
-76.3425 62.6814 212.726
-90.5195 49.1855 200.222
-74.6231 36.4932 220.447
-114.887 69.5328 152.632
-104.883 61.5935 176.172
-106.329 83.6908 166.932
16.6014 113.706 235.628
-7.88829 105.861 234.602
8.89411 87.3081 245.407
-39.1789 134.204 201.472
-24.2664 121.862 219.173
-13.9803 145.76 205.007
-37.0062 62.8233 239.145
-32.0397 93.5006 230.366
-54.2156 79.2816 223.886
-89.6233 101.71 180.168
-73.1997 92.0353 203.825
-66.0723 119.743 192.213
-38.4619 173.904 114.813
-46.8029 169.23 86.0738
-16.0438 172.82 165.36
-28.0974 175.844 141.797
4.28015 187.384 86.6651
-11.3864 183.603 115.198
15.3721 190.143 113.518
46.3037 113.127 236.158
30.6201 132.805 223.003
60.9189 162.936 189.667
46.1881 150.348 207.269
75.9315 144.173 205.87
14.1731 151.285 207.249
-0.170505 163.89 189.998
107.066 169.664 86.5184
98.6499 174.256 114.533
120.105 160.324 112.388
45.7634 190.155 113.431
72.4743 183.634 115.037
56.569 187.459 87.1324
102.472 161.187 161.832
88.8825 175.858 141.252
77.2079 172.419 164.54
13.5039 178.482 169.459
46.5668 177.761 168.777
30.2984 184.594 141.543
-36.6713 172.97 58.8952
-58.4016 159.133 61.9663
14.0441 185.178 60.2998
-12.711 182.078 58.4102
-37.8374 153.724 16.0594
-25.832 170.445 35.7388
-14.1228 163.572 13.9724
119.265 158.233 62.344
97.4122 171.853 60.2693
74.1922 162.995 13.7305
85.9759 169.232 35.6324
98.8035 152.654 15.799
72.5618 181.229 59.3262
46.3234 185.29 60.4532
16.7142 100.899 -48.8422
30.6288 120.171 -37.6612
44.945 100.547 -49.152
0.921313 151.163 -8.78367
14.7962 137.386 -24.3493
-11.5527 132.956 -23.1271
72.2363 132.543 -23.2374
46.0833 137.345 -24.427
59.5599 151.029 -8.86603
30.3781 179.65 33.5309
46.0833 168.199 11.1087
14.5523 168.201 11.2105
-71.2111 143.065 46.4078
-80.17 141.3 74.388
-49.4323 134.841 1.58674
-61.2008 140.675 22.4294
-97.959 105.429 47.6236
-81.5718 123.957 32.6825
-87.6338 104.183 21.8847
11.0109 73.2669 -61.9317
-5.53198 94.4058 -48.8102
-43.0618 74.5046 -39.7956
-25.7021 85.4797 -45.9192
-25.8709 55.0116 -55.3694
-20.5568 110.837 -36.0144
-33.8078 123.4 -20.723
-95.7428 10.372 6.57037
-88.1381 28.8568 -7.75169
-85.1799 -1.0309 -13.9929
-90.7318 79.8403 10.7005
-89.7034 56.8706 2.1096
-101.695 64.2669 26.7452
-61.8441 29.2703 -38.3271
-76.6759 44.0016 -19.755
-62.8278 58.423 -29.8854
-56.6055 111.852 -12.737
-60.7732 87.0731 -22.7214
-75.9817 96.8224 -1.78676
-97.9732 126.488 91.0388
-111.374 89.1318 64.473
-106.622 107.872 77.2496
-110.173 109.547 105.568
-117.429 92.3311 118.668
-101.36 -12.575 16.6125
-106.007 16.3487 31.1323
-121.337 16.1918 77.8567
-116.64 19.706 56.4059
-118.374 -5.42479 72.7118
-110.868 44.2474 42.6669
-112.528 65.8179 51.5346
-118.928 14.887 148.51
-118.422 -7.08312 151.072
-119.254 72.0776 131.952
-119.31 47.3046 141.431
-128.519 -13.5122 117.478
-123.957 9.36947 127.198
-122.744 8.57571 107.297
-118.863 70.7486 76.8733
-120.515 46.9661 89.3542
-119.578 73.8709 105.806
135.975 145.276 130.026
141.25 141.561 102.474
116.496 142.721 178.004
127.421 146.07 154.855
167.591 106.57 131.861
150.062 126.743 144.129
159.598 107.009 155.202
55.0408 87.8439 246.589
71.471 105.284 236.622
114.063 81.0677 225.87
94.2127 94.5644 233.268
97.9983 65.244 240.153
87.0489 120.72 221.652
101.151 133.102 203.336
170.18 21.0028 169.255
162.069 35.5034 185.495
157.36 13.1044 190.516
165.125 81.7532 167.106
165.539 59.4277 176.956
175.8 66.4035 152.184
134.963 36.4925 221.249
150.92 48.8392 201.154
136.147 62.9401 214.066
126.106 119.627 194.251
132.157 92.6832 205.844
147.853 101.651 181.448
7.97205 57.7828 256.037
31.7111 69.735 253.469
-36.3798 35.2555 245.736
-14.5 45.7782 252.806
29.8227 19.5171 263.565
7.81858 30.3454 262.196
8.3691 11.2126 262.484
-95.857 -15.0079 183.889
-85.3314 0.623845 203.734
-51.0945 -28.6335 224.326
-68.5117 -13.791 215.741
-63.3186 -47.9534 205.645
-72.2464 13.6673 220.729
-58.0753 23.9824 233.975
30.588 -89.7643 226.087
10.3157 -76.3844 228.434
9.16579 -107.059 220.504
9.41208 -11.9854 255.772
10.1677 -38.8296 246.005
29.0775 -22.9983 252.642
-27.2997 -86.9148 217.937
-10.8303 -61.9974 229.54
-28.7695 -46.9154 229.729
-35.1792 12.2018 246.209
-32.4102 -13.5705 240.845
-10.9584 0.323593 254.421
-119.105 -29.5734 140.057
-109.476 -27.6641 160.418
-123.471 -26.9909 113.128
-124.481 -27.9301 122.74
-95.5899 -84.7187 142.604
-114.172 -53.1127 131.833
-101.177 -84.8581 121.739
-93.389 -36.2467 3.84399
-100.698 -36.3723 23.6865
-94.2066 -100.37 52.022
-97.903 -64.4154 32.7436
-89.3322 -89.9915 23.0241
-107.746 -31.6961 53.243
-117.044 -28.3517 86.7451
-70.4967 -185.097 91.4311
-81.8988 -168.58 77.3243
-73.2909 -185.314 66.9313
-95.1307 -124.716 103.595
-89.6703 -147.372 89.0976
-84.9125 -142.966 115.15
-83.4146 -152.801 51.1036
-89.7851 -150.079 68.4266
-94.0988 -132.632 64.9231
-110.554 -61.2642 97.322
-98.6328 -105.001 75.9282
-99.9011 -95.42 94.6751
-73.3254 -17.3509 -29.6842
-84.1662 -29.8568 -14.8556
-40.9208 6.19153 -55.9097
-58.006 -3.97188 -43.6416
-57.2146 -65.2274 -42.4677
-57.036 -33.545 -45.9471
-41.4194 -46.1767 -57.6981
30.5854 52.0801 -72.7908
13.9332 40.4441 -76.3119
14.1228 -9.64854 -95.8333
14.8419 10.577 -89.5044
28.9283 -1.44401 -95.1059
-3.5611 29.9518 -74.4145
-20.2529 19.287 -68.3761
11.3084 -109.269 -69.0016
9.84704 -85.7657 -76.747
30.4643 -96.89 -74.632
-21.7209 -62.0999 -68.5406
-5.74096 -74.0747 -74.6483
-25.0562 -91.1091 -62.4141
28.5927 -32.4092 -95.7381
11.4881 -49.1506 -87.2386
14.1377 -26.1833 -95.9954
-20.8087 -9.92428 -78.6058
-3.3873 -18.0977 -90.8351
-21.4826 -28.2949 -77.814
66.6734 93.6902 -49.7823
51.1518 73.7859 -62.2318
94.9363 122.843 -20.8718
[...]
POINT_DATA 642
SCALARS Mean_Curvature double 1
LOOKUP_TABLE default
0.00881761
0.0104448
0.0190264
0.0315319
0.00882761
0.007944
0.012083
0.00357307
0.0166155
0.00878325
0.0162382
-0.00167458
0.0241983
0.0131389
0.0137126
0.0120321
0.0180108
0.0117698
0.0127057
0.00752072
0.00848236
0.0113566
0.0118919
0.0206103
-0.0132185
0.014932
-0.00649836
0.0127488
0.0483643
0.0122236
0.0103095
0.0102494
0.0173069
-0.0092126
0.0200687
0.0215266
-0.00602364
0.0223153
0.0154132
0.0095527
-0.00984918
0.0152639
0.015628
0.0127371
0.0127551
0.013524
0.013601
0.0114528
0.013096
0.0105849
0.00817113
0.0126029
0.00987875
0.0135691
0.0145963
0.0117457
0.0136524
0.0139022
0.0147224
0.0129464
0.0124501
0.0159434
0.0146383
0.00762041
0.0146456
0.0147804
0.00921977
0.00877637
0.0154663
0.00493678
0.00978316
0.00329061
0.0187847
9.59448e-05
0.0119765
-0.000903216
0.0264825
0.0131778
0.0107085
0.0106274
0.0138182
0.0102391
0.0107129
0.0133682
0.0215051
0.0137985
0.00679415
0.0089589
0.00909687
0.00890871
0.0143682
0.0254389
0.0120581
0.00858763
-0.00491145
0.00721078
0.0234284
0.025955
0.0143113
0.00603933
0.0245606
0.0134318
0.0176059
0.0112758
-0.00435126
0.015158
0.0135708
0.011793
0.0153163
0.00325388
0.00868007
0.00750089
0.00367042
0.00556937
0.0159619
0.00780723
0.0153067
0.0012505
0.00415951
0.0127224
0.0154343
0.0164235
0.0230584
-0.000309938
0.0226348
0.01124
0.0249053
0.019873
0.0203673
0.0172554
0.0204373
0.0202581
0.0175875
0.00578994
0.0155594
0.0156559
0.0311832
0.0214583
0.0114729
0.014829
0.0121358
0.00466457
0.0159204
0.000549859
-0.00585236
0.0128654
0.0123641
0.00923508
0.0111969
0.0154175
0.00371032
0.0114263
0.0166113
0.0112874
0.018149
0.0117702
0.0115557
0.00907369
0.0131521
0.00128926
0.0115032
0.0211968
0.0133565
0.0145872
0.00985573
0.0146431
0.0134487
0.015792
0.0125027
0.0112107
0.0124313
0.0150815
0.0117824
0.0206251
0.0110501
0.00839646
0.0166454
0.012416
0.0075325
0.0176577
0.0147079
0.0129537
0.00757214
0.0123753
0.0117079
0.0139065
0.00869513
0.00903856
0.00927898
0.0132618
0.0111807
0.0126652
0.0101061
0.00825165
0.0149497
0.0157625
0.00694448
0.00707761
0.0148327
0.0128911
0.00784067
0.0138003
0.0105354
0.0121363
0.0134493
0.0157181
0.0117498
0.0120688
0.00853769
0.0148726
0.00723049
0.0073354
0.0120649
0.0166635
0.014774
0.0189689
0.0156966
0.00305179
0.0169409
0.012497
0.00635386
0.0176768
0.0124789
0.0144397
0.0131719
0.0119748
0.0142113
0.0128102
0.0119938
0.0122791
0.0138399
0.0076879
0.00818951
0.00713107
0.00801405
0.0138734
0.0112514
0.0137384
0.0130452
0.0116908
0.0143438
0.013161
0.0146483
0.0137478
0.012288
0.00648599
0.0134434
0.0142427
0.00897614
0.0137344
0.012409
0.0113805
0.0100077
0.00749598
0.012455
0.0052502
0.0144815
0.0134855
0.00238366
0.0139095
0.00985765
0.0135932
0.00740899
0.00702322
0.0143764
0.00996914
0.00814667
0.0140277
0.013125
0.0136387
0.0148494
0.0138444
0.0117874
0.0152263
0.0214069
0.0127856
0.00252795
0.0115834
0.0118885
0.00774398
0.00651347
0.0119672
0.00541224
0.0159104
0.0134199
0.0108605
0.0516652
0.0115358
-0.00267955
0.0159209
0.00338807
0.0063348
0.0110719
0.00568928
0.0134381
0.0128554
0.0162804
0.013287
0.0129445
0.0110358
0.0150721
0.00935405
0.0158063
0.00808502
0.0138274
0.0136846
0.0116828
0.0100051
0.0109014
0.0115826
0.0138504
0.0154459
0.0155724
0.0122759
0.0104601
0.0143097
0.0108736
0.0118938
0.0125076
0.00612089
0.0125469
0.00867705
0.0148033
0.0175784
0.0248063
0.00431394
0.00888408
0.00933541
0.00781155
0.00989368
0.0120824
0.017715
0.00665115
-0.00206953
0.0168342
0.0119991
0.0116493
0.00674593
0.0202947
-0.00101417
0.0106706
0.0137697
0.00885939
0.0122402
0.0134802
0.0115487
0.00601765
0.0303374
0.00358808
0.0144875
0.000734343
0.00888934
0.00766305
0.00281838
0.00654217
0.00876873
0.00099174
0.00282536
0.0132582
0.0142864
0.0230943
0.0119026
0.0109025
0.00681865
0.0105458
0.0225559
0.0212632
0.00323279
0.00974512
-0.00300118
0.0105212
0.0119916
-0.00165865
0.00425282
0.0109295
0.00783348
0.00236721
0.00995494
0.00974642
0.0288363
0.0149867
0.0216528
0.00791388
0.00301756
0.0201179
0.0174095
0.011998
0.00138736
0.0083229
0.0180801
0.0232129
0.01375
0.0300328
0.018799
0.0332487
0.0147233
0.0112465
0.0123239
0.0135867
0.0140294
0.00973009
0.0117909
0.00893411
0.0101865
0.0131455
0.0139148
0.0140366
0.0101256
0.0145781
0.0136344
0.0060058
0.0110442
0.00349579
0.0113486
0.0134023
0.00896265
0.00477408
0.00985127
0.0100309
0.0146425
0.0146819
0.0121839
0.0271095
0.00983749
0.0185982
0.0110736
0.00407273
0.0103377
0.0208806
0.0107164
0.00764233
0.00673814
0.00474661
0.00674714
0.0201847
-0.013523
0.00931502
0.0107015
0.00991571
0.0171151
0.00705652
0.0141081
0.0170617
0.00222828
0.00806654
0.0131428
0.0175005
0.0141284
0.0140727
0.0135066
0.0155079
0.00947492
0.0126755
0.026186
0.0190908
0.0198268
0.0139898
0.00799058
0.027725
0.00656121
-0.00339323
0.0288523
0.0178855
0.0186493
0.00811046
0.0186466
0.0138443
0.0146011
0.0174264
0.0305263
0.0250377
0.00427704
0.0205585
0.0211774
0.0223364
0.0165982
0.0201609
0.0200406
0.020844
0.0204522
0.0145118
0.0186126
0.0172144
0.0188627
0.019402
0.0208624
0.0216026
0.0229479
0.0229305
0.0212685
0.0231651
0.0127115
0.0192403
0.00862085
0.0182311
0.0171329
0.00176339
-0.000378226
-0.00116155
-0.000985604
0.0182086
0.0112957
0.0119799
0.0170227
0.0249277
0.0346261
0.0150622
0.0237114
0.00307908
0.0234618
-0.00648044
0.0228043
0.020669
0.0155885
0.0185887
0.0162062
0.0144065
0.00520277
0.00409586
0.00976993
0.00912584
0.0107114
0.0127847
0.010952
0.00807755
0.0101792
0.0134288
0.0018333
0.0101791
0.00680328
0.0290007
0.00684454
0.0109597
0.00864259
0.0164795
0.01084
0.00557147
0.0160618
-0.00155167
-0.00133675
0.0124728
0.00306371
0.0140333
0.00351865
0.0047115
0.0104403
0.0112384
0.0204428
0.0212396
0.00720173
0.0144904
9.43392e-05
-0.00151055
0.0114935
-0.000730266
0.00872829
0.00986857
0.0113168
0.0200851
0.0160694
0.00920744
0.00992356
0.0107895
0.0201929
0.0195693
0.00955427
0.0172642
0.00885336
0.0132372
0.00608479
0.019777
0.00987401
0.0159641
0.00560968
0.00785874
0.0133546
0.0126787
0.0128115
0.00627897
-0.0004577
0.0092116
0.0192621
-0.00167677
-0.00859687
0.0192236
0.00712113
0.014783
0.0128242
0.0181576
-0.00125844
0.0129374
0.016374
0.0163002
0.0215733
0.00805905
0.0263246
0.0222375
0.0184506
0.00663305
0.016282
0.0115326
0.0116128
0.0063662
-0.00274197
0.00260061
0.0113681
0.0118453
0.0073874
0.00444499
0.00395788
-0.00110481
0.0219473
0.0279749
0.0113327
0.00594479
0.000232695
0.0084684
0.00338409
0.0072339
0.015438
0.0230811
0.012494
0.029203
0.0140332
0.0163644
5.40884e-05
0.0101409
0.01344
0.0180576
0.00504356
0.00537978
0.00586153
0.0137533
0.0175283
0.0114301
0.0191339
0.00824243
0.016819
0.0195047
0.00520471
0.0180037
0.00821883
SCALARS CoVolArea double 1
LOOKUP_TABLE default
524.244
517.158
383.108
277.497
484.927
506.302
312.954
509.869
412.727
421.079
385.152
425.866
498.771
662.315
722.861
745.279
760.153
650.305
642.096
807.596
612.037
497.046
657.203
531.953
840.173
484.858
759.584
744.701
249.537
578.869
570.872
715.944
563.336
798.711
548.268
494.172
822.297
556.922
623.474
602.847
1031.05
528.391
592.052
739.211
700.633
527.435
674.096
610.454
686.283
770.674
733.286
807.063
776.11
702.457
747.441
752.848
807.086
679.579
723.731
619.66
641.416
725.906
591.268
715.827
592.577
616.073
669.856
689.82
581.38
677.937
604.413
628.913
541.856
754.726
613.389
802.757
381.597
719.699
686.686
661.2
705.996
532.521
703.844
508.02
533.32
619.552
786.098
609.825
761.716
709.468
607.087
586.708
656.486
604.516
1168.61
582.453
480.669
378.397
631.663
603.852
485.367
508.827
458.353
556.561
662.585
586.55
632.709
622.25
602.204
654.287
593.361
647.821
576.927
782.848
556.083
759.71
583.005
782.227
750.595
691.864
581.69
663.529
599.854
719.143
509.175
690.773
549.025
515.532
648.841
496.557
486.381
644.121
666.993
825.156
737.298
630.969
277.085
408.79
733.142
496.411
654.709
625.325
617.845
766.023
924.1
559.284
528.986
772.524
566.2
566.546
774.91
766.049
636.124
799.074
601.817
719.97
675.632
596.46
546.123
671.01
584.154
531.904
626.079
666.653
680.524
642.217
639.99
541.969
687.897
696.282
761.74
504.466
584.79
510.49
704.226
618.77
543.703
506.13
604.889
589.335
645.534
690.322
675.125
754.753
689.819
671.564
719.807
723.914
766.804
766.229
816.115
836.38
771.639
703.581
731.096
711.492
757.054
790.195
808.588
641.279
730.634
763.569
731.797
703.138
701.996
715.744
662.65
723.745
679.433
801.051
761.324
746.993
678.251
690.642
751.229
844.578
865.984
926.844
656.378
646.58
804.622
687.765
615.757
614.598
678.683
624.859
676.333
683.066
651.854
628.917
710.678
802.124
619.284
650.402
606.25
680.553
637.032
574.647
580.377
634.859
675.29
840.244
777.088
788.403
664.207
663.461
643.495
606.457
617.751
615.807
614.573
642.162
601.535
656.359
585.984
736.13
543.361
614.919
618.254
629.996
562.232
593.243
593.67
586.775
685.375
596.881
664.519
664.747
655.482
641.578
630.1
598.523
598.594
541.754
495.451
590.756
719.165
695.898
645.084
703.127
621.998
580.375
589.513
498.023
519.349
646.491
286.906
602.873
733.375
625.596
860.626
639.664
702.782
704.333
742.981
677.035
580.229
646.587
661.653
639.841
640.085
723.52
635.489
671.044
656.653
737.397
526.174
548.631
500.864
643.333
579.584
494.082
531.51
590.693
713.288
798.717
800.548
784.838
705.006
687.723
636.878
663.715
453.492
533.65
452.611
620.482
584.535
791.342
652.437
821.021
518.708
550.424
667.935
773.873
595.224
537.355
714.727
579.07
659.396
776.36
837.821
619.928
743.728
588.415
475.805
575.987
444.489
305.301
690.877
572.666
823.61
506.53
688.665
909.193
898.233
797.886
960.709
884.921
487.461
473.874
428.814
742.42
536.199
668.531
401
378.675
516.195
895.231
760.425
754.106
632.841
528.543
786.762
695.098
568.766
666.188
709.267
611.963
631.056
313.554
465.83
323.33
689.712
798.833
424.908
582.707
513.459
721.864
586.613
502.719
407.81
555.934
334.226
578.11
399.592
605.03
579.138
611.564
620.187
552.903
649.176
556.452
608.772
650.747
634.683
586.478
585.047
553.571
603.042
642.047
602.1
607.343
585.77
603.777
556.613
647.633
626.351
585.949
595.389
657.067
632.824
649.797
371.114
571.172
466.564
695.589
726.581
663.238
498.996
605.893
675.604
610.445
879.314
684.943
702.473
849.212
798.232
572.81
702.098
527.993
733.22
623.507
570.166
730.743
691.026
601.053
632.218
550.557
593.348
707.088
645.17
841.452
615.486
455.538
580.132
602.138
698.211
679.269
672.054
751.974
797.286
446.23
498.644
509.668
579.215
552.699
587.967
620.967
538.702
620.396
587.787
745.693
476.648
515.801
518.705
678.467
622.728
659.515
516.553
420.256
821.276
602.889
464.067
524.76
527.744
483.248
576.144
508.655
493.873
433.752
645.337
853.225
440.579
786.51
469.199
689.474
919.455
758.378
748.102
950.854
681.11
825.827
718.547
703.641
387.534
304.948
646.747
414.01
539.951
365.828
784.71
389.028
428.791
497.039
432.727
491.1
631.328
843.905
533.087
537.705
560.478
864.203
514.592
712.333
605.352
517.412
523.522
968.241
805.951
938.821
336.538
812.058
382.971
532.984
654.917
606.779
699.738
624.196
852.654
632.003
734.678
1026.33
633.258
566.598
640.698
614.804
506.286
456.747
425.779
903.315
696.062
740.592
767.364
823.675
776.58
748.107
612.283
539.504
521.733
472.955
593.357
751.897
678.808
509.148
537.737
641.35
621.172
768.447
632.65
686.334
523.283
656.369
527.253
639.543
738.736
676.684
633.872
603.146
730.08
743.373
812.247
643.837
752.909
870.792
719.769
902.853
691.845
764.675
490.199
812.087
697.345
499.091
526.573
435.871
632.533
365.912
413.508
604.451
559.118
509.044
507.286
623.017
855.546
969.342
957.015
861.358
674.592
725.201
688.993
730.124
802.245
539.535
357.341
560.479
577.161
749.684
619.126
780.106
667.855
483.706
333.406
644.979
440.862
641.064
555.008
771.672
603.235
499.515
490.491
654.299
588.005
647.094
589.191
625.782
692.818
537.223
620.958
576.018
513.802
740.732
562.941
599.463
SCALARS SignedDistance double 1
LOOKUP_TABLE default
48.5527
48.5847
50.1366
51.7245
57.4262
49.7322
53.3712
55.6398
62.4291
59.9651
61.4085
59.1435
54.8015
51.3213
44.0831
44.4072
45.1813
49.8294
49.6568
58.974
58.2105
63.0062
51.2538
54.0314
63.0919
56.2561
66.184
60.506
53.3136
58.3258
59.315
60.7484
60.7655
62.2268
53.8824
54.4061
52.9748
54.326
57.6375
59.6231
66.1735
63.2379
49.0339
46.8046
45.5393
55.9374
51.9896
55.4839
45.9324
48.6374
50.4588
45.9493
45.5961
45.3672
43.1966
45.6264
46.061
46.1386
46.3469
47.9883
48.0988
46.3265
53.0414
50.2777
52.9653
52.1852
52.3442
56.7971
54.6824
61.8974
58.2452
61.4332
56.345
65.2636
60.5807
60.1877
58.2569
47.6519
50.1184
50.5522
47.928
56.8958
51.8313
56.4121
53.5703
51.6038
59.2203
56.7588
59.3283
57.6903
58.3274
63.6747
59.3706
63.3331
65.8892
56.5172
64.9917
58.902
60.6787
61.0413
54.8991
56.425
54.3218
57.8616
59.5609
54.7965
56.4212
52.3791
52.2987
62.4297
58.2007
62.0555
58.7759
55.7276
51.8323
60.0331
60.8895
64.5172
57.6273
55.2388
58.1821
44.4943
43.74
59.2087
54.0685
43.6648
42.7674
49.9056
45.8314
51.9256
48.5607
46.0683
52.7293
55.948
53.0122
66.6405
63.2557
55.3355
56.0111
62.7594
60.1298
62.4944
61.5161
65.7379
65.977
63.7637
59.7616
57.6685
56.7831
54.6603
55.9078
55.2759
60.2053
55.2037
61.6338
59.2853
61.5349
58.6916
56.8327
60.0705
59.6996
56.1285
47.8641
46.2226
47.0495
48.7114
47.3872
50.8066
44.6618
45.9925
45.4135
57.736
55.2019
58.3174
52.2467
53.6821
54.0465
56.1926
54.3017
53.0425
47.5804
48.526
50.7556
46.0837
47.3419
44.6899
51.0443
49.4887
50.3006
49.1497
49.7428
47.2404
46.2045
47.0676
43.1856
43.9155
46.6393
46.1298
45.5011
47.6715
46.1964
43.591
44.9979
44.7059
44.9231
43.2621
46.9817
46.1306
47.992
45.4959
46.1535
46.5881
44.9298
44.0106
43.3833
42.5615
42.9815
45.3966
46.3557
48.1658
46.8978
45.5645
48.5806
46.9658
47.8512
48.2726
46.9528
48.1144
47.3658
48.7231
45.9679
46.8735
55.5119
53.5457
55.634
49.5157
51.6759
51.2043
51.2032
51.7138
49.4258
46.3664
48.1979
48.1364
49.7471
50.2161
50.3747
49.4916
55.5038
52.4828
55.3267
55.7269
55.7862
57.7672
56.9839
57.9418
53.2966
51.7368
62.3831
61.0835
60.4941
58.4035
59.9556
60.4079
60.4958
58.6336
57.8523
53.4008
56.8627
55.7063
50.5873
56.2154
52.9049
52.0586
57.3435
62.506
63.3109
61.5985
61.7546
64.0068
61.2295
59.7181
59.8448
57.8741
59.2733
59.3172
63.1962
60.6171
62.3028
58.8625
60.5808
59.6184
48.2924
49.4021
45.3599
46.3503
50.9032
48.3796
49.5346
49.6518
47.7581
50.4123
48.7252
50.5525
45.861
45.2511
58.0246
57.0762
58.3483
52.5915
54.8982
55.8275
54.0652
54.5279
51.9734
47.2437
50.1187
50.1055
50.0501
50.4251
53.248
51.5211
53.3175
52.0805
54.9579
59.2441
58.1122
58.3474
58.0986
60.7464
56.3451
55.3222
61.9835
61.8953
58.1826
57.055
57.9472
57.9629
62.1161
61.3549
60.0803
55.8415
57.1005
56.3365
58.5233
58.1556
62.3889
61.8639
63.8737
59.9192
65.6975
62.3804
63.4139
68.2047
65.0035
61.4926
66.0836
64.6316
54.2979
56.3291
52.9799
63.1888
58.4691
57.7044
61.0648
59.5158
64.9786
65.7607
68.9583
67.6972
60.5922
61.0271
61.9221
61.0911
58.9947
60.0335
60.25
57.3098
57.0285
54.4051
55.3833
54.5621
58.4211
60.3763
53.4802
58.935
56.8037
58.7419
59.0099
56.0545
54.7203
58.0873
54.4688
58.5084
55.2476
58.7985
55.0748
55.9758
51.694
53.2685
58.7489
56.3652
57.199
49.8748
49.6962
55.9399
52.5991
55.8009
49.4922
50.3908
61.5811
61.5774
62.7901
58.4059
60.158
61.6245
60.2287
59.6515
59.1727
53.5449
56.3745
57.1172
56.558
55.8874
51.4137
56.5956
56.6004
57.5011
51.9514
55.7497
56.1493
60.0402
62.4474
60.4229
62.1816
64.5089
60.8793
66.2382
66.8432
61.263
56.4478
55.71
58.1561
56.4394
56.0236
56.6198
60.5772
56.3872
57.8824
56.549
57.2386
55.0716
47.42
46.8207
48.3771
47.1188
48.0989
45.0216
47.5141
56.421
59.4782
53.4367
59.337
59.2143
57.706
53.2185
46.4199
45.4752
49.2029
44.7842
44.4257
49.746
51.3453
45.8481
48.0752
48.4899
47.843
43.1852
46.3048
50.6519
46.6346
44.1222
54.143
47.9046
50.7859
48.0685
44.5317
49.0687
45.5142
51.0338
42.9589
46.9827
52.5966
52.7899
52.5838
55.457
60.2604
61.6955
62.2195
60.4154
55.9091
46.2757
50.6389
50.7428
57.9153
57.3423
62.5685
59.6695
63.919
63.9891
66.5974
53.3348
52.9862
57.5584
55.1953
57.8754
54.0625
63.109
63.3865
62.868
62.511
61.1949
61.2938
62.2136
60.5809
61.217
60.1056
64.8366
58.2691
63.1394
62.1438
63.1269
62.7417
59.767
61.2576
63.1308
64.4867
63.7922
65.7916
64.377
65.6261
67.7068
59.5309
60.1121
67.34
63.5252
61.4222
60.302
61.4467
68.7878
65.2035
67.4786
61.95
59.52
60.7683
58.4189
57.4763
58.2911
54.5826
56.3089
58.3524
58.4485
50.532
55.1227
52.711
51.1755
52.7153
56.9631
56.0018
56.8424
54.3396
55.9437
54.7138
56.5853
56.6192
55.64
57.9612
56.4088
56.6941
57.3526
59.4118
59.127
63.7755
63.5878
62.85
55.3367
56.8594
55.5551
52.7247
62.4989
54.1357
54.0567
55.7261
53.4636
64.1374
60.4462
54.9602
56.9268
62.0297
58.7919
60.0985
61.0081
61.5384
64.2279
63.7595
56.8022
61.4407
59.8461
61.5997
61.9342
62.6333
58.6121
55.3651
59.1077
59.352
58.8351
57.6331
61.2792
59.294
55.4195
55.1364
59.9142
56.6293
59.4795
58.7833
60.8396
60.834
59.042
59.3462
63.9951
60.5136
61.2917
63.7644
62.3143
50.4427
56.1816
52.1869
53.1903
57.6471
60.4235
60.0082
59.5789
