# vtk DataFile Version 4.2
vtk output
ASCII
DATASET POLYDATA
POINTS 642 double
-77.406 168.61 86.7713
136.578 168.782 85.5688
-73.9447 -210.343 80.5012
133.875 -209.87 80.6932
30.6664 -121.913 235.589
31.5949 102.6 259.741
30.5322 -124.148 -82.8972
31.1275 89.5432 -76.3697
172.07 -13.4573 -8.16247
182.349 -3.55293 182.971
-112.459 -15.6743 -10.8925
-124.576 -5.06876 181.057
-131.162 94.5877 147.728
-67.8697 52.3221 245.866
-34.351 167.602 193.18
95.7766 166.636 193.205
30.5832 207.227 86.6299
91.8094 156.692 -15.4718
-31.0363 157.281 -15.4472
-55.9464 46.8378 -64.2015
-118.877 90.9575 28.7996
-145.2 -12.5601 97.1771
128.38 53.2831 246.798
190.649 92.9596 147.299
-55.1381 -74.566 226.439
29.315 -3.57138 279.727
-103.578 -133.72 34.8092
-109.909 -122.727 137.684
29.1178 -18.2898 -117.404
-54.1691 -83.0927 -69.0414
179.978 91.8087 29.5603
116.694 49.4081 -63.9342
170.957 -119.317 139.031
115.886 -74.689 226.891
86.0973 -199.957 174.309
-26.3306 -204.126 175.744
29.8241 -245.723 87.8974
-31.4364 -200.331 -6.67959
88.6819 -197.99 -4.66034
111.68 -83.1182 -66.7978
157.487 -126.03 34.4715
203.481 -12.2978 89.8103
-111.693 137.588 119.796
-91.7984 136.642 173.701
-61.3248 176.106 141.573
-102.595 24.0727 218.679
-106.506 79.638 201.444
-131.628 44.8797 169.571
-2.49766 140.859 234.055
-56.1084 116.072 226.673
-19.5709 81.4101 259.795
-4.84341 198.067 145.082
-27.7618 195.698 84.7301
64.473 139.963 235.099
29.8727 178.339 200.018
88.8585 195.748 85.5841
65.9289 198.146 144.543
121.176 176.061 141.684
-4.45903 192.421 29.4579
-57.3509 171.714 32.4759
118.502 170.549 32.5225
64.5284 192.186 29.3041
-1.20338 129.208 -52.1263
30.5116 165.861 -20.5089
62.1444 128.939 -52.3486
-82.9099 130.751 1.52464
-105.321 134.302 55.7736
-13.9727 71.4213 -77.7993
-49.0814 108.04 -46.8457
-118.478 42.1818 7.5494
-92.8406 75.7992 -23.1772
-89.4525 16.736 -40.5972
-134.093 98.3598 90.0699
-130.175 -9.03341 37.5792
-138.465 46.3532 58.6076
-140.885 48.6795 120.307
-145.648 -13.2118 134.486
151.152 136.259 174.723
169.814 135.485 120.365
82.1889 83.1105 261.093
117.408 116.103 229.093
192.047 45.358 169.118
165.854 78.7798 202.338
162.296 24.793 219.566
-18.2568 22.5351 275.007
30.9859 44.8878 279.327
-95.5614 -35.2591 210.028
-66.198 -2.99708 247.007
30.0064 -60.559 260.131
-15.243 -33.8409 263.636
-15.7482 -104.846 238.082
-137.08 -60.3198 117.233
-123.685 -59.7973 159.747
-111.618 -66.5326 2.89346
-123.836 -70.4471 61.0498
-93.9562 -176.063 107.331
-117.545 -135.077 79.7886
-97.9331 -176.889 52.6633
-53.4248 -19.2223 -79.125
-86.7967 -50.491 -42.7656
29.9165 28.9849 -105.374
-9.70749 5.67072 -103.873
-13.5779 -107.128 -84.0261
-10.6787 -44.3216 -102.847
29.6201 -69.1629 -101.053
110.119 107.696 -47.0344
75.8199 72.4283 -78.333
166.341 133.777 54.0077
144.206 130.318 1.56198
148.561 20.2891 -38.657
152.983 75.8961 -23.1586
178.896 41.7972 7.65332
151.479 -175.077 103.914
132.889 -165.677 156.822
113.213 -211.802 130.13
154.364 -33.9519 211.338
150.381 -105.309 187.336
178.367 -63.7427 158.553
58.3959 -167.495 205.258
106.474 -137.17 207.244
76.7435 -105.083 238.016
60.7612 -236.998 136.799
89.9035 -237.885 81.7181
1.37714 -171.522 202.974
26.9917 -212.289 182.77
-28.4711 -237.974 84.1421
-4.30569 -240.968 137.859
-54.0991 -215.589 133.249
66.1253 -233.555 31.0577
116.302 -211.947 36.0008
-57.8552 -214.329 32.7246
-7.86375 -234.769 30.1525
58.5999 -155.879 -55.5139
29.4643 -205.587 -10.4137
0.734347 -156.902 -54.3269
133.733 -172.762 14.2654
154.437 -177.492 56.7931
72.6098 -107.683 -83.6035
100.613 -133.905 -50.1916
171.766 -65.9628 4.99188
143.835 -99.2318 -25.8988
145.675 -49.3045 -39.7401
172.079 -132.645 84.6372
190.435 -6.59602 39.1037
185.62 -63.3724 62.4005
194.078 -62.4682 114.057
200.361 -8.83717 135.446
76.5256 -35.0336 262.206
128.246 -2.2472 247.062
79.9249 24.8012 273.805
-72.8615 -170.987 155.493
-45.6987 -139.178 206.045
-90.1187 -106.012 187.965
-42.8735 -136.133 -48.7465
-77.9449 -175.032 11.6246
-85.2747 -101.147 -27.8771
112.431 -18.3123 -76.3653
69.0171 -44.6946 -100.798
68.9566 7.23133 -102.137
201.972 48.9269 120.996
198.934 45.8735 60.1251
194.847 96.1097 87.0484
-96.0572 154.728 104.11
-89.1286 158.214 131.455
-71.293 173.648 113.96
-114.608 116.284 160.968
-104.007 138.249 147.223
-123.287 117.155 134.31
-48.825 174.171 168.013
-77.6748 158.09 159.181
-64.2605 154.282 184.63
-115.622 10.0698 200.969
-119.263 34.3275 195.517
-130.188 16.9416 177.902
-88.3012 66.8808 225.525
-104.805 51.7876 211.853
-86.9167 38.0553 234.149
-132.757 72.6586 158.867
-120.933 64.5849 185.512
-121.391 88.697 175.193
14.8062 122.097 249.605
-12.2512 113.21 249.003
5.93733 93.5118 261.51
-46.3004 143.879 211.994
-30.1448 130.503 231.748
-18.6105 156.337 215.383
-44.6012 67.4594 254.452
-38.9249 100.038 244.683
-63.2035 85.0399 237.733
-101.858 109.098 189.371
-83.971 98.4975 215.659
-75.6931 128.55 202.152
-45.184 188.385 115.827
-54.4074 183.611 85.3765
-20.5862 186.044 170.966
-33.6835 189.728 145.007
1.63969 203.146 85.7952
-15.5986 198.805 116.199
13.6118 205.547 114.883
47.649 121.671 250.105
30.5821 142.762 235.587
63.8865 175.072 198.248
47.7139 161.504 218.025
80.3595 155.123 215.994
12.78 162.282 218.072
-3.07519 175.885 198.57
114.861 183.93 85.758
105.609 188.6 115.596
129.843 173.694 113.738
47.5291 205.558 114.802
76.708 198.833 116.046
59.2909 203.196 86.1491
109.685 173.68 167.787
94.5818 189.699 144.561
81.7337 185.642 170.289
12.1694 192.03 175.07
48.1256 191.446 174.527
30.3517 199.92 144.988
-43.6298 187.172 56.0331
-68.0599 172.344 58.6909
12.6717 201.045 57.2069
-16.4774 197.127 55.6215
-45.1857 166.539 7.86027
-31.6329 184.535 29.9789
-18.699 177.324 5.84462
128.894 171.551 59.0498
104.409 186.204 57.1689
78.9688 176.807 5.67954
91.9416 183.48 29.9601
106.125 165.611 7.68968
76.5986 196.394 56.3681
47.883 201.135 57.3344
15.1208 110.537 -65.3414
30.6158 130.867 -52.7308
46.3833 110.287 -65.6312
-1.82943 164.103 -19.7444
13.5054 149.45 -37.4484
-16.1179 144.554 -35.7256
76.8776 144.208 -35.7779
47.4302 149.426 -37.5107
62.4395 163.969 -19.7855
30.4208 194.855 28.1764
47.6326 182.403 2.63252
13.1144 182.398 2.72135
-82.8201 154.887 41.7171
-92.5064 153.169 71.3976
-58.5583 146.106 -8.16609
-71.5648 152.325 15.1391
-113.939 113.601 41.4991
-95.06 133.953 26.2653
-102.815 112.147 13.7773
7.96987 81.0609 -79.3206
-9.89927 102.808 -65.5972
-53.4075 80.2041 -55.9578
-33.294 92.4017 -62.5273
-34.9216 60.3165 -72.4487
-26.481 120.177 -50.7599
-41.294 133.814 -33.299
-115.081 11.6674 -2.744
-105.527 30.7532 -19.1402
-102.178 -0.0857676 -26.31
-107.298 84.9118 0.781528
-107.006 60.2735 -8.71552
-120.248 67.9038 17.9884
-75.1472 31.9648 -53.6126
-91.9049 47.2141 -32.9524
-75.8726 62.8922 -44.5772
-67.3347 120.916 -24.641
-73.0096 93.3757 -36.5761
-89.9161 104.007 -12.819
-111.635 137.071 89.1156
-128.764 95.5513 59.4134
-122.309 116.506 73.6118
-125.596 118.136 105.248
-135.137 98.2024 119.765
-121.779 -13.4646 9.40416
-126.363 16.448 23.1022
-142.315 16.2435 74.5718
-137.065 19.2361 50.2214
-139.587 -8.13351 67.8447
-130.531 45.7575 34.9331
-131.578 69.2484 44.8402
-138.534 15.7003 154.407
-136.678 -8.93902 158.648
-139.084 74.5717 134.605
-138.968 48.9179 145.155
-149.648 -14.7839 116.722
-144.081 11.5092 129.24
-144.159 10.5367 106.152
-138.456 74.0336 73.7957
-141.394 48.305 88.3259
-139.913 76.4869 105.692
147.245 157.387 132.401
153.557 153.516 102.987
125.159 153.679 185.384
137.387 157.675 159.896
182.379 115.259 134.957
162.575 137.15 148.279
173.296 115.406 161.317
57.4527 93.8723 262.52
75.3151 112.746 250.757
123.532 86.5003 239.539
101.042 100.828 247.212
105.694 69.4764 255.393
92.6056 129.641 233.706
108.125 143.025 213.399
188.31 20.1014 177.738
178.867 36.007 195.692
173.982 11.023 201.701
180.31 87.3329 175.27
181.649 62.5181 186.119
193.309 69.8811 158.46
147.545 38.081 234.82
165.445 51.304 212.656
148.299 67.1106 226.591
136.087 128.416 203.746
143.494 99.0401 217.342
160.696 109.033 190.368
5.15395 62.5639 272.533
31.5072 74.8529 270.175
-44.3213 37.4112 262.049
-20.1755 49.5857 269.256
30.0451 19.0097 281.909
5.02458 32.3944 279.74
5.57891 9.26865 280.92
-111.766 -19.6266 196.023
-99.9783 -3.09162 216.924
-62.1787 -34.6007 240.193
-81.4695 -18.772 230.36
-76.1478 -54.3986 220.591
-85.1402 11.3956 235.151
-68.8388 23.5679 249.58
30.6004 -96.347 245.837
7.49915 -83.449 248.328
6.68152 -114.692 238.719
6.56809 -17.7635 274.407
7.28008 -46.029 264.584
29.3904 -29.2393 271.715
-35.939 -92.566 235.063
-16.0979 -68.8145 248.268
-37.2932 -53.6543 247.096
-43.9533 10.1789 263.196
-41.0751 -18.7613 257.909
-17.0935 -3.74716 272.375
-137.51 -34.276 147.18
-126.537 -32.4237 170.281
-144.3 -32.0954 110.284
-144.433 -33.1475 125.013
-114.859 -91.5355 150.278
-132.724 -60.1598 137.267
-121.653 -91.836 125.772
-112.759 -39.495 -5.0818
-121.482 -39.4993 17.3865
-115.177 -104.656 46.4538
-119.071 -68.7999 27.3448
-108.667 -95.8059 16.2142
-129.214 -35.5619 48.1464
-138.191 -32.8901 81.9768
-85.4732 -195.11 94.4502
-98.9628 -177.48 78.5004
-87.7193 -195.464 65.6461
-114.744 -130.938 106.98
-107.7 -155.13 91.8707
-102.149 -151.048 120.768
-102.208 -158.157 43.7657
-108.429 -157.143 66.2015
-113.93 -137.477 59.7754
-131.871 -66.9752 93.9115
-121.406 -108.875 73.2153
-122.036 -100.954 95.6026
-89.0949 -17.4143 -43.6595
-101.444 -31.8654 -26.9569
-53.8976 9.32897 -72.388
-72.3338 -2.55552 -59.0837
-71.3556 -68.1125 -57.0307
-71.5236 -34.5791 -60.9279
-54.3116 -48.6089 -73.7879
30.5852 59.7135 -90.9114
10.1352 47.8409 -93.9755
10.0671 -6.67997 -113.869
10.645 16.5935 -107.212
29.3254 2.90852 -113.48
-11.0398 36.217 -91.7457
-30.625 24.3204 -85.252
8.18113 -117.011 -85.5117
6.82486 -91.2799 -95.046
30.5233 -102.675 -92.6254
-31.7747 -65.774 -85.582
-12.9199 -78.7008 -92.6112
-34.4245 -96.1933 -78.4713
29.1089 -37.2131 -113.986
8.07825 -54.8139 -105.439
10.1344 -29.1815 -114.016
-32.0376 -7.28209 -94.934
-11.2699 -18.0595 -108.198
-32.5889 -30.4942 -94.3401
70.9855 102.246 -66.306
53.9261 81.5246 -79.6744
102.412 133.332 -33.3814
[...]
POINT_DATA 642
SCALARS Mean_Curvature double 1
LOOKUP_TABLE default
0.00872843
0.00993012
0.0154795
0.0233061
0.00777883
0.00857655
0.0116075
0.0041247
0.0139725
0.00931116
0.0137964
0.00255247
0.016452
0.0103712
0.0118741
0.0108239
0.0150233
0.0105933
0.0111688
0.00657863
0.00850181
0.00994431
0.00961688
0.0149995
-0.0057019
0.0137966
-0.00177071
0.0101768
0.031306
0.0122702
0.0106107
0.00941078
0.0134158
-0.00322674
0.0164397
0.0175789
0.00090958
0.0179058
0.013703
0.00988894
-0.00675659
0.0121062
0.0136241
0.011062
0.0112846
0.012388
0.0116409
0.00797702
0.0114725
0.00990076
0.00773669
0.0117046
0.00857438
0.011552
0.0124752
0.00993171
0.012397
0.0122158
0.0125988
0.011428
0.0109111
0.0132786
0.0123846
0.00779872
0.0123394
0.0123038
0.00838519
0.00762358
0.0127375
0.00561863
0.00972979
0.00603345
0.0142878
0.00227486
0.0106426
0.000905491
0.01716
0.011482
0.0101656
0.0106048
0.0120936
0.0098929
0.00938143
0.0120724
0.0164027
0.0116188
0.00670715
0.00862663
0.00717534
0.00840763
0.0121194
0.0191415
0.00936729
0.0085613
-0.00402597
0.00888249
0.0201535
0.0198597
0.0134288
0.00646501
0.0178907
0.0124568
0.0142233
0.0101866
-0.000745527
0.0126179
0.0104404
0.0103563
0.0125542
0.00457081
0.00837783
0.00781373
0.00565106
0.00494346
0.0132572
0.00748202
0.0136542
0.000967508
0.00417078
0.0102757
0.0127211
0.0133762
0.0175815
0.00134418
0.0176898
0.00874451
0.0185864
0.0156302
0.0161598
0.0144425
0.0160443
0.0170278
0.013603
0.00676766
0.011796
0.0162203
0.0278781
0.0161884
0.0103124
0.0121292
0.0104817
0.00556652
0.0117541
0.00173236
-0.00407505
0.0105934
0.00870987
0.00826043
0.0104484
0.0136218
0.00407069
0.00910953
0.0146638
0.00938637
0.0158489
0.0103324
0.0115014
0.00863194
0.0116748
0.00327829
0.00794469
0.0145966
0.0112152
0.0120427
0.00956461
0.0120449
0.0115663
0.012641
0.0111918
0.0102225
0.0108684
0.0132186
0.00986477
0.016025
0.0100424
0.00790925
0.0132719
0.0125827
0.00839888
0.0146639
0.012252
0.0114301
0.00859439
0.0109518
0.0106872
0.0119281
0.0080961
0.00870076
0.00860892
0.0114874
0.0101479
0.0110232
0.00966571
0.0077018
0.0127484
0.0129963
0.00732307
0.00713427
0.0127514
0.0113452
0.00784137
0.0119609
0.0100086
0.0108005
0.0121745
0.0133467
0.0102961
0.0108848
0.0086512
0.0127871
0.00732156
0.00764311
0.0109326
0.0136131
0.0124579
0.0152069
0.0131085
0.00477272
0.0142196
0.0111966
0.00700315
0.014253
0.0110758
0.0125911
0.0114938
0.0108186
0.0123625
0.0112675
0.0109035
0.01086
0.0116951
0.00799679
0.00862015
0.00694868
0.00883665
0.0120066
0.0104247
0.0117681
0.0112958
0.0108121
0.0122524
0.0111876
0.0127784
0.0120544
0.0107601
0.00687276
0.0114762
0.011941
0.00881285
0.0117225
0.0111932
0.00894276
0.00982221
0.00846772
0.0114302
0.00531837
0.0120857
0.0116489
0.00332668
0.0113854
0.00727464
0.0118828
0.00727974
0.00805024
0.0113836
0.00821012
0.00734858
0.0120383
0.011961
0.0120143
0.012839
0.0114204
0.0102861
0.0122722
0.0175961
0.0107055
0.00349052
0.00897745
0.00985228
0.00764777
0.00670414
0.0110494
0.00792114
0.0108328
0.0159957
0.00932436
0.0393596
0.0073478
0.000685183
0.0137984
0.00399402
0.00974273
0.0104603
0.00592008
0.0114915
0.0111291
0.0132816
0.0113594
0.011016
0.0104776
0.0127149
0.00941002
0.0131624
0.00756083
0.0118133
0.0116211
0.00988569
0.0102497
0.0102047
0.0106505
0.011902
0.012522
0.013005
0.0106235
0.00914495
0.0121512
0.0102996
0.0109233
0.0102448
0.00611044
0.0107036
0.00798063
0.0119038
0.0141306
0.0202267
0.00509062
0.00887818
0.00857989
0.00749819
0.0070505
0.0113192
0.0155507
0.00605835
0.00168697
0.0142378
0.0111345
0.00983655
0.00713876
0.0141183
-0.000380897
0.00829791
0.0128412
0.00819808
0.0118939
0.0117251
0.00996739
0.00974688
0.0192642
0.00458792
0.0100203
0.00123236
0.0078789
0.0070906
0.00177839
0.00723724
0.00655048
0.00145674
0.00337295
0.01246
0.0137068
0.0173603
0.010024
0.00794211
0.00568254
0.0126117
0.0154665
0.0158512
0.00389129
0.0123849
-9.79082e-05
0.00934979
0.00995063
0.000845592
0.00417924
0.00912947
0.00675649
0.00341168
0.00922781
0.00789692
0.0212884
0.0127368
0.017145
0.00686861
0.00350734
0.0157712
0.0139565
0.0102558
0.0018412
0.00894747
0.0144671
0.0190394
0.009875
0.0220072
0.0157864
0.0237494
0.0129692
0.0101553
0.0103454
0.0116264
0.0118168
0.00902873
0.0109387
0.00876725
0.00945655
0.011274
0.0119936
0.0119205
0.00953576
0.0121511
0.0115667
0.00462706
0.0101562
0.00432327
0.00929409
0.011651
0.00922423
0.00514118
0.00798119
0.0108282
0.0123593
0.0127845
0.0116136
0.0200442
0.0109006
0.0147304
0.00909069
0.0043175
0.00761235
0.0166543
0.0113225
0.00904495
0.00690949
0.00445079
0.00625637
0.0150119
-0.00689674
0.00629462
0.00954061
0.0095573
0.01366
0.0063129
0.0111828
0.0143066
0.00378254
0.00618722
0.0125319
0.0130471
0.0119822
0.0123558
0.0110608
0.0125443
0.00732643
0.0108753
0.0196665
0.0148946
0.015345
0.0111809
0.00796939
0.0207533
0.00556473
-0.00029601
0.0205077
0.0178358
0.0178619
0.0103583
0.0146601
0.0116701
0.0125228
0.0134415
0.0232911
0.0203445
0.00516657
0.016494
0.0165462
0.0171908
0.0140256
0.0164287
0.0160008
0.0164777
0.0161655
0.0115992
0.0151269
0.0149964
0.0152662
0.0159182
0.0164275
0.0170554
0.0176793
0.0175497
0.0167887
0.017819
0.0100789
0.0157441
0.00801371
0.0150604
0.0152634
0.00122729
0.00122888
0.00311183
-0.00194911
0.0165016
0.00964733
0.0108166
0.0146935
0.0158932
0.0205651
0.0123011
0.016068
0.00710678
0.0237463
-0.00221105
0.0171043
0.0159643
0.0131138
0.0149418
0.0145507
0.0120915
0.00287472
0.00475286
0.00945075
0.00794062
0.00860247
0.0110468
0.00928361
0.00742741
0.00957177
0.012078
0.00155672
0.00937276
0.00455716
0.0258568
0.0053088
0.0113218
0.00558794
0.0125291
0.0090428
0.00557557
0.0144385
0.000222849
0.00136668
0.0109834
0.00347111
0.0115828
0.00488938
0.006912
0.00754863
0.0109678
0.0157656
0.01631
0.00824828
0.0115714
0.00337135
0.00225834
0.00868623
3.42104e-05
0.00786236
0.00961321
0.0105666
0.0164625
0.0138806
0.00865888
0.00889434
0.00936776
0.0169734
0.0158743
0.00800319
0.0135741
0.00795098
0.0127285
0.00710826
0.0163029
0.0111067
0.0148927
0.00742641
0.00647735
0.0105051
0.0117383
0.0111597
0.00412813
0.00249602
0.00808523
0.0146882
0.00158456
-0.00536582
0.0145521
0.00534345
0.0120068
0.0101706
0.0144224
0.00111733
0.0100894
0.0134937
0.0131631
0.01612
0.011214
0.0206678
0.0169657
0.0160052
0.00699104
0.0139711
0.0107125
0.0103989
0.00461852
-0.000640867
0.00102861
0.00963585
0.0101883
0.00600125
0.00493603
0.00370155
0.000831625
0.0173022
0.0211866
0.00821682
0.0079918
0.000675406
0.00684085
0.00350831
0.00629826
0.0129463
0.0182661
0.0114634
0.0219495
0.0126205
0.0125187
0.000472581
0.0104815
0.0114954
0.018755
0.00603231
0.00807579
0.00507441
0.0132125
0.0140821
0.00986667
0.0144735
0.0075984
0.0133905
0.0149128
0.00560306
0.0177752
0.0108004
SCALARS CoVolArea double 1
LOOKUP_TABLE default
638.386
630.279
522.583
425.366
600.893
618.18
435.535
611.21
518.897
517.747
497.049
530.07
672.119
816.23
880.752
899.714
908.188
802.172
795.62
920.489
749.187
623.16
812.876
702.007
936.716
631.09
847.165
880.103
423.075
712.363
703.738
835.689
717.061
910.852
702.306
653.836
951.315
705.896
766.388
729.103
1074.17
669.073
745.336
900.604
843.844
664.761
827.298
746.45
831.307
919.636
860.101
966.024
912.412
847.877
917.047
891.801
967.015
823.437
887.418
767
786.047
888.901
728.359
867.378
729.775
779.28
805.433
817.257
736.7
779.433
743.804
743.694
709.446
847.496
752.771
897.72
550.548
881.663
821.428
798.244
866.913
669.1
855.972
646.286
706.079
773.323
883.256
748.336
869.653
843.178
742.167
751.897
778.966
720.453
1218.69
704.069
639.771
547.196
760.434
721.308
643.234
665.856
609.021
715.043
798.341
742.465
770.162
765.116
768.302
762.165
735.206
754.206
700.803
917.11
714.466
855.673
723.856
895.587
859.778
845.367
715.379
851.743
774.011
823.277
693.207
857.015
753.718
686.249
835.324
668.925
664.348
831.225
812.582
950.38
875.951
773.203
433.345
562.074
879.16
623.045
799.591
735.343
761.995
846.161
1011.22
711.247
673.154
900.368
711.555
729.175
903.329
914.807
778.753
933.771
745.489
865.308
796.997
743.883
700.44
778.594
725.521
708.243
768.937
816.189
816.79
816.498
791.832
704.976
833.344
842.474
919.337
632.031
724.757
647.873
857.375
756.306
690.006
645.771
739.687
755.779
785.49
828.936
804.274
911.773
831.741
817.979
847.955
853.307
911.172
950.439
987.043
1012.91
906.119
839.573
900.389
858.992
890.697
924.78
961.938
783.55
872.948
926.616
874.561
846.394
849.213
886.474
803.532
865.787
811.795
955.67
901.096
881.385
824.818
841.884
917.468
1033.24
1051.82
1098.88
809.196
786.047
954.196
836.822
759.209
767.685
839.603
766.414
825.059
842.856
799.379
770.555
855.312
951.633
741.089
780.414
729.571
836.173
774.496
718.309
723.044
772.249
830.933
1019.41
958.906
968.952
805.761
797.486
804.09
754.946
751.175
759.059
766.669
770.441
737.007
788.707
717.711
844.002
688.518
776.228
731.414
751.756
687.962
732.74
712.451
697.638
799.065
723.671
799.738
845.805
819.226
815.242
775.917
755.056
745.737
702.605
667.758
703.085
814.335
827.328
758.663
798.823
729.301
721.59
736.667
640.085
661.17
773.184
438.129
749.514
852.954
790.637
976.336
782.617
839.161
830.503
904.029
823.766
732.219
793.3
826.578
774.729
790.142
871.316
780.31
806.039
809.555
900.085
651.775
683.748
625.074
804.989
722.39
642.091
680.574
734.29
864.699
980.127
969.884
959.494
845.697
818.471
799.018
808.834
610.905
695.277
619.086
731.121
704.93
907.751
768.158
914.989
652.5
709.314
778.437
877.124
727.758
682.213
829.262
702.636
783.757
893.312
958.723
792.847
893.867
758.104
633.611
705.315
581.455
471.92
806.477
723.313
957.561
630.369
791.643
1006.02
981.298
903.653
1025.71
962.172
641.632
626.298
599.232
881.519
681.974
789.494
522.523
539.794
651.362
1009.15
882.796
904.771
749.761
655.57
900.739
799.553
686.744
777.494
832.551
749.627
776.449
489.946
619.119
484.186
817.922
918.29
573.286
727.113
655.086
849.344
726.465
638.693
562.365
706.525
512.301
741.078
591.506
768.065
719.079
744.056
780.805
698
772.562
694.458
750.512
786.221
780.35
741.467
732.866
698.633
752.551
803.218
721.135
724.402
696.983
743.654
682.415
752.638
730.106
707.741
730.423
839.52
805.64
816.79
531.493
703.461
633.376
851.576
835.969
802.751
654.057
730.62
810.363
720.143
961.049
794.237
828.854
925.015
896.251
696.933
801.9
682.671
849.837
767.105
703.058
865.418
826.185
727.917
758.321
696.673
742.432
886.702
826.148
1004.18
784.942
631.94
766.978
770.298
850.54
844.421
851.464
864.042
875.721
634.858
626.597
643.551
699.877
726.045
752.984
790.609
705.878
803.941
763.327
887.934
639.455
695.293
717.48
890.027
845.044
881.145
694.667
599.401
980.053
776.131
620.384
696.388
702.826
656.012
751.887
692.758
673.955
605.432
813.963
1004.75
595.524
921.042
622.659
830.257
1024.6
879.83
863.253
1049.97
822.087
1024.54
907.708
893.118
576.442
488.999
798.9
577.822
605.295
502.488
858.581
542.773
592.711
647.711
586.024
620.77
776.403
978.973
653.168
658.905
681.27
970.953
647.577
826.972
715.031
639.023
663.209
1124.49
967.357
1087.28
493.537
899.757
511.888
681.133
808.361
715.882
800.501
744.721
920.255
725.836
834.018
1115.81
769.34
690.341
774.039
751.194
642.23
608.421
586.143
1025.14
847.496
886.845
870.252
950.949
890.173
856.558
748.362
666.014
686.898
613.925
717.825
880.088
821.538
666.632
696.278
787.523
785.772
918.73
802.09
842.329
673.453
788.332
666.307
751.381
882.43
814.872
778.141
748.663
859.774
869.47
904.936
791.796
847.652
955.37
846.618
1056.87
873.454
943.801
652.252
926.852
835.302
656.009
689.275
620.09
746.896
521.82
585.458
749.61
678.003
661.756
632.766
747.806
975.527
1093.56
1102.66
1017.97
786.314
846.431
794.154
827.072
908.85
688.829
530.593
708.626
709.547
869.39
766.979
905.02
801.602
636.055
506.422
801.137
625.059
796.539
692.742
889.273
724.411
632.019
643.961
757.368
717.125
756.901
701.141
765.318
831.251
710.102
773.881
733.245
675.547
878.179
730.316
758.723
SCALARS SignedDistance double 1
LOOKUP_TABLE default
65.7726
65.9472
67.4319
68.9956
78.0217
66.9412
72.6973
75.6412
84.8294
81.1682
83.5847
79.4331
71.8635
70.2235
60.2999
60.55
61.1749
67.9797
67.7982
79.7181
78.2398
85.2382
70.046
71.6585
84.1759
76.0502
87.0698
80.7341
72.1406
79.3623
79.3121
81.6496
81.4044
83.5021
72.4594
72.5613
67.8994
72.8629
75.8501
81.0339
87.8103
85.2188
66.6458
64.0089
61.9979
75.8573
70.6991
75.1605
62.6327
66.0529
68.4554
61.1665
62.181
62.0354
59.0764
62.1936
61.2333
62.6751
63.1344
65.5349
65.7366
63.2651
72.0854
68.2306
71.9698
71.1995
70.8531
77.2697
74.3828
83.4029
79.2888
83.4628
75.1079
87.4787
82.2221
81.3604
78.8224
64.8706
68.1402
68.4434
65.1537
77.1301
70.7172
76.3606
72.2457
69.3575
80.4715
77.2178
80.3088
78.3896
78.7928
85.6101
81.1497
85.5387
88.5683
76.5862
85.8806
77.8104
81.6027
82.7999
74.5812
76.823
74.2231
78.0366
78.5138
74.4448
76.6452
70.8402
71.3375
84.4771
79.3476
83.8296
78.9916
75.8617
69.5918
81.6307
81.7936
85.8005
76.9192
75.7348
78.7267
60.798
59.8517
78.8526
71.475
59.7198
58.5055
67.4603
62.6027
69.5907
65.9838
62.5408
72.1342
74.0985
72.4915
87.0803
83.7906
75.3686
76.575
85.0489
81.9433
84.5955
83.2627
87.5499
88.7496
85.621
81.1017
78.3824
77.2906
73.636
75.9668
75.6837
80.8857
75.4632
80.6242
80.5275
82.8761
79.1419
77.3798
81.2549
81.1801
74.6208
65.296
63.3821
63.9123
66.5678
64.5962
68.6075
60.8738
62.7177
62.1072
78.0952
75.0797
78.5041
70.8402
72.9044
73.0967
75.6779
73.7738
71.216
64.4621
65.8242
68.2051
62.8474
64.3056
61.0932
69.2908
67.3292
68.4601
67.0252
67.8378
64.5162
62.7633
63.8902
59.1927
60.0407
62.7219
61.8821
61.3543
64.5512
62.8207
59.5119
61.0281
61.0169
60.7717
59.1038
63.8608
62.8021
65.0736
61.3529
61.8896
62.6955
61.1967
60.2015
59.4461
57.8394
58.5435
61.2711
63.1834
65.5356
63.2416
61.743
66.3102
64.0648
65.3044
65.6827
63.8537
65.5783
64.5643
66.5052
62.4474
63.231
74.7829
72.6215
74.9387
67.4891
70.1347
69.6309
69.6567
70.17
67.5096
63.19
65.3855
65.3287
67.8379
68.049
68.833
67.847
74.6865
71.1267
74.797
75.8531
75.2848
78.2624
76.6786
78.7243
72.5899
70.7171
84.3582
82.6092
82.4194
78.8219
81.1243
81.472
81.6185
80.1235
78.9805
72.6672
76.9503
75.6533
68.749
76.0071
71.9666
70.2036
75.3359
84.8362
85.3941
83.0536
83.8716
86.4596
82.9351
80.5807
80.1857
78.0899
79.4642
79.3413
84.4317
80.6145
83.8837
78.8293
81.8791
80.3435
65.5461
67.1584
62.1273
63.3204
68.9038
65.8891
67.6579
67.1031
64.6086
68.4674
66.2464
68.8593
62.8087
62.0376
78.703
77.1346
78.9759
71.2585
74.0498
74.972
73.3404
73.7469
70.5814
64.5189
68.2026
68.0115
68.1003
68.165
71.678
69.9945
72.0124
70.2183
74.0848
80.0858
78.8231
79.4866
79.0006
82.1181
76.5934
74.8674
82.036
82.6616
78.532
77.2741
78.8747
78.2485
81.245
81.8592
81.1513
75.5312
77.6657
76.2813
79.5324
79.4951
84.5619
82.3185
84.7799
81.3798
86.5139
84.6199
85.9507
89.1887
86.9327
83.6974
88.0233
87.244
72.5911
75.7708
71.0013
83.7243
78.7642
78.2357
82.6298
80.0871
85.4646
88.4203
91.7074
90.2599
82.4966
83.1251
82.914
82.6385
80.5306
81.6548
81.1394
76.7845
77.0843
73.9314
75.2444
73.762
78.8955
81.0255
72.9475
77.5492
75.4825
79.2472
79.0277
76.331
74.1487
77.7173
74.0253
79.2396
75.141
79.4077
74.6579
75.793
70.7113
72.489
79.1222
76.2076
77.8812
67.8258
67.8294
75.3258
71.243
74.9753
67.915
68.9022
83.9535
83.6677
85.2529
79.4986
81.7376
83.5141
81.5648
80.978
79.9261
72.813
76.2883
77.2583
74.9364
74.7435
69.1446
77.2624
76.7689
78.2171
70.2907
74.7277
75.3702
81.3827
84.1952
82.0244
82.7985
86.2576
82.4869
86.9777
87.098
81.6381
76.8827
76.1658
78.516
76.2458
76.0492
75.7461
80.8773
77.0183
78.6159
77.2968
77.8671
75.3382
64.3234
63.4827
65.8492
64.3295
63.1577
61.2433
61.7886
76.8093
79.4696
70.9879
77.0967
77.3412
76.3912
70.8756
62.9556
62.0475
66.6863
59.0466
59.4828
64.2814
69.1448
62.2686
65.0208
65.2464
64.1629
58.823
63.0316
68.184
61.1398
60.1524
72.4151
65.2401
68.5307
65.1572
60.6407
66.444
62.3253
68.8434
58.6057
61.2116
71.8231
72.1195
71.8149
73.7292
76.9953
78.6024
78.6788
77.0395
74.0777
63.1261
68.2087
68.2576
75.9773
75.3472
80.2291
77.9253
86.4852
84.7628
88.6745
73.0399
72.6776
78.3866
75.4461
78.4229
74.0336
80.8682
85.8809
85.0684
84.9079
83.207
83.5683
84.6412
82.4493
83.2511
81.4844
83.8767
79.5065
84.0339
81.5686
85.3428
84.7482
80.7968
82.3074
85.6912
87.0795
86.4076
88.4395
87.0055
87.1942
90.1449
81.337
81.3832
88.2817
85.2488
83.0395
81.9756
83.2631
91.3303
87.5439
89.5024
82.7223
80.6758
81.4675
79.2854
77.7635
79.2207
74.156
76.6268
79.3476
79.6468
68.5833
74.4805
71.222
69.5642
71.2282
77.6131
75.733
76.7547
72.6855
75.0402
73.4544
76.6957
76.972
76.0803
78.6094
77.0109
76.604
77.1244
80.9997
79.8291
84.4648
84.5386
82.8355
75.4038
77.3781
76.283
72.2483
80.4972
74.0812
74.1089
76.2791
71.4027
85.7394
79.4995
73.2123
75.5426
84.0933
79.6478
81.8048
82.9011
83.2259
82.9765
83.9963
77.7425
83.7043
81.6363
83.541
83.8031
83.9856
78.1129
75.1211
78.8221
79.9244
79.9521
77.505
81.9681
79.5639
75.3604
74.7624
80.873
76.7979
80.5129
79.6213
82.3639
82.0757
79.1068
79.3198
86.3183
81.8015
82.8166
86.0359
84.2731
68.7037
74.4052
70.7795
72.2013
77.0358
81.6985
80.8477
80.1702
