# vtk DataFile Version 4.2
vtk output
ASCII
DATASET POLYDATA
POINTS 642 double
-59.0987 145.142 89.017
117.508 145.721 86.9002
-52.2382 -189.622 79.1003
111.796 -189.267 79.3823
30.6799 -106.944 203.695
32.2127 90.8345 231.454
30.5052 -108.675 -53.954
31.3588 74.3504 -45.6091
138.383 -11.4334 10.3932
150.282 2.97983 166.027
-78.8806 -14.4622 6.68701
-93.8018 0.858292 162.255
-101.508 85.4908 139.515
-50.5545 46.6914 220.076
-23.6829 147.259 178.635
85.268 145.785 178.797
30.5505 179.398 88.7405
80.9039 134.806 3.14587
-20.2417 135.589 3.24221
-36.2446 39.6804 -35.0886
-87.5005 80.9465 42.5143
-107.179 -9.38525 104.188
110.63 47.7229 221.313
161.522 82.6893 138.905
-34.1278 -64.2554 195.553
28.615 4.31974 246.191
-67.7551 -124.499 49.7097
-77.3234 -111.268 127.482
28.1271 -18.1574 -84.5018
-32.4768 -76.4462 -41.1783
148.05 82.7355 43.9328
95.6971 43.8892 -34.301
138.089 -107.403 129.173
94.7998 -64.3766 196.61
71.8847 -181.823 151.832
-11.8839 -187.507 152.566
29.6873 -216.216 90.9202
-20.5714 -182.867 17.534
75.9995 -179.231 18.3284
88.9286 -76.2906 -38.7607
121.238 -112.583 47.6005
165.405 -9.6692 94.631
-87.8731 119.5 117.041
-72.347 119.337 161.163
-46.8728 152.801 135.388
-76.8232 24.9104 195.895
-82.199 72.0631 182.423
-100.114 41.69 157.435
3.15094 123.935 212.038
-41.554 102.634 204.257
-9.85624 71.796 231.821
0.372579 171.366 139.665
-19.0096 168.97 85.6167
59.4844 122.594 213.702
29.5063 156.862 184.393
80.0352 169.066 86.9602
60.674 171.508 138.843
105.845 152.973 135.705
0.583563 166.027 39.264
-41.9083 148.658 42.7933
103.307 147.15 42.7089
58.9633 165.89 38.9053
3.9482 110.886 -25.7813
30.4747 142.564 -0.138282
57.0007 110.435 -26.1563
-61.0498 113.833 17.5059
-79.948 116.523 63.9576
-2.62282 59.856 -46.9572
-33.167 94.5209 -20.8325
-84.2247 38.7249 23.7753
-65.8642 67.8128 -0.939223
-61.4664 14.096 -15.1715
-102.128 88.203 93.5389
-91.7184 -5.19169 48.5048
-102.221 44.2052 67.2189
-103.884 46.2476 119.284
-111.378 -11.1622 127.162
130.736 118.992 162.807
145.494 116.726 117.654
72.904 74.2777 232.784
102.378 102.798 207.65
159.587 43.2829 156.095
141.17 70.5477 183.849
135.515 25.9709 197.702
-7.68964 22.2947 244.239
30.931 39.7406 248.171
-69.9162 -24.7282 186.197
-46.3633 4.02708 219.057
29.7589 -47.3339 226.314
-4.85276 -21.9675 231.691
-6.8482 -93.1161 206.163
-100.42 -48.2357 116.874
-93.4042 -47.0497 144.075
-76.0991 -58.6092 16.6935
-85.1094 -62.4499 68.9015
-63.762 -161.049 98.5365
-79.8438 -126.511 80.5034
-66.7164 -163.384 60.2997
-28.9826 -20.0678 -50.9728
-57.9348 -46.2407 -18.8698
29.6379 17.0653 -73.6447
4.43635 -3.49489 -73.6875
-2.10798 -95.8767 -54.7551
3.156 -36.1439 -71.9937
28.8175 -59.215 -66.4987
93.9926 93.9903 -21.1983
64.8067 61.4831 -47.749
141.076 115.801 61.5547
122.365 113.409 17.5728
120.412 18.632 -12.6979
125.71 68.0702 -1.17572
144.659 38.7588 24.3416
120.158 -160.2 95.0895
108.708 -147.589 140.448
93.5455 -191.264 117.853
127.526 -22.6548 188.564
122.523 -96.1845 165.569
145.971 -53.4227 142.393
53.1544 -148.638 175.767
90.8165 -120.398 181.986
67.5441 -93.524 205.83
52.8396 -212.801 126.752
80.6165 -212.575 81.239
6.20159 -154.083 171.987
25.257 -193.413 158.207
-19.3879 -212.669 84.4695
1.73509 -217.475 128.175
-35.3413 -195.442 121.768
60.7774 -208.761 42.8132
98.6595 -191.049 49.1954
-41.2668 -193.575 44.3768
-4.13989 -209.635 41.8455
51.4074 -133.181 -33.5709
29.1958 -184.529 13.5714
7.54012 -134.129 -32.2141
103.786 -159.894 34.6335
119.519 -167.185 67.0551
59.6818 -97.2679 -54.2632
80.8872 -116.332 -28.2537
136.991 -58.1902 19.4629
114.773 -87.2464 -6.33504
116.617 -44.8027 -14.852
136.415 -121.526 88.3636
152.13 -2.05098 50.3823
147.504 -53.6356 71.8429
157.71 -50.7193 110.601
164.621 -5.72276 127.817
66.4397 -23.8015 230.003
108.66 5.27513 219.145
69.5482 25.6916 242.116
-48.1547 -154.525 137.881
-30.358 -122.657 180.408
-62.516 -96.6853 166.645
-24.4515 -117.735 -27.0659
-52.4394 -162.318 32.7462
-56.3558 -89.3677 -9.15692
87.5326 -18.741 -47.798
54.0016 -36.7081 -69.5078
53.9804 -0.719221 -71.6381
164.963 47.4917 119.401
163.282 43.6545 69.1297
163.245 85.3524 89.6084
-75.2094 133.853 104.252
-70.4633 137.078 126.768
-55.2269 149.505 111.861
-90.8867 101.908 150.003
-82.4508 120.247 139.223
-97.0676 102.874 128.809
-36.0718 152.177 157.44
-60.5582 137.56 149.607
-48.9535 135.17 171.034
-87.3722 13.7479 180.269
-90.6417 32.5926 177.351
-98.3966 17.5205 162.787
-66.8495 59.7033 202.814
-79.2678 47.4777 191.253
-64.8632 35.745 209.798
-100.643 67.5539 148.271
-92.2342 59.5161 169.102
-94.2121 80.328 160.543
18.0801 107.426 224.652
-4.42487 100.398 223.284
11.2788 82.6286 232.62
-33.5872 126.925 193.19
-19.582 115.373 209.271
-10.3342 137.728 196.861
-31.0542 59.4233 227.222
-26.6156 88.6385 219.179
-47.1961 74.9919 213.112
-79.9715 96.3131 172.984
-64.7357 87.3025 194.576
-58.5326 113.158 184.431
-33.1674 162.686 114.105
-40.7719 158.12 86.6716
-12.4497 162.592 161.103
-23.7639 165.169 139.413
6.308 175.013 87.4091
-8.09298 171.625 114.481
16.8013 178.091 112.527
45.2626 106.7 225.168
30.6763 125.192 213.137
58.5824 153.659 182.94
44.9988 141.752 198.776
72.4675 135.77 197.967
15.2711 142.813 198.664
2.11035 154.738 183.261
100.876 158.669 87.1492
93.1419 163.194 113.782
112.343 150.022 111.35
44.3248 178.106 112.432
69.165 171.654 114.316
54.4646 175.123 87.978
96.7279 151.555 157.246
84.4398 165.23 138.792
73.6343 162.217 160.171
14.5535 168.065 165.225
45.3275 167.212 164.427
30.25 172.544 139.002
-31.1871 162.079 61.23
-50.7364 149.023 64.6543
15.1063 172.714 62.7543
-9.81053 170.381 60.6585
-32.0755 143.967 22.5657
-21.2714 159.638 40.3606
-10.5262 153.031 20.4377
111.635 148.022 65.0171
91.8855 160.809 62.7897
70.4281 152.406 20.1296
81.2695 158.273 40.177
93.0834 142.775 22.229
69.4429 169.493 61.697
45.0985 172.849 62.9227
18.0056 93.4791 -35.7751
30.6423 112.108 -25.7347
43.8353 93.0377 -36.0885
3.01664 141.332 -0.0704269
15.7672 128.189 -13.9677
-8.0218 124.155 -13.1465
68.6511 123.683 -13.3128
45.0688 128.131 -14.0536
57.3627 141.207 -0.202878
30.3425 167.935 37.7722
44.8784 157.274 17.916
15.6619 157.283 18.0239
-62.0145 134.16 50.1361
-70.3521 132.292 76.9123
-42.2665 126.385 9.26757
-53.0655 131.943 28.1741
-85.2179 99.5361 52.6398
-70.8196 116.634 37.7695
-75.5039 98.4796 28.2665
13.4092 67.3537 -48.5011
-2.03371 88.0788 -35.5394
-34.9395 70.3183 -27.1226
-19.6006 80.3815 -32.7555
-18.6846 51.0529 -42.166
-15.9346 103.968 -24.3995
-27.9538 115.63 -10.7892
-80.51 9.33528 13.5282
-74.4973 27.5121 0.969814
-72.0042 -1.79052 -4.49183
-77.5756 76.3631 18.4414
-76.0432 54.4568 10.3899
-87.0708 61.8122 33.6019
-51.3722 27.4706 -26.4878
-64.8008 41.7407 -9.66266
-52.6728 55.1221 -18.5439
-48.0951 105.235 -3.32986
-51.0797 82.5628 -11.8126
-64.9543 91.7406 6.86495
-87.1773 118.55 92.7599
-97.5405 84.6146 68.6527
-94.2657 101.639 80.3431
-97.933 103.453 105.981
-102.676 88.5788 118.026
-85.3805 -11.8434 21.8861
-90.0066 16.4908 37.3179
-104.909 16.4513 80.522
-100.77 20.3159 61.2962
-101.825 -3.0089 76.5543
-95.5411 43.3032 48.7815
-97.585 63.5948 56.9112
-103.357 14.1149 144.102
-104.178 -5.67725 145.158
-103.403 70.7442 130.345
-103.6 46.1087 139.015
-111.783 -12.2219 118.899
-107.817 7.51232 126.052
-105.95 7.18258 108.597
-103.316 68.6764 79.2701
-104.168 46.1403 90.1723
-103.516 72.4315 105.857
127.034 135.968 128.296
131.497 132.444 102.097
109.682 134.385 172.373
119.564 137.205 151.059
155.912 100.152 129.599
140.178 118.815 141.022
148.842 100.776 150.511
53.1229 83.3915 234.061
68.4573 99.7461 225.464
106.583 77.0622 215.234
88.8157 90.0033 222.379
91.9826 62.159 228.313
82.6657 114.019 212.257
95.6927 125.619 195.511
156.039 21.9355 162.734
148.819 35.4842 177.659
144.342 15.0186 181.87
153.125 77.8704 160.799
152.73 57.4634 169.925
161.826 64.2057 147.684
124.962 35.722 210.813
139.367 47.3666 192.314
126.505 59.9775 204.372
118.201 113.096 186.875
123.185 88.0296 196.876
137.673 96.2111 174.491
10.2026 54.2181 243.225
31.8962 65.8766 240.315
-30.0201 33.9949 232.898
-9.91587 43.0673 239.982
29.5942 20.4692 249.212
10.0409 29.2048 248.421
10.5523 13.2617 248.062
-83.4512 -11.2243 174.387
-73.9183 3.78372 193.534
-42.4513 -23.8072 212.134
-58.4259 -9.69766 204.486
-53.366 -42.7158 194.059
-62.1912 15.7984 209.588
-49.6093 24.8091 221.847
30.5608 -84.9687 210.136
12.3568 -70.8816 212.581
11.0105 -101.502 206.21
11.5898 -7.19394 241.349
12.3479 -33.1167 231.663
28.7976 -17.934 237.719
-20.3103 -82.7688 204.388
-6.88979 -56.5932 214.809
-22.015 -41.4759 216.285
-28.2272 14.1923 233.007
-25.6593 -9.30855 227.67
-6.14625 3.90342 240.508
-104.903 -25.6123 134.767
-96.3851 -23.7784 152.743
-107.31 -22.8939 115.956
-108.544 -23.4543 122.075
-79.9688 -79.3943 136.5
-99.8599 -47.4292 128.155
-84.4843 -79.3847 118.816
-78.2381 -33.5097 10.5468
-84.4619 -33.8022 28.3059
-76.9969 -96.9794 56.1848
-81.086 -61.023 36.7999
-74.1424 -85.6723 27.9116
-90.7384 -28.6067 57.2605
-100.585 -24.7356 90.6045
-58.135 -177.923 88.7942
-68.164 -162.164 76.4285
-61.427 -178.126 67.8835
-79.1599 -120.425 101.392
-75.349 -141.936 87.1399
-71.4078 -136.988 110.931
-68.7361 -149.36 57.2376
-75.0353 -145.385 70.665
-77.9053 -129.368 69.0951
-93.9236 -56.5838 100.328
-80.4727 -102.214 78.1197
-82.3277 -91.2791 94.3828
-61.0824 -17.3017 -18.8757
-70.7524 -28.1235 -5.58936
-30.4935 3.85922 -42.9858
-46.8304 -5.09109 -31.621
-46.1745 -63.1065 -31.3165
-45.7545 -32.8669 -34.3441
-31.1573 -44.4758 -45.2064
30.5742 46.1748 -58.5524
16.9603 34.6843 -62.5708
17.4698 -12.0882 -81.7752
18.2826 5.81296 -75.7785
28.5687 -5.00829 -80.7902
2.55018 25.1471 -61.0343
-11.8199 15.4576 -55.3348
13.7794 -103.636 -56.1479
12.3008 -81.7172 -61.9521
30.3815 -92.7643 -60.2075
-13.6997 -59.3951 -55.3238
-0.0227053 -70.6909 -60.508
-17.5395 -87.4897 -49.8986
28.0799 -28.4371 -81.5602
14.2228 -44.4928 -73.077
17.4205 -23.7209 -81.9269
-11.6728 -11.9619 -66.1087
3.06755 -18.1584 -77.5027
-12.4506 -26.68 -65.1887
63.2911 87.2329 -36.8069
49.037 67.8918 -48.6762
89.0907 115.021 -11.0043
[...]
POINT_DATA 642
SCALARS Mean_Curvature double 1
LOOKUP_TABLE default
0.00851192
0.0105725
0.023477
0.0474248
0.010883
0.00600923
0.0127405
0.00313266
0.0193437
0.00781179
0.0186767
-0.0091825
0.0305197
0.0174014
0.0157144
0.0129958
0.0212719
0.0127546
0.014262
0.00873567
0.00776886
0.0143906
0.0151641
0.0274868
-0.0207427
0.0153989
-0.0117329
0.0167146
0.0772741
0.0116103
0.00836893
0.0100231
0.0227919
-0.0161746
0.0242718
0.0248224
-0.0135001
0.0280208
0.0183973
0.00907169
-0.0144149
0.0188799
0.0171941
0.0145681
0.0139381
0.0144352
0.0158314
0.0168046
0.0150205
0.0108843
0.00857281
0.0121553
0.0116586
0.0160307
0.0169283
0.0140091
0.0134978
0.0151881
0.0170396
0.0142844
0.0139672
0.0191508
0.0172855
0.00706226
0.0172339
0.0176113
0.0101333
0.0102624
0.0189207
0.00382288
0.0102354
-9.86504e-05
0.0224922
-0.0026779
0.0139327
-0.00171596
0.0467859
0.0148633
0.011064
0.0101596
0.0150942
0.0112134
0.0126328
0.0142922
0.0274543
0.0156082
0.00694699
0.00935398
0.0115639
0.0093151
0.0190742
0.031328
0.0151513
0.00869059
-0.00499221
0.00608925
0.0240663
0.0300738
0.014349
0.00507669
0.0344847
0.0143038
0.0224023
0.0126334
-0.0105952
0.0182444
0.0183981
0.0133237
0.0186761
0.00146331
0.00965003
0.00661451
0.00376681
0.00664676
0.0189615
0.0081917
0.0162753
0.00179192
0.00367598
0.0156404
0.018785
0.0198118
0.0299324
-0.0013947
0.031403
0.0155695
0.0341213
0.0251724
0.0254275
0.0221318
0.0261062
0.0231401
0.022102
0.00559009
0.0196053
0.0123028
0.0259054
0.0277004
0.0126861
0.0181094
0.0141479
0.00327329
0.0212097
-0.00153525
-0.00702702
0.0149234
0.0186098
0.0104938
0.0119209
0.0165153
0.00399408
0.0142568
0.0180639
0.0132374
0.0186083
0.0132144
0.010621
0.00978657
0.0150114
3.92718e-05
0.016271
0.0276002
0.0158791
0.0175854
0.00987265
0.0186094
0.0151288
0.0223481
0.0134457
0.0120054
0.0142391
0.0168111
0.0141608
0.0274913
0.0117773
0.00885234
0.0195413
0.0138877
0.00668862
0.0200358
0.0177125
0.0144791
0.00556987
0.0137693
0.0123746
0.0159987
0.00933365
0.0093777
0.0100407
0.0151578
0.0121577
0.014395
0.0105732
0.00872673
0.0173751
0.0195479
0.0061795
0.00645619
0.0170407
0.014569
0.00777134
0.0157685
0.010471
0.0133133
0.0138968
0.0182524
0.0132474
0.0135677
0.00810975
0.0171089
0.00648554
0.00662047
0.0127816
0.020846
0.0175108
0.0235474
0.0188938
0.00103994
0.0200173
0.0136321
0.00511357
0.0211714
0.0137989
0.0163428
0.0148136
0.0129306
0.0160738
0.0142485
0.0128117
0.0136759
0.0162348
0.00670685
0.0069191
0.00736129
0.00600567
0.0159794
0.011797
0.0155756
0.0146755
0.0122316
0.0168758
0.0156523
0.0162088
0.0152254
0.0139517
0.00578129
0.0156533
0.0171611
0.00878511
0.015918
0.013262
0.0153114
0.00979378
0.00618449
0.0123848
0.00523224
0.0174662
0.0154718
0.000992083
0.0167341
0.0136218
0.0147541
0.00746809
0.00579038
0.0173075
0.012439
0.00945556
0.0159639
0.0134606
0.0153913
0.016814
0.0161366
0.0144486
0.0207212
0.020667
0.0154033
0.00172972
0.0141573
0.0143969
0.00784378
0.00640556
0.0128957
0.00179555
0.022976
0.00937769
0.0107512
0.0588832
0.013942
-0.00579989
0.0175625
0.0028133
0.00302671
0.0112735
0.00537367
0.0157346
0.0148742
0.0204589
0.0151281
0.0155495
0.0116473
0.017089
0.00901758
0.0188173
0.00885705
0.0161748
0.0160938
0.0139073
0.00919586
0.0112712
0.0127156
0.015133
0.019259
0.0181125
0.0137916
0.0116185
0.0166308
0.0111909
0.012406
0.0156107
0.00576574
0.013814
0.00945648
0.0181976
0.0215703
0.0291381
0.00318402
0.00866761
0.0101572
0.00811081
0.013247
0.0127534
0.0194146
0.00585478
-0.00677553
0.0193206
0.0133316
0.0141896
0.00535884
0.025968
-0.00160894
0.0137511
0.0141894
0.00965119
0.0120714
0.0168953
0.0136399
0.00135511
0.0439336
0.0025551
0.0240571
-0.00105605
0.00970917
0.00881082
0.00179037
0.0048721
0.0126635
8.32638e-06
0.00272366
0.011118
0.0151735
0.0310962
0.012473
0.0160715
0.00936743
0.00887498
0.0373506
0.025321
0.00227105
0.00758738
-0.00499283
0.0118039
0.0148897
-0.00505611
0.00475846
0.0138923
0.00952758
0.000826839
0.00987789
0.012349
0.0378506
0.0172082
0.0275231
0.00948404
0.00256261
0.0267804
0.0200176
0.0126155
0.0015024
0.00792928
0.0210153
0.0278804
0.0206139
0.0398178
0.021673
0.047061
0.0168576
0.01269
0.014713
0.0158602
0.0166802
0.0100403
0.0119143
0.00951509
0.0107762
0.0153345
0.0153203
0.0164639
0.0107241
0.017642
0.0160413
0.00821926
0.0123928
0.00269599
0.0141487
0.0146578
0.00912856
0.00490065
0.012035
0.0084764
0.016966
0.0165578
0.0114558
0.0341315
0.00666154
0.0239783
0.0138178
0.00452626
0.0141679
0.0260419
0.00850462
0.00571209
0.00648823
0.00453125
0.00755655
0.0258554
-0.0199501
0.0130535
0.0132978
0.0100783
0.0194101
0.0078947
0.0175765
0.0200451
0.00083751
0.0107937
0.0135693
0.0235915
0.0163708
0.0157192
0.0169808
0.0194226
0.0123982
0.0149123
0.0344471
0.0250171
0.0257831
0.0163184
0.00819623
0.0363488
0.00758377
-0.00564588
0.0434846
0.0108754
0.0164138
0.0039751
0.023175
0.0160893
0.0172165
0.0236376
0.0376519
0.030132
0.00207852
0.0251109
0.0271947
0.029226
0.0193646
0.0236576
0.025186
0.0264466
0.0271584
0.0179572
0.0223153
0.0228786
0.0227105
0.0225734
0.0264026
0.0266695
0.0293429
0.0303461
0.0275666
0.028907
0.0158872
0.0226737
0.00890179
0.0214364
0.0202392
0.0033445
-0.00151956
-0.0103442
0.00261926
0.0205806
0.0133482
0.0124014
0.0180785
0.0387666
0.0562348
0.0156843
0.0320291
0.00140822
0.0148429
-0.00718305
0.0313486
0.0274186
0.0180282
0.023286
0.0167272
0.0172889
0.00835523
0.00323926
0.00977912
0.0107432
0.0131615
0.0151899
0.0135615
0.00881034
0.0105314
0.0142338
0.00215106
0.0110342
0.00930094
0.0283525
0.00878612
0.013147
0.0130553
0.0192378
0.013097
0.00614389
0.0177099
-0.00301281
-0.0041719
0.0122285
0.00252942
0.0175566
0.00125391
4.11021e-05
0.0148134
0.0102329
0.0263718
0.0274172
0.00582025
0.0172766
-0.00223646
-0.00620169
0.0153153
-0.00153975
0.00960806
0.0101566
0.0118786
0.0240677
0.0184549
0.00963595
0.011099
0.0127528
0.023488
0.0240319
0.0116042
0.0209827
0.0100693
0.0130182
0.00440861
0.0219459
0.00786647
0.0155724
0.00418978
0.00917885
0.016721
0.0139096
0.0143025
0.00879104
-0.00189542
0.0101848
0.0234256
-0.00492783
-0.0110598
0.0236677
0.00932593
0.0185065
0.0167003
0.0229771
-0.00389668
0.0161386
0.0199331
0.0206587
0.0304211
0.00736297
0.0275694
0.0299799
0.019729
0.00617656
0.0173933
0.012339
0.012881
0.00866897
-0.00400914
0.00489282
0.0134774
0.0137776
0.00940663
0.00393969
0.00452335
-0.00347399
0.0265942
0.0361563
0.0164188
0.00384373
0.000387859
0.0109037
0.00328449
0.00864035
0.0185568
0.0285913
0.0135671
0.0383023
0.015191
0.0215809
-9.6925e-05
0.00850149
0.014662
0.0140246
0.00426811
0.00281092
0.00661148
0.013826
0.0216145
0.0132115
0.0226495
0.010423
0.0222942
0.0226655
0.00476435
0.0177818
0.00474193
SCALARS CoVolArea double 1
LOOKUP_TABLE default
440.378
434.724
282.206
173.698
397.912
426.637
227.211
437.008
334.26
353.886
302.564
352.055
377.463
548.871
607.332
632.198
654.591
540.889
531.571
725.819
518.877
414.113
541.869
411.001
776.772
387.676
702.584
639.648
140.47
487.306
485.94
633.614
450.343
718.209
441.386
387.182
735.456
459.859
516.969
515.656
1013.84
428.987
479.946
620.484
596.846
433.137
565.216
510.18
581.46
664.767
641.538
692.824
674.584
596.017
623.918
649.755
691.887
576.553
605.252
513.887
536.86
608.075
495.025
608.849
496.098
499.115
571.124
593.488
473.58
609.447
507.694
548.315
425.193
692.222
514.95
745.518
259.536
601.84
588.636
563.209
591.121
436.849
594.124
414.451
412.881
504.614
716.763
515.386
687.515
611.804
508.178
465.436
564.002
524.061
1142.31
499.757
375.243
263.635
547.015
519.287
368.711
399.321
352.239
440.707
560.371
477.472
526.828
517.303
482.7
578.302
494.888
574.79
484.733
681.546
444.868
694.618
487.964
691.697
673.624
576.415
485.906
522.902
469.687
647.064
383.537
562.428
401.918
393.569
512.857
365.805
355.839
507.555
556.557
735.396
633.553
536.824
189.648
303.046
622.442
406.942
549.299
548.985
512.48
717.135
867.112
452.654
421.62
678.06
466.559
454.947
679.832
652.127
536.744
699.981
502.306
611.657
596.214
490.779
436.933
605.527
484.767
407.097
521.935
557.625
581.222
511.594
527.912
421.242
582.387
590.172
646.707
417.436
482.879
410.828
592.113
520.244
440.42
410.741
507.7
469.895
544.816
591.832
583.74
640.857
588.703
566.061
625.102
632.214
661.637
631.359
692.437
707.24
673.484
603.371
607.591
604.993
660.732
692.978
698.776
537.982
626.684
644.678
629.377
599.039
596.634
591.538
559.417
619.842
584.437
690.394
660.04
650.446
571.908
581.154
629.739
706.131
729.106
802.162
544.911
545.244
696.689
579.448
512.624
505.024
563.023
522.304
567.794
568.355
545.872
526.883
605.636
694.408
533.835
559.55
520.448
569.719
539.969
472.074
478.459
538.079
564.596
709.414
645.986
657.96
561.356
565.735
527.119
498.877
523.358
512.982
508.887
545.958
505.095
565.62
494.883
659.001
441.221
498.538
535.21
541.727
468.698
499.456
512.038
515.258
604.05
505.33
567.037
535.631
542.96
521.043
523.375
487.716
490.495
423.786
380.797
511.017
654.308
600.474
565.658
637.983
550.499
484.49
476.347
387.569
434.624
558.336
193.845
496.739
650.252
512.488
782.647
553.587
606.215
613.012
625.108
571.377
467.461
540.575
539.792
543.744
532.462
617.449
532.534
571.584
545.401
618.169
437.618
456.595
416.493
525.252
478.536
391.548
425.798
488.935
602.213
667.123
679.759
658.807
599.612
591.901
519.973
555.472
344.455
416.188
341.218
544.007
503.092
709.347
571.434
752.897
428.704
441.425
596.153
704.466
500.672
438.93
631.933
492.538
566.353
684.214
746.178
502.035
638.088
473.841
352.802
479.638
360.72
192.129
603.177
451.505
717.299
418.434
619.297
844.997
843.966
718.543
919.728
836.252
382.309
365.669
309.248
639.331
426.571
574.688
327.564
266.323
428.987
823.29
688.15
648.671
548.819
436.017
709.499
624.722
486.833
587.537
623.88
508.659
518.54
198.241
354.88
213.57
591.509
712.767
320.437
478.29
411.986
628.878
483.281
407.392
298.24
441.798
214.995
468.975
271.614
493.28
478.241
513.073
504.131
449.676
560.104
458.696
510.347
551.743
528.627
480.657
478.064
450.714
494.1
524.744
512.303
524.101
505.761
505.746
469.216
578.034
557.538
500.838
506.766
527.041
514.162
533.793
263.09
483.27
347.414
573.606
645.053
549.062
392.763
525.318
581.944
534.073
826.44
602.802
614.565
804.593
727.36
481.781
636.538
418.161
644.756
516.649
476.105
629.967
587.914
512.246
538.421
444.24
487.328
572.532
513.116
715.995
486.937
327.798
444.111
477.034
585.899
553.416
542.031
666.578
751.599
318.953
423.167
419.655
505.929
432.444
462.848
492.238
415.119
491.75
459.811
642.384
365.056
385.992
375.555
521.823
459.43
497.651
387.086
285.846
702.888
475.113
352.574
401.66
407.383
356.308
445.465
380.632
364.669
313.081
519.625
741.548
330.819
679.377
358.763
590.944
830.727
662.069
676.014
870.592
587.238
675.876
584.777
572.031
256.099
182.222
532.534
302.278
517.293
292.982
748.515
281.24
312.328
395.378
326.247
403.848
521.275
732.2
446.299
453.447
473.02
786.721
419.933
630.108
529.855
435.307
429.866
844.298
686.612
826.955
235.059
756.541
297.887
417.835
540.961
529.011
629.149
542.512
811.067
573.863
666.911
967.789
525.842
474.215
549.981
510.061
410.674
346.432
315.407
822.262
590.44
641.674
699.484
724.997
689.127
671.155
519.214
453.305
407.529
377.761
505.685
657.804
573.373
403.72
424.525
534.144
502.608
660.968
517.827
580.549
423.065
567.647
436.913
564.533
627.3
571.235
532.082
495.584
630.129
650.63
749.468
536.671
691.778
810.709
629.64
781.522
557.532
627.44
371.921
739.003
600.562
384.715
411.298
305.022
561.332
267.578
295.482
504.787
476.251
404.383
421.757
533.167
764.569
873.869
839.726
741.908
594.055
638.009
616.136
665.486
732.846
432.476
241.427
449.508
483.075
662.463
503.653
690.401
564.011
371.694
219.484
536.689
317.879
536.611
454.146
684.097
519.547
411.211
394.954
585.731
503.405
570.585
515.56
523.721
589.093
415.942
502.9
457.659
404.555
645.568
454.03
501.277
SCALARS SignedDistance double 1
LOOKUP_TABLE default
35.1821
35.0973
36.4901
38.3303
41.417
36.2758
38.3195
39.8914
44.9795
43.4781
44.237
43.7093
41.1105
36.4548
31.4962
31.9148
32.7084
35.766
35.6005
42.9997
42.6178
45.6246
36.479
40.0934
47.0593
40.806
49.424
44.9297
38.5838
41.8823
43.3524
44.603
44.5713
45.9528
39.3741
40.5574
41.9962
40.2374
44.5063
42.8679
49.4535
46.0215
35.2115
33.4781
32.9667
40.374
37.543
40.0698
32.8667
35.0857
36.5622
33.8864
32.7179
32.3262
30.8217
32.7516
34.0232
33.3414
33.3762
34.3835
34.4529
33.1823
38.2597
36.2643
38.3319
37.4223
37.8944
41.0083
39.2399
44.96
41.7122
44.3109
41.7712
47.8058
43.7393
43.6131
42.9129
34.2324
36.0073
36.5321
34.5434
40.923
37.2778
40.8256
38.7718
37.6178
42.7001
40.8533
42.8894
41.6275
42.4236
46.2673
42.3206
45.8391
47.9404
40.7323
47.8057
43.48
44.4309
44.1877
39.4733
40.4202
39.1783
41.9357
44.3537
39.3801
41.1326
38.0033
37.5263
45.2141
41.7066
45.0183
43.1304
40.139
37.8212
43.2222
44.5571
47.9352
42.6948
39.3666
42.0372
32.053
31.2867
43.8613
40.3652
31.3021
30.0198
36.1452
32.6152
38.0752
34.7926
33.2404
37.3717
42.5181
37.8129
49.8967
46.1536
40.1464
40.0883
45.5064
43.3514
45.2722
44.2671
48.232
48.1082
46.5943
43.1245
41.468
40.8228
39.6802
40.255
39.5102
44.0207
39.3917
46.143
42.7209
44.9853
42.7759
40.7352
43.4979
43.0183
41.6858
34.2822
33.2034
33.9519
34.6952
33.9823
36.9295
32.075
32.9637
32.4544
41.7236
39.6375
42.4705
37.7404
38.7341
39.1762
40.6321
39.1774
38.7175
34.4639
34.997
37.2289
33.0244
34.1642
31.9706
36.862
35.6263
36.0879
35.3711
35.7604
33.8344
33.3068
33.9412
31.0769
31.1817
34.0174
33.9523
33.0302
34.5611
33.1775
31.1327
32.597
32.0865
32.6571
30.927
33.8024
33.1095
34.6529
33.0207
33.9781
33.9596
32.3003
31.262
31.0811
30.5223
30.8297
33.2335
33.177
34.6722
34.2599
33.1823
34.8054
33.7563
34.3294
34.7688
33.8163
34.5465
34.0821
34.9089
32.9815
34.2324
40.5717
38.7168
40.6656
35.4818
37.2015
36.8486
36.8336
37.237
35.4689
33.2127
34.7271
34.6672
35.6124
36.306
35.937
35.1181
40.4752
37.9542
39.9358
40.4056
40.406
41.7111
41.4988
42.013
38.0909
37.0303
45.3141
44.3434
43.4203
42.399
43.4588
43.7609
44.1096
41.8543
41.3826
38.4266
41.0861
39.9882
36.4186
40.8376
37.7197
37.9701
42.3463
45.1098
46.1699
44.7401
44.4962
46.5353
44.2578
43.1996
44.0314
42.2183
43.1169
43.3084
46.1482
44.7503
45.3359
43.013
43.903
43.2371
34.8682
35.6168
32.3281
33.1252
36.8249
34.7413
35.365
35.8966
34.7328
36.2762
35.2291
36.4217
32.8274
32.1607
41.8432
41.3313
42.1453
37.7672
39.8055
40.4425
38.9312
39.5371
37.5754
33.9198
36.1315
36.1527
35.898
36.8311
38.885
37.2724
38.6881
37.9202
39.7291
43.1748
41.9229
41.8698
41.7618
43.9239
40.4791
39.9163
45.912
45.7493
42.2222
41.1699
41.5444
42.4096
47.3536
45.3608
43.6685
40.3766
41.024
40.6841
42.3853
41.7317
45.2561
45.3325
47.6128
43.1778
49.0395
45.0311
45.796
50.8488
47.428
44.1333
48.7426
47.0355
39.8533
40.8806
38.8862
46.7238
43.188
41.7732
43.777
43.3572
48.4712
47.8519
50.9192
49.9036
43.4615
43.7112
45.4792
44.3258
42.2838
43.1823
43.5618
42.2686
41.3688
39.1397
39.8196
39.4678
42.3724
44.2126
38.7965
43.8928
42.1286
42.8981
43.3136
40.7258
39.3182
42.8762
39.1792
42.1958
39.5752
42.7163
39.6963
40.7677
36.9623
38.082
42.8622
40.7913
41.1531
35.9348
35.5503
40.6127
38.0885
40.792
35.0956
35.9102
44.1671
44.3438
45.2034
41.8862
43.238
44.5147
43.7881
43.0808
42.7395
38.5923
40.6019
41.3184
42.5466
41.1518
37.3296
40.526
40.8961
41.5937
37.4985
41.0763
40.6718
43.4296
45.5191
43.5678
46.0837
48.0928
43.9648
50.4754
51.2612
45.3313
40.4746
39.8092
42.1918
41.1722
40.5334
41.1601
44.7342
40.4794
41.7566
40.5058
41.2681
39.2912
34.2736
33.8215
34.5503
33.5999
36.801
32.4523
36.7252
40.4524
43.8787
40.1729
44.782
44.3473
42.8105
39.3995
33.5002
32.481
35.3629
33.7378
32.6426
38.7333
37.1825
32.7813
34.6087
35.3269
34.9079
30.7517
33.0564
37.1759
35.8351
31.5577
40.1832
34.3934
36.8022
34.5694
31.8534
35.5349
32.362
37.0212
31.9769
36.4105
37.6178
37.7483
37.5978
42.1774
48.8856
50.1105
49.0977
49.2522
42.056
33.2225
36.8334
36.9961
44.0196
43.4948
48.09
45.4031
45.9674
46.5979
49.7437
38.8267
37.6171
41.5561
39.5184
41.7874
38.3888
50.3254
45.7436
45.427
45.1434
44.1968
43.8665
44.7363
43.736
44.183
43.3988
50.4274
41.7615
47.2029
45.9412
45.5741
45.4204
43.3186
45.4543
45.5563
47.1351
45.8963
47.8912
46.7617
48.736
49.7783
42.5347
43.6087
51.1481
46.638
44.4999
43.4784
44.225
51.1083
47.5189
50.0208
45.8598
42.9659
44.4039
42.0622
41.721
41.9768
39.0921
40.323
41.9871
41.9321
36.4103
39.8098
38.0061
37.1872
38.3144
40.8975
40.5347
41.3865
40.0973
40.8023
39.9915
40.7802
40.9094
39.7267
41.9861
40.5095
41.3197
41.9813
42.6194
43.3277
47.7942
47.968
47.6836
39.7748
40.9968
39.274
37.3735
48.6653
38.615
38.5256
39.9019
39.463
47.2203
44.7119
40.7793
42.363
44.7821
42.5658
43.3257
43.9209
44.596
49.0551
47.7796
40.5866
44.1701
43.1384
44.49
44.8786
46.1136
43.3987
39.7264
43.7081
43.1251
42.4514
42.1572
45.193
43.3877
39.5806
39.572
43.6623
40.7997
43.0361
42.8222
44.0381
44.1412
43.1198
43.2639
46.6886
43.852
44.4866
46.2298
45.0315
36.2047
41.7683
37.6915
38.4084
42.3807
43.7853
43.3755
43.2388
