# vtk DataFile Version 4.2
vtk output
ASCII
DATASET POLYDATA
POINTS 642 double
-71.61 161.02 87.4259
130.545 161.306 85.9739
-67.2451 -203.465 80.1285
127.02 -202.996 80.3559
30.6733 -116.914 225.407
31.7614 98.7184 250.787
30.5237 -119.074 -73.609
31.2098 84.6284 -66.4792
161.286 -12.8746 -2.10307
172.061 -1.58421 177.5
-101.719 -15.3485 -5.11879
-114.729 -3.2971 175.119
-122.048 91.3467 144.986
-62.322 50.3338 237.528
-30.9609 160.981 188.509
92.4383 159.885 188.576
30.5761 198.301 87.2634
88.3175 149.555 -9.5642
-27.578 150.197 -9.51607
-49.6378 44.4404 -54.8251
-108.949 87.5012 33.104
-133.008 -11.6521 99.3443
122.709 51.3446 238.556
181.507 89.3856 144.494
-48.4914 -71.1897 216.558
29.1068 -1.26535 268.953
-92.3025 -130.705 39.5197
-99.5743 -118.808 134.271
28.8448 -18.2781 -106.862
-47.3094 -80.8132 -60.0429
169.914 88.6249 34.0529
110.077 47.4723 -54.4611
160.577 -115.192 135.755
109.22 -71.327 217.176
81.6327 -193.877 167.303
-21.836 -198.471 168.606
29.7585 -236.328 88.7756
-27.9319 -194.344 0.877722
84.7006 -191.736 2.6597
104.477 -80.8348 -57.7251
146.098 -121.808 38.6879
191.277 -11.5307 91.1528
-104.131 131.663 118.828
-85.5851 130.985 169.652
-56.726 168.596 139.548
-94.3583 24.1284 211.347
-98.7747 77.0017 195.293
-121.558 43.758 165.496
-0.709628 135.329 227.018
-51.4617 111.639 219.535
-16.4756 78.2513 250.841
-3.19332 189.61 143.282
-24.9467 187.081 85.005
62.861 134.298 228.24
29.7632 171.35 195.039
86.0264 187.143 86.0021
64.2676 189.716 142.663
116.337 168.599 139.709
-2.84572 183.903 32.5596
-52.4423 164.213 35.7359
113.655 162.945 35.7485
62.7557 183.675 32.3553
0.464591 123.175 -43.7466
30.5003 158.278 -14.0952
60.4671 122.863 -44.0152
-75.9779 125.109 6.62394
-97.2883 128.424 58.3073
-10.4098 67.6207 -67.8547
-43.9967 103.456 -38.5538
-107.58 40.9867 12.814
-84.2261 73.0728 -15.9996
-80.491 15.7969 -32.4152
-124.08 94.7696 91.1525
-117.951 -7.89127 41.0993
-126.83 45.5198 61.3183
-129.047 47.8474 119.847
-134.642 -12.5921 131.766
144.668 130.605 170.86
162.068 129.37 119.446
79.2198 80.167 252.053
112.652 111.683 222.243
181.692 44.5285 164.842
157.992 75.953 196.347
153.786 24.9615 212.468
-14.9221 22.2239 265.158
30.9933 43.0975 269.399
-87.3143 -31.9436 202.339
-59.8511 -0.870051 237.973
29.9337 -56.4114 249.247
-11.9062 -30.1137 253.34
-12.8063 -100.935 227.798
-125.423 -56.4979 116.725
-113.831 -55.892 154.692
-100.309 -63.9479 7.43713
-111.458 -67.9675 63.5825
-84.3682 -171.034 104.547
-105.839 -131.908 79.8581
-88.3432 -172.199 54.9175
-45.7026 -19.4518 -70.09
-77.6073 -49.1138 -35.0277
29.8258 25.2053 -95.1559
-5.30798 2.79812 -94.0697
-9.93009 -103.319 -74.624
-6.37787 -41.7733 -92.861
29.4191 -66.0333 -90.1568
104.991 103.065 -38.7899
72.3563 68.7904 -68.4603
158.341 127.841 56.3324
137.288 124.659 6.6676
139.535 19.7065 -30.3362
144.27 73.2081 -16.0507
167.981 40.667 13.0352
141.616 -170.091 100.962
125.127 -159.849 151.508
107.167 -204.928 126.356
145.764 -30.4283 203.93
141.57 -102.126 180.341
167.946 -60.5816 153.405
56.6181 -161.515 195.893
101.407 -131.669 199.127
73.7304 -101.231 227.717
58.2978 -229.128 133.661
86.978 -229.692 81.5797
3.03312 -166.014 193.123
26.4577 -205.823 175.228
-25.5699 -229.774 84.2834
-2.42166 -233.315 134.789
-48.2828 -208.864 129.755
64.4492 -225.467 34.6747
110.789 -204.978 40.0523
-52.6617 -207.449 36.3242
-6.64714 -226.634 33.7215
56.3402 -148.573 -48.3562
29.3514 -198.623 -2.74857
2.80964 -149.635 -47.0686
124.755 -168.271 20.7391
143.763 -173.544 59.8274
68.5719 -104.091 -74.1896
94.4121 -128.116 -43.0598
160.657 -63.421 9.7194
134.56 -95.2265 -19.5603
136.407 -47.8412 -31.7186
160.681 -128.86 85.6104
178.273 -5.20105 42.7309
173.423 -60.3104 65.3571
182.428 -58.8507 112.792
188.881 -7.81822 132.87
73.2654 -31.5025 251.82
121.981 0.0143309 238.023
76.6384 24.8323 263.684
-64.9596 -165.667 149.79
-40.7222 -133.782 197.812
-81.3845 -102.799 181.089
-37.0441 -130.228 -41.6126
-70.1384 -170.648 18.1911
-76.0871 -97.2182 -21.7703
104.565 -18.4009 -67.1817
64.3536 -42.1967 -90.6849
64.3173 4.68596 -92.2282
190.127 48.3861 120.403
187.475 45.0262 62.9713
184.993 92.3087 87.7675
-89.4294 147.912 104.077
-83.1604 151.342 129.902
-66.1697 165.875 113.247
-107.039 111.491 157.409
-97.1456 132.368 144.614
-114.947 112.321 132.424
-44.7808 167.059 164.603
-72.2139 151.433 156.094
-59.3794 148.057 180.242
-106.55 11.0861 194.33
-110.092 33.6036 189.643
-120.044 16.9902 172.999
-81.5011 64.4356 218.209
-96.6704 50.2478 205.194
-79.9277 37.0879 226.322
-122.613 70.7866 155.244
-111.796 62.8274 180.151
-112.845 85.7465 170.475
15.8188 117.268 241.647
-9.77221 108.971 240.801
7.61273 89.9407 252.349
-42.2445 138.313 206.001
-26.8048 125.527 224.585
-15.9744 150.26 209.468
-40.2732 64.7793 245.715
-35.0045 96.2641 236.515
-58.0779 81.7182 229.83
-94.8898 104.822 184.119
-77.8334 94.7565 208.907
-70.2079 123.474 196.482
-41.3599 180.108 115.232
-50.0856 175.386 85.7657
-18.0021 178.473 167.747
-30.4994 181.786 143.155
3.14886 194.159 86.2796
-13.2001 190.142 115.614
14.6081 196.76 114.091
46.8788 116.757 242.166
30.6003 137.053 228.418
62.1978 168.116 193.357
46.8436 155.115 211.903
77.8347 148.847 210.217
13.5737 155.984 211.918
-1.42157 169.006 193.685
110.433 175.766 86.1849
101.656 180.396 114.974
124.313 166.04 112.96
46.5303 196.771 114.007
74.2973 190.172 115.455
57.7375 194.222 86.6954
105.588 166.529 164.378
91.3365 181.778 142.652
79.158 178.07 166.989
12.9302 184.282 171.849
47.2401 183.623 171.228
30.3224 191.18 142.999
-39.6733 179.039 57.6506
-62.5709 164.77 60.5408
13.4578 191.995 58.9636
-14.3232 188.53 57.2011
-41.0004 159.187 12.5184
-28.3293 176.459 33.2444
-16.0928 169.442 10.4618
123.419 163.919 60.9141
100.43 177.988 58.9217
76.2512 168.894 10.2525
88.546 175.318 33.1782
101.952 158.18 12.2977
74.2932 187.727 58.0439
46.9943 192.097 59.1063
16.0245 105.013 -55.9555
30.6226 124.714 -44.1589
45.5598 104.706 -56.2587
-0.252089 156.675 -13.5183
14.2487 142.527 -30.0013
-13.5091 137.893 -28.5633
74.2248 137.51 -28.6463
46.6551 142.494 -30.0725
60.789 156.539 -13.5797
30.3971 186.157 31.2205
46.7484 174.269 7.43737
13.9366 174.268 7.53389
-76.2187 148.088 44.383
-85.4977 146.356 73.073
-53.3577 139.621 -2.61235
-65.6643 145.622 19.286
-104.864 108.862 44.9557
-87.4025 128.177 29.9117
-94.2004 107.523 18.3903
9.70053 76.5838 -69.3777
-7.41887 97.9731 -56.0478
-47.5155 76.902 -46.7464
-28.9877 88.3962 -53.0768
-29.7752 57.2559 -62.6819
-23.1022 114.782 -42.369
-37.0256 127.812 -26.1436
-104.062 10.9251 2.62206
-95.605 29.6438 -12.6109
-92.4626 -0.623746 -19.2635
-97.8798 81.9336 6.43836
-97.1516 58.2855 -2.5127
-109.687 65.7581 22.9796
-67.5664 30.3759 -44.8674
-83.2147 45.3389 -25.3916
-68.4279 60.3068 -36.1755
-61.2349 115.67 -17.8689
-66.052 89.7079 -28.6874
-81.9936 99.8218 -6.53676
-103.859 130.978 90.1759
-118.875 91.8074 62.2597
-113.377 111.506 75.6446
-116.819 113.15 105.4
-125.169 94.7303 119.099
-110.135 -12.9642 13.5713
-114.757 16.3538 27.6973
-130.351 16.1647 76.4297
-125.39 19.4614 53.7368
-127.474 -6.63848 70.6137
-119.306 44.8502 39.3322
-120.721 67.2084 48.6302
-127.377 15.2459 151.016
-126.261 -7.88063 154.321
-127.841 73.0334 133.017
-127.809 47.9843 142.955
-137.634 -14.1066 117.027
-132.648 10.3095 128.005
-131.95 9.40006 106.73
-127.317 72.068 75.5499
-129.486 47.4975 88.9137
-128.347 74.8766 105.756
140.838 150.45 131.022
146.558 146.659 102.687
120.231 147.395 181.157
131.715 151.02 156.996
173.963 110.251 133.165
155.454 131.178 145.888
165.491 110.562 157.816
56.0818 90.3896 253.448
73.1235 108.44 242.712
118.145 83.358 231.737
97.1533 97.1933 239.249
101.306 67.0243 246.688
89.4419 124.508 226.826
104.152 137.323 207.655
177.965 20.571 172.88
169.306 35.6528 189.852
164.505 12.1565 195.3
171.672 84.0757 170.607
172.496 60.6806 180.873
183.366 67.8083 154.826
140.397 37.0986 227.055
157.189 49.8234 206.068
141.387 64.6819 219.428
130.411 123.346 198.321
137.045 95.3587 210.778
153.391 104.764 185.275
6.75531 59.8101 263.11
31.6206 71.9068 260.651
-39.8144 36.1164 252.751
-16.9563 47.3726 259.854
29.9282 19.2095 271.445
6.61232 31.1579 269.737
7.16951 10.2872 270.405
-102.678 -17.0238 189.097
-91.6153 -1.02006 209.379
-55.8524 -31.2286 231.105
-74.0705 -15.9677 221.99
-68.8169 -50.7569 212.051
-77.7848 12.6246 226.902
-62.7091 23.72 240.667
30.5959 -92.5415 234.646
9.1238 -79.4069 237.005
8.11066 -110.273 228.336
8.19503 -14.5223 263.753
8.93585 -41.9428 253.96
29.2169 -25.7121 260.824
-31.0521 -89.301 225.317
-13.0616 -64.9308 237.587
-32.45 -49.8374 237.163
-38.9669 11.2594 253.493
-36.1292 -15.8393 248.144
-13.6 -1.49878 262.113
-126.986 -31.6378 143.089
-116.765 -29.7376 164.649
-132.392 -29.2069 111.788
-133.1 -30.2346 123.562
-103.933 -87.6342 145.914
-122.103 -56.1715 134.096
-110.055 -87.8484 123.425
-101.71 -37.6695 0.0537345
-109.624 -37.7313 21.0263
-103.332 -102.207 49.6587
-107.041 -66.2871 30.4456
-97.6455 -92.4526 20.1576
-116.991 -33.3665 51.0528
-126.114 -30.3157 84.674
-77.0351 -189.292 92.7728
-89.304 -172.312 77.8435
-79.5864 -189.566 66.3914
-103.643 -127.3 104.99
-97.4357 -150.612 90.2658
-92.3232 -146.389 117.542
-91.5054 -154.96 47.8757
-97.8292 -152.991 67.4047
-102.701 -134.633 62.6904
-119.705 -63.7511 95.7931
-108.483 -106.608 74.7708
-109.457 -97.7563 94.9991
-80.0879 -17.3767 -35.6676
-91.575 -30.7422 -20.0228
-46.5373 7.52211 -62.9863
-64.1592 -3.3643 -50.2601
-63.2891 -66.4374 -48.6842
-63.2558 -33.9692 -52.359
-46.9907 -47.1941 -64.5941
30.5859 55.3524 -80.5881
12.2867 43.62 -83.8846
12.3524 -8.34824 -103.56
13.0082 13.1768 -97.0888
29.1103 0.456518 -102.99
-6.81761 32.6307 -81.8275
-24.7558 21.4356 -75.5938
9.95849 -112.533 -76.0757
8.52574 -88.0954 -84.6695
30.4956 -99.3222 -82.405
-26.066 -63.6489 -75.8365
-8.85127 -76.0205 -82.3694
-29.1022 -93.2294 -69.2843
28.8325 -34.5122 -103.565
10.0058 -51.6172 -95.0446
12.3934 -27.4955 -103.72
-25.6885 -8.79027 -85.5702
-6.82694 -18.0774 -98.2513
-26.3089 -29.2298 -84.8632
68.5269 97.324 -56.8919
52.3367 77.0836 -69.7144
[...]
POINT_DATA 642
SCALARS Mean_Curvature double 1
LOOKUP_TABLE default
0.00880521
0.0102472
0.0172578
0.0274033
0.00828773
0.00834966
0.0119073
0.00378712
0.0153664
0.00905272
0.0150904
0.000540671
0.0206567
0.0117023
0.0128702
0.0115105
0.0165965
0.0112335
0.0119863
0.00706756
0.00854461
0.0105278
0.0107373
0.0178781
-0.00973904
0.0144741
-0.00430699
0.0114517
0.03948
0.0123666
0.0106624
0.00993013
0.0153045
-0.00634631
0.0183181
0.0196444
-0.00268717
0.0200843
0.014357
0.00975305
-0.00826419
0.0136853
0.0147546
0.0119512
0.012081
0.0130268
0.0126375
0.00961491
0.0123355
0.0103104
0.00795479
0.0123352
0.00920217
0.0126027
0.0135795
0.0108339
0.0132258
0.0131384
0.0137245
0.0122379
0.0117158
0.0146603
0.0135356
0.00774646
0.0135218
0.0135793
0.00882539
0.00819879
0.0140898
0.00530283
0.00974626
0.0046517
0.0165552
0.0011597
0.0112753
-0.000197919
0.0211463
0.0123939
0.0104797
0.0106822
0.0130506
0.0100371
0.0100151
0.0127946
0.0190576
0.0128284
0.0067629
0.00880457
0.00811983
0.00868025
0.0131204
0.0224562
0.010754
0.00857194
-0.00460966
0.00798197
0.0222772
0.023253
0.0139932
0.00629844
0.021172
0.0130423
0.0159157
0.0107851
-0.00254214
0.0139013
0.0119001
0.0111267
0.0139548
0.00389488
0.00847557
0.0077326
0.00432925
0.00521112
0.014696
0.00765783
0.0146592
0.00114109
0.00419248
0.0115459
0.0140985
0.0149322
0.0203445
0.000353325
0.0200898
0.00992463
0.0217524
0.0178033
0.01831
0.0159208
0.01828
0.0187903
0.0157187
0.00625585
0.0137353
0.0164122
0.0310404
0.0187748
0.0109523
0.0135272
0.0113197
0.00513813
0.0139436
0.00118449
-0.0051312
0.0117929
0.0104431
0.00877155
0.0108589
0.014649
0.00378971
0.0103252
0.0157759
0.0104087
0.0172108
0.0111018
0.0116442
0.0088712
0.0124589
0.0021127
0.00966214
0.0179879
0.0123316
0.0133298
0.00976919
0.0132873
0.0126106
0.0140364
0.0119206
0.0107755
0.0117099
0.0142412
0.0108554
0.0183296
0.0106169
0.00816952
0.0151164
0.0123924
0.00797071
0.0163081
0.0135402
0.0122618
0.00815354
0.0117201
0.0112685
0.0129529
0.00843841
0.00888153
0.00897595
0.0124381
0.0107129
0.0118879
0.0099158
0.0080143
0.0138712
0.0144164
0.00717896
0.00716283
0.0138609
0.0121763
0.00785254
0.0129393
0.0103501
0.0115183
0.0129444
0.0145984
0.0110829
0.0115141
0.00862399
0.0138964
0.00733883
0.00753697
0.0115758
0.0151716
0.0136222
0.0171745
0.0144653
0.00385955
0.0156741
0.0119101
0.00670872
0.0160807
0.011867
0.0135702
0.0123886
0.0114606
0.0133642
0.0121117
0.0115029
0.0116517
0.0128471
0.00788802
0.00848551
0.00704789
0.00853475
0.0129919
0.0109055
0.0128415
0.0122527
0.0113295
0.0133326
0.0122122
0.0138094
0.0129855
0.0115521
0.00672096
0.0124786
0.0131475
0.00896166
0.0127992
0.0118992
0.0100896
0.00999542
0.00801522
0.0120836
0.00526686
0.0133465
0.0126258
0.00285671
0.0126776
0.00853765
0.0128478
0.00733419
0.00756101
0.0129648
0.00910576
0.0077186
0.013117
0.0126834
0.0128946
0.0139101
0.0127075
0.0110327
0.0136723
0.0199903
0.0117969
0.00296108
0.0103929
0.0108708
0.00769693
0.00660263
0.0115737
0.00669635
0.0134149
0.0148894
0.0103125
0.04626
0.00968276
-0.00110671
0.0150357
0.00365794
0.00801836
0.0108412
0.00580932
0.0125322
0.0120169
0.0147961
0.012402
0.0119716
0.0108015
0.0140173
0.00944811
0.0145034
0.00782384
0.0128712
0.0127008
0.0108302
0.0101965
0.0106267
0.011161
0.0130334
0.0139863
0.0144073
0.0115172
0.00984763
0.0132906
0.0106428
0.0114899
0.0114003
0.00612196
0.0117499
0.00829209
0.0133941
0.0159127
0.0227081
0.00470666
0.00890695
0.00898497
0.00765993
0.00850046
0.0117719
0.0167525
0.00656182
-0.000265363
0.0156267
0.0115868
0.0107838
0.00698476
0.0175178
-0.00078927
0.00950461
0.0134181
0.00852509
0.012151
0.0126273
0.0107606
0.00795394
0.0248196
0.00399461
0.0119758
0.00102971
0.00842341
0.00733509
0.00254227
0.00700537
0.00754629
0.00125484
0.00302851
0.0131401
0.0140796
0.0202513
0.0111216
0.00922878
0.00617864
0.0115434
0.0185726
0.0187742
0.00360416
0.0109996
-0.00171884
0.00997751
0.010961
-0.000393883
0.00416768
0.00995299
0.00726145
0.00293638
0.00973395
0.00879548
0.0250711
0.0139374
0.0194766
0.0073715
0.00322565
0.0178426
0.0159146
0.0113004
0.00151372
0.00862863
0.0163407
0.0212711
0.0117041
0.0260236
0.017384
0.0284544
0.0138852
0.0107177
0.0113829
0.0126568
0.0129925
0.00947868
0.0114841
0.00882247
0.00986598
0.0122391
0.0130862
0.0130387
0.00986706
0.0134224
0.0126158
0.00529039
0.0105898
0.00387215
0.0103292
0.0126591
0.00907205
0.00484048
0.00891822
0.0105259
0.0135801
0.0138232
0.0120583
0.0235328
0.010563
0.0167266
0.0101228
0.00412969
0.00896194
0.0188326
0.0111284
0.00841237
0.00684236
0.00464162
0.00649363
0.0177357
-0.0104576
0.00782751
0.0101108
0.00956457
0.0156086
0.0067064
0.0127006
0.0157477
0.00291498
0.00710356
0.0129188
0.0153806
0.0131106
0.0132783
0.0122986
0.0140444
0.00838223
0.0117905
0.0230098
0.0170204
0.0176303
0.0126628
0.00799102
0.0243226
0.00610136
-0.0020613
0.0243007
0.0185579
0.0187083
0.00930955
0.0167739
0.0128369
0.0135627
0.0154341
0.0271126
0.0228501
0.00479744
0.0185909
0.018899
0.0198856
0.015376
0.0184198
0.0181056
0.0187344
0.0183292
0.0131254
0.0169915
0.0161753
0.0171193
0.0178424
0.0187044
0.0194749
0.020367
0.0202619
0.0191225
0.02054
0.0114647
0.0176123
0.00836374
0.0167541
0.0162956
0.00141277
0.000278308
0.00124855
-0.00165772
0.017496
0.0104668
0.0114703
0.0160254
0.019838
0.0268034
0.0138888
0.019599
0.00453097
0.0249661
-0.00502982
0.0198094
0.0183778
0.014425
0.0168657
0.0155534
0.0133164
0.00380388
0.00443835
0.00965436
0.00853792
0.00969075
0.0119596
0.0100296
0.00774608
0.00992041
0.0128939
0.00178213
0.00978872
0.00571556
0.0284252
0.00611801
0.0107336
0.00700594
0.0145801
0.00994972
0.0054904
0.0153223
-0.000730144
-7.01762e-05
0.0119595
0.00337733
0.0128067
0.00422881
0.00611933
0.00891402
0.0112465
0.0181144
0.0188542
0.00763876
0.0131676
0.0016097
0.000319129
0.0101161
-0.000471875
0.00835537
0.00974843
0.0109805
0.0183527
0.0150739
0.00895677
0.00942872
0.010094
0.0187208
0.0177996
0.00875545
0.0155337
0.00839664
0.0131166
0.00662006
0.0182386
0.0106315
0.0156073
0.00642139
0.00722244
0.0119762
0.0122474
0.0120393
0.00520217
0.000755566
0.00867454
0.0170483
-4.7549e-05
-0.00717817
0.0171001
0.00622561
0.0133911
0.0114938
0.016379
-0.000187773
0.0115899
0.0150102
0.0147359
0.0187557
0.0094102
0.0240399
0.0195504
0.0174114
0.00682504
0.0153422
0.011142
0.0110518
0.00549912
-0.00198997
0.00185283
0.0105483
0.0110523
0.00665181
0.00468681
0.00380487
-0.000169048
0.019819
0.0246318
0.00976133
0.00696697
0.000365934
0.00761887
0.00344184
0.00675477
0.0142524
0.02075
0.0120092
0.0256571
0.0134035
0.0143929
0.000212216
0.0104578
0.0125986
0.01882
0.00549708
0.00665613
0.0055061
0.0135607
0.015892
0.010681
0.0169692
0.00784987
0.0150257
0.0174616
0.00537645
0.0180786
0.00961956
SCALARS CoVolArea double 1
LOOKUP_TABLE default
572.229
564.605
441.732
339.198
534.05
552.992
363.821
552.208
457.382
460.995
432.294
469.3
571.242
727.237
789.302
810.29
822.027
713.908
706.388
854.859
668.584
548.368
722.948
603.185
879.346
544.703
794.862
802.621
319.876
633.93
624.859
765.48
628.184
845.384
611.984
559.598
875.201
617.839
683.335
654.935
1046.48
586.963
656.385
807.145
760.705
584.185
737.918
667.565
747.117
832.84
786.334
873.761
833.704
763.664
818.812
811.512
874.231
739.744
792.43
681.334
702.055
794.295
648.26
778.93
649.638
684.364
726.714
743.76
645.772
719.555
662.015
676.444
611.54
792.769
671.315
840.418
452.603
787.745
743.086
718.39
773.27
589.192
767.503
564.956
605.216
684.726
826.48
666.837
806.497
765.515
663.877
656.556
708.159
652.425
1187.85
632.095
545.934
448.28
684.272
652.833
552.078
573.881
521.019
622.958
720.403
651.312
691.16
682.306
671.804
698.98
652.028
691.595
628.647
839.614
622.112
799.088
640.92
830.898
796.06
756.871
637.606
743.295
673.717
762.471
585.147
761.86
635.129
587.031
727.499
569.597
561.42
722.973
728.886
877.024
796.277
689.584
338.803
472.197
795.142
549.148
715.472
670.763
678.313
798.034
959.466
622.598
589.883
826.283
626.147
633.873
828.788
829.33
695.317
855.71
661.139
781.425
725.137
657.89
610.338
713.774
642.806
605.761
686.089
729.511
737.691
716.148
703.917
610.94
748.974
757.681
828.01
557.047
643.446
568.032
768.648
676.227
604.772
563.62
661.057
659.017
704.148
748.157
728.926
820.675
749.106
732.95
773.752
777.793
827.367
843.724
887.743
910.616
828.09
760.826
802.351
773.4
813.091
846.673
872.797
701.007
790.458
832.154
791.569
763.324
763.626
787.561
721.9
783.456
734.725
865.794
820.058
803.292
739.807
754.179
821.215
924.144
944.396
999.082
720.675
705.091
867.304
750.447
675.798
678.663
746.059
684.22
738.882
749.966
713.631
688.241
771.44
864.741
669.818
704.342
657.333
745.542
694.254
634.691
640.003
692.014
740.256
915.592
853.319
864.126
723.601
719.701
710.853
668.761
673.371
675.762
677.735
696.357
658.035
710.928
640.524
781.05
603.793
682.509
665.764
680.95
615.218
650.553
642.642
631.724
732.859
649.859
721.004
740.385
723.098
713.597
691.293
663.859
660.481
609.449
566.505
637.459
758.187
750.908
692.141
742.451
665.763
638.487
652.183
558.497
575.922
699.098
348.005
664.845
782.795
693.722
907.662
696.534
759.611
757.112
810.795
738.533
644.503
708.091
731.23
696.125
702.919
785.271
695.9
727.856
720.943
805.935
578.279
604.304
551.914
711.259
639.095
555.491
593.772
650.615
776.991
874.9
871.227
857.943
764.527
742.696
704.904
725.067
518.877
601.668
521.05
666.199
633.973
839.522
700.382
860.252
573.654
616.165
713.207
816.221
650.56
596.907
762.579
630.326
712.117
826.487
889.018
691.279
806.003
658.155
543.257
630.583
499.435
374.328
739.783
637.598
881.241
558.092
730.931
949.507
932.357
842.78
986.932
915.619
551.208
537.203
499.946
801.263
597.764
719.859
449.336
445.632
571.296
940.955
808.965
816.544
681.566
581.807
833.732
737.947
617.535
712.381
760.213
670.334
693.133
385.686
530.066
389.777
744.091
848.673
486.67
643.404
572.942
775.067
645.302
559.116
472.303
619.82
407.495
644.96
478.385
672.253
637.662
667.455
687.514
613.456
700.85
613.89
667.471
707.642
695.856
650.599
647.054
614.23
665.861
709.722
652.412
656.009
632.066
661.823
608.676
690.497
668.602
636.4
650.451
733.306
704.285
718.996
437.045
625.163
536.354
762.369
772.295
723.616
563.157
656.611
731.222
655.811
912.358
731.072
754.831
878.977
839.189
625.025
742.532
592.582
782.548
684.294
625.59
787.368
748.538
653.604
685.42
611.989
655.54
783.19
721.337
910.717
687.47
529.649
658.797
673.27
762.469
749.517
747.462
799.375
828.337
523.894
549.889
564.747
627.636
624.613
658.12
693.027
609.392
696.978
661.775
805.468
544.028
591.261
602.141
767.793
716.43
753.051
591.44
496.139
888.411
676.173
529.177
596.598
600.123
556.156
650.611
585.132
569.437
505.268
716.8
917.067
505.234
844.309
533.488
747.553
964.76
810.091
795.384
993.361
738.934
910.341
797.495
782.428
466.305
380.881
711.386
481.853
562.848
419.334
812.41
452.96
497.278
559.005
496.332
544.281
692.879
902.467
583.252
587.8
611.011
908.626
569.985
760.457
650.567
567.344
580.837
1035.84
874.035
1001.78
400.426
847.242
435.562
596.511
719.891
652.144
741.531
673.689
879.584
669.624
775.816
1063.15
691.552
618.706
695.858
672.956
562.893
520.5
492.294
952.834
758.754
800.564
809.437
877.89
824.89
793.229
668.315
591.572
590.223
530.935
645.066
805.68
738.946
573.819
604.094
702.867
690.234
831.087
702.45
750.47
584.966
710.255
583.847
685.045
799.989
735.462
693.975
664.658
785.474
795.954
850.143
705.896
791.17
905.723
772.645
968.641
768.579
841.024
558.417
858.894
755.199
565.076
594.441
513.182
677.918
429.111
484.798
664.353
608.264
572.182
558.934
675.104
906.02
1021.88
1019.61
927.928
721.241
775.732
732.429
769.74
845.662
602.108
428.582
623.178
632.12
799.569
682.415
832.36
724.874
547.77
404.217
709.518
516.486
704.926
612.844
821.108
653.359
553.83
552.482
696.401
640.467
692.43
634.931
684.423
751.177
609.458
686.224
642.774
580.633
797.244
631.006
663.411
SCALARS SignedDistance double 1
LOOKUP_TABLE default
55.9332
56.0326
57.5582
59.0785
66.2603
57.088
61.552
64.2063
72.0179
69.0789
70.9767
67.7999
61.9829
59.4082
51.1228
51.3779
52.0437
57.5975
57.4345
67.8459
66.8301
72.5766
59.2598
61.5819
72.3402
64.7815
75.1959
69.0549
61.3976
67.4092
67.9546
69.7255
69.6662
71.5882
61.8589
62.2937
59.3328
62.2505
65.2677
68.7925
75.4399
72.6663
56.6303
54.2191
52.6137
64.4864
60.0415
63.8069
53.1339
56.0485
58.1638
52.504
52.6135
52.5617
50.0328
52.6283
52.5966
53.2483
53.5681
55.4128
55.5671
53.6279
61.2718
57.9985
61.1618
60.4171
60.2524
65.6653
63.0877
71.0931
67.3317
70.868
64.4287
74.7355
69.8946
69.2854
67.0894
55.0434
57.8195
58.2503
55.238
65.5523
59.9759
64.9634
61.568
59.2442
68.3526
65.5306
68.3281
66.621
66.9714
73.1454
68.6745
72.9427
75.709
65.1808
74.0924
66.9624
69.6497
70.383
63.3496
65.1277
62.9297
66.4761
67.6099
63.1584
65.2001
60.2675
60.5621
71.8846
67.2862
71.4182
67.3151
64.378
59.473
69.3292
69.8703
73.6763
65.8348
64.083
66.9088
51.4492
50.5954
67.6644
61.6054
50.4825
49.6046
57.4869
53.0549
59.58
55.9794
53.2194
61.0482
63.7738
61.2586
75.6058
72.3755
63.9553
64.7815
72.1425
69.4998
71.9733
70.8129
75.0341
75.7901
73.2065
68.9548
66.6137
65.5418
62.8291
64.5857
64.0597
69.0998
63.9412
69.83
68.458
70.6981
67.4982
65.6939
69.1717
68.8858
63.8127
55.2735
53.6342
54.3063
56.2609
54.7812
58.4018
51.5499
53.1202
52.5719
66.4731
63.7618
66.9594
60.2316
61.9365
62.2035
64.5524
62.6938
60.9192
54.8438
55.9474
58.2594
53.2129
54.6458
51.6783
58.8689
57.1577
58.1032
56.8552
57.5213
54.7015
53.3156
54.2701
50.0938
50.8967
53.5677
52.8507
52.3185
54.9486
53.3281
50.3854
51.8446
51.6573
51.683
50.0178
54.2262
53.3096
55.2954
52.3152
52.8721
53.5226
51.8545
51.0244
50.2793
49.1435
49.7116
52.1805
53.6167
55.5956
53.8896
52.4267
56.2019
54.3279
55.2893
55.7081
54.2313
55.5527
54.7566
56.3621
53.0587
53.8718
63.7692
61.7856
63.9141
57.2335
59.6251
59.051
59.0788
59.6625
57.2014
53.6234
55.5461
55.4844
57.4804
57.8896
58.2327
57.3889
63.7567
60.4433
63.6549
64.4027
64.14
66.5687
65.4627
66.8725
61.6237
59.9071
71.8092
70.3511
69.8429
67.1384
69.0392
69.474
69.6039
67.8806
66.9195
61.6629
65.4904
64.2941
58.3911
64.6437
61.0689
59.8458
65.2043
72.1386
72.8024
70.8275
71.2149
73.6822
70.5566
68.7237
68.5936
66.4763
68.0197
67.9754
72.3866
69.1182
71.6144
67.479
69.7328
68.5587
55.6881
57.0223
52.5272
53.573
58.5655
55.8635
57.2568
57.1942
54.9765
58.241
56.2801
58.4198
53.2225
52.3749
66.8915
65.7004
67.2257
60.6531
63.1602
64.0489
62.3659
62.8013
59.8626
54.7252
57.9052
57.812
57.821
58.0069
61.1558
59.4183
61.3485
59.8636
63.197
68.1777
66.996
67.4672
67.0659
69.9495
65.0688
63.7074
70.7758
70.7818
66.7936
65.7624
66.9759
66.6648
70.2416
70.1445
69.1431
64.3313
65.9271
64.9019
67.5804
67.2798
71.9283
70.7057
72.4713
69.1439
74.5794
71.8543
73.1093
77.2082
74.4291
70.9748
75.482
74.3598
62.1953
64.7017
60.7891
72.0814
67.2655
66.4375
70.4036
68.4304
73.8401
75.4891
78.7809
77.3588
69.9817
70.4859
70.9037
70.3315
68.2323
69.3174
69.224
65.7838
65.5882
62.6787
63.8631
62.8181
67.1971
69.2191
61.8519
66.9902
64.7139
67.4979
67.6721
64.7662
63.0646
66.5452
62.7332
67.359
63.7511
67.6328
63.455
64.5461
59.8884
61.5545
67.5408
64.9085
66.1119
57.5706
57.4427
64.2539
60.5764
64.0533
57.4401
58.2525
71.1884
71.0278
72.4696
67.4846
69.4591
71.054
69.4219
68.8111
68.1737
61.8244
64.9411
65.7543
64.5243
64.0065
59.07
65.4386
65.2216
66.369
59.7297
63.9126
64.3473
69.1841
71.7602
69.6442
70.9459
73.9758
70.1976
74.9453
75.4802
69.9083
65.1723
64.4107
66.7764
65.0321
64.6264
64.7616
69.2836
65.3069
66.8641
65.4776
66.0723
63.7089
54.7239
54.051
55.9571
54.543
54.5488
52.0276
53.5928
65.1278
68.0639
60.9826
66.7613
67.1247
65.7216
60.7447
53.5666
52.6646
56.8192
50.892
50.9223
55.9473
59.1304
52.9412
55.3676
55.6126
54.8422
49.9372
53.5224
58.2335
52.7963
50.936
62.0331
55.3692
58.3297
55.4605
51.4216
56.5581
52.8232
58.5621
49.5855
53.0246
60.8835
61.0919
60.8725
63.3526
67.4665
68.6371
69.2564
67.6598
63.7861
53.5761
58.2437
58.3266
65.8127
65.2083
70.01
67.4881
73.5805
73.1857
76.012
61.8373
61.4621
66.576
63.9495
66.6867
62.5349
70.4708
73.0348
72.3934
72.0978
70.6936
70.9267
71.7352
69.9378
70.6536
69.2922
72.9324
67.4366
71.9955
70.841
72.6946
72.2645
68.8029
70.3556
72.7977
74.1979
73.4688
75.6495
74.1023
74.7928
77.4076
68.9777
69.2111
76.3108
72.9164
70.7088
69.6463
70.8398
78.5067
74.8552
77.0896
70.9141
68.6002
69.5948
67.3736
66.1965
67.2364
62.985
65.0665
67.3663
67.5833
58.2984
63.4751
60.6964
59.0985
60.653
65.8842
64.4784
65.3732
62.1236
64.218
62.7792
65.1716
65.3884
64.292
66.9169
65.3107
65.2414
65.9075
68.6436
67.8553
73.1049
72.5235
71.2533
63.8783
65.632
64.4523
61.0975
70.193
62.7401
62.648
64.5477
61.1244
73.4557
68.6399
62.9218
64.721
71.5227
67.7604
69.4368
70.3389
70.8625
71.8459
72.4718
65.907
71.0169
69.2148
71.0062
71.3126
71.784
67.088
63.8338
67.5717
68.1339
67.8786
66.1517
70.1707
68.0046
64.0414
63.5927
68.8981
65.2914
68.5047
67.7755
70.0781
69.971
67.6985
68.0127
73.5526
69.6826
70.5302
73.3014
71.7632
58.2389
63.8175
60.1053
61.3107
65.877
69.5608
69.0159
68.474
