# vtk DataFile Version 4.2
vtk output
ASCII
DATASET POLYDATA
POINTS 642 double
-63.3537 150.463 88.4482
121.942 150.935 86.5772
-57.435 -194.151 79.4887
117.034 -193.701 79.7546
30.6793 -110.179 211.032
32.041 93.4376 238.037
30.5133 -112.103 -60.5678
31.3168 77.7981 -52.6163
146.111 -11.9586 6.24241
157.623 1.38443 169.881
-86.596 -14.7979 2.78184
-100.886 -0.607979 166.655
-108.655 87.288 141.285
-54.5155 47.8147 225.908
-26.1466 151.833 181.956
87.6982 150.506 182.088
30.5611 185.769 88.2247
83.402 139.717 -1.16747
-22.7122 140.448 -1.08648
-40.7632 41.2299 -41.7148
-94.8082 83.0363 39.2929
-115.889 -10.2084 102.544
114.705 48.8577 227.079
168.376 84.7922 140.711
-39.0251 -66.5675 202.659
28.7865 2.33265 253.857
-76.181 -126.555 46.2558
-84.8946 -113.672 129.693
28.3865 -18.2204 -92.044
-37.5155 -77.848 -47.4956
155.504 84.5877 40.5535
100.609 45.0148 -41.1271
145.79 -109.865 131.335
99.7194 -66.696 203.542
75.2211 -185.766 157.174
-15.3189 -191.049 158.163
29.697 -223.019 90.1561
-23.057 -186.54 11.8028
79.0499 -183.372 12.958
94.2123 -77.7865 -45.1069
129.775 -115.743 44.5974
174.141 -10.3376 93.3524
-93.3842 123.53 117.6
-76.8193 123.209 164.007
-50.2153 158.116 136.775
-82.7395 24.5428 201.092
-87.8263 73.6289 186.736
-107.356 42.3403 160.043
1.83727 127.722 217.088
-44.8994 105.609 209.43
-12.0969 73.9389 238.247
-0.840572 177.578 140.849
-20.9971 175.048 85.4051
60.616 126.487 218.594
29.595 161.684 187.994
82.0454 175.13 86.6274
61.8971 177.712 140.101
109.423 158.216 137.03
-0.576144 172.03 36.9846
-45.4748 153.845 40.3929
106.802 152.421 40.3457
60.2467 171.843 36.6862
2.78009 114.949 -31.8677
30.4835 147.804 -4.89995
58.156 114.558 -32.2102
-66.1187 117.518 13.831
-85.8442 120.438 62.006
-5.29174 62.4308 -53.9711
-36.8198 97.4008 -26.8225
-92.1407 39.4527 20.1149
-72.063 69.5099 -5.978
-67.8818 14.6271 -20.9718
-109.697 90.2444 92.7274
-100.623 -6.1506 46.0231
-110.513 44.5834 65.2054
-112.377 46.765 119.426
-119.277 -11.6601 128.456
135.46 122.845 165.497
151.103 120.933 118.239
75.0351 76.2104 239.293
105.871 105.715 212.581
167.055 43.6308 158.981
146.869 72.2728 188.03
141.711 25.5309 202.636
-10.148 22.1481 251.292
30.965 40.7927 255.361
-75.7677 -27.1825 191.616
-50.9137 2.32644 225.397
29.8223 -50.4427 234.023
-7.2263 -24.7465 238.963
-8.81533 -95.6654 213.405
-108.896 -51.0453 116.594
-100.198 -50.1283 147.631
-84.3007 -60.3894 13.6428
-94.0087 -64.3688 67.1036
-70.7335 -164.317 100.566
-88.7908 -128.09 80.1891
-74.2159 -166.168 58.3605
-34.6766 -19.8352 -57.4306
-64.5995 -47.2068 -24.2782
29.696 19.8257 -80.8635
1.09349 -1.3538 -80.488
-4.75607 -98.2736 -61.4572
-0.111517 -38.0672 -78.9672
29.0522 -61.5678 -74.5879
97.7168 96.9229 -27.135
67.4007 63.891 -54.7231
146.948 119.765 59.7425
127.437 117.071 13.8888
126.858 18.9762 -18.6502
131.974 69.7185 -6.15273
152.555 39.3312 20.5504
127.498 -163.449 96.9675
114.23 -151.725 144.138
98.2672 -195.697 120.801
133.675 -25.3192 193.692
129.019 -98.0575 170.532
153.356 -55.9393 146.125
54.2704 -153.038 182.594
94.3577 -124.128 187.753
69.5905 -96.0447 213.206
54.716 -218.26 129.128
82.7836 -218.304 81.3572
5.1869 -158.21 179.158
25.6615 -197.359 164.146
-21.4611 -218.368 84.424
0.316679 -222.727 130.398
-39.8066 -199.817 124.568
62.0364 -214.309 39.9978
102.819 -195.559 46.0291
-45.1608 -198.115 41.6017
-4.97563 -215.326 39.0167
53.0874 -138.339 -38.4809
29.2257 -189.161 8.10726
5.88284 -139.375 -37.1232
111.138 -162.548 29.9479
127.885 -168.992 64.5144
62.7362 -99.4378 -61.0087
85.5048 -120.218 -33.1878
144.988 -59.9315 16.2408
121.469 -89.8537 -10.7699
123.313 -45.8219 -20.5193
144.598 -123.888 87.3389
161.02 -3.14013 47.8085
156.257 -55.9263 69.6154
166.057 -53.5402 111.252
172.786 -6.40647 129.444
68.7223 -26.4253 237.324
113.156 3.43796 225.461
71.9571 25.2702 249.406
-53.8197 -158.28 141.862
-33.8163 -126.352 186.267
-68.9405 -98.6345 171.489
-28.7238 -121.944 -31.8655
-58.6375 -164.98 27.706
-63.0477 -91.9353 -13.3595
93.3325 -18.5965 -54.3322
57.5553 -38.581 -76.6039
57.5422 1.08989 -78.505
173.453 47.7715 119.714
171.425 44.0492 67.0348
170.738 87.5057 88.9323
-80.0324 138.524 104.158
-74.757 141.844 127.805
-58.928 155.009 112.314
-96.3485 105.026 152.47
-87.4264 124.277 141.017
-103.135 105.893 129.962
-39.0269 157.163 159.843
-64.4946 142.197 151.783
-52.4763 139.464 174.119
-93.8233 12.7735 185.008
-97.1949 32.8448 181.468
-105.72 17.2707 166.2
-71.8303 61.2236 207.983
-85.1572 48.3334 195.929
-69.981 36.079 215.355
-108.114 68.5444 150.476
-98.8587 60.5788 172.768
-100.592 82.0241 163.869
17.297 110.675 230.393
-6.24153 103.222 229.206
10.0231 85.057 239.334
-36.5081 130.693 197.523
-22.0417 118.736 214.455
-12.2404 141.897 201.12
-34.1662 61.1735 233.45
-29.4544 91.1531 225.025
-50.8639 77.2119 218.736
-85.0273 99.0878 176.736
-69.1671 89.7413 199.411
-62.4727 116.563 188.498
-35.936 168.536 114.467
-43.9342 163.914 86.3527
-14.3333 167.932 163.314
-26.0185 170.722 140.645
5.25527 181.487 87.0137
-9.81032 177.901 114.851
16.0477 184.392 113.036
45.807 110.031 230.925
30.6432 129.153 218.294
59.8038 158.478 186.455
45.6194 146.234 203.226
74.2772 140.144 202.095
14.6955 147.232 203.168
0.919437 159.489 186.783
104.123 164.4 86.8155
96.0249 168.956 114.167
116.416 155.39 111.895
45.0842 184.405 112.946
70.8903 177.932 114.687
55.5586 181.577 87.5287
99.7412 156.574 159.634
86.7549 170.759 140.064
75.5053 167.536 162.439
14.0032 173.482 167.417
45.9781 172.705 166.681
30.276 178.858 140.311
-34.0545 167.746 59.9968
-54.7546 154.282 63.2322
14.5512 179.242 61.4684
-11.3197 176.487 59.475
-35.0871 149.037 19.155
-23.6576 165.267 37.9305
-12.4064 158.515 17.0483
115.633 153.335 63.6076
94.7797 166.563 61.46
72.3969 157.916 16.7753
83.7341 163.983 37.7881
96.0713 147.911 18.8579
71.0653 175.608 60.4525
45.7392 179.365 61.6301
17.3234 97.3513 -42.6276
30.6349 116.288 -31.9832
44.4143 96.9574 -42.9408
1.92881 146.436 -4.63847
15.2637 132.968 -19.4066
-9.86244 128.726 -18.3786
70.5193 128.286 -18.5154
45.5948 132.919 -19.4888
58.5044 146.309 -4.74576
30.3611 174.038 35.5486
45.5067 162.962 14.3386
15.084 162.967 14.4442
-66.8322 138.772 48.1809
-75.5064 136.969 75.5702
-46.0099 130.757 5.25291
-57.3161 136.458 25.1697
-91.9087 102.554 49.9899
-76.465 120.401 35.1024
-81.8703 101.395 24.9305
12.1531 70.4241 -55.499
-3.87365 91.3559 -42.4855
-39.1838 72.4795 -33.7476
-22.811 83.0125 -39.6609
-22.4543 53.1025 -49.0486
-18.3465 107.502 -30.4714
-31.0137 119.649 -15.9938
-88.4955 9.88637 9.92803
-81.635 28.202 -3.56547
-78.8798 -1.389 -9.44232
-84.4731 78.1255 14.4028
-83.2006 55.6935 6.08704
-94.7258 63.0555 30.0189
-56.8605 28.3767 -32.6728
-71.0009 42.8932 -14.9067
-57.9735 56.8275 -24.4535
-52.561 108.64 -8.26129
-56.1612 84.875 -17.5236
-70.7299 94.3333 2.34495
-92.8314 122.657 91.8366
-104.801 86.914 66.4467
-100.726 104.822 78.7012
-104.358 106.55 105.749
-110.493 90.426 118.337
-93.7345 -12.2286 19.1746
-98.3876 16.3917 34.096
-113.499 16.28 79.1169
-109.052 19.9712 58.7388
-110.479 -4.30658 74.5418
-103.548 43.774 45.579
-105.399 64.7088 54.0888
-111.54 14.5455 146.376
-111.621 -6.39981 148.251
-111.72 71.3817 131.129
-111.851 46.7274 140.215
-120.552 -12.9307 118.051
-116.309 8.51046 126.594
-114.736 7.89015 107.876
-111.468 69.7102 78.021
-112.716 46.5516 89.7394
-111.924 73.1298 105.84
131.722 140.815 129.189
136.611 137.183 102.294
113.248 138.716 175.299
123.673 141.811 153.024
162.023 103.448 130.761
145.351 122.931 142.629
154.46 103.99 152.946
54.1293 85.6885 240.615
70.0353 102.607 231.31
110.5 79.1311 220.787
91.6474 92.3548 228.078
95.1272 63.7472 234.497
84.9637 117.493 217.169
98.5433 129.495 199.593
163.425 21.4266 166.129
155.756 35.4547 181.74
151.145 13.99 186.38
159.41 79.84 164.082
159.452 58.438 173.584
169.162 65.2954 149.977
130.207 36.0682 216.243
145.429 48.0829 196.916
131.565 61.4916 209.429
122.345 116.47 190.726
127.888 90.4277 201.563
143.007 99.015 178.124
9.03451 56.0589 249.91
31.795 67.879 247.209
-33.365 34.6003 239.627
-12.3321 44.4491 246.684
29.7189 19.9047 256.716
8.87481 29.7397 255.631
9.41234 12.1319 255.598
-89.9394 -13.2197 179.361
-79.8809 2.10675 198.854
-46.966 -26.3447 218.482
-63.6908 -11.8565 210.348
-58.5621 -45.4765 200.106
-67.4402 14.65 215.394
-54.0375 24.3191 228.176
30.5774 -87.4253 218.538
11.317 -73.7593 220.914
10.0608 -104.353 213.684
10.46 -9.72252 248.87
11.2208 -36.109 239.138
28.9494 -20.6014 245.532
-24.0033 -84.9078 211.516
-8.92757 -59.4301 222.521
-25.5542 -44.3408 223.302
-31.8692 13.1089 239.9
-29.1825 -11.5546 234.535
-8.66036 1.99255 247.766
-112.305 -27.7197 137.483
-103.201 -25.8283 156.754
-115.749 -25.0437 114.424
-116.91 -25.8376 122.267
-88.1839 -82.1755 139.69
-107.322 -50.4165 129.989
-93.2934 -82.2485 120.322
-86.1568 -34.9674 7.07792
-92.9486 -35.164 25.9306
-86.0889 -98.7632 54.0362
-89.9043 -62.7957 34.7039
-82.0877 -87.9016 25.4199
-99.6656 -30.2302 55.1535
-109.185 -26.6313 88.5715
-64.6707 -181.593 90.2058
-75.3779 -165.452 76.8772
-67.7005 -181.786 67.388
-87.5957 -122.594 102.479
-82.8805 -144.695 88.1298
-78.4714 -140.066 113.11
-76.3924 -151.089 53.994
-82.765 -147.729 69.4241
-86.4733 -131.006 66.8921
-102.609 -59.0562 98.7252
-90 -103.659 76.9489
-91.5453 -93.431 94.4899
-67.469 -17.3287 -24.5117
-77.749 -29.0521 -10.4079
-35.9826 5.06241 -49.7549
-52.6662 -4.50197 -37.9025
-51.9445 -64.2057 -37.1202
-51.6416 -33.2042 -40.3984
-36.5334 -45.3346 -51.7173
30.5821 49.2538 -66.0064
15.3749 37.6912 -69.7498
15.7022 -10.807 -89.1175
16.4702 8.30484 -82.9389
28.759 -3.13097 -88.2669
-0.674463 27.6445 -68.0091
-16.2726 17.4442 -62.1407
12.4851 -106.525 -62.872
11.0139 -83.7997 -69.7592
30.4302 -94.8629 -67.7995
-17.9075 -60.7903 -62.2197
-3.01283 -72.4339 -67.9111
-21.4938 -89.3412 -56.4456
28.3595 -30.534 -88.9562
12.7897 -46.961 -80.4797
15.6893 -25.0146 -89.2764
-16.4893 -10.904 -72.6091
-0.331832 -18.1219 -84.438
-17.2154 -27.5051 -71.7548
65.0595 90.5795 -43.5875
50.1357 70.9533 -55.7468
92.1468 119.066 -16.173
79.2573 106.908 -30.9163
[...]
POINT_DATA 642
SCALARS Mean_Curvature double 1
LOOKUP_TABLE default
0.00871969
0.0105486
0.0208444
0.0367499
0.00958609
0.00725613
0.0121445
0.00333008
0.0178
0.00842884
0.0173758
-0.00449103
0.0273559
0.0148073
0.0145981
0.0125163
0.0194401
0.0122365
0.0134087
0.00801096
0.0083131
0.0124817
0.0132026
0.0236204
-0.0165802
0.0152457
-0.00873194
0.0143442
0.0594144
0.0119598
0.00963558
0.010328
0.0197357
-0.0121839
0.0220841
0.0232176
-0.0093748
0.0248539
0.016871
0.00932653
-0.0117052
0.0168791
0.0163572
0.0135523
0.0133679
0.013958
0.014594
0.0135675
0.0139136
0.0107568
0.00836167
0.0125841
0.0105992
0.0146037
0.0156052
0.0126865
0.0137754
0.0145602
0.0157578
0.0135563
0.0131111
0.017329
0.0157935
0.00742259
0.0158108
0.0160279
0.00962011
0.00944796
0.0168823
0.00446263
0.00990428
0.00181429
0.0207691
-0.00111995
0.0128118
-0.001378
0.0341272
0.0139346
0.0109018
0.0104528
0.0144164
0.010525
0.0115083
0.0138398
0.0240347
0.0146656
0.00684603
0.00914404
0.010127
0.00912528
0.0159901
0.0283009
0.0133893
0.00862286
-0.00501679
0.0065723
0.0239217
0.028164
0.0144758
0.00568704
0.0285061
0.0138057
0.0195749
0.0117467
-0.00674715
0.0164189
0.0156858
0.0124734
0.0167573
0.00253525
0.00902423
0.00716938
0.0033919
0.00604181
0.0171971
0.00795867
0.0157225
0.00140693
0.00401118
0.0139688
0.0167756
0.0179536
0.0259118
-0.000754707
0.0260024
0.0128199
0.028538
0.0221284
0.0225059
0.0188602
0.022734
0.0215977
0.0194474
0.00541581
0.0172543
0.0143258
0.0295313
0.0242339
0.0120161
0.0161533
0.0130278
0.00408976
0.0180098
-0.00027385
-0.00644897
0.0138888
0.0147611
0.00976806
0.0115358
0.0160051
0.00377291
0.0126337
0.0173327
0.0121332
0.0187263
0.0124239
0.0112494
0.00935109
0.0139456
0.000640984
0.0134984
0.0242463
0.0144349
0.0159118
0.0098966
0.0161712
0.0142466
0.018211
0.0129577
0.0115534
0.0132238
0.0158377
0.0128009
0.0233136
0.0114128
0.00860105
0.0180332
0.0127729
0.00714975
0.0188557
0.0159648
0.0136281
0.0068105
0.01298
0.012076
0.0148246
0.00897014
0.00918877
0.00960934
0.014095
0.0116414
0.0134225
0.0102929
0.00849169
0.0160604
0.0172841
0.00664826
0.00688003
0.0158009
0.0136386
0.00780826
0.0146398
0.0106043
0.0126815
0.0137908
0.0168048
0.0124376
0.0126773
0.00838468
0.0158501
0.00699003
0.00706667
0.0124348
0.0183665
0.0159668
0.0208892
0.0170365
0.00220874
0.0182567
0.0130363
0.00588271
0.0192325
0.0130952
0.0153223
0.013895
0.0124224
0.0150583
0.013446
0.012427
0.0129299
0.0148437
0.00735115
0.00775022
0.00722832
0.00729056
0.0147836
0.0115174
0.0145941
0.013805
0.0119526
0.0154379
0.0141997
0.015384
0.0144329
0.0130081
0.00622682
0.0143486
0.0154589
0.0089327
0.0146999
0.012804
0.0129392
0.00988938
0.00690788
0.0126291
0.00523036
0.0157006
0.014391
0.0018771
0.0151341
0.0113739
0.0141766
0.0074661
0.00646776
0.0157808
0.0109514
0.0086782
0.0149477
0.0134033
0.014387
0.0157401
0.0149104
0.01272
0.0173101
0.0217827
0.0138739
0.00216613
0.012729
0.0129359
0.0078235
0.00645614
0.012348
0.00401755
0.0186676
0.0117178
0.0110584
0.0558052
0.0128626
-0.00413241
0.0166939
0.00312777
0.0047505
0.0112215
0.0055672
0.0144229
0.0136993
0.017919
0.0141329
0.0139919
0.0112694
0.01601
0.00921213
0.017178
0.00841034
0.014878
0.0146906
0.012596
0.00970802
0.0110804
0.0120454
0.0145373
0.0170092
0.0167242
0.0129762
0.0110177
0.0153528
0.0110607
0.0121785
0.0137663
0.00605013
0.0132453
0.00903683
0.0162727
0.0193192
0.0267767
0.00386816
0.00882769
0.00969106
0.00793174
0.0113326
0.0123748
0.0185319
0.0064246
-0.00399993
0.0179776
0.0124837
0.0126681
0.00632544
0.0230461
-0.00131478
0.0119685
0.0140124
0.00918305
0.0122314
0.014637
0.0124637
0.00398961
0.0360922
0.00297651
0.017961
0.000164143
0.00927562
0.00811667
0.00260194
0.00588262
0.0103021
0.000636696
0.00273442
0.0127289
0.0144997
0.0263897
0.0123959
0.0130663
0.0077102
0.00963743
0.0279785
0.0234314
0.0027858
0.00865489
-0.00401987
0.0110847
0.0131452
-0.00306402
0.0044141
0.0121443
0.00851875
0.00166284
0.0100514
0.0108194
0.0327225
0.0160105
0.024075
0.00852689
0.00284118
0.0228609
0.0187347
0.0124085
0.00138075
0.00802669
0.0195894
0.0252361
0.0164837
0.0341944
0.0201057
0.0387717
0.0156552
0.011778
0.0132832
0.0146044
0.0151067
0.00986596
0.0119352
0.0091441
0.0104762
0.0140887
0.0145922
0.0151015
0.0103854
0.0158532
0.0146142
0.0068968
0.0115698
0.00313031
0.0125047
0.0140239
0.00892221
0.00481662
0.0108026
0.0093854
0.015731
0.0155213
0.012039
0.0306869
0.00870514
0.0206423
0.0121459
0.00418242
0.0118807
0.0229898
0.010002
0.00667633
0.00664115
0.00472141
0.00703644
0.0226488
-0.0164788
0.010901
0.0112539
0.0105588
0.018256
0.00743428
0.0155681
0.0183709
0.0016738
0.00918207
0.0131701
0.0199994
0.0151776
0.0148037
0.0148734
0.0171615
0.01065
0.0136737
0.0297263
0.0214484
0.0223196
0.0151883
0.00802577
0.0313714
0.00700309
-0.0044819
0.0347526
0.0159061
0.0177072
0.00642839
0.0205804
0.0149117
0.0157063
0.0197907
0.0338356
0.0272681
0.00352148
0.0225299
0.0236122
0.0251111
0.0178088
0.0216954
0.0221356
0.02324
0.0229328
0.0159768
0.0202237
0.0190657
0.0205747
0.0207717
0.0231808
0.0237628
0.0256636
0.0260067
0.0235665
0.0258214
0.0140326
0.0208204
0.00868878
0.0196894
0.0182554
0.00260244
-0.00117213
-0.00485852
0.000738684
0.0190786
0.0121966
0.0122408
0.0176485
0.0310448
0.043823
0.0157587
0.0277467
0.00206122
0.0202228
-0.00711807
0.0263312
0.0233817
0.0167489
0.0205429
0.0165634
0.0155769
0.00649473
0.00373981
0.00982414
0.0098173
0.0117737
0.013735
0.0119989
0.00842455
0.0103757
0.0138229
0.00196239
0.0105315
0.00794104
0.0288211
0.00763082
0.0117716
0.0105228
0.0180744
0.0117922
0.0057626
0.0167363
-0.00225059
-0.00257628
0.0126487
0.00273056
0.0154794
0.00262883
0.00280219
0.0122385
0.0109648
0.02297
0.0237981
0.00682912
0.0157673
-0.00125226
-0.00342316
0.0130411
-0.00107197
0.00909696
0.00999706
0.0116155
0.0217909
0.0170961
0.00940296
0.010437
0.0115687
0.0216394
0.021437
0.0104588
0.0189443
0.00935765
0.013224
0.00542465
0.0211382
0.00897811
0.0160232
0.00484415
0.00851163
0.0147625
0.0131094
0.0135741
0.00736688
-0.00131889
0.00963659
0.0212717
-0.00309486
-0.00975092
0.021217
0.00806004
0.0163305
0.0143214
0.020133
-0.00234075
0.01439
0.0178425
0.0180991
0.0249924
0.00728444
0.027674
0.0254405
0.0192796
0.00643316
0.0169414
0.0119034
0.012172
0.00727093
-0.00367914
0.00369784
0.0122895
0.0126566
0.00822057
0.00421025
0.00416968
-0.00208317
0.0241253
0.0314219
0.013261
0.00487236
0.000251911
0.00943483
0.0033553
0.00773025
0.0167092
0.0254597
0.0129936
0.0330431
0.0145896
0.0186192
-4.14607e-05
0.00953765
0.0141225
0.0166231
0.0046671
0.00419473
0.0062088
0.0138184
0.0192625
0.0122065
0.0209907
0.0089177
0.0189419
0.0212078
0.00503635
0.0178531
0.00669485
SCALARS CoVolArea double 1
LOOKUP_TABLE default
483.714
477.224
333.94
226.351
443.048
467.424
270.932
474.462
374.876
388.19
345.233
389.772
438.873
607.387
666.83
690.451
708.579
597.051
588.273
767.935
565.94
455.817
601.46
472.686
808.738
436.546
731.364
694.494
194.158
533.788
528.079
675.311
508.564
759.709
495.892
441.176
779.381
508.232
572.564
560.069
1021.09
479.722
537.785
681.776
650.182
480.943
620.978
562.116
635.295
718.929
688.76
751.293
727.142
650.868
687.369
703.063
750.882
629.32
666.1
568.096
590.552
668.577
544.105
663.472
545.317
559.019
622.034
643.631
528.351
644.094
556.999
589.576
484.291
723.817
565.305
773.7
322.099
662.445
639.232
613.487
649.904
485.68
650.492
461.689
474.011
564.068
752.417
563.265
724.952
662.249
559.184
527.614
612.274
565.066
1154.68
541.998
428.089
321.442
589.391
562.829
428.868
455.117
406.419
500.567
613.211
533.023
582.264
571.522
543.951
617.233
545.059
611.948
532.895
734.289
501.416
727.617
535.914
739.534
712.869
636.344
534.956
595.68
536.946
683.437
447.179
629.339
477.062
455.9
582.561
433.852
423.051
577.663
614.004
781.924
687.007
583.842
231.269
356.715
679.984
452.629
603.579
587.91
566.831
741.16
895.771
506.95
477.22
726.998
517.129
511.413
729.196
711.577
587.292
751.2
553.046
667.727
635.933
545.181
492.832
637.876
535.548
470.489
575.559
613.705
632.408
579.134
585.835
483.434
636.597
644.689
705.946
461.508
535.439
462.184
649.891
570.779
493.033
459.147
557.833
531.068
596.528
642.219
630.444
699.376
640.414
620.132
674.11
679.136
715.857
700.832
756.027
773.78
724.101
655.165
671.087
659.614
710.116
742.855
754.969
591.142
680.267
705.81
681.839
652.551
650.536
655.312
612.667
673.411
633.217
746.998
712.025
699.909
626.537
637.334
692.235
777.406
799.678
866.203
602.244
597.393
752.102
635.077
565.526
561.12
622.323
575.023
623.652
627.149
600.198
579.246
659.619
749.699
577.483
605.846
564.154
626.414
589.544
524.584
530.651
587.482
621.215
776.794
713.241
724.917
614.275
616.113
586.916
554.146
571.576
565.709
562.556
595.944
554.482
611.689
541.132
698.639
493.293
558.278
578.106
587.166
517.203
546.731
553.503
550.986
645.74
552.454
617.219
601.706
600.091
582.306
578.478
544.204
546.252
484.526
437.993
551.918
687.296
649.652
606.171
671.009
586.628
533.015
535.439
445.635
475.857
603.107
239.306
550.857
692.651
569.807
822.434
595.762
655.547
660.04
685.826
625.532
525.648
594.978
602.684
592.977
587.618
671.927
585.219
622.987
602.596
679.587
482.967
503.208
459.248
586.105
530.18
443.6
479.754
540.89
659.509
734.739
741.628
723.55
654.252
641.329
579.902
611.489
399.723
476.457
397.204
582.876
544.302
751.375
612.809
788.051
474.113
496.593
631.747
739.439
549.075
488.811
674.583
536.679
614.604
732.667
793.961
561.68
692.121
531.728
417.281
529.575
401.765
249.001
648.837
515.425
773.038
463.596
654.339
876.613
870.9
759.55
940.023
860.762
435.439
421.218
370.035
692.49
483.61
624.086
363.65
323.413
472.277
859.202
723.342
702.478
592.085
483.712
748.484
660.287
528.616
627.838
667.385
562.191
577.347
255.697
411.9
269.033
642.864
757.084
373.763
531.826
463.804
677.037
536.87
456.021
354.178
501.172
274.813
523.921
335.821
549.995
530.106
564.106
563.735
502.481
605.889
508.716
560.413
602.792
583.22
534.129
533.05
503.168
550.164
585.092
559.054
566.822
547.01
555.763
513.729
613.06
592.244
544.254
551.211
593.542
574.314
592.804
317.505
527.508
408.314
637.564
687.654
609.534
446.522
565.447
629.787
573.054
852.907
645.591
659.358
826.443
763.872
528.824
669.526
474.255
690.933
571.855
524.108
682.445
641.558
557.598
587.098
498.909
541.632
642.25
581.096
781.61
553.79
393.398
514.04
541.753
643.813
618.928
608.754
711.217
773.583
383.173
459.404
464.991
541.639
493.597
527.872
559.198
478.847
557.09
525.508
695.438
421.469
452.523
448.881
602.825
543.626
580.75
453.657
355.368
764.162
540.844
409.854
464.81
468.542
421.681
512.917
445.727
430.748
374.566
584.527
799.197
386.889
735.724
415.423
641.694
878.777
713.149
710.924
913.267
634.533
753.468
653.068
638.825
322.536
243.519
591.523
358.534
526.229
326.905
765.222
336.124
371.875
446.689
380.408
447.951
578.561
791.424
491.01
496.435
518.063
826.727
468.44
672.119
568.258
476.812
477.065
909.114
748.297
885.088
285.796
784.27
340.733
477.864
599.68
568.943
665.152
583.873
831.675
602.555
701.099
996.868
582.397
522.244
595.817
564.747
459.401
403.118
371.23
863.316
644.346
691.844
733.417
776.762
734.859
710.54
566.458
496.997
465.452
425.82
550.493
706.462
627.887
456.785
482.409
589.413
563.355
716.175
575.831
634.104
473.44
612.66
482.047
602.684
685.65
626.118
584.088
551.066
682.229
698.912
781.358
591.638
722.395
841.735
675.787
845.457
626.862
698.85
432.804
774.842
649.458
443.561
470.181
371.608
597.042
316.111
355.114
555.39
518.562
457.39
465.108
579.397
812.304
924.001
901.853
804.193
635.509
682.891
653.248
698.092
767.501
487.255
299.661
507.061
531.469
707.717
564.156
736.424
618.486
429.585
276.491
591.87
379.708
589.272
506.197
729.619
562.068
455.615
441.95
620.301
545.92
609.672
552.42
576.285
643.047
477.435
564.484
518.92
459.443
694.255
508.537
549.594
SCALARS SignedDistance double 1
LOOKUP_TABLE default
42.158
42.141
43.5727
45.1451
49.6362
43.4026
46.1426
48.1846
54.085
52.1053
53.253
51.7864
48.3753
44.2371
38.086
38.4233
39.2254
43.078
42.9093
51.3216
50.6944
54.7024
44.1797
47.4249
55.2904
48.9002
58.2111
53.0809
46.2872
50.4695
51.7403
53.0762
52.9712
54.3594
46.873
47.6794
47.6273
47.5236
51.0355
51.5894
58.3403
55.0513
42.4903
40.4517
39.5054
48.5025
45.0248
48.1722
39.7096
42.1524
43.814
40.2179
39.4692
39.1822
37.3787
39.5012
40.3434
40.0153
40.1217
41.4949
41.5907
40.0029
45.955
43.5791
45.9141
45.2324
45.3645
49.262
47.3725
53.8456
50.3964
53.2478
49.4725
57.049
52.5527
52.2788
50.6178
41.1868
43.3171
43.8789
41.5104
49.2965
44.9522
48.9059
46.5562
44.9422
51.2418
49.1593
51.523
49.9904
50.7679
55.4401
51.1937
55.0029
57.3378
48.9557
56.8914
51.7523
52.9441
53.0237
47.4954
48.7907
47.1094
50.2992
52.2881
47.484
48.88
45.4336
45.3736
54.2119
50.3461
53.9258
51.3427
48.2399
45.1156
51.9559
53.1821
56.5746
50.3826
47.6582
50.5348
38.4494
37.8439
51.9283
47.6796
37.785
36.6994
43.4554
39.5946
45.2048
42.1555
40.0382
45.3092
49.5787
45.6983
58.7649
55.1155
48.13
48.3882
54.4823
52.0479
54.282
53.3433
57.3413
57.4587
55.5727
51.734
49.866
49.1131
47.524
48.4625
47.6697
52.5259
47.7064
54.2538
51.2894
53.622
51.0362
49.0673
52.1609
51.7718
49.3121
41.2768
40.0224
40.8006
42.1191
41.0162
44.2491
38.6422
39.7986
39.094
50.077
47.7879
50.6944
45.313
46.5466
46.9805
48.8194
47.0562
46.2212
41.1896
42.0103
44.3053
39.8376
41.0538
38.6409
44.187
42.8869
43.5046
42.6347
43.0765
40.8897
40.0276
40.7806
37.3884
37.8213
40.6156
40.3141
39.5534
41.3423
39.9878
37.6188
39.0426
38.6413
39.0197
37.3581
40.6461
39.8657
41.6122
39.5465
40.3392
40.5603
38.893
37.8933
37.4984
36.7728
37.0651
39.5619
40.0011
41.696
40.8517
39.6322
41.9389
40.6358
41.3568
41.8018
40.612
41.5811
41.0347
42.0413
39.7765
40.8239
48.3027
46.531
48.4127
42.8122
44.7609
44.2848
44.2826
44.7984
42.667
40.0082
41.8017
41.7383
42.9851
43.5599
43.4596
42.6751
48.2701
45.4057
47.9922
48.359
48.5053
50.1376
49.6756
50.3383
46.1415
44.7313
54.2202
53.0622
52.2601
50.8009
52.0787
52.4763
52.728
50.6638
50.0446
46.2052
49.3724
48.1831
43.8341
48.9219
45.7194
45.4083
50.2962
54.204
55.1314
53.5612
53.5512
55.6608
53.1162
51.8259
52.25
50.3542
51.5953
51.7169
55.1135
53.1004
54.2081
51.3241
52.6234
51.8132
41.8461
42.8309
38.9709
40.0349
44.1311
41.8943
42.8098
43.0789
41.4423
43.6482
42.1696
43.7051
39.6495
38.9688
50.2738
49.579
50.6211
45.5254
47.6672
48.5541
46.9013
47.3905
45.0685
40.9194
43.4473
43.4853
43.2845
43.896
46.3555
44.7404
46.3365
45.3219
47.7307
51.5111
50.3951
50.4726
50.2819
52.7041
48.8204
47.9552
54.3189
54.3934
50.6221
49.4721
50.0159
50.4808
55.0132
53.6849
52.2236
48.4612
49.4685
48.8772
50.6193
50.2254
54.2027
54.0495
56.5832
51.9057
58.0522
54.0575
54.9839
60.235
56.6548
53.205
57.8802
56.1944
47.3887
49.0677
46.2817
55.3847
51.1833
50.0406
52.7955
51.6213
57.2265
57.2434
60.3713
59.2592
52.455
52.7065
54.0736
53.0565
50.8575
51.9645
52.364
50.0352
49.5628
47.1736
47.9711
47.3623
50.7925
52.6642
46.4341
51.831
49.8514
51.1661
51.587
48.7813
47.4074
50.7848
47.2277
50.7267
47.7973
51.0965
47.7863
48.7623
44.6874
46.1214
51.138
48.9819
49.5931
43.2194
42.9458
48.6021
45.5359
48.5454
42.7019
43.4381
53.3254
53.2669
54.4335
50.5832
52.1249
53.4397
52.375
51.6999
51.3298
46.3707
48.8746
49.6249
49.8062
48.8005
44.755
48.783
49.1134
49.9759
44.9331
48.7461
48.8276
52.0871
54.3816
52.3844
54.5551
56.5214
52.8091
58.6857
59.391
53.7426
48.7491
48.0323
50.5934
49.2033
48.6222
49.4137
52.9624
48.7529
50.1817
48.8437
49.3837
47.436
41.2342
40.6798
41.5701
40.6855
42.6837
38.951
42.308
48.7634
52.0143
47.0826
52.7048
52.1339
50.5847
46.5326
40.2813
39.302
42.7685
39.4914
38.7971
44.4443
44.7926
39.5509
41.7545
42.192
41.5844
37.2768
39.9392
44.255
41.3958
38.1507
47.4849
41.6096
44.1563
41.7199
38.3966
42.3958
39.2453
44.1139
37.6681
41.8495
45.5506
45.5424
45.5342
49.0527
54.6457
55.5667
55.8624
54.9878
49.3714
40.1353
44.0286
44.1644
51.3316
50.8522
55.8743
53.0469
55.3959
55.8101
58.5175
46.4701
45.5215
49.971
47.6121
50.1592
46.5015
56.8206
54.9736
54.5523
54.2211
53.1016
53.039
53.9229
52.5613
53.0676
52.1264
57.9022
50.4458
55.3289
54.4807
54.7701
54.4488
51.952
53.7875
54.7624
56.2386
55.3005
57.2374
55.9838
57.6126
59.1796
51.3281
52.2177
59.6384
55.4666
53.3486
52.2764
53.2493
60.279
56.7427
59.1263
54.3664
51.5534
52.9657
50.586
49.9475
50.491
47.1686
48.7707
50.4654
50.5806
43.7786
47.8104
45.7213
44.4016
45.7911
49.3372
48.5451
49.4463
47.333
48.6381
47.674
49.0626
49.0658
47.988
50.3005
48.752
49.3323
50.1145
51.3866
51.6938
55.8571
56.031
55.6441
47.809
49.128
47.9255
45.3864
56.0791
46.8473
46.6101
48.191
46.758
56.0037
53.0945
48.289
49.9931
53.8703
51.0703
52.0404
52.8333
53.4338
56.7815
56.2119
49.1749
53.2093
51.8399
53.423
53.7818
54.7909
51.3593
47.928
51.735
51.599
50.9335
50.2377
53.6028
51.6882
47.8313
47.7536
52.1547
49.0065
51.6572
51.1325
52.8181
52.8759
51.4714
51.7161
55.6937
52.5667
53.3171
55.4246
54.0932
43.576
49.3906
45.1864
46.0994
50.4372
52.4833
52.1069
51.7996
