# vtk DataFile Version 4.2
vtk output
ASCII
DATASET POLYDATA
POINTS 642 double
-31.7715 20.2515 -81.651
-28.9465 20.2509 -81.651
-31.7729 15.6757 -81.6512
-28.945 15.6763 -81.6513
-30.3588 16.5614 -79.3817
-30.3588 19.3781 -79.3656
-30.3588 16.5591 -83.9256
-30.3588 19.3706 -83.9246
-28.099 17.9653 -83.048
-28.0897 17.9658 -80.2484
-32.62 17.9652 -83.0489
-32.6285 17.9657 -80.2482
-32.5302 19.3076 -80.8216
-31.6995 18.7941 -79.4817
-31.1913 20.1453 -80.3039
-29.5264 20.1451 -80.304
-30.3588 20.6598 -81.651
-29.5292 20.1377 -82.9935
-31.1886 20.1381 -82.9937
-31.6928 18.79 -83.8101
-32.5238 19.3038 -82.4779
-33.0252 17.9653 -81.6507
-29.0179 18.7944 -79.4812
-28.1886 19.3069 -80.822
-31.692 17.141 -79.4938
-30.3588 17.9656 -78.9718
-32.5217 16.6264 -82.4771
-32.5185 16.6289 -80.8264
-30.3588 17.9649 -84.3293
-31.6932 17.1396 -83.8112
-28.1938 19.3038 -82.478
-29.0248 18.7901 -83.81
-28.2004 16.6299 -80.8268
-29.0257 17.141 -79.4939
-29.5284 15.7889 -80.3074
-31.1904 15.7861 -80.3056
-30.3589 15.2648 -81.651
-31.1896 15.7889 -82.9949
-29.5288 15.7906 -82.9938
-29.0252 17.1401 -83.81
-28.2009 16.6293 -82.4752
-27.6959 17.9655 -81.6509
-32.2202 19.8564 -81.2228
-31.9395 19.8163 -80.507
-31.5297 20.2892 -80.9568
-32.2422 18.3921 -79.7969
-32.2054 19.1071 -80.0738
-32.6688 18.6559 -80.487
-30.7877 19.8305 -79.7567
-31.5025 19.5461 -79.8008
-31.051 19.1334 -79.3337
-30.7965 20.5293 -80.9422
-31.1005 20.5538 -81.651
-29.9299 19.8305 -79.7566
-30.3588 20.2592 -80.2338
-29.6172 20.5536 -81.651
-29.9212 20.5292 -80.9422
-29.1882 20.2887 -80.9569
-30.7957 20.5247 -82.3585
-31.5276 20.2852 -82.344
-29.1903 20.2845 -82.3438
-29.9219 20.5244 -82.3585
-30.7858 19.8222 -83.5369
-30.3588 20.2508 -83.0631
-29.9318 19.8221 -83.5369
-31.9349 19.811 -82.7918
-32.2173 19.8536 -82.0785
-31.0476 19.1275 -83.9573
-31.4977 19.5395 -83.4935
-32.6597 18.6532 -82.8105
-32.1976 19.1025 -83.2218
-32.233 18.3898 -83.4966
-32.6399 19.3752 -81.6508
-32.9158 17.9655 -82.3838
-32.8986 18.668 -82.0845
-32.9039 18.6695 -81.2163
-32.9242 17.9654 -80.9158
-28.7783 19.816 -80.507
-28.4986 19.8553 -81.223
-29.6662 19.1339 -79.3327
-29.2148 19.5464 -79.8003
-28.049 18.6558 -80.487
-28.5125 19.107 -80.0739
-28.4754 18.3921 -79.7968
-31.0635 18.4007 -79.1014
-30.3588 18.7047 -79.0716
-32.2355 17.5406 -79.8035
-31.7648 17.9657 -79.3754
-30.3588 17.2299 -79.0845
-31.0612 17.5317 -79.1093
-31.0467 16.8041 -79.3485
-32.8931 17.2643 -81.2184
-32.6583 17.2781 -80.4924
-32.6542 17.2787 -82.8082
-32.8878 17.2651 -82.0828
-32.2176 16.0752 -81.2238
-32.634 16.5576 -81.6514
-32.2187 16.0743 -82.0791
-31.761 17.9649 -83.9217
-32.2323 17.5404 -83.4961
-30.3588 18.7015 -84.2225
-31.0615 18.399 -84.1949
-31.0479 16.8019 -83.9587
-31.0616 17.5308 -84.195
-30.3588 17.2282 -84.2223
-29.22 19.5393 -83.4934
-29.67 19.1275 -83.9572
-28.5007 19.8532 -82.0785
-28.7829 19.8108 -82.7917
-28.4851 18.3899 -83.496
-28.5201 19.1025 -83.2217
-28.0585 18.653 -82.8102
-28.5014 16.0765 -81.2243
-28.785 16.1206 -80.5123
-29.189 15.6421 -80.9577
-28.4822 17.5406 -79.8035
-28.5235 16.8298 -80.0835
-28.0616 17.2786 -80.4934
-29.9321 16.1075 -79.7663
-29.2224 16.3933 -79.8127
-29.671 16.8042 -79.3486
-29.9212 15.3994 -80.9422
-29.6162 15.3728 -81.6512
-30.7861 16.1055 -79.7645
-30.359 15.6726 -80.2357
-31.1016 15.3721 -81.651
-30.797 15.3974 -80.9416
-31.5299 15.6395 -80.9568
-29.9213 15.4018 -82.3594
-29.1887 15.6418 -82.3447
-31.5296 15.6405 -82.3452
-30.7965 15.401 -82.3597
-29.9324 16.1103 -83.5344
-30.3589 15.6779 -83.0632
-30.7854 16.1099 -83.5346
-28.7834 16.1189 -82.7909
-28.4999 16.0752 -82.0787
-29.6698 16.802 -83.9586
-29.2223 16.3934 -83.4903
-28.0652 17.2794 -82.8073
-28.5257 16.8309 -83.2174
-28.487 17.5408 -83.4945
-28.0868 16.5592 -81.6514
-27.8027 17.9656 -82.3835
-27.8315 17.266 -82.0825
-27.8273 17.265 -81.2188
-27.7963 17.9656 -80.9165
-29.6565 17.5318 -79.1099
-28.9526 17.9657 -79.3752
-29.6542 18.4007 -79.1017
-31.9348 16.1179 -80.5107
-31.4957 16.3924 -79.812
-32.1946 16.8295 -80.0831
-31.4961 16.3925 -83.491
-31.9361 16.1169 -82.7925
-32.1938 16.8297 -83.2189
-28.9577 17.965 -83.92
-29.6564 17.5309 -84.194
-29.6565 18.3988 -84.1939
-27.8143 18.6693 -81.2164
-27.8196 18.6678 -82.0844
-28.0793 19.3741 -81.6509
-32.0095 20.0767 -81.4372
-31.8954 20.0985 -81.0792
-31.6649 20.293 -81.3047
-32.2594 19.581 -80.6526
-32.0992 19.8544 -80.8558
-32.3947 19.5987 -81.0165
-31.371 20.2399 -80.6213
-31.7481 20.0744 -80.7202
-31.5799 20.0064 -80.3897
-32.4585 18.1783 -80.0092
-32.4809 18.5345 -80.1222
-32.6709 18.3097 -80.3534
-31.9716 18.9624 -79.7535
-32.2415 18.7583 -79.9163
-31.9878 18.5984 -79.6202
-32.6225 18.9905 -80.6435
-32.4594 18.8929 -80.2672
-32.3935 19.2232 -80.4335
-30.5727 19.6178 -79.538
-30.9303 19.5019 -79.5187
-30.7045 19.27 -79.3269
-31.3591 19.8699 -80.0325
-31.1547 19.7076 -79.7606
-30.9951 20.0075 -80.0132
-31.3844 18.974 -79.3856
-31.2882 19.3529 -79.5454
-31.6168 19.1836 -79.6156
-32.096 19.4816 -80.2718
-31.8744 19.3446 -79.9143
-31.7395 19.7046 -80.1335
-31.3247 20.4546 -81.2972
-31.4508 20.4249 -81.651
-31.0026 20.3668 -80.6091
-31.1711 20.4346 -80.94
-30.7347 20.6328 -81.651
-30.9527 20.5692 -81.2933
-30.5798 20.6276 -81.2932
-30.1448 19.6179 -79.5379
-30.3588 19.8575 -79.7345
-29.9361 20.2302 -80.2515
-30.1405 20.0675 -79.979
-29.7226 20.0073 -80.0133
-30.5771 20.0676 -79.979
-30.7815 20.2302 -80.2514
-29.267 20.4247 -81.651
-29.393 20.4543 -81.2972
-29.053 20.2926 -81.3047
-30.1378 20.6277 -81.2932
-29.765 20.5689 -81.2934
-29.983 20.6327 -81.651
-29.3468 20.2395 -80.6215
-29.5467 20.4343 -80.9401
-29.7151 20.3667 -80.6092
-30.5808 20.4274 -80.5734
-30.1368 20.4274 -80.5734
-30.3588 20.5643 -80.9327
-31.3238 20.4524 -82.0045
-31.6637 20.2909 -81.997
-30.5796 20.6249 -82.0084
-30.9522 20.5668 -82.0083
-31.3684 20.234 -82.678
-31.1697 20.4303 -82.3607
-31.001 20.3606 -82.6902
-29.0543 20.2903 -81.9969
-29.394 20.4519 -82.0044
-29.7168 20.3602 -82.69
-29.5481 20.4298 -82.3606
-29.3494 20.2335 -82.6778
-29.7656 20.5664 -82.0083
-30.138 20.6247 -82.0084
-30.5717 19.6096 -83.7537
-30.3588 19.8487 -83.5586
-30.1459 19.6096 -83.7537
-30.7801 20.2224 -83.0457
-30.5763 20.0589 -83.3161
-30.9926 19.9994 -83.2824
-29.7251 19.9992 -83.2822
-30.1414 20.0589 -83.3161
-29.9376 20.2222 -83.0457
-30.3588 20.5593 -82.368
-30.1374 20.4206 -82.7256
-30.5802 20.4207 -82.7256
-31.8929 20.0952 -82.2218
-32.0083 20.0753 -81.8646
-31.5761 20.0001 -82.9084
-31.7448 20.0695 -82.5797
-32.3902 19.5952 -82.284
-32.0952 19.8502 -82.4445
-32.2538 19.5765 -82.6465
-30.7028 19.2631 -83.9635
-30.9276 19.4944 -83.7732
-31.611 19.1782 -83.6774
-31.2839 19.3465 -83.747
-31.3794 18.969 -83.906
-31.1512 19.7 -83.5333
-31.3552 19.8626 -83.2633
-32.6612 18.3081 -82.9433
-32.4713 18.5319 -83.1731
-32.4487 18.1769 -83.2855
-32.3861 19.2187 -82.8642
-32.4504 18.8891 -83.029
-32.6142 18.9869 -82.6549
-31.9797 18.5952 -83.6722
-32.2325 18.7546 -83.3777
-31.9641 18.9579 -83.5399
-31.7345 19.6984 -83.1631
-31.8682 19.3391 -83.3808
-32.0898 19.4764 -83.0255
-32.2458 19.8771 -81.6509
-32.6091 19.3565 -82.0709
-32.4513 19.6301 -81.8682
-32.453 19.6314 -81.4334
-32.6132 19.3588 -81.2301
-32.7894 17.9654 -82.7305
-32.8198 18.3155 -82.6062
-32.9922 18.3196 -81.8695
-32.9334 18.3194 -82.2382
-32.9952 17.9654 -82.0222
-32.8037 18.6699 -82.4553
-32.7404 18.9991 -82.2895
-32.8286 18.3167 -80.6925
-32.7981 17.9656 -80.5679
-32.7469 19.0018 -81.0107
-32.8115 18.6721 -80.8441
-33.001 17.9653 -81.2786
-32.9388 18.3201 -81.0624
-32.9951 18.3199 -81.4319
-32.8024 19.0353 -81.8712
-32.9355 18.6781 -81.6508
-32.8051 19.0365 -81.4302
-28.8228 20.0979 -81.0794
-28.709 20.0758 -81.4373
-29.1378 20.0062 -80.3898
-28.9698 20.074 -80.7203
-28.3241 19.5977 -81.0168
-28.6191 19.8538 -80.856
-28.4589 19.5804 -80.6529
-30.0129 19.2702 -79.3264
-29.7871 19.5021 -79.5183
-29.1003 19.1842 -79.6147
-29.429 19.3534 -79.5445
-29.3327 18.9745 -79.3845
-29.5628 19.7077 -79.7603
-29.3585 19.8698 -80.0325
-28.0472 18.3097 -80.3536
-28.2366 18.5345 -80.122
-28.2594 18.1783 -80.0094
-28.3248 19.2227 -80.4339
-28.259 18.8925 -80.2676
-28.0962 18.99 -80.6439
-28.7297 18.5985 -79.62
-28.4763 18.7582 -79.9163
-28.7459 18.9626 -79.7532
-28.9781 19.7047 -80.1333
-28.8429 19.3449 -79.9139
-28.6218 19.4815 -80.2718
-30.7113 18.9283 -79.1703
-30.3588 19.0554 -79.1966
-31.3948 18.6058 -79.2629
-31.0665 18.7742 -79.193
-30.3588 18.3396 -78.9958
-30.7148 18.5566 -79.0589
-30.7145 18.1853 -79.0033
-32.4545 17.7534 -80.0123
-32.2609 17.9657 -79.7733
-31.745 17.5469 -79.4078
-32.0162 17.7493 -79.5673
-31.9801 17.3354 -79.6298
-32.0193 18.1825 -79.5634
-31.7498 18.3857 -79.4002
-30.3588 16.8821 -79.2128
-30.7092 17.0081 -79.1854
-30.7023 16.6687 -79.3427
-30.714 17.7461 -79.0072
-30.7133 17.3768 -79.0695
-30.3588 17.5925 -79.0026
-31.3784 16.9622 -79.3989
-31.0626 17.161 -79.2065
-31.3902 17.3279 -79.2736
-31.4289 18.186 -79.2058
-31.4271 17.7455 -79.2099
-31.072 17.9656 -79.07
-32.8234 17.6151 -80.6947
-32.665 17.6223 -80.3568
-32.9925 17.6113 -81.4321
-32.9356 17.6114 -81.0633
-32.6093 16.9455 -80.6494
-32.8006 17.2619 -80.8478
-32.7332 16.9341 -81.0146
-32.6584 17.6227 -82.9421
-32.8155 17.6158 -82.6047
-32.7333 16.9332 -82.2877
-32.7955 17.2626 -82.4529
-32.6071 16.9458 -82.6518
-32.9275 17.6123 -82.2368
-32.9882 17.6119 -81.869
-32.0095 15.8524 -81.4375
-32.2452 16.0526 -81.6513
-32.0099 15.8521 -81.8651
-32.6037 16.5761 -81.2324
-32.4487 16.3009 -81.4343
-32.3877 16.3358 -81.0192
-32.3906 16.3336 -82.2843
-32.4499 16.3001 -81.8686
-32.6062 16.5744 -82.0708
-32.9258 17.2551 -81.6509
-32.7952 16.8971 -81.8708
-32.7941 16.898 -81.4317
-32.2533 17.965 -83.5219
-32.4481 17.7533 -83.2852
-31.7433 18.3833 -83.8923
-32.0119 18.181 -83.7301
-31.9797 17.3347 -83.6727
-32.0119 17.7489 -83.7302
-31.7435 17.5464 -83.8927
-30.3588 19.0497 -84.094
-30.7097 18.9235 -84.1214
-30.7139 18.1844 -84.2958
-30.7137 18.5543 -84.2365
-30.3589 18.3383 -84.3021
-31.0634 18.7703 -84.0995
-31.3903 18.6027 -84.03
-30.7029 16.6663 -83.9649
-30.71 17.0056 -84.1231
[...]
POINT_DATA 642
SCALARS Mean_Curvature double 1
LOOKUP_TABLE default
0.778742
0.778853
0.784024
0.78897
0.765472
0.780892
0.783103
0.772803
0.773016
0.784805
0.775676
0.780221
0.718225
0.712595
0.719455
0.718222
0.722229
0.717879
0.718409
0.704004
0.716078
0.730698
0.713249
0.71759
0.69722
0.727634
0.744685
0.702893
0.727314
0.720041
0.71781
0.710048
0.709976
0.698094
0.725392
0.727027
0.740777
0.729596
0.730756
0.720571
0.717202
0.710502
0.719163
0.718433
0.718358
0.719986
0.720261
0.715398
0.718415
0.719535
0.71579
0.719781
0.711383
0.717673
0.723092
0.713195
0.720499
0.718141
0.720324
0.719531
0.717908
0.720737
0.719314
0.719234
0.719357
0.719696
0.713583
0.709159
0.720702
0.713402
0.722445
0.714414
0.722988
0.704381
0.725593
0.739855
0.717143
0.71972
0.717747
0.721256
0.720456
0.721208
0.719512
0.72159
0.721804
0.7136
0.709892
0.722546
0.70756
0.719711
0.713633
0.707052
0.704837
0.71169
0.674921
0.725088
0.722695
0.723318
0.727789
0.713239
0.720834
0.727706
0.720335
0.723403
0.704702
0.720684
0.711175
0.716546
0.719811
0.718518
0.72267
0.708805
0.730179
0.718288
0.719825
0.712937
0.719643
0.691329
0.719525
0.705112
0.715003
0.722223
0.718937
0.736635
0.727828
0.708436
0.725014
0.722945
0.721981
0.722433
0.722829
0.723917
0.703254
0.723843
0.698467
0.736551
0.72525
0.721799
0.709132
0.71449
0.713149
0.71042
0.717306
0.702792
0.691345
0.706706
0.70507
0.715651
0.725962
0.714896
0.728611
0.69834
0.719051
0.699718
0.732013
0.707574
0.724972
0.721171
0.72552
0.742139
0.722609
0.715035
0.723358
0.71876
0.726245
0.717883
0.717982
0.718646
0.719507
0.718029
0.719024
0.73048
0.711664
0.725284
0.717456
0.717169
0.712551
0.723191
0.722818
0.720212
0.72497
0.72147
0.726561
0.719757
0.719931
0.719358
0.712992
0.718674
0.71633
0.718421
0.718386
0.718767
0.722912
0.718828
0.720709
0.719947
0.716979
0.717962
0.7175
0.725366
0.719655
0.720674
0.719574
0.717982
0.719586
0.720211
0.722652
0.721948
0.727846
0.720595
0.715605
0.718032
0.718647
0.719631
0.721045
0.720849
0.721306
0.718993
0.722177
0.725496
0.716446
0.718456
0.719063
0.721598
0.72033
0.725413
0.721321
0.720245
0.719748
0.718088
0.717207
0.71433
0.725147
0.716329
0.725447
0.720614
0.718678
0.718692
0.71839
0.719079
0.721104
0.718442
0.721572
0.720796
0.719091
0.720381
0.718681
0.719183
0.714881
0.71864
0.718597
0.717919
0.720459
0.719365
0.719444
0.706559
0.719477
0.719602
0.72077
0.71118
0.710184
0.721301
0.718902
0.717057
0.705568
0.711776
0.718053
0.719959
0.721057
0.720796
0.723124
0.716719
0.718935
0.719588
0.721343
0.714009
0.712721
0.699559
0.710785
0.711623
0.718754
0.720001
0.718333
0.715421
0.724554
0.725109
0.724741
0.690205
0.703165
0.721303
0.725643
0.725522
0.71947
0.721613
0.718826
0.718455
0.717391
0.718305
0.71823
0.727272
0.720331
0.720839
0.720864
0.720052
0.718623
0.718733
0.725304
0.720401
0.726982
0.719572
0.716121
0.718962
0.713163
0.714863
0.71774
0.719758
0.720677
0.719858
0.712832
0.719442
0.712762
0.713149
0.718968
0.720046
0.724244
0.718643
0.723878
0.715687
0.717379
0.699436
0.724371
0.725552
0.710489
0.702702
0.718585
0.729184
0.714546
0.72084
0.711215
0.695476
0.70734
0.720904
0.71919
0.725366
0.718817
0.718161
0.734412
0.718847
0.707787
0.709574
0.695066
0.714777
0.70726
0.718947
0.7002
0.684138
0.692633
0.715999
0.725529
0.72545
0.72807
0.713695
0.724718
0.721129
0.728864
0.727094
0.727271
0.700651
0.734121
0.712135
0.711936
0.715418
0.707188
0.707405
0.7179
0.708994
0.70631
0.711816
0.707976
0.729399
0.723996
0.727428
0.708032
0.707652
0.728191
0.717725
0.724328
0.708113
0.71286
0.720215
0.729985
0.715802
0.730205
0.729558
0.728598
0.726932
0.720471
0.719017
0.71918
0.719158
0.710233
0.719394
0.718915
0.722853
0.719221
0.719039
0.71926
0.717025
0.718858
0.718412
0.705829
0.719845
0.721967
0.717454
0.712713
0.713061
0.721084
0.715888
0.723123
0.719996
0.721283
0.721386
0.73398
0.724666
0.729084
0.704501
0.723338
0.704788
0.72362
0.726504
0.728771
0.72365
0.700201
0.715149
0.717671
0.698022
0.698298
0.718917
0.717383
0.716452
0.704375
0.705281
0.720256
0.726102
0.707636
0.728126
0.712336
0.711657
0.716437
0.708122
0.713035
0.70813
0.718521
0.729918
0.721095
0.720281
0.707605
0.715907
0.725667
0.705001
0.738487
0.727178
0.731994
0.734036
0.728759
0.723481
0.722083
0.7251
0.725478
0.723306
0.727423
0.714189
0.724989
0.72502
0.724755
0.725325
0.724587
0.72319
0.724049
0.730022
0.711471
0.719883
0.724418
0.723154
0.724201
0.728582
0.722904
0.724555
0.72385
0.724444
0.719341
0.711359
0.72494
0.702067
0.724229
0.732196
0.704649
0.711721
0.722518
0.701512
0.734731
0.713889
0.723215
0.723293
0.724102
0.730695
0.731956
0.725312
0.738547
0.727875
0.744
0.728815
0.721221
0.720027
0.721175
0.722401
0.707168
0.706927
0.715449
0.716339
0.71564
0.687715
0.713524
0.697391
0.714427
0.716938
0.720453
0.705328
0.710119
0.691444
0.730677
0.740662
0.738854
0.734567
0.701568
0.710828
0.707367
0.725845
0.700373
0.711787
0.709706
0.681045
0.713362
0.723691
0.71629
0.70109
0.70995
0.718486
0.720217
0.712427
0.709745
0.711166
0.703772
0.706359
0.696495
0.712728
0.726856
0.724602
0.719043
0.723887
0.720563
0.716183
0.716833
0.729078
0.714973
0.715723
0.711813
0.71773
0.724605
0.724749
0.724234
0.730869
0.727306
0.731412
0.707268
0.698253
0.714705
0.707363
0.711777
0.735706
0.706844
0.713049
0.708573
0.695414
0.717636
0.711981
0.708956
0.702297
0.719364
0.721787
0.699035
0.718409
0.717652
0.723916
0.738257
0.726215
0.724857
0.729138
0.717334
0.719753
0.718598
0.710891
0.687911
0.722714
0.714579
0.700928
0.710599
0.706325
0.708673
0.702487
0.704263
0.719722
0.731239
0.713076
0.716999
0.706956
0.706759
0.70443
0.705968
0.723103
0.729458
0.725244
0.729278
0.726618
0.716399
0.698613
0.716093
0.724233
0.723229
0.718267
0.726935
0.709132
0.722619
0.715516
0.713904
0.721387
0.715333
0.718295
0.719161
0.731503
0.72488
0.718666
SCALARS CoVolArea double 1
LOOKUP_TABLE default
0.11534
0.11531
0.115455
0.115415
0.114573
0.115314
0.114753
0.114735
0.114065
0.114506
0.114128
0.114539
0.152413
0.152293
0.152986
0.152974
0.152981
0.15247
0.15249
0.151607
0.151994
0.151419
0.152326
0.152341
0.151526
0.152117
0.151825
0.151701
0.152028
0.151618
0.151987
0.151588
0.151589
0.151513
0.152646
0.152823
0.15322
0.152636
0.15252
0.151533
0.151597
0.151282
0.144594
0.159786
0.144871
0.144021
0.159449
0.14405
0.144854
0.159749
0.144508
0.160155
0.144864
0.14486
0.160169
0.144849
0.160148
0.144844
0.159865
0.144627
0.144595
0.15985
0.144215
0.159617
0.144209
0.159322
0.144405
0.143842
0.159092
0.143499
0.158806
0.143379
0.159303
0.143186
0.158705
0.158986
0.143603
0.159762
0.144518
0.144554
0.159779
0.144015
0.159437
0.144022
0.159266
0.144377
0.143577
0.158943
0.143681
0.158824
0.143638
0.158399
0.143444
0.143199
0.158216
0.144435
0.15893
0.144497
0.158569
0.143331
0.143889
0.158879
0.14388
0.158895
0.14392
0.159081
0.143832
0.144362
0.159304
0.143337
0.158798
0.143473
0.144326
0.159158
0.14477
0.143563
0.158521
0.143342
0.144209
0.158851
0.143625
0.160209
0.145018
0.144303
0.160008
0.145078
0.160308
0.144916
0.160059
0.144781
0.144858
0.160104
0.144074
0.159685
0.144105
0.159227
0.144414
0.143862
0.158849
0.143078
0.158388
0.143214
0.158754
0.143137
0.158053
0.158236
0.143485
0.158803
0.158949
0.159268
0.159344
0.158946
0.158572
0.158961
0.159411
0.15856
0.158468
0.158841
0.158824
0.158927
0.158687
0.159217
0.140925
0.145896
0.141056
0.157715
0.146705
0.143814
0.144228
0.146849
0.158022
0.140144
0.145197
0.140143
0.157491
0.146238
0.143466
0.143548
0.146272
0.157568
0.141031
0.145853
0.140872
0.158014
0.146824
0.144221
0.143702
0.146637
0.157628
0.176187
0.176153
0.176356
0.14605
0.141054
0.158223
0.147021
0.144221
0.14701
0.158206
0.141039
0.146044
0.158219
0.14702
0.144218
0.147021
0.158224
0.141032
0.146029
0.141023
0.158204
0.146999
0.144214
0.144209
0.147004
0.158212
0.176793
0.17679
0.176779
0.145919
0.140936
0.158052
0.146876
0.143868
0.146764
0.157813
0.140904
0.145893
0.157793
0.146737
0.14384
0.146857
0.158045
0.140351
0.145387
0.140349
0.157694
0.146426
0.143656
0.143644
0.146423
0.157684
0.176452
0.176319
0.176326
0.145669
0.140842
0.157536
0.146506
0.14352
0.146381
0.157266
0.140191
0.145171
0.156932
0.14597
0.143054
0.146191
0.157426
0.139589
0.144567
0.139567
0.157021
0.145677
0.143056
0.142805
0.145579
0.156791
0.175737
0.175456
0.175584
0.14566
0.157247
0.146373
0.146485
0.1575
0.139469
0.144479
0.156616
0.145432
0.142594
0.145616
0.156981
0.144962
0.139941
0.157361
0.146058
0.142859
0.145776
0.156754
0.175533
0.175343
0.175692
0.145851
0.140867
0.158008
0.14682
0.143738
0.146655
0.157666
0.140894
0.14588
0.157676
0.146684
0.143754
0.14684
0.158015
0.140113
0.145185
0.140129
0.157522
0.14624
0.143492
0.143475
0.146233
0.157512
0.17636
0.176175
0.176171
0.14559
0.140792
0.157383
0.14639
0.143569
0.146355
0.157323
0.139932
0.144961
0.156783
0.145775
0.142849
0.146015
0.15726
0.139914
0.14477
0.139987
0.15712
0.145786
0.143196
0.142893
0.145655
0.156741
0.175629
0.175368
0.175586
0.144648
0.13983
0.156501
0.14551
0.142795
0.14546
0.156609
0.139452
0.144255
0.156605
0.145211
0.142714
0.145154
0.156342
0.140954
0.145631
0.140966
0.156921
0.146225
0.143391
0.143533
0.146283
0.157038
0.174786
0.175037
0.175028
0.144455
0.13952
0.156656
0.145451
0.142786
0.14545
0.156676
0.140142
0.144992
0.157117
0.145946
0.143288
0.145825
0.156795
0.140227
0.145053
0.140211
0.156835
0.145877
0.143083
0.143293
0.145965
0.15712
0.175228
0.175424
0.175238
0.145166
0.140187
0.157409
0.146181
0.14304
0.145963
0.156924
0.140795
0.145636
0.157256
0.146358
0.143497
0.146478
0.157513
0.139505
0.144541
0.139546
0.156784
0.145566
0.142779
0.143047
0.145664
0.157016
0.175722
0.175575
0.175447
0.140888
0.14572
0.141063
0.156952
0.146268
0.143245
0.144024
0.146544
0.157546
0.139902
0.14457
0.139751
0.156602
0.145478
0.14284
0.142719
0.145448
0.156665
0.140227
0.14498
0.139976
0.157375
0.146063
0.14375
0.142879
0.145741
0.156696
0.175242
0.175141
0.175513
0.146101
0.141182
0.158095
0.146989
0.144401
0.147115
0.158391
0.140254
0.145483
0.1581
0.14671
0.143894
0.146647
0.157982
0.141237
0.146209
0.14115
0.158432
0.147214
0.14445
0.144195
0.147135
0.158243
0.176752
0.176815
0.176917
0.146096
0.141082
0.158267
0.147062
0.143985
0.146938
0.157957
0.141135
0.146148
0.158033
0.147004
0.144084
0.147108
0.15829
0.140282
0.145259
0.140288
0.157745
0.146345
0.143559
0.143648
0.146373
0.157811
0.176679
0.176526
0.176494
0.14578
0.140912
0.157519
0.146589
0.143395
0.146394
0.157049
0.140222
0.145094
0.156765
0.145868
0.143039
0.146022
0.157273
0.139358
0.144281
0.139422
0.156552
0.145242
0.142523
0.142675
0.145306
0.156558
0.175476
0.175098
0.1752
0.145562
0.156836
0.14618
0.14611
0.156769
0.139406
0.144168
0.156217
0.145075
0.142531
0.145071
0.156356
0.144518
0.139866
0.156493
0.145332
0.142707
0.145341
0.156317
0.174793
0.1746
0.174835
0.144764
0.156728
0.145642
0.145773
0.157108
0.144957
0.157269
0.146019
0.145779
0.15678
0.145613
0.15732
0.14636
0.146421
0.157406
0.17536
0.175633
0.175574
0.145847
0.157742
0.146719
0.146433
0.157101
0.14503
0.156727
0.145781
0.146175
0.157548
0.144627
0.156745
0.145504
0.145507
0.156631
0.175677
0.175214
0.175364
0.145114
0.157425
0.146088
0.145908
0.156844
0.145861
0.157249
0.146517
0.146705
0.157676
0.144402
0.156676
0.145437
0.145391
0.156769
0.175691
0.17544
0.175263
0.144364
0.156575
0.145343
0.145375
0.156591
0.145044
0.157092
0.145944
0.145847
0.156765
0.144978
0.156744
0.145794
0.145921
0.157088
0.175144
0.175359
0.175141
0.144908
0.15667
0.145707
0.146009
0.157284
0.144448
0.156969
0.145595
0.145413
0.156572
0.145582
0.157405
0.146391
0.146307
0.157212
0.175297
0.175488
0.17561
SCALARS SignedDistance double 1
LOOKUP_TABLE default
2.61023
2.62072
2.59569
2.61145
2.93675
2.62038
2.81555
2.86002
3.11643
2.97438
3.08752
2.94732
2.71456
2.74555
2.51054
2.51459
2.49793
2.68771
2.6821
2.97806
2.87167
3.03813
2.74227
2.73437
3.00425
2.81007
3.00375
2.9719
2.76863
2.94671
2.87499
2.98236
2.98506
3.00683
2.70305
2.66178
2.48125
2.69738
2.74361
2.9849
3.08397
3.06539
2.63386
2.60171
2.53506
2.83641
2.72396
2.84655
2.54552
2.62298
2.67693
2.48039
2.54362
2.53992
2.46945
2.54444
2.48258
2.54848
2.56675
2.62663
2.63639
2.57178
2.76586
2.66867
2.76678
2.75563
2.7264
2.90457
2.82983
3.02708
2.93097
3.04078
2.77516
3.11892
2.98034
2.92333
2.94846
2.61096
2.66895
2.65658
2.60713
2.85213
2.73264
2.8445
2.76283
2.70095
2.99587
2.88569
2.95797
2.92591
2.95125
3.03727
3.02339
3.09968
3.15306
2.78849
2.9387
2.7572
2.97657
3.05101
2.854
2.8797
2.85273
2.88194
2.86115
2.83177
2.90445
2.72938
2.75883
3.06948
2.93796
3.03732
2.82978
2.85934
2.63938
3.01111
2.99278
3.07457
2.83839
2.91136
2.95131
2.49388
2.48333
2.82405
2.6164
2.48153
2.44371
2.58683
2.53065
2.63293
2.58285
2.50888
2.8172
2.71455
2.81363
2.88328
2.81518
2.86481
2.91004
3.12341
3.04172
3.09012
3.00225
3.13705
3.16424
3.07712
3.0115
2.93243
2.88378
2.76368
2.82551
2.90608
2.97921
2.8875
2.81194
3.00309
3.01265
2.90843
2.90017
2.92308
2.99471
2.78815
2.61941
2.5821
2.5678
2.65227
2.61223
2.66826
2.51596
2.56304
2.55382
2.89411
2.83946
2.89167
2.73669
2.78514
2.78663
2.77466
2.77832
2.71342
2.57912
2.60817
2.64299
2.56041
2.57964
2.52135
2.71159
2.64947
2.68898
2.65636
2.67068
2.60524
2.53677
2.57485
2.48001
2.49816
2.52218
2.51538
2.49794
2.57369
2.54
2.48373
2.50258
2.52035
2.50343
2.48205
2.57671
2.54046
2.5845
2.49142
2.51444
2.52658
2.52438
2.50733
2.48569
2.46078
2.46077
2.47656
2.57048
2.61617
2.54004
2.54315
2.64989
2.58834
2.61836
2.62487
2.58207
2.62489
2.5997
2.65777
2.55386
2.54406
2.81573
2.77291
2.81576
2.66444
2.71373
2.72115
2.72431
2.71376
2.66653
2.56589
2.60786
2.60777
2.6736
2.66495
2.71248
2.68789
2.79549
2.73978
2.81098
2.87341
2.83726
2.91027
2.87148
2.94262
2.79276
2.75266
3.08032
3.03846
3.07412
2.90178
2.97876
2.95109
3.00896
2.99848
2.95854
2.78901
2.87607
2.84079
2.6763
2.82734
2.75014
2.69827
2.73482
3.10712
3.08307
3.03435
3.06042
3.09528
3.01012
2.92592
2.9189
2.95143
2.8003
2.87532
2.96285
2.95683
2.99903
2.87594
2.95744
2.83834
2.60683
2.65216
2.55712
2.5748
2.69381
2.6337
2.67108
2.63028
2.59129
2.67438
2.62603
2.69846
2.56594
2.55435
2.91592
2.8503
2.911
2.73084
2.78873
2.79058
2.7878
2.78833
2.73622
2.6019
2.66646
2.66496
2.68802
2.67053
2.75312
2.72069
2.74348
2.71706
2.76898
2.97378
2.92123
2.96362
2.94577
3.01277
2.85895
2.79975
2.96948
2.97003
2.93741
2.8637
2.93908
2.89259
2.97511
2.97858
2.9792
2.82117
2.9066
2.83789
2.98511
2.99035
3.02999
2.99064
3.01765
3.02346
3.03474
3.10931
3.13108
3.09286
3.12703
3.08177
3.14912
3.11776
2.68449
2.75201
2.6614
2.96642
2.86432
2.89857
2.87342
2.84379
2.95621
3.11092
3.05386
3.05381
3.05676
3.08284
3.00255
3.03506
3.00186
3.03105
2.98927
2.8822
2.89113
2.80742
2.8538
2.80629
2.92165
2.95786
2.82298
2.85216
2.8407
2.93348
2.88696
2.89563
2.80896
2.85998
2.80803
2.92236
2.83764
2.92181
2.83754
2.87407
2.7561
2.79454
2.94254
2.87188
2.91169
2.67243
2.67907
2.81355
2.7425
2.79675
2.69337
2.71726
3.10524
3.05277
3.09705
2.96298
3.00662
3.02331
2.96135
2.98897
2.90829
2.79198
2.84444
2.87953
2.71257
2.72955
2.62325
2.92657
2.84493
2.92833
2.66113
2.74887
2.77751
2.995
3.05688
3.03639
3.0015
3.04559
3.02136
3.03818
3.04116
2.98686
2.89848
2.91136
2.93728
2.83003
2.87778
2.76526
2.97588
2.93094
2.9576
2.93623
2.94643
2.88707
2.54851
2.53389
2.58583
2.55779
2.47459
2.49066
2.43725
2.8986
2.82745
2.61426
2.71019
2.73479
2.73231
2.65247
2.52669
2.50424
2.58711
2.40432
2.43449
2.46776
2.61184
2.50217
2.53596
2.53649
2.50707
2.44182
2.53428
2.60653
2.4854
2.49162
2.68022
2.56823
2.62249
2.56948
2.50384
2.58632
2.52791
2.62756
2.46875
2.48476
2.807
2.80962
2.80661
2.70969
2.784
2.80647
2.78023
2.78369
2.68991
2.53578
2.60589
2.60666
2.71219
2.70046
2.8034
2.74976
2.94718
2.84117
2.97978
2.82551
2.8323
2.9395
2.8808
2.92133
2.85605
2.8643
3.13754
3.10815
3.11582
3.07326
3.08738
3.11261
3.04436
3.06494
3.01124
2.93485
2.97843
3.01389
2.78829
3.03741
2.90565
2.91099
2.98983
3.13124
3.1536
3.1114
3.15953
3.11117
3.14692
3.1406
3.03805
2.99659
3.05132
3.073
3.02782
3.03892
3.05694
3.10722
3.11079
3.07005
2.971
2.98064
2.97959
2.94426
2.87168
2.92852
2.80089
2.85806
2.94877
2.96669
2.68495
2.77495
2.72346
2.71892
2.75337
2.91102
2.82002
2.84775
2.68294
2.73771
2.7005
2.80174
2.90595
2.91179
2.95396
2.9298
2.87048
2.80573
3.01833
2.97099
3.0201
3.02837
2.99346
2.86971
2.93774
2.9221
2.82649
2.82323
2.84392
2.8641
2.90985
2.6582
2.90175
2.77332
2.68759
2.74148
3.07587
2.97066
3.0243
3.05346
3.03339
2.88058
2.95901
2.94425
3.08862
3.02461
3.06652
3.06691
3.02947
2.85674
2.82549
2.87581
2.90557
2.96568
2.89698
2.97348
2.93075
2.86535
2.82384
2.95594
2.86608
2.95367
2.93864
3.02033
2.97141
2.87731
2.81199
3.09243
2.93211
3.02512
3.06603
3.03774
2.6993
2.75719
2.73202
2.75753
2.82908
2.95734
2.87753
2.85043
