# vtk DataFile Version 4.2
vtk output
ASCII
DATASET POLYDATA
POINTS 642 double
-93.0022 189.721 85.2512
152.76 189.658 84.5634
-91.3599 -229.937 81.2568
151.682 -229.477 81.3682
30.6415 -136.191 263.41
31.2322 113.761 283.96
30.5526 -138.42 -108.407
30.9281 103.291 -103.459
201.601 -14.8487 -25.1633
210.552 -8.29528 198.207
-141.84 -16.3857 -27.2093
-151.705 -9.33329 197.211
-155.638 104.834 155.645
-83.0036 58.4021 268.884
-43.4584 186.135 205.98
104.766 185.448 205.919
30.5937 231.756 85.14
101.305 176.746 -31.3594
-40.4402 177.21 -31.3899
-73.2105 53.8493 -90.0809
-145.632 101.48 17.3748
-178.64 -14.6044 91.973
143.793 59.1706 269.594
215.279 103.757 155.297
-72.8082 -84.0416 253.157
29.788 -8.83239 309.319
-134.011 -142.378 22.293
-137.935 -134.352 147.422
29.7003 -18.2678 -146.326
-72.502 -89.9638 -93.8524
206.918 101.786 17.7649
134.432 55.4458 -89.9797
198.999 -131.656 148.406
133.645 -84.0753 253.277
97.832 -217.727 192.678
-38.0399 -220.981 194.28
30.0254 -271.105 85.8855
-40.9353 -217.99 -26.2227
99.3745 -216.123 -24.1573
130.95 -89.9197 -91.9327
188.258 -137.292 22.9091
237.007 -14.1195 86.9129
-132.084 154.296 122.785
-108.67 152.594 184.875
-73.7412 196.902 147.345
-124.972 24.8326 238.932
-127.409 87.7432 218.397
-159.069 48.4696 181.257
-7.29786 156.451 253.154
-68.7285 128.803 246.056
-27.9288 90.4782 284.304
-9.28984 221.056 150.27
-35.4275 219.529 84.0226
68.9234 155.862 253.801
30.1231 197.847 213.521
96.5592 219.556 84.5578
70.3976 221.043 149.901
134.092 196.769 147.362
-8.85923 215.998 21.1804
-70.5694 192.741 23.7765
131.612 191.826 23.8825
69.3038 215.767 21.1226
-5.8441 146.369 -74.7213
30.5379 187.118 -37.5792
66.837 146.19 -74.8438
-101.583 147.032 -12.2716
-126.955 151.101 49.1786
-23.4497 82.2632 -105.126
-62.859 121.539 -69.2652
-148.119 46.0081 -7.10516
-116.195 84.0972 -42.8614
-113.92 19.742 -63.1828
-161.015 109.482 87.4215
-163.471 -11.8306 27.8935
-170.344 49.3859 51.4362
-173.164 51.3839 122.376
-176.054 -14.74 142.531
168.631 152.237 185.478
190.79 152.635 123.168
90.2153 91.6892 285.643
130.189 128.863 247.788
220.135 48.4961 181.158
187.148 87.2597 218.911
185.256 25.268 239.375
-27.159 24.2412 302.018
30.8977 50.2901 306.423
-118.261 -43.9933 231.34
-83.4997 -8.09889 272.084
30.186 -71.5868 290.122
-24.368 -43.5741 292.121
-24.1364 -116.089 266.198
-168.616 -70.4687 119.832
-151.122 -69.9026 173.716
-142.332 -73.845 -9.92796
-157.576 -77.1554 53.9405
-119.434 -190.826 114.566
-148.113 -145.136 80.0453
-122.809 -191.277 46.9153
-74.0949 -18.7432 -104.161
-111.767 -54.4048 -64.3238
30.1447 39.1226 -133.589
-21.1449 13.1604 -131.231
-23.2862 -118.192 -109.874
-21.8365 -50.972 -130.574
29.9998 -77.783 -130.616
123.966 121.298 -69.358
85.0834 82.9311 -105.541
187.933 150.722 47.9532
162.826 146.678 -12.2381
173.291 22.2484 -61.5475
176.64 84.1388 -42.7639
208.62 45.6462 -7.16395
177.725 -189.817 111.858
154.043 -182.051 171.573
128.792 -231.598 139.851
177.88 -43.122 232.082
174.126 -115.05 206.513
207.171 -72.1529 172.659
63.6743 -184.099 230.633
120.481 -152.689 229.565
85.2116 -116.236 266.148
67.1125 -259.001 145.045
97.6837 -260.616 81.9933
-3.65445 -187.122 229.691
28.2489 -231.118 202.026
-36.2575 -260.7 83.6673
-9.20684 -262.301 145.935
-69.2043 -234.887 142.198
70.5772 -256.136 21.7913
130.758 -231.874 25.6638
-71.5549 -233.966 23.4315
-11.2958 -257.347 21.0608
64.5543 -175.943 -75.6316
29.7893 -225.446 -30.6856
-4.67233 -176.759 -74.775
156.045 -186.402 -2.91939
181.043 -190.573 49.5415
83.1663 -118.382 -109.525
117.082 -150.296 -70.137
202.317 -73.2522 -8.31331
169 -110.825 -43.5962
170.927 -53.47 -61.9624
203.041 -143.856 82.8933
223.644 -10.0945 29.0884
219.034 -71.7283 54.5346
225.992 -71.8722 118.051
231.896 -11.528 142.899
85.5111 -44.2881 290.934
145.334 -7.63165 272.178
88.7323 25.7021 301.428
-94.2568 -186.098 171.193
-59.5136 -154.341 228.683
-113.651 -115.681 206.929
-58.4111 -152.387 -68.9465
-98.4271 -188.425 -5.70895
-110.069 -112.524 -45.0679
133.501 -18.1864 -101.837
81.0608 -51.2219 -128.878
80.9565 14.0407 -129.78
234.284 51.1338 123.189
230.484 48.8736 52.5528
221.426 107.852 85.4102
-113.998 173.848 104.559
-105.376 177.411 135.945
-85.1758 195.122 116.142
-135.171 130.001 170.831
-122.613 154.841 154.541
-145.821 131.015 139.834
-59.6965 193.964 177.453
-92.4803 176.664 167.729
-77.4657 171.753 196.731
-140.533 8.04822 219.249
-144.307 36.978 211.811
-157.855 17.4043 191.583
-106.666 74.1797 245.7
-126.849 56.6938 230.359
-105.812 41.5779 255.76
-159.805 78.8514 169.258
-145.63 70.1231 200.44
-144.277 97.8654 188.1
12.1479 135.828 271.218
-18.8912 125.402 271.286
1.49904 103.699 286.263
-57.2783 159.668 228.282
-39.101 144.688 251.197
-25.7068 173.456 231.472
-56.387 75.24 278.44
-49.5162 110.932 266.969
-77.186 94.6281 259.381
-120.744 121.489 203.713
-100.639 109.396 234.1
-90.5883 143.023 217.61
-55.4849 211.235 117.695
-66.0326 206.403 84.4195
-27.4895 207.004 179.939
-42.2719 211.717 150.342
-2.47328 227.795 84.6412
-22.0799 222.636 118.06
10.9793 229.603 117.22
49.8008 135.589 271.636
30.5597 158.765 255.041
68.4279 194.456 211.552
50.075 179.322 234.61
87.2131 172.647 231.779
10.6212 179.876 234.702
-7.52383 195.093 211.846
126.739 206.592 84.6922
116.197 211.316 117.53
144.634 194.957 116.023
50.1682 229.613 117.153
83.217 222.651 117.933
63.4995 227.819 84.8597
120.66 193.565 177.245
103.291 211.643 150.032
88.6282 206.632 179.46
10.0716 213.489 184.118
50.5141 213.039 183.742
30.4216 223.815 150.677
-54.2574 209.793 51.7749
-82.7764 193.507 53.8491
10.486 225.864 52.5253
-22.4446 220.949 51.4048
-56.5264 187.185 -4.62977
-40.541 207.027 21.346
-25.7472 199.342 -6.50691
143.615 192.859 54.1407
115.106 209.021 52.5684
86.2938 198.912 -6.57445
101.08 206.174 21.4129
117.464 186.453 -4.68564
82.9109 220.348 51.9217
50.2995 225.931 52.612
12.672 126.076 -90.7157
30.6025 148.335 -75.8395
48.6834 125.949 -90.9523
-6.20691 184.947 -36.3942
11.397 168.89 -57.4534
-23.2903 163.364 -55.028
84.1669 163.099 -55.0161
49.6177 168.881 -57.492
67.0011 184.835 -36.4026
30.4774 218.909 19.9943
50.0364 205.025 -10.118
10.8571 205.02 -10.0547
-100.581 174.108 34.5774
-111.344 172.321 67.1775
-72.6464 164.502 -23.1563
-87.5357 171.331 3.96481
-138.335 127.464 32.4451
-115.628 150.611 16.4592
-125.923 125.768 1.31391
3.30988 93.6648 -106.618
-16.6026 116.598 -91.4169
-69.351 89.9545 -81.0229
-44.8054 104.108 -88.1425
-48.7556 69.1608 -99.3541
-35.6999 135.723 -73.454
-52.9052 150.946 -52.5955
-145.16 13.841 -18.0103
-132.661 34.1999 -37.3278
-128.967 1.4141 -45.8402
-132.754 94.1701 -14.6398
-133.786 66.394 -25.919
-148.823 74.7277 4.46676
-95.7589 36.9273 -77.8312
-115.69 52.9153 -53.9617
-96.2344 70.5145 -67.7651
-83.7862 136.138 -42.93
-91.7943 104.357 -57.9795
-111.252 116.492 -29.8187
-132.649 154.342 86.6896
-155.572 106.783 52.0847
-146.488 131.012 68.5688
-149.241 132.548 105.287
-161.262 109.002 122.111
-153.599 -14.7331 -2.58811
-158.086 17.1883 10.407
-175.083 17.0566 69.7133
-169.248 19.199 40.8554
-172.844 -11.5902 60.4342
-161.312 48.9554 23.0782
-161.067 75.9093 34.8788
-168.758 17.0726 163.951
-165.494 -11.7142 170.723
-168.779 80.138 139.708
-168.916 51.7947 152.004
-182.045 -16.148 117.245
-175.319 14.6689 133.463
-177.4 13.7646 105.455
-168.612 80.6139 69.0531
-173.905 51.1782 86.6947
-170.906 82.3999 105.724
164.476 176.709 136.491
172.438 172.737 103.944
138.467 171.311 197.154
152.676 176.281 168.08
205.189 129.512 140.183
181.855 153.953 155.116
194.466 129.257 171.015
61.1624 103.932 287.097
81.3018 125.141 272.616
138.044 95.6709 260.88
111.511 111.481 268.958
117.644 76.6921 279.33
101.149 144.188 252.513
118.906 159.132 229.158
216.619 19.4823 191.309
204.714 37.8624 211.938
199.79 8.69223 219.498
203.611 97.0587 188.047
206.266 68.4513 200.661
219.99 76.6382 168.821
166.753 41.629 256.308
187.703 56.2197 230.956
167.005 74.3792 246.429
151.366 142.92 218.656
160.859 109.791 235.316
180.356 121.388 204.327
0.887425 70.4127 298.416
31.2269 83.2763 296.22
-56.4338 41.6522 287.517
-28.7625 56.0666 295.13
30.2654 19.4827 310.535
0.77073 36.4765 307.125
1.25843 7.55426 309.661
-136.8 -26.2796 215.068
-122.928 -8.06712 237.825
-79.4811 -43.3709 265.465
-101.766 -25.9051 253.629
-96.3356 -63.9978 244.157
-105.2 8.94808 257.968
-85.4211 24.1584 274.047
30.5995 -107.378 276.019
3.0209 -94.6225 278.85
2.68629 -127.456 266.952
2.10512 -25.8094 303.789
2.71191 -56.8426 293.943
29.7977 -38.3594 301.671
-49.137 -102.16 262.018
-24.7513 -79.4453 277.59
-50.3607 -63.7894 274.581
-57.3336 8.17657 289.908
-54.5864 -26.1603 284.982
-26.5092 -8.91361 300.689
-166.626 -41.0227 158.558
-153.684 -39.4001 185.737
-177.052 -39.5867 107.693
-175.158 -40.4563 130.314
-144.23 -102.438 162.177
-162.148 -70.6134 146.435
-152.661 -102.894 132.704
-143.021 -44.2594 -19.6422
-153.948 -44.2398 6.95004
-147.078 -111.752 37.3134
-151.699 -75.9375 18.6214
-138.768 -105.386 4.8822
-162.634 -41.4829 40.1312
-171.42 -39.7128 74.9361
-107.334 -212.232 98.5146
-124.322 -192.739 79.9845
-108.883 -212.726 63.4731
-144.385 -141.887 112.841
-135.469 -168.42 96.2953
-128.928 -164.397 129.752
-130.831 -168.681 33.4728
-136.836 -169.765 63.4452
-144.057 -146.264 52.2167
-165.212 -75.4436 89.6228
-155.907 -116.005 68.7736
-155.746 -110.34 98.0294
-113.826 -17.5544 -65.7837
-128.535 -34.7384 -46.2827
-73.6035 14.4403 -98.2858
-94.6254 -0.297134 -83.4694
-93.2874 -73.145 -80.3057
-94.0707 -36.4662 -84.7086
-73.9436 -52.7546 -99.2211
30.5842 71.7575 -119.103
4.50156 59.4143 -121.853
4.18362 -2.45481 -142.389
4.58902 25.706 -135.264
29.8019 9.21965 -142.335
-22.0454 46.1132 -119.228
-46.1248 32.3063 -112.057
3.42032 -129.764 -111.422
2.37977 -100.444 -123.107
30.5424 -112.493 -120.636
-47.0111 -71.9597 -112.599
-23.4802 -86.4862 -120.467
-48.6655 -105.048 -103.905
29.6909 -44.1345 -142.715
3.02348 -63.2593 -134.045
4.27244 -33.4822 -142.505
-48.7179 -3.23833 -121.166
-22.7451 -18.0482 -135.846
-49.0706 -33.9768 -120.803
77.6877 116.243 -91.8605
58.3007 94.003 -106.923
[...]
POINT_DATA 642
SCALARS Mean_Curvature double 1
LOOKUP_TABLE default
0.00833325
0.00900935
0.0121862
0.0160593
0.00729399
0.00850884
0.0103991
0.00502673
0.0110848
0.00931258
0.0111908
0.00530717
0.0108232
0.00828791
0.00983199
0.00926542
0.0118361
0.00908132
0.00938758
0.00589602
0.00803488
0.00951588
0.00779866
0.0106377
0.00038778
0.011741
0.00327582
0.00809879
0.0189432
0.0108485
0.0092669
0.00805278
0.0101047
0.00127544
0.0126871
0.0134218
0.00674303
0.0136062
0.0119832
0.00952931
-0.00434817
0.00939987
0.011044
0.00922743
0.00947625
0.0106448
0.00970961
0.00588957
0.00962641
0.00878146
0.00730885
0.00958642
0.00741238
0.00947202
0.0102159
0.00826041
0.00984888
0.0100693
0.0102178
0.0096415
0.00921612
0.0105241
0.0100835
0.00761995
0.010007
0.00986283
0.00750809
0.00667647
0.0101363
0.00601668
0.00926214
0.00805426
0.0106895
0.00398757
0.00953741
0.00395898
0.012161
0.00954074
0.00919077
0.00969307
0.00996205
0.0094864
0.00833371
0.0103178
0.0115792
0.00908421
0.00654759
0.00817887
0.00594234
0.0078251
0.0100613
0.0127494
0.00707392
0.00808606
-0.00231745
0.0097087
0.013267
0.0135166
0.0116368
0.0065318
0.0125352
0.0107429
0.0110769
0.00884784
0.00208616
0.0100933
0.00835707
0.00883285
0.00996557
0.00581321
0.00838054
0.00738284
0.00820962
0.00498825
0.0104459
0.00704092
0.0109957
0.00124991
0.00462419
0.00795852
0.0102359
0.0105513
0.0126751
0.00470812
0.0131054
0.00699868
0.0131946
0.0117077
0.0121024
0.0112752
0.0120205
0.0131569
0.00973915
0.00737988
0.00836305
0.0124387
0.0164131
0.0119039
0.00883495
0.00986292
0.0088768
0.00612122
0.00754605
0.00272134
-0.00127004
0.00794641
0.0063107
0.00732727
0.00944283
0.0111426
0.00538212
0.00689538
0.0115414
0.00727696
0.0128651
0.0087509
0.0104681
0.00789002
0.00995574
0.00620081
0.0056996
0.00977026
0.0090919
0.00968616
0.00881404
0.00971092
0.00950426
0.0101898
0.00951618
0.00887976
0.00917123
0.0109657
0.00803374
0.0120694
0.00866572
0.0074106
0.00971475
0.0119855
0.00880242
0.0110166
0.00982796
0.00965375
0.00851654
0.00928571
0.00925336
0.0098725
0.00735331
0.00812578
0.00780928
0.00951713
0.00885786
0.00923428
0.0088922
0.00701465
0.0104196
0.0103771
0.00730664
0.00711084
0.0102804
0.00957217
0.0075976
0.00987564
0.00895493
0.00919994
0.0101915
0.010731
0.00867101
0.00951434
0.00835241
0.0103357
0.00728545
0.00752619
0.00938443
0.0107452
0.0101962
0.0116393
0.0105022
0.00635819
0.0112312
0.00950076
0.00714758
0.0109377
0.00939599
0.0103832
0.00965505
0.00926695
0.0101934
0.00953629
0.00938975
0.00920852
0.00948178
0.00780057
0.00832196
0.00674532
0.00866216
0.00994012
0.00911786
0.00965796
0.00938424
0.00938151
0.0100875
0.00923817
0.01043
0.00996486
0.00911376
0.00684443
0.00943505
0.00971924
0.00808897
0.00961358
0.00944926
0.0072342
0.00894793
0.00869156
0.00969848
0.00543723
0.00979975
0.00962212
0.00435811
0.00889373
0.00548008
0.00988112
0.00719583
0.00824287
0.00826001
0.00677187
0.00695713
0.00983701
0.0100866
0.010014
0.0106025
0.00908437
0.00882428
0.00984834
0.0118589
0.0085849
0.00462254
0.00635141
0.00805437
0.0073157
0.00696394
0.00939844
0.00881745
0.00749854
0.0149913
0.00688995
0.0250948
0.00401167
0.00358829
0.0111322
0.00478595
0.011519
0.00927527
0.00608393
0.00948531
0.00931732
0.0102472
0.00937866
0.0092033
0.00937885
0.0101704
0.00880653
0.0105297
0.00726885
0.00967416
0.00953681
0.00823242
0.009628
0.00899386
0.00931173
0.00924246
0.0098701
0.0100112
0.00884154
0.00789407
0.00987511
0.00923181
0.00940643
0.00815175
0.00621837
0.00857807
0.00739295
0.00928878
0.010974
0.0150115
0.00560698
0.00852338
0.00768335
0.00716671
0.00502888
0.00996574
0.0125749
0.00528181
0.0042726
0.0110816
0.00996465
0.00809589
0.00718641
0.00944157
0.0011089
0.00646458
0.0110743
0.00759478
0.0107417
0.00994857
0.00837455
0.0112685
0.0109988
0.00579919
0.00786059
0.00163552
0.00694202
0.00674629
0.00067937
0.00710844
0.00525733
0.00211822
0.00448483
0.0101499
0.0118914
0.0123816
0.00777953
0.00715831
0.00545581
0.0133043
0.0120751
0.010598
0.0040937
0.0142865
0.00330116
0.00805832
0.00815666
0.00298351
0.00445368
0.00806378
0.00606968
0.00404932
0.00779164
0.00673104
0.0148847
0.0104099
0.0127439
0.00604882
0.00415107
0.0120129
0.010086
0.0089844
0.00335558
0.00827427
0.0111792
0.0145089
0.00756721
0.015348
0.0125617
0.0158736
0.0109183
0.00890869
0.00823668
0.00956458
0.00963433
0.00779207
0.00941586
0.00849601
0.00844131
0.00934642
0.00972679
0.0097463
0.00856088
0.00981725
0.0094636
0.003864
0.0093153
0.00529885
0.00769613
0.00915843
0.00915554
0.00624632
0.0065535
0.0101685
0.00996378
0.0104244
0.010029
0.0142764
0.0101231
0.0112407
0.00715683
0.0053205
0.00545485
0.0124518
0.0106429
0.00941405
0.00694071
0.00418094
0.00604937
0.0109178
-0.000872916
0.00439677
0.0091008
0.00867684
0.010466
0.0053226
0.00858135
0.0110829
0.00570341
0.00487094
0.0110692
0.00953542
0.00966846
0.010175
0.008766
0.0098708
0.00571671
0.00905908
0.0138725
0.0111469
0.0113524
0.00846469
0.00762987
0.0143685
0.00420459
0.00391645
0.0141702
0.0148584
0.0142486
0.010483
0.0111021
0.00937899
0.0104908
0.0101063
0.0160079
0.0151496
0.00544004
0.0123725
0.0123409
0.0125331
0.0112217
0.0124433
0.0121577
0.0122561
0.0120873
0.00880017
0.0116494
0.0119056
0.0116956
0.0120713
0.0121514
0.0126679
0.0128078
0.0127158
0.0124493
0.0131279
0.00761094
0.0119626
0.00698628
0.011605
0.0127094
0.0018967
0.00303296
0.00483054
-0.000479364
0.0138696
0.00813102
0.00933897
0.0116591
0.0115163
0.0135352
0.0108803
0.0121099
0.0133096
0.0156091
0.00595044
0.0125566
0.0117895
0.0104584
0.0114842
0.01166
0.00951572
0.00247763
0.00533335
0.00839349
0.00696303
0.00645994
0.00928881
0.00803052
0.00692499
0.00862613
0.0101509
0.00170192
0.00839201
0.00265837
0.0176217
0.00443976
0.0140912
0.00500803
0.00884735
0.00735464
0.00575526
0.0122124
0.00229386
0.00384595
0.00903579
0.00318396
0.00933098
0.00598172
0.00754219
0.00561705
0.00961892
0.0117611
0.0119486
0.00849242
0.00868406
0.006254
0.00472063
0.00658947
0.00164066
0.00691397
0.00907942
0.00947455
0.0126488
0.0112473
0.00801489
0.00782653
0.00799838
0.0131345
0.0120467
0.00686388
0.00993944
0.00724555
0.011139
0.00765105
0.0122781
0.010843
0.0124133
0.00891512
0.00515807
0.00791553
0.00996767
0.00923389
0.00261866
0.00618085
0.00692142
0.0108624
0.004075
-0.00146543
0.0108243
0.00417999
0.00950809
0.00779093
0.0110482
0.00384707
0.00733212
0.0106596
0.0102744
0.0118467
0.013009
0.0138
0.0124855
0.0129277
0.00712839
0.0110332
0.00953658
0.00901596
0.00300798
0.00263214
0.000589673
0.00786977
0.00849742
0.00522087
0.00535332
0.00379104
0.00260943
0.0119121
0.0151098
0.00643405
0.00889555
0.00207576
0.00605205
0.00389711
0.00568435
0.0104187
0.0135786
0.0101113
0.0153203
0.0107334
0.00942516
0.00133692
0.00964333
0.00940982
0.014978
0.00694794
0.00992799
0.00436304
0.0117728
0.0107842
0.00826972
0.0108902
0.00702318
0.0104345
0.0105623
0.00632052
0.0151003
0.0108414
SCALARS CoVolArea double 1
LOOKUP_TABLE default
834.699
826.359
758.254
681.366
793.467
815.172
655.726
790.16
702.943
697.651
689.032
716.226
971.985
1076.32
1148.91
1162.12
1165.48
1065.35
1061.45
1120.39
999.717
867.261
1075.09
993.145
1126.21
905.018
1028.58
1102.62
751.519
957.505
956.616
1053.78
978.72
1112.53
981.52
949.814
1191.37
981.175
1021.53
962.669
1196.82
920.344
1008.29
1175.05
1090.26
914.142
1098.08
981.649
1080.45
1180.89
1082.71
1237.22
1143.07
1095.06
1204.31
1127.21
1238.84
1072.95
1167.62
1022.09
1035.59
1168.06
972.39
1135.03
973.626
1062.61
1040.65
1033.26
1015.19
972.156
1000.04
954.388
1006.03
1023.53
1003.98
1098.1
836.811
1158.72
1056.72
1038.9
1146.07
915.211
1121.18
899.444
1009.32
1027.54
1061.27
1005.7
1063.25
1079.73
975.273
1026.06
991.099
933.707
1336.17
938.794
929.81
848.643
1003.91
932.682
908.854
949.946
874.878
992.629
1023.26
1020.48
999.873
1011.15
1055.12
961.055
994.805
954.239
928.261
1147.56
989.69
1037.66
983.475
1081.27
1056.43
1103.1
949.995
1161.81
1058.69
1016.37
1022.08
1123.41
1095.66
977.589
1145.36
958.362
962.728
1143.66
1051.72
1181.21
1101.57
1029.75
742.533
836.952
1124.19
851.632
1050.8
938.695
1014.74
1010.34
1183.07
978.529
917.018
1124.75
979.419
1020.32
1131.48
1160.83
1033.51
1167.98
1011.23
1109.5
1028.35
1007.84
976.094
1002.62
981.388
1013.1
1013.9
1071.13
1052.29
1104.93
1050.36
975.199
1082.1
1092.63
1188.11
867.128
969.497
888.618
1119.67
998.146
944.883
902.871
980.982
1044.64
1028.04
1072
1032.41
1181.03
1079.29
1069.39
1068.7
1083.25
1161.62
1263.06
1282.94
1313.93
1138.8
1071.98
1185.96
1111.2
1121.62
1156.67
1226.21
1028.26
1116.67
1203.31
1121.21
1091.1
1103.03
1175.37
1044.51
1109.73
1044.09
1221.86
1140.31
1114.08
1075.27
1099.24
1197.82
1350.6
1364.06
1393.59
1068.4
1026.32
1213.07
1090.79
1008.34
1032.03
1117.89
1010.49
1078.13
1119.4
1054.18
1016.21
1102.66
1210.71
961.337
1013.97
952.958
1108.11
1018.07
969.104
972.139
1016.09
1103.44
1324.16
1271.1
1278.78
1050.26
1029.29
1080.85
1011.04
986.857
1008.4
1037.61
988.996
976.329
1033.2
955.647
1037.99
945.35
1055.26
930.032
967
904.919
992.024
933.029
913.164
1000.3
948.741
1040.33
1161.61
1118.19
1126.32
1027.66
1029.95
998.383
974.781
976.474
906.501
996.862
1058.71
966.348
979.772
936.668
982.262
979.361
879.361
945.127
998.119
725.851
992.721
1074.29
1093.68
1206.41
1076.01
1079.47
1051.88
1177.42
1076.51
987.661
1046.56
1105.54
1011.81
1048.88
1130.6
1033.99
1038.04
1069.44
1175.55
880.501
931.709
856.842
1081.88
973.836
904.166
939.721
985.766
1124.57
1290.14
1266.98
1262.53
1082.01
1043.33
1077.3
1053.45
888.116
968.843
923.734
935.123
930.78
1121.76
980.266
1085.71
901.019
994.609
982.087
1070.45
958.797
951.568
1033.5
926.633
995.008
1087.33
1166.47
1107.58
1167.2
1072.18
891.935
926.617
852.549
765.725
1007.63
963.629
1173.06
852.705
985.359
1177.56
1135.24
1081.97
1156.62
1128.06
916.302
901.073
892.427
1114.33
931.621
997.405
775.556
827.499
907.827
1239.28
1135.04
1176.81
960.375
877.754
1111.47
996.524
903.666
980.589
1059.09
979.211
1014.83
817.238
886.18
774.275
1035.23
1132.38
835.708
972.945
899.141
1078.88
968.658
883.878
834.892
958.494
837.086
1044.91
944.573
1067.8
964.292
969.968
1058.34
953.137
988.014
940.046
1007.37
1019.92
1031.05
1019.21
988.592
950.491
1009.3
1080.09
925.899
937.025
899.04
996.718
912.169
953.741
931.909
930.201
986.614
1157.18
1117.71
1118.17
824.037
954.524
920.122
1104.76
1036.47
1022.46
930.911
969.137
1059.67
923.022
1121.12
984.393
1059.73
1086.72
1072.3
916.456
995.993
955.62
1048.96
1007.13
935.845
1102.26
1050.12
959.464
975.083
946.6
1005.3
1186.2
1134.9
1274.66
1062.79
928.948
1081.36
1049.59
1106.42
1113.93
1155.38
1057.19
1046.17
973.389
883.096
892.59
940.221
1033.43
1023.16
1069.27
983.061
1120.39
1056.26
1130.46
928.728
997.824
1053.36
1243.16
1215.91
1248.79
993.785
898.337
1245.14
1062.08
899.366
989.737
1015.52
944.671
1041.64
1015.23
978.788
904.186
1091.65
1261.02
865.195
1137.45
887.363
1088.63
1199.75
1084.34
1069.5
1216.79
1082.82
1347.41
1236.6
1224.68
897.505
811.778
1057.59
870.417
795.395
781.105
1043.55
814.501
876.697
924.845
859.37
862.464
1019.02
1195.66
867.298
881.821
894.246
1167.83
884.899
1023.79
919.654
866.662
924.05
1367.5
1240.12
1333.3
788.218
1082.37
764.536
922.398
1064.51
913.706
986.076
972.254
1063.6
915.886
1016.79
1276.14
991.278
906.486
1018.01
976.993
882.819
867.223
871.898
1257.19
1122.41
1159.76
1063.95
1164.41
1083.62
1052.72
1001.08
901.154
980.825
873.768
943.105
1104.89
1064.02
956.736
968.897
1036.72
1068.02
1188.14
1112.39
1132.25
948.362
1041.31
929.928
970.75
1121.52
1044
1034.84
992.371
1072.98
1099.49
1080.94
1048.5
1033.37
1114.43
1075.6
1312.52
1178.9
1236.18
926.717
1145.22
1068.74
923.755
974.097
929.716
986.81
818.747
889.011
1018.6
897.631
937.988
866.721
969.906
1184.93
1315.51
1338.36
1279.13
986.133
1065.61
989.006
1012.94
1113.53
945.38
847.563
958.907
948.228
1087.35
1007.99
1125.08
1024.53
898.978
826.974
1087.98
965.187
1085.72
932.335
1098.23
945.812
878.65
936.964
954.843
968.038
961.372
913.712
1008.17
1067.98
1010.68
1025.44
994.098
967.357
1137.89
1049.81
1072.21
SCALARS SignedDistance double 1
LOOKUP_TABLE default
92.8144
93.1863
94.2379
95.8674
110.335
94.0088
103.065
106.771
120.055
114.339
118.364
111.853
100.041
99.6991
85.9238
86.1556
86.267
96.4648
96.221
112.697
109.533
119.629
99.3937
100.489
116.547
106.546
120.299
113.412
101.609
111.719
110.543
114.173
114.317
116.141
101.444
100.676
91.7175
101.54
104.842
114.324
121.778
119.476
94.0999
91.0606
87.7863
106.795
99.7768
106.159
88.6244
93.3148
96.6274
85.4527
88.1661
88.0159
83.917
88.1696
85.3826
88.5629
89.5589
92.9939
93.3515
89.7816
101.705
96.3453
101.582
100.802
99.8525
109.107
105.09
117.174
111.854
117.907
104.467
121.963
115.804
114.272
111.271
92.081
96.2847
96.0638
92.1406
108.522
100.027
107.442
101.226
97.6457
113.904
109.109
112.959
110.823
111.253
119.006
114.998
120.104
123.863
107.178
116.879
106.92
114.441
116.957
105.479
108.544
105.245
109.462
108.666
105.103
108.378
99.8282
100.975
119.083
112.292
117.795
109.922
107.549
97.3262
115.426
114.585
119.444
107.961
107.96
111.212
86.3053
84.9455
109.609
98.4381
84.7667
83.2273
94.3326
88.603
97.1323
92.7935
87.7877
102.983
102.533
103.019
116.638
113.213
106.56
108.734
120.367
116.126
119.355
116.967
122.574
124.397
119.55
114.553
110.935
109.244
102.963
107.293
107.745
113.454
107.311
110.473
114.092
116.349
111.106
109.488
114.202
114.881
104.058
92.6476
90.1859
90.3822
94.3646
91.8498
96.3818
86.4229
89.0506
88.44
109.969
105.971
109.961
99.8877
102.992
102.837
105.483
103.724
99.6331
90.9228
92.9172
95.4306
89.2207
90.9208
86.7915
98.0335
95.1219
96.9391
94.8848
95.9962
91.6911
88.6952
90.3585
84.1607
85.4264
88.0856
87.3301
86.1223
90.9882
88.767
84.5135
86.2462
86.6373
85.9239
84.0225
90.4257
88.8913
91.8233
86.1206
87.3327
88.0618
86.8237
85.6272
84.537
82.531
83.179
85.9775
89.7607
92.7069
88.8044
87.8864
94.2897
90.8928
92.6245
92.9995
90.5446
92.998
91.5321
94.5965
88.7159
88.8166
105.006
102.359
105.165
95.5095
98.9539
98.6385
98.7235
98.9738
95.6113
89.6268
92.3361
92.3231
96.075
95.9725
97.8052
96.5157
104.618
100.383
105.13
107.157
105.856
110.216
107.834
111.185
102.779
100.264
119.019
116.398
117.053
110.819
114.382
114.152
114.462
113.728
112.083
102.792
108.445
106.645
97.0677
106.701
101.636
98.6344
103.14
119.852
120.046
116.913
118.37
121.375
116.807
112.901
111.996
110.848
109.66
110.11
116.703
112.8
117.321
110.835
115.035
111.894
92.5336
94.9805
88.5474
89.895
97.2209
93.4874
95.8119
94.4678
91.4423
96.7176
93.6522
97.5874
89.3494
88.3603
110.955
108.221
111.141
100.332
103.822
104.791
103.086
103.683
99.7735
91.6158
96.2766
95.9976
96.4559
96.1371
100.758
98.7376
101.184
98.9209
103.684
112.939
111.159
112.55
111.799
115.552
107.985
105.174
113.805
114.394
110.407
108.62
111.451
110.018
113.521
114.33
114.05
106.155
109.849
107.245
112.825
112.868
118.962
114.307
117.402
115.197
118.826
119.579
121.277
122.594
121.857
118.499
123.058
122.518
100.811
105.48
98.7749
115.496
110.514
110.438
115.079
111.618
117.399
123.445
127.057
124.499
116.828
117.743
115.954
116.467
114.251
115.519
114.098
107.593
108.384
104.308
106.368
103.863
110.705
113.255
103.343
107.044
105.769
111.623
109.776
108.113
104.531
108.27
104.436
111.593
106.041
111.579
105.273
106.731
100.305
102.667
111.209
107.383
109.958
95.97
96.1481
105.582
100.492
104.853
96.6574
97.9429
119.031
118.237
120.456
112.575
115.141
117.432
114.808
114.405
111.948
102.957
107.209
108.78
103.678
103.907
96.5445
109.691
108.257
110.718
98.5443
104.287
105.422
114.848
118.216
115.996
115.642
119.545
116.173
119.639
119.739
114.379
108.812
108.237
110.401
107.206
107.565
105.415
113.415
109.356
111.361
109.751
110.442
107.331
90.4084
89.318
93.0319
90.8432
86.9158
86.2123
84.5425
108.732
110.364
97.9156
105.425
106.094
105.389
98.9646
88.6524
87.7041
93.5154
81.5923
83.1802
87.5717
96.6071
87.9334
91.0222
91.1534
89.5091
83.2708
89.0802
95.1138
85.3712
85.4687
100.654
91.7978
95.9109
91.6772
86.4035
93.3395
88.3582
96.4144
83.5771
85.4288
101.962
102.593
101.961
102.171
105.009
107.136
106.85
105.082
102.127
89.067
95.3775
95.3361
104.127
103.212
109.531
106.735
120.939
114.711
122.893
103.563
103.612
110.874
107.119
110.506
105.399
110.377
121.41
119.886
120.063
117.846
118.465
119.801
116.707
117.72
115.153
114.555
112.778
116.946
110.46
120.159
118.254
113.549
115.105
121.022
122.664
121.746
123.997
122.101
122.355
124.348
115.554
114.794
121.253
119.149
116.773
115.979
117.666
125.686
122.465
123.389
114.536
113.718
114.029
111.924
109.271
111.817
104.494
108.034
112.3
112.783
96.6889
104.322
99.8625
98.2345
100.175
109.952
106.353
107.914
101.054
104.569
102.366
107.501
109.121
108.148
111.237
109.316
107.987
107.952
114.771
112.711
117.3
117.406
115.329
107.121
109.822
108.718
103.05
109.593
105.04
105.488
108.377
99.0563
117.683
108.739
101.449
104.763
118.606
112.584
115.719
117.125
116.886
113.216
115.815
110.485
118.544
115.685
117.998
118.213
117.512
107.589
105.945
109.699
111.65
113.069
108.657
114.383
111.309
106.809
105.52
113.639
108.194
113.314
112.079
116.073
115.051
110.646
109.105
121.26
114.777
116.655
120.597
118.432
97.3245
103.397
99.8391
101.646
107.421
114.892
112.621
111.349
