# vtk DataFile Version 4.2
vtk output
ASCII
DATASET POLYDATA
POINTS 642 double
-82.3591 175.209 86.2515
141.727 175.295 85.2355
-79.5642 -216.406 80.777
139.627 -215.931 80.9404
30.6593 -126.33 244.36
31.4679 106.032 267.409
30.5392 -128.586 -90.9228
31.0591 93.8249 -84.9045
181.368 -13.9247 -13.4566
191.228 -5.1502 187.728
-121.716 -15.9223 -15.9583
-133.092 -6.50412 186.151
-138.919 97.6167 150.165
-72.6452 54.1442 253.088
-37.2479 173.377 197.211
98.6327 172.51 197.204
30.5877 214.938 86.1208
94.8116 162.929 -20.5201
-34.0096 163.476 -20.5146
-61.3893 48.9776 -72.3251
-127.363 94.1115 25.1475
-155.725 -13.2711 95.414
133.253 55.0515 253.945
198.448 96.2139 149.772
-60.7687 -77.5164 234.889
29.4793 -5.39152 289.038
-113.239 -136.37 30.8078
-118.772 -126.259 140.701
29.325 -18.2895 -126.502
-60.0119 -85.1625 -76.8311
188.542 94.7552 25.7747
122.338 51.1976 -72.1215
179.848 -123.055 141.931
121.541 -77.6144 235.219
89.8707 -205.386 180.22
-30.1191 -209.238 181.743
29.8868 -253.772 87.2047
-34.4467 -205.705 -13.0053
92.0954 -203.556 -10.9102
117.822 -85.1725 -74.6716
167.231 -129.617 30.831
214.025 -12.9136 88.7836
-118.159 142.777 120.687
-97.1329 141.595 177.206
-65.2651 182.622 143.356
-109.673 24.1744 225.031
-113.13 82.0569 206.771
-140.29 45.925 173.181
-4.02478 145.703 240.1
-60.1017 119.992 232.803
-22.2242 84.1996 267.517
-6.25251 205.312 146.673
-30.1866 203.173 84.4995
65.8708 144.913 241.005
29.9591 184.429 204.289
91.2959 203.214 85.2421
67.3468 205.367 146.195
125.296 182.541 143.431
-5.84742 199.805 26.8191
-61.5514 178.265 29.6988
122.659 177.183 29.769
66.0448 199.57 26.7008
-2.65486 134.517 -59.2982
30.5206 172.482 -25.9607
63.6091 134.28 -59.4849
-88.8381 135.757 -2.84851
-112.187 139.487 53.6454
-16.9962 74.7654 -86.3892
-53.4422 112.15 -53.9493
-127.839 43.294 2.96742
-100.235 78.2814 -29.3786
-97.1736 17.6156 -47.6836
-142.644 101.676 89.1774
-140.688 -9.96636 34.5324
-148.507 47.1897 56.3095
-151.077 49.4528 120.828
-155.19 -13.7174 136.959
156.698 141.215 178.083
176.457 140.826 121.202
84.7359 85.7321 268.857
121.471 120.025 234.991
200.94 46.2086 172.865
172.596 81.3398 207.537
169.58 24.7997 225.75
-21.0972 22.9495 283.51
30.9659 46.5143 287.859
-102.691 -38.0657 216.697
-71.6617 -4.72178 254.856
30.0661 -64.0778 269.548
-18.1201 -36.984 272.558
-18.3529 -108.306 246.947
-147.067 -63.5683 117.885
-132.266 -63.062 164.128
-121.325 -68.7973 -1.08814
-134.483 -72.5625 58.8346
-102.111 -180.559 109.675
-127.382 -138.047 79.8093
-105.962 -181.188 50.7993
-60.0091 -19.0489 -86.9579
-94.6888 -51.6988 -49.4985
29.9926 32.2135 -114.227
-13.4047 8.09105 -112.419
-16.679 -110.522 -92.1415
-14.2843 -46.4635 -111.517
29.7629 -71.868 -110.403
114.509 111.843 -54.1042
78.7674 75.6508 -86.876
173.188 139.012 52.0556
150.118 135.346 -2.81398
156.351 20.8442 -45.848
160.47 78.3543 -29.3206
188.282 42.8918 2.99546
159.872 -179.553 106.459
139.576 -170.759 161.444
118.265 -217.9 133.283
161.775 -36.9135 217.801
157.91 -108.23 193.374
187.386 -66.4113 162.981
59.9972 -172.669 213.289
110.869 -141.991 214.262
79.3851 -108.504 246.887
62.823 -243.86 139.449
92.391 -245.006 81.8205
-0.135925 -176.344 211.45
27.4202 -218.063 189.045
-30.9518 -245.097 84.001
-5.88668 -247.627 140.454
-58.9832 -221.544 136.158
67.5471 -240.604 28.0452
120.956 -218.102 32.6293
-62.2533 -220.406 29.7103
-8.92995 -241.836 27.1907
60.5109 -162.189 -61.771
29.5668 -211.72 -16.9193
-1.00512 -163.162 -60.6902
141.078 -176.878 8.75661
163.176 -181.268 54.3714
76.0114 -110.932 -91.7425
105.878 -138.991 -56.411
181.376 -68.2072 0.853968
151.796 -102.788 -31.417
153.646 -50.5895 -46.6987
181.869 -136.056 83.9537
200.887 -7.75086 35.9646
196.135 -65.9966 59.8865
204.119 -65.4966 115.24
210.272 -9.70724 137.737
79.3483 -38.0153 271.205
133.641 -4.07316 254.919
82.7304 24.9395 282.52
-79.6468 -175.65 160.437
-50.0258 -143.898 213.164
-97.5804 -108.926 193.919
-47.8341 -141.237 -55.0111
-84.5044 -179.035 6.07204
-93.1363 -104.638 -33.2201
119.141 -18.2584 -84.3319
72.9194 -46.7979 -109.58
72.8428 9.40615 -110.769
212.173 49.4934 121.593
208.847 46.7078 57.7035
203.273 99.6213 86.4844
-101.738 160.682 104.197
-94.2638 164.205 132.833
-75.6896 180.382 114.611
-121.111 120.517 164.056
-109.894 143.401 149.501
-130.425 121.429 136.001
-52.2826 180.359 170.972
-82.3639 163.888 161.859
-68.4468 159.721 188.43
-123.458 9.31411 206.707
-127.165 35.061 200.619
-138.921 16.993 182.174
-94.1224 69.0872 231.858
-111.783 53.2271 217.641
-92.9012 39.0363 240.925
-141.392 74.4555 162.086
-128.766 66.2142 190.187
-128.672 91.4251 179.26
13.9529 126.348 256.443
-14.3668 116.962 256.05
4.51828 96.6537 269.348
-49.7803 148.771 217.143
-32.9956 134.887 237.9
-20.8675 161.66 220.471
-48.3252 69.8425 262
-42.2837 103.382 251.715
-67.6179 87.9829 244.554
-107.832 112.899 193.893
-89.2435 101.831 221.476
-80.4039 133.021 207.029
-48.4555 195.555 116.378
-58.1014 190.749 85.0582
-22.7889 192.612 173.771
-36.4105 196.614 146.645
0.337795 210.897 85.4044
-17.6546 206.281 116.742
12.7672 213.122 115.591
48.3203 125.986 256.92
30.5717 147.746 241.743
65.3306 181.128 202.452
48.4617 167.065 223.276
82.5297 160.591 220.972
12.0981 167.766 223.34
-4.48972 181.88 202.767
118.641 191.021 85.4055
108.982 195.719 116.169
134.556 180.344 114.43
48.3755 213.133 115.515
78.7736 206.306 116.595
60.6263 210.937 85.7107
113.18 179.898 170.749
97.3537 196.568 146.244
83.9326 192.217 173.162
11.5123 198.751 177.887
48.8817 198.218 177.403
30.3748 207.455 146.747
-47.0078 194.241 54.6678
-72.7435 178.945 57.1331
11.9871 208.854 55.7109
-18.3477 204.585 54.2777
-48.7795 172.966 3.88276
-34.4597 191.56 27.2137
-20.9356 184.198 1.90525
133.573 178.2 57.4741
107.809 193.341 55.6903
81.2973 183.707 1.77484
94.8449 190.573 27.2277
109.714 172.103 3.75223
78.5874 203.898 54.9471
48.6476 208.936 55.8252
14.3477 115.363 -73.3819
30.6108 136.275 -60.0664
47.1 115.157 -73.6568
-3.20135 170.593 -25.0513
12.8514 155.499 -43.8104
-18.3743 150.39 -41.8532
79.1716 150.072 -41.8817
48.1104 155.481 -43.8649
63.8725 170.465 -25.0795
30.4399 202.39 25.5778
48.3932 189.473 -1.44469
12.4037 189.466 -1.36288
-88.4643 160.852 39.4419
-98.4911 159.126 70.0136
-63.0182 151.802 -12.9198
-76.628 158.217 11.5882
-121.69 117.836 38.5865
-101.598 139.077 23.1481
-110.166 116.295 9.82344
6.48985 84.9756 -87.9109
-12.0225 107.064 -73.7777
-58.462 83.1638 -63.8806
-36.956 95.9705 -70.6247
-39.319 63.029 -80.9017
-29.3919 124.961 -57.9547
-44.9628 139.103 -39.4216
-124.566 12.3243 -7.47015
-114.078 31.7719 -24.8237
-110.585 0.379552 -32.4219
-115.364 87.6581 -4.08839
-115.469 62.0921 -14.1053
-129.3 69.9055 13.7028
-81.6619 33.4366 -61.2007
-99.3994 48.9204 -39.5275
-82.2909 65.2038 -51.8552
-72.554 125.583 -30.4412
-78.9649 96.6891 -43.3473
-96.6946 107.788 -18.2094
-118.296 142.424 88.2787
-137.253 98.9444 57.0339
-129.966 120.954 71.9451
-133.094 122.567 105.188
-143.508 101.418 120.425
-131.805 -13.88 5.71089
-136.357 16.6069 19.1175
-152.621 16.4093 73.0069
-147.172 19.1338 47.2275
-150.045 -9.31989 65.4819
-140.221 46.6475 31.1677
-140.907 71.181 41.6384
-148.093 16.0977 157.373
-145.707 -9.84103 162.415
-148.612 76.1295 136.108
-148.478 49.7611 147.19
-159.925 -15.2801 116.691
-153.913 12.519 130.443
-154.657 11.5412 105.803
-147.992 75.9197 72.2904
-151.649 49.1024 87.8134
-149.79 78.1216 105.658
152.721 163.422 133.64
159.547 159.503 103.264
129.383 159.172 189.066
142.244 163.48 162.439
189.6 119.666 136.554
168.683 142.375 150.39
179.998 119.682 164.355
58.625 96.9589 270.294
77.203 116.558 257.664
128.14 89.2996 246.266
104.367 104.076 254.069
109.473 71.6707 262.92
95.314 134.148 239.634
111.54 148.028 218.362
197.233 19.7975 181.971
187.062 36.4538 200.772
182.133 10.1659 207.262
187.702 90.2788 179.293
189.467 64.251 190.674
201.794 71.849 161.674
153.648 39.0729 241.555
172.506 52.7247 218.383
154.225 69.306 232.807
140.94 132.892 208.433
149.01 102.324 223.004
166.937 112.822 194.761
3.79207 64.9871 280.67
31.4146 77.45 278.382
-48.1681 38.647 270.063
-22.9152 51.5667 277.39
30.1276 19.0105 290.927
3.67085 33.5813 288.359
4.21154 8.56957 289.981
-119.625 -21.7974 202.005
-107.201 -4.77056 223.47
-67.6316 -37.4352 248.093
-87.8587 -21.1071 237.636
-82.4904 -57.4747 227.979
-91.4734 10.4816 242.302
-74.0937 23.604 257.277
30.6016 -99.7351 255.402
6.08595 -86.9499 258.01
5.43374 -118.619 247.64
5.1613 -20.431 283.629
5.84232 -49.4975 273.792
29.5294 -32.2003 281.124
-40.098 -95.4732 243.466
-18.7847 -72.165 257.493
-41.433 -56.8945 255.707
-48.2103 9.40174 271.588
-45.3373 -21.1892 266.384
-20.087 -5.52907 281.266
-146.633 -36.4681 150.744
-135.032 -34.6773 175.143
-154.601 -34.523 109.238
-154.136 -35.5437 126.513
-124.195 -94.9396 154.036
-141.944 -63.5225 140.1
-131.499 -95.2889 127.879
-122.289 -41.0248 -9.59479
-131.706 -41.0032 14.1683
-125.239 -106.807 43.6362
-129.371 -71.0014 24.6374
-118.163 -98.7649 12.7202
-139.718 -37.438 45.6381
-148.629 -35.0752 79.7013
-92.5408 -200.33 95.8074
-107.122 -182.118 79.0191
-94.5504 -200.745 64.9793
-124.178 -134.241 108.783
-116.495 -159.181 93.2735
-110.609 -155.159 123.583
-111.365 -161.214 40.3782
-117.492 -160.947 65.2646
-123.472 -140.079 57.3246
-142.371 -69.6934 92.4249
-132.391 -110.966 71.8401
-132.765 -103.806 96.2585
-96.8765 -17.4521 -50.5894
-109.968 -32.7962 -32.9917
-60.1655 10.9158 -80.5095
-79.3732 -1.8525 -66.7262
-78.294 -69.626 -64.2987
-78.6445 -35.1421 -68.366
-60.5566 -49.8761 -81.7531
30.5847 63.4899 -99.7969
8.31809 51.4867 -102.722
8.15547 -5.2943 -122.815
8.67364 19.5061 -115.997
29.4921 4.95896 -122.546
-14.5871 39.325 -100.35
-35.5932 26.8263 -93.6401
6.66697 -120.958 -93.6589
5.40608 -94.0918 -103.887
30.5357 -105.674 -101.431
-36.6386 -67.665 -94.0382
-16.3392 -81.0877 -101.411
-38.9648 -98.874 -86.4437
29.3172 -39.4669 -123.005
6.45535 -57.5128 -114.419
8.23652 -30.5879 -122.952
-37.4003 -5.98996 -103.108
-14.9888 -18.0512 -116.847
-37.888 -31.5934 -102.598
73.1023 106.574 -74.3913
55.303 85.4019 -88.2602
[...]
POINT_DATA 642
SCALARS Mean_Curvature double 1
LOOKUP_TABLE default
0.00862074
0.00963854
0.0142466
0.0204558
0.00754905
0.00862748
0.011256
0.00442419
0.0129271
0.00939917
0.0128707
0.00371823
0.0139505
0.00952111
0.0111389
0.0102843
0.0138705
0.0100675
0.0105312
0.00629178
0.00836851
0.00972446
0.00888035
0.0131549
-0.00314387
0.0131725
0.000153714
0.00935741
0.0262468
0.0119508
0.0102341
0.00897526
0.0121258
-0.00135606
0.0150868
0.0161378
0.00332607
0.0163014
0.0132259
0.00987953
-0.00582932
0.0110642
0.0127288
0.0103956
0.0106647
0.0118352
0.0109351
0.00701956
0.0108267
0.00953985
0.00758951
0.0109997
0.00816291
0.0108018
0.0116594
0.00932973
0.0115474
0.0114814
0.0117394
0.0108057
0.0103075
0.0122678
0.0115522
0.00778462
0.011488
0.0113965
0.00805636
0.00721985
0.0117589
0.00579052
0.00965031
0.00691826
0.0128494
0.0030297
0.0102379
0.0019156
0.0150312
0.0107842
0.00987008
0.0104053
0.0113483
0.00980642
0.00898103
0.0114822
0.014577
0.0106586
0.00666214
0.00849218
0.00660432
0.00819065
0.0114519
0.0167726
0.00844914
0.00846927
-0.00344836
0.0093823
0.0179974
0.0173929
0.0128832
0.00652303
0.0157747
0.0119308
0.0130155
0.00968298
0.000450409
0.0116788
0.00955822
0.00979554
0.0115794
0.00504537
0.00837825
0.00776136
0.00668635
0.00486238
0.0122505
0.00733338
0.0127753
0.000896208
0.00421388
0.00940654
0.0117995
0.0123014
0.0157196
0.00243999
0.0160194
0.00803198
0.0164723
0.0141471
0.0146354
0.0133036
0.0145394
0.0156658
0.012114
0.00705392
0.0104755
0.0152512
0.0239675
0.014481
0.00980733
0.0112855
0.00987173
0.00581565
0.0101706
0.00204391
-0.00315667
0.00961942
0.0076554
0.00788956
0.0101205
0.0127841
0.00445448
0.00828677
0.0136625
0.00862657
0.0147553
0.00976275
0.0112404
0.00837935
0.0110913
0.00428811
0.00692073
0.0125322
0.010419
0.0111628
0.00934785
0.0111826
0.0108138
0.0117276
0.010619
0.00977359
0.0102601
0.0124191
0.00918123
0.0145363
0.0095781
0.00772058
0.0119263
0.0126064
0.0086609
0.0133609
0.0113637
0.0108077
0.00869665
0.010364
0.010208
0.011196
0.00784388
0.00852045
0.00834057
0.0107724
0.00970318
0.0103799
0.00944326
0.00746439
0.0119253
0.0120088
0.00735965
0.00710988
0.0118978
0.0107342
0.00778933
0.0112229
0.00968104
0.0102429
0.0114951
0.0124124
0.00971359
0.010426
0.00859722
0.0119391
0.00729297
0.00764569
0.0104074
0.0125263
0.0116466
0.0138624
0.012145
0.00543826
0.0131317
0.0106201
0.0071419
0.0129866
0.0104978
0.0118077
0.0108582
0.0102885
0.0115992
0.0106672
0.0103872
0.0102863
0.0108578
0.00800686
0.00859823
0.00688151
0.00888943
0.0112771
0.0100037
0.0109899
0.0105924
0.0103542
0.0114765
0.0104526
0.0119599
0.0113194
0.010178
0.00691313
0.0107201
0.0111213
0.00862494
0.0109461
0.0106109
0.00823968
0.00959507
0.00870128
0.0108252
0.00536809
0.0112535
0.010911
0.00368998
0.0104719
0.00647659
0.0111539
0.00724465
0.00827029
0.0102313
0.00762876
0.00714121
0.0112474
0.011334
0.0113395
0.0120497
0.0105633
0.00974326
0.0113532
0.0154778
0.00990403
0.00389088
0.00792344
0.00917709
0.00757746
0.0068019
0.010559
0.00846213
0.00935513
0.0161991
0.00841735
0.0341195
0.00586302
0.0018797
0.0127977
0.00427008
0.0107435
0.0100943
0.00599129
0.0107607
0.0104831
0.0121749
0.0106301
0.0103542
0.0101311
0.0117722
0.00928473
0.0121839
0.00743509
0.0110264
0.0108617
0.00925422
0.0101563
0.00981099
0.0102238
0.0109694
0.0115367
0.0119341
0.00996479
0.00866823
0.0113221
0.00997365
0.0104155
0.00943999
0.00615137
0.00991612
0.00778598
0.010903
0.012903
0.018358
0.00531433
0.00881193
0.00826192
0.00738963
0.00620872
0.0108976
0.0145546
0.00571773
0.00284453
0.0131304
0.0107582
0.00919037
0.00717953
0.0119108
8.68482e-05
0.00755066
0.0122896
0.00797164
0.0115968
0.0110823
0.00938616
0.0106558
0.0157719
0.00515342
0.00903611
0.00124701
0.00750936
0.00698477
0.00112317
0.00724758
0.0060476
0.00156362
0.00372421
0.0117108
0.0132319
0.0154444
0.00920413
0.00737801
0.00548777
0.0132459
0.0140063
0.0136743
0.00403848
0.01326
0.00115643
0.00888889
0.00926468
0.00164692
0.00424934
0.00867552
0.00646462
0.00367572
0.00873341
0.0074139
0.0188151
0.0118832
0.015495
0.00650882
0.00373675
0.0143861
0.0123588
0.00971759
0.00226907
0.00897749
0.0132284
0.0174011
0.00883393
0.0194326
0.0146251
0.0206489
0.0122746
0.00974074
0.00956919
0.0108684
0.0110225
0.0086009
0.0104287
0.00873691
0.00911976
0.010577
0.0111809
0.0111198
0.00925631
0.0112899
0.0107815
0.0042565
0.00985389
0.00467477
0.00860858
0.0108194
0.00929145
0.00549556
0.00737536
0.0107953
0.011483
0.0119812
0.0111316
0.017802
0.0108118
0.0134173
0.00836181
0.00460602
0.00673456
0.0150832
0.0112237
0.00933208
0.00693634
0.00433732
0.00616886
0.0133146
-0.00454235
0.00543662
0.00951191
0.00934753
0.0123305
0.00598233
0.0101866
0.0131679
0.00449266
0.00559599
0.0121326
0.0115613
0.0111471
0.0116108
0.0102106
0.011546
0.0066388
0.0101995
0.0174181
0.0134646
0.0137983
0.0101518
0.00788784
0.0183138
0.00508904
0.00115371
0.0180644
0.0169957
0.01664
0.0106997
0.0132486
0.0108291
0.0117763
0.0121338
0.0205637
0.0184722
0.00533342
0.0149651
0.0149359
0.0154166
0.0130202
0.014956
0.014559
0.0148861
0.0146355
0.0105126
0.0138263
0.0139708
0.0139372
0.0145067
0.0147943
0.0153947
0.0158374
0.0156612
0.0151661
0.0160401
0.0090657
0.0143819
0.00767513
0.0138133
0.0144178
0.00134514
0.0019027
0.00386836
-0.00167382
0.0156735
0.0090835
0.0103172
0.013641
0.0139888
0.0175004
0.0114863
0.0143782
0.00947837
0.0211792
0.000598753
0.0153499
0.0143228
0.0121303
0.0136735
0.0136054
0.0112051
0.00242695
0.00497609
0.00916737
0.00754987
0.00781157
0.0104164
0.00879495
0.00722885
0.00927176
0.0114199
0.0014994
0.00904969
0.00375543
0.0231377
0.0048146
0.012291
0.00497291
0.0110936
0.00841345
0.00565947
0.0137171
0.000955783
0.00236132
0.0101663
0.00348863
0.0107318
0.00533162
0.00728847
0.00670499
0.010602
0.0142145
0.0146006
0.00847456
0.0104403
0.00461791
0.00337854
0.00781162
0.000567108
0.00751538
0.0094742
0.010224
0.0150702
0.0129598
0.00843926
0.00850075
0.00886049
0.0156201
0.0144858
0.00752643
0.0122047
0.00766821
0.0122845
0.00738524
0.0148638
0.0112
0.0141387
0.00809307
0.00594738
0.00952413
0.0112379
0.0104983
0.00339922
0.00388218
0.00769373
0.0131696
0.00256713
-0.00408619
0.0129715
0.00479038
0.0110946
0.00925795
0.0131256
0.00223113
0.00901372
0.0124557
0.0120459
0.0144761
0.0123737
0.0179551
0.0152788
0.0149572
0.0070853
0.0129
0.0103474
0.0099244
0.00396857
0.000392171
0.000634392
0.00901133
0.00956972
0.00563797
0.00510056
0.00367665
0.00152217
0.0152995
0.0188458
0.00737953
0.00858104
0.00105553
0.00648817
0.00356607
0.00603616
0.0119856
0.0165058
0.011027
0.0194347
0.0119886
0.0112871
0.000721206
0.0103296
0.0106239
0.0179526
0.00641861
0.00896363
0.00476231
0.012846
0.0128327
0.00927638
0.0129499
0.00740773
0.0122849
0.0131798
0.00581663
0.0171352
0.0111997
SCALARS CoVolArea double 1
LOOKUP_TABLE default
697.754
689.419
594.7
503.111
659.995
677.284
501.174
664.73
574.208
570.389
555.019
585.433
763.002
895.489
962.46
979.624
985.967
881.674
875.971
980.034
823.506
693.787
892.855
790.634
991.339
711.662
898.087
948.121
519.963
784.78
777.766
900.257
796.502
970.708
785.31
741.443
1022.09
787.454
842.1
797.748
1105.31
743.964
825.128
984.097
918.55
738.842
908.51
817.476
906.918
998.251
926.889
1048.58
982.559
923.129
1004.71
963.395
1049.92
898.902
972.537
844.183
861.599
973.698
801.376
947.733
802.769
864.878
876.342
882.642
819.821
835.437
819.338
805.718
798.466
898.721
827.283
953.934
637.978
965.797
892.253
870.595
951.357
742.308
935.845
721.357
797.577
851.44
935.495
823.97
927.326
913.59
812.52
836.132
842.633
783.304
1250.13
772.044
726.326
637.563
831.647
783.881
724.276
750.324
688.9
798.309
866.958
825.591
840.033
839.518
855.122
820.504
811.883
812.535
767.343
986.417
797.877
908.619
800.664
952.207
917.965
923.925
785.79
947.367
862.221
879.349
792.108
939.92
859.058
775.184
930.802
757.273
755.92
927.266
886.195
1018.17
945.724
849.898
523.817
644.308
953.607
690.72
875.229
795.082
837.621
892.698
1060.37
791.585
747.279
967.255
790.542
816.344
970.957
990.21
854.875
1004.15
823.533
939.725
864.431
822.39
782.637
841.856
801.399
800.564
843.213
893.741
887.965
905.058
870.42
788.027
908.973
918.472
1001.05
701.372
798.244
720.095
936.844
828.848
766.978
721.92
811.523
843.035
858.811
902.113
872.707
993.492
906.433
894.334
914.558
922.061
986.664
1045.7
1076.44
1104.4
976.344
910.084
987.748
935.643
960.512
994.894
1042.1
857.683
946.899
1010.99
949.259
920.8
926.184
974.74
876.672
939.648
881.607
1036.46
973.64
951.696
900.99
920.266
1003.22
1130.31
1147.34
1188.38
888.231
858.797
1032.43
914.067
834.442
847.785
923.844
840.312
902.102
926.535
876.527
844.748
930.417
1029.9
806.453
850.01
795.89
918.139
847.487
793.872
798.081
845.288
913.014
1112.17
1053.68
1063.01
879.671
867.463
887.854
832.435
821.861
834.249
847.786
836.564
808.697
860.694
788.433
901.516
765.528
860.559
790.685
815.96
753.218
809.056
777.168
760.063
859.156
790.758
871.371
941.063
907.808
908.198
851.979
837.693
822.184
785.633
760.439
763.238
867.071
896.502
819.934
851.431
789.256
798.549
811.042
712.487
743.252
840.625
522.9
824.248
917.868
880.063
1041.85
866.221
911.361
896.922
987.311
900.391
810.152
869.961
911.527
845.953
868.566
949.218
856.695
876.144
888.731
984.1
719.34
757.152
693.086
888.99
797.982
720.965
758.906
810.01
943.323
1074.38
1059.24
1051.01
917.744
886.406
883.465
883.365
694.467
778.748
709.662
791.128
771.046
970.794
830.627
965.231
725.723
794.581
838.829
933.98
797.61
761.437
889.996
768.952
847.332
952.084
1021.02
886.384
974.638
850.826
712.843
772.154
659.887
560.646
866.566
797.645
1023.93
696.41
848.235
1056.85
1026.43
957.696
1062.78
1008.13
724.251
707.98
688.595
952.611
757.317
851.758
594.108
625.766
726.216
1074.85
954.4
985.605
812.11
722.175
962.695
857.042
750.628
837.37
899.289
819.811
849.584
586.95
699.528
570.823
883.65
981.812
651.935
801.73
728.697
917.262
799.517
711.644
644.116
783.294
609.025
830.467
696.252
856.567
792.737
812.491
864.707
774.627
837.251
767.816
826.735
856.834
856.252
824.611
810.128
774.759
830.35
887.095
782.65
787.144
756.516
818.677
750.31
811.066
788.255
773.401
805.393
935.42
898.678
906.422
618.764
776.931
720.594
929.537
894.581
870.925
737.123
800.218
883.621
779.625
1007.36
850.989
897.027
970.619
948.324
762.296
858.325
764.48
909.944
840.501
773.231
936.014
894.652
796.344
823.558
772.465
821.218
978.328
919.885
1086.7
870.709
723.092
863.259
856.152
928.867
927.742
944.356
922.007
922.663
736.639
700.199
716.611
769.058
818.473
836.4
876.528
791.235
900.28
853.432
961.743
726.536
788.002
820.52
998.484
959.215
994.551
786.553
691.053
1061.23
864.383
703.671
785.916
796.797
744.7
841.275
790.288
767.273
695.971
899.653
1082.86
677.098
987.845
702.91
906.708
1077.33
941.743
925.102
1100
899.116
1124.58
1007.22
993.362
675.295
587.441
876.76
665.621
653.237
582.976
907.375
624.369
678.725
729.713
667.886
691.935
850.448
1045.13
716.856
724.619
744.939
1028.48
718.337
886.611
774.885
705.73
739.789
1200.39
1050.43
1162.75
580.542
950.883
584.018
754.901
886.681
774.317
854.842
811.029
960.04
780.028
887.555
1163.84
837.323
754.908
846.168
820.134
714.331
687.034
671.695
1093.14
929.044
967.232
927.095
1015.6
948.331
914.564
822.605
735.089
775.077
690.748
784.498
947.322
895.262
752.587
779.094
863.241
871.482
998.708
894.107
927.612
755.282
861.793
743.644
814.435
955.193
885.01
854.793
823.133
924.984
937.014
956.261
869.191
901.277
1001.46
914.382
1134.67
966.769
1033.94
735.976
990.481
906.702
737.389
775.093
715.313
814.732
608.963
677.013
828.639
742.525
743.944
701.362
814.07
1038.45
1158.64
1174.92
1097.5
845.595
911.127
851.269
880.945
968.315
766.618
624.787
784.638
780.517
933.529
841.031
970.798
869.359
715.358
601.358
885.735
725.739
881.655
764.676
951.092
789.777
704.667
730.239
814.669
789.687
816.725
763.186
838.184
902.954
801.015
851.007
813.213
762.636
953.771
823.786
849.786
SCALARS SignedDistance double 1
LOOKUP_TABLE default
74.2589
74.4819
75.921
77.524
88.1797
75.4578
82.1771
85.4425
95.9172
91.6348
94.5473
89.5824
80.8084
79.4752
68.4272
68.665
69.0628
76.9016
76.696
90.0834
88.126
96.1153
79.2536
80.8409
94.1588
85.707
97.5052
91.055
81.4114
89.5522
89.2175
91.8836
91.8512
93.5532
81.7101
81.5086
75.3724
81.9043
84.9101
91.5408
98.3859
96.02
75.3225
72.5347
70.13
85.6359
79.8887
84.8047
70.8029
74.5833
77.303
68.596
70.3707
70.2098
66.8437
70.3816
68.6403
70.832
71.3591
74.1331
74.3695
71.5357
81.4832
77.1057
81.3566
80.5168
79.9535
87.2787
84.025
94.0133
89.5434
94.3438
84.2382
98.2785
92.7932
91.7553
88.9255
73.4792
77.005
77.1038
73.5927
87.0154
79.988
86.1937
81.4064
78.0804
91.0087
87.2618
90.566
88.632
89.0208
96.1649
91.7513
96.348
99.6602
86.2291
95.7951
87.0786
91.931
93.535
84.334
86.7896
83.9127
87.8778
88.0711
84.0564
86.6692
79.937
80.6759
95.3619
89.7306
94.544
88.6822
85.8387
78.4357
92.2785
91.993
96.3455
86.729
85.9057
88.9611
68.8946
67.7488
88.6029
80.0767
67.6085
66.2812
75.8904
70.6869
78.3841
74.3688
70.4383
81.9517
82.9942
82.1647
96.5242
93.065
85.0786
86.6107
96.1754
92.7069
95.5001
93.8799
98.539
99.9463
96.3151
91.5337
88.6903
87.3672
82.9121
85.8807
85.77
90.9548
85.5088
90.1086
91.1733
93.3955
89.2164
87.4792
91.6594
91.7359
83.8287
73.9177
71.8673
72.2641
75.2435
73.2321
77.3247
68.8892
70.9993
70.4158
88.1648
84.8207
88.4033
80.0039
82.4009
82.4732
85.1691
83.2505
80.0993
72.806
74.3254
76.6759
71.1297
72.6675
69.2025
78.3437
76.0643
77.4408
75.7535
76.628
73.0984
70.9338
72.2278
66.962
68.0226
70.6703
69.9297
69.1294
72.8921
70.9685
67.3527
68.9384
69.0526
68.6047
66.9077
72.2439
71.0477
73.5069
69.1295
69.9362
70.643
69.2314
68.1846
67.2856
65.6985
66.385
69.1577
71.5044
74.0809
71.3448
69.9553
75.1493
72.4322
73.8979
74.2589
72.2448
74.2136
72.9674
75.386
70.7115
71.3447
84.2947
81.9928
84.4561
76.3555
79.2216
78.8102
78.8472
79.2539
76.4092
71.494
73.827
73.7719
76.7293
76.808
77.9644
76.8852
84.1152
80.3319
84.3535
85.7216
84.9013
88.4112
86.5384
88.9316
82.1726
79.9882
95.2383
93.3011
93.2834
88.9567
91.6033
91.8042
91.9582
90.6872
89.3807
82.1691
86.8983
85.4168
77.693
85.6809
81.3135
79.1593
83.8422
95.8753
96.3015
93.609
94.7183
97.4327
93.6268
90.7881
90.1981
88.3914
89.1567
89.0363
94.69
90.7274
94.4326
88.9236
92.339
90.4028
74.0527
75.8902
70.4493
71.6751
77.6858
74.6114
76.4478
75.6507
73.0151
77.3762
74.8665
77.9219
71.1142
70.2674
88.8614
86.9549
89.1275
80.4154
83.385
84.3385
82.7416
83.199
79.8
73.0604
77.0293
76.8182
76.9337
76.971
80.8377
79.0657
81.2032
79.1642
83.4257
90.3844
89.0063
89.9117
89.3263
92.6831
86.4893
84.4482
91.8893
92.6016
88.4922
87.1413
89.1855
88.2398
91.3566
92.1564
91.5121
85.2086
87.8231
86.0912
90.0252
89.9285
95.4415
92.2504
94.8568
92.0416
96.3411
95.5638
97.091
99.6759
97.9254
94.6498
98.9706
98.338
81.5257
85.2064
79.7699
93.6503
88.7795
88.3608
93.0703
90.1648
95.5461
99.49
102.921
101.046
93.3039
94.0462
93.2789
93.2643
91.1451
92.305
91.4504
86.4913
86.9766
83.5612
85.0806
83.2334
88.8546
91.1936
82.5011
86.7456
85.003
89.4256
88.7656
86.3179
83.7721
87.3386
83.6752
89.4583
84.83
89.5601
84.2987
85.5332
79.9866
82.068
89.1001
86.0575
88.0329
76.6639
76.7271
84.8707
80.4294
84.3948
76.9609
78.0447
94.9565
94.5825
96.3685
89.8621
92.2712
94.2134
92.0537
91.5117
90.0212
82.3294
86.0337
87.2189
84.07
83.9522
77.8414
87.4293
86.6988
88.4699
79.2097
84.0718
84.8584
91.9072
94.8789
92.7268
93.1251
96.2993
93.1102
97.323
97.164
91.9263
86.9193
86.2322
88.4775
86.0291
85.907
85.0629
91.1431
87.2062
88.9897
87.5
88.1794
85.4353
72.605
71.6531
74.5332
72.6638
70.6155
69.042
68.9211
86.8494
89.2155
79.6349
85.9314
86.3655
85.5534
79.7941
71.0717
70.1775
75.0501
66.1154
66.9772
71.5515
77.9526
70.4154
73.2216
73.4509
72.2169
66.5975
71.2869
76.6833
68.4437
68.0988
81.292
73.5447
77.2468
73.4038
68.8276
74.9531
70.5339
77.591
66.5325
68.3785
81.3082
81.7003
81.3029
82.6989
85.5688
87.4811
87.4649
85.5574
82.8744
71.2366
76.8056
76.8215
84.9376
84.2036
89.3071
87.0329
97.5107
94.295
99.5598
82.6544
82.3953
88.6053
85.4455
88.4443
83.9623
89.9792
97.0448
96.0214
95.9501
94.1324
94.6007
95.6431
93.2499
94.1013
92.1198
93.3858
89.9756
94.3038
90.5475
96.3341
95.5101
91.1352
92.612
96.7792
98.2328
97.5562
99.6795
98.0932
98.2189
100.978
92.0899
91.9007
98.6163
95.8782
93.6672
92.6982
94.1271
102.245
98.5904
100.392
92.745
91.0874
91.8466
89.5925
87.6997
89.5368
83.7534
86.5376
89.7201
90.0792
77.3948
83.8925
80.2293
78.5503
80.3649
87.8453
85.4048
86.5846
81.6354
84.4312
82.5629
86.3875
87.1119
86.158
88.9433
87.188
86.4126
86.9162
91.6185
90.1493
94.684
94.5054
93.0159
85.4047
87.6225
86.4987
81.9561
89.8547
83.7899
83.9658
86.3821
80.0747
95.9432
88.7572
82.2119
84.7025
94.9591
90.048
92.5224
93.661
93.7713
92.3041
93.9763
88.054
94.6604
92.3936
94.3716
94.6125
94.5242
87.4636
84.8812
88.5492
89.9975
90.3196
87.3647
92.1034
89.4965
85.3309
84.4959
91.1951
86.7022
90.8509
89.7733
92.9694
92.488
88.8604
88.8713
97.3154
92.2303
93.4167
96.9472
95.078
77.6909
83.5063
79.865
81.4373
86.6011
92.1615
90.9981
90.1294
