# vtk DataFile Version 4.2
vtk output
ASCII
DATASET POLYDATA
POINTS 642 double
-30.7956 18.851 -81.5985
-29.9295 18.8502 -81.5995
-30.5938 17.2823 -81.6274
-30.1419 17.2864 -81.6239
-30.3641 17.5481 -81.1058
-30.358 18.5648 -80.8743
-30.3709 17.5631 -82.1861
-30.3625 18.4402 -82.2361
-29.8735 18.0074 -81.9742
-29.8194 18.0582 -81.2498
-30.8619 17.9953 -81.9845
-30.9175 18.05 -81.2511
-30.9645 18.5053 -81.3564
-30.7419 18.3447 -80.9644
-30.6311 18.8528 -81.1482
-30.091 18.8503 -81.1467
-30.361 19.0368 -81.6022
-30.1265 18.7661 -82.0109
-30.5971 18.7679 -82.0126
-30.6596 18.2487 -82.1914
-30.9212 18.4719 -81.8334
-30.9696 18.0234 -81.6036
-29.9844 18.3481 -80.9658
-29.7639 18.5037 -81.356
-30.6638 17.7644 -81.1067
-30.3609 18.0704 -80.8689
-30.7781 17.5387 -81.8182
-30.7872 17.559 -81.456
-30.3682 17.9687 -82.3021
-30.6298 17.7158 -82.1816
-29.8086 18.4732 -81.8305
-30.069 18.2557 -82.1857
-29.9565 17.5727 -81.4532
-30.067 17.7714 -81.1047
-30.2175 17.2929 -81.3724
-30.5164 17.2878 -81.3782
-30.3715 17.2124 -81.6166
-30.5158 17.32 -81.8973
-30.23 17.3252 -81.8974
-30.1092 17.7228 -82.1744
-29.963 17.5586 -81.8118
-29.7746 18.0358 -81.6037
-30.8998 18.7178 -81.4755
-30.8435 18.7085 -81.2394
-30.7452 18.8893 -81.3895
-30.8686 18.1881 -81.1089
-30.8868 18.4481 -81.137
-30.9618 18.2607 -81.2773
-30.4834 18.7235 -80.962
-30.7123 18.6215 -81.0131
-30.547 18.4816 -80.8794
-30.5099 19.0013 -81.3536
-30.6241 18.976 -81.602
-30.235 18.7218 -80.9626
-30.36 18.9038 -81.1128
-30.0986 18.9749 -81.6018
-30.2123 19.0008 -81.3533
-29.9785 18.8883 -81.3889
-30.4996 18.9472 -81.8358
-30.7192 18.8501 -81.8008
-30.0042 18.8474 -81.8007
-30.2232 18.9464 -81.8357
-30.463 18.6117 -82.1639
-30.3612 18.8082 -82.041
-30.2606 18.6116 -82.1621
-30.7905 18.6509 -81.938
-30.8806 18.6997 -81.7145
-30.5036 18.3614 -82.2398
-30.6495 18.5277 -82.1299
-30.9041 18.216 -81.9256
-30.8117 18.3818 -82.0402
-30.791 18.1148 -82.0959
-30.9747 18.515 -81.5939
-30.9288 18.0096 -81.8179
-30.9781 18.2574 -81.7175
-31.0009 18.2722 -81.4794
-30.9623 18.0378 -81.4055
-29.8822 18.7063 -81.2369
-29.8253 18.7161 -81.4763
-30.1724 18.4831 -80.8821
-30.0126 18.6193 -81.0132
-29.7706 18.2656 -81.2767
-29.8417 18.447 -81.1359
-29.8633 18.1928 -81.1075
-30.5517 18.2141 -80.871
-30.3593 18.3424 -80.8359
-30.8205 17.9224 -81.1653
-30.7251 18.0619 -80.9969
-30.3625 17.7826 -80.979
-30.5333 17.9138 -80.9508
-30.5002 17.6281 -81.0862
-30.8996 17.7921 -81.5168
-30.8736 17.8301 -81.3429
-30.8468 17.783 -81.9262
-30.8898 17.7692 -81.7262
-30.6825 17.3616 -81.5604
-30.7932 17.5201 -81.6347
-30.6761 17.3643 -81.7058
-30.6534 17.972 -82.218
-30.769 17.8552 -82.0971
-30.3648 18.2086 -82.286
-30.4998 18.096 -82.281
-30.4849 17.6179 -82.2039
-30.4977 17.8417 -82.2743
-30.37 17.7391 -82.2663
-30.0766 18.5284 -82.125
-30.2227 18.3653 -82.237
-29.8459 18.6966 -81.7161
-29.9358 18.6486 -81.9352
-29.9401 18.1251 -82.0874
-29.9182 18.3856 -82.0335
-29.8301 18.2233 -81.9179
-30.0524 17.372 -81.5545
-30.0759 17.3939 -81.4023
-30.1698 17.27 -81.515
-29.9165 17.9304 -81.1643
-29.9956 17.6537 -81.282
-29.8754 17.84 -81.3465
-30.2885 17.3951 -81.2189
-30.1376 17.4873 -81.2292
-30.2269 17.6319 -81.0841
-30.2992 17.2224 -81.505
-30.243 17.233 -81.6192
-30.444 17.391 -81.2218
-30.3698 17.2608 -81.3659
-30.497 17.2338 -81.6207
-30.4414 17.2228 -81.5067
-30.5637 17.2663 -81.5184
-30.3005 17.2369 -81.7383
-30.178 17.2815 -81.7322
-30.5618 17.2787 -81.735
-30.4448 17.2376 -81.7397
-30.3029 17.4447 -82.0842
-30.3736 17.2993 -81.9121
-30.4416 17.4413 -82.0849
-30.0939 17.4048 -81.8649
-30.0603 17.3742 -81.7
-30.2568 17.6205 -82.2005
-30.1634 17.5038 -82.0726
-29.8918 17.7996 -81.9168
-30.0091 17.6284 -82.014
-29.9666 17.8668 -82.0858
-29.956 17.5402 -81.6257
-29.8152 18.0228 -81.8095
-29.8508 17.7882 -81.7208
-29.8459 17.8051 -81.5176
-29.777 18.0495 -81.4057
-30.1904 17.916 -80.9501
-30.0019 18.0667 -80.9972
-30.1693 18.2167 -80.8722
-30.6571 17.3822 -81.4071
-30.5939 17.4771 -81.233
-30.7451 17.6425 -81.2822
-30.58 17.4955 -82.0756
-30.6466 17.3934 -81.8679
-30.7314 17.614 -82.0215
-30.0799 17.9806 -82.2108
-30.2397 17.8444 -82.2715
-30.2318 18.1014 -82.279
-29.733 18.2781 -81.4804
-29.7565 18.2633 -81.715
-29.7548 18.5132 -81.5961
-30.8459 18.8002 -81.5442
-30.8328 18.8089 -81.429
-30.7796 18.8743 -81.5106
-30.9164 18.6105 -81.2977
-30.8813 18.718 -81.3564
-30.9401 18.6186 -81.4122
-30.6948 18.8836 -81.266
-30.7987 18.8087 -81.3059
-30.7466 18.7917 -81.1881
-30.9025 18.1099 -81.1886
-30.922 18.2304 -81.188
-30.9414 18.1395 -81.2579
-30.8215 18.3997 -81.0416
-30.8812 18.3193 -81.1124
-30.8154 18.2673 -81.0321
-30.9708 18.384 -81.3103
-30.9342 18.3593 -81.2079
-30.935 18.4827 -81.2446
-30.4102 18.6367 -80.9034
-30.5217 18.6077 -80.9109
-30.4399 18.5335 -80.8689
-30.6768 18.7472 -81.0713
-30.6033 18.6846 -80.9806
-30.5585 18.7981 -81.0446
-30.6503 18.4172 -80.9115
-30.6345 18.5538 -80.9351
-30.7335 18.4842 -80.9771
-30.8745 18.5835 -81.1793
-30.8121 18.5403 -81.0689
-30.7863 18.6753 -81.1189
-30.6877 18.9455 -81.4904
-30.7293 18.911 -81.6004
-30.5763 18.9379 -81.2417
-30.6357 18.9556 -81.3639
-30.4991 19.0206 -81.6024
-30.5689 19.0036 -81.4803
-30.4357 19.0358 -81.4781
-30.3063 18.6363 -80.9042
-30.3586 18.7344 -80.9552
-30.2194 18.8893 -81.1212
-30.291 18.8229 -81.0294
-30.1621 18.7956 -81.044
-30.4279 18.8239 -81.0295
-30.5013 18.8906 -81.1219
-29.9945 18.9098 -81.6006
-30.0357 18.9445 -81.4906
-29.9449 18.8738 -81.511
-30.2861 19.0354 -81.4779
-30.1535 19.0029 -81.4803
-30.2232 19.0201 -81.6021
-30.028 18.8816 -81.2649
-30.0871 18.9548 -81.3638
-30.1458 18.9367 -81.241
-30.4354 18.968 -81.225
-30.2857 18.9675 -81.2248
-30.3606 19.0187 -81.348
-30.6758 18.9228 -81.7087
-30.7668 18.8586 -81.6861
-30.4337 19.0062 -81.7238
-30.5613 18.976 -81.7203
-30.662 18.8202 -81.911
-30.6165 18.907 -81.8248
-30.5549 18.8661 -81.932
-29.9573 18.8565 -81.6866
-30.0473 18.9212 -81.7085
-30.1682 18.8647 -81.9315
-30.1065 18.9053 -81.8247
-30.0616 18.8179 -81.9101
-30.1614 18.9751 -81.7202
-30.2888 19.0059 -81.7237
-30.4032 18.518 -82.2105
-30.3616 18.6211 -82.1683
-30.321 18.5183 -82.2094
-30.4839 18.7977 -82.0338
-30.4191 18.7168 -82.1095
-30.5287 18.6961 -82.0983
-30.1948 18.6954 -82.0963
-30.3037 18.7166 -82.1087
-30.2389 18.7972 -82.0326
-30.3612 18.9623 -81.8412
-30.2941 18.8901 -81.9464
-30.4284 18.8906 -81.9466
-30.8077 18.7806 -81.7624
-30.8376 18.7917 -81.6494
-30.6994 18.7197 -81.98
-30.7588 18.7582 -81.8767
-30.9088 18.5925 -81.7763
-30.8428 18.6798 -81.8305
-30.8656 18.5662 -81.8877
-30.4244 18.408 -82.2422
-30.4895 18.4917 -82.2064
-30.659 18.3906 -82.167
-30.5778 18.4468 -82.1933
-30.5825 18.3087 -82.2234
-30.5597 18.5793 -82.1513
-30.628 18.6552 -82.0784
-30.8825 18.0897 -81.9616
-30.8517 18.1708 -82.0169
-30.8365 18.0467 -82.0359
-30.8734 18.4327 -81.9416
-30.8663 18.3043 -81.984
-30.9185 18.3448 -81.8832
-30.7323 18.1831 -82.1495
-30.8021 18.2487 -82.074
-30.7392 18.3196 -82.1241
-30.7244 18.5978 -82.0426
-30.7375 18.4616 -82.0909
-30.8082 18.5214 -81.9955
-30.8985 18.7135 -81.5947
-30.9551 18.5004 -81.7164
-30.9359 18.611 -81.6557
-30.947 18.6193 -81.5319
-30.9777 18.5168 -81.4721
-30.8942 18.0012 -81.916
-30.9249 18.1161 -81.871
-30.9816 18.1393 -81.6591
-30.9596 18.1321 -81.7661
-30.9549 18.0177 -81.7118
-30.9473 18.2435 -81.8243
-30.9578 18.3688 -81.7762
-30.9709 18.1506 -81.3425
-30.9414 18.0452 -81.3163
-30.9922 18.3931 -81.4162
-30.9885 18.2726 -81.3753
-30.9719 18.03 -81.5007
-30.9889 18.1507 -81.4401
-30.9928 18.1452 -81.5428
-30.9854 18.3896 -81.6571
-30.9976 18.2688 -81.5979
-30.9979 18.3976 -81.5339
-29.8917 18.8084 -81.4284
-29.8791 18.799 -81.5457
-29.9777 18.7889 -81.1861
-29.9258 18.807 -81.3041
-29.7862 18.6164 -81.412
-29.8441 18.7164 -81.3547
-29.8106 18.6089 -81.2955
-30.277 18.5338 -80.8703
-30.1971 18.6075 -80.9132
-29.9926 18.4852 -80.9782
-30.0879 18.5537 -80.9373
-30.0729 18.421 -80.914
-30.1181 18.6819 -80.9815
-30.0466 18.7439 -81.0704
-29.7934 18.1476 -81.2567
-29.81 18.2346 -81.187
-29.8318 18.1162 -81.187
-29.7938 18.4814 -81.2431
-29.7957 18.3605 -81.2067
-29.7595 18.3849 -81.31
-29.9132 18.2701 -81.0324
-29.848 18.3201 -81.1116
-29.9067 18.4008 -81.0415
-29.9398 18.6728 -81.1171
-29.9157 18.5395 -81.0677
-29.8531 18.5819 -81.1771
-30.4534 18.4117 -80.8471
-30.3583 18.4717 -80.8496
-30.6511 18.2825 -80.9067
-30.5558 18.3477 -80.8663
-30.3601 18.2076 -80.8422
-30.4561 18.2774 -80.8437
-30.4529 18.1429 -80.859
-30.881 17.9961 -81.2109
-30.8496 18.0572 -81.1276
-30.6997 17.9142 -81.0434
-30.7796 17.9886 -81.077
-30.747 17.8432 -81.13
-30.8023 18.1308 -81.0439
-30.7395 18.205 -80.971
-30.3631 17.6447 -81.0501
-30.4367 17.7047 -81.025
-30.4222 17.578 -81.0928
-30.449 17.9934 -80.8997
-30.4451 17.85 -80.9558
-30.3615 17.9271 -80.9169
-30.5804 17.6907 -81.0917
-30.5209 17.7686 -81.0159
-30.6067 17.8349 -81.022
-30.6461 18.1383 -80.9241
-30.6308 17.9879 -80.9635
-30.5454 18.0663 -80.9
-30.9243 17.9343 -81.3726
-30.904 17.9564 -81.2891
-30.9431 17.9103 -81.5555
-30.9387 17.9196 -81.4629
-30.8303 17.6949 -81.3996
-30.8906 17.8064 -81.4291
-30.8449 17.6717 -81.4842
-30.8593 17.9048 -81.9627
-30.889 17.894 -81.8729
-30.8382 17.6431 -81.7795
-30.8724 17.7687 -81.8281
-30.8206 17.6581 -81.8777
-30.9112 17.895 -81.7686
-30.9347 17.9013 -81.6646
-30.6302 17.3083 -81.6005
-30.6817 17.3594 -81.6334
-30.6285 17.3106 -81.6595
-30.7938 17.5329 -81.5446
-30.7399 17.4331 -81.5942
-30.7371 17.444 -81.5116
-30.7263 17.4395 -81.7588
-30.7349 17.4314 -81.6764
-30.7873 17.5216 -81.7247
-30.8985 17.777 -81.6183
-30.847 17.6379 -81.6787
-30.8491 17.6492 -81.5793
-30.7818 17.9834 -82.1043
-30.8249 17.9339 -82.0368
-30.658 18.1085 -82.2105
-30.7246 18.0453 -82.1644
-30.7032 17.7815 -82.1465
-30.7159 17.9096 -82.1647
-30.6453 17.8404 -82.2079
-30.3633 18.3399 -82.2629
-30.4316 18.2814 -82.2708
-30.43 18.0294 -82.298
-30.4312 18.1487 -82.2889
-30.3665 18.0851 -82.2992
-30.5046 18.2256 -82.2656
-30.5781 18.172 -82.246
-30.4191 17.5839 -82.1971
-30.4294 17.6776 -82.2418
-30.3704 17.6331 -82.2251
[...]
POINT_DATA 642
SCALARS Mean_Curvature double 1
LOOKUP_TABLE default
2.9681
2.99489
4.26959
4.16961
2.83299
2.93561
3.81422
2.535
2.18291
2.37353
2.00865
2.38696
2.55084
2.65016
2.97897
3.02141
3.02756
2.92457
2.90825
0.471843
2.26446
1.41205
2.63217
2.59411
0.977602
2.56906
2.17251
2.13729
3.11106
3.23043
2.30244
0.806347
0.414984
1.73974
4.58763
4.56615
4.14412
3.2749
3.17327
3.11531
1.526
1.93361
2.69315
2.89452
2.9894
2.49031
2.74021
2.20164
2.93273
2.95058
2.86887
2.97561
2.94775
2.94913
2.97804
2.92717
2.99855
3.00908
2.99265
2.90672
2.94525
2.98847
2.89246
2.9872
2.90557
2.65
2.72393
2.31675
2.69784
1.4177
2.23255
1.73142
2.38325
1.41843
1.70654
2.01731
2.23198
2.92249
2.79363
2.86714
2.96208
2.34615
2.73796
2.48526
2.67122
2.67127
2.09319
2.45838
2.26879
2.23799
2.30039
1.38909
2.38145
2.20321
1.5815
3.6197
2.12098
1.19161
2.7096
2.64563
2.52979
2.40633
3.56319
3.11103
3.47801
2.64866
2.36873
2.73997
2.62287
2.05501
2.2394
1.36398
3.65781
3.91296
5.07862
2.03878
1.63439
-0.206923
3.683
3.17542
2.32524
4.76352
4.32448
3.69335
4.72432
4.11783
4.70612
5.08635
4.06393
4.03675
4.12737
4.04333
3.5259
3.83454
3.53297
2.22084
2.49441
3.49664
3.48523
2.26466
2.91324
2.41976
0.0488431
0.018133
1.99181
1.78125
2.43195
2.37008
2.5565
2.68719
3.95853
3.34002
-0.160922
3.60199
2.70338
3.02875
2.39717
3.13912
2.50636
2.14863
1.64464
2.33112
2.88373
2.83571
2.9905
2.72529
2.83235
2.61036
3.0209
2.96908
2.99042
2.30934
2.42447
2.40972
2.74221
2.45963
2.59365
2.40408
2.45041
2.6628
2.92113
2.92142
2.87617
2.99955
2.95305
2.94115
2.78952
2.88474
2.84188
2.83342
2.85062
2.93853
2.99627
3.0038
2.97822
2.97576
2.97973
2.99814
3.02709
2.93546
2.91251
3.01105
3.00415
3.00673
2.99211
2.97695
3.03139
2.99272
3.02677
3.02684
2.99694
2.99317
3.0102
2.99338
2.99862
2.9952
2.99096
2.96983
3.00891
2.93265
2.98731
2.93076
2.90918
2.99036
2.9663
2.94894
3.00778
3.01009
3.00399
2.92978
2.97662
2.98838
2.75777
2.9199
2.73667
2.94967
2.83752
2.86928
2.88593
2.84533
2.966
2.96533
3.01034
3.00163
2.79932
2.83713
2.80204
2.78878
2.51821
2.57886
2.41502
2.18445
2.43546
2.34928
2.61752
2.10539
2.73073
2.80646
1.70665
1.96608
2.17685
2.26336
2.07847
1.97214
2.16261
1.78689
2.17835
2.7113
2.51373
2.48609
2.63033
2.2397
2.40775
2.57568
2.48442
1.47092
1.72649
1.39368
1.53237
1.57582
1.70142
1.73135
2.33361
2.34771
2.36803
2.11882
2.06125
2.2661
2.00049
2.0039
1.80608
2.27691
2.95576
2.91386
2.98674
2.96263
2.67247
2.84732
2.77178
2.90248
2.91673
2.85525
2.9072
2.7985
2.92798
2.96534
2.40677
2.50353
2.39633
2.64277
2.56636
2.47089
2.62717
2.673
2.73421
2.93087
2.86843
2.86997
2.7666
2.83453
2.66525
2.71619
2.59075
2.55499
2.64668
2.27204
2.42571
2.03036
2.33433
1.81432
2.4835
2.63005
2.49461
2.35323
2.6822
2.30685
2.09831
2.10684
1.50546
2.18461
2.14084
2.54108
2.27789
2.4421
1.98785
2.40734
1.96024
2.26451
0.299726
2.3878
0.061314
2.15035
1.21237
1.83066
1.95413
2.34538
-0.903545
1.959
4.08384
3.7273
4.0907
2.27799
3.39511
2.87398
-0.0896522
0.0177502
2.24373
0.844646
1.58697
1.3976
2.42917
2.3308
1.97165
2.36512
2.9203
2.71748
3.00188
2.64722
2.58132
2.72333
2.32322
2.87898
2.15333
1.49296
3.48456
3.4915
3.62662
3.24409
3.49552
3.60084
3.27818
3.38647
3.15633
2.74651
2.91249
2.93193
2.33805
2.22345
2.79685
2.75502
2.06975
2.47845
2.30773
2.8504
2.80672
2.51774
2.60977
2.52451
2.77371
2.75858
2.16437
2.12481
1.98447
1.99363
1.75374
2.10063
2.03582
2.08929
2.20087
2.74238
2.53031
2.52064
3.97442
4.5832
4.40126
3.51851
3.87521
3.51138
4.87299
4.72918
4.42717
2.28335
2.14259
1.86442
-0.468382
0.901986
1.87343
0.139601
-0.153682
0.141033
3.28062
3.06876
2.67747
4.04397
3.6184
4.13485
1.67927
2.68567
2.0253
3.38489
2.32326
3.50372
4.71239
4.32075
4.62804
5.10002
4.02726
4.584
4.57565
3.28188
3.70458
4.70261
4.1489
4.1505
4.14552
4.69966
4.2593
4.5651
4.35864
4.83454
4.54831
4.05394
4.81082
5.0279
4.78482
4.51031
4.59001
4.47932
4.48574
4.17091
3.98191
4.24465
3.16359
4.38991
3.71197
4.26388
4.22357
3.82906
4.08559
3.64619
4.02728
3.8807
3.69838
3.56185
3.76131
3.40414
3.35331
3.27257
3.65571
3.46551
3.69932
4.04409
4.23862
4.00662
3.51337
3.82964
0.390684
2.72101
2.15934
1.42032
2.42436
3.65126
3.54868
3.39402
3.60816
3.36118
3.47035
3.26327
2.17902
2.27439
2.29412
2.59398
2.54559
2.02182
2.75691
2.68313
3.06576
3.01142
3.14542
2.92492
3.53437
-0.200837
2.56785
3.51467
3.18392
1.8611
1.9815
-0.330541
1.79979
-0.842183
2.04475
1.6324
2.33274
2.36716
1.02139
2.13653
1.70964
2.03439
2.07957
0.484475
1.82768
0.766699
2.40609
2.42275
2.31408
2.36303
2.41193
2.45728
2.65015
2.54716
2.44026
2.37874
2.7938
2.66384
2.60981
2.72925
2.70104
2.4743
2.58034
2.54872
4.55289
4.42854
4.74425
3.81526
3.04623
2.99488
0.312847
2.66819
3.62432
4.02187
2.12925
2.60676
0.378296
1.50128
-0.182885
3.45439
2.92423
3.00658
3.61922
3.41406
3.6988
3.67235
3.48083
3.66075
2.05769
0.158185
3.35324
3.03059
2.44368
3.15725
2.85566
2.5482
2.71192
3.031
3.08002
3.44113
2.30197
2.75436
2.53002
2.32222
2.0763
3.4738
3.18161
3.1841
3.31551
3.03736
2.59097
1.68332
2.19124
2.5223
2.81013
2.93437
2.90924
2.63597
2.38787
2.04762
2.18903
2.2494
2.4184
1.52965
2.1061
1.8526
1.87004
1.67113
2.61238
2.51896
2.53238
2.52065
2.38983
2.0263
2.17657
2.29427
SCALARS CoVolArea double 1
LOOKUP_TABLE default
0.00709899
0.00709401
0.00242124
0.00253502
0.00576917
0.00722422
0.00365286
0.00574565
0.00586309
0.00584726
0.00604921
0.00580865
0.0141595
0.015433
0.0176305
0.0175175
0.0190926
0.0147703
0.0149089
0.0133363
0.0143833
0.0132823
0.0149366
0.0141573
0.0144853
0.0140397
0.0117971
0.0116006
0.00791316
0.0110135
0.0137958
0.0130559
0.0110172
0.0140091
0.00844171
0.00797405
0.0048982
0.00841923
0.00879109
0.0111294
0.0120199
0.0128805
0.0136149
0.0165817
0.0154982
0.0126631
0.0154611
0.0122292
0.0157693
0.0174759
0.0147951
0.0196805
0.0161834
0.0153917
0.0188279
0.0161179
0.0196246
0.0155311
0.0174218
0.0141466
0.0140591
0.0174038
0.0124359
0.015892
0.0122933
0.0150572
0.0136282
0.0114119
0.014304
0.0126118
0.0143776
0.0120112
0.0146551
0.0127571
0.0145136
0.0142131
0.0110974
0.0164994
0.0139201
0.0142477
0.0167299
0.0119276
0.0152208
0.0122663
0.0152708
0.0135753
0.0127777
0.0151699
0.0129798
0.0152145
0.0121289
0.0129826
0.0115006
0.012383
0.0144786
0.00737767
0.0113212
0.00682784
0.0122331
0.0114836
0.00913861
0.0103401
0.00809436
0.00966115
0.00797201
0.0139575
0.0112703
0.0133592
0.0146128
0.0118318
0.0138698
0.0120903
0.00745352
0.0100785
0.00568013
0.0125003
0.0125762
0.0115513
0.0100938
0.0120447
0.0119271
0.0054707
0.00430837
0.0100117
0.00787838
0.00415912
0.00509498
0.00530335
0.00593964
0.00553226
0.00510373
0.00576662
0.0083994
0.0090981
0.00848908
0.0103144
0.00713296
0.00801957
0.0107444
0.0118856
0.0125855
0.0114788
0.0112542
0.0121246
0.0137935
0.0125818
0.0112718
0.0150884
0.0146342
0.015101
0.0100881
0.0122659
0.0130508
0.0107265
0.00977676
0.0126635
0.012452
0.00992325
0.0105144
0.013697
0.0137974
0.0143287
0.0110349
0.0139698
0.011767
0.0153242
0.0147022
0.0139449
0.0167291
0.0157107
0.0173378
0.00957542
0.0120257
0.0093437
0.0156406
0.0137413
0.0140272
0.0132415
0.0134399
0.0148241
0.0119776
0.0148497
0.011604
0.017681
0.016536
0.0169253
0.0154108
0.0160499
0.0166011
0.0172071
0.0177381
0.0183464
0.0155224
0.0119774
0.0185749
0.017297
0.0179993
0.0178795
0.0197569
0.0117885
0.0151608
0.0183529
0.0168523
0.0166257
0.0169619
0.0184225
0.0118734
0.0154447
0.0117927
0.0197056
0.0178122
0.017971
0.0167475
0.0173234
0.0186005
0.020763
0.0207208
0.0213963
0.0145303
0.011339
0.0186134
0.0167014
0.014603
0.0153841
0.0160522
0.0112504
0.0145155
0.0159645
0.0153882
0.0145113
0.0167264
0.018614
0.00946787
0.0120436
0.00939863
0.0155593
0.0137998
0.0137377
0.0135918
0.013749
0.0154521
0.0189874
0.0177954
0.0178585
0.013483
0.011001
0.0149586
0.0142985
0.0140806
0.0141969
0.0148195
0.00899128
0.0116416
0.0139099
0.0127911
0.0124029
0.0131266
0.0145617
0.00977882
0.0119275
0.00948532
0.0144309
0.0132278
0.013496
0.0128042
0.012957
0.0139914
0.0157246
0.0153727
0.0157235
0.0131067
0.0146955
0.0138944
0.0137546
0.0143387
0.00985989
0.012255
0.0141612
0.0133477
0.013362
0.0133715
0.0144838
0.011326
0.00889927
0.0140777
0.0128483
0.0119935
0.0124562
0.0138255
0.0156388
0.0155087
0.015452
0.0141868
0.011223
0.0171507
0.0157491
0.0141688
0.0149105
0.0153965
0.0113526
0.0142844
0.0158445
0.0152088
0.014774
0.0158893
0.0172283
0.00924207
0.0117428
0.0094394
0.0147126
0.0131311
0.0129867
0.0135441
0.0133633
0.0152234
0.0179201
0.0172574
0.0170446
0.0136463
0.0111713
0.0155543
0.014737
0.0136104
0.0140119
0.0145358
0.00961713
0.0122129
0.0152187
0.0138382
0.013923
0.0136568
0.0151078
0.00980252
0.012329
0.00933875
0.0146361
0.0138048
0.0137163
0.0133607
0.0137446
0.0151587
0.0164001
0.016437
0.0161588
0.0107046
0.00913123
0.0129813
0.0115023
0.0118373
0.0117588
0.0125635
0.00969731
0.012314
0.0134069
0.013487
0.0127891
0.0136323
0.0140436
0.00464807
0.00668888
0.00448225
0.0115369
0.00893781
0.00965904
0.0090589
0.00862256
0.0113344
0.0147041
0.0140343
0.013748
0.0113495
0.00939144
0.012868
0.012279
0.0114365
0.0118038
0.0116914
0.00838588
0.00990319
0.00861988
0.0091743
0.00816061
0.0108701
0.012263
0.00599031
0.00775871
0.00611339
0.0105876
0.00892084
0.00944769
0.00794235
0.00837005
0.00846605
0.0120883
0.0102421
0.0116
0.0114321
0.00891908
0.0142892
0.012862
0.0121839
0.0125059
0.0135462
0.0109619
0.0132653
0.0142603
0.013775
0.0135221
0.014055
0.0146982
0.00932591
0.0115403
0.00942676
0.0135634
0.0125379
0.0125797
0.0129743
0.0127201
0.013928
0.015283
0.0151876
0.0149181
0.00478864
0.00626842
0.00411869
0.0106396
0.0084588
0.00941561
0.00681804
0.00750842
0.00922435
0.00957043
0.0117563
0.00931726
0.013337
0.0127235
0.0134707
0.0114938
0.0120161
0.0117015
0.00862777
0.0106779
0.00927439
0.010503
0.0108436
0.00946085
0.0130056
0.0118239
0.0130173
0.0123293
0.0131865
0.0118919
0.00456131
0.00360367
0.00673881
0.00540962
0.00458329
0.00466547
0.00488425
0.00863644
0.00965751
0.00771823
0.00895488
0.00917485
0.00910788
0.00811939
0.00343313
0.00426541
0.00391459
0.00475117
0.00437703
0.00450809
0.00634959
0.00493663
0.00621255
0.00688732
0.00662697
0.00556947
0.00447643
0.00400658
0.0052464
0.00472889
0.00691697
0.00546451
0.0072218
0.00376851
0.00421787
0.00688593
0.00509544
0.00640869
0.00458134
0.00521306
0.00604254
0.00814452
0.00607635
0.00892171
0.0092084
0.00927759
0.00921614
0.00921267
0.0087521
0.00644656
0.00783268
0.00794056
0.00598514
0.00467015
0.00944095
0.00738637
0.00943736
0.00821677
0.0111717
0.00593519
0.00762383
0.0107622
0.00896756
0.00948045
0.00916213
0.0103042
0.00933781
0.0112276
0.00923376
0.0126963
0.0121639
0.0125209
0.0115547
0.0117687
0.0118162
0.0119733
0.0125611
0.0129081
0.00684978
0.0115826
0.00883645
0.00892949
0.0110859
0.00945506
0.0117564
0.0132284
0.0128664
0.0126819
0.0128756
0.013275
0.0109091
0.0090377
0.0120469
0.0116523
0.0120438
0.0115778
0.0126127
0.0138164
0.0139856
0.0132502
0.0122611
0.0148106
0.0135657
0.0137783
0.0146358
0.0118773
0.0146353
0.0131259
0.0133371
0.0147109
0.0134987
0.0145109
0.0139753
0.0144558
0.0152109
0.0160614
0.0160565
0.0160578
0.00604682
0.00892249
0.00721467
0.008422
0.0110069
0.0107792
0.0134648
0.0120922
0.0108649
0.0103173
0.0117634
0.0122099
0.0122547
0.0130533
0.0138356
0.011978
0.013628
0.0127314
0.00772318
0.0100732
0.0092357
0.00905998
0.0107829
0.00562003
0.0107681
0.00775291
0.0068505
0.00890395
0.0115332
0.0118138
0.0118742
0.0124399
0.0126583
0.0116228
0.0126455
0.0125141
0.0113503
0.0119039
0.0119514
0.0122862
0.0128803
0.00773973
0.00865934
0.00849907
0.00900749
0.010795
0.00990218
0.0122702
0.0108804
0.00924483
0.00874962
0.0119192
0.0105276
0.0123423
0.0112081
0.0134408
0.0122917
0.0124755
0.0137641
0.0116678
0.0138476
0.0127463
0.0126646
0.013522
0.0131852
0.0142844
0.0138683
0.0136229
0.0140734
0.0147901
0.0149637
0.0149527
SCALARS SignedDistance double 1
LOOKUP_TABLE default
1.09944
1.11015
1.0885
1.09821
1.08281
1.08872
1.18794
1.08877
1.02068
1.01736
1.02555
1.0063
1.09714
1.08012
1.13486
1.14068
1.12446
1.10526
1.10264
1.0161
1.01787
1.00474
1.09046
1.10636
1.00201
1.06317
1.00242
1
1.10176
1.06984
1.0141
1.02222
1.01838
1.0092
1.1114
1.10931
1.22217
1.02167
1.00373
1.04312
1.00546
1.00868
1.12795
1.12464
1.13359
1.03814
1.09335
1.0317
1.11826
1.08242
1.0827
1.15583
1.13556
1.13908
1.15632
1.12548
1.15194
1.11993
1.13473
1.11586
1.11246
1.13207
1.07798
1.12067
1.08018
1.08146
1.04023
1.00041
1.05384
1.01976
1.03526
1.00009
1.08086
1.00405
1.00222
1.0495
1.03397
1.11468
1.13019
1.10517
1.09965
1.03682
1.0722
1.04354
1.06663
1.12239
1.01374
1.03175
1.00988
1.00873
1.04809
1.01445
1
1.00723
1.00719
1.07158
1.00203
1.01059
1.03555
1.03655
1.06754
1.00719
1.11199
1.08588
1.13471
1.07617
1.00196
1.0475
1.06414
1.00376
1.04046
1.01545
1.08432
1.10912
1.17237
1.01854
1.00582
1.00286
1.11689
1.07964
1.04871
1.19706
1.14634
1.11205
1.08308
1.1675
1.19463
1.17183
1.09041
1.04235
1.03485
1.1043
1.12471
1.02416
1.12256
1.00003
1.00848
1.12379
1.08408
1.02716
1.05169
1.01722
1.00501
1.01743
1.00239
1.00346
1.03619
1.01707
1.03107
1.06455
1.12059
1.07038
1.00256
1.10335
1.00114
1.06268
1.00237
1.06245
1.01448
1.02735
1.00036
1.06293
1.08941
1.13887
1.10293
1.13416
1.14821
1.12035
1.136
1.13158
1.12621
1.01755
1.01353
1.00612
1.08709
1.07008
1.04459
1.08576
1.08512
1.1027
1.09564
1.0965
1.09993
1.10348
1.09152
1.12024
1.09378
1.09077
1.09277
1.11333
1.10676
1.11072
1.11942
1.1115
1.15312
1.14718
1.14009
1.14566
1.12547
1.10709
1.13845
1.15132
1.14794
1.13706
1.14322
1.15633
1.10885
1.12178
1.10841
1.12584
1.14685
1.13898
1.13309
1.13354
1.14308
1.17148
1.16989
1.1431
1.11439
1.11279
1.1501
1.14219
1.11629
1.12185
1.12127
1.11624
1.11245
1.11449
1.11431
1.11927
1.12989
1.14884
1.09352
1.07229
1.09214
1.11808
1.0961
1.09585
1.09782
1.09682
1.11884
1.14993
1.12741
1.1282
1.09127
1.08596
1.09072
1.097
1.02008
1.07094
1.04934
1.04043
1.05445
1.04364
1.01938
1.00439
1.06185
1.08742
1.02583
1.00348
1.03337
1.03258
1.01365
1.00812
1.00029
1.00162
1.03888
1.06047
1.0638
1.04472
1.08492
1.0344
1.06836
1.1053
1.0856
1.02937
1.00592
1.00455
1.01128
1.0136
1.00609
1.00624
1.01626
1.01748
1.07181
1.025
1.00139
1.00744
1.00499
1.05263
1.03779
1.06776
1.11664
1.1107
1.13386
1.12095
1.12582
1.12974
1.12643
1.11754
1.11844
1.10468
1.10948
1.10202
1.12809
1.1269
1.00031
1.02531
1.01351
1.10483
1.06798
1.08936
1.05192
1.05799
1.08743
1.11115
1.10749
1.102
1.11497
1.10637
1.07277
1.09522
1.08062
1.09029
1.05427
1.02744
1.02968
1.01019
1.04124
1.00405
1.04106
1.04441
1.03175
1.00879
1.07016
1.05277
1.00804
1.02387
1.00437
1.00179
1.00392
1.04654
1.02458
1.04571
1.02035
1.01257
1.00947
1.00163
1.00892
1.01515
1
1.00304
1.02157
1.01519
1.00374
1.02821
1.02117
1.00314
1.08192
1.02503
1.04122
1.00054
1.01946
1.03314
1.00299
1.00274
1
1.01587
1.00866
1.00344
1.03355
1.02494
1.00301
1.0312
1.04689
1.03038
1.04377
1.02834
1.00864
1.08033
1.04627
1.10039
1.00121
1.00145
1.16037
1.12778
1.16486
1.07645
1.0988
1.08825
1.10312
1.11887
1.08869
1.01592
1.04328
1.04954
1.03827
1.04375
1.07991
1.06817
1.00196
1.02467
1.04771
1.09294
1.09793
1.04321
1.06992
1.02915
1.10277
1.08944
1.02557
1.01347
1.03388
1.01505
1.0072
1.00237
1.01482
1.00261
1.03967
1.06166
1.04648
1.07251
1.09523
1.13797
1.13807
1.05345
1.11297
1.04942
1.148
1.14791
1.13346
1.0148
1.01476
1.00004
1.00652
1.00002
1.0021
1.00465
1.00328
1.00124
1.1143
1.09911
1.06919
1.10848
1.1141
1.10088
1.00085
1.04935
1.00217
1.02429
1.02844
1.08262
1.16675
1.11753
1.14361
1.18695
1.18801
1.19814
1.22993
1.11319
1.10997
1.09164
1.08653
1.09676
1.08754
1.09099
1.1222
1.17619
1.13302
1.23737
1.21316
1.20982
1.15349
1.18748
1.14412
1.13452
1.13528
1.19862
1.08753
1.07198
1.15602
1.11838
1.01991
1.05895
1.03012
1.06566
1.10103
1.03555
1.07272
1.01463
1.1412
1.1684
1.177
1.14394
1.17666
1.02288
1.07772
1.05441
1.06549
1.07831
1.02738
1.11109
1.05234
1.04532
1.01893
1.0548
1.00246
1.00017
1.00089
1.00137
1.01106
1.16649
1.14607
1.08434
1.1144
1.08728
1.09775
1.02769
1.01323
1.04102
1.02342
1.01835
1.05548
1.03802
1.01854
1.04049
1.05332
1.03329
1.0711
1.02912
1.03882
1.00075
1.00182
1.03336
1.01042
1.02326
1.00627
1.01536
1
1.00744
1.00582
1.02369
1.01394
1.00218
1.0172
1.00026
1.00495
1.01813
1.00883
1.00526
1.00944
1.01921
1.00751
1.00923
1.00756
1.00909
1.03561
1.01512
1.04826
1.03017
1.02226
1.0142
1.1076
1.05379
1.07047
1.0802
1.0778
1.03286
1.05132
1.05085
1.12818
1.12982
1.14902
1.11435
1.0696
1.08985
1.00263
1.0144
1.1033
1.10357
1.0026
1.00721
1.00345
1.00141
1.00112
1.094
1.02287
1.02685
1.15123
1.0577
1.1062
1.11959
1.09658
1.00915
1.0001
1.00181
1.01105
1.00307
1.03138
1.06854
1.02318
1.04482
1.0323
1.05519
1.05336
1.07921
1.0211
1.02399
1.00799
1.02661
1.00808
1.13803
1.06423
1.10175
1.09258
1.04573
1.01282
1
1.00212
1.0482
1.08444
1.03132
1.05521
1.01891
1.01119
1.01071
1.03049
1.03589
1.08127
1.02437
1.00553
1.00124
1.00602
1.00188
1.09885
1.09343
1.10703
1.05546
1.03587
1.01842
1.02001
1.06898
