# vtk DataFile Version 4.2
vtk output
ASCII
DATASET POLYDATA
POINTS 642 double
-62.3439 149.192 88.5806
120.89 149.689 86.6531
-56.2121 -193.059 79.4005
115.801 -192.623 79.6703
30.6797 -109.395 209.288
32.0798 92.8114 236.474
30.5118 -111.277 -58.9901
31.3279 76.975 -50.9421
144.271 -11.8378 7.23762
155.874 1.75952 168.962
-84.759 -14.7216 3.72008
-99.2024 -0.265266 165.614
-106.975 86.8418 140.855
-53.5705 47.5361 224.512
-25.5602 150.738 181.164
87.1204 149.379 181.304
30.5588 184.252 88.3462
82.8068 138.542 -0.143249
-22.1234 139.285 -0.0583191
-39.6874 40.8551 -40.1335
-93.0769 82.5276 40.0549
-113.815 -10.0185 102.937
113.734 48.5787 225.701
166.758 84.276 140.272
-37.8668 -66.0162 200.974
28.746 2.79669 252.03
-74.1885 -126.06 47.0796
-83.102 -113.087 129.159
28.3259 -18.208 -90.2479
-36.3183 -77.5081 -45.9861
153.736 84.1339 41.3546
99.445 44.7388 -39.5047
143.97 -109.263 130.814
98.5555 -66.1422 201.893
74.4329 -184.818 155.918
-14.5081 -190.19 156.851
29.6931 -221.402 90.3346
-22.4672 -185.647 13.1544
78.3414 -182.382 14.2223
92.9574 -77.4277 -43.5903
127.756 -114.995 45.3137
172.061 -10.1823 93.6468
-92.0726 122.562 117.463
-75.7541 122.28 163.327
-49.4215 156.85 136.444
-81.3301 24.6207 199.853
-86.49 73.2468 185.706
-105.631 42.1809 159.41
2.14898 126.815 215.884
-44.1028 104.894 208.199
-11.5639 73.4255 236.718
-0.552637 176.105 140.563
-20.5213 173.597 85.4549
60.3458 125.554 217.426
29.5739 160.527 187.136
81.5649 173.681 86.7059
61.6069 176.242 139.798
108.575 156.965 136.713
-0.300445 170.598 37.5259
-44.6258 152.604 40.9631
105.969 151.16 40.9075
59.9415 170.421 37.2138
3.05866 113.975 -30.4214
30.4814 146.55 -3.7709
57.8796 113.57 -30.7721
-64.9131 116.627 14.7072
-84.4457 119.496 62.4658
-4.66028 61.8132 -52.2963
-35.9485 96.7011 -25.3949
-90.2589 39.2765 20.9905
-70.5865 69.0988 -4.77309
-66.3537 14.497 -19.5894
-107.911 89.7404 92.9208
-98.5069 -5.927 46.6168
-108.537 44.4876 65.6828
-110.355 46.6399 119.389
-117.41 -11.543 128.119
134.338 121.922 164.854
149.77 119.926 118.099
74.5279 75.7453 237.744
105.042 105.013 211.408
165.276 43.5417 158.286
145.513 71.8519 187.03
140.239 25.6265 201.457
-9.56368 22.171 249.611
30.9581 40.5337 253.651
-74.3736 -26.5998 190.324
-49.8297 2.72778 223.883
29.8077 -49.7064 232.183
-6.66052 -24.0873 237.229
-8.34348 -95.0488 211.673
-106.88 -50.3782 116.636
-98.5717 -49.4051 146.782
-82.3507 -59.9636 14.3769
-91.8906 -63.9184 67.5305
-69.0744 -163.53 100.082
-86.6759 -127.689 80.2531
-72.4452 -165.485 58.8089
-33.325 -19.8877 -55.8942
-63.0146 -46.9768 -22.986
29.6811 19.1698 -79.1409
1.8852 -1.86323 -78.8604
-4.12557 -97.6907 -59.861
0.663312 -37.6103 -77.2987
28.9993 -61.0141 -72.6719
96.8303 96.2112 -25.7192
66.7892 63.3132 -53.0648
145.555 118.812 60.1686
126.231 116.184 14.7673
125.322 18.8929 -17.2327
130.482 69.3182 -4.96276
150.677 39.1888 21.4559
125.759 -162.668 96.507
112.914 -150.742 143.256
97.1552 -194.623 120.107
132.211 -24.6888 192.466
127.479 -97.5975 169.347
151.597 -55.3532 145.241
53.9992 -151.998 180.973
93.5107 -123.232 186.378
69.0987 -95.4361 211.446
54.2733 -216.959 128.568
82.2686 -216.934 81.3289
5.43412 -157.242 177.455
25.564 -196.398 162.76
-20.9642 -217.001 84.4362
0.653313 -221.468 129.866
-38.7519 -198.758 123.912
61.7384 -212.977 40.6627
101.835 -194.462 46.7759
-44.2356 -197.016 42.2588
-4.77585 -213.964 39.6832
52.6886 -137.108 -37.3048
29.2158 -188.049 9.40937
6.27112 -138.129 -35.9434
109.41 -161.902 31.066
125.908 -168.531 65.1112
62.013 -98.9075 -59.4046
84.411 -119.283 -32.0073
143.085 -59.5149 17.0159
119.878 -89.225 -9.71235
121.721 -45.5791 -19.1678
142.647 -123.315 87.5754
158.911 -2.88304 48.4222
154.175 -55.3858 70.1417
164.07 -52.8755 111.088
170.842 -6.24081 129.049
68.1767 -25.8027 235.577
112.085 3.87019 223.952
71.3851 25.3578 247.671
-52.4696 -157.387 140.91
-32.989 -125.467 184.872
-67.4162 -98.1591 170.332
-27.7067 -120.94 -30.7106
-57.1848 -164.331 28.8933
-61.4587 -91.3166 -12.3548
91.9566 -18.6277 -52.7768
56.7148 -38.1362 -74.91
56.7015 0.656569 -76.8627
171.432 47.704 119.638
169.483 43.9485 67.5323
168.969 86.9728 89.0877
-78.8873 137.405 104.177
-73.7349 140.704 127.556
-58.0473 153.696 112.206
-95.046 104.269 151.877
-86.2422 123.311 140.587
-101.695 105.155 129.681
-38.3244 155.972 159.269
-63.5566 141.088 151.263
-51.6388 138.438 173.384
-92.2855 12.9985 183.879
-95.6326 32.7759 180.484
-103.98 17.3231 165.385
-70.6484 60.8542 206.749
-83.756 48.1222 194.813
-68.7652 35.9877 214.03
-106.34 68.3006 149.934
-97.2836 60.3216 171.889
-99.0828 81.6078 163.074
17.4812 109.894 229.028
-5.81035 102.543 227.797
10.3202 84.4753 237.741
-35.8122 129.788 196.492
-21.4581 117.929 213.222
-11.7861 140.898 200.105
-33.4258 60.7515 231.968
-28.7787 90.5488 223.631
-49.9899 76.6788 217.395
-83.8248 98.4169 175.842
-68.1128 89.1532 198.26
-61.5337 115.744 187.529
-35.2772 167.141 114.38
-43.1831 162.532 86.4272
-13.8857 166.659 162.785
-25.4791 169.394 140.349
5.50777 179.947 87.1066
-9.40005 176.409 114.762
16.2258 182.891 112.913
45.6775 109.232 229.556
30.6503 128.206 217.065
59.5131 157.324 185.618
45.4713 145.165 202.169
73.8461 139.1 201.112
14.8322 146.178 202.099
1.20334 158.351 185.945
103.352 163.032 86.8942
95.3395 167.581 114.074
115.45 154.108 111.766
44.9049 182.905 112.822
70.478 176.44 114.598
55.2965 180.042 87.6344
99.0256 155.375 159.064
86.202 169.438 139.758
75.0603 166.267 161.895
14.1338 172.187 166.891
45.8239 171.394 166.141
30.27 177.358 139.995
-33.372 166.392 60.2874
-53.7999 153.025 63.5672
14.6833 177.691 61.7741
-10.9587 175.032 59.755
-34.3701 147.825 19.9649
-23.0894 163.922 38.5066
-11.959 157.205 17.8531
114.683 152.066 63.9407
94.0917 165.189 61.774
71.9286 156.6 17.5716
83.1477 162.619 38.3545
95.3596 146.684 19.6582
70.6771 174.147 60.7479
45.5867 177.816 61.9376
17.4843 96.4288 -41.001
30.6366 115.285 -30.4975
44.2762 96.0238 -41.3146
2.18946 145.213 -3.55291
15.3843 131.824 -18.1136
-9.42316 127.632 -17.1359
70.0732 127.185 -17.2796
45.4689 131.773 -18.197
58.2314 145.088 -3.66789
30.3567 172.583 36.0762
45.3567 161.602 15.1871
15.2221 161.608 15.2935
-65.6871 137.665 48.6451
-74.2836 135.849 75.8852
-45.1181 129.707 6.20876
-56.3025 135.372 25.8856
-90.3228 101.822 50.6147
-75.128 119.493 35.7349
-80.3596 100.687 25.7252
12.4516 69.6887 -53.8277
-3.43783 90.5691 -40.8324
-38.1722 71.9597 -32.1696
-22.0502 82.3786 -38.0202
-21.5593 52.6105 -47.4056
-17.7708 106.648 -29.0242
-30.2845 118.683 -14.7562
-86.5986 9.75748 10.7931
-79.9377 28.0353 -2.4809
-77.2406 -1.48354 -8.26019
-82.8344 77.6947 15.3667
-81.5002 55.3943 7.11683
-92.9049 62.7519 30.8726
-55.5558 28.1538 -31.1988
-69.522 42.6127 -13.6507
-56.7085 56.417 -23.041
-51.5012 107.818 -7.08997
-54.9537 84.3153 -16.165
-69.3564 93.7029 3.42219
-91.4873 121.67 92.0518
-103.078 86.3533 66.9684
-99.187 104.047 79.0878
-102.834 105.792 105.801
-108.653 89.9614 118.258
-91.7449 -12.1372 19.8297
-96.3958 16.4104 34.8656
-111.454 16.3134 79.449
-107.077 20.0483 59.3481
-108.419 -4.00467 75.0205
-101.64 43.6576 46.3406
-103.54 64.4344 54.7586
-109.602 14.4494 145.828
-109.85 -6.22466 147.516
-109.745 71.219 130.93
-109.894 46.5788 139.916
-118.467 -12.7687 118.231
-114.298 8.27829 126.453
-112.645 7.71712 108.04
-109.532 69.4548 78.3194
-110.681 46.4499 89.841
-109.924 72.9541 105.846
130.608 139.658 128.974
135.396 136.048 102.247
112.401 137.681 174.6
122.695 140.709 152.552
160.569 102.65 130.48
144.12 121.945 142.243
153.12 103.215 152.362
53.8905 85.1356 239.055
69.6608 101.92 229.923
109.569 78.6337 219.463
90.9755 91.7886 226.723
94.3788 63.3644 233.024
84.4175 116.659 215.998
97.8637 128.565 198.62
161.666 21.5438 165.318
154.105 35.4541 180.765
149.524 14.2296 185.304
157.916 79.3583 163.297
157.857 58.1954 172.71
167.42 65.0242 149.417
128.96 35.9741 214.943
143.99 47.9015 195.816
130.365 61.124 208.222
121.359 115.658 189.808
126.771 89.8496 200.446
141.738 98.3391 177.258
9.31223 55.6158 248.316
31.818 67.3995 245.572
-32.573 34.445 238.03
-11.7608 44.1124 245.087
29.6902 20.0254 254.929
9.15162 29.5992 253.916
9.68427 12.3894 253.802
-88.3961 -12.7481 178.179
-78.4599 2.50142 197.584
-45.8899 -25.743 216.965
-62.4356 -11.3461 208.948
-57.3235 -44.8236 198.664
-66.1879 14.9171 214.007
-52.9837 24.4241 226.667
30.5741 -86.8293 216.55
11.5714 -73.0729 218.935
10.2902 -103.663 211.905
10.731 -9.12479 247.075
11.4919 -35.3977 237.354
28.9145 -19.9703 243.676
-23.1363 -84.3943 209.836
-8.43803 -58.7574 220.688
-24.7134 -43.6634 221.63
-31.0034 13.3587 238.257
-28.3419 -11.0229 232.895
-8.06107 2.44018 246.034
-110.54 -27.226 136.825
-101.574 -25.3441 155.799
-113.739 -24.5331 114.779
-114.925 -25.278 122.188
-86.2335 -81.5119 138.928
-105.543 -49.7081 129.532
-91.2112 -81.5664 119.958
-84.2718 -34.6262 7.91082
-90.9284 -34.8439 26.5042
-83.9401 -98.3408 54.5546
-87.8104 -62.3738 35.2082
-80.1965 -87.3648 26.0268
-97.547 -29.8453 55.654
-107.137 -26.1808 89.0523
-63.1283 -180.702 89.8765
-73.6654 -164.655 76.7647
-66.2202 -180.893 67.5059
-85.6059 -122.062 102.206
-81.0974 -144.02 87.8864
-76.7918 -139.323 112.586
-74.5662 -150.665 54.7592
-80.9326 -147.149 69.7039
-84.4566 -130.602 67.4111
-100.539 -58.4729 99.1013
-87.7386 -103.314 77.221
-89.3593 -92.9174 94.4558
-65.9443 -17.3226 -23.1659
-76.0804 -28.8358 -9.25571
-34.6832 4.77236 -48.1456
-51.2753 -4.6411 -36.4069
-50.5713 -63.9427 -35.7339
-50.2376 -33.1202 -38.9549
-35.2554 -45.1233 -50.1629
30.5805 48.5196 -64.2353
15.752 36.9746 -68.0403
16.1201 -11.1118 -87.3667
16.8996 7.71134 -81.2306
28.7138 -3.57556 -86.4851
0.0873324 27.0467 -66.3443
-15.2222 16.9679 -60.5185
12.7926 -105.825 -61.2723
11.32 -83.2969 -67.9168
30.4199 -94.3503 -66.0034
-16.9086 -60.4546 -60.5755
-2.29952 -72.0137 -66.15
-20.5567 -88.892 -54.8871
28.295 -30.0382 -87.1912
13.1306 -46.3812 -78.7187
16.0991 -24.707 -87.5242
-15.351 -11.1576 -71.0549
0.473137 -18.1294 -82.7794
-16.0913 -27.3043 -70.1862
64.6382 89.7762 -41.9713
49.8731 70.2195 -54.0585
91.4187 118.093 -14.9434
[...]
POINT_DATA 642
SCALARS Mean_Curvature double 1
LOOKUP_TABLE default
0.00867893
0.0105632
0.0214328
0.0388176
0.00986111
0.00699766
0.012213
0.00326591
0.0181463
0.00830638
0.0176664
-0.0054374
0.0281589
0.015333
0.0148448
0.0126324
0.0198486
0.0123603
0.013606
0.00816498
0.00823151
0.0128619
0.0136123
0.0245025
-0.0175182
0.0152997
-0.00940596
0.0148603
0.0630193
0.0118793
0.0093854
0.0102975
0.0204403
-0.0130542
0.022628
0.0236313
-0.0103138
0.0255594
0.0172691
0.00926888
-0.0122859
0.0173321
0.0165427
0.013781
0.0135196
0.0140741
0.0148757
0.0142326
0.0141499
0.0107958
0.00841002
0.0125269
0.0108186
0.0149055
0.0158874
0.0129662
0.0137541
0.0147215
0.0160469
0.0137192
0.0132966
0.0177314
0.0161339
0.00735368
0.0161437
0.0163691
0.00974113
0.00963026
0.0173107
0.00432047
0.0099595
0.00138878
0.0212436
-0.00147493
0.0130545
-0.00147695
0.0367255
0.0141509
0.0109561
0.0103878
0.0145792
0.0106388
0.0117429
0.0139724
0.0247771
0.0148915
0.00686845
0.00919213
0.0104333
0.0091756
0.016553
0.0290594
0.0137835
0.00863398
-0.00502344
0.00643819
0.023976
0.0286531
0.0144735
0.00555789
0.0297417
0.0139059
0.0201661
0.0118958
-0.00753376
0.0168019
0.0163165
0.0126666
0.017161
0.00230969
0.00914496
0.00705474
0.00340337
0.00617896
0.017572
0.00801294
0.0158236
0.00148499
0.00395702
0.0143233
0.0171776
0.0183888
0.0267704
-0.000875077
0.0271419
0.0133496
0.0296835
0.022785
0.0231373
0.0194487
0.0234086
0.0219433
0.0200259
0.00541992
0.0177902
0.0138889
0.028844
0.0250017
0.0121723
0.0165585
0.0132882
0.00391692
0.0186658
-0.000535731
-0.006594
0.0141437
0.0155509
0.00992822
0.0116285
0.0161399
0.00380694
0.012987
0.017503
0.0123794
0.0187876
0.012618
0.0111296
0.00943885
0.0141823
0.000484946
0.0140947
0.0250577
0.0147665
0.016283
0.00989509
0.0166541
0.0144602
0.0190372
0.0130752
0.0116474
0.0134634
0.0160541
0.0130947
0.0241802
0.0115074
0.00865759
0.0183953
0.0129537
0.00704626
0.0191589
0.0163531
0.0138224
0.00655943
0.0131548
0.0121581
0.0150829
0.00906059
0.00922625
0.00970364
0.0143304
0.0117626
0.0136359
0.0103533
0.00855261
0.0163648
0.0177569
0.00655162
0.00680091
0.016078
0.0138522
0.00779607
0.0148869
0.0105991
0.0128324
0.0138521
0.0171226
0.0126279
0.0128678
0.00832926
0.0161307
0.00689482
0.00697637
0.0125212
0.018892
0.0163086
0.0214647
0.0174409
0.00195751
0.0186495
0.0131761
0.00572682
0.0196695
0.0132652
0.0155579
0.0141047
0.0125426
0.0152985
0.0136299
0.0125241
0.013112
0.0151407
0.007228
0.00759635
0.00724967
0.00704532
0.0150433
0.0115845
0.0148307
0.0140129
0.012017
0.0157612
0.0145193
0.0155724
0.0146129
0.0132171
0.00613467
0.0146255
0.0158157
0.00890874
0.0149918
0.0129059
0.0134378
0.00985667
0.00674511
0.0126131
0.00523113
0.0160678
0.014638
0.00170487
0.0154885
0.0118573
0.0143167
0.00747796
0.00631011
0.0161428
0.0112602
0.0088371
0.0151991
0.0134475
0.0146073
0.015986
0.0151934
0.0130408
0.0179972
0.0216916
0.0142011
0.00206938
0.0130518
0.0132495
0.00783606
0.00644442
0.0124665
0.00357166
0.0195361
0.011206
0.0110457
0.0566883
0.01315
-0.00452196
0.0169
0.00305663
0.00433368
0.0112487
0.00552189
0.014726
0.0139469
0.0184318
0.0143584
0.0143081
0.0113452
0.0162699
0.00916593
0.01756
0.00851401
0.0151651
0.0149935
0.0128802
0.00960027
0.0111226
0.0121892
0.0147054
0.0174778
0.0170304
0.0131654
0.0111674
0.015636
0.0111006
0.0122415
0.0141566
0.00600886
0.0134088
0.0091306
0.0167008
0.0198219
0.0273167
0.00372872
0.00879792
0.0097917
0.00797058
0.0117408
0.0124507
0.0187508
0.00632647
-0.00461034
0.0182867
0.0126489
0.0129954
0.00615632
0.0238012
-0.00139073
0.0123556
0.0140647
0.0092784
0.0122096
0.0150672
0.0127268
0.00339885
0.0377783
0.00279181
0.0191491
-7.10508e-05
0.00938361
0.00826613
0.00246385
0.0056736
0.0107914
0.000510236
0.0027273
0.0124534
0.0145901
0.0273872
0.0124641
0.0137117
0.00803234
0.00943568
0.0298649
0.0239644
0.00265595
0.00837912
-0.004241
0.0112327
0.0135212
-0.00349058
0.00448371
0.0125379
0.00873601
0.00146059
0.0100482
0.0111503
0.0338434
0.0162928
0.0248118
0.00871715
0.00279122
0.0237071
0.0190758
0.012488
0.00139812
0.00796359
0.0199576
0.0258195
0.0173625
0.0354113
0.0204673
0.0405028
0.015938
0.0119499
0.0135658
0.0148843
0.0154318
0.00990022
0.0119468
0.00921601
0.0105459
0.0143602
0.0147712
0.0154224
0.0104704
0.0162249
0.0149212
0.00716642
0.0117543
0.00302445
0.0128498
0.0141724
0.00894846
0.00483336
0.0110799
0.00918531
0.0160294
0.0157618
0.0119476
0.0315649
0.00831841
0.0212625
0.0125036
0.00423795
0.0123494
0.0236398
0.00972833
0.00642063
0.00660623
0.00468947
0.00713751
0.023354
-0.0172763
0.0113628
0.0115434
0.0106019
0.0185391
0.00753945
0.0160118
0.018739
0.0014959
0.00952368
0.0132
0.0207831
0.0154625
0.0149936
0.0153025
0.0176803
0.011022
0.0139584
0.0307549
0.0222118
0.0230483
0.0154818
0.00804942
0.0324507
0.00712741
-0.00475592
0.0366375
0.01495
0.0174196
0.00590358
0.0211382
0.0151903
0.0160428
0.0205296
0.0347381
0.0279047
0.00325
0.0230924
0.0243775
0.0259469
0.0181494
0.0221395
0.0227659
0.0239676
0.0236803
0.016413
0.0206884
0.0197772
0.0210375
0.0211567
0.0238628
0.0244169
0.0264872
0.0269246
0.0243827
0.0265445
0.0144342
0.02123
0.00873699
0.0200777
0.0186587
0.00280895
-0.00129712
-0.00592682
0.0010859
0.0193799
0.0124448
0.0122919
0.0177759
0.0328372
0.0465438
0.0158219
0.028845
0.00186092
0.0190906
-0.00720834
0.0273969
0.0242494
0.017042
0.021136
0.0166328
0.0159341
0.00684338
0.00363307
0.00982699
0.0100177
0.0120717
0.0140268
0.0123243
0.00850898
0.0104218
0.0139259
0.00203327
0.0106283
0.00827289
0.0287305
0.00787722
0.0120601
0.0110814
0.0184243
0.0120739
0.00583062
0.016936
-0.00243326
-0.00292939
0.0126257
0.00266566
0.0159244
0.0023422
0.00219892
0.0127886
0.0108373
0.0237076
0.0245718
0.00666358
0.0161228
-0.00155237
-0.00401193
0.0135254
-0.00117921
0.00921016
0.0100305
0.0116832
0.0222917
0.017376
0.00946827
0.0105774
0.0118153
0.0220539
0.0219907
0.0107191
0.019412
0.00950387
0.0132038
0.00521369
0.021443
0.00873574
0.0159644
0.0046609
0.0086821
0.0151887
0.0132458
0.0137656
0.00767816
-0.00151043
0.0097497
0.021795
-0.00347573
-0.0100266
0.0217566
0.00834549
0.0168166
0.0147846
0.0207375
-0.00268989
0.0147806
0.018291
0.0186492
0.0261212
0.00720882
0.0278187
0.0264003
0.0194625
0.00636432
0.0170736
0.0120054
0.0123312
0.00756531
-0.00386222
0.0039904
0.0125459
0.012898
0.00847649
0.00414704
0.00424186
-0.00238615
0.0247137
0.0324311
0.0138974
0.00460141
0.000276219
0.0097423
0.00335763
0.00789251
0.0171023
0.0261335
0.013138
0.0341984
0.0147223
0.0192727
-5.87063e-05
0.00932743
0.0142866
0.0161068
0.00457807
0.00387444
0.00629835
0.0138263
0.0197724
0.0124379
0.0214382
0.00918714
0.0196199
0.0215999
0.00498388
0.0178192
0.00625341
SCALARS CoVolArea double 1
LOOKUP_TABLE default
473.304
466.993
321.409
213.467
432.242
457.543
260.301
465.428
365.13
379.868
334.971
380.622
423.814
593.296
652.48
676.411
695.479
583.477
574.559
757.78
554.4
445.564
587.135
457.673
800.901
424.52
724.339
681.434
180.679
522.452
517.583
665.105
494.528
749.729
482.661
427.943
768.639
496.236
559.342
549.268
1019.03
467.385
523.865
667.025
637.295
469.258
607.466
549.67
622.282
705.789
677.376
737.11
714.532
637.646
672.028
690.258
736.58
616.537
651.389
554.969
577.572
653.949
532.176
650.207
533.355
544.5
609.788
631.652
514.982
635.618
545.016
579.588
469.806
716.086
553.094
766.659
306.948
647.814
627.074
601.336
635.65
473.821
636.87
450.101
459.073
549.783
743.818
551.569
715.745
650.131
546.917
512.525
600.806
555.098
1151.46
531.777
415.048
307.208
578.915
552.339
414.376
441.546
393.248
486.195
600.495
519.497
569.094
558.497
529.113
607.816
532.856
602.905
521.453
721.718
487.622
719.562
524.134
728.264
703.335
621.996
523.072
578.214
520.746
674.471
431.628
613.367
458.813
440.747
565.662
417.581
406.84
560.689
600.299
770.821
674.101
572.185
220.541
343.597
666.224
441.533
590.489
578.451
553.741
735.133
888.725
493.725
463.878
715.273
504.788
497.587
717.396
697.419
574.953
738.908
540.71
654.262
626.11
532.085
479.297
629.818
523.225
454.988
562.631
600.159
620.08
562.883
571.907
468.422
623.498
631.512
691.666
450.731
522.79
449.825
635.966
558.552
480.217
447.335
545.776
516.235
584.035
630.004
619.112
685.237
627.866
607.031
662.35
667.764
702.803
684.071
740.669
757.742
711.919
642.724
655.745
646.393
698.159
730.788
741.339
578.323
667.361
691.048
669.125
639.627
637.456
639.885
599.851
660.514
621.432
733.262
699.451
687.926
613.336
623.742
677.146
760.21
782.68
850.725
588.405
584.817
738.705
621.625
552.729
547.518
607.97
562.295
610.175
612.917
587.043
566.587
646.577
736.332
566.893
594.584
553.522
612.664
577.509
511.857
518.006
575.484
607.488
760.551
696.969
708.724
601.511
603.986
572.469
540.79
559.873
552.956
549.456
583.991
542.519
600.448
529.833
689.071
480.624
543.829
567.789
576.213
505.587
535.122
543.393
542.151
635.636
541.09
605.117
585.68
586.15
567.364
565.232
530.449
532.823
469.865
423.78
542.03
679.269
637.806
596.324
662.939
577.785
521.141
521.364
431.915
465.418
592.174
227.824
537.666
682.356
555.79
812.798
585.156
643.569
648.711
671.196
612.421
511.637
581.82
587.543
581.064
574.264
658.771
572.447
610.638
588.778
664.783
471.991
491.814
448.806
571.441
517.647
430.891
466.635
528.262
645.714
718.402
726.64
707.904
641.154
629.433
565.388
598.036
386.204
461.866
383.413
573.4
534.221
741.208
602.768
779.587
462.97
483.086
622.862
730.85
537.355
476.627
664.314
525.95
603.058
721.216
782.576
547.077
679.025
517.546
401.989
517.615
391.43
234.972
637.954
500.349
759.795
452.672
645.756
868.64
864.183
749.684
934.958
854.767
422.41
407.804
355.199
679.674
469.993
612.428
354.608
309.485
461.498
850.328
714.452
689.395
581.665
472.229
738.902
651.57
518.471
618.088
656.818
549.356
563.349
241.425
398.126
255.432
630.658
746.408
360.8
518.855
451.2
665.514
524.043
444.196
340.58
486.978
260.041
510.411
319.979
536.163
517.585
551.872
549.326
489.675
594.834
496.592
548.21
590.502
570.052
521.025
519.774
490.41
536.634
570.529
547.893
556.503
537.09
543.604
502.898
604.452
583.73
533.705
540.257
577.404
559.612
578.422
304.116
516.625
393.522
622.396
677.539
595.292
433.373
555.494
618.203
563.595
846.347
635.395
648.47
820.929
755.082
517.538
661.366
460.622
679.948
558.583
512.444
669.93
628.737
546.603
575.461
485.706
528.484
625.548
564.717
766.026
537.795
377.528
497.168
526.21
629.855
603.27
592.609
700.606
767.929
367.411
450.056
453.851
532.594
478.712
512.313
543.194
463.474
541.135
509.619
682.606
407.633
436.415
431.112
583.396
523.368
560.658
437.569
338.623
749.448
524.953
396.012
449.532
453.635
405.908
496.676
429.882
414.715
359.624
568.886
785.319
373.28
722.378
401.722
629.517
867.691
701.211
701.952
903.209
622.924
734.812
636.502
622.535
306.196
228.292
577.293
344.67
523.555
317.985
760.823
322.742
357.427
434.096
367.206
437.153
564.914
777.52
480.242
485.996
507.206
817.102
456.697
661.915
558.906
466.647
465.471
893.664
733.473
871.186
273.263
777.422
330.215
463.517
585.501
559.3
656.398
573.764
826.552
595.381
692.7
989.621
569.036
510.771
584.604
551.738
447.543
389.41
357.543
853.281
631.25
679.603
725.008
764.503
723.991
700.993
554.931
486.323
451.3
414.03
539.624
694.78
614.798
443.735
468.36
576.101
548.643
702.844
561.619
621.009
461.02
601.698
470.87
593.416
671.789
613.01
571.473
537.704
669.802
687.431
773.583
578.32
714.827
834.264
664.6
830.376
610.186
681.77
418.109
765.819
637.434
429.346
455.872
355.351
588.27
303.942
340.477
543.067
508.296
444.419
454.518
568.253
801.009
912.172
887.24
789.343
625.515
672.074
644.222
690.097
758.915
473.956
285.31
493.277
519.814
696.907
549.794
725.292
605.582
415.686
262.395
578.453
364.486
576.338
493.666
718.745
551.698
444.685
430.156
611.82
535.457
600.189
543.31
563.604
630.174
462.382
549.803
504.204
445.9
682.475
495.074
537.484
SCALARS SignedDistance double 1
LOOKUP_TABLE default
40.4799
40.4594
41.8491
43.5031
47.6973
41.7663
44.2329
46.2215
51.8943
50.056
51.1181
49.8787
46.6679
42.3617
36.5169
36.8733
37.673
41.3192
41.152
49.3426
48.7631
52.5369
42.3195
45.6938
53.3024
46.9757
56.1138
51.145
44.4538
48.4182
49.7596
51.067
50.9942
52.3177
45.0254
45.996
46.2248
45.7206
49.5022
49.5364
56.3728
52.9069
40.7501
38.7943
37.9354
46.5613
43.2386
46.2544
38.0898
40.4539
42.0885
38.7184
37.8695
37.5672
35.8292
37.9019
38.8473
38.4087
38.5216
39.79
39.876
38.3858
44.1115
41.8434
44.1115
43.3934
43.5776
47.3165
45.4508
51.7283
48.3242
51.0999
47.6559
54.8507
50.457
50.2156
48.797
39.5169
41.5549
42.1384
39.8261
47.3095
43.1393
46.9793
44.7029
43.2009
49.2
47.1858
49.4677
47.9881
48.7844
53.2676
49.0153
52.8233
55.1048
47.0073
54.7481
49.8292
50.9329
50.9152
45.5545
46.7831
45.2348
48.3008
50.3824
45.5624
47.0532
43.6736
43.5298
52.091
48.3096
51.8105
49.3874
46.2951
43.3152
49.8559
51.155
54.4904
48.5029
45.7011
48.5204
36.8724
36.2952
50.0579
45.9746
36.247
35.0867
41.7575
37.9266
43.4589
40.4198
38.4232
43.3985
47.9158
43.8213
56.6967
53.0068
46.2455
46.3843
52.3004
49.9632
52.1275
51.1915
55.1699
55.2373
53.4513
49.6333
47.8598
47.1471
45.6583
46.5038
45.7362
50.5296
45.6978
52.3799
49.2344
51.5451
49.0529
47.0741
50.098
49.6909
47.5118
39.6331
38.394
39.1745
40.376
39.356
42.519
37.0844
38.1671
37.5112
48.0533
45.8701
48.6994
43.5016
44.687
45.1228
46.8816
45.19
44.4382
39.6044
40.3312
42.6377
38.1866
39.4162
37.0557
42.4262
41.1594
41.75
40.9112
41.3504
39.2111
38.4066
39.1518
35.8748
36.2153
39.0462
38.8029
38.0059
39.7397
38.3837
36.0439
37.5028
37.0723
37.506
35.7965
39.0344
38.213
39.9592
37.9984
38.8283
38.9903
37.3254
36.2796
35.9539
35.254
35.5115
38.0479
38.3573
40.0077
39.2812
38.091
40.2116
39.015
39.6514
40.1069
38.9983
39.8713
39.3904
40.3282
38.164
39.2524
46.4428
44.6831
46.5496
41.0675
42.9607
42.5299
42.5262
42.9956
40.9174
38.3508
40.1282
40.0644
41.2481
41.8382
41.6204
40.8782
46.3835
43.6007
46.0588
46.4679
46.5798
48.1351
47.7386
48.351
44.2388
42.9245
52.1223
50.9371
50.1841
48.798
50.013
50.4047
50.6574
48.5871
47.9995
44.37
47.4118
46.2348
42.0428
47.0091
43.8104
43.6525
48.4248
52.0461
52.9995
51.4623
51.396
53.484
51.0112
49.761
50.2938
48.3771
49.5823
49.7226
52.9853
51.1323
52.0937
49.3502
50.5473
49.7732
40.1745
41.1165
37.3772
38.3692
42.3411
40.1855
41.0211
41.3622
39.789
41.9049
40.5313
41.9746
38.0435
37.3677
48.2458
47.6196
48.5974
43.701
45.8099
46.6377
45.0175
45.519
43.2981
39.2779
41.7186
41.7415
41.5166
42.2067
44.5637
42.9712
44.5155
43.5596
45.8372
49.5134
48.3965
48.4343
48.2497
50.6453
46.8386
46.026
52.3147
52.3991
48.6321
47.4989
48.002
48.5462
53.2201
51.6755
50.1575
46.54
47.4631
46.936
48.6635
48.176
52.0689
51.989
54.3753
49.8093
55.9125
51.8735
52.7765
58.1354
54.4681
51.0196
55.7091
54.0027
45.5965
47.1234
44.5418
53.3346
49.2832
48.0382
50.6176
49.5873
55.1736
55.0106
58.1254
57.0558
50.3294
50.5682
52.0797
50.9713
48.853
49.8694
50.2513
48.1645
47.6079
45.2699
46.0412
45.4798
48.7785
50.6611
44.6291
49.9582
48.0239
49.176
49.6302
46.8862
45.4867
48.9046
45.3215
48.7024
45.8549
49.0956
45.8677
46.8701
42.8769
44.2257
49.1661
47.0336
47.5963
41.4903
41.2132
46.6865
43.7498
46.6717
40.8964
41.6211
51.1644
51.1356
52.2507
48.523
50.0247
51.2619
50.3391
49.603
49.2671
44.5386
46.9212
47.6745
48.1064
46.9606
42.9596
46.7822
47.1865
47.9963
43.166
46.9254
46.8676
50.0353
52.2797
50.3099
52.5399
54.4606
50.7192
56.7157
57.4375
51.761
46.8041
46.0657
48.6028
47.3273
46.6797
47.4625
51.0308
46.8015
48.1866
46.8209
47.4591
45.4065
39.6122
39.0611
39.8625
39.0265
41.2734
37.4109
40.9736
46.7594
50.096
45.4191
50.88
50.2925
48.7315
44.8571
38.6841
37.6801
41.0424
38.1238
37.3238
43.0602
43.0193
37.8609
40.0784
40.5784
40.0056
35.7099
38.3329
42.5442
40.0468
36.5903
45.7912
39.9121
42.4308
40.0142
36.8241
40.7097
37.5983
42.3373
36.3018
40.528
43.6884
43.6119
43.6712
47.4242
53.1128
54.1729
54.4161
53.4689
47.6584
38.4933
42.2528
42.3974
49.6504
49.1486
54.0581
51.2905
53.1589
53.6596
56.4076
44.6638
43.617
47.9772
45.6851
48.1571
44.5491
55.2459
52.7818
52.3521
52.064
50.9977
50.8543
51.7415
50.4701
50.956
50.0252
56.1263
48.3894
53.3379
52.4589
52.5851
52.3026
49.9032
51.8176
52.5685
54.0703
53.0576
55.0049
53.7936
55.5121
56.9395
49.2285
50.1669
57.6547
53.3311
51.242
50.1889
51.1043
58.0775
54.5615
56.9806
52.3952
49.4641
50.9242
48.5331
47.9988
48.4808
45.2284
46.7808
48.4344
48.5336
42.02
45.8963
43.8907
42.6462
43.9812
47.3266
46.6297
47.5241
45.5982
46.7273
45.8411
47.0771
47.1041
45.9786
48.3278
46.8119
47.4227
48.1881
49.2752
49.7321
53.8621
54.1128
53.7495
45.8579
47.0806
45.8785
43.5088
54.3765
44.9196
44.6655
46.2419
45.0452
53.9228
51.12
46.511
48.223
51.7224
49.0537
49.9262
50.7178
51.2993
54.9186
54.2377
47.1566
51.0284
49.7623
51.305
51.666
52.7109
49.478
45.965
49.807
49.5614
48.9224
48.3021
51.5894
49.7157
45.8466
45.808
50.128
47.0792
49.6096
49.158
50.7268
50.7976
49.4894
49.7119
53.5091
50.497
51.213
53.2418
51.9407
41.7978
47.5939
43.337
44.2151
48.5407
50.4123
50.033
49.7644
