# vtk DataFile Version 4.2
vtk output
ASCII
DATASET POLYDATA
POINTS 642 double
-81.4947 174.05 86.3397
140.829 174.151 85.2928
-78.5896 -215.336 80.7315
138.629 -214.861 80.8996
30.6606 -125.551 242.825
31.4892 105.426 266.069
30.538 -127.805 -89.5174
31.0708 93.0722 -83.4101
179.739 -13.845 -12.5251
189.673 -4.87729 186.892
-120.095 -15.8808 -15.0658
-131.599 -6.25887 185.26
-137.564 97.071 149.734
-71.8096 53.8185 251.822
-36.7422 172.361 196.505
98.1339 171.478 196.503
30.587 213.587 86.2073
94.2867 161.832 -19.6393
-33.4898 162.386 -19.6306
-60.4364 48.5983 -70.9007
-125.881 93.548 25.7834
-153.881 -13.1513 95.7149
132.401 54.7359 252.691
197.085 95.6329 149.335
-59.7885 -76.9973 233.413
29.4516 -5.08393 287.407
-111.551 -135.902 31.5044
-117.222 -125.631 140.169
29.2904 -18.2901 -124.908
-58.9937 -84.7934 -75.4655
187.049 94.2261 26.4323
121.354 50.8766 -70.6868
178.295 -122.389 141.419
120.556 -77.1004 233.763
89.2146 -204.423 179.193
-29.462 -208.329 180.703
29.8756 -252.366 87.322
-33.9205 -204.75 -11.9095
91.5007 -202.572 -9.82343
116.752 -84.8069 -73.2898
165.529 -128.992 31.4686
212.178 -12.8086 88.9551
-117.03 141.863 120.527
-96.1998 140.722 176.591
-64.5769 181.479 143.042
-108.435 24.147 223.917
-111.972 81.6238 205.837
-138.775 45.7366 172.544
-3.75849 144.851 239.044
-59.4038 119.3 231.732
-21.7609 83.7067 266.165
-6.00668 204.046 146.392
-29.7625 201.862 84.5394
65.6256 144.042 239.972
29.9445 183.359 203.543
90.8698 201.904 85.3008
67.0995 204.105 145.903
124.578 181.403 143.122
-5.60458 198.51 27.2787
-60.8185 177.113 30.1824
121.933 176.017 30.2488
65.7802 198.274 27.1546
-2.39989 133.581 -58.0458
30.5191 171.317 -25.0112
63.3515 133.338 -58.2384
-87.8034 134.872 -2.08455
-110.988 138.572 54.0144
-16.4697 74.1753 -84.8841
-52.6803 111.42 -52.7087
-126.202 43.0934 3.77228
-98.9434 77.8382 -28.2928
-95.8227 17.4571 -46.4412
-141.153 101.082 89.3302
-138.85 -9.80642 35.0659
-146.749 47.0354 56.7091
-149.294 49.313 120.728
-153.517 -13.6307 136.52
155.729 140.342 177.493
175.296 139.886 121.052
84.2912 85.2677 267.501
120.762 119.332 233.959
199.385 46.0506 172.206
171.418 80.8836 206.625
168.308 24.7886 224.663
-20.6023 22.868 282.021
30.9701 46.2244 286.367
-101.441 -37.5776 215.526
-70.7059 -4.42747 253.478
30.0559 -63.4653 267.898
-17.6163 -36.4385 270.992
-17.8932 -107.695 245.395
-145.323 -63.0028 117.758
-130.76 -62.4968 163.36
-119.628 -68.3983 -0.387251
-132.62 -72.1928 59.2246
-100.691 -179.761 109.269
-125.676 -137.513 79.8011
-104.569 -180.417 51.1218
-58.8611 -19.0778 -85.5831
-93.3088 -51.4858 -48.3156
29.9795 31.6504 -112.674
-12.764 7.67141 -110.918
-16.1393 -109.922 -90.7198
-13.6598 -46.0921 -109.996
29.7398 -71.3936 -108.768
113.742 111.107 -52.8695
78.2532 75.0804 -85.3773
171.992 138.088 52.394
149.087 134.456 -2.04963
154.987 20.7432 -44.5876
159.161 77.9148 -28.2406
186.64 42.6922 3.81193
158.411 -178.758 106.015
138.406 -169.865 160.632
117.39 -216.822 132.737
160.478 -36.3999 216.665
156.596 -107.708 192.317
185.802 -65.9462 162.204
59.7122 -171.76 211.884
110.098 -141.142 213.032
78.9202 -107.899 245.334
62.4659 -242.653 138.988
91.9579 -243.756 81.8036
0.134498 -175.494 209.97
27.3472 -217.04 187.96
-30.5192 -243.847 84.0265
-5.61256 -246.457 140.003
-58.1375 -220.493 135.656
67.2998 -239.367 28.5654
120.148 -217.015 33.2119
-61.4897 -219.335 30.2316
-8.74231 -240.596 27.7019
60.1784 -161.082 -60.6689
29.5487 -210.637 -15.7877
-0.703227 -162.066 -59.5695
139.821 -176.146 9.7116
161.671 -180.582 54.7852
75.4215 -110.354 -90.3166
104.962 -138.096 -55.3186
179.692 -67.8107 1.58198
150.404 -102.159 -30.4469
152.252 -50.3628 -45.4776
180.158 -135.45 84.0636
199.058 -7.55197 36.515
194.294 -65.5373 60.3244
202.36 -64.9717 115.027
208.536 -9.55599 137.331
78.8532 -37.4973 269.625
132.697 -3.76198 253.54
82.2412 24.9049 280.995
-78.4608 -174.828 159.57
-49.2663 -143.068 211.916
-96.2786 -108.407 192.875
-46.9696 -140.342 -53.9067
-83.3644 -178.319 7.03841
-91.7627 -104.02 -32.279
117.971 -18.2667 -82.9335
72.2436 -46.4329 -108.038
72.1698 9.02705 -109.252
210.388 49.3866 121.483
207.109 46.5546 58.1252
201.801 98.9923 86.5797
-100.745 159.635 104.178
-93.3654 163.152 132.589
-74.9211 179.201 114.494
-119.975 119.77 163.514
-108.865 142.493 149.1
-129.178 120.674 135.701
-51.6794 179.272 170.453
-81.5443 162.869 161.389
-67.7152 158.763 187.764
-122.085 9.43852 205.7
-125.783 34.9257 199.724
-137.393 16.9777 181.423
-93.1056 68.6944 230.747
-110.563 52.9677 216.624
-91.8558 38.8553 239.736
-139.888 74.1297 161.517
-127.398 65.9213 189.366
-127.403 90.936 178.549
14.1011 125.598 255.248
-13.998 116.299 254.818
4.76519 96.0993 267.979
-49.1725 147.909 216.243
-32.4984 134.114 236.825
-20.4736 160.723 219.581
-47.6737 69.4205 260.677
-41.6971 102.791 250.484
-66.8454 87.4623 243.359
-106.789 112.226 193.102
-88.3224 101.241 220.459
-79.58 132.231 206.175
-47.8845 194.298 116.279
-57.4566 189.496 85.1128
-22.4052 191.46 173.278
-35.9343 195.405 146.355
0.565568 209.539 85.471
-17.2953 204.97 116.644
12.9141 211.795 115.465
48.2023 125.225 255.729
30.5732 146.869 240.667
65.0787 180.064 201.717
48.3311 166.088 222.358
82.1504 159.63 220.101
12.2173 166.802 222.42
-4.24301 180.827 202.033
117.981 189.776 85.4662
108.394 194.47 116.066
133.734 179.176 114.307
48.2283 211.807 115.388
78.4126 204.995 116.496
60.3929 209.581 85.7853
112.571 178.806 170.229
96.8702 195.362 145.947
83.5493 191.063 172.658
11.6276 197.571 177.391
48.7496 197.03 176.897
30.3709 206.136 146.436
-46.4186 193 54.9051
-71.9266 177.785 57.4035
12.1073 207.486 55.9716
-18.0194 203.277 54.5119
-48.1514 171.835 4.57661
-33.9664 190.326 27.6943
-20.545 182.99 2.59179
132.757 177.031 57.748
107.215 192.087 55.9472
80.8909 182.494 2.45561
94.3384 189.327 27.7032
109.086 170.961 4.43937
78.2391 202.581 55.1945
48.5139 207.569 56.0882
14.4828 114.514 -71.9773
30.6116 135.322 -58.7858
46.9741 114.3 -72.255
-2.96043 169.451 -24.126
12.9667 154.434 -42.7004
-17.9787 149.362 -40.7831
78.7695 149.039 -40.8156
47.9906 154.416 -42.7563
63.6211 169.322 -24.1563
30.4367 201.068 26.0313
48.2602 188.231 -0.735229
12.5282 188.225 -0.652195
-87.4791 159.801 39.8387
-97.447 158.078 70.2521
-62.2386 150.798 -12.0893
-75.7435 157.178 12.2079
-120.338 117.085 39.0922
-100.458 138.171 23.6918
-108.884 115.559 10.5139
6.74824 84.2864 -86.4059
-11.6515 106.313 -72.3486
-57.5789 82.6379 -62.4947
-36.3172 95.3374 -69.2085
-38.5519 62.5491 -79.4198
-28.8823 124.115 -56.6976
-44.3213 138.17 -38.353
-122.906 12.2078 -6.63654
-112.58 31.5891 -23.825
-109.111 0.297805 -31.3491
-113.954 87.1653 -3.23588
-113.989 61.7665 -13.159
-127.719 69.5449 14.4517
-80.5228 33.1724 -59.8691
-98.0877 48.6158 -38.3733
-81.1672 64.7934 -50.5788
-71.6428 124.757 -29.4281
-77.9245 96.0988 -42.1632
-95.5118 107.116 -17.2679
-117.132 141.48 88.4202
-135.77 98.34 57.4456
-128.628 120.166 72.2314
-131.784 121.783 105.194
-142.056 100.842 120.304
-130.05 -13.8083 6.36391
-134.607 16.574 19.8165
-150.817 16.374 73.2783
-145.4 19.1456 47.7488
-148.213 -9.11883 65.8938
-138.523 46.4841 31.8251
-139.276 70.8312 42.1947
-146.424 16.0266 156.851
-144.123 -9.68439 161.753
-146.955 75.8425 135.837
-146.82 49.6103 146.825
-158.131 -15.1983 116.682
-152.191 12.3434 130.223
-152.821 11.3641 105.855
-146.325 75.5765 72.5536
-149.854 48.9558 87.9035
-148.067 77.8194 105.662
151.766 162.362 133.42
158.501 158.45 103.214
128.645 158.205 188.419
141.396 162.459 161.991
188.339 118.889 136.271
167.615 141.455 150.017
178.828 118.927 163.823
58.4202 96.413 268.936
76.8725 115.884 256.457
127.335 88.8034 245.088
103.786 103.5 252.869
108.812 71.2811 261.601
94.8412 133.354 238.596
110.944 147.148 217.493
195.671 19.8437 181.227
185.63 36.3663 199.88
180.707 10.3079 206.285
186.411 89.7545 178.589
188.103 63.9382 189.875
200.314 71.4932 161.107
152.583 38.8902 240.373
171.273 52.4669 217.377
153.19 68.9151 231.716
140.093 132.101 207.612
148.048 101.742 222.013
165.848 112.152 193.991
4.02915 64.5597 279.245
31.4305 76.9915 276.945
-47.4967 38.4233 268.659
-22.4379 51.2155 275.965
30.1142 18.9996 289.348
3.90679 33.3662 286.85
4.45056 8.68062 288.395
-118.248 -21.4223 200.957
-105.936 -4.48393 222.321
-66.6769 -36.9437 246.706
-86.7395 -20.7039 236.359
-81.3781 -56.9395 226.683
-90.3653 10.6319 241.047
-73.1755 23.5871 255.928
30.6015 -99.1359 253.733
6.33347 -86.336 256.321
5.65301 -117.925 246.08
5.4077 -19.9726 282.012
6.09441 -48.894 272.177
29.5058 -31.6875 279.475
-39.3697 -94.956 241.988
-18.3107 -71.5784 255.878
-40.71 -56.3302 254.196
-47.4677 9.52777 270.117
-44.5912 -20.7703 264.896
-19.5644 -5.22745 279.706
-145.032 -36.0891 150.118
-133.541 -34.2869 174.292
-152.796 -34.1024 109.405
-152.44 -35.1311 126.237
-122.568 -94.3417 153.379
-140.326 -62.9386 139.599
-129.785 -94.6835 127.505
-120.621 -40.7594 -8.79957
-129.915 -40.7408 14.7366
-123.48 -106.426 44.1337
-127.57 -70.6129 25.1139
-116.501 -98.2428 13.3372
-137.879 -37.1104 46.0779
-146.8 -34.695 80.0963
-91.3161 -199.403 95.5753
-105.705 -181.294 78.9316
-93.3662 -199.809 65.0975
-122.533 -133.652 108.463
-114.957 -158.462 93.0273
-109.13 -154.434 123.089
-109.769 -160.66 40.961
-115.912 -160.268 65.4231
-121.808 -139.614 57.7492
-140.533 -69.2212 92.676
-130.477 -110.59 72.0834
-130.894 -103.3 96.1354
-95.5131 -17.4451 -49.3734
-108.475 -32.6353 -31.9312
-59.0724 10.6361 -79.0854
-78.1416 -1.97611 -65.3856
-77.0808 -69.3562 -63.0217
-77.3986 -35.0412 -67.0602
-59.4674 -49.6514 -80.3557
30.5848 62.8272 -98.2413
8.6337 50.8479 -101.187
8.48618 -5.53327 -121.245
9.01447 18.9986 -114.455
29.464 4.60417 -120.957
-13.9719 38.7801 -98.84
-34.7297 26.3868 -92.1683
6.93109 -120.262 -92.2313
5.65242 -93.5947 -102.342
30.5342 -105.142 -99.8877
-35.7908 -67.3299 -92.5533
-15.7471 -80.6651 -99.8724
-38.1733 -98.3967 -85.0448
29.2825 -39.0772 -121.423
6.73751 -57.0429 -112.844
8.5654 -30.345 -121.384
-36.4687 -6.21528 -101.67
-14.3451 -18.0522 -115.329
-36.9675 -31.4007 -101.147
72.7319 105.811 -72.9779
55.0616 84.7195 -86.7567
[...]
POINT_DATA 642
SCALARS Mean_Curvature double 1
LOOKUP_TABLE default
0.00864344
0.00969258
0.0144428
0.0208993
0.00757925
0.00862278
0.0113294
0.00437384
0.0130969
0.00938828
0.0130247
0.00354105
0.0143186
0.00965353
0.0112583
0.0103727
0.0140609
0.0101591
0.0106403
0.00633782
0.00839244
0.00975138
0.00899686
0.0134327
-0.00353423
0.0132838
-0.000165997
0.00948413
0.0270338
0.0120198
0.010309
0.00905192
0.0123339
-0.00163891
0.0153086
0.016376
0.00294442
0.0165576
0.0133227
0.00988941
-0.00596978
0.0112313
0.0128804
0.0105041
0.0107694
0.0119316
0.0110485
0.00716342
0.0109352
0.00960484
0.00761374
0.0111319
0.00823116
0.0109252
0.0117961
0.00942914
0.0117036
0.0116057
0.0118835
0.0109118
0.01041
0.0124348
0.011689
0.00779045
0.0116272
0.0115457
0.00810991
0.00728277
0.0119188
0.00576538
0.00967
0.00678476
0.0130778
0.00291777
0.0103041
0.00173809
0.0153513
0.010897
0.00992088
0.0104495
0.011476
0.00982175
0.00904351
0.0115829
0.0148721
0.0108195
0.00666851
0.00851598
0.006691
0.00822509
0.0115696
0.0171587
0.00859806
0.00849074
-0.00354792
0.00931444
0.0183917
0.0177816
0.0129816
0.0065149
0.0161104
0.0120274
0.0132119
0.00977176
0.000267703
0.0118341
0.00968718
0.00988685
0.011738
0.00496945
0.00837778
0.00777826
0.0065175
0.00486888
0.0124172
0.00735784
0.0129282
0.000889658
0.00419504
0.00954732
0.0119505
0.0124727
0.0160204
0.00225107
0.0162985
0.00814375
0.0168107
0.0143896
0.0148858
0.0134919
0.0147898
0.0158955
0.0123524
0.00700896
0.0106832
0.0154909
0.0246484
0.0147549
0.00989407
0.0114219
0.00996836
0.00577978
0.0104319
0.00199683
-0.00331514
0.00978348
0.00781855
0.00794671
0.0101761
0.0129266
0.00438302
0.00842302
0.0138463
0.00875299
0.0149333
0.0098535
0.0112924
0.00842303
0.0111932
0.00411325
0.00707511
0.0128473
0.0105467
0.0113065
0.00938734
0.0113267
0.0109361
0.0118716
0.0107174
0.00985109
0.0103599
0.0125497
0.00929314
0.0147748
0.00965566
0.00775122
0.0121451
0.0126168
0.0086251
0.0135821
0.0115093
0.0109122
0.00869061
0.0104624
0.0102903
0.0113168
0.00788648
0.00855166
0.00838533
0.0108898
0.00978146
0.0104848
0.00948423
0.00750374
0.0120642
0.0121661
0.00735734
0.0071085
0.0120424
0.0108373
0.00780059
0.0113475
0.00973839
0.0103362
0.0116112
0.012569
0.00980948
0.0105037
0.00860919
0.0120827
0.00729272
0.00764923
0.0104982
0.0126996
0.0117815
0.0140764
0.0122991
0.00532936
0.0133123
0.0107163
0.00712437
0.0131892
0.0105937
0.0119405
0.0109648
0.0103769
0.0117266
0.0107678
0.0104775
0.0103803
0.0109929
0.00801002
0.00860874
0.00689316
0.00889015
0.011397
0.0100789
0.0111146
0.0107052
0.0104362
0.0116031
0.0105709
0.0120981
0.0114434
0.0102745
0.0069111
0.0108407
0.0112549
0.00866297
0.0110728
0.010712
0.00834791
0.00964076
0.00867326
0.0109241
0.00536064
0.0113896
0.0110334
0.00363106
0.0106205
0.00659592
0.0112708
0.00724973
0.00824508
0.0104181
0.00772044
0.00716966
0.0113777
0.011441
0.0114574
0.0121811
0.0107042
0.00983089
0.0114938
0.0158488
0.0100311
0.00382219
0.00809455
0.00928574
0.00759142
0.00678478
0.0106478
0.00839448
0.00957355
0.0162046
0.00857466
0.0349841
0.00608551
0.00169255
0.0129582
0.00422381
0.010599
0.0101595
0.00598089
0.01088
0.0105918
0.0123622
0.0107478
0.0104664
0.0101925
0.011926
0.00931207
0.0123425
0.00745228
0.0111559
0.0109884
0.00935627
0.010181
0.00988004
0.0102989
0.0111298
0.0116973
0.0121113
0.0100736
0.00874318
0.0114579
0.0100326
0.0105021
0.00957074
0.00614193
0.0100448
0.00781808
0.0110625
0.0130998
0.0186687
0.00528089
0.00882772
0.00831581
0.00741009
0.00633667
0.010972
0.014726
0.00577533
0.00266868
0.0133191
0.0108239
0.00929416
0.00717558
0.0122276
7.90324e-06
0.00766579
0.0123879
0.0080077
0.0116538
0.0111846
0.00948455
0.0105316
0.0163128
0.00506512
0.00917639
0.0012489
0.0075721
0.00700021
0.0012112
0.00724994
0.00612697
0.00154127
0.00366092
0.011842
0.013325
0.0157528
0.00933756
0.00744165
0.0055131
0.0131626
0.0142199
0.0140274
0.00401984
0.0131309
0.000944931
0.00896577
0.00937262
0.00151562
0.00423683
0.008747
0.00650872
0.00363749
0.00881813
0.00748566
0.0192079
0.0120211
0.0157648
0.00656588
0.00369973
0.0146071
0.0126138
0.00979675
0.00218492
0.00899389
0.0134284
0.0176727
0.00898211
0.0198412
0.0148146
0.0211431
0.0123902
0.00981355
0.00969699
0.0109943
0.0111513
0.00868072
0.0105142
0.00874567
0.00917745
0.0106908
0.0113157
0.0112518
0.00930751
0.0114314
0.010906
0.00431184
0.00990112
0.00461587
0.00871314
0.0109636
0.0092853
0.00543144
0.00746839
0.0108141
0.0116259
0.0121202
0.0112171
0.018159
0.0108399
0.0136348
0.00848233
0.00455332
0.00687256
0.0153395
0.0112511
0.00929405
0.00693424
0.00435557
0.00618147
0.0135756
-0.00491492
0.00556114
0.00950902
0.00940806
0.0125322
0.00603909
0.0103475
0.0133612
0.00437657
0.00568871
0.0122096
0.011784
0.0112848
0.0117349
0.0103513
0.0117053
0.00674333
0.0103054
0.0177752
0.0136938
0.0140468
0.0103166
0.0079081
0.0187068
0.00516808
0.000911376
0.0184464
0.0171426
0.0168725
0.0106632
0.0134702
0.0109641
0.0118959
0.0123486
0.0210087
0.0187807
0.00530928
0.0152081
0.0151944
0.0157062
0.0131871
0.0151965
0.0147913
0.0151399
0.0148893
0.0106887
0.0140376
0.0141514
0.0141573
0.0147299
0.0150621
0.0156602
0.0161328
0.0159617
0.0154245
0.0163225
0.00923311
0.0146073
0.00773599
0.0140192
0.0145648
0.00132391
0.00177649
0.00378112
-0.0017446
0.0158206
0.00917334
0.0104026
0.0138207
0.0142754
0.0179579
0.0115785
0.0146129
0.0090784
0.0216351
0.000101341
0.0156254
0.0145847
0.0122888
0.0138792
0.0137722
0.011356
0.00246721
0.0049413
0.00922093
0.0076119
0.00793671
0.0105207
0.00887828
0.00725903
0.0093245
0.0115319
0.00151944
0.00910283
0.00387713
0.023628
0.00488458
0.012108
0.00504329
0.0113192
0.00851577
0.00564558
0.0138418
0.000830549
0.00220335
0.0102957
0.00348408
0.0108702
0.00526091
0.00723752
0.00683634
0.0106719
0.0144597
0.0148723
0.00845869
0.0106194
0.00441909
0.00320827
0.00794582
0.000476094
0.00757219
0.00950084
0.0102824
0.0152992
0.013114
0.00847861
0.00856682
0.00894391
0.0158466
0.0147146
0.0076005
0.0124265
0.00771127
0.012369
0.00734565
0.0151018
0.011208
0.0142717
0.00799111
0.00603033
0.00968147
0.0113303
0.01061
0.00350747
0.00364547
0.00775894
0.013407
0.00241005
-0.00430646
0.013212
0.00487058
0.0112429
0.00940434
0.0133337
0.00203947
0.00918842
0.0126284
0.0122202
0.0147416
0.0122206
0.0183932
0.0155489
0.0151357
0.0070731
0.0130756
0.0104113
0.010006
0.00407941
0.000211836
0.00067749
0.00911818
0.00967026
0.0056902
0.00507488
0.00367704
0.00141232
0.0156244
0.0192202
0.00749809
0.00850478
0.000984768
0.0065386
0.00354906
0.00607744
0.0121373
0.0167902
0.0111019
0.0198403
0.0120973
0.0114817
0.000676066
0.0103642
0.0107696
0.0181305
0.00635694
0.00882973
0.00481176
0.0129164
0.0130334
0.00937165
0.0131819
0.00744259
0.0124663
0.0134545
0.00577818
0.0172653
0.011163
SCALARS CoVolArea double 1
LOOKUP_TABLE default
687.198
678.893
581.926
489.29
649.549
666.739
489.429
655.176
564.358
560.912
544.714
575.532
746.839
881.437
947.965
965.447
972.122
867.527
861.676
969.395
810.177
681.007
878.682
774.898
981.429
697.159
888.766
936.101
502.515
771.779
764.418
888.683
782.391
959.995
770.43
725.707
1009.36
772.806
828.549
785.407
1099.35
730.571
810.944
969.279
905.27
725.566
894.015
804.845
893.485
984.241
914.978
1033.93
970.114
909.779
989.165
950.692
1035.22
885.473
957.425
830.454
848.167
958.641
788.327
933.394
789.728
849.644
863.719
871.039
804.954
825.329
805.772
794.578
782.584
889.478
813.941
943.632
622.483
950.853
879.633
857.697
936.337
729.207
921.617
707.89
781.27
837.648
926.111
810.366
917.018
901.006
800
821.255
831.293
772.015
1244.28
759.745
710.834
621.411
818.811
772.673
709.914
735.197
674.655
783.464
854.811
810.737
827.652
826.289
839.683
810.017
798.122
802.019
755.379
974.092
783.034
899.065
786.883
942.204
907.547
910.003
773.232
930.48
846.668
869.256
774.432
925.336
840.436
759.41
913.938
741.616
739.717
910.287
873.196
1005.98
933.434
836.234
507.446
629.608
940.418
678.595
861.762
784.344
824.136
884.216
1051.45
777.258
734.137
955.313
776.353
800.763
958.863
976.877
841.28
991.606
809.5
926.54
852.261
808.342
767.94
830.29
787.804
784.145
830.014
879.973
875.301
889.409
856.467
773.352
895.544
904.973
986.542
688.915
785.144
707.218
922.724
815.907
753.273
708.244
798.67
827.505
845.764
889.072
860.496
978.974
893.133
880.77
902.709
909.78
973.225
1028.81
1060.54
1088.15
963.844
897.56
972.276
922.037
948.093
982.429
1027.85
844.504
933.763
996.029
935.978
907.592
912.506
959.097
863.679
926.516
869.157
1022.11
960.756
939.185
887.466
906.362
988.031
1113.12
1130.42
1172.48
874.218
845.863
1018.51
900.359
821.05
833.548
908.863
827.173
888.433
911.651
862.812
831.543
917.081
1015.98
794.744
837.559
784.008
903.536
834.455
780.409
784.711
832.244
898.386
1095.71
1036.85
1046.3
866.523
855.012
872.96
818.654
809.247
820.862
833.296
824.82
795.899
847.753
775.767
891.219
751.778
845.558
780.109
804.493
741.605
795.331
765.525
748.762
848.427
778.771
858.565
924.097
891.919
891.577
838.444
822.956
808.595
770.916
743.892
752.453
857.533
884.163
808.938
841.944
778.406
784.721
797.908
699.641
728.345
828.593
507.627
811.05
906.194
864.004
1029.93
850.974
898.48
885.077
972.536
886.769
796.352
856.329
896.468
833.252
854.627
935.328
843.085
863.679
874.691
969.207
707.22
743.979
680.845
874.07
784.502
706.893
744.964
796.517
929.347
1057.65
1043.31
1034.72
904.986
874.331
868.46
870.154
679.573
763.956
693.42
780.346
759.136
959.469
819.408
956.215
712.558
779.332
828.001
923.75
785.177
747.187
879.134
757.068
836.03
941.67
1009.93
869.619
960.149
834.163
698.854
760.277
645.662
544.834
855.847
784.573
1012.25
684.59
838.038
1047.79
1018.33
948.112
1056.04
999.679
709.503
693.346
672.728
940.032
743.923
840.673
581.011
610.396
712.734
1062.89
941.348
971.139
800.942
710.301
951.563
846.68
739.155
826.626
887.305
807.388
836.669
569.525
685.203
555.319
871.985
970.446
637.899
788.492
715.601
905.091
786.515
698.58
629.523
769.695
591.692
814.388
677.459
840.678
779.602
800.335
849.785
760.957
825.727
754.706
813.078
844.275
842.76
809.75
796.383
761.214
816.524
872.188
771.705
775.889
745.834
805.236
738.13
800.511
777.721
761.618
791.873
918.345
882.023
890.372
603.131
763.679
705.099
915.797
884.041
858.958
722.279
787.653
870.443
768.928
998.978
840.87
884.795
962.276
939.001
750.599
848.13
749.88
899.268
827.516
760.733
923.403
882.548
784.062
811.949
759.003
807.153
962.122
903.238
1072.09
855.572
706.952
846.201
840.973
914.997
913.051
927.886
911.686
914.011
718.446
686.813
703.485
756.487
801.967
821.685
861.364
776.161
883.161
837.496
948.643
710.992
771.585
802.267
979.292
939.022
974.512
770.291
674.839
1046.88
848.807
688.775
770.033
780.012
729.02
825.491
772.913
750.735
679.851
884.527
1069.02
662.579
976.08
688.641
892.983
1067.97
930.748
914.073
1091.12
885.287
1106.97
989.515
975.514
657.785
569.935
862.943
649.937
644.051
568.353
898.221
609.809
663.425
714.992
653.259
679.137
837.33
1033.47
705.463
712.813
733.576
1018.12
705.684
876.014
764.108
693.718
726.005
1187.13
1035.71
1149.44
564.897
941.523
570.93
741.892
872.817
763.842
845.078
799.069
952.74
770.16
877.937
1155.26
825.327
743.392
833.21
807.935
701.461
673.081
656.411
1080.89
914.43
952.769
916.862
1004.14
937.986
904.168
809.252
722.663
759.329
676.952
772.549
935.332
882.186
737.157
764.384
849.801
856.257
984.392
877.599
912.274
740.615
848.518
729.705
802.997
942.309
872.607
841.083
809.946
913.476
924.89
947.009
855.411
891.57
993.162
902.239
1120.89
950.233
1018.04
721.134
978.991
894.056
722.942
759.799
698.473
802.308
593.245
660.687
814.416
730.927
729.224
689.014
802.224
1027.23
1146.97
1162.18
1083.42
834.99
899.529
840.997
871.209
957.573
752.788
607.895
771.148
767.808
922.018
827.958
959.065
857.358
701.245
584.304
870.544
707.658
866.351
751.869
940.033
778.055
691.614
714.681
804.317
776.549
805.956
751.995
825.201
890.217
784.832
837.386
799.078
747.052
940.134
806.915
833.284
SCALARS SignedDistance double 1
LOOKUP_TABLE default
72.7713
72.9818
74.4493
76.0389
86.4121
73.9682
80.5175
83.7177
93.9691
89.8026
92.6373
87.8068
79.2529
77.841
67.0199
67.2548
67.6806
75.3368
75.1283
88.2755
86.387
94.2125
77.6274
79.2423
92.3776
84.0186
95.6535
89.2563
79.7875
87.767
87.4816
90.1043
90.0318
91.7714
80.0952
79.9782
74.0622
80.2766
83.2743
89.7042
96.5545
94.1322
73.7959
71.0378
68.713
83.9175
78.2909
83.1255
69.3721
73.0932
75.7512
67.2978
68.9406
68.778
65.4793
68.9516
67.3466
69.4066
69.9129
72.6257
72.8562
70.0739
79.8478
75.5646
79.7213
78.8975
78.3337
85.4972
82.3028
92.1524
87.7203
92.4309
82.6366
96.4061
90.9456
89.9367
87.156
71.9697
75.4508
75.5898
72.1267
85.2928
78.3733
84.473
79.8117
76.5286
89.1593
85.493
88.7612
86.8302
87.2444
94.3251
89.9158
94.4372
97.7167
84.5389
94.0707
85.4746
90.1172
91.6446
82.6283
85.046
82.1793
86.1608
86.3925
82.3346
84.8889
78.3228
79.0541
93.4757
87.8812
92.6722
86.9705
84.1032
76.9171
90.4075
90.2076
94.4986
85.0024
84.1309
87.1836
67.4715
66.3736
86.9425
78.6003
66.2343
64.9385
74.3959
69.2574
76.8823
72.9086
69.055
80.258
81.4319
80.4848
94.9088
91.4445
83.3584
84.8103
94.2369
90.7959
93.5902
92.0279
96.6021
97.9781
94.4408
89.6973
86.8822
85.5944
81.2923
84.1866
84.0098
89.1867
83.7698
88.4527
89.3213
91.5472
87.4586
85.7243
89.839
89.8752
82.2259
72.3993
70.3974
70.8069
73.7069
71.7197
75.7699
67.4934
69.5512
68.9638
86.4069
83.1147
86.6781
78.3931
80.7431
80.8144
83.5229
81.6017
78.5494
71.3599
72.8478
75.1864
69.6678
71.2168
67.7963
76.7624
74.5301
75.8767
74.1968
75.0745
71.5954
69.499
70.7755
65.6129
66.6226
69.2773
68.5241
67.7665
71.4453
69.5381
65.9853
67.5347
67.6427
67.2074
65.5362
70.7868
69.601
72.0281
67.7664
68.5309
69.2501
67.8305
66.7804
65.9256
64.3286
65.0145
67.7748
70.0458
72.573
69.9257
68.4998
73.6178
70.9594
72.4073
72.7399
70.7851
72.7156
71.5041
73.8456
69.2626
69.921
82.6298
80.3607
82.7906
74.8098
77.647
77.1958
77.2296
77.6799
74.8579
70.0313
72.3347
72.2788
75.1789
75.2631
76.344
75.2985
82.4718
78.6938
82.6902
83.9806
83.2177
86.6473
84.8167
87.1522
80.5033
78.3234
93.3417
91.447
91.3627
87.1909
89.7746
89.9982
90.1294
88.8034
87.5408
80.4928
85.1764
83.732
76.1152
83.9931
79.6496
77.5792
82.367
93.9396
94.3883
91.7279
92.8206
95.5126
91.7578
89.0074
88.4343
86.5847
87.4716
87.3374
92.9019
88.9552
92.5876
87.1418
90.5085
88.6491
72.563
74.3581
68.9936
70.2086
76.1543
73.0898
74.9153
74.133
71.534
75.8289
73.3532
76.3418
69.6511
68.8289
87.085
85.2448
87.3547
78.8174
81.7581
82.709
81.079
81.5497
78.1789
71.5786
75.4718
75.2599
75.3785
75.4287
79.2377
77.4765
79.5942
77.5961
81.7945
88.5737
87.223
88.0929
87.5368
90.8345
84.7434
82.7786
90.1419
90.8402
86.7625
85.4153
87.3888
86.489
89.5897
90.3549
89.7066
83.5169
86.0434
84.3794
88.1856
88.0892
93.5417
90.5157
93.0753
90.1839
94.5977
93.6552
95.1429
97.8369
95.9961
92.7373
97.0407
96.3944
79.9769
83.5646
78.257
91.9173
87.0203
86.5918
91.2555
88.4105
93.7844
97.5599
100.95
99.16
91.4182
92.1304
91.4539
91.4151
89.3138
90.4435
89.6531
84.7839
85.2422
81.8756
83.354
81.5717
87.1208
89.4043
80.8019
85.1287
83.3406
87.6395
87.0379
84.5745
82.087
85.6459
81.9867
87.6562
83.1427
87.7823
82.6124
83.8158
78.3359
80.3991
87.3632
84.3318
86.2727
75.1106
75.1698
83.212
78.8182
82.7557
75.3758
76.417
92.9978
92.6728
94.4328
88.0167
90.4128
92.3375
90.2184
89.6736
88.2531
80.6517
84.3519
85.4942
82.4915
82.3459
76.3537
85.6583
84.9786
86.6736
77.6027
82.429
83.1884
90.0527
93.0143
90.8537
91.3203
94.4893
91.2475
95.5194
95.4002
90.1254
85.137
84.4799
86.7475
84.3391
84.1568
83.4344
89.3554
85.4108
87.1815
85.7217
86.3871
83.6656
71.1459
70.2127
73.031
71.1743
69.3072
67.6835
67.6722
85.0812
87.5218
78.137
84.3981
84.7949
83.9536
78.2088
69.6437
68.7622
73.6115
64.8764
65.6603
70.2721
76.435
69.015
71.7904
71.9978
70.8147
65.2317
69.8541
75.2146
67.1577
66.7139
79.7039
72.0727
75.7069
71.9649
67.4132
73.4795
69.0879
76.0472
65.1511
67.1177
79.6642
80.0493
79.6585
81.1548
84.042
85.8711
85.9979
84.0193
81.3603
69.8122
75.3316
75.3531
83.3977
82.6777
87.7251
85.4414
95.5698
92.6571
97.6892
80.9458
80.7038
86.8019
83.6981
86.6706
82.2425
88.3381
95.0931
94.1024
94.0035
92.205
92.6865
93.7123
91.3639
92.1917
90.2708
91.7106
88.1516
92.4521
88.9848
94.4025
93.6283
89.3222
90.7793
94.8159
96.2552
95.5935
97.7012
96.1521
96.2621
99.09
90.2159
90.0598
96.774
93.9979
91.8066
90.82
92.2279
100.358
96.6633
98.4619
90.9697
89.2778
90.0574
87.7929
85.9605
87.7387
82.0756
84.7872
87.9266
88.2632
75.8494
82.2474
78.6552
76.9779
78.7705
86.0627
83.7189
84.8644
80.0532
82.8025
80.9826
84.682
85.3353
84.3652
87.1444
85.3986
84.6714
85.1911
89.7584
88.3479
92.8551
92.72
91.2175
83.6497
85.8463
84.6852
80.2765
88.3516
82.063
82.2446
84.5862
78.5805
94.1716
87.1363
80.6589
83.0702
93.0616
88.2192
90.659
91.7821
91.9234
90.638
92.2217
86.2607
92.7334
90.5212
92.4714
92.7207
92.6759
85.8318
83.1631
86.8359
88.2475
88.4983
85.637
90.3263
87.7568
83.5819
82.7882
89.3874
84.9711
89.0437
87.9732
91.1116
90.6666
87.1582
87.2122
95.3916
90.4042
91.5585
95.0388
93.1913
76.1138
81.9233
78.2816
79.8314
84.9349
90.3298
89.2294
88.3945
