# vtk DataFile Version 4.2
vtk output
ASCII
DATASET POLYDATA
POINTS 642 double
-30.7154 18.7552 -81.5885
-30.0117 18.7539 -81.5889
-30.5223 17.4673 -81.6287
-30.2182 17.4709 -81.6256
-30.3661 17.64 -81.2047
-30.3594 18.5159 -80.9897
-30.3718 17.6609 -82.053
-30.3632 18.4049 -82.1449
-29.9246 18.0166 -81.9369
-29.8788 18.0682 -81.2826
-30.811 18.0048 -81.9455
-30.8589 18.0594 -81.2838
-30.8761 18.4707 -81.3831
-30.6825 18.3297 -81.0498
-30.5775 18.7497 -81.2212
-30.1463 18.7473 -81.2205
-30.3616 18.895 -81.5894
-30.1692 18.6835 -81.9346
-30.556 18.685 -81.9365
-30.6246 18.2359 -82.1215
-30.8529 18.4422 -81.803
-30.9228 18.0299 -81.6038
-30.0463 18.3328 -81.0529
-29.8559 18.4695 -81.3831
-30.6305 17.799 -81.1597
-30.3619 18.0855 -80.9619
-30.7046 17.6135 -81.7846
-30.7193 17.6271 -81.4809
-30.3686 17.9849 -82.1834
-30.5748 17.7726 -82.071
-29.8797 18.4436 -81.7991
-30.1053 18.2427 -82.1162
-30.0212 17.6372 -81.4772
-30.1036 17.8078 -81.1609
-30.2735 17.4874 -81.4504
-30.4649 17.4836 -81.4545
-30.3723 17.4412 -81.6204
-30.4726 17.486 -81.8239
-30.2728 17.4872 -81.8252
-30.1632 17.7773 -82.0692
-30.032 17.6263 -81.7814
-29.8183 18.0416 -81.6037
-30.8078 18.6509 -81.4878
-30.7571 18.6383 -81.2904
-30.6712 18.7823 -81.4189
-30.8042 18.1873 -81.1649
-30.8053 18.419 -81.1967
-30.8886 18.2512 -81.3096
-30.4586 18.6435 -81.0663
-30.6479 18.5639 -81.1026
-30.5127 18.448 -80.9884
-30.4799 18.8665 -81.3897
-30.5737 18.849 -81.5899
-30.262 18.642 -81.0672
-30.3607 18.7877 -81.1945
-30.1504 18.8477 -81.5895
-30.2435 18.8658 -81.3896
-30.0543 18.7809 -81.4186
-30.4733 18.827 -81.7809
-30.6547 18.7539 -81.7545
-30.0706 18.7514 -81.7538
-30.2507 18.8261 -81.7806
-30.4462 18.5519 -82.0735
-30.362 18.7152 -81.9567
-30.279 18.5519 -82.0718
-30.7245 18.593 -81.8826
-30.7967 18.6375 -81.6885
-30.4836 18.3369 -82.1535
-30.6075 18.4839 -82.0529
-30.8538 18.2064 -81.8961
-30.7588 18.3582 -81.9882
-30.7447 18.113 -82.0408
-30.8925 18.4811 -81.5896
-30.8841 18.0159 -81.8028
-30.9212 18.2484 -81.7062
-30.9319 18.2631 -81.4886
-30.9058 18.0463 -81.4199
-29.971 18.6361 -81.2891
-29.9205 18.6489 -81.4883
-30.2091 18.4491 -80.9918
-30.0789 18.5618 -81.104
-29.8475 18.2569 -81.3098
-29.926 18.4185 -81.1969
-29.9306 18.1927 -81.1653
-30.5234 18.2154 -80.9678
-30.3605 18.3305 -80.9468
-30.774 17.943 -81.2076
-30.6794 18.0748 -81.0657
-30.3639 17.8228 -81.062
-30.5119 17.9398 -81.0271
-30.4767 17.6938 -81.1692
-30.8538 17.8159 -81.5245
-30.8272 17.8548 -81.3647
-30.7871 17.8163 -81.8881
-30.8411 17.7963 -81.7155
-30.5956 17.505 -81.5786
-30.7194 17.5962 -81.633
-30.5959 17.5015 -81.6876
-30.6089 17.9864 -82.1258
-30.7094 17.884 -82.026
-30.3654 18.2 -82.1892
-30.4803 18.0972 -82.1811
-30.4561 17.7005 -82.0719
-30.4721 17.877 -82.1491
-30.3707 17.7944 -82.1295
-30.1201 18.4849 -82.0482
-30.2442 18.3405 -82.1507
-29.9323 18.6346 -81.6891
-30.0033 18.5912 -81.8794
-29.9876 18.1231 -82.0334
-29.9728 18.3621 -81.9813
-29.8815 18.2141 -81.8887
-30.143 17.5126 -81.5735
-30.161 17.5325 -81.4585
-30.2422 17.4706 -81.5501
-29.9632 17.9514 -81.2068
-30.0427 17.7022 -81.321
-29.9142 17.8618 -81.3649
-30.315 17.5437 -81.3249
-30.195 17.5938 -81.3126
-30.2544 17.6987 -81.169
-30.3275 17.4513 -81.5448
-30.2897 17.4499 -81.6222
-30.4214 17.5407 -81.3273
-30.3709 17.4732 -81.4492
-30.4535 17.4487 -81.6236
-30.4155 17.4508 -81.5459
-30.4968 17.4671 -81.5528
-30.3258 17.4465 -81.7052
-30.2406 17.4649 -81.7026
-30.5021 17.463 -81.7049
-30.4205 17.4463 -81.7065
-30.3233 17.5733 -81.9698
-30.3737 17.4768 -81.8317
-30.422 17.5718 -81.9693
-30.1635 17.527 -81.8109
-30.1432 17.5078 -81.6831
-30.2865 17.7019 -82.0709
-30.2167 17.6088 -81.9705
-29.9502 17.8308 -81.8814
-30.0781 17.6929 -81.9448
-30.0243 17.8941 -82.02
-30.0202 17.6079 -81.6255
-29.8559 18.0283 -81.7959
-29.899 17.8133 -81.7104
-29.8881 17.8272 -81.524
-29.8325 18.0577 -81.4195
-30.2148 17.9433 -81.0289
-30.0508 18.0805 -81.0683
-30.2002 18.218 -80.9702
-30.5755 17.5242 -81.4629
-30.5401 17.585 -81.3158
-30.6958 17.693 -81.3224
-30.5259 17.605 -81.97
-30.5763 17.522 -81.8112
-30.659 17.6838 -81.9469
-30.1238 17.9943 -82.1229
-30.2661 17.8793 -82.1489
-30.2523 18.1023 -82.1801
-29.8048 18.2694 -81.4894
-29.815 18.2546 -81.7034
-29.8405 18.4796 -81.591
-30.758 18.7168 -81.5452
-30.7461 18.7217 -81.4503
-30.7008 18.772 -81.518
-30.8253 18.5591 -81.3358
-30.7903 18.6486 -81.388
-30.8482 18.5682 -81.4329
-30.6294 18.7759 -81.3177
-30.7166 18.7191 -81.3486
-30.673 18.7032 -81.2514
-30.841 18.1144 -81.2315
-30.8514 18.2244 -81.2328
-30.8761 18.1403 -81.2907
-30.7495 18.3771 -81.1158
-30.8079 18.3055 -81.1715
-30.7512 18.2602 -81.1027
-30.889 18.3632 -81.3409
-30.8545 18.3407 -81.253
-30.8481 18.4498 -81.2876
-30.4001 18.573 -81.0157
-30.49 18.5509 -81.0201
-30.4241 18.491 -80.9835
-30.6159 18.6657 -81.1552
-30.5562 18.6139 -81.0793
-30.5189 18.7045 -81.1356
-30.6011 18.3932 -81.0104
-30.5841 18.5077 -81.0364
-30.67 18.4496 -81.0669
-30.7882 18.5347 -81.2365
-30.7353 18.4973 -81.1441
-30.7089 18.6092 -81.1907
-30.6244 18.8254 -81.5007
-30.6602 18.7996 -81.5893
-30.5329 18.8167 -81.2988
-30.5813 18.8322 -81.3983
-30.4724 18.883 -81.5898
-30.5279 18.8694 -81.4919
-30.4209 18.8935 -81.4898
-30.3189 18.5726 -81.0166
-30.3598 18.6514 -81.0617
-30.2492 18.7767 -81.201
-30.3062 18.7228 -81.1249
-30.2035 18.7021 -81.1357
-30.4145 18.7237 -81.1248
-30.473 18.778 -81.2014
-30.0652 18.7982 -81.5892
-30.1004 18.8242 -81.5008
-30.0257 18.771 -81.5182
-30.302 18.8931 -81.4896
-30.1958 18.8684 -81.4919
-30.251 18.8822 -81.5894
-30.0951 18.7739 -81.3172
-30.143 18.831 -81.3982
-30.1906 18.8154 -81.2985
-30.4204 18.8392 -81.286
-30.3019 18.8386 -81.2859
-30.3612 18.8794 -81.3854
-30.6168 18.8092 -81.6766
-30.6927 18.7609 -81.6588
-30.4198 18.8723 -81.6881
-30.5231 18.8495 -81.6857
-30.6087 18.729 -81.8484
-30.569 18.7968 -81.7728
-30.5193 18.7635 -81.8637
-30.0334 18.7589 -81.6587
-30.1078 18.8075 -81.6761
-30.2052 18.7622 -81.8628
-30.1555 18.7951 -81.7722
-30.1166 18.7269 -81.847
-30.201 18.8485 -81.6852
-30.3038 18.8718 -81.6879
-30.3967 18.4711 -82.1188
-30.3624 18.5592 -82.0762
-30.329 18.4715 -82.118
-30.4622 18.7075 -81.9517
-30.4095 18.6402 -82.0203
-30.5003 18.6242 -82.0129
-30.2248 18.6236 -82.0109
-30.3149 18.64 -82.0195
-30.2622 18.707 -81.9505
-30.3618 18.8381 -81.7848
-30.3077 18.7812 -81.8739
-30.4162 18.7817 -81.8743
-30.7305 18.701 -81.7253
-30.753 18.7108 -81.6307
-30.6433 18.6477 -81.913
-30.6917 18.6813 -81.8232
-30.8311 18.5478 -81.7466
-30.7674 18.6195 -81.7886
-30.7959 18.5232 -81.845
-30.4149 18.3777 -82.1521
-30.4696 18.45 -82.118
-30.6204 18.3636 -82.0941
-30.5467 18.4123 -82.1111
-30.5539 18.29 -82.1439
-30.5283 18.5262 -82.0662
-30.5849 18.5922 -81.9997
-30.8336 18.089 -81.9285
-30.8033 18.164 -81.9755
-30.7868 18.0507 -81.9888
-30.8126 18.4056 -81.9001
-30.8136 18.2879 -81.9439
-30.8606 18.3266 -81.8537
-30.6902 18.1757 -82.0862
-30.7553 18.2361 -82.0231
-30.6949 18.3007 -82.0627
-30.67 18.5459 -81.9748
-30.6877 18.4279 -82.0259
-30.7479 18.4823 -81.9408
-30.809 18.6487 -81.5875
-30.8796 18.4683 -81.6982
-30.8514 18.5641 -81.6415
-30.8572 18.5704 -81.535
-30.891 18.4819 -81.483
-30.8457 18.0091 -81.8892
-30.8769 18.1143 -81.8496
-30.9307 18.1385 -81.6544
-30.9116 18.1304 -81.7542
-30.9111 18.0234 -81.7053
-30.8942 18.2337 -81.8047
-30.8949 18.3506 -81.7566
-30.9057 18.1506 -81.3645
-30.8829 18.0543 -81.3398
-30.9118 18.3726 -81.4332
-30.9161 18.2628 -81.3953
-30.9196 18.0376 -81.5076
-30.9266 18.1508 -81.4521
-30.9356 18.1452 -81.5465
-30.9151 18.3698 -81.6481
-30.9343 18.2598 -81.5962
-30.9212 18.3771 -81.5374
-29.981 18.7206 -81.4499
-29.9695 18.7152 -81.5461
-30.0531 18.7005 -81.2504
-30.01 18.7173 -81.3475
-29.8817 18.5661 -81.4329
-29.9379 18.6468 -81.3869
-29.9047 18.5576 -81.3347
-30.2954 18.4912 -80.9852
-30.2311 18.5505 -81.0227
-30.0583 18.4504 -81.0694
-30.1403 18.5073 -81.0396
-30.1245 18.3962 -81.0142
-30.1672 18.6114 -81.0809
-30.1091 18.6626 -81.1553
-29.8609 18.1489 -81.2901
-29.8839 18.2295 -81.2331
-29.8955 18.1216 -81.2307
-29.8839 18.449 -81.2873
-29.8789 18.3425 -81.2531
-29.8451 18.3646 -81.3413
-29.9804 18.2634 -81.1048
-29.9247 18.3071 -81.1724
-29.9813 18.3785 -81.1173
-30.0191 18.6068 -81.1902
-29.9947 18.4966 -81.1446
-29.9419 18.5333 -81.2358
-30.4371 18.3898 -80.9593
-30.3596 18.4408 -80.9654
-30.6065 18.2757 -80.9998
-30.5234 18.3339 -80.9706
-30.3611 18.2108 -80.9447
-30.4414 18.2728 -80.9489
-30.4402 18.1515 -80.9554
-30.8274 18.0114 -81.2486
-30.7943 18.068 -81.1778
-30.6614 17.9371 -81.1024
-30.7325 18.0057 -81.1325
-30.7075 17.8697 -81.1765
-30.7466 18.1367 -81.1079
-30.6863 18.2056 -81.0491
-30.365 17.7094 -81.1412
-30.4261 17.7563 -81.1086
-30.411 17.6595 -81.1873
-30.4379 18.0141 -80.9854
-30.4349 17.882 -81.0354
-30.3627 17.9528 -81.0009
-30.5507 17.7392 -81.1582
-30.4999 17.8086 -81.0899
-30.5776 17.8658 -81.0873
-30.6068 18.146 -81.0078
-30.5974 18.0073 -81.0364
-30.5209 18.0808 -80.986
-30.8735 17.9509 -81.3903
-30.8515 17.9738 -81.3158
-30.8974 17.9243 -81.5595
-30.8901 17.935 -81.4732
-30.7819 17.7327 -81.4206
-30.8437 17.8312 -81.4436
-30.7922 17.7119 -81.4978
-30.8059 17.9246 -81.9246
-30.8419 17.9115 -81.8495
-30.7742 17.692 -81.7578
-30.818 17.7994 -81.8052
-30.7531 17.7092 -81.8403
-30.8731 17.9088 -81.7579
-30.8923 17.9148 -81.661
-30.5498 17.479 -81.6096
-30.5972 17.5008 -81.6331
-30.5508 17.4778 -81.6518
-30.7213 17.6065 -81.5572
-30.6561 17.5414 -81.6018
-30.6536 17.5511 -81.5361
-30.6488 17.5436 -81.7319
-30.6543 17.5383 -81.6667
-30.7138 17.5978 -81.7077
-30.8532 17.8016 -81.6178
-30.7867 17.6851 -81.6708
-30.793 17.693 -81.5833
-30.7297 17.9954 -82.0407
-30.7705 17.9516 -81.9846
-30.6199 18.108 -82.1319
-30.6783 18.0508 -82.0918
-30.6427 17.8236 -82.055
-30.6623 17.9317 -82.0811
-30.5947 17.874 -82.1046
-30.364 18.3182 -82.1705
-30.4224 18.2655 -82.1784
-30.4201 18.0379 -82.1868
-30.4222 18.1453 -82.1896
-30.367 18.0879 -82.1923
-30.4858 18.2148 -82.1757
-30.5505 18.1658 -82.1616
-30.4066 17.6759 -82.0628
-30.4155 17.7464 -82.1047
[...]
POINT_DATA 642
SCALARS Mean_Curvature double 1
LOOKUP_TABLE default
3.31845
3.35988
3.79056
3.76188
3.23964
3.36407
3.87098
2.73797
2.54275
2.5765
2.59562
2.60502
2.80443
2.88972
3.40557
3.45961
3.55479
3.15291
3.15798
2.78771
2.69243
2.34427
2.9022
2.84812
2.71183
2.86358
3.28686
2.80422
3.19706
3.30329
2.74005
2.80047
2.80666
2.43977
4.49625
4.49421
4.02603
4.39382
4.4498
3.27088
3.19913
2.23887
3.00128
3.20648
3.38064
2.70457
2.91806
2.57291
3.37613
3.29558
3.23541
3.51749
3.43261
3.39045
3.49419
3.45333
3.54193
3.43224
3.38241
3.23194
3.27326
3.38768
3.04035
3.21665
3.01109
2.90758
3.0417
2.87962
2.90891
2.50563
2.60339
2.58476
2.7047
2.30648
2.23459
2.37721
2.25324
3.2562
3.09923
3.219
3.29536
2.49256
2.98701
2.67243
2.93655
3.00314
2.40271
2.73648
3.01839
2.7594
2.70635
2.35504
2.47931
2.67869
2.47497
3.39251
3.32469
3.99804
3.0054
2.945
2.81732
2.68639
3.59493
3.18025
3.39809
2.88338
2.90884
3.05633
2.95724
2.62312
2.5902
2.4666
3.31991
3.19641
3.6542
2.4937
2.59113
2.13998
4.04812
2.93225
2.7879
4.73111
3.79991
3.88427
4.8233
3.79064
4.57073
3.60648
4.21269
4.1681
4.20869
4.25199
3.58885
4.61977
3.81568
4.05903
3.9105
3.35518
3.50289
2.55066
3.20416
2.90597
3.08142
2.00531
2.40926
2.24813
2.40454
2.82961
2.78186
3.00365
3.12201
3.06924
2.7068
3.61872
4.05756
3.25767
3.02001
3.24458
2.70354
2.45355
2.52624
2.6781
3.21884
3.19095
3.34063
2.98884
3.13351
2.88127
3.41905
3.31879
3.34427
2.57168
2.67841
2.63985
2.92597
2.69305
2.84891
2.60063
2.59552
2.88447
3.4003
3.35048
3.31761
3.36262
3.37125
3.39263
3.11361
3.2744
3.14935
3.07813
3.13278
3.25235
3.41675
3.37177
3.46367
3.46081
3.51787
3.51065
3.56974
3.37005
3.31611
3.49508
3.47075
3.43601
3.43893
3.44075
3.43494
3.4497
3.41036
3.5734
3.52463
3.53063
3.45265
3.48982
3.49748
3.52974
3.52687
3.52869
3.37053
3.25464
3.47873
3.41597
3.20397
3.33861
3.28915
3.31798
3.41625
3.30961
3.369
3.21865
3.43867
3.47781
2.86273
3.11033
2.83379
3.20492
3.12636
3.07838
3.07831
3.12681
3.21354
3.40416
3.34299
3.33876
3.03374
3.15468
3.05569
3.07369
2.91454
2.84543
2.71743
2.66612
2.64159
2.69664
2.82556
2.82672
2.9045
2.98178
2.5076
2.58376
2.59508
2.67211
2.60004
2.50452
2.77641
2.60012
2.50729
2.93798
2.79277
2.77537
2.98981
2.68203
2.79521
2.86955
2.78731
2.45662
2.35171
2.16899
2.36587
2.28401
2.41601
2.48987
2.57972
2.5143
2.66492
2.53929
2.11126
2.46336
2.30332
2.31872
2.18399
2.60771
3.32099
3.25733
3.35366
3.35707
2.95854
3.20967
3.08557
3.29925
3.32986
3.15503
3.27459
3.10108
3.33468
3.35188
2.66624
2.69016
2.7188
2.89002
2.75498
2.63574
2.88551
2.83341
2.97225
3.28658
3.15297
3.13721
3.14396
3.24984
2.93557
3.02956
2.92614
2.89847
2.94589
2.54567
2.64425
2.51979
2.54543
2.67599
2.74488
2.86858
3.01338
3.01728
3.05114
2.66387
2.89207
2.76593
2.80372
2.88259
2.79418
2.83115
2.69605
2.75372
2.26047
2.42416
2.29266
2.35886
2.63477
2.32464
2.71273
2.64683
2.43602
2.8137
2.64832
2.82848
2.30984
2.28064
3.64984
3.68656
3.86966
3.07134
3.3954
3.15766
3.82926
3.7954
3.32942
2.37221
2.75862
2.69041
2.74613
2.66821
2.83944
2.67902
3.18896
3.01232
3.18383
2.95472
2.77859
2.70037
2.46703
2.84923
2.91441
2.98092
3.72442
3.56071
3.62089
3.27745
3.42832
3.50075
3.31212
3.32574
3.12679
2.87995
2.97231
3.10972
2.73904
2.7611
3.02777
2.863
2.85464
2.80817
2.67558
3.16314
3.06436
2.85445
2.91631
2.9015
3.049
3.02069
2.60806
2.56252
2.49214
2.49556
2.62341
2.74445
2.58975
2.61571
2.58855
2.96555
2.83488
2.72978
3.58748
3.48752
3.61865
3.05218
3.3447
3.12445
4.12243
3.57924
3.76941
2.54085
2.37118
2.47431
2.83464
2.44839
2.59346
2.53172
2.50307
2.76049
3.46011
3.06154
3.06442
3.69329
3.43558
4.40859
2.86221
2.79595
2.80852
2.97614
2.85161
3.16905
3.66395
3.78098
4.70639
4.16169
3.91471
3.81112
4.17484
3.37264
4.2458
4.73998
4.64186
4.35646
4.66438
4.77143
3.78194
3.63607
3.6326
4.09009
3.73486
3.83518
4.00182
4.03593
4.62217
4.88685
4.86221
4.97674
3.95056
3.92378
4.0122
3.9544
4.42376
4.16983
4.41173
3.95845
3.96524
4.4818
4.22674
4.3539
3.97721
4.03732
3.76956
3.70104
3.88439
4.48684
4.0113
3.87426
4.01318
4.11806
4.56643
4.3056
4.62001
4.52851
4.10545
3.78967
4.39395
4.35581
3.64414
4.10525
3.5548
3.69729
3.53884
3.41591
3.51027
3.30564
3.5359
3.85619
2.51778
2.75708
2.71246
3.13089
2.91152
2.78723
3.15502
3.03206
3.27007
3.72249
3.36123
3.42599
3.50983
3.2455
3.48529
3.12567
2.87418
2.32602
2.41308
1.89505
2.34442
1.80884
2.45174
2.64746
2.26372
2.54252
2.54638
2.35513
1.97289
2.11191
2.24464
2.41911
2.27274
2.54094
3.06803
2.76054
2.92699
2.92586
2.78107
2.69443
2.87383
2.77992
2.62576
2.65735
3.10823
2.96463
2.9795
3.04254
2.98406
2.76038
2.86435
2.85066
3.46243
3.8022
3.47182
3.24854
2.9633
3.04992
2.8853
2.93729
3.37521
3.74759
2.44155
2.77729
2.28092
2.59343
2.65712
3.29216
2.91269
3.07235
3.74335
3.79498
3.73521
3.66532
3.50777
4.15854
3.6899
4.17555
4.28844
4.27193
2.75204
3.25925
3.12821
2.93947
3.1947
3.5993
3.39849
3.46758
2.78465
3.16532
3.0047
2.8229
2.9001
3.38161
3.2301
3.22567
3.22196
3.28541
2.85682
2.97704
2.90089
2.64348
2.82572
3.14557
2.95277
2.89653
2.48531
2.23354
2.4751
2.53822
2.61342
2.35607
2.61071
2.46027
2.30403
2.36497
2.9488
2.77365
2.82159
2.8832
2.71567
2.26327
2.46646
2.49808
SCALARS CoVolArea double 1
LOOKUP_TABLE default
0.00472893
0.00469253
0.00115306
0.00119452
0.00376869
0.0048074
0.0020779
0.00428093
0.00473069
0.00467279
0.00486347
0.00467212
0.011196
0.0119169
0.012199
0.0120633
0.0129377
0.0108365
0.0109661
0.011041
0.0119641
0.0119528
0.0114307
0.0110642
0.0121991
0.01129
0.00878036
0.00894495
0.00584942
0.00752338
0.0113815
0.0108028
0.00855323
0.0117121
0.00390109
0.00369485
0.00210253
0.00464827
0.00494122
0.00778042
0.00916598
0.0115842
0.0100517
0.0120703
0.0106857
0.0102543
0.0119287
0.0100494
0.0108545
0.0126189
0.0107123
0.0133146
0.0109867
0.0105741
0.0127908
0.010901
0.0132477
0.0106405
0.0121298
0.0100764
0.00996429
0.0120934
0.00934861
0.0114244
0.00923834
0.0116901
0.0102896
0.00906399
0.0112866
0.0109233
0.0120258
0.010024
0.0119274
0.0111916
0.0127399
0.012144
0.00961658
0.0119091
0.0101655
0.0102738
0.012011
0.00969087
0.0116152
0.00982211
0.0119929
0.0101403
0.0108672
0.0125053
0.0103838
0.0125894
0.00912577
0.0114553
0.0100433
0.0100736
0.0124656
0.00427319
0.00858132
0.00413255
0.00942454
0.00887484
0.00726943
0.00812427
0.00495615
0.00673247
0.0051585
0.0109986
0.00893668
0.0100104
0.0112951
0.00987727
0.0115569
0.0104339
0.00429676
0.00584991
0.00255766
0.0105874
0.0102103
0.0101131
0.00554905
0.00790674
0.00893583
0.00225384
0.00189636
0.00549826
0.00339883
0.00185648
0.00211446
0.00241535
0.00280802
0.00282542
0.0026166
0.0027358
0.00487371
0.00482034
0.00486971
0.00660969
0.00434437
0.00498356
0.00678656
0.00980298
0.00915461
0.00902175
0.00865748
0.0106431
0.0120006
0.0112025
0.00974014
0.0123649
0.0119378
0.0117773
0.00586191
0.0080262
0.0105659
0.00661412
0.0061285
0.00896212
0.0097006
0.00698765
0.00827028
0.0116039
0.0120223
0.0115456
0.00772404
0.00986533
0.00796741
0.0116037
0.0108004
0.0107156
0.0115934
0.011135
0.0122372
0.00774929
0.00972842
0.00761126
0.0120282
0.0109094
0.0111625
0.010752
0.0107479
0.0115473
0.00809537
0.0103778
0.00803641
0.0124524
0.0116431
0.0117208
0.0115582
0.0116097
0.0123731
0.012855
0.0131772
0.0132346
0.0105068
0.00803451
0.0126765
0.011801
0.0122358
0.012114
0.0133316
0.0079611
0.0103152
0.0125004
0.0115112
0.0114716
0.0116021
0.0125837
0.00792244
0.0104041
0.00792796
0.0132849
0.0120329
0.0121926
0.0115429
0.011767
0.012646
0.0140287
0.0139825
0.0143922
0.00999873
0.00780066
0.0127396
0.0114902
0.0106167
0.0108264
0.0114494
0.00769522
0.00994124
0.0113584
0.0107877
0.0105096
0.0114714
0.0127272
0.00708814
0.0089542
0.0070357
0.0112554
0.0101536
0.0102517
0.0101286
0.0101109
0.0111623
0.0131298
0.0125255
0.0125803
0.00980479
0.00777724
0.011264
0.0106399
0.0112348
0.0109087
0.0119143
0.00690768
0.00896862
0.0113414
0.0101659
0.0101047
0.0101032
0.0110814
0.00822858
0.0101368
0.00776822
0.0120517
0.0113307
0.0116159
0.0107276
0.0110138
0.0116843
0.0122676
0.012453
0.0126756
0.00973919
0.0121135
0.0109348
0.0106874
0.0115044
0.0082993
0.0106703
0.0126255
0.011887
0.0119997
0.0117448
0.0124098
0.00951753
0.00741832
0.0115908
0.010794
0.010682
0.0107845
0.0121861
0.0132292
0.0134163
0.0128806
0.00992653
0.00778286
0.012033
0.0110792
0.0107635
0.0108429
0.0115347
0.00784779
0.00995721
0.0117246
0.01095
0.0110099
0.0111477
0.0120749
0.00745869
0.00938489
0.00756442
0.0113306
0.0103741
0.0104207
0.0106617
0.0104831
0.0115903
0.0128378
0.0127118
0.0126099
0.00996956
0.00786002
0.0120892
0.0111399
0.0106334
0.0107543
0.0115607
0.00795809
0.0100838
0.0128577
0.0116467
0.0119544
0.0111804
0.0120637
0.00723728
0.00960015
0.00650805
0.0119404
0.0113037
0.0112254
0.0107742
0.0112034
0.0126929
0.013151
0.0135756
0.013071
0.00930138
0.00769931
0.0116498
0.0102367
0.0101199
0.0103726
0.0105949
0.00788885
0.0104547
0.010833
0.0113446
0.0100984
0.0119672
0.0125418
0.00239281
0.00394749
0.00237718
0.00879846
0.00598927
0.00646241
0.00618838
0.00583309
0.00853859
0.0128336
0.0115229
0.011444
0.00910561
0.00747156
0.0104163
0.009941
0.00835711
0.00909552
0.00848176
0.00651286
0.00785952
0.0065655
0.00728724
0.00636584
0.00875502
0.00991639
0.00351309
0.0048453
0.00368382
0.00725056
0.00580925
0.00608376
0.00550977
0.00560175
0.00606825
0.00935748
0.00760603
0.00845682
0.00880473
0.00684359
0.0108535
0.00989283
0.00991598
0.00993434
0.0110331
0.00769318
0.0095903
0.0113886
0.0105188
0.0107032
0.0104098
0.0110327
0.00765155
0.00978628
0.00792654
0.011308
0.0106348
0.0105341
0.0110903
0.0108503
0.0115573
0.0118898
0.0121843
0.0120509
0.00244939
0.00313112
0.00189028
0.0071847
0.00482973
0.00628807
0.00305797
0.00371933
0.00467922
0.00788151
0.0101079
0.00784316
0.0110603
0.0109468
0.0114979
0.00988229
0.010358
0.00924939
0.0052098
0.00692448
0.00645403
0.00566876
0.00642688
0.00470229
0.0104196
0.0083957
0.0100871
0.00860199
0.00967964
0.00722676
0.00198459
0.00162746
0.00285361
0.00229611
0.001979
0.00196985
0.00203161
0.0052148
0.00515282
0.00338984
0.00426293
0.00455733
0.00433599
0.00355789
0.00157279
0.00188357
0.00181874
0.00198443
0.00187034
0.00196323
0.00286909
0.0021204
0.00264827
0.00284532
0.00274521
0.00227782
0.00208708
0.00195154
0.00234622
0.0021469
0.0037202
0.00266122
0.00370053
0.00185309
0.00199151
0.00350699
0.00249627
0.0034183
0.00210236
0.00234065
0.00346549
0.00464087
0.00346778
0.00481534
0.00516934
0.00535709
0.0052282
0.00513728
0.00467208
0.00301329
0.00388966
0.00395241
0.00329366
0.00246855
0.00561582
0.00424857
0.00656462
0.00516668
0.00780237
0.00350596
0.00453333
0.00712889
0.00560074
0.00623487
0.00551315
0.0062034
0.00765249
0.00896999
0.00741478
0.00948701
0.00951665
0.0100994
0.00863073
0.00895293
0.00838016
0.00763403
0.00845419
0.00887696
0.00403823
0.00890602
0.00602527
0.00598069
0.00854224
0.00796683
0.0100346
0.0118733
0.0113607
0.0113855
0.0109676
0.010926
0.00948731
0.00750072
0.010277
0.0103412
0.0107136
0.0103372
0.0113717
0.0115335
0.012325
0.011195
0.00951196
0.0122767
0.0109674
0.0112166
0.0118752
0.00972389
0.0115696
0.0106363
0.0111298
0.012312
0.00983313
0.0114895
0.0106851
0.0108643
0.0117232
0.0131253
0.0127519
0.0128776
0.00304351
0.00453289
0.00359297
0.00482946
0.0074381
0.0069963
0.0104533
0.00859489
0.00642799
0.00556078
0.0101175
0.00960864
0.0105471
0.0112512
0.0115017
0.00726326
0.00996931
0.00885551
0.00453
0.00592992
0.00544831
0.00554224
0.00696298
0.00308736
0.00734187
0.00479932
0.0038954
0.0051908
0.00906364
0.00815914
0.00882144
0.00951097
0.00921206
0.00723615
0.00847609
0.00819957
0.0091792
0.00879318
0.00934843
0.0100084
0.010462
0.00487006
0.00622949
0.00572615
0.00595111
0.00752439
0.00784333
0.00992803
0.00874832
0.00733492
0.00667073
0.00879212
0.00786097
0.00961089
0.00934773
0.0117899
0.0105756
0.010378
0.0112089
0.0101415
0.0117587
0.0111314
0.0112361
0.0119979
0.00970637
0.0113336
0.01066
0.0106216
0.0114955
0.0126995
0.0125403
0.0123427
SCALARS SignedDistance double 1
LOOKUP_TABLE default
1.20428
1.21771
1.178
1.18314
1.16735
1.2076
1.28883
1.14305
1.07132
1.06116
1.07508
1.05775
1.17884
1.164
1.24774
1.25774
1.25504
1.20385
1.20565
1.06422
1.08024
1.00022
1.17225
1.19042
1.02177
1.13595
1.0857
1.05182
1.1904
1.17481
1.07688
1.06555
1.06354
1.03581
1.28242
1.27981
1.28347
1.15731
1.13588
1.1491
1.06044
1.02168
1.21465
1.23366
1.2478
1.10252
1.1829
1.08977
1.22814
1.19969
1.19529
1.27651
1.24982
1.24587
1.28165
1.24455
1.27146
1.23828
1.25221
1.21452
1.21694
1.24816
1.17403
1.22464
1.17496
1.15817
1.13961
1.05906
1.13598
1.05469
1.0877
1.04203
1.14806
1.03559
1.00904
1.09823
1.05929
1.22384
1.22282
1.21457
1.21695
1.09404
1.17121
1.10166
1.15027
1.20783
1.05732
1.09775
1.07363
1.06003
1.08402
1.04139
1.01696
1.05804
1.03103
1.14214
1.05594
1.0967
1.11206
1.11168
1.12037
1.07831
1.24624
1.18477
1.2405
1.14434
1.06746
1.14837
1.14595
1.05649
1.08854
1.05248
1.15802
1.1872
1.24927
1.05656
1.02263
1.01479
1.24276
1.14537
1.09282
1.31026
1.23643
1.23287
1.30126
1.23783
1.30813
1.2415
1.20727
1.15461
1.16087
1.2171
1.23421
1.18425
1.25289
1.1022
1.10489
1.24227
1.1894
1.07739
1.14008
1.09062
1.04661
1.03559
1.02418
1.02027
1.07356
1.09
1.10144
1.149
1.19111
1.13172
1.01946
1.2155
1.1064
1.15361
1.08841
1.16544
1.08516
1.08193
1.0158
1.13327
1.19987
1.23771
1.21649
1.21813
1.24168
1.2059
1.25382
1.24744
1.23609
1.07475
1.08446
1.05432
1.17489
1.1329
1.12621
1.14685
1.14711
1.18856
1.20784
1.20835
1.20778
1.21777
1.2098
1.23614
1.19102
1.19584
1.19436
1.21287
1.20058
1.21618
1.23831
1.22264
1.27235
1.26406
1.26106
1.26033
1.25715
1.22012
1.24175
1.2709
1.26715
1.25628
1.2597
1.2679
1.22693
1.24191
1.22681
1.2582
1.26133
1.25813
1.24891
1.25541
1.26468
1.2882
1.2854
1.27116
1.23253
1.21034
1.26776
1.25358
1.21472
1.23614
1.23034
1.21328
1.22828
1.2287
1.23161
1.21609
1.24619
1.2649
1.16191
1.18117
1.15776
1.21923
1.19144
1.19111
1.1927
1.1921
1.2199
1.26592
1.2422
1.24328
1.17729
1.18412
1.18714
1.19045
1.1027
1.14517
1.11564
1.10159
1.12595
1.10574
1.0969
1.06083
1.15093
1.17261
1.06563
1.04866
1.08027
1.08718
1.06586
1.05593
1.04786
1.04782
1.08564
1.14761
1.12624
1.12195
1.17478
1.1059
1.14202
1.1825
1.16461
1.0642
1.04176
1.01342
1.0082
1.00934
1.02453
1.04109
1.06773
1.06472
1.14021
1.08835
1.00085
1.05945
1.04299
1.0968
1.07412
1.13047
1.23198
1.21613
1.24202
1.23778
1.21447
1.23297
1.21854
1.22407
1.22729
1.20361
1.21333
1.20041
1.23444
1.24032
1.05764
1.09834
1.07317
1.18894
1.14329
1.15284
1.13501
1.1377
1.1729
1.2178
1.20048
1.21128
1.21645
1.21446
1.15516
1.1868
1.16348
1.17401
1.13849
1.07209
1.08987
1.05369
1.07541
1.01197
1.10435
1.12519
1.11206
1.07782
1.137
1.11017
1.06389
1.08501
1.01454
1.05469
1.04346
1.12258
1.07947
1.11578
1.04187
1.05339
1.02274
1.02731
1.00047
1.04402
1.00712
1.05423
1.05274
1.06622
1.04304
1.08692
1.04387
1.02733
1.16503
1.10961
1.14152
1.04862
1.09052
1.11191
1.07424
1.06896
1.06647
1.03885
1.05023
1.03069
1.09301
1.07785
1.05722
1.08534
1.13979
1.11738
1.14496
1.09885
1.07501
1.14748
1.09475
1.15712
1.03636
1.04288
1.27276
1.25222
1.27523
1.18555
1.22232
1.21348
1.20245
1.22446
1.18299
1.09201
1.13695
1.14133
1.11134
1.10734
1.17314
1.15428
1.0643
1.09813
1.102
1.19379
1.18451
1.12071
1.14774
1.1143
1.18917
1.17895
1.07519
1.06276
1.07563
1.05997
1.04584
1.05296
1.05703
1.0462
1.09463
1.14894
1.1272
1.12992
1.17501
1.20741
1.21157
1.12065
1.18993
1.12512
1.27881
1.23999
1.24782
1.06406
1.04515
1.03313
1.00327
1.01055
1.02206
1.00907
1.0038
1.03171
1.20614
1.1702
1.14111
1.22743
1.20554
1.27126
1.02716
1.1047
1.04329
1.09219
1.0774
1.16304
1.24492
1.20658
1.3082
1.28525
1.26553
1.2775
1.3077
1.19688
1.25523
1.29657
1.2769
1.26162
1.28113
1.29695
1.20516
1.24255
1.20556
1.29969
1.27821
1.26646
1.2724
1.27927
1.30346
1.32328
1.31909
1.32378
1.19523
1.17055
1.25176
1.22308
1.14122
1.18023
1.16603
1.16943
1.19822
1.18084
1.1891
1.15311
1.22924
1.24772
1.28114
1.25347
1.27793
1.16171
1.20004
1.17536
1.19668
1.20667
1.18498
1.22666
1.1966
1.19411
1.13063
1.14857
1.11627
1.11971
1.06364
1.09873
1.07879
1.27578
1.25641
1.19268
1.22501
1.19514
1.21092
1.15277
1.05884
1.09503
1.07297
1.09568
1.12055
1.08891
1.11326
1.12634
1.15294
1.13348
1.16384
1.11311
1.1264
1.04163
1.06244
1.09583
1.06793
1.05494
1.02719
1.03045
1
1.02599
1.04916
1.06253
1.0413
1.04944
1.00638
1.01875
1.02298
1.03331
1.03418
1.01667
1.02508
1.00406
1.07879
1.06981
1.07671
1.07437
1.10697
1.07493
1.13034
1.10221
1.07608
1.06845
1.2075
1.13883
1.16269
1.17662
1.15999
1.10162
1.12981
1.12862
1.19558
1.2461
1.22916
1.17348
1.12181
1.15559
1.03304
1.09307
1.18852
1.22395
1.03502
1.05048
1.0076
1.02407
1.01616
1.17009
1.06801
1.1092
1.26547
1.17647
1.23488
1.23778
1.20794
1.13179
1.08918
1.09523
1.12394
1.13076
1.08983
1.16432
1.12521
1.11295
1.1178
1.15336
1.13431
1.18879
1.08182
1.11943
1.08477
1.08316
1.06343
1.24218
1.17641
1.20368
1.19636
1.15328
1.08177
1.04625
1.04688
1.10308
1.15466
1.12882
1.13974
1.09093
1.05554
1.03373
1.07109
1.0947
1.14707
1.05979
1.04639
1.04044
1.02941
1.01021
1.18472
1.17179
1.18337
1.13649
1.09844
1.04774
1.07326
1.12478
