# vtk DataFile Version 4.2
vtk output
ASCII
DATASET POLYDATA
POINTS 642 double
-57.4294 143.077 89.248
115.77 143.702 87.0293
-50.1684 -187.904 78.9365
109.706 -187.615 79.2243
30.6794 -105.728 200.832
32.2863 89.8417 228.882
30.5006 -107.369 -51.3767
31.3717 73.0131 -42.8984
135.369 -11.2142 11.9909
147.423 3.61457 164.529
-75.8762 -14.3191 8.18092
-91.0384 1.44733 160.523
-98.6542 84.8482 138.856
-49.0129 46.2882 217.82
-22.7225 145.494 177.346
84.3193 143.956 177.519
30.5457 176.918 88.945
79.934 132.912 4.83194
-19.2825 133.717 4.93407
-34.4848 39.096 -32.521
-84.6239 80.1648 43.7854
-103.785 -9.04433 104.82
109.046 47.3089 219.085
158.802 81.9169 138.229
-32.1899 -63.3504 192.747
28.5471 5.12016 243.21
-64.4344 -123.716 51.0436
-74.3227 -110.366 126.639
28.0231 -18.1245 -81.5643
-30.5067 -75.9174 -38.7336
145.128 82.0522 45.2569
93.7671 43.4757 -31.6324
135.05 -106.494 128.351
92.8534 -63.473 193.895
70.5661 -180.312 149.699
-10.5246 -186.173 150.315
29.6887 -213.56 91.2271
-19.5868 -181.482 19.8276
74.7476 -177.632 20.4766
86.8639 -75.7144 -36.309
117.869 -111.34 48.7669
162 -9.39729 95.1595
-85.7179 117.951 116.835
-70.6058 117.847 160.062
-45.5648 150.732 134.85
-74.5211 25.0823 193.873
-79.9927 71.48 180.75
-97.2943 41.4504 156.458
3.66669 122.476 210.076
-40.2506 101.492 202.236
-8.98194 70.971 229.316
0.84791 168.927 139.215
-18.2453 166.618 85.7016
59.046 121.099 211.809
29.472 155.006 182.989
79.2597 166.721 87.0919
60.1943 169.067 138.363
104.441 150.939 135.195
1.03685 163.696 40.1558
-40.5172 146.654 43.7339
101.946 145.111 43.6344
58.4628 163.585 39.7718
4.40221 109.323 -23.4001
30.4708 140.541 1.731
56.5545 108.844 -23.7855
-59.0698 112.437 18.9338
-77.6357 115.028 64.7333
-1.572 58.8685 -44.244
-31.7475 93.4408 -18.5019
-81.1319 38.4488 25.189
-63.4533 67.172 1.00476
-58.9683 13.8989 -12.9143
-99.1283 87.4648 93.8528
-88.2332 -4.80274 49.4631
-98.9968 44.0744 68.0088
-100.575 46.0517 119.236
-108.254 -10.9638 126.756
128.886 117.506 161.764
143.306 115.105 117.429
72.0724 73.5393 230.248
101.01 101.685 205.726
156.678 43.1653 154.995
138.945 69.9068 182.233
133.093 26.1688 195.794
-6.73026 22.3882 241.498
30.9142 39.3582 245.362
-67.6397 -23.7669 184.093
-44.5921 4.69852 216.6
29.7325 -46.1127 223.325
-3.93047 -20.8777 228.865
-6.08292 -92.1508 203.359
-97.1157 -47.1367 117.062
-90.7922 -45.8229 142.7
-72.897 -57.9217 17.8563
-81.6401 -61.6816 69.6066
-61.0485 -159.802 97.7495
-76.3144 -125.976 80.6632
-63.7537 -162.365 61.1001
-26.7493 -20.1677 -48.4476
-55.3304 -45.8624 -16.774
29.6187 15.9832 -70.8405
5.75479 -4.33088 -71.056
-1.07935 -94.9824 -52.148
4.44332 -35.3884 -69.2875
28.7177 -58.2724 -63.3072
92.5375 92.8864 -18.8884
63.7773 60.5607 -45.0283
138.775 114.288 62.2773
120.381 112.029 19.0048
117.905 18.5006 -10.3797
123.275 67.4517 0.745742
141.575 38.5529 25.8096
117.271 -158.954 94.4048
106.563 -145.973 139.025
91.6566 -189.586 116.673
125.133 -21.6059 186.583
119.964 -95.4993 163.647
143.098 -52.3967 140.923
52.7361 -146.889 173.08
89.4499 -118.973 179.748
66.7581 -92.5671 202.967
52.0974 -210.68 125.808
79.7716 -210.367 81.1944
6.5787 -152.426 169.185
25.106 -191.937 155.79
-18.5945 -210.486 84.4842
2.29197 -215.449 127.315
-33.5868 -193.804 120.649
60.2821 -206.636 43.9246
97.0104 -189.367 50.4573
-39.7439 -191.862 45.4702
-3.81517 -207.437 42.9687
50.75 -131.185 -31.689
29.1926 -182.734 15.7162
8.20475 -132.083 -30.3421
100.861 -158.894 36.4492
116.224 -166.569 68.064
58.4823 -96.4655 -51.6306
79.0714 -114.845 -26.3485
133.868 -57.5166 20.693
112.159 -86.2558 -4.61358
114.003 -44.4052 -12.6512
133.237 -120.638 88.7821
148.638 -1.62029 51.3836
144.091 -52.7262 72.723
154.455 -49.6004 110.376
161.429 -5.46528 127.204
65.557 -22.7733 227.159
106.908 6.005 216.7
68.6055 25.8942 239.273
-45.9551 -153.058 136.345
-29.0244 -121.238 178.131
-59.9976 -95.9627 164.77
-22.781 -116.093 -25.2249
-49.9579 -161.325 34.7451
-53.7318 -88.3889 -7.52889
85.2544 -18.8074 -45.2449
52.6012 -35.9776 -66.7567
52.5695 -1.41358 -68.9841
161.656 47.3836 119.28
160.121 43.5215 69.9487
160.275 84.5751 89.8897
-73.3236 132.058 104.297
-68.7861 135.233 126.368
-53.7844 147.369 111.686
-88.7665 100.741 149.061
-80.5107 118.695 138.532
-94.6819 101.758 128.38
-34.919 150.247 156.508
-59.0264 135.767 148.765
-47.5807 133.512 169.839
-84.8645 14.1481 178.423
-88.0992 32.5224 175.76
-95.5315 17.6398 161.465
-64.8969 59.1342 200.81
-76.9705 47.1663 189.439
-62.8592 35.6509 207.638
-97.7208 67.1886 147.466
-89.6508 59.1126 167.696
-91.6982 79.7058 159.26
18.3927 106.182 222.416
-3.71255 99.3165 220.971
11.7732 81.6961 229.993
-32.4491 125.477 191.497
-18.6179 114.082 207.249
-9.59324 136.124 195.205
-29.8406 58.7586 224.795
-25.5091 87.6752 216.906
-45.7713 74.1412 210.93
-77.9967 95.2641 171.526
-63.0091 86.3766 192.697
-57.0018 111.856 182.85
-32.0881 160.412 113.967
-39.5357 155.872 86.8002
-11.7146 160.517 160.251
-22.8926 163.02 138.939
6.71129 172.485 87.5668
-7.42962 169.17 114.337
17.0984 175.637 112.334
45.0491 105.422 222.923
30.692 123.662 211.135
58.1062 151.798 181.57
44.7579 140.01 197.036
71.764 134.078 196.361
15.4965 141.096 196.9
2.57431 152.901 181.886
99.608 156.448 87.2814
92.0158 160.957 113.634
110.747 147.942 111.133
44.0247 175.653 112.237
68.4988 169.199 114.172
54.0446 172.604 88.1567
95.5492 149.611 156.322
83.5434 163.089 138.304
72.9058 160.156 159.301
14.7717 165.951 164.376
45.0705 165.071 163.556
30.2394 170.07 138.503
-30.0725 159.889 61.7195
-49.1633 146.986 65.2209
15.323 170.16 63.2567
-9.22802 168.007 61.1254
-30.9032 142.008 23.9009
-20.3447 157.462 41.3128
-9.79368 150.909 21.7633
110.071 145.964 65.5752
90.7569 158.582 63.3151
69.6605 150.274 21.4424
80.3098 156.063 41.1144
91.9218 140.79 23.5489
68.8183 167.129 62.1843
44.8493 170.301 63.4268
18.2767 91.968 -33.0866
30.6453 110.504 -23.2979
43.6104 91.5085 -33.4021
3.43654 139.364 1.71853
15.962 126.344 -11.8427
-7.30924 122.394 -11.1022
67.9291 121.908 -11.2806
44.865 126.283 -11.9296
56.921 139.236 1.57918
30.3353 165.566 38.6435
44.6343 155.071 19.3208
15.8859 155.083 19.4287
-60.1341 132.394 50.9012
-68.3307 130.491 77.4492
-40.8061 124.706 10.8358
-51.414 130.218 29.3433
-82.5867 98.3997 53.6931
-68.5955 115.201 38.8167
-73.0049 97.3853 29.5649
13.8999 66.172 -45.7928
-1.31031 86.8221 -32.8329
-33.2901 69.4911 -24.5439
-18.3387 79.3796 -30.055
-17.2095 50.2672 -39.5007
-15.001 102.63 -22.0438
-26.766 114.096 -8.7614
-77.3878 9.11114 14.905
-71.7036 27.2496 2.72501
-69.3367 -1.95093 -2.5778
-74.8734 75.7086 20.0088
-73.24 53.9886 12.0504
-84.0846 61.3485 34.9948
-49.2217 27.1388 -24.0748
-62.394 41.3109 -7.6437
-50.6151 54.4702 -16.2558
-46.348 103.946 -1.40427
-49.0927 81.6886 -9.58467
-62.699 90.7698 8.62253
-84.9625 116.973 93.1343
-94.6958 83.7606 69.5216
-91.7519 100.453 80.9949
-95.4073 102.31 106.081
-99.5714 87.9388 117.92
-82.1299 -11.6924 22.9123
-86.7296 16.5437 38.5653
-101.562 16.541 81.077
-97.5573 20.4637 62.2883
-98.4531 -2.48192 77.3379
-92.4255 43.1312 50.0306
-94.5384 63.1871 58.0159
-100.135 13.9254 143.239
-101.269 -5.40722 143.95
-100.149 70.5243 130.075
-100.364 45.8714 138.591
-108.358 -11.9261 119.295
-104.473 7.10804 125.876
-102.523 6.92221 108.9
-100.126 68.2993 79.753
-100.838 45.9902 90.3468
-100.236 72.1824 105.857
125.197 134.089 127.954
129.495 130.616 102.018
108.291 132.713 171.243
117.964 135.429 150.306
153.52 98.9082 129.157
138.159 117.227 140.405
146.656 99.5524 149.575
52.7273 82.5145 231.504
67.8377 98.6497 223.172
105.056 76.2708 213.08
87.7071 89.1066 220.155
90.7576 61.5547 225.905
81.7686 112.689 210.349
94.5871 124.135 193.929
153.164 22.1443 161.42
146.114 35.5176 176.079
141.695 15.4336 180.117
150.675 77.1444 159.535
150.098 57.1158 168.511
158.951 63.8157 146.835
122.91 35.6226 208.717
136.99 47.1206 190.532
124.524 59.4101 202.412
116.585 111.811 185.383
121.347 87.1169 195.054
135.59 95.1432 173.078
10.6579 53.5174 240.631
31.9392 65.1049 237.612
-28.7014 33.7939 230.258
-8.96165 42.5544 237.375
29.543 20.7314 246.288
10.4975 29.0385 245.606
10.994 13.735 245.132
-80.9187 -10.4373 172.443
-71.6005 4.4493 191.471
-40.6951 -22.8109 209.675
-56.3816 -8.84701 202.217
-51.3479 -41.627 191.715
-60.1537 16.2626 207.338
-47.8834 25.0349 219.388
30.5521 -84.0478 206.823
12.7393 -69.7618 209.309
11.3709 -100.422 203.289
12.0226 -6.19706 238.429
12.7778 -31.9479 228.759
28.7344 -16.8845 234.665
-18.8096 -81.9427 201.521
-6.10529 -55.4774 211.797
-20.6312 -40.3444 213.557
-26.8055 14.6368 230.329
-24.2931 -8.42583 225.013
-5.16928 4.66873 237.688
-102.026 -24.7657 133.75
-93.7444 -22.9683 151.18
-104.023 -22.0533 116.575
-105.266 -22.5063 122.107
-76.7419 -78.3106 135.259
-96.9395 -46.2524 127.504
-81.0023 -78.2683 118.245
-75.1476 -32.9219 11.8776
-81.1532 -33.2579 29.2065
-73.4173 -96.2778 56.9967
-77.6354 -60.3323 37.5998
-71.0428 -84.8215 28.841
-87.2353 -27.9687 58.0857
-97.2347 -23.996 91.4059
-55.5421 -176.545 88.2217
-65.3395 -160.929 76.2772
-58.9387 -176.766 68.0792
-75.8116 -119.628 101.013
-72.3807 -140.922 86.7816
-68.6322 -135.815 110.096
-65.7661 -148.719 58.5177
-71.9999 -144.543 71.1984
-74.4973 -128.777 69.9707
-90.5482 -55.6037 100.966
-76.7302 -101.646 78.6008
-78.7109 -90.4419 94.3661
-58.6045 -17.2897 -16.6893
-68.0388 -27.7462 -3.73016
-28.332 3.40235 -40.341
-44.5638 -5.32474 -29.1749
-43.9311 -62.6812 -29.0761
-43.4699 -32.7474 -31.9921
-29.0552 -44.1637 -42.6798
30.5699 44.9763 -55.6293
17.5765 33.5158 -59.7746
18.1655 -12.5845 -78.9252
18.9925 4.84428 -73.0012
28.4949 -5.74603 -77.8813
3.82523 24.1845 -58.3279
-10.0536 14.6947 -52.687
14.2848 -102.551 -53.5242
12.799 -80.9279 -58.8566
30.3585 -91.9873 -57.2017
-12.0462 -58.8615 -52.635
1.13111 -70.0284 -57.623
-15.9889 -86.7954 -47.3517
27.9654 -27.6112 -78.6916
14.781 -43.5022 -70.1799
18.1002 -23.2181 -79.0731
-9.77346 -12.366 -63.5993
4.40427 -18.1763 -74.8225
-10.5602 -26.3729 -62.6446
62.6034 85.9498 -34.1731
48.6104 66.7151 -45.9365
87.9044 113.478 -8.99283
75.862 101.93 -22.5852
[...]
POINT_DATA 642
SCALARS Mean_Curvature double 1
LOOKUP_TABLE default
0.00835938
0.0105308
0.0245944
0.0533944
0.0115537
0.00543781
0.0130969
0.00314362
0.0199372
0.00747686
0.0192435
-0.0114964
0.0315137
0.0186842
0.016211
0.0131672
0.0220751
0.0129647
0.0146252
0.00909678
0.00738165
0.0153762
0.0161266
0.0290836
-0.0225597
0.0153965
-0.0130126
0.0176774
0.0866921
0.0114497
0.00775641
0.00976987
0.0241098
-0.0180416
0.0249599
0.0253508
-0.0152402
0.0292601
0.0190189
0.00900926
-0.0156438
0.0197136
0.0175346
0.0149956
0.0141075
0.0146012
0.0163166
0.0184205
0.0155354
0.0108844
0.00865386
0.0118564
0.0121956
0.0167347
0.0175829
0.0146508
0.0132396
0.015398
0.0175918
0.0145717
0.0143118
0.0199685
0.0178879
0.00687718
0.0177685
0.0183746
0.0103529
0.0106371
0.0198737
0.00355237
0.0104848
-0.000935712
0.0229018
-0.00334893
0.0144581
-0.00178944
0.053224
0.0152066
0.0111102
0.0100395
0.0153226
0.0116647
0.0131715
0.0144055
0.0290321
0.0159624
0.00697661
0.00943778
0.0122413
0.00936403
0.0210406
0.0324181
0.0159962
0.00874764
-0.00494922
0.00601262
0.0241468
0.0307388
0.0141854
0.00474594
0.0374152
0.0144493
0.0238186
0.0131595
-0.0125663
0.0190549
0.0195256
0.0137217
0.0196167
0.000957326
0.0100352
0.00635324
0.00418272
0.00690632
0.0196179
0.00828061
0.0165851
0.00196017
0.00331565
0.0164687
0.0199436
0.0205165
0.0318503
-0.00173032
0.0338218
0.0171465
0.0368881
0.0267149
0.0267677
0.0240892
0.0279539
0.023818
0.0234579
0.00564792
0.0205691
0.011435
0.0240989
0.0292576
0.0129994
0.0190183
0.0146137
0.00289147
0.0228852
-0.00216841
-0.00721819
0.0153252
0.0204181
0.0108109
0.0120646
0.0166888
0.004165
0.0150482
0.0184466
0.0136515
0.0183561
0.0134605
0.0102392
0.010067
0.0154517
-0.000149705
0.0175769
0.0288131
0.0165461
0.0182922
0.00986922
0.0199653
0.0154801
0.02446
0.0136475
0.0122162
0.0146651
0.0171945
0.0148351
0.0295511
0.0119015
0.00895465
0.0201005
0.014626
0.00651679
0.0204073
0.0184951
0.01481
0.00497442
0.0140891
0.0124694
0.0165377
0.00946983
0.00947501
0.010258
0.0156199
0.0123852
0.0148453
0.0106886
0.00881883
0.0179469
0.0206202
0.00593768
0.00622518
0.0175893
0.0149652
0.00778109
0.0162802
0.0103198
0.0135483
0.0138245
0.018885
0.013598
0.0139623
0.00797992
0.0176692
0.00621405
0.00638365
0.0129063
0.0220122
0.0182303
0.0247061
0.0196948
0.000506974
0.0208028
0.013839
0.00471971
0.0219973
0.0140612
0.0168005
0.0151985
0.0130961
0.0164901
0.0145786
0.0129598
0.0139574
0.0169016
0.00634482
0.00639943
0.00748845
0.00526808
0.0165037
0.0118976
0.0159631
0.0150327
0.0123406
0.0174736
0.016304
0.0165522
0.0155588
0.0144133
0.00557548
0.0162012
0.0180034
0.00867163
0.0163486
0.0134556
0.0164772
0.00981302
0.00587873
0.0121342
0.00522961
0.018373
0.0159588
0.000545636
0.0173725
0.0147265
0.0149434
0.00739781
0.00554144
0.0178362
0.013233
0.00983442
0.0163589
0.013373
0.0158389
0.0172056
0.0166525
0.0154747
0.0224874
0.0196316
0.0161372
0.0015309
0.0147626
0.0151003
0.00782787
0.0063801
0.0131486
0.000622898
0.0251511
0.00833407
0.0104145
0.0595183
0.0142641
-0.00647105
0.0178969
0.00267483
0.0023919
0.0112278
0.00529134
0.0162869
0.015445
0.0217427
0.0155561
0.0163248
0.0118282
0.0174507
0.00895564
0.0194973
0.00904142
0.0167697
0.0167614
0.0145098
0.00895304
0.0113394
0.0130751
0.0152829
0.0203795
0.0187235
0.0140901
0.0118463
0.0172189
0.0112123
0.0124629
0.0165025
0.00552978
0.0139013
0.00965093
0.0190507
0.0225396
0.0301504
0.00281954
0.00860702
0.0103526
0.00819855
0.0142649
0.0129503
0.0197363
0.00548986
-0.00804114
0.0198376
0.0137909
0.0148932
0.00476952
0.0265331
-0.00162148
0.014574
0.0142405
0.00990005
0.0119443
0.018254
0.0141375
0.000228243
0.0475459
0.00267297
0.0271981
-0.00170539
0.00979172
0.00912285
0.0013859
0.00438722
0.0137717
-0.000315427
0.00273818
0.0100657
0.0157153
0.0333509
0.0123445
0.0174958
0.0101823
0.00864526
0.0421624
0.0257344
0.0021034
0.00713945
-0.00535268
0.0121347
0.0157506
-0.00595904
0.0049482
0.0147319
0.0100097
0.000501319
0.00959101
0.0131071
0.0402456
0.0177609
0.0291328
0.00998496
0.00238296
0.0286337
0.0203512
0.0125026
0.00150853
0.00818205
0.0215046
0.0291262
0.0225197
0.0425014
0.0223899
0.051215
0.0173189
0.0132322
0.0154762
0.0164562
0.017487
0.0101289
0.0118423
0.00972909
0.010901
0.0159556
0.0155696
0.016968
0.0107945
0.0185428
0.0166552
0.00890338
0.0127842
0.00255635
0.0149057
0.0149183
0.00927661
0.00497305
0.0124973
0.00804624
0.0174589
0.0169573
0.0111103
0.0353577
0.00552434
0.0258372
0.0146145
0.00476286
0.0153306
0.0275546
0.00770542
0.00540444
0.0064281
0.00443349
0.00787355
0.0273407
-0.0214809
0.0141231
0.0149003
0.0093626
0.0198147
0.00813032
0.0184836
0.0207331
0.000470789
0.0115832
0.0140355
0.0250161
0.0168823
0.0161791
0.0180578
0.0204159
0.0131851
0.0155266
0.0366071
0.0267443
0.0274906
0.0166118
0.00835864
0.0386907
0.00784019
-0.00606145
0.0472658
0.00831705
0.0157675
0.00279755
0.0244438
0.0165141
0.0178963
0.0258615
0.0391858
0.031424
0.00118771
0.0262329
0.0287576
0.0316023
0.0201609
0.0245375
0.0266151
0.0278987
0.029699
0.0188367
0.0232632
0.0250272
0.0236777
0.0236868
0.0279358
0.0279066
0.030975
0.0325044
0.0296146
0.0301284
0.0167421
0.0235284
0.00891204
0.0222303
0.0211816
0.00394944
-0.00229675
-0.0133432
0.0039701
0.0213359
0.0139006
0.0124585
0.0181838
0.0417681
0.0617697
0.0154304
0.0330718
0.00127087
0.0125289
-0.00696181
0.0337937
0.0293318
0.0185249
0.0245948
0.016687
0.0181436
0.00906305
0.00303779
0.00969995
0.0111764
0.0138391
0.0159478
0.014355
0.00896485
0.0105745
0.0143294
0.0023963
0.0113348
0.00972482
0.028059
0.00928264
0.0138162
0.0141567
0.0193868
0.0137222
0.00637816
0.0182284
-0.00331129
-0.00486578
0.011826
0.00246907
0.018552
0.000577076
-0.00145392
0.0160327
0.00982777
0.0279706
0.0291126
0.00511007
0.0178554
-0.00219694
-0.00746082
0.0163941
-0.00169763
0.0098221
0.0102508
0.0119754
0.0250843
0.0191137
0.00971017
0.0113981
0.0133452
0.0242442
0.0252973
0.0120326
0.0218301
0.0104407
0.012842
0.00390685
0.0218234
0.00735967
0.0151942
0.00402578
0.00945714
0.0176165
0.0145113
0.0145881
0.00939202
-0.00186565
0.0104997
0.0243156
-0.00585602
-0.0118136
0.0247538
0.00983749
0.0193952
0.017976
0.0243737
-0.0047489
0.0169829
0.020844
0.0219346
0.0331738
0.00770144
0.0268051
0.0320532
0.019737
0.0061258
0.0174417
0.0124876
0.013214
0.00933746
-0.00387619
0.00542682
0.0140694
0.0142653
0.00996341
0.00384951
0.00473074
-0.00415526
0.0275792
0.0382882
0.0180047
0.00352941
0.000478927
0.011607
0.00322949
0.00918806
0.0194957
0.0300479
0.0137711
0.0407403
0.0154639
0.0229188
-0.000108979
0.00800134
0.0147097
0.0127105
0.00405137
0.00223471
0.00678894
0.013837
0.0226942
0.0136511
0.0230176
0.0113128
0.0239855
0.0230462
0.00460533
0.0178507
0.00394736
SCALARS CoVolArea double 1
LOOKUP_TABLE default
423.74
418.47
262.72
154.313
380.487
411.25
210.82
422.722
318.619
340.935
286.26
337.838
354.96
526.538
584.696
610.03
634.325
519.635
510.133
709.778
501.567
398.812
519.062
387.986
764.985
369.813
691.775
618.218
121.713
470.001
470.934
618.246
428.231
702.303
420.888
367.239
719.174
442.592
495.292
499.008
1011.88
410.02
457.798
597.062
576.629
415.42
544.21
490.138
561.087
644.394
623.555
670.826
654.383
575.159
599.838
629.318
669.682
556.661
582.243
493.424
516.518
585.194
476.646
588.323
477.658
476.537
551.627
574.048
453.246
596.608
489.182
532.683
403.52
680.509
496.008
735.459
236.049
578.82
569.187
544.148
569.031
418.501
572.766
397.085
390.27
481.859
703.229
497.595
673.881
592.425
488.536
442.218
544.976
508.687
1138.25
483.68
356.076
242.598
531.7
502.665
345.802
378.413
331.98
417.627
540.26
456.721
505.138
496.523
459.607
563.529
476.09
560.886
465.783
660.97
423.806
682.377
470.47
672.683
658.904
553.3
467.355
494.989
444.115
633.932
359.952
536.498
373.689
370.326
486.636
339.464
330.283
481.107
534.317
716.989
613.379
519.932
175.883
283.215
600.1
389.793
528.692
534.359
491.758
708.697
856.645
432.374
400.272
659.166
447.742
434.13
660.64
628.93
518.032
680.229
483.35
590.191
581.866
469.942
415.799
593.913
465.677
383.705
501.511
536.354
561.681
485.825
505.717
397.656
561.856
569.528
624.167
401.112
462.784
391.17
570.106
501.136
420.806
392.728
488.482
446.913
525.225
572.869
566.192
618.671
569.27
545.674
606.26
614.525
640.919
604.965
668.319
681.905
654.117
583.494
583.507
584.361
642.103
674.114
677.669
517.762
606.258
621.455
609.613
578.76
576.381
567.376
539.085
599.381
565.915
669.152
640.38
631.806
551.225
559.926
606.018
678.925
702.107
777.852
523.166
525.381
675.723
558.433
492.609
483.945
540.638
502.282
546.587
546.17
525.389
507.056
585.188
673.488
517.407
542.237
504.081
548.38
521.342
452.322
458.81
519.538
543.291
683.768
620.559
632.611
541.217
546.474
504.438
477.913
505.245
493.042
488.952
526.622
486.451
548.474
477.727
643.935
421.761
475.968
518.803
524.408
449.985
482.087
496.577
502.306
588.335
487.365
547.907
510.798
521.715
498.242
502.218
466.674
469.212
400.726
360.439
495.504
641.929
581.722
550.478
625.741
537.118
466.557
453.356
364.555
420.457
541.746
178.156
476.687
634.28
491.298
767.524
538.841
587.683
595.047
602.005
550.94
445.235
519.96
515.748
525.106
511.667
596.776
512.736
551.895
523.771
594.821
420.452
439.31
400.602
502.056
459.13
372.236
405.606
469.496
580.348
641.529
656.429
634.247
578.59
573.006
497.394
534.006
324.044
393.476
320.823
529.517
487.821
693.42
555.844
739.485
411.999
421.071
583.583
691.536
482.325
420.403
615.606
476.02
547.688
664.922
727.579
480.012
617.679
452.47
327.493
460.336
346.449
171.549
585.213
426.021
695.419
401.341
606.37
834.161
834.428
702.87
912.533
827.086
362.762
344.522
286.68
619.101
404.409
555.013
314.85
245.177
413.645
810.207
675.96
628.564
532.271
417.794
695.246
611.602
471.15
572.277
607.533
488.068
495.6
177.691
333.237
193.179
571.362
695.845
300.493
458.182
392.676
610.166
462.505
389.199
277.298
418.816
193.336
448.884
248.313
472.151
458.537
493.415
481.582
429.783
542.75
439.839
491.682
532.24
507.862
460.966
457.208
431.132
472.78
501.814
494.113
507.872
489.931
486.991
452.553
565.185
544.745
484.555
490.545
502.086
491.879
511.807
243.25
467.065
324.533
548.499
628.274
525.062
372.904
510.882
563.79
519.373
817.068
586.08
597.798
797.218
713.435
463.597
624.848
397.192
626.705
495.564
458.087
609.474
567.142
495.085
519.514
423.526
466.813
545.671
487.234
690.263
461.07
302.966
417.636
452.231
563.874
528.078
516.86
649.081
744.372
295.38
411.361
402.999
493.68
409.613
437.726
466.315
390.954
467.54
434.965
622.357
344.335
360.86
347.961
490.687
427.23
466.165
361.837
259.4
679.365
450.303
330.849
377.721
384.561
331.483
419.765
356.291
339.877
290.057
494.984
719.523
309.738
657.065
337.313
571.372
810.656
641.448
664.985
853.501
569.797
646.169
559.023
547.123
231.982
160.422
510.177
281.899
515.291
282.282
743.134
260.855
289.993
376.515
306.094
387.542
498.966
708.268
429.197
437.271
455.832
771.407
401.601
614.348
515.493
419.986
412.553
818.957
662.979
804.503
216.631
746.448
282.149
394.705
518.755
513.824
615.681
527.164
803.65
563.718
654.446
957.533
503.455
455.563
532.871
488.63
392.464
325.039
294.903
807.084
570.226
622.897
687.237
704.564
671.133
656.301
501.629
437.095
386.058
360.071
488.826
639.103
552.423
384.294
402.794
513.07
479.728
639.978
496.448
560.689
404.838
550.745
420.684
550.158
604.383
549.97
512.48
474.45
609.87
631.591
737.679
515.961
680.766
799.042
612.24
756.074
530.979
599.803
348.846
726.795
582.974
362.426
389.258
280.381
548.12
250.602
273.664
485.933
460.301
384.819
405.685
515.549
745.668
853.774
814.906
717.61
578.225
620.904
602.216
653.453
720.396
411.958
220.202
427.268
464.521
644.848
479.906
673.003
542.493
349.417
198.868
516.051
295.347
517.324
434.299
666.402
503.714
395.014
378.495
573.006
487.828
555.865
502.241
503.768
568.084
393.288
478.931
434.207
384.649
627.072
434.223
484.249
SCALARS SignedDistance double 1
LOOKUP_TABLE default
32.4814
32.3659
33.7086
35.6076
38.1757
33.4559
35.3417
36.7704
41.4689
40.1372
40.7066
40.4322
38.2098
33.5458
28.9563
29.3804
30.1715
32.8881
32.7243
39.74
39.5051
42.1002
33.5043
37.1993
43.6566
37.6501
46.0381
41.7346
35.5797
38.546
40.0439
41.3163
41.2763
42.5696
36.4764
37.6954
39.8434
37.5963
41.963
39.4621
45.9843
42.4787
32.4626
30.7864
30.4199
37.2058
34.6449
36.882
30.2396
32.3605
33.7288
31.4015
30.069
29.6085
28.4036
30.1033
31.539
30.7253
30.7727
31.6598
31.7518
30.5405
35.3905
33.4286
35.4637
34.4437
34.9646
37.7622
36.0809
41.5018
38.3681
40.8985
38.718
44.2324
40.2785
40.2368
39.8507
31.5718
33.1182
33.697
31.8303
37.7299
34.3687
37.6618
35.7055
34.7557
39.3646
37.6181
39.5012
38.3813
39.214
42.6485
38.7911
42.2781
44.2619
37.5089
44.2107
40.2049
41.1741
40.7885
36.3825
37.2312
36.0539
38.8095
41.2879
36.2088
38.0788
35.0666
34.5297
41.6713
38.3794
41.543
39.9348
36.9376
35.0841
39.778
41.2738
44.5254
39.7652
36.1419
38.9106
29.598
28.7161
40.665
37.9153
28.7834
27.4794
33.1872
29.8489
35.2923
32.078
30.5631
34.1889
40.2096
34.6474
46.4415
42.5858
36.99
36.9418
42.0324
39.9428
41.7546
40.6912
44.7093
44.4405
43.0784
39.8697
38.2104
37.5888
36.6063
37.0766
36.2785
40.7093
36.2859
42.9119
39.4327
41.6348
39.5398
37.4742
40.1238
39.5838
38.6645
31.4986
30.6179
31.2706
31.8868
31.3036
34.1221
29.4967
30.327
29.8184
38.4548
36.4378
39.2712
34.8137
35.7185
36.1516
37.4095
36.0708
35.7547
31.797
32.2669
34.3887
30.4439
31.463
29.392
34.0191
32.804
33.1824
32.5805
32.8858
31.0969
30.6825
31.2869
28.6066
28.645
31.4656
31.4729
30.473
31.8805
30.5024
28.6446
30.0926
29.514
30.1829
28.4867
31.115
30.4773
31.9247
30.4625
31.4985
31.4095
29.7282
28.7006
28.5481
28.3633
28.5163
30.7869
30.4795
31.9713
31.6976
30.6843
32.0274
31.0265
31.579
32.0582
31.1369
31.7942
31.3659
32.1214
30.3191
31.6728
37.5528
35.6783
37.5763
32.7118
34.2557
33.9094
33.8855
34.2901
32.7035
30.5706
32.0512
31.991
32.72
33.4787
33.083
32.227
37.473
35.0632
36.8156
37.2868
37.2537
38.4507
38.3082
38.7535
35.0114
34.008
41.8309
41.0181
39.9266
39.1673
40.1322
40.3523
40.8586
38.4884
38.1184
35.3305
37.8708
36.8001
33.5648
37.6807
34.6624
35.023
39.1867
41.538
42.6646
41.2997
40.947
42.9578
40.7939
39.8436
40.8353
39.0597
39.7984
40.0094
42.6171
41.4743
41.8746
39.7602
40.5049
39.8912
32.1693
32.8343
29.6939
30.4224
34.0206
31.994
32.5162
33.1033
32.1487
33.3732
32.5074
33.5763
30.1669
29.5117
38.5352
38.1236
38.8468
34.683
36.7055
37.3153
35.8743
36.4974
34.6214
31.1219
33.3011
33.3266
32.9928
34.1078
36.013
34.3616
35.7083
35.0364
36.5954
39.9104
38.6428
38.5788
38.4156
40.5111
37.2605
36.7973
42.5845
42.391
39.1226
37.9182
38.2848
39.1549
44.2003
42.1522
40.3048
37.2125
37.7493
37.5286
39.1668
38.4135
41.7811
41.9037
44.2609
39.967
45.5706
41.5527
42.2126
47.067
43.7981
40.6179
45.185
43.4744
36.909
37.6821
35.936
43.3077
40.0537
38.7198
40.2486
40.1132
44.9587
44.1762
47.2278
46.2471
40.0509
40.1833
42.172
40.9158
38.8451
39.7333
40.1398
39.1429
38.1514
35.9838
36.6361
36.396
39.0999
40.9456
35.7881
40.7455
39.0733
39.7149
40.0508
37.5119
36.149
39.7954
36.0168
38.9003
36.4391
39.5057
36.5632
37.623
33.9153
35.0821
39.6047
37.6016
37.9045
33.0796
32.626
37.4912
35.1764
37.8001
32.1932
33.0394
40.7153
40.8282
41.6579
38.5891
39.8151
41.0016
40.4191
39.7668
39.4094
35.4912
37.4712
38.0113
39.6218
38.172
34.5218
37.2426
37.7102
38.3137
34.6025
37.9397
37.5298
40.0145
42.0435
40.1271
42.8181
44.9348
40.5092
47.3527
48.0731
42.0451
37.2317
36.5442
39.0583
38.0555
37.3782
37.8869
41.5811
37.1791
38.5522
37.2837
38.0413
36.1041
31.5653
31.2125
31.7002
30.9363
34.5192
29.9235
34.6276
37.2406
40.6337
37.7631
41.6143
41.2611
39.7859
36.5538
30.9137
29.7432
32.7691
31.4884
30.2777
36.5183
34.4389
30.1649
31.8962
32.5689
32.244
28.3164
30.3382
34.4981
33.7193
28.9801
37.1911
31.6904
33.8679
31.8813
29.2729
32.8608
29.6424
34.1949
29.7968
34.3434
34.6855
34.6819
34.6671
40.0203
47.0939
47.499
46.4364
47.5074
39.308
30.5068
34.0024
34.1786
41.0083
40.4759
44.9559
42.2735
42.3358
42.9529
46.3853
35.8166
34.5328
38.3172
36.2949
38.5166
35.2294
47.7511
42.1157
41.8556
41.5995
40.706
40.3072
41.1284
40.3705
40.712
40.0047
47.5071
38.3637
44.0639
42.484
42.038
41.8919
39.9323
42.1647
41.9578
43.5789
42.1927
44.2232
43.1642
45.2413
46.0882
39.1151
40.27
47.786
43.1328
41.0516
40.0248
40.6948
47.6017
43.8854
46.4746
42.4232
39.5975
41.0867
38.7584
38.4938
38.6702
35.9292
37.1527
38.6259
38.6291
33.5271
36.7129
34.9861
34.4379
35.4009
37.5799
37.4133
38.2131
37.2832
37.5565
37.0503
37.6054
37.7131
36.4771
38.7863
37.2191
38.1952
38.8325
39.1399
39.9999
44.8021
44.7163
44.6417
36.6522
37.8843
36.1687
34.3184
46.2967
35.4411
35.3843
36.6552
36.5024
43.9385
41.5114
37.819
39.3389
41.2453
39.2146
39.9302
40.4207
41.1117
46.2393
44.4908
37.3176
40.6554
39.7085
41.014
41.4001
42.8117
40.253
36.578
40.5561
39.8491
39.1078
38.984
41.9155
40.1982
36.3851
36.4761
40.3347
37.597
39.6593
39.563
40.6197
40.7342
39.8445
39.9481
43.2327
40.4438
41.0337
42.638
41.4826
33.294
38.7336
34.7831
35.4043
39.201
40.3966
39.951
39.8957
