# vtk DataFile Version 4.2
vtk output
ASCII
DATASET POLYDATA
POINTS 642 double
-30.5391 18.492 -81.5743
-30.1949 18.4892 -81.5742
-30.4397 17.8296 -81.6114
-30.3036 17.8308 -81.6102
-30.3691 17.8834 -81.3834
-30.364 18.3694 -81.2683
-30.3717 17.9079 -81.8067
-30.3658 18.3041 -81.8957
-30.1134 18.0752 -81.7871
-30.0797 18.1082 -81.4011
-30.6219 18.0673 -81.7902
-30.6593 18.101 -81.4015
-30.6464 18.3505 -81.4635
-30.5377 18.2695 -81.2812
-30.4665 18.4828 -81.3927
-30.2645 18.4805 -81.3935
-30.3649 18.5466 -81.5716
-30.2662 18.4565 -81.7591
-30.465 18.4578 -81.7609
-30.5142 18.205 -81.8888
-30.6447 18.3334 -81.706
-30.703 18.0791 -81.5946
-30.1967 18.2715 -81.2848
-30.0914 18.3493 -81.4646
-30.5159 17.9554 -81.3438
-30.3654 18.1266 -81.2288
-30.5327 17.8778 -81.6842
-30.5519 17.8739 -81.5327
-30.3693 18.0617 -81.9038
-30.4724 17.9532 -81.828
-30.0922 18.3342 -81.7026
-30.2197 18.2097 -81.8857
-30.1875 17.8779 -81.5299
-30.221 17.9608 -81.3434
-30.3266 17.8312 -81.5273
-30.4159 17.8299 -81.5295
-30.3729 17.8232 -81.6084
-30.4156 17.8427 -81.6945
-30.3299 17.8436 -81.6953
-30.2673 17.9558 -81.8286
-30.2054 17.8825 -81.6841
-30.0351 18.0877 -81.5945
-30.5929 18.4453 -81.5237
-30.5629 18.4352 -81.421
-30.5131 18.5009 -81.4904
-30.6197 18.1815 -81.3356
-30.6047 18.3198 -81.361
-30.6713 18.2187 -81.4164
-30.4105 18.4311 -81.3128
-30.5071 18.3953 -81.3238
-30.4403 18.3354 -81.2614
-30.4191 18.5332 -81.477
-30.4657 18.5291 -81.5728
-30.3184 18.43 -81.3139
-30.3645 18.4969 -81.3826
-30.2654 18.5269 -81.5725
-30.311 18.532 -81.4773
-30.2198 18.4982 -81.4908
-30.4188 18.5213 -81.6685
-30.5115 18.4918 -81.6587
-30.2206 18.4891 -81.6576
-30.3115 18.5203 -81.668
-30.4097 18.3863 -81.8471
-30.3651 18.4708 -81.7684
-30.3212 18.3864 -81.8458
-30.5601 18.4145 -81.7402
-30.5928 18.44 -81.6304
-30.4324 18.2654 -81.9033
-30.5001 18.3513 -81.8422
-30.6551 18.1867 -81.7683
-30.5928 18.2799 -81.8155
-30.5849 18.1304 -81.8443
-30.661 18.3576 -81.5807
-30.6719 18.0714 -81.7139
-30.7003 18.2161 -81.6558
-30.7029 18.2267 -81.5222
-30.6917 18.0909 -81.4807
-30.1721 18.4325 -81.4219
-30.1428 18.4424 -81.5243
-30.2894 18.3357 -81.2641
-30.2258 18.3934 -81.3263
-30.0681 18.2232 -81.4176
-30.1322 18.3194 -81.3632
-30.1188 18.1861 -81.3374
-30.4529 18.2042 -81.2349
-30.3645 18.2724 -81.233
-30.6063 18.0335 -81.3613
-30.5465 18.1161 -81.2809
-30.3672 17.9718 -81.2914
-30.4499 18.0373 -81.2644
-30.4274 17.9058 -81.3591
-30.6466 17.9577 -81.5494
-30.6358 17.9806 -81.4543
-30.5955 17.9665 -81.749
-30.6308 17.9506 -81.6575
-30.4762 17.8373 -81.5877
-30.5434 17.8663 -81.6115
-30.4733 17.8406 -81.6368
-30.5003 18.0606 -81.8775
-30.5533 18.0045 -81.8208
-30.3672 18.1855 -81.9216
-30.431 18.1244 -81.9132
-30.411 17.9235 -81.8191
-30.4228 18.0046 -81.8753
-30.3708 17.965 -81.8558
-30.2325 18.3519 -81.8386
-30.3002 18.2675 -81.9013
-30.1424 18.437 -81.63
-30.1736 18.4128 -81.7371
-30.1499 18.1375 -81.841
-30.1421 18.2829 -81.8107
-30.0815 18.1929 -81.7638
-30.265 17.8395 -81.5853
-30.2695 17.8429 -81.5276
-30.3134 17.8283 -81.5761
-30.1323 18.0401 -81.3608
-30.1913 17.9058 -81.4397
-30.1033 17.9854 -81.4535
-30.3446 17.8473 -81.4577
-30.2814 17.8631 -81.4458
-30.3095 17.9082 -81.3583
-30.3528 17.8238 -81.5743
-30.3363 17.8256 -81.6091
-30.3966 17.8463 -81.4592
-30.3722 17.8279 -81.5279
-30.4088 17.8249 -81.6096
-30.3922 17.8234 -81.5748
-30.4294 17.8271 -81.5774
-30.3528 17.828 -81.6445
-30.3151 17.8325 -81.6434
-30.4294 17.8317 -81.6441
-30.3936 17.8277 -81.6449
-30.3508 17.8744 -81.7627
-30.3732 17.8409 -81.6974
-30.394 17.8738 -81.7622
-30.2793 17.8535 -81.6915
-30.2684 17.8424 -81.6353
-30.3316 17.9241 -81.8194
-30.3013 17.8859 -81.7664
-30.1405 17.9741 -81.7477
-30.2275 17.9151 -81.7644
-30.1826 18.0105 -81.8198
-30.1952 17.87 -81.6082
-30.0645 18.0799 -81.711
-30.1045 17.9588 -81.6557
-30.0909 17.9637 -81.5484
-30.0467 18.0994 -81.4803
-30.2834 18.0402 -81.2657
-30.1888 18.1208 -81.2836
-30.278 18.2061 -81.2373
-30.4707 17.8401 -81.5305
-30.4577 17.8598 -81.4487
-30.5476 17.9011 -81.4417
-30.4417 17.8842 -81.7652
-30.463 17.8515 -81.6908
-30.5118 17.9108 -81.7637
-30.2355 18.0655 -81.8773
-30.3167 18.006 -81.8759
-30.3047 18.1276 -81.913
-30.0364 18.2316 -81.5229
-30.0385 18.2212 -81.6535
-30.0766 18.3564 -81.5814
-30.5622 18.4758 -81.5534
-30.5543 18.4764 -81.5052
-30.5297 18.4981 -81.5395
-30.6074 18.3972 -81.4409
-30.5817 18.4423 -81.4715
-30.6219 18.4037 -81.4933
-30.4916 18.4963 -81.4405
-30.5379 18.4732 -81.4537
-30.5154 18.4638 -81.4048
-30.6465 18.1349 -81.372
-30.648 18.2029 -81.3732
-30.6682 18.1495 -81.4048
-30.5739 18.2962 -81.3171
-30.6148 18.2535 -81.3423
-30.5825 18.2274 -81.3044
-30.6637 18.2877 -81.4368
-30.6423 18.274 -81.3873
-30.6293 18.3378 -81.4107
-30.383 18.3968 -81.2843
-30.4267 18.387 -81.2844
-30.3949 18.3574 -81.2632
-30.4874 18.4445 -81.3561
-30.4586 18.4184 -81.3165
-30.4388 18.4607 -81.3494
-30.489 18.3059 -81.2669
-30.4755 18.3662 -81.2883
-30.5241 18.3362 -81.2981
-30.5863 18.3829 -81.3882
-30.558 18.3621 -81.3393
-30.5378 18.4191 -81.3696
-30.4897 18.519 -81.5303
-30.5098 18.5097 -81.5736
-30.4442 18.5121 -81.4327
-30.4675 18.5203 -81.4808
-30.4167 18.5421 -81.5721
-30.4422 18.5358 -81.5256
-30.3921 18.5449 -81.5244
-30.3452 18.3965 -81.2849
-30.3642 18.4342 -81.3115
-30.3133 18.4923 -81.3855
-30.3394 18.4675 -81.3463
-30.2912 18.4588 -81.3505
-30.3895 18.4681 -81.3459
-30.4164 18.4936 -81.385
-30.2228 18.5069 -81.5734
-30.2423 18.5165 -81.5306
-30.2039 18.4953 -81.5397
-30.3376 18.5443 -81.5244
-30.2883 18.5341 -81.5257
-30.3134 18.541 -81.5718
-30.2402 18.4937 -81.4412
-30.2637 18.5181 -81.4813
-30.2863 18.5103 -81.4332
-30.3918 18.5202 -81.4276
-30.3377 18.5196 -81.4278
-30.3647 18.5378 -81.4752
-30.489 18.5143 -81.6164
-30.5289 18.4948 -81.6089
-30.3923 18.5389 -81.62
-30.442 18.5301 -81.6196
-30.4901 18.4798 -81.7101
-30.4667 18.5093 -81.6659
-30.4434 18.4943 -81.7155
-30.2042 18.4919 -81.6083
-30.2426 18.5118 -81.6156
-30.2873 18.493 -81.7145
-30.2644 18.5074 -81.665
-30.2415 18.4778 -81.7085
-30.2886 18.5285 -81.619
-30.3377 18.5384 -81.6198
-30.3835 18.341 -81.8783
-30.3653 18.3898 -81.8475
-30.3476 18.3412 -81.8777
-30.416 18.4675 -81.7667
-30.3896 18.4332 -81.8097
-30.4374 18.4258 -81.8076
-30.2935 18.4253 -81.8059
-30.3408 18.433 -81.809
-30.3144 18.467 -81.7656
-30.365 18.5256 -81.6698
-30.3383 18.5014 -81.7191
-30.3918 18.5018 -81.7195
-30.5533 18.4693 -81.6465
-30.5619 18.4739 -81.5965
-30.5127 18.4408 -81.7519
-30.5358 18.4589 -81.7004
-30.6217 18.3936 -81.6675
-30.5806 18.4301 -81.6862
-30.6052 18.3784 -81.7248
-30.3937 18.289 -81.9009
-30.4234 18.3301 -81.8795
-30.5106 18.2814 -81.8721
-30.4672 18.3093 -81.8783
-30.4728 18.2376 -81.8998
-30.4547 18.3735 -81.8457
-30.4839 18.4106 -81.8038
-30.6395 18.1147 -81.7848
-30.6221 18.1603 -81.8115
-30.609 18.0933 -81.8144
-30.6233 18.31 -81.7636
-30.6285 18.2371 -81.7935
-30.6571 18.2626 -81.7411
-30.5529 18.1685 -81.8698
-30.5928 18.2047 -81.8375
-30.5557 18.2442 -81.858
-30.5327 18.3873 -81.7948
-30.548 18.3203 -81.832
-30.5805 18.3534 -81.7814
-30.596 18.4453 -81.5761
-30.6571 18.3499 -81.6441
-30.6295 18.403 -81.6079
-30.6294 18.406 -81.5489
-30.6569 18.3576 -81.5198
-30.6444 18.0687 -81.7615
-30.6696 18.1302 -81.742
-30.7094 18.1467 -81.6253
-30.6949 18.1408 -81.6864
-30.6929 18.0752 -81.6566
-30.6822 18.2052 -81.7152
-30.6774 18.2793 -81.6832
-30.6882 18.1556 -81.4471
-30.6752 18.097 -81.433
-30.6792 18.2941 -81.49
-30.6901 18.2262 -81.4662
-30.7017 18.0845 -81.5348
-30.704 18.1556 -81.4997
-30.7121 18.1517 -81.5582
-30.6876 18.2923 -81.6177
-30.7075 18.2242 -81.588
-30.6878 18.2969 -81.5513
-30.1803 18.4735 -81.5056
-30.1725 18.4728 -81.5538
-30.2176 18.4609 -81.4057
-30.196 18.4703 -81.4543
-30.1149 18.4012 -81.494
-30.1539 18.4395 -81.472
-30.1294 18.3951 -81.4418
-30.3334 18.3573 -81.2645
-30.3026 18.3864 -81.2865
-30.2098 18.3363 -81.3013
-30.2558 18.3655 -81.2913
-30.2431 18.3073 -81.2704
-30.2721 18.4165 -81.3185
-30.2445 18.4419 -81.3577
-30.0711 18.1564 -81.4051
-30.091 18.2072 -81.3747
-30.0926 18.141 -81.3725
-30.1084 18.337 -81.4121
-30.0962 18.2755 -81.3891
-30.0751 18.2888 -81.4382
-30.154 18.23 -81.3076
-30.1229 18.2551 -81.3448
-30.1622 18.2969 -81.3201
-30.1965 18.4167 -81.3712
-30.1774 18.3611 -81.3416
-30.1499 18.3812 -81.3897
-30.4032 18.3048 -81.2435
-30.3641 18.3322 -81.2512
-30.4971 18.2391 -81.2535
-30.4495 18.2734 -81.2438
-30.3649 18.2027 -81.224
-30.4074 18.2389 -81.2294
-30.4082 18.1664 -81.2266
-30.6402 18.0734 -81.3826
-30.6182 18.1085 -81.3422
-30.537 18.0326 -81.3035
-30.5805 18.0721 -81.3176
-30.5637 17.9925 -81.3477
-30.5857 18.1523 -81.304
-30.546 18.1961 -81.2747
-30.3683 17.9138 -81.3435
-30.401 17.9366 -81.3216
-30.3921 17.8911 -81.3725
-30.408 18.0827 -81.2406
-30.4064 18.0044 -81.2726
-30.3662 18.046 -81.2508
-30.4689 17.9265 -81.3487
-30.442 17.9631 -81.3065
-30.4869 17.9933 -81.3001
-30.5018 18.1612 -81.2519
-30.4989 18.0764 -81.2663
-30.4541 18.1225 -81.2401
-30.6691 18.0346 -81.4653
-30.6553 18.05 -81.4212
-30.6819 18.0166 -81.5684
-30.6789 18.0236 -81.5156
-30.5984 17.9178 -81.4933
-30.6435 17.9663 -81.5015
-30.6002 17.9082 -81.5377
-30.6145 18.0237 -81.7751
-30.6373 18.0141 -81.7355
-30.5792 17.9056 -81.6755
-30.6144 17.9552 -81.7056
-30.5669 17.916 -81.7171
-30.6595 18.0101 -81.685
-30.6754 18.0116 -81.629
-30.4528 17.8317 -81.6028
-30.4753 17.8382 -81.6127
-30.4523 17.833 -81.6212
-30.5483 17.8677 -81.5734
-30.5074 17.8483 -81.5974
-30.5091 17.8491 -81.5652
-30.5001 17.854 -81.6571
-30.5041 17.8498 -81.6276
-30.5381 17.8695 -81.6476
-30.6421 17.9512 -81.6033
-30.5885 17.8999 -81.6311
-30.596 17.9011 -81.5849
-30.5716 18.0636 -81.8372
-30.5943 18.0392 -81.8064
-30.5101 18.1294 -81.89
-30.5431 18.0955 -81.8666
-30.5115 17.9758 -81.8274
-30.5285 18.0303 -81.8511
-30.4877 18.0016 -81.8554
-30.3662 18.255 -81.9118
-30.3988 18.2239 -81.9168
-30.3973 18.0908 -81.9111
-30.3989 18.153 -81.9202
-30.3682 18.1197 -81.9179
-30.4345 18.1935 -81.9153
-30.471 18.1639 -81.9071
-30.3875 17.9137 -81.8124
[...]
POINT_DATA 642
SCALARS Mean_Curvature double 1
LOOKUP_TABLE default
4.99165
4.9767
5.00207
4.72546
4.7438
5.26197
5.59168
4.73254
4.71201
4.67214
4.78184
4.64164
4.3173
4.56057
5.3561
5.41471
5.67737
4.73954
4.69387
4.85002
4.49059
4.73076
4.57568
4.23498
5.01744
4.68167
5.26488
5.14638
4.63334
4.69409
4.51086
4.8666
4.94555
4.90826
4.00696
4.07436
5.65166
5.51938
5.51983
4.8569
5.07156
4.66213
4.69142
4.88937
5.20725
4.53296
4.34704
4.45985
5.33581
5.05271
4.92586
5.63394
5.19114
5.33646
5.51816
5.27969
5.66077
5.3283
5.11266
4.81205
4.88467
5.14208
4.45572
4.93999
4.51689
4.56836
4.73456
4.79353
4.5765
4.62936
4.53005
4.82813
4.22699
4.66818
4.54715
4.16988
4.48913
4.97231
4.57803
4.83711
4.97687
4.4252
4.42927
4.51295
4.6358
4.75973
4.73655
4.57611
4.93616
4.76896
4.78729
4.99642
4.93901
5.08892
5.10259
4.90038
5.2757
5.23021
4.69207
4.86513
4.8521
4.6808
4.9128
4.5544
4.96119
4.50629
4.76052
4.69837
4.61018
4.79644
4.54032
4.66454
4.64781
4.28994
4.36566
4.70071
5.05099
4.89243
4.20902
4.39376
4.74408
5.02986
5.07922
4.27173
4.04996
5.0861
5.19221
4.51076
5.5551
5.07651
5.30247
5.88225
5.56789
5.96126
5.65926
5.26561
5.08694
5.08921
5.12277
4.71484
4.95491
4.86294
5.13459
4.687
5.06191
5.00739
4.51853
4.74356
4.57607
4.72232
4.48163
4.52234
5.10047
5.06727
5.33883
4.93929
4.85337
4.69804
4.68356
4.23757
4.63028
4.26719
4.89677
4.93328
5.0399
4.50362
4.72537
4.49519
5.37114
5.10938
5.22372
4.59719
4.50243
4.59012
4.44374
4.42807
4.52594
4.26688
4.33265
4.28114
5.33959
5.21807
5.14911
5.25142
5.24417
5.3463
4.68974
5.00213
4.70002
4.5773
4.64891
4.99985
5.21477
5.05536
5.50038
5.43456
5.45772
5.43362
5.67801
5.32487
5.37442
5.52831
5.44542
5.39564
5.39371
5.41476
5.09945
5.3056
5.07348
5.71844
5.51706
5.49347
5.44414
5.52061
5.56884
5.65809
5.7041
5.77578
4.98592
4.92761
5.45414
5.16668
4.74987
4.90864
4.89533
4.9594
5.07555
4.92508
4.99175
4.81835
5.23721
5.47625
4.56671
4.57718
4.5934
4.81035
4.7161
4.59032
4.58758
4.71867
4.80824
5.30834
5.08099
5.07085
4.81334
4.88978
4.6306
4.69488
4.55204
4.66917
4.52169
4.77132
4.59002
4.64533
4.67779
4.84395
4.5171
4.58645
4.74867
4.7724
4.80324
4.50457
4.62521
4.54872
4.8632
4.75033
4.67997
4.59382
4.54109
4.47373
4.71626
4.33549
4.50769
4.48788
4.29462
4.70456
4.62423
4.60816
4.65574
4.70706
4.60974
4.48445
4.48743
4.57443
4.20738
4.35329
4.62067
4.37267
4.39892
4.21633
4.2492
4.12647
4.96778
4.85241
5.277
5.21087
4.38704
4.77331
4.51725
5.08745
5.12298
4.69194
4.90539
4.71306
5.18626
5.23979
4.60466
4.49159
4.59819
4.31425
4.34008
4.23668
4.49567
4.42613
4.49915
4.99361
4.68129
4.62952
4.80552
5.04536
4.62036
4.67118
4.71101
4.68059
4.66832
4.64699
4.59735
4.77781
4.62173
4.909
4.5413
4.56856
4.9329
4.89611
4.8036
4.67097
4.85213
4.80108
4.95379
4.89452
4.8937
4.58415
4.66419
4.60437
4.70873
4.66386
4.75626
4.76388
5.18558
4.97946
5.22536
4.91896
4.88832
5.27075
5.11341
5.19142
4.8206
4.80015
4.9391
5.08863
5.12149
5.23017
5.13062
4.98306
5.30862
5.24847
5.29219
5.04528
5.29022
5.26134
4.79404
4.87492
4.86824
4.79332
4.76816
4.78365
4.70869
4.85931
4.85005
4.59189
4.7608
4.68079
4.86858
4.92472
5.49492
5.02572
5.26344
4.64659
4.65283
4.74867
4.77617
4.76024
4.61561
4.70028
4.52588
4.61741
4.62889
4.77231
4.60278
4.5502
4.82895
4.66274
4.61714
4.85427
4.81757
4.53844
4.67399
4.56262
4.75987
4.70755
4.78596
4.7358
4.70286
4.7409
4.796
4.82518
4.62534
4.72652
4.51207
4.54072
4.40295
4.4114
4.69602
4.44632
4.53755
4.59557
4.44518
4.70249
4.23023
4.23567
4.05496
4.65418
4.80485
4.69602
5.01916
4.96627
4.82246
5.11604
5.08128
4.98037
4.47858
4.49677
4.81323
4.04808
4.18682
4.0519
4.86741
4.56135
4.85185
4.63626
4.73858
4.30127
4.76633
4.793
4.47125
4.71224
5.33412
5.08918
5.33302
4.53091
4.22704
4.1279
4.11337
4.11054
4.02576
4.00177
4.9461
4.67477
4.80257
5.63786
5.17246
5.69265
4.2872
4.54072
4.45795
4.66813
4.79541
5.30948
5.06893
4.84259
5.49806
5.31353
5.32886
5.34595
5.59139
5.14504
5.14486
5.71323
5.3997
5.44086
5.5664
5.8793
5.6201
5.74059
5.77441
5.75355
5.77116
5.60291
5.58791
5.8879
5.92204
5.84501
6.03034
5.7865
5.05758
4.88661
5.2723
5.19896
5.19948
5.22043
5.18427
5.36482
5.42171
4.99371
5.06481
4.86135
5.33628
5.33289
4.76565
4.75598
4.76918
5.01125
4.79597
4.85692
4.84833
4.78883
4.92668
5.25015
5.08691
5.1665
4.88542
5.18742
5.08299
4.88094
5.02155
4.65337
4.83001
4.81273
4.95967
4.71384
4.82867
5.02185
4.63428
4.61763
5.16471
4.97217
4.59778
4.74578
4.77221
5.2907
5.06575
5.27333
4.94423
4.74833
4.8382
4.88359
4.72506
4.59245
4.55122
4.54402
4.60187
4.66619
4.82082
4.7254
4.76692
4.75156
4.67635
4.61358
4.60639
4.65445
4.69095
4.2497
4.45889
4.68433
4.82766
4.49914
4.94108
4.67667
4.28291
4.21002
4.83198
5.08506
5.10903
5.01616
5.08718
4.43554
4.8325
4.76404
5.35967
5.36301
5.18841
4.91626
4.763
5.26719
5.29127
5.31213
5.38865
5.45121
4.98509
4.77869
4.88643
5.03762
5.15547
5.23811
5.16872
4.94116
4.83519
4.84344
4.90556
4.854
4.85493
5.02272
4.71341
4.85792
4.84924
4.78077
4.86937
4.90092
4.83304
4.79818
4.65973
4.73592
4.61715
4.77201
4.51648
4.50982
4.41612
4.36763
4.14366
4.57134
4.57296
4.59761
4.59196
4.63535
4.64251
4.15613
4.38912
4.50113
4.40643
4.43787
4.32444
4.13591
SCALARS CoVolArea double 1
LOOKUP_TABLE default
0.0014911
0.00144821
0.000265741
0.000280328
0.00126962
0.00151722
0.000549285
0.00168776
0.00196232
0.00206001
0.00197476
0.00206915
0.00485177
0.00493153
0.00384879
0.00375038
0.00382477
0.004067
0.00414865
0.00484374
0.00549594
0.00593065
0.00466324
0.00469821
0.00511509
0.00483111
0.00271787
0.00318863
0.00228879
0.00251266
0.00515442
0.00473948
0.00315922
0.00496921
0.00107915
0.00101228
0.000481181
0.00105626
0.00112819
0.00263092
0.00294786
0.00582259
0.00374186
0.00437147
0.00339702
0.00464773
0.00498991
0.004709
0.00345341
0.00450265
0.00386024
0.00390094
0.00335904
0.00334937
0.00381198
0.00328263
0.00384792
0.00330894
0.00397157
0.00351004
0.00341567
0.00393438
0.00375303
0.00415565
0.00370125
0.00482699
0.00400139
0.00382486
0.00481718
0.00515634
0.00549825
0.00437616
0.00536034
0.00516796
0.00635952
0.00599939
0.00466491
0.00421297
0.00369408
0.00368199
0.00422889
0.00447858
0.00475657
0.0043904
0.00502845
0.00388295
0.0049188
0.00562619
0.00420186
0.00543568
0.00341906
0.0050138
0.00450486
0.00391525
0.00512847
0.00115683
0.00277684
0.00103671
0.00378003
0.00341754
0.00306811
0.00338287
0.00144729
0.00242455
0.00167643
0.00467177
0.00375892
0.00382369
0.00460045
0.00433914
0.0052602
0.00492932
0.00120317
0.00181812
0.000650261
0.0048024
0.00408938
0.00460039
0.0017384
0.00276052
0.00338279
0.000548391
0.000440281
0.00171095
0.000897287
0.000427586
0.000514168
0.00060627
0.000615898
0.000644912
0.000590686
0.000597948
0.001218
0.001063
0.00121038
0.00168688
0.00112297
0.00147001
0.00185475
0.00395054
0.00297453
0.00353737
0.00292911
0.00502471
0.00515001
0.00504822
0.00473324
0.00532951
0.00532554
0.00489421
0.00177432
0.00274118
0.00413892
0.00178577
0.00153804
0.0028455
0.00391069
0.00252505
0.00344325
0.00567322
0.00594524
0.00510571
0.00262779
0.00335055
0.00251619
0.00460071
0.00397164
0.00433243
0.00367137
0.00376268
0.00409639
0.00349957
0.00444612
0.0034951
0.0049824
0.00481943
0.00490012
0.00493062
0.00482254
0.00490565
0.00255649
0.003465
0.00268948
0.00415366
0.00389214
0.00371649
0.00447529
0.00415388
0.00476293
0.00500096
0.00507215
0.00472821
0.00321151
0.00248791
0.00382382
0.00358121
0.00366462
0.00360245
0.00387608
0.00251089
0.00321031
0.00375786
0.00352645
0.00360307
0.003567
0.0038148
0.00240518
0.00312048
0.00244707
0.00384655
0.00353411
0.0036228
0.00358644
0.00351241
0.00376649
0.00410834
0.00407655
0.00414551
0.00321631
0.00257215
0.00392709
0.0036131
0.00386798
0.00364425
0.00402537
0.00248985
0.00314542
0.00396298
0.00358678
0.0037833
0.0035679
0.00390912
0.00283611
0.00354303
0.00281184
0.00413998
0.00390428
0.00402538
0.00395888
0.00388201
0.00408915
0.00423694
0.00429329
0.00432331
0.00357386
0.00270915
0.0044319
0.00404984
0.00481099
0.00438613
0.0051896
0.00281467
0.00370504
0.00498563
0.00434648
0.00437119
0.00417885
0.00448382
0.00363656
0.0045868
0.00327736
0.00554511
0.00530771
0.00555468
0.0047396
0.00502008
0.00525615
0.00515129
0.0054933
0.00557026
0.00368142
0.00551981
0.00457914
0.00439047
0.00508037
0.00358678
0.00500358
0.00636795
0.00584986
0.00581571
0.00574729
0.00598225
0.00455764
0.00343487
0.00541639
0.00521478
0.00531744
0.00536365
0.00616204
0.00635843
0.00669389
0.00611535
0.00328727
0.00258647
0.00395107
0.00365693
0.00425332
0.00388595
0.0044642
0.00262095
0.00331036
0.00445274
0.00388468
0.00422116
0.00369552
0.00397175
0.00339234
0.00422394
0.00338118
0.00470844
0.00456573
0.00469525
0.00460713
0.00454553
0.0047151
0.00450122
0.00480473
0.00479715
0.00367042
0.00272306
0.00502245
0.00436622
0.00438507
0.00431581
0.00490363
0.00358335
0.00459846
0.0057173
0.00531429
0.00526889
0.00507095
0.00527129
0.00267995
0.00373172
0.00229901
0.00515437
0.00473409
0.00479155
0.00427854
0.00457292
0.00542672
0.00572102
0.00599232
0.00567256
0.00435106
0.00349904
0.00550896
0.00487519
0.00415416
0.00462946
0.00418888
0.00317744
0.00442779
0.00386945
0.00453258
0.00356962
0.00532772
0.00578916
0.000587962
0.0010198
0.000564629
0.00298506
0.0017427
0.00198834
0.00169266
0.00162705
0.00267476
0.00544518
0.00422133
0.00435113
0.0037406
0.00297929
0.0044289
0.0041879
0.00301235
0.00357718
0.00312565
0.00267211
0.00329976
0.00265909
0.00307287
0.00264528
0.00372438
0.00422767
0.000969229
0.00148784
0.00107292
0.00250584
0.00188765
0.00189467
0.00198156
0.00191445
0.00228354
0.00381973
0.00298227
0.00320448
0.0036261
0.00278091
0.00435992
0.00407545
0.00428173
0.00423278
0.00483784
0.00262752
0.00343506
0.00488943
0.00415969
0.00450887
0.00390312
0.00429215
0.00326932
0.00444971
0.0035451
0.00508122
0.00485203
0.00466458
0.00525597
0.00506655
0.00526499
0.00494839
0.0053012
0.00528992
0.000617593
0.000826268
0.000460684
0.00241905
0.00142175
0.00200962
0.000809256
0.00102874
0.00136176
0.00354362
0.00457241
0.00357843
0.00457515
0.00478741
0.00510358
0.00416088
0.00445589
0.00356223
0.00170624
0.00238828
0.00229431
0.00174856
0.00211632
0.00138121
0.00419119
0.00308123
0.00393113
0.00304682
0.00360575
0.00237273
0.000477143
0.000378915
0.000730079
0.000569548
0.000455929
0.000468486
0.000478251
0.00170087
0.00157887
0.000903063
0.00121259
0.0013268
0.00123635
0.000950875
0.000361655
0.000448861
0.000436158
0.000466807
0.000443205
0.000450574
0.00075149
0.000523467
0.00067541
0.000713529
0.000688135
0.000549387
0.000475411
0.000450998
0.000523901
0.000484499
0.000839944
0.000593851
0.000812479
0.000421736
0.000449134
0.000767081
0.000553437
0.00076657
0.000471573
0.000521542
0.000893057
0.00114112
0.000890667
0.00107198
0.00120634
0.00127635
0.00123937
0.0011966
0.0010375
0.000654877
0.000839141
0.000853876
0.000785431
0.000600592
0.00133793
0.00100206
0.0018599
0.00131193
0.0022027
0.000972742
0.00121817
0.00217094
0.00159376
0.00196512
0.00143007
0.00153251
0.00317405
0.00352308
0.0030187
0.00304889
0.00345971
0.00371427
0.00315774
0.00324539
0.0027677
0.00199912
0.00248867
0.0025421
0.00107931
0.00291329
0.00174943
0.00181394
0.00302175
0.0035225
0.00439433
0.00565318
0.00523243
0.00562275
0.00457227
0.00408225
0.00447731
0.00346696
0.00420122
0.00471286
0.00536713
0.00499796
0.00550653
0.00441607
0.00542718
0.00442963
0.00371122
0.00527208
0.00450003
0.00469803
0.0051092
0.00440093
0.00499136
0.0047706
0.00505725
0.00547706
0.00360881
0.00484921
0.00426639
0.00422519
0.00481354
0.00576525
0.00549081
0.00554822
0.000784676
0.00129513
0.000974157
0.00137989
0.00242483
0.00238573
0.00399555
0.00310042
0.00208509
0.0016859
0.0045387
0.00359769
0.00445487
0.0048572
0.0046757
0.00232734
0.00362511
0.00305056
0.00120656
0.00145382
0.0014001
0.00155753
0.00208953
0.000722406
0.00201563
0.00118993
0.000906721
0.00122604
0.00346436
0.00264866
0.00312769
0.00335333
0.00287142
0.00187187
0.00237791
0.00237425
0.00381538
0.00327017
0.00371562
0.00424077
0.00445847
0.00150345
0.002345
0.00196256
0.00194879
0.00262083
0.00328581
0.00423379
0.0037161
0.0030898
0.00270055
0.00334608
0.00308564
0.00393036
0.00444436
0.0059445
0.00523195
0.00495587
0.00516145
0.00480384
0.00559179
0.00542348
0.00556058
0.00605324
0.0035954
0.00491925
0.00429407
0.00437027
0.00515607
0.006271
0.00593968
0.00578034
SCALARS SignedDistance double 1
LOOKUP_TABLE default
1.43128
1.43817
1.37663
1.36028
1.31967
1.47455
1.44773
1.32081
1.24379
1.23467
1.25581
1.24118
1.35881
1.35558
1.50397
1.51317
1.54315
1.4089
1.40838
1.25981
1.2595
1.18148
1.36158
1.35856
1.23366
1.33675
1.31411
1.25459
1.3573
1.37046
1.26466
1.25623
1.24163
1.2372
1.3639
1.36529
1.41579
1.41789
1.40385
1.3614
1.28546
1.19222
1.41437
1.45297
1.48508
1.28014
1.35744
1.2723
1.48487
1.44282
1.43015
1.54221
1.48771
1.49614
1.5389
1.4924
1.5437
1.4913
1.4844
1.41781
1.42336
1.48386
1.3596
1.45014
1.36065
1.34442
1.36253
1.28315
1.32056
1.22497
1.27026
1.25045
1.31259
1.21035
1.19807
1.25111
1.21337
1.45685
1.41179
1.43106
1.44929
1.27321
1.36049
1.28157
1.3489
1.41073
1.23337
1.28181
1.29371
1.27321
1.27795
1.21881
1.21133
1.27475
1.24243
1.33532
1.28763
1.35416
1.30241
1.30532
1.30339
1.28674
1.42721
1.37156
1.41815
1.31894
1.28561
1.36112
1.34816
1.25865
1.25765
1.23562
1.32019
1.30997
1.36842
1.23068
1.22209
1.20368
1.34734
1.28705
1.28163
1.40879
1.39456
1.34169
1.39092
1.39957
1.39919
1.3761
1.4161
1.37532
1.39704
1.41399
1.44484
1.4318
1.43898
1.35373
1.32536
1.42384
1.40199
1.24287
1.33373
1.28731
1.25656
1.19891
1.20758
1.19993
1.21666
1.28923
1.28821
1.3556
1.31741
1.29294
1.23241
1.40764
1.37568
1.34183
1.30445
1.36754
1.29397
1.24039
1.19976
1.30166
1.42322
1.45203
1.45334
1.40876
1.44072
1.39305
1.50619
1.48325
1.48254
1.25377
1.2753
1.25097
1.35522
1.31273
1.3147
1.31217
1.31143
1.35892
1.47584
1.46215
1.45945
1.47535
1.46794
1.49351
1.39543
1.43937
1.40109
1.40983
1.40878
1.4536
1.48552
1.45378
1.526
1.51558
1.52109
1.51827
1.54374
1.47984
1.49787
1.53019
1.51641
1.50741
1.50977
1.52182
1.46056
1.49354
1.46112
1.54781
1.52448
1.52261
1.51144
1.51927
1.53113
1.54501
1.54835
1.56133
1.45342
1.42371
1.5157
1.48772
1.41539
1.45144
1.44601
1.43024
1.4586
1.44783
1.45386
1.41943
1.49028
1.51796
1.33387
1.37836
1.33853
1.4337
1.40869
1.39083
1.38795
1.40942
1.43285
1.5062
1.4712
1.46951
1.38719
1.40267
1.37893
1.38114
1.31224
1.34921
1.30018
1.30338
1.3141
1.2827
1.29675
1.26722
1.33871
1.36662
1.23425
1.24026
1.25579
1.26242
1.24215
1.22843
1.25537
1.25016
1.26397
1.33845
1.30222
1.30101
1.38683
1.27931
1.33792
1.36792
1.34464
1.23936
1.21199
1.18408
1.1872
1.18701
1.19951
1.2246
1.24536
1.23311
1.30481
1.26735
1.18976
1.2234
1.2033
1.2499
1.22343
1.28344
1.45766
1.42784
1.48819
1.4874
1.38911
1.44328
1.41166
1.45994
1.4694
1.40542
1.44244
1.40007
1.48028
1.48582
1.24626
1.27487
1.25051
1.362
1.31491
1.31443
1.31986
1.3166
1.36092
1.45703
1.41121
1.41278
1.42158
1.4497
1.35384
1.38762
1.37248
1.37985
1.34289
1.2393
1.2561
1.24622
1.25314
1.22813
1.28368
1.31828
1.30532
1.28157
1.3018
1.30463
1.28029
1.30437
1.25161
1.26156
1.24767
1.3143
1.27391
1.30888
1.21268
1.22653
1.19781
1.19906
1.22106
1.21175
1.23202
1.26296
1.24379
1.27755
1.25919
1.29265
1.22242
1.20517
1.36133
1.3439
1.36789
1.27332
1.31132
1.29877
1.33468
1.32379
1.30196
1.23005
1.26364
1.25024
1.28151
1.27615
1.26356
1.27211
1.33618
1.30844
1.34191
1.30588
1.28601
1.3221
1.29268
1.32316
1.26998
1.26291
1.43943
1.42408
1.44054
1.37473
1.40448
1.40327
1.38968
1.3955
1.36114
1.29141
1.32712
1.33571
1.3176
1.30749
1.36626
1.33972
1.26505
1.29621
1.27443
1.40711
1.39236
1.30623
1.35084
1.31225
1.38552
1.38154
1.25689
1.24629
1.24218
1.25073
1.24392
1.25696
1.2345
1.23633
1.26421
1.33873
1.30288
1.29134
1.34531
1.34688
1.36405
1.27617
1.31505
1.28337
1.36641
1.34295
1.33938
1.23307
1.21224
1.22313
1.22274
1.21107
1.22948
1.20683
1.20507
1.2301
1.33668
1.30977
1.30864
1.32991
1.31922
1.35666
1.25573
1.27929
1.24886
1.26312
1.25157
1.29867
1.38297
1.37543
1.38793
1.38861
1.41389
1.4028
1.41936
1.3271
1.35704
1.37789
1.36919
1.35452
1.38137
1.38661
1.38976
1.391
1.37633
1.40847
1.39939
1.40706
1.37212
1.38921
1.38395
1.40787
1.39535
1.41043
1.38531
1.36628
1.42247
1.40503
1.38775
1.39598
1.40848
1.3856
1.40109
1.41442
1.40845
1.40713
1.40728
1.41406
1.45436
1.44893
1.44544
1.42593
1.44337
1.4227
1.42636
1.43422
1.42444
1.42105
1.4211
1.42872
1.35252
1.34696
1.38072
1.3647
1.30378
1.33694
1.32211
1.4467
1.43662
1.3863
1.41336
1.39713
1.42457
1.40175
1.23589
1.26355
1.25994
1.30879
1.2934
1.26798
1.32263
1.30978
1.35126
1.37628
1.37077
1.34601
1.32197
1.26436
1.29314
1.2895
1.25159
1.2252
1.20756
1.1942
1.1885
1.19199
1.21947
1.24435
1.2141
1.2323
1.21302
1.19582
1.19356
1.19625
1.20103
1.22587
1.20577
1.22274
1.28897
1.2602
1.27304
1.29011
1.31353
1.25707
1.32284
1.28602
1.25664
1.25569
1.42086
1.34904
1.3821
1.38979
1.36083
1.28943
1.32426
1.32145
1.35719
1.3444
1.35078
1.32624
1.28572
1.30832
1.2535
1.28106
1.32298
1.33422
1.2186
1.24059
1.216
1.21872
1.2298
1.30532
1.2599
1.27179
1.43572
1.41448
1.42977
1.42048
1.39193
1.37762
1.34721
1.363
1.38683
1.39981
1.28979
1.35696
1.32221
1.30802
1.32656
1.38965
1.36061
1.37704
1.27688
1.32771
1.29977
1.27587
1.26972
1.4281
1.36764
1.3986
1.39729
1.36497
1.29156
1.26776
1.27497
1.30086
1.33071
1.33339
1.33303
1.29638
1.24811
1.20205
1.22148
1.26682
1.29691
1.22111
1.22735
1.21662
1.20068
1.19217
1.38309
1.33321
1.35847
1.33013
1.27573
1.21405
1.23851
1.2683
