# vtk DataFile Version 4.2
vtk output
ASCII
DATASET POLYDATA
POINTS 642 double
-68.4075 156.889 87.8097
127.208 157.243 86.2043
-63.481 -199.78 79.8968
123.18 -199.314 80.1417
30.6762 -114.239 219.81
31.863 96.6351 245.843
30.5192 -116.33 -68.5236
31.2538 81.957 -61.0684
155.374 -12.5332 1.17567
166.429 -0.454227 174.521
-95.8264 -15.1489 -2.00538
-109.337 -2.27658 171.839
-116.92 89.6892 143.516
-59.279 49.3093 232.981
-29.089 157.389 185.95
90.5957 156.21 186.043
30.571 193.413 87.629
86.4016 145.692 -6.30364
-25.6808 146.367 -6.2424
-46.1769 43.1647 -49.7003
-103.463 85.704 35.4973
-126.331 -11.1138 100.577
119.591 50.3388 234.063
176.428 87.5273 142.989
-44.8158 -69.3701 211.136
28.9852 0.0883724 263.061
-86.0687 -129.074 42.1318
-93.8739 -116.747 132.451
28.6762 -18.2636 -101.085
-43.5117 -79.6229 -55.1344
164.332 86.9893 36.5635
106.412 46.4766 -49.2695
154.843 -113.04 134.004
105.534 -69.5077 211.853
79.1482 -190.649 163.392
-19.3286 -195.505 164.607
29.7289 -231.151 89.2935
-26.0247 -191.212 5.09626
82.5145 -188.418 6.67429
100.494 -79.6255 -52.7845
139.791 -119.462 40.9953
184.599 -11.0833 91.9639
-99.9591 128.465 118.33
-82.1711 127.927 167.443
-54.1943 164.501 138.457
-89.8319 24.2421 207.341
-94.5192 75.6395 191.944
-116.03 43.1835 163.327
0.279176 132.337 223.148
-48.9072 109.26 215.606
-14.7726 76.5535 245.934
-2.28074 184.943 142.318
-23.4047 182.381 85.1589
61.9818 131.228 224.475
29.6994 167.559 192.3
84.4735 182.45 86.2409
63.3484 185.061 141.652
113.659 164.538 138.652
-1.96084 179.257 34.277
-49.736 160.147 37.5405
110.99 158.821 37.5315
61.779 179.039 34.0397
1.37096 119.931 -39.1288
30.4938 154.168 -10.5357
59.5595 119.592 -39.4253
-72.1505 122.099 9.42978
-92.8477 125.268 59.7293
-8.43016 65.575 -62.4237
-41.2043 101.04 -33.9938
-101.581 40.3703 15.6748
-79.4891 71.6467 -12.0785
-75.5765 15.3198 -27.9462
-118.536 92.9309 91.7604
-111.224 -7.23367 43.022
-120.462 45.123 62.8235
-122.551 47.4144 119.656
-128.64 -12.2365 130.382
141.092 127.553 168.759
157.804 126.057 118.965
77.5888 78.5992 247.085
110.023 109.322 218.483
175.996 44.1428 162.533
153.666 74.475 193.089
149.094 25.1367 208.613
-13.0724 22.1402 259.754
30.9882 42.1662 263.938
-82.8037 -30.0991 198.145
-56.367 0.350349 233.05
29.8919 -54.1062 243.303
-10.0788 -28.0371 247.719
-11.2306 -98.8453 222.173
-119.003 -54.3831 116.582
-108.482 -53.6872 151.932
-94.0851 -62.5506 9.88523
-104.658 -66.585 64.9583
-79.0691 -168.366 103.001
-99.2782 -130.321 79.9497
-82.9299 -169.765 56.2139
-41.4274 -19.5918 -65.1519
-72.5482 -48.3671 -30.8175
29.7748 23.116 -89.5703
-2.8418 1.19326 -88.7446
-7.91697 -101.304 -69.4827
-3.96489 -40.3446 -87.4226
29.2898 -64.3103 -84.1387
102.167 100.618 -34.2577
70.4367 66.8476 -63.0792
153.919 124.651 57.6407
133.466 121.645 9.47818
134.591 19.4112 -25.7803
139.48 71.8076 -12.1756
161.978 40.1111 15.974
136.16 -167.457 99.3741
120.874 -156.677 148.619
103.759 -201.264 124.229
141.05 -28.4571 199.914
136.701 -100.483 176.512
162.244 -58.8054 150.569
55.6809 -158.229 190.73
98.6462 -128.698 194.685
72.1022 -99.1767 222.065
56.9169 -224.862 131.912
85.3558 -225.238 81.4959
3.89757 -162.992 187.688
26.152 -202.418 170.973
-23.9709 -225.309 84.3469
-1.36517 -229.156 133.083
-45.0204 -205.274 127.775
63.5184 -221.088 36.7139
107.715 -201.246 42.3401
-49.7655 -203.758 38.3509
-5.99026 -222.207 35.7444
55.0825 -144.575 -44.4791
29.2954 -194.874 1.49857
3.98203 -145.643 -43.1541
119.583 -165.952 24.3223
137.675 -171.614 61.6011
66.3222 -102.219 -69.0516
90.9649 -124.999 -39.186
154.558 -62.0495 12.283
129.463 -93.0933 -16.1171
131.312 -47.0496 -27.3424
154.418 -126.872 86.2339
171.576 -4.41103 44.7128
166.733 -58.6145 67.0008
176.043 -56.8141 112.154
182.597 -7.26134 131.503
71.4862 -29.5364 246.15
118.541 1.31754 233.102
74.8218 24.9448 258.124
-60.6187 -162.78 146.685
-38.0134 -130.859 193.302
-76.5557 -101.123 177.335
-33.8192 -126.999 -37.7731
-65.7434 -168.369 21.8523
-71.0197 -95.1223 -18.4658
100.21 -18.4654 -62.1662
61.7335 -40.7998 -85.1724
61.7091 3.28236 -86.8415
183.628 48.1309 120.118
181.214 44.6152 64.5462
179.505 90.3561 88.1981
-85.7771 144.222 104.091
-79.8875 147.617 129.073
-63.3506 161.629 112.874
-102.885 108.93 155.476
-93.3662 129.188 143.202
-110.358 109.754 131.437
-42.548 163.188 162.743
-69.2108 147.817 154.41
-56.6903 144.681 177.845
-101.584 11.7078 190.694
-105.061 33.269 186.442
-114.467 17.0687 170.334
-77.7469 63.15 214.213
-92.192 49.4655 201.569
-76.067 36.6426 222.041
-116.992 69.8605 153.33
-106.762 61.9212 177.246
-108.106 84.2345 167.893
16.387 114.666 237.264
-8.40119 106.699 236.287
8.54437 88.0184 247.297
-40.0125 135.313 202.704
-24.9577 122.85 220.644
-14.5229 146.976 206.22
-37.8938 63.3488 240.927
-32.8458 94.2443 232.036
-55.2642 79.9375 225.499
-91.0544 102.545 181.24
-74.4585 92.7656 205.204
-67.1952 120.748 193.372
-39.25 175.586 114.925
-47.6966 170.898 85.9888
-16.5763 174.351 166.005
-28.7491 177.453 142.162
3.9737 189.224 86.5588
-11.8792 185.381 115.309
15.1633 191.94 113.672
46.4594 114.106 237.792
30.6141 133.954 224.474
61.2669 164.338 190.671
46.366 151.639 208.53
76.4486 145.438 207.051
14.0102 152.557 208.52
-0.510825 165.275 191.001
107.983 171.316 86.4269
99.4679 175.919 114.65
121.251 161.872 112.543
45.9731 191.952 113.586
72.9697 185.412 115.148
56.8859 189.296 87.0117
103.321 162.634 162.522
89.5487 177.46 141.629
77.7384 173.95 165.202
13.3481 180.053 170.104
46.7501 179.349 169.439
30.3051 186.384 141.934
-37.4879 174.613 58.5549
-59.537 160.658 61.5761
13.8853 187.03 59.9359
-13.1478 183.828 58.0801
-38.6969 155.201 15.0953
-26.5107 172.072 35.0586
-14.6586 165.161 13.0158
120.396 159.772 61.9533
98.2331 173.514 59.901
74.7524 164.592 12.7829
86.6747 170.879 34.9634
99.6585 154.148 14.8458
73.0313 182.991 58.9763
46.5058 187.139 60.0865
16.5259 102.013 -50.7783
30.627 121.396 -39.4284
45.1115 101.673 -51.0865
0.604057 152.652 -10.0732
14.6486 138.776 -25.8879
-12.0832 134.29 -24.6071
72.7754 133.885 -24.7096
46.2376 138.737 -25.9639
59.8923 152.517 -10.1492
30.3833 181.412 32.902
46.2638 169.843 10.1068
14.3854 169.844 10.2073
-72.5745 144.421 45.8563
-81.6208 142.666 74.0263
-50.5005 136.131 0.443507
-62.4136 142.008 21.5749
-99.8402 106.349 46.8933
-83.1605 125.091 31.9282
-89.4243 105.077 20.9342
10.6546 74.1626 -63.9491
-6.04644 95.3684 -50.78
-44.2722 75.1481 -41.6839
-26.5978 86.2629 -47.8659
-26.9335 55.6157 -57.3505
-21.2476 111.897 -37.7419
-34.6812 124.588 -22.1968
-98.0035 10.5222 5.50693
-90.1664 29.0667 -9.06643
-87.1553 -0.919981 -15.4215
-92.6785 80.3962 9.54298
-91.7293 57.2483 0.858765
-103.868 64.6614 25.7224
-63.3978 29.5623 -40.0979
-78.4504 44.3583 -21.2799
-64.3471 58.9293 -31.5893
-57.8654 112.877 -14.1328
-62.2096 87.7774 -24.3429
-77.6179 97.6232 -3.0777
-99.5746 127.699 90.7987
-113.417 89.8457 63.8657
-108.459 108.847 76.8068
-111.981 110.51 105.518
-119.556 92.9627 118.779
-103.743 -12.6817 15.7958
-108.385 16.3444 30.2019
-123.785 16.1768 77.4669
-119.014 19.6332 55.6792
-120.843 -5.76198 72.1413
-113.158 44.4047 41.7595
-114.754 66.1833 50.7419
-121.227 14.9871 149.186
-120.55 -7.29907 151.954
-121.595 72.3202 132.229
-121.627 47.4875 141.833
-131 -13.6813 117.335
-126.328 9.62915 127.406
-125.245 8.79622 107.132
-121.165 71.0933 76.5139
-122.952 47.1044 89.2345
-121.964 74.1269 105.793
137.299 146.677 130.293
142.694 142.939 102.531
117.512 143.984 178.857
128.59 147.41 155.433
169.325 107.561 132.211
151.529 127.942 144.603
161.2 107.966 155.91
55.3243 88.5285 248.454
71.9198 106.133 238.279
115.173 81.6829 227.462
95.012 95.2688 234.89
98.8963 65.7215 241.925
87.699 121.741 223.055
101.967 134.242 204.508
172.293 20.8793 170.236
164.037 35.534 186.674
159.301 12.8392 191.812
166.906 82.3718 168.055
167.434 59.7562 178.016
177.862 66.7714 152.892
136.442 36.6449 222.82
152.626 49.0947 202.484
137.574 63.4055 215.52
127.276 120.627 195.354
133.486 93.4011 207.183
149.36 102.487 182.487
7.64098 58.329 257.955
31.686 70.3208 255.421
-37.316 35.4785 247.642
-15.1708 46.2047 254.719
29.8529 19.4194 265.705
7.4901 30.5547 264.245
8.04315 10.9473 264.636
-97.7079 -15.5599 185.303
-87.0367 0.170579 205.264
-52.3858 -29.3425 226.161
-70.0205 -14.3876 217.433
-64.8096 -48.72 207.382
-73.7493 13.3746 222.401
-59.3357 23.898 235.792
30.5906 -90.5103 228.424
9.99572 -77.2044 230.768
8.8816 -107.921 222.633
9.08252 -12.6819 257.935
9.83485 -39.6774 248.161
29.1161 -23.7399 254.863
-28.3237 -87.5553 219.943
-11.4322 -62.796 231.728
-29.7711 -47.7129 231.743
-36.2103 11.9351 248.185
-33.4197 -14.1922 242.823
-11.6763 -0.181964 256.507
-121.24 -30.1409 140.875
-111.449 -28.2313 161.565
-125.889 -27.5954 112.747
-126.831 -28.5664 122.936
-97.8705 -85.5102 143.507
-116.321 -53.9481 132.435
-103.604 -85.6702 122.19
-95.6495 -36.638 2.82141
-103.122 -36.7443 22.9718
-96.707 -100.87 51.3845
-100.392 -64.9226 32.1234
-91.5922 -90.6542 22.256
-110.261 -32.1514 52.6478
-119.504 -28.8869 86.1795
-72.2899 -186.22 91.8026
-83.9205 -169.579 77.4659
-75.0143 -186.45 66.7864
-97.4576 -125.403 103.963
-91.7806 -148.236 89.4096
-86.9261 -143.888 115.796
-85.6126 -153.367 50.2158
-91.9744 -150.85 68.137
-96.451 -133.163 64.3135
-113.038 -61.945 96.8973
-101.317 -105.43 75.6135
-102.503 -96.049 94.7513
-75.1596 -17.3578 -31.3059
-86.1768 -30.1013 -16.2545
-42.4531 6.55002 -57.8322
-59.6767 -3.80674 -45.4375
-58.8647 -65.5522 -44.1506
-58.7241 -33.6569 -47.6852
-42.9375 -46.4483 -59.5689
30.5858 52.9669 -74.9094
13.4843 41.3061 -78.3664
13.637 -9.2914 -97.9319
14.3394 11.2851 -91.5611
28.9794 -0.923358 -97.2454
-4.45228 30.6771 -76.4231
-21.4833 19.8678 -70.3313
10.9413 -110.144 -70.9191
9.48552 -86.3917 -78.909
30.4737 -97.5412 -76.7513
-22.9053 -62.516 -70.5193
-6.58832 -74.5966 -76.7459
-26.1593 -91.6756 -64.2774
28.6608 -32.9863 -97.8617
11.0835 -49.8257 -89.3555
13.6595 -26.5437 -98.0945
-22.1443 -9.61645 -80.4918
-4.32995 -18.0915 -92.8438
-22.8022 -28.5467 -79.721
67.1771 94.6712 -51.7153
51.472 74.6769 -64.2606
95.8083 124.039 -22.3369
[...]
POINT_DATA 642
SCALARS Mean_Curvature double 1
LOOKUP_TABLE default
0.00881904
0.0103929
0.0185187
0.0303189
0.00865206
0.00808342
0.0120721
0.00363892
0.0162674
0.00886189
0.0158959
-0.000996162
0.023218
0.012707
0.0134635
0.0118846
0.0176043
0.0116201
0.0124993
0.00739068
0.00850825
0.0110893
0.0115505
0.0198024
-0.0122403
0.0148136
-0.00585387
0.0123553
0.04562
0.0122747
0.0104458
0.0101786
0.0166865
-0.00839134
0.0195536
0.0209961
-0.00506509
0.021641
0.0150555
0.00962213
-0.00936287
0.0147991
0.0153911
0.0125115
0.0125665
0.0133868
0.0133222
0.0109001
0.0128736
0.010521
0.00811053
0.0125564
0.00968198
0.0132848
0.0143005
0.0114828
0.0135618
0.0136894
0.0144334
0.0127554
0.0122477
0.0155668
0.0143094
0.00766301
0.0143154
0.0144228
0.00910842
0.00860396
0.015071
0.00505245
0.00976261
0.00369339
0.0181503
0.000412177
0.0117593
-0.000726785
0.0247389
0.0129587
0.01065
0.0106549
0.0136204
0.0101771
0.0104923
0.0132192
0.0207982
0.0135311
0.0067847
0.00891333
0.0088102
0.00884256
0.0139765
0.0245863
0.0116818
0.00857869
-0.00484796
0.00742099
0.0231732
0.0252183
0.0142347
0.00611896
0.0235383
0.0133271
0.0170919
0.0111414
-0.00376686
0.0148063
0.0130488
0.0116042
0.0149071
0.00344864
0.00860822
0.0075791
0.00382075
0.0054539
0.0155999
0.00776282
0.0151464
0.00121512
0.00418356
0.0123712
0.0150518
0.01599
0.0222671
-0.000149386
0.0218143
0.0108477
0.023959
0.0192776
0.0197624
0.0168534
0.0198005
0.0198433
0.0170591
0.00592782
0.0150584
0.0159643
0.0313627
0.0206707
0.0113272
0.0144612
0.0118992
0.00480856
0.0153592
0.000747485
-0.00566034
0.0125584
0.0117708
0.00909853
0.0111053
0.0152141
0.00371174
0.0110991
0.0163851
0.0110357
0.0179037
0.011582
0.0115998
0.00901059
0.0129482
0.0015059
0.010956
0.020291
0.0130687
0.0142096
0.00983803
0.014242
0.0132128
0.0152251
0.0123513
0.0110959
0.0122253
0.0148522
0.0115087
0.0199386
0.0109353
0.00833223
0.0162172
0.0123801
0.0076538
0.0172843
0.0143706
0.0127602
0.00775553
0.0121944
0.0115845
0.0136369
0.00862175
0.00899249
0.00919161
0.0130225
0.0110471
0.0124372
0.010051
0.00818648
0.0146313
0.0153628
0.00701806
0.00711351
0.0145551
0.0126867
0.00784639
0.0135592
0.010494
0.0119668
0.0133222
0.0154035
0.0115602
0.0119031
0.00857281
0.0145933
0.00727482
0.00740009
0.0119382
0.0162187
0.014435
0.0184461
0.0153364
0.00328465
0.0165725
0.0123349
0.00646589
0.0172238
0.012305
0.0141878
0.0129534
0.0118354
0.0139687
0.012618
0.0118556
0.0121002
0.0135558
0.00775731
0.00829545
0.00710235
0.00818992
0.0136168
0.0111599
0.0134954
0.0128307
0.0115962
0.0140449
0.0128821
0.0144196
0.0135391
0.0120779
0.00655644
0.0131768
0.013916
0.00897925
0.013468
0.0122771
0.0109782
0.0100216
0.00765399
0.0123641
0.00524808
0.0141454
0.0132323
0.00252203
0.0135485
0.00946918
0.0133951
0.00738976
0.00718209
0.0139658
0.00971372
0.00801622
0.0137698
0.013014
0.0134289
0.0145835
0.0135235
0.0115606
0.0147233
0.021109
0.0124992
0.00264498
0.0112481
0.0115947
0.00772694
0.00653765
0.0118588
0.00578678
0.0151786
0.0138693
0.0107368
0.050222
0.0110552
-0.00224056
0.015683
0.00346411
0.00681416
0.0110148
0.00572212
0.0131778
0.0126137
0.0158406
0.0130354
0.0126566
0.0109702
0.0147846
0.00938639
0.0154197
0.00800523
0.0135409
0.0134049
0.0114376
0.0100714
0.0108293
0.0114633
0.0136346
0.0150138
0.0152375
0.0120595
0.0102957
0.0140075
0.0108131
0.0117903
0.0121772
0.00612627
0.0123277
0.00856409
0.0143926
0.0170931
0.02422
0.00443121
0.00889516
0.00923207
0.00777165
0.00949251
0.0119939
0.0174582
0.00666733
-0.00154847
0.0164934
0.0118762
0.0113903
0.00682786
0.0195078
-0.000940579
0.0103243
0.0136807
0.00876224
0.0122258
0.0132174
0.0113148
0.00658695
0.0287223
0.003717
0.0136803
0.000835469
0.00876736
0.00755539
0.00279132
0.00669839
0.00838717
0.00107482
0.00287355
0.0132887
0.0142338
0.0222369
0.0117029
0.0103578
0.00662076
0.0108252
0.0212898
0.0205627
0.00335201
0.0100909
-0.00265404
0.0103637
0.0116908
-0.00127965
0.00422131
0.0106372
0.00765739
0.00253862
0.00990399
0.00946498
0.0277405
0.0146857
0.0210102
0.00775202
0.00307234
0.0194078
0.0170022
0.0118314
0.00141765
0.00839709
0.0175905
0.0226484
0.0130972
0.0288736
0.0184101
0.0317992
0.0144764
0.011098
0.0120466
0.0133094
0.0137215
0.00967268
0.0117178
0.00888735
0.0100962
0.0128831
0.0136959
0.0137495
0.010053
0.0142325
0.0133522
0.00578465
0.0109119
0.00359475
0.0110461
0.0132032
0.0089817
0.00477374
0.00957931
0.0101904
0.0143374
0.0144423
0.0121727
0.0260447
0.0100884
0.0180359
0.0107952
0.00407416
0.00992922
0.0202948
0.0108685
0.00787952
0.00677015
0.00472944
0.00667434
0.0194836
-0.0126623
0.00888373
0.0105686
0.00977165
0.0167121
0.00695644
0.0137012
0.0166849
0.00240072
0.00777635
0.0130939
0.0168708
0.0138284
0.0138494
0.0131383
0.0150824
0.00916211
0.0124132
0.0252391
0.0184725
0.0191719
0.0136131
0.00798951
0.0267302
0.00643526
-0.00303774
0.0274067
0.0181954
0.018796
0.00850049
0.0181083
0.0135497
0.0142917
0.0168157
0.0295571
0.0244102
0.00444345
0.0199689
0.0205169
0.0216128
0.0162608
0.0196902
0.0194666
0.0202317
0.0197842
0.0141109
0.0181558
0.0168956
0.0183486
0.0189973
0.0202182
0.021002
0.0221993
0.02213
0.0206623
0.0223931
0.0123544
0.0187676
0.00856259
0.0177991
0.0168619
0.0016173
-0.000163777
-0.000378969
-0.00126557
0.0180058
0.0110451
0.0118505
0.0167659
0.023342
0.0322131
0.0147447
0.0225018
0.00345043
0.0241051
-0.00617732
0.0218608
0.0199952
0.015247
0.0180734
0.0160529
0.0140971
0.00476718
0.0041973
0.00974544
0.00895105
0.0104077
0.0125335
0.010672
0.00797747
0.0101093
0.0132945
0.00183075
0.0100592
0.00649287
0.028948
0.00663049
0.0108283
0.00814375
0.0159401
0.0105795
0.00553077
0.0158639
-0.00132876
-0.000979826
0.0123621
0.00316608
0.0136615
0.0037408
0.00516777
0.00997275
0.0112684
0.0197515
0.0205414
0.007301
0.01412
0.000525774
-0.000983169
0.0110866
-0.000654787
0.00862398
0.00983233
0.0112277
0.0195942
0.0157773
0.00914184
0.00977756
0.0105838
0.0197779
0.019055
0.00931166
0.0167698
0.00871332
0.0132204
0.00625008
0.0193512
0.0101282
0.0158724
0.00584237
0.00767233
0.012958
0.0125575
0.0125874
0.00596844
-0.000161129
0.00906457
0.0186415
-0.0012256
-0.00821216
0.0186263
0.0068679
0.0143748
0.012421
0.0176462
-0.00095431
0.0125378
0.0159812
0.015836
0.0207381
0.00840197
0.025754
0.021397
0.0181905
0.00668611
0.0160413
0.0114212
0.0114578
0.00610911
-0.00252532
0.00235563
0.0111221
0.0116098
0.00716262
0.00451825
0.003911
-0.000832455
0.0213299
0.0270139
0.0108419
0.00625148
0.000255668
0.00821361
0.00339732
0.00709801
0.0150921
0.0223941
0.012354
0.0281615
0.0138611
0.015763
9.31075e-05
0.0102631
0.0132145
0.0183473
0.00517128
0.00573929
0.00576057
0.013715
0.0170517
0.0112158
0.0185407
0.00810415
0.0162636
0.0189518
0.00525243
0.0180398
0.00863695
SCALARS CoVolArea double 1
LOOKUP_TABLE default
537.127
529.878
398.819
293.967
498.168
518.777
326.495
521.194
424.73
431.692
397.822
437.464
518.115
679.77
740.693
762.735
776.693
667.336
659.311
820.25
627.029
510.565
674.893
550.996
850.483
500.661
768.847
760.415
267.973
593.48
585.046
729.104
580.76
811.181
565.21
511.472
836.287
572.995
639.556
616.684
1034.81
544.027
609.306
757.456
716.73
542.505
691.138
625.793
702.578
787.28
747.495
824.92
791.618
718.883
766.592
768.634
825.07
695.673
742.14
636.166
657.664
744.228
606.455
732.663
607.789
634.341
685.098
704.366
598.517
688.951
619.723
641.571
560.429
764.796
628.838
812.529
400.626
737.95
701.803
676.483
723.983
547.616
720.882
523.106
552.475
637.113
796.882
624.941
773.63
724.495
622.335
605.498
670.411
617.256
1173.49
595.577
497.902
396.943
645.543
616.953
503.311
526.153
475.052
574.371
678.196
603.808
648.517
638.375
620.835
666.195
608.96
659.434
590.816
798.157
573.699
770.144
598.342
795.474
762.737
709.387
596.657
685.025
619.765
730.686
529.311
710.033
572.087
534.643
669.963
516.276
506.539
665.281
683.714
838.949
753.222
646.456
292.922
425.638
749.882
510.488
670.998
637.404
634.068
774.358
933.402
576.162
545.376
786.967
582.112
584.431
789.38
783.158
651.879
814.289
617.582
736.504
688.676
612.874
563.253
682.12
599.788
551.659
642.175
683.513
695.849
662.16
657.167
560.538
704.27
712.742
779.518
518.417
600.514
525.906
721.521
634.135
560.008
521.376
619.91
607.986
661.222
705.769
689.485
772.424
705.665
688.007
734.306
738.295
783.041
787.03
835.298
856.298
786.777
718.959
750.215
728.075
772.063
805.326
825.767
657.287
746.683
781.977
747.793
719.278
718.485
735.013
678.556
739.767
694.22
818.372
777.069
762.064
694.756
707.669
770.017
865.951
887.058
946.206
673.633
662.267
821.408
704.578
631.829
631.735
696.719
640.769
693.12
700.97
668.388
644.802
726.971
818.887
632.746
664.763
619.842
697.921
652.297
590.697
596.316
650.099
692.646
860.463
797.506
808.692
680.132
678.544
661.553
623.155
632.597
631.846
631.386
656.76
616.624
670.84
600.484
748.129
559.474
633.022
631.006
643.65
576.49
608.411
606.674
598.582
698.064
611.059
679.626
684.966
673.434
660.738
646.516
615.975
615.217
559.936
514.267
603.217
729.502
710.636
657.619
713.551
633.549
595.773
606.474
514.397
534.038
660.501
302.868
619.515
746.519
643.68
873.04
654.434
717.955
718.466
761.186
693.508
597.535
663.068
680.366
654.877
656.893
740.035
651.622
686.304
673.895
755.802
540.062
563.392
514.39
661.555
595.464
510.416
548.142
606.693
730.393
819.134
819.433
804.408
721.045
702.479
655.101
680.241
470.892
551.899
470.716
632.639
597.626
804.179
665.204
831.526
533.247
567.889
679.871
785.091
610.021
553.132
727.539
592.723
673.592
789.98
851.633
638.855
760.323
606.877
494.096
590.682
458.809
323.629
704.09
590.378
839.313
520.3
699.852
919.895
907.24
810.005
967.576
892.919
504.374
490.767
447.785
758.257
552.785
682.417
413.556
396.513
530.694
907.178
772.988
770.73
645.87
542.826
799.215
706.436
581.735
678.506
722.808
627.697
647.876
332.585
483.045
340.965
704.41
812.17
441.368
598.967
529.378
736.115
602.367
517.741
425.041
573.181
353.633
595.803
420.443
622.877
594.801
626.596
638.223
569.078
663.009
571.779
624.386
666.012
651.09
603.497
601.658
569.777
619.892
660.202
615.664
620.336
598.148
619.237
570.461
658.942
637.496
599.385
609.898
677.447
651.8
668.207
388.569
585.43
485.223
713.705
738.864
679.756
516.046
619.239
690.397
622.513
887.999
697.368
716.404
856.906
809.202
586.833
712.751
545.248
746.532
639.88
584.97
745.977
706.572
615.052
646.523
567.027
609.952
727.595
665.607
860.204
634.915
475.384
601.242
621.287
715.488
698.255
692.273
764.773
805.321
466.785
511.937
524.26
591.832
571.829
606.905
640.42
557.704
640.819
607.648
761.719
494.533
536.022
541.044
702.493
647.896
684.637
536.625
440.72
839.347
622.606
481.452
543.971
546.955
502.837
596.194
529.012
514.1
452.832
664.58
870.368
457.838
802.237
486.407
704.881
931.818
772.432
760.553
962.395
696.37
848.64
739.615
724.61
408.528
325.043
664.189
432.034
545.41
379.482
791.667
406.058
447.08
513.438
449.644
505.169
647.965
859.983
546.517
551.026
574.009
876.105
529.386
725.221
617.358
530.629
538.679
986.647
824.244
955.794
353.301
821.26
396.825
550.224
672.418
618.897
710.874
637.309
859.664
641.824
745.601
1036.04
649.091
580.618
655.33
630.536
521.384
473.846
443.466
916.358
712.742
756.453
778.482
838.354
789.661
760.158
627.144
553.311
539.955
488.309
607.147
766.329
694.969
526.252
555.482
657.866
639.671
785.182
651.148
703.321
539.576
670.601
542.128
651.546
755.332
692.583
649.899
619.688
745.094
757.479
822.273
660.481
762.948
880.086
733.882
920.715
712.483
785.337
508.499
824.447
712.811
516.782
544.682
456.547
644.327
382.471
432.452
620.382
572.193
525.8
520.982
636.955
869.127
983.574
974.054
879.336
687.071
738.716
700.538
740.586
813.674
556.274
376.193
577.37
591.817
763.04
636.297
794.086
683.302
500.908
352.088
662.137
460.86
657.96
570.528
784.967
616.556
513.868
506.699
665.415
601.815
659.153
601.259
641.526
708.533
556.509
638.649
594.039
531.523
755.733
580.849
616.146
SCALARS SignedDistance double 1
LOOKUP_TABLE default
50.5376
50.598
52.1607
53.7281
59.8326
51.7226
55.6145
57.9524
65.0222
62.4183
64.0151
61.4853
56.773
53.5322
45.9863
46.301
47.0438
51.9358
51.7657
61.3971
60.552
65.6095
53.4541
56.0856
65.5818
58.5758
68.6749
62.8282
55.5087
60.76
61.6747
63.1728
63.1979
64.7568
56.0518
56.5696
54.6871
56.4758
59.7375
62.1205
68.6854
65.786
51.0745
48.8153
47.4528
58.2604
54.1666
57.7473
47.902
50.6543
52.5379
47.734
47.4981
47.3375
45.0445
47.5278
47.8406
48.0459
48.317
50.0096
50.1307
48.3201
55.2345
52.3672
55.1588
54.4249
54.5034
59.2173
56.9287
64.383
60.7052
63.9681
58.5182
67.8168
63.1152
62.6585
60.6572
49.6428
52.2119
52.6418
49.908
59.2533
54.0088
58.731
55.7595
53.681
61.7099
59.158
61.7613
60.1192
60.6822
66.2322
61.8875
65.9299
68.5652
58.8537
67.4837
61.1066
63.1267
63.5973
57.2013
58.8092
56.643
60.2247
61.7841
57.0446
58.8171
54.5358
54.5498
65.0096
60.6737
64.6
61.0654
58.0709
53.8678
62.5398
63.3375
67.0334
59.8355
57.6191
60.5548
46.3867
45.5719
61.5042
56.0157
45.496
44.6204
51.9724
47.7366
53.9765
50.6119
48.0075
54.9838
58.0966
55.2502
69.0919
65.7662
57.6729
58.4336
65.3256
62.6861
65.0491
64.0524
68.2422
68.6439
66.3269
62.2633
60.1052
59.1877
56.8796
58.2118
57.6679
62.622
57.4892
63.9121
61.753
64.0132
61.0935
59.2648
62.542
62.1699
58.2314
49.8933
48.1847
49.0282
50.7409
49.3702
52.8398
46.5239
47.9086
47.3751
60.117
57.5324
60.6745
54.42
55.9196
56.2788
58.4726
56.5829
55.1867
49.5648
50.5484
52.7871
48.0161
49.3115
46.5617
53.1766
51.5737
52.4346
51.2592
51.8566
49.2398
48.1258
49.0353
45.0483
45.8247
48.5238
47.9514
47.3521
49.6581
48.1454
45.4335
46.8614
46.5845
46.7649
45.077
48.961
48.0766
49.98
47.3475
47.9745
48.474
46.8047
45.9299
45.2249
44.3595
44.8218
47.2337
48.316
50.1886
48.791
47.4222
50.6543
48.9685
49.8555
50.2943
48.9242
50.133
49.381
50.8074
47.8929
48.7687
57.7649
55.7982
57.9016
51.6037
53.8131
53.3535
53.3592
53.8494
51.5317
48.343
50.1999
50.1393
51.8562
52.3117
52.487
51.6538
57.7586
54.6672
57.5953
58.0394
58.0491
60.1637
59.2874
60.3329
55.5613
53.9778
64.9378
63.5546
63.0385
60.7645
62.4117
62.8775
63.0031
61.1513
60.3421
55.6732
59.2087
58.0522
52.6916
58.4915
55.1215
54.1141
59.5041
65.1279
65.8822
64.1066
64.3169
66.6437
63.7646
62.1667
62.2224
60.2276
61.6585
61.6775
65.7047
62.931
64.8359
61.2084
63.0666
62.0511
50.298
51.4803
47.3303
48.2891
52.9913
50.4053
51.6304
51.698
49.7194
52.544
50.7597
52.6993
47.8781
47.2087
60.4474
59.4253
60.7461
54.7871
57.1502
58.071
56.3501
56.7644
54.1303
49.2663
52.2515
52.1838
52.1566
52.477
55.4034
53.6308
55.4985
54.1931
57.2008
61.6576
60.5295
60.8049
60.5184
63.2683
58.7357
57.5999
64.4069
64.2877
60.5301
59.4173
60.4044
60.3179
64.3217
63.7697
62.5611
58.1479
59.4766
58.6608
60.992
60.6599
64.9809
64.2746
66.1804
62.3919
68.0876
64.9594
66.0512
70.6617
67.5588
64.0699
68.6228
67.2854
56.4589
58.6052
55.1289
65.611
60.8709
60.0801
63.6198
61.9581
67.3586
68.4103
71.636
70.3192
63.163
63.597
64.3694
63.5941
61.4962
62.5448
62.6636
59.6017
59.3654
56.6504
57.6858
56.8126
60.815
62.7881
55.6823
61.1329
58.9602
61.0988
61.3491
58.3443
56.9975
60.3894
56.7161
60.9131
57.531
61.2002
57.3338
58.2962
53.9398
55.501
61.1498
58.6868
59.6123
51.9636
51.8161
58.2092
54.7897
58.0579
51.6791
52.5131
64.2081
64.1335
65.3871
60.8994
62.6989
64.1406
62.7209
62.1242
61.6175
55.8236
58.7178
59.4441
58.7495
58.0974
53.449
58.9998
58.9337
59.8975
54.0753
57.9557
58.3362
62.533
64.9681
62.925
64.5576
67.0546
63.4296
68.5866
69.1604
63.5775
58.8292
58.0755
60.5041
58.7625
58.3619
58.7987
62.9493
58.7988
60.3009
58.9864
59.6591
57.4046
49.4322
48.815
50.4549
49.1759
49.8479
46.931
49.1615
58.795
61.8331
55.4413
61.3636
61.4489
59.8828
55.2886
48.3876
47.4248
51.3074
46.4392
46.1919
51.4186
53.3657
47.7505
50.1025
50.4491
49.7331
45.022
48.3
52.6375
48.291
45.9824
56.3227
49.9544
52.862
50.0947
46.4145
51.1119
47.536
53.1109
44.7209
48.6059
54.8576
54.998
54.844
57.56
62.104
63.5058
63.9658
62.2583
58.0751
48.2545
52.6837
52.778
60.1152
59.5206
64.594
61.6696
66.5394
66.521
69.1438
55.5821
55.3265
60.0341
57.5723
60.271
56.3666
65.1197
66.0147
65.4604
65.1355
63.7392
63.9317
64.7858
63.1205
63.7592
62.5946
67.0557
60.6969
65.5502
64.5214
65.7233
65.3499
62.2176
63.7183
65.7394
67.1257
66.4396
68.4699
67.0256
68.1196
70.3531
62.096
62.5791
69.7444
66.1112
63.9443
62.8467
64.0015
71.4342
67.8293
70.1114
64.3695
61.9982
63.1899
60.851
59.8396
60.7297
56.8549
58.7204
60.7791
60.9135
52.6358
57.3971
54.8852
53.3319
54.857
59.4024
58.3106
59.1579
56.4774
58.2043
56.8784
58.9009
58.9828
57.9864
60.4012
58.8341
59.0043
59.6603
61.8699
61.454
66.3114
65.9978
65.155
57.6487
59.2422
57.9426
55.0324
64.6609
56.4625
56.4044
58.1404
55.5569
66.6709
62.6838
57.1021
59.0486
64.6166
61.2418
62.626
63.5576
64.0415
66.2092
66.1376
59.2985
64.0417
62.3951
64.155
64.483
65.1341
60.9304
57.6779
61.4203
61.7474
61.3081
59.9582
63.7133
61.6401
57.7697
57.4437
62.3726
58.9857
61.9567
61.2342
63.3474
63.3173
61.3985
61.712
66.5929
63.0059
63.7992
66.3649
64.8847
52.5579
58.2733
54.3588
55.4001
59.8983
62.9046
62.4652
62.001
