# vtk DataFile Version 4.2
vtk output
ASCII
DATASET POLYDATA
POINTS 642 double
-75.8744 166.591 86.9394
134.985 166.791 85.6743
-72.1883 -208.502 80.4082
132.077 -208.03 80.6096
30.6684 -120.573 232.89
31.6369 101.56 257.374
30.5299 -122.794 -80.4305
31.1492 88.2345 -73.7451
169.21 -13.3073 -6.54645
179.619 -3.04277 181.516
-109.613 -15.5923 -9.35079
-121.962 -4.6102 179.486
-128.766 93.7007 146.993
-66.3985 51.7806 243.649
-33.4559 165.839 191.942
94.8946 164.84 191.977
30.5816 204.858 86.7936
90.8841 154.788 -13.9103
-30.12 155.391 -13.8797
-54.2731 46.1931 -61.7104
-116.254 90.0191 29.9336
-141.965 -12.3283 97.74
126.877 52.7564 244.605
188.24 91.9911 146.55
-53.3866 -73.6649 223.825
29.2617 -2.98039 276.867
-100.596 -132.914 36.0516
-107.175 -121.669 136.769
29.0493 -18.2881 -114.607
-52.3587 -82.4752 -66.6507
177.324 90.9395 30.7406
114.946 48.8797 -61.4195
168.214 -118.2 138.153
114.129 -73.7936 224.319
84.9227 -198.322 172.468
-25.1499 -202.598 173.872
29.8057 -243.237 88.1223
-30.5069 -198.714 -4.69711
87.6249 -196.304 -2.71953
109.778 -82.5024 -64.385
154.478 -124.917 35.5902
200.242 -12.1002 90.1498
-109.694 136.007 119.532
-90.1533 135.133 172.625
-60.1082 174.11 141.032
-100.413 24.0689 216.731
-104.46 78.9206 199.809
-128.959 44.5728 168.477
-2.02527 139.383 232.192
-54.877 114.884 224.782
-18.7515 80.5644 257.419
-4.40754 195.831 144.599
-27.0151 193.406 84.8023
64.0445 138.453 233.281
29.8446 176.477 198.7
88.1075 193.459 85.6927
65.4902 195.917 144.04
119.899 174.076 141.155
-4.03133 190.157 30.2763
-56.0521 169.713 33.3369
117.218 168.522 33.3752
64.0596 189.923 30.1103
-0.759393 127.595 -49.9109
30.5087 163.84 -18.8181
61.6972 127.315 -50.1446
-81.0784 129.238 2.87358
-103.198 132.728 56.4388
-13.0338 70.4051 -75.1591
-47.735 106.804 -44.6511
-115.592 41.8554 8.9512
-90.5594 75.0601 -21.2712
-87.077 16.4783 -38.4239
-131.447 97.3792 90.353
-126.937 -8.73708 38.5145
-135.378 46.118 59.3219
-137.747 48.4528 120.17
-142.722 -13.051 133.746
149.438 134.75 173.695
167.764 133.855 120.116
81.4026 82.3195 258.699
116.15 114.917 227.276
189.304 45.1217 167.976
163.773 78.0148 200.745
160.046 24.8189 217.676
-17.3766 22.4339 272.394
30.9897 44.4024 276.698
-93.3718 -34.3861 207.984
-64.5152 -2.44572 244.603
29.9875 -59.4663 257.24
-14.358 -32.8607 260.9
-14.9592 -103.798 235.354
-133.996 -59.3115 117.07
-121.059 -58.7744 158.402
-108.625 -65.8427 4.10696
-120.556 -69.7934 61.725
-91.4246 -174.709 106.599
-114.472 -134.205 79.7961
-95.4224 -175.614 53.2496
-51.3858 -19.2801 -76.7242
-84.3631 -50.1234 -40.7054
29.8927 27.9863 -102.66
-8.55249 4.91554 -101.261
-12.6149 -106.103 -81.5311
-9.55036 -43.6526 -100.19
29.5706 -68.3327 -98.1698
108.762 106.448 -44.8514
74.9064 71.4529 -75.7103
164.225 132.188 54.6176
142.379 128.799 2.91206
146.167 20.1285 -36.4486
150.675 75.166 -21.2686
176.005 41.4829 9.0828
148.874 -173.732 103.128
130.832 -164.126 155.408
111.631 -209.958 129.143
152.084 -33.0269 209.364
148.053 -104.442 185.48
175.601 -62.9127 157.191
57.9161 -165.909 202.781
105.127 -135.702 205.09
75.9387 -104.048 235.286
60.1152 -234.9 135.974
89.1317 -235.704 81.6835
1.82664 -170.055 200.363
26.854 -210.55 180.801
-27.7037 -235.792 84.1824
-3.81193 -238.933 137.052
-52.5719 -213.784 132.336
65.6835 -231.399 32.0041
114.854 -210.083 37.0588
-56.487 -212.485 33.6684
-7.53883 -232.604 31.0848
58.0058 -153.942 -53.6065
29.4335 -203.724 -8.39233
1.2778 -154.976 -52.3882
131.401 -171.538 15.9767
151.668 -176.398 57.5711
71.5479 -106.71 -81.1029
98.9771 -132.357 -48.2903
168.816 -65.2824 6.25363
141.379 -98.1564 -24.2109
143.22 -48.9138 -37.6078
169.06 -131.622 84.8756
187.214 -6.23183 40.0671
182.386 -62.5633 63.18
190.989 -61.5202 113.71
197.315 -8.5674 134.754
75.6596 -34.1047 259.447
126.585 -1.66196 244.655
79.0565 24.7886 271.122
-70.7698 -169.568 153.977
-44.3746 -137.739 203.86
-87.8113 -105.141 186.138
-41.3362 -134.567 -46.8408
-75.8978 -173.841 13.3521
-82.8468 -100.093 -26.2487
110.354 -18.3328 -73.9243
67.7951 -44.0384 -98.1091
67.7407 6.55859 -99.4992
198.831 48.7725 120.829
195.891 45.6364 60.8763
192.244 95.0715 87.2319
-94.303 152.91 104.094
-87.5476 156.384 131.038
-69.9371 171.584 113.767
-112.602 114.999 160.021
-102.192 136.68 146.527
-121.081 115.858 133.801
-47.7556 172.278 167.106
-76.2289 156.317 158.361
-62.9692 152.623 183.465
-113.215 10.3245 199.207
-116.832 34.1218 193.955
-127.5 16.9431 176.596
-86.5031 66.22 223.581
-102.652 51.3655 210.081
-85.0683 37.7801 232.069
-130.08 72.1388 157.893
-118.515 64.1053 184.083
-119.136 87.8915 173.942
15.0721 120.806 247.499
-11.5965 112.074 246.831
6.37866 92.5566 259.087
-45.2265 142.391 210.407
-29.2631 129.173 229.852
-17.9131 154.715 213.816
-43.4546 66.7398 252.133
-37.8875 99.0262 242.517
-61.845 84.1495 235.637
-100.013 107.949 187.978
-82.345 97.4916 213.868
-74.2406 127.192 200.649
-44.173 186.186 115.665
-53.2655 181.424 85.4776
-19.9037 184.031 170.108
-32.841 187.618 144.511
2.04021 200.763 85.9205
-14.9643 196.509 116.04
13.8742 203.217 114.669
47.444 120.358 248.005
30.5862 141.24 233.688
63.4399 173.22 196.952
47.4833 159.803 216.404
79.6904 153.451 214.461
12.9902 160.605 216.444
-2.63789 174.052 197.276
113.692 181.759 85.8694
104.566 186.419 115.427
128.383 171.658 113.529
47.2661 203.228 114.588
76.0705 196.538 115.885
58.8793 200.817 86.29
108.602 171.777 166.88
93.7239 187.594 144.05
81.053 183.628 169.41
12.3709 189.973 174.212
47.8919 189.369 173.648
30.3442 197.603 144.454
-42.5852 185.009 56.458
-66.6096 170.326 59.177
12.8811 198.645 57.6705
-15.9046 194.842 56.0379
-44.0782 164.58 9.09011
-30.7591 182.386 30.839
-18.009 175.224 7.06413
127.447 169.518 59.5404
103.358 184.019 57.6294
78.2498 174.699 6.88762
91.0437 181.308 30.8087
105.02 163.631 8.90664
75.9872 194.092 56.8094
47.6475 198.738 57.8021
15.3594 109.065 -62.8589
30.6175 129.223 -50.465
46.1641 108.8 -63.1526
-1.40951 162.122 -18.1008
13.7041 147.604 -35.4812
-15.425 142.776 -33.832
76.173 142.42 -33.892
47.2232 147.578 -35.5459
62.0004 161.988 -18.1467
30.4147 192.543 28.9804
47.3981 180.238 3.89921
13.3329 180.234 3.99015
-81.075 153.071 42.4215
-90.6547 151.352 71.8344
-57.1812 144.372 -6.69672
-70.0029 150.533 16.2359
-111.541 112.325 42.4072
-93.0372 132.402 27.2292
-100.541 110.901 14.9977
8.42736 79.8667 -76.6807
-9.24373 101.515 -63.0717
-51.8484 79.3153 -53.5181
-32.1588 91.3256 -60.0283
-33.5616 59.4962 -69.8545
-25.5857 118.73 -48.5405
-40.1628 132.207 -31.406
-112.161 11.469 -1.30852
-102.897 30.4517 -17.402
-99.5968 -0.228444 -24.4364
-104.808 84.1001 2.28086
-104.397 59.7338 -7.06475
-117.454 67.3163 19.3102
-73.1385 31.5305 -51.2864
-89.5998 46.7059 -30.9397
-73.8974 62.1966 -42.3437
-65.722 119.507 -22.8499
-71.1708 92.3849 -34.4888
-87.8218 102.876 -11.1562
-109.578 135.442 89.3874
-126.148 94.538 60.1587
-119.945 115.162 74.1405
-123.277 116.797 105.28
-132.522 97.2524 119.578
-118.694 -13.3339 10.5221
-123.287 16.4134 24.3237
-139.143 16.2104 75.0601
-133.964 19.2847 51.1497
-136.373 -7.74974 68.5764
-127.553 45.5043 36.0963
-128.703 68.6861 45.8371
-135.583 15.5806 153.502
-133.913 -8.65925 157.497
-136.122 74.1343 134.166
-136.023 48.6663 144.554
-146.473 -14.6158 116.773
-141.055 11.1948 128.895
-140.925 10.2317 106.286
-135.512 73.489 74.2601
-138.237 48.0789 88.4824
-136.856 76.0295 105.707
145.552 155.541 132.029
151.706 151.688 102.905
123.855 152.004 184.259
135.887 155.902 159.121
180.151 113.918 134.475
160.691 135.557 147.639
171.228 114.108 160.386
57.0904 92.9381 260.119
74.7343 111.591 248.628
122.109 85.6565 237.471
100.014 99.8491 245.1
104.531 68.8166 253.082
91.7691 128.27 231.882
107.072 141.502 211.874
185.565 20.2139 176.445
176.338 35.8958 194.138
171.472 11.3091 199.998
178.027 86.4519 174.034
179.231 62.0123 184.724
190.682 69.3087 157.484
145.656 37.8019 232.755
163.263 50.8932 210.903
146.47 66.4537 224.685
134.587 127.058 202.306
141.789 98.05 215.6
158.766 107.887 189.017
5.57654 61.8275 270.032
31.5366 74.0648 267.651
-43.1319 37.0526 259.585
-19.3261 48.9894 266.759
30.0165 19.0408 279.134
5.44389 32.0508 277.088
6.00041 9.51629 278.132
-109.353 -18.9451 194.185
-97.7587 -2.55503 214.918
-60.5017 -33.7158 237.776
-79.5067 -18.0385 228.134
-74.2009 -53.4414 218.323
-83.1897 11.7039 232.957
-67.2166 23.5873 247.214
30.5997 -95.3234 242.88
7.93295 -82.3736 245.331
7.06271 -113.505 235.968
7.00031 -16.919 271.577
7.72069 -44.952 261.761
29.3457 -28.3132 268.825
-34.6547 -91.6913 232.488
-15.2835 -67.7842 245.433
-36.0136 -52.6485 244.455
-42.6363 10.4464 260.62
-39.7635 -17.9972 255.313
-16.1691 -3.17011 269.649
-134.714 -33.5875 146.09
-123.935 -31.7189 168.786
-141.137 -31.3366 110.652
-141.437 -32.3899 124.594
-111.971 -90.4953 149.121
-129.899 -59.1114 136.411
-118.595 -90.7757 125.138
-109.827 -39.0168 -3.70871
-118.338 -39.0337 18.362
-112.055 -104.003 47.3115
-115.892 -68.1299 28.1715
-105.745 -94.908 17.2728
-125.978 -34.9819 48.9172
-134.985 -32.2116 82.6859
-83.2623 -193.542 94.0167
-96.422 -176.087 78.3316
-85.5859 -193.875 65.847
-111.821 -129.952 106.44
-104.985 -153.911 91.4417
-99.5444 -149.801 119.908
-99.3769 -157.272 44.8361
-105.628 -156.013 66.5066
-110.971 -136.704 60.5415
-128.643 -66.1282 94.394
-117.999 -108.258 73.6314
-118.713 -100.094 95.4248
-86.7039 -17.4038 -41.535
-98.8249 -31.5726 -25.1109
-51.9556 8.84588 -69.8932
-70.1669 -2.7705 -56.7402
-69.219 -67.6603 -54.8093
-69.3316 -34.4126 -58.6498
-52.379 -48.2276 -71.3459
30.5853 58.5557 -88.1772
10.701 46.7213 -91.2953
10.6662 -7.11612 -111.127
11.2637 15.6911 -104.52
29.2709 2.26609 -110.696
-9.93127 35.2632 -89.1075
-29.0794 23.5524 -82.6819
8.65013 -115.811 -83.0074
7.26946 -90.4267 -92.3086
30.5175 -101.773 -89.9206
-30.2674 -65.2031 -82.9908
-11.8501 -77.9801 -89.8976
-33.0192 -95.3917 -76.029
29.0396 -36.5066 -111.22
8.58421 -53.9744 -102.682
10.7275 -28.7401 -111.278
-30.3676 -7.68161 -92.438
-10.1051 -18.0634 -105.55
-30.9377 -30.1573 -91.8156
70.3338 100.93 -63.8132
53.5036 80.3411 -77.0329
101.282 131.714 -31.4973
[...]
POINT_DATA 642
SCALARS Mean_Curvature double 1
LOOKUP_TABLE default
0.00875344
0.0100162
0.0159188
0.0243073
0.0078851
0.00854032
0.0116842
0.00403095
0.014324
0.00926254
0.0141211
0.00210219
0.0174519
0.0106764
0.0121323
0.0110099
0.015412
0.0107597
0.0113763
0.00669239
0.00852803
0.0100552
0.00987847
0.0157025
-0.00666682
0.0139821
-0.00240046
0.0104843
0.0331836
0.0123224
0.0106766
0.00954702
0.0138782
-0.00395037
0.0169028
0.0180876
4.29003e-05
0.0184335
0.0138216
0.0098713
-0.00710886
0.0124789
0.0139167
0.011285
0.0114882
0.0125565
0.0118874
0.00834567
0.0116863
0.0100069
0.00778816
0.0118927
0.00871693
0.0118091
0.012744
0.0101392
0.0126355
0.0124551
0.0128819
0.0116261
0.0111061
0.0136182
0.0126704
0.00779598
0.0126314
0.0126183
0.00849331
0.00776202
0.0130635
0.00554732
0.0097355
0.00571202
0.014812
0.00200112
0.0107863
0.000601464
0.0180023
0.0117184
0.0102561
0.010639
0.0123337
0.00992123
0.00953095
0.0122635
0.0170421
0.0119302
0.00672247
0.00866597
0.00739264
0.00848017
0.012346
0.0199574
0.0096911
0.00857212
-0.00419417
0.00867201
0.0207588
0.0207234
0.0135875
0.00642736
0.0186574
0.0126158
0.0146355
0.010339
-0.00118687
0.0129273
0.0107745
0.0105473
0.0128983
0.00441149
0.00838302
0.00780979
0.00528057
0.00499903
0.0136229
0.00752981
0.0139274
0.00101953
0.00418383
0.010583
0.0130484
0.0137518
0.0182394
0.00104012
0.0182682
0.00900973
0.0193449
0.0161335
0.0166811
0.0148403
0.0165661
0.017468
0.014134
0.00665805
0.0122694
0.0163486
0.0290055
0.0167963
0.0104687
0.0124391
0.0106844
0.00547025
0.0122921
0.00161223
-0.00436181
0.0108952
0.00910383
0.00839123
0.0105472
0.0138898
0.00398122
0.00939955
0.0149596
0.00964852
0.0162157
0.0105317
0.0115598
0.00869909
0.0118703
0.00296564
0.00833423
0.0153793
0.0114851
0.0123553
0.00962694
0.0123323
0.0118304
0.0129595
0.0113728
0.0103634
0.0110767
0.0134863
0.0101035
0.0165606
0.010193
0.00797602
0.0137309
0.0125327
0.0082959
0.015088
0.0125639
0.0116395
0.00851497
0.0111423
0.0108431
0.0121778
0.00818237
0.00875025
0.00870296
0.0117237
0.0102872
0.011244
0.009729
0.00778344
0.0130209
0.0133419
0.00729865
0.00715302
0.0130292
0.0115538
0.0078475
0.0122049
0.0101048
0.0109797
0.0123821
0.0136569
0.010497
0.0110382
0.00865332
0.0130638
0.0073393
0.00762968
0.0110961
0.0139905
0.0127368
0.0156905
0.0134449
0.00454416
0.0145886
0.0113786
0.00694102
0.0146972
0.0112806
0.0128424
0.0117101
0.0109839
0.0126196
0.011473
0.011061
0.0110641
0.0119853
0.00797885
0.00860358
0.00697094
0.00878634
0.0122537
0.0105543
0.0120328
0.0115344
0.0109526
0.0125187
0.0114414
0.0130406
0.0122902
0.0109584
0.00684483
0.011726
0.0122301
0.00886151
0.0119855
0.0113774
0.00920366
0.00987708
0.00837005
0.0116202
0.00530373
0.01239
0.0118875
0.0032072
0.0117074
0.00756414
0.0121331
0.00729355
0.00794523
0.0117693
0.00841762
0.00742753
0.0123071
0.0121619
0.012234
0.0131054
0.0117258
0.0104681
0.0126067
0.0182416
0.0109786
0.00335928
0.00933313
0.0100923
0.0076633
0.00667616
0.0111938
0.00766129
0.0114269
0.0158005
0.00960074
0.0411134
0.00791155
0.000253161
0.0141324
0.00390555
0.00934665
0.0105683
0.0058923
0.0117428
0.0113462
0.0136455
0.0116145
0.0112366
0.0105725
0.0130383
0.00944035
0.0134927
0.00761832
0.0120819
0.0118779
0.0101115
0.0102564
0.0103234
0.0107861
0.0121967
0.0128606
0.0133557
0.0108483
0.0093121
0.012437
0.0103915
0.0110766
0.0105239
0.00610858
0.0109744
0.00804936
0.0122616
0.0145635
0.0208489
0.00500278
0.00888845
0.00868749
0.00754024
0.00738213
0.0114395
0.0158675
0.00617885
0.00123044
0.014596
0.0112503
0.0100694
0.00711288
0.01497
-0.000514448
0.00857628
0.013004
0.00827638
0.0119719
0.0119554
0.0101572
0.00935838
0.0205563
0.00439795
0.0104406
0.00119414
0.00800213
0.00714184
0.00198696
0.00721052
0.00676095
0.00141637
0.00327495
0.0126757
0.0138247
0.0180415
0.0103115
0.00821134
0.00577496
0.0123548
0.0161058
0.0165897
0.00382879
0.0120664
-0.000517954
0.00950581
0.010194
0.000556691
0.00416834
0.00931686
0.00686991
0.00330756
0.00937641
0.00810159
0.0221791
0.0130282
0.0177132
0.00698734
0.00342994
0.0162586
0.0144739
0.0104998
0.00173569
0.00888228
0.0149189
0.019594
0.0102984
0.0229398
0.0161826
0.0248582
0.0132006
0.0102906
0.0106044
0.0118749
0.0121055
0.009154
0.0110942
0.00878205
0.00956353
0.0115112
0.0122697
0.0121912
0.00962054
0.0124554
0.011825
0.00477055
0.0102589
0.00421423
0.00953756
0.0119135
0.00918821
0.00504468
0.00820538
0.0107912
0.0126624
0.0130454
0.0117553
0.0208605
0.0108721
0.0152084
0.00933348
0.00425047
0.00793579
0.0171723
0.0112943
0.00892447
0.00689429
0.00449814
0.00629768
0.0156587
-0.00776516
0.0066419
0.00960095
0.00956469
0.0141508
0.00641324
0.0115374
0.0146753
0.00355611
0.00639424
0.012648
0.0136106
0.0122604
0.0125993
0.0113555
0.0128988
0.00757521
0.0110985
0.020461
0.0154168
0.0158805
0.0115409
0.00798568
0.0216123
0.00571328
-0.000767919
0.0213915
0.0181326
0.0181175
0.0101434
0.015163
0.0119548
0.012783
0.0139055
0.0242296
0.0209705
0.00509044
0.0170324
0.0171226
0.0178071
0.0143521
0.0169279
0.0165097
0.0170366
0.0166873
0.0119754
0.0155823
0.0152901
0.0157085
0.0163987
0.0169804
0.0176557
0.0183338
0.0182071
0.0173521
0.0184624
0.0104231
0.0162062
0.00812123
0.0154822
0.0155402
0.00122616
0.00102019
0.00279506
-0.00199701
0.0167549
0.00983829
0.010992
0.0150461
0.0166826
0.0218396
0.0127032
0.0168055
0.00635572
0.0243539
-0.00300382
0.0177351
0.0165389
0.0134404
0.0154043
0.014829
0.0123936
0.00306737
0.00467935
0.0095229
0.00807927
0.00887746
0.0112782
0.00944461
0.0074984
0.009658
0.0122986
0.00157833
0.0094865
0.00483767
0.0266515
0.00550339
0.0110767
0.00588683
0.0130266
0.00925889
0.0055466
0.0146598
-1.2943e-05
0.00101484
0.0112475
0.00347885
0.0118799
0.00473265
0.00676354
0.00786855
0.0110604
0.0163219
0.0169272
0.00810859
0.0119725
0.00293333
0.00181797
0.00901403
-0.000119026
0.0079836
0.00964935
0.0106737
0.0169379
0.014176
0.0087391
0.00903063
0.00954294
0.0174169
0.0163473
0.00817906
0.0140523
0.00805763
0.0128462
0.00699749
0.0167875
0.0110118
0.015119
0.00717053
0.00666546
0.0108487
0.0118818
0.0113741
0.00439175
0.00205761
0.00822684
0.0152451
0.00122981
-0.00582374
0.0151656
0.0055491
0.0123278
0.0104889
0.0148921
0.000797887
0.0104426
0.0138545
0.0135407
0.0167107
0.0107374
0.021575
0.0175856
0.0163465
0.00695549
0.0143302
0.0108236
0.010554
0.00482487
-0.00101938
0.00123712
0.00985421
0.0103985
0.00614946
0.00487726
0.00372194
0.000589768
0.0179593
0.0220101
0.00857826
0.00774628
0.000574957
0.00699584
0.00348693
0.00640785
0.0132779
0.0188781
0.0116001
0.022834
0.0128218
0.0129596
0.000399937
0.0105023
0.0117823
0.018876
0.00589631
0.00773775
0.00518464
0.0133097
0.0145245
0.0100703
0.0150546
0.00765328
0.0137711
0.0155406
0.00554049
0.0179116
0.0105706
SCALARS CoVolArea double 1
LOOKUP_TABLE default
620.563
612.56
500.834
402.082
582.987
600.541
416.056
595.248
502.321
502.261
479.631
513.605
644.892
792.321
856.16
875.663
884.908
778.348
771.537
902.743
727.217
602.584
788.733
675.377
920.88
607.428
832.613
859.45
394.694
690.982
682.065
816.579
693.177
893.082
677.738
628.048
930.492
681.82
743.867
708.871
1065.98
646.81
721.371
875.465
821.431
642.825
803.087
725.163
808.608
896.151
840.156
941.182
891.278
825.223
890.63
870.237
942.043
800.834
861.826
743.871
763.387
863.41
706.642
843.422
708.053
753.65
784.188
797.538
712.003
763.034
721.511
725.383
682.904
832.502
730.66
881.703
524.198
856.373
800.253
776.636
841.617
647.383
832.076
624.104
678.762
749.614
867.822
726.076
852.505
822.195
721.078
726.355
759.898
701.911
1209.93
684.267
614.159
520.335
739.556
702.74
618.776
640.83
585.179
690.159
777.543
717.733
749.027
742.791
742.272
744.957
712.552
737.089
681.188
896.286
689.497
840.173
701.201
878.367
842.495
821.645
694.358
822.718
747.189
806.76
663.845
831.69
721.874
659.503
806.392
642.287
636.692
802.164
790.235
930.42
854.699
750.422
407.107
537.638
856.657
602.986
776.909
717.732
739.395
832.779
996.962
687.262
650.797
880.391
688.258
703.275
883.191
891.954
756.108
912.715
722.482
842.83
777.269
720.563
676.005
760.506
703.038
680.577
746.622
792.866
795.46
789.645
768.187
679.794
810.617
819.64
894.762
611.576
702.796
626.299
833.487
734.65
666.963
623.333
718.357
729.657
763.531
807.08
783.864
887.23
809.403
795.055
827.973
832.838
888.56
921.73
960.245
985.379
885.08
818.38
874.041
835.94
869.767
903.734
937.887
761.304
850.727
901.205
852.156
824.021
826.112
859.876
781.555
843.614
790.95
931.423
879.284
860.317
801.921
818.281
891.6
1003.96
1022.99
1072
785.386
764.215
930.75
813.577
736.687
743.66
814.355
744.242
801.871
817.782
776.243
748.337
832.732
928.183
721.719
759.757
709.925
811.67
752.758
695.712
700.603
750.505
806.41
991.474
930.437
940.692
783.598
776.505
778.948
731.706
730.102
736.557
742.539
750.538
715.633
767.492
696.735
826.927
665.57
750.935
713.705
732.616
668.383
710.279
693.397
679.474
781.146
703.69
778.418
817.308
793.039
787.636
753.101
730.386
722.775
677.558
640.206
685.266
798.94
806.671
740.556
783.398
711.834
698.905
714.09
618.248
637.482
753.084
413.317
726.839
833.826
764.231
957.388
758.628
817.622
810.664
878.956
800.778
708.681
770.312
800.963
753.46
766.611
848.049
757.478
784.991
785.71
874.77
631.788
662.079
605.076
779.749
699.837
618.593
657.113
711.661
841.081
951.787
943.195
932.078
823.925
798.064
773.656
786.35
585.963
670.107
592.327
713.422
685.518
889.158
749.714
900.132
630.943
683.99
760.603
860.431
706.869
658.902
811.203
682.986
764.592
875.511
940.01
765.176
869.974
730.794
609.528
685.226
558.74
445.446
788.516
700.571
937.281
610.762
775.034
990.762
967.956
887.341
1014.99
949.144
617.055
602.095
572.411
860.014
659.337
770.799
502.095
514.253
629.404
990.235
862.225
880.79
731.262
635.655
882.46
782.69
667.893
759.79
812.848
728.395
754.226
461.394
595.068
458.494
798.113
899.416
549.827
704.605
632.979
829.201
704.567
617.065
537.994
683.306
483.704
714.784
560.594
741.935
697.075
723.465
755.634
675.13
753.204
672.623
727.932
765.036
757.568
716.77
709.714
675.834
729.192
778.022
702.661
705.823
679.357
721.417
662.339
735.572
713.183
688.327
708.471
810.817
778.068
790.211
505.721
681.966
607.207
827.823
818.67
781.809
629.349
710.272
788.777
702.612
947.591
777.24
808.71
912.057
880.794
677.505
785.486
658.288
831.754
744.903
682.088
844.364
805.432
707.698
738.732
673.887
718.931
858.972
797.955
979.188
758.883
604.429
737.914
744.287
826.888
819.067
823.482
846.656
862.464
604.662
605.381
622.019
679.885
698.528
727.633
764.52
680.015
775.051
736.078
865.731
613.55
667.332
686.437
857.232
810.527
846.799
666.92
571.719
955.478
749.353
595.632
669.46
674.88
629.199
724.78
663.607
645.821
578.329
787.959
981.178
571.117
900.673
598.6
807.699
1008.68
861.135
844.823
1034.88
799.376
994.059
877.928
863.162
546.717
459.639
775.448
551.745
592.693
479.278
845.256
518.436
566.937
623.503
561.679
599.84
754.019
958.709
634.231
639.525
662.272
954
626.542
809.054
697.43
619.421
640.689
1101.07
942.292
1064.38
468.018
885.148
490.928
658.638
784.663
698.569
784.453
725.28
908.91
710.231
818.189
1101.51
748.634
671.032
752.763
730.305
620.741
584.761
560.68
1005.24
823.347
863.221
853.573
931.412
872.683
839.365
726.504
645.683
660.652
591.262
698.07
860.004
799.329
641.277
671.407
764.742
760.025
894.974
774.912
817.229
649.283
766.896
643.666
733.09
860.402
793.625
755.349
726.15
839.942
849.487
889.899
768.621
832.056
941.818
826.55
1033.31
845.306
916.377
627.021
908.223
813.76
631.534
663.625
591.325
727.588
496.329
558.154
726.329
658.989
637.4
612.6
728.106
956.758
1074.21
1080.6
993.893
768.687
827.25
777.323
811.336
891.481
665.463
502.759
685.713
688.506
850.422
744.455
885.376
781.098
612.276
478.46
776.164
595.385
771.49
671.194
870.867
705.072
610.628
618.752
740.63
696.012
739.305
682.977
743.509
809.696
682.901
750.464
709.018
649.724
856.028
703.009
732.328
SCALARS SignedDistance double 1
LOOKUP_TABLE default
63.1539
63.3025
64.844
66.3997
74.8675
64.3182
69.7668
72.6213
81.4426
77.9663
80.2084
76.3388
69.0795
67.3844
57.8433
58.1039
58.7516
65.2541
65.0683
76.53
75.2201
81.8857
67.22
68.9002
81.2145
73.0651
83.943
77.6105
69.2908
76.1789
76.3113
78.484
78.27
80.4857
69.6926
69.7175
65.6202
70.1151
73.0131
77.8046
84.6115
81.8941
64.0082
61.422
59.512
72.8497
67.9131
72.1668
60.0913
63.4075
65.7313
58.8746
59.6461
59.4941
56.6669
59.659
58.9482
60.1812
60.611
62.8682
63.0523
60.7252
69.2366
65.5158
69.1242
68.2865
68.051
74.2073
71.4333
80.1456
76.104
80.108
72.2875
84.0999
78.9565
78.1597
75.7122
62.283
65.4153
65.7436
62.5455
74.0642
67.8898
73.3551
69.4217
66.6792
77.2698
74.1299
77.1321
75.2779
75.6575
82.3268
77.8539
82.209
85.1577
73.6286
82.7864
74.9013
78.4387
79.5067
71.563
73.7208
71.2623
75.0006
75.5958
71.4928
73.628
68.0231
68.4399
81.1455
76.1174
80.5268
75.9281
72.7883
66.9231
78.3822
78.6343
82.589
74.0029
72.629
75.6052
58.3471
57.4168
75.8278
68.8628
57.2885
56.1247
64.793
60.0732
66.9338
63.3149
60.0795
69.2154
71.3158
69.5464
84.0479
80.8574
72.3852
73.4429
81.5869
78.6643
81.2253
79.9718
84.2154
85.3232
82.3464
77.886
75.2701
74.2035
70.7766
72.9234
72.5325
77.7563
72.3936
77.807
77.3376
79.6307
76.0432
74.2668
78.0517
77.925
71.764
62.6708
60.7998
61.3634
63.8738
62.0019
65.9289
58.4086
60.1702
59.5545
75.0478
72.0437
75.4261
68.0406
70.0012
70.2039
72.7285
70.7956
68.4776
61.866
63.1942
65.6268
60.3021
61.7027
58.6124
66.4927
64.6408
65.691
64.3383
65.0958
61.9463
60.239
61.3408
56.7799
57.6264
60.2927
59.4634
58.9563
61.9529
60.3032
57.1142
58.5949
58.5437
58.3683
56.7067
61.2966
60.2441
62.5011
58.9544
59.4823
60.2668
58.722
57.779
57.0185
55.5116
56.2187
58.8535
60.62
62.9156
60.7538
59.2183
63.5972
61.5034
62.6234
63.0474
61.2935
62.8937
61.9811
63.7825
59.9552
60.7417
71.8557
69.7106
72.0093
64.7811
67.3351
66.8186
66.864
67.37
64.7868
60.6609
62.7953
62.7371
65.0999
65.3507
66.0699
65.0421
71.7701
68.27
71.8156
72.8323
72.3227
75.1392
73.7119
75.5715
69.6604
67.8601
81.0011
79.3818
79.0999
75.728
77.9376
78.2935
78.4299
76.8422
75.7925
69.7429
73.8724
72.6101
66.0163
72.9905
69.0979
67.4906
72.6781
81.4796
82.0501
79.815
80.5202
83.0761
79.6373
77.4322
77.1157
74.9249
76.4499
76.3415
81.2531
77.5165
80.6324
75.8297
78.6593
77.2297
62.938
64.4623
59.5361
60.7442
66.1645
63.2094
64.9116
64.4977
62.0111
65.746
63.6367
66.0584
60.2652
59.4575
75.5631
74.0988
75.8721
68.4256
71.1401
72.0627
70.4375
70.8327
67.7559
61.9064
65.4688
65.3211
65.3791
65.4561
68.8578
67.1878
69.1849
67.4696
71.1959
76.9263
75.6762
76.2958
75.8192
78.9156
73.5388
71.9274
79.0371
79.6482
75.4437
74.2316
75.7042
75.1808
78.1083
78.7161
77.9809
72.5511
74.5577
73.2493
76.341
76.2746
81.2166
79.2521
81.4397
78.1563
83.3845
81.2335
82.5383
86.0005
83.622
80.3021
84.6941
83.8244
69.7945
72.8473
68.2517
80.6597
75.7411
75.093
79.3748
76.9807
82.4115
84.9992
88.2927
86.8243
79.1959
79.7875
79.7365
79.3615
77.267
78.3743
77.9564
73.8341
74.0484
70.9486
72.2119
70.8518
75.8148
77.8864
70.0219
74.762
72.5435
76.1495
76.0345
73.2468
71.1683
74.7514
71.0319
76.0866
72.1363
76.2928
71.6898
72.826
67.8448
69.5744
76.0423
73.2237
74.7561
65.0939
65.0785
72.343
68.3829
72.0536
65.0898
66.1274
80.5401
80.341
81.8795
76.3236
78.4593
80.182
78.3502
77.7758
76.8394
69.9037
73.2547
74.1821
72.0834
71.8566
66.4409
74.0893
73.6819
75.0853
67.547
71.871
72.4908
78.1482
80.9047
78.7189
79.6068
83.2478
79.2425
83.776
84.0294
78.4857
73.769
73.037
75.4275
73.252
73.0149
72.8552
77.6796
73.8664
75.5453
74.119
74.7144
72.3024
61.8092
60.9389
63.253
61.7476
60.8695
58.8523
59.615
73.7213
76.4161
68.4026
74.3402
74.6194
73.5343
68.2026
60.4315
59.5795
64.0278
56.8791
57.217
62.0589
66.5278
59.8145
62.4085
62.7369
61.7508
56.409
60.5367
65.4972
58.9127
57.7103
69.6531
62.6318
65.8534
62.5676
58.1493
63.8927
59.8505
66.1576
56.1551
59.0246
68.8865
69.1709
68.8773
70.909
74.3138
76.0975
76.1578
74.3104
71.3045
60.6073
65.5174
65.5705
73.2084
72.5707
77.4336
75.1973
83.0759
81.7171
85.3002
70.0912
69.7098
75.2608
72.3017
75.3141
71.0403
78.1339
82.4268
81.7273
81.5142
79.913
80.191
81.2368
79.1536
79.9095
78.2263
80.9416
76.2907
80.8518
78.7738
81.9618
81.4361
77.6203
79.1554
82.2777
83.6651
82.9797
85.0321
83.5821
83.8748
86.7942
78.0815
78.1475
85.1464
81.978
79.77
78.7123
79.9737
87.9319
84.1777
86.2038
79.677
77.4862
78.2802
76.102
74.7034
76.0795
71.2095
73.5688
76.1548
76.4448
65.8598
71.5678
68.4373
66.7927
68.3963
74.5109
72.7295
73.7304
69.8819
72.1784
70.6235
73.6914
73.8898
72.9605
75.5294
73.8661
73.5912
74.2311
77.7237
76.6842
81.4308
81.3447
79.7074
72.3911
74.2421
73.1665
69.2686
77.837
71.0543
71.0191
73.2187
68.6591
82.4958
76.5811
70.4395
72.7185
80.7238
76.4532
78.552
79.5623
79.9609
80.175
80.9892
74.5426
80.3356
78.3687
80.2101
80.5015
80.7497
75.2111
72.1412
75.8407
76.8053
76.7503
74.4916
78.856
76.5249
72.3669
71.8104
77.711
73.7196
77.3509
76.4902
79.1043
78.8686
76.0914
76.3449
82.9277
78.5942
79.5567
82.6638
80.9392
65.9252
71.5776
67.955
69.3194
74.0487
78.4798
77.713
77.083
