# vtk DataFile Version 4.2
vtk output
ASCII
DATASET POLYDATA
POINTS 642 double
-31.6207 20.0121 -81.6493
-29.0983 20.0109 -81.6494
-31.6225 15.9114 -81.6512
-29.0965 15.9134 -81.6516
-30.3591 16.7193 -79.646
-30.3585 19.2317 -79.6091
-30.3589 16.7169 -83.6677
-30.3589 19.2141 -83.6653
-28.3754 17.9678 -82.878
-28.3557 17.9708 -80.4102
-32.3451 17.9669 -82.8802
-32.3642 17.9702 -80.4099
-32.293 19.1654 -80.9111
-31.5514 18.7069 -79.7196
-31.1044 19.9233 -80.4425
-29.6134 19.9227 -80.4426
-30.3589 20.3839 -81.6493
-29.6199 19.906 -82.8462
-31.0981 19.9067 -82.8466
-31.5356 18.6968 -83.5589
-32.278 19.1575 -82.3824
-32.7091 17.968 -81.6475
-29.166 18.7077 -79.7186
-28.4274 19.1637 -80.9116
-31.5353 17.2377 -79.7456
-30.3589 17.9699 -79.2708
-32.2685 16.7721 -82.3789
-32.2659 16.7775 -80.9236
-30.3592 17.9648 -84.028
-31.5353 17.2336 -83.5611
-28.4398 19.1573 -82.3825
-29.1822 18.6972 -83.5582
-28.4549 16.7804 -80.924
-29.1827 17.2381 -79.746
-29.6202 16.0162 -80.4547
-31.1005 16.01 -80.4509
-30.3594 15.535 -81.6496
-31.1004 16.0167 -82.8469
-29.6197 16.0203 -82.8441
-29.1851 17.2345 -83.5582
-28.4601 16.778 -82.3749
-28.0149 17.9692 -81.6488
-32.0163 19.6627 -81.2715
-31.7713 19.6239 -80.6271
-31.41 20.051 -81.035
-32.0341 18.344 -80.0088
-32.0031 18.987 -80.2456
-32.4082 18.5762 -80.6141
-30.7381 19.6356 -79.9491
-31.3803 19.3823 -79.9972
-30.9684 19.0148 -79.5827
-30.7511 20.2691 -81.0133
-31.0304 20.2849 -81.6495
-29.9794 19.6356 -79.9487
-30.3588 20.0274 -80.3786
-29.6876 20.2844 -81.6494
-29.9668 20.2689 -81.0133
-29.3084 20.05 -81.0352
-30.7494 20.2585 -82.2828
-31.4051 20.0419 -82.2614
-29.3132 20.0406 -82.261
-29.9686 20.2579 -82.2827
-30.7339 19.6164 -83.3312
-30.3589 20.0084 -82.909
-29.9838 19.6162 -83.331
-31.7602 19.6119 -82.6647
-32.0099 19.657 -82.0255
-30.9607 19.0003 -83.6938
-31.369 19.367 -83.2848
-32.3876 18.5703 -82.6752
-31.9845 18.9769 -83.0394
-32.0136 18.3377 -83.2738
-32.3873 19.2236 -81.6484
-32.6043 17.9686 -82.3011
-32.6023 18.5923 -82.0313
-32.6126 18.5952 -81.2641
-32.6222 17.9687 -80.9931
-28.9472 19.6232 -80.627
-28.7042 19.6604 -81.2718
-29.7482 19.0158 -79.5807
-29.3367 19.3827 -79.9959
-28.3101 18.5759 -80.614
-28.7155 18.9868 -80.2454
-28.6839 18.344 -80.0087
-30.9847 18.3558 -79.3826
-30.3587 18.6349 -79.3545
-32.0206 17.5981 -80.0223
-31.6038 17.9704 -79.633
-30.3589 17.3105 -79.3831
-30.9797 17.5861 -79.3999
-30.9591 16.9336 -79.6162
-32.5927 17.3464 -81.2691
-32.3871 17.3666 -80.6258
-32.3761 17.3653 -82.6721
-32.5824 17.3452 -82.0284
-32.0068 16.2697 -81.2766
-32.3709 16.7111 -81.6524
-32.01 16.2682 -82.0276
-31.5928 17.9648 -83.6578
-32.011 17.5939 -83.2733
-30.3591 18.6239 -83.9283
-30.9788 18.348 -83.9056
-30.9607 16.9298 -83.6967
-30.9791 17.5811 -83.9061
-30.3591 17.3048 -83.9288
-29.3488 19.3667 -83.2845
-29.7571 19.0004 -83.6933
-28.709 19.6558 -82.0259
-28.9577 19.6113 -82.6645
-28.7057 18.3385 -83.2719
-28.7335 18.9769 -83.0391
-28.3313 18.5704 -82.6746
-28.7148 16.273 -81.2786
-28.9652 16.3205 -80.6429
-29.3117 15.8815 -81.0399
-28.6979 17.5985 -80.0223
-28.7404 16.9599 -80.2678
-28.3355 17.3674 -80.6273
-29.9861 16.3115 -79.9762
-29.3545 16.568 -80.0258
-29.7588 16.9341 -79.6165
-29.9679 15.658 -81.0153
-29.6858 15.6376 -81.6508
-30.7335 16.3079 -79.9739
-30.3601 15.9068 -80.387
-31.0326 15.6355 -81.6501
-30.752 15.6539 -81.0138
-31.4088 15.8759 -81.0371
-29.967 15.6634 -82.2844
-29.3102 15.8814 -82.2624
-31.4093 15.8785 -82.264
-30.7516 15.6616 -82.2851
-29.9853 16.3182 -83.3267
-30.3595 15.9181 -82.9071
-30.7334 16.317 -83.3271
-28.9616 16.3171 -82.6596
-28.711 16.2704 -82.0261
-29.7577 16.9301 -83.6961
-29.3548 16.5691 -83.279
-28.346 17.3678 -82.6698
-28.7466 16.9612 -83.0317
-28.7105 17.5952 -83.2696
-28.355 16.7145 -81.6518
-28.1158 17.9695 -82.3003
-28.14 17.3487 -82.0277
-28.1316 17.3476 -81.2698
-28.1017 17.9701 -80.9939
-29.7382 17.5863 -79.4009
-29.1135 17.9705 -79.6327
-29.7328 18.3562 -79.3827
-31.7567 16.3146 -80.64
-31.3642 16.5651 -80.0248
-31.9786 16.9585 -80.2671
-31.3656 16.5661 -83.2804
-31.7608 16.3129 -82.6637
-31.9759 16.9577 -83.0348
-29.1273 17.9652 -83.6542
-29.7399 17.5812 -83.9039
-29.74 18.348 -83.9034
-28.1069 18.5947 -81.2642
-28.1174 18.5918 -82.0311
-28.3333 19.2214 -81.6491
-31.8274 19.8604 -81.4636
-31.7321 19.8778 -81.1407
-31.5299 20.0512 -81.3481
-32.0556 19.4106 -80.7595
-31.9129 19.6582 -80.9404
-32.1724 19.4302 -81.0865
-31.2677 20.0086 -80.7316
-31.6019 19.8572 -80.8182
-31.4502 19.7972 -80.5205
-32.2222 18.1534 -80.2014
-32.2421 18.4727 -80.2936
-32.4051 18.2666 -80.4976
-31.7936 18.8569 -79.9601
-32.0329 18.6736 -80.1086
-31.8098 18.5291 -79.8474
-32.3725 18.8775 -80.7517
-32.2266 18.7936 -80.4193
-32.1718 19.0906 -80.5666
-30.5445 19.442 -79.7556
-30.8666 19.3429 -79.7435
-30.6583 19.1376 -79.5759
-31.253 19.6753 -80.2021
-31.0691 19.528 -79.9581
-30.9256 19.7971 -80.1787
-31.2674 18.8706 -79.6307
-31.1864 19.2092 -79.77
-31.4802 19.0551 -79.8349
-31.9089 19.3228 -80.4193
-31.7106 19.2004 -80.1008
-31.5924 19.5244 -80.2936
-31.2258 20.1981 -81.3339
-31.3438 20.1659 -81.6495
-30.9365 20.1227 -80.7141
-31.0877 20.1829 -81.0132
-30.7007 20.3584 -81.6494
-30.8925 20.3028 -81.329
-30.5563 20.3567 -81.3295
-30.1727 19.4422 -79.7551
-30.3587 19.6623 -79.9319
-29.9789 20.0005 -80.3946
-30.1638 19.8532 -80.15
-29.792 19.7968 -80.1786
-30.5538 19.8532 -80.15
-30.7389 20.0007 -80.3946
-29.3744 20.1652 -81.6494
-29.4923 20.1974 -81.334
-29.1888 20.0502 -81.3483
-30.1614 20.3568 -81.3294
-29.8255 20.3024 -81.329
-30.0172 20.3581 -81.6493
-29.4504 20.0078 -80.7318
-29.6304 20.1823 -81.0134
-29.7814 20.1223 -80.7143
-30.5579 20.1786 -80.6824
-30.1598 20.1785 -80.6825
-30.3589 20.301 -81.0047
-31.2238 20.1932 -81.9644
-31.5271 20.0467 -81.9501
-30.556 20.3507 -81.9687
-30.8914 20.2975 -81.9693
-31.2617 19.9953 -82.5615
-31.0844 20.173 -82.283
-30.9328 20.1083 -82.5787
-29.1915 20.0454 -81.9499
-29.4944 20.1921 -81.9641
-29.7853 20.1075 -82.5785
-29.6338 20.1719 -82.2827
-29.4565 19.9942 -82.5612
-29.8267 20.2967 -81.9691
-30.1619 20.3503 -81.9686
-30.5425 19.4232 -83.5209
-30.3589 19.6422 -83.3475
-30.1753 19.4232 -83.5208
-30.7357 19.9825 -82.8935
-30.5519 19.8334 -83.1337
-30.92 19.7785 -83.1059
-29.7979 19.7781 -83.1057
-30.1659 19.8333 -83.1336
-29.9822 19.9822 -82.8934
-30.359 20.2897 -82.2913
-30.1612 20.1629 -82.6098
-30.5567 20.1631 -82.6099
-31.7261 19.8705 -82.1562
-31.8247 19.8574 -81.8345
-31.4414 19.7828 -82.7699
-31.594 19.846 -82.476
-32.1618 19.4229 -82.209
-31.9033 19.649 -82.3547
-32.0422 19.4008 -82.5333
-30.6547 19.1211 -83.6991
-30.8605 19.3255 -83.5334
-31.4665 19.0425 -83.4446
-31.1765 19.1941 -83.5082
-31.2555 18.8583 -83.647
-31.0612 19.5104 -83.3228
-31.2442 19.6585 -83.0833
-32.3833 18.2623 -82.7906
-32.2202 18.4665 -82.9915
-32.2012 18.1486 -83.0843
-32.154 19.0811 -82.723
-32.2057 18.7854 -82.8674
-32.3535 18.8699 -82.5393
-31.791 18.5211 -83.4326
-32.0121 18.6654 -83.1738
-31.7757 18.8467 -83.3205
-31.5805 19.5102 -82.9934
-31.6956 19.1878 -83.1827
-31.8939 19.3112 -82.8692
-32.0396 19.6765 -81.6489
-32.3565 19.2056 -82.0226
-32.2201 19.4528 -81.8415
-32.2241 19.4556 -81.4556
-32.3657 19.2104 -81.2733
-32.4906 17.9678 -82.6079
-32.5238 18.2768 -82.4926
-32.6815 18.2816 -81.8403
-32.6264 18.2821 -82.1675
-32.6784 17.9686 -81.9797
-32.5161 18.5918 -82.3597
-32.466 18.8869 -82.2144
-32.5433 18.2797 -80.799
-32.51 17.9696 -80.6846
-32.4804 18.8926 -81.0798
-32.5328 18.5965 -80.9332
-32.6902 17.968 -81.3153
-32.6395 18.2834 -81.1273
-32.6876 18.2821 -81.4555
-32.525 18.9195 -81.8435
-32.6377 18.6019 -81.648
-32.5309 18.9219 -81.4525
-28.9872 19.8764 -81.1409
-28.8926 19.8584 -81.4638
-29.2677 19.7966 -80.5205
-29.1167 19.8562 -80.8183
-28.5481 19.4281 -81.0869
-28.8066 19.6567 -80.9405
-28.664 19.4094 -80.7597
-30.0585 19.1381 -79.5749
-29.8504 19.3432 -79.7424
-29.2367 19.0561 -79.833
-29.5303 19.21 -79.768
-29.4494 18.8719 -79.6287
-29.6481 19.528 -79.9572
-29.4645 19.6751 -80.2017
-28.3145 18.2669 -80.498
-28.476 18.4726 -80.2935
-28.4966 18.1536 -80.2016
-28.5477 19.0896 -80.567
-28.4925 18.7927 -80.4197
-28.3474 18.8761 -80.7523
-28.9079 18.5295 -79.847
-28.6852 18.6735 -80.1084
-28.9241 18.8573 -79.9593
-29.1253 19.5244 -80.293
-29.007 19.2008 -80.0998
-28.8097 19.3225 -80.419
-30.671 18.8297 -79.4394
-30.3585 18.9503 -79.4647
-31.2807 18.5393 -79.5261
-30.987 18.6903 -79.4609
-30.3588 18.3068 -79.2888
-30.6748 18.4965 -79.3427
-30.6734 18.164 -79.2962
-32.2146 17.7877 -80.2077
-32.0434 17.9705 -79.9897
-31.5836 17.5981 -79.6667
-31.8252 17.7794 -79.8075
-31.7934 17.4139 -79.8677
-31.8318 18.1619 -79.7994
-31.5938 18.3439 -79.6507
-30.3589 16.9988 -79.5005
-30.6666 17.1176 -79.4726
-30.6538 16.8125 -79.612
-30.6721 17.7763 -79.3053
-30.6715 17.4471 -79.3663
-30.359 17.6347 -79.3044
-31.2542 17.0757 -79.6605
-30.9788 17.2551 -79.4901
-31.2704 17.4041 -79.5493
-31.3081 18.1654 -79.4788
-31.3039 17.7753 -79.4877
-30.9906 17.9699 -79.3592
-32.5327 17.6603 -80.8045
-32.3936 17.6742 -80.505
-32.6804 17.6559 -81.4563
-32.6314 17.6554 -81.1303
-32.3444 17.067 -80.7653
-32.5117 17.3462 -80.9416
-32.4521 17.0507 -81.0895
-32.3778 17.6722 -82.7894
-32.5155 17.6596 -82.491
-32.4482 17.0469 -82.2108
-32.4999 17.3446 -82.3563
-32.3385 17.0646 -82.5337
-32.6156 17.6557 -82.1654
-32.6725 17.6563 -81.8388
-31.8252 16.067 -81.4663
-32.0352 16.2521 -81.6521
-31.8262 16.0667 -81.8369
-32.3423 16.7289 -81.2813
-32.2106 16.4783 -81.4609
-32.1529 16.5082 -81.0958
-32.1587 16.504 -82.2093
-32.2131 16.4768 -81.8441
-32.3456 16.7252 -82.0229
-32.6192 17.3371 -81.6489
-32.5077 17.0149 -81.8441
-32.5064 17.0178 -81.4581
-32.0264 17.9656 -83.2976
-32.1993 17.7839 -83.0839
-31.5781 18.336 -83.6311
-31.8146 18.1557 -83.4845
-31.7895 17.4098 -83.4335
-31.8141 17.7745 -83.4848
-31.5781 17.5935 -83.6319
-30.359 18.9352 -83.8114
-30.6673 18.8164 -83.8389
-30.6714 18.1581 -83.9978
-30.6718 18.4873 -83.9431
-30.3592 18.2998 -84.0022
-30.9794 18.6789 -83.8194
-31.2691 18.5297 -83.7554
-30.6546 16.8091 -83.7021
-30.6677 17.1119 -83.8419
[...]
POINT_DATA 642
SCALARS Mean_Curvature double 1
LOOKUP_TABLE default
0.825599
0.826862
0.848893
0.868652
0.778289
0.832231
0.835677
0.802763
0.794483
0.830543
0.801312
0.816365
0.820066
0.795372
0.81917
0.814873
0.820986
0.813774
0.815822
0.762948
0.807204
0.829437
0.797925
0.814975
0.742641
0.845855
0.855049
0.762704
0.854468
0.811292
0.816632
0.780455
0.782396
0.746391
0.845896
0.860465
0.866888
0.855514
0.850597
0.812222
0.74036
0.786316
0.818975
0.809329
0.815932
0.822427
0.81468
0.797842
0.816794
0.811717
0.80231
0.815081
0.796571
0.814336
0.82483
0.800911
0.816742
0.815429
0.816168
0.818876
0.8139
0.816376
0.816405
0.812994
0.816606
0.814513
0.801019
0.780235
0.81586
0.789982
0.815803
0.79215
0.825159
0.753864
0.822835
0.840159
0.803126
0.813605
0.810447
0.822471
0.817644
0.828146
0.810245
0.823751
0.818387
0.801299
0.773919
0.816993
0.770154
0.800411
0.780555
0.773815
0.766158
0.771612
0.684233
0.842365
0.81959
0.846467
0.822004
0.789062
0.816498
0.836759
0.816574
0.826073
0.779525
0.816244
0.785316
0.808015
0.81547
0.791019
0.816608
0.785807
0.8504
0.793988
0.830561
0.7828
0.797555
0.732416
0.799545
0.767194
0.786143
0.825853
0.818764
0.842532
0.854943
0.79622
0.840499
0.840742
0.823328
0.840102
0.839271
0.829803
0.771888
0.822212
0.759484
0.861343
0.863428
0.824828
0.780758
0.782043
0.779212
0.780184
0.78921
0.754287
0.718505
0.769123
0.770395
0.789684
0.826685
0.806902
0.824427
0.750907
0.791858
0.758762
0.86086
0.771986
0.811141
0.819655
0.828437
0.857768
0.800341
0.805085
0.817035
0.812567
0.82315
0.81093
0.810923
0.81636
0.817051
0.811101
0.81362
0.832073
0.797817
0.822156
0.804806
0.806247
0.799626
0.835392
0.824195
0.819726
0.823203
0.819328
0.822127
0.815979
0.8171
0.817799
0.792466
0.809212
0.80121
0.811862
0.809857
0.812368
0.819165
0.806642
0.82024
0.818145
0.805862
0.80805
0.810862
0.82481
0.815319
0.819965
0.817335
0.812999
0.817763
0.819403
0.816116
0.82054
0.82785
0.818012
0.805715
0.807143
0.814313
0.816397
0.820652
0.820825
0.822095
0.813477
0.820438
0.822202
0.804051
0.812021
0.815838
0.8221
0.818928
0.821819
0.817885
0.817941
0.81617
0.812299
0.80835
0.799548
0.815434
0.805614
0.816419
0.818142
0.813653
0.815012
0.813969
0.814712
0.819233
0.811848
0.8219
0.819938
0.811918
0.809663
0.813847
0.814582
0.802472
0.811282
0.812411
0.792872
0.810727
0.804737
0.807836
0.769578
0.815219
0.815748
0.785288
0.782325
0.773303
0.817739
0.805723
0.807148
0.768203
0.783378
0.796956
0.817827
0.818164
0.820067
0.822462
0.808822
0.812769
0.81787
0.828962
0.777996
0.778009
0.759406
0.777988
0.778199
0.803216
0.815085
0.805907
0.793324
0.845675
0.812954
0.834954
0.746677
0.778157
0.826086
0.811339
0.847206
0.813513
0.808357
0.813381
0.812634
0.80987
0.810876
0.810911
0.827218
0.818921
0.817574
0.821214
0.812498
0.814326
0.813322
0.818201
0.818009
0.827564
0.814361
0.807443
0.818689
0.801258
0.805187
0.805495
0.816908
0.818383
0.816334
0.794099
0.803539
0.796768
0.795472
0.815699
0.818883
0.83875
0.792663
0.818666
0.788029
0.798279
0.748934
0.826654
0.833184
0.765622
0.754121
0.784674
0.837598
0.788259
0.812674
0.774339
0.739476
0.765668
0.820388
0.806604
0.832671
0.798558
0.790785
0.841442
0.805859
0.762067
0.77233
0.735032
0.777979
0.756668
0.760779
0.740899
0.724606
0.720217
0.776074
0.837683
0.842455
0.842979
0.783722
0.828976
0.80086
0.863748
0.848231
0.840598
0.754737
0.85488
0.777427
0.777153
0.78353
0.770123
0.77044
0.800436
0.776897
0.776319
0.778826
0.777819
0.855272
0.828559
0.847705
0.77882
0.774541
0.827932
0.809222
0.819478
0.784765
0.798562
0.811836
0.849034
0.808648
0.854911
0.841224
0.851276
0.834653
0.81155
0.795627
0.814386
0.814524
0.779663
0.808942
0.805723
0.813702
0.812856
0.815995
0.814267
0.809985
0.813636
0.812723
0.762677
0.805226
0.794283
0.799714
0.792993
0.789456
0.815572
0.79718
0.824846
0.818285
0.823004
0.819928
0.86648
0.841937
0.846296
0.766041
0.814102
0.766558
0.838794
0.841113
0.84028
0.805009
0.749616
0.778656
0.790781
0.744897
0.74854
0.793466
0.790329
0.794141
0.759742
0.766628
0.789214
0.817503
0.768287
0.842411
0.778752
0.780947
0.790104
0.776427
0.786742
0.771229
0.819451
0.843486
0.830428
0.824471
0.797002
0.808444
0.83581
0.753935
0.845099
0.858187
0.873228
0.873189
0.852827
0.840315
0.821158
0.833368
0.833046
0.836196
0.842552
0.797785
0.848786
0.843363
0.846582
0.842096
0.84498
0.835801
0.835038
0.849826
0.795831
0.817768
0.843645
0.834717
0.839626
0.840074
0.827963
0.842257
0.836251
0.844574
0.81652
0.795234
0.814169
0.762464
0.810753
0.846525
0.756934
0.77661
0.803767
0.748484
0.857538
0.803136
0.831637
0.833714
0.846192
0.859554
0.852293
0.849146
0.892404
0.863285
0.874346
0.832026
0.814693
0.810917
0.815571
0.820727
0.779395
0.764442
0.778859
0.78947
0.78215
0.730173
0.779685
0.747716
0.790244
0.795093
0.806608
0.753832
0.77987
0.723522
0.870533
0.839217
0.891901
0.840528
0.767055
0.771963
0.760624
0.808051
0.743068
0.779937
0.760127
0.708329
0.78131
0.802083
0.787509
0.753918
0.783812
0.794974
0.801033
0.783865
0.777601
0.781736
0.757168
0.763845
0.741832
0.783106
0.830004
0.824019
0.81531
0.830306
0.808385
0.790204
0.803513
0.845868
0.805642
0.799923
0.794835
0.802129
0.829217
0.826968
0.84152
0.856778
0.852172
0.847586
0.765362
0.752769
0.782833
0.769494
0.768608
0.847766
0.764752
0.781474
0.766614
0.73539
0.788018
0.773097
0.77551
0.761629
0.805722
0.804778
0.759084
0.802944
0.800501
0.840746
0.872832
0.854216
0.847173
0.854378
0.790498
0.804633
0.799938
0.773588
0.719222
0.804097
0.766407
0.763613
0.773021
0.774405
0.773055
0.759989
0.763981
0.815958
0.856674
0.803061
0.810788
0.779674
0.774463
0.767466
0.773002
0.824804
0.853999
0.827027
0.850576
0.829447
0.804352
0.757668
0.804591
0.835793
0.837791
0.795818
0.83898
0.779589
0.815876
0.801876
0.797307
0.822594
0.800148
0.809602
0.817935
0.830697
0.842071
0.826819
SCALARS CoVolArea double 1
LOOKUP_TABLE default
0.0873296
0.0872244
0.0874191
0.0870771
0.0856305
0.0871966
0.0855172
0.0857273
0.0840085
0.0848569
0.0841681
0.0850298
0.121935
0.121936
0.123927
0.123927
0.124023
0.122271
0.122309
0.120227
0.120807
0.119142
0.121956
0.121807
0.120261
0.120735
0.120045
0.120604
0.120103
0.119832
0.120623
0.12004
0.120095
0.12015
0.122382
0.122644
0.124539
0.122339
0.122157
0.119521
0.119776
0.118995
0.115871
0.128686
0.116781
0.114008
0.127547
0.11412
0.116696
0.128564
0.115785
0.129825
0.116901
0.116737
0.129767
0.116827
0.129789
0.116688
0.12887
0.115958
0.115897
0.128845
0.114674
0.128017
0.114654
0.127097
0.115386
0.113965
0.126377
0.112708
0.125522
0.112665
0.126844
0.112394
0.125224
0.125811
0.113019
0.128565
0.115766
0.115744
0.128557
0.113913
0.127525
0.113946
0.126854
0.115331
0.113321
0.125894
0.113657
0.125809
0.113758
0.124896
0.113043
0.112466
0.124956
0.114966
0.125649
0.114974
0.124897
0.112362
0.11371
0.125443
0.113705
0.125524
0.113814
0.126332
0.1139
0.115246
0.127019
0.112445
0.125434
0.112591
0.114532
0.126751
0.116125
0.11317
0.125218
0.112878
0.114681
0.126216
0.113603
0.129718
0.117191
0.114668
0.128596
0.117444
0.129841
0.116466
0.129384
0.116022
0.116336
0.129499
0.114801
0.128203
0.114967
0.126466
0.114367
0.113494
0.126193
0.111949
0.124984
0.112097
0.125208
0.112029
0.124386
0.12443
0.112812
0.125844
0.125854
0.126924
0.12705
0.126546
0.125581
0.126576
0.126855
0.125476
0.124735
0.125388
0.125378
0.12546
0.124929
0.126741
0.110448
0.116893
0.110864
0.126466
0.118001
0.115684
0.117071
0.118469
0.127473
0.107987
0.114656
0.108067
0.125892
0.116523
0.114672
0.114665
0.116517
0.125894
0.110723
0.116733
0.11032
0.127421
0.118337
0.117023
0.115641
0.11785
0.126371
0.141001
0.140947
0.141564
0.117411
0.110917
0.128051
0.118973
0.117181
0.119035
0.128103
0.11074
0.117317
0.128028
0.118945
0.117058
0.118934
0.128033
0.110798
0.117325
0.110735
0.128078
0.118987
0.117146
0.117025
0.118928
0.128023
0.142852
0.142832
0.142873
0.116972
0.110498
0.127651
0.118585
0.115865
0.118099
0.1267
0.110382
0.116899
0.12666
0.118067
0.115825
0.118551
0.127641
0.108762
0.115265
0.108746
0.126326
0.117051
0.115189
0.115162
0.117036
0.126292
0.141854
0.14132
0.141344
0.116192
0.110233
0.125849
0.117313
0.114893
0.116985
0.125032
0.108523
0.114708
0.124242
0.115821
0.113882
0.116301
0.125479
0.106813
0.113131
0.106835
0.124214
0.114853
0.113379
0.113179
0.114776
0.123862
0.139445
0.138607
0.138944
0.116116
0.124927
0.116893
0.117148
0.125489
0.106675
0.112925
0.123355
0.114449
0.112603
0.114676
0.124068
0.114092
0.107638
0.124897
0.115765
0.112789
0.115258
0.123625
0.138609
0.13813
0.138886
0.116761
0.110341
0.127427
0.118364
0.115545
0.117855
0.126321
0.110312
0.116757
0.126331
0.117833
0.115601
0.118384
0.12744
0.107843
0.114511
0.107837
0.125822
0.116447
0.114549
0.114696
0.116492
0.125885
0.141507
0.1409
0.140901
0.116087
0.110132
0.125531
0.117158
0.114765
0.116849
0.124852
0.107677
0.113947
0.124058
0.115277
0.113544
0.115651
0.124953
0.108153
0.114201
0.108353
0.124288
0.115473
0.113747
0.113722
0.115491
0.124139
0.139055
0.13849
0.138789
0.113361
0.10753
0.122777
0.114401
0.113435
0.114778
0.123922
0.106604
0.112823
0.123444
0.114578
0.113167
0.114413
0.122926
0.110145
0.115528
0.110155
0.124321
0.116115
0.114425
0.114053
0.116006
0.123769
0.137365
0.137628
0.137861
0.112935
0.106674
0.123603
0.11457
0.112794
0.114444
0.123423
0.108448
0.114397
0.12384
0.115372
0.113523
0.115546
0.123972
0.108276
0.114278
0.108227
0.123826
0.115431
0.113582
0.113681
0.115506
0.12392
0.137694
0.137859
0.137711
0.114666
0.108494
0.125443
0.116271
0.113768
0.115753
0.124132
0.110113
0.116072
0.124914
0.116862
0.114735
0.117241
0.125797
0.106648
0.112934
0.106639
0.12371
0.114591
0.112962
0.11328
0.114745
0.124108
0.139388
0.138863
0.138536
0.109647
0.115826
0.110447
0.124531
0.116465
0.114148
0.116019
0.117083
0.125635
0.107522
0.113545
0.107395
0.123724
0.114935
0.113427
0.112944
0.114736
0.123689
0.108758
0.114585
0.108259
0.12534
0.116255
0.115201
0.113584
0.115565
0.123951
0.138559
0.138312
0.139209
0.117359
0.11091
0.127285
0.118675
0.117637
0.119231
0.128374
0.108789
0.115228
0.126873
0.117131
0.11527
0.117138
0.126735
0.111278
0.117631
0.110853
0.128408
0.119348
0.117729
0.116357
0.118889
0.127532
0.142261
0.142363
0.142876
0.117216
0.11044
0.128316
0.119067
0.115778
0.118392
0.126802
0.110797
0.117524
0.126992
0.118615
0.116084
0.119249
0.128368
0.108677
0.115546
0.108762
0.126345
0.117288
0.11523
0.115355
0.117349
0.12645
0.142552
0.141728
0.141657
0.115841
0.109694
0.125517
0.116929
0.113488
0.116081
0.124065
0.108176
0.114478
0.123649
0.115434
0.1133
0.116266
0.125372
0.106296
0.112357
0.106439
0.123621
0.114133
0.112747
0.112516
0.113986
0.123111
0.13919
0.138244
0.138511
0.114921
0.12342
0.115333
0.115637
0.123878
0.106436
0.112395
0.12242
0.113851
0.112204
0.114058
0.123236
0.113232
0.107411
0.123304
0.114447
0.112715
0.114252
0.122559
0.137289
0.136801
0.137348
0.11415
0.124108
0.115447
0.115487
0.124315
0.113828
0.125003
0.115622
0.115172
0.12399
0.116078
0.124878
0.116892
0.117169
0.125584
0.138484
0.139087
0.138826
0.116236
0.125951
0.117417
0.116726
0.124862
0.114734
0.124205
0.115812
0.116416
0.12558
0.113688
0.124181
0.115051
0.115137
0.123938
0.139574
0.138693
0.138984
0.114712
0.125562
0.116543
0.115792
0.124108
0.11626
0.124498
0.116626
0.117353
0.125802
0.112736
0.123564
0.114383
0.114666
0.124061
0.139451
0.138868
0.138701
0.112733
0.12319
0.114234
0.114389
0.123449
0.114179
0.123848
0.115435
0.115255
0.123604
0.11437
0.123866
0.11549
0.115348
0.123777
0.137532
0.137736
0.137581
0.113783
0.123357
0.114909
0.115457
0.124719
0.112717
0.123878
0.114539
0.114115
0.123006
0.116038
0.12538
0.117075
0.116787
0.124728
0.13778
0.138381
0.138709
SCALARS SignedDistance double 1
LOOKUP_TABLE default
2.31989
2.32895
2.31313
2.32856
2.61898
2.33074
2.50244
2.5503
2.78077
2.65896
2.75399
2.63127
2.419
2.44434
2.22512
2.22895
2.21541
2.39079
2.38583
2.65965
2.56785
2.72242
2.44254
2.43624
2.68494
2.51156
2.70808
2.65679
2.46189
2.62876
2.57188
2.66467
2.66659
2.68687
2.41887
2.38476
2.21571
2.41366
2.45823
2.66636
2.77517
2.74077
2.34046
2.31015
2.24945
2.53376
2.42663
2.54322
2.26046
2.33254
2.38298
2.19897
2.2581
2.25432
2.18712
2.25834
2.20098
2.26283
2.27771
2.33369
2.34226
2.28219
2.46566
2.37557
2.46626
2.45486
2.42892
2.59283
2.52437
2.71027
2.61937
2.71834
2.47911
2.79031
2.67183
2.62698
2.62849
2.31918
2.37501
2.36449
2.31649
2.55205
2.43541
2.54225
2.46471
2.40253
2.67578
2.57839
2.6451
2.61512
2.63151
2.71444
2.69774
2.77025
2.82501
2.50024
2.63918
2.47
2.65963
2.7254
2.54524
2.5701
2.53814
2.57319
2.55504
2.52593
2.5921
2.43017
2.45743
2.74614
2.62678
2.71909
2.5395
2.56003
2.35698
2.69215
2.67113
2.74833
2.54577
2.59607
2.63122
2.21556
2.20223
2.54046
2.34152
2.20191
2.16656
2.30854
2.24841
2.35009
2.29945
2.22783
2.50864
2.4306
2.50671
2.59581
2.52914
2.55034
2.5959
2.78895
2.71558
2.76101
2.69645
2.80667
2.83306
2.74956
2.68816
2.62032
2.577
2.46427
2.53534
2.59348
2.65829
2.57565
2.52604
2.68083
2.69318
2.5991
2.58924
2.62564
2.6819
2.48684
2.32731
2.29209
2.28305
2.35781
2.31981
2.37309
2.2304
2.27427
2.26567
2.58664
2.53326
2.58391
2.43768
2.48434
2.48315
2.47914
2.4805
2.41699
2.29295
2.31967
2.35235
2.27251
2.29232
2.23608
2.41329
2.35798
2.39388
2.36232
2.37654
2.31464
2.254
2.28798
2.19636
2.21414
2.24023
2.23389
2.21679
2.28832
2.25644
2.20043
2.21965
2.23466
2.22059
2.19868
2.2891
2.25695
2.3001
2.21006
2.23214
2.24494
2.23861
2.2234
2.20214
2.17845
2.17834
2.19858
2.28164
2.3251
2.25546
2.25539
2.35486
2.29787
2.32667
2.33261
2.29284
2.33268
2.30865
2.36176
2.26611
2.25879
2.51281
2.47286
2.51279
2.37012
2.41727
2.4229
2.42559
2.41717
2.37194
2.27781
2.31697
2.31712
2.37896
2.37076
2.41375
2.39091
2.49434
2.44101
2.50898
2.56272
2.53136
2.59971
2.5634
2.62858
2.48967
2.45157
2.75594
2.714
2.74332
2.59405
2.66474
2.64237
2.68639
2.67786
2.64299
2.48627
2.56813
2.53584
2.38281
2.5269
2.45347
2.40399
2.44101
2.77401
2.7599
2.71457
2.73841
2.77205
2.69688
2.61949
2.60942
2.63211
2.50588
2.57449
2.64537
2.64204
2.68713
2.57456
2.65409
2.54484
2.31752
2.35963
2.26823
2.28555
2.3963
2.34081
2.37611
2.34019
2.30216
2.38163
2.3347
2.40342
2.2773
2.26544
2.60825
2.54679
2.60421
2.43372
2.48822
2.49206
2.48523
2.48704
2.43812
2.31123
2.37378
2.37161
2.39146
2.37633
2.45165
2.4221
2.44473
2.4183
2.47057
2.65549
2.61104
2.64845
2.63254
2.69267
2.55421
2.49889
2.65127
2.65346
2.61918
2.56098
2.62743
2.58802
2.65473
2.66187
2.66299
2.51899
2.5974
2.53596
2.66192
2.66665
2.71401
2.66877
2.69786
2.69849
2.71579
2.77588
2.79741
2.7802
2.79659
2.75657
2.81793
2.79474
2.39928
2.46604
2.37554
2.66096
2.57158
2.5993
2.58329
2.55436
2.66048
2.79131
2.75075
2.7455
2.72866
2.75168
2.68501
2.71205
2.68083
2.70768
2.67006
2.57069
2.57965
2.50035
2.54495
2.49994
2.60943
2.64411
2.50992
2.54173
2.52892
2.62033
2.57513
2.57879
2.50348
2.55311
2.50123
2.61059
2.52884
2.61008
2.5313
2.56324
2.45436
2.49092
2.62763
2.56336
2.60074
2.37635
2.38296
2.51151
2.44283
2.49487
2.39521
2.41761
2.77306
2.73125
2.77253
2.64723
2.68635
2.7032
2.65448
2.67415
2.60172
2.48879
2.53971
2.5717
2.42708
2.44548
2.3413
2.61441
2.55062
2.61989
2.37727
2.46238
2.48838
2.67779
2.73331
2.71158
2.68048
2.72574
2.70161
2.71771
2.72038
2.66627
2.59176
2.59634
2.61891
2.53486
2.57241
2.47946
2.65498
2.61197
2.63695
2.61899
2.62647
2.57929
2.26832
2.25334
2.30572
2.27683
2.19607
2.21229
2.1616
2.5937
2.54372
2.33907
2.43459
2.45712
2.45323
2.37319
2.24709
2.22756
2.30721
2.1281
2.15783
2.19394
2.33405
2.22532
2.26053
2.26075
2.23205
2.16536
2.25271
2.32427
2.20525
2.20972
2.39615
2.28599
2.34024
2.28687
2.22184
2.30475
2.24514
2.34373
2.18679
2.20591
2.4947
2.50216
2.49458
2.42497
2.4904
2.51321
2.49203
2.49096
2.4078
2.25471
2.32609
2.32519
2.42969
2.41536
2.51711
2.46609
2.65719
2.55624
2.68998
2.51219
2.51896
2.62209
2.56598
2.60486
2.54503
2.56646
2.80186
2.77539
2.78175
2.74757
2.75638
2.78093
2.72036
2.73671
2.6883
2.6334
2.65896
2.70105
2.50388
2.7394
2.61918
2.61778
2.67539
2.79621
2.81775
2.78299
2.82712
2.7864
2.81181
2.81246
2.71116
2.67798
2.7309
2.74559
2.70387
2.71122
2.72961
2.78894
2.78365
2.75226
2.6542
2.6633
2.66206
2.63211
2.56843
2.61883
2.49734
2.55324
2.63638
2.65161
2.39083
2.47775
2.42434
2.42265
2.45307
2.60141
2.51869
2.5463
2.40137
2.45631
2.41972
2.51469
2.60058
2.59779
2.63411
2.61175
2.57151
2.51965
2.69424
2.65156
2.69956
2.70822
2.67316
2.56877
2.61911
2.6076
2.51342
2.5318
2.53535
2.54927
2.59261
2.37476
2.61366
2.48835
2.40402
2.45685
2.74757
2.64968
2.69983
2.72729
2.71645
2.58783
2.65828
2.62742
2.7578
2.70265
2.74013
2.7415
2.71008
2.54627
2.51906
2.56927
2.59455
2.6517
2.58513
2.65857
2.61747
2.55585
2.51681
2.64258
2.55705
2.64007
2.6272
2.70323
2.65931
2.57719
2.51394
2.76958
2.62779
2.70871
2.74661
2.71973
2.40194
2.46046
2.43435
2.45758
2.52771
2.65293
2.5754
2.55153
