# vtk DataFile Version 4.2
vtk output
ASCII
DATASET POLYDATA
POINTS 642 double
-31.4309 19.7177 -81.645
-29.2895 19.7158 -81.6452
-31.4291 16.2019 -81.6512
-29.2923 16.2064 -81.6524
-30.3596 16.9089 -79.9724
-30.358 19.0542 -79.913
-30.3595 16.9095 -83.3479
-30.3591 19.0243 -83.3438
-28.7142 17.9733 -82.6711
-28.6848 17.9822 -80.6076
-32.0084 17.9705 -82.675
-32.038 17.9804 -80.6077
-31.9942 18.9933 -81.0215
-31.3656 18.6038 -80.0154
-30.9941 19.6486 -80.6159
-29.724 19.6477 -80.6157
-30.3591 20.041 -81.6451
-29.7344 19.6208 -82.6593
-30.984 19.6219 -82.6596
-31.3395 18.5853 -83.2498
-31.9698 18.9821 -82.2605
-32.3184 17.9746 -81.6404
-29.3522 18.6054 -80.0141
-28.7282 18.9906 -81.0217
-31.3423 17.3563 -80.0537
-30.3591 17.9808 -79.6439
-31.9485 16.9454 -82.2546
-31.9518 16.9547 -81.0444
-30.36 17.9644 -83.6504
-31.3366 17.347 -83.253
-28.7488 18.9816 -82.2608
-29.379 18.5866 -83.2478
-28.7718 16.9602 -81.0444
-29.3763 17.3575 -80.0543
-29.7399 16.2955 -80.6455
-30.9833 16.2865 -80.6406
-30.3605 15.8731 -81.6468
-30.9869 16.2971 -82.6556
-29.736 16.302 -82.6514
-29.3869 17.3486 -83.2484
-28.7833 16.953 -82.25
-28.4081 17.9776 -81.6433
-31.7609 19.4233 -81.3289
-31.5591 19.388 -80.7769
-31.2574 19.7557 -81.1289
-31.7719 18.2917 -80.2702
-31.7491 18.8427 -80.4594
-32.082 18.4859 -80.7718
-30.6765 19.3972 -80.1924
-31.2258 19.1827 -80.2428
-30.8668 18.871 -79.8934
-30.6937 19.9456 -81.101
-30.939 19.9523 -81.6455
-30.0405 19.3969 -80.1916
-30.3589 19.7396 -80.5598
-29.7796 19.9514 -81.6452
-30.0246 19.9453 -81.1011
-29.4621 19.7543 -81.1291
-30.6912 19.9285 -82.1854
-31.2493 19.7415 -82.1579
-29.4696 19.7395 -82.1575
-30.0275 19.9276 -82.1852
-30.6703 19.366 -83.0702
-30.3591 19.7092 -82.7134
-30.0478 19.3657 -83.07
-31.5401 19.3692 -82.503
-31.7505 19.4153 -81.9581
-30.8543 18.845 -83.3673
-31.207 19.1579 -83.0229
-32.0502 18.4765 -82.5058
-31.7182 18.8271 -82.8116
-31.7399 18.2784 -83.002
-32.0689 19.0403 -81.6422
-32.2242 17.9747 -82.1959
-32.2332 18.5048 -81.9624
-32.2477 18.509 -81.3206
-32.2492 17.9767 -81.0891
-29.1607 19.3865 -80.7762
-28.9616 19.4201 -81.3291
-29.8491 18.8724 -79.8912
-29.4914 19.1828 -80.2404
-28.6387 18.4854 -80.7719
-28.9709 18.8422 -80.4586
-28.9472 18.2921 -80.2699
-30.885 18.3055 -79.7331
-30.3584 18.5506 -79.7064
-31.754 17.6699 -80.2886
-31.4029 17.9814 -79.9518
-30.3592 17.4137 -79.7494
-30.8779 17.6568 -79.7583
-30.8535 17.0911 -79.9458
-32.2229 17.4456 -81.3299
-32.054 17.4727 -80.7898
-32.0344 17.4653 -82.5046
-32.2086 17.4396 -81.9603
-31.7379 16.508 -81.3437
-32.0389 16.8945 -81.6535
-31.743 16.5065 -81.963
-31.3818 17.9648 -83.3335
-31.7348 17.6567 -83.0026
-30.3597 18.5254 -83.5637
-30.8731 18.2852 -83.5463
-30.8533 17.0869 -83.3717
-30.8735 17.6428 -83.5471
-30.3597 17.402 -83.5648
-29.511 19.1573 -83.0224
-29.8639 18.8454 -83.3662
-28.9694 19.4131 -81.9595
-29.1781 19.3679 -82.5029
-28.981 18.2808 -82.9984
-29.0006 18.8271 -82.8106
-28.67 18.4772 -82.5046
-28.9876 16.5138 -81.3474
-29.1941 16.5622 -80.8089
-29.4723 16.1777 -81.144
-28.9663 17.6711 -80.2884
-29.0086 17.1166 -80.4942
-28.6716 17.4735 -80.7905
-30.0535 16.5579 -80.2447
-29.5201 16.7782 -80.2912
-29.8651 17.0924 -79.9462
-30.029 15.9801 -81.11
-29.7784 15.9665 -81.65
-30.6684 16.5533 -80.2438
-30.3625 16.1976 -80.5842
-30.9416 15.9625 -81.6481
-30.6945 15.9744 -81.1072
-31.2503 16.1691 -81.1387
-30.0256 15.9882 -82.1864
-29.4681 16.1784 -82.1576
-31.2537 16.1737 -82.1611
-30.6951 15.9854 -82.1879
-30.051 16.5699 -83.0653
-30.3608 16.2133 -82.7071
-30.6701 16.5675 -83.0657
-29.1896 16.5569 -82.4909
-28.9826 16.5102 -81.9596
-29.867 17.0877 -83.3702
-29.5223 16.7808 -83.0163
-28.6909 17.4708 -82.501
-29.0213 17.1156 -82.8034
-28.9891 17.6595 -82.9971
-28.6927 16.8995 -81.6513
-28.4987 17.9775 -82.1945
-28.5175 17.447 -81.9594
-28.5058 17.4475 -81.3302
-28.478 17.9802 -81.0894
-29.8401 17.6571 -79.7593
-29.3147 17.9819 -79.9517
-29.832 18.3066 -79.7327
-31.5289 16.553 -80.8058
-31.1996 16.7723 -80.2905
-31.7121 17.1134 -80.4934
-31.2014 16.7754 -83.0182
-31.5366 16.5509 -82.4974
-31.7047 17.1096 -82.8078
-29.34 17.9662 -83.3281
-29.8475 17.6428 -83.5438
-29.847 18.2857 -83.5431
-28.4744 18.5084 -81.3208
-28.4882 18.5047 -81.9625
-28.6527 19.0372 -81.6441
-31.5998 19.5927 -81.4927
-31.5259 19.6058 -81.2163
-31.3585 19.7525 -81.3979
-31.7983 19.2031 -80.892
-31.6781 19.4173 -81.0451
-31.8932 19.2229 -81.1712
-31.1357 19.7217 -80.8671
-31.4171 19.5893 -80.94
-31.2868 19.5392 -80.6841
-31.9265 18.1299 -80.4366
-31.9437 18.4016 -80.5058
-32.0744 18.2216 -80.6759
-31.5708 18.7313 -80.2176
-31.7715 18.574 -80.3475
-31.5851 18.45 -80.1287
-32.0575 18.7446 -80.8865
-31.9343 18.6756 -80.6084
-31.8927 18.9305 -80.7315
-30.5103 19.2286 -80.0299
-30.7855 19.149 -80.0251
-30.6027 18.9766 -79.8869
-31.1189 19.4357 -80.414
-30.9604 19.3078 -80.2056
-30.8385 19.5383 -80.3879
-31.1222 18.7463 -79.9361
-31.0578 19.0349 -80.0507
-31.3082 18.9008 -80.1085
-31.6732 19.1296 -80.6032
-31.5044 19.0256 -80.3337
-31.4068 19.3039 -80.4937
-31.1009 19.8799 -81.3782
-31.2061 19.8468 -81.6454
-30.8524 19.8198 -80.8455
-30.982 19.8704 -81.1036
-30.6557 20.018 -81.6454
-30.8164 19.9719 -81.3718
-30.5271 20.0198 -81.3724
-30.2061 19.2286 -80.0292
-30.3585 19.4217 -80.1794
-30.034 19.7156 -80.5737
-30.1935 19.5878 -80.3643
-29.8791 19.5377 -80.3873
-30.5241 19.588 -80.3645
-30.684 19.716 -80.5738
-29.5132 19.8455 -81.6452
-29.6181 19.879 -81.3783
-29.3617 19.7509 -81.3981
-30.191 20.0198 -81.3724
-29.9021 19.9714 -81.3718
-30.0627 20.0174 -81.6451
-29.583 19.7205 -80.8671
-29.7367 19.8694 -81.1038
-29.866 19.8191 -80.8456
-30.5289 19.8692 -80.8184
-30.1891 19.869 -80.8184
-30.359 19.9732 -81.0937
-31.0976 19.8723 -81.9117
-31.3538 19.7457 -81.8916
-30.5267 20.0103 -81.9171
-30.8147 19.9635 -81.9181
-31.1259 19.7006 -82.4148
-30.9767 19.8544 -82.1829
-30.8464 19.7966 -82.4357
-29.3657 19.7438 -81.8915
-29.6214 19.8706 -81.9112
-29.8723 19.7954 -82.4354
-29.7422 19.8528 -82.1825
-29.5928 19.6989 -82.4145
-29.9039 19.9623 -81.9176
-30.1918 20.0099 -81.9169
-30.5076 19.1977 -83.2281
-30.359 19.3893 -83.082
-30.2105 19.1977 -83.228
-30.6789 19.6868 -82.7002
-30.5213 19.5561 -82.903
-30.8296 19.5083 -82.8809
-29.8886 19.5076 -82.8806
-30.1968 19.5559 -82.9029
-30.0395 19.6862 -82.7001
-30.3593 19.9554 -82.1927
-30.1914 19.844 -82.462
-30.527 19.8443 -82.4621
-31.5159 19.5947 -82.0712
-31.5955 19.5886 -81.7961
-31.2721 19.5161 -82.5936
-31.4038 19.5717 -82.3435
-31.876 19.2127 -82.1136
-31.6619 19.4035 -82.2398
-31.7756 19.1885 -82.3895
-30.5974 18.9478 -83.3715
-30.7761 19.1201 -83.2342
-31.2852 18.8798 -83.1549
-31.0415 19.0097 -83.2107
-31.1024 18.724 -83.3269
-30.9478 19.2791 -83.0583
-31.1044 19.4085 -82.8562
-32.0415 18.2128 -82.6023
-31.9099 18.3905 -82.768
-31.8946 18.1181 -82.8404
-31.8631 18.9165 -82.5456
-31.9012 18.663 -82.6658
-32.0278 18.7334 -82.3924
-31.555 18.4344 -83.1393
-31.7387 18.5602 -82.922
-31.5413 18.7145 -83.0484
-31.3867 19.2811 -82.779
-31.479 19.0056 -82.9346
-31.6477 19.1116 -82.672
-31.7797 19.431 -81.6438
-32.0393 19.0241 -81.9584
-31.9291 19.2372 -81.805
-31.9356 19.2411 -81.4809
-32.0537 19.0307 -81.3256
-32.126 17.9726 -82.455
-32.1596 18.2336 -82.352
-32.2974 18.2404 -81.8016
-32.2482 18.241 -82.0782
-32.2898 17.9752 -81.923
-32.1591 18.5015 -82.2392
-32.1231 18.7539 -82.1178
-32.1886 18.239 -80.9289
-32.1551 17.9788 -80.8296
-32.1456 18.7625 -81.1641
-32.1844 18.5088 -81.0417
-32.3055 17.9749 -81.3599
-32.2679 18.2431 -81.2047
-32.3054 18.2408 -81.4811
-32.1766 18.7821 -81.8056
-32.2659 18.5138 -81.6414
-32.1853 18.7855 -81.4775
-29.1951 19.6037 -81.2162
-29.122 19.5901 -81.4931
-29.4318 19.538 -80.6835
-29.3026 19.5877 -80.9398
-28.8293 19.2198 -81.1713
-29.0433 19.415 -81.0447
-28.9232 19.2011 -80.8916
-30.1131 18.9771 -79.8856
-29.9307 19.1491 -80.0232
-29.4092 18.9021 -80.106
-29.6586 19.0357 -80.0479
-29.5947 18.7483 -79.934
-29.7564 19.3075 -80.2039
-29.5987 19.435 -80.4129
-28.6478 18.223 -80.6761
-28.7762 18.4017 -80.5057
-28.7943 18.1308 -80.4367
-28.8287 18.9288 -80.7314
-28.7861 18.6742 -80.6082
-28.6644 18.742 -80.8871
-29.1331 18.4507 -80.128
-28.9476 18.5738 -80.3467
-29.1479 18.7319 -80.2162
-29.3116 19.3034 -80.4923
-29.2141 19.0259 -80.3317
-29.0468 19.1288 -80.6022
-30.6199 18.7123 -79.7749
-30.358 18.8218 -79.7979
-31.1366 18.4619 -79.853
-30.8869 18.5912 -79.7945
-30.3588 18.2693 -79.654
-30.6242 18.4269 -79.6967
-30.6218 18.1435 -79.662
-31.917 17.832 -80.4451
-31.7734 17.9816 -80.2566
-31.3838 17.665 -79.9843
-31.5886 17.8208 -80.1029
-31.5622 17.5104 -80.1574
-31.5973 18.142 -80.0919
-31.3981 18.2969 -79.9621
-30.3592 17.1429 -79.8526
-30.6139 17.2514 -79.8251
-30.5967 16.9863 -79.944
-30.6199 17.8183 -79.6758
-30.6196 17.5363 -79.7318
-30.3593 17.6934 -79.678
-31.1028 17.2144 -79.9818
-30.8753 17.3714 -79.8378
-31.1217 17.4997 -79.8869
-31.1562 18.1453 -79.818
-31.1503 17.8166 -79.8307
-30.8881 17.9807 -79.719
-32.1746 17.7181 -80.9379
-32.0599 17.7379 -80.6867
-32.2947 17.7108 -81.4832
-32.2559 17.7112 -81.2107
-32.0176 17.2111 -80.9085
-32.1566 17.4489 -81.0556
-32.1055 17.1904 -81.1817
-32.0341 17.7294 -82.6025
-32.1493 17.7125 -82.352
-32.0956 17.181 -82.1142
-32.1379 17.4413 -82.2375
-32.0056 17.2027 -82.3871
-32.2352 17.7083 -82.0768
-32.2852 17.71 -81.8
-31.5897 16.3319 -81.5021
-31.7649 16.4952 -81.6536
-31.5918 16.3319 -81.8026
-32.0151 16.9111 -81.3435
-31.9073 16.6923 -81.4954
-31.8571 16.7165 -81.192
-31.8626 16.7107 -82.1139
-31.9097 16.6903 -81.8128
-32.0155 16.9051 -81.9606
-32.2416 17.4348 -81.6446
-32.1483 17.155 -81.8092
-32.1494 17.1604 -81.49
-31.746 17.9672 -83.0237
-31.8913 17.8197 -82.8406
-31.3716 18.2788 -83.3105
-31.5693 18.1261 -83.1839
-31.5502 17.4988 -83.1411
-31.5678 17.8054 -83.1846
-31.3704 17.6509 -83.3118
-30.3593 18.7932 -83.4628
-30.6137 18.6857 -83.4893
-30.6175 18.1254 -83.625
-30.6183 18.4043 -83.5781
-30.36 18.2494 -83.6278
-30.8733 18.5675 -83.4732
-31.1159 18.441 -83.4173
-30.5969 16.9846 -83.376
-30.6141 17.2422 -83.4931
[...]
POINT_DATA 642
SCALARS Mean_Curvature double 1
LOOKUP_TABLE default
0.968917
0.969821
1.0341
1.07287
0.879835
0.977612
0.974767
0.92319
0.891068
0.942586
0.895871
0.925148
0.991554
0.941554
0.983813
0.976364
0.976366
0.972787
0.976619
0.879673
0.956689
0.944549
0.94712
0.982572
0.837164
1.01184
0.926612
0.879538
1.05098
0.949613
0.978045
0.905245
0.906519
0.845927
1.03454
1.07758
1.02293
1.04496
1.02429
0.946097
0.794229
0.909834
0.984686
0.96583
0.974228
0.970987
0.971851
0.934111
0.977059
0.96463
0.943836
0.978156
0.948027
0.974957
0.993328
0.953432
0.980327
0.973605
0.976754
0.977517
0.96981
0.97611
0.968122
0.970563
0.968746
0.974554
0.952307
0.907837
0.967016
0.902953
0.953807
0.906885
0.989621
0.840429
0.943393
0.944926
0.936224
0.972773
0.962924
0.980788
0.981374
0.979221
0.962382
0.972943
0.965975
0.954422
0.87881
0.954495
0.877748
0.92202
0.886793
0.912474
0.875644
0.863572
0.769089
1.01697
0.973672
1.0551
0.952507
0.901213
0.968029
1.0043
0.964258
0.994805
0.926612
0.969634
0.913834
0.960958
0.978236
0.89431
0.954095
0.914561
1.0113
0.907065
1.02319
0.892608
0.914301
0.835481
0.906203
0.887798
0.894806
1.00976
0.997621
0.933227
1.07301
0.967326
1.04532
1.04334
1.00151
1.04437
1.03968
1.01571
0.910051
0.973929
0.896648
1.04136
1.09389
0.981949
0.915437
0.876288
0.88908
0.887015
0.911167
0.848359
0.802006
0.885252
0.890643
0.909178
0.968855
0.973648
0.937936
0.871077
0.903133
0.896746
1.0568
0.890902
0.932926
0.982395
0.988904
0.975617
0.918561
0.968175
0.971013
0.968676
0.971983
0.971762
0.96908
0.983411
0.979323
0.967803
0.972894
0.971561
0.950616
0.968742
0.953111
0.951594
0.957614
1.01672
0.976451
0.986404
0.979604
0.974551
0.967697
0.97658
0.975964
0.982224
0.933565
0.955332
0.944704
0.969406
0.961387
0.969222
0.968852
0.95697
0.986102
0.979883
0.954721
0.955935
0.968477
0.982505
0.972727
0.985956
0.980183
0.974438
0.980957
0.986143
0.968978
0.977762
0.97782
0.978923
0.960665
0.953459
0.97453
0.97633
0.985797
0.987538
0.988928
0.967452
0.979305
0.975235
0.952741
0.969295
0.976501
0.984335
0.981448
0.972964
0.973911
0.978736
0.974218
0.970621
0.963076
0.949119
0.949539
0.952446
0.951054
0.978562
0.969279
0.973236
0.971412
0.970582
0.979306
0.969503
0.985004
0.982998
0.966011
0.957242
0.974327
0.972888
0.955608
0.967085
0.969494
0.918846
0.949244
0.935714
0.945065
0.889724
0.967483
0.974325
0.871327
0.903963
0.881399
0.965586
0.930331
0.94775
0.888008
0.902278
0.916327
0.977252
0.965828
0.976877
0.980882
0.967144
0.968584
0.984382
1.01148
0.874428
0.870229
0.88395
0.891842
0.882395
0.922242
0.960329
0.942941
0.919435
1.05252
0.942288
0.998901
0.89086
0.907778
0.990254
0.926954
1.04907
0.966405
0.949434
0.973752
0.970222
0.968064
0.965341
0.968789
0.98016
0.980493
0.973071
0.984806
0.959057
0.97635
0.975268
0.959712
0.976336
0.968799
0.974598
0.968128
0.987051
0.962556
0.963771
0.95442
0.979985
0.97705
0.976203
0.941048
0.944465
0.952415
0.943114
0.980313
0.989264
1.01372
0.901656
0.948222
0.901028
0.91705
0.85268
0.973045
0.991642
0.866453
0.855261
0.891156
0.981505
0.905015
0.941477
0.881458
0.837394
0.874009
0.974294
0.936244
0.987178
0.917314
0.902292
0.969012
0.933126
0.858108
0.884228
0.833451
0.871709
0.842484
0.811763
0.827475
0.833161
0.799603
0.865234
1.02976
1.03238
1.03969
0.903506
0.975055
0.909214
1.06099
1.02584
0.989124
0.862482
1.02913
0.878255
0.884311
0.887244
0.886028
0.87972
0.920253
0.891569
0.906132
0.905393
0.912352
1.04827
0.993809
1.03175
0.914925
0.901075
0.974707
0.967233
0.973024
0.925221
0.955643
0.956287
1.03631
0.97389
1.04875
0.99937
1.0358
0.992486
0.951396
0.922162
0.972837
0.967532
0.905258
0.947946
0.939738
0.95952
0.967442
0.979866
0.973255
0.969041
0.972188
0.972929
0.871117
0.920743
0.889222
0.928219
0.925771
0.921421
0.948296
0.925126
0.979793
0.980052
0.986023
0.971008
1.0799
1.03247
1.04789
0.890721
0.937949
0.893297
1.0319
1.01411
0.996119
0.917851
0.852269
0.881654
0.906086
0.837125
0.856416
0.907587
0.905255
0.912848
0.875191
0.8826
0.89637
0.932619
0.879074
1.00442
0.888947
0.895134
0.903809
0.899118
0.905839
0.887576
1.00555
1.03801
1.025
1.01258
0.975237
0.979953
1.02888
0.867361
0.943358
1.08323
1.08353
1.07212
1.03477
1.03692
1.00228
1.01678
1.02374
1.03268
1.03966
0.966928
1.06199
1.04994
1.06548
1.04454
1.05915
1.03406
1.02847
1.05795
0.959684
0.992716
1.03935
1.0265
1.02763
1.03196
1.01181
1.03567
1.02793
1.0464
0.988719
0.955308
0.952779
0.893345
0.946891
1.00913
0.85715
0.880557
0.910731
0.848875
1.03441
0.971832
1.00768
1.01209
1.06399
1.08093
1.03068
1.05331
1.09815
1.0793
0.991617
0.983837
0.961774
0.949288
0.962169
0.972148
0.919711
0.870553
0.871864
0.891885
0.884124
0.842685
0.881316
0.846771
0.905977
0.905638
0.929649
0.851439
0.90175
0.834962
1.09476
0.913437
1.0835
0.951762
0.903027
0.873052
0.849306
0.915357
0.827186
0.88438
0.849155
0.809853
0.891012
0.909894
0.900603
0.863585
0.908932
0.908755
0.917011
0.902302
0.893457
0.896362
0.859695
0.873024
0.840983
0.897988
0.969404
0.960632
0.973808
0.98533
0.933739
0.906149
0.951253
1.01647
0.965583
0.946033
0.948323
0.929999
0.983974
0.970651
1.03903
1.03928
1.04871
0.998476
0.876882
0.871325
0.891553
0.881557
0.867238
0.965972
0.869703
0.894445
0.859805
0.820919
0.897908
0.878375
0.890808
0.881219
0.945722
0.915051
0.89859
0.941418
0.935793
1.04667
1.06039
1.06488
1.05401
1.05074
0.892012
0.932919
0.915739
0.878635
0.833253
0.900469
0.844962
0.895194
0.877645
0.899863
0.882736
0.867297
0.879179
0.980336
1.04967
0.967433
0.976903
0.91228
0.906945
0.894566
0.905941
0.986697
1.04284
0.975257
1.0298
0.977262
0.95415
0.883362
0.948302
0.985703
1.03228
0.9011
1.00094
0.902379
0.938299
0.931354
0.944292
0.992702
0.949728
0.965615
0.984727
0.950374
1.0334
1.01833
SCALARS CoVolArea double 1
LOOKUP_TABLE default
0.0590258
0.0588979
0.0584532
0.0576511
0.0576957
0.058805
0.0566584
0.0572391
0.0555519
0.0560772
0.0557984
0.0563293
0.0880248
0.0887237
0.0913224
0.0913591
0.0917269
0.0888737
0.0888898
0.0870925
0.0869012
0.0853087
0.0886005
0.088003
0.0878075
0.0863897
0.08611
0.0878765
0.08457
0.0860423
0.0863778
0.0866604
0.0868811
0.0874967
0.0883771
0.0881012
0.0919264
0.0884576
0.0885036
0.0855774
0.0864195
0.0852742
0.084065
0.0942221
0.0855185
0.0815366
0.092526
0.0816863
0.0853102
0.094142
0.0843083
0.0958796
0.0858511
0.0853593
0.0956233
0.0857099
0.0958038
0.0853735
0.094438
0.0842426
0.0842059
0.0944415
0.0825135
0.0930909
0.0824737
0.0917821
0.083526
0.0821219
0.0909478
0.0804713
0.0899489
0.0807107
0.0910509
0.0809696
0.0895931
0.0899934
0.080595
0.0940006
0.0841519
0.0839819
0.0939074
0.0811217
0.0924547
0.0813196
0.0913962
0.0834388
0.0817797
0.0904644
0.0822233
0.0907838
0.0827138
0.0899687
0.0815706
0.081124
0.0908481
0.082232
0.0897701
0.0815789
0.0892622
0.0802584
0.0810916
0.0891424
0.0812828
0.0891363
0.0810039
0.0908219
0.0819915
0.0833349
0.0915964
0.0803563
0.0896555
0.080109
0.0815241
0.0918084
0.0836588
0.0813883
0.090562
0.0814163
0.0827746
0.0917351
0.0823911
0.0948681
0.0855791
0.0824521
0.0924914
0.0860578
0.0946781
0.0839163
0.0947281
0.0831991
0.0838105
0.0948743
0.083407
0.0934954
0.0836991
0.0905629
0.0802423
0.0807437
0.0914615
0.0803063
0.090254
0.0800109
0.0895003
0.0801472
0.0900222
0.089453
0.080599
0.090934
0.0903058
0.0915157
0.0918965
0.0922297
0.0913587
0.0919602
0.0908143
0.0908524
0.0892435
0.0890091
0.0892081
0.0892698
0.0889471
0.0910452
0.0778729
0.084842
0.0785101
0.091942
0.0862056
0.084248
0.0865107
0.0869498
0.0935603
0.0746791
0.0816647
0.0747969
0.0914316
0.0841378
0.0831016
0.0827048
0.0839815
0.0910096
0.0782233
0.0846653
0.0778079
0.093467
0.0867431
0.086387
0.0847804
0.0862323
0.0922306
0.102343
0.10242
0.103245
0.0856924
0.0786331
0.0943097
0.087674
0.086904
0.0879026
0.0945989
0.0782069
0.0853692
0.0942537
0.0875256
0.0864693
0.0874929
0.0942334
0.0784234
0.0855129
0.0783219
0.0945388
0.0877881
0.0868402
0.0864591
0.0875961
0.094285
0.104947
0.104916
0.105093
0.084986
0.0779746
0.0939787
0.0871918
0.0846522
0.0863064
0.0922743
0.0778218
0.0849044
0.0922631
0.0863299
0.0846542
0.0871777
0.0939806
0.0758129
0.0825758
0.0757767
0.0917355
0.0848078
0.0837048
0.0836754
0.0847865
0.0916997
0.103632
0.1027
0.102725
0.0838525
0.0776165
0.0910555
0.0851752
0.0833841
0.0847784
0.0899846
0.0757522
0.0820539
0.0894946
0.0835429
0.0827499
0.0838454
0.0905489
0.0740178
0.0804567
0.0740287
0.0889323
0.0822365
0.0814812
0.081989
0.0824354
0.0890931
0.100001
0.0991001
0.0993403
0.0836559
0.0897172
0.0845223
0.0847173
0.0900435
0.0741637
0.080443
0.088445
0.0822655
0.0815541
0.082094
0.0887054
0.0811716
0.0745218
0.0892436
0.0830112
0.080745
0.0826577
0.0884817
0.098652
0.0983695
0.0987168
0.0847213
0.0778621
0.0934682
0.0867952
0.0842638
0.0860731
0.0918025
0.0776679
0.0845394
0.0918727
0.0859092
0.0844427
0.0867167
0.0934527
0.0743457
0.081283
0.0743404
0.090985
0.0838181
0.0824849
0.0830548
0.0839998
0.0912731
0.103024
0.10215
0.102138
0.0838644
0.0775613
0.0908607
0.0852153
0.0828525
0.0844702
0.0893397
0.0748348
0.0810725
0.0897914
0.0831032
0.0829638
0.0829648
0.0899098
0.0761121
0.0825018
0.0763263
0.0889261
0.0835437
0.0820733
0.0833235
0.0841122
0.0901622
0.0995428
0.099331
0.0990917
0.0807345
0.0748006
0.0876568
0.0817857
0.0828607
0.0829511
0.0899348
0.0740549
0.0810569
0.0890805
0.0835278
0.0825071
0.0832842
0.0886396
0.0765133
0.0818632
0.0764023
0.0897939
0.0831898
0.0830205
0.0811446
0.0824359
0.0879972
0.0985969
0.0983651
0.0989103
0.080382
0.0738689
0.0888536
0.0823837
0.0811614
0.0820782
0.0882414
0.0756487
0.081736
0.0871881
0.0821514
0.0805401
0.0831783
0.089142
0.0749855
0.0810759
0.0747552
0.088474
0.0825528
0.0818307
0.0807958
0.0822355
0.0873241
0.0975483
0.0969187
0.0974478
0.0819575
0.0756959
0.0905007
0.083784
0.0824965
0.0833702
0.0891853
0.0775182
0.0836765
0.0896358
0.084517
0.0830174
0.0850756
0.090995
0.0737516
0.0800154
0.0736039
0.0886587
0.0819846
0.0815348
0.0811515
0.081921
0.0885943
0.0998601
0.0990811
0.0988652
0.0754284
0.0823929
0.0768346
0.0901517
0.0839749
0.0826743
0.0841601
0.0843669
0.0906414
0.0745348
0.0814892
0.0747518
0.0896722
0.083342
0.0826158
0.0818962
0.0829967
0.0892894
0.0764149
0.0826838
0.0761499
0.0906775
0.08447
0.0834746
0.0829966
0.0840333
0.089919
0.100008
0.0998569
0.100607
0.084793
0.0776235
0.0922451
0.0864754
0.0870488
0.0875476
0.0942259
0.0764204
0.0823837
0.0909572
0.0838135
0.0829844
0.0841329
0.091294
0.0784259
0.0851164
0.0775898
0.0941571
0.087488
0.0871976
0.0841455
0.0863724
0.0920641
0.10284
0.102728
0.103961
0.0844451
0.0766247
0.0945894
0.0873669
0.0836723
0.0859834
0.0918217
0.0774949
0.0851258
0.0919708
0.0863438
0.0840172
0.0877313
0.0946906
0.0758132
0.0838005
0.076013
0.0917824
0.0859561
0.0844175
0.0843913
0.0859927
0.0917559
0.10429
0.102837
0.102792
0.0817339
0.0752279
0.0903163
0.0834341
0.0804843
0.0820488
0.0886208
0.0747119
0.0816803
0.0886037
0.0828656
0.0812417
0.0844358
0.0910777
0.0735721
0.0797777
0.0736009
0.0894311
0.0822458
0.0821512
0.0808803
0.0816605
0.0881651
0.100546
0.0996069
0.0998325
0.0805068
0.0881397
0.0813291
0.0824222
0.0891142
0.0736686
0.0802587
0.0878164
0.0821723
0.0807179
0.0826729
0.0893137
0.0808843
0.0743265
0.0888201
0.0825823
0.0810956
0.0820508
0.0877062
0.0984908
0.0979521
0.0983735
0.0824023
0.0900822
0.0840299
0.0836161
0.0890633
0.0807277
0.0899312
0.0827978
0.0827639
0.0895745
0.0837524
0.089446
0.0845478
0.085103
0.0908523
0.0993353
0.0995813
0.0992433
0.0829166
0.0905582
0.0844133
0.0840565
0.0906022
0.0828938
0.0904796
0.0845066
0.0844927
0.0905719
0.0817363
0.0902982
0.0836631
0.0838352
0.0901974
0.100956
0.100592
0.100712
0.0822255
0.0909751
0.0848694
0.0836305
0.0894074
0.0826698
0.0888375
0.0829122
0.0840355
0.0903656
0.0802911
0.088799
0.0821412
0.0829586
0.0896929
0.100463
0.0999798
0.100135
0.0802111
0.0880627
0.0819513
0.0822154
0.0886846
0.0808177
0.0872695
0.0821097
0.0821862
0.0881858
0.0817239
0.0890401
0.0831478
0.0821948
0.0871794
0.0974011
0.0969128
0.0976142
0.0805557
0.0881175
0.0820734
0.0822351
0.0889875
0.0798796
0.0881867
0.0817057
0.08148
0.0877504
0.0837717
0.0901506
0.0849186
0.0844689
0.089259
0.0976754
0.0981734
0.0984987
SCALARS SignedDistance double 1
LOOKUP_TABLE default
1.96209
1.96915
1.96413
1.9785
2.23081
1.97405
2.11704
2.17032
2.37106
2.27135
2.34675
2.24284
2.05243
2.07054
1.8693
1.87307
1.8648
2.02147
2.01713
2.26766
2.19246
2.33375
2.07003
2.06612
2.29762
2.14092
2.33699
2.269
2.07818
2.23641
2.19785
2.27395
2.27487
2.29805
2.06509
2.04025
1.89071
2.06266
2.10641
2.27332
2.3842
2.34212
1.97706
1.94827
1.89482
2.158
2.05848
2.1644
1.90594
1.97252
2.01896
1.84992
1.90351
1.89889
1.83544
1.90283
1.85151
1.90845
1.91836
1.9698
1.97689
1.92217
2.09344
2.01182
2.09359
2.08154
2.06061
2.20934
2.14617
2.31877
2.23421
2.32327
2.11277
2.38898
2.28722
2.25543
2.23302
1.95713
2.01123
2.00299
1.95568
2.17938
2.06668
2.16629
2.09368
2.03241
2.28272
2.19792
2.26089
2.23146
2.23994
2.32293
2.29854
2.36783
2.42654
2.143
2.26908
2.1138
2.2692
2.32539
2.16295
2.18664
2.14885
2.19119
2.17937
2.14723
2.20738
2.05953
2.08334
2.3484
2.24136
2.32679
2.17894
2.18566
2.00685
2.30018
2.27759
2.35
2.17959
2.20557
2.239
1.86774
1.85148
2.18418
2.00051
1.85358
1.81915
1.96239
1.897
1.99933
1.94674
1.87884
2.12636
2.08162
2.12644
2.24411
2.17506
2.16095
2.2082
2.37933
2.31507
2.35718
2.31196
2.40134
2.4308
2.34885
2.28915
2.23518
2.19693
2.09422
2.17165
2.20554
2.26575
2.19017
2.17437
2.2851
2.29996
2.21627
2.20415
2.25169
2.29005
2.11454
1.96445
1.93122
1.92911
1.99178
1.95588
2.00749
1.87557
1.91603
1.90709
2.20673
2.15565
2.20347
2.06708
2.11169
2.10677
2.11763
2.11246
2.04952
1.93751
1.96179
1.99342
1.91469
1.9357
1.88104
2.04425
1.99708
2.02805
1.99669
2.01148
1.95326
1.90266
1.93273
1.84264
1.86054
1.89123
1.88433
1.86732
1.93491
1.90435
1.84759
1.86853
1.8792
1.86924
1.84559
1.93261
1.90497
1.947
1.85989
1.88233
1.89633
1.88367
1.87036
1.84876
1.82706
1.82685
1.85707
1.92215
1.96438
1.9025
1.89697
1.98813
1.93649
1.96338
1.97014
1.93319
1.96893
1.94692
1.99388
1.90827
1.9052
2.13862
2.1016
2.13852
2.0039
2.05003
2.05262
2.05475
2.04984
2.00536
1.91959
1.95577
1.95611
2.01293
2.00705
2.04242
2.02149
2.12297
2.07069
2.13531
2.17967
2.15341
2.21672
2.18314
2.24318
2.11417
2.07761
2.35383
2.31453
2.33677
2.21329
2.27682
2.26142
2.28966
2.28195
2.25267
2.11002
2.18682
2.15789
2.01877
2.15493
2.08513
2.03845
2.07959
2.36686
2.36225
2.31957
2.34153
2.37606
2.30849
2.24021
2.22766
2.23839
2.14655
2.1989
2.25874
2.25352
2.30331
2.20222
2.27529
2.18896
1.95903
1.99723
1.90848
1.9267
2.02746
1.97679
2.00973
1.98137
1.9428
2.01863
1.97347
2.03776
1.91797
1.90575
2.22662
2.17318
2.22457
2.06528
2.11601
2.12267
2.10924
2.11471
2.06777
1.94955
2.0107
2.00736
2.02273
2.01231
2.07807
2.05226
2.07297
2.04873
2.09988
2.26363
2.22774
2.2599
2.24556
2.3011
2.17624
2.12549
2.2634
2.26773
2.22908
2.18496
2.24282
2.21014
2.26394
2.27601
2.2756
2.14454
2.2146
2.1615
2.26386
2.26855
2.32607
2.2723
2.30856
2.30066
2.32791
2.36811
2.39073
2.38853
2.39516
2.35691
2.41503
2.39994
2.04616
2.11091
2.02068
2.28352
2.20612
2.22628
2.22613
2.19433
2.29142
2.40139
2.389
2.36956
2.32567
2.34534
2.29589
2.31497
2.28469
2.30922
2.27652
2.18795
2.19618
2.11682
2.16161
2.11818
2.22595
2.25887
2.122
2.15833
2.14427
2.23501
2.19125
2.18791
2.12372
2.1736
2.11846
2.22489
2.14447
2.22414
2.15278
2.17987
2.0796
2.11468
2.24062
2.18223
2.21661
2.0098
2.01488
2.13788
2.07134
2.12256
2.02429
2.04521
2.36468
2.33494
2.37139
2.25626
2.29194
2.31158
2.27474
2.2831
2.22285
2.11201
2.16228
2.19052
2.07303
2.0928
1.99157
2.22685
2.183
2.23588
2.02438
2.10675
2.1293
2.28714
2.33748
2.31317
2.28877
2.33654
2.30996
2.32811
2.33118
2.27301
2.21101
2.20704
2.22851
2.16709
2.19235
2.12484
2.26327
2.21875
2.24322
2.22708
2.23224
2.19528
1.91999
1.90425
1.9557
1.92676
1.85365
1.86527
1.81816
2.2126
2.18992
1.99656
2.09539
2.11367
2.10809
2.025
1.90003
1.88199
1.9591
1.78401
1.81196
1.85872
1.98865
1.87991
1.9166
1.91784
1.89128
1.81943
1.90112
1.9735
1.85728
1.85772
2.04448
1.93471
1.98946
1.93526
1.86913
1.95425
1.89192
1.9912
1.83417
1.85838
2.10804
2.12268
2.10865
2.07384
2.1291
2.15099
2.13672
2.13049
2.06122
1.90559
1.97939
1.97785
2.07893
2.06164
2.16558
2.11531
2.30371
2.20462
2.33464
2.12345
2.13003
2.22997
2.17582
2.21468
2.16079
2.19976
2.3913
2.36722
2.37208
2.34762
2.35017
2.37517
2.32085
2.33384
2.29045
2.26083
2.26568
2.31317
2.15179
2.35924
2.26534
2.24817
2.28686
2.38628
2.40842
2.38053
2.42247
2.38796
2.40425
2.41174
2.30949
2.28497
2.34106
2.34524
2.30732
2.30812
2.32669
2.40046
2.38414
2.36469
2.26818
2.27406
2.27489
2.24733
2.1919
2.23573
2.12031
2.17513
2.24997
2.26275
2.02549
2.1087
2.05269
2.0553
2.0805
2.21786
2.14543
2.17224
2.05143
2.10689
2.07104
2.158
2.21895
2.20918
2.24177
2.21996
2.19593
2.16262
2.29692
2.25948
2.31019
2.31774
2.28276
2.19056
2.22647
2.21806
2.1255
2.17346
2.15398
2.15957
2.20085
2.0221
2.26088
2.1356
2.05233
2.10553
2.34521
2.25416
2.30176
2.32734
2.32405
2.2264
2.28295
2.23657
2.3519
2.30538
2.33929
2.34189
2.31842
2.16258
2.13724
2.19021
2.21247
2.26335
2.20138
2.27243
2.23273
2.17174
2.1337
2.2549
2.17296
2.25252
2.2417
2.31049
2.2737
2.20311
2.14819
2.37191
2.2539
2.31634
2.3524
2.32569
2.03321
2.09419
2.06491
2.0855
2.15511
2.27177
2.20456
2.1846
