# vtk DataFile Version 4.2
vtk output
ASCII
DATASET POLYDATA
POINTS 642 double
-58.6694 144.61 89.076
117.061 145.2 86.9333
-51.7075 -189.177 79.0587
111.261 -188.837 79.3423
30.6798 -106.628 202.957
32.2313 90.5776 230.792
30.5041 -108.337 -53.2902
31.3623 74.006 -44.9103
137.607 -11.3778 10.8059
149.545 3.14268 165.641
-78.1066 -14.4261 7.07342
-93.0901 1.00911 161.81
-100.777 85.3221 139.344
-50.1575 46.5856 219.495
-23.4355 146.803 178.303
85.0237 145.313 178.468
30.5493 178.759 88.793
80.6537 134.317 3.58005
-19.9943 135.106 3.67792
-35.7912 39.5287 -34.4262
-86.7614 80.7435 42.8407
-106.305 -9.29863 104.352
110.222 47.6146 220.738
160.825 82.4879 138.729
-33.6297 -64.0226 194.832
28.5976 4.52458 245.423
-66.9014 -124.296 50.0544
-76.554 -111.033 127.264
28.1005 -18.1494 -83.7451
-31.9696 -76.3091 -40.5475
147.298 82.5575 44.2735
95.2009 43.7813 -33.6142
137.309 -107.166 128.96
94.2996 -64.1437 195.911
71.546 -181.432 151.285
-11.5354 -187.162 151.991
29.6874 -215.532 90.9989
-20.319 -182.507 18.1209
75.681 -178.819 18.8778
88.3971 -76.142 -38.128
120.374 -112.264 47.901
164.528 -9.59977 94.7655
-87.3185 119.1 116.987
-71.8984 118.952 160.879
-46.5362 152.268 135.249
-76.2299 24.9532 195.374
-81.6315 71.9115 181.991
-99.3877 41.6275 157.181
3.2835 123.558 211.533
-41.2182 102.339 203.737
-9.6311 71.5829 231.176
0.494878 170.739 139.548
-18.8121 168.363 85.6384
59.3713 122.207 213.213
29.4974 156.383 184.032
79.8349 168.461 86.994
60.5507 170.881 138.719
105.484 152.448 135.573
0.700227 165.427 39.4935
-41.5501 148.141 43.0352
102.957 146.625 42.947
58.8344 165.295 39.1284
4.06516 110.482 -25.1687
30.4737 142.042 0.342443
56.8856 110.024 -25.5464
-60.5405 113.472 17.8737
-79.3532 116.136 64.1565
-2.35266 59.6007 -46.257
-32.8013 94.2404 -20.2321
-83.4285 38.6535 24.1401
-65.2431 67.6467 -0.437458
-60.8229 14.0447 -14.5902
-101.358 88.0096 93.62
-90.8218 -5.09241 48.7521
-101.39 44.1707 67.4222
-103.032 46.1969 119.271
-110.576 -11.1113 127.052
130.26 118.609 162.538
144.931 116.307 117.596
72.6899 74.0868 232.131
102.026 102.51 207.154
158.838 43.2517 155.81
140.598 70.3809 183.432
134.891 26.0205 197.21
-7.44251 22.3168 243.532
30.9268 39.6405 247.448
-69.3296 -24.4808 185.655
-45.9069 4.19968 218.424
29.7521 -47.0198 225.543
-4.61499 -21.6871 230.963
-6.65173 -92.8662 205.441
-99.569 -47.9528 116.918
-92.7289 -46.735 143.72
-75.2745 -58.4318 16.9945
-84.2158 -62.2532 69.0828
-63.0626 -160.726 98.3335
-78.9369 -126.369 80.5422
-65.9552 -163.118 60.5032
-28.4083 -20.093 -50.3233
-57.2644 -46.1434 -18.3294
29.6327 16.7869 -72.9218
4.77504 -3.71019 -73.0088
-1.84265 -95.644 -54.0831
3.48661 -35.9497 -71.2967
28.7922 -58.9739 -65.6791
93.6181 93.7038 -20.6032
64.5425 61.2446 -47.0483
140.484 115.409 61.7399
121.854 113.051 17.9416
119.766 18.5981 -12.1006
125.083 67.9097 -0.679988
143.865 38.7049 24.7202
119.416 -159.878 94.9102
108.155 -147.173 140.081
93.0619 -190.829 117.551
126.909 -22.3851 188.053
121.866 -96.0055 165.073
145.231 -53.1612 142.015
53.0457 -148.19 175.077
90.4637 -120.029 181.409
67.3415 -93.2764 205.093
52.6489 -212.254 126.51
80.3988 -212.005 81.2273
6.29971 -153.659 171.266
25.2176 -193.031 157.592
-19.1825 -212.104 84.4734
1.87837 -216.952 127.953
-34.8896 -195.016 121.481
60.65 -208.211 43.0989
98.2365 -190.611 49.5188
-40.8754 -193.131 44.6574
-4.05625 -209.068 42.1338
51.2383 -132.665 -33.0838
29.1946 -184.068 14.1208
7.71032 -133.602 -31.7292
103.036 -159.635 35.1016
118.671 -167.022 67.3143
59.3731 -97.0588 -53.5852
80.4204 -115.948 -27.7621
136.187 -58.0165 19.7813
114.1 -86.9898 -5.89121
115.943 -44.7004 -14.2847
135.596 -121.295 88.4705
151.232 -1.94034 50.6403
146.625 -53.4024 72.0689
156.872 -50.4321 110.542
163.8 -5.6559 127.658
66.2119 -23.537 229.27
108.208 5.4625 218.514
69.3056 25.7418 241.383
-47.5877 -154.148 137.485
-30.0136 -122.29 179.821
-61.8684 -96.4971 166.162
-24.0216 -117.313 -26.5902
-51.8038 -162.06 33.2592
-55.6809 -89.1144 -8.73716
86.9468 -18.7575 -47.1409
53.6419 -36.52 -68.7988
53.6181 -0.898861 -70.9531
164.111 47.4639 119.37
162.467 43.6191 69.3406
162.484 85.1489 89.6798
-74.7239 133.389 104.263
-70.0317 136.602 126.664
-54.8553 148.954 111.816
-90.3404 101.605 149.76
-81.9514 119.846 139.045
-96.4548 102.584 128.697
-35.7748 151.679 157.199
-60.1635 137.097 149.39
-48.5997 134.742 170.726
-86.7258 13.8499 179.794
-89.9861 32.5729 176.94
-97.6593 17.55 162.446
-66.3473 59.5554 202.297
-78.6762 47.3963 190.785
-64.3475 35.7188 209.241
-99.8911 67.4589 148.06
-91.5687 59.4117 168.739
-93.566 80.1656 160.212
18.1602 107.104 224.076
-4.24164 100.119 222.688
11.4058 82.3876 231.944
-33.2941 126.551 192.754
-19.3339 115.039 208.75
-10.1432 137.314 196.435
-30.7416 59.251 226.597
-26.3305 88.3895 218.593
-46.8288 74.7719 212.549
-79.4632 96.0411 172.609
-64.2909 87.0626 194.092
-58.1381 112.821 184.023
-32.8893 162.1 114.069
-40.4537 157.54 86.7045
-12.2603 162.057 160.883
-23.539 164.615 139.29
6.41232 174.362 87.4495
-7.92172 170.993 114.444
16.8776 177.458 112.477
45.2077 106.369 224.589
30.6802 124.797 212.621
58.4598 153.178 182.587
44.9368 141.303 198.329
72.2862 135.334 197.553
15.329 142.371 198.21
2.22988 154.264 182.907
100.55 158.096 87.1832
92.8518 162.617 113.744
111.932 149.485 111.295
44.2477 177.474 112.382
68.993 171.023 114.279
54.356 174.475 88.0239
96.4245 151.054 157.008
84.2084 164.677 138.666
73.4464 161.685 159.946
14.6094 167.521 165.006
45.2615 166.661 164.202
30.2473 171.908 138.873
-30.8996 161.514 61.3556
-50.3316 148.497 64.7995
15.1621 172.057 62.8837
-9.66016 169.769 60.7784
-31.7734 143.461 22.9093
-21.0324 159.076 40.6057
-10.3374 152.483 20.779
111.232 147.492 65.1604
91.5947 160.234 62.9246
70.2303 151.856 20.4676
81.0222 157.703 40.4181
92.7839 142.263 22.5687
69.2815 168.883 61.8224
45.0343 172.194 63.0525
18.0752 93.0901 -35.0835
30.6431 111.693 -25.107
43.7773 92.6437 -35.3967
3.12497 140.824 0.389699
15.8174 127.713 -13.4206
-7.8379 123.7 -12.62
68.4647 123.225 -12.7894
45.0163 127.654 -13.5067
57.2488 140.699 0.255472
30.3407 167.324 37.9964
44.8155 156.706 18.277
15.7197 156.716 18.385
-61.5303 133.704 50.3329
-69.8322 131.827 77.0499
-41.8904 125.951 9.67129
-52.6399 131.497 28.4752
-84.5416 99.2412 52.9099
-70.2481 116.263 38.0389
-74.8612 98.1954 28.6011
13.5355 67.0485 -47.8025
-1.84769 87.754 -34.8421
-34.5144 70.1045 -26.4582
-19.2762 80.1222 -32.0604
-18.3049 50.8497 -41.4784
-15.6938 103.621 -23.7923
-27.6476 115.233 -10.2668
-79.7065 9.27821 13.8843
-73.7784 27.4442 1.42264
-71.3163 -1.83158 -3.99786
-76.8805 76.1929 18.8455
-75.322 54.3355 10.8186
-86.3017 61.6917 33.9609
-50.819 27.384 -25.8666
-64.1805 41.6289 -9.14137
-52.1427 54.9536 -17.9542
-47.6453 104.901 -2.83383
-50.5682 82.3362 -11.2389
-64.3736 91.4884 7.31798
-86.6074 118.142 92.8556
-96.8086 84.3923 68.8761
-93.618 101.33 80.5104
-97.2839 103.155 106.007
-101.879 88.4094 117.998
-84.5428 -11.8045 22.1522
-89.1631 16.5037 37.6397
-104.047 16.4731 80.6645
-99.9418 20.3533 61.5522
-100.957 -2.8743 76.7563
-94.7383 43.2583 49.1032
-96.8003 63.4884 57.1955
-102.529 14.0674 143.878
-103.429 -5.60692 144.847
-102.566 70.6863 130.273
-102.768 46.0474 138.904
-110.901 -12.1467 118.998
-106.957 7.40895 126.005
-105.068 7.1146 108.673
-102.495 68.578 79.3947
-103.31 46.1012 90.2168
-102.671 72.3664 105.857
126.561 135.484 128.208
130.982 131.972 102.076
109.324 133.953 172.081
119.151 136.746 150.864
155.297 99.8294 129.485
139.658 118.405 140.862
148.279 100.459 150.269
53.0213 83.1646 233.403
68.298 99.4627 224.874
106.189 76.8576 214.679
88.5303 89.7713 221.806
91.667 62.0025 227.693
82.4347 113.675 211.765
95.4077 125.236 195.103
155.298 21.9888 162.395
148.122 35.4917 177.252
143.66 15.1248 181.418
152.494 77.681 160.472
152.053 57.3721 169.56
161.086 64.1034 147.462
124.434 35.6944 210.272
138.756 47.3015 191.854
125.995 59.83 203.867
117.785 112.764 186.491
122.712 87.7934 196.407
137.137 95.9347 174.127
10.3199 54.0366 242.556
31.907 65.6774 239.62
-29.6813 33.9412 232.219
-9.67085 42.9337 239.31
29.5811 20.5344 248.459
10.1584 29.1595 247.696
10.6662 13.3819 247.307
-82.7991 -11.0221 173.887
-73.3212 3.95453 193.002
-41.9989 -23.551 211.5
-57.8987 -9.47895 203.901
-52.846 -42.4362 193.455
-61.666 15.9172 209.008
-49.1647 24.8654 221.213
30.5587 -84.7293 209.285
12.4567 -70.5931 211.739
11.1037 -101.222 205.459
11.7017 -6.9377 240.596
12.4592 -32.8157 230.914
28.7815 -17.6639 236.932
-19.9277 -82.5554 203.655
-6.68754 -56.3067 214.034
-21.6587 -41.1853 215.582
-27.8611 14.3057 232.317
-25.307 -9.08151 226.985
-5.89449 4.09946 239.781
-104.162 -25.3957 134.502
-95.7039 -23.5703 152.341
-106.463 -22.6775 116.115
-107.701 -23.211 122.077
-79.1392 -79.1153 136.18
-99.1092 -47.1269 127.983
-83.5905 -79.0973 118.668
-77.4424 -33.3595 10.8908
-83.6096 -33.6628 28.5393
-76.0765 -96.799 56.3955
-80.1979 -60.8451 37.0069
-73.3441 -85.4522 28.1533
-89.8375 -28.4427 57.4729
-99.7216 -24.5451 90.8104
-57.4704 -177.566 88.6482
-67.437 -161.843 76.3879
-60.7894 -177.773 67.9336
-78.301 -120.217 101.292
-74.5864 -141.672 87.0459
-70.6949 -136.684 110.715
-67.9701 -149.194 57.5668
-74.2546 -145.164 70.7996
-77.0311 -129.213 69.3197
-93.0535 -56.3323 100.492
-79.5107 -102.068 78.242
-81.3975 -91.0635 94.3772
-60.4438 -17.2987 -18.3122
-70.0526 -28.0273 -5.10934
-29.9383 3.74092 -42.3054
-46.2461 -5.151 -30.9909
-45.596 -62.9968 -30.7378
-45.1653 -32.8355 -33.7378
-30.6161 -44.3941 -44.5549
30.5732 45.866 -57.8004
17.1193 34.3831 -61.8504
17.6488 -12.2164 -81.0403
18.4654 5.56328 -75.0624
28.5496 -5.19805 -80.0407
2.87747 24.8986 -60.3368
-11.3667 15.2604 -54.6526
13.9095 -103.354 -55.4723
12.4296 -81.5126 -61.1578
30.3758 -92.5618 -59.4364
-13.2746 -59.2571 -54.6314
0.275427 -70.5193 -59.7649
-17.1404 -87.3094 -49.2421
28.0507 -28.2247 -80.8205
14.3667 -44.2394 -72.3315
17.5954 -23.5912 -81.1911
-11.185 -12.0665 -65.4613
3.41111 -18.1628 -76.8114
-11.9656 -26.6 -64.5326
63.1138 86.9012 -36.1279
48.9272 67.5877 -47.9696
88.7848 114.621 -10.4859
[...]
POINT_DATA 642
SCALARS Mean_Curvature double 1
LOOKUP_TABLE default
0.00847808
0.0105657
0.0237509
0.048838
0.0110421
0.00586695
0.0128185
0.00313265
0.0194967
0.00773279
0.0188202
-0.00975164
0.030794
0.0177181
0.0158392
0.0130415
0.0214735
0.0128073
0.0143521
0.00882174
0.00768118
0.0146309
0.0154002
0.0279013
-0.0212019
0.0154027
-0.0120591
0.0169657
0.0795361
0.0115715
0.00821655
0.00996611
0.0231184
-0.0166361
0.0244613
0.0249689
-0.0139426
0.0283463
0.0185481
0.00905163
-0.0147201
0.0190929
0.017283
0.0146755
0.013985
0.0144788
0.0159576
0.0172004
0.0151497
0.0108877
0.00859413
0.0120852
0.0117889
0.016202
0.0170904
0.0141666
0.0134415
0.0152442
0.0171796
0.01436
0.0140581
0.0193556
0.0174447
0.00701631
0.0173755
0.0178022
0.0101875
0.010355
0.0191603
0.00375414
0.0102917
-0.000306849
0.0226151
-0.00284566
0.0140621
-0.0017382
0.0483492
0.014954
0.0110752
0.0101298
0.0151552
0.0113218
0.0127688
0.0143222
0.0278445
0.0157007
0.00695629
0.00937566
0.0117304
0.00932919
0.0195368
0.0316106
0.0153529
0.00870263
-0.00498303
0.00605899
0.0240814
0.0302473
0.0143153
0.0049998
0.035204
0.0143476
0.0227455
0.0127647
-0.0110711
0.01845
0.0186834
0.0134205
0.0189112
0.00133712
0.00974058
0.00654991
0.00385691
0.00671222
0.0191369
0.0082144
0.0163535
0.00183347
0.00360721
0.0158428
0.0190626
0.0199957
0.0304036
-0.00147618
0.032032
0.0159408
0.0347982
0.0255377
0.0257595
0.0225864
0.0265541
0.0233098
0.0224208
0.0056028
0.0198422
0.0120839
0.0254485
0.0280885
0.0127652
0.0183346
0.0142651
0.003178
0.0216109
-0.00168886
-0.00707864
0.0150285
0.0190604
0.0105742
0.0119578
0.0165609
0.00403431
0.0144487
0.0181532
0.0133456
0.0185462
0.0132833
0.0105326
0.00985294
0.0151223
-1.20515e-05
0.0165932
0.0279263
0.0160417
0.0177662
0.00987075
0.0189342
0.0152201
0.0228605
0.0134966
0.0120578
0.0143451
0.01691
0.0143241
0.0279956
0.0118106
0.00887944
0.019687
0.01406
0.00664203
0.0201356
0.0179073
0.0145652
0.00542142
0.0138531
0.012399
0.0161321
0.00936829
0.00940158
0.0100926
0.015275
0.0122134
0.014507
0.0106022
0.00875033
0.0175168
0.0198136
0.00612147
0.00640075
0.0171776
0.0146686
0.00777152
0.0158954
0.0104387
0.0133743
0.0138839
0.0184102
0.0133348
0.0136662
0.00807743
0.0172485
0.00642011
0.00656408
0.0128149
0.0211345
0.0176875
0.0238439
0.0190955
0.000906735
0.0202123
0.0136879
0.00501793
0.0213807
0.013867
0.0164555
0.0149099
0.0129763
0.016179
0.0143314
0.0128493
0.0137484
0.0163985
0.00662071
0.00679869
0.00738672
0.00582858
0.0161139
0.0118226
0.0156733
0.0147647
0.0122596
0.0170288
0.0158133
0.0162982
0.0153116
0.0140643
0.00573028
0.0157943
0.017366
0.00875983
0.0160319
0.01331
0.0155966
0.00979339
0.00610604
0.0123301
0.00523135
0.0176831
0.0155926
0.000883778
0.0168972
0.0138882
0.0148062
0.00745429
0.00572409
0.0174499
0.0126308
0.00955143
0.0160632
0.0134444
0.0155023
0.0169169
0.0162669
0.0146919
0.0211497
0.0204368
0.0155828
0.00168015
0.0143112
0.0145686
0.00784047
0.00639958
0.0129584
0.00151434
0.0235046
0.00911519
0.0106777
0.0590817
0.0140317
-0.00597201
0.0176491
0.00277885
0.00286028
0.0112664
0.00535428
0.0158733
0.0150136
0.0207703
0.0152367
0.0157383
0.0116922
0.0171867
0.00899989
0.0189897
0.00890371
0.0163229
0.0162587
0.014055
0.00913597
0.0112892
0.0127991
0.0151745
0.019531
0.0182683
0.0138703
0.0116758
0.0167766
0.0111986
0.0124229
0.015829
0.00571455
0.0138465
0.00950503
0.0184113
0.0218155
0.029393
0.00309576
0.00865316
0.0102094
0.00813023
0.0134909
0.0128018
0.0194976
0.00576713
-0.00708968
0.0194573
0.013442
0.0143662
0.00521575
0.0261562
-0.00161936
0.0139543
0.0142028
0.00971026
0.0120448
0.0172105
0.0137669
0.00106995
0.044836
0.00256376
0.0248301
-0.00121162
0.0097379
0.00888847
0.00168925
0.00475218
0.0129392
-6.97057e-05
0.00272569
0.0108803
0.0152919
0.0316554
0.0124483
0.0164229
0.00957154
0.00880853
0.0385183
0.0254497
0.00222522
0.00747782
-0.00508872
0.0118907
0.0150979
-0.00527979
0.00480126
0.0140956
0.00964457
0.000742325
0.00981879
0.012532
0.0384385
0.0173427
0.0279203
0.00960668
0.0025204
0.0272353
0.0201151
0.0126043
0.00150858
0.00797083
0.0211443
0.0281861
0.0210839
0.040473
0.0218489
0.0480744
0.0169758
0.0128169
0.0148969
0.0160048
0.0168796
0.0100608
0.0118986
0.00956659
0.0108077
0.0154845
0.0153854
0.0165959
0.0107487
0.0178595
0.0161981
0.0083902
0.0124867
0.00265907
0.0143409
0.0147244
0.0091599
0.00491594
0.0121564
0.00836956
0.0170896
0.0166638
0.0113702
0.0344507
0.00639196
0.0244222
0.0140125
0.00458274
0.0144506
0.0264118
0.00830564
0.00562962
0.00647226
0.00450694
0.00763102
0.0262222
-0.0203297
0.013312
0.0136448
0.00992733
0.0195192
0.00795009
0.0178007
0.0202233
0.000747295
0.0109835
0.0136637
0.0239635
0.0164948
0.0158345
0.0172415
0.0196672
0.0125939
0.0150595
0.0349884
0.0254375
0.0262046
0.0164063
0.00822923
0.0369281
0.00764981
-0.00575802
0.0444521
0.0102368
0.0162543
0.0036849
0.0234841
0.0162036
0.017383
0.0241746
0.0380432
0.0304548
0.0018731
0.0254057
0.0275863
0.0297825
0.0195488
0.0238699
0.0255437
0.0268042
0.0277547
0.0181783
0.0225499
0.0233993
0.0229584
0.0228151
0.0267847
0.0269787
0.0297483
0.0308683
0.0280556
0.0292224
0.0161
0.022895
0.00890244
0.021642
0.020479
0.00347881
-0.00164976
-0.0110894
0.00295411
0.0207596
0.013483
0.0124146
0.0181057
0.0395587
0.057626
0.0156282
0.0323478
0.00136801
0.0142458
-0.00714271
0.0319458
0.0278891
0.0181595
0.0236035
0.0167225
0.017495
0.00853921
0.00318641
0.00976135
0.0108514
0.0133264
0.0153746
0.0137544
0.00885362
0.0105434
0.0142629
0.00220008
0.0111034
0.00941677
0.0282835
0.0089134
0.0133111
0.0133333
0.0192969
0.0132497
0.0061993
0.0178323
-0.00309006
-0.00434657
0.0121391
0.00251289
0.0178013
0.0010884
-0.000287796
0.0151084
0.0101349
0.026766
0.0278382
0.005661
0.0174266
-0.00226682
-0.00651766
0.0155798
-0.00158269
0.00966337
0.0101799
0.0119046
0.0243182
0.0186238
0.00965306
0.0111772
0.0128963
0.0236825
0.0243413
0.0117178
0.0211982
0.0101577
0.0129792
0.00428504
0.0219375
0.00773093
0.0154905
0.00414293
0.00924385
0.0169403
0.0140457
0.0143721
0.00894657
-0.00190452
0.0102583
0.0236456
-0.00514686
-0.0112395
0.0239438
0.00945619
0.0187309
0.0170159
0.0233204
-0.00409057
0.0163432
0.0201612
0.0209682
0.0310799
0.00743509
0.0274283
0.0305043
0.019736
0.00615969
0.0174134
0.0123783
0.0129624
0.00883268
-0.00397214
0.00501577
0.0136225
0.0138988
0.00954254
0.00391578
0.00457137
-0.00363712
0.0268455
0.0366903
0.0168057
0.00375698
0.000408255
0.0110727
0.0032665
0.00877843
0.0187821
0.0289604
0.0136189
0.0389055
0.0152585
0.021914
-0.000100376
0.00837772
0.0146843
0.0137005
0.00421657
0.00266458
0.00665551
0.0138273
0.021883
0.0133211
0.0227665
0.010631
0.0227039
0.0227792
0.00472727
0.0177905
0.00453634
SCALARS CoVolArea double 1
LOOKUP_TABLE default
436.081
430.522
277.152
168.638
393.417
422.648
222.956
433.314
330.223
350.53
298.347
348.369
371.585
543.093
601.472
626.458
649.328
535.379
526.012
721.668
514.361
410.121
535.972
405.018
773.7
383.011
699.786
634.132
135.518
482.805
481.998
629.606
444.612
714.099
436.065
381.993
731.219
455.31
511.382
511.334
1013.29
424.056
474.223
614.429
591.608
428.524
559.765
505.01
576.18
659.48
636.884
687.116
669.367
590.615
617.685
644.473
686.124
571.392
599.287
508.58
531.589
602.144
490.251
603.523
491.308
493.259
566.085
588.478
468.288
606.105
502.891
544.267
419.532
689.173
510.033
742.882
253.431
595.878
583.615
558.271
585.385
432.088
588.592
409.922
406.988
498.729
713.257
510.758
683.947
606.8
503.114
459.393
559.119
520.068
1141.22
495.601
370.227
258.133
543.004
514.989
362.778
393.893
346.974
434.755
555.158
472.079
521.247
511.932
476.711
574.478
490.007
571.178
479.867
676.249
439.389
691.43
483.39
686.82
669.799
570.449
481.104
515.686
463.064
643.619
377.402
555.74
394.59
387.522
506.05
359.01
349.225
500.693
550.817
730.689
628.318
532.397
185.972
297.877
616.688
402.488
543.959
545.19
507.118
714.912
864.376
447.382
416.102
673.186
461.665
449.519
674.892
646.156
531.869
694.881
497.378
606.106
592.454
485.398
431.456
602.487
479.813
400.997
516.649
552.115
576.168
504.928
522.179
415.131
577.066
584.822
640.871
413.185
477.683
405.747
586.418
515.291
435.319
406.056
502.736
463.928
539.74
586.911
579.185
635.11
583.658
560.773
620.236
627.626
656.28
624.525
686.19
700.683
668.477
598.236
601.352
599.642
655.9
688.088
693.296
532.747
621.399
638.664
624.25
593.784
591.378
585.279
554.157
614.549
579.641
684.877
654.943
645.61
566.547
575.648
623.593
699.099
722.128
795.868
539.276
540.104
691.254
573.998
507.436
499.551
557.218
517.119
562.3
562.6
540.558
521.745
600.337
688.986
529.573
555.051
516.197
564.183
535.134
466.947
473.36
533.265
559.067
702.775
639.396
651.393
556.143
560.755
521.244
493.447
518.655
507.812
503.699
540.97
500.262
561.162
490.417
655.101
436.164
492.685
530.968
537.245
463.87
494.925
508.019
511.87
599.973
500.684
562.09
529.185
537.434
515.112
517.911
482.242
484.991
417.812
375.442
506.999
651.097
595.622
561.715
634.795
547.016
479.818
470.421
381.664
430.871
554.015
189.693
491.513
646.111
506.967
778.737
549.698
601.404
608.368
619.125
566.076
461.712
535.234
533.575
538.915
527.066
612.095
527.392
566.494
539.792
612.122
433.171
452.096
412.359
519.251
473.499
386.521
420.552
483.884
596.557
660.489
673.709
652.448
594.182
587.016
514.113
549.923
339.135
410.293
335.887
540.24
499.118
705.224
567.392
749.431
424.348
436.119
592.842
701.104
495.925
434.11
627.715
488.245
561.532
679.274
741.384
496.296
632.799
468.274
346.291
474.66
356.95
186.737
598.569
444.978
711.675
414.004
615.926
842.119
841.456
714.489
917.836
833.876
377.214
360.199
303.376
634.094
420.862
569.648
324.217
260.811
424.947
819.874
684.927
643.445
544.543
431.305
705.775
621.304
482.76
583.584
619.638
503.339
512.633
192.847
349.275
208.25
586.332
708.392
315.253
473.064
406.958
624.061
477.93
402.665
292.798
435.87
209.325
463.729
265.519
487.787
473.14
507.998
498.286
444.518
555.608
453.806
505.494
546.7
523.251
475.522
472.66
445.62
488.581
518.807
507.62
519.9
501.674
500.878
464.888
574.681
554.205
496.609
502.53
520.561
508.361
528.077
257.903
479.04
341.474
567.149
640.747
542.901
387.587
521.534
577.244
530.263
823.966
598.503
610.21
802.62
723.757
477.094
633.451
412.71
640.112
511.193
471.43
624.694
582.557
507.801
533.55
438.873
482.01
565.596
506.416
709.376
480.268
321.364
437.244
470.624
580.196
546.881
535.502
662.081
749.663
312.805
419.996
415.312
502.685
426.509
456.369
485.555
408.862
485.443
453.368
637.188
359.653
379.476
368.397
513.78
451.105
489.491
380.547
278.995
696.81
468.675
346.948
395.463
401.456
349.88
438.812
374.304
358.228
307.098
513.237
735.852
325.351
673.66
353.208
585.901
825.666
656.792
673.011
866.245
582.694
668.196
578.099
565.559
249.782
176.486
526.739
296.937
516.706
290.093
747.076
275.933
306.527
390.459
321.003
399.601
515.521
726.084
441.879
449.251
468.574
782.761
415.18
626.015
526.125
431.314
425.347
837.786
680.505
821.164
230.241
753.901
293.781
411.857
535.199
525.081
625.649
538.518
809.126
571.194
663.65
965.081
520.096
469.409
545.537
504.549
405.941
340.88
310.055
818.307
585.191
636.804
696.28
719.749
684.508
667.304
514.64
449.087
401.938
373.151
501.311
652.975
567.962
398.648
418.882
528.69
496.669
655.536
512.253
575.38
418.29
563.265
432.656
560.807
621.413
565.752
526.997
490.113
624.909
645.747
746.392
531.299
688.887
807.674
625.131
775.002
550.669
620.317
365.942
735.736
595.931
378.937
405.571
298.603
557.899
263.098
289.784
499.878
472.116
399.283
417.572
528.607
759.722
868.731
833.373
735.655
589.962
633.583
612.523
662.35
729.579
427.143
235.88
443.771
478.285
657.931
497.547
685.891
558.49
365.944
214.087
531.326
311.99
531.574
449.009
679.54
515.429
406.978
390.614
582.413
499.342
566.767
512.071
518.551
583.683
410.033
496.725
451.593
399.345
640.783
448.854
496.796
SCALARS SignedDistance double 1
LOOKUP_TABLE default
34.4872
34.3942
35.7796
37.6354
40.5821
35.5473
37.5558
39.0625
44.0772
42.6113
43.33
42.864
40.3674
35.6949
30.8458
31.2629
32.0549
35.0269
34.8627
42.1616
41.8131
44.7154
35.7079
39.35
46.213
39.9942
48.5533
44.107
37.8101
41.0268
42.5002
43.746
43.714
45.1424
38.6308
39.8272
41.442
39.5612
43.8594
41.979
48.5574
45.1114
34.5081
32.7844
32.311
39.5589
36.7991
39.2503
32.1873
34.384
35.8326
33.2472
32.0364
31.6283
30.1884
32.0702
33.3846
32.6691
32.7068
33.6802
33.7584
32.5032
37.5232
35.535
37.5948
36.6532
37.1393
40.1765
38.4257
44.0691
40.8466
43.4393
40.9877
46.8857
42.8496
42.7434
42.1281
33.549
35.2662
35.7984
33.8448
40.1039
36.5318
40.0116
37.9845
36.881
41.8428
40.0224
42.0195
40.7916
41.5819
45.3347
41.4181
44.9172
46.9946
39.9
46.8829
42.6384
43.5879
43.3155
38.6792
39.6043
38.377
41.1374
43.5665
38.5663
40.3443
37.2477
36.7566
44.3072
40.8321
44.1232
42.307
39.3229
37.1185
42.3384
43.7052
47.0637
41.9514
38.5261
41.2184
31.4161
30.6219
43.0346
39.7412
30.6497
29.3706
35.3867
31.9076
37.3664
34.0836
32.5558
36.5579
41.8299
37.0037
49.0119
45.2385
39.3378
39.2828
44.6148
42.4726
44.367
43.3485
47.329
47.1637
45.694
42.287
40.6315
39.9938
38.8893
39.4273
38.6812
43.1506
38.5985
45.314
41.8762
44.1299
41.9443
39.899
42.6287
42.135
40.9109
33.568
32.5408
33.2621
33.9672
33.2949
36.1853
31.4118
32.2866
31.7784
40.886
38.8068
41.6503
36.9799
37.9567
38.4002
39.8036
38.3791
37.9567
33.7791
34.2952
36.4969
32.3617
33.4701
31.3091
36.1296
34.901
35.3369
34.655
35.0173
33.1169
32.6338
33.2479
30.4418
30.5312
33.3604
33.3134
32.3722
33.8725
32.4843
30.4879
31.9517
31.4256
32.0194
30.3018
33.1056
32.4345
33.952
32.3625
33.3392
33.303
31.6377
30.606
30.4312
29.9674
30.2313
32.6026
32.4854
33.973
33.5993
32.5379
34.0911
33.0556
33.6228
34.0713
33.1281
33.8395
33.3778
34.192
32.2964
33.5724
39.8132
37.923
39.9062
34.77
36.4463
36.0935
36.0763
36.4816
34.7582
32.5311
34.036
33.9757
34.8627
35.578
35.2066
34.3588
39.7003
37.2114
39.1347
39.6039
39.594
40.8644
40.6769
41.1746
37.2686
36.2418
44.4105
43.4906
42.5169
41.5698
42.6018
42.8834
43.2803
40.9933
40.5317
37.6325
40.2574
39.1685
35.6886
40.0274
36.9369
37.2145
41.5356
44.1918
45.2698
43.8541
43.5806
45.6156
43.3671
42.3379
43.2076
41.4089
42.2628
42.4598
45.2414
43.9083
44.4435
42.1759
43.0277
42.3754
34.1736
34.9004
31.6527
32.4329
36.1056
34.0352
34.6362
35.1789
34.0671
35.5298
34.5249
35.6896
32.1319
31.465
40.9944
40.5063
41.2964
36.9757
39.0082
39.6196
38.1481
38.755
36.8156
33.2028
35.3953
35.4257
35.1516
36.126
38.1434
36.5189
37.9205
37.1775
38.9244
42.3297
41.0689
41.0175
40.9012
43.0238
39.6421
39.1057
45.0553
44.8937
41.3713
40.3316
40.7068
41.5827
46.5512
44.5322
42.8059
39.5622
40.1737
39.8665
41.557
40.8807
44.36
44.448
46.7397
42.3518
48.142
44.1353
44.8751
49.8787
46.4941
43.2306
47.8318
46.1127
39.0966
40.0581
38.1311
45.8463
42.3819
40.9794
42.8743
42.5256
47.5772
46.9066
49.9652
48.9596
42.5887
42.807
44.6188
43.448
41.4026
42.2967
42.684
41.4629
40.5436
38.3296
38.9958
38.6772
41.5193
43.3745
38.0242
43.0851
41.3449
42.0793
42.4749
39.9018
38.5045
42.0886
38.3676
41.3286
38.7668
41.8933
38.8901
39.9588
36.1701
37.2946
42.0257
39.9696
40.304
35.2006
34.792
39.8109
37.3405
40.0199
34.3329
35.1758
43.2771
43.4392
44.2821
41.0426
42.3532
43.6152
42.9206
42.2293
41.8838
37.7972
39.7928
40.4678
41.7987
40.3855
36.6047
39.6859
40.0637
40.752
36.7616
40.2681
39.864
42.5537
44.622
42.6787
45.2489
47.2774
43.0756
49.6719
50.4447
44.4756
39.6291
38.9721
41.3407
40.3656
39.7227
40.3198
43.8943
39.6336
40.9366
39.6639
40.4364
38.4762
33.5528
33.156
33.8245
32.8882
36.2137
31.7971
36.169
39.6266
43.0353
39.5599
43.968
43.5551
42.0307
38.6712
32.8396
31.7806
34.6438
33.1588
32.0292
38.1642
36.4356
32.1134
33.8688
34.6231
34.2294
30.1291
32.3614
36.4928
35.2878
30.8914
39.4219
33.6932
36.0514
33.884
31.1924
34.844
31.6628
36.3027
31.4131
35.8758
36.8467
36.9639
36.8294
41.6255
48.4037
49.4993
48.4588
48.7813
41.3014
32.5279
36.1008
36.2682
43.2547
42.7258
47.2857
44.6109
45.0169
45.6656
48.8781
38.0539
36.8217
40.7262
38.6943
40.937
37.5836
49.6537
44.8112
44.5115
44.2281
43.3
42.9532
43.8074
42.8718
43.2888
42.5271
49.6798
40.8907
46.3992
45.0714
44.6679
44.5116
42.4484
44.6092
44.6304
46.2191
44.9428
46.9547
45.8284
47.8391
48.8349
41.6491
42.7518
50.2936
45.7425
43.6117
42.5903
43.3167
50.2041
46.5885
49.1098
44.986
42.1025
43.5432
41.2129
40.8853
41.1233
38.2786
39.513
41.1251
41.0735
35.6694
39.0148
37.2294
36.4779
37.5649
40.0444
39.7312
40.5793
39.3725
39.9862
39.2214
39.9631
40.088
38.8936
41.1524
39.6663
40.5157
41.1681
41.7283
42.4706
47.0179
47.1308
46.9047
38.9725
40.1923
38.4739
36.5644
48.0191
37.7915
37.7225
39.0514
38.7074
46.3791
43.8954
40.0115
41.5939
43.8674
41.7141
42.453
43.0215
43.7019
48.3127
46.9344
39.7458
43.2694
42.2594
43.5962
43.979
45.262
42.5909
38.9196
42.9023
42.2837
41.5928
41.3428
44.3508
42.5579
38.7532
38.7774
42.8082
39.9667
42.1705
41.984
43.1574
43.2638
42.2773
42.411
45.7982
42.9759
43.5992
45.2987
44.1188
35.4579
40.9906
36.9457
37.6394
41.5666
42.9124
42.4947
42.378
