# vtk DataFile Version 4.2
vtk output
ASCII
DATASET POLYDATA
POINTS 642 double
-31.2079 19.383 -81.6362
-29.5144 19.3806 -81.6368
-31.1941 16.5338 -81.6514
-29.5316 16.5411 -81.6535
-30.3606 17.1209 -80.3457
-30.3573 18.8565 -80.2661
-30.361 17.1253 -82.9785
-30.3596 18.8112 -82.9725
-29.0979 17.9814 -82.4381
-29.062 17.9997 -80.8298
-31.6274 17.9758 -82.4438
-31.6647 17.9965 -80.831
-31.6432 18.8032 -81.1466
-31.1489 18.4938 -80.3562
-30.864 19.3358 -80.8167
-29.8548 19.3342 -80.8159
-30.3596 19.6479 -81.6367
-29.8693 19.2973 -82.4381
-30.8498 19.2988 -82.4382
-31.1125 18.4625 -82.8968
-31.6114 18.7897 -82.1162
-31.8733 17.985 -81.6299
-29.5702 18.496 -80.355
-29.0815 18.7995 -81.1464
-31.1222 17.4899 -80.4027
-30.3593 18.0001 -80.073
-31.5784 17.1361 -82.1118
-31.59 17.1509 -81.1819
-30.3617 17.9637 -83.2122
-31.1057 17.4722 -82.9014
-29.1095 18.7889 -82.1164
-29.6075 18.4655 -82.8932
-29.1372 17.1593 -81.1805
-29.5979 17.4927 -80.4035
-29.8843 16.6125 -80.8747
-30.8419 16.6016 -80.8708
-30.3628 16.2652 -81.6425
-30.852 16.6139 -82.4277
-29.875 16.6194 -82.4234
-29.6218 17.4748 -82.8955
-29.1553 17.1463 -82.1072
-28.8554 17.9905 -81.634
-31.4622 19.1509 -81.3901
-31.3096 19.1218 -80.9497
-31.0763 19.4187 -81.2325
-31.4662 18.2415 -80.5672
-31.452 18.6844 -80.7058
-31.7032 18.3931 -80.9522
-30.6059 19.1292 -80.4778
-31.0439 18.9593 -80.5274
-30.7511 18.7116 -80.2534
-30.6266 19.5751 -81.2008
-30.8282 19.5726 -81.6374
-30.1106 19.1285 -80.4764
-30.3591 19.4106 -80.7696
-29.8917 19.5712 -81.6369
-30.0927 19.5742 -81.2009
-29.645 19.4166 -81.2323
-30.623 19.5511 -82.0674
-31.0646 19.3997 -82.0364
-29.6552 19.3971 -82.0364
-30.0967 19.5501 -82.0673
-30.5978 19.0852 -82.7631
-30.3596 19.3685 -82.4822
-30.121 19.0848 -82.7628
-31.2823 19.0971 -82.3113
-31.4482 19.1416 -81.8777
-30.7338 18.6702 -82.9913
-31.0174 18.9241 -82.7188
-31.6647 18.3788 -82.3108
-31.4105 18.6625 -82.5489
-31.4245 18.2165 -82.6961
-31.695 18.8382 -81.6308
-31.7955 17.983 -82.0727
-31.8096 18.4115 -81.881
-31.8253 18.417 -81.3807
-31.8232 17.9898 -81.1985
-29.4125 19.1197 -80.9478
-29.2624 19.1472 -81.3903
-29.9645 18.7131 -80.2517
-29.6741 18.9588 -80.524
-29.0215 18.393 -80.9519
-29.2705 18.6834 -80.704
-29.2556 18.2426 -80.5665
-30.7688 18.2565 -80.137
-30.3581 18.4587 -80.1127
-31.448 17.7512 -80.5876
-31.1718 17.9995 -80.3156
-30.3597 17.5341 -80.1654
-30.7612 17.7394 -80.1667
-30.736 17.2683 -80.3212
-31.7996 17.5561 -81.3958
-31.6744 17.5894 -80.9753
-31.6467 17.5717 -82.3139
-31.7831 17.5444 -81.8827
-31.4192 16.7779 -81.4213
-31.6515 17.0967 -81.6527
-31.4246 16.7762 -81.8876
-31.1382 17.9653 -82.9641
-31.4169 17.7241 -82.6989
-30.3608 18.4124 -83.1434
-30.7492 18.2156 -83.1321
-30.731 17.2638 -82.997
-30.7489 17.7114 -83.1329
-30.3613 17.5143 -83.1446
-29.7014 18.9235 -82.7177
-29.9855 18.6712 -82.9894
-29.2729 19.1385 -81.8803
-29.4367 19.0951 -82.3112
-29.2988 18.2214 -82.6906
-29.3102 18.6631 -82.5469
-29.0584 18.3809 -82.3082
-29.3109 16.7866 -81.4255
-29.4629 16.8326 -81.0027
-29.6699 16.5161 -81.267
-29.2753 17.7537 -80.5872
-29.3152 17.2913 -80.7506
-29.0547 17.5905 -80.9746
-30.1302 16.8333 -80.5603
-29.7121 17.0126 -80.5962
-29.9839 17.2708 -80.3216
-30.1043 16.3521 -81.2263
-29.896 16.3452 -81.6486
-30.595 16.8277 -80.5615
-30.3662 16.5303 -80.8243
-30.8275 16.339 -81.6453
-30.625 16.3453 -81.2222
-31.0557 16.5052 -81.2593
-30.0966 16.3611 -82.0664
-29.6619 16.5177 -82.034
-31.0641 16.5112 -82.0394
-30.628 16.3575 -82.0685
-30.127 16.8503 -82.7593
-30.363 16.5478 -82.4701
-30.5977 16.8473 -82.7595
-29.4628 16.8254 -82.292
-29.3081 16.7814 -81.882
-29.9931 17.2651 -82.9946
-29.7194 17.0153 -82.7134
-29.0814 17.5806 -82.3091
-29.3377 17.2844 -82.5439
-29.3096 17.7293 -82.6919
-29.0841 17.1045 -81.6483
-28.9309 17.9885 -82.0705
-28.9453 17.5553 -81.8815
-28.9321 17.5592 -81.3954
-28.9072 17.9955 -81.198
-29.9573 17.7402 -80.1677
-29.5468 18.001 -80.3158
-29.9482 18.2584 -80.1369
-31.2611 16.8201 -81.0007
-31.0092 17.0037 -80.5965
-31.4081 17.2855 -80.75
-31.0086 17.0088 -82.7153
-31.2703 16.8167 -82.3008
-31.3923 17.2759 -82.549
-29.5859 17.9685 -82.9574
-29.9756 17.7116 -83.1284
-29.9731 18.2172 -83.1283
-28.8999 18.4175 -81.3817
-28.9143 18.4128 -81.8815
-29.0276 18.8344 -81.6343
-31.3349 19.2874 -81.5206
-31.2836 19.2968 -81.3009
-31.1554 19.4122 -81.4488
-31.4954 18.9712 -81.0436
-31.402 19.1451 -81.1641
-31.566 18.9891 -81.265
-30.979 19.3941 -81.0206
-31.1995 19.285 -81.0795
-31.095 19.2462 -80.8733
-31.5842 18.1115 -80.7015
-31.5975 18.3282 -80.7482
-31.6936 18.1805 -80.8793
-31.3109 18.5952 -80.5149
-31.4669 18.4679 -80.6216
-31.3218 18.369 -80.4508
-31.6874 18.6016 -81.0415
-31.5929 18.5483 -80.8252
-31.565 18.7539 -80.9202
-30.4724 18.9911 -80.3511
-30.6904 18.9321 -80.3521
-30.5413 18.7969 -80.2474
-30.961 19.1641 -80.6594
-30.8325 19.06 -80.4934
-30.7372 19.2454 -80.6329
-30.9547 18.6102 -80.2894
-30.9071 18.8412 -80.3759
-31.1065 18.7315 -80.4251
-31.3966 18.9141 -80.8155
-31.2626 18.8318 -80.6029
-31.1886 19.0559 -80.7254
-30.9534 19.5163 -81.4265
-31.0401 19.4841 -81.6371
-30.7529 19.4737 -80.9974
-30.8574 19.5129 -81.206
-30.6003 19.6281 -81.6371
-30.7266 19.593 -81.4186
-30.4933 19.6333 -81.4188
-30.243 18.9909 -80.3504
-30.3582 19.1492 -80.468
-30.1 19.3903 -80.781
-30.2284 19.2857 -80.6138
-29.9806 19.2442 -80.6316
-30.4892 19.2861 -80.6142
-30.6184 19.391 -80.7814
-29.6808 19.4822 -81.6369
-29.7671 19.5148 -81.4266
-29.567 19.4101 -81.449
-30.2257 19.633 -81.4187
-29.993 19.592 -81.4185
-30.1192 19.6273 -81.6366
-29.7411 19.3922 -81.0201
-29.8627 19.5113 -81.2062
-29.9664 19.4726 -80.9972
-30.4948 19.5148 -80.975
-30.2239 19.5144 -80.9749
-30.3594 19.5971 -81.1947
-30.9488 19.5061 -81.8465
-31.1488 19.4038 -81.8234
-30.4929 19.6203 -81.8538
-30.7244 19.5814 -81.8543
-30.9649 19.3651 -82.2421
-30.8498 19.4907 -82.0622
-30.7444 19.4414 -82.2642
-29.5721 19.4012 -81.8237
-29.7714 19.5039 -81.8459
-29.9752 19.44 -82.2641
-29.8701 19.4887 -82.0619
-29.7544 19.3629 -82.2421
-29.9954 19.5799 -81.8538
-30.2267 19.6198 -81.8536
-30.4695 18.9463 -82.8862
-30.3594 19.1041 -82.7715
-30.2493 18.9463 -82.8859
-30.6115 19.3505 -82.4715
-30.4856 19.2418 -82.6313
-30.7251 19.2035 -82.6143
-29.9938 19.2026 -82.614
-30.2333 19.2415 -82.6313
-30.1078 19.3497 -82.4714
-30.3598 19.5729 -82.0737
-30.2272 19.4798 -82.2856
-30.4922 19.4803 -82.2856
-31.2692 19.2827 -81.9686
-31.3291 19.2824 -81.7498
-31.074 19.2147 -82.3846
-31.1803 19.2615 -82.1854
-31.5427 18.9771 -82.0002
-31.379 19.1277 -82.1022
-31.4638 18.9531 -82.2194
-30.5349 18.7523 -82.9938
-30.6779 18.8896 -82.8875
-31.0742 18.6998 -82.8215
-30.8844 18.8035 -82.8671
-30.9266 18.5737 -82.9591
-30.8153 19.0194 -82.7498
-30.9407 19.1264 -82.59
-31.6543 18.1639 -82.3882
-31.5557 18.3093 -82.5144
-31.5439 18.0883 -82.5678
-31.5259 18.7359 -82.3397
-31.5513 18.5305 -82.4344
-31.6514 18.5875 -82.2205
-31.2814 18.3415 -82.8071
-31.4243 18.4459 -82.6352
-31.2711 18.5694 -82.7365
-31.1599 19.0248 -82.5277
-31.227 18.8038 -82.6473
-31.3608 18.8904 -82.4413
-31.4745 19.1541 -81.6338
-31.6686 18.8244 -81.8794
-31.5877 18.9966 -81.7587
-31.5964 19.0009 -81.506
-31.6866 18.8319 -81.3831
-31.716 17.9792 -82.2786
-31.7468 18.1887 -82.1914
-31.8584 18.1989 -81.7552
-31.8181 18.1986 -81.9746
-31.8494 17.9848 -81.8548
-31.7505 18.4054 -82.0997
-31.7268 18.6095 -82.0034
-31.7798 18.199 -81.0752
-31.7507 17.9937 -80.996
-31.7517 18.6194 -81.2586
-31.7802 18.4157 -81.1629
-31.8654 17.9864 -81.4095
-31.8402 18.2027 -81.2897
-31.8663 18.1996 -81.506
-31.7708 18.6328 -81.7582
-31.8368 18.4198 -81.6302
-31.7792 18.6363 -81.5022
-29.4398 19.2941 -81.3004
-29.389 19.2843 -81.5214
-29.6249 19.2442 -80.8717
-29.5221 19.2827 -81.0784
-29.1587 18.9852 -81.2647
-29.3219 19.1421 -81.1629
-29.2287 18.9684 -81.0423
-30.1734 18.7974 -80.2463
-30.025 18.9319 -80.3499
-29.6124 18.7327 -80.4225
-29.8095 18.8418 -80.3727
-29.7628 18.6126 -80.2879
-29.8841 19.059 -80.4907
-29.7571 19.1626 -80.6572
-29.0324 18.1833 -80.8788
-29.1259 18.3289 -80.7475
-29.1402 18.1135 -80.7008
-29.1591 18.7514 -80.9191
-29.1298 18.5467 -80.8239
-29.0362 18.5989 -81.041
-29.3983 18.3701 -80.4501
-29.2546 18.4679 -80.6202
-29.4097 18.5959 -80.513
-29.5314 19.0546 -80.7227
-29.4581 18.8316 -80.6002
-29.326 18.9126 -80.8134
-30.5602 18.5849 -80.1633
-30.3574 18.6779 -80.1822
-30.9679 18.3812 -80.2295
-30.77 18.4856 -80.1801
-30.3588 18.2323 -80.0757
-30.5649 18.3553 -80.1063
-30.5624 18.1283 -80.0839
-31.5752 17.8832 -80.7106
-31.4633 17.9991 -80.5594
-31.1556 17.7438 -80.3446
-31.3175 17.8712 -80.4379
-31.2969 17.619 -80.4839
-31.3266 18.1263 -80.426
-31.1709 18.2504 -80.3196
-30.3599 17.3073 -80.2518
-30.5541 17.402 -80.2261
-30.5355 17.1818 -80.3227
-30.5605 17.8705 -80.1005
-30.5603 17.6392 -80.1482
-30.3597 17.7659 -80.1047
-30.9324 17.3709 -80.347
-30.7573 17.503 -80.2328
-30.9513 17.6094 -80.2696
-30.9801 18.1297 -80.2075
-30.9737 17.8678 -80.2217
-30.7697 17.9993 -80.1318
-31.7664 17.785 -81.0871
-31.6799 17.8087 -80.8921
-31.8546 17.7727 -81.5103
-31.8275 17.7752 -81.299
-31.6435 17.3691 -81.0714
-31.7514 17.5635 -81.1831
-31.7083 17.3456 -81.285
-31.646 17.7891 -82.3906
-31.736 17.7708 -82.1942
-31.6933 17.3288 -82.0041
-31.7277 17.5472 -82.1025
-31.6246 17.3521 -82.2197
-31.8049 17.7667 -81.9756
-31.8452 17.7697 -81.7552
-31.3081 16.6342 -81.5429
-31.441 16.769 -81.6553
-31.3112 16.6348 -81.764
-31.6358 17.1126 -81.4141
-31.5505 16.9305 -81.5346
-31.5129 16.9501 -81.3017
-31.513 16.9423 -82.0022
-31.5509 16.928 -81.7751
-31.6319 17.1027 -81.8868
-31.8098 17.5438 -81.6376
-31.7318 17.3106 -81.7678
-31.7376 17.3183 -81.5237
-31.4256 17.97 -82.7151
-31.5395 17.8578 -82.5692
-31.1331 18.2161 -82.9452
-31.2875 18.0949 -82.8434
-31.2727 17.5952 -82.8107
-31.2847 17.8397 -82.8449
-31.1299 17.715 -82.9474
-30.36 18.631 -83.0627
-30.5517 18.5395 -83.0864
-30.5546 18.0892 -83.1931
-30.5559 18.3115 -83.1564
-30.3614 18.1904 -83.1942
-30.7498 18.4434 -83.0748
-30.937 18.3428 -83.0301
-30.534 17.1825 -82.9999
-30.5517 17.3888 -83.0905
[...]
POINT_DATA 642
SCALARS Mean_Curvature double 1
LOOKUP_TABLE default
1.23598
1.23485
1.39676
1.46265
1.08563
1.24104
1.23411
1.15763
1.06694
1.13499
1.06936
1.12291
1.32202
1.19789
1.27486
1.26262
1.25098
1.2454
1.2511
1.09725
1.19478
1.11848
1.20901
1.28938
0.999937
1.25323
1.02269
1.10266
1.36481
1.17336
1.23927
1.1387
1.13387
1.01736
1.34156
1.43552
1.21856
1.36865
1.31887
1.15072
1.00071
1.10846
1.27027
1.24474
1.25051
1.20101
1.2408
1.19298
1.25649
1.22913
1.19318
1.28575
1.21849
1.25937
1.29482
1.22733
1.28011
1.2502
1.25815
1.25187
1.24167
1.2578
1.22558
1.23651
1.22756
1.24886
1.21879
1.1456
1.21679
1.08895
1.16307
1.06424
1.26768
1.00287
1.12936
1.13459
1.1568
1.25612
1.22432
1.24549
1.27077
1.20289
1.22598
1.21791
1.22118
1.22981
1.06267
1.16394
1.07274
1.12232
1.08844
1.16125
1.07808
1.03154
0.944659
1.25132
1.27743
1.39783
1.1601
1.07763
1.23167
1.28291
1.22396
1.27287
1.1829
1.2237
1.15084
1.23289
1.26027
1.06175
1.16512
1.1072
1.19967
1.11552
1.36934
1.08157
1.13313
1.04237
1.09276
1.10292
1.0975
1.35658
1.35183
1.07735
1.45785
1.30602
1.43994
1.41125
1.33166
1.4104
1.40442
1.35579
1.16118
1.22639
1.15351
1.28067
1.49989
1.25203
1.1513
1.04424
1.08255
1.06045
1.14661
1.01638
0.964952
1.09412
1.09946
1.11191
1.1855
1.24562
1.11473
1.08816
1.11961
1.14068
1.40194
1.09671
1.13158
1.24349
1.25857
1.16648
1.15123
1.27012
1.25393
1.25181
1.232
1.25912
1.2532
1.28675
1.26416
1.24463
1.25521
1.19379
1.19277
1.20485
1.20908
1.19363
1.22938
1.25486
1.20508
1.29193
1.26255
1.24258
1.21136
1.25881
1.2505
1.27233
1.18327
1.20597
1.19545
1.24793
1.22475
1.24699
1.22957
1.22797
1.27938
1.26591
1.21228
1.21665
1.24739
1.2637
1.24367
1.28055
1.26415
1.26067
1.26371
1.28062
1.2439
1.24643
1.23576
1.26261
1.22662
1.20699
1.25618
1.25601
1.28059
1.28369
1.28611
1.22002
1.2618
1.24771
1.21446
1.24932
1.25211
1.26627
1.26107
1.24125
1.24873
1.25651
1.24891
1.24502
1.23825
1.21678
1.18062
1.203
1.18264
1.25176
1.2318
1.24083
1.2384
1.23372
1.25175
1.24731
1.26985
1.26752
1.23871
1.21998
1.25044
1.24797
1.21668
1.24075
1.22996
1.15634
1.18355
1.15147
1.178
1.10634
1.22331
1.24135
1.046
1.11545
1.06644
1.2017
1.1224
1.14867
1.11776
1.10303
1.11892
1.24248
1.20034
1.22759
1.25752
1.23246
1.23811
1.28124
1.35859
1.04324
1.02543
1.09215
1.08591
1.06333
1.10737
1.18853
1.1339
1.13608
1.30744
1.22782
1.24504
1.14817
1.08768
1.22331
1.12293
1.24608
1.23598
1.20507
1.26119
1.24997
1.25728
1.23891
1.24754
1.23991
1.26584
1.23076
1.27212
1.20956
1.26294
1.26589
1.1928
1.20691
1.1891
1.24817
1.24704
1.27004
1.22757
1.22637
1.22015
1.27177
1.24537
1.2536
1.20724
1.20111
1.22448
1.20318
1.25347
1.25476
1.28573
1.08895
1.14538
1.09508
1.1087
1.04384
1.19654
1.22885
1.06606
1.03581
1.09955
1.18571
1.10447
1.13799
1.08699
1.01612
1.07142
1.20978
1.14218
1.21209
1.12255
1.10217
1.16676
1.16127
1.02519
1.09251
1.02926
1.03961
1.00713
1.00423
0.999388
1.02128
0.964897
1.0287
1.36605
1.30989
1.39428
1.12923
1.2134
1.11562
1.2892
1.2704
1.31291
1.03925
1.07227
1.03625
1.06772
1.0646
1.08383
1.06717
1.12067
1.08446
1.12381
1.14329
1.15966
1.36036
1.27281
1.32896
1.16068
1.12279
1.23729
1.25569
1.25166
1.15123
1.22625
1.20912
1.35473
1.25681
1.37023
1.25624
1.33016
1.24253
1.1872
1.16001
1.24227
1.2263
1.13316
1.1813
1.1634
1.22168
1.24212
1.25681
1.25302
1.24291
1.24982
1.25132
1.05832
1.10964
1.05027
1.1523
1.1482
1.11998
1.14507
1.14555
1.20648
1.2533
1.25009
1.20649
1.45195
1.32542
1.42215
1.11829
1.13779
1.12784
1.3701
1.26304
1.19851
1.10738
1.0418
1.07379
1.11736
0.988382
1.05245
1.11139
1.09259
1.13156
1.08658
1.09361
1.10481
1.11419
1.09038
1.21481
1.09435
1.09988
1.10953
1.11762
1.11686
1.10707
1.3632
1.41744
1.37836
1.36802
1.33378
1.30278
1.42084
1.08245
1.07105
1.47952
1.3748
1.28309
1.2739
1.36812
1.36003
1.36124
1.38895
1.46087
1.39479
1.33771
1.43615
1.43781
1.46726
1.41063
1.45536
1.41506
1.39546
1.44376
1.27831
1.32956
1.37733
1.37468
1.35289
1.39399
1.36594
1.37575
1.3814
1.3961
1.32373
1.27252
1.20697
1.14065
1.20132
1.27899
1.0688
1.08171
1.06873
1.06497
1.31711
1.2868
1.31659
1.32491
1.45006
1.47861
1.3458
1.41438
1.19854
1.47966
1.00857
1.24885
1.2189
1.17781
1.21176
1.22756
1.16902
1.09271
1.03782
1.06515
1.06088
1.04513
1.05801
1.02966
1.09873
1.08423
1.12856
1.07662
1.11438
1.05906
1.42675
1.12409
1.20349
1.15188
1.14572
1.04542
1.01232
1.09834
0.982259
1.05392
1.0251
1.01744
1.09118
1.1
1.08626
1.07182
1.10796
1.1073
1.11369
1.0751
1.09271
1.06402
1.04164
1.07118
1.02154
1.09594
1.17384
1.16808
1.24239
1.22319
1.13348
1.1045
1.20934
1.28026
1.24336
1.20453
1.21019
1.1379
1.2205
1.1825
1.38208
1.25668
1.34929
1.17577
1.09658
1.08476
1.0938
1.08594
1.07928
1.11474
1.0612
1.10826
1.00857
0.982096
1.10242
1.09426
1.09952
1.09833
1.20118
1.07462
1.15474
1.18967
1.17219
1.41446
1.19268
1.4323
1.41284
1.38795
1.06038
1.14814
1.10259
1.0634
1.04329
1.0617
1.05787
1.12217
1.06081
1.11213
1.0695
1.05693
1.08137
1.2884
1.36862
1.24251
1.22208
1.13674
1.14915
1.12432
1.14727
1.2624
1.34461
1.20911
1.31536
1.2188
1.18787
1.09031
1.14112
1.21449
1.32685
1.05785
1.18414
1.1196
1.12419
1.13725
1.21032
1.28929
1.22249
1.24796
1.28143
1.14997
1.26962
1.27136
SCALARS CoVolArea double 1
LOOKUP_TABLE default
0.0342969
0.0342253
0.0326564
0.0316321
0.0341105
0.0340927
0.0321956
0.0330014
0.0323836
0.0322581
0.0326729
0.032479
0.0550872
0.0567187
0.0590792
0.059106
0.0598691
0.056475
0.0564752
0.0559498
0.0548432
0.0545429
0.0563666
0.0552432
0.0576697
0.0543024
0.0549132
0.057085
0.0509436
0.0545937
0.0540332
0.0553532
0.0558139
0.0571679
0.0554083
0.0543866
0.0588682
0.0557025
0.055984
0.0542183
0.0556672
0.0545397
0.0530614
0.060433
0.0548825
0.0512055
0.0587701
0.0510692
0.0545823
0.0606043
0.0538373
0.0623385
0.0553665
0.0545513
0.0618417
0.0551901
0.0622261
0.0547325
0.0607298
0.0534446
0.0534447
0.0607687
0.0519305
0.05924
0.0518709
0.0579262
0.0527066
0.0519717
0.0574861
0.0511303
0.0569495
0.0514978
0.056824
0.0524523
0.0568337
0.0565443
0.0506654
0.0601715
0.0534238
0.0532382
0.0600421
0.0503742
0.0585475
0.0507682
0.0577347
0.0526445
0.0527429
0.0576151
0.0530751
0.058338
0.0538096
0.057749
0.0525949
0.052657
0.059444
0.0509328
0.0564488
0.0493805
0.0563816
0.0511761
0.0502045
0.0550472
0.0506948
0.0548012
0.0496772
0.0572368
0.0518066
0.0525001
0.0575883
0.0510778
0.0563977
0.0505086
0.05023
0.058735
0.0515367
0.0521505
0.0586186
0.0523757
0.0527862
0.0594677
0.0534347
0.0594822
0.0534942
0.0523401
0.0568294
0.0540926
0.0588203
0.0514818
0.0600301
0.0506386
0.0514192
0.0601538
0.0533634
0.0598582
0.0536586
0.0565685
0.0478618
0.0500095
0.0586192
0.0518425
0.0582396
0.0510304
0.0566525
0.051408
0.0586229
0.0574646
0.050963
0.0585177
0.0572805
0.0577786
0.0586444
0.0599789
0.0596953
0.0591024
0.0565026
0.0586631
0.056541
0.0547865
0.0552512
0.0557483
0.0558639
0.0567579
0.0474982
0.0536993
0.048258
0.0582827
0.0550391
0.0533134
0.0561583
0.0559824
0.0602935
0.0451215
0.050821
0.0450894
0.0583127
0.053288
0.0529077
0.0519032
0.0529242
0.0573433
0.0479177
0.0537055
0.0476365
0.0602201
0.0558622
0.0559747
0.054674
0.0555285
0.0592273
0.0649435
0.0652801
0.0660292
0.0547925
0.0484161
0.0610322
0.0568393
0.056855
0.0572237
0.0616316
0.0478332
0.0542177
0.0609136
0.0564978
0.0560204
0.0564695
0.0608837
0.0482013
0.0545522
0.0481092
0.0615404
0.0570384
0.0567699
0.0560989
0.0567225
0.0610088
0.0676952
0.0676612
0.0680136
0.0539358
0.0476709
0.0609588
0.056377
0.0540952
0.0552726
0.0588258
0.0475567
0.0538876
0.058859
0.0553559
0.054131
0.0563919
0.0609707
0.0459369
0.0516359
0.0458895
0.0582872
0.0537924
0.0532293
0.053192
0.0537698
0.0582672
0.0664316
0.0653193
0.0653292
0.0527004
0.0472826
0.0575826
0.0540586
0.0529002
0.0537003
0.056699
0.0459986
0.0513876
0.0569964
0.0531
0.053123
0.0530277
0.0571747
0.0455285
0.0508373
0.0454557
0.0560518
0.05225
0.0518013
0.0528714
0.0526677
0.056837
0.0627155
0.0623323
0.0622362
0.052357
0.0563234
0.0532755
0.0532392
0.0559648
0.0459975
0.0512179
0.0565111
0.0529445
0.0530844
0.0523359
0.0558798
0.0505878
0.0451778
0.055388
0.0520977
0.0512113
0.0522262
0.0561189
0.0614949
0.0617912
0.0611212
0.0537024
0.0476613
0.0601284
0.055839
0.0535984
0.055044
0.0582538
0.0473584
0.0533402
0.0585278
0.0548394
0.0540576
0.0556213
0.0600635
0.0445911
0.0502552
0.0446734
0.0573398
0.0526153
0.0516843
0.0526382
0.0529242
0.0579108
0.065601
0.0647422
0.0646564
0.0528717
0.0473394
0.0577631
0.0543775
0.0522411
0.0533865
0.0560165
0.0458628
0.0509856
0.0581596
0.0534442
0.0544805
0.0525838
0.0569257
0.0474817
0.0531879
0.0476004
0.0562378
0.0539559
0.0525847
0.0548889
0.054934
0.0587028
0.0627114
0.0632486
0.0623262
0.0509213
0.0458985
0.0558275
0.0519202
0.0542563
0.0535211
0.0582305
0.0458983
0.0524087
0.0576944
0.0550124
0.0541003
0.054753
0.0574565
0.0449617
0.0496569
0.0446131
0.0574691
0.0520614
0.0531827
0.0501589
0.0507685
0.055213
0.0632526
0.0626041
0.0630652
0.0509462
0.045434
0.0565891
0.0527859
0.0519795
0.0524255
0.0557278
0.0457879
0.0509034
0.0527502
0.0507378
0.0491984
0.0524893
0.0564528
0.0448687
0.0497242
0.0443841
0.0553765
0.0513801
0.0517808
0.0492675
0.0505092
0.0527965
0.0604537
0.0588309
0.0602019
0.0512499
0.045934
0.057078
0.0529141
0.0527685
0.0528315
0.0564962
0.0472691
0.0525188
0.0560963
0.053314
0.0523324
0.0539239
0.0574796
0.0451404
0.0502465
0.044954
0.0561453
0.0520021
0.0522717
0.0512119
0.0516997
0.0554512
0.0624296
0.0617362
0.0618758
0.0436626
0.0502469
0.0449771
0.0578563
0.053094
0.0527741
0.052643
0.0528576
0.0573458
0.0454835
0.0520981
0.0459247
0.0583043
0.0541975
0.0539077
0.0530389
0.053759
0.0574888
0.0473402
0.0530344
0.0474161
0.0579711
0.0545789
0.0530278
0.0544418
0.0546973
0.0584785
0.0642054
0.0643546
0.0644993
0.0521539
0.0456891
0.0573574
0.0540253
0.0557004
0.0552685
0.0595913
0.0473472
0.0518463
0.0556077
0.052015
0.0520386
0.052594
0.0565988
0.0467395
0.0524162
0.0458236
0.05938
0.0549661
0.0558583
0.0519761
0.0534304
0.0564463
0.0634354
0.0629547
0.064626
0.0517044
0.0444534
0.0605673
0.0552694
0.052003
0.0536175
0.0575995
0.0456634
0.0526409
0.0575806
0.0540183
0.0522119
0.0557512
0.0607026
0.0459358
0.0534268
0.0461651
0.0584747
0.0557165
0.0546359
0.0544829
0.055697
0.0582672
0.0662085
0.0648217
0.0648599
0.0485529
0.0430331
0.0565504
0.0509225
0.0499097
0.0498506
0.0559146
0.0445094
0.0509083
0.0561555
0.0523027
0.0511288
0.054134
0.0583481
0.0453721
0.0507187
0.0451819
0.0579113
0.0532799
0.0538681
0.0518449
0.0524325
0.0562386
0.0640035
0.0636664
0.0637814
0.0480965
0.0559232
0.0499435
0.0514325
0.056799
0.0453444
0.0514867
0.056594
0.0534975
0.0520729
0.0540965
0.0581172
0.0513006
0.0451201
0.0570374
0.0532478
0.0518869
0.0525759
0.0561321
0.0631069
0.0627613
0.06274
0.0530705
0.0585312
0.0548113
0.0540458
0.0564364
0.0504377
0.056757
0.0521867
0.0528772
0.0577699
0.0526608
0.056149
0.053433
0.0541091
0.057586
0.0631967
0.0626435
0.0625063
0.0506276
0.0567485
0.0524577
0.0530169
0.0584439
0.0532622
0.0592048
0.055243
0.0544946
0.0575052
0.0524856
0.0588085
0.0547179
0.0549434
0.0590668
0.0647499
0.0652557
0.065059
0.0515518
0.0581159
0.054577
0.0531612
0.0569279
0.0497833
0.0555613
0.05054
0.0514591
0.0563939
0.051182
0.0567205
0.052771
0.0538632
0.0578086
0.0638061
0.0636407
0.0641104
0.0508237
0.0557285
0.052436
0.0526588
0.0564393
0.0493826
0.0528182
0.0503828
0.0509668
0.0551854
0.0509166
0.0563665
0.052492
0.0508534
0.0528404
0.0603828
0.0590159
0.0607084
0.0499788
0.0557794
0.0517597
0.0512663
0.0551863
0.0503651
0.055022
0.0516331
0.0518881
0.0556404
0.0526635
0.0562538
0.0536923
0.0532209
0.0555899
0.060852
0.0606607
0.0607712
SCALARS SignedDistance double 1
LOOKUP_TABLE default
1.55286
1.55718
1.56527
1.58002
1.7896
1.56801
1.67451
1.73509
1.9082
1.83078
1.88733
1.8001
1.63669
1.63867
1.45901
1.46291
1.46298
1.596
1.5924
1.8199
1.76454
1.89388
1.63926
1.64388
1.87067
1.71855
1.91001
1.82998
1.63334
1.79227
1.77398
1.83118
1.83185
1.86459
1.66533
1.65609
1.53492
1.67493
1.72021
1.82657
1.9375
1.89145
1.56103
1.53054
1.48729
1.72688
1.63697
1.73148
1.49816
1.55966
1.60113
1.45789
1.49477
1.48894
1.42978
1.4929
1.45678
1.50292
1.50349
1.55016
1.55494
1.5061
1.66765
1.59383
1.66716
1.65295
1.6391
1.77246
1.71429
1.87386
1.79437
1.87192
1.69378
1.93846
1.84605
1.82593
1.78187
1.54021
1.59349
1.59075
1.54156
1.74877
1.64158
1.7364
1.66531
1.60569
1.8371
1.76311
1.82549
1.79383
1.79761
1.88773
1.84543
1.91567
1.97517
1.73566
1.86273
1.71513
1.82703
1.87268
1.72519
1.74885
1.70245
1.75506
1.75157
1.71464
1.768
1.63513
1.65383
1.8957
1.79743
1.88055
1.76239
1.74887
1.60782
1.856
1.83724
1.89938
1.75271
1.75786
1.79607
1.46127
1.44251
1.75988
1.61983
1.4481
1.41354
1.56681
1.49035
1.60041
1.54169
1.48225
1.68586
1.69663
1.68771
1.86489
1.79251
1.71548
1.76644
1.91787
1.85933
1.90024
1.87346
1.94327
1.97832
1.89707
1.83428
1.79538
1.7623
1.67377
1.74423
1.75994
1.82607
1.74796
1.7932
1.83516
1.85421
1.77813
1.76348
1.81901
1.84234
1.6897
1.54733
1.51404
1.52108
1.56978
1.53567
1.58961
1.46705
1.50328
1.49386
1.77471
1.72153
1.77186
1.64247
1.68153
1.6805
1.70515
1.68776
1.63366
1.53156
1.55264
1.5856
1.504
1.52768
1.47274
1.61998
1.58253
1.60638
1.57652
1.5919
1.53746
1.49931
1.52536
1.43484
1.45404
1.49331
1.4825
1.46772
1.53002
1.50003
1.44059
1.46659
1.46997
1.46649
1.43808
1.52351
1.49994
1.54133
1.46339
1.48102
1.49884
1.47503
1.46543
1.44164
1.42324
1.42278
1.4629
1.50828
1.5505
1.50214
1.48254
1.56509
1.51998
1.54441
1.55362
1.51954
1.5497
1.53015
1.56938
1.49572
1.50509
1.71186
1.67738
1.71167
1.58177
1.6292
1.62608
1.62721
1.62896
1.5826
1.5061
1.54011
1.54047
1.59229
1.59049
1.61378
1.59473
1.70043
1.64614
1.70888
1.74059
1.72311
1.77943
1.75072
1.80397
1.68511
1.64836
1.89582
1.86635
1.876
1.78001
1.83391
1.82872
1.84109
1.82876
1.80436
1.67959
1.75179
1.72602
1.60075
1.72951
1.66102
1.6184
1.67717
1.90806
1.91215
1.87222
1.89483
1.93053
1.86704
1.80841
1.79255
1.78877
1.74726
1.7776
1.82482
1.80953
1.86462
1.77549
1.83861
1.77694
1.54804
1.58082
1.49299
1.51293
1.60501
1.55707
1.58764
1.57131
1.53066
1.6007
1.55896
1.61507
1.50277
1.49057
1.79155
1.74489
1.79158
1.64327
1.69295
1.70168
1.68265
1.68818
1.64113
1.53373
1.59401
1.59017
1.59671
1.59405
1.65374
1.6284
1.64686
1.62568
1.67584
1.8185
1.79185
1.81883
1.80523
1.85808
1.74494
1.69734
1.82859
1.83915
1.78974
1.75582
1.80481
1.77807
1.82551
1.84444
1.83732
1.71555
1.77721
1.73335
1.81061
1.81602
1.88932
1.82281
1.87404
1.84879
1.89584
1.90868
1.93339
1.93842
1.94556
1.90356
1.96094
1.95622
1.64652
1.70454
1.61758
1.85702
1.78444
1.79524
1.82135
1.77886
1.88665
1.95988
1.96764
1.94593
1.8678
1.88609
1.85562
1.8623
1.83191
1.85525
1.82875
1.75208
1.7593
1.67448
1.72211
1.67911
1.78942
1.82325
1.67741
1.72353
1.70629
1.79099
1.75732
1.74169
1.68864
1.74114
1.67722
1.78718
1.70254
1.78449
1.72164
1.74028
1.64901
1.68442
1.79995
1.74779
1.77639
1.58922
1.59124
1.71255
1.64537
1.69953
1.59561
1.61499
1.90112
1.88234
1.91349
1.80908
1.84568
1.8677
1.83566
1.83681
1.79174
1.68116
1.73227
1.75481
1.67656
1.69375
1.59328
1.7811
1.75298
1.79222
1.62376
1.70243
1.71756
1.84416
1.89016
1.86166
1.85215
1.90264
1.86606
1.89927
1.90219
1.82988
1.77239
1.76231
1.78922
1.73977
1.75234
1.72121
1.8237
1.77161
1.79849
1.7789
1.78419
1.75059
1.52026
1.50115
1.55195
1.52115
1.46417
1.46619
1.44473
1.77313
1.77132
1.6137
1.72495
1.73089
1.72097
1.62932
1.49972
1.48167
1.56
1.4087
1.42534
1.48528
1.59801
1.48188
1.52325
1.52625
1.50181
1.41804
1.49459
1.5724
1.45347
1.44812
1.65078
1.53117
1.5925
1.53043
1.45886
1.55624
1.48264
1.59225
1.42249
1.45526
1.66567
1.68693
1.6666
1.68662
1.71638
1.73871
1.7352
1.71792
1.68261
1.50378
1.58691
1.58501
1.68603
1.66462
1.78303
1.72603
1.89752
1.82673
1.91557
1.67733
1.68317
1.78365
1.72952
1.77194
1.71978
1.78148
1.92829
1.90858
1.90901
1.89196
1.89051
1.91675
1.86607
1.87729
1.83912
1.83103
1.81777
1.8665
1.76529
1.92508
1.84881
1.81345
1.84805
1.92298
1.9478
1.9287
1.96831
1.93965
1.94665
1.96346
1.85297
1.83684
1.91047
1.89218
1.85591
1.84996
1.86958
1.97059
1.93472
1.93453
1.83954
1.8325
1.83959
1.8099
1.76201
1.79946
1.68934
1.74337
1.81013
1.82055
1.60806
1.68703
1.62582
1.63332
1.65392
1.77858
1.71787
1.74333
1.65707
1.7085
1.67775
1.74573
1.77782
1.76477
1.79889
1.77434
1.7573
1.74276
1.84697
1.81586
1.87554
1.88075
1.84866
1.74941
1.77998
1.77109
1.67978
1.76816
1.71437
1.7124
1.75271
1.62223
1.86546
1.74514
1.65742
1.71935
1.89259
1.80524
1.85098
1.8755
1.87504
1.80932
1.84615
1.79048
1.89118
1.85165
1.88391
1.88663
1.8745
1.72971
1.69847
1.75818
1.77898
1.8154
1.76475
1.83601
1.79503
1.73071
1.69241
1.81362
1.73265
1.81202
1.8035
1.86054
1.83554
1.77111
1.74147
1.92026
1.82329
1.87018
1.90783
1.87932
1.60814
1.67704
1.63878
1.65767
1.73177
1.83231
1.78603
1.77182
