# vtk DataFile Version 4.2
vtk output
ASCII
DATASET POLYDATA
POINTS 642 double
-72.2877 161.9 87.3468
131.251 162.172 85.9257
-68.0357 -204.256 80.1751
127.828 -203.786 80.3984
30.6726 -117.489 226.594
31.7408 99.1649 251.834
30.5246 -119.66 -74.6882
31.2002 85.1977 -67.6294
162.541 -12.9449 -2.80334
173.257 -1.81961 178.135
-102.97 -15.3888 -5.78511
-115.874 -3.50932 175.812
-123.123 91.7099 145.301
-62.9677 50.5575 238.495
-31.3575 161.748 189.053
92.8285 160.668 189.115
30.5771 199.339 87.1874
88.7242 150.379 -10.2544
-27.9808 151.016 -10.2091
-50.3724 44.7149 -55.9148
-110.11 87.8919 32.5988
-134.426 -11.7626 99.0861
123.369 51.5634 239.511
182.58 89.7901 144.817
-49.2695 -71.5791 217.709
29.132 -1.54467 270.206
-93.6181 -131.052 38.9687
-100.781 -119.253 134.663
28.8788 -18.2804 -108.088
-48.1128 -81.0716 -61.0882
171.093 88.9822 33.524
110.852 47.6898 -55.5631
161.791 -115.66 136.131
110 -71.7157 218.307
82.1571 -194.572 168.127
-22.365 -199.113 169.448
29.7655 -237.425 88.669
-28.3387 -195.024 -0.0118377
85.164 -192.45 1.807
105.32 -81.0953 -58.7771
147.431 -122.303 38.1976
192.696 -11.6231 90.9876
-105.015 132.347 118.937
-86.3096 131.638 170.122
-57.2627 169.467 139.781
-95.3184 24.112 212.198
-99.6768 77.2986 196.007
-122.73 43.8836 165.963
-0.918852 135.968 227.839
-52.0032 112.148 220.367
-16.8367 78.6148 251.883
-3.38634 190.598 143.489
-25.2741 188.081 84.9726
63.0482 134.953 229.039
29.7765 172.159 195.62
86.356 188.141 85.9523
64.462 190.701 142.88
116.904 169.465 139.936
-3.03357 184.891 32.1964
-53.0151 165.08 35.3546
114.22 163.825 35.3715
62.9627 184.662 31.9987
0.271331 123.87 -44.7256
30.5017 159.155 -14.8471
60.661 123.564 -44.9882
-76.7885 125.757 6.02857
-98.2274 129.1 58.0086
-10.8278 68.0586 -69.0104
-44.5892 103.978 -39.5208
-108.851 41.1209 12.2042
-85.231 73.3819 -16.8339
-81.5345 15.9017 -33.3657
-125.251 95.172 91.0247
-119.376 -8.02784 40.6904
-128.183 45.6095 61.0004
-130.426 47.9413 119.893
-135.919 -12.6662 132.072
145.426 131.258 171.307
162.972 130.077 119.55
79.5659 80.5041 253.107
113.207 112.19 223.041
182.899 44.6165 165.335
158.909 76.2737 197.042
154.78 24.9319 213.289
-15.3127 22.25 266.304
30.9935 43.3001 270.557
-88.273 -32.3329 203.232
-60.5904 -1.12435 239.02
29.9424 -56.8979 250.511
-12.2945 -30.5518 254.536
-13.1439 -101.383 228.993
-126.784 -56.9453 116.769
-114.972 -56.354 155.279
-101.629 -64.2465 6.91289
-112.9 -68.2585 63.2894
-85.49 -171.608 104.874
-107.218 -132.26 79.8439
-89.4778 -172.728 54.6484
-46.6063 -19.4234 -71.1395
-78.6795 -49.2731 -35.9246
29.8365 25.6474 -96.3436
-5.82641 3.136 -95.2045
-10.3567 -103.754 -75.7172
-6.88482 -42.0735 -94.0183
29.4447 -66.3979 -91.4294
105.59 103.593 -39.7509
72.7621 69.208 -69.6065
159.276 128.525 56.058
138.098 125.308 6.0713
140.585 19.7713 -31.3038
145.286 73.5122 -16.8758
169.253 40.7908 12.4099
142.77 -170.659 101.303
126.03 -160.525 152.124
107.882 -205.717 126.803
146.765 -30.8434 204.787
142.6 -102.485 181.154
169.158 -60.9543 154.006
56.8206 -162.212 196.986
101.996 -132.304 200.071
74.078 -101.672 228.917
58.5882 -230.038 134.03
87.3206 -230.641 81.5969
2.84547 -166.654 194.273
26.5218 -206.562 176.122
-25.9086 -230.724 84.2686
-2.64402 -234.202 135.15
-48.9687 -209.636 130.17
64.6458 -226.403 34.2467
111.438 -205.781 39.5722
-53.2715 -208.24 35.8992
-6.78761 -227.577 33.298
56.6056 -149.423 -49.1838
29.3641 -199.426 -3.64663
2.56428 -150.48 -47.9052
125.828 -168.776 19.9823
145.036 -173.977 59.4605
69.0463 -104.498 -75.2826
95.139 -128.783 -43.8852
161.95 -63.714 9.17268
135.641 -95.6854 -20.2943
137.487 -48.0102 -32.6499
162.009 -129.29 85.4865
179.692 -5.36653 42.3094
174.843 -60.6686 65.0104
183.785 -59.2781 112.933
190.217 -7.93688 133.165
73.6441 -31.9174 253.027
122.711 -0.256563 239.07
77.0227 24.8174 264.863
-65.8814 -166.283 150.452
-41.2995 -134.406 198.77
-82.4062 -103.163 181.888
-37.7269 -130.915 -42.4351
-71.0597 -171.143 17.4197
-77.1609 -97.6688 -22.4762
105.485 -18.3888 -68.2482
64.9044 -42.4909 -91.8588
64.8651 4.98343 -93.3764
191.506 48.4436 120.467
188.806 45.1183 62.6382
186.147 92.735 87.6797
-90.2025 148.699 104.077
-83.8557 152.137 130.081
-66.7675 166.778 113.328
-107.92 112.042 157.821
-97.9467 133.048 144.916
-115.92 112.875 132.639
-45.2533 167.883 164.998
-72.8506 152.204 156.452
-59.9492 148.777 180.752
-107.605 10.96 195.102
-111.16 33.6805 190.324
-121.227 16.9784 173.567
-82.2957 64.7137 219.059
-97.6196 50.4197 205.966
-80.7445 37.1904 227.232
-123.801 70.9922 155.658
-112.863 63.025 180.771
-113.846 86.0775 171.024
15.6994 117.825 242.576
-10.0623 109.458 241.758
7.41613 90.352 253.419
-42.7174 138.954 206.699
-27.1957 126.101 225.421
-16.2821 150.962 210.157
-40.7778 65.0867 246.731
-35.4621 96.6975 237.466
-58.6751 82.0999 230.75
-95.7029 105.312 184.731
-78.5492 95.1849 209.694
-70.8474 124.058 197.143
-41.8069 181.07 115.299
-50.591 176.34 85.7193
-18.3042 179.352 168.119
-30.8709 182.708 143.368
2.97336 195.206 86.2215
-13.4801 191.152 115.68
14.4911 197.783 114.182
46.9681 117.324 243.093
30.5978 137.713 229.254
62.3949 168.921 193.927
46.945 155.856 212.617
78.1289 149.573 210.889
13.4812 156.713 212.637
-1.61461 169.802 194.255
110.951 176.713 86.1343
102.119 181.349 115.044
124.96 166.927 113.05
46.6476 197.794 114.098
74.5788 191.182 115.522
57.9185 195.267 86.6297
106.067 167.358 164.773
91.7156 182.698 142.872
79.4589 178.948 167.371
12.8415 185.183 172.222
47.3437 184.532 171.61
30.326 192.198 143.227
-40.1362 179.982 57.4601
-63.2127 165.646 60.323
13.3667 193.048 58.7579
-14.5733 189.529 57.0157
-41.4889 160.038 11.9731
-28.7149 177.395 32.8613
-16.3969 170.354 9.92159
124.059 164.802 60.695
100.895 178.941 58.7154
76.5686 169.811 9.71745
88.9425 176.264 32.8011
102.439 159.04 11.7585
74.5615 188.734 57.8472
47.0979 193.149 58.8989
15.9187 105.652 -57.0517
30.6218 125.423 -45.1608
45.6553 105.352 -57.3536
-0.434714 157.533 -14.2469
14.1631 143.327 -30.8721
-13.8121 138.662 -29.4
74.533 138.284 -29.4793
46.7445 143.296 -30.9424
60.9803 157.397 -14.3055
30.3999 187.166 30.8645
46.8513 175.212 6.87405
13.8412 175.21 6.9697
-76.9899 148.872 44.0714
-86.3177 147.143 72.8739
-53.9637 140.368 -3.26013
-66.3533 146.396 18.8013
-105.926 109.404 44.5484
-88.2988 128.839 29.4853
-95.2092 108.05 17.8516
9.49833 77.1011 -70.5331
-7.70897 98.5303 -57.1633
-48.2031 77.2795 -47.8203
-29.4926 88.8551 -54.1806
-30.3769 57.6077 -63.8167
-23.4961 115.401 -43.3494
-37.523 128.503 -26.9794
-105.346 11.0109 2.00392
-96.7603 29.7691 -13.3672
-93.5908 -0.561056 -20.081
-98.9805 82.2687 5.77936
-98.3011 58.5104 -3.23145
-110.92 65.9982 22.3976
-68.4505 30.554 -45.8825
-84.2267 45.5515 -26.2681
-69.2944 60.6028 -37.1511
-61.9477 116.271 -18.6597
-66.8652 90.1252 -29.6081
-82.92 100.298 -7.27011
-104.767 131.681 90.0475
-120.03 92.2324 61.923
-114.419 112.078 75.4024
-117.845 113.721 105.378
-126.345 95.1183 119.171
-111.492 -13.0234 13.0932
-116.109 16.3597 27.164
-131.745 16.1673 76.2111
-126.746 19.4293 53.3257
-128.883 -6.81932 70.2901
-120.612 44.9493 38.8182
-121.987 67.4346 48.1848
-128.68 15.2996 151.407
-127.473 -8.0042 154.823
-129.16 73.1967 133.192
-129.116 48.091 143.202
-139.038 -14.1918 116.975
-133.984 10.4515 128.14
-133.373 9.5303 106.653
-128.62 72.2844 75.3453
-130.873 47.5853 88.8456
-129.699 75.048 105.748
141.587 151.254 131.179
147.375 147.452 102.721
120.807 148.122 181.647
132.377 151.79 157.331
174.945 110.827 133.37
156.286 131.869 146.163
166.401 111.119 158.222
56.2421 90.7893 254.506
73.3789 108.935 243.651
118.775 83.7182 232.645
97.6072 97.6083 240.176
101.817 67.3048 247.7
89.8115 125.1 227.628
104.615 137.981 208.323
179.169 20.5101 173.443
170.422 35.6849 190.529
165.61 12.017 196.042
172.682 84.4454 171.15
173.567 60.8847 181.482
184.53 68.0377 155.242
141.233 37.203 227.956
158.154 49.986 206.832
142.194 64.9578 220.259
131.074 123.929 198.952
137.798 95.7799 211.542
154.245 105.254 185.868
6.56785 60.1274 264.206
31.607 72.2462 261.761
-40.3423 36.2588 253.835
-17.3334 47.625 260.946
29.9431 19.1744 272.663
6.42659 31.2932 270.902
6.98417 10.1565 271.63
-103.734 -17.3313 189.903
-92.588 -1.26795 210.255
-56.5889 -31.6259 232.159
-74.9312 -16.2995 222.96
-69.6688 -51.1855 213.044
-78.6415 12.4722 227.86
-63.4241 23.6911 241.703
30.5967 -92.9772 235.956
8.93652 -79.8756 238.326
7.94565 -110.778 229.545
8.0061 -14.9075 264.991
8.74402 -42.4219 255.194
29.2377 -26.1274 262.091
-31.6274 -89.6763 226.457
-13.4102 -65.3828 238.829
-33.0166 -50.2854 238.316
-39.5503 11.1235 254.621
-36.7048 -16.185 249.277
-14.0078 -1.77079 263.305
-128.208 -31.9509 143.562
-117.897 -30.0542 165.303
-133.775 -29.5468 111.596
-134.426 -30.5819 123.712
-105.211 -88.0858 146.423
-123.335 -56.6405 134.457
-111.415 -88.3112 123.691
-102.996 -37.8854 -0.538244
-111.005 -37.9391 20.6083
-104.723 -102.49 49.2897
-108.448 -66.5779 30.087
-98.9294 -92.8382 19.7056
-118.417 -33.6234 50.7144
-127.518 -30.6176 84.3568
-78.0318 -189.955 92.9741
-90.4392 -172.902 77.9225
-80.5466 -190.24 66.3064
-104.947 -127.712 105.215
-98.6343 -151.127 90.4504
-93.4679 -146.926 117.915
-92.7553 -155.313 47.3866
-99.0684 -153.459 67.2566
-104.019 -134.954 62.3478
-121.121 -64.1308 95.5653
-109.998 -106.864 74.5914
-110.929 -98.1227 95.0596
-81.135 -17.3808 -36.5953
-92.7223 -30.8757 -20.8259
-47.3996 7.73027 -64.0803
-65.111 -3.27037 -51.2853
-64.2287 -66.6283 -49.6509
-64.2185 -34.0376 -53.3537
-47.8478 -47.3555 -65.6626
30.5858 55.86 -81.7931
12.0339 44.1111 -85.0569
12.0828 -8.15077 -104.755
12.7287 13.5768 -98.2642
29.1368 0.746174 -104.21
-7.31497 33.0466 -82.9777
-25.445 21.7698 -76.7136
9.75039 -113.048 -77.1729
8.32431 -88.4613 -85.8855
30.4997 -99.706 -83.6
-26.7341 -63.8924 -76.9676
-9.32949 -76.3273 -83.5632
-29.7249 -93.566 -70.3503
28.8669 -34.8319 -104.777
9.77873 -51.9939 -96.2538
12.1274 -27.6948 -104.914
-26.4345 -8.61477 -86.6527
-7.35139 -18.0749 -99.4035
-27.0474 -29.376 -85.9599
68.8133 97.8914 -57.9897
52.5211 77.5974 -70.8735
98.646 127.983 -27.0933
[...]
POINT_DATA 642
SCALARS Mean_Curvature double 1
LOOKUP_TABLE default
0.0088009
0.0102137
0.0170223
0.0268531
0.00822422
0.00839039
0.0118604
0.00382214
0.0151906
0.00909171
0.0149327
0.000821561
0.0201251
0.0115161
0.0127517
0.0114328
0.0163966
0.0111554
0.0118842
0.00700354
0.00854733
0.0104333
0.0105823
0.0175095
-0.00922932
0.014399
-0.00399633
0.0112797
0.038357
0.0123741
0.0106842
0.00986972
0.0150535
-0.00593993
0.0180809
0.019389
-0.0022209
0.0197955
0.0142396
0.00977705
-0.00806299
0.0134751
0.0146208
0.0118414
0.0119834
0.0129513
0.0125076
0.0093807
0.0122284
0.0102612
0.00792532
0.0122742
0.00911286
0.0124689
0.0134392
0.0107093
0.0131409
0.0130273
0.0135832
0.0121323
0.0116101
0.0144831
0.0133888
0.00775966
0.0133703
0.0134197
0.00876701
0.00812277
0.0139086
0.00534638
0.00974616
0.00483757
0.0162467
0.00130241
0.0111871
-7.71868e-05
0.0205433
0.0122822
0.0104456
0.010681
0.0129313
0.0100112
0.00992888
0.0127086
0.0187111
0.0126824
0.00675649
0.00877858
0.00799207
0.00864816
0.0129715
0.022035
0.0105685
0.00857576
-0.00454889
0.00809785
0.0220563
0.022839
0.0139333
0.00632391
0.0207308
0.0129757
0.0156937
0.0107098
-0.00230979
0.0137296
0.0116962
0.0110298
0.0137765
0.00397979
0.00845546
0.00775367
0.00445982
0.00517205
0.014523
0.00763818
0.0145481
0.00112383
0.00419123
0.0113848
0.0139136
0.014728
0.0199787
0.000458418
0.0197787
0.00975574
0.0213359
0.0175137
0.0180328
0.0157511
0.017983
0.0185734
0.0154535
0.00632324
0.0134801
0.0164431
0.0308259
0.0184223
0.0108699
0.0133356
0.0112089
0.0052004
0.0136625
0.0012633
-0.00501373
0.0116423
0.0102019
0.00870855
0.0108011
0.0145269
0.00381701
0.0101715
0.0156455
0.0102845
0.017051
0.0110076
0.0116412
0.00884683
0.0123614
0.00224552
0.00942391
0.0175318
0.0121839
0.0131636
0.00974969
0.0131122
0.0124826
0.0138392
0.011829
0.0107076
0.0116057
0.0141161
0.0107297
0.0180222
0.0105492
0.00813644
0.014889
0.0124068
0.00803106
0.0161093
0.0133764
0.0121595
0.00822219
0.0116217
0.0112032
0.0128205
0.00839906
0.0088602
0.00893229
0.0123199
0.0106437
0.0117799
0.00988729
0.00797725
0.0137257
0.0142331
0.0072056
0.00716603
0.0137224
0.0120744
0.0078515
0.0128155
0.0103142
0.0114278
0.0128566
0.0144392
0.0109866
0.011437
0.00863008
0.0137576
0.00734424
0.00755877
0.0114976
0.0149692
0.013469
0.0169241
0.0142932
0.00397376
0.0154964
0.0118217
0.0067516
0.01585
0.0117756
0.0134487
0.0122758
0.0113828
0.0132431
0.0120064
0.0114309
0.0115594
0.012705
0.00790762
0.00851237
0.00703652
0.0085877
0.0128683
0.0108515
0.0127046
0.0121307
0.0112721
0.0131945
0.0120829
0.0136822
0.0128698
0.0114521
0.00674717
0.0123474
0.0129934
0.00895218
0.0126614
0.011815
0.00992936
0.00998133
0.00808114
0.012016
0.00527355
0.0131881
0.0125023
0.00291843
0.0125119
0.00836256
0.0127324
0.00732459
0.00763111
0.0127637
0.00898918
0.00766148
0.0129807
0.0126065
0.0127868
0.0137766
0.0125408
0.0109347
0.0134872
0.0197184
0.0116589
0.00302812
0.0102179
0.0107332
0.00769245
0.00661532
0.0115153
0.00686977
0.0130731
0.0150696
0.0102086
0.0454234
0.00939043
-0.000876735
0.0148953
0.00369771
0.00825244
0.0108004
0.00582458
0.012401
0.0119012
0.0145944
0.0122738
0.0118402
0.0107659
0.0138575
0.00945621
0.0143288
0.00778892
0.0127412
0.0125583
0.0107084
0.010214
0.0105823
0.0111011
0.0129033
0.013789
0.0142351
0.0114083
0.00975425
0.0131497
0.0106038
0.0114255
0.0112505
0.00611959
0.0116268
0.00824635
0.0131995
0.015683
0.0224008
0.00475964
0.00890601
0.0089376
0.0076407
0.00830617
0.0117218
0.016609
0.00649719
-6.64676e-06
0.0154563
0.0115304
0.0106649
0.00700981
0.0171109
-0.000757047
0.00934425
0.013358
0.00848136
0.0121292
0.0125162
0.0106517
0.00820952
0.0240721
0.00404707
0.0116871
0.00106183
0.00834696
0.00729896
0.00245707
0.00705221
0.00740181
0.00128547
0.00306543
0.0130846
0.0140439
0.0198708
0.0109952
0.00903546
0.00609933
0.011687
0.0181023
0.0184156
0.00364602
0.0111864
-0.0015242
0.00989755
0.0108269
-0.000225729
0.00416368
0.00983444
0.00719106
0.00300687
0.00968918
0.00866882
0.0245638
0.0137866
0.0191769
0.0073031
0.00325456
0.017562
0.0156824
0.011177
0.00153974
0.00867736
0.0160985
0.0209967
0.0114528
0.0254775
0.0171818
0.0278278
0.0137705
0.0106438
0.0112519
0.0125263
0.0128477
0.00943139
0.0114265
0.00881529
0.00981797
0.0121131
0.012954
0.012895
0.00982933
0.0132616
0.0124763
0.00519897
0.0105302
0.00392964
0.0101893
0.012542
0.0090958
0.00486477
0.00879285
0.0105837
0.013425
0.0136959
0.0120214
0.023065
0.0106371
0.0164729
0.00998855
0.00414423
0.00878168
0.0185398
0.0111609
0.00850894
0.00685248
0.00461992
0.00645702
0.0173856
-0.0100116
0.00762213
0.0100041
0.009555
0.0153747
0.00665735
0.0124993
0.0155677
0.00302234
0.00697727
0.01288
0.0150888
0.0129712
0.0131638
0.0121372
0.0138442
0.0082369
0.0116674
0.0225757
0.0167503
0.0173277
0.0124735
0.00799248
0.0238569
0.00603872
-0.00185836
0.0237769
0.0185451
0.0186208
0.00946412
0.0164979
0.0126909
0.0134282
0.0151715
0.0266264
0.0225368
0.00485479
0.0183291
0.0185929
0.019531
0.0151962
0.0181664
0.0178386
0.0184415
0.0180526
0.0129314
0.0167543
0.0160312
0.0168782
0.0175966
0.0184113
0.019172
0.0200151
0.0199035
0.0188175
0.0201828
0.0112892
0.0173796
0.00832739
0.0165447
0.0161788
0.0013852
0.000389275
0.00156025
-0.00175118
0.0173805
0.0103553
0.0113967
0.0158727
0.0192329
0.0258562
0.0137047
0.0190618
0.00479072
0.0249941
-0.00473323
0.0194411
0.0180599
0.0142603
0.016629
0.0154425
0.0131554
0.00366361
0.00448431
0.0096359
0.00845596
0.00955679
0.011848
0.00991481
0.00769898
0.00987892
0.0128036
0.00174702
0.00974122
0.00556129
0.0282291
0.00601644
0.0107486
0.00679855
0.0143153
0.00982976
0.00549214
0.0152096
-0.000608364
0.000111741
0.011857
0.00340916
0.0126469
0.00431794
0.00627073
0.0087234
0.0112262
0.0178027
0.018526
0.00771804
0.012974
0.0018197
0.000579611
0.00992353
-0.000422535
0.00829655
0.00973219
0.0109271
0.0181156
0.0149278
0.00892373
0.00936278
0.00999961
0.018507
0.0175539
0.00865269
0.0152866
0.00833743
0.0130838
0.00668728
0.0180009
0.0107043
0.015544
0.00654049
0.00713285
0.0117789
0.0121849
0.0119315
0.00506183
0.000963549
0.00859958
0.0167358
0.000190066
-0.00696224
0.0167838
0.00610392
0.0132034
0.0113201
0.0161257
-2.69855e-05
0.0113964
0.0148164
0.0145216
0.018386
0.00962642
0.0236607
0.0192144
0.0172358
0.00685152
0.0151857
0.0110878
0.0109657
0.00538056
-0.00185231
0.00175405
0.0104335
0.0109424
0.00656096
0.00471948
0.00378763
-3.95437e-05
0.0195155
0.0241721
0.00955516
0.00710008
0.000393055
0.00750395
0.00344788
0.00669392
0.0140895
0.0204313
0.0119395
0.0251755
0.0133059
0.0141401
0.000239862
0.0104785
0.0124682
0.0188706
0.00556339
0.00684035
0.00545384
0.0135199
0.0156637
0.0105784
0.016643
0.00780939
0.0147994
0.0171475
0.0054018
0.0180722
0.00980119
SCALARS CoVolArea double 1
LOOKUP_TABLE default
579.785
572.093
450.98
348.996
541.737
560.396
371.927
558.913
464.408
467.377
439.706
476.193
582.734
737.434
799.765
820.522
831.829
723.961
716.552
862.328
677.651
556.685
733.262
614.458
885.705
554.36
800.61
811.594
331.339
642.754
633.636
773.397
638.373
852.794
622.168
570.146
883.723
627.681
692.76
663.273
1049.27
596.268
666.54
817.837
770.19
593.265
748.054
676.56
756.724
842.697
794.723
884.298
842.735
773.3
830.053
820.718
884.833
749.269
803.274
691.089
711.63
805.092
657.333
788.959
658.718
695.173
735.685
752.2
656.045
726.254
671.226
684.025
622.628
798.89
680.531
846.658
463.803
798.474
751.997
727.459
783.924
598.22
777.573
574.096
616.653
694.925
832.897
675.984
813.637
774.361
672.819
667.514
716.259
660.084
1191.13
640.105
556.46
459.458
692.775
660.596
562.545
584.255
530.992
633.437
729.413
661.625
700.267
691.76
682.807
706.103
661.403
698.617
636.819
848.5
632.603
805.419
650.227
838.409
803.276
767.046
646.453
755.774
685.268
769.355
597.335
772.894
648.716
598.351
739.869
581.015
573.215
735.383
738.544
885.31
805.482
699
349.144
482.336
804.817
557.518
725.065
678.029
687.847
803.309
965.21
632.663
599.435
834.742
635.748
644.634
837.278
839.191
704.756
864.621
670.626
791.067
733.146
667.637
620.545
720.847
652.149
617.435
695.551
739.42
746.714
727.705
713.976
621.755
758.609
767.366
838.452
565.475
652.708
577.123
778.791
685.329
614.46
572.843
669.965
670.04
713.417
757.332
737.471
831.074
758.502
742.648
782.236
786.352
836.923
855.929
899.06
922.31
836.995
769.832
813.575
783.175
821.943
855.59
882.955
710.432
799.883
842.957
801.021
772.813
773.375
798.878
731.231
792.864
743.484
876.037
829.321
812.193
749.516
764.204
832.235
936.655
956.716
1010.48
730.802
714.323
877.209
760.325
685.296
688.804
756.714
693.591
748.736
760.546
723.401
697.618
781.023
874.641
677.87
712.943
665.485
755.842
703.352
644.201
649.447
701.105
750.557
927.461
865.359
876.082
732.97
728.572
721.486
678.594
682.199
685.245
687.8
704.852
667.001
719.672
649.238
788.181
613.402
693.188
673.253
689.005
623.539
659.769
650.487
639.035
740.382
658.246
729.946
752.37
733.922
725.087
700.947
674.221
670.223
620.109
577.91
644.885
764.463
759.602
699.644
748.766
672.839
647.819
661.935
567.905
585.268
707.479
358
674.58
790.692
704.63
915.278
705.938
768.635
765.459
821.467
748.251
654.571
717.804
742.156
705.052
712.861
795.05
705.487
736.796
731.075
816.714
586.578
613.234
560.116
721.968
648.548
565.287
603.641
660.122
787.015
886.919
882.434
869.506
773.849
751.354
715.645
734.68
529.3
612.38
532.057
673.505
641.922
847.206
708.028
866.457
582.492
626.675
720.509
823.027
659.324
606.475
770.151
638.495
720.373
834.238
897.023
702.711
815.924
669.366
553.72
639.145
508.467
385.364
747.421
647.586
890.118
566.279
737.731
955.933
937.856
849.786
991.217
920.686
561.414
547.277
511.241
810.486
607.414
727.859
457.327
456.294
580.227
948.455
817.025
826.505
689.292
590.212
841.264
744.843
625.331
719.735
768.361
679.464
702.773
397.338
540.21
400.416
752.574
856.565
496.493
652.979
582.334
783.489
654.555
568.106
482.532
629.798
419.263
655.72
491.064
683.023
646.924
676.231
698.147
623.062
709.02
623.02
676.841
716.609
705.499
660.858
656.842
623.838
675.763
720.393
660.29
663.743
639.413
671.071
616.99
697.425
675.44
644.448
659.366
745.384
715.717
730.039
447.657
633.893
547.411
772.718
779.507
732.866
573.409
664.838
740.116
663.057
917.739
738.305
763.183
883.946
845.669
633.234
749.096
602.82
790.264
693.811
634.381
796.275
757.5
661.986
693.778
621.675
665.411
795.1
733.329
921.498
698.707
541.348
671.182
684.415
772.564
760.465
759.352
806.788
833.494
536.387
558.343
573.583
635.595
636.085
669.068
704.279
620.484
709.145
673.421
814.893
554.813
603.169
615.327
781.814
731.177
767.755
603.25
508.013
898.937
687.662
539.507
607.966
611.699
567.611
662.271
597.321
581.372
516.632
727.988
927.11
515.494
853.241
543.649
756.853
971.729
818.115
803.02
999.942
748.261
923.532
810.029
794.984
478.835
393.086
721.467
492.691
567.08
428.361
817.219
463.137
508.137
568.968
506.479
552.844
702.481
911.407
591.189
595.805
619.001
915.665
578.778
768.052
657.807
575.376
590.065
1046.23
884.735
1011.63
410.824
853.006
444.075
606.347
730.066
659.352
748.188
681.642
884.027
675.8
782.389
1069.09
700.575
626.891
704.683
682.001
571.891
530.55
502.91
960.866
768.763
810.219
816.222
886.322
832.409
800.397
677.303
599.927
601.151
540.249
653.294
814.16
748.4
584.228
614.597
712.55
701.14
841.024
713.65
760.774
594.897
718.959
593.033
692.408
809.509
744.616
703.528
674.312
794.067
804.265
856.255
715.688
797.415
911.307
781.034
978.839
780.618
852.904
569.158
866.466
764.35
575.475
605.215
525.404
685.426
439.414
496.185
673.927
616.115
582.288
567.222
683.353
913.95
1030.07
1029.27
938.312
728.628
783.74
739.374
776.135
852.696
612.003
440.037
632.997
640.868
807.471
692.222
840.625
733.734
557.858
415.652
719.833
528.659
715.194
621.959
828.883
661.37
562.583
562.617
703.2
648.979
699.677
642.319
693.66
760.334
620.904
696.349
653.189
591.335
806.31
642.05
673.908
SCALARS SignedDistance double 1
LOOKUP_TABLE default
57.0815
57.18
58.7265
60.2597
67.6131
58.2303
62.8385
65.5466
73.5207
70.4901
72.4473
69.1401
63.0752
60.6665
52.2005
52.4506
53.1058
58.8131
58.6468
69.2051
68.159
74.0531
60.521
62.7454
73.773
66.0986
76.5848
70.3786
62.648
68.8078
69.2823
71.1049
71.0328
73.0307
63.1272
63.485
60.313
63.5088
66.4206
70.2352
76.8943
74.1292
57.8066
55.3683
53.7115
65.8138
61.303
65.1371
54.2344
57.1974
59.3637
53.5153
53.7325
53.6585
51.0884
53.7469
53.605
54.3541
54.683
56.5936
56.7569
54.7502
62.5417
59.1982
62.4301
61.6772
61.4645
67.0281
64.4279
72.5235
68.7219
72.3472
65.6771
76.2093
71.3346
70.6919
68.456
56.202
59.034
59.4395
56.3902
66.8825
61.2291
66.3043
62.7888
60.4237
69.7641
66.8691
69.7324
67.9958
68.3502
74.6117
70.1031
74.4265
77.2062
66.5204
75.4817
68.201
71.0348
71.8096
64.653
66.474
64.2638
67.8418
68.8635
64.4958
66.5464
61.4741
61.8252
73.3413
68.6799
72.8624
68.6799
65.7207
60.6661
70.7726
71.2618
75.0876
67.1208
65.4346
68.291
52.5433
51.6803
68.9291
62.7785
51.5655
50.6535
58.6391
54.1757
60.765
57.1543
54.3088
62.3647
64.963
62.5935
76.9647
73.7559
65.3033
66.1338
73.5836
70.9649
73.4412
72.2706
76.4751
77.309
74.6579
70.3735
67.9905
66.8794
64.0884
65.9112
65.3988
70.4724
65.3041
71.106
69.8748
72.1074
68.8472
67.049
70.579
70.3237
65.0474
56.4568
54.7815
55.4278
57.4712
55.9182
59.5999
52.6275
54.2404
53.6827
67.8317
65.0807
68.2854
61.4683
63.2106
63.4615
65.8322
63.9817
62.1237
55.9572
57.0929
59.4252
54.3264
55.7715
52.7791
60.0721
58.3427
59.3093
58.0466
58.7098
55.8481
54.4096
55.3944
51.1611
51.9635
54.643
53.8956
53.3725
56.0641
54.4191
51.4595
52.9073
52.7412
52.7269
51.0876
55.3552
54.4096
56.4442
53.3693
53.9166
54.5989
52.9384
52.095
51.3557
50.1568
50.7404
53.2344
54.735
56.7469
54.9762
53.4909
57.3763
55.4734
56.4503
56.8687
55.3578
56.6993
55.9076
57.5422
54.1544
54.9592
65.048
63.0456
65.1946
58.4361
60.8586
60.2768
60.3003
60.8957
58.4079
54.745
56.6826
56.6213
58.6956
59.0569
59.4914
58.5839
65.0172
61.6526
64.9301
65.7459
65.4356
67.9322
66.7735
68.2522
62.8949
61.1471
73.2602
71.7893
71.322
68.4974
70.4506
70.8723
70.9802
69.2945
68.2959
62.9364
66.8295
65.6115
59.6058
65.9456
62.3459
61.0691
66.3995
73.6237
74.2782
72.2528
72.6938
75.1765
71.9978
70.1094
69.9455
67.8096
69.3628
69.3064
73.799
70.4267
73.0539
68.806
71.1476
69.9365
56.8379
58.1921
53.6287
54.7127
59.7348
57.0227
58.4574
58.3568
56.0888
59.4385
57.4573
59.6264
54.3439
53.4747
68.2625
67.0359
68.5998
61.8936
64.4263
65.3065
63.6263
64.0743
61.0953
55.8655
59.0943
59.011
59.0193
59.1843
62.3761
60.6539
62.5903
61.0682
64.4657
69.5659
68.3644
68.8807
68.465
71.3686
66.3975
65.0237
72.0878
72.188
68.1679
67.1044
68.3624
68.0158
71.4863
71.4846
70.5252
65.6368
67.3004
66.2211
68.976
68.6944
73.403
72.0628
73.8432
70.577
75.9656
73.3143
74.607
78.5936
75.8847
72.4563
76.9332
75.867
63.4035
65.9973
61.9766
73.4499
68.6153
67.7824
71.8344
69.7963
75.2088
76.9928
80.2945
78.8519
71.4394
71.9723
72.3076
71.7665
69.6838
70.7565
70.6087
67.0457
66.9387
63.9932
65.1702
64.0909
68.5563
70.5986
63.1573
68.2257
65.93
68.8698
69.005
66.122
64.3535
67.8558
64.0493
68.7596
65.0831
69.0176
64.7623
65.865
61.1314
62.8252
68.8866
66.2276
67.4917
58.7527
58.6386
65.5246
61.7866
65.3148
58.64
59.5175
72.668
72.5106
73.9643
68.8688
70.888
72.5048
70.8386
70.2342
69.5689
63.0987
66.2559
67.1023
65.7307
65.2515
60.2459
66.7848
66.5451
67.7634
60.9348
65.1782
65.6319
70.5966
73.2073
71.0643
72.2796
75.4428
71.639
76.3352
76.8386
71.2415
66.5297
65.7371
68.1509
66.3273
65.9479
66.0512
70.6153
66.6727
68.245
66.8298
67.4401
65.0871
55.825
55.1393
57.1332
55.6531
55.5474
53.1161
54.5467
66.5027
69.3656
62.1822
67.897
68.3164
66.9539
61.8835
54.646
53.7763
57.9612
51.8409
51.9206
56.9091
60.331
54.0514
56.4511
56.7323
55.9578
50.9676
54.6469
59.3953
53.7593
51.9932
63.2112
56.5202
59.4725
56.5955
52.4916
57.7449
53.9204
59.779
50.6178
53.9692
62.1551
62.392
62.1446
64.5663
68.6045
69.842
70.5431
68.6229
64.9787
54.6896
59.4216
59.4997
67.0006
66.3917
71.1328
68.6996
75.0901
74.5683
77.484
63.158
62.7513
67.9447
65.2754
68.0689
63.8789
71.6511
74.5268
73.8848
73.5793
72.1662
72.3993
73.22
71.3803
72.1098
70.7084
74.169
68.8556
73.3619
72.15
74.1657
73.7172
70.2049
71.7568
74.305
75.7003
74.9851
77.129
75.6092
76.205
78.8967
70.4253
70.6226
77.7161
74.3711
72.1447
71.0874
72.2895
80.0015
76.3377
78.5282
72.3288
69.9835
70.9611
68.7547
67.5442
68.6421
64.307
66.3897
68.7748
69.0041
59.4971
64.7631
61.9272
60.3197
61.8761
67.2476
65.781
66.694
63.3044
65.4905
64.0157
66.5199
66.7366
65.6476
68.2837
66.6714
66.5663
67.2396
70.0879
69.2698
74.4688
73.9194
72.5301
65.2419
66.9764
65.8396
62.3769
71.4619
64.0454
63.98
65.9169
62.3078
74.8869
69.9088
64.1411
65.9938
72.9866
69.1394
70.8843
71.7922
72.2937
73.1201
73.8307
67.2845
72.4805
70.6634
72.4614
72.7707
73.1958
68.3847
65.1611
68.8843
69.4817
69.2596
67.4644
71.5312
69.3624
65.3673
64.902
70.2738
66.6242
69.8798
69.1622
71.5077
71.3821
69.032
69.3415
75.0374
71.0989
71.9645
74.7867
73.2187
59.464
64.9824
61.3096
62.5473
67.1375
70.974
70.4018
69.8432
