# vtk DataFile Version 4.2
vtk output
ASCII
DATASET POLYDATA
POINTS 642 double
-78.996 170.717 86.6006
138.232 170.861 85.4605
-75.7576 -212.271 80.5937
135.731 -211.796 80.7761
30.6643 -123.318 238.398
31.5528 103.69 262.2
30.5345 -125.563 -85.4656
31.1052 90.9094 -79.1018
175.046 -13.6102 -9.85052
185.19 -4.07444 184.49
-115.422 -15.7567 -12.5056
-127.299 -5.53739 182.689
-133.649 95.5335 148.5
-69.3997 52.8954 248.175
-35.2804 169.443 194.469
96.6927 168.51 194.483
30.5848 209.694 86.4631
92.7715 158.68 -17.0924
-31.9892 159.256 -17.0742
-57.6886 47.5156 -66.7984
-121.6 91.9502 27.6248
-148.568 -12.7948 96.6012
129.942 53.84 249.082
193.15 93.9842 148.085
-56.95 -75.5067 229.15
29.3692 -4.17085 282.706
-106.676 -134.562 33.5221
-112.749 -123.843 138.643
29.1867 -18.2906 -120.315
-56.047 -83.7452 -71.5327
182.73 92.7319 28.3403
118.507 49.9691 -66.5533
173.807 -120.495 139.952
117.705 -75.6229 229.562
87.3123 -201.676 176.213
-27.5524 -205.74 177.679
29.8438 -248.305 87.6694
-32.4019 -202.031 -8.72397
89.779 -199.758 -6.67205
113.653 -83.7669 -69.3133
160.612 -127.183 33.3067
206.855 -12.4993 89.4691
-113.767 139.241 120.076
-93.508 138.22 174.821
-62.5886 178.188 142.14
-104.864 24.0906 220.71
-108.63 80.3977 203.146
-134.404 45.2063 170.719
-2.98809 142.403 235.993
-57.3887 117.318 228.638
-20.4222 82.2964 262.267
-5.2958 200.39 145.587
-28.5387 198.087 84.6556
64.9198 141.541 236.991
29.9012 180.284 201.388
89.6396 198.134 85.4728
66.3842 200.462 145.068
122.5 178.131 142.239
-4.90383 194.781 28.6096
-58.6995 173.804 31.583
119.835 172.666 31.6377
65.0152 194.546 28.4678
-1.66668 130.897 -54.427
30.5146 167.972 -22.2615
62.6115 130.639 -54.6375
-84.8126 132.34 0.122164
-107.525 135.951 55.0866
-14.9452 72.4851 -80.5481
-50.4802 109.341 -49.125
-121.478 42.5292 6.08667
-95.212 76.5808 -25.1622
-91.9249 17.0106 -42.8625
-136.839 99.4006 89.7792
-133.544 -9.33712 36.6045
-141.679 46.6091 57.8678
-144.149 48.9207 120.461
-148.698 -13.3764 135.268
152.931 137.837 175.796
171.944 137.189 120.628
83.0061 83.9417 263.583
118.712 117.348 230.982
194.898 45.6166 170.313
168.016 79.5872 203.999
164.633 24.7802 221.539
-19.1696 22.6539 277.728
30.9807 45.4007 282.061
-97.8414 -36.1625 212.158
-67.9482 -3.56063 249.514
30.0258 -61.6911 263.143
-16.1639 -34.8542 266.487
-16.5759 -105.945 240.92
-140.283 -61.3647 117.422
-126.425 -60.8521 161.147
-114.73 -67.254 1.62463
-127.247 -71.1256 60.344
-96.5792 -177.487 108.088
-120.719 -136.006 79.7881
-100.523 -178.238 52.0605
-55.5399 -19.1645 -81.6276
-89.3264 -50.8755 -44.9152
29.9411 30.0216 -108.204
-10.9009 6.45156 -106.601
-14.5757 -108.205 -86.6232
-11.8433 -45.0128 -105.617
29.6688 -70.0278 -104.051
111.528 109.009 -49.3025
76.7669 73.4511 -81.0646
168.538 135.442 53.3777
146.104 131.914 0.158521
151.054 20.4611 -40.9566
155.383 76.6691 -25.1291
181.903 42.1355 6.16384
154.179 -176.494 104.731
135.031 -167.297 158.298
114.844 -213.737 131.149
156.737 -34.9074 213.399
152.798 -106.228 189.269
181.248 -64.601 159.97
58.9015 -169.147 207.832
107.878 -138.706 209.488
77.5852 -106.168 240.856
61.4274 -239.187 137.653
90.7034 -240.159 81.7525
0.901457 -173.057 205.69
27.132 -214.118 184.799
-29.2676 -240.25 84.0983
-4.81578 -243.093 138.695
-55.6766 -217.482 134.191
66.5829 -235.806 30.0824
117.801 -213.901 34.9105
-59.2725 -216.263 31.7502
-8.20355 -237.028 29.1929
59.2146 -157.896 -57.5063
29.4969 -207.536 -12.5067
0.173305 -158.906 -56.3537
136.126 -174.06 12.4898
157.272 -178.663 56.0024
73.7074 -108.709 -86.2076
102.307 -135.526 -52.1773
174.84 -66.676 3.67274
146.388 -100.36 -27.6602
148.229 -49.7133 -41.9635
175.217 -133.723 84.4034
193.783 -6.9706 38.1001
188.986 -64.2132 61.5923
197.292 -63.4461 114.427
203.533 -9.11713 136.173
77.4279 -35.9943 265.081
129.974 -2.84457 249.571
80.8259 24.8296 276.596
-75.0361 -172.47 157.073
-47.0807 -140.683 208.322
-92.5142 -106.932 189.869
-44.4674 -137.765 -50.7405
-80.059 -176.291 9.8375
-87.7955 -102.254 -29.5789
114.587 -18.2932 -78.9103
70.278 -45.373 -103.603
70.2116 7.92978 -104.892
205.239 49.097 121.178
202.105 46.1299 59.3464
197.55 97.2119 86.8626
-97.879 156.627 104.132
-90.7731 160.125 131.892
-72.7023 175.8 114.165
-116.693 117.63 161.955
-105.894 139.89 147.949
-125.578 118.514 134.846
-49.935 176.147 168.959
-79.1781 159.94 160.037
-65.6028 156.016 185.845
-118.128 9.81596 202.803
-121.794 34.5518 197.147
-132.986 16.9487 179.265
-90.1685 67.5774 227.549
-107.042 52.2373 213.701
-88.8365 38.3553 236.315
-135.533 73.2166 159.89
-123.446 65.0949 187.005
-123.731 89.5527 176.496
14.5312 123.449 251.797
-12.9307 114.401 251.262
5.4806 94.5113 264.024
-47.4164 145.436 213.645
-31.0602 131.897 233.72
-19.3347 158.033 217.013
-45.7941 68.2151 256.867
-40.0026 101.1 246.935
-64.6171 85.974 239.916
-103.774 110.304 190.82
-85.6616 99.5545 217.523
-77.2022 129.971 203.713
-46.2339 190.677 116
-55.5928 185.891 85.273
-21.2942 188.143 171.861
-34.5584 191.928 145.527
1.22277 205.626 85.6674
-16.2577 201.195 116.369
13.34 207.972 115.107
47.8631 123.044 252.29
30.5783 144.352 237.561
64.3501 177.005 199.595
47.9537 163.28 219.709
81.0552 156.868 217.588
12.5613 164.033 219.763
-3.52932 177.798 199.915
116.074 186.194 85.6436
106.693 190.874 115.776
131.357 175.818 113.957
47.8015 207.983 115.028
77.3702 201.222 116.218
59.7189 205.673 86.0055
110.807 175.666 168.733
95.4719 191.894 145.096
82.4401 187.742 171.207
11.9594 194.176 175.967
48.3681 193.61 175.444
30.3592 202.332 145.547
-44.7144 189.429 55.5934
-69.5645 174.451 58.1886
12.4531 203.544 56.7261
-17.0749 199.51 55.1897
-46.3375 168.588 6.58344
-32.5401 186.778 29.0885
-19.4164 179.517 4.57897
130.397 173.674 58.5422
105.5 188.483 56.6926
79.716 179.008 4.42545
92.8736 185.745 29.081
107.275 167.681 6.42609
77.235 198.792 55.9112
48.1279 203.631 56.8493
14.8729 112.076 -67.9204
30.6141 132.588 -55.0846
46.612 111.84 -68.2056
-2.2675 166.172 -21.4491
13.2973 151.378 -39.4907
-16.8396 146.413 -37.692
77.6114 146.076 -37.7363
47.6468 151.356 -39.5504
62.8974 166.04 -21.4858
30.4271 197.263 27.3421
47.8765 184.661 1.32057
12.8869 184.655 1.40718
-84.6317 156.786 40.9863
-94.4281 155.068 70.9486
-59.9885 147.92 -9.69129
-73.1885 154.2 13.9996
-116.427 114.942 40.5602
-97.1596 135.58 25.2644
-105.176 113.46 12.509
7.49487 82.3087 -82.0695
-10.5802 104.162 -68.2208
-55.0281 81.1399 -58.4956
-34.4704 93.532 -65.1226
-36.3335 61.1774 -75.1518
-27.4128 121.695 -53.0666
-42.4701 135.497 -35.2646
-118.118 11.8755 -4.2474
-108.263 31.0727 -20.9538
-104.866 0.0628854 -28.263
-109.884 85.7729 -0.777684
-109.718 60.8449 -10.4369
-123.151 68.5293 16.6145
-77.2355 32.4262 -56.0378
-94.3048 47.7514 -35.0527
-77.9278 63.6238 -46.9044
-69.0097 122.396 -26.5019
-74.9196 94.421 -38.7459
-92.0916 105.201 -14.5476
-113.772 138.775 88.8401
-131.486 96.6217 58.6443
-124.765 117.917 73.0697
-128.002 119.542 105.222
-137.838 99.2115 119.968
-124.989 -13.5992 8.23163
-129.562 16.4911 21.8288
-145.615 16.2871 74.067
-140.297 19.1941 49.2587
-142.933 -8.52341 67.0856
-133.631 46.0312 33.7249
-134.568 69.8497 43.8087
-141.601 15.8257 155.353
-139.562 -9.22942 159.849
-142.152 75.0484 135.074
-142.023 49.1833 145.794
-152.946 -14.9508 116.69
-147.228 11.8343 129.611
-147.523 10.8563 106.026
-141.513 74.618 73.3132
-144.678 48.5498 88.1624
-143.085 76.9859 105.678
149.003 159.314 132.792
155.479 155.426 103.073
126.514 155.431 186.56
138.946 159.527 160.706
184.696 116.662 135.463
164.533 138.815 148.95
175.446 116.766 162.288
57.8288 94.8523 265.013
75.9196 113.956 252.971
125.01 87.3871 241.692
102.109 101.856 249.408
106.905 70.1707 257.8
93.4744 131.076 235.604
109.22 144.619 214.988
191.166 19.9936 179.089
181.495 36.1359 197.314
176.593 10.7365 203.476
182.682 88.2628 176.558
184.159 63.0584 187.574
196.034 70.4937 159.482
149.505 38.3848 236.973
167.711 51.7449 214.485
150.2 67.8036 228.577
137.644 129.838 205.245
145.265 100.081 219.155
162.7 110.236 191.774
4.71594 63.3349 275.137
31.4771 75.6786 272.802
-45.5559 37.7955 264.613
-21.0561 50.2131 271.858
30.0731 18.9934 284.796
4.58961 32.7631 282.499
5.14062 9.0275 283.821
-114.28 -20.329 197.937
-102.29 -3.64014 219.015
-63.9243 -35.5152 242.716
-83.5137 -19.5279 232.683
-78.1755 -55.3887 222.953
-87.1692 11.0882 237.437
-70.524 23.5632 252.043
30.601 -97.4223 248.908
7.04699 -84.5687 251.437
6.28338 -115.939 241.578
6.11794 -18.6304 277.355
6.82053 -47.145 267.526
29.436 -30.1955 274.725
-37.2706 -93.4847 237.744
-16.9521 -69.887 251.221
-38.6214 -54.6962 249.847
-45.3202 9.91486 265.88
-42.4398 -19.5479 260.617
-18.054 -4.33325 275.217
-140.424 -34.9851 148.318
-129.25 -33.1513 171.837
-147.595 -32.8791 109.925
-147.544 -33.9253 125.471
-117.86 -92.6226 151.483
-135.669 -61.2435 138.165
-124.822 -92.9407 126.439
-115.81 -39.9886 -6.51871
-124.754 -39.9822 16.3638
-118.41 -105.34 45.5567
-122.373 -69.5003 26.4817
-111.708 -96.7468 15.1038
-132.579 -36.1639 47.3441
-141.53 -33.5932 81.2433
-87.7551 -196.761 94.8931
-101.592 -178.946 78.6714
-89.9239 -197.137 65.4349
-117.775 -131.979 107.55
-110.52 -156.412 92.3187
-104.86 -152.355 121.667
-105.15 -159.107 42.6657
-111.338 -158.34 65.8929
-116.995 -138.296 58.9842
-135.232 -67.8512 93.4218
-124.937 -109.53 72.7791
-125.484 -101.857 95.7999
-91.5845 -17.4258 -45.8739
-104.172 -32.1667 -28.8829
-55.9114 9.83432 -74.9857
-74.5885 -2.33123 -61.5263
-73.5785 -68.5897 -59.35
-73.8043 -34.7558 -63.3038
-56.3172 -49.0102 -76.3333
30.5851 60.9203 -93.7563
9.54977 49.0071 -96.7701
9.44911 -6.23092 -116.728
10.0072 17.5296 -110.019
29.3804 3.57125 -116.38
-12.1847 37.2109 -94.4958
-32.2248 25.1213 -87.932
7.69475 -118.267 -88.1188
6.36684 -92.1736 -97.8839
30.5284 -103.624 -95.4416
-33.3376 -66.3734 -88.283
-14.0246 -79.4578 -95.4322
-35.8829 -97.0393 -81.0185
29.1783 -37.942 -116.869
7.55556 -55.682 -108.309
9.52167 -29.6367 -116.872
-33.7655 -6.86713 -97.5411
-12.4717 -18.0561 -110.961
-34.2964 -30.8456 -96.975
71.6635 103.623 -68.8976
54.3664 82.7608 -82.4232
103.587 135.027 -35.3381
[...]
POINT_DATA 642
SCALARS Mean_Curvature double 1
LOOKUP_TABLE default
0.00870035
0.00984075
0.0150469
0.0223005
0.00768713
0.00859972
0.0115129
0.00422352
0.0136148
0.00934709
0.0134861
0.00296782
0.015536
0.0100751
0.0116229
0.0106409
0.0146364
0.0104243
0.0109615
0.00647735
0.0084633
0.00985423
0.00936237
0.0143394
-0.00479048
0.0136005
-0.00113348
0.00988586
0.0295266
0.0121911
0.0105087
0.00927035
0.0129701
-0.00255508
0.0159805
0.0170895
0.00174647
0.0173668
0.0135737
0.009897
-0.00642787
0.0117465
0.0133269
0.0108348
0.01108
0.012211
0.0113956
0.00763221
0.011259
0.00978825
0.00768729
0.0114934
0.00843593
0.0112996
0.0122054
0.00972926
0.0121372
0.0119738
0.0123132
0.0112253
0.0107138
0.01294
0.0121035
0.00779883
0.0120511
0.0119967
0.00827615
0.00748591
0.0124117
0.00568256
0.00971747
0.006348
0.0137894
0.00254604
0.0105049
0.00122689
0.0163907
0.0112448
0.010071
0.0105564
0.0118497
0.00986462
0.00923949
0.0118769
0.0157784
0.0113025
0.00668898
0.0085841
0.00697298
0.00833388
0.0119046
0.0183401
0.00905166
0.00854212
-0.00384238
0.00907323
0.019494
0.018999
0.0132587
0.00649056
0.017158
0.0122943
0.0138153
0.0100307
-0.000319995
0.0123081
0.0101209
0.0101674
0.012222
0.00472831
0.0083802
0.00780957
0.00600582
0.00490362
0.0129109
0.00743352
0.013372
0.000916317
0.00416572
0.00997814
0.0124073
0.0130052
0.016944
0.00168132
0.0171316
0.00849383
0.0178575
0.0151333
0.0156466
0.0140567
0.0155415
0.0165815
0.0130883
0.00686456
0.0113337
0.0160142
0.0266285
0.0156039
0.010155
0.0118381
0.0102744
0.00565825
0.01122
0.00184329
-0.003778
0.0102761
0.00833949
0.00813113
0.0103429
0.0133468
0.00418242
0.00883331
0.0143553
0.00912896
0.0154838
0.0101357
0.0114285
0.00855446
0.0114849
0.0036037
0.00757937
0.0138614
0.0109431
0.0117426
0.00949715
0.0117581
0.0113104
0.0123298
0.0110048
0.0100782
0.0106639
0.0129452
0.00963431
0.0155125
0.00988898
0.0078442
0.0128164
0.012612
0.00849919
0.0142363
0.0119505
0.0112227
0.0086471
0.0107591
0.01053
0.0116797
0.00801211
0.0086446
0.00851737
0.0112499
0.0100071
0.0108034
0.00959869
0.00762053
0.0124764
0.0126568
0.00734121
0.0071176
0.0124711
0.011141
0.0078287
0.0117167
0.00990529
0.0106154
0.0119559
0.013037
0.010098
0.0107345
0.00863806
0.0125082
0.00730464
0.00765025
0.0107623
0.0132397
0.0121861
0.0147412
0.0127766
0.00499814
0.0138549
0.0110073
0.00705765
0.0138195
0.0108794
0.0123346
0.0112817
0.010646
0.0121071
0.0110672
0.0107378
0.0106634
0.0114093
0.00800784
0.00862427
0.00692696
0.00887015
0.0117597
0.0102915
0.011502
0.011056
0.0106674
0.0119885
0.0109373
0.0125094
0.0118128
0.0105612
0.00689492
0.0112169
0.0116634
0.00875814
0.0114627
0.0110046
0.00869499
0.00975745
0.00855962
0.0112277
0.00533415
0.0117991
0.011406
0.00344931
0.0110717
0.0069902
0.0116314
0.00726431
0.00814159
0.0109947
0.00801261
0.00727089
0.011774
0.0117522
0.0117952
0.0125741
0.0111297
0.0101036
0.0119471
0.0169192
0.0104283
0.00362116
0.00862277
0.00962055
0.00762638
0.00673507
0.0108964
0.00814007
0.0102941
0.0161272
0.00903367
0.0376028
0.00681278
0.00110163
0.0134561
0.00408521
0.0101104
0.0103455
0.00594612
0.0112452
0.0109155
0.0129167
0.0111083
0.0107977
0.0103711
0.0123965
0.009377
0.0128284
0.00751155
0.011549
0.0113684
0.00966937
0.0102323
0.0100791
0.0105133
0.0115997
0.0121876
0.0126506
0.0104025
0.00897937
0.0118679
0.0102004
0.0107604
0.00997147
0.00611878
0.0104366
0.00791503
0.0115575
0.013709
0.0196033
0.00517302
0.00886438
0.00847555
0.0074626
0.00674825
0.011189
0.0152252
0.00594629
0.00210324
0.0138734
0.0110136
0.00961314
0.00715768
0.0133025
-0.000229715
0.00803318
0.0126682
0.00812037
0.0118065
0.0115043
0.0097774
0.010093
0.0180347
0.00478663
0.00964676
0.00124804
0.00775677
0.00704961
0.00155058
0.00724719
0.00636844
0.00149075
0.00348156
0.0122218
0.0135721
0.0167059
0.00974417
0.00770377
0.00560698
0.012859
0.0149244
0.015109
0.00394767
0.0126924
0.000322937
0.00919564
0.00971133
0.00111978
0.00419822
0.00896637
0.00665239
0.00350856
0.00906887
0.00771739
0.0204328
0.0124464
0.0165868
0.00674718
0.00358498
0.0152966
0.0134204
0.0100523
0.00196098
0.00899012
0.0140402
0.0184925
0.0094818
0.0211162
0.0153944
0.0226767
0.0127359
0.0100221
0.0100847
0.0113759
0.0115421
0.00889778
0.0107697
0.00875984
0.00934705
0.0110371
0.0117205
0.0116523
0.00944815
0.0118594
0.0112981
0.0044985
0.0100491
0.00443705
0.00905421
0.0113855
0.009256
0.00524995
0.0077639
0.0108393
0.0120638
0.012522
0.0114576
0.0192709
0.0108895
0.0142868
0.008848
0.00440248
0.00730431
0.0161309
0.01132
0.0091526
0.00692333
0.0044102
0.00622442
0.0144088
-0.00607501
0.00597886
0.00951474
0.00952671
0.0131859
0.00620877
0.0108394
0.0139317
0.00401716
0.00598609
0.0124141
0.0125132
0.011707
0.0121042
0.0107765
0.012199
0.00708257
0.0106415
0.0188955
0.0143944
0.014822
0.0108287
0.00795051
0.0199184
0.00540847
0.000191556
0.0196471
0.0175551
0.0175293
0.010505
0.0141754
0.0113868
0.0122654
0.0129978
0.022367
0.0197175
0.00523037
0.0159651
0.0159903
0.0165928
0.0136917
0.0159303
0.0155084
0.0159256
0.0156549
0.0112292
0.0146831
0.0146759
0.0148256
0.0154332
0.0158799
0.0164799
0.0170404
0.0168987
0.0162324
0.0172028
0.00973829
0.0152866
0.00790691
0.0146408
0.0149851
0.00125849
0.00144208
0.00340596
-0.00188186
0.016239
0.0094552
0.0106522
0.0143473
0.0152109
0.0194535
0.0119624
0.0154107
0.00788995
0.0229543
-0.00133367
0.0164985
0.0153962
0.0127806
0.0145073
0.0142542
0.0117948
0.00267383
0.00482918
0.00936508
0.00780776
0.00833097
0.0108307
0.00912384
0.00735538
0.00947949
0.0118599
0.00155155
0.00925987
0.00427824
0.0250069
0.00512713
0.0116088
0.00533334
0.0120363
0.00883167
0.00560558
0.0142088
0.000460812
0.00171065
0.0107072
0.00347017
0.011291
0.00504084
0.00705468
0.00725287
0.0108609
0.0152269
0.0157168
0.00836256
0.0111771
0.00379906
0.00266116
0.00837486
0.000204465
0.00774407
0.00957244
0.0104529
0.0159908
0.0135791
0.00858614
0.008764
0.00919637
0.0165253
0.0154069
0.00783557
0.0131076
0.00784859
0.0125975
0.00721094
0.0158233
0.0111725
0.0146516
0.00766437
0.00629312
0.010171
0.011582
0.0109445
0.0038697
0.00294551
0.00795403
0.0141539
0.00192346
-0.00494161
0.0139876
0.00514054
0.0116946
0.00986218
0.0139713
0.00146562
0.00973574
0.0131465
0.0127777
0.0155566
0.0116621
0.0197444
0.0163783
0.0156662
0.00702727
0.0136113
0.0105939
0.0102445
0.00440977
-0.000298449
0.000851974
0.0094316
0.00997795
0.0058651
0.00499371
0.00368712
0.00107013
0.0166216
0.0203821
0.00789812
0.00822021
0.000790256
0.00670677
0.00351887
0.00620598
0.0126137
0.0176641
0.0113222
0.0210899
0.0124154
0.0120936
0.000550035
0.010445
0.0112057
0.0185591
0.00616487
0.00839288
0.00496681
0.013105
0.0136522
0.0096659
0.0139297
0.0075389
0.0130166
0.0143121
0.00566948
0.0176003
0.0109814
SCALARS CoVolArea double 1
LOOKUP_TABLE default
657.151
648.954
545.44
449.927
619.666
636.805
456.165
628.07
536.36
534.212
515.377
547.483
700.828
841.343
906.619
925.011
932.742
827.282
821.001
939.235
772.498
645.147
838.227
730.046
953.676
656.283
862.861
901.718
453.345
735.062
726.849
855.953
742.189
929.662
728.351
681.269
973.464
731.451
790.201
750.594
1083.38
692.625
770.559
927.033
867.455
688.016
852.879
768.89
855.215
944.43
881.156
992.161
934.625
871.704
944.817
914.468
993.274
847.267
914.351
791.382
809.924
915.729
751.334
892.691
752.747
806.309
827.825
837.966
762.841
796.908
767.473
763.13
737.494
863.48
776.182
915.023
578.249
908.276
843.772
821.058
893.584
692.106
881.177
669.829
734.93
798.159
899.629
772.004
887.799
865.341
764.385
778.669
799.06
740.144
1228.25
725.23
666.951
575.616
782.676
740.965
668.92
692.384
634.204
741.299
820.119
768.625
792.32
788.632
795.735
780.435
759.248
772.423
721.637
939.02
740.802
872.196
747.931
913.59
878.066
870.266
737.572
882.137
802.082
840.82
724.305
883.455
787.156
714.404
865.666
696.917
693.397
861.717
835.977
971.595
898.171
797.352
461.479
587.941
902.772
644.296
823.479
754.05
785.845
860.556
1026.49
736.571
696.639
921.441
736.299
756.593
924.604
938.753
802.715
955.977
769.928
888.899
818.036
768.564
726.292
798.106
749.348
737.408
792.421
840.726
839.269
844.636
816.701
731.366
857.268
866.51
945.191
653.752
747.931
670.644
882.508
779.169
714.305
669.623
762.268
783.328
808.643
852.013
825.835
937.614
855.312
842.123
868.997
874.95
935.008
980.615
1015.28
1041.86
928.292
861.876
928.081
883.248
912.752
946.941
987.278
806.982
896.34
953.337
898.17
869.939
873.55
914.44
826.663
889.132
833.803
981.213
924.046
903.592
848.918
866.703
944.649
1064.01
1082.1
1127.19
834.232
809.041
978.906
861.275
782.96
793.002
866.216
789.77
849.449
869.288
823.759
793.981
879.073
976.351
761.616
802.29
750.394
862.029
797.478
742.149
746.717
795.241
856.818
1048.78
988.879
998.701
829.112
819.59
830.566
779.431
773.444
782.794
792.198
791.365
759.588
811.245
739.927
862.075
712.771
802.876
750.095
771.972
708.576
756.621
732.702
717.06
817.995
744.79
822.278
875.869
847.01
844.472
799.944
781.105
769.907
728.916
696.93
721.963
830.763
849.134
777.875
815.252
747.964
745.692
760.312
663.017
686.622
794.432
464.602
773.269
873.274
818.661
996.645
808.454
861.913
851.444
930.397
847.984
756.933
817.522
853.495
797.185
814.932
895.876
804.403
828.197
834.631
926.7
672.97
706.758
646.345
831.559
746.216
666.939
705.309
758.173
889.558
1009.95
998.059
988.393
868.548
839.95
825.719
832.452
637.252
721.729
647.496
749.916
725.593
927.499
787.734
930.745
675.42
736.125
797.38
894.904
749.806
707.003
848.363
723.457
803.863
911.952
978.402
822.2
919.204
787.136
658.808
726.453
605.811
499.894
825.42
747.028
978.729
651.124
809.325
1022.07
995.449
920.779
1037.21
976.276
667.641
651.943
627.492
904.08
705.792
809.162
544.581
566.828
674.752
1029.49
904.935
930.174
769.346
676.576
920.149
817.511
706.761
796.272
853.465
771.896
799.704
520.322
644.491
511.411
838.736
938.261
598.067
750.754
678.348
870.672
749.539
661.609
588.115
730.875
542.655
769.046
624.343
795.804
742.301
765.708
807.322
722.151
792.974
717.543
774.443
808.537
804.344
767.618
757.272
722.674
777.148
829.741
740.573
744.086
715.658
767.215
703.713
770.853
748.193
728.331
753.826
869.794
834.866
844.946
558.878
726.388
660.947
876.403
854.324
824.544
680.198
752.332
833.292
738.764
975.46
812.141
850.228
939.059
912.614
717.482
819.473
708.44
868.855
790.4
725.196
887.643
847.933
749.369
778.93
720.649
767.246
915.788
855.801
1030.36
812.219
660.842
797.495
797.565
875.376
870.94
880.886
882.348
890.097
666.855
649.392
666.439
721.327
755.142
779.521
817.932
733.002
834.393
791.926
911.294
666.869
724.682
750.129
924.438
881.273
917.166
723.81
628.481
1005.83
804.189
646.576
724.73
732.405
684.165
780.296
723.52
703.521
634.012
841.206
1029.51
621.272
942.322
648.013
854.214
1041.29
899.436
882.731
1065.81
846.217
1056.42
939.125
924.749
607.754
520.07
823.549
605.433
619.459
527.427
873.28
568.482
619.877
673.416
611.785
643.04
799.882
1000.07
673.196
679.49
701.331
988.951
669.832
845.833
733.746
659.879
687.16
1148.83
993.685
1111.29
520.747
915.514
534.3
704.625
833.215
734.226
817.53
765.426
932.5
742.61
850.801
1130.93
790.973
710.701
796.635
773.078
664.938
633.301
613.068
1046.37
873.094
911.992
888.021
971.439
908.556
874.77
771.597
687.627
714.657
637.997
738.757
901.284
844.887
693.57
722.469
811.487
812.878
943.866
830.943
869.017
699.126
811.218
690.454
770.968
905.517
837.146
802.242
772.284
880.525
890.655
920.967
816.227
864.339
969.789
867.892
1081.56
903.026
972.488
678.774
946.697
857.934
681.762
716.346
650.304
767.778
549.01
614.312
774.345
698.205
687.568
654.217
768.649
995.351
1114.01
1125.68
1043.21
804.956
866.74
812.032
843.862
927.388
713.416
560.138
732.691
731.838
889.504
790.533
925.754
823.094
661.102
536.153
827.651
656.6
823.179
715.455
908.718
744.92
654.766
670.883
775.231
739.701
775.613
720.508
788.311
853.933
738.801
798.4
758.644
702.914
901.776
759.468
787.019
SCALARS SignedDistance double 1
LOOKUP_TABLE default
68.4865
68.6874
70.1425
71.6858
81.2812
69.6692
75.7466
78.7756
88.3408
84.5105
87.101
82.6771
74.743
73.1453
62.9248
63.1632
63.6984
70.8445
70.655
83.05
81.379
88.7251
72.9776
74.6173
87.3068
79.1459
90.3496
84.0563
75.1073
82.6372
82.4544
84.9401
84.7689
86.6686
75.3959
75.4799
70.2649
75.6649
78.7539
84.3975
91.1902
88.6788
69.4128
66.6884
64.6098
78.9705
73.6372
78.2573
65.2617
68.7888
71.2867
63.5491
64.8116
64.661
61.5582
64.8235
63.6089
65.2781
65.7652
68.289
68.5099
65.9076
75.1084
71.0905
74.9833
74.1916
73.7531
80.4401
77.455
86.7938
82.5733
86.9765
78.0366
91.0149
85.6111
84.69
82.0602
67.6042
70.9736
71.2225
67.8688
80.304
73.6877
79.5059
75.1883
72.1424
83.8018
80.4324
83.5973
81.6566
82.0866
89.0084
84.5541
88.9945
92.1174
79.6652
89.0775
80.8048
84.8968
86.2113
77.7104
80.04
77.3069
81.2064
81.5658
77.514
79.7814
73.7529
74.3396
87.9726
82.6806
87.2658
82.0736
79.0715
72.4672
85.0467
85.0864
89.1887
80.0352
78.9901
82.0225
63.3367
62.3846
82.018
74.2687
62.2505
61.0226
70.1894
65.2051
72.4618
68.7109
65.0745
75.3041
76.9659
75.5729
90.1761
86.7915
78.4828
79.7855
88.6274
85.3259
88.0891
86.672
91.0518
92.3189
89.022
84.4398
81.66
80.505
76.6075
79.1683
78.9335
84.1334
78.6788
83.6376
83.9417
86.2393
82.3683
80.6394
84.5873
84.5574
77.5817
68.001
66.1213
66.5875
69.3375
67.3629
71.3691
63.443
65.366
64.7629
81.2965
78.2165
81.6849
73.7653
75.9406
76.0765
78.7315
76.8369
74.072
67.155
68.5618
70.9041
65.5069
67.0021
63.7009
72.1907
70.1124
71.3397
69.7931
70.6667
67.2627
65.3809
66.5642
61.6964
62.5869
65.2643
64.4649
63.8461
67.2413
65.4279
62.0366
63.5494
63.5763
63.2602
61.6182
66.5565
65.4475
67.7502
63.8451
64.4724
65.2375
63.7679
62.734
61.9745
60.3568
61.0397
63.792
65.8607
68.2421
65.8352
64.3633
69.1634
66.7526
68.0763
68.4087
66.5541
68.3633
67.2612
69.367
65.0964
65.8259
77.8288
75.6306
77.987
70.3193
73.0678
72.5373
72.5709
73.1023
70.3502
65.8212
68.0694
68.014
70.6634
70.8439
71.6895
70.7602
77.7146
74.0761
77.8746
78.9852
78.363
81.5286
79.835
81.9985
75.6794
73.6571
87.8502
86.0508
85.8472
82.0563
84.4725
84.7841
84.9029
83.5017
82.275
75.7031
80.157
78.8153
71.587
79.1225
74.9361
73.0199
78.0808
88.3408
88.8791
86.4217
87.3521
89.9668
86.3582
83.8478
83.3753
81.4027
82.5849
82.4527
87.7233
83.8528
87.26
82.0014
85.2289
83.5747
68.2683
69.9513
64.7962
66.0064
71.7307
68.6739
70.4895
69.8167
67.2999
71.3377
68.9736
71.7619
65.4824
64.6959
81.9692
80.2939
82.2252
74.207
77.0555
77.9816
76.3251
76.7753
73.4984
67.2514
71.0249
70.8006
70.9246
70.9838
74.6169
72.9055
74.9549
73.0799
77.0792
83.3733
82.0811
82.8339
82.3333
85.4992
79.7445
77.9198
85.1698
85.7973
81.7414
80.4319
82.1839
81.4449
84.4813
85.1609
84.4616
78.6265
80.9013
79.4235
82.902
82.8528
88.0529
85.507
88.002
84.7836
89.6302
88.1279
89.5161
92.5255
90.4317
87.2214
91.5103
90.7934
75.4744
78.8065
73.8374
86.908
81.9247
81.4857
85.9892
83.3332
88.6653
91.9699
95.2845
93.7353
85.9555
86.6025
86.2299
86.0497
83.9687
85.0709
84.4496
79.8783
80.2536
77.0233
78.3853
76.7926
82.1019
84.2869
75.9767
80.4763
78.5366
82.466
82.1268
79.5439
77.2373
80.7905
77.1248
82.5066
78.2382
82.6635
77.7473
78.8658
73.6602
75.5711
82.3254
79.3373
81.1563
70.6535
70.6625
78.4029
74.1954
78.0042
70.841
71.7501
87.4781
87.1189
88.8198
82.7897
85.1198
86.9452
84.9185
84.3354
83.1373
75.8559
79.4442
80.4689
77.8989
77.7149
71.9808
80.5307
79.9715
81.5066
73.0865
77.7179
78.3997
84.751
87.6209
85.4471
86.0966
89.4184
85.8929
90.2985
90.3008
84.9148
80.0954
79.3922
81.7258
79.4134
79.193
78.7401
84.1747
80.2678
81.9093
80.5905
81.1511
78.536
66.9009
66.0996
68.6194
66.9729
65.5405
63.7497
64.0706
80.0119
82.6651
73.7413
79.9425
80.2135
79.3305
73.7061
65.5519
64.6327
69.41
61.3075
61.8771
66.5967
71.9841
64.9094
67.6892
67.8147
66.7324
61.3213
65.6671
70.9519
63.467
62.705
75.2562
67.9092
71.2621
67.8125
63.289
69.1568
64.9073
71.577
61.1524
63.4965
74.8685
75.2254
74.8612
76.6392
79.8297
81.4017
81.6262
79.8344
76.9355
65.7191
71.0071
71.0452
78.8711
78.2183
83.1607
80.8333
90.018
87.8594
92.211
76.0897
75.7575
81.6025
78.6735
81.6243
77.1995
83.6675
89.4614
88.5786
88.4386
86.6831
87.126
88.1798
85.8847
86.7072
84.8958
86.9186
82.8335
87.3061
84.4622
88.8594
88.1946
84.0971
85.5719
89.231
90.6268
89.9553
92.0126
90.5582
90.6415
93.6186
84.7705
84.7403
91.5629
88.6634
86.442
85.3935
86.7419
94.8744
91.0704
92.9741
85.8875
84.0137
84.8061
82.5856
80.9417
82.5077
77.2091
79.7685
82.701
83.0123
71.4108
77.4985
74.1115
72.4447
74.1596
80.8873
78.8392
79.9019
75.5649
78.0439
76.3714
79.7828
80.2091
79.2975
81.9052
80.2544
79.7343
80.2335
84.4016
83.1258
87.6555
87.6858
86.0727
78.5469
80.6668
79.5509
75.3709
83.4407
77.1822
77.2827
79.4315
74.2254
89.0249
82.5022
76.0892
78.447
87.584
82.9953
85.2401
86.364
86.6088
85.8407
87.1768
81.0763
87.1974
85.0765
87.0068
87.2675
87.3522
81.1171
78.2277
81.9331
83.16
83.2807
80.6612
85.2146
82.7301
78.5271
77.8724
84.1747
79.9742
83.8307
82.871
85.7576
85.4114
82.2374
82.3975
89.8367
85.133
86.2058
89.5385
87.7371
71.5759
77.3337
73.6937
75.1717
80.1181
85.0483
84.1103
83.3715
