# vtk DataFile Version 4.2
vtk output
ASCII
DATASET POLYDATA
POINTS 642 double
-87.8967 182.704 85.7116
147.472 182.706 84.878
-85.7444 -223.365 81.0442
145.947 -222.894 81.1792
30.6504 -131.401 254.233
31.3396 109.994 276.008
30.5464 -133.652 -99.98
30.9876 98.704 -94.524
191.851 -14.4183 -19.4933
201.243 -6.83673 193.136
-132.145 -16.1735 -21.7517
-142.722 -8.0205 191.882
-147.611 101.264 152.981
-78.0189 56.3038 261.261
-40.4832 179.959 201.757
101.826 179.191 201.719
30.5914 223.646 85.5907
98.1836 170.048 -26.1614
-37.3492 170.551 -26.1756
-67.5202 51.4657 -81.5145
-136.863 97.8486 21.0901
-167.598 -13.9969 93.5603
138.726 57.1423 262.04
207.195 100.055 152.615
-67.037 -80.8821 244.371
29.6475 -7.26108 299.545
-124.052 -139.434 26.365
-128.722 -130.387 144.162
29.5318 -18.2809 -136.77
-66.521 -87.602 -85.6398
198.106 98.2969 21.5876
128.635 53.3408 -81.3686
189.804 -127.443 145.264
127.84 -80.9447 244.578
94.0404 -211.698 186.746
-34.2777 -215.223 188.325
29.959 -262.785 86.4894
-37.8213 -211.979 -19.9461
95.8957 -209.993 -17.8387
124.665 -87.5853 -83.5961
178.144 -133.608 26.7287
225.928 -13.5606 87.7565
-125.399 148.709 121.748
-103.126 147.26 181.175
-69.6748 190.006 145.405
-117.618 24.4442 232.221
-120.55 84.9343 212.792
-150.026 47.1944 177.33
-5.72882 151.238 246.881
-64.582 124.51 239.683
-25.192 87.4169 276.217
-7.82869 213.455 148.511
-32.9092 211.635 84.2476
67.4513 150.556 247.645
30.048 191.357 209.084
94.0309 211.668 84.8771
68.9306 213.476 148.093
129.883 189.894 145.447
-7.40941 208.172 23.8809
-66.2441 185.729 26.6101
127.314 184.735 26.7014
67.7402 207.939 23.7965
-4.30255 140.61 -67.3209
30.5299 180.028 -32.0209
65.2757 140.405 -67.4724
-95.4675 141.538 -7.74767
-119.868 145.452 51.3036
-20.3611 78.6135 -96.0939
-58.336 116.945 -61.9123
-138.361 44.6476 -2.23691
-108.528 81.2246 -36.3702
-105.864 18.6822 -55.7036
-152.204 105.629 88.2335
-152.501 -10.9612 31.0955
-159.824 48.2629 53.7639
-162.54 50.405 121.561
-165.988 -14.2596 139.824
162.906 146.89 181.903
183.906 146.915 122.196
87.5852 88.7753 277.569
126.007 124.554 241.626
210.911 47.3194 177.138
180.155 84.3496 213.422
177.733 24.9676 232.783
-24.2578 23.558 293.1
30.9332 48.432 297.471
-110.751 -41.1702 224.263
-77.8061 -6.53726 263.76
30.13 -67.9916 280.194
-21.3617 -40.4444 282.672
-21.3366 -112.295 256.927
-158.259 -67.1739 118.814
-142.005 -66.6445 169.086
-132.228 -71.392 -5.64007
-146.459 -74.9402 56.3078
-111.16 -185.797 112.247
-138.208 -141.613 79.9019
-114.794 -186.302 48.7602
-67.3493 -18.8787 -95.843
-103.553 -53.0867 -57.1518
30.0742 35.8142 -124.245
-17.4641 10.7505 -122.128
-20.1264 -114.453 -101.319
-18.2448 -48.823 -121.358
29.8953 -74.9273 -120.891
119.426 116.674 -62.0324
82.0584 79.3805 -96.5431
180.855 145.03 49.9064
156.729 141.155 -7.7142
165.132 21.5362 -53.9736
168.871 81.2783 -36.285
198.834 44.2563 -2.26599
169.196 -184.785 109.286
147.09 -176.567 166.684
123.795 -224.932 136.735
170.124 -40.171 225.166
166.333 -111.688 200.178
197.62 -69.3924 167.991
61.8737 -178.559 222.305
115.841 -147.5 222.185
82.3942 -112.464 256.873
65.0802 -251.675 142.378
95.1527 -253.075 81.918
-1.92512 -181.873 220.937
27.8675 -224.752 195.878
-33.7171 -253.165 83.8305
-7.62618 -255.2 143.322
-64.3437 -228.396 139.332
69.1258 -248.617 24.7591
126.088 -225.179 28.9595
-67.1156 -227.379 26.4124
-10.1477 -249.85 23.9661
62.6256 -169.313 -68.9161
29.6829 -218.768 -24.1207
-2.92312 -170.21 -67.9532
148.955 -181.707 2.6719
172.611 -185.914 51.8047
79.7597 -114.734 -100.944
111.727 -144.814 -63.4931
192.224 -70.7939 -3.86769
160.734 -106.906 -37.701
162.611 -52.0668 -54.5875
192.859 -140.038 83.3368
212.669 -8.996 32.4092
207.997 -68.958 57.0922
215.45 -68.8311 116.66
221.464 -10.6661 140.384
82.5408 -41.3049 281.406
139.709 -5.98886 263.839
85.8579 25.261 292.326
-87.2461 -181.008 166.016
-54.9297 -149.279 221.199
-105.925 -112.353 200.647
-53.3521 -147.006 -62.1849
-91.7708 -183.789 -0.0855154
-101.941 -108.679 -39.3246
126.623 -18.215 -93.3719
77.1962 -49.1154 -119.549
77.1031 11.8259 -120.582
223.649 50.2677 122.37
220.047 47.7683 55.0134
212.706 103.797 85.9032
-108.108 167.472 104.356
-100.033 171.021 134.426
-80.6194 188.005 115.384
-128.411 125.386 167.557
-116.501 149.292 152.1
-138.428 126.352 137.965
-56.1424 187.384 174.323
-87.6218 170.482 164.894
-73.1364 165.923 192.727
-132.304 8.59395 213.195
-136.057 36.0013 206.404
-148.741 17.1555 187.029
-100.643 71.6779 239.023
-119.609 54.9677 224.211
-99.6095 40.2884 248.597
-150.99 76.6551 165.779
-137.532 68.177 195.488
-136.789 94.6803 183.839
13.0098 131.221 264.115
-16.7241 121.288 263.959
2.94304 100.268 278.133
-53.6786 154.376 222.925
-36.1749 139.921 244.803
-23.3879 167.738 226.183
-52.5101 72.6039 270.516
-46.0446 107.249 259.628
-72.5822 91.3851 252.239
-114.54 117.3 198.987
-95.1616 105.7 228.024
-85.6941 138.16 212.518
-52.1132 203.668 117.041
-62.2289 198.84 84.7178
-25.2388 200.048 176.955
-39.4605 204.421 148.539
-1.12408 219.647 84.994
-19.9582 214.745 117.402
11.8318 221.658 116.42
49.0843 130.926 264.562
30.5639 153.427 248.65
66.9431 188.009 207.175
49.3003 173.392 229.165
84.9641 166.813 226.577
11.3318 174.011 229.244
-6.06924 188.699 207.48
122.859 199.067 85.0262
112.742 203.786 116.855
139.808 187.894 115.24
49.3131 221.67 116.348
81.087 214.765 117.265
62.122 219.678 85.2523
117.077 186.956 174.107
100.446 204.358 148.186
86.3798 199.665 176.417
10.7669 206.375 181.102
49.7302 205.888 180.677
30.3994 215.942 148.769
-50.7813 202.273 53.1559
-77.9694 186.459 55.414
11.21 217.668 54.0471
-20.4676 213.044 52.7799
-52.8065 180.296 -0.552336
-37.622 199.543 24.1494
-23.4383 192.014 -2.48026
138.801 185.765 55.7308
111.607 201.442 54.0563
83.8986 191.554 -2.57607
98.089 198.627 24.1939
113.74 179.502 -0.642169
80.8295 212.403 53.3678
49.5066 217.742 54.1467
13.4793 120.877 -82.3907
30.6061 142.476 -68.2708
47.9161 120.716 -82.6465
-4.75624 177.993 -30.9633
12.1027 162.4 -50.9132
-20.9224 157.07 -48.7082
81.7613 156.78 -48.7138
48.8874 162.388 -50.9594
65.4931 177.873 -30.9802
30.4599 210.931 22.6718
49.2465 197.502 -5.97059
11.6024 197.496 -5.89764
-94.7705 167.676 36.9064
-105.179 165.925 68.5153
-68.0222 158.335 -18.2446
-82.2983 164.964 7.62048
-130.349 122.757 35.3734
-108.902 144.994 19.665
-118.366 121.131 5.39896
4.83453 89.45 -97.6059
-14.4017 111.958 -82.9441
-64.123 86.6229 -72.7799
-41.0441 100.127 -79.724
-44.2293 66.1665 -90.4532
-32.6659 130.481 -66.0129
-49.0872 145.188 -46.2754
-135.243 13.093 -12.8912
-123.711 32.9927 -31.2811
-120.096 0.910385 -39.354
-124.405 90.9452 -9.56734
-124.977 64.2614 -20.2155
-139.446 72.326 8.89941
-88.9803 35.199 -69.8002
-107.845 50.9426 -46.9887
-89.5216 67.9067 -60.0893
-78.3948 130.988 -36.9353
-85.6357 100.587 -50.949
-104.268 112.22 -24.2443
-125.757 148.557 87.4167
-146.768 102.932 54.4329
-138.553 126.106 70.1542
-141.491 127.687 105.201
-152.755 105.25 121.257
-143.103 -14.3307 1.45015
-147.618 16.8687 14.6083
-164.25 16.6975 71.2814
-158.595 19.1188 43.9026
-161.848 -10.5479 62.8495
-151.15 47.7778 26.9575
-151.379 73.5445 38.1012
-158.819 16.5795 160.76
-155.937 -10.8303 166.702
-159.158 78.11 137.924
-159.094 50.7726 149.621
-171.424 -15.7611 116.881
-165.003 13.64 131.944
-166.458 12.6894 105.557
-158.704 78.2553 70.6036
-163.192 50.1181 87.2322
-160.799 80.223 105.664
158.84 170.282 135.092
166.251 166.327 103.602
134.108 165.43 193.245
147.673 170.084 165.345
197.695 124.724 138.408
175.53 148.341 152.818
187.513 124.598 167.797
59.9412 100.529 279.019
79.3287 120.959 265.424
133.292 92.5535 253.842
108.085 107.859 261.791
113.716 74.2308 271.419
98.3472 139.312 246.31
115.368 153.745 223.956
207.284 19.574 186.786
196.239 37.111 206.54
191.295 9.33534 213.579
195.971 93.732 183.828
198.199 66.3558 195.834
211.26 74.2469 165.356
160.467 40.3343 249.185
180.407 54.4707 224.881
160.868 71.8862 239.852
146.365 138.042 213.727
155.176 106.14 229.386
173.919 117.21 199.718
2.27827 67.771 289.856
31.315 80.4388 287.629
-52.4683 40.1548 279.104
-25.9631 53.8684 286.577
30.2049 19.182 301.09
2.16186 35.0333 298.077
2.67772 7.96308 300.184
-128.512 -24.1614 208.764
-115.351 -6.5403 230.89
-73.775 -40.5509 257.065
-95.0651 -23.6425 245.897
-89.6616 -60.8838 236.346
-98.5963 9.61078 250.402
-79.9825 23.8148 265.965
30.6008 -103.646 266.094
4.4943 -90.9155 268.842
4.01542 -123.151 257.66
3.57601 -23.2914 294.061
4.21883 -53.34 284.217
29.6742 -35.4423 291.758
-44.7871 -98.8814 253.045
-21.8595 -75.9362 267.891
-46.071 -60.495 265.465
-52.9616 8.68991 281.071
-50.1367 -23.8204 275.997
-23.4322 -7.36579 291.32
-156.972 -38.8627 154.786
-144.669 -37.1537 180.629
-166.231 -37.1846 108.32
-165.029 -38.1348 128.407
-134.615 -98.808 158.256
-152.392 -67.2341 143.361
-142.481 -99.2064 130.337
-133.032 -42.7137 -14.7645
-143.234 -42.6854 10.463
-136.568 -109.321 40.3869
-140.952 -73.5339 21.5422
-128.848 -102.164 8.69815
-151.575 -39.5407 42.7946
-160.424 -37.4979 77.1972
-100.3 -206.411 97.249
-116.127 -187.535 79.5473
-102.061 -206.876 64.2068
-134.693 -138.127 110.871
-126.358 -163.901 94.8511
-120.119 -159.895 126.775
-121.54 -164.955 36.7265
-127.582 -165.43 64.2917
-134.155 -143.186 54.6396
-154.207 -72.6978 90.9004
-144.628 -113.491 70.2586
-144.734 -107.135 97.125
-105.658 -17.5016 -58.4428
-119.587 -33.8141 -39.8522
-67.1618 12.7319 -89.7021
-87.289 -1.05138 -75.3819
-86.083 -71.4106 -72.5616
-86.6516 -35.8127 -76.8068
-67.5261 -51.3486 -90.7792
30.584 67.7668 -109.805
6.31508 55.5979 -112.623
6.06586 -3.7931 -132.943
6.52256 22.7443 -125.958
29.6615 7.20051 -132.789
-18.4937 42.8391 -110.104
-41.0947 29.6626 -103.154
4.97595 -125.488 -102.862
3.83118 -97.346 -113.842
30.5404 -109.163 -111.377
-42.0521 -69.8607 -103.632
-20.0865 -83.8521 -111.294
-44.0203 -102.018 -95.4708
29.5235 -41.9254 -133.206
4.65944 -60.5119 -124.58
6.1538 -32.1165 -133.069
-43.3243 -4.55157 -112.422
-19.0623 -18.048 -126.661
-43.7399 -32.8325 -111.995
75.482 111.541 -83.4644
56.8575 89.8317 -97.9374
110.198 144.784 -46.3046
[...]
POINT_DATA 642
SCALARS Mean_Curvature double 1
LOOKUP_TABLE default
0.00848268
0.0093097
0.0130968
0.0179261
0.00739412
0.00860661
0.0108154
0.0047442
0.0119049
0.00939863
0.0119395
0.00466388
0.0120598
0.00880224
0.0104285
0.00974115
0.0127454
0.00953068
0.00990305
0.00606243
0.00821363
0.00960882
0.00825717
0.0116839
-0.00103904
0.0124383
0.00190509
0.00865189
0.0219683
0.0114274
0.00974939
0.00849162
0.0109585
0.000182212
0.0137725
0.0146458
0.00538328
0.0147979
0.0125901
0.00974485
-0.00504873
0.01012
0.0118074
0.00975499
0.0100272
0.011213
0.0102561
0.00629916
0.010175
0.00913869
0.00744012
0.0101904
0.00775137
0.0100636
0.0108661
0.00873974
0.0105773
0.0107248
0.0108913
0.010172
0.00970838
0.0112904
0.0107416
0.00771718
0.0106669
0.0105439
0.00775457
0.00690096
0.0108582
0.00592644
0.00948392
0.00763883
0.0116203
0.00360451
0.00984528
0.00302527
0.0133608
0.0101053
0.00952364
0.0100609
0.010589
0.00967487
0.00861636
0.0108593
0.0128833
0.0097579
0.00661115
0.00833913
0.0061855
0.00799751
0.0107026
0.0145394
0.00763337
0.00830269
-0.00284454
0.00966413
0.0154223
0.015178
0.012237
0.00654177
0.0139028
0.0112926
0.0119352
0.0091986
0.00137821
0.0108
0.00886936
0.00926844
0.0106768
0.00548221
0.00839154
0.00759928
0.00763816
0.00489007
0.0112447
0.00717858
0.0118315
0.00105667
0.00439555
0.00858149
0.0109176
0.0113223
0.0139878
0.00363077
0.0143878
0.00741746
0.0145847
0.0127545
0.0132022
0.0121812
0.0131215
0.0142935
0.0107664
0.00726845
0.00926923
0.0137487
0.0197172
0.0130058
0.00929711
0.0104925
0.00931702
0.00600752
0.00865316
0.00238189
-0.0021722
0.00867382
0.00682801
0.00757631
0.00977387
0.0119073
0.00492743
0.00749521
0.0124995
0.00787063
0.0136772
0.00920848
0.010861
0.00810725
0.0104669
0.00535005
0.00614286
0.0108745
0.00967313
0.0103351
0.00907467
0.0103582
0.0100868
0.0108939
0.0100202
0.00929415
0.00965667
0.0116265
0.00854411
0.0131529
0.00909156
0.00754436
0.0106732
0.0123775
0.00880305
0.0120348
0.0105063
0.0101714
0.00865185
0.00977386
0.00969119
0.0104735
0.00757794
0.00832548
0.00805161
0.0100929
0.00925037
0.00974721
0.0091629
0.00721639
0.011092
0.0111069
0.00734748
0.00713037
0.0110144
0.0100992
0.00770751
0.010482
0.00930567
0.00967968
0.0107862
0.0114851
0.00913484
0.00993953
0.00848881
0.0110651
0.00731075
0.00759735
0.00985615
0.0115349
0.0108413
0.0126272
0.0112449
0.00601498
0.0120788
0.0100215
0.00719044
0.0118302
0.00989437
0.0110269
0.0102066
0.00974246
0.0108321
0.0100554
0.00984751
0.00969455
0.0100825
0.00793951
0.0084831
0.00680979
0.00881329
0.0105469
0.00953516
0.0102498
0.00992115
0.00984155
0.0107145
0.0097743
0.0111238
0.0105768
0.00959411
0.00689518
0.0100116
0.0103291
0.00834971
0.010219
0.00997388
0.00765388
0.00926478
0.00875447
0.0102305
0.00539402
0.010437
0.0102065
0.00404721
0.00959238
0.00585497
0.0104581
0.00721233
0.00832584
0.00912455
0.00712648
0.0070119
0.0104621
0.0106713
0.0106182
0.0112546
0.00971661
0.00924316
0.0105239
0.0133491
0.0091728
0.00430201
0.00700268
0.00854013
0.00744963
0.00690084
0.00996281
0.00875957
0.00820887
0.0158034
0.007501
0.0290679
0.00471555
0.00288954
0.0118755
0.00454796
0.0113577
0.00966772
0.00604822
0.0100469
0.0098397
0.0110848
0.0099392
0.0097126
0.00974294
0.0108738
0.00905418
0.011275
0.00733614
0.0102738
0.0101227
0.00867054
0.00993543
0.0093708
0.00973801
0.0100016
0.0105809
0.0108735
0.00933701
0.00823384
0.0105178
0.00959428
0.00988733
0.00869962
0.00620053
0.00916457
0.00758487
0.00999247
0.0117966
0.0165043
0.00549063
0.00868608
0.00793929
0.00726973
0.0055097
0.0104069
0.0134958
0.00536423
0.00377047
0.0120165
0.0103422
0.00858122
0.00719121
0.0103697
0.000566215
0.00692641
0.0116509
0.00776559
0.0111826
0.0104751
0.00882601
0.0111664
0.012856
0.00558364
0.00833728
0.00134012
0.00718322
0.00686873
0.000812525
0.00719157
0.00557268
0.00180516
0.00412434
0.0108708
0.0125647
0.0136996
0.0084002
0.00717468
0.00542617
0.013481
0.0128784
0.0118415
0.004095
0.0138946
0.00239315
0.0084311
0.00863835
0.00240059
0.00434702
0.00831153
0.00623141
0.00388631
0.00820829
0.00702563
0.0165898
0.0110765
0.0139422
0.0062229
0.00395888
0.0130788
0.0110204
0.00928149
0.0028418
0.00866807
0.012053
0.0158009
0.00809321
0.0171136
0.0134969
0.0179051
0.0115503
0.0092881
0.00882563
0.0101526
0.0102455
0.00812443
0.00989777
0.00863477
0.00875674
0.00989526
0.0103633
0.0103701
0.00889212
0.0104583
0.0100532
0.00399775
0.00956331
0.00501731
0.00805804
0.00992792
0.00927146
0.00589943
0.00687008
0.0105503
0.0106318
0.0111297
0.0105657
0.0158213
0.0105061
0.0121955
0.00768022
0.00496072
0.0059687
0.0136215
0.0109889
0.00943583
0.00694999
0.00423966
0.00610055
0.0119178
-0.00243966
0.00480368
0.00938901
0.0088913
0.0112552
0.00562554
0.0092817
0.0120292
0.00518001
0.0051427
0.011568
0.010377
0.0103277
0.0108425
0.0094059
0.0106043
0.00608332
0.00958201
0.0153926
0.0121467
0.0123919
0.00920476
0.00775886
0.0160741
0.00459865
0.00267727
0.0158463
0.0159369
0.0153575
0.0106992
0.0120324
0.0100179
0.0110774
0.0109669
0.0179956
0.0166443
0.00542293
0.0135204
0.0134671
0.0137887
0.0120311
0.013556
0.0132178
0.0134045
0.0132138
0.00950885
0.0126212
0.01286
0.0126678
0.0131658
0.0132907
0.0138569
0.0141152
0.0139871
0.0136348
0.0144184
0.00817694
0.0130352
0.00730088
0.0125847
0.0135091
0.00159948
0.00252346
0.00444265
-0.00110685
0.0147285
0.00856211
0.00979213
0.0125552
0.0125352
0.015164
0.0111333
0.0130564
0.0118517
0.01814
0.00356124
0.0137742
0.0128857
0.011214
0.0124279
0.0125451
0.0102658
0.00233288
0.00516946
0.00878144
0.00721191
0.00707277
0.00979317
0.00833598
0.00705382
0.0089271
0.0107412
0.00155743
0.00869676
0.00309141
0.0199971
0.00451216
0.0134356
0.00482979
0.00982678
0.00782609
0.00572163
0.0129245
0.00171843
0.00321635
0.0094931
0.00341769
0.00993608
0.00571442
0.00751977
0.00603523
0.0101061
0.0128195
0.0130778
0.0085388
0.00943665
0.00561425
0.00426839
0.00709464
0.00110935
0.00717423
0.00928463
0.00983861
0.0137269
0.012021
0.00821081
0.00811929
0.00837919
0.0142594
0.0131279
0.00712958
0.0109237
0.00742696
0.0116963
0.00757185
0.0134448
0.0110889
0.0132536
0.00862056
0.00547833
0.00862745
0.010589
0.00981134
0.00287221
0.00521412
0.00726817
0.0118452
0.00345573
-0.00268992
0.0117102
0.00438508
0.0102095
0.00843293
0.0119539
0.00314397
0.00804835
0.0114411
0.0110556
0.0129905
0.0130074
0.0155302
0.0137102
0.0138836
0.0071338
0.0118749
0.00992286
0.00942779
0.0033925
0.00163136
0.000493741
0.00837217
0.00897438
0.00537112
0.00524592
0.00371087
0.00213864
0.013428
0.0167308
0.0068125
0.0088357
0.00157622
0.00622672
0.00372731
0.00581888
0.0111166
0.0148708
0.010553
0.0170966
0.0113211
0.0102232
0.0010277
0.0100196
0.00986803
0.0165265
0.00674869
0.00961641
0.00450303
0.012313
0.0116881
0.0087117
0.0117198
0.00720862
0.0112582
0.0116338
0.00607305
0.0161648
0.0111727
SCALARS CoVolArea double 1
LOOKUP_TABLE default
767.362
758.947
678.362
594.035
728.272
747.156
579.309
728.141
639.392
634.104
623.011
651.363
869.463
987.727
1057.63
1072.73
1077.3
975.038
970.285
1050.8
912.402
780.292
985.843
894.012
1058.55
808.89
962.358
1026.86
636.752
871.715
867.492
977.548
889.348
1042.13
884.418
846.589
1107.29
885.191
932.559
880.516
1148.79
833.048
918.464
1081.48
1006
827.317
1004.56
900.816
995.317
1090.92
1005.8
1144.75
1064.37
1010.82
1106.7
1046.9
1146.31
987.469
1071.96
934.694
950.125
1072.75
887.945
1042.69
889.272
965.397
959.753
959.124
918.653
903.658
910.163
880.364
903.706
961.051
916.261
1024.92
739.583
1064.11
975.716
955.951
1050.41
829.536
1029.88
811.195
905.253
941.536
998.471
915.209
995.895
997.352
895.185
933.328
917.753
858.893
1291.53
855.273
829.2
744.648
917.974
858.714
818.485
851.076
783.238
896.692
946.647
924.244
921.401
926.795
956.877
890.907
903.908
883.367
847.777
1067.94
895.641
973.065
892.664
1017.82
987.553
1015.27
868.993
1057.44
963.304
947.532
909.055
1034.46
980.569
878.666
1040.84
859.976
861.886
1038.18
970.982
1099.94
1025.69
940.69
633.798
741.891
1040.37
771.673
964.282
867.103
927.11
950.777
1121.19
886.424
833.685
1046.68
885.519
919.699
1051.66
1077.41
945.143
1087.15
917.702
1026.24
946.439
915.927
880.361
921.243
892.086
908.775
930.103
984.202
971.496
1007.35
962.153
883.878
997.252
1007.24
1096.42
784.732
885
805.414
1029.85
914.59
857.423
813.203
897.048
945.507
944.859
988.327
953.617
1089.02
994.249
983.568
992.792
1003.59
1075.46
1156.63
1181.41
1211.2
1058.88
992.519
1089.08
1025.11
1042.44
1077.12
1135.87
944.489
1033.36
1109.2
1036.8
1007.64
1016.27
1077.3
962.169
1026.2
964.012
1130.92
1058.46
1034.25
989.867
1011.56
1102.69
1242.96
1258.16
1292.95
980.218
944.038
1124.31
1004.18
922.823
941.588
1022.59
926.91
991.899
1024.66
966.917
931.884
1018.17
1121.85
884.52
932.827
875.089
1014.63
933.886
882.85
886.45
931.786
1009.71
1220.31
1164.47
1172.94
966.396
949.665
986.034
923.274
905.445
922.696
943.906
913.99
893.562
947.38
872.825
970.2
856.659
959.554
860.949
892.171
830.023
901.022
855.315
836.508
930.447
870.489
956.594
1053.12
1013.86
1018.57
941.282
935.218
911.785
882.2
870.055
835.301
931.666
978.421
893.483
915.433
862.709
891.033
896.966
797.183
844.213
920.345
625.188
910.449
996.263
987.53
1123.27
970.373
996.635
975.409
1084.31
990.085
900.704
959.823
1010.45
930.045
960.378
1041.17
946.7
958.371
980.938
1081.83
800.384
845.123
775.247
987.187
887.146
813.987
850.877
899.208
1035.46
1184.39
1164.64
1158.53
1001.47
966.102
982.206
970.088
792.882
875.775
817.849
863.396
851.109
1046.64
905.773
1025.65
813.884
895.845
911.02
1002.54
879.623
856.967
962.332
848.309
922.064
1020.65
1094.5
998.091
1071.52
962.295
804.324
850.525
756.177
664.999
937.766
882.686
1100.06
775.197
916.867
1117.32
1080.88
1020.8
1108.97
1066.8
821.84
805.475
792.768
1035.02
845.729
925.279
683.962
727.83
817.01
1156.45
1043.66
1081.94
886.691
800.873
1037.34
926.821
827.481
909.279
979.544
901.197
934.034
703.255
794.239
673.835
960.551
1057.59
745.034
888.861
815.217
998.541
885.388
798.602
740.83
872.584
724.403
938.24
821.615
962.841
879.704
892.574
963.166
865.142
913.551
854.911
917.812
939.707
945.185
923.193
900.84
864.103
921.419
985.31
855.096
862.42
828.034
908.374
831.739
882.348
859.719
852.216
896.293
1048.15
1009.43
1013.32
722.663
866.054
822.439
1019.16
965.486
948.61
835.481
884.852
971.986
851.471
1063.98
918.24
978.84
1027.85
1010.63
840.121
926.971
861.222
980.46
925.601
855.82
1019.84
973.927
878.393
900.317
861.089
914.447
1084.45
1029.38
1182.47
969.312
828.596
974.904
955.275
1019.68
1023.37
1052.32
990.381
982.908
857.05
791.246
804.856
854.366
927.676
932.258
975.41
889.614
1012.76
957.497
1047.83
829.34
895.451
939.894
1123.9
1090.99
1125.19
892.794
797.142
1155.18
965.879
802.73
890.103
907.918
847.184
944.154
904.837
875.56
802.127
998.236
1173.69
772.836
1064.48
796.879
998.377
1139.19
1014.15
998.174
1158.86
991.583
1239.07
1123.98
1111.1
789.521
702.247
968.303
769.552
720.506
681.976
972.714
720.84
779.53
828.06
764.878
777.647
936.443
1121.66
792.705
803.632
820.381
1098.18
802.464
956.392
847.349
786.414
832.297
1286.23
1147.12
1249.8
685.034
1015.52
673.284
840.063
977.513
844.353
920.462
891.633
1010.66
847.368
952.211
1220.73
915.831
831.401
932.815
900.155
799.667
778.796
773.088
1175.47
1026.52
1064.1
995.786
1091.11
1016.78
984.032
912.186
818.439
879.422
782.946
864.308
1026.91
981.224
855.587
875.84
951.606
971.623
1094.15
1004.22
1030.43
852.962
951.49
837.26
892.163
1039.84
966.218
945.869
909.554
1000.39
1018.43
1018.56
960.232
967.048
1057.58
995.488
1225.13
1075.11
1137.55
833.38
1067.9
989.505
832.364
876.164
825.313
899.984
714.482
784.855
924.053
820.323
841.965
784.27
892.779
1112.73
1237.04
1258.25
1189.96
916.319
988.704
920.242
946.755
1040.86
857.703
737.35
873.374
865.146
1010.65
926.428
1048.71
948.251
808.574
715.22
987.408
846.483
984.214
849.505
1024.97
868.184
792.077
834.456
884.601
878.645
889.116
838.501
924.18
986.904
907.745
940.123
905.7
866.205
1045.77
937.27
961.247
SCALARS SignedDistance double 1
LOOKUP_TABLE default
83.8574
84.1729
85.4542
87.0698
99.671
85.0368
93.0471
96.5054
108.385
103.384
106.891
101.096
90.7085
89.9237
77.4663
77.6943
77.9704
87.0596
86.8416
101.824
99.2637
108.327
89.69
91.0048
106.012
96.5286
109.393
102.621
91.8722
101.064
100.318
103.459
103.414
105.398
91.8852
91.478
83.8347
92.0935
95.1831
103.36
110.489
108.182
85.0224
82.113
79.2597
96.6199
90.1899
95.8542
80.0261
84.3289
87.2918
77.31
79.5484
79.3979
75.6992
79.5574
77.2619
80.0083
80.8035
83.9112
84.2025
80.9834
91.981
87.0928
91.8512
91.065
90.2725
98.6509
94.9873
106.012
101.107
106.649
94.7881
110.47
104.707
103.443
100.508
83.079
86.9788
86.9187
83.2811
98.1812
90.3622
97.2226
91.6403
88.2313
102.89
98.5918
102.196
100.175
100.558
108.067
103.851
108.669
112.175
97.1515
106.802
97.4181
103.587
105.659
95.2594
98.0616
95.0563
99.0917
98.7028
95.0148
98.0018
90.2612
91.2236
107.652
101.436
106.599
99.7428
97.0721
88.2129
104.297
103.645
108.313
97.7018
97.2982
100.515
77.9722
76.5729
99.5968
89.6496
76.4171
75.1077
85.4584
79.9882
88.1495
83.9285
79.4771
92.8873
93.1259
93.002
106.868
103.526
96.3036
98.0547
108.747
104.832
107.847
105.851
110.999
112.619
108.39
103.481
100.262
98.7007
93.3128
96.9619
97.155
102.574
96.7587
100.517
103.008
105.284
100.541
98.8677
103.36
103.67
94.296
83.595
81.3655
81.6288
85.1987
82.8618
87.2071
77.942
80.305
79.6684
99.4709
95.8138
99.6059
90.2942
93.0836
93.0136
95.6867
93.874
90.1796
82.1796
83.9267
86.34
80.4884
82.1118
78.3111
88.4911
85.9689
87.5208
85.6961
86.7086
82.6773
80.1015
81.5936
75.8416
77.0669
79.6792
78.96
77.9135
82.2532
80.1934
76.2557
77.8828
78.1386
77.5433
75.7862
81.6213
80.2581
82.9922
77.9112
78.9648
79.6532
78.3273
77.2381
76.1755
74.4536
75.1277
77.8498
80.9469
83.7051
80.4173
79.2739
84.9871
82.0335
83.5765
83.951
81.6974
83.941
82.6133
85.2545
80.0535
80.4372
95.0204
92.5663
95.1815
86.2988
89.4601
89.083
89.1403
89.4876
86.3819
80.9162
83.4188
83.4044
86.7397
86.7115
88.2234
87.0139
94.7559
90.7246
95.1235
96.8513
95.7286
99.7082
97.539
100.435
92.8047
90.5056
107.56
105.288
105.596
100.228
103.376
103.388
103.598
102.609
101.137
92.8149
98.0495
96.434
87.7026
96.5257
91.8886
89.2217
93.9046
108.283
108.59
105.7
106.962
109.829
105.626
102.185
101.521
99.9976
99.8796
99.9627
106.139
102.158
106.304
100.331
104.111
101.61
83.6247
85.7716
79.7439
81.0746
87.81
84.3954
86.5309
85.4081
82.5408
87.3736
84.6608
88.0576
80.5587
79.6587
100.326
98.0137
100.541
90.6831
93.9837
94.7694
93.285
93.8389
90.1354
82.638
87.0205
86.7723
87.0381
86.8996
91.1258
89.2508
91.559
89.3744
93.909
102.051
100.491
101.679
100.98
104.542
97.6169
95.1759
103.246
104.129
99.8791
98.2545
100.703
99.5231
102.775
103.573
103.223
96.0617
99.2445
97.0501
101.803
101.805
107.65
103.427
106.584
104.111
108.073
108.044
109.608
111.55
110.348
106.928
111.43
110.864
91.5759
95.7837
89.6515
104.826
100.035
99.8276
104.576
101.321
106.842
111.894
115.501
113.166
105.489
106.332
105.01
105.282
103.127
104.332
103.167
97.379
98.1113
94.3445
96.1446
93.9251
100.183
102.614
93.3265
97.2022
95.6716
100.879
99.751
97.5377
94.5575
98.2005
94.4691
100.925
95.8703
100.968
95.1365
96.5118
90.5364
92.6936
100.562
97.0962
99.405
86.6484
86.7644
95.5886
90.8419
95.0035
87.1381
88.324
107.398
106.841
108.834
101.638
104.119
106.265
103.826
103.314
101.338
92.9699
97.0208
98.3869
94.3084
94.342
87.6073
98.9628
97.8745
99.906
89.2236
94.5931
95.5164
103.787
106.951
104.773
104.762
108.176
105.063
108.912
108.832
103.435
98.2622
97.6832
99.8694
97.0096
97.1519
95.5901
102.632
98.6875
100.555
99.0744
99.6881
96.7584
81.8677
80.7611
84.1737
82.11
79.051
77.9531
77.0004
98.161
100.374
89.1621
96.1102
96.5309
95.8802
89.7216
80.1479
79.2855
84.6427
74.1207
75.3971
79.8222
87.6169
79.5631
82.4849
82.672
81.2025
75.2725
80.4618
86.2864
77.0913
77.1316
91.3421
83.0202
86.923
82.8648
77.8896
84.4318
79.8626
87.3069
75.3962
77.1594
92.0277
92.5352
92.0249
92.8305
95.5374
97.5146
97.5315
95.5681
92.8933
80.5242
86.4555
86.4384
94.9677
94.1129
99.7987
97.2731
109.852
104.767
111.554
93.5238
93.462
100.178
96.6532
99.8523
95.0963
100.394
109.665
108.341
108.416
106.38
106.953
108.175
105.409
106.312
104.072
104.324
101.771
106.055
100.96
108.732
107.382
102.77
104.312
109.367
110.925
110.123
112.392
110.53
110.757
113.066
104.235
103.793
110.522
107.99
105.643
104.742
106.339
114.371
111.002
112.338
104.317
102.848
103.234
101.142
98.8929
101.106
94.4756
97.6607
101.435
101.877
87.3783
94.4754
90.4078
88.7011
90.5972
99.2792
96.2573
97.6389
91.726
94.8641
92.8783
97.3942
98.4445
97.5774
100.472
98.6585
97.5957
97.7245
103.596
101.764
106.541
106.248
104.517
96.6237
99.1232
98.0261
92.9453
99.9587
94.8396
95.1393
97.774
89.915
107.343
99.183
92.2089
95.1513
107.251
101.706
104.545
105.79
105.809
103.172
105.277
99.6346
107.025
104.475
106.604
106.838
106.429
97.9074
95.8407
99.5323
101.254
102.12
98.4262
103.629
100.837
96.5091
95.4255
102.82
97.8339
102.488
101.379
104.937
104.196
100.173
99.4164
109.73
103.954
105.424
109.198
107.203
87.8374
93.7799
90.2638
91.9716
97.3216
103.948
102.284
101.204
