# vtk DataFile Version 4.2
vtk output
ASCII
DATASET POLYDATA
POINTS 642 double
-59.5363 145.685 88.9572
117.964 146.253 86.8666
-52.7779 -190.079 79.1422
112.34 -189.709 79.4227
30.6799 -107.268 204.447
32.194 91.0975 232.129
30.5063 -109.021 -54.6311
31.3551 74.7022 -46.323
139.175 -11.4895 9.97146
151.033 2.81416 166.421
-79.6704 -14.4985 6.29165
-94.5281 0.705054 162.709
-102.251 85.6653 139.692
-50.9595 46.8006 220.67
-23.9353 147.725 178.975
85.5173 146.266 179.134
30.5517 180.05 88.687
81.1593 135.306 2.70303
-20.4943 136.084 2.7978
-36.7073 39.8359 -35.7651
-88.2534 81.1549 42.1818
-108.071 -9.47281 104.021
111.047 47.8344 221.901
162.231 82.8964 139.085
-34.6347 -64.4927 196.286
28.6328 4.11173 246.976
-68.6247 -124.707 49.3574
-78.1061 -111.508 127.706
28.1542 -18.1652 -85.2739
-32.994 -76.5867 -41.8224
148.816 82.9186 43.5853
96.2028 44.0003 -35.0014
138.885 -107.647 129.391
95.3085 -64.6139 197.322
72.2297 -182.222 152.388
-12.2388 -187.862 153.149
29.6875 -216.914 90.8403
-20.8282 -183.235 16.938
76.3218 -179.653 17.7703
89.4708 -76.4425 -39.4072
122.119 -112.909 47.2938
166.299 -9.7396 94.4949
-88.4383 119.908 117.096
-72.8048 119.73 161.453
-47.2161 153.345 135.529
-77.4287 24.8679 196.426
-82.7775 72.2189 182.863
-100.855 41.7543 157.696
3.01585 124.32 212.554
-41.8966 102.936 204.788
-10.0859 72.0137 232.479
0.247901 172.005 139.784
-19.2116 169.59 85.5947
59.5998 122.989 214.201
29.5153 157.351 184.761
80.2399 169.684 86.9258
60.7998 172.147 138.97
106.213 153.508 135.84
0.464606 166.64 39.03
-42.2737 149.187 42.5466
103.665 147.687 42.4662
59.0948 166.497 38.6778
3.82886 111.298 -26.4055
30.4757 143.097 -0.628182
57.1184 110.854 -26.7779
-61.5692 114.203 17.1306
-80.5544 116.919 63.7552
-2.89803 60.1171 -47.6725
-33.5402 94.8086 -21.445
-85.0367 38.7981 23.4026
-66.4981 67.983 -1.45194
-62.1227 14.1485 -15.7646
-102.912 88.4025 93.4561
-92.6325 -5.29237 48.2522
-103.069 44.2411 67.0118
-104.754 46.2996 119.297
-112.195 -11.2139 127.279
131.222 119.384 163.081
146.069 117.154 117.713
73.1223 74.4731 233.45
102.737 103.093 208.155
160.351 43.3154 156.386
141.754 70.719 184.275
136.151 25.9212 198.205
-7.94178 22.2736 244.96
30.935 39.8439 248.909
-70.5148 -24.9803 186.751
-46.829 3.85128 219.704
29.7656 -47.6541 227.101
-5.09546 -22.2533 232.434
-7.04838 -93.372 206.9
-101.289 -48.5242 116.832
-94.0947 -47.3698 144.438
-76.9402 -58.7905 16.3853
-86.0211 -62.6498 68.7166
-64.4757 -161.379 98.7438
-80.7674 -126.66 80.4652
-67.4915 -163.659 60.094
-29.5679 -20.0424 -51.6351
-58.6183 -46.3398 -19.4215
29.6433 17.349 -74.3825
4.09148 -3.27533 -74.3805
-2.37888 -96.1157 -55.441
2.81946 -36.3416 -72.7047
28.843 -59.4598 -67.3331
94.3744 94.2839 -21.8055
65.0754 61.7272 -48.4639
141.68 116.202 61.3663
122.885 113.776 17.1966
121.071 18.6667 -13.3073
126.35 68.2349 -1.68233
145.469 38.8144 23.9549
120.914 -160.529 95.2744
109.272 -148.014 140.824
94.037 -191.709 118.16
128.156 -22.9295 189.087
123.192 -96.3689 166.075
146.727 -53.6877 142.778
53.2659 -149.093 176.47
91.177 -120.776 182.575
67.7513 -93.7775 206.583
53.0337 -213.359 126.998
80.8386 -213.158 81.2509
6.10075 -154.514 172.723
25.2975 -193.806 158.829
-19.598 -213.246 84.4655
1.5891 -218.009 128.401
-35.8018 -195.879 122.06
60.9072 -209.323 42.5222
99.0899 -191.499 48.8667
-41.6658 -194.03 44.0912
-4.22523 -210.215 41.5521
51.5799 -133.707 -34.0692
29.1974 -185 13.0113
7.36721 -134.667 -32.7105
104.55 -160.159 34.1556
120.382 -167.355 66.7913
59.9964 -97.483 -54.9549
81.3626 -116.725 -28.7558
137.812 -58.3677 19.1369
115.46 -87.5092 -6.78817
117.303 -44.9071 -15.4312
137.251 -121.762 88.2552
153.045 -2.16362 50.1191
148.401 -53.8728 71.6127
158.565 -51.0115 110.663
165.459 -5.79132 127.98
66.6723 -24.0713 230.751
109.12 5.08448 219.789
69.7956 25.642 242.863
-48.7335 -154.91 138.286
-30.71 -123.032 181.007
-63.1763 -96.8789 167.139
-24.8897 -118.166 -27.5521
-53.0853 -162.583 32.2242
-57.0436 -89.6269 -9.58546
88.1295 -18.7245 -48.4679
54.3681 -36.9001 -70.2317
54.3491 -0.535465 -72.3378
165.832 47.5201 119.433
164.114 43.6914 68.9147
164.02 85.5624 89.5363
-75.7046 134.328 104.241
-70.9034 137.564 126.873
-55.606 150.067 111.908
-91.4441 102.219 150.253
-82.9602 120.656 139.405
-97.6921 103.174 128.924
-36.3748 152.685 157.685
-60.961 138.032 149.829
-49.3146 135.608 171.349
-88.032 13.6445 180.754
-91.3111 32.6137 177.77
-99.1484 17.4912 163.135
-67.3614 59.8551 203.341
-79.8713 47.5615 191.73
-65.3889 35.7732 210.366
-101.41 67.6516 148.488
-92.9132 59.623 169.474
-94.8702 80.4953 160.881
17.9987 107.755 225.24
-4.61164 100.684 223.891
11.1493 82.8751 233.31
-33.8862 127.308 193.634
-19.8349 115.714 209.802
-10.5292 138.152 197.297
-31.3731 59.5997 227.86
-26.9064 88.8932 219.777
-47.5711 75.2168 213.686
-80.4898 96.5918 173.368
-65.1896 87.5483 195.071
-58.9353 113.502 184.847
-33.4512 163.284 114.142
-41.0964 158.711 86.6382
-12.6429 163.138 161.328
-23.9936 165.735 139.538
6.20127 175.677 87.368
-8.26796 172.269 114.518
16.7235 178.736 112.578
45.3185 107.038 225.758
30.6725 125.595 213.664
58.7076 154.149 183.3
45.0622 142.21 199.233
72.6527 136.216 198.389
15.212 143.264 199.127
1.9884 155.221 183.623
101.209 159.253 87.1147
93.4377 163.783 113.821
112.761 150.57 111.406
44.4033 178.751 112.484
69.3407 172.299 114.354
54.5757 175.785 87.9314
97.0373 152.067 157.49
84.676 165.794 138.921
73.8259 162.76 160.401
14.4967 168.618 165.448
45.3947 167.775 164.657
30.2528 173.193 139.134
-31.4805 162.657 61.1022
-51.1491 149.559 64.5067
15.0494 173.384 62.6224
-9.96417 171.005 60.5363
-32.3839 144.483 22.2153
-21.5154 160.211 40.1107
-10.7188 153.59 20.0896
112.045 148.564 64.8714
92.1821 161.396 62.6522
70.6299 152.968 19.785
81.5219 158.855 39.9312
93.389 143.299 21.8826
69.6078 170.116 61.5691
45.1641 173.518 62.7902
17.9349 93.8758 -36.4798
30.6416 112.532 -26.3752
43.8945 93.4394 -36.7933
2.90602 141.851 -0.539366
15.7159 128.676 -14.5257
-8.20963 124.62 -13.6834
68.8416 124.151 -13.8467
45.1224 128.619 -14.6114
57.479 141.727 -0.670008
30.3444 168.558 37.5436
44.9425 157.853 17.5481
15.603 157.863 17.656
-62.5085 134.628 49.9353
-70.8821 132.767 76.7726
-42.65 126.828 8.8559
-53.5 132.399 27.8666
-85.9069 99.8385 52.3652
-71.4017 117.014 37.4951
-76.1589 98.7712 27.925
13.2803 67.6657 -49.2147
-2.22325 88.411 -36.2509
-35.3734 70.537 -27.8005
-19.9311 80.647 -33.4643
-19.0718 51.2606 -42.8683
-16.1806 104.323 -25.0198
-28.2665 116.037 -11.3224
-81.3295 9.39309 13.1639
-75.2303 27.5816 0.507357
-72.7066 -1.7488 -4.99652
-78.2842 76.5381 18.0289
-76.7784 54.5811 9.95193
-87.8553 61.9358 33.2354
-51.9359 27.5598 -27.1212
-65.4338 41.8555 -10.1953
-53.2138 55.2944 -19.146
-48.5539 105.578 -3.83588
-51.6012 82.7949 -12.3979
-65.5467 91.9995 6.40257
-87.7582 118.966 92.6629
-98.2866 84.8431 68.4252
-94.9264 101.955 80.1729
-98.5943 103.76 105.956
-103.487 88.7548 118.056
-86.2354 -11.883 21.6134
-90.8667 16.4782 36.9893
-105.788 16.43 80.3768
-101.616 20.2782 61.0348
-102.712 -3.1454 76.3481
-96.3604 43.3493 48.4532
-98.3855 63.7042 56.6212
-104.2 14.1625 144.331
-104.941 -5.7495 145.475
-104.257 70.8043 130.419
-104.449 46.1714 139.131
-112.682 -12.2979 118.801
-108.692 7.61722 126.101
-106.851 7.25257 108.519
-104.154 68.7777 79.1427
-105.044 46.1807 90.1271
-104.378 72.4987 105.856
127.515 136.463 128.387
132.022 132.926 102.117
110.048 134.826 172.671
119.985 137.674 151.258
156.539 100.483 129.716
140.708 119.233 141.185
149.417 101.101 150.759
53.2265 83.6236 234.733
68.6196 100.036 226.065
106.984 77.2716 215.802
89.1066 90.2408 222.963
92.3047 62.3192 228.946
82.9013 114.371 212.759
95.9838 126.012 195.928
156.795 21.8815 163.08
149.53 35.4774 178.076
145.038 14.9107 182.331
153.769 78.0653 161.133
153.421 57.5578 170.298
162.579 64.3113 147.911
125.5 35.7514 211.366
139.991 47.4344 192.783
127.025 60.1288 204.889
118.625 113.437 187.268
123.668 88.2715 197.356
138.22 96.494 174.862
10.0829 54.404 243.908
31.8852 66.0803 241.024
-30.365 34.0511 233.59
-10.1654 43.2046 240.668
29.6074 20.4043 249.98
9.92109 29.2526 249.16
10.4359 13.1403 248.832
-84.1165 -11.4304 174.898
-74.5279 3.60988 194.077
-42.9129 -24.0682 212.781
-58.9641 -9.92048 205.084
-53.897 -43.0006 194.676
-62.7274 15.6778 210.18
-50.0629 24.753 222.494
30.5629 -85.2144 211.003
12.254 -71.1759 213.438
10.9149 -101.788 206.975
11.4753 -7.45496 242.117
12.234 -33.4236 232.426
28.8138 -18.2092 238.522
-20.6978 -82.9867 205.131
-7.09648 -56.8852 215.6
-22.3783 -41.7719 217.003
-28.6007 14.0774 233.712
-26.0191 -9.53994 228.37
-6.40322 3.70419 241.249
-105.66 -25.8323 135.039
-97.0807 -23.9903 153.154
-108.174 -23.1146 115.795
-109.404 -23.702 122.077
-80.8143 -79.679 136.826
-100.625 -47.7369 128.332
-85.3942 -79.6779 118.967
-79.0498 -33.6622 10.1951
-85.3314 -33.9439 28.0668
-77.9347 -97.1631 55.9688
-81.9916 -61.2046 36.588
-74.9567 -85.8977 27.6633
-91.6564 -28.7739 57.0441
-101.465 -24.93 90.3947
-58.811 -178.29 88.9423
-68.9052 -162.494 76.471
-62.076 -178.489 67.8325
-80.0339 -120.639 101.496
-76.1256 -142.209 87.237
-72.1339 -137.298 111.151
-69.5182 -149.532 56.9023
-75.8309 -145.613 70.5297
-78.7944 -129.529 68.8666
-94.8117 -56.8398 100.161
-81.4528 -102.362 77.996
-83.2757 -91.499 94.3895
-61.7341 -17.3046 -19.4507
-71.4669 -28.2212 -6.07984
-31.059 3.98039 -43.6797
-47.4269 -5.03014 -32.264
-46.7651 -63.2184 -31.9078
-46.3561 -32.8995 -34.9631
-31.7092 -44.5602 -45.8714
30.5752 46.49 -59.3188
16.798 34.9918 -63.3059
17.2875 -11.9572 -82.5255
18.0962 6.06785 -76.5097
28.5881 -4.8149 -81.5551
2.21697 25.401 -61.7463
-12.281 15.6592 -56.0309
13.6466 -103.925 -56.8371
12.1692 -81.9268 -62.7604
30.3872 -92.9725 -60.992
-14.1328 -59.5364 -56.03
-0.327485 -70.8666 -61.2663
-17.9463 -87.6749 -50.5687
28.1095 -28.6534 -82.3155
14.0759 -44.7502 -73.837
17.2421 -23.8534 -82.6781
-12.1698 -11.8548 -66.7703
2.71756 -18.154 -78.2086
-12.9441 -26.7621 -65.8585
63.472 87.5721 -37.5
49.1492 68.2026 -49.3976
89.403 115.43 -11.5335
77.0606 103.665 -25.5269
80.1798 53.948 -43.2
[...]
POINT_DATA 642
SCALARS Mean_Curvature double 1
LOOKUP_TABLE default
0.00854285
0.0105772
0.023201
0.0460632
0.0107268
0.00615099
0.0126616
0.00313938
0.0191853
0.00788868
0.0185317
-0.00861641
0.0302288
0.0170879
0.0155889
0.0129481
0.0210699
0.0127017
0.0141721
0.00865218
0.00785126
0.0141549
0.0149326
0.0270691
-0.0202855
0.0153926
-0.011404
0.016457
0.0750721
0.0116482
0.00852083
0.0100762
0.0224675
-0.0157196
0.0240712
0.0246732
-0.0130538
0.0276851
0.0182491
0.00909506
-0.0141109
0.018664
0.0171016
0.0144587
0.0138885
0.0143897
0.0157018
0.016414
0.0148918
0.0108785
0.00855074
0.0122222
0.0115307
0.015862
0.0167693
0.0138536
0.0135489
0.0151297
0.0168988
0.0142066
0.0138731
0.0189459
0.0171247
0.00710736
0.0170859
0.0174231
0.010079
0.0101711
0.0186817
0.00389242
0.0101855
0.000113201
0.0223559
-0.00250938
0.0138046
-0.00169102
0.0452538
0.0147692
0.0110528
0.0101904
0.01503
0.0111105
0.0124984
0.01426
0.0270663
0.0155131
0.0069365
0.00933137
0.0113993
0.00929986
0.0186388
0.031039
0.0149548
0.00867999
-0.00500028
0.00612506
0.0240541
0.0298936
0.014378
0.00515012
0.0337742
0.0142523
0.022065
0.0125053
-0.0101298
0.0180351
0.0181105
0.0132282
0.0184456
0.00158804
0.00956579
0.00667875
0.00368604
0.00658039
0.0187776
0.00816869
0.0162012
0.00175034
0.00373207
0.0154414
0.0185223
0.019623
0.0294666
-0.001315
0.0307775
0.0152137
0.0334528
0.024816
0.0250969
0.021698
0.025676
0.0229698
0.0217951
0.00557469
0.0193618
0.0125249
0.0263583
0.0273122
0.0126083
0.0178852
0.0140302
0.00336826
0.02082
-0.00138463
-0.00697241
0.0148157
0.0181605
0.0104129
0.0118823
0.0164682
0.00395752
0.0140683
0.0179782
0.0131249
0.0186673
0.0131398
0.0107044
0.00972756
0.0148985
9.34849e-05
0.0159515
0.0272643
0.0157193
0.0174011
0.00987534
0.0182968
0.0150381
0.0218454
0.0133948
0.011953
0.0141328
0.0167088
0.0140012
0.0269945
0.0117436
0.00882417
0.0193907
0.0137249
0.00673734
0.0199299
0.0175181
0.0143908
0.00571804
0.0136841
0.0123491
0.0158658
0.00929841
0.00935403
0.00999006
0.01504
0.0121022
0.0142841
0.0105438
0.00870323
0.0172345
0.0192836
0.00623598
0.00651018
0.0169038
0.014469
0.00777236
0.0156419
0.0105
0.0132505
0.0139056
0.0180942
0.0131603
0.013469
0.00814185
0.0169695
0.00654939
0.00667521
0.0127472
0.0205592
0.0173361
0.0232459
0.018691
0.00117334
0.0198227
0.0135736
0.00520725
0.0209606
0.0137292
0.0162307
0.0147168
0.0128824
0.0159677
0.0141647
0.0127737
0.0136022
0.0160731
0.00679003
0.00703252
0.00733992
0.00617506
0.0158426
0.0117702
0.0154764
0.0145858
0.012203
0.0167204
0.0154917
0.0161189
0.0151387
0.0138418
0.00583208
0.0155086
0.01696
0.00880858
0.0157995
0.0132134
0.0150293
0.00979689
0.00626389
0.012434
0.00523299
0.0172546
0.0153524
0.0010994
0.0165664
0.0133598
0.0146978
0.00747867
0.0058594
0.0171556
0.0122525
0.00936049
0.0158633
0.0134719
0.01528
0.0167074
0.016005
0.0142151
0.0203012
0.0208773
0.0152261
0.00177887
0.0140021
0.0142276
0.00784631
0.00641135
0.0128328
0.002069
0.0224559
0.0096404
0.0108175
0.0586567
0.0138469
-0.00562496
0.0174741
0.00284774
0.0031983
0.0112779
0.00539248
0.0155952
0.0147366
0.0201534
0.0150185
0.0153625
0.0116025
0.0169863
0.00903628
0.0186431
0.00880944
0.0160278
0.0159312
0.0137606
0.00925494
0.0112522
0.0126353
0.0150874
0.0189912
0.017954
0.0137097
0.0115601
0.0164855
0.0111823
0.0123873
0.0153953
0.00581218
0.0137745
0.00940856
0.0179839
0.0213235
0.0288818
0.00326907
0.00868365
0.010103
0.00809207
0.0130124
0.0127062
0.0193301
0.00593945
-0.00646465
0.0191807
0.0132249
0.014013
0.00549428
0.0257468
-0.00159166
0.0135498
0.0141753
0.00959396
0.0120958
0.0165958
0.0135109
0.00164246
0.0430347
0.00255559
0.0232929
-0.000903525
0.00967509
0.00873327
0.00189106
0.00499122
0.0123888
8.42278e-05
0.00272257
0.0113438
0.015064
0.0305448
0.0124922
0.0157237
0.00916395
0.00894581
0.0362076
0.0251752
0.00231926
0.00769608
-0.00489296
0.0117155
0.0146868
-0.00483268
0.00471783
0.0136932
0.00941242
0.000912923
0.00992737
0.0121695
0.0372677
0.0170767
0.0271278
0.00936599
0.00260111
0.0263298
0.0199112
0.0126155
0.00149317
0.00790182
0.0208817
0.0275796
0.0201456
0.03917
0.021501
0.0460694
0.0167363
0.0125685
0.0145326
0.015718
0.0164888
0.0100201
0.0119275
0.00946662
0.0107444
0.0151879
0.0152524
0.0163275
0.0106959
0.0174289
0.0158812
0.00805275
0.0123007
0.00273595
0.0139552
0.0145894
0.00910004
0.00488719
0.0119091
0.00858222
0.0168416
0.0164466
0.0115395
0.0338025
0.00692223
0.0235467
0.0136256
0.00447272
0.0138897
0.0256764
0.00870376
0.00579775
0.00650375
0.00455531
0.00748689
0.0254911
-0.0195705
0.0128004
0.0129837
0.010209
0.0192965
0.00784158
0.0173525
0.0198632
0.000927966
0.0106078
0.0134879
0.0232095
0.0162467
0.015605
0.0167257
0.0191782
0.0122027
0.0147706
0.0339046
0.0246031
0.0253678
0.0162216
0.00816692
0.0357755
0.007518
-0.00552776
0.0425
0.011506
0.0165697
0.00426098
0.0228699
0.0159669
0.0170502
0.0231253
0.0372565
0.0298094
0.00227282
0.0248158
0.0268004
0.0286965
0.0191868
0.0234452
0.024827
0.0260922
0.0265849
0.0177358
0.0220822
0.0223719
0.0224594
0.0223517
0.0260217
0.0263581
0.0289366
0.0298341
0.027089
0.0285855
0.0156754
0.0224568
0.00889571
0.0212343
0.0200058
0.00322888
-0.00145922
-0.00963294
0.00232841
0.020403
0.0132146
0.0123881
0.0180475
0.0379582
0.0548424
0.0157342
0.0316723
0.00145373
0.015448
-0.00721439
0.0307597
0.0269535
0.0178917
0.022973
0.0167286
0.017088
0.00816492
0.00329363
0.00979499
0.0106351
0.0129999
0.015008
0.013373
0.00876588
0.0105187
0.014201
0.00211789
0.010968
0.00917619
0.0284174
0.00865699
0.0129852
0.0127758
0.0191644
0.0129463
0.00609128
0.0175911
-0.00293456
-0.00399582
0.0123098
0.0025471
0.0173153
0.00141571
0.000341798
0.014524
0.0103288
0.0259811
0.0269994
0.00596759
0.0171227
-0.00217985
-0.00588674
0.0150542
-0.001494
0.00955265
0.0101351
0.011853
0.0238181
0.0182863
0.0096185
0.0110201
0.012612
0.0232899
0.0237271
0.0114865
0.0207649
0.00998347
0.0130541
0.00452981
0.0219342
0.00799921
0.0156472
0.00424138
0.0091148
0.0165023
0.0137842
0.0142321
0.00863273
-0.00187429
0.0101147
0.0232048
-0.0047119
-0.0108875
0.02339
0.0091935
0.0182792
0.0163919
0.0226404
-0.0037079
0.0159364
0.0197026
0.0203568
0.0297757
0.00729968
0.02768
0.0294576
0.019715
0.00619603
0.0173646
0.0122987
0.0128007
0.00850683
-0.00404266
0.00477429
0.0133367
0.0136557
0.00927222
0.00396462
0.00447742
-0.00331375
0.0263399
0.0356185
0.0160338
0.00393626
0.000368581
0.0107365
0.00330211
0.00850836
0.0183371
0.0282257
0.0135135
0.0377046
0.0151235
0.0212489
-9.30629e-05
0.0086243
0.014632
0.0143435
0.00431698
0.00295887
0.00656746
0.013826
0.0213468
0.0131022
0.0225147
0.0102237
0.0218925
0.0225383
0.00479979
0.0177778
0.00495122
SCALARS CoVolArea double 1
LOOKUP_TABLE default
444.771
439.022
287.39
178.905
402.505
430.727
231.578
440.788
338.385
357.324
306.879
355.834
383.517
554.784
613.331
638.075
659.991
546.536
537.267
730.068
523.524
418.221
547.902
417.147
779.935
392.481
705.453
645.272
145.606
491.929
490.016
637.738
456.213
722.414
446.842
392.518
739.81
464.564
522.67
520.09
1014.43
434.049
485.798
626.68
602.213
437.879
570.805
515.461
586.871
670.189
646.303
698.676
679.918
601.549
630.3
655.156
697.797
581.845
611.366
519.327
542.259
614.154
499.924
614.31
501.012
505.119
576.277
598.604
479.018
612.882
512.621
552.46
431.023
695.354
519.992
748.242
265.801
607.945
593.767
568.267
597.005
441.733
599.792
419.112
418.94
510.634
720.354
520.14
691.194
616.919
513.351
471.642
568.972
528.158
1143.44
504.009
380.416
269.307
551.153
523.685
374.786
404.891
357.645
446.786
565.708
483.008
532.519
522.798
488.839
582.218
499.895
578.497
489.687
686.949
450.495
697.894
492.679
696.658
677.547
582.511
490.828
530.282
476.47
650.621
389.846
569.257
409.434
399.781
519.838
372.743
362.612
514.59
562.42
740.181
638.924
541.397
193.493
308.364
628.314
411.512
554.769
552.877
517.968
719.439
869.931
458.064
427.263
683.039
471.586
460.532
684.871
658.218
541.757
705.19
507.367
617.336
600.093
496.282
442.545
608.666
489.85
413.373
527.345
563.267
586.393
518.418
533.775
427.503
587.839
595.653
652.682
421.805
488.194
416.024
597.944
525.32
445.66
415.553
512.776
476.018
550.017
596.88
588.413
646.745
593.878
571.482
630.076
636.918
667.118
638.359
698.837
713.953
678.605
608.622
613.979
610.477
665.686
697.988
704.399
543.343
632.094
650.836
634.634
604.424
602.026
597.947
564.8
625.258
589.348
696.055
665.263
655.404
577.402
586.797
636.034
713.321
736.242
808.606
550.684
550.506
702.259
585.036
517.941
510.64
568.974
527.614
573.421
574.254
551.321
532.148
611.065
699.966
538.205
564.167
524.81
575.396
544.927
477.333
483.688
543.018
570.267
716.21
652.74
664.688
566.692
570.829
533.137
504.439
528.182
518.279
514.219
551.051
510.049
570.2
499.472
662.995
446.413
504.538
539.55
546.314
473.631
504.119
516.166
518.751
608.227
510.084
572.099
542.244
548.636
527.134
528.961
493.339
496.128
429.903
386.338
515.132
657.602
605.441
569.705
641.26
554.078
489.294
482.394
393.577
438.527
562.778
198.161
502.114
654.497
518.166
786.649
557.619
611.149
617.764
631.234
576.812
473.343
546.046
546.152
548.691
537.995
622.933
537.809
576.791
551.151
624.362
442.174
461.219
420.74
531.393
483.702
396.714
431.182
494.121
608.001
673.922
685.962
665.321
605.162
596.9
525.983
561.149
349.928
422.232
346.713
547.876
507.177
713.571
575.577
756.444
433.187
446.884
599.584
707.921
505.535
443.883
636.247
496.945
571.278
689.235
751.073
507.937
643.507
479.567
359.436
484.721
364.634
197.694
607.868
458.138
723.029
422.974
622.764
847.993
846.565
722.691
921.687
838.69
387.552
371.267
315.284
644.693
432.399
579.812
331.031
271.991
433.17
826.808
691.496
654.038
553.191
440.837
713.335
628.238
491.011
591.587
628.232
514.098
524.566
203.817
360.621
219.045
596.786
717.245
325.758
483.651
417.15
633.793
488.743
412.245
303.825
447.852
220.845
474.379
277.9
498.922
483.464
518.258
510.12
454.964
564.711
463.709
515.329
556.903
534.132
485.94
483.6
455.944
499.75
530.824
517.081
528.402
509.94
510.741
473.657
581.485
560.967
505.177
511.131
533.69
520.124
539.664
268.435
487.625
353.505
580.187
649.439
555.331
398.086
529.226
586.756
537.978
829.004
607.185
619.035
806.653
731.048
486.565
639.736
423.759
649.492
522.233
480.901
635.342
593.384
516.799
543.393
449.741
492.778
579.621
519.976
722.742
493.746
334.387
451.15
483.59
591.739
560.091
548.726
671.161
753.626
325.279
426.493
424.124
509.305
438.539
469.464
499.064
421.531
498.233
466.413
647.712
370.62
392.671
382.897
530.047
467.944
506.009
393.781
292.862
709.102
481.712
358.335
408.006
413.47
362.891
452.275
387.128
371.28
319.222
526.168
747.377
336.428
685.193
364.457
596.099
835.833
667.42
679.199
875.011
591.913
683.732
591.623
578.679
262.618
188.159
538.473
307.79
517.946
296.026
750.025
286.695
318.283
400.44
331.635
408.214
527.147
738.399
450.821
457.75
477.569
790.771
424.803
634.308
533.683
439.413
434.517
850.934
692.857
832.871
240.027
759.261
302.114
423.946
546.866
533.035
632.742
546.617
813.07
576.627
670.273
970.595
531.691
479.12
554.538
515.678
415.533
352.124
320.916
826.33
595.826
646.669
702.791
730.341
693.831
675.103
523.911
457.64
413.276
382.504
510.17
662.741
578.903
408.942
430.314
539.727
508.7
666.53
523.562
585.861
427.993
572.141
441.31
568.352
633.298
576.835
537.296
501.186
635.456
655.599
752.632
542.179
694.765
813.824
634.263
788.153
564.551
634.713
378.048
742.407
605.35
390.635
417.177
311.624
564.859
272.225
301.353
509.829
480.49
409.628
426.059
537.833
769.501
879.084
846.182
748.284
598.242
642.539
619.843
668.71
736.222
437.95
247.142
455.366
487.972
667.087
509.877
695.023
569.63
377.57
225.053
542.195
323.949
541.799
459.405
688.746
523.777
415.573
399.455
589.145
507.588
574.5
519.161
529.017
594.611
422.023
509.202
463.865
409.928
650.466
459.367
505.917
SCALARS SignedDistance double 1
LOOKUP_TABLE default
35.8906
35.8142
37.2201
39.0348
42.2671
37.0189
39.0963
40.7426
45.8986
44.3639
45.1607
44.5731
41.866
37.2256
32.157
32.5792
33.3754
36.5183
36.351
43.8536
43.4412
46.5524
37.2713
40.8511
47.8913
41.6335
50.3108
45.7678
39.373
42.7522
44.222
45.4759
45.4432
46.7957
40.1302
41.2985
42.5614
40.9253
45.163
43.7724
50.3697
46.9482
35.9257
34.1836
33.6356
41.2048
38.2995
40.9047
33.5631
35.8014
37.3061
34.538
33.4127
33.0366
31.4799
33.4462
34.674
34.0261
34.0653
35.1001
35.1606
33.8778
39.0417
37.0076
39.0826
38.2159
38.6611
41.8627
40.0668
45.8691
42.6116
45.2329
42.5686
48.7463
44.6458
44.5004
43.711
34.9281
36.7611
37.2895
35.255
41.7738
38.0631
41.6555
39.5731
38.3691
43.5736
41.6991
43.7746
42.4805
43.2814
47.2164
43.2366
46.779
48.9043
41.5801
48.7462
44.3375
45.2941
45.0809
40.2819
41.2486
39.9933
42.7736
45.1582
40.2062
41.935
38.7699
38.3277
46.1352
42.6018
45.9315
43.9706
40.9699
38.5364
44.1214
45.4513
48.8195
43.4578
40.2209
42.9133
32.7017
31.9638
44.7072
41.1129
31.9677
30.6782
36.9148
33.3335
38.7928
35.5566
33.9352
38.1975
43.2535
38.634
50.8177
47.0842
40.968
40.9209
46.4138
44.2464
46.1952
45.2025
49.156
49.0717
47.5091
43.9784
42.3234
41.6658
40.4864
41.1035
40.3533
44.9055
40.2079
47.0012
43.5811
45.8599
43.6228
41.5854
44.3848
43.9185
42.4747
35.0088
33.8771
34.6553
35.4664
34.7089
37.6863
32.7508
33.6531
33.1418
42.5749
40.4829
43.3146
38.5197
39.5276
39.9657
41.4762
39.9904
39.4919
35.1609
35.7119
37.9758
33.7106
34.8712
32.6436
37.6094
36.3653
36.8529
36.1126
36.5171
34.5644
33.9912
34.647
31.7239
31.8434
34.6895
34.6043
33.7009
35.2623
33.8831
31.7885
33.2556
32.7595
33.308
31.5624
34.5117
33.796
35.3666
33.6918
34.6302
34.6328
32.9762
31.9286
31.7424
31.0877
31.4398
33.8776
33.8804
35.3843
34.9345
33.8404
35.5332
34.4692
35.0489
35.4812
34.5172
35.2663
34.7996
35.6395
33.68
34.9064
41.3486
39.5246
41.4434
36.2069
37.9692
37.6175
37.6045
38.005
36.1928
33.9068
35.4504
35.3866
36.3792
37.0487
36.6788
35.8897
41.2669
38.712
40.7512
41.2227
41.2347
42.5743
42.3374
42.8674
38.9268
37.8321
46.2379
45.2108
44.3392
43.2424
44.3333
44.656
44.9499
42.746
42.2592
39.2342
41.9293
40.8219
37.1596
41.662
38.527
38.7384
43.1711
46.0451
47.0901
45.6438
45.4289
47.4723
45.1653
44.0765
44.8723
43.0409
43.9878
44.1733
47.0715
45.6153
46.247
43.8665
44.796
44.1161
35.5763
36.3474
33.015
33.8286
37.5567
35.4606
36.1051
36.6314
35.412
37.0366
35.9463
37.168
33.535
32.8684
42.7068
42.1721
43.0107
38.5725
40.6176
41.2805
39.727
40.3345
38.3492
34.6486
36.8869
36.8985
36.6581
37.5512
39.643
38.0417
39.4713
38.6781
40.5503
44.0289
42.7991
42.7395
42.6376
44.8388
41.331
40.741
46.7858
46.6254
43.0889
42.0241
42.3978
43.2286
48.1605
46.207
44.5458
41.207
41.8902
41.5248
43.23
42.5971
46.171
46.2329
48.4888
44.0173
49.9583
45.9448
46.7338
51.8358
48.3812
45.0522
49.6735
47.976
40.625
41.7188
39.6535
47.6174
44.0096
42.5835
44.6937
44.2029
49.3788
48.8152
51.893
50.8692
44.3665
44.6422
46.3632
45.221
43.1794
44.0837
44.4545
43.0713
42.2082
39.964
40.6593
40.274
43.2396
45.0652
39.5848
44.7149
42.9261
43.7327
44.1679
41.5637
40.1465
43.6755
40.0051
43.0845
40.4281
43.5676
40.5186
41.5915
37.7676
38.9169
43.7137
41.6296
42.0233
36.6828
36.3211
41.4292
38.8506
41.5806
35.8706
36.6558
45.1028
45.2644
46.1547
42.7567
44.1369
45.4283
44.6729
43.9481
43.6111
39.4008
41.4252
42.1832
43.3058
41.933
38.0645
41.3789
41.7447
42.45
38.2501
41.9076
41.495
44.3209
46.4358
44.4888
46.9385
48.9267
44.8688
51.2945
52.0924
46.203
41.3347
40.6603
43.0585
41.9976
41.359
42.0151
45.5942
41.3391
42.6025
41.3603
42.1129
40.1184
35.0051
34.4957
35.2847
34.3217
37.4
33.1205
37.2935
41.3097
44.7446
40.793
45.6111
45.1544
43.6069
40.1407
34.1701
33.1921
36.137
34.3283
33.2681
39.3131
37.9701
33.4582
35.3593
36.04
35.5944
31.3834
33.7615
37.8682
36.3951
32.2369
40.9538
35.1025
37.5644
35.2843
32.525
36.2406
33.0712
37.7475
32.5536
36.9578
38.4425
38.5446
38.4229
42.8467
49.3937
50.7259
49.7777
49.7542
42.8217
33.9277
37.5763
37.7344
44.8019
44.2735
48.9028
46.2165
46.936
47.559
50.6272
39.6155
38.4363
42.4006
40.3545
42.6518
39.2039
50.9987
46.6931
46.3576
46.0735
45.114
44.7956
45.6828
44.6336
45.0951
44.2873
51.1881
42.6469
48.0194
46.8275
46.5023
46.347
44.2051
46.3148
46.5002
48.069
46.8668
48.843
47.7124
49.65
50.7371
43.4389
44.4801
52.0181
47.5464
45.4061
44.3835
45.1511
52.034
48.4643
50.9523
46.7529
43.8437
45.2818
42.9331
42.5724
42.8564
39.9183
41.1691
42.8638
42.8107
37.1658
40.619
38.7978
37.9111
39.0784
41.7657
41.3544
42.2077
40.8368
41.6008
40.7752
41.624
41.7459
40.5737
42.8347
41.3666
42.1398
42.8124
43.5247
44.1991
48.5916
48.818
48.4751
40.5918
41.8143
40.1286
38.2083
49.3504
39.4516
39.3405
40.7663
40.229
48.0881
45.5634
41.5682
43.1426
45.7137
43.4243
44.2145
44.8368
45.5055
49.8257
48.6567
41.47
45.0856
44.0317
45.4007
45.7922
46.9863
44.2212
40.5465
44.5207
43.9794
43.3254
42.986
46.0507
44.2439
40.4257
40.4054
44.5315
41.653
43.9162
43.6765
44.9367
45.0363
43.9786
44.1334
47.5939
44.7446
45.3905
47.1782
45.9616
36.9643
42.5589
38.45
39.1894
43.2077
44.6759
44.2731
44.1168
