# vtk DataFile Version 4.2
vtk output
ASCII
DATASET POLYDATA
POINTS 642 double
-31.1226 19.2592 -81.6316
-29.6005 19.2567 -81.6324
-31.102 16.657 -81.6517
-29.6256 16.6649 -81.6539
-30.3611 17.1994 -80.4854
-30.3571 18.7847 -80.3995
-30.3618 17.2042 -82.8389
-30.3599 18.7327 -82.8321
-29.2408 17.9846 -82.3516
-29.2035 18.007 -80.912
-31.4857 17.978 -82.358
-31.5247 18.0033 -80.9136
-31.509 18.7346 -81.1927
-31.0667 18.4552 -80.4839
-30.8144 19.2203 -80.8921
-29.9049 19.2184 -80.891
-30.3599 19.5016 -81.6322
-29.9208 19.1778 -82.3532
-30.7987 19.1795 -82.3534
-31.027 18.4179 -82.7645
-31.4758 18.72 -82.0612
-31.707 17.9895 -81.6256
-29.6531 18.4575 -80.4829
-29.2165 18.7307 -81.1923
-31.04 17.5393 -80.5325
-30.3594 18.0089 -80.2336
-31.4392 17.206 -82.0587
-31.4538 17.2228 -81.2326
-30.3625 17.9635 -83.0469
-31.0187 17.5176 -82.7697
-29.2464 18.7192 -82.0611
-29.6939 18.4215 -82.7602
-29.2751 17.2325 -81.2305
-29.681 17.5427 -80.5335
-29.9404 16.7304 -80.9632
-30.7869 16.7193 -80.9607
-30.3641 16.4121 -81.6409
-30.8004 16.7297 -82.3413
-29.9292 16.7365 -82.3365
-29.7104 17.5207 -82.7635
-29.295 17.2177 -82.0542
-29.0224 17.9958 -81.6299
-31.3486 19.0505 -81.4115
-31.2143 19.0242 -81.0143
-31.0067 19.2938 -81.2698
-31.3505 18.2252 -80.6773
-31.339 18.6276 -80.7979
-31.5598 18.361 -81.0193
-30.5795 19.0312 -80.586
-30.9745 18.8778 -80.6345
-30.708 18.654 -80.389
-30.601 19.4372 -81.2376
-30.785 19.4318 -81.633
-30.1369 19.0304 -80.5845
-30.3592 19.2888 -80.8484
-29.9356 19.4302 -81.6325
-30.1188 19.436 -81.2378
-29.7154 19.2915 -81.2695
-30.5971 19.4109 -82.0213
-30.9938 19.2732 -81.9899
-29.7265 19.2704 -81.9901
-30.1232 19.4099 -82.0212
-30.5708 18.9822 -82.6459
-30.3598 19.2422 -82.3935
-30.1484 18.9817 -82.6456
-31.1842 18.9976 -82.2378
-31.3334 19.0408 -81.8466
-30.689 18.6057 -82.8494
-30.9454 18.8385 -82.6037
-31.5206 18.3443 -82.2377
-31.2947 18.6028 -82.4503
-31.306 18.1948 -82.5828
-31.5529 18.7654 -81.6254
-31.6362 17.9862 -82.026
-31.6509 18.3782 -81.8502
-31.6661 18.3841 -81.4021
-31.6637 17.9955 -81.2391
-29.5088 19.0218 -81.012
-29.3769 19.0465 -81.4118
-30.0076 18.6556 -80.3877
-29.7441 18.8771 -80.6308
-29.1664 18.3614 -81.0188
-29.3846 18.6265 -80.7957
-29.3727 18.2267 -80.6764
-30.725 18.2406 -80.2886
-30.358 18.4261 -80.2654
-31.333 17.7811 -80.6979
-31.0852 18.0074 -80.4512
-30.36 17.5795 -80.3205
-30.7177 17.7704 -80.319
-30.6931 17.3341 -80.4614
-31.6407 17.597 -81.4193
-31.5322 17.6318 -81.0439
-31.502 17.6099 -82.2426
-31.624 17.5833 -81.8541
-31.2973 16.8781 -81.45
-31.5038 17.1711 -81.6516
-31.3017 16.8763 -81.8591
-31.0469 17.9656 -82.8259
-31.2977 17.7482 -82.5865
-30.3613 18.3705 -82.9849
-30.7025 18.1906 -82.9761
-30.6855 17.3286 -82.8557
-30.7018 17.7362 -82.9767
-30.3622 17.5561 -82.9858
-29.774 18.8378 -82.6023
-30.0308 18.607 -82.8472
-29.3883 19.0375 -81.8496
-29.5353 18.9954 -82.2377
-29.4184 18.2006 -82.5766
-29.427 18.6037 -82.4478
-29.2038 18.3472 -82.2344
-29.4346 16.8878 -81.4537
-29.5653 16.9325 -81.0756
-29.748 16.642 -81.3139
-29.3918 17.7843 -80.6975
-29.4303 17.3556 -80.8458
-29.1984 17.6334 -81.0428
-30.1587 16.9351 -80.68
-29.7846 17.0991 -80.7103
-30.0276 17.337 -80.4618
-30.1341 16.4913 -81.2723
-29.9437 16.4865 -81.6482
-30.5678 16.9293 -80.6819
-30.3676 16.6538 -80.9178
-30.7816 16.4796 -81.6445
-30.5977 16.4839 -81.2678
-30.9791 16.6302 -81.3058
-30.1246 16.4997 -82.0198
-29.7383 16.6429 -81.9874
-30.9899 16.6358 -81.9935
-30.602 16.4959 -82.0219
-30.1558 16.9525 -82.643
-30.364 16.6714 -82.3797
-30.5706 16.9494 -82.6432
-29.5694 16.9249 -82.2163
-29.4351 16.883 -81.8525
-30.0403 17.33 -82.853
-29.7949 17.1008 -82.5994
-29.2268 17.62 -82.2374
-29.4567 17.3458 -82.4471
-29.4299 17.7545 -82.579
-29.2315 17.1799 -81.6465
-29.0914 17.9928 -82.0234
-29.1051 17.5953 -81.8526
-29.0918 17.6007 -81.4188
-29.0677 18.0018 -81.2383
-30.0012 17.7715 -80.3201
-29.6342 18.0094 -80.4516
-29.9922 18.2428 -80.2886
-31.1595 16.9189 -81.0744
-30.9377 17.0894 -80.7112
-31.2943 17.3488 -80.8453
-30.9352 17.0939 -82.6014
-31.1665 16.9151 -82.2255
-31.2747 17.3364 -82.4523
-29.6783 17.9697 -82.8188
-30.0245 17.7367 -82.9718
-30.021 18.1928 -82.9721
-29.0603 18.3853 -81.4034
-29.0741 18.38 -81.8507
-29.1704 18.7615 -81.6293
-31.2344 19.1743 -81.5292
-31.191 19.1827 -81.3315
-31.0774 19.2863 -81.4658
-31.3796 18.8869 -81.0999
-31.2966 19.0451 -81.208
-31.4415 18.9037 -81.2988
-30.9189 19.2728 -81.0774
-31.1164 19.1727 -81.1312
-31.0219 19.1382 -80.9442
-31.4549 18.1066 -80.7991
-31.4668 18.303 -80.8382
-31.5503 18.1676 -80.955
-31.2123 18.5468 -80.6264
-31.3514 18.4307 -80.7238
-31.2218 18.3413 -80.5711
-31.5466 18.551 -81.0989
-31.4633 18.5031 -80.9059
-31.4399 18.6902 -80.9904
-30.4586 18.905 -80.4729
-30.6545 18.8531 -80.4757
-30.5191 18.7315 -80.3834
-30.9008 19.0643 -80.7516
-30.7839 18.9693 -80.602
-30.6988 19.1378 -80.7255
-30.8917 18.5615 -80.4223
-30.8499 18.7709 -80.4984
-31.0297 18.6707 -80.5441
-31.2911 18.8358 -80.8949
-31.1705 18.7616 -80.704
-31.1053 18.9652 -80.8124
-30.8969 19.3815 -81.4435
-30.9756 19.35 -81.6326
-30.7148 19.3455 -81.0541
-30.8098 19.3803 -81.2437
-30.5786 19.4832 -81.6327
-30.6923 19.4522 -81.4352
-30.4806 19.4894 -81.4351
-30.2563 18.9047 -80.4723
-30.3581 19.0492 -80.5771
-30.1255 19.2699 -80.8588
-30.2417 19.1743 -80.7079
-30.019 19.1362 -80.724
-30.4759 19.1747 -80.7085
-30.5932 19.2708 -80.8594
-29.7461 19.348 -81.6325
-29.8244 19.3798 -81.4435
-29.6459 19.284 -81.466
-30.2389 19.489 -81.435
-30.028 19.451 -81.4351
-30.1415 19.4822 -81.6322
-29.8019 19.2705 -81.0766
-29.911 19.3783 -81.2438
-30.005 19.3442 -81.0538
-30.4819 19.3834 -81.0334
-30.2372 19.3829 -81.0333
-30.3596 19.4573 -81.232
-30.8918 19.3704 -81.8206
-31.0701 19.2773 -81.7973
-30.4802 19.4752 -81.8286
-30.6898 19.4395 -81.8289
-30.9033 19.241 -82.1761
-30.8013 19.3559 -82.0153
-30.7054 19.3099 -82.1978
-29.6514 19.2745 -81.7978
-29.8291 19.368 -81.82
-30.0146 19.3084 -82.1978
-29.9191 19.3537 -82.0151
-29.8165 19.2387 -82.1761
-30.0306 19.4378 -81.8283
-30.24 19.4747 -81.8284
-30.4558 18.8543 -82.7561
-30.3596 18.9989 -82.6533
-30.2635 18.8543 -82.7558
-30.5856 19.226 -82.3838
-30.4722 19.1257 -82.5275
-30.6857 19.0913 -82.5122
-30.0337 19.0903 -82.5119
-30.2471 19.1254 -82.5275
-30.134 19.2252 -82.3837
-30.3601 19.4308 -82.0273
-30.2409 19.3447 -82.2175
-30.479 19.3452 -82.2175
-31.1752 19.1676 -81.9287
-31.2281 19.169 -81.7316
-30.9987 19.1038 -82.3045
-31.0951 19.1473 -82.1246
-31.4163 18.8909 -81.9567
-31.2714 19.0267 -82.0492
-31.3453 18.8674 -82.1543
-30.5125 18.6801 -82.8512
-30.641 18.8047 -82.7563
-30.9943 18.6341 -82.696
-30.8249 18.7277 -82.7375
-30.8607 18.5185 -82.8206
-30.765 18.9239 -82.6327
-30.8785 19.0225 -82.4888
-31.5102 18.1473 -82.3083
-31.423 18.2802 -82.4199
-31.4126 18.0784 -82.4672
-31.3986 18.6705 -82.262
-31.42 18.4827 -82.3477
-31.51 18.5354 -82.1556
-31.1782 18.3083 -82.6833
-31.3064 18.4047 -82.5283
-31.1694 18.5167 -82.6197
-31.0738 18.9309 -82.4321
-31.1317 18.7301 -82.5389
-31.2521 18.8098 -82.3539
-31.3582 19.0524 -81.6287
-31.5279 18.7522 -81.8485
-31.4578 18.9089 -81.7401
-31.4672 18.9135 -81.5141
-31.546 18.76 -81.4038
-31.5641 17.9818 -82.212
-31.5932 18.1728 -82.1314
-31.6944 18.1846 -81.7377
-31.6578 18.1836 -81.9357
-31.6852 17.9888 -81.8288
-31.5977 18.371 -82.0474
-31.5776 18.5575 -81.9598
-31.6261 18.1855 -81.1292
-31.5995 18 -81.0583
-31.6019 18.568 -81.2929
-31.6269 18.3826 -81.2075
-31.7006 17.9915 -81.4277
-31.6794 18.1889 -81.3206
-31.7017 18.1856 -81.5144
-31.6177 18.5793 -81.7396
-31.6757 18.3863 -81.6253
-31.6257 18.583 -81.5105
-29.5335 19.1797 -81.3309
-29.4903 19.1709 -81.5302
-29.6986 19.1359 -80.9422
-29.6062 19.1701 -81.1297
-29.2843 18.8994 -81.2985
-29.4284 19.0417 -81.2065
-29.3457 18.8838 -81.0982
-30.1952 18.732 -80.3824
-30.0607 18.8529 -80.4734
-29.6899 18.6719 -80.5416
-29.8669 18.7715 -80.4953
-29.8262 18.5641 -80.4212
-29.9329 18.9681 -80.599
-29.8176 19.0624 -80.749
-29.1771 18.1709 -80.9541
-29.2583 18.3041 -80.8373
-29.2711 18.1091 -80.798
-29.2853 18.6875 -80.9889
-29.2607 18.5017 -80.9042
-29.1782 18.5484 -81.0982
-29.4993 18.3428 -80.5702
-29.3714 18.4309 -80.7223
-29.5093 18.5476 -80.6244
-29.6155 18.9635 -80.8093
-29.5513 18.7612 -80.701
-29.4328 18.834 -80.8924
-30.5377 18.5395 -80.3095
-30.3572 18.6254 -80.3267
-30.9039 18.3535 -80.3708
-30.7259 18.4486 -80.3251
-30.3588 18.2203 -80.2339
-30.5425 18.3311 -80.2603
-30.5402 18.1248 -80.2421
-31.4466 17.9022 -80.8082
-31.3469 18.0065 -80.6717
-31.0703 17.7735 -80.4786
-31.216 17.8905 -80.5623
-31.1974 17.6589 -80.6049
-31.2247 18.1221 -80.5503
-31.0853 18.2351 -80.4532
-30.3603 17.369 -80.4006
-30.5321 17.4579 -80.3758
-30.5139 17.2544 -80.4642
-30.5385 17.8908 -80.2592
-30.5383 17.6776 -80.3036
-30.3599 17.7939 -80.264
-30.8694 17.4288 -80.4829
-30.7136 17.5517 -80.3801
-30.8876 17.6501 -80.4122
-30.9139 18.1257 -80.3531
-30.9077 17.8877 -80.3675
-30.7254 18.0077 -80.2862
-31.6136 17.81 -81.1419
-31.5378 17.8343 -80.9682
-31.69 17.7958 -81.5196
-31.6671 17.7992 -81.3309
-31.5031 17.4267 -81.1317
-31.5994 17.6056 -81.2296
-31.5591 17.4026 -81.3226
-31.5017 17.8101 -82.3115
-31.5823 17.7921 -82.1353
-31.5424 17.3834 -81.9633
-31.5744 17.586 -82.0522
-31.4818 17.4064 -82.1571
-31.6445 17.7883 -81.9379
-31.6809 17.7919 -81.7386
-31.199 16.7469 -81.5579
-31.3164 16.8701 -81.6557
-31.2026 16.7472 -81.7499
-31.4925 17.1865 -81.4397
-31.4146 17.0181 -81.5487
-31.3826 17.0365 -81.3421
-31.3804 17.0274 -81.9604
-31.4145 17.015 -81.7605
-31.4858 17.1757 -81.8586
-31.648 17.5842 -81.6346
-31.5758 17.3677 -81.7523
-31.5826 17.3762 -81.5352
-31.3059 17.9712 -82.6006
-31.408 17.8713 -82.4692
-31.0436 18.1935 -82.8085
-31.1819 18.0839 -82.7166
-31.1683 17.6299 -82.6878
-31.1787 17.8523 -82.7184
-31.0395 17.7384 -82.811
-30.3604 18.5707 -82.9119
-30.5286 18.4858 -82.9342
-30.5312 18.0762 -83.0302
-30.5324 18.2778 -82.9973
-30.3621 18.1686 -83.0307
-30.7033 18.3982 -82.9246
-30.8695 18.3072 -82.8846
-30.5115 17.2552 -82.8579
-30.5284 17.4426 -82.9384
[...]
POINT_DATA 642
SCALARS Mean_Curvature double 1
LOOKUP_TABLE default
1.37802
1.37634
1.60228
1.69761
1.19699
1.37082
1.37623
1.28602
1.15966
1.2343
1.16437
1.22839
1.52989
1.33889
1.43572
1.41902
1.40178
1.38963
1.39668
1.21523
1.31188
1.20839
1.35031
1.46461
1.06934
1.36903
1.1059
1.22948
1.53269
1.27869
1.35144
1.26794
1.26399
1.10001
1.47795
1.5785
1.30299
1.56312
1.4895
1.2531
1.11036
1.21222
1.41985
1.39523
1.39911
1.32157
1.38576
1.32594
1.40809
1.36697
1.32537
1.44279
1.36455
1.41557
1.46589
1.37612
1.42938
1.40132
1.41111
1.39823
1.38808
1.41211
1.36422
1.37483
1.3676
1.39356
1.35889
1.27655
1.34574
1.18676
1.26446
1.15283
1.43089
1.09228
1.22408
1.23283
1.27282
1.41037
1.36165
1.37696
1.4251
1.31592
1.37038
1.34091
1.35457
1.37779
1.15889
1.26809
1.17746
1.22523
1.19879
1.27313
1.18617
1.12005
1.03455
1.34628
1.36266
1.53812
1.26366
1.16677
1.37092
1.42856
1.36527
1.40998
1.31363
1.35302
1.27984
1.37926
1.41176
1.14967
1.27618
1.20174
1.30103
1.23608
1.55895
1.1807
1.25729
1.15647
1.20654
1.21865
1.21112
1.55148
1.55369
1.19866
1.69912
1.49651
1.67011
1.6228
1.51607
1.62104
1.61296
1.53835
1.29506
1.34337
1.28381
1.23663
1.56823
1.40502
1.27729
1.14026
1.18492
1.15066
1.27444
1.1068
1.05128
1.20317
1.20832
1.21736
1.29426
1.38392
1.22714
1.20304
1.23928
1.26349
1.49393
1.20413
1.23105
1.36742
1.4002
1.26589
1.27498
1.45006
1.40806
1.40853
1.37649
1.41651
1.40834
1.46197
1.41913
1.39393
1.40946
1.30508
1.31783
1.32187
1.34004
1.32296
1.35778
1.36222
1.31713
1.4452
1.42217
1.38359
1.33086
1.41145
1.39594
1.43255
1.31441
1.3384
1.32728
1.39823
1.36318
1.39736
1.37052
1.37399
1.44213
1.43146
1.35002
1.36256
1.39775
1.41856
1.38774
1.44243
1.41494
1.41682
1.41327
1.44277
1.39356
1.39332
1.37469
1.4137
1.37479
1.34186
1.40862
1.40723
1.44609
1.45084
1.45427
1.36148
1.41704
1.39361
1.35259
1.40595
1.39845
1.41953
1.41013
1.38559
1.3983
1.40533
1.39708
1.39165
1.39053
1.3578
1.29982
1.33554
1.3021
1.39613
1.36834
1.38335
1.38082
1.37055
1.39599
1.39983
1.42191
1.41933
1.3845
1.35738
1.39692
1.39685
1.34623
1.38689
1.35755
1.28765
1.30282
1.25705
1.29859
1.21911
1.35781
1.38183
1.14212
1.20987
1.1632
1.31833
1.22182
1.24326
1.24121
1.21209
1.22671
1.37904
1.31675
1.35272
1.40116
1.35868
1.37591
1.44424
1.51501
1.13547
1.10951
1.19745
1.18718
1.15698
1.20301
1.28934
1.23235
1.25065
1.39524
1.3434
1.35791
1.28997
1.17353
1.33613
1.21801
1.33223
1.37878
1.34142
1.4207
1.40416
1.41706
1.38592
1.39899
1.37071
1.42366
1.36047
1.43193
1.34456
1.41985
1.42667
1.31216
1.31785
1.29921
1.38939
1.37734
1.40752
1.3608
1.36598
1.3595
1.43288
1.38217
1.39763
1.34887
1.33853
1.35642
1.34521
1.39581
1.38432
1.42422
1.18694
1.24374
1.19512
1.20634
1.14266
1.30818
1.34992
1.18096
1.11864
1.21183
1.28189
1.20838
1.2374
1.2272
1.10938
1.17398
1.32532
1.24633
1.31955
1.23288
1.20985
1.26576
1.29398
1.10463
1.20434
1.1406
1.13163
1.09726
1.11595
1.09111
1.12059
1.05306
1.10891
1.52707
1.42542
1.58685
1.26377
1.35375
1.23375
1.42826
1.43896
1.42554
1.11705
1.09566
1.11058
1.16424
1.15923
1.17991
1.16427
1.23115
1.18425
1.23194
1.26937
1.2916
1.52572
1.41966
1.48571
1.28879
1.23789
1.38207
1.41765
1.42286
1.27198
1.34951
1.35166
1.52771
1.4012
1.54228
1.38841
1.48772
1.36489
1.30709
1.29228
1.38543
1.36306
1.25235
1.30174
1.28042
1.36189
1.39118
1.39632
1.4044
1.38394
1.40115
1.40005
1.15411
1.20658
1.14154
1.27419
1.24957
1.22265
1.25024
1.25996
1.30382
1.39589
1.3792
1.3202
1.65396
1.43665
1.63634
1.24121
1.25474
1.25533
1.55371
1.35579
1.28406
1.20625
1.14259
1.17949
1.24504
1.07151
1.15519
1.19595
1.16299
1.26875
1.19767
1.20723
1.21795
1.22266
1.20585
1.29446
1.21321
1.21125
1.22273
1.23756
1.23455
1.22703
1.56851
1.63896
1.58231
1.57434
1.54901
1.48423
1.64833
1.19487
1.1786
1.74879
1.38868
1.29944
1.35137
1.54725
1.56552
1.56568
1.60345
1.76685
1.57002
1.55536
1.64118
1.66651
1.70854
1.61416
1.6871
1.63973
1.60769
1.66739
1.46662
1.52034
1.57981
1.5721
1.53784
1.5964
1.56824
1.56965
1.5845
1.59831
1.52484
1.46808
1.34423
1.27057
1.3378
1.42846
1.19728
1.22065
1.18148
1.19214
1.45762
1.46048
1.48566
1.49669
1.72411
1.76453
1.50214
1.67708
1.27206
1.56979
1.09943
1.39491
1.35936
1.29726
1.34751
1.35466
1.30379
1.23197
1.1277
1.15349
1.15464
1.14817
1.15199
1.12839
1.2018
1.17856
1.23259
1.20443
1.22549
1.17451
1.45734
1.23806
1.30856
1.27494
1.28502
1.13539
1.10107
1.19508
1.06469
1.14149
1.13307
1.11925
1.20194
1.20276
1.16453
1.18636
1.20777
1.21605
1.22127
1.1263
1.19703
1.13539
1.12424
1.17655
1.11663
1.19864
1.27268
1.27278
1.38203
1.34183
1.23568
1.2075
1.34081
1.41196
1.38986
1.33818
1.34462
1.24465
1.33385
1.28511
1.5519
1.32219
1.46048
1.26369
1.21534
1.19866
1.2021
1.19511
1.19714
1.22173
1.1628
1.23839
1.08642
1.07597
1.23557
1.21417
1.21397
1.21469
1.33768
1.18037
1.28169
1.32115
1.29631
1.6282
1.19991
1.61524
1.63234
1.58868
1.14827
1.26133
1.20209
1.16082
1.14503
1.17962
1.17416
1.23951
1.15693
1.22304
1.1661
1.15451
1.18
1.43764
1.53701
1.37642
1.3346
1.25366
1.2761
1.24279
1.27431
1.40861
1.50139
1.32296
1.46561
1.34283
1.30324
1.19491
1.23061
1.33992
1.42185
1.13976
1.26979
1.22925
1.21679
1.24376
1.3522
1.4677
1.36686
1.39814
1.44069
1.25038
1.3443
1.36219
SCALARS CoVolArea double 1
LOOKUP_TABLE default
0.026977
0.0269314
0.0250382
0.0240501
0.0272111
0.0268113
0.025102
0.0259274
0.0257922
0.0254573
0.0260687
0.0256488
0.0446066
0.0464841
0.048555
0.0485583
0.0494533
0.0460729
0.0460797
0.0460435
0.0447869
0.0450108
0.0460581
0.0447869
0.0480729
0.0443462
0.045204
0.0472084
0.0405242
0.0447162
0.0439289
0.0454275
0.0459426
0.0475243
0.0449252
0.0437432
0.0478318
0.0452583
0.0455147
0.0444224
0.0460223
0.0449841
0.0430768
0.0494586
0.0449381
0.0417462
0.0479792
0.0414745
0.0446405
0.0497532
0.0440345
0.0513678
0.0454496
0.0445637
0.0508176
0.0452753
0.051258
0.0448011
0.049804
0.043541
0.0435443
0.0498475
0.0422277
0.0483751
0.0421614
0.0471736
0.0428402
0.0423595
0.0469234
0.0420395
0.046661
0.0423917
0.0460889
0.0435082
0.0466855
0.0461585
0.041349
0.0491987
0.0435051
0.0433837
0.049089
0.0408113
0.0476987
0.0412509
0.0471427
0.0428226
0.0436072
0.0473764
0.0438747
0.0481728
0.0445933
0.0476544
0.0434488
0.0437119
0.0495495
0.041095
0.0460941
0.0393468
0.0461263
0.0421541
0.0404607
0.0443912
0.0410234
0.0440799
0.0397988
0.0466327
0.0421908
0.0426158
0.046781
0.0419726
0.0460407
0.0413754
0.0404583
0.0482038
0.0412154
0.0429796
0.0484994
0.0431905
0.0433186
0.0491865
0.0442272
0.0477852
0.0428718
0.0428838
0.0454804
0.0434547
0.0469782
0.0410333
0.0486358
0.0401846
0.0409669
0.0487441
0.0436805
0.0490027
0.0439789
0.0459151
0.0379665
0.0403711
0.0481108
0.0429544
0.0481557
0.0420454
0.0464469
0.0424841
0.0487228
0.0474429
0.0417291
0.0483274
0.0469743
0.047143
0.0481078
0.0496765
0.0496066
0.0486021
0.0457137
0.048476
0.0463259
0.04413
0.0446207
0.0453959
0.0456617
0.0459613
0.0380509
0.0436745
0.0388131
0.0474214
0.0449214
0.0433015
0.046211
0.0458978
0.0494786
0.0362525
0.0412232
0.0361473
0.0477269
0.0435179
0.0433265
0.0421726
0.0431035
0.0466054
0.038498
0.0437884
0.0382816
0.0494305
0.0458522
0.0460268
0.0449278
0.0456043
0.0486038
0.0529371
0.0533736
0.054027
0.0448113
0.0389759
0.0501772
0.0467713
0.0469879
0.0471916
0.0508699
0.0383895
0.0441865
0.0500383
0.04638
0.0460339
0.0463629
0.0500167
0.038779
0.044573
0.0386971
0.0507784
0.0470013
0.0469004
0.046145
0.0466526
0.0501522
0.0555904
0.0555575
0.0559626
0.0439504
0.0382482
0.0502098
0.0463459
0.0442203
0.0452365
0.0480648
0.0381527
0.043916
0.0481044
0.0453286
0.0442521
0.0463664
0.0502206
0.036792
0.0418667
0.0367436
0.0475698
0.0438786
0.0434582
0.0434124
0.043855
0.0475523
0.0544223
0.0533251
0.0533312
0.042756
0.0378699
0.0469097
0.0440737
0.0431648
0.0437602
0.0462046
0.0368544
0.041715
0.046735
0.0434322
0.0436229
0.0432473
0.0465787
0.0369811
0.0416887
0.0368891
0.0458103
0.0429298
0.0425452
0.0436444
0.0433612
0.0467041
0.0509959
0.0508599
0.0506561
0.0423773
0.0458515
0.0433145
0.0431678
0.0452422
0.0375144
0.0421793
0.0465922
0.0437974
0.0441222
0.0431046
0.0456982
0.0410719
0.0363405
0.0448672
0.0424072
0.0420305
0.0426993
0.046074
0.0500449
0.0505306
0.0495651
0.0437298
0.0382614
0.0492804
0.0457674
0.0436612
0.0449816
0.0474416
0.0379763
0.0433476
0.047824
0.0448192
0.0442569
0.0455195
0.0492031
0.0356919
0.0406445
0.0358047
0.0465897
0.0427449
0.0419358
0.0429717
0.0430832
0.0472495
0.053537
0.052766
0.0526404
0.0429936
0.0379814
0.0472631
0.0444964
0.0425745
0.0435247
0.0456524
0.0371204
0.0416827
0.0482121
0.0441561
0.0454019
0.0431121
0.0465834
0.0386939
0.0439276
0.0387635
0.0461107
0.0446423
0.0433489
0.0457698
0.0456516
0.0487542
0.051256
0.0520302
0.05095
0.0416405
0.03715
0.045986
0.0426116
0.0450887
0.0442091
0.0481541
0.0374314
0.0434435
0.0478397
0.0459315
0.0450528
0.045696
0.0477121
0.035302
0.0396335
0.0348794
0.047229
0.0422749
0.043653
0.0405946
0.0409366
0.045085
0.0523249
0.051612
0.0519432
0.0418474
0.0369216
0.0464365
0.0435075
0.0428285
0.0431665
0.0455809
0.0366053
0.0411509
0.0420891
0.0408628
0.0393965
0.0427223
0.0461153
0.0356775
0.0398758
0.0351357
0.0450048
0.0415369
0.0422461
0.0393686
0.0405216
0.0420874
0.0489562
0.0470922
0.0486794
0.0415698
0.0367914
0.0464546
0.0431136
0.0432467
0.0431405
0.0461892
0.0378754
0.0425714
0.0455367
0.0433338
0.0425356
0.0439171
0.0467777
0.0365799
0.0410881
0.0364125
0.0459653
0.0426627
0.0430455
0.0418985
0.0423206
0.0451482
0.0506557
0.050088
0.0503385
0.0340755
0.0401601
0.0351376
0.0475627
0.0432975
0.0432401
0.0424934
0.0428549
0.046806
0.0367381
0.0428777
0.0371812
0.0483679
0.0449595
0.0447779
0.0438612
0.0444979
0.0474159
0.0384267
0.0436532
0.0385907
0.0476069
0.045062
0.0433658
0.045306
0.0453467
0.0485031
0.0528603
0.0531296
0.0530571
0.0415203
0.0356859
0.0460646
0.0433788
0.0451803
0.0445182
0.0480646
0.0384348
0.0423171
0.0444227
0.0420794
0.0423234
0.0426881
0.0455604
0.0367197
0.0417318
0.0359162
0.0478029
0.0441384
0.0453061
0.0416402
0.0426405
0.0449411
0.0506761
0.0500801
0.0516789
0.0410779
0.0345208
0.0492629
0.0446239
0.0417942
0.0430676
0.0465727
0.0357324
0.0420214
0.0465211
0.0434561
0.0419668
0.0450995
0.0493899
0.0367558
0.0436571
0.0369732
0.0477548
0.0458764
0.0449409
0.0448434
0.0458656
0.047547
0.0537356
0.0525841
0.0526388
0.0381845
0.0333327
0.0457867
0.0406519
0.040582
0.0399245
0.0458139
0.0353302
0.041212
0.0459798
0.0426426
0.0416559
0.0443895
0.047793
0.0369315
0.0417674
0.0366862
0.0479833
0.0441934
0.0448474
0.04276
0.043335
0.0462818
0.0523677
0.0523194
0.0524451
0.0381964
0.0459532
0.0403942
0.0417881
0.0466259
0.0368726
0.042554
0.0468681
0.0444895
0.0431294
0.0450501
0.0482292
0.0420473
0.0363315
0.0470347
0.0439769
0.0427459
0.0433314
0.0463088
0.0520745
0.0518235
0.0516482
0.0438099
0.0485439
0.0455136
0.0447209
0.0463013
0.0410935
0.0463239
0.042636
0.0435333
0.0477685
0.0427617
0.0457695
0.0435418
0.0441892
0.0470248
0.051935
0.0511297
0.0511054
0.0404461
0.0461094
0.0423465
0.0432137
0.048189
0.0438717
0.0492412
0.0458772
0.0449712
0.0470919
0.0433045
0.0487609
0.0455127
0.0457496
0.0491691
0.0532819
0.0540311
0.0537257
0.0418314
0.0476539
0.0448536
0.0434548
0.0466632
0.0393946
0.0452925
0.0404625
0.0411093
0.0456179
0.0421836
0.0466569
0.043597
0.0446911
0.0477899
0.0521886
0.0521988
0.0527006
0.0417343
0.0456464
0.0432136
0.0433959
0.0462984
0.0395534
0.0421457
0.0404268
0.0411789
0.0448854
0.04117
0.046027
0.0427286
0.0409921
0.042209
0.0489289
0.047334
0.0492465
0.0405554
0.0457501
0.04235
0.0416542
0.0446516
0.0413066
0.0447961
0.0423363
0.0427247
0.0457007
0.0427011
0.0455331
0.0436417
0.0432139
0.0450609
0.04955
0.0491446
0.0491468
SCALARS SignedDistance double 1
LOOKUP_TABLE default
1.4004
1.40331
1.4194
1.43752
1.62495
1.41731
1.50776
1.57064
1.73593
1.66677
1.71654
1.63452
1.4947
1.47445
1.305
1.30882
1.31309
1.43605
1.4328
1.6528
1.60638
1.73051
1.4748
1.49397
1.71012
1.56219
1.74359
1.66883
1.46541
1.62545
1.61957
1.66938
1.66933
1.70327
1.52121
1.52319
1.41297
1.54438
1.5906
1.65886
1.77071
1.72472
1.40455
1.37394
1.33664
1.56692
1.48084
1.56963
1.34552
1.40551
1.44433
1.3166
1.34087
1.33431
1.27826
1.33832
1.31497
1.35158
1.34862
1.39172
1.3952
1.35019
1.50863
1.4373
1.50789
1.49231
1.48241
1.60992
1.55361
1.71154
1.62883
1.70135
1.54244
1.77309
1.68018
1.66399
1.6119
1.3847
1.43596
1.43527
1.38772
1.58554
1.48216
1.57733
1.50562
1.44897
1.67142
1.60092
1.66387
1.6305
1.63378
1.72794
1.67573
1.74945
1.80564
1.57929
1.71281
1.57152
1.66345
1.70448
1.56079
1.58631
1.53472
1.59309
1.59473
1.55351
1.60349
1.47749
1.49283
1.72488
1.63031
1.71479
1.60072
1.58224
1.46429
1.69068
1.67849
1.73125
1.58945
1.58953
1.6322
1.30602
1.28559
1.59438
1.49101
1.29342
1.26051
1.42397
1.33926
1.45845
1.39393
1.33534
1.51939
1.56352
1.52233
1.72302
1.6521
1.54978
1.60165
1.74607
1.68942
1.73038
1.71184
1.77351
1.81133
1.73075
1.66276
1.63112
1.60017
1.51746
1.57975
1.59257
1.66853
1.58239
1.66329
1.66843
1.68867
1.61419
1.59871
1.65577
1.6753
1.53718
1.39195
1.3596
1.36799
1.40954
1.37828
1.43473
1.31515
1.34857
1.33783
1.61519
1.55861
1.61195
1.48338
1.52178
1.52314
1.54763
1.52578
1.48171
1.38275
1.40102
1.43276
1.34986
1.37677
1.31842
1.46032
1.4271
1.44749
1.4192
1.43428
1.3819
1.34876
1.37347
1.28144
1.30112
1.34641
1.33239
1.31864
1.38064
1.34788
1.28825
1.31774
1.31595
1.31763
1.28609
1.37077
1.34796
1.39
1.31637
1.3311
1.35221
1.32267
1.31384
1.28821
1.27122
1.27056
1.31733
1.35377
1.3958
1.3521
1.32792
1.40516
1.36479
1.38605
1.39763
1.36529
1.39161
1.37481
1.40874
1.34095
1.35544
1.55205
1.5193
1.55181
1.42339
1.47119
1.46662
1.46709
1.47093
1.42347
1.35068
1.38583
1.3862
1.43479
1.43552
1.45287
1.43346
1.54414
1.4887
1.5504
1.57498
1.56156
1.61531
1.58935
1.63941
1.52462
1.488
1.72532
1.70199
1.7043
1.62093
1.66888
1.66651
1.67496
1.6585
1.63525
1.51887
1.58934
1.5646
1.44411
1.57153
1.50222
1.46425
1.53493
1.73817
1.74582
1.70522
1.72936
1.76636
1.70246
1.64785
1.63114
1.62
1.5952
1.62187
1.66573
1.64765
1.69999
1.61757
1.67452
1.62081
1.39608
1.42459
1.33558
1.3576
1.44853
1.40021
1.42764
1.417
1.38018
1.44233
1.40606
1.45573
1.34695
1.33303
1.62965
1.58413
1.63055
1.48434
1.53544
1.54532
1.52147
1.53104
1.48228
1.37903
1.43741
1.43437
1.43735
1.43781
1.49718
1.46855
1.48938
1.46679
1.5197
1.65205
1.63012
1.65463
1.64101
1.69423
1.58474
1.53774
1.67005
1.68174
1.62776
1.59624
1.64202
1.61647
1.66663
1.68448
1.67502
1.55561
1.61386
1.5744
1.6413
1.64614
1.72856
1.66169
1.71394
1.68014
1.7359
1.73846
1.76407
1.77271
1.77943
1.73464
1.79254
1.79209
1.50175
1.55036
1.47239
1.70153
1.62947
1.6337
1.67214
1.62706
1.74445
1.79522
1.80574
1.78656
1.69624
1.71485
1.69149
1.69301
1.66285
1.68557
1.66248
1.59013
1.59665
1.50964
1.55864
1.51457
1.62672
1.66391
1.51028
1.56684
1.54498
1.62329
1.59395
1.57488
1.52656
1.58151
1.51325
1.62636
1.53791
1.62185
1.55966
1.57433
1.48791
1.52342
1.63528
1.58496
1.61106
1.43184
1.43251
1.55576
1.48733
1.54358
1.43329
1.45328
1.72834
1.71551
1.74138
1.64206
1.67937
1.70007
1.67292
1.67201
1.62893
1.5205
1.57241
1.59078
1.53962
1.54615
1.45065
1.61347
1.58761
1.62599
1.47908
1.54998
1.56001
1.67915
1.72361
1.69288
1.69525
1.74315
1.70136
1.74168
1.75157
1.66831
1.60676
1.5945
1.62729
1.57604
1.58585
1.56913
1.66286
1.60432
1.63435
1.6107
1.61746
1.58148
1.37241
1.35189
1.4021
1.37119
1.3224
1.31485
1.31226
1.60741
1.60896
1.48546
1.58894
1.58289
1.57659
1.48634
1.35107
1.32973
1.41522
1.27764
1.27925
1.35585
1.45922
1.33616
1.38178
1.3842
1.36229
1.26665
1.34384
1.42862
1.31138
1.29343
1.51295
1.3843
1.44968
1.38124
1.30569
1.41306
1.33075
1.4505
1.27079
1.31605
1.4994
1.52314
1.50035
1.55379
1.56446
1.58429
1.58457
1.56608
1.55324
1.35448
1.44654
1.44465
1.55404
1.53183
1.65772
1.59912
1.74026
1.6916
1.75415
1.50889
1.51335
1.61771
1.56243
1.60841
1.55494
1.62437
1.75652
1.73975
1.73639
1.72236
1.71914
1.74613
1.69682
1.70702
1.67121
1.66868
1.64987
1.69833
1.61746
1.76543
1.68778
1.64954
1.68782
1.75103
1.77683
1.76228
1.80136
1.77429
1.77918
1.79836
1.68217
1.66896
1.75144
1.72321
1.68726
1.67952
1.70103
1.80907
1.76902
1.77393
1.68171
1.66807
1.67901
1.64707
1.60178
1.63741
1.5288
1.58292
1.64613
1.65567
1.45029
1.53149
1.467
1.47585
1.49398
1.61397
1.55829
1.58307
1.51676
1.55526
1.53305
1.5857
1.61181
1.59725
1.63568
1.60736
1.59105
1.58017
1.67881
1.65307
1.71653
1.71908
1.69362
1.58153
1.61329
1.60259
1.51074
1.61488
1.54949
1.54354
1.58489
1.47994
1.71319
1.61232
1.52218
1.59177
1.72416
1.6386
1.68292
1.70789
1.70696
1.65087
1.68105
1.6231
1.71877
1.68107
1.71375
1.71634
1.70886
1.5714
1.53574
1.59774
1.61406
1.64617
1.60237
1.67497
1.63229
1.56615
1.52761
1.64957
1.56877
1.64923
1.64079
1.69235
1.67075
1.61346
1.5885
1.75178
1.66026
1.70538
1.74371
1.71364
1.4478
1.52802
1.47938
1.498
1.57962
1.66691
1.62588
1.61463
