# vtk DataFile Version 4.2
vtk output
ASCII
DATASET POLYDATA
POINTS 642 double
-64.4031 151.788 88.3123
123.036 152.234 86.4988
-58.7007 -195.299 79.5779
118.314 -194.837 79.8398
30.6789 -111.003 212.847
32.002 94.0926 239.66
30.5146 -112.969 -62.2122
31.3047 78.6563 -54.3617
148.028 -12.0819 5.20193
159.444 0.997331 170.839
-88.5074 -14.8749 1.80016
-102.637 -0.960669 167.734
-110.39 87.7638 141.738
-55.5003 48.1117 227.366
-26.7567 152.977 182.782
88.2991 151.682 182.905
30.5634 187.35 88.0993
84.0221 140.945 -2.23258
-23.3258 141.664 -2.15571
-41.883 41.6237 -43.3632
-96.6057 83.5733 38.5026
-118.048 -10.4024 102.135
115.715 49.1538 228.517
170.053 85.3392 141.173
-40.2276 -67.1431 204.413
28.8283 1.85585 255.76
-78.2448 -127.072 45.3993
-86.7577 -114.291 130.254
28.4487 -18.2319 -93.9139
-38.7602 -78.2062 -49.0704
157.34 85.0684 39.7224
101.817 45.3073 -42.8145
147.674 -110.501 131.88
100.928 -67.2743 205.26
76.0381 -186.76 158.473
-16.1579 -191.952 159.517
29.7019 -224.704 89.9725
-23.6703 -187.483 10.4036
79.7772 -184.405 11.6513
95.5156 -78.162 -46.6881
131.865 -116.518 43.8527
176.306 -10.4967 93.0526
-94.7485 124.543 117.746
-77.9277 124.178 164.716
-51.0405 159.435 137.121
-84.2068 24.4681 202.383
-89.2147 74.0326 187.81
-109.151 42.5091 160.71
1.51358 128.67 218.342
-45.7288 106.356 210.709
-12.6513 74.4755 239.838
-1.13966 179.108 141.149
-21.4936 176.562 85.3536
60.8978 127.462 219.81
29.6169 162.892 188.887
82.5466 176.64 86.5463
62.1986 179.239 140.418
110.303 159.52 137.363
-0.862839 173.521 36.4223
-46.3582 155.142 39.8004
107.669 153.738 39.7616
60.5641 173.326 36.1377
2.48957 115.97 -33.3725
30.4856 149.113 -6.07199
58.4445 115.59 -33.7053
-67.3718 118.452 12.919
-87.2973 121.424 61.5301
-5.94605 63.0762 -55.7161
-37.7272 98.1379 -28.3081
-94.0979 39.6382 19.2008
-73.6002 69.9426 -7.23549
-69.4733 14.7651 -22.4122
-111.545 90.7801 92.5262
-102.824 -6.38041 45.4036
-112.571 44.6872 64.7098
-114.482 46.8967 119.468
-121.213 -11.7811 128.824
136.628 123.811 166.168
152.49 121.985 118.387
75.5633 76.698 240.906
106.733 106.451 213.803
168.906 43.7279 159.708
148.279 72.7171 189.073
143.241 25.4374 203.866
-10.7554 22.1319 253.042
30.9714 41.0675 257.138
-77.2202 -27.788 192.962
-52.042 1.91153 226.976
29.8372 -51.2064 235.94
-7.81564 -25.4309 240.77
-9.30941 -96.313 215.213
-110.992 -51.7386 116.566
-101.9 -50.8756 148.518
-86.3289 -60.8339 12.8739
-96.2126 -64.8338 66.6598
-72.4597 -165.142 101.07
-90.9818 -128.524 80.1286
-76.0456 -166.89 57.9021
-36.0795 -19.7823 -59.0285
-66.2478 -47.4463 -25.6264
29.7119 20.5079 -82.6598
0.272404 -0.824285 -82.1875
-5.41176 -98.8876 -63.1183
-0.915498 -38.5416 -80.7091
29.1052 -62.1406 -76.5758
98.6392 97.6722 -28.6093
68.0333 64.495 -56.4477
148.394 120.764 59.3023
128.691 118.003 12.9745
128.457 19.0639 -20.1252
133.528 70.1404 -7.39401
154.507 39.4838 19.6063
129.302 -164.267 97.4543
115.602 -152.749 145.06
99.4184 -196.828 121.52
135.199 -25.9731 194.972
130.616 -98.5446 171.768
155.19 -56.5427 147.045
54.556 -154.117 184.28
95.2412 -125.065 189.185
70.1054 -96.6834 215.038
55.1748 -219.618 129.708
83.3185 -219.734 81.3864
4.92635 -159.209 180.926
25.7635 -198.376 165.578
-21.9796 -219.797 84.4103
-0.0332618 -224.046 130.953
-40.8978 -200.93 125.244
62.3455 -215.702 39.3094
103.841 -196.716 45.2553
-46.1208 -199.268 40.921
-5.18432 -216.746 38.3281
53.5021 -139.623 -39.7114
29.2379 -190.327 6.74831
5.4826 -140.672 -38.3579
112.92 -163.231 28.7835
129.932 -169.493 63.8993
63.4856 -99.9981 -62.6766
86.6406 -121.196 -34.421
146.969 -60.3668 15.4292
123.125 -90.5136 -11.8724
124.971 -46.075 -21.928
146.63 -124.492 87.0982
163.211 -3.40615 47.1691
158.424 -56.4865 69.0699
168.123 -54.2269 111.429
174.812 -6.58067 129.86
69.2915 -27.0718 239.144
114.27 2.99187 227.035
72.5517 25.1873 251.211
-55.226 -159.21 142.856
-34.6798 -127.278 187.72
-70.523 -99.1361 172.695
-29.782 -122.99 -33.0755
-60.1337 -165.663 26.4797
-64.6999 -92.5844 -14.4086
94.762 -18.566 -55.952
58.4263 -39.0426 -78.3694
58.4123 1.54194 -80.2189
175.558 47.8429 119.794
173.449 44.1582 66.5178
172.57 88.0728 88.7741
-81.2222 139.693 104.14
-75.8203 143.033 128.065
-59.8442 156.376 112.428
-97.7036 105.821 153.089
-88.6579 125.287 141.467
-104.633 106.672 130.259
-39.7573 158.405 160.441
-65.4711 143.355 152.325
-53.3474 140.535 174.887
-95.4264 12.5438 186.183
-98.8214 32.922 182.494
-107.53 17.2207 167.051
-73.0584 61.613 209.269
-86.6148 48.5581 197.092
-71.2444 36.1815 216.737
-109.958 68.8041 151.049
-100.497 60.8496 173.687
-102.158 82.4657 164.699
17.1066 111.491 231.813
-6.68949 103.932 230.671
9.71504 85.665 240.987
-37.2332 131.64 198.596
-22.6479 119.58 215.738
-12.7133 142.941 202.176
-34.9369 61.6164 234.994
-30.1573 91.7858 226.475
-51.7738 77.7698 220.134
-86.2777 99.7923 177.668
-70.2635 90.3581 200.61
-63.4504 117.42 189.507
-36.6221 169.991 114.56
-44.7147 165.355 86.2759
-14.7988 169.258 163.868
-26.5816 172.108 140.955
4.99149 183.089 86.9179
-10.2379 179.451 114.944
15.8632 185.953 113.165
45.9417 110.866 232.347
30.6363 130.142 219.573
60.1067 159.683 187.327
45.7736 147.349 204.326
74.7261 141.235 203.119
14.5535 148.33 204.278
0.623604 160.679 187.657
104.923 165.826 86.7341
96.7383 170.391 114.265
117.421 156.726 112.029
45.2698 185.966 113.076
71.32 179.482 114.781
55.8322 183.175 87.4197
100.485 157.823 160.229
87.3315 172.139 140.384
75.9683 168.86 163.007
13.8675 174.835 167.968
46.1383 174.074 167.247
30.2822 180.417 140.642
-34.765 169.159 59.6958
-55.747 155.595 62.8857
14.4136 180.855 61.1506
-11.6963 178.004 59.1846
-35.8338 150.304 18.3129
-24.2486 166.669 37.3329
-12.8725 159.883 16.2114
116.62 154.661 63.2625
95.4951 167.995 61.1349
72.8845 159.29 15.9471
84.3439 165.405 37.2003
96.8125 149.193 18.026
71.4705 177.131 60.1457
45.8979 180.975 61.3101
17.1569 98.3126 -44.3181
30.6331 117.336 -33.5281
44.5582 97.9301 -44.6308
1.65651 147.713 -5.76663
15.1376 134.163 -20.7509
-10.3201 129.868 -19.6695
70.9842 129.436 -19.7992
45.7266 134.116 -20.832
58.7896 147.584 -5.86641
30.3658 175.557 35
45.663 164.38 13.4578
14.9399 164.384 13.5625
-68.0229 139.93 47.6985
-76.7764 138.14 75.2454
-46.939 131.858 4.25719
-58.3715 137.595 24.4248
-93.556 103.323 49.3429
-77.8542 121.355 34.4447
-83.4399 102.14 24.1032
11.8427 71.1922 -57.2414
-4.32584 92.1791 -44.2053
-40.237 73.0243 -35.3902
-23.6004 83.677 -41.366
-23.3843 53.6172 -50.7615
-18.9462 108.398 -31.9778
-31.7723 120.66 -17.28
-90.4665 10.0194 9.0229
-83.4018 28.3773 -4.69809
-80.5866 -1.2912 -10.6742
-86.1765 78.5813 13.3983
-84.9689 56.0083 5.01139
-96.6199 63.3768 29.1301
-58.2169 28.6134 -34.2079
-72.5411 43.1891 -16.2182
-59.2913 57.2573 -25.9262
-53.6618 109.502 -9.47857
-57.4158 85.4634 -18.9362
-72.1582 94.9979 1.22325
-94.2295 123.69 91.6157
-106.592 87.5058 65.9065
-102.329 105.639 78.3021
-105.941 107.349 105.696
-112.396 90.9245 118.423
-95.8055 -12.3234 18.4867
-100.459 16.3756 33.2934
-115.627 16.2499 78.7727
-111.11 19.8943 58.1046
-112.623 -4.61632 74.0439
-105.534 43.8981 44.7871
-107.335 65.001 53.393
-113.552 14.6421 146.951
-113.467 -6.58377 149.017
-113.771 71.559 131.342
-113.883 46.883 140.534
-122.719 -13.0948 117.877
-118.395 8.74837 126.748
-116.911 8.07298 107.711
-113.481 69.9827 77.7099
-114.834 46.6601 89.6342
-114.004 73.32 105.832
132.879 142.023 129.414
137.873 138.367 102.343
114.129 139.797 176.03
124.692 142.963 153.518
163.536 104.287 131.056
146.632 123.962 143.034
155.856 104.803 153.557
54.3775 86.2683 242.238
70.4251 103.327 232.754
111.469 79.6522 222.165
92.3451 92.9481 229.487
95.9062 64.1489 236.03
85.5313 118.364 218.387
99.2509 130.468 200.608
165.258 21.3074 166.976
157.472 35.4606 182.757
152.833 13.7442 187.501
160.964 80.3491 164.901
161.109 58.6974 174.497
170.97 65.5856 150.567
131.502 36.1735 217.599
146.924 48.2789 198.063
132.812 61.8787 210.685
123.369 117.32 191.683
129.05 91.0339 202.725
144.325 99.7239 179.027
8.74563 56.5231 251.572
31.7716 68.3802 248.911
-34.1868 34.769 241.288
-12.9241 44.8042 248.346
29.7481 19.7878 258.575
8.58723 29.8939 257.415
9.12914 11.8716 257.467
-91.5457 -13.7084 180.591
-81.3603 1.6993 200.177
-48.0865 -26.969 220.065
-64.9983 -12.3853 211.808
-59.852 -46.1529 201.608
-68.7447 14.3764 216.84
-55.1343 24.2175 229.748
30.5807 -88.0525 220.599
11.0488 -74.473 222.965
9.82018 -105.079 215.537
10.1767 -10.3416 250.74
10.937 -36.8484 240.997
28.985 -21.2557 247.464
-24.9018 -85.4464 213.261
-9.44021 -60.1288 224.428
-26.4287 -45.0435 225.045
-32.7695 12.8546 241.611
-30.0583 -12.1057 236.245
-9.28431 1.53189 249.57
-114.144 -28.2286 138.174
-104.9 -26.33 157.748
-117.844 -25.5741 114.061
-118.972 -26.4141 122.37
-90.2123 -82.8681 140.485
-109.178 -51.1518 130.476
-95.4524 -82.9589 120.704
-88.1198 -35.3191 6.20604
-95.052 -35.495 25.3281
-88.3108 -99.2011 53.4936
-92.0806 -63.2351 34.1757
-84.0561 -88.4641 24.7797
-101.866 -30.6297 54.6335
-111.317 -27.0995 88.0731
-66.2663 -182.531 90.5442
-77.1565 -166.291 76.9968
-69.2318 -182.728 67.2648
-89.6559 -123.158 102.771
-84.7311 -145.409 88.3875
-80.2194 -140.845 113.66
-78.2964 -151.54 53.2022
-84.6719 -148.348 69.142
-88.5592 -131.436 66.3547
-104.765 -59.6602 98.3379
-92.3501 -104.02 76.6687
-93.8176 -93.9676 94.5316
-69.0579 -17.3349 -25.9144
-79.4883 -29.2742 -11.6107
-37.3296 5.36627 -51.4276
-54.1149 -4.35764 -39.4597
-53.3729 -64.4806 -38.5655
-53.1044 -33.2939 -41.9026
-37.8627 -45.5586 -53.3386
30.5834 50.0194 -67.8493
14.9829 38.4377 -71.5296
15.2696 -10.4905 -90.9408
16.0253 8.92237 -84.7188
28.8057 -2.67 -90.1228
-1.4636 28.2687 -69.7449
-17.3601 17.942 -63.8307
12.1653 -107.261 -64.5362
10.6958 -84.3276 -71.6675
30.4402 -95.404 -69.6628
-18.9459 -61.1425 -63.9337
-3.75495 -72.8747 -69.7426
-22.4659 -89.8142 -58.0672
28.4252 -31.0473 -90.7956
12.4352 -47.5607 -82.3139
15.2648 -25.3339 -91.1009
-17.6689 -10.639 -74.2313
-1.1665 -18.1146 -86.1691
-18.3807 -27.7168 -73.3931
65.498 91.4195 -45.2701
50.4102 71.7195 -57.5061
92.9045 120.084 -17.4511
79.8651 107.82 -32.4071
[...]
POINT_DATA 642
SCALARS Mean_Curvature double 1
LOOKUP_TABLE default
0.0087582
0.0105294
0.0202965
0.0349732
0.00933565
0.00748876
0.0121072
0.00339966
0.017459
0.00854127
0.0170738
-0.00360834
0.0265044
0.0143066
0.0143488
0.0123896
0.0190314
0.0121122
0.0132128
0.00786263
0.00837525
0.0121277
0.01281
0.0227346
-0.0156303
0.0151767
-0.00807455
0.0138515
0.0560132
0.0120427
0.00985922
0.0103357
0.0190209
-0.0113179
0.0215022
0.0227727
-0.00842362
0.024131
0.0164321
0.0093804
-0.0111513
0.0164191
0.0161641
0.0133211
0.0132047
0.0138366
0.014306
0.0129316
0.01368
0.0107138
0.00831044
0.0126175
0.0103867
0.0143069
0.0153226
0.0124132
0.0137709
0.014388
0.0154634
0.0133899
0.0129268
0.0169249
0.01546
0.00748625
0.0154745
0.0156815
0.00950213
0.0092559
0.0164641
0.00460352
0.00986084
0.00224017
0.0202495
-0.000759765
0.0125706
-0.00126356
0.0316951
0.0137181
0.0108458
0.0105139
0.0142534
0.0104267
0.0112797
0.0137058
0.0233033
0.0144298
0.00682774
0.00909202
0.00982904
0.00906966
0.015481
0.0275094
0.0130019
0.0086133
-0.00500186
0.00672952
0.0238348
0.0276078
0.0144514
0.00580715
0.027321
0.0137042
0.0189981
0.0116085
-0.00601038
0.016047
0.0150502
0.0122747
0.016354
0.00274887
0.00891466
0.00727447
0.00342323
0.00590474
0.0168392
0.00791372
0.0156195
0.00134634
0.00405939
0.0136109
0.0163893
0.0175163
0.0250756
-0.000643483
0.0249431
0.0123271
0.0274443
0.0214717
0.0218858
0.0183534
0.0220723
0.0212372
0.0189004
0.00546803
0.0167367
0.0147359
0.0301219
0.0234601
0.0118605
0.0157654
0.0127679
0.00425954
0.0173824
-2.61135e-05
-0.00629064
0.0136093
0.0140212
0.00960627
0.0114375
0.0158565
0.00374565
0.0122848
0.0171427
0.0118904
0.0186088
0.0122317
0.0113609
0.00925955
0.0137073
0.000809517
0.0129142
0.0233999
0.0141106
0.0155384
0.00989174
0.0157106
0.0140235
0.0174469
0.0128356
0.0114601
0.012984
0.015627
0.0125046
0.0224907
0.0113151
0.00854571
0.017655
0.0126289
0.00725641
0.0185334
0.0155848
0.013434
0.00704824
0.0128086
0.0119828
0.0145639
0.00888544
0.00915047
0.00951241
0.0138608
0.0115144
0.0132101
0.0102371
0.00842396
0.0157496
0.0168291
0.00673979
0.00694873
0.015524
0.0134188
0.00782076
0.0143973
0.0105972
0.0125276
0.0137104
0.0164919
0.0122392
0.0124965
0.00843317
0.0155701
0.00707325
0.00715104
0.0123395
0.0178576
0.0156266
0.0203253
0.0166411
0.0024552
0.017873
0.0128897
0.0060296
0.0187925
0.0129201
0.0150751
0.0136898
0.0123016
0.0148155
0.0132658
0.012318
0.0127409
0.0145532
0.00746281
0.00788818
0.0072065
0.00751668
0.0145219
0.011448
0.0143457
0.0135852
0.0118865
0.0151182
0.0138894
0.0151869
0.0142467
0.012802
0.00630767
0.0140839
0.0151048
0.00895202
0.0144154
0.0126973
0.0124642
0.00992631
0.00707414
0.0126185
0.00523435
0.0153457
0.0141357
0.00203222
0.0147861
0.0109043
0.0140265
0.00745148
0.00662651
0.0154019
0.0106557
0.00852247
0.0146882
0.0133382
0.014171
0.0154917
0.0146172
0.0124263
0.0166635
0.0217838
0.0135521
0.00226318
0.0124032
0.0126303
0.00780537
0.00646838
0.0122347
0.00443568
0.0178442
0.0122206
0.0110404
0.0547891
0.0125378
-0.00373029
0.0164813
0.00320014
0.00518465
0.0111865
0.00560725
0.0141262
0.0134566
0.0174334
0.0138994
0.0136858
0.0111998
0.015749
0.00925834
0.0167838
0.0083104
0.0145834
0.0143961
0.012324
0.00980674
0.0110376
0.0119055
0.0143512
0.0165548
0.0164075
0.012784
0.0108601
0.0150622
0.0110131
0.0121087
0.0133903
0.00608049
0.0130623
0.00893835
0.0158475
0.0188177
0.026225
0.00400002
0.00885153
0.00958833
0.00789431
0.0109197
0.0122993
0.0183051
0.00651544
-0.00342267
0.0176605
0.0123325
0.0123546
0.00647092
0.0222654
-0.00123048
0.0115894
0.0139532
0.00909129
0.0122435
0.0142523
0.0121992
0.00457818
0.0344267
0.00318853
0.016858
0.00036871
0.00916709
0.00797531
0.00270604
0.00608315
0.00983534
0.000750487
0.00274781
0.0129447
0.0144273
0.0254175
0.012293
0.0124296
0.00741722
0.00987076
0.0262487
0.0228551
0.00291697
0.00894899
-0.00377095
0.0109326
0.01279
-0.00265112
0.00435515
0.0117595
0.00830943
0.00187237
0.0100383
0.0104971
0.0316064
0.0157199
0.023358
0.00834427
0.00289243
0.0220337
0.0183755
0.0123127
0.00137123
0.00810355
0.0191937
0.0246527
0.0156441
0.032989
0.0197353
0.0371121
0.0153812
0.011618
0.0130108
0.0143149
0.0147956
0.00983325
0.011914
0.00907774
0.0104007
0.013814
0.014407
0.0147829
0.0103075
0.0154881
0.0143232
0.00663368
0.0114027
0.00323439
0.0121676
0.0138591
0.00891759
0.00480072
0.0105293
0.00958094
0.0154246
0.0152804
0.0121042
0.029725
0.00906189
0.0200504
0.0118133
0.00413397
0.0114249
0.0223604
0.0102445
0.00694982
0.00667082
0.0047421
0.00694365
0.0219455
-0.0156562
0.0104373
0.0110426
0.0104279
0.017956
0.00732386
0.0151409
0.0180005
0.00183931
0.00885057
0.0131677
0.0192363
0.0148802
0.0146065
0.014469
0.0166585
0.0102958
0.0133864
0.0287028
0.020733
0.0215939
0.014874
0.00800457
0.0303057
0.00687823
-0.00419255
0.0329381
0.0166962
0.0179998
0.0069364
0.0200234
0.0146139
0.0153812
0.0190817
0.0329073
0.0266271
0.00377084
0.0219695
0.0228842
0.0242929
0.0174599
0.0212577
0.0215245
0.0225119
0.0222059
0.0155478
0.0197602
0.0184265
0.0201055
0.0203857
0.0225101
0.0231235
0.0248534
0.0251022
0.0228407
0.0250795
0.0136412
0.0203937
0.00866515
0.0192927
0.0178894
0.00230009
-0.00092047
-0.00378426
0.000326321
0.0187995
0.0119417
0.012188
0.0175076
0.0292572
0.0411363
0.0156411
0.0266165
0.00230189
0.0212737
-0.00698331
0.0252939
0.0225449
0.0164445
0.0199534
0.0164802
0.0152181
0.00614767
0.003842
0.00981594
0.00961592
0.0114746
0.0134551
0.0116868
0.00833464
0.0103241
0.0137189
0.00190426
0.0104351
0.00760343
0.0289072
0.00739492
0.0114996
0.00997211
0.0176783
0.0115156
0.00570491
0.0165445
-0.00206169
-0.00222005
0.0126291
0.00281293
0.0150425
0.00290034
0.00338235
0.0117113
0.01107
0.0222413
0.023044
0.00696539
0.015403
-0.000911325
-0.00285806
0.0125763
-0.000966007
0.00898885
0.00996252
0.0115333
0.0212944
0.0168163
0.00934413
0.0102931
0.0113339
0.0212253
0.0208919
0.0101978
0.0184715
0.00921599
0.0132364
0.005626
0.020796
0.00922729
0.0160488
0.00504421
0.00832993
0.0143521
0.0129779
0.0133639
0.00705626
-0.00109838
0.00952274
0.0207202
-0.00271706
-0.00945101
0.0206674
0.00777924
0.0158654
0.0138794
0.0195386
-0.00200382
0.0139893
0.0174057
0.0175635
0.0239165
0.00741663
0.0274313
0.0245111
0.0190607
0.00649723
0.0167835
0.0118026
0.012009
0.00699702
-0.00344737
0.00339077
0.0120303
0.0124231
0.00797497
0.00427317
0.0041006
-0.00179262
0.0235188
0.030428
0.0126738
0.00516392
0.000231503
0.00914494
0.0033545
0.00758125
0.0163324
0.0247891
0.0128488
0.0319086
0.0144464
0.0179671
-1.99978e-05
0.00973235
0.0139441
0.0170964
0.00476383
0.00452218
0.00611559
0.013809
0.0187572
0.0119782
0.0205008
0.00869101
0.0183046
0.0207694
0.00508591
0.017894
0.0071359
SCALARS CoVolArea double 1
LOOKUP_TABLE default
494.619
487.953
347.118
239.976
454.345
477.822
282.145
483.953
385.075
396.963
355.98
399.415
454.81
622.161
681.886
705.182
722.373
611.319
602.693
778.589
578.167
466.71
616.466
488.513
817.047
449.32
738.82
708.109
208.627
545.773
539.303
686.114
523.285
770.173
509.841
455.211
790.758
521.022
586.33
571.465
1023.48
492.724
552.378
697.232
663.72
493.302
635.193
575.137
648.966
732.766
700.71
766.222
740.34
664.733
703.488
716.47
765.931
642.773
681.555
581.905
604.191
683.946
556.689
677.455
557.929
574.298
634.878
656.129
542.472
653.072
569.641
600.089
499.617
732.011
578.162
781.262
338.033
677.811
651.982
626.263
664.909
498.18
664.802
473.973
489.802
579.023
761.444
575.635
734.715
674.946
572.051
543.478
624.235
575.581
1158.2
552.772
441.965
336.542
600.54
573.839
444.064
469.438
420.296
515.627
626.527
547.296
595.957
585.166
559.559
627.141
557.935
621.498
544.813
747.413
515.988
736.137
548.404
751.198
722.929
651.335
547.462
613.96
553.905
692.939
463.642
645.99
496.3
471.863
600.339
450.831
440.066
595.503
628.308
793.55
700.541
596.263
242.975
370.58
694.354
464.323
617.315
597.888
580.552
747.636
903.251
520.905
491.178
739.263
530.176
526.055
741.528
726.331
600.313
764.08
566.048
681.815
646.4
558.925
507.075
646.516
548.533
486.868
589.126
627.926
645.337
596.145
600.42
499.181
650.359
658.531
720.929
472.916
548.7
475.15
664.494
583.634
506.555
471.635
570.472
546.672
609.653
655.078
642.381
714.23
653.628
633.912
686.418
691.109
729.546
718.414
772.151
790.605
736.876
668.195
687.2
673.517
722.691
755.542
769.316
604.593
693.798
721.314
695.215
666.125
664.306
671.526
626.102
686.937
645.601
761.459
725.242
712.516
640.407
651.624
708.078
795.454
817.507
882.466
616.775
610.597
766.18
649.21
578.983
575.432
637.419
588.391
637.796
642.12
614.034
592.556
673.318
763.748
588.642
617.729
575.374
640.891
602.227
537.976
543.955
600.13
635.671
793.834
730.348
741.935
627.677
628.833
602.095
568.18
583.909
579.124
576.403
608.426
567.073
623.57
553.076
708.689
506.656
573.462
588.913
598.663
529.345
559.049
564.189
560.402
656.367
564.382
629.918
618.573
614.824
598.091
592.36
558.711
560.331
499.911
453.147
562.315
695.775
662.078
616.555
679.545
595.998
545.586
550.098
459.879
487.126
614.66
251.681
564.767
703.51
584.637
832.596
607.174
668.168
671.93
701.176
639.324
540.339
608.813
618.554
605.513
601.664
685.751
598.662
635.921
617.107
695.119
494.52
515.268
470.298
601.482
543.381
457.031
493.583
554.197
673.971
751.902
757.398
739.988
667.948
653.802
595.166
625.568
414.024
491.795
411.856
592.889
554.977
762.067
623.387
796.915
485.929
510.891
641.252
748.559
561.417
501.702
685.357
547.993
626.673
744.555
805.829
577.142
705.912
546.758
433.177
542.088
412.886
263.905
660.213
531.053
786.813
475.086
663.437
885.167
878.081
769.884
945.444
867.128
449.247
435.319
385.703
705.928
497.827
636.179
373.369
338.131
483.804
868.665
732.939
716.264
603.02
495.756
758.64
669.521
539.315
638.094
678.538
575.615
591.919
270.926
426.368
283.444
655.569
768.287
387.421
545.463
477.084
689.101
550.284
468.49
368.51
515.986
290.52
538.261
352.671
564.624
543.257
576.901
578.872
515.963
617.498
521.481
573.298
615.68
597.037
548.014
546.993
516.623
564.367
600.383
570.698
577.67
557.415
568.583
525.159
622.202
601.274
555.379
562.864
610.534
589.866
607.989
331.712
539.064
423.898
653.334
698.189
624.255
460.442
576.073
641.998
583.025
859.882
656.225
670.846
832.367
773.091
540.646
678.173
488.619
702.378
585.759
536.406
695.501
654.941
569.188
599.257
512.768
555.463
659.731
598.289
797.837
570.484
410.067
531.76
558.02
658.448
635.26
625.723
722.265
779.714
399.888
469.556
476.818
551.4
509.318
544.119
575.906
494.964
573.95
542.212
708.922
436.129
469.475
467.581
623.172
564.878
601.87
470.54
372.891
779.563
557.521
424.388
480.869
484.289
438.228
529.938
462.467
447.634
390.339
600.916
813.743
401.23
749.581
429.827
654.463
890.077
725.48
720.594
923.625
646.852
773
670.54
656.059
339.839
259.742
606.423
373.249
529.4
336.738
770.1
350.245
387.087
460.039
394.342
459.389
592.811
805.817
502.308
507.444
529.455
836.816
480.795
682.872
578.135
487.582
489.368
925.196
763.823
899.604
299.147
791.573
351.895
492.819
614.552
579.078
674.383
594.575
837.157
610.248
709.999
1004.61
596.253
534.222
607.702
578.304
471.911
417.515
385.721
873.933
658.146
704.789
742.376
789.503
746.171
720.589
578.643
508.289
480.419
438.317
561.943
718.693
641.596
470.64
497.206
603.375
578.835
730.182
590.894
647.966
486.636
624.26
493.96
612.477
700.069
639.798
597.378
565.072
695.188
710.9
789.571
605.639
730.446
849.546
687.557
861.096
644.343
716.673
448.217
784.541
662.184
458.479
485.257
388.764
606.37
329.151
370.623
568.417
529.386
471.116
476.313
591.097
824.041
936.297
916.954
819.676
645.999
694.244
662.774
706.573
776.654
501.257
314.91
521.474
543.709
719.014
579.091
748.126
631.895
444.145
291.499
606.024
395.873
602.991
519.329
740.974
573.025
467.225
454.614
629.297
557.037
619.665
562.119
589.588
656.491
493.355
579.792
534.326
473.833
706.659
522.872
562.598
SCALARS SignedDistance double 1
LOOKUP_TABLE default
43.9005
43.8892
45.3789
46.9562
51.7585
45.1127
48.1187
50.2174
56.3559
54.2359
55.4649
53.7773
50.1385
46.1728
39.7093
40.0338
40.8419
44.9238
44.7536
53.3772
52.7202
56.9568
46.1008
49.2229
57.3923
50.898
60.3638
55.096
48.1953
52.6249
53.8004
55.1606
55.0497
56.4947
48.7653
49.479
49.0846
49.3724
52.6987
53.7347
60.4121
57.2756
44.2879
42.1663
41.1407
50.5161
46.8689
50.1665
41.385
43.9149
45.616
41.7767
41.1368
40.8508
38.9785
41.1688
41.8985
41.6824
41.7816
43.2623
43.368
41.6818
47.8955
45.4067
47.8217
47.1277
47.2699
51.2721
49.3536
56.0489
52.5407
55.4604
51.3527
59.3317
54.7273
54.4264
52.6678
42.9549
45.178
45.6956
43.2643
51.3588
46.8274
50.9561
48.4752
46.7532
53.4051
51.2016
53.6503
52.0781
52.8281
57.695
53.4468
57.2679
59.6565
51.0387
59.1121
53.7097
55.0299
55.2068
49.5086
50.8615
49.0473
52.3624
54.2617
49.4718
50.8498
47.3073
47.2719
56.4457
52.485
56.129
53.3765
50.2771
46.9694
54.1584
55.2732
58.7297
52.3588
49.6946
52.6235
40.0853
39.4464
53.8895
49.4352
39.38
38.3662
45.195
41.3138
47.0159
43.9343
41.7014
47.3529
51.3064
47.6757
60.8852
57.3088
50.0738
50.4815
56.7419
54.2321
56.5173
55.5732
59.6071
59.7761
57.7612
53.9176
51.9514
51.1907
49.4686
50.4945
49.7328
54.5835
49.7748
56.2073
53.4764
55.7984
53.11
51.1635
54.3085
53.9319
51.1761
43.0749
41.7074
42.4899
43.9149
42.7335
46.0413
40.2853
41.4903
40.7849
52.1693
49.7783
52.7632
47.1972
48.4813
48.9058
50.8328
49.0056
48.0646
42.9045
43.7784
46.0494
41.5474
42.7506
40.2789
46.0583
44.6778
45.3234
44.4172
44.8619
42.6305
41.711
42.4711
38.9589
39.4853
42.2473
41.8896
41.1707
43.0065
41.6593
39.2512
40.6477
40.2885
40.6106
38.9748
42.3377
41.5784
43.3276
41.1643
41.9144
42.1926
40.5336
39.5641
39.0984
38.3477
38.6745
41.1411
41.7384
43.4473
42.4895
41.2403
43.7289
42.3258
43.1318
43.5622
42.3294
43.3654
42.7389
43.8356
41.4618
42.4625
50.2483
48.4462
50.3614
44.6191
46.6548
46.1397
46.1252
46.6925
44.4919
41.7287
43.5345
43.4714
44.8379
45.3478
45.3594
44.5235
50.2345
47.3434
49.9941
50.3651
50.5076
52.2179
51.6621
52.4021
48.1069
46.6206
56.4153
55.2636
54.4753
52.8758
54.2238
54.6319
54.8575
52.8451
52.1555
48.139
51.3967
50.2354
45.6854
50.9017
47.6919
47.225
52.2297
56.4418
57.3434
55.7447
55.7917
57.9199
55.3156
53.9671
54.2864
52.4018
53.6864
53.7877
57.3178
55.1541
56.4107
53.3756
54.7844
53.9352
43.5974
44.6106
40.7033
41.7651
45.9858
43.6656
44.6568
44.8667
43.1619
45.4883
43.9205
45.5675
41.3091
40.6844
52.383
51.6109
52.7267
47.4378
49.6044
50.5429
48.841
49.3341
46.9261
42.63
45.2483
45.2935
45.1267
45.661
48.2189
46.5762
48.2321
47.1562
49.6931
53.6014
52.492
52.5818
52.3944
54.8629
50.87
49.9483
56.4099
56.3985
52.6862
51.5358
52.1712
52.5035
56.9214
55.7728
54.3599
50.4621
51.5482
50.9047
52.7487
52.3699
56.4247
56.1916
58.6742
54.0937
60.1687
56.3224
57.2752
62.4039
58.928
55.4696
60.1321
58.476
49.2518
51.0449
48.0773
57.5119
53.1581
52.1197
55.0434
53.7802
59.3431
59.5603
62.7112
61.5542
54.6508
54.9652
56.1722
55.2411
53.0604
54.1606
54.5531
52.0027
51.591
49.1437
49.9817
49.3181
52.8823
54.7425
48.3128
53.7716
51.7473
53.2337
53.619
50.77
49.3969
52.7318
49.2001
52.8141
49.8395
53.1713
49.7765
50.7285
46.5524
48.0818
53.1996
51.0026
51.6619
45.0131
44.7516
50.6024
47.4388
50.5173
44.5585
45.3488
55.5573
55.5417
56.7048
52.7098
54.3032
55.6887
54.4946
53.8731
53.4697
48.3046
50.9156
51.6414
51.5592
50.718
46.5948
50.9249
51.1427
52.0221
46.8394
50.6401
50.8638
54.2182
56.5702
54.5461
56.6325
58.6786
54.9686
60.7343
61.4301
55.795
50.825
50.1369
52.6581
51.1617
50.6383
51.4381
54.9795
50.7853
52.2407
50.9659
51.5161
49.5329
42.9015
42.3398
43.4136
42.3862
44.1518
40.5546
43.6999
50.8346
54.0313
48.7901
54.5462
54.0557
52.52
48.3351
41.9313
41.0011
44.5362
40.924
40.3291
45.8852
46.6108
41.2907
43.4966
43.8507
43.3125
38.8974
41.5873
46.0055
42.8085
39.7673
49.2189
43.3498
45.9239
43.4739
40.0722
44.208
40.9333
46.0297
39.0973
43.2336
47.4691
47.5355
47.4538
50.7444
56.2693
57.147
57.5461
56.5841
51.1465
41.8273
45.8549
45.9819
53.0966
52.5948
57.7244
54.8857
57.7168
58.0267
60.71
48.3401
47.4826
52.0299
49.6099
52.2367
48.5466
58.4829
57.2444
56.822
56.4538
55.2807
55.2984
56.1889
54.7276
55.2796
54.3035
59.7568
52.5933
57.4763
56.5765
57.038
56.68
54.0763
55.8286
57.0403
58.4917
57.622
59.55
58.2748
59.7914
61.4997
53.5162
54.347
61.7183
57.6669
55.5411
54.4432
55.478
62.5898
59.0259
61.3782
56.3945
53.7312
55.0931
52.7176
51.9846
52.5703
49.1851
50.8203
52.6227
52.6967
45.6155
49.7952
47.6218
46.2363
47.6812
51.4189
50.5787
51.4502
49.2702
50.6332
49.6016
51.1255
51.1013
50.0859
52.3416
50.8057
51.3376
52.1259
53.5881
53.7325
57.9728
58.0549
57.6038
49.8605
51.2382
50.0303
47.3188
57.8431
48.8261
48.6131
50.2378
48.5163
58.1673
55.1167
50.1086
51.8473
56.0874
53.1738
54.2308
55.0478
55.6542
58.7533
58.244
51.252
55.4642
54.0363
55.6422
55.9811
56.898
53.3089
49.9579
53.7359
53.7182
53.045
52.2482
55.6879
53.7695
49.8955
49.7683
54.2567
51.0627
53.7696
53.1827
54.9955
55.0383
53.5315
53.7964
57.9443
54.7135
55.4853
57.7039
56.3282
45.4539
51.2495
47.1028
48.0471
52.3935
54.6392
54.2595
53.9157
