# vtk DataFile Version 4.2
vtk output
ASCII
DATASET POLYDATA
POINTS 642 double
-88.8807 184.048 85.6202
148.492 184.037 84.8162
-86.8329 -224.621 81.0876
147.059 -224.151 81.2179
30.6487 -132.315 255.997
31.3181 110.712 277.538
30.5477 -134.564 -101.599
30.9756 99.5814 -96.2414
193.724 -14.5031 -20.5783
203.032 -7.12506 194.107
-134.008 -16.2156 -22.7952
-144.446 -8.27996 192.905
-149.156 101.937 153.49
-78.9775 56.7004 262.724
-41.0572 181.142 202.569
102.393 180.389 202.526
30.5919 225.203 85.5011
98.7845 171.329 -27.1637
-37.9443 171.824 -27.1813
-68.6144 51.9185 -83.1589
-138.553 98.535 20.3721
-169.72 -14.1185 93.2449
139.701 57.5259 263.49
208.751 100.757 153.128
-68.1501 -81.4874 246.062
29.6756 -7.57519 301.423
-125.968 -139.99 25.5807
-130.495 -131.14 144.786
29.5659 -18.2787 -138.605
-67.6754 -88.049 -87.2163
199.805 98.9532 20.848
129.753 53.7371 -83.0222
191.574 -128.243 145.864
128.959 -81.5438 246.25
94.7749 -212.844 187.895
-35.0084 -216.316 189.481
29.9718 -264.388 86.3688
-38.421 -213.12 -21.1641
96.5678 -211.159 -19.0616
125.878 -88.027 -85.1947
180.088 -134.317 25.9957
228.056 -13.6711 87.5864
-126.686 149.777 121.944
-104.193 148.279 181.885
-70.4585 191.328 145.775
-119.034 24.5089 233.508
-121.871 85.4643 213.868
-151.764 47.4322 178.079
-6.0314 152.234 248.088
-65.3802 125.328 240.91
-25.7194 87.9997 277.771
-8.10966 214.913 148.845
-33.3939 213.149 84.2037
67.7339 151.571 248.828
30.063 192.6 209.938
94.5176 213.181 84.8143
69.2127 214.926 148.437
130.695 191.213 145.812
-7.68821 209.673 23.3597
-67.0778 187.07 26.0629
128.141 186.092 26.1574
68.0416 209.44 23.2808
-4.59805 141.71 -68.747
30.5315 181.385 -33.0945
65.5748 141.51 -68.8926
-96.6462 142.585 -8.61942
-121.234 146.53 50.8915
-20.9575 79.3094 -97.8289
-59.2072 117.818 -63.3292
-140.237 44.9012 -3.17014
-110.004 81.7663 -37.6179
-107.414 18.8808 -57.1391
-153.903 106.357 88.0725
-154.609 -11.1324 30.481
-161.845 48.4692 53.3138
-164.584 50.5856 121.708
-167.92 -14.3537 140.342
164.009 147.912 182.588
185.231 148.009 122.38
88.092 89.3288 279.122
126.813 125.375 242.811
212.687 47.5349 177.907
181.502 84.9005 214.475
179.182 25.0148 234.046
-24.8176 23.6809 294.812
30.9267 48.7836 299.189
-112.193 -41.7175 225.62
-78.9015 -6.84677 265.356
30.141 -68.6856 282.1
-21.94 -41.0525 284.484
-21.8731 -113.018 258.708
-160.252 -67.8113 119
-143.752 -67.2756 169.975
-134.171 -71.8603 -6.45986
-148.596 -75.3651 55.8541
-112.76 -186.751 112.698
-140.122 -142.275 79.9255
-116.348 -187.242 48.4023
-68.6511 -18.851 -97.4366
-105.133 -53.3377 -58.5254
30.0882 36.4527 -126.037
-18.1781 11.2182 -123.871
-20.737 -115.166 -102.961
-18.9416 -49.2391 -123.124
29.9165 -75.4748 -122.759
120.301 117.553 -63.4437
82.6423 80.0567 -98.2716
182.218 146.116 49.5279
157.904 142.208 -8.58601
166.7 21.6677 -55.4273
170.366 81.8171 -37.5294
200.716 44.5143 -3.2066
170.845 -185.739 109.785
148.429 -177.614 167.622
124.766 -226.204 137.34
171.615 -40.7438 226.49
167.832 -112.323 201.394
199.453 -69.9234 168.887
62.2158 -179.618 223.909
116.732 -148.491 223.602
82.9344 -113.182 258.655
65.4757 -253.079 142.895
95.6414 -254.521 81.9336
-2.25323 -182.873 222.626
27.9434 -225.965 197.075
-34.2072 -254.609 83.7994
-7.93254 -256.56 143.828
-65.2862 -229.635 139.888
69.4057 -250.057 24.1828
126.993 -226.458 28.3176
-67.9743 -228.637 25.8336
-10.3671 -251.287 23.4013
62.9992 -170.587 -70.2017
29.7035 -220.043 -25.3923
-3.26161 -171.469 -69.2594
150.336 -182.595 1.59099
174.252 -186.783 51.3626
80.4202 -115.427 -102.591
112.762 -145.863 -64.7651
194.163 -71.2624 -4.7178
162.325 -107.652 -38.8295
164.21 -52.3341 -56.0013
194.818 -140.763 83.2424
214.776 -9.21163 31.7721
210.117 -69.4886 56.5979
217.476 -69.4193 116.922
223.466 -10.8341 140.863
83.1115 -41.8838 283.234
140.791 -6.31477 265.437
86.4125 25.3356 294.076
-88.597 -181.977 167.011
-55.8087 -150.247 222.636
-107.411 -112.982 201.852
-54.3289 -148.038 -63.4771
-93.0553 -184.663 -1.17249
-103.507 -109.411 -40.4229
127.95 -18.2087 -94.9935
77.9468 -49.5235 -121.337
77.851 12.254 -122.343
225.695 50.4227 122.52
222.05 47.9715 54.5377
214.387 104.565 85.805
-109.242 168.692 104.391
-101.061 172.245 134.715
-81.4967 189.37 115.527
-129.712 126.267 168.185
-117.677 150.353 152.567
-139.852 127.242 138.321
-56.8276 188.645 174.923
-88.5573 171.666 165.438
-73.9699 167.038 193.495
-133.885 8.47991 214.357
-137.643 36.1815 207.44
-150.493 17.196 187.901
-101.803 72.1516 240.304
-121.003 55.2915 225.39
-100.803 40.5271 249.971
-152.691 77.066 166.445
-139.091 68.5419 196.438
-138.231 95.2805 184.657
12.8431 132.101 265.481
-17.1422 122.072 265.368
2.66415 100.921 279.697
-54.372 155.387 223.956
-36.7392 140.83 246.033
-23.8353 168.832 227.201
-53.2558 73.1051 272.037
-46.7135 107.95 261.039
-73.4676 92.0022 253.611
-115.735 118.098 199.896
-96.216 106.403 229.192
-86.6358 139.088 213.497
-52.7629 205.12 117.163
-62.9621 200.29 84.6592
-25.6732 201.382 177.526
-40.0024 205.82 148.882
-1.38412 221.212 84.9241
-20.3674 216.26 117.525
11.6667 223.183 116.572
49.2215 131.817 265.923
30.5629 154.448 249.881
67.2295 189.244 208.017
49.4495 174.527 230.213
85.3972 167.93 227.577
11.1952 175.134 230.294
-6.34982 189.924 208.32
123.607 200.509 84.9606
113.408 205.23 116.982
140.74 189.247 115.388
49.4786 223.195 116.501
81.4979 216.279 117.39
62.3877 221.241 85.1744
117.768 188.222 174.709
100.995 205.755 148.538
86.8136 201 177
10.6334 207.74 181.679
49.8813 207.261 181.264
30.4037 217.456 149.133
-51.4515 203.714 52.8888
-78.8967 187.809 55.1109
11.071 219.242 53.7528
-20.8471 214.56 52.5143
-53.5228 181.613 -1.33876
-38.1845 200.977 23.6074
-23.8832 193.418 -3.25752
139.729 187.123 55.423
112.282 202.894 53.7682
84.3605 192.963 -3.34768
98.6656 200.073 23.6566
114.457 180.832 -1.42175
81.2298 213.926 53.0883
49.6595 219.315 53.8499
13.3242 121.871 -83.9937
30.6054 143.595 -69.7294
48.0629 121.716 -84.2458
-5.03466 179.324 -32.0116
11.9677 163.641 -52.1746
-21.3774 158.273 -49.9261
82.2236 157.988 -49.928
49.0272 163.63 -52.2193
65.7828 179.205 -32.0268
30.4634 212.461 22.1555
49.3986 198.943 -6.77188
11.4592 198.937 -6.70078
-95.8906 168.905 36.4569
-106.367 167.148 68.2544
-68.9126 159.513 -19.191
-83.3067 166.18 6.91592
-131.887 123.652 34.8065
-110.199 146.065 19.0466
-119.823 122.011 4.61207
4.54053 90.2558 -99.3377
-14.8252 112.843 -84.5753
-65.13 87.2543 -74.3659
-41.7695 100.883 -81.3446
-45.1017 66.7359 -92.1619
-33.2494 131.479 -67.4458
-49.822 146.287 -47.4934
-137.148 13.234 -13.8691
-125.431 33.2191 -32.4398
-121.799 1.00624 -40.597
-126.013 91.5523 -10.5433
-126.671 64.6623 -21.3096
-141.252 72.7762 8.04525
-90.2842 35.5245 -71.3404
-109.352 51.3146 -48.3254
-90.812 68.4004 -61.5626
-79.4332 131.969 -38.0898
-86.8223 101.301 -52.3027
-105.614 113.03 -25.3181
-127.084 149.662 87.2716
-148.462 103.661 53.9768
-140.081 127.041 69.8437
-142.983 128.613 105.212
-154.395 105.957 121.415
-145.12 -14.4093 0.679745
-149.629 16.9244 13.8017
-166.329 16.7598 70.9773
-160.639 19.1272 43.3139
-163.958 -10.7554 62.383
-153.102 47.9944 26.2097
-153.243 73.9864 37.4775
-160.732 16.6706 161.37
-157.77 -11.0031 167.472
-161.02 78.4863 138.26
-160.984 50.9623 150.07
-173.47 -15.8396 116.937
-166.984 13.8386 132.227
-168.562 12.8956 105.529
-160.612 78.6948 70.3041
-165.252 50.313 87.1285
-162.751 80.6253 105.671
159.926 171.513 135.357
167.443 167.554 103.666
134.948 166.555 193.994
148.637 171.27 165.868
199.137 125.637 138.746
176.748 149.415 153.256
188.852 125.487 168.414
60.176 101.177 280.573
79.708 121.756 266.807
134.208 93.1455 255.195
108.745 108.547 263.17
114.472 74.6975 272.938
98.8867 140.243 247.502
116.049 154.775 224.955
209.078 19.5476 187.652
197.871 37.2451 207.575
192.929 9.20216 214.712
197.442 94.3624 184.638
199.752 66.7483 196.759
212.94 74.6941 166.018
161.679 40.5742 250.551
181.812 54.7977 226.045
162.05 72.3582 241.113
147.329 138.972 214.673
156.272 106.834 230.525
175.16 118.006 200.603
2.00989 68.2745 291.499
31.2977 80.9795 289.28
-53.2323 40.4357 280.719
-26.5033 54.2865 288.219
30.2173 19.2299 302.904
1.89379 35.3041 299.814
2.40459 7.8735 302.005
-130.103 -24.5743 209.974
-116.806 -6.84245 232.22
-74.8717 -41.0984 258.675
-96.3526 -24.0843 247.379
-90.9434 -61.486 237.844
-99.8663 9.47269 251.853
-81.0297 23.8701 267.516
30.6006 -104.356 268.001
4.21047 -91.6267 270.771
3.7609 -123.972 259.447
3.29318 -23.7857 295.928
3.92903 -54.0181 286.083
29.6988 -36.0101 293.66
-45.624 -99.5037 254.765
-22.413 -76.6102 269.752
-46.8967 -61.1321 267.213
-53.8048 8.58048 282.767
-50.9926 -24.2779 277.72
-24.0259 -7.67488 293.119
-158.823 -39.2824 155.51
-146.397 -37.5894 181.61
-168.31 -37.6515 108.183
-166.972 -38.5865 128.763
-136.468 -99.5031 159.01
-154.263 -67.8886 143.949
-144.439 -99.9117 130.786
-134.952 -43.0122 -15.6966
-145.292 -42.9846 9.79312
-138.59 -109.781 39.7996
-143.018 -73.9919 20.9844
-130.754 -102.779 7.97076
-153.698 -39.915 42.2842
-162.534 -37.9262 76.7575
-101.664 -207.518 97.4975
-117.714 -188.522 79.6352
-103.383 -207.99 64.0669
-136.559 -138.838 111.247
-128.113 -164.76 95.1306
-121.814 -160.752 127.347
-123.338 -165.653 36.0916
-129.369 -166.25 64.1253
-136.06 -143.763 54.1687
-156.321 -73.2286 90.6446
-146.802 -113.962 69.9739
-146.858 -107.743 97.292
-107.227 -17.5112 -59.8501
-121.306 -33.9931 -41.0839
-68.4039 13.0588 -91.3483
-88.7002 -0.907225 -76.9326
-87.47 -71.7381 -74.045
-88.0791 -35.9361 -78.3209
-68.7637 -51.6161 -92.3974
30.584 68.5323 -111.591
5.96299 56.3316 -114.395
5.69976 -3.53172 -134.756
6.14615 23.317 -127.743
29.6898 7.59321 -134.622
-19.1822 43.4678 -111.854
-42.0672 30.1702 -104.86
4.67583 -126.305 -104.506
3.55155 -97.936 -115.621
30.5408 -109.796 -113.155
-43.0101 -70.2597 -105.351
-20.7443 -84.3532 -113.056
-44.9167 -102.593 -97.088
29.5574 -42.3555 -135.032
4.34263 -61.0428 -126.398
5.78822 -32.383 -134.88
-44.3686 -4.29737 -114.096
-19.7776 -18.0479 -128.422
-44.7718 -33.0531 -113.681
75.9062 112.438 -85.0801
57.135 90.6292 -99.6647
110.933 145.89 -47.5184
[...]
POINT_DATA 642
SCALARS Mean_Curvature double 1
LOOKUP_TABLE default
0.00845319
0.00925089
0.0129156
0.0175396
0.00737376
0.00859075
0.0107356
0.00480019
0.0117375
0.00938615
0.0117879
0.00480134
0.0117892
0.00869422
0.0103089
0.009647
0.0125617
0.00944177
0.00980031
0.00602678
0.00818297
0.00959177
0.00816195
0.0114614
-0.000724212
0.0123048
0.00215569
0.00853953
0.0213254
0.0113237
0.00965913
0.00840554
0.0107794
0.000418827
0.0135516
0.0143994
0.00568222
0.0145548
0.0124697
0.00970984
-0.00491954
0.00997144
0.0116545
0.00964908
0.00991779
0.0111035
0.0101471
0.00620432
0.0100647
0.00906997
0.00741398
0.0100632
0.0076817
0.00994331
0.0107346
0.00864174
0.0104224
0.0105952
0.0107544
0.0100673
0.00961033
0.0111334
0.0106101
0.00770086
0.0105343
0.0104071
0.00770419
0.00685473
0.0107133
0.00594604
0.00944546
0.00773599
0.0114298
0.00368623
0.0097831
0.00321285
0.0131118
0.00999076
0.00945897
0.00999339
0.0104649
0.00964409
0.00856037
0.0107527
0.0126127
0.00961768
0.00660115
0.00830865
0.0061301
0.007965
0.0105738
0.0141771
0.00751306
0.00826603
-0.00274224
0.00968599
0.0149886
0.0148314
0.0121218
0.00654165
0.0136146
0.0111849
0.0117619
0.00912735
0.00151888
0.0106585
0.00876471
0.00918061
0.0105334
0.00554984
0.00839101
0.00756264
0.00776859
0.00490383
0.0110806
0.00715368
0.0116631
0.00109482
0.00443301
0.00845194
0.0107776
0.0111652
0.0137138
0.00384994
0.0141275
0.00732496
0.0142936
0.0125345
0.0129757
0.0119998
0.0128939
0.0140658
0.0105551
0.00729813
0.00908243
0.0134991
0.018998
0.0127779
0.00920279
0.0103654
0.00922838
0.00603297
0.00841755
0.00244739
-0.00199831
0.00852536
0.006713
0.00752702
0.00970882
0.0117559
0.00501393
0.00737178
0.0123022
0.00774703
0.0135053
0.00911586
0.0107879
0.00806265
0.0103629
0.00552497
0.00603739
0.0106369
0.00955444
0.0102037
0.00902566
0.0102283
0.00996859
0.0107535
0.00991976
0.00921081
0.00955736
0.0114941
0.0084407
0.0129323
0.00900755
0.00751669
0.0104742
0.0123132
0.00881266
0.0118223
0.0103696
0.0100663
0.00863167
0.00967589
0.00960434
0.0103541
0.00753251
0.00828932
0.00800294
0.00997798
0.00917259
0.00964275
0.00911058
0.00717625
0.0109555
0.010961
0.00734194
0.00713073
0.0108665
0.00999401
0.00768917
0.0103609
0.00923698
0.00958397
0.0106656
0.0113339
0.00904079
0.00985408
0.00846549
0.0109183
0.00731092
0.00758573
0.0097624
0.0113767
0.0107101
0.0124274
0.0110971
0.00609387
0.011906
0.00991852
0.0071874
0.0116476
0.00979305
0.0108987
0.0100951
0.00964889
0.0107033
0.00995141
0.00975768
0.00959557
0.00995997
0.00791736
0.00845462
0.0067986
0.0087884
0.0104262
0.00945268
0.0101297
0.00981185
0.00975112
0.0105895
0.00966494
0.0109845
0.0104544
0.00949851
0.00688746
0.00989513
0.0102024
0.00830065
0.0100962
0.00986885
0.00756595
0.00920297
0.00875036
0.0101252
0.0054011
0.0103053
0.0100887
0.00410925
0.00945087
0.00577065
0.0103399
0.00720838
0.00831937
0.00894726
0.00705043
0.00699813
0.0103334
0.0105557
0.0104988
0.0111237
0.00958397
0.00916066
0.0103842
0.0130302
0.00905255
0.00436778
0.00686411
0.00843997
0.00742452
0.00691553
0.00985047
0.00878553
0.00805
0.0156727
0.00736592
0.0282544
0.00455606
0.00303948
0.0117262
0.00459474
0.0114158
0.00959205
0.00605661
0.00993115
0.00973458
0.0109121
0.00982604
0.00961095
0.00967313
0.0107293
0.00900765
0.0111265
0.00732101
0.010151
0.0100047
0.00857971
0.0098833
0.00929658
0.00965283
0.00984515
0.0104299
0.010699
0.00923601
0.00816384
0.0103866
0.00952476
0.00979416
0.00858519
0.00620623
0.00904379
0.00754869
0.00984759
0.0116263
0.016201
0.00551559
0.00865723
0.00788785
0.00724841
0.00540328
0.0103217
0.0133131
0.00533084
0.00389546
0.0118286
0.0102689
0.00847965
0.00719226
0.0101622
0.000663015
0.00682888
0.0115398
0.00773094
0.0111006
0.0103696
0.0087349
0.0112114
0.0124358
0.00563955
0.00823609
0.00138803
0.00713321
0.00684561
0.000785084
0.00717426
0.00550399
0.00186293
0.00419481
0.0107282
0.0124391
0.0134281
0.00826647
0.00716048
0.00542954
0.0134759
0.0127096
0.0115777
0.0040962
0.0139869
0.00258229
0.00835495
0.00853995
0.00252155
0.00436556
0.00825572
0.00619694
0.00391983
0.00812323
0.00696244
0.0162384
0.0109432
0.0136956
0.00618609
0.00399499
0.0128631
0.0108237
0.00921435
0.00294105
0.00859251
0.011872
0.0155398
0.00798499
0.0167485
0.0133086
0.0174811
0.0114251
0.00921153
0.00870559
0.0100342
0.0101192
0.00805247
0.009803
0.00861162
0.0086949
0.00978416
0.010233
0.0102442
0.00882809
0.0103252
0.00993347
0.00396465
0.00951557
0.00507448
0.00797953
0.00977563
0.00925593
0.00596783
0.00679781
0.0104839
0.0104934
0.0109893
0.0104628
0.0155061
0.0104381
0.0120013
0.00757369
0.00503115
0.00585354
0.0133827
0.0109274
0.0094406
0.00694838
0.00422595
0.00608962
0.0117064
-0.00211422
0.00471152
0.00933306
0.00883962
0.0110953
0.00556359
0.00913846
0.0118389
0.00529096
0.00508092
0.0114728
0.0101996
0.0101948
0.0107077
0.00927734
0.0104559
0.00600187
0.00948003
0.0150744
0.011942
0.0121751
0.00905306
0.00773438
0.0157211
0.0045142
0.00293126
0.0155004
0.0157303
0.0151434
0.0106684
0.0118377
0.00988729
0.010961
0.0107859
0.0175859
0.0163438
0.00543049
0.013286
0.0132376
0.0135265
0.0118694
0.0133293
0.0130013
0.0131675
0.0129824
0.0093576
0.0124252
0.012666
0.012468
0.012946
0.0130519
0.0136116
0.0138444
0.0137279
0.0133908
0.0141562
0.00805132
0.0128173
0.00723724
0.012386
0.0133564
0.00165003
0.00263276
0.00452094
-0.000993634
0.0145631
0.00847706
0.00970047
0.0123724
0.0123278
0.0148264
0.0110849
0.0128584
0.0122045
0.0176095
0.00405393
0.0135229
0.0126602
0.0110648
0.0122338
0.0123642
0.0101196
0.00233026
0.00520285
0.00870767
0.00715951
0.00694756
0.00969166
0.00827172
0.00702769
0.00886694
0.0106251
0.00158366
0.00863494
0.00299554
0.0195029
0.00448343
0.0136037
0.00484586
0.00962745
0.00773018
0.00572902
0.0127852
0.00183932
0.00334738
0.00939555
0.00338096
0.00981001
0.00577333
0.00752485
0.00594656
0.0100132
0.0125986
0.0128424
0.0085419
0.00927961
0.00575948
0.00438025
0.00698679
0.00120903
0.00711783
0.0092479
0.00976949
0.0135073
0.0118664
0.0081708
0.00806054
0.00830172
0.0140323
0.0129084
0.00707082
0.0107208
0.00738741
0.0115905
0.00759369
0.0132084
0.0110547
0.0130924
0.00869198
0.00540638
0.00848268
0.0104657
0.00969665
0.0028036
0.00541416
0.00719857
0.0116408
0.00358647
-0.00244831
0.0115228
0.0043337
0.0100689
0.00830197
0.0117683
0.00329735
0.00789925
0.0112817
0.0108956
0.0127509
0.0130646
0.0151668
0.0134626
0.0136961
0.00713766
0.0117051
0.00984971
0.00934446
0.00331456
0.00182908
0.000491595
0.00827105
0.00887798
0.00533694
0.00526837
0.00372345
0.00223572
0.0131232
0.0163973
0.00673238
0.00885968
0.00167155
0.00618536
0.00375968
0.00579192
0.0109767
0.0146078
0.0104671
0.0167295
0.0112041
0.0100579
0.0010853
0.00995201
0.00976617
0.0162339
0.0067944
0.00969582
0.00446918
0.0122108
0.0115047
0.00861934
0.0115461
0.00717227
0.0110914
0.011405
0.00612033
0.0159695
0.0111272
SCALARS CoVolArea double 1
LOOKUP_TABLE default
780.099
771.688
693.558
610.623
740.662
759.996
593.714
739.821
651.371
645.985
635.476
663.55
888.9
1004.53
1074.96
1089.69
1094.01
992.128
987.541
1063.88
928.831
796.513
1002.78
912.836
1071.17
826.939
974.591
1041.21
658.367
887.83
884.197
991.862
906.279
1055.35
902.708
866.038
1123.09
903.256
949.275
895.909
1157.46
849.483
935.496
1099.23
1021.97
843.661
1022.22
916.091
1011.45
1107.92
1020.31
1162.28
1079.29
1026.8
1125.25
1062.13
1163.87
1003.66
1090.1
951.243
966.308
1090.82
903.874
1060.14
905.185
983.794
975.042
973.13
936.857
916.43
927.02
894.238
923.037
972.709
932.73
1038.45
758.057
1082.04
991.022
971.62
1068.53
845.653
1047.13
827.804
924.957
957.885
1010.21
932.169
1008.56
1012.83
910.332
950.959
931.576
872.926
1299.64
870.866
848.161
764.314
934.059
872.587
835.632
869.686
800.556
914.786
961.163
942.399
936.257
942.761
975.479
904.023
920.968
896.601
862.804
1082.94
913.484
985.12
909.711
1029.8
1000.46
1031.91
884.287
1077.35
981.526
960.34
930.478
1051.47
1002.54
897.474
1060.75
878.669
881.091
1058.28
986.352
1115.16
1040.15
957.461
654.205
759.842
1056.22
786.678
980.617
880.504
943.608
961.799
1132.68
903.825
849.461
1061.35
903.138
938.699
1066.62
1093.25
961.781
1102.39
935.227
1042.02
961.751
933.211
898.386
936.313
908.864
928.556
945.975
1000.69
986.783
1025.91
978.884
901.254
1013.35
1023.43
1113.8
800.199
900.948
821.108
1046.86
930.356
873.975
830.081
912.844
964.265
960.604
1004.14
968.488
1106.46
1010.34
999.846
1007.13
1018.61
1091.74
1176.84
1200.62
1230.67
1074
1007.57
1107.5
1041.44
1057.43
1092.17
1152.99
960.354
1049.15
1127.08
1052.79
1023.47
1032.72
1095.95
977.772
1042.02
979.137
1148.16
1073.96
1049.36
1006.07
1028.2
1120.76
1263.43
1278.3
1312.04
996.962
959.618
1141.11
1020.61
939.001
958.726
1040.64
942.738
1008.26
1042.6
983.442
947.834
1034.18
1138.67
898.958
948.108
889.73
1032.31
949.775
899.158
902.65
947.697
1027.43
1240.01
1184.69
1193.01
982.264
964.719
1003.98
939.885
920.808
938.901
961.587
928.165
909.171
963.478
888.411
982.92
873.402
977.666
873.926
906.241
844.14
918.096
869.861
850.821
943.594
885.207
972.336
1073.65
1033.48
1038.9
957.625
953.116
928.174
899.774
890.175
848.659
943.798
993.526
907.138
927.421
876.489
908.169
912.596
812.701
863.102
935.008
644.133
926.087
1010.87
1007.46
1138.68
990.032
1012.29
989.834
1101.97
1006.46
917.2
976.249
1028.49
945.487
977.149
1058.06
963.206
973.431
997.737
1099.62
815.419
861.408
790.535
1005.12
903.515
831.034
867.7
915.569
1052.32
1204.45
1183.98
1178.21
1016.73
980.702
1000.23
985.893
810.907
893.439
837.807
876.832
866.024
1060.72
919.733
1036.89
830.241
914.479
924.377
1015.28
894.621
874.712
975.702
863.011
935.806
1033.22
1108.03
1018.71
1089.48
982.947
820.946
864.892
774.198
684.076
950.91
898.076
1113.89
789.768
929.671
1128.57
1091.03
1032.35
1117.76
1078.06
839.725
823.479
811.718
1050.03
861.941
938.836
700.983
746.625
833.972
1171.85
1060.59
1099.76
900.514
815.358
1051.22
939.847
841.759
922.637
994.453
915.997
949.373
724.739
811.612
692.794
974.647
1071.62
762.152
904.776
831.072
1013.61
901.122
814.655
758.598
888.865
745.667
958.253
844.776
982.546
895.674
907.216
981.178
881.76
927.584
870.955
934.653
954.877
961.442
941.321
917.443
880.454
938.059
1003.26
868.423
876.397
841.329
924.974
846.834
895.681
873.153
866.837
913.215
1068.78
1029.84
1033.06
741.805
882.646
840.999
1035.42
978.732
962.648
853.528
900.63
988.416
864.856
1074.61
930.665
994.016
1038.73
1022.19
854.471
939.823
879.016
993.391
941.082
870.955
1035.33
988.365
893.604
914.419
877.284
931.59
1103.77
1049.38
1199.94
987.138
847.715
995.167
973.237
1036.18
1040.64
1071.93
1002.96
994.516
879.11
808.376
821.299
870.382
947.691
949.584
993.297
907.418
1033.23
976.332
1063.51
848.166
914.944
961.522
1146.63
1114.83
1148.79
912.038
816.405
1172.27
984.227
820.962
909.046
928.285
865.749
962.747
925.771
895.217
821.495
1016.06
1190.25
790.341
1078.36
814.038
1015.35
1150.58
1027.4
1011.62
1169.73
1008.72
1259.74
1145.32
1132.63
810.146
723.103
985.136
788.629
733.98
700.493
985.562
738.549
797.954
846.262
782.714
793.56
952.102
1135.62
806.723
818.297
834.284
1111.19
817.982
969.146
860.866
801.436
849.498
1301.72
1164.75
1265.64
704.404
1027.86
690.184
855.609
994.025
857.352
932.713
906.693
1020.39
860.09
964.276
1231.19
930.125
845.518
948.832
914.722
815.356
795.545
791.733
1190.79
1044.55
1082.07
1008.56
1104.94
1029.37
996.913
928.844
833.94
898.581
800.017
879.097
1041.59
996.912
874.629
893.488
967.732
989.896
1111.81
1024.58
1049.53
870.961
968.274
854.656
906.79
1055.29
980.986
962.648
925.276
1014.14
1033.59
1030.21
976.92
979.4
1068.13
1010.52
1241.66
1094.83
1156.31
851.112
1082.35
1004.56
849.692
894.687
845.218
916.136
734.085
804.586
941.781
834.801
860.052
799.707
907.295
1126.37
1251.67
1273.42
1206.83
929.416
1003.11
933.097
959.09
1054.42
874.33
758.124
889.577
880.781
1025
941.923
1063.08
962.672
825.66
736.268
1006.27
868.817
1003.25
865.114
1038.68
882.738
808.309
853.752
897.701
895.324
902.618
852.556
940.001
1002.25
927.261
956.323
922.5
885.288
1062.97
958.39
982.051
SCALARS SignedDistance double 1
LOOKUP_TABLE default
85.5548
85.8867
87.1532
88.784
101.726
86.7468
94.9618
98.4764
110.633
105.492
109.099
103.159
92.4977
91.7855
79.0803
79.3094
79.5631
88.8584
88.6335
103.896
101.242
110.501
91.539
92.8028
108.152
98.4528
111.47
104.694
93.7419
103.116
102.288
105.503
105.457
107.536
93.7227
93.2678
85.343
93.946
96.9937
105.489
112.644
110.353
86.7801
83.8303
80.8785
98.5913
92.046
97.8407
81.6642
86.0698
89.0891
78.8736
81.1857
81.0592
77.2519
81.1945
78.8203
81.6325
82.4856
85.6726
85.9762
82.6746
93.8659
88.8713
93.7358
92.9257
92.0958
100.668
96.9075
108.156
103.176
108.821
96.657
112.664
106.841
105.527
102.58
84.7936
88.7583
88.6787
85.0035
100.175
92.2357
99.2013
93.4751
90.0416
105.01
100.592
104.266
102.222
102.628
110.174
105.992
110.862
114.419
99.0826
108.749
99.2632
105.673
107.837
97.2039
100.09
97.0299
101.099
100.601
96.9354
100.006
92.0845
93.0882
109.818
103.527
108.755
101.689
99.0759
89.9523
106.442
105.72
110.462
99.6634
99.3719
102.586
79.5823
78.1842
101.597
91.3512
78.0156
76.6636
87.1408
81.6618
89.8717
85.6135
81.0893
94.8355
94.9043
94.9364
108.672
105.413
98.2886
100.038
110.986
107.011
110.051
107.992
113.219
114.886
110.544
105.609
102.316
100.693
95.1662
98.9562
99.2134
104.641
98.7862
102.461
105.123
107.413
102.58
100.926
105.446
105.82
96.1807
85.3519
83.0656
83.3163
86.9713
84.6054
88.9572
79.5742
81.961
81.3633
101.491
97.7778
101.604
92.1513
94.9932
94.9207
97.5769
95.7795
92.0138
83.8627
85.6579
88.0922
82.1623
83.8103
79.9376
90.3243
87.7359
89.3276
87.4367
88.4786
84.4184
81.7572
83.2748
77.4385
78.6837
81.291
80.5693
79.4918
83.9354
81.8416
77.8381
79.4708
79.7616
79.1329
77.3663
83.3107
81.9015
84.6789
79.4896
80.5737
81.2654
79.9555
78.8619
77.7803
76.0071
76.6819
79.4059
82.6314
85.4202
82.024
80.9345
86.7804
83.7345
85.2996
85.6792
83.3824
85.6722
84.3282
87.0583
81.7234
82.0419
96.9419
94.452
97.1033
88.081
91.2776
90.9388
91.0006
91.3028
88.1686
82.5926
85.1343
85.1207
88.5276
88.493
90.056
88.8442
96.6592
92.5583
97.0658
98.8274
97.6678
101.73
99.488
102.504
94.7192
92.3668
109.77
107.427
107.81
102.252
105.495
105.458
105.697
104.772
103.251
94.7243
100.018
98.3937
89.523
98.4936
93.7559
90.9917
95.689
110.491
110.788
107.856
109.154
112.054
107.775
104.206
103.537
102.089
101.772
101.913
108.176
104.202
108.422
102.356
106.212
103.596
85.3346
87.5383
81.4458
82.7663
89.6318
86.1457
88.33
87.1476
84.2553
89.1722
86.3906
89.8923
82.2484
81.3332
102.376
99.9863
102.586
92.5511
95.8874
96.7033
95.1913
95.7376
92.0002
84.3715
88.8036
88.5267
88.8492
88.6736
92.9816
91.0722
93.4083
91.2105
95.7893
104.14
102.547
103.789
103.039
106.658
99.6261
97.1103
105.263
106.162
101.906
100.239
102.754
101.539
104.826
105.627
105.313
98.0051
101.276
98.9923
103.892
103.932
109.829
105.518
108.712
106.254
110.208
110.259
111.841
113.668
112.562
109.161
113.66
113.102
93.3602
97.6619
91.3993
106.884
102.032
101.869
106.612
103.301
108.882
114.11
117.734
115.336
107.663
108.537
107.117
107.419
105.231
106.473
105.249
99.3333
100.079
96.2633
98.1098
95.835
102.21
104.652
95.2467
99.0773
97.5713
102.93
101.684
99.5867
96.4773
100.136
96.3888
102.994
97.8237
103.022
97.0774
98.4593
92.403
94.6087
102.611
99.0513
101.442
88.4425
88.5611
97.5295
92.6774
96.9063
88.9583
90.1641
109.64
109.037
111.08
103.75
106.263
108.402
105.923
105.433
103.353
94.8815
98.9792
100.362
96.1299
96.1834
89.3202
101.033
99.8987
101.966
91.0168
96.463
97.4167
105.908
109.112
106.917
106.821
110.351
107.195
110.98
110.934
105.541
100.28
99.7078
101.897
99.0015
99.1555
97.48
104.693
100.752
102.618
101.156
101.785
98.7981
83.51
82.4276
85.8932
83.815
80.5606
79.5376
78.445
100.199
102.251
90.8791
97.8952
98.3952
97.7189
91.5187
81.8016
80.8885
86.3199
75.5533
76.9015
81.3071
89.3534
81.1736
84.0914
84.3115
82.789
76.8222
82.1014
87.9602
78.6823
78.7337
93.0921
84.7348
88.647
84.5185
79.5283
86.1638
81.5171
89.0714
76.9691
78.7475
93.9345
94.4471
93.9322
94.6141
97.3232
99.3948
99.2714
97.3655
94.6404
82.1768
88.1555
88.1329
96.7415
95.8823
101.667
99.1045
111.999
106.711
113.713
95.4491
95.4123
102.228
98.6972
101.894
97.108
102.258
111.926
110.554
110.669
108.549
109.17
110.421
107.574
108.504
106.186
106.304
103.843
108.126
102.797
110.937
109.473
104.841
106.381
111.604
113.183
112.355
114.609
112.749
112.985
115.226
106.402
105.917
112.597
110.138
107.781
106.884
108.518
116.542
113.213
114.442
106.259
104.938
105.295
103.204
100.89
103.168
96.4234
99.6726
103.498
103.992
89.1654
96.357
92.2271
90.5246
92.4445
101.311
98.2012
99.6083
93.4907
96.7499
94.6737
99.3378
100.493
99.598
102.525
100.718
99.5955
99.6731
105.753
103.882
108.619
108.384
106.58
98.6593
101.205
100.095
94.8847
101.825
96.8198
97.1568
99.8109
91.6282
109.353
101.039
93.9849
96.9762
109.443
103.795
106.692
107.975
107.937
105.03
107.272
101.727
109.238
106.625
108.796
109.017
108.558
99.7633
97.7896
101.49
103.261
104.217
100.381
105.694
102.864
98.4923
97.3712
104.885
99.8283
104.554
103.441
107.075
106.283
102.191
101.284
111.947
106.036
107.578
111.388
109.364
89.6501
95.6385
92.0998
93.8335
99.2758
106.052
104.281
103.164
