# vtk DataFile Version 4.2
vtk output
ASCII
DATASET POLYDATA
POINTS 642 double
-63.8734 151.118 88.3807
122.484 151.577 86.5383
-58.0624 -194.718 79.5332
117.668 -194.261 79.7971
30.6791 -110.585 211.93
32.0215 93.7614 238.841
30.514 -112.531 -61.3815
31.3109 78.2227 -53.48
147.06 -12.0199 5.72794
158.524 1.19239 170.355
-87.5422 -14.8363 2.29654
-101.753 -0.783063 167.19
-109.516 87.5221 141.509
-55.0029 47.9609 226.629
-26.4487 152.399 182.365
87.9957 151.088 182.493
30.5622 186.552 88.1625
83.7088 140.325 -1.69479
-23.0158 141.049 -1.61583
-41.3175 41.4244 -42.5305
-95.6985 83.3011 38.9013
-116.957 -10.3049 102.341
115.205 49.0035 227.79
169.207 85.0618 140.939
-39.6206 -66.8522 203.527
28.8072 2.09584 254.799
-77.204 -126.811 45.8316
-85.8171 -113.977 129.97
28.4174 -18.2263 -92.9696
-38.1318 -78.0247 -48.2746
156.413 84.8246 40.1418
101.207 45.1589 -41.9625
146.724 -110.179 131.604
100.318 -66.982 204.392
75.626 -186.258 157.818
-15.7348 -191.494 158.835
29.6993 -223.853 90.0649
-23.3607 -187.005 11.1092
79.4112 -183.883 12.31
94.8578 -77.9721 -45.8893
130.811 -116.127 44.2287
175.213 -10.4166 93.2032
-94.0597 124.031 117.672
-77.368 123.688 164.358
-50.6239 158.769 136.946
-83.4658 24.505 201.731
-88.5139 73.828 187.267
-108.245 42.4234 160.372
1.67695 128.191 217.709
-45.31 105.978 210.063
-12.3713 74.2043 239.034
-0.988698 178.336 140.997
-21.2428 175.797 85.3796
60.7554 126.969 219.196
29.6059 162.281 188.436
82.2934 175.877 86.5872
62.0464 178.469 140.258
109.859 158.861 137.195
-0.718091 172.768 36.7061
-45.9122 154.487 40.0995
107.231 153.073 40.0565
60.4039 172.577 36.4146
2.63637 115.454 -32.6126
30.4845 148.451 -5.48045
58.2987 115.068 -32.9505
-66.7393 117.98 13.3795
-86.5637 120.925 61.7701
-5.616 62.75 -54.8347
-37.2689 97.7646 -27.5579
-93.1097 39.5442 19.6628
-72.8239 69.7235 -6.60005
-68.6695 14.6951 -21.6846
-110.613 90.5081 92.6278
-101.713 -6.26472 45.7167
-111.531 44.6343 64.9599
-113.419 46.83 119.447
-120.236 -11.7201 128.636
136.038 123.322 165.829
151.789 121.453 118.312
75.2965 76.4513 240.092
106.298 106.079 213.186
167.971 43.6783 159.34
147.567 72.4919 188.546
142.468 25.4838 203.244
-10.4488 22.1391 252.158
30.9683 40.9281 256.241
-76.4864 -27.4823 192.282
-51.4722 2.12069 226.178
29.8297 -50.8211 234.971
-7.51796 -25.0855 239.857
-9.05951 -95.9852 214.3
-109.934 -51.3886 116.578
-101.04 -50.4989 148.07
-85.3049 -60.6093 13.2628
-95.0997 -64.5995 66.8839
-71.5879 -164.724 100.816
-89.8766 -128.303 80.1584
-75.1234 -166.524 58.1325
-35.3715 -19.8088 -58.2217
-65.4156 -47.3253 -24.9452
29.7038 20.1635 -81.7523
0.686645 -1.09158 -81.3286
-5.08073 -98.5766 -62.2795
-0.509838 -38.3022 -79.8288
29.0787 -61.8517 -75.5728
98.1735 97.2928 -27.8647
67.7142 64.1895 -55.5767
147.664 120.259 59.5242
128.058 117.531 13.4362
127.65 19.0194 -19.3804
132.743 69.9266 -6.76677
153.521 39.4062 20.0833
128.392 -163.853 97.2076
114.909 -152.232 144.594
98.8379 -196.256 121.157
134.429 -25.6431 194.325
129.81 -98.2976 171.144
154.264 -56.2388 146.581
54.4114 -153.572 183.428
94.7948 -124.591 188.462
69.845 -96.3602 214.113
54.9434 -218.932 129.416
83.0486 -219.012 81.3716
5.05832 -158.705 180.033
25.7119 -197.86 164.857
-21.7176 -219.075 84.4174
0.143386 -223.379 130.672
-40.3476 -200.367 124.904
62.1895 -214.998 39.6566
103.325 -196.13 45.6456
-45.6364 -198.684 41.2643
-5.07884 -216.029 38.6751
53.2927 -138.974 -39.0891
29.2315 -189.737 7.43505
5.68421 -140.017 -37.7336
112.022 -162.885 29.3716
128.9 -169.237 64.2091
63.1076 -99.7141 -61.8345
86.0674 -120.701 -33.7976
145.969 -60.1467 15.8396
122.289 -90.1796 -11.3154
124.134 -45.9472 -21.2164
145.604 -124.186 87.219
162.106 -3.27201 47.4921
157.33 -56.2039 69.3451
167.08 -53.8807 111.339
173.789 -6.49248 129.649
69.0039 -26.7455 238.225
113.707 3.21666 226.24
72.2516 25.2281 250.299
-54.5157 -158.741 142.353
-34.2434 -126.81 186.986
-69.7243 -98.882 172.086
-29.2477 -122.462 -32.4635
-59.3802 -165.317 27.0977
-63.8657 -92.2559 -13.8783
94.0404 -18.5811 -55.1338
57.987 -38.8096 -77.4776
57.9735 1.31356 -79.3528
174.495 47.8067 119.753
172.427 44.1026 66.7788
171.646 87.7848 88.8535
-80.6214 139.102 104.148
-75.2834 142.432 127.933
-59.3815 155.686 112.371
-97.0194 105.418 152.776
-88.0362 124.777 141.24
-103.877 106.277 130.109
-39.3885 157.777 160.139
-64.978 142.77 152.051
-52.9075 139.994 174.499
-94.6165 12.6592 185.59
-98.0001 32.8823 181.976
-106.616 17.2454 166.621
-72.4385 61.4157 208.619
-85.8788 48.444 196.504
-70.6067 36.1288 216.039
-109.027 68.6722 150.758
-99.6697 60.7124 173.222
-101.368 82.2417 164.279
17.2026 111.078 231.096
-6.46336 103.573 229.931
9.87049 85.3576 240.153
-36.867 131.161 198.054
-22.342 119.153 215.09
-12.4745 142.413 201.643
-34.5476 61.3923 234.214
-29.8024 91.4658 225.742
-51.3143 77.4877 219.428
-85.6464 99.4358 177.197
-69.7099 90.046 200.005
-62.9566 116.987 188.998
-36.2756 169.256 114.513
-44.3207 164.627 86.3145
-14.5638 168.588 163.588
-26.297 171.407 140.798
5.12482 182.28 86.9662
-10.0219 178.668 114.897
15.9563 185.164 113.1
45.8737 110.444 231.629
30.6398 129.642 218.927
59.9537 159.074 186.887
45.6957 146.785 203.771
74.4993 140.684 202.602
14.6252 147.775 203.718
0.773034 160.078 187.216
104.519 165.106 86.7752
96.378 169.666 114.215
116.914 156.051 111.962
45.1762 185.177 113.011
71.1029 178.699 114.734
55.694 182.368 87.4746
100.109 157.192 159.929
87.0402 171.441 140.222
75.7345 168.191 162.719
13.9361 174.151 167.689
46.0574 173.382 166.961
30.2791 179.63 140.474
-34.4061 168.445 59.8476
-55.246 154.932 63.0604
14.4831 180.041 61.311
-11.506 177.238 59.3311
-35.4567 149.664 18.738
-23.9502 165.961 37.6344
-12.6371 159.192 16.634
116.122 153.991 63.4366
95.1339 167.271 61.2989
72.6382 158.595 16.3652
84.036 164.687 37.4969
96.4381 148.545 18.446
71.2658 176.361 60.3006
45.8178 180.162 61.4717
17.2409 97.827 -43.4647
30.634 116.806 -32.7481
44.4855 97.4387 -43.7777
1.79415 147.068 -5.19715
15.2014 133.559 -20.0721
-10.0889 129.291 -19.018
70.7494 128.855 -19.1512
45.66 133.511 -20.1539
58.6454 146.939 -5.30064
30.3634 174.79 35.277
45.584 163.664 13.9023
15.0127 163.668 14.0075
-67.4217 139.345 47.942
-76.1354 137.548 75.4091
-46.4697 131.301 4.7601
-57.8385 137.02 24.8009
-92.7245 102.934 49.6692
-77.1528 120.872 34.7768
-82.6476 101.763 24.521
11.9994 70.8039 -56.361
-4.09766 91.7629 -43.3369
-39.7051 72.7487 -34.5607
-23.2021 83.3409 -40.5052
-22.9149 53.3569 -49.8961
-18.6433 107.944 -31.2171
-31.3892 120.149 -16.6308
-89.4715 9.95234 9.4806
-82.5095 28.2886 -4.12565
-79.7246 -1.34052 -10.0519
-85.3166 78.3502 13.9057
-84.0761 55.8489 5.55506
-95.6635 63.2138 29.5789
-57.5321 28.4933 -33.4326
-71.7631 43.0392 -15.5553
-58.6257 57.0399 -25.1822
-53.1061 109.066 -8.86402
-56.7825 85.1655 -18.2231
-71.437 94.6611 1.78982
-93.5236 123.167 91.7268
-105.688 87.2059 66.1789
-101.52 105.225 78.5032
-105.142 106.944 105.722
-111.437 90.6709 118.379
-94.7596 -12.2756 18.8348
-99.4132 16.3833 33.6989
-114.552 16.2645 78.9463
-110.07 19.9327 58.4248
-111.54 -4.46048 74.2953
-104.531 43.835 45.1869
-106.357 64.8526 53.7442
-112.537 14.5938 146.66
-112.535 -6.49067 148.631
-112.736 71.4684 131.233
-112.857 46.8043 140.372
-121.625 -13.0125 117.963
-117.342 8.62869 126.669
-115.813 7.98032 107.794
-112.465 69.8443 77.8671
-113.764 46.6049 89.6873
-112.954 73.223 105.836
132.295 141.413 129.3
137.236 137.768 102.318
113.684 139.25 175.66
124.177 142.381 153.268
162.772 103.862 130.907
145.985 123.441 142.829
155.151 104.392 153.248
54.2522 85.975 241.418
70.2283 102.963 232.025
110.98 79.3886 221.469
91.993 92.6479 228.776
95.5127 63.9456 235.255
85.2448 117.924 217.771
98.8934 129.976 200.095
164.332 21.3673 166.548
156.606 35.4569 182.243
151.98 13.8678 186.934
160.179 80.091 164.487
160.272 58.5655 174.036
170.057 65.4381 150.268
130.849 36.1194 216.914
146.169 48.179 197.484
132.183 61.6826 210.051
122.852 116.89 191.2
128.463 90.7272 202.138
143.66 99.3653 178.571
8.89148 56.2883 250.732
31.7834 68.1269 248.052
-33.7721 34.6829 240.45
-12.6254 44.6243 247.506
29.7335 19.8457 257.636
8.73239 29.815 256.514
9.27218 12.0021 256.523
-90.7345 -13.4619 179.97
-80.6131 1.90464 199.509
-47.5206 -26.654 219.265
-64.3379 -12.1186 211.07
-59.2005 -45.8117 200.849
-68.0858 14.514 216.109
-54.5805 24.2679 228.954
30.5791 -87.7349 219.559
11.1846 -74.1128 221.931
9.94194 -104.712 214.601
10.3199 -10.0294 249.795
11.0805 -36.475 240.058
28.9671 -20.9256 246.489
-24.4485 -85.1738 212.38
-9.18095 -59.7761 223.466
-25.9872 -44.6889 224.165
-32.315 12.9823 240.746
-29.6159 -11.8277 235.381
-8.9692 1.76384 248.659
-113.215 -27.9721 137.824
-104.041 -26.0769 157.246
-116.786 -25.3064 114.243
-117.931 -26.1237 122.316
-89.1882 -82.5181 140.083
-108.24 -50.7808 130.228
-94.3633 -82.6001 120.51
-87.1283 -35.1419 6.64697
-93.9897 -35.3281 25.633
-87.1904 -98.9802 53.7681
-90.9819 -63.0131 34.4429
-83.0621 -88.1795 25.104
-100.755 -30.4281 54.896
-110.24 -26.8631 88.3246
-65.4618 -182.056 90.3739
-76.2589 -165.866 76.9362
-68.4597 -182.251 67.3271
-88.6168 -122.872 102.623
-83.7972 -145.047 88.2568
-79.3366 -140.451 113.382
-77.3345 -151.311 53.6015
-83.7089 -148.034 69.2834
-87.5073 -131.218 66.6258
-103.676 -59.3556 98.5329
-91.1637 -103.837 76.8099
-92.6703 -93.6963 94.5098
-68.2553 -17.3318 -25.2059
-78.6096 -29.1624 -11.0028
-36.65 5.21257 -50.5831
-53.3832 -4.43047 -38.6732
-52.6514 -64.3416 -37.8351
-52.3655 -33.2484 -41.1428
-37.1915 -45.445 -52.5194
30.5827 49.6326 -66.9187
15.1808 38.0606 -70.6307
15.4878 -10.6502 -90.02
16.2497 8.61055 -83.8197
28.7821 -2.90255 -89.1854
-1.06558 27.9533 -68.868
-16.8115 17.6903 -62.9768
12.3267 -106.889 -63.6959
10.8564 -84.0604 -70.7049
30.4353 -95.1298 -68.7226
-18.4217 -60.9643 -63.0678
-3.38022 -72.6516 -68.8178
-21.9753 -89.5746 -57.2483
28.3922 -30.7885 -89.8665
12.6142 -47.2584 -81.3875
15.4789 -25.1728 -90.1794
-17.0739 -10.7729 -73.4115
-0.745376 -18.1182 -85.2942
-17.7928 -27.6096 -72.565
65.2765 90.9948 -44.4204
50.2714 71.3323 -56.6174
92.522 119.569 -16.8059
[...]
POINT_DATA 642
SCALARS Mean_Curvature double 1
LOOKUP_TABLE default
0.00873938
0.0105396
0.0205659
0.0358239
0.00945652
0.00737594
0.0121225
0.00336438
0.0176289
0.00848628
0.0172274
-0.00404191
0.0269359
0.0145541
0.0144739
0.0124546
0.0192357
0.0121746
0.013311
0.00793614
0.00834605
0.0123013
0.0130045
0.023176
-0.0161067
0.0152132
-0.00839982
0.014094
0.0576885
0.0120018
0.00975078
0.0103349
0.0193778
-0.0117503
0.0217991
0.022999
-0.00890052
0.0244939
0.0166523
0.00935316
-0.0114252
0.0166498
0.0162619
0.0134371
0.0132877
0.013898
0.0144509
0.0132459
0.0137971
0.0107358
0.00833632
0.0126037
0.010492
0.0144549
0.0154641
0.0125492
0.0137763
0.0144757
0.0156114
0.0134737
0.013019
0.0171271
0.0156264
0.00745491
0.015642
0.0158556
0.00956061
0.00935338
0.0166722
0.00453324
0.00988125
0.00202801
0.0205146
-0.000940167
0.0126911
-0.00132277
0.0328862
0.0138263
0.0108738
0.0104843
0.0143354
0.010474
0.0113935
0.0137726
0.0236678
0.0145489
0.00683638
0.00911864
0.0099774
0.00909831
0.0157297
0.0279084
0.0131944
0.00861809
-0.0050104
0.00664752
0.0238826
0.0278934
0.0144666
0.00574893
0.0279078
0.0137555
0.019285
0.0116764
-0.00637237
0.0162315
0.0153681
0.0123735
0.0165563
0.00264264
0.00896807
0.00722306
0.00340228
0.00597339
0.0170168
0.00793517
0.0156714
0.00137422
0.00403644
0.0137899
0.0165806
0.0177343
0.0254908
-0.000699961
0.0254629
0.0125691
0.0279851
0.0218003
0.0221948
0.0185989
0.022402
0.0214198
0.0191713
0.0054337
0.01699
0.0145348
0.0298382
0.0238481
0.0119387
0.0159581
0.0128976
0.00417504
0.0176928
-0.00014827
-0.00637124
0.0137523
0.014385
0.00968734
0.0114864
0.0159326
0.00375856
0.0124585
0.0172404
0.0120114
0.0186736
0.0123274
0.0113062
0.00930419
0.0138249
0.000723652
0.0132047
0.0238269
0.0142709
0.0157256
0.00989503
0.0159383
0.0141362
0.0178212
0.0128972
0.0115068
0.0131033
0.0157321
0.0126526
0.022897
0.0113643
0.00857324
0.0178458
0.0126964
0.00720272
0.0186967
0.015772
0.013531
0.00693134
0.012894
0.0120308
0.0146947
0.00892701
0.00916988
0.00956122
0.0139777
0.0115786
0.0133163
0.0102645
0.00845874
0.0159058
0.0170544
0.00669475
0.00691568
0.0156624
0.0135299
0.0078147
0.0145181
0.0106024
0.0126044
0.0137523
0.0166478
0.012339
0.0125859
0.00840994
0.01571
0.00703318
0.00710968
0.0123882
0.0181097
0.0157967
0.0206058
0.0168377
0.00233255
0.0180637
0.0129639
0.00595728
0.019013
0.0130083
0.0151996
0.0137919
0.0123624
0.0149367
0.0133554
0.0123741
0.0128361
0.0146977
0.00740842
0.007821
0.00721778
0.00740603
0.0146533
0.0114831
0.0144698
0.0136956
0.0119201
0.0152778
0.0140431
0.0152866
0.0143406
0.0129045
0.00626881
0.014215
0.0152817
0.00894308
0.0145565
0.0127513
0.0126986
0.00990698
0.00699031
0.0126284
0.00523146
0.0155219
0.0142636
0.0019569
0.0149595
0.0111346
0.014103
0.00745915
0.00654709
0.0155937
0.0108018
0.00860008
0.0148191
0.0133727
0.0142785
0.0156163
0.0147652
0.01257
0.0169818
0.0217944
0.0137124
0.00221454
0.0125664
0.0127823
0.00781513
0.00646203
0.0122909
0.00422981
0.0182515
0.0119705
0.0110532
0.0553156
0.0127054
-0.00393287
0.0165883
0.00316377
0.00496551
0.0112047
0.00558796
0.0142728
0.0135778
0.0176744
0.0140171
0.0138378
0.0112339
0.01588
0.0092356
0.0169807
0.00835966
0.014732
0.0145424
0.0124585
0.00975863
0.0110591
0.0119748
0.0144464
0.0167807
0.0165676
0.0128806
0.0109394
0.0152083
0.0110377
0.0121447
0.0135766
0.00606652
0.0131558
0.00898829
0.0160596
0.0190682
0.0265024
0.00393487
0.00884025
0.00964015
0.00791257
0.0111266
0.0123373
0.0184196
0.00647139
-0.00370723
0.0178202
0.0124066
0.0125089
0.00640118
0.022658
-0.00127398
0.0117783
0.0139837
0.0091368
0.0122382
0.0144374
0.0123319
0.00428439
0.0352583
0.00308767
0.0173982
0.000270285
0.00922142
0.00804474
0.00265787
0.00598401
0.0100658
0.00069495
0.00274049
0.0128441
0.0144626
0.0259004
0.0123488
0.0127467
0.0075597
0.0097502
0.0270941
0.0231478
0.00285131
0.00879999
-0.00389999
0.0110098
0.0129651
-0.00285615
0.00438339
0.0119482
0.00841264
0.00176734
0.0100473
0.0106559
0.032164
0.0158654
0.0237141
0.00843511
0.00286654
0.0224442
0.0185571
0.0123625
0.00137513
0.0080631
0.0193948
0.0249441
0.0160591
0.0335902
0.0199218
0.0379327
0.0155174
0.0116968
0.013146
0.0144612
0.01495
0.00984919
0.0119259
0.00911031
0.0104397
0.0139515
0.0145005
0.0149404
0.0103461
0.0156704
0.0144667
0.00676489
0.0114843
0.00318226
0.0123354
0.0139431
0.00891761
0.00480844
0.0106656
0.00948403
0.0155787
0.0154004
0.0120749
0.0302158
0.00888673
0.0203452
0.0119765
0.00415678
0.0116516
0.0226695
0.0101274
0.00681119
0.0066567
0.00473308
0.00698904
0.0222971
-0.0160708
0.0106693
0.0111396
0.0105047
0.0181079
0.00737966
0.0153523
0.0181863
0.001758
0.00901483
0.0131658
0.019615
0.0150309
0.0147064
0.0146686
0.0169072
0.0104708
0.01353
0.0292134
0.0210856
0.0219571
0.0150343
0.00801468
0.0308367
0.00694121
-0.00433918
0.0338345
0.0163238
0.0178543
0.00668497
0.0202997
0.0147649
0.0155424
0.0194329
0.0333739
0.0269476
0.0036496
0.0222497
0.0232437
0.0247
0.017636
0.0214755
0.0218282
0.0228753
0.0225685
0.0157611
0.0199916
0.0187376
0.0203405
0.0205797
0.0228438
0.0234405
0.0252547
0.0255535
0.023194
0.0254527
0.0138354
0.0206092
0.00867473
0.0194925
0.018069
0.00245314
-0.00105449
-0.00432383
0.000548727
0.018936
0.01207
0.0122153
0.0175801
0.0301488
0.0424752
0.0157075
0.0271839
0.00217648
0.020759
-0.00705619
0.0258089
0.0229598
0.0165987
0.0202471
0.0165235
0.0153954
0.0063223
0.00379148
0.00982085
0.00971674
0.0116244
0.0135937
0.0118414
0.00838063
0.0103504
0.0137713
0.00193012
0.0104833
0.00777319
0.0288654
0.00751144
0.0116332
0.0102463
0.0178824
0.0116534
0.00573293
0.0166399
-0.0021569
-0.00239847
0.0126422
0.00277008
0.0152593
0.00276658
0.00309508
0.0119726
0.0110202
0.0226048
0.0234184
0.00690066
0.0155856
-0.00108672
-0.00313773
0.012806
-0.00101871
0.0090422
0.00997975
0.0115764
0.0215415
0.016957
0.00937238
0.0103658
0.0114499
0.0214324
0.0211634
0.0103282
0.0187088
0.00928653
0.0132312
0.00552653
0.0209714
0.0091024
0.0160392
0.0049424
0.00842216
0.0145558
0.0130437
0.01347
0.00721229
-0.00121251
0.00957994
0.0209978
-0.00290894
-0.009604
0.0209435
0.00791857
0.0160956
0.0140982
0.019835
-0.00217323
0.0141922
0.0176228
0.0178295
0.0244476
0.00734272
0.0275661
0.0249732
0.0191736
0.00646597
0.0168653
0.0118538
0.0120902
0.00713178
-0.00356743
0.00354572
0.0121604
0.012539
0.0080967
0.00424158
0.00413482
-0.00193578
0.0238241
0.0309237
0.0129624
0.00501622
0.000240623
0.00928753
0.00335326
0.00765522
0.0165196
0.0251248
0.012921
0.0324731
0.0145204
0.0182929
-3.12907e-05
0.00963697
0.014035
0.0168656
0.00471416
0.00435749
0.00616329
0.013814
0.0190092
0.012092
0.0207507
0.00879904
0.018619
0.0209943
0.00506141
0.0178729
0.00691561
SCALARS CoVolArea double 1
LOOKUP_TABLE default
489.103
482.525
340.446
233.068
448.633
472.556
276.464
479.149
379.917
392.518
350.544
394.53
446.73
614.687
674.267
697.728
715.387
604.095
595.392
773.198
571.965
461.181
608.876
480.495
812.831
442.837
735.036
701.231
201.265
539.696
533.598
680.636
515.836
764.879
502.774
448.09
784.987
514.522
579.376
565.69
1022.24
486.137
544.995
689.414
656.867
487.036
627.996
568.553
642.046
725.758
694.662
758.662
733.666
657.718
695.329
709.689
758.311
635.961
673.732
574.913
597.287
676.167
550.313
670.372
551.538
566.561
628.379
649.814
535.315
648.518
563.235
594.764
491.847
727.854
571.65
777.413
329.964
670.033
645.531
619.794
657.309
491.847
657.559
467.742
481.797
571.46
756.875
569.363
729.762
668.523
565.54
535.447
618.191
570.253
1156.4
547.313
434.919
328.881
594.879
568.267
436.375
462.181
413.267
508.008
619.793
540.064
589.043
578.263
551.656
622.124
551.411
616.658
538.793
740.779
508.602
731.816
542.068
745.316
717.831
643.757
541.129
604.716
545.329
688.12
455.293
637.578
486.554
463.778
591.338
442.252
431.456
586.472
621.078
787.669
693.693
589.955
236.995
363.552
687.09
458.399
610.364
592.832
573.61
744.34
899.454
513.834
484.12
733.061
523.561
518.63
735.293
718.877
593.715
757.564
559.461
674.691
641.083
551.969
499.861
642.12
541.955
478.566
582.26
620.729
638.795
587.543
593.043
491.213
643.393
651.525
713.347
467.131
541.991
468.589
657.105
577.126
499.703
465.304
564.077
538.771
603.008
648.565
636.335
706.711
646.936
626.935
680.193
685.045
722.62
709.518
763.991
782.092
730.412
661.604
679.045
666.478
716.324
749.119
762.05
597.786
686.952
713.467
688.442
659.255
657.332
663.318
619.305
680.093
639.332
754.135
718.551
706.132
633.386
644.39
700.06
786.321
808.487
874.234
609.421
603.915
759.054
642.056
572.17
568.185
629.776
581.625
630.638
634.54
607.029
585.818
666.384
756.636
582.989
611.707
569.688
633.559
595.802
531.194
537.218
593.722
628.349
785.212
721.687
733.32
620.894
622.397
594.412
561.076
577.661
572.331
569.384
602.117
560.697
617.547
547.021
703.602
499.885
565.775
583.446
592.844
523.206
552.799
558.772
555.619
650.987
558.346
623.492
610.031
607.356
590.09
585.337
551.361
553.208
492.126
445.45
557.051
691.477
655.791
611.294
675.217
591.244
539.211
542.693
452.689
481.384
608.804
245.378
557.72
698.008
577.118
827.446
601.363
661.775
665.913
693.408
632.34
532.907
601.809
610.526
599.165
594.552
678.753
591.854
629.379
609.763
687.259
488.669
509.152
464.695
593.702
536.695
450.222
486.578
547.456
666.655
743.214
749.413
731.667
661.023
647.491
587.438
618.448
406.774
484.031
404.419
587.813
549.563
756.653
618.029
792.431
479.934
503.64
636.42
743.93
555.166
495.165
679.904
542.261
620.57
738.555
799.833
569.3
698.927
539.134
425.15
535.76
407.224
256.34
654.463
523.169
779.859
469.268
658.821
880.816
874.431
764.657
942.687
863.896
442.243
428.18
377.763
699.13
490.642
630.076
368.421
330.67
477.944
863.857
728.048
709.281
597.486
489.662
753.489
664.838
533.893
632.9
672.886
568.827
584.559
263.188
419.045
276.135
649.152
762.617
380.502
538.559
470.357
682.999
543.502
462.173
361.25
508.5
282.546
530.985
344.117
557.207
536.601
570.431
571.21
509.135
611.622
515.016
566.768
609.159
590.044
540.97
539.935
509.806
557.179
592.644
564.814
572.177
552.15
562.088
519.366
617.562
596.692
549.742
556.947
601.929
581.98
600.294
324.503
533.2
416.006
645.372
692.867
616.834
453.381
570.673
635.811
577.973
856.342
650.852
665.025
829.352
768.426
534.666
673.788
481.343
696.596
578.726
530.175
688.903
648.177
563.316
593.11
505.754
548.46
650.89
589.587
789.64
562.049
401.63
522.791
549.794
651.044
627.008
617.133
716.685
776.588
391.407
464.378
470.816
546.427
501.349
535.907
567.462
486.811
565.404
533.755
702.097
428.693
460.891
458.112
612.88
554.124
591.178
461.997
364.032
771.774
549.082
417.033
472.74
476.307
429.855
521.328
453.98
439.081
382.345
592.626
806.385
393.966
742.588
422.535
648
884.4
719.261
715.67
918.409
640.6
763.122
661.686
647.321
331.066
251.503
598.888
365.783
527.748
331.703
767.599
343.09
379.383
453.267
387.281
453.588
585.608
798.558
496.591
501.866
523.691
831.712
474.539
677.425
573.129
482.119
483.125
917.076
755.97
892.268
292.365
787.862
346.231
485.265
607.028
573.947
669.706
589.148
834.369
606.334
705.483
1000.67
589.261
528.168
601.672
571.455
465.572
410.228
378.372
868.549
651.155
698.225
737.826
783.071
740.458
715.5
572.465
502.564
472.83
431.977
556.143
712.507
634.662
463.609
489.711
596.311
570.996
723.091
583.252
640.936
479.938
618.377
487.908
607.512
692.788
632.885
590.646
557.986
688.64
704.84
785.408
598.551
726.359
845.596
681.598
853.204
635.499
707.667
440.418
779.603
655.731
450.93
477.621
380.072
601.633
322.519
362.757
561.812
523.902
464.156
470.631
585.176
818.115
930.088
909.341
811.853
640.69
688.498
657.946
702.27
772.004
494.166
307.169
514.186
537.513
713.302
571.551
742.202
625.125
436.78
283.877
598.851
387.668
596.031
512.686
735.235
567.47
461.332
448.169
624.732
551.394
614.603
557.194
582.857
649.695
485.284
572.058
526.535
466.529
700.376
515.592
555.981
SCALARS SignedDistance double 1
LOOKUP_TABLE default
43.0211
43.0056
44.4692
46.0434
50.6841
44.2477
47.1223
49.1922
55.2103
53.1603
54.3492
52.7712
49.2499
45.1974
38.8908
39.2209
40.0255
43.9927
43.8237
52.3397
51.6927
55.8188
45.1326
48.3148
56.3294
49.8898
59.2858
54.0784
47.2316
51.5383
52.7602
54.1089
53.9841
55.4161
47.8137
48.5709
48.349
48.442
51.8167
52.6412
59.36
56.1533
43.3819
41.3018
40.3153
49.4996
45.9396
49.1597
40.5403
43.0256
44.7046
40.9897
40.2939
40.0097
38.1723
40.3262
41.1134
40.8416
40.9441
42.3707
42.4714
40.8338
46.917
44.4845
46.8458
46.173
46.3083
50.259
48.3556
54.9363
51.4598
54.346
50.4046
58.184
53.63
53.3418
51.6142
42.0628
44.2394
44.7788
42.3795
50.3176
45.8819
49.9218
47.5074
45.8388
52.3132
50.1718
52.5776
51.0234
51.7883
56.558
52.3119
56.1246
58.4858
49.9869
57.9922
52.7227
53.9753
54.1058
48.4928
49.8182
48.0704
51.3227
53.2651
48.4675
49.8545
46.346
46.316
55.3101
51.4065
55.0162
52.3497
49.2495
46.0359
53.0476
54.2196
57.6404
51.3636
48.6602
51.5698
39.2598
38.6384
52.8969
48.55
38.5754
37.526
44.32
40.4479
46.0946
43.0396
40.8638
46.3233
50.4346
46.6563
59.8187
56.1954
49.0945
49.4252
55.6023
53.1271
55.3889
54.4484
58.4611
58.6051
56.6585
52.8153
50.8973
50.1327
48.4872
49.4692
48.6899
53.5471
48.7331
55.2109
52.3733
54.6974
52.0533
50.0878
53.2239
52.8418
50.236
42.1651
40.8578
41.6372
43.0104
41.8676
45.1374
39.4563
40.6368
39.9253
51.1145
48.77
51.7201
46.2465
47.5044
47.9309
49.817
48.0223
47.1353
42.0179
42.8817
45.1679
40.6851
41.8947
39.4533
45.1141
43.7743
44.4058
43.5185
43.9618
41.7528
40.8614
41.6181
38.1664
38.646
41.4235
41.0936
40.3533
42.1669
40.8136
38.4278
39.8371
39.4516
39.7989
38.1595
41.4783
40.7145
42.462
40.3467
41.1186
41.3685
39.7022
38.7214
38.2915
37.5531
37.8628
40.3431
40.8621
42.5637
41.662
40.4279
42.8259
41.4668
42.2364
42.6738
41.4554
42.4652
41.8792
42.9306
40.611
41.6346
49.2645
47.4801
49.376
43.7078
45.6998
45.1849
45.1831
45.7374
43.5716
40.8596
42.6607
42.5974
43.904
44.4455
44.4019
43.5929
49.2424
46.3666
48.9833
49.3527
49.4966
51.1679
50.6713
51.3605
47.1163
45.6555
55.3045
54.1539
53.3322
51.8293
53.1412
53.5434
53.7855
51.7462
51.0918
47.1643
50.3764
49.2011
44.7516
49.9034
46.6977
46.3089
51.2551
55.3128
56.2256
54.6421
54.6613
56.7799
54.205
52.8869
53.258
51.3691
52.6309
52.7425
56.206
54.1161
55.2987
52.34
53.6931
52.8638
42.7109
43.7124
39.8179
40.8927
45.0505
42.772
43.726
43.9641
42.2939
44.5592
43.016
44.6276
40.4725
39.8196
51.3187
50.5857
51.664
46.4711
48.6266
49.5398
47.8642
48.3532
45.983
41.7598
44.3346
44.3813
44.1969
44.7684
47.2742
45.6498
47.2748
46.2299
48.7032
52.5448
51.4339
51.5182
51.3246
53.7737
49.8367
48.9437
55.3541
55.3832
51.6447
50.494
51.0773
51.4808
55.9468
54.7187
53.2829
49.4522
50.499
49.8773
51.6594
51.2882
55.3034
55.1113
57.7227
52.9885
59.1323
55.1797
56.1188
61.3106
57.7797
54.3273
58.9973
57.3246
48.3111
50.0552
47.1725
56.4384
52.1612
51.0682
53.9106
52.6914
58.2767
58.3912
61.5304
60.395
53.544
53.8265
55.1094
54.1381
51.9284
53.0461
53.449
51.0085
50.5676
48.1503
48.9626
48.3309
51.8268
53.6938
47.3605
52.7926
50.7907
52.1901
52.5934
49.7678
48.3935
51.7498
48.2056
51.7625
48.8099
52.1245
48.7722
49.7358
45.6131
47.0934
52.1539
49.9831
50.6184
44.1081
43.8312
49.5909
46.4581
49.5215
43.6239
44.3858
54.4324
54.3945
55.5541
51.6381
53.1986
54.5553
53.4242
52.7768
52.39
47.33
49.8807
50.6248
50.6759
49.7493
45.6697
49.8449
50.1129
50.9907
45.8533
49.6829
49.8353
53.1425
55.4648
53.4519
55.586
57.5877
53.8785
59.7
60.4015
54.7584
49.7785
49.0758
51.6164
50.172
49.6208
50.4166
53.9586
49.761
51.2031
49.8966
50.4405
48.476
42.0623
41.5047
42.4862
41.5307
43.4105
39.7421
42.9966
49.7905
53.01
47.9304
53.6196
53.0846
51.5412
47.4051
41.0964
40.145
43.6472
40.1972
39.5556
45.1576
45.6962
40.4146
42.6205
43.0157
42.4423
38.0804
40.7572
45.1256
42.094
38.9519
48.3469
42.4744
45.0349
42.5908
39.2229
43.2729
40.0842
45.0653
38.3746
42.5336
46.5028
46.5311
46.487
49.8911
55.4502
56.3328
56.6732
55.8002
50.2519
40.9751
44.9355
45.0669
52.2105
51.7186
56.7952
53.9622
56.5457
56.9067
59.6033
47.397
46.4936
50.9922
48.5951
51.1845
47.497
57.6409
56.099
55.6777
55.3279
54.1815
54.1593
55.0459
53.635
54.1636
53.2054
58.8193
51.5109
56.3947
55.5202
55.8907
55.5536
53.0046
54.799
55.8907
57.3544
56.4514
58.3811
57.1189
58.6913
60.3295
52.4046
53.2724
60.6661
56.5586
54.4339
53.3498
54.353
61.4211
57.8686
60.2386
55.3675
52.6296
54.0195
51.6399
50.9531
51.522
48.1602
49.788
51.5336
51.63
44.6881
48.7938
46.6626
45.3088
46.7276
50.3691
49.5521
50.4377
48.2951
49.6268
48.6181
50.0844
50.0742
49.0282
51.312
49.7569
50.3258
51.1093
52.4783
52.7018
56.9014
57.0295
56.6158
48.8168
50.1753
48.9707
46.3458
56.939
47.8304
47.6043
49.2069
47.6315
57.0697
54.0998
49.1936
50.8984
54.9688
52.1048
53.126
53.9216
54.5347
57.7536
57.2207
50.2061
54.3274
52.929
54.521
54.8708
55.832
52.3254
48.9345
52.7261
52.6493
51.9667
51.2334
54.6354
52.7201
48.8545
48.7522
53.1934
50.0229
52.7053
52.148
53.8958
53.9464
52.4915
52.7466
56.809
53.6303
54.3971
56.5541
55.2002
44.5067
50.3121
46.1362
47.0653
51.4079
53.5505
53.1732
52.8473
