# vtk DataFile Version 4.2
vtk output
ASCII
DATASET POLYDATA
POINTS 642 double
-79.8135 171.805 86.5142
139.082 171.934 85.4053
-76.6863 -213.269 80.6398
136.681 -212.794 80.8175
30.6631 -124.045 239.844
31.5316 104.255 263.465
30.5356 -126.294 -86.7892
31.0939 91.6149 -80.5093
176.579 -13.6877 -10.7225
186.654 -4.33936 185.274
-116.949 -15.7979 -13.3399
-128.703 -5.77545 183.529
-134.929 96.0298 148.901
-70.1872 53.1944 249.366
-35.7585 170.394 195.134
97.164 169.478 195.143
30.5856 210.965 86.3785
93.2668 159.708 -17.9257
-32.4798 160.276 -17.9107
-58.5864 47.8676 -68.1379
-123.001 92.4678 27.0218
-150.303 -12.9131 96.3087
130.746 54.1304 250.26
194.437 94.5185 148.492
-57.8795 -75.9927 230.544
29.3965 -4.47348 284.241
-108.27 -134.998 32.8614
-114.211 -124.423 139.14
29.2212 -18.2907 -121.815
-57.0116 -84.085 -72.817
184.143 93.2149 27.715
119.439 50.2626 -67.9033
175.275 -121.109 140.43
118.639 -76.1048 230.935
87.9356 -202.568 177.19
-28.1786 -206.58 178.671
29.8541 -249.633 87.5544
-32.8984 -202.914 -9.76929
90.3427 -200.674 -7.70466
114.667 -84.1044 -70.6111
162.219 -127.775 32.7063
208.593 -12.6015 89.298
-114.834 140.095 120.222
-94.3876 139.035 175.399
-63.2389 179.262 142.434
-106.031 24.1053 221.757
-109.723 80.7946 204.025
-135.833 45.3775 171.313
-3.24021 143.201 236.991
-58.0475 117.963 229.65
-20.86 82.7555 263.54
-5.52839 201.586 145.849
-28.9387 199.319 84.6174
65.1503 142.357 237.965
29.9155 181.287 202.092
90.0417 199.364 85.4161
66.6183 201.653 145.34
123.18 179.198 142.526
-5.13286 195.998 28.1739
-59.3929 174.883 31.1244
120.521 173.759 31.183
65.2655 195.763 28.038
-1.90589 131.771 -55.6106
30.5161 169.062 -23.1618
62.8528 131.518 -55.8152
-85.791 133.164 -0.599479
-108.658 136.804 54.7349
-15.4445 73.0356 -81.9645
-51.1998 110.016 -50.2973
-123.022 42.7113 5.33157
-96.4323 76.9883 -26.1851
-93.1987 17.1547 -44.031
-138.25 99.9446 89.6311
-135.279 -9.49177 36.1018
-143.335 46.7453 57.4882
-145.831 49.0471 120.545
-150.272 -13.4601 135.675
153.846 138.653 176.349
173.04 138.068 120.766
83.4265 84.3729 264.864
119.383 117.994 231.955
196.365 45.7548 170.93
169.128 80.0077 204.856
165.835 24.7791 222.558
-19.6386 22.7203 279.13
30.9775 45.6678 283.468
-99.0165 -36.626 213.257
-68.8495 -3.8468 250.808
30.0357 -62.2722 264.696
-16.6384 -35.3737 267.958
-17.0048 -106.515 242.382
-141.931 -61.9012 117.527
-127.839 -61.3919 161.87
-116.331 -67.6269 0.968796
-129.003 -71.4745 59.9791
-97.926 -178.226 108.475
-122.345 -136.493 79.7905
-101.849 -178.943 51.7524
-56.6269 -19.1356 -82.9186
-90.6283 -51.0743 -46.0246
29.9537 30.5546 -109.663
-11.5122 6.85168 -108.009
-15.0879 -108.764 -87.9614
-12.4394 -45.3668 -107.047
29.6927 -70.4737 -105.593
112.252 109.691 -50.4692
77.2532 73.9811 -82.4725
169.668 136.304 53.055
147.079 132.741 -0.56364
152.338 20.5518 -42.1422
156.619 77.0726 -26.1453
183.451 42.3143 5.39584
155.565 -177.229 105.151
136.134 -168.134 159.06
115.68 -214.74 131.67
157.959 -35.3969 214.464
154.04 -106.707 190.265
182.734 -65.0413 160.699
59.1646 -169.999 209.156
108.603 -139.5 210.646
78.0204 -106.731 242.32
61.7682 -240.317 138.09
91.1141 -241.333 81.7697
0.653141 -173.851 207.089
27.2031 -215.068 185.837
-29.6771 -241.424 84.0752
-5.07713 -244.191 139.124
-56.4842 -218.462 134.672
66.8178 -236.968 29.584
118.57 -214.915 34.3526
-59.9993 -217.264 31.2515
-8.3792 -238.193 28.7028
59.5303 -158.936 -58.5368
29.5138 -208.546 -13.5813
-0.114065 -159.938 -57.4016
137.344 -174.737 11.5787
158.719 -179.28 55.6008
74.2696 -109.243 -87.5498
103.177 -136.363 -53.2024
176.425 -67.0454 2.99103
147.701 -100.945 -28.5692
149.544 -49.9249 -43.1106
176.832 -134.284 84.2886
195.507 -7.1618 37.5826
190.72 -64.6459 61.1772
198.948 -63.9466 114.621
205.167 -9.26091 136.55
77.8932 -36.4869 266.564
130.864 -3.14763 250.866
81.2891 24.8501 278.033
-76.1556 -173.238 157.888
-47.7941 -141.46 209.496
-93.7459 -107.41 190.851
-45.2863 -138.606 -51.7718
-81.1425 -176.948 8.92059
-89.0927 -102.828 -30.4588
115.694 -18.284 -80.2234
70.9231 -45.7206 -105.051
70.8542 8.2889 -106.314
206.922 49.1887 121.275
203.739 46.2659 58.9465
198.941 97.7881 86.7688
-98.816 157.608 104.146
-91.6203 161.112 132.118
-73.4276 176.91 114.272
-117.766 118.327 162.464
-106.865 140.738 148.324
-126.756 119.217 135.124
-50.5057 177.167 169.446
-79.9517 160.896 160.478
-66.2935 156.911 186.471
-119.42 9.6896 203.749
-123.097 34.6712 197.988
-134.426 16.9557 179.969
-91.129 67.9399 228.593
-108.193 52.4731 214.655
-89.8239 38.5151 237.432
-136.959 73.5105 160.42
-124.738 65.362 187.775
-124.933 90.0002 177.166
14.3902 124.149 252.925
-13.28 115.019 252.424
5.24628 95.0284 265.318
-47.9907 146.242 214.494
-31.5308 132.619 234.735
-19.7073 158.91 217.852
-46.4084 68.6071 258.111
-40.5568 101.65 248.095
-65.3452 86.4581 241.041
-104.76 110.929 191.566
-86.5317 100.103 218.483
-77.9793 130.707 204.518
-46.7739 191.859 116.09
-56.2024 187.068 85.2202
-21.6579 189.226 172.324
-35.0085 193.063 145.797
1.008 206.904 85.6025
-16.5969 202.427 116.457
13.2005 209.221 115.223
47.9737 123.755 253.414
30.5765 145.173 238.576
64.5885 178.003 200.289
48.0771 164.196 220.575
81.4132 157.769 218.409
12.4488 164.936 220.632
-3.76285 178.786 200.608
116.698 187.363 85.5853
107.249 192.048 115.87
132.135 176.914 114.071
47.9413 209.233 115.145
77.711 202.454 116.308
59.9393 206.95 85.9327
111.384 176.69 169.221
95.9294 193.026 145.373
82.8032 188.826 171.68
11.8512 195.283 176.431
48.4928 194.726 175.918
30.3631 203.575 145.836
-45.272 190.594 55.3678
-70.3375 175.538 57.9312
12.3403 204.832 56.4791
-17.3832 200.74 54.9678
-46.9305 169.646 5.92683
-33.0067 187.936 28.6317
-19.7855 180.65 3.92853
131.169 174.769 58.2819
106.061 189.659 56.4483
80.1003 180.146 3.78079
93.3529 186.914 28.6298
107.867 168.75 5.77619
77.563 200.029 55.6765
48.2541 204.918 56.6002
14.7453 112.871 -69.2471
30.6133 133.479 -56.2952
46.7301 112.642 -69.53
-2.49358 167.241 -22.3251
13.1896 152.374 -40.5408
-17.2116 147.374 -38.703
77.9895 147.042 -38.7434
47.7588 152.354 -40.5993
63.1336 167.11 -22.3596
30.4303 198.505 26.9133
48.0019 185.826 0.647254
12.7697 185.82 0.732702
-85.563 157.768 40.6108
-95.416 156.05 70.7195
-60.7241 148.857 -10.4754
-74.0241 155.171 13.4135
-117.706 115.638 40.0789
-98.2389 136.423 24.7498
-106.389 114.142 11.8565
7.25063 82.9535 -83.486
-10.9305 104.862 -69.5706
-55.8622 81.6263 -59.8026
-35.0748 94.1187 -66.4582
-37.0593 61.6236 -76.5454
-27.893 122.483 -54.2539
-43.0754 136.367 -36.2751
-119.683 11.9835 -5.02553
-109.673 31.2398 -21.8904
-106.252 0.139538 -29.2702
-111.215 86.2231 -1.58077
-111.114 61.1431 -11.3251
-124.644 68.8572 15.9074
-78.3102 32.6675 -57.2885
-95.541 48.0316 -36.1366
-78.9862 64.0037 -48.1041
-69.8712 123.164 -27.4591
-75.9021 94.9651 -39.8627
-93.2105 105.823 -15.4372
-114.871 139.656 88.701
-132.886 97.179 58.2507
-126.029 118.648 72.7936
-129.239 120.271 105.211
-139.221 99.739 120.076
-126.642 -13.6679 7.62399
-131.211 16.5162 21.1719
-147.314 16.313 73.8084
-141.964 19.1759 48.7642
-144.658 -8.72053 66.6956
-135.229 46.1762 33.1035
-136.107 70.1659 43.2798
-143.178 15.8908 155.841
-141.051 -9.37854 160.47
-143.725 75.3022 135.32
-143.593 49.3216 146.127
-154.642 -15.0337 116.682
-148.849 12.0011 129.808
-149.254 11.0217 105.966
-143.085 74.9261 73.0649
-146.369 48.6797 88.078
-144.715 77.2519 105.672
149.907 160.308 132.996
156.468 156.412 103.119
127.211 156.336 187.166
139.748 160.484 161.125
185.887 117.387 135.726
165.541 139.676 149.297
176.552 117.47 162.789
58.0222 95.3602 266.296
76.231 114.584 254.11
125.771 87.8474 242.801
102.658 102.39 250.539
107.528 70.5314 259.041
93.9215 131.818 236.582
109.784 145.443 215.806
192.638 19.9419 179.786
182.848 36.2075 198.151
177.938 10.5933 204.393
183.902 88.7468 177.222
185.45 63.3422 188.325
197.435 70.8158 160.011
150.512 38.5464 238.083
168.876 51.9772 215.429
151.177 68.1642 229.602
138.445 130.575 206.018
146.176 100.621 220.089
163.73 110.859 192.499
4.49103 63.7339 276.479
31.4618 76.106 274.156
-46.1907 37.9977 265.935
-21.5085 50.5389 273.199
30.087 18.9912 286.283
4.36611 32.9573 283.921
4.91502 8.90974 285.316
-115.575 -20.6881 198.923
-103.481 -3.91868 220.094
-64.8237 -35.9837 244.018
-84.5674 -19.9143 233.883
-79.2211 -55.8967 224.171
-88.2139 10.9353 238.615
-71.391 23.5669 253.312
30.6012 -97.9799 250.487
6.81391 -85.1458 253.035
6.07775 -116.585 243.05
5.88594 -19.0723 278.876
6.58347 -47.7178 269.044
29.4591 -30.6851 276.276
-37.9562 -93.9621 239.127
-17.3945 -70.4396 252.742
-39.3044 -55.2312 251.267
-46.0228 9.78449 267.263
-43.1427 -19.9496 262.013
-18.548 -4.62941 276.683
-141.928 -35.3477 148.905
-130.651 -33.5239 172.639
-149.293 -33.2805 109.749
-149.145 -34.322 125.716
-119.4 -93.1835 152.103
-137.189 -61.7991 138.632
-126.447 -93.5098 126.786
-117.381 -40.2414 -7.26189
-126.44 -40.2303 15.8341
-120.069 -105.693 45.093
-124.072 -69.8626 26.0357
-113.274 -97.234 14.5287
-134.311 -36.4735 46.9306
-143.251 -33.9541 80.8672
-88.9234 -197.619 95.1181
-102.94 -179.709 78.7577
-91.0532 -198.005 65.3252
-119.332 -132.521 107.847
-111.97 -157.077 92.5499
-106.255 -153.032 122.131
-106.662 -159.607 42.1047
-112.835 -158.965 65.7372
-118.57 -138.723 58.579
-136.964 -68.3002 93.1746
-126.75 -109.873 72.5528
-127.255 -102.326 95.9063
-92.8676 -17.4319 -47.0162
-105.577 -32.3206 -29.8773
-56.9459 10.0956 -76.3244
-75.7496 -2.21541 -62.7862
-74.7233 -68.8383 -60.5477
-74.979 -34.8482 -64.5298
-57.3481 -49.2186 -77.6463
30.585 61.5428 -95.2217
9.24952 49.6083 -98.2118
9.13295 -6.00157 -118.202
9.68118 18.0105 -111.467
29.4082 3.91035 -117.874
-12.771 37.7234 -95.9141
-33.0456 25.5345 -89.3147
7.44484 -118.917 -89.4622
6.13247 -92.6363 -99.3424
30.5306 -104.117 -96.8935
-34.1405 -66.6843 -89.6764
-14.5899 -79.8504 -96.8838
-36.6326 -97.4797 -82.3328
29.2131 -38.3148 -118.356
7.28753 -56.1276 -109.79
9.20792 -29.8694 -118.345
-34.6515 -6.65383 -98.8876
-13.0865 -18.0547 -112.386
-35.1718 -31.0268 -98.3355
72.0126 104.336 -70.2315
54.5934 83.3993 -83.8389
[...]
POINT_DATA 642
SCALARS Mean_Curvature double 1
LOOKUP_TABLE default
0.00868331
0.00979405
0.0148409
0.0218175
0.00764755
0.00860861
0.0114585
0.00427438
0.013439
0.00936185
0.0133318
0.00316562
0.0151101
0.0099305
0.0115
0.0105508
0.0144439
0.0103381
0.0108564
0.00642985
0.00843984
0.00981614
0.00923877
0.0140244
-0.00435751
0.0134979
-0.000810843
0.00974794
0.0286726
0.0121412
0.0104483
0.00919874
0.0127556
-0.00223824
0.0157533
0.0168493
0.00215397
0.0170937
0.0134992
0.00989819
-0.00627059
0.0115724
0.0131794
0.0107231
0.0109771
0.0121198
0.0112778
0.00746952
0.0111517
0.00972876
0.00766287
0.0113788
0.00836748
0.0111743
0.0120688
0.00962894
0.0119986
0.0118517
0.0121704
0.0111215
0.0106137
0.0127715
0.0119646
0.00779735
0.0119086
0.0118445
0.00822089
0.00741744
0.0122477
0.00571176
0.00970562
0.0064998
0.013548
0.00267701
0.0104373
0.00139353
0.01603
0.0111268
0.0100212
0.0105252
0.0117263
0.00985017
0.0091722
0.0117802
0.0154727
0.0111426
0.00668156
0.00856288
0.00687628
0.00829729
0.0117954
0.0179428
0.00889807
0.00852823
-0.00374547
0.00915941
0.0191409
0.0185838
0.0131694
0.00649919
0.0168024
0.0122096
0.0136127
0.00994752
-0.000118555
0.0121513
0.00996802
0.0100742
0.0120582
0.00480898
0.0083807
0.00780257
0.00617748
0.00488887
0.0127453
0.00740861
0.013227
0.000898565
0.00417016
0.00983269
0.012254
0.0128242
0.0166323
0.00186539
0.0168552
0.00837418
0.0175027
0.0148852
0.0153925
0.0138682
0.0152921
0.0163543
0.0128384
0.00691267
0.0111106
0.0158703
0.0259813
0.0153183
0.0100715
0.0116973
0.0101698
0.00570083
0.010955
0.00189674
-0.00362642
0.0101125
0.00816124
0.00806758
0.0102884
0.0132079
0.00424548
0.00869668
0.0141932
0.00900373
0.0152987
0.0100395
0.0113865
0.00851106
0.0113897
0.00377085
0.00740534
0.0135116
0.0108082
0.0115961
0.00946192
0.0116151
0.0111843
0.0121751
0.0109103
0.0100034
0.0105615
0.0128119
0.00952041
0.0152625
0.00981151
0.00781237
0.0125912
0.012619
0.0085444
0.0140199
0.0118023
0.0111195
0.00866592
0.0106612
0.0104509
0.0115577
0.00797043
0.00861371
0.00847324
0.0111292
0.00993427
0.0106963
0.00956249
0.00758141
0.0123396
0.0124902
0.007348
0.007112
0.0123293
0.0110399
0.00782024
0.0115944
0.00985096
0.0105222
0.0118426
0.0128818
0.0100011
0.0106586
0.00862932
0.0123675
0.00729815
0.00765145
0.0106755
0.0130566
0.0120511
0.0145157
0.0126147
0.00510933
0.0136739
0.0109099
0.00708202
0.0136065
0.0107836
0.0122045
0.011176
0.0105565
0.0119801
0.0109674
0.0106525
0.0105681
0.0112688
0.00801054
0.00862168
0.00691594
0.00888059
0.0116378
0.0102227
0.0113698
0.0109369
0.0105926
0.0118586
0.010813
0.0123734
0.0116907
0.0104645
0.00690243
0.011089
0.0115269
0.00872872
0.0113327
0.0109088
0.00857485
0.00972194
0.00860176
0.0111245
0.005343
0.0116616
0.011282
0.00351046
0.010919
0.00685326
0.011509
0.00725841
0.00818091
0.0108009
0.00791467
0.00723417
0.0116416
0.0116485
0.0116846
0.0124435
0.0109873
0.0100121
0.0117893
0.0165697
0.0102929
0.00368708
0.00844626
0.00950711
0.00761451
0.00675112
0.0108164
0.00823367
0.010043
0.0161688
0.00888357
0.0367265
0.00656044
0.00130302
0.0132872
0.00413123
0.0102821
0.0102851
0.00595827
0.0111224
0.0108087
0.0127334
0.0109866
0.0106885
0.0103134
0.0122386
0.00935782
0.0126644
0.00748998
0.0114178
0.011242
0.00956394
0.0102188
0.010014
0.0104438
0.0114454
0.012023
0.0124704
0.0102924
0.00889831
0.0117301
0.0101468
0.0106748
0.00983661
0.00612514
0.0103051
0.00788271
0.0113894
0.0135027
0.0192913
0.00521075
0.00885378
0.00842264
0.00744599
0.00660629
0.011118
0.0150607
0.00588965
0.00229856
0.0136901
0.0109516
0.009505
0.0071649
0.0129245
-0.000151136
0.0079066
0.0125771
0.00808174
0.0117587
0.0113959
0.00968131
0.0102502
0.017444
0.00488175
0.00948064
0.00125085
0.00769542
0.00703199
0.00142806
0.00724917
0.00628653
0.00150627
0.00353922
0.0120979
0.0134954
0.0163836
0.00960744
0.0076028
0.00557327
0.0129681
0.0146797
0.0147449
0.00397419
0.0128459
0.000528223
0.00911853
0.00959639
0.00125231
0.0042104
0.00889113
0.00660278
0.00355375
0.0089865
0.00763683
0.020017
0.0123024
0.0163109
0.00668428
0.00362503
0.0150625
0.0131484
0.00996253
0.00202969
0.00899995
0.0138339
0.0182191
0.00930462
0.0206832
0.0151996
0.0221553
0.0126204
0.00995427
0.00995462
0.0112484
0.0114102
0.00882917
0.0106847
0.00875609
0.00929135
0.0109194
0.0115852
0.0115187
0.00940256
0.0117169
0.0111644
0.00443564
0.00999762
0.00449611
0.00893757
0.0112479
0.00926771
0.00530819
0.00766161
0.0108356
0.011917
0.0123899
0.0113784
0.0188941
0.010878
0.0140694
0.00872531
0.00445042
0.00715732
0.0158655
0.0113036
0.00920329
0.00692866
0.00439172
0.00620907
0.0141222
-0.00567977
0.00583209
0.00950848
0.00949811
0.0129596
0.00615425
0.0106724
0.0137429
0.00413866
0.00588537
0.0123499
0.0122607
0.011566
0.0119808
0.010635
0.012031
0.00696515
0.0105258
0.0185165
0.0141565
0.0145608
0.0106554
0.00793915
0.0195092
0.00532788
0.000432943
0.019234
0.0174186
0.0173299
0.0105644
0.0139365
0.0112443
0.01214
0.0127796
0.0219105
0.0194039
0.00525818
0.0157076
0.0157206
0.0162962
0.013523
0.0156833
0.0152668
0.0156577
0.0154
0.0110469
0.0144655
0.0145067
0.0146037
0.0151914
0.0156055
0.016202
0.0167325
0.0165805
0.0159562
0.0169036
0.00956942
0.0150595
0.00785069
0.0144328
0.0148457
0.00128436
0.0015466
0.00354973
-0.00184431
0.0161023
0.00935928
0.01057
0.0141736
0.0148873
0.0189351
0.0118175
0.0151216
0.00828435
0.0225258
-0.000867049
0.0162004
0.0151203
0.0126123
0.0142963
0.0140977
0.0116485
0.00258977
0.00486716
0.00931994
0.00774153
0.00819641
0.010727
0.00904354
0.00732199
0.00942878
0.0117516
0.00154599
0.00920653
0.00414104
0.0245614
0.0050419
0.0117659
0.00522416
0.011792
0.00872598
0.0056196
0.0140878
0.000582673
0.00187788
0.0105676
0.003473
0.0111492
0.00511496
0.00712154
0.00711163
0.0108015
0.0149655
0.0154302
0.00840692
0.0109867
0.00400814
0.00285037
0.00822731
0.000293151
0.00768625
0.00955018
0.0103958
0.0157588
0.0134245
0.00855092
0.00869867
0.00911209
0.0162993
0.015175
0.00775502
0.0128778
0.00780114
0.0125253
0.00725858
0.0155833
0.0111938
0.0145271
0.00777706
0.00620302
0.0100062
0.0115016
0.0108327
0.00374448
0.00317534
0.00788915
0.0138982
0.00208877
-0.00473423
0.0137208
0.00504543
0.0115416
0.00970846
0.013755
0.00164785
0.00955366
0.0129743
0.0125852
0.0152816
0.0118643
0.0192899
0.0160966
0.0154937
0.007044
0.0134326
0.0105338
0.0101661
0.00430151
-0.000132448
0.000784451
0.00932909
0.00987435
0.00580299
0.00502174
0.00368209
0.0011869
0.0162853
0.0199887
0.00775679
0.00832304
0.000852641
0.00664699
0.00352496
0.00616311
0.0124509
0.0173695
0.0112497
0.0206676
0.0123113
0.0118865
0.000590563
0.0104215
0.0110604
0.0184342
0.00622966
0.00854346
0.00491403
0.0130459
0.0134428
0.00956629
0.0136716
0.00750828
0.0128315
0.0140208
0.00570442
0.0174984
0.0110539
SCALARS CoVolArea double 1
LOOKUP_TABLE default
666.905
658.669
557.302
462.704
629.391
646.508
466.934
636.855
545.443
542.834
524.902
556.567
715.762
854.374
920.053
938.149
945.52
840.342
834.202
949.006
784.685
656.702
851.379
744.613
962.609
669.483
871.167
912.909
469.219
746.933
738.973
866.542
755.246
939.481
741.961
695.633
985.063
744.818
802.619
761.842
1088.4
704.913
783.671
940.757
879.731
700.166
866.212
780.56
867.642
957.342
892.122
1005.73
946.157
884.076
959.231
926.238
1006.91
859.665
928.343
804.063
822.339
929.668
763.317
905.884
764.727
820.37
839.473
848.711
776.479
806.076
779.854
773.297
752.11
871.867
788.403
924.191
592.627
922.102
855.403
832.94
907.46
704.117
894.295
682.138
749.957
811.017
908.19
784.397
897.265
876.894
775.942
792.532
809.517
750.446
1233.35
736.352
681.155
590.449
794.338
751.227
682.246
706.24
647.319
754.971
831.402
782.268
803.806
800.856
810
789.994
771.819
781.974
732.539
950.405
754.507
880.865
760.528
922.904
887.609
883.183
749.133
897.875
816.605
850.005
740.54
897.111
804.493
729.03
881.38
711.448
708.463
877.521
848.093
982.705
909.663
809.957
476.289
601.437
915.014
655.395
835.9
763.84
798.262
868.157
1034.52
749.763
708.827
932.417
749.245
770.899
935.698
951.157
815.212
967.532
782.715
901.137
829.077
781.442
739.781
808.43
761.792
752.578
804.627
853.474
850.962
859.209
829.619
745.033
869.699
879
958.621
665.117
759.998
682.503
895.567
791.078
726.948
682.107
774.054
797.663
820.689
864.031
837.07
951.045
867.582
854.674
879.938
886.234
947.408
996.279
1029.97
1056.9
939.828
873.464
942.45
895.848
924.222
958.461
1000.45
819.164
908.494
967.211
910.444
882.171
886.199
928.956
838.684
901.268
845.265
994.492
935.968
915.143
861.439
879.589
958.754
1079.98
1097.81
1141.9
847.228
820.994
991.759
873.974
795.319
806.166
880.059
801.912
862.116
883.037
836.437
806.169
891.418
989.209
772.336
813.709
761.271
875.491
809.46
754.558
759.04
807.23
870.299
1064.03
1004.46
1014.16
841.254
831.085
844.328
792.163
785.049
795.145
805.512
802.231
771.355
823.041
751.526
871.508
725.412
816.73
759.824
782.51
719.294
769.127
743.305
727.272
827.858
755.8
834.032
891.515
861.535
859.727
812.438
794.673
782.468
742.567
712.147
731.826
839.391
860.491
787.92
823.866
757.772
758.305
772.552
674.918
700.044
805.506
478.49
785.569
883.911
833.319
1007.35
822.108
873.767
862.348
944.088
860.575
769.751
830.118
867.462
808.88
827.82
908.668
816.949
839.716
847.65
940.516
684.048
718.793
657.487
845.364
758.629
679.89
718.177
770.609
902.476
1025.44
1012.73
1003.42
880.397
851.113
839.597
844.707
650.976
735.456
662.35
759.751
736.421
937.833
797.972
938.982
687.42
750.116
807.285
904.221
761.282
719.984
858.328
734.333
814.307
921.614
988.633
837.54
932.446
802.333
671.847
737.437
618.639
514.467
835.284
759.274
989.659
661.958
818.593
1030.42
1002.85
929.663
1043.26
983.764
681.206
665.34
642.183
915.775
718.171
819.386
556.263
580.939
687.016
1040.22
916.631
943.436
779.571
687.512
930.303
826.926
717.232
806.088
864.404
783.439
811.739
536.224
657.697
525.626
849.538
948.682
610.977
763.018
690.439
881.809
761.538
673.575
601.535
743.498
558.52
783.693
641.519
810.311
754.394
776.953
821.106
734.731
803.597
729.581
786.945
820.137
816.816
781.264
769.966
735.182
789.933
843.523
750.678
754.372
725.417
779.52
714.845
780.416
757.704
739.094
766.103
885.547
850.13
859.65
573.197
738.42
675.283
889.239
863.926
835.777
693.83
763.726
845.294
748.51
983.039
821.457
861.406
946.504
921.156
728.205
828.712
721.872
878.733
802.474
736.723
899.229
859.197
760.586
789.646
733.105
780.178
930.862
871.207
1043.94
826.336
675.836
813.329
811.689
888.259
884.658
896.161
891.867
897.741
683.563
661.423
678.416
732.635
770.314
793.254
832.075
747.052
850.228
806.752
923.427
681.167
739.934
767.079
942.28
900.06
935.83
738.928
643.561
1019.19
818.717
660.243
739.451
747.83
698.759
795.01
739.539
718.867
648.882
855.311
1042.36
634.674
953.324
661.2
866.748
1049.96
909.609
892.89
1074.03
858.847
1072.9
955.476
941.217
624.019
536.255
836.348
619.847
627.187
540.588
881.19
581.877
634.01
686.857
625.221
654.702
812.057
1010.96
683.645
690.26
711.783
998.37
681.443
855.633
743.55
670.805
699.704
1161.35
1007.34
1123.72
535.01
923.855
546.091
716.766
846.097
743.807
826.435
776.281
938.984
751.463
859.573
1138.82
802.161
721.301
808.458
784.417
676.774
646.224
627.11
1057.52
886.469
925.165
897.334
982.067
918.109
884.282
783.762
698.945
729.131
650.59
749.691
912.323
857.009
707.662
736.082
823.934
826.965
956.985
846.031
882.991
712.549
823.242
703.122
781.278
917.482
848.684
814.82
784.531
891.259
901.727
929.373
828.94
873.113
977.339
879.006
1094.35
918.372
987.327
692.541
957.111
869.679
695.139
730.438
665.974
778.845
563.282
629.347
787.289
708.779
701.049
665.454
779.524
1005.68
1124.67
1137.58
1056.29
814.682
877.348
821.39
852.679
937.121
726.196
575.585
745.185
743.479
900.018
802.719
936.553
834.235
674.129
551.716
841.517
673.104
837.128
727.27
918.858
755.638
666.675
685.016
784.609
751.571
785.412
730.668
800.277
865.716
753.736
811.092
771.802
717.204
914.152
774.773
801.916
SCALARS SignedDistance double 1
LOOKUP_TABLE default
69.8798
70.0941
71.5597
73.1191
82.9619
71.074
77.3121
80.3861
90.178
86.2359
88.9102
84.3567
76.2192
74.6666
64.2687
64.504
64.999
72.3116
72.1168
84.763
83.0004
90.519
74.4948
76.1324
88.9507
80.7362
92.0738
85.7594
76.6361
84.3111
84.1003
86.6328
86.4935
88.3297
76.9176
76.9635
71.5087
77.1572
80.23
86.1393
92.9522
90.4622
70.8497
68.1119
65.9532
80.586
75.1651
79.8506
66.6094
70.1911
72.7436
64.7752
66.1632
66.0055
62.8259
66.1748
64.8315
66.6278
67.1233
69.6991
69.9301
67.2724
76.6558
72.5572
76.5302
75.7204
75.2449
82.076
79.0235
88.5431
84.253
88.7703
79.5423
92.7968
87.353
86.4046
83.7262
69.0194
72.4232
72.65
69.2669
81.9341
75.2181
81.1361
76.703
73.576
85.5547
82.0899
85.2841
83.3453
83.7775
90.7488
86.317
90.7715
93.946
81.2527
90.7152
82.3376
86.5971
87.9726
79.3173
81.6845
78.8849
82.8264
83.1405
79.0821
81.4234
75.2511
75.871
89.7808
84.3856
89.0337
83.6685
80.7196
73.9327
86.7953
86.7693
90.9285
81.6529
80.6653
83.7145
64.6927
63.6917
83.6603
75.696
63.5555
62.3092
71.5767
66.5335
73.9208
70.0952
66.3686
76.9339
78.4329
77.1885
91.745
88.3191
80.0744
81.4191
90.4608
87.0846
89.883
88.4222
92.8691
94.1642
90.7835
86.1562
83.3613
82.1619
78.1404
80.8173
80.5953
85.7921
80.3546
85.198
85.7017
87.9715
84.0338
82.3083
86.3035
86.2927
79.1027
69.4329
67.5244
67.9689
70.7734
68.7807
72.7912
64.7709
66.7257
66.126
82.9715
79.823
83.3142
75.2752
77.5109
77.6207
80.3021
78.3937
75.534
68.5345
69.9663
72.3009
66.8679
68.3842
65.0455
73.6845
71.5417
72.8264
71.2172
72.1139
68.6857
66.7255
67.9439
62.9803
63.8999
66.5749
65.7941
65.1281
68.62
66.7658
63.3319
64.8437
64.9093
64.5368
62.9046
67.9432
66.8035
69.1451
65.1274
65.8015
66.5479
65.099
64.0501
63.2702
61.6579
62.342
65.0925
67.233
69.6394
67.1707
65.7101
70.6249
68.1298
69.4967
69.8059
67.9401
69.7906
68.6513
70.8362
66.4601
67.1623
79.3975
77.1773
79.5567
71.7918
74.5702
74.0433
74.0821
74.6041
71.8285
67.1818
69.4662
69.4116
72.1457
72.2781
73.2034
72.2464
79.2719
75.5834
79.4498
80.5939
79.9491
83.2054
81.4652
83.6859
77.2593
75.1638
89.648
87.8218
87.6452
83.7408
86.2093
86.4883
86.606
85.227
83.9846
77.2523
81.8058
80.4312
73.0704
80.7175
76.468
74.4928
79.4867
90.1719
90.6772
88.156
89.1392
91.7753
88.1209
85.5366
85.0159
83.1012
84.1861
84.0514
89.4186
85.5202
89
83.676
86.9541
85.2354
69.6663
71.3847
66.1597
67.3819
73.1769
70.1218
71.9376
71.2152
68.681
72.8099
70.4115
73.2621
66.8508
66.0542
83.6453
81.9157
83.9
75.7186
78.5947
79.5307
77.8583
78.3326
75.018
68.6739
72.4697
72.2333
72.3795
72.4359
76.1287
74.4012
76.4706
74.5544
78.6187
85.0665
83.7496
84.5476
84.0404
87.2342
81.3564
79.514
86.7836
87.4313
83.3872
82.0611
83.8883
83.0926
86.1469
86.8596
86.1815
80.2209
82.573
81.0439
84.6311
84.5715
89.8483
87.1458
89.6491
86.555
91.246
89.9363
91.3547
94.263
92.2508
89.0285
93.318
92.6181
76.95
80.365
75.2906
88.5466
83.5937
83.1514
87.7081
84.9983
90.3444
93.8004
97.1305
95.5058
87.7372
88.4096
87.9308
87.8055
85.7255
86.8221
86.1526
81.4782
81.8843
78.6103
80
78.3535
83.7454
85.9595
77.5287
81.9956
80.1078
84.1536
83.7201
81.186
78.8227
82.3704
78.7149
84.1977
79.8444
84.3416
79.3376
80.4717
75.1666
77.1517
83.9761
80.9722
82.8345
72.1037
72.1218
79.977
75.7067
79.5607
72.3334
73.2622
89.2811
88.941
90.6587
84.4914
86.8471
88.7044
86.6521
86.0856
84.8053
77.4082
81.057
82.1192
79.4082
79.2346
73.4231
82.2003
81.6169
83.1989
74.534
79.2506
79.9576
86.482
89.3859
87.2049
87.8131
91.0639
87.6461
92.0072
91.968
86.6198
81.739
81.0536
83.3718
81.0562
80.8063
80.2736
85.8649
81.9293
83.6413
82.2695
82.8718
80.2133
68.2861
67.4335
70.0736
68.3173
66.7691
65.0377
65.2474
81.6574
84.2385
75.1894
81.4032
81.7212
80.8423
75.1544
66.8771
65.9895
70.7953
62.473
63.1099
67.7915
73.4452
66.2617
69.0435
69.1791
68.0608
62.6003
67.0439
72.3585
64.6698
64.0182
76.7191
69.266
72.6795
69.164
64.6438
70.5808
66.2757
73.0062
62.4613
64.6771
76.4442
76.8116
76.4375
78.1246
81.2056
82.835
83.1637
81.1622
78.3924
67.0435
72.432
72.4647
80.3643
79.6807
84.6553
82.3495
91.8357
89.4302
94.0416
77.6509
77.3847
83.2681
80.3176
83.2593
78.8607
85.1704
91.2997
90.3893
90.2468
88.4626
88.9494
89.9937
87.6814
88.4785
86.657
88.4792
84.5805
88.9861
85.9426
90.6702
89.9703
85.802
87.2501
91.0492
92.4517
91.7749
93.8691
92.3826
92.4566
95.4107
86.5563
86.4768
93.2586
90.41
88.1947
87.165
88.5359
96.6839
92.9037
94.7571
87.5354
85.741
86.5239
84.2898
82.5822
84.2222
78.8086
81.3949
84.417
84.734
72.8656
79.0479
75.5966
73.927
75.6634
82.5839
80.4318
81.5231
77.0356
79.609
77.8877
81.3752
81.8731
80.9427
83.6254
81.9145
81.3464
81.8492
86.1432
84.8318
89.3399
89.3161
87.7571
80.2207
82.3633
81.2151
76.9837
85.0274
78.7598
78.9005
81.0764
75.6612
90.703
84.0297
77.5972
79.9438
89.3759
84.7059
87.0179
88.1399
88.3526
87.3731
88.822
82.7763
89.0076
86.8626
88.7961
89.0504
89.0943
82.6601
79.8455
83.5346
84.8257
84.9898
82.2865
86.885
84.375
80.1766
79.4823
85.8754
81.5993
85.5345
84.5402
87.5065
87.1289
83.8472
83.9756
91.6506
86.8522
87.9503
91.3362
89.5215
73.0458
78.8373
75.1993
76.6903
81.6954
86.7739
85.7847
85.0159
