# vtk DataFile Version 4.2
vtk output
ASCII
DATASET POLYDATA
POINTS 642 double
-98.9698 193.49 74.6271
106.593 195.607 72.9961
-86.6984 -195.238 -3.42749
100.026 -202.076 -6.05391
2.76063 -129.448 261.39
0.0370394 165.031 228.688
-0.511975 -131.374 -261.399
-2.91612 123.191 -260.317
177.899 -0.425358 -191.506
190.835 4.94942 178.59
-166.909 -2.93169 -189.889
-187.624 29.3337 179.54
-171.996 132.155 133.127
-139.924 86.3865 238.362
-78.861 232.099 153.454
83.7645 231.822 154.343
0.529665 227.693 71.47
82.2245 143.944 -181.656
-67.3163 145.545 -179.558
-130.098 76.8237 -256.274
-142.338 89.1317 -129.174
-162.511 -6.51937 27.3525
141.118 92.9734 237.473
182.42 135.839 133.169
-123.03 -73.1469 242.587
0.428647 -21.3224 291.709
-144.948 -94.9521 -129.55
-146.959 -102.526 99.1482
-1.59029 1.55027 -312.244
-134.935 -84.5214 -257.019
153.289 95.4636 -140.529
142.211 83.7092 -260.051
161.399 -105.426 98.1622
133.965 -72.7093 248.33
66.9808 -184.084 137.636
-59.8397 -180.694 137.262
3.57027 -250.078 -7.07209
-52.3594 -181.751 -151.429
66.0368 -189.765 -133.681
142.485 -83.9687 -259.813
140.872 -93.3103 -120.77
176.635 -3.6689 27.0056
-139.256 169.638 103.5
-141.306 186.031 140.582
-94.0197 220.597 119.301
-184.725 49.6174 204.832
-175.481 115.732 176.637
-189.391 70.9154 166.054
-43.1341 207.539 204.932
-113.756 169.437 201.964
-82.0745 126.684 242.424
-38.1773 246.287 119.522
-53.5409 220.443 75.8819
45.3986 206.935 204.906
-0.0979925 245.128 160.848
59.6719 219.267 73.1994
39.5653 245.633 119.099
102.279 221.513 117.128
-9.79319 163.885 -41.0971
-70.7568 117.334 -63.5268
71.0148 123.781 -72.0453
15.5753 166.743 -39.6517
-49.1545 142.925 -220.28
-2.43671 150.351 -171.796
57.1765 142.21 -220.114
-116.437 118.854 -160.264
-140.76 147.498 -15.6655
-73.9725 108.557 -271.456
-100.569 128.162 -219.128
-165.658 48.3104 -155.059
-144.817 86.5005 -199.624
-163.267 34.6783 -223.804
-150.978 118.637 65.6893
-171.032 -3.02463 -117.492
-171.694 60.7166 -75.9241
-176.313 74.6498 99.0686
-182.876 20.474 122.423
150.887 188.455 140.908
149.676 173.06 101.283
87.0119 128.411 241.955
121.778 171.317 205.155
191.101 89.2545 149.162
181.948 126.085 177.772
181.762 44.9271 208.093
-84.0053 36.6759 270.047
-0.133484 69.4826 263.351
-169.021 -27.6856 208.28
-141.654 2.2358 251.931
2.77424 -80.422 295.905
-73.6104 -48.8101 284.57
-63.8457 -108.5 260.076
-164.483 -43.1743 77.8383
-170.765 -37.1638 155.48
-165.328 -57.3716 -167.617
-155.26 -38.2142 -78.3696
-122.573 -155.835 45.78
-143.023 -118.857 5.48888
-118.175 -156.846 -39.3641
-142.406 -1.54177 -272.672
-164.81 -43.0306 -223.959
-4.02007 73.1524 -301.961
-79.8535 45.7963 -305.582
-78.1128 -116.236 -272.252
-81.961 -45.6624 -302.514
-1.46848 -76.6052 -298.829
114.005 133.696 -221.941
85.3795 110.594 -269.871
146.356 142.645 -19.4174
129.193 123.297 -169.299
176.563 47.7646 -224.268
161.934 93.4782 -203.936
175.386 57.3498 -169.52
134.112 -162.698 40.004
121.749 -153.474 120.95
89.0443 -199.483 63.127
177.332 -32.4716 215.155
156.128 -83.3996 189.466
181.609 -41.0942 155.081
34.196 -156.489 210.155
100.725 -129.321 209.886
67.3273 -108.097 261.787
30.8535 -223.83 51.7746
49.133 -236.471 -9.18092
-30.9327 -153.966 210.523
3.19826 -194.53 146.635
-37.8702 -233.659 -7.49739
-23.4246 -221.272 51.7309
-79.9895 -194.578 64.6335
32.7708 -237.655 -68.743
82.3144 -212.739 -66.1326
-70.0043 -205.295 -67.6246
-22.6881 -235.121 -68.7668
49.2676 -151.413 -226.23
1.896 -212.053 -125.49
-57.0723 -153.313 -223.352
109.008 -145.124 -144.027
129.682 -167.236 -36.8229
80.1904 -113.156 -270.718
114.807 -136.667 -221.632
174.706 -53.5951 -179.994
162.13 -91.6529 -210.838
176.717 -48.9129 -223.976
155.133 -128.391 3.26248
182.194 0.516554 -120.847
170.234 -39.0554 -67.8171
180.032 -53.6007 73.5781
193.63 12.3416 112.512
80.8546 -47.8211 286.535
146.293 -6.51152 258.706
88.5951 32.4194 272.102
-113.1 -147.143 122.001
-94.1286 -127.09 209.019
-147.003 -82.3294 185.012
-107.314 -138.29 -222.961
-116.468 -126.937 -154.788
-151.654 -93.9219 -202.716
147.57 0.00778162 -269.116
84.5668 -49.279 -300.715
84.1338 49.4144 -300.645
186.945 76.3847 95.7263
179.668 61.2357 -75.3992
160.104 124.699 62.7578
-118.623 183.691 85.813
-119.613 196.961 113.758
-97.2212 208.404 95.5405
-161.389 157.407 137.041
-142.3 178.604 131.168
-158.542 151.442 124.053
-89.0877 228.97 133.509
-118.008 205.931 132.745
-113.507 212.851 146.099
-192.034 37.258 186.935
-195.075 60.1294 178.936
-192.93 51.0356 174.795
-159.993 101.93 210.275
-182.604 80.0843 194.271
-164.313 67.1336 224.918
-180.231 106.277 146.261
-186.366 91.7645 165.424
-177.794 127.758 148.442
-22.3469 188.425 221.28
-62.1233 172.215 222.995
-42.3188 147.945 234.266
-96.2963 205.442 178.597
-80.1086 191.735 203.948
-61.3884 222.238 181.83
-112.172 106.641 244.271
-99.0041 149.866 225.608
-129.146 128.47 222.867
-162.429 156.531 155.69
-148.088 144.024 191.851
-132.21 183.62 167.71
-73.0155 224.678 97.5398
-78.0064 208.706 75.4707
-57.7088 244.983 133.032
-65.1062 237.097 120.629
-28.1958 226.305 74.2131
-45.746 235.898 99.5353
-19.858 239.857 98.7176
23.2767 188.277 221.325
-0.0302812 210.622 205.802
43.1854 242.568 159.719
23.0947 230 185.1
65.2047 221.65 182.072
-22.682 230.034 185.108
-41.8924 243.083 159.445
85.9119 208.185 72.0882
80.802 224.395 96.285
106.042 209.522 94.4832
19.6684 239.98 97.8738
49.5508 234.945 98.4364
30.0531 225.952 71.9135
95.9109 229.909 132.327
71.4843 236.464 119.001
61.1172 244.034 132.628
-22.2995 253.247 135.242
22.0556 252.878 135.381
-0.525869 248.08 120.527
-63.6504 197.965 50.7816
-87.5997 183.153 49.2787
-11.583 208.016 40.4295
-34.3826 206.51 47.1087
-69.7402 141.945 -164.913
-21.9595 156.419 -58.0832
-43.977 150.911 -147.707
89.2071 185.9 43.0941
74.1586 194.679 44.5431
55.332 151.741 -144.312
43.5577 148.928 -53.2205
84.8375 144.141 -158.811
39.1816 206.472 44.3647
15.0744 208.261 38.8521
-28.0107 137.16 -240.18
-1.00554 142.506 -220.906
28.177 137.473 -238.645
-44.8022 150.033 -173.92
-29.1109 144.947 -199.86
-62.1061 144.69 -199.565
74.8541 142.788 -204.509
29.4356 143.692 -202.098
51.3139 146.817 -175.681
4.13739 166.759 -37.3794
21.167 155.626 -127.909
-20.8571 153.3 -130.523
-140.789 132.184 -33.9034
-117.167 161.433 48.8284
-93.0003 134.404 -177.633
-107.835 122.058 -150.861
-133.812 125.252 -92.8869
-132.633 119.004 -110.751
-129.608 111.771 -135.681
-41.956 116.888 -267.651
-62.6798 133.436 -245.183
-117.667 107.454 -239.647
-91.2979 123.056 -245.309
-102.77 94.6995 -267.656
-75.7543 139.717 -220.997
-83.7717 139.235 -199.917
-167.537 27.3991 -174.498
-163.078 44.2908 -197.273
-165.745 15.4976 -209.909
-144.616 87.6002 -166.31
-155.454 67.2629 -183.019
-159.69 64.1599 -140.124
-151.676 56.5534 -240.168
-155.249 64.0973 -213.127
-143.005 84.1338 -226.136
-109.124 126.254 -192.162
-126.497 109.246 -210.159
-129.094 108.662 -180.357
-132.884 152.663 57.9575
-116.99 107.885 -41.0078
-135.968 149.015 21.9739
-147.015 146.07 85.5494
-164.255 128.323 107.458
-170.897 -2.17239 -146.023
-172.226 28.9922 -130.423
-153.688 44.8982 -36.0969
-167.236 33.4261 -110.592
-174.533 -25.0353 -81.2004
-168.509 49.6563 -112.59
-170.099 56.5378 -98.7358
-187.91 52.3366 160.511
-185.842 31.7611 163.376
-175.882 106.503 121.522
-183.179 76.8615 140.724
-178.169 11.4277 86.5385
-182.178 45.5914 114.226
-173.944 39.1274 75.0104
-172.968 78.3068 -0.731411
-171.732 85.8508 31.0066
-166.586 95.6312 79.6848
129.037 199.292 111.359
128.666 186.205 85.6708
120.729 213.701 147.181
126.656 208.307 129.822
168.31 155.813 119.784
152.15 181.76 126.666
171.673 160.937 136.547
44.8014 148.076 234.06
67.1908 171.855 223.455
134.661 134.745 224.546
105.746 152.13 227.473
115.444 112.237 244.692
86.6883 191.236 205.48
103.314 205.237 180.796
190.337 42.5518 166.595
189.541 68.3986 177.63
189.476 20.8721 191.031
187.913 134.087 148.812
190.695 108.529 161.194
189.75 115.936 140.566
164.326 69.8234 224.324
182.482 91.6612 193.606
163.992 112.016 210.25
140.697 184.796 171.67
156.157 149.754 194.962
171.719 160.064 159.448
-49.5931 101.849 252.555
-0.0410809 121.105 245.816
-116.063 68.0525 258.725
-88.7476 83.682 257.693
-0.307398 19.3629 281.56
-47.8848 49.1143 268.201
-43.0395 5.45946 283.861
-180.662 -0.659545 189.803
-177.715 11.6288 206.93
-134.065 -36.982 250.409
-157.773 -14.9012 232.69
-148.662 -50.051 225.998
-161.323 29.2175 230.044
-144.736 47.0257 247.929
2.69365 -108.86 280.801
-27.4597 -95.8618 280.333
-24.3468 -120.95 262.277
-34.7058 -36.608 290.468
-28.9555 -66.4144 290.815
1.91862 -55.2327 300.462
-95.0301 -92.8709 254.287
-69.8607 -80.4249 276.262
-100.893 -62.6299 267.573
-114.692 19.821 266.636
-108.821 -24.4036 272.507
-79.3709 -9.35686 284.918
-180.358 -7.90967 137.107
-179.871 -5.49993 170.43
-165.983 -15.7048 58.9935
-178.237 -11.567 99.461
-159.712 -67.2045 131.765
-171.801 -38.9785 114.584
-157.573 -75.9751 88.4852
-167.509 -37.0993 -177.454
-171.855 -30.0073 -136.25
-148.891 -78.0485 -109.47
-166.411 -46.0859 -135.108
-157.881 -74.4919 -157.273
-169.145 -20.2908 -107.282
-165.339 -24.0208 -32.886
-107.584 -173.878 22.3474
-122.152 -156.992 3.66522
-103.523 -178.027 -19.8647
-145.212 -114.227 53.5669
-134.808 -136.628 27.6798
-135.84 -132.25 68.6876
-131.845 -123.6 -80.2288
-133.886 -137.11 -17.7641
-140.714 -110.043 -53.0468
-161.181 -51.8673 9.81486
-150.038 -89.6455 -26.4085
-151.63 -87.7598 36.9404
-165.785 -2.93288 -228.45
-165.604 -23.2707 -210.311
-138.183 38.9915 -267.336
-156.714 17.3133 -247.663
-156.39 -64.1796 -240.344
-158.31 -22.283 -247.668
-139.91 -42.6857 -266.532
-3.74055 101.261 -283.12
-44.3386 91.3814 -290.898
-47.1152 25.73 -312.408
-45.619 60.8099 -307.218
-2.76901 41.9345 -311.874
-78.3008 79.1955 -292.441
-107.359 63.5624 -285.001
-44.2405 -124.828 -268.054
-46.6084 -97.8526 -288.87
-0.813808 -108.462 -282.052
-110.719 -68.1887 -284.544
-82.001 -85.2121 -291.084
-107.266 -102.197 -268.667
-1.5615 -39.842 -310.102
-46.5994 -61.41 -303.355
-47.2861 -22.5751 -312.268
-113.605 21.0402 -292.7
-83.3584 0.708743 -309.897
[...]
POINT_DATA 642
SCALARS Mean_Curvature double 1
LOOKUP_TABLE default
0.00669787
0.00628912
0.00684591
0.0090728
0.0253503
-0.00129612
0.00726189
0.00705424
-0.00207426
0.0107331
-0.000229724
-0.00745014
0.0116608
0.011085
0.0189565
0.0170045
0.00754671
0.0100043
0.0229046
0.0134597
-0.00974478
-0.00125851
0.00916991
0.00905596
0.0117488
0.00478484
0.0100423
0.00514337
0.00139702
0.0143479
-0.00951744
0.0154365
0.00763853
0.0137391
0.00779886
0.00779386
0.041941
0.00785465
0.0171231
0.0141724
-0.00297085
-0.00302899
0.00748368
0.0388034
0.00722854
0.0203152
0.0136581
0.00203088
0.0127362
0.00867861
0.00915695
0.0136118
0.00900994
0.0106504
0.00984494
0.00684057
0.0107143
0.0095005
0.00766364
-0.0173884
-0.0181977
0.017293
0.0131121
0.00349378
0.0124795
0.0182028
-0.0565891
0.0147393
0.0157095
0.010723
0.00952635
0.0203047
-0.011516
0.007245
0.108832
0.00681873
0.00530821
0.0270091
0.0091677
0.00609071
0.0106138
0.0015535
0.0174242
0.0127183
0.00343473
0.000723052
0.019819
0.0134591
0.0239378
0.0141145
0.0123883
-5.51095e-05
0.0031594
0.0128784
-0.0126026
0.00875036
0.0070221
0.00496886
0.0162177
0.0173026
0.009923
0.0156535
0.0155291
0.00952709
0.00587966
0.0245789
0.0126907
0.079989
0.00950896
0.0241688
0.0172986
0.00837894
0.00807471
0.00723976
0.0095368
0.020881
0.00663512
0.00259305
0.00426876
0.00720901
0.0093054
0.00261667
0.0166528
0.00373355
0.0136382
0.0176833
0.000137917
0.0109695
0.0179373
0.01426
0.0100781
0.0180763
0.0105112
0.00848326
0.00698266
0.00242433
0.00804742
0.00892408
0.0255624
0.0104392
0.0237043
0.0246157
0.010339
0.0112688
0.00302527
0.00683978
0.0129401
0.012215
0.0130484
0.00218653
0.00687089
0.00819456
0.0100992
0.0264631
0.00546995
0.0145904
0.00667383
0.0109615
0.00998298
0.00473622
-0.0453208
-0.0116698
0.00758948
0.00686638
0.0114549
0.0319488
-0.00315393
0.000702385
0.0278743
0.01043
0.0283969
0.0491044
0.0542676
0.0211333
0.00767068
0.0144286
0.0130247
-0.00121719
0.0297255
0.0352613
0.0138715
0.00934528
8.55762e-05
0.00953424
0.0108387
0.0107221
0.0120577
0.0103225
0.010823
0.0213108
0.00843557
0.0107007
0.0126044
0.00901052
0.0329009
0.00619541
0.00871431
0.0104976
0.0084103
0.0135008
0.00844305
0.0154951
0.0122268
0.00908802
0.0124171
0.0166568
0.00940297
0.0116312
0.0107558
0.0092697
0.00688692
0.00834955
0.0277739
0.00864245
0.0269893
0.0341224
0.0327997
0.00178518
0.00272558
0.00138239
0.00644066
0.00371989
0.00218965
0.00200711
0.0240663
0.00242148
0.00380613
0.0137765
-0.00193813
0.0117565
0.00234961
0.00854583
0.0139698
0.00949839
0.0144156
0.0108433
-0.00352848
0.00886941
0.00132878
-0.00356785
-0.000584621
0.000603602
0.00319123
-0.000771179
-0.0288066
-0.0160439
0.0118195
0.00179651
-0.0750323
-0.102501
0.020415
0.00806091
0.0198016
0.0180937
0.0181712
0.0129904
0.0220894
0.0143854
0.00495304
0.00878754
0.00330333
0.00402117
0.00523317
0.00844804
0.0186172
0.0121985
0.0185143
0.0153711
0.0140109
0.0117561
0.00689824
-0.0275426
0.00448019
0.0123845
0.00578538
0.0020274
0.0189007
-0.0149898
-0.00875835
0.0338084
0.00463903
0.00439618
0.000144875
-0.00284891
0.00800763
0.000395088
0.0111582
0.00592578
-0.00137503
-0.0585426
0.0515702
-0.00806911
0.00827611
0.00753402
0.0212717
0.0179325
0.00580688
0.00687186
0.0248056
-0.000553675
0.00801341
0.0132713
0.0122691
0.0153458
0.0105669
0.00968857
-0.000528626
0.0126454
0.0135301
0.0353731
0.01974
0.017677
0.00837182
0.0146764
0.0106827
0.0108204
0.0120248
0.0203509
0.00203716
0.00147974
0.0160501
0.00631684
0.00421248
-0.000916305
0.00493265
0.01915
0.0123511
0.0110705
0.0136521
0.0107413
0.00342913
0.0157769
0.0227393
0.0091039
0.00884194
0.00437042
0.00899914
0.0260179
0.0140203
0.0140096
0.0128887
0.00953353
0.0130978
0.0160017
0.00689076
0.00314847
0.000667607
0.011981
0.00274355
0.0080385
0.00493993
0.00249755
0.0216624
-0.00196744
0.00505998
0.00529983
-0.0191514
-0.0096938
0.00483505
0.00758604
0.00653068
0.00853446
0.00568036
0.00845186
0.00310315
0.00999129
0.00333311
0.00290657
0.00373279
-0.000919008
0.0213435
-0.00154954
0.0115965
0.0124488
0.021084
0.015056
0.00721974
0.00784128
0.0110397
0.0063982
0.0137648
0.00959219
0.0154048
0.0133151
0.00822524
0.0101128
0.00755267
0.0131184
0.0158593
0.0138536
0.00707681
0.00650548
0.00834003
0.0102044
0.0151355
0.0138804
0.0157189
0.00495015
0.0129847
0.0266471
0.0158024
0.0214596
0.0180135
-0.00649611
-0.0210282
0.00354819
0.0116653
0.0920638
0.000913908
0.00727764
0.00139896
0.014963
0.00460749
0.0214846
0.0245049
0.0216998
0.00504604
0.0115235
0.00467493
0.0117423
0.00995574
0.0224341
0.00789969
0.00968959
0.00577108
0.00636988
0.00611572
0.00564312
0.00899789
0.00785301
0.00786894
0.0220942
0.00677366
0.00689184
0.0123239
0.00983408
0.0175301
0.00639885
0.00691045
0.0037921
0.0109321
0.00697339
0.0107288
0.00595941
0.00690601
0.00537082
0.0130151
0.0124067
0.0122038
0.00429389
0.0075904
0.00534795
0.00190127
0.0119572
0.00691651
0.0082176
0.0231008
0.00790569
0.0163499
0.00665194
0.0124448
0.0073786
0.00581083
0.00480654
0.00887541
0.00686999
0.010693
0.00134766
0.00311596
0.0159859
0.00941358
0.0236054
0.00745933
0.0105079
0.00839569
0.00541473
0.00572788
0.014406
0.00703886
0.00694767
0.0128134
0.00458272
0.0103544
0.0159828
0.0133195
0.00441348
0.00393219
0.0136985
0.0124697
0.00551682
0.00353812
0.0159488
0.0152346
0.00078151
0.013769
0.0105967
-0.00423789
-0.0208545
0.0349296
-0.0158754
0.0256019
0.0131309
0.0179616
0.0159829
0.00725765
0.00845839
0.0069534
0.00742233
0.00625788
0.00652747
-0.00807714
0.0102493
0.0158507
0.0176232
0.0139778
0.0143816
0.014375
0.0257259
0.00742907
0.0205108
0.00138421
0.00181023
0.00984104
0.00354666
0.0219121
0.0345465
0.0288097
0.00920864
0.0308969
0.00493667
0.00921843
0.00723929
0.0121554
0.0108095
0.00370829
0.00173406
0.0217293
0.0192778
0.049016
-0.023043
0.00998073
-0.00721689
0.00927734
0.00302153
0.00835652
0.00858656
0.00133856
-0.0021346
0.00955242
0.00190548
0.00152674
-0.0025579
0.0110857
0.0137026
0.011956
0.0138263
0.000884796
0.0213128
0.00547138
0.00965663
0.0137511
0.0169232
0.00185722
0.00310318
-0.00130818
0.0051201
0.0139713
0.0194162
0.0131176
0.0172365
0.0120479
0.0067129
0.0064719
0.00689009
0.00685901
0.0118288
0.0120935
0.0135427
0.00663585
0.00473116
0.00919282
0.00380131
0.00452254
0.0138001
0.0121244
0.00532664
0.0105958
0.00494426
0.0179229
0.0100775
0.0343814
0.016307
0.018542
0.00572374
0.00438251
0.00464279
0.00991588
-0.0196985
0.0135001
0.0226038
0.0184588
0.0130286
0.00707382
0.00587211
0.00792343
0.0220453
0.0172482
0.0142424
0.0112452
0.0113619
0.0144959
0.011555
0.00933453
0.00421523
0.0120527
0.0191524
0.00589685
0.0191171
0.0160338
0.00761861
0.010067
0.00944642
0.00590212
0.00954882
0.00188689
0.000504828
0.0107408
0.0155838
0.00242214
0.0148345
0.0239839
-0.00344365
0.00187245
-0.0125955
-0.0212622
0.00644415
0.0149464
0.0501684
-0.0287482
-0.0158576
0.036352
0.0101592
SCALARS CoVolArea double 1
LOOKUP_TABLE default
694.142
754.751
833.286
735.658
631.084
1368.95
1067.8
1155.48
1019.52
543.819
916.701
364.179
534.807
1262.49
1045.44
1149.54
1019.86
706.283
514.371
1157.81
2007.8
2926.76
1447.6
535.601
1129.81
1656.18
1316.7
1352.31
1999.37
1218.39
2167.86
1105.74
1356.44
1068.57
1394.79
1403.53
424.942
1652.83
1502.81
1126.6
2631.42
3094.78
998.036
687.672
674.56
943.116
1234.4
419.529
1234.61
1503.88
1493.48
614.909
812.756
1331.67
1220.88
964.544
697.678
672.354
1553.62
6295.65
4070.66
2253.38
808.771
1754.03
888.828
620.015
706.756
1095.73
778.601
864.888
782.493
768.475
2772.83
826.352
1068.07
1524.47
1095.77
833.953
910.829
1524.39
1417.98
917.055
1097.19
1265.88
1671.69
2705.43
891.714
1314.41
926.938
1354.27
1164.39
1740.11
1082.16
688.341
2441.9
964.627
1380.19
1499.43
1328.71
776.631
1560.56
1392.26
1125.68
1529.25
1772.28
709.046
1191.04
1373.62
739.602
807.48
623.786
774.268
1066.57
1482
1201
775.123
1198.83
1130.71
1273.18
1284.97
1285.25
1368.23
845.92
1257.4
1270.9
802.795
1347.88
1147.43
887.621
891.096
1089.87
832.759
1633.73
1947.83
1270.03
2028.91
1043.01
1256.71
806.856
560.619
413.077
775.177
1198.88
987.36
2310.64
1536
1154.55
1349.56
1264.52
1733.75
1443.3
1164.6
1012.3
725.077
1711.75
591.525
1668.62
1586.24
1567.92
1359.78
904.095
2820.24
944.258
816.968
733.122
490.677
609.454
712.912
585.709
551.58
944.243
489.661
487.34
260.77
1396.04
1020.27
1137.99
581.086
647.576
653.389
1282.38
1398.35
1750.06
1379.81
1313.08
1205.18
1223.55
1342.35
1432.33
1138.07
1650.75
1454.49
732.609
739.948
691.139
586.604
846.822
694.19
857.405
1342.44
1255.16
1191.75
1289.86
1300.23
1240.9
1113.34
753.129
791.056
730.833
920.205
816.21
943.123
669.659
648.612
784.041
875.691
921.069
798.004
2927.58
2983.74
1453.98
1694.37
2434.9
3755.63
1120.26
2614.51
2213.89
1925.5
3428.64
1825.51
2122.06
1432.55
1122.24
1080.86
1266.48
927.095
1109.26
600.423
713.855
1257.89
1371.81
1808.71
2224.71
1873.07
3731.92
1390.59
611.681
2532.77
1406.51
640.222
769.195
1191.67
935.284
1005.47
920.87
1093.11
658.178
573.503
1042.1
799.276
763.549
1005.94
842.258
925.529
953.495
721.208
883.226
727.468
868.934
868.331
898.526
4609.06
1863.4
1108.41
975.31
1196.47
861.579
4630.07
1673.93
2536.29
519.249
2238.88
756.468
797.729
960.355
991.908
1215.13
1211.86
2945.83
2603.69
2169.85
1268.62
765.896
912.819
1069.81
624.125
714.048
644.437
587.971
1848.34
1466.15
1323.21
1279.28
1225.62
1357.45
1430.67
1076.7
1024.39
842.136
616.62
748.923
479.168
1423.55
1178.73
1356.07
1464
1475.08
1123.17
2227.53
2392.53
1362.17
1580.71
2234.28
2173.29
1798.45
657.155
1012.14
1229.01
1139.33
1012.7
1197.61
1294.38
876.886
1161.02
1026.92
1425.16
1165.59
1064.25
1032.74
1232.9
1211.12
1558.92
1427
1619.42
1213.72
851.567
1608.14
1118.56
1302.84
1280.88
1517.25
1034.51
780.491
2037.13
1159.32
914.13
831.523
1505.28
1035.6
1054.16
1085.59
1260.74
999.169
1075.28
1742.75
1265
1618.54
2676.83
2614.15
2016.21
776.971
788.878
1321.4
1025.71
991.739
1045.13
1387.69
1502.95
1286.5
1696.01
1342.81
1659.76
1169.38
1327.94
1267.83
1467.82
1517.7
1413.17
1284.93
1124.87
1852.58
1611.84
1806.77
1543.9
1654.06
1584.4
1053.96
1482.23
538.924
611.767
1030.22
885.813
1019.47
1998.05
4298.88
722.582
1437.77
1123.91
2391.26
661.504
847.057
610.191
1096.98
881.954
596.236
933.513
935.321
580.558
820.782
673.027
757.422
805.696
986.556
1129.14
1075.77
1495.95
1219.91
1212.42
1181.45
1171.75
1421.2
595.845
769.085
715.945
1029.22
847.587
895.835
1264.18
1108.57
1450.02
958.727
1261.56
998.838
1459.5
1300.34
1368.7
1139.85
1157.67
1118.74
1633.06
1385.93
1627.51
1157.33
915.547
1455.9
1313.1
569.645
976.561
721.596
980.91
1120.71
1410.58
1249.35
1381.34
1203.38
1395
945.943
1100.16
1088.5
710.497
914.041
519.939
1166.05
1254.79
1405.04
1563.98
1550.15
1336.02
904.326
876.174
756.196
843.19
1169.15
837.608
1033.92
994.243
975.111
1072.19
898.589
1646.54
819.632
709.976
1072.34
2046.89
1126.73
1785.04
2975.9
1922.57
919.562
2542.11
1345.94
933.486
1020.31
1020.08
1019.31
928.706
1629.13
1533.6
1875.59
1826.91
2416.19
1289.76
1072.33
1037.48
1046.64
1127.62
1056.82
1144.94
954.611
481.831
808.604
1305.09
382.514
1516.77
929.998
470.356
804.128
1119.53
694.704
1202.89
928.54
1902.12
889.437
979.916
1328
1322.93
766.897
1661.92
847.467
2707.23
1328.15
2835.54
1138.49
1059.56
1316.74
1242.31
1303.84
1249.11
1738.66
2550.34
2439.55
1805.6
1133.42
1205.48
1322.07
1156.96
1504.22
970.698
1596.24
1307.26
993.162
1084.03
2332.83
1970.69
2347.21
1675.04
1541.68
1256.58
1521.42
1549.31
1024.75
1440.35
1154.05
1118.99
1401.52
1151.59
1055.38
1003.07
1175.72
1422.11
771.53
1306.99
929.118
824.184
1028.13
1511.67
1222.57
1434.37
969.366
1175.69
657.138
944.969
1010.16
1352.92
1440.92
1885.97
1813.94
2368.87
676.701
856.967
630.238
558.789
823.335
1177.91
883.417
729.35
1046.55
1377.64
1293.7
1281.82
1365.89
1561.1
1898.66
1684.48
1307.25
1281.52
1604.97
1255.43
1250.96
1577.82
1853.86
1831.01
1982.43
1835.74
1277.04
2517.79
1081.38
838.982
837.977
993.438
2790.45
610.996
1668.25
3985.21
915.517
1017.06
993.607
1521.63
4976.68
1900.84
3177.03
1482.19
SCALARS SignedDistance double 1
LOOKUP_TABLE default
84.3906
83.269
75.972
72.2947
60.5316
62.0136
61.832
66.4109
75.9818
74.9714
78.9723
80.7726
80.8644
55.1303
64.5316
62.4428
83.4403
84.174
90.1416
61.7448
96.2391
88.8823
55.4593
77.9328
62.2811
58.6982
95.8664
81.0088
51.8326
58.7646
89.0388
55.4852
79.3232
59.2987
67.9486
69.6438
67.9457
91.7367
77.4435
55.7394
87.9697
88.8181
81.853
77.0248
74.9552
68.3268
72.7063
82.205
54.0201
56.1536
59.1603
75.0189
84.1909
54.2892
59.6327
82.9612
74.4373
73.9944
115.349
112.689
115.478
116.203
83.1384
96.2866
82.4346
90.8553
135.644
58.364
77.5947
83.7661
79.0878
75.2268
89.1127
95.5397
133.095
87.2396
81.6278
72.6078
79.7027
59.3909
54.1221
75.2462
65.5829
65.8288
61.2389
60.681
73.3967
57.1318
52.4525
54.2803
58.3877
88.3158
78.7498
82.118
104.824
79.4967
83.127
79.137
59.0515
76.7588
52.5775
49.0576
54.7246
50.7401
51.9535
76.7416
60.0661
133.233
83.8018
74.5106
77.9741
80.0264
74.6359
71.5111
69.5492
69.6903
70.5135
76.4323
65.8354
66.5537
58.1741
70.8893
69.005
67.5528
68.2528
71.9579
72.9567
72.6495
66.3353
70.3095
73.8654
69.5899
77.5497
67.019
79.3916
92.8128
74.9362
56.448
81.5574
78.7391
78.8401
74.7395
81.0227
92.3948
104.253
81.0988
82.5545
54.7809
54.5057
61.3734
74.2
68.6653
76.6423
78.4269
92.1851
78.7106
55.1171
53.5911
53.1272
82.3426
125.648
87.2467
83.6518
77.7224
80.5729
79.1867
76.9187
79.5439
72.7759
74.6914
72.1828
80.8439
83.1541
82.6539
59.3872
67.6054
57.417
79.7652
82.0756
80.146
58.1407
58.3585
60.5816
56.1926
54.7131
54.3604
55.8544
56.1698
55.2402
73.0135
58.9542
62.2709
79.518
84.0412
72.9788
73.958
84.3742
78.8554
78.9147
58.1303
54.1965
59.7871
53.9598
54.8451
53.9955
59.8775
83.4954
78.5249
79.1803
77.6325
78.0215
82.9983
71.4257
73.603
72.3315
73.3392
72.8087
74.0112
87.9733
88.0459
89.7756
89.0341
92.619
121.88
107.452
88.0284
87.5009
103.582
114.305
90.7559
86.6424
90.0879
77.0431
82.7338
77.3545
95.6868
85.2152
84.9456
83.0638
83.9741
88.0291
114.637
116.17
116.517
138.449
91.2788
87.3586
92.7419
134.43
119.672
101.506
63.4635
73.1541
69.9366
68.0219
57.3812
79.7567
82.8603
79.5948
77.7456
77.78
84.3089
79.8347
90.11
70.3882
76.8969
75.0653
83.6735
78.0984
84.9151
92.3712
116.152
112.695
86.3255
84.1388
84.5719
93.0336
113.707
99.3274
118.746
103.907
115.86
82.3223
82.1495
82.497
81.0426
88.9161
83.0959
89.7077
123.742
111.593
90.2742
76.0399
81.7811
67.7705
72.895
77.3093
74.4676
75.5298
60.4472
58.7288
53.2237
56.9028
55.869
54.1503
54.7624
74.5433
77.1101
73.5449
77.2466
75.0201
78.5659
57.8253
66.314
57.5044
59.1742
54.9819
68.2457
60.3187
60.3003
55.5306
60.1588
61.1887
62.4172
60.6497
78.2083
73.1262
59.5907
62.2976
66.7263
62.1828
57.1525
55.6127
55.271
59.6064
57.8416
56.3283
57.8999
59.3111
54.3329
56.1174
56.3825
55.2875
56.9802
78.9942
77.9283
89.8964
87.2311
80.9052
84.5684
83.5322
79.648
88.7094
98.5978
87.0886
84.3963
99.6412
101.765
76.445
78.272
76.6557
84.1117
80.4133
79.1999
95.2725
80.6358
90.5565
87.2528
84.8311
84.9898
77.7653
77.6462
58.3288
68.2927
68.4876
69.908
58.8352
58.1424
55.6194
51.9894
51.1556
51.4363
51.4294
52.7748
59.3463
53.1836
54.9943
50.4958
49.8372
54.4092
51.4778
52.9826
51.8399
52.2964
50.2556
52.0584
73.8333
62.8957
81.5585
81.4477
54.1167
66.8401
65.5556
88.6535
114.653
92.5343
109.105
125.244
88.2089
81.4098
75.3704
76.9489
77.438
70.8702
75.2182
64.3012
82.052
78.1877
80.0527
80.4518
80.4092
77.1063
72.6617
71.6782
71.5845
75.7402
73.9499
77.1716
69.4188
70.9569
68.8834
73.7451
74.2287
74.8049
68.2733
71.2977
63.2535
74.3689
73.1997
73.4592
64.638
63.1091
59.1551
67.9865
66.0775
67.7692
57.6343
62.8673
64.047
72.236
68.2612
70.1075
71.6057
71.034
70.5568
70.23
67.9886
69.683
68.5654
65.2382
65.8019
68.3055
68.4985
68.8703
67.5988
67.9725
74.8596
73.992
74.9165
69.314
71.3015
69.2675
71.8679
72.2801
70.9602
70.8067
71.1721
71.2175
69.169
71.2755
67.7988
67.5823
68.0274
66.8113
65.1451
75.1502
73.1341
68.0212
71.2255
72.2354
70.2068
68.5324
70.5719
76.3859
70.8735
68.6469
85.467
90.5479
95.0395
91.959
75.4217
68.4721
64.7735
64.0922
73.4263
72.9961
88.7843
71.9026
78.5267
75.1549
89.2145
59.2628
66.5712
66.6566
66.7455
54.1538
80.8925
93.1363
77.3003
77.8932
75.3542
78.6356
78.3855
79.1911
65.299
78.1659
74.2889
87.0941
80.2333
80.9343
74.6696
80.3266
76.7785
77.0201
81.0927
80.7124
85.1554
91.6242
95.9588
101.555
85.0758
92.4765
80.0109
75.8739
80.5107
80.4859
84.0921
82.9587
84.8725
83.7588
84.106
83.78
55.0139
54.0657
53.561
55.9259
57.3868
67.1863
55.9832
59.0271
60.1382
55.5367
60.1843
59.9601
62.3188
60.3162
55.7966
52.0894
55.1722
58.3594
75.7248
71.6902
73.6133
76.1491
78.0417
64.3379
65.5164
64.5516
68.4118
70.1109
77.4723
77.8604
78.5201
75.4639
69.8622
72.2261
71.9029
74.9731
67.8536
84.7127
81.0386
64.6708
67.5379
76.7522
92.6551
89.1675
79.3179
92.7659
78.8351
74.4087
76.4343
80.2346
82.5971
81.007
81.619
78.7617
74.1274
54.9829
63.7602
63.6893
54.9634
52.9978
51.2953
53.0855
51.8868
48.7087
55.329
48.7242
53.291
52.0149
51.507
50.035
51.1533
50.0592
76.3935
83.5612
83.1615
79.2037
79.2531
86.5428
105.274
94.0446
98.0565
111.72
91.3676
81.5141
84.7472
111.748
123.968
101.418
118.952
85.2416
