# vtk DataFile Version 4.2
vtk output
ASCII
DATASET POLYDATA
POINTS 642 double
-94.7698 187.938 78.2634
102.658 190.043 76.6764
-81.9158 -189.922 -3.49545
95.6577 -196.867 -6.25814
2.87789 -125.225 257.767
0.0413714 163.03 223.187
-0.524318 -127.327 -257.842
-2.98654 118.687 -256.748
170.777 -0.418008 -190.938
183.816 5.35834 178.076
-159.515 -2.96524 -189.232
-180.391 31.2444 180.869
-165.191 129.541 135.117
-137.082 84.6439 234.442
-76.5221 227.443 151.876
81.7535 227.179 152.689
0.679997 220.886 75.1302
80.7261 136.421 -181.148
-64.985 137.927 -179.623
-126.394 74.3921 -253.233
-135.572 85.214 -128.922
-154.234 -7.28852 28.0174
138.246 91.5463 233.368
175.857 133.354 135.104
-119.238 -70.6099 239.148
0.445407 -22.4157 286.309
-137.764 -91.3364 -129.775
-140.084 -99.3771 98.5331
-1.6373 1.62611 -307.367
-131.502 -82.538 -253.887
146.719 91.7384 -140.613
139.141 81.5957 -256.918
154.912 -102.069 97.5408
130.648 -70.06 245.032
64.7226 -178.621 135.222
-57.1857 -175.219 134.881
3.85251 -243.734 -7.5823
-48.0187 -176.838 -149.833
63.5012 -184.592 -130.338
139.484 -81.9132 -256.62
133.593 -89.42 -120.393
168.535 -4.01813 28.1083
-133.432 165.344 105.69
-136.157 181.276 141.289
-90.2124 215.115 121.186
-180.139 49.324 201.896
-170.338 113.439 174.571
-181.969 70.2726 168.167
-42.1446 204.24 201.256
-111.14 166.372 198.568
-81.2102 124.516 237.406
-36.8596 239.835 121.667
-51.3238 214.077 79.8122
44.5117 203.604 201.213
-0.110389 240.468 158.772
57.7047 212.798 76.9535
38.368 239.148 121.121
98.8768 215.875 118.971
-9.33333 154.477 -38.2731
-68.2108 108.503 -61.8205
66.5062 114.599 -71.459
14.3615 157.443 -36.7487
-48.6529 135.401 -218.786
-2.48646 142.305 -170.587
56.9036 134.64 -218.921
-112.213 112.029 -160.087
-138.718 144.245 -17.5251
-72.5579 105.073 -267.786
-96.9547 122.27 -217.631
-158.588 46.0757 -154.478
-138.61 82.6175 -199.093
-156.584 33.3147 -222.393
-143.646 115.471 67.3529
-163.184 -3.16076 -117.586
-162.181 59.467 -75.9993
-168.5 73.5301 100.317
-175.295 20.909 123.215
146.248 183.877 140.983
144.21 168.731 103.496
86.3972 126.291 236.831
119.546 168.28 201.831
184.044 88.8715 148.979
177.184 124.345 175.542
176.818 44.2223 205.526
-83.234 35.1956 264.557
-0.133114 67.8002 257.913
-163.231 -25.5938 205.991
-138.243 2.43288 247.914
2.89184 -78.9858 291.221
-72.1182 -48.0365 279.753
-61.9351 -105.22 256.265
-156.436 -41.3526 78.7599
-163.849 -34.5631 155.134
-157.981 -55.2861 -167.89
-146.866 -34.9474 -78.5801
-116.547 -151.515 45.3024
-135.811 -116.125 5.71904
-112.195 -152.664 -38.4635
-138.616 -1.64141 -269.219
-157.872 -42.3149 -222.598
-4.18254 71.106 -297.506
-78.493 44.7302 -301.317
-76.8849 -113.188 -268.538
-80.7269 -44.6138 -298.038
-1.50634 -74.8893 -294.271
111.16 127.586 -220.648
84.5296 107.033 -265.941
140.386 136.459 -15.4054
125.162 116.986 -169.174
169.962 47.0016 -222.644
155.955 89.4373 -203.927
168.256 55.1114 -169.593
128.532 -158.645 39.1522
117.146 -148.984 119.182
85.7365 -194.044 61.6451
171.823 -30.4965 212.934
150.813 -79.799 187.942
174.86 -38.8255 154.503
32.9217 -151.198 207.204
97.549 -124.598 207.316
65.5723 -104.708 257.937
29.4899 -217.67 49.6665
46.5511 -230.568 -9.69711
-29.4055 -148.513 207.633
3.36559 -188.684 144.109
-34.6716 -227.778 -7.87646
-21.6394 -214.977 49.6393
-76.2565 -189.061 63.3241
31.366 -231.826 -67.4435
78.3416 -207.689 -64.812
-65.6173 -200.099 -66.3966
-20.5893 -229.195 -67.534
48.523 -144.996 -224.246
2.01078 -207.059 -121.811
-56.8665 -146.874 -221.198
102.516 -140.557 -143.105
123.977 -163.308 -35.7368
78.9864 -109.971 -266.916
111.587 -130.79 -220.022
167.751 -51.1735 -180.569
156.115 -87.5168 -211.834
170.041 -48.2114 -222.458
148.054 -125.991 3.49023
174.195 0.609491 -122.284
162.576 -36.3828 -67.5855
172.647 -51.9656 74.1117
186.113 12.8781 113.277
79.7319 -47.0472 281.633
143.044 -6.78909 254.781
88.0022 30.7462 266.637
-108.205 -142.547 120.309
-90.7351 -122.248 206.558
-141.088 -78.6201 183.679
-103.629 -132.581 -221.799
-111.591 -120.841 -153.937
-145.461 -90.0941 -202.669
144.141 0.00764588 -265.487
83.434 -48.3268 -295.949
82.9775 48.471 -295.894
179.47 75.2215 97.126
172.326 60.7779 -75.8808
152.985 121.742 64.4871
-113.527 178.615 88.6553
-114.738 192.083 115.824
-93.1096 202.847 98.2686
-155.371 153.567 138.776
-136.877 174.402 133.417
-152.381 147.985 126.337
-85.693 223.301 134.308
-113.41 200.956 134.325
-109.631 207.914 145.45
-184.914 38.5466 186.312
-187.626 59.5907 179.112
-185.428 51.8662 176.656
-156.224 99.8033 207.073
-178.063 78.4208 191.985
-160.652 65.9735 221.378
-172.991 105.01 147.75
-178.964 90.0839 165.637
-170.815 125.516 148.985
-21.9331 185.865 216.706
-61.1413 169.647 218.367
-41.9424 145.892 228.972
-93.8665 201.865 175.807
-78.3088 188.593 200.343
-59.8083 218.404 178.956
-110.426 104.625 239.814
-97.2366 147.237 221.449
-126.464 126.014 219.184
-157.48 153.288 154.535
-144.472 141.283 188.904
-128.836 180.223 165.487
-70.0274 218.646 100.389
-74.7789 202.75 79.3555
-55.5379 238.829 133.604
-62.4433 231.126 122.715
-26.9655 219.605 78.0647
-43.9998 229.481 102.457
-19.2137 233.167 101.551
22.8982 185.715 216.75
-0.0310271 207.293 201.982
42.2162 237.932 157.765
22.6341 226.019 182.056
63.7872 217.705 179.15
-22.2028 226.054 182.064
-40.8579 238.492 157.473
82.9617 202.087 75.8892
78.1958 218.272 99.0727
102.299 203.875 97.1993
19.1143 233.332 100.575
47.9952 228.466 101.251
29.0189 219.243 75.5833
92.9825 224.175 132.845
69.2339 230.318 120.928
59.2566 237.802 133.072
-21.7339 246.804 135.496
21.4699 246.413 135.618
-0.538964 241.519 122.771
-60.5333 191.649 54.9074
-84.1466 176.882 53.1327
-10.5799 200.941 44.6404
-32.3735 199.641 51.2121
-66.4906 134.551 -165.796
-17.4864 149.436 -57.058
-42.1951 142.198 -147.636
85.7854 179.725 47.2039
71.2588 188.256 48.6242
54.0002 143.411 -143.803
39.1371 141.491 -51.561
82.2632 136.685 -159.185
37.3854 199.695 48.3099
14.5023 201.112 43.024
-27.7931 131.043 -237.536
-1.0386 134.926 -219.595
27.9469 131.323 -236.024
-43.9518 142.014 -173.176
-29.0406 137.257 -198.652
-60.9596 137.033 -198.659
74.2251 135.04 -203.895
29.2366 135.922 -201.083
50.8012 139.149 -174.541
4.92517 157.444 -34.2921
21.0284 146.615 -126.905
-20.4301 143.991 -129.739
-139.683 132.794 -33.9439
-112.731 155.258 50.6924
-89.4895 127.281 -178.371
-105.322 114.37 -151.002
-129.91 123.067 -92.2757
-127.744 117.585 -110.909
-123.754 107.99 -134.51
-41.499 112.746 -263.833
-61.6876 128.068 -242.221
-113.868 103.388 -237.179
-88.8504 118.533 -242.529
-100.143 91.7984 -264.247
-73.7915 132.944 -219.374
-81.0111 132.243 -199.406
-160.164 26.5084 -173.806
-156.032 42.5004 -196.625
-158.477 14.9776 -209.268
-138.165 83.5273 -166.054
-148.737 64.0798 -182.563
-152.982 60.5173 -139.745
-146.455 54.4443 -237.686
-148.706 61.3271 -212.186
-137.411 80.5834 -224.383
-104.822 120.003 -191.942
-121.413 104.336 -209.146
-123.473 103.413 -180.061
-128.667 146.644 59.1284
-109.253 106.298 -40.7113
-134.533 149.48 23.333
-140.273 142.452 87.6996
-157.405 125.39 109.876
-163.329 -2.23724 -145.784
-164.291 28.2308 -130.761
-146.058 46.1511 -36.596
-159.107 33.3307 -111.501
-169.711 -19.6758 -81.0309
-160.977 48.6802 -112.356
-161.884 54.6649 -98.2753
-180.27 52.5449 161.888
-178.233 32.8602 164.199
-168.605 104.822 123.205
-175.715 76.0809 141.935
-170.142 11.845 88.2659
-174.517 45.1779 115.452
-165.803 39.1803 76.3834
-163.012 76.2171 0.292482
-163.511 81.0088 32.5795
-159.236 92.5758 80.9496
124.55 194.302 113.459
123.966 181.067 88.5951
117.394 208.963 146.181
122.474 203.179 130.968
162.305 152.443 121.812
147.013 177.448 128.413
165.932 157.219 137.763
44.4631 146.042 228.771
66.4239 169.259 218.736
132.227 132.569 220.807
104.323 149.544 223.18
113.878 110.424 240.101
85.2165 188.042 201.884
101.183 201.561 178.038
183.338 42.2817 166.148
182.432 68.0364 176.422
182.771 20.6049 189.762
181.348 131.886 148.925
183.866 107.742 160.299
182.602 114.622 141.547
160.619 68.7311 220.753
177.509 90.6899 191.134
160.306 110.422 206.921
137.56 181.25 169.41
152.875 147.212 192.072
167.137 156.834 158.093
-49.4208 99.9902 247.192
-0.036927 119.247 240.456
-114.487 66.708 254.019
-88.1314 81.9569 252.359
-0.303497 17.845 276.119
-47.5974 47.4059 262.64
-42.6487 4.06176 278.408
-173.743 1.26317 188.754
-172.182 12.6123 204.105
-130.415 -35.6272 246.574
-153.46 -13.9113 229.326
-144.065 -47.7019 222.92
-157.049 29.2746 226.297
-141.573 46.4049 243.825
2.8073 -106.028 276.528
-26.2118 -93.4085 275.955
-23.0165 -117.177 258.496
-33.9736 -36.9338 285.134
-27.7831 -65.4206 285.833
2.00678 -55.2973 295.179
-92.1648 -90.0185 250.654
-68.1261 -78.4348 271.941
-98.2313 -60.9517 263.42
-112.674 19.1988 261.889
-106.301 -23.9308 268.009
-78.1825 -9.93251 279.856
-173.133 -6.43073 137.171
-172.804 -3.658 170.359
-157.698 -14.4807 60.0203
-170.369 -10.0993 100.672
-152.786 -64.1784 131.368
-164.365 -36.6001 114.944
-150.178 -73.6018 88.6704
-160.062 -36.4333 -177.009
-164.104 -28.7606 -136.769
-141.072 -75.5935 -110.095
-159.005 -43.4609 -136.048
-150.813 -71.3063 -158.032
-161.93 -17.9855 -107.123
-159.29 -21.3626 -33.1806
-102.277 -169.062 22.0905
-116.2 -152.711 3.84257
-98.1178 -173.29 -19.3708
-137.908 -111.373 53.4916
-128.232 -133.092 27.5913
-129.448 -128.684 67.9978
-124.772 -119.718 -79.3523
-127.253 -133.651 -17.167
-133.103 -107.041 -52.4517
-153.431 -50.2289 9.99399
-142.426 -87.5037 -25.9265
-143.925 -85.6554 37.1095
-158.714 -3.08381 -227.046
-158.312 -23.0828 -209.789
-134.379 37.7864 -263.95
-151.461 16.5867 -244.972
-151.367 -62.6609 -237.775
-152.943 -21.8915 -244.892
-136.141 -41.7776 -263.029
-3.86969 97.9518 -278.955
-43.9211 88.4722 -286.708
-46.7562 25.318 -307.562
-45.2008 59.3026 -302.695
-2.87877 41.1711 -307.107
-76.8646 76.9485 -288.485
-104.8 61.8143 -281.234
-43.8434 -121.171 -264.201
-46.2949 -95.4181 -284.562
-0.823108 -105.643 -277.835
-108.375 -66.775 -280.721
-80.7806 -83.3421 -286.986
-104.876 -99.6882 -265.183
-1.61137 -39.014 -305.343
-46.2221 -59.9891 -298.599
-46.9203 -21.9832 -307.469
[...]
POINT_DATA 642
SCALARS Mean_Curvature double 1
LOOKUP_TABLE default
0.00642566
0.00600148
0.00675443
0.00907988
0.0272217
-0.00268251
0.00832263
0.00812338
-0.00204373
0.0100544
-0.000381388
-0.0168963
0.0109905
0.0116833
0.022368
0.0199242
0.00787316
0.0111578
0.0256249
0.0152223
-0.0125016
-0.00345231
0.00937642
0.00751164
0.0123686
0.00469194
0.0112124
0.00509114
0.00126489
0.0162419
-0.0130656
0.0173362
0.00763333
0.0150112
0.00822182
0.00823367
0.0476994
0.00775549
0.0203547
0.0157787
-0.00293355
-0.00334122
0.0080978
0.0442111
0.00732171
0.0246497
0.0164726
-0.00383511
0.0134952
0.00885495
0.00912621
0.0127644
0.0089112
0.0113018
0.0118087
0.00665165
0.00975874
0.00936629
0.00190212
-0.0185267
-0.0195781
0.0197564
0.0108582
0.0039003
0.0105651
0.0247147
-0.131699
0.0159458
0.0156503
0.0126909
0.00949537
0.0206259
-0.0138109
0.00438153
0.0757478
0.00706209
0.00591309
0.0300654
0.0099982
0.00565856
0.011217
0.00173667
0.0203519
0.0156695
0.00281823
0.000762916
0.0213689
0.0144655
0.026347
0.0150731
0.0132334
-0.000545605
0.00327974
0.014133
-0.0153049
0.00831684
0.00706507
0.0052976
0.0175991
0.0161797
0.0105781
0.0168178
0.0166329
0.00983975
0.00621479
0.0265548
0.0129149
0.107759
0.0106367
0.024093
0.0167216
0.00891709
0.00836431
0.00765691
0.0101705
0.0223782
0.00686134
0.00233347
0.00427288
0.00721182
0.00959697
0.00234764
0.0176267
0.00345506
0.0145335
0.0186651
-0.000767715
0.0116895
0.019484
0.0146885
0.0102789
0.0193835
0.0096354
0.00884854
0.00599921
0.00220868
0.00847604
0.00920719
0.0273589
0.0114624
0.0205451
0.0245073
0.0104479
0.00981585
0.00316752
0.00719474
0.013317
0.0130655
0.0138077
0.00133332
0.00728615
0.00824887
0.00973916
0.0276521
0.00684679
0.0147632
0.0070508
0.0108583
0.00982872
0.0051609
0.0412598
-0.0129764
0.00722538
0.00736649
0.01195
0.0306288
-0.0055286
0.00102006
0.0289096
0.00728232
0.032803
0.0608619
0.0663332
0.011065
0.00777488
0.0188061
0.0138635
-0.00254247
0.0314741
0.0381733
0.0147955
0.00961131
-0.000305263
0.0104469
0.0115513
0.0113149
0.0131078
0.0111041
0.0115051
0.0259647
0.00890853
0.0129226
0.0133497
0.00899137
0.0361455
0.00522433
0.00858962
0.011058
0.00864952
0.0144343
0.00883675
0.0182049
0.0127973
0.00931877
0.0129545
0.0195032
0.00938321
0.0122874
0.0111888
0.00987012
0.0069809
0.00844976
0.0296513
0.00803599
0.0290769
0.0381797
0.0364159
-0.000459459
0.00268641
0.000968028
0.00682512
0.00481918
0.00267408
0.00259242
0.0279244
0.0018814
0.00361445
0.0147264
-0.000462055
0.0128732
0.00292224
0.00904351
0.0159891
0.00727562
0.0168312
0.0120848
-0.00346476
0.00873008
0.000107106
-0.00390202
9.728e-05
-0.000466647
0.00275494
-0.00240386
-0.027456
-0.0191452
0.0111158
-0.00151882
0.02591
0.116932
-0.00953608
0.00830861
0.0220823
0.0198133
0.0207465
0.0140096
0.023023
0.0157711
0.00498155
0.00931186
0.00255261
0.00381177
0.0052659
0.00829208
0.0204699
0.0115549
0.0186763
0.016282
0.0143949
0.0129943
-0.0388838
-0.0293499
0.00133096
0.01622
0.00545706
0.00241118
0.0191231
-0.0172186
-0.0126401
0.0349913
0.0151705
0.0110937
0.000538878
-0.00324659
0.00855652
0.000913027
0.0113989
0.00622982
-0.00243057
0.0205434
0.0271965
-0.00524418
0.00862664
0.00748559
0.02432
0.0171232
0.00609455
0.00568237
0.0250072
-0.000857862
0.00796392
0.0142965
0.0128803
0.0166948
0.0113939
0.010482
-0.000432502
0.00963633
0.0121973
0.0389177
0.0189401
0.0175802
0.00899302
0.0177369
0.0111977
0.0121415
0.0129533
0.0235178
0.00200001
0.00154679
0.0174979
0.00582883
0.00423809
-0.00117658
0.00468996
0.0190851
0.014566
0.0117069
0.0152655
0.0115854
0.00288045
0.0168949
0.0245697
0.00965621
0.00924753
0.00437166
0.00940877
0.0271511
0.0150594
0.0151544
0.0137713
0.010471
0.0138919
0.0169913
0.00783905
0.00353826
0.00211405
0.0119501
0.00267183
0.00826014
0.00548581
0.0026433
0.0230935
-0.00203021
0.00444386
0.0052513
-0.0174265
-0.00540668
0.0051535
0.00788599
0.00679916
0.00816923
0.00629321
0.00937731
0.00255441
0.0108777
0.00267499
0.00205765
0.00408321
-0.00126693
0.0202367
-0.00230671
0.0125439
0.0140941
0.0242778
0.0168694
0.00755557
0.00807467
0.0113739
0.00620381
0.0145552
0.0100095
0.0165923
0.014076
0.00849822
0.0105519
0.0079738
0.0140678
0.0170052
0.0147617
0.00734698
0.00627863
0.00847772
0.0105602
0.0159361
0.0147519
0.0178116
0.00570134
0.0124626
0.0261598
0.0173133
0.0250434
0.0202177
-0.00774929
-0.0221924
0.0242764
-0.0256762
0.0883607
0.000823751
0.0080684
0.000154433
0.015108
0.00498174
0.0234797
0.0258126
0.0249113
0.00460144
0.0117061
0.00478642
0.0107925
0.0102183
0.0234558
0.00833022
0.010219
0.00601503
0.0064808
0.00625813
0.00604639
0.00956251
0.00817673
0.00835357
0.0216598
0.00585083
0.00725179
0.0119228
0.00895392
0.0194521
0.00739982
0.0072635
0.00386998
0.0107422
0.00706059
0.0112841
0.00623009
0.00694416
0.00540736
0.0139704
0.0130079
0.0124606
0.00425266
0.00777825
0.00542991
0.00136792
0.0124456
0.00692429
0.00892267
0.0247699
0.00832431
0.0176174
0.00615702
0.0133668
0.00775725
0.00581999
0.00496954
0.00929676
0.00710633
0.0108139
0.000858008
0.00306202
0.017147
0.010263
0.0251935
0.0076697
0.0116198
0.00872148
0.00553067
0.00584652
0.0158811
0.0071781
0.00718426
0.0139552
0.00449818
0.0112173
0.0173559
0.0142204
0.00439569
0.00378036
0.0153477
0.0127886
0.00538057
0.00326183
0.0178962
0.0171931
-0.000580698
0.0155858
0.0115256
-0.0048346
-0.0229096
0.0402427
-0.0170877
0.032073
0.0133056
0.0197453
0.0172659
0.00711088
0.00884702
0.00806459
0.00789167
0.00633862
0.0068825
-0.00877395
0.0106221
0.0186541
0.0210366
0.0161125
0.0151972
0.0140123
0.0291024
0.00823242
0.0218733
0.000186062
0.00201437
0.00878142
0.00378678
0.0262102
0.0366858
0.033026
0.0101727
0.032337
0.00488571
0.00957769
0.00738465
0.0133091
0.0117091
0.0036534
0.0023706
0.0241365
0.0212076
0.0582525
-0.0252388
0.0112617
-0.00760635
0.00957595
0.00329932
0.00833513
0.00884699
0.000968065
-0.00267438
0.0101923
0.00149618
0.00184425
-0.00315128
0.0117896
0.0145613
0.0131399
0.0148214
0.000580045
0.0243436
0.00546797
0.0103384
0.0149406
0.0182275
0.00187601
0.00304831
-0.00154838
0.00449888
0.0156749
0.0211546
0.0144108
0.0175922
0.0127299
0.00699221
0.00669192
0.0072723
0.00709596
0.0124165
0.0124659
0.0140943
0.00632713
0.00487471
0.0082347
0.00401181
0.00388911
0.0140055
0.0129187
0.00548736
0.0109516
0.00512715
0.0199355
0.0113031
0.0404331
0.0192759
0.021401
0.0057427
0.00471964
0.00533032
0.0106607
-0.0216262
0.0136644
0.0236832
0.0189927
0.013724
0.00731662
0.00482092
0.00796811
0.022182
0.0170157
0.0148979
0.0134151
0.0135575
0.0152564
0.0123269
0.00969193
0.00399447
0.0125546
0.0208247
0.00619566
0.0208524
0.0169361
0.00806968
0.0104025
0.0100531
0.00601631
0.0101535
0.00246196
0.00039413
0.0105553
0.0167991
0.00220125
0.0157333
0.0181042
-0.0133099
-0.000393358
-0.0129582
-0.00822686
0.00624271
0.0151573
0.0384389
-0.031751
-0.00453185
0.0250346
0.0098509
SCALARS CoVolArea double 1
LOOKUP_TABLE default
664.776
724.111
791.016
688.609
574.048
1335.8
999.002
1082.01
993.251
508.651
891.487
334.776
490.89
1184.37
934.418
1041.57
961.527
657.806
459.285
1062.94
1994.14
2922.71
1368.88
488.603
1051.41
1603.01
1256.5
1294.16
1938.89
1119.14
2012.59
1006.71
1294.97
986.107
1330.51
1339.79
358.206
1560.99
1393.35
1025.35
2641.37
3163.61
963.681
580.623
623.405
831.316
1111.85
385.14
1163.35
1427.4
1435.27
551.271
767.138
1260.87
1107.77
918.259
633.87
615.402
1410.22
6638.58
4375.78
2067.81
745.967
1722.88
823.032
551.039
704.238
1011.48
691.424
800.392
725.42
695.034
2823.87
793.591
940.534
1451.32
1043.52
730.343
864.126
1473.62
1337.65
869.685
988.156
1169.33
1611.03
2684.54
807.424
1232.19
846.514
1268.21
1088.59
1712.2
1041.03
631.107
2491.77
909.624
1325.04
1438.16
1237.79
699.478
1487.16
1305.94
1045.38
1447.98
1707.82
614.666
1110.41
1204.48
676.758
720.423
555.953
722.996
1007.55
1416.82
1139.12
696.349
1144.64
1081.42
1216.96
1222.85
1212.09
1300.03
787.849
1205.76
1199.42
747.375
1281.22
1084.75
811.201
829.797
1032.79
758.294
1622.19
1891.69
1226.34
1973.88
981.368
1179.76
713.66
505.07
356.515
684.208
1144.8
941.241
2227.35
1487
1099.58
1261.39
1181.2
1676.98
1377.94
1103.26
954.441
635.496
1688.12
529.061
1580.98
1509.35
1488.31
1320.75
863.841
2653.96
918.452
774.351
680.499
417.661
570.503
682.745
505.073
491.396
826.843
393.615
384.885
229.437
1315.4
907.888
1063.21
541.431
542.77
552.95
1219.99
1331.35
1709.63
1284.14
1242.86
1127.76
1151.86
1270.23
1356.46
999.308
1549.15
1328.6
677.347
700.22
591.628
529.72
799.283
642.344
804.553
1280.55
1182.65
1081.4
1213.96
1224.24
1164.79
1002.19
708.959
735.729
678.373
867.071
764.852
892.511
583.944
589.155
683.523
757.489
802.824
726.668
2995.58
3037.01
1412.43
1603.41
2485.34
3736.1
957.042
2724.46
2227.52
1794.65
3356.64
1812.48
2034.48
1351.55
1029.13
1020.75
1163.41
873.094
1080.84
549.461
683.945
1244.53
1337.71
1757.51
2163.5
1840.98
3784.45
1369.48
573.403
2569.02
1508.23
542.062
740.283
1113.53
844.572
906.713
825.944
1007.45
580.183
509.187
988.114
747.935
725.115
974.816
795.348
877.18
861.834
658.217
794.716
660.315
785.31
805.734
895.843
4709.16
2010.41
1075.36
954.116
1141.71
814.612
4428.7
1568.22
2494.31
470.751
2177.95
736.084
778.849
924.593
975.412
1179.03
1177.98
2859.37
2572.04
1980.94
1250.34
715.221
875.575
958.048
552.827
673.494
591.25
509.975
1812.36
1402.78
1242.28
1207.68
1153.23
1286.75
1339.94
1038.44
951.084
770.458
523.732
669.592
428.854
1347.07
1085.4
1272
1348.84
1373.31
996.142
2197.01
2371.67
1281.04
1530.24
2207.14
2144.34
1747.4
582.865
909.857
1147.23
1057.84
934.358
1122.11
1211.39
799.934
1081
954.989
1350.1
1085.68
992.515
957.741
1154
1127.28
1463.64
1330.89
1532.89
1160.26
821.308
1569.22
1067
1259.65
1228.05
1469.24
983.631
720.711
2038.28
1143.22
876.778
835.121
1526.42
981.767
998.034
1034.3
1206.55
942.171
1016.47
1677.41
1202.39
1560.2
2697.61
2604.51
1977.18
703.824
753.794
1227.82
931.541
891.95
949.581
1293.72
1434.96
1212.15
1623.14
1266.3
1593.06
1089.35
1240.55
1191.43
1397.17
1447.16
1326.47
1208.07
1040.1
1796.54
1546.75
1739.24
1446.97
1561.71
1488.76
959.053
1400.36
486.014
535.797
943.203
787.637
907.498
1892.91
4298.17
666.762
1260.87
998.175
2391.03
621.778
804.798
557.681
1050.42
776.11
517.028
834.579
899.333
533.032
784.607
613.478
699.261
709.439
927.046
1066.96
1017.98
1433.75
1160.5
1155.41
1118.52
1108.29
1352.75
533.079
719.857
673.411
958.428
788.987
817.503
1204.35
1061.36
1391.89
898.014
1199.33
929.175
1397.33
1245.6
1313.29
1064.43
1090.87
1045.11
1569.84
1319.47
1559.23
1100.18
861.142
1391.78
1253.83
507.38
916.545
649.702
921.41
1061.02
1342.69
1188.4
1329.06
1139.53
1328.05
897.894
1042.29
1035.13
640.351
852.622
459.768
1104.17
1192.07
1338.94
1487.56
1474.11
1252.81
844.354
820.963
678.471
778.147
1087.34
771.705
952.086
945.535
922.115
976.745
837.436
1617.76
758.382
633.143
996.339
2053.5
1052.84
1727.55
3030.3
1908.41
785.037
2541.64
1206.27
845.156
928.355
931.113
961.113
872.883
1506.22
1464.93
1836.58
1781.53
2422.06
1210.92
989.785
923.947
955.341
1047.22
992.321
1036.82
901.891
428.96
763.487
1301.86
345.392
1503.52
824.676
390.115
689.077
1021.64
598.617
1165.61
867.528
1864.19
825.111
918.708
1272.98
1254.71
694.851
1512.77
730.219
2789.42
1267.85
2835.72
1086.2
1012.76
1260.65
1184.5
1276.61
1205.92
1684.07
2528.07
2373.75
1764.19
1052.84
1117.46
1240.8
1075.42
1431.79
876.133
1516.59
1225.93
907.535
995.948
2307.48
1925.47
2323.56
1628.49
1460.15
1159.08
1429.38
1466.11
965.023
1376.32
1091.87
1056.93
1336.8
1087.44
980.9
935.025
1123.01
1363.83
720.755
1256.54
889.309
758.523
952.638
1444.89
1151
1369.35
884.199
1125.71
570.475
846.413
900.71
1292.33
1376.12
1817.02
1779.03
2424.19
625.033
754.191
556.046
508.232
776.876
1154.03
833.169
642.748
953.403
1286.38
1191.44
1180.51
1273.71
1489.83
1832.47
1620.13
1234
1195.83
1533.35
1167.13
1172.76
1504.74
1784.25
1741.13
1900.73
1745.8
1221.95
2553.09
1033.8
788.083
798.212
936.492
2732.74
594.658
1707.85
4168.49
845.34
990.049
919.445
1297.74
4657.87
1810.06
3053.21
1405.65
SCALARS SignedDistance double 1
LOOKUP_TABLE default
76.2069
75.2106
68.613
65.2693
54.9778
56.2844
56.5467
60.8251
68.7156
67.811
71.4296
72.9812
73.0946
49.3651
59.0628
57.1508
75.6159
76.487
82.2264
56.1959
89.1244
80.2337
50.0428
70.3561
56.3138
53.092
88.322
73.2727
46.8219
53.4253
81.6868
50.3607
71.9699
53.7857
61.1958
62.8051
61.3988
86.1182
70.8229
50.693
80.1334
80.7088
74.0692
69.9597
67.44
63.679
67.4492
74.3425
48.4713
50.5601
53.5153
67.7014
76.131
48.762
54.8799
75.0471
67.2147
66.7987
106.494
104.689
107.63
107.461
75.4729
88.8184
74.7173
82.9973
134.277
53.0243
70.3566
76.3087
71.5911
68.3716
80.9561
88.2088
125.994
79.2654
73.7109
65.9763
72.1761
53.6675
48.6294
68.0456
60.761
60.7396
55.6721
54.6749
67.0376
51.3605
47.1459
49.0346
52.6011
80.0753
71.0663
74.2312
98.0738
71.9016
75.3573
71.5902
53.9704
69.7096
47.4403
44.0716
49.3512
45.8488
46.9377
69.8631
54.4904
124.066
76.144
67.814
70.3394
72.3823
67.2091
64.5988
62.6614
63.7026
63.5839
69.3062
59.3793
59.9969
52.6391
64.0285
62.2249
61.0516
61.6132
64.863
66.1649
65.5138
60.5836
63.7767
66.6985
62.8357
70.9528
60.5007
72.8379
85.6162
67.5861
51.0665
75.217
70.9826
71.0392
67.9057
73.8134
84.2517
97.5532
73.1973
74.8712
49.5053
49.087
55.58
67.0632
61.8089
69.4103
71.4801
84.9659
70.8779
49.7726
48.6939
48.2462
74.5064
120.6
79.44
75.7241
70.2486
72.7747
71.5568
69.3418
71.7754
65.9378
67.3143
66.0245
73.7666
75.8382
74.6587
53.6236
62.6695
51.5687
71.9513
74.6853
72.9074
52.9017
53.2125
54.7849
50.7107
49.0114
48.7783
50.277
50.6583
49.653
67.3535
53.3671
56.7558
72.0239
75.9174
66.347
66.5521
76.4503
71.3816
71.481
52.9405
48.7733
54.879
48.4625
49.4015
48.4983
54.9675
75.509
70.9862
71.5554
70.3049
70.5969
75.1414
64.7115
66.4687
65.8015
67.0134
66.4463
66.7636
79.703
79.7707
81.3069
80.7542
84.7059
115.463
99.478
79.7337
79.206
95.9949
106.895
83.3359
78.3489
81.7311
70.851
75.0058
71.1409
88.1488
77.3564
77.1282
75.1457
76.0344
80.5703
105.753
108.484
108.354
138.151
83.7964
78.9901
84.772
132.071
116.46
95.5925
57.6587
67.723
64.0464
62.6002
51.6611
72.8723
75.1525
72.0757
70.2084
70.3682
76.5924
72.0109
82.6192
64.6087
69.4847
68.1245
75.7544
70.4955
77.0463
85.3854
110.189
110.287
78.3374
76.1518
77.0418
85.303
107.795
91.7796
115.32
97.3926
109.054
74.5513
74.4806
74.4544
73.4042
80.6046
75.1202
81.5199
115.978
103.545
82.5428
68.8278
74.0882
62.0661
65.8731
69.8023
67.1552
68.2861
54.6648
53.4959
47.4756
51.4911
50.6958
48.5687
49.2077
67.3556
69.7608
66.7137
70.296
68.0932
71.06
51.9612
61.5389
51.6658
53.7734
49.2735
62.8622
54.6138
54.4232
50.3262
54.3552
55.4466
56.6849
54.8893
71.2089
67.5291
53.7872
56.6362
60.5589
56.4418
51.9281
50.0158
49.741
54.038
52.3557
51.2051
52.6523
53.1869
48.7277
50.4799
50.9063
49.7718
51.475
71.2861
70.7182
81.4843
78.9638
73.4615
76.5935
75.9214
72.0479
80.9233
91.1699
78.9479
76.4199
93.1659
97.0008
68.9049
70.6045
69.0888
76.3931
72.547
71.7622
87.7899
72.6912
82.7453
79.3326
76.7143
76.8115
70.5755
70.2076
52.6294
62.9843
62.9743
64.4908
53.347
52.57
50.2572
47.0129
46.1627
46.5395
45.9558
47.3596
53.6858
47.8809
49.4269
45.197
44.7172
48.9266
46.3748
47.9086
46.9097
47.1433
45.5147
46.9759
68.3018
57.2595
73.7726
74.0831
48.7763
62.3166
60.4191
80.6911
109.821
85.7193
101.749
117.995
80.5479
73.4644
68.1538
69.5703
70
64.6063
68.4296
59.2594
74.2211
70.6365
72.219
72.5218
72.6214
70.1056
65.4718
64.6157
64.5027
68.7316
66.8176
69.8002
62.3731
63.9377
61.9348
66.6997
67.1784
67.5156
61.777
64.5323
57.8494
67.1651
66.2119
66.2311
58.6843
56.9951
53.4275
61.3044
59.6141
61.2639
51.9178
56.8234
58.2002
65.2474
61.4973
63.3741
64.7801
64.1165
63.9161
63.685
61.3393
62.7906
61.8651
59.183
59.346
61.438
61.9156
62.2127
61.0393
61.2885
67.7262
66.8552
67.4972
62.6023
64.2868
62.4277
64.8854
65.3517
64.1779
63.9419
64.1837
64.4061
62.3123
64.3133
61.3728
60.8986
61.2298
60.4053
58.6484
67.872
66.0037
61.1042
64.3584
65.294
63.2879
61.9759
65.1047
69.6669
65.4024
61.7629
79.0911
83.5686
88.74
86.529
69.1608
62.1207
58.2752
57.8736
66.127
65.8822
82.5193
64.7029
71.2226
67.7288
81.3187
53.618
61.6831
61.8625
62.2969
48.8458
74.6318
86.0639
69.7676
70.3564
68.1344
70.9362
70.6405
71.3233
60.4641
70.9776
68.2505
79.7857
73.0185
73.1731
67.2241
72.6051
69.3105
69.8004
73.5972
73.4117
77.5233
83.6636
87.7577
95.6777
77.2018
84.8773
72.6308
68.6147
72.7375
73.1503
76.2331
75.1495
76.9251
75.7648
76.4964
75.866
49.4428
48.6798
48.2735
50.7823
51.9367
61.8402
50.608
53.5657
54.4538
49.9934
54.4855
54.2286
56.5547
54.4853
50.5573
46.9463
50.0286
52.9077
68.3874
64.6356
66.3602
68.6941
70.5827
58.2042
59.229
58.3834
61.7143
63.2829
70.041
70.4559
71.011
68.6089
63.1906
65.1237
64.9806
67.6879
63.131
77.6674
74.6838
59.9761
62.2591
69.2326
85.0697
82.0644
72.0203
84.8075
71.3626
67.6617
69.2012
72.5962
74.5696
73.3529
73.6376
71.3523
67.3888
49.7436
59.0937
59.0275
49.7198
47.7285
46.3233
47.9977
46.7535
43.7196
49.9088
43.731
48.1155
47.0303
46.6092
44.9879
46.2376
45.0057
69.1051
75.5617
75.3396
71.7323
71.5047
79.3067
100.118
87.4425
90.6564
105.946
84.1781
73.7586
76.9681
102.176
121.078
95.3638
110.274
77.3062
