# vtk DataFile Version 4.2
vtk output
ASCII
DATASET POLYDATA
POINTS 642 double
-191.741 318.893 17.0588
194.67 320.772 16.3755
-186.346 -315.871 -1.27111
191.516 -320.191 -1.87252
0.674968 -209.911 350.287
0.031089 216.142 341.238
-0.232246 -210.408 -350.409
-0.912041 208.119 -349.687
327.385 -0.215064 -217.368
331.073 0.157914 213.627
-322.462 -1.09688 -216.704
-328.597 4.01923 210.199
-310.715 196.274 127.702
-201.976 124.759 329.417
-122.9 328.003 204.649
124.233 328.358 205.138
-0.185441 378.75 16.5054
120.847 301.157 -204.909
-116.77 299.253 -202.576
-201.876 123.842 -336.347
-287.667 178.396 -132.265
-344.056 -0.925533 8.06506
202.69 126.412 329.929
315.256 198.492 129.103
-197.672 -121.628 328.945
0.23214 -4.77444 410.013
-292.161 -178.761 -133.684
-289.382 -179.083 122.452
-0.506067 0.362909 -419.345
-203.29 -125.698 -337.292
294.601 181.764 -136.307
205.616 126.173 -339.146
295.015 -182.201 122.478
201.492 -122.392 332.403
115.733 -304.637 195.329
-113.82 -302.526 194.722
0.548806 -387.355 -1.17378
-115.73 -301.285 -197.761
115.444 -305.663 -196.326
205.614 -126.188 -339.15
289.362 -177.691 -131.971
350.297 0.278231 7.38868
-259.609 268.802 75.3443
-230.882 275.096 170.987
-168.74 341.926 110.101
-279.354 64.882 280.88
-271.567 168.924 237.756
-335.425 100.863 175.903
-64.4443 284.175 286.822
-169.993 238.277 279.804
-106.376 176.334 348.678
-64.4542 381.403 111.812
-101.477 364.057 16.6986
64.9996 284.037 286.866
-0.0087838 346.024 216.413
102.879 364.036 16.2796
64.5982 381.104 111.908
170.74 343.081 110.13
-52.2397 334.456 -90.6988
-149.796 293.482 -95.5397
154.563 301.805 -98.1732
54.1861 334.654 -89.9686
-64.7811 268.148 -284.609
-0.368734 311.045 -211.039
66.9327 268.17 -284.144
-216.993 251.812 -173.985
-247.541 244.879 -52.5494
-106.001 174.81 -359.353
-167.011 229.098 -280.664
-317.072 95.1871 -178.739
-266.326 163.054 -239.303
-277.757 62.2925 -284.486
-302.594 193.864 19.9894
-343.941 -0.679068 -112.54
-333.921 96.3161 -70.0573
-342.993 101.403 77.539
-347.511 7.45175 118.498
234.208 276.756 173.094
263.822 271.53 74.8218
107.836 177.301 349.849
172.522 239.669 281.737
334.715 105.625 176.118
274.879 172.09 239.445
279.161 64.0038 281.39
-107.969 63.8845 386.083
-0.0338156 107.37 383.531
-274.906 -60.7424 279.253
-211.795 0.226219 346.765
0.674945 -113.083 400.312
-106.523 -67.0629 391.37
-102.627 -172.925 352.868
-333.599 -89.6411 70.3217
-319.762 -91.6221 176.759
-320.743 -98.5874 -180.653
-326.556 -90.5747 -74.0028
-246.536 -256.763 61.0466
-295.831 -189.945 1.69748
-243.906 -256.732 -59.3491
-215.614 -0.265659 -357.078
-278.769 -63.6194 -284.917
-1.04812 112.175 -402.971
-109.815 67.4154 -402.096
-107.136 -176.849 -360.287
-110.177 -67.204 -401.152
-0.491998 -112.409 -401.592
170.72 232.029 -283.077
108.824 176.055 -359.825
251.537 244.693 -53.7241
222.68 255.585 -177.784
282.721 65.6272 -287.064
273.329 167.081 -242.059
326.563 99.7612 -182.622
251.215 -260.255 60.3213
217.519 -256.077 165.989
159.805 -323.082 97.725
279.273 -62.5518 283.174
265.649 -160.021 238.243
323.654 -92.8876 178.879
60.9806 -266.765 283.097
165.313 -225.981 278.151
103.654 -173.206 353.956
59.6957 -359.496 96.3241
100.704 -368.551 -2.08609
-60.3648 -266.174 282.798
0.711249 -321.94 206.805
-97.9595 -366.621 -1.72343
-57.9539 -358.191 95.9555
-156.765 -320.032 97.3784
61.2199 -366.638 -101.424
159.862 -328.718 -98.8867
-155.785 -324.793 -98.6087
-59.1671 -365.417 -101.149
65.5854 -268.442 -287.837
0.42366 -326.243 -202.517
-66.7249 -269.681 -287.884
217.762 -251.529 -171.516
249.909 -261.762 -59.7141
107.899 -176.176 -359.881
170.574 -231.67 -283.467
326.518 -99.6846 -184.269
274.089 -167.222 -241.785
282.775 -65.6613 -287.022
302.563 -194.293 0.680477
349.627 0.0826016 -114.251
331.814 -89.8215 -71.0625
340.327 -93.3397 70.2741
352.937 3.04366 114.824
108.503 -66.9204 393.353
214.053 -1.65413 350.601
109.483 63.0092 387.549
-214.103 -252.754 165.53
-163.061 -225.059 276.79
-261.671 -158.933 234.754
-169.23 -232.216 -282.92
-219.627 -252.98 -177.241
-270.043 -166.364 -240.399
216.26 0.00264524 -355.551
110.803 -68.2074 -400.918
110.715 68.243 -400.936
347.661 103.754 75.9734
339.969 97.4016 -70.9928
307.617 196.894 18.0961
-227.207 297.367 45.5128
-218.281 308.675 93.9838
-182.573 333.231 63.2515
-276.084 238.794 149.782
-251.268 277.199 123.404
-287.865 235.289 102.429
-148.646 339.937 156.616
-203.08 313.251 142.189
-179.493 305.41 190.022
-308.618 33.9263 247.712
-311.191 84.2042 230.258
-336.828 52.6655 194.841
-240.414 148.753 287.289
-278.034 118.067 262.432
-243.653 95.4056 308.528
-324.809 150.147 152.108
-306.149 136.348 207.775
-295.337 184.613 181.944
-32.3963 252.48 318.389
-86.2345 233.554 320.88
-53.6026 198.157 346.864
-147.871 287.223 245.32
-118.981 264.327 285.617
-94.6892 309.526 248.705
-155.599 151.892 342.958
-140.088 209.576 317.806
-188.19 183.343 308.304
-254.252 224.879 207.214
-224.574 206.288 262.354
-203.453 260.364 228.995
-135.756 358.541 63.9843
-148.791 344.616 16.6412
-95.2285 360.516 158.419
-117.577 365.763 112.379
-52.1503 375.684 16.6637
-83.6319 376.701 64.6861
-32.3409 385.558 64.636
32.654 252.421 318.407
0.00170059 288.068 290.082
63.2731 341.898 213.824
33.0683 319.517 254.393
95.6439 309.592 248.941
-32.9719 319.531 254.39
-62.9661 341.99 213.802
151.129 345.53 15.8884
137.573 359.128 63.7648
185.251 334.804 62.9508
32.0702 385.219 64.671
84.32 376.418 64.643
52.2557 375.367 16.3923
150.043 340.371 157.119
118.656 365.872 112.429
95.8281 360.418 158.56
-33.2367 370.259 164.286
33.244 370.231 164.322
-0.114271 386.308 113.156
-129.036 338.783 -25.7011
-171.076 316.586 -25.5567
-29.525 363.631 -29.6331
-77.8484 355.931 -26.7405
-137.114 299.903 -163.531
-100.342 313.009 -93.4514
-86.8925 317.069 -162.197
172.335 318.789 -29.1316
132.212 338.817 -28.8176
90.2263 316.235 -162.239
107.054 312.838 -93.5136
141.524 301.12 -163.401
79.2682 355.717 -27.697
29.6637 363.793 -29.9117
-33.7046 240.36 -319.931
-0.230863 270.059 -286.194
33.922 240.064 -318.82
-61.7468 309.771 -209.38
-33.5245 295.093 -248.007
-92.7286 288.873 -244.605
96.0275 290.706 -245.654
34.2978 294.734 -247.726
63.97 308.868 -210.398
-0.160071 341.578 -91.2308
31.1162 323.289 -160.549
-31.8235 324.878 -160.955
-198.553 270.395 -73.6413
-220.202 286.886 -8.74464
-169.464 279.666 -190.642
-187.203 276.629 -149.328
-264.932 219.346 -98.3543
-234.208 245.723 -124.958
-256.91 218.481 -152.789
-54.2328 193.934 -358.498
-86.4885 225.665 -325.719
-186.607 179.56 -312.632
-139.128 204.541 -323.013
-155.657 151.191 -351.926
-117.199 252.064 -285.555
-143.545 270.485 -243.185
-322.886 48.0348 -200.385
-305.31 81.6179 -233.471
-305.392 30.1188 -251.037
-281.103 172.983 -186.296
-296.275 130.708 -211.235
-306.349 138.152 -154.826
-242.923 93.9419 -313.466
-274.854 115.309 -264.375
-238.218 145.676 -290.258
-197.037 246.248 -228.611
-220.521 199.151 -263.187
-244.591 212.294 -208.6
-254.208 263.496 16.6423
-280.509 180.334 -56.2098
-272.667 227.693 -15.5657
-285.339 232.669 46.9046
-310.069 197.941 74.6912
-331.336 -1.2568 -167.325
-334.134 48.5867 -146.376
-331.578 47.5027 -34.8681
-341.766 47.7435 -96.41
-343.248 -2.79058 -64.6575
-329.598 95.3046 -122.902
-318.069 131.33 -100.926
-350.623 54.3689 150.56
-345.875 7.11466 167.096
-331.9 149.517 104.26
-343.095 102.114 128.267
-350.712 4.177 65.3972
-349.326 54.295 99.8989
-347.389 51.4163 47.8158
-319.943 136.401 -22.6237
-336.169 101.46 11.2032
-328.182 150.147 47.0048
221.368 310.88 93.6823
230.84 299.748 45.1871
181.82 306.475 191.37
205.17 314.252 142.965
292.295 237.644 102.877
254.57 278.923 124.242
279.965 240.8 151.86
54.4494 198.124 346.832
87.5849 233.596 321.458
190.24 185.53 310.064
141.988 210.709 319.5
156.524 153.622 343.994
120.72 264.642 286.536
149.952 287.942 246.429
334.509 52.1893 197.007
311.352 86.2439 230.352
308.731 31.2221 248.58
299.873 187.675 184.005
308.93 140.095 208.723
329.201 153.851 153.308
243.882 96.1201 308.679
279.361 120.829 262.867
242.363 151.558 288.501
206.566 262.109 230.947
227.686 208.757 264.561
258.272 227.487 209.472
-55.9388 144.134 369.586
0.00400481 163.947 363.503
-157.431 97.028 362.64
-109.823 121.376 370.807
-0.0682246 50.2114 400.601
-55.9218 84.8488 387.982
-54.6292 29.3375 402.49
-304.945 -28.3009 246.38
-280.306 2.13924 283.342
-207.624 -61.9825 342.465
-246.049 -31.2379 317.001
-238.942 -91.7228 306.785
-247.553 33.8185 317.221
-210.233 63.6945 342.24
0.660321 -164.487 379.187
-51.2598 -145.091 381.166
-49.7512 -193.431 354.576
-52.7567 -36.3352 405.647
-52.0384 -90.6777 399.065
0.577128 -60.1805 412.079
-152.017 -149.012 344.538
-106.204 -121.588 376.623
-154.914 -96.2508 365.18
-162.089 32.4655 372.226
-161.567 -33.9656 374.534
-108.822 -1.96246 395.764
-337.59 -41.6342 148.594
-328.063 -44.4833 195.4
-343.491 -42.7631 41.6034
-345.736 -42.8552 93.4915
-305.418 -135.648 152.091
-328.895 -91.1087 123.965
-315.31 -136.389 97.0443
-324.433 -50.7878 -200.66
-334.265 -50.4768 -148.083
-314.023 -138.445 -105.719
-328.19 -96.3568 -129.985
-309.571 -141.68 -158.592
-342.508 -44.8874 -96.4483
-340.221 -42.0687 -36.1154
-218.164 -287.317 30.109
-247.871 -258.969 0.727343
-217.16 -288.741 -30.3302
-295.235 -187.245 61.9343
-274.016 -224.327 31.9786
-269.289 -220.245 90.8672
-268.009 -215.471 -97.8639
-273.371 -224.484 -29.3258
-293.428 -184.146 -64.4552
-330.982 -92.37 4.01107
-314.864 -142.895 -34.1472
-316.374 -142.446 35.6573
-282.942 -0.551974 -290.049
-306.248 -31.6823 -251.148
-211.65 62.9662 -350.993
-249.301 31.7891 -323.89
-244.241 -95.4636 -314.176
-250.007 -32.644 -324.353
-212.123 -63.5291 -351.013
-1.0203 163.075 -380.001
-55.7574 145.689 -387.233
-57.182 34.8045 -417.222
-56.7661 90.7134 -407.689
-0.790846 57.8778 -416.381
-109.693 123.003 -385.268
-158.731 97.7667 -374.352
-54.9681 -195.887 -359.133
-56.2697 -146.782 -386.657
-0.35875 -164.363 -379.674
-159.387 -98.5153 -374.317
-110.392 -124.108 -385.027
-156.966 -153.167 -352.95
-0.463659 -57.2263 -415.464
-56.9118 -90.5761 -406.26
[...]
POINT_DATA 642
SCALARS Mean_Curvature double 1
LOOKUP_TABLE default
0.00701401
0.00697179
0.00595075
0.00642307
0.00855011
0.00529577
0.004585
0.00512066
0.00710243
0.00933905
0.00916559
0.0057569
0.00929519
0.00554879
0.00523624
0.00518001
0.00494943
0.00860375
0.00721291
0.00576402
0.00397751
0.00225763
0.00525408
0.00887246
0.00563082
0.00535062
0.00468288
0.00384339
0.00315378
0.0059045
0.00371891
0.00612943
0.00425325
0.00583956
0.00439802
0.00420815
0.00875149
-0.000706303
0.00207074
0.00612091
-0.00101473
0.00256793
0.00492884
0.0045494
0.00749768
0.00598822
0.00513609
0.0085877
0.00580512
0.00515865
0.00527622
0.00878696
0.00645343
0.00536526
0.00475329
0.00598035
0.00849629
0.0076021
0.00114158
-0.00346344
0.00425719
0.000694633
0.00607272
0.00413911
0.00486465
0.00659226
0.0020944
0.00594198
0.00552741
0.00372986
0.0072879
0.0052818
0.00379459
0.00691612
0.00778824
0.00405615
0.000917221
0.00493418
0.00544677
0.00597106
0.0054752
0.00725883
0.0057076
0.00427423
0.00478477
0.0022067
0.00569966
0.00565282
0.00739078
0.00573104
0.00553585
0.00354303
0.00649817
0.00622387
-0.00217648
0.00598389
0.00450354
0.0040876
0.00682961
0.0048661
0.0049931
0.00603564
0.00613295
0.00537481
0.00402343
0.0055609
0.00656091
-0.000244312
0.00766934
0.00603071
0.00675804
0.0070549
0.00480087
0.0040084
0.00475149
0.00596326
0.0062319
0.00529511
0.00473185
0.0057251
0.00502176
0.0036459
0.00683251
0.00505184
0.00574927
0.00727101
0.00346633
0.00486091
0.00628182
0.00614086
0.00574085
0.00646354
0.00737063
0.00498079
0.00745439
-0.00016647
0.00478524
0.00555504
0.00593055
0.00819614
0.00684208
0.00593438
0.00527528
0.00712162
-0.00117073
0.00508502
0.00484601
0.00549776
0.00611872
0.00504676
0.00376953
0.00593246
0.00601043
0.00570428
0.00521107
0.00706613
0.00441385
0.00602431
0.00594071
0.0042464
0.00729447
0.00397438
0.00572465
0.00593832
0.00562373
0.00721194
0.00905406
0.00684647
0.00609554
0.00821636
0.00484506
0.00673192
0.00499134
0.00773703
0.00532021
0.00532567
0.00583921
0.00665519
0.00452516
0.00427923
0.00603688
0.00502492
0.00410891
0.00539702
0.00535617
0.00572996
0.00533065
0.00502945
0.00526146
0.004746
0.00524442
0.00516427
0.00597517
0.00636969
0.00597632
0.00785557
0.00642803
0.00599273
0.00630574
0.00585722
0.00495694
0.00543293
0.0060467
0.00541431
0.00610803
0.00569263
0.00612
0.00594541
0.00573801
0.00595848
0.00559096
0.00594902
0.00576848
0.00756243
0.00568848
0.0056988
0.00570734
0.00756577
0.00520815
0.00492252
0.00446493
0.00451335
0.00605739
-0.00674057
0.00680328
0.00515016
0.00532349
0.00541124
-0.00846337
0.00440051
0.00402959
0.00466487
0.00477768
0.00399197
0.00344861
0.00681286
0.00592458
0.00737414
0.00846955
0.00513814
0.00580315
0.00250282
0.00201288
0.00388005
-0.00519519
0.00406548
0.0074602
0.00601554
0.00863291
0.00507562
0.00604013
0.00593606
0.00594897
0.00556763
0.00580907
0.00592364
0.0057019
0.00676977
0.00604582
0.00809226
0.0061464
0.00562669
0.00725316
0.00425747
0.00558015
0.00582441
0.00559831
0.00729688
0.00586306
0.00671614
0.00526434
-0.00982548
0.00587443
0.00551524
0.00567804
0.000395269
0.00390687
-0.007824
0.00721076
0.00444647
0.00633588
0.00591267
0.0114746
0.0103995
0.00652738
0.00574256
0.00607936
0.00342404
0.0036548
0.00236554
0.00428484
0.00539262
0.00636642
0.00594245
0.00501376
0.0072259
0.00661835
0.0081346
0.00706989
0.00361109
0.00482366
0.00574916
0.00543449
0.0055236
0.00520725
0.00534147
0.00670332
0.0044787
0.00445628
0.00515394
0.00538148
0.00819757
0.00471262
0.00520351
0.00574809
0.00537461
0.0057012
0.00526074
0.00350698
0.00224121
0.00574277
0.00581033
0.00388273
0.00243536
0.00547331
0.00539027
0.0044714
0.00563548
0.00577221
0.0053802
0.00539147
0.00583918
0.00742938
0.00517207
0.00513664
0.00404208
0.00494299
0.00921256
0.00591042
0.00567023
0.00578519
0.00460517
0.00593996
0.0064547
0.00219406
0.00766059
0.00306253
0.00681162
0.00297161
0.00380095
0.00406467
0.00623567
0.00369697
0.00400686
0.00610586
0.0061582
0.00858066
0.00223818
0.00379454
0.00473602
0.00454191
0.00497722
0.00408359
0.0041227
0.000525872
0.00477941
0.00245167
0.0017836
0.00341288
0.00321794
0.00691461
0.00618528
0.0056568
0.00500365
0.00546851
0.005521
0.00504397
0.00473998
0.00615552
0.00567636
0.00617899
0.00487274
0.0061035
0.00597762
0.00578001
0.00582084
0.00410544
0.00558465
0.00601654
0.00608849
0.00445094
0.0053663
0.00558956
0.0055175
0.00633345
0.00617917
0.00678594
0.00394056
0.00676436
0.00593684
0.00616313
0.00587327
0.00580373
0.00427485
-0.00859413
0.00641084
0.00452117
0.00920948
0.00442924
0.00895858
0.00605312
0.00809831
0.00725749
0.00575227
0.00571366
0.00603406
0.00567698
0.00824407
0.00777713
0.00740164
0.00785595
0.00566876
0.00457489
0.00491411
0.00415175
0.00388759
0.00459714
0.00415413
0.00487327
0.00479654
0.00425611
0.00610652
0.00692446
0.00854399
0.00599241
0.00630151
0.00598232
0.00298383
0.00627315
0.00412266
0.0065246
0.00495299
0.00569243
0.00446034
0.00544833
0.00427501
0.00574795
0.00576325
0.00577659
0.00447921
0.00596241
0.00457532
0.00417675
0.00616227
0.00458853
0.00406136
0.00763511
0.00532536
0.00659757
0.00582451
0.00640616
0.00426115
0.00446892
0.00412835
0.00479541
0.00443458
0.00638152
0.0039638
0.00394413
0.00671567
0.00543662
0.0078359
0.00479115
0.00406484
0.00482908
0.00428327
0.00432391
0.00527016
0.0052405
0.0048688
0.00531875
0.00464737
0.00540387
0.00624723
0.00590536
0.00441617
0.00458101
0.00575927
0.00610383
0.00479985
0.00453085
0.00568641
0.00549267
0.00550405
0.00493174
0.00439714
-0.000820061
0.00361162
0.00806053
-0.000999592
0.00369605
0.00600711
0.00635833
0.00619684
0.00565768
0.00497216
9.42084e-05
0.00491124
0.00371015
0.00416211
-0.000168597
0.00575378
0.00551494
0.00582286
0.00592066
0.00620717
0.00613446
0.00717452
0.0076994
0.00830307
0.00591628
0.0102327
0.0103617
0.00644546
0.0060105
0.00541031
0.00568949
0.00828735
0.00579436
0.010279
0.00527182
0.00435644
0.00541538
0.00512423
0.00341045
0.000688135
0.00313024
0.00149083
0.00905521
0.00281575
0.00522782
-0.000626995
0.00445061
0.00527551
0.00612645
0.00291676
0.00544394
0.00448134
0.00363664
0.00500297
0.0015525
0.00300192
0.00563022
0.00595691
0.00500339
0.00542513
0.00372423
0.00596453
0.00430916
0.00531877
0.00613196
0.00637771
0.00308184
0.00435502
0.00201754
0.00576473
0.00448037
0.00664908
0.00562923
0.00735993
0.00534169
0.00401089
0.00459546
0.00439198
0.00356503
0.00547145
0.00574637
0.00595825
0.00599027
0.00452534
0.00631435
0.00515305
0.00690698
0.00545912
0.0056616
0.00498763
0.00597623
0.00523983
0.00628405
0.0073591
0.00632763
0.00595666
0.00568954
0.00499204
0.00466798
0.000818069
0.00260501
0.00146131
0.00805801
0.00567472
0.00572132
0.00797753
0.00738692
0.00890567
0.00904697
0.00561348
0.00393941
0.00647735
0.00500433
0.00500958
0.00647544
0.00544186
0.00563628
0.00440621
0.00612605
0.00646579
0.00428349
0.00644903
0.0064801
0.00462821
0.0055952
0.00519316
0.00464751
0.00521283
0.00195191
0.00395771
0.0052184
0.00694263
0.00713047
0.00261479
0.0048648
0.00421157
0.00708729
-0.00605327
0.00523982
0.00582989
0.00585626
0.0072228
-0.00943739
0.00400222
0.00208742
0.00490475
SCALARS CoVolArea double 1
LOOKUP_TABLE default
1983.43
2026.56
2104.57
2113.05
2286.81
2504.58
2510.1
2518.03
2207.9
2134.74
2067.43
2112.79
2704.44
3189.58
3202.22
3239.76
2761.89
2522.79
2482.88
3225.45
3107.37
3292.25
3279.9
2738.88
3113.17
3275.79
2810.31
2910.43
3540.38
3261.51
3063.8
3236.3
2983.11
3140.96
3050.7
3035.01
2654.23
3311.81
3284.85
3236.49
3194.64
3310.75
2582.88
3231.01
2683.26
2936.31
3314.05
2648.67
3045.54
3372.81
3101.67
3005.61
2504.51
3086.38
3394.13
2592.08
3037.23
2727.84
3699.79
3780.26
3477.44
3884.68
2892.98
2993.31
2960.85
2657.45
3082.55
3049.3
3176.61
2644.81
2987.07
2944.66
3371.27
2546.99
3100.01
2902.04
2566.68
3267.56
2625.06
3098.26
3375.68
2779.52
3295.07
3086.66
3433.52
3448.14
2902.38
3335.15
2994.23
3406.34
3025.65
3030.64
2596.26
2514.18
3404.5
2609.23
3010.67
2938.89
3423.35
2982.67
3254.32
3500.73
3070.02
3536.24
3311.51
3245.65
3083.87
3423.12
2657
3025.61
3099.94
2580.88
2690.98
3162.16
2802.77
2888.15
3048.96
2680.24
2906.25
3161.33
3077.1
3130.71
2646.94
2880.6
3141.25
2595
3112.16
2762.43
2980.07
2667.71
2778.55
2945.33
2961.91
3411.48
2884.35
3398.41
2727.68
3105.13
3128.78
2391.13
2965.59
3039.13
2923.29
2640.85
3571.9
3023.62
2727.81
3429.45
3342.68
3459.15
3107.51
3088.52
2982.63
3168.26
2956.2
3021.6
3550.15
3549.63
3550.15
2917.14
3253.24
3379.51
2504.16
2642.31
2537.06
3022.8
2642
2487.81
2862.47
2796.25
3286.66
2786.52
2905.93
2507.43
3283.65
2990.75
2945.63
2658.84
2972.55
3162.54
2971.55
3109.81
3083.31
3321.33
3087.01
2995.12
3009.46
3105
3330.05
3702.22
3724.57
3740.8
2650.15
2392.29
3193.59
2735.38
2512.47
2637.73
2889.2
2996.46
3084.5
3351.24
3089.36
3037.51
3069.97
3321.34
2455.54
2691.21
2563.7
2914.76
2690.19
2567.69
2903.43
2776.88
3228.02
3637.46
3652.17
3392.41
3137.76
3052.16
3122.81
3080.91
2887.05
3818.5
3178.38
3017.41
3045.98
3365.9
3762.16
2824.74
3159.71
3159.57
2974.96
3057.89
3051.12
2702.4
2802.48
2624.29
2633.17
2845.9
2804.99
3912.37
3774.53
3624.48
3840.76
2972.23
2569.12
2995.87
2901.88
2889.79
2682.19
2984.51
2994.98
3263.37
3013.15
3029.46
2891.6
2912.21
2589.15
2714.64
2660.72
2757.1
2635.06
2553.03
2996.75
2858.84
3216.64
3262.26
3480.58
3188.26
2682.73
4095.87
3001.83
2596.98
2684.04
2706.11
2695.1
3803.33
2733.67
2825.05
2516.19
3260.44
2389.14
2382.24
2730.55
2499.7
2645.97
2537.47
3352.63
3825.14
3651.41
3221.35
2696.38
2513.29
3320.91
2864.61
2569.26
2731.41
3065.93
3110.9
3133.63
3321.09
3091.62
3026.84
3117.57
3352.91
2751.55
3020.87
2872.42
3139.17
2936.85
2609.46
3074.68
3064.75
3305.96
3751.54
3713.02
3693.23
3318.24
3269.87
3335.29
3143.55
3259.54
3301.91
3415.43
2757.22
2981.22
3262.17
3002.75
2894.03
3015.79
3306.08
2882.72
3079.99
2902.24
3368.72
3103.18
2993.03
2937.08
3103.82
3286.77
3776.75
3734.36
3790.92
2655.52
2525.77
3061.54
2694.51
2656.82
2741.95
2988.31
2562.07
2628.44
3014.11
2599.22
2409.89
2607.95
3299.58
2586.7
2627.51
2570.21
2906.78
2607.96
2672.52
3078.01
2831.73
3160.08
3810.37
3670.67
3436.82
2990.79
2675.62
3388.54
3074.26
3034.64
3085.58
3416.19
3124.23
3161.68
3552.45
3220.73
3269.31
3146.44
3416.33
3035.91
3221.28
3151.82
3453.53
3187.36
3054.81
3310.05
3288.5
3578.22
3876.94
3923.79
3888.14
3038.71
3103.19
2915.8
2907.2
3029.93
3019.3
3313.98
3146.96
4049.05
2663.24
3112.16
2944.42
3006.52
2576.46
2804.97
2749.93
2626.52
3289.42
2943.42
3017.36
2510.45
2647.51
2742.86
3305.56
3232.37
3592.14
2618.9
2776.33
2668.97
3122.6
2811.55
2737.08
2800.37
2827.15
3137.13
2717.39
2718.87
2500.72
3132.34
2825.67
2901.67
2762.13
2726.6
3060.28
2790.55
3009.78
2890.74
3154.26
2943.62
2887.1
3000.53
2990.44
3179.28
3479.78
3477.09
3519.81
2783.55
2589.52
3146.75
2872.14
2546.83
2727.13
2844.01
2795.33
2867.73
3149.3
2897.7
2863.73
2895.37
3148.8
2549.52
2735.64
2629.1
2826.58
2684.99
2502.79
2776.54
2842.32
3124.46
3530.04
3523.39
3437.54
2690.04
2565.6
2918.6
2710.73
2899.16
2697.51
3073.16
2554.52
2674.64
3139.65
2718.64
2950.15
2676.03
2892.07
2918.93
3098.44
2923.71
3339.13
3311.35
2994.91
2907.18
3254.52
3389.83
3321.31
3403.49
3391.33
2731.14
2571.08
3472.25
3033.99
3022.65
3079.07
3246.73
3058.34
3019.04
3304.75
3044.79
3047.22
2879.74
3191.46
2595.08
2726.46
2808.03
2760.66
2490.23
2546.51
3023.42
2952.89
3297.6
3503.46
3460.23
3292.32
2643.47
3216.92
2668.43
2656
2976.85
2778.47
2637.1
3373.45
2708
2886.3
2761.24
3434.85
2701.88
2594.61
3005.9
2784.43
2641.27
2692.39
3142.24
3700.05
3804.38
3385.49
3083.36
3325.09
3160.07
3112.41
3392.13
3008.85
3426.42
3091.92
2995.57
3260.48
3347.75
3464.74
3359.2
3181.12
3420.31
3704.71
3771.21
3772.14
2703.13
3104.5
2793.44
2758.34
3043.93
2969.38
3131.32
2922.01
2875.67
3099.19
2731.91
2925.77
2645.23
2823.79
3112.94
3430.22
3402.44
3354.68
2987.68
3087.89
2824.67
3031.17
3298.34
2923.72
2917.71
3163.24
3045.41
3183.5
2734.96
3268.73
2920.4
2599.1
2669.81
3278.98
3106.26
3511.94
3155.49
3423.1
3183.48
3182.27
3422.92
3264.53
3607.42
3315.82
3186.99
3413.17
3274.32
3408.03
3181.94
3298.63
3601.74
3969.95
4014.08
3971.15
2807.27
3277.29
2682.78
2610.55
2716.99
2739.22
3370.04
2612.69
2845.12
3739.68
2768.27
2752.32
2635.53
3017.9
4033.36
3704.26
3974.46
3314.78
SCALARS SignedDistance double 1
LOOKUP_TABLE default
253.594
248.939
236.813
226.678
183.564
185.825
183.711
190.187
228.01
217.374
237.224
223.487
233.528
179.148
182.896
180.686
244.362
247.671
249.967
182.229
264.426
274.719
177.469
224.357
190.775
179.864
261.583
247.068
161.87
176.282
255.079
171.231
236.526
183.431
216.381
220.896
207.654
226.401
218.544
171.215
250.675
263.82
241.585
201.573
218.725
190.563
195.653
227.363
175.311
180.845
181.954
211.424
247.809
175.271
177.48
245.458
210.951
214.166
281.111
281.115
278.502
277.6
217.219
254.541
217.496
256.613
282.744
177.239
209.47
245.209
226.94
203.251
265.832
265.551
284.921
257.519
249.577
194.782
234.162
182.167
175.801
221.13
187.798
190.472
182.602
190.441
203.527
180.952
166.83
172.55
183.905
263.032
241.75
244.4
267.544
243.797
255.632
246.348
172.375
200.445
165.623
158.3
171.341
159.135
165.556
201.204
175.109
276.208
248.305
191.652
213.468
238.073
234.295
224.692
223.536
194.75
215.968
230.952
203.895
204.912
181.755
219.73
215.633
206.345
213.74
222.018
222.559
229.963
207.805
219.328
228.953
212.547
205.738
210.862
206.499
236.716
235.368
173.078
200.219
239.946
214.076
191.69
245.578
257.144
261.169
250.114
242.582
169.784
174.784
182.069
232.205
209.67
223.236
200.64
249.056
220.106
169.825
159.19
159.138
248.155
275.185
258.551
247.572
229.875
236.487
217.253
224.899
237.341
197.616
210.769
191.017
205.562
204.043
223.046
185.378
192.44
182.759
229.109
207.835
210.017
178.87
180.117
186.334
180.655
177.886
176.519
178.801
179.389
180.339
197.075
186.359
187.682
232.414
250.447
192.482
213.502
246.206
229.342
228.462
178.859
175.521
177.706
173.849
175.493
173.858
177.725
247.111
229.42
231.777
227.501
227.948
244.566
193.825
211.236
191.513
187.328
187.302
210.937
262.883
265.259
260.61
261.149
262.905
278.449
267.548
262.681
260.895
262.005
274.444
256.612
258.661
259.268
203.204
219.543
203.394
253.171
237.878
233.586
233.172
237.495
252.338
281.139
269.352
272.996
278.944
264.156
252.045
266.108
282.74
273.736
262.341
183.951
194.541
193.332
191.328
177.336
210.403
230.154
239.298
228.546
219.798
247.395
237.857
254.524
190.993
213.134
201.866
235.404
215.699
241.32
260.53
278.925
272.861
255.132
250.421
246.559
252.478
279.002
271.155
280.349
263.957
273.601
244.77
242.99
246.773
244.951
263.757
254.192
266.039
281.975
274.983
263.399
223.573
241.435
186.274
203.919
228.516
216.328
208.398
186.325
179.516
175.375
176.312
176.526
175.764
177.176
221.33
203.949
202.601
200.968
201.268
220.116
182.48
189.973
180.778
181.303
178.954
188.712
188.62
189.773
177.654
182.962
186.683
188.779
184.626
212.512
198.042
184.788
189.744
196.751
187.301
178.697
173.182
175.314
183.989
175.948
171.49
169.789
186.231
175.969
179.141
178.25
175.899
175.591
244.367
234.471
269.714
258.677
245.044
251.22
255.655
239.386
251.54
267.725
258.828
252.634
269.893
272.177
241.235
246.043
241.331
253.16
250.392
245.661
255.237
250.983
258.9
264.749
261.864
261.182
202.423
220.592
175.653
186.679
185.852
186.279
173.744
176.248
170.429
159.625
160.76
160.319
165.39
167.38
178.306
167.991
172.46
164.106
162.385
171.259
162.154
162.265
159.101
162.952
156.196
162.472
195.222
184.941
224.633
206.684
169.651
185.144
183.113
258.242
271.792
252.663
262.109
272.005
256.994
246.778
210.968
216.428
231.445
188.561
199.032
178.474
246.534
226.897
238.718
226.511
231.859
203.859
230.587
228.246
225.919
230.51
230.976
237.886
220.61
224.782
219.832
204.094
214.579
225.739
198.543
205.282
187.755
233.916
223.751
228.318
194.18
193.152
182.62
212.649
203.942
211.078
181.6
192.555
193.841
222.745
209.416
217.183
222.233
221.374
219.197
221.129
210.417
218.15
214.129
195.722
202.427
216.721
211.199
214.87
209.36
214.591
230.148
229.329
234.97
216.494
222.691
213.946
226.245
225.84
222.66
218.955
220.083
218.66
218.339
224.041
208.677
212.614
216.806
212.497
210.43
234.08
226.599
216.373
220.166
225.936
218.145
211.298
194.886
207.818
194.91
212.528
216.252
220.199
220.774
218.272
216.924
206.896
208.746
206.648
227.989
230.348
226.703
225.108
241.47
233.982
245.183
177.942
187.962
182.95
184.232
169.494
202.861
219.493
232.294
217.222
211.07
239.83
229.898
246.301
178.478
199.267
188.569
222.691
203.599
231.426
235.088
246.658
240.189
239.455
244.403
238.338
243.292
263.175
262.967
271.754
250.703
256.284
236.142
231.189
244.39
239.665
255.41
249.755
255.681
253.481
256.639
252.344
173.79
173.108
173.415
169.961
175.578
189.887
178.271
182.641
181.6
175.74
188.517
184.135
188.628
183.162
177.398
168.255
174.751
172.961
236.106
226.22
231.906
238.732
239.082
194.989
199.226
196.097
207.754
217.991
223.094
238.908
232.893
213.398
206.026
223.84
215.428
231.117
186.525
218.267
201.109
183.51
185.587
238.675
254.747
246.86
236.651
239.611
225.084
194.607
206.987
233.949
243.837
226.756
236.576
207.545
194.157
167.046
179.434
179.434
167.045
167.636
159.948
162.608
163.11
160.68
172.294
160.691
163.569
163.414
159.179
161.523
159.709
161.513
232.581
256.81
245.552
235.523
238.159
242.647
262.972
252.972
261.803
270.068
253.62
241.981
247.587
267.106
272.843
264.56
273.291
254.212
