# vtk DataFile Version 4.2
vtk output
ASCII
DATASET POLYDATA
POINTS 642 double
-93.9838 186.895 78.9535
101.921 188.999 77.3792
-81.0151 -188.924 -3.5073
94.8346 -195.888 -6.29594
2.89997 -124.423 257.092
0.0422757 162.658 222.148
-0.526745 -126.559 -257.185
-2.99884 117.827 -256.09
169.436 -0.416803 -190.832
182.494 5.43699 177.985
-158.123 -2.97165 -189.11
-179.039 31.6023 181.165
-163.909 129.053 135.502
-136.55 84.318 233.709
-76.0705 226.552 151.6
81.3692 226.293 152.395
0.710668 219.609 75.8327
80.4473 135.003 -181.056
-64.5503 136.487 -179.647
-125.688 73.9294 -252.674
-134.288 84.4899 -128.872
-152.686 -7.48883 28.1276
137.705 91.2788 232.596
174.623 132.893 135.483
-118.52 -70.1282 238.51
0.448936 -22.6239 285.294
-136.405 -90.6543 -129.823
-138.786 -98.7896 98.4234
-1.64604 1.64031 -306.45
-130.849 -82.1628 -253.311
145.488 91.0422 -140.609
138.56 81.196 -256.34
153.684 -101.439 97.4308
130.02 -69.5557 244.421
64.2986 -177.595 134.771
-56.6846 -174.191 134.437
3.90805 -242.541 -7.68187
-47.1658 -175.957 -149.569
63.0134 -183.621 -129.702
138.918 -81.5252 -256.03
132.215 -88.6834 -120.322
167.008 -4.08465 28.3149
-132.335 164.539 106.106
-135.181 180.379 141.463
-89.4964 214.09 121.552
-179.257 49.281 201.359
-169.333 113.006 174.201
-180.578 70.1654 168.589
-41.9591 203.625 200.567
-110.649 165.797 197.931
-81.0509 124.11 236.459
-36.6122 238.626 122.087
-50.9087 212.883 80.5639
44.3453 202.983 200.521
-0.112938 239.584 158.395
57.3353 211.584 77.6714
38.1438 237.931 121.517
98.2368 214.819 119.332
-9.40284 152.682 -37.7461
-67.7843 106.829 -61.4847
65.656 112.864 -71.3524
14.1598 155.657 -36.1858
-48.5629 133.971 -218.529
-2.49307 140.769 -170.374
56.8535 133.204 -218.724
-111.442 110.729 -160.04
-137.891 143.166 -17.9992
-72.2927 104.409 -267.101
-96.2733 121.149 -217.373
-157.254 45.6574 -154.373
-137.44 81.8852 -199.003
-155.312 33.0595 -222.147
-142.242 114.92 67.652
-161.715 -3.1829 -117.58
-160.356 59.3173 -76.05
-167.026 73.3171 100.564
-173.869 20.9878 123.372
145.366 183.011 141.027
143.18 167.919 103.922
86.2853 125.894 235.865
119.13 167.712 201.209
182.715 88.7964 148.949
176.265 124.022 175.135
175.857 44.0916 205.054
-83.0941 34.9129 263.52
-0.132894 67.4862 256.892
-162.121 -25.1902 205.58
-137.599 2.47104 247.164
2.91368 -78.7195 290.343
-71.8383 -47.8927 278.847
-61.5741 -104.598 255.555
-154.917 -41.0159 78.9386
-162.55 -34.0721 155.073
-156.599 -54.891 -167.95
-145.285 -34.2952 -78.6157
-115.409 -150.706 45.2145
-134.447 -115.616 5.76363
-111.065 -151.884 -38.2918
-137.896 -1.66054 -268.578
-156.552 -42.1868 -222.368
-4.21294 70.7181 -296.67
-78.238 44.5297 -300.518
-76.6557 -112.612 -267.845
-80.4962 -44.4165 -297.196
-1.51325 -74.5654 -293.412
110.628 126.414 -220.434
84.3731 106.358 -265.21
139.309 134.662 -14.6633
124.408 115.796 -169.151
168.699 46.8603 -222.365
154.828 88.6744 -203.944
166.914 54.688 -169.608
127.48 -157.89 38.9923
116.276 -148.143 118.853
85.114 -193.024 61.3669
170.77 -30.1152 212.533
149.812 -79.1253 187.66
173.585 -38.4018 154.399
32.6822 -150.201 206.653
96.9501 -123.709 206.839
65.2407 -104.064 257.218
29.2337 -216.512 49.2693
46.0639 -229.459 -9.79685
-29.1159 -147.485 207.094
3.39744 -187.586 143.637
-34.0658 -226.676 -7.94876
-21.3011 -213.79 49.2444
-75.5521 -188.027 63.0794
31.1003 -230.721 -67.2002
77.5864 -206.74 -64.5654
-64.787 -199.125 -66.167
-20.1894 -228.079 -67.3067
48.3851 -143.772 -223.889
2.03274 -206.124 -121.115
-56.8283 -145.646 -220.809
101.264 -139.7 -142.933
122.902 -162.575 -35.5311
78.7606 -109.371 -266.207
110.965 -129.651 -219.748
166.446 -50.715 -180.681
154.985 -86.7396 -212.048
168.767 -48.0808 -222.205
146.713 -125.548 3.53495
172.692 0.626727 -122.552
161.136 -35.8676 -67.5382
171.258 -51.6607 74.2143
184.695 12.9797 113.432
79.5232 -46.9049 280.71
142.43 -6.84104 254.046
87.8968 30.4284 265.607
-107.28 -141.686 119.994
-90.0958 -121.337 206.103
-139.967 -77.9248 183.44
-102.924 -131.486 -221.616
-110.67 -119.681 -153.774
-144.298 -89.3731 -202.676
143.494 0.00760375 -264.814
83.2224 -48.1461 -295.049
82.7614 48.2918 -294.997
178.063 75.0047 97.3913
170.67 60.8686 -76.0182
151.639 121.185 64.8121
-112.571 177.659 89.1967
-113.818 191.169 116.223
-92.3372 201.806 98.7948
-154.239 152.852 139.136
-135.857 173.622 133.855
-151.221 147.34 126.77
-85.0475 222.235 134.489
-112.541 200.031 134.646
-108.886 206.971 145.364
-183.546 38.8088 186.265
-186.198 59.5129 179.219
-184.025 52.0324 177.037
-155.518 99.4056 206.481
-177.184 78.1063 191.575
-159.97 65.7605 220.72
-171.631 104.776 148.035
-177.556 89.7846 165.723
-169.487 125.104 149.12
-21.8555 185.386 215.836
-60.9575 169.165 217.489
-41.8721 145.508 227.975
-93.4099 201.195 175.291
-77.972 188.007 199.669
-59.5112 217.686 178.42
-110.103 104.248 238.977
-96.907 146.744 220.667
-125.96 125.552 218.494
-156.52 152.671 154.35
-143.787 140.768 188.354
-128.194 179.579 165.083
-69.4666 217.515 100.94
-74.1747 201.634 80.0978
-55.1263 237.664 133.745
-61.9439 230.009 123.123
-26.7325 218.348 78.8029
-43.6731 228.277 103.021
-19.0905 231.911 102.098
22.8271 185.234 215.88
-0.0311314 206.67 201.265
42.032 237.052 157.411
22.5474 225.274 181.487
63.5206 216.965 178.604
-22.1128 225.309 181.495
-40.6608 237.621 157.116
82.4092 200.944 76.6171
77.7079 217.124 99.6105
101.596 202.816 97.7238
19.0101 232.083 101.095
47.7041 227.25 101.794
28.8251 217.984 76.286
92.4278 223.093 132.972
68.8126 229.165 121.306
58.9059 236.621 133.188
-21.6279 245.578 135.579
21.3602 245.183 135.696
-0.541032 240.291 123.213
-59.9472 190.459 55.6892
-83.5074 175.694 53.856
-10.3901 199.613 45.447
-31.9982 198.346 51.9922
-65.8854 133.154 -165.967
-16.602 148.231 -56.912
-41.8781 140.529 -147.629
85.1498 178.559 47.9834
70.71 187.05 49.3987
53.7608 141.823 -143.715
38.2891 140.093 -51.255
81.7845 135.269 -159.262
37.0519 198.421 49.0594
14.3982 199.769 43.8259
-27.7515 129.855 -237.06
-1.04458 133.488 -219.373
27.9034 130.126 -235.553
-43.7873 140.488 -173.056
-29.027 135.807 -198.431
-60.7486 135.586 -198.499
74.1094 133.58 -203.782
29.2 134.458 -200.895
50.7053 137.7 -174.335
5.08503 155.666 -33.6945
21.0127 144.884 -126.728
-20.3558 142.209 -129.604
-139.145 133.067 -33.9877
-111.895 154.09 51.0095
-88.8316 125.938 -178.52
-104.902 112.918 -151.004
-129.877 122.854 -92.1069
-126.477 117.062 -110.672
-122.655 107.32 -134.283
-41.4134 111.961 -263.127
-61.5018 127.026 -241.677
-113.135 102.603 -236.729
-88.3827 117.661 -242.019
-99.6487 91.2512 -263.619
-73.4265 131.648 -219.092
-80.4964 130.92 -199.324
-158.774 26.3414 -173.679
-154.705 42.1641 -196.509
-157.107 14.8825 -209.152
-136.95 82.7629 -166.006
-147.476 63.4789 -182.483
-151.717 59.8266 -139.678
-145.445 54.0383 -237.235
-147.47 60.8029 -212.025
-136.346 79.9091 -224.076
-104.015 118.822 -191.916
-120.454 103.409 -208.975
-122.416 102.42 -180.011
-128.069 145.491 59.2881
-107.806 106.059 -40.663
-134.426 148.575 24.7614
-138.992 141.782 88.0864
-156.115 124.84 110.337
-161.902 -2.25111 -145.749
-162.792 28.0905 -130.833
-144.61 46.3884 -36.6944
-157.57 33.3102 -111.672
-168.518 -18.6598 -81.0024
-159.529 48.4838 -112.347
-160.284 54.3487 -98.2384
-178.83 52.585 162.142
-176.798 33.0612 164.358
-167.238 104.507 123.528
-174.308 75.9378 142.164
-168.63 11.9253 88.5981
-173.075 45.0997 115.688
-164.266 39.1884 76.6446
-161.106 75.3184 0.588039
-161.726 80.2765 32.8178
-157.837 92.0051 81.2087
123.705 193.367 113.866
123.083 180.101 89.1573
116.754 208.059 146.018
121.683 202.219 131.208
161.175 151.817 122.201
146.046 176.644 128.759
164.848 156.526 138.019
44.3992 145.662 227.775
66.2811 168.773 217.841
131.774 132.163 220.108
104.06 149.058 222.369
113.588 110.083 239.235
84.9426 187.447 201.212
100.782 200.87 177.526
182.021 42.2276 166.065
181.085 67.9757 176.219
181.498 20.5593 189.548
180.094 131.479 148.978
182.567 107.605 160.157
181.258 114.376 141.745
159.924 68.5281 220.09
176.541 90.5121 190.679
159.614 110.127 206.303
136.966 180.58 168.997
152.258 146.738 191.536
166.254 156.22 157.861
-49.388 99.6411 246.182
-0.0359655 118.899 239.448
-114.195 66.4544 253.132
-88.0207 81.6333 251.355
-0.302337 17.5593 275.095
-47.5428 47.0842 261.591
-42.5765 3.79511 277.382
-172.431 1.62936 188.583
-171.111 12.8108 203.59
-129.724 -35.3687 245.859
-152.644 -13.7206 228.705
-143.192 -47.253 222.354
-156.239 29.2909 225.596
-140.974 46.2904 243.054
2.82852 -105.493 275.73
-25.9757 -92.9453 275.136
-22.7643 -116.459 257.791
-33.838 -36.9988 284.13
-27.562 -65.2365 284.892
2.02386 -55.313 294.181
-91.6242 -89.4801 249.982
-67.8002 -78.0609 271.134
-97.7286 -60.6348 262.644
-112.297 19.0807 260.996
-105.826 -23.8415 267.166
-77.9617 -10.0439 278.904
-171.773 -6.15305 137.192
-171.471 -3.31274 170.351
-156.137 -14.2448 60.2062
-168.887 -9.82349 100.911
-151.478 -63.6106 131.299
-162.963 -36.1541 115.023
-148.781 -73.1598 88.7116
-158.66 -36.3041 -176.93
-162.645 -28.5214 -136.869
-139.592 -75.1338 -110.22
-157.616 -42.9621 -136.228
-149.484 -70.7051 -158.182
-160.588 -17.5217 -107.082
-158.146 -20.8463 -33.2309
-101.275 -168.162 22.0417
-115.078 -151.911 3.87607
-97.0997 -172.403 -19.2771
-136.525 -110.842 53.4809
-126.994 -132.436 27.5743
-128.238 -128.02 67.872
-123.42 -118.99 -79.1846
-126.004 -133.01 -17.0513
-131.658 -106.475 -52.3348
-151.979 -49.9124 10.0237
-140.993 -87.1014 -25.8316
-142.475 -85.2629 37.1407
-157.37 -3.11131 -226.807
-156.939 -23.0477 -209.695
-133.66 37.5604 -263.326
-150.444 16.4493 -244.482
-150.39 -62.3717 -237.307
-151.9 -21.819 -244.386
-135.427 -41.6103 -262.383
-3.89322 97.3244 -278.177
-43.8442 87.9186 -285.922
-46.6898 25.2407 -306.65
-45.1238 59.0176 -301.845
-2.89966 41.027 -306.21
-76.5959 76.5249 -287.747
-104.317 61.4842 -280.531
-43.7688 -120.482 -263.489
-46.2374 -94.9592 -283.755
-0.824751 -105.113 -277.048
-107.935 -66.5104 -280.008
-80.5528 -82.9907 -286.219
-104.427 -99.2172 -264.538
-1.62051 -38.8584 -304.449
-46.1522 -59.7218 -297.704
-46.8521 -21.871 -306.565
-110.468 20.2717 -287.93
[...]
POINT_DATA 642
SCALARS Mean_Curvature double 1
LOOKUP_TABLE default
0.00638595
0.00595116
0.00673243
0.00907496
0.0275941
-0.00295303
0.00857605
0.00838736
-0.00203618
0.00993415
-0.000406963
-0.018801
0.0108815
0.011805
0.0230963
0.020548
0.00793779
0.0113956
0.0261935
0.0156023
-0.0126645
-0.00409065
0.0094065
0.00722283
0.01249
0.00467586
0.0114638
0.00508321
0.00123884
0.0166596
-0.0141218
0.0177577
0.00762222
0.01528
0.00830685
0.00832117
0.0489447
0.00745113
0.0210627
0.0161432
-0.00293512
-0.00334219
0.00826668
0.0452977
0.00738411
0.0256421
0.0170698
-0.00488724
0.0136579
0.00888806
0.0091096
0.012613
0.00889243
0.011445
0.0122527
0.00660978
0.00958695
0.00935421
0.000236567
-0.018745
-0.0198068
0.020234
0.010375
0.00396865
0.010142
0.0253273
-0.120975
0.0161901
0.0156347
0.0131271
0.0094876
0.0206597
-0.0142635
0.00399157
0.0722694
0.00711319
0.00603545
0.0306858
0.0101832
0.00557191
0.0113425
0.00180501
0.0209658
0.0162465
0.00268465
0.000776056
0.0216327
0.0146794
0.0268539
0.0152646
0.0134074
-0.000644308
0.00331279
0.0144002
-0.0158103
0.00821777
0.00704578
0.00536641
0.0178993
0.015896
0.010712
0.0170538
0.0168604
0.00989814
0.00627485
0.0269241
0.0129763
0.11028
0.011463
0.0239952
0.0165948
0.00903472
0.00842784
0.00774062
0.0102995
0.0226344
0.00691361
0.00227676
0.00427717
0.00721821
0.00964894
0.00229167
0.017817
0.00340082
0.0147148
0.018866
-0.00096898
0.0118354
0.0197685
0.0147499
0.010317
0.0196543
0.00945537
0.00891984
0.0058162
0.00212443
0.00856609
0.00927293
0.0276742
0.0116738
0.019786
0.0244066
0.0104387
0.00950976
0.00317268
0.00727331
0.0133836
0.0132424
0.0139586
0.00115929
0.00736747
0.00826967
0.00965637
0.0278106
0.00710633
0.0148269
0.00715347
0.0108237
0.00978567
0.00525592
0.0428065
-0.0128725
0.00710587
0.00746245
0.0120469
0.0301264
-0.00593608
0.0011195
0.029016
0.00660607
0.0337342
0.0635108
0.0689957
0.00902877
0.00783142
0.019784
0.0140664
-0.00267049
0.0316344
0.038655
0.0149614
0.00964182
-0.000375805
0.0106586
0.0117074
0.0114505
0.0133313
0.0112711
0.0116389
0.0269815
0.00901794
0.0134253
0.0134855
0.00898625
0.0367493
0.00507442
0.00855824
0.0111634
0.0086919
0.0146006
0.00892534
0.018804
0.0129174
0.00937397
0.0130663
0.0201337
0.00937313
0.0124217
0.0112749
0.00998607
0.00699496
0.00846928
0.0299841
0.00793201
0.0294419
0.0389823
0.0371222
-0.000893523
0.00267387
0.000865026
0.00689397
0.00515692
0.00281235
0.0019909
0.0290631
0.00177735
0.00357657
0.0149235
-0.000151727
0.0130881
0.00306153
0.00913252
0.0163526
0.00682052
0.0172667
0.0123267
-0.0034095
0.00871721
-9.73231e-05
-0.00393424
0.000243062
-0.000750701
0.0026425
-0.00272965
-0.0277466
-0.0197853
0.0109531
-0.00169602
-0.0580936
0.112914
-0.00872597
0.00839755
0.0225195
0.020116
0.021277
0.0142519
0.0231715
0.016081
0.00497967
0.00944099
0.00242694
0.00376302
0.00528471
0.00822298
0.0207967
0.0114293
0.0186796
0.0164667
0.0144907
0.0133282
-0.0437035
-0.029388
0.0270014
0.0163792
0.00538574
0.0024741
0.0191544
-0.0174164
-0.0132942
0.0349176
0.0167358
0.0140647
0.000615746
-0.00334098
0.00868562
0.00100391
0.0114585
0.00629113
-0.00243181
0.0192799
0.029073
-0.00487847
0.00869807
0.00748049
0.0249558
0.0169084
0.00617536
0.00545424
0.0249718
-0.000911264
0.00793215
0.0145161
0.0129924
0.0169602
0.0115759
0.0106578
-0.000387509
0.00897853
0.0118728
0.0395774
0.0187069
0.0175909
0.00917205
0.0183311
0.0113388
0.0124322
0.0131601
0.0241814
0.00199121
0.00156137
0.0177882
0.00572888
0.00424164
-0.00122892
0.00464023
0.0190289
0.015027
0.0118365
0.0156275
0.0117633
0.00277689
0.01711
0.0249523
0.00977741
0.0093242
0.00437116
0.00948458
0.0273585
0.0152858
0.0153947
0.0139511
0.0106698
0.0140547
0.0171907
0.00803269
0.00362521
0.00247731
0.011937
0.00264992
0.0083054
0.00559011
0.00267406
0.0233866
-0.00204913
0.00432673
0.00524055
-0.0159853
-0.00363596
0.00521902
0.00794315
0.00685796
0.0080719
0.00644276
0.00956857
0.00241485
0.0110745
0.00252582
0.00190919
0.00415943
-0.00132765
0.0199567
-0.00241836
0.0127749
0.0143945
0.0249023
0.0172017
0.00765917
0.00812314
0.0114303
0.00616143
0.0147126
0.0100908
0.0168437
0.0142253
0.00859277
0.0106368
0.00806584
0.0142626
0.0172353
0.0149688
0.00740329
0.00622968
0.00850305
0.0106278
0.0160918
0.0149278
0.0182345
0.0058959
0.0124031
0.0259551
0.0176457
0.0257663
0.0206655
-0.00818756
-0.0225413
0.0251646
-0.0488014
0.105461
0.000843617
0.00824819
-5.04588e-05
0.0151635
0.00506252
0.0238737
0.0260349
0.0255724
0.00444435
0.0117545
0.00482104
0.0106328
0.0103043
0.0236227
0.0084148
0.0103239
0.00607043
0.00649628
0.00628576
0.00613696
0.00968998
0.00824015
0.00845631
0.0215389
0.00566916
0.00734266
0.0118226
0.00877491
0.0198228
0.00761577
0.00733294
0.00388974
0.0106877
0.00707811
0.0113943
0.00628784
0.00695275
0.00540943
0.0141722
0.0131217
0.0124858
0.00424387
0.00782436
0.00544383
0.00125344
0.0125434
0.00691478
0.00906222
0.0251022
0.00841618
0.0178868
0.00604562
0.0135613
0.00783644
0.00581784
0.00500052
0.00938296
0.00715114
0.0108282
0.00075255
0.00305655
0.0173691
0.0104513
0.0255162
0.00770983
0.0118568
0.00877962
0.00555564
0.00587484
0.0161916
0.0072149
0.00723173
0.0141986
0.00449842
0.0114028
0.01763
0.0144071
0.0043897
0.00375162
0.0157516
0.0128391
0.00533689
0.00320989
0.0183012
0.0175617
-0.000844682
0.0159267
0.0117417
-0.00498424
-0.0232863
0.0405463
-0.0172984
0.0337078
0.0133273
0.0201171
0.017531
0.00708656
0.0089217
0.00829014
0.00799233
0.0063421
0.00695739
-0.00888754
0.0107291
0.0192497
0.0217805
0.0165672
0.0153777
0.0138975
0.0297808
0.00840181
0.0221933
-1.31923e-05
0.00205876
0.00861119
0.00384121
0.0271319
0.0370311
0.0338827
0.0104574
0.0325301
0.00492415
0.00965336
0.00741479
0.0135594
0.0119039
0.00362731
0.00249903
0.0246114
0.0211823
0.0592535
-0.025731
0.0115634
-0.00767567
0.0096306
0.00335775
0.00833422
0.008879
0.000895478
-0.00277642
0.0103229
0.00142087
0.00190033
-0.00326102
0.0119437
0.0147385
0.0133863
0.0150188
0.000518216
0.0249588
0.005458
0.0105037
0.0152243
0.0185014
0.00187793
0.00303951
-0.00159727
0.00437467
0.0160257
0.0215131
0.0146787
0.0176488
0.0128639
0.0070496
0.00673986
0.00735329
0.00714244
0.0125232
0.0125268
0.014183
0.00626989
0.00490354
0.00805219
0.00405623
0.00376888
0.0140171
0.0130869
0.00552163
0.0110225
0.00516904
0.0203211
0.0119334
0.0418372
0.0199237
0.0219913
0.00575163
0.00479269
0.00547357
0.0108085
-0.0219697
0.0137031
0.0238579
0.0191026
0.0138589
0.00737463
0.00463119
0.00800779
0.0221535
0.0168976
0.0150501
0.0138497
0.0139985
0.0154311
0.0124801
0.00976304
0.00394881
0.0126552
0.0211623
0.00625272
0.0212056
0.0171167
0.0081623
0.0104674
0.0101749
0.0060404
0.0102748
0.00258067
0.000404542
0.0105058
0.0170312
0.00217246
0.0158867
0.0185109
-0.0119105
-0.000561728
-0.0128307
-0.0101216
0.00619869
0.0152924
0.0511896
-0.0324434
-0.000826377
0.0223883
0.00978944
SCALARS CoVolArea double 1
LOOKUP_TABLE default
659.462
718.489
783.149
679.871
563.59
1329.73
985.769
1067.67
988.163
502.426
886.699
330.081
483.225
1169.78
913.454
1021.1
950.676
648.767
449.234
1045.1
1991.56
2919.54
1354.06
480.396
1036.79
1593.21
1245.15
1283.32
1927.58
1100.32
1973.91
987.995
1283.53
970.767
1318.49
1327.86
346.168
1543.07
1371.51
1006.06
2643.44
3176.97
957.446
561.104
614.235
809.855
1088.38
379.749
1150.06
1412.88
1424.54
539.992
758.846
1247.62
1086.23
909.754
622.534
605.18
1384.43
6704.34
4438.23
2030.84
734.923
1716.92
811.598
537.708
683.803
995.606
675.572
787.992
715.199
681.882
2829.47
787.097
909.619
1439.19
1033.75
711.273
855.256
1464.35
1322.52
861.232
967.586
1150.89
1599.9
2680.62
791.877
1216.76
831.636
1252.11
1074.43
1707.48
1033.4
620.548
2503.38
899.465
1314.9
1426.59
1220.58
685.754
1473.34
1289.87
1030.25
1432.87
1695.71
597.671
1095.13
1136.79
665.102
704.765
543.915
713.592
996.539
1404.62
1127.53
681.992
1134.71
1072.26
1206.53
1211.39
1198.41
1287.26
777.166
1196.26
1186.12
737.224
1268.81
1073.03
796.996
818.457
1022.27
744.557
1621.07
1881.32
1219.01
1963.72
969.861
1165.15
696.573
494.731
346.879
667.876
1134.92
932.769
2211.88
1477.87
1089.46
1244.88
1165.58
1666.63
1365.65
1091.99
943.952
619.35
1683.72
517.94
1564.12
1495.1
1473.51
1313.14
842.899
2632.51
915.457
766.71
670.885
404.995
563.889
677.643
490.629
480.862
804.89
376.204
366.424
224.689
1299.87
886.274
1048.91
534.724
523.786
535.01
1208.36
1318.87
1702.23
1265.75
1229.73
1113.03
1138.49
1256.75
1342.23
973.25
1529.35
1304.4
667.224
693.119
573.55
519.577
790.603
632.923
794.934
1269
1169.09
1060.45
1199.56
1209.77
1150.38
981.155
700.992
725.607
668.777
857.358
755.473
883.136
568.419
578.538
665.166
735.789
781.075
713.956
3011.52
3044.37
1407.19
1585.56
2497.56
3732.74
923.191
2747.21
2230.91
1768.58
3341.36
1810.18
2016.8
1336.4
1011.66
1010.43
1143.85
863.186
1075.75
540.261
678.852
1242.43
1331.23
1753.04
2152.81
1838.61
3757.99
1357.09
566.743
2563.23
1514.63
499.772
732.224
1098.65
827.688
888.377
808.194
991.296
566.105
497.618
978.053
738.523
718.365
969.759
786.694
868.219
844.86
646.923
778.629
648.342
770.229
794.219
910.951
4733.56
2033.39
1063.67
950.572
1131.79
806.062
4390.31
1548.36
2479.65
461.611
2165.35
732.583
775.721
917.767
972.442
1172.41
1171.6
2848
2562.9
1940.09
1244.79
706.053
868.453
937.058
540.091
666.237
581.825
496.107
1805.81
1391.02
1227.16
1194.38
1139.75
1273.52
1322.57
1031.66
938.125
757.692
507.047
655.393
419.956
1332.26
1067.66
1255.95
1326.87
1353.9
972.353
2191.45
2367.86
1265.87
1521.06
2202.19
2139.17
1738.07
569.474
890.342
1131.88
1042.37
919.725
1107.68
1195.85
785.684
1066.01
941.632
1336.15
1070.77
979.282
943.809
1139.2
1111.63
1445.74
1312.91
1516.76
1150.1
816.02
1561.42
1057.68
1251.61
1218.23
1460.36
974.086
709.623
2039.57
1140.97
869.912
833.489
1526.31
971.751
987.534
1024.7
1196.6
931.566
1005.54
1665.25
1190.77
1549.48
2702.6
2603.9
1970.28
690.925
747.745
1210.08
914.019
873.322
931.759
1275.8
1422.02
1198.26
1609.58
1252.03
1580.58
1074.42
1224.16
1176.88
1383.96
1433.8
1310.18
1193.77
1024.05
1786.11
1534.66
1726.7
1428.83
1544.53
1470.86
941.218
1384.4
476.687
522.365
926.794
769.299
886.521
1858.06
4300.52
645.469
1227.96
948.386
2414.27
614.408
797.519
548.343
1041.66
756.654
502.863
816.132
892.615
524.55
777.958
602.867
688.565
692.136
915.957
1055.34
1007.22
1422.15
1149.41
1144.77
1106.76
1096.42
1339.9
521.941
711.074
665.71
945.528
778.439
803.014
1193.09
1052.62
1380.98
886.87
1187.81
916.298
1385.72
1235.49
1302.97
1050.34
1078.5
1031.56
1558.06
1307.25
1546.47
1089.55
851.112
1379.83
1242.73
496.022
905.427
636.463
910.502
1049.98
1330
1177.05
1319.32
1127.64
1315.58
889.099
1031.52
1025.22
627.469
841.228
448.828
1092.63
1180.31
1326.62
1473.27
1459.92
1237.23
833.272
810.791
664.118
766.078
1071.9
759.441
936.773
936.564
912.404
958.653
826.184
1613.48
747.118
618.991
982.065
2056.06
1038.9
1716.81
3042.49
1905.82
757.974
2542.86
1178.47
828.808
911.265
914.596
950.333
862.532
1482.33
1452.06
1829.4
1773.22
2423.7
1195.88
974.178
902.592
938.029
1031.99
980.416
1015.52
891.89
419.578
755.654
1301.63
338.886
1501
804.975
375.998
667.974
1003.2
581.416
1159.17
856.167
1857.29
813.184
907.301
1262.84
1241.94
681.648
1483.05
707.651
2805.98
1256.63
2836.11
1076.53
1003.91
1250.32
1173.77
1271.9
1198.02
1674.01
2524.38
2361.68
1756.7
1037.77
1100.97
1225.46
1060.18
1418.34
858.479
1501.5
1210.31
891.471
979.486
2302.9
1917.23
2319.38
1620.06
1444.8
1140.95
1412.14
1450.74
953.942
1364.31
1080.26
1045.34
1324.65
1075.6
967.181
922.5
1113.35
1352.97
711.748
1247.21
882.22
746.643
938.759
1432.4
1137.82
1357.23
868.127
1116.77
554.375
827.833
880.322
1280.97
1363.58
1803.67
1772.67
2437.34
615.754
735.419
542.75
499.041
768.252
1150.76
823.952
627.352
936.562
1269.01
1171.95
1161.26
1256.19
1476.46
1820.17
1608.16
1220.41
1179.87
1519.79
1150.65
1158.2
1491.05
1771.28
1724.25
1885.48
1728.89
1211.45
2559.19
1025.21
778.701
790.949
926.357
2715.21
589.096
1716.07
4201.84
828.188
985.3
906.011
1258.6
4602.34
1786.16
3022.98
1390.36
SCALARS SignedDistance double 1
LOOKUP_TABLE default
74.649
73.7125
67.2241
63.9431
53.9193
55.2132
55.5336
59.7556
67.3477
66.4623
70.0093
71.5099
71.6318
48.3123
58.0816
56.1347
74.1286
75.0381
80.7226
55.1452
87.7759
78.6493
49.0374
68.9182
55.1736
52.0387
86.8785
71.8101
45.8795
52.4202
80.2986
49.3721
70.5875
52.7519
59.9127
61.5044
60.1619
85.1216
69.6037
49.7207
78.6385
79.1788
72.5879
68.6027
66.0353
62.7858
66.4331
72.8537
47.4097
49.4987
52.4493
66.3249
74.6305
47.7047
53.9787
73.5656
65.8537
65.4192
104.803
103.179
106.149
105.767
74.0153
87.3997
73.2529
81.5144
133.571
52.0025
68.9606
74.9167
70.1577
67.0783
79.4329
86.8547
124.57
77.7616
72.2166
64.7111
70.7712
52.5877
47.5807
66.6902
59.8309
59.8764
54.6275
53.5407
65.8181
50.3257
46.1435
48.0421
51.5223
78.5213
69.6246
72.7491
96.8004
70.475
73.9398
70.1545
52.9958
68.3668
46.4618
43.1346
48.3169
44.9271
46.0231
68.5666
53.4201
121.622
74.7246
66.5321
68.9637
70.9398
65.878
63.3102
61.3436
62.5602
62.2658
67.9681
58.1682
58.7592
51.5826
62.7343
60.9529
59.8277
60.3571
63.5605
64.8888
64.1782
59.49
62.5306
65.3695
61.5927
69.7064
59.2685
71.6095
84.2794
66.1879
50.0366
73.9919
69.5164
69.5991
66.6114
72.449
82.7104
96.299
71.7137
73.4281
48.5118
48.0641
54.4874
65.7209
60.5375
68.0376
70.1992
83.5783
69.4272
48.7656
47.7551
47.313
73.0391
119.433
77.9638
74.2206
68.834
71.2947
70.1189
67.906
70.3038
64.6221
65.931
64.8235
72.3887
74.4095
73.1567
52.5986
61.8221
50.4603
70.4806
73.2696
71.5269
51.996
52.2437
53.6949
49.6652
47.9225
47.8008
49.2184
49.6163
48.6147
66.2604
52.3194
55.9287
70.5878
74.4063
65.0783
65.1596
74.9455
69.9549
70.0634
52.0347
47.7343
53.9443
47.4243
48.4611
47.4602
54.0331
73.9908
69.5507
70.1397
68.9093
69.2031
73.6517
63.4252
65.1105
64.5543
65.7925
65.2218
65.3998
78.1602
78.2016
79.7075
79.196
83.2024
114.389
97.9641
78.1586
77.6334
94.567
105.492
81.9204
76.7822
80.1552
69.6491
73.5395
69.9299
86.7188
75.8752
75.6508
73.6537
74.5382
79.1641
104.04
107.002
106.801
138.03
82.4049
77.474
83.3078
131.325
115.562
94.5482
56.549
66.6681
62.9382
61.5839
50.5632
71.554
73.6826
70.6582
68.7865
68.9711
75.1173
70.5229
81.2302
63.4883
68.1082
66.7859
74.2339
69.0347
75.5685
84.2146
109.111
109.646
76.8415
74.6614
75.6193
83.8353
106.692
90.387
114.372
96.1178
107.72
73.0928
73.0405
72.9393
71.9713
79.0402
73.6129
79.9751
113.884
101.629
81.0771
67.4482
72.616
60.9813
64.5277
68.3702
65.7575
66.9285
53.5776
52.51
46.4081
50.4685
49.7139
47.5007
48.1931
66.0031
68.3745
65.418
68.9755
66.7734
69.6447
50.9295
60.6681
50.6368
52.746
48.2342
61.8311
53.542
53.3165
49.3392
53.2602
54.3701
55.5787
53.8017
69.8842
66.4477
52.7376
55.55
59.3863
55.3531
50.9229
48.957
48.7159
53.0061
51.3227
50.2429
51.6592
52.0384
47.6613
49.4178
49.8908
48.7267
50.4337
69.895
69.3585
79.8971
77.4059
72.0686
75.0843
74.4917
70.6153
79.4527
89.8095
77.4219
74.8956
91.9734
96.1441
67.508
69.1664
67.6691
74.9445
71.0607
70.3723
86.3629
71.1851
81.2727
77.8491
75.1907
75.2788
69.2084
68.8067
51.5426
61.9558
61.9005
63.4376
52.3034
51.5031
49.2668
46.0759
45.2278
45.6179
44.9343
46.3573
52.6075
46.8677
48.3665
44.1861
43.7487
47.8758
45.4131
46.9533
45.9818
46.189
44.6198
46.0626
67.2267
56.2455
72.298
72.6747
47.7476
61.4346
59.4126
79.1729
109.035
84.4001
100.729
115.684
79.0923
72.0088
66.7942
68.1779
68.5978
63.4371
67.1208
58.2805
72.7324
69.1959
70.7733
71.0057
71.1258
68.7418
64.1141
63.2657
63.1599
67.4108
65.4638
68.404
61.0376
62.6196
60.6114
65.361
65.8397
66.1393
60.575
63.2516
56.8128
65.8001
64.9114
64.893
57.5714
55.8329
52.3912
60.041
58.3963
60.0453
50.8459
55.7355
57.0974
63.9297
60.215
62.1001
63.4936
62.8268
62.6765
62.4639
60.1067
61.4885
60.603
58.0472
58.123
60.1465
60.6854
60.9576
59.8123
60.0374
66.3845
65.5123
66.0904
61.3329
62.9784
61.1391
63.5787
64.0406
62.9028
62.6487
62.8656
63.1219
61.0106
63.0019
60.1682
59.6373
59.9253
59.2459
57.4056
66.511
64.6738
59.8304
63.054
63.9834
61.9753
60.7607
64.0501
68.3819
64.3475
60.5072
77.9324
82.2708
87.5594
85.4442
67.9607
60.9245
57.0466
56.6964
64.7941
64.5285
81.3289
63.376
69.8446
66.3261
79.7905
52.5426
60.7422
60.9249
61.4423
47.8251
73.4211
84.7021
68.3472
68.9321
66.7746
69.4703
69.1634
69.8271
59.5263
69.5896
67.0991
78.4148
71.6075
71.6828
65.8229
71.1517
67.9318
68.439
72.2052
72.0308
76.0735
82.1754
86.2385
94.7469
75.7209
83.4614
71.2396
67.2481
71.2671
71.7637
74.7577
73.6826
75.425
74.2653
75.062
74.363
48.3827
47.6522
47.2886
49.8169
50.9117
60.8132
49.5843
52.5387
53.3748
48.9267
53.4148
53.1474
55.4502
53.3854
49.5637
45.9857
49.0589
51.8737
67.0294
63.2961
64.9879
67.2808
69.1651
57.0354
58.0255
57.2526
60.4511
61.9959
68.634
69.0597
69.5958
67.3045
61.942
63.8156
63.6976
66.3032
62.2166
76.3415
73.4487
59.0675
61.2275
67.8238
83.6422
80.8365
70.6657
83.3989
69.9527
66.4248
67.8233
71.1535
73.1091
71.8837
72.1731
69.9509
66.1018
48.7589
58.1884
58.1233
48.7333
46.7217
45.388
47.043
45.7766
42.7635
48.8909
42.7741
47.1294
46.0921
45.6875
44.0665
45.316
44.0843
67.7327
74.07
73.8679
70.3297
70.0385
77.934
98.95
86.2494
89.3045
104.891
82.778
72.3006
75.4805
100.378
120.676
94.1734
108.516
75.8093
