# vtk DataFile Version 4.2
vtk output
ASCII
DATASET POLYDATA
POINTS 642 double
-181.411 304.272 21.3847
184.796 306.265 20.549
-175.511 -301.633 -1.51236
181.469 -306.305 -2.25988
0.839131 -201.579 339.511
0.0318167 209.748 328.81
-0.269951 -202.176 -339.629
-1.11263 199.418 -338.86
311.605 -0.271082 -212.248
316.941 0.386238 207.61
-305.882 -1.35904 -211.627
-314.544 5.27782 203.61
-296.444 188.691 125.221
-194.927 120.392 318.657
-118.1 316.934 198.202
119.711 317.269 198.768
-0.209081 361.544 20.629
116.057 284.598 -200.226
-111.296 283.095 -197.621
-194.3 118.942 -326.509
-271.348 168.407 -130.89
-323.426 -1.29465 9.90647
195.717 122.402 319.133
301.567 191.08 126.676
-189.726 -116.573 318.366
0.261281 -5.97197 396.506
-276.028 -168.771 -132.245
-273.72 -169.837 119.009
-0.61492 0.449632 -407.036
-195.96 -121.203 -327.513
278.778 171.903 -135.655
198.678 121.655 -329.53
280.184 -173.183 118.9
194.141 -117.315 322.126
110.283 -290.847 188.288
-107.999 -288.528 187.678
0.70592 -371.718 -1.50521
-109.92 -287.215 -191.531
109.949 -292.244 -189.408
198.676 -121.674 -329.534
273.228 -167.863 -130.172
330.589 0.153026 9.11602
-246.647 257.193 76.4126
-221.847 265.542 165.551
-161.169 328.526 108.506
-268.782 62.7882 271.697
-260.908 162.712 230.118
-321.332 96.8302 171.262
-62.0617 275.119 277.387
-163.697 230.275 270.612
-103.197 170.512 336.662
-61.7757 367.045 109.962
-96.2402 347.532 21.0061
62.747 274.943 277.43
-0.0119228 334.396 209.725
98.009 347.471 20.4417
61.9707 366.695 110.076
163.615 329.821 108.401
-47.6229 316.196 -85.4196
-140.791 274.496 -91.5529
146.107 283.71 -94.338
49.9338 316.518 -84.5089
-62.7324 256.136 -275.625
-0.517693 293.577 -205.178
65.3862 256.109 -274.988
-205.741 237.908 -170.44
-234.699 230.426 -48.5705
-102.353 167.994 -348.796
-160.192 219.169 -272.084
-300.199 90.0985 -174.816
-254.303 155.416 -232.578
-266.462 59.4692 -275.934
-285.701 184.863 24.3668
-325.003 -0.793832 -110.832
-314.628 91.8935 -69.7752
-324.36 97.9702 78.6113
-328.835 9.0052 117.731
225.531 267.143 167.86
251.463 260.15 75.6579
104.929 171.574 337.84
166.659 231.759 272.717
320.035 102.727 171.168
264.608 166.405 231.851
268.509 61.6891 272.315
-104.791 61.1205 373.028
-0.0460504 103.066 369.699
-263.623 -57.644 270.08
-204.11 0.31439 335.503
0.838205 -109.41 388.22
-102.784 -64.9365 378.999
-98.4529 -166.124 341.68
-314.645 -84.0575 70.0153
-303.332 -85.6875 172.66
-303.874 -94.1177 -177.26
-307.157 -85.0737 -74.1162
-232.932 -244.717 58.8729
-278.728 -180.984 2.03366
-229.928 -244.735 -56.8639
-207.972 -0.34025 -346.933
-267.671 -61.1571 -276.394
-1.29507 108.159 -391.18
-106.422 65.125 -390.833
-103.725 -170.454 -349.784
-106.904 -64.8938 -389.749
-0.594207 -108.538 -389.647
164.556 222.434 -274.62
105.831 169.449 -349.239
239.798 230.138 -49.8685
211.991 241.513 -174.822
272.189 63.5171 -278.633
262.477 160.037 -235.353
310.22 95.3131 -179.32
238.201 -248.516 57.8321
206.902 -244.119 160.264
151.903 -308.66 93.5556
268.453 -59.7547 274.379
253.912 -151.913 231.262
307.929 -87.1418 174.878
58.0752 -254.786 274.015
158.34 -215.681 269.393
99.6728 -166.389 342.869
56.5595 -343.858 91.3875
95.3143 -353.237 -2.59072
-57.3105 -254.086 273.73
0.891056 -307.51 199.474
-91.9638 -351.129 -2.14962
-54.4152 -342.427 91.0024
-148.366 -305.335 93.2752
58.2334 -351.696 -97.412
151.61 -314.998 -94.8398
-146.84 -310.678 -94.6824
-55.6792 -350.351 -97.124
63.6341 -256.252 -279.5
0.523611 -312.843 -193.977
-65.096 -257.631 -279.388
206.88 -238.824 -167.244
236.58 -250.301 -57.0718
104.644 -169.612 -349.296
164.394 -221.967 -275.103
309.824 -94.9901 -181.515
263.618 -160.296 -235.211
272.286 -63.5799 -278.558
286.115 -185.813 0.842207
331.301 0.0766117 -112.698
313.279 -84.2163 -70.4749
322.168 -88.4687 69.746
335.196 3.80084 113.035
105.159 -64.7187 381.114
206.59 -2.04243 339.716
106.581 60.0028 374.589
-203.006 -240.407 159.922
-155.698 -214.689 267.954
-249.574 -150.853 227.439
-162.766 -222.715 -274.502
-208.371 -238.997 -173.553
-258.711 -159.401 -233.705
208.896 0.00326483 -345.217
107.698 -66.1388 -389.509
107.588 66.1796 -389.52
329.615 100.437 76.723
321.499 92.9635 -70.5499
291.201 188.186 22.1736
-215.374 284.193 47.9717
-207.936 295.885 93.7951
-173.498 318.976 64.5796
-264.786 230.131 145.555
-240.091 266.236 121.125
-274.021 225.466 101.941
-142.857 328.234 152.098
-194.693 301.826 138.509
-172.421 294.912 183.858
-296.401 33.2882 239.463
-298.931 81.0457 222.716
-323.054 51.335 189.083
-231.489 143.393 277.995
-267.291 113.741 254.001
-234.797 92.0673 298.515
-310.514 144.43 148.326
-293.957 131.11 201.125
-283.229 177.809 176.021
-31.2127 244.642 307.483
-83.3165 226.162 309.816
-52.0534 192.032 334.284
-142.172 277.653 237.416
-114.637 255.781 276.116
-91.0486 299.366 240.804
-150.405 146.681 331.538
-135.292 202.599 307.125
-181.471 177.015 298.205
-244.157 216.849 200.418
-216.077 199.061 253.841
-195.558 251.367 221.579
-129.081 343.424 65.3506
-140.99 328.857 20.9151
-91.5725 348.259 153.883
-112.315 351.829 110.593
-49.6409 358.652 20.8994
-79.5457 360.943 66.0896
-30.9959 369.378 66.0147
31.5262 244.573 307.504
0.000755515 278.905 280.427
61.0303 330.454 207.235
31.939 309.163 246.282
92.2234 299.409 241.061
-31.8193 309.179 246.28
-60.6484 330.571 207.204
143.816 329.774 19.9313
131.332 344.024 65.045
176.687 320.633 64.173
30.6738 369.03 66.0468
80.4412 360.622 66.0119
49.8129 358.328 20.5254
144.516 328.616 152.623
113.69 351.946 110.599
92.2971 348.097 154.037
-32.0716 357.739 159.518
32.0732 357.703 159.566
-0.14778 371.662 111.204
-121.965 322.325 -18.4073
-161.356 301.213 -18.4347
-27.7745 345.906 -23.1912
-73.1336 338.79 -19.6987
-129.947 282.308 -161.731
-92.8876 294.39 -88.7952
-82.178 298.871 -159.52
162.596 303.606 -22.5829
125.874 322.122 -22.0194
86.2227 298.045 -159.655
101.251 293.514 -88.5468
135.215 283.448 -161.526
74.8684 338.538 -20.7899
27.9987 346.112 -23.537
-32.8778 229.849 -309.859
-0.301069 257.732 -276.88
33.1323 229.571 -308.649
-59.5685 292.647 -203.662
-32.7373 280.593 -240.427
-89.1362 275.024 -237.409
93.1689 276.9 -238.495
33.6592 280.22 -240.174
62.3023 291.415 -204.947
-0.167582 322.895 -85.5191
29.784 304.97 -156.31
-30.6545 306.538 -156.747
-188.115 254.009 -69.3423
-208.255 272.819 -2.93811
-161.059 264.453 -186.433
-177.567 259.952 -147.972
-249.008 208.183 -96.7838
-222.016 230.704 -123.091
-242.873 206.539 -149.772
-52.6554 186.109 -347.671
-83.5964 216.224 -315.722
-179.308 172.123 -303.304
-133.934 196.109 -313.286
-149.989 145.327 -341.693
-112.679 241.086 -276.64
-137.324 257.791 -236.052
-305.949 45.5405 -195.959
-290.956 77.7152 -227.196
-291.95 28.5147 -243.986
-266.317 163.785 -182.218
-281.342 124.094 -205.999
-289.913 130.349 -151.762
-233.467 90.0748 -304.15
-263.231 110.297 -256.597
-228.626 139.48 -281.541
-187.831 234.187 -222.032
-211.263 190.371 -255.353
-232.487 201.54 -203.147
-240.471 251.076 20.497
-262.147 170.575 -53.8251
-256.27 217.326 -11.0689
-270.239 222.237 49.6174
-294.014 189.541 76.1659
-313.275 -1.42207 -163.857
-316.369 46.3424 -142.996
-310.83 45.7365 -34.6592
-322.334 45.4574 -96.2975
-322.445 -3.65381 -65.5809
-311.853 90.1319 -120.297
-300.915 122.348 -99.6636
-333.184 53.278 148.516
-328.716 9.10132 163.897
-314.932 143.893 103.949
-325.559 98.2786 127.21
-331.262 4.89423 66.2846
-330.332 53.1409 100.288
-327.795 49.7615 49.9715
-301.873 127.526 -19.7501
-316.437 97.7878 13.6341
-310.168 143.728 49.4312
211.571 298.302 93.2652
219.559 286.722 47.585
175.142 295.971 185.399
197.219 302.938 139.307
279.089 228.076 102.197
243.975 268.178 121.896
269.107 232.209 147.788
53.0855 191.986 334.226
84.9651 226.162 310.439
183.815 179.538 300.057
137.538 203.835 308.947
151.462 148.73 332.601
116.742 256.059 277.12
144.658 278.367 238.636
319.881 50.5973 191.665
298.906 83.5558 222.861
296.475 29.8801 240.537
288.333 181.249 178.282
296.809 135.658 202.015
315.343 148.831 149.426
235.033 92.9469 298.631
268.718 117.107 254.354
233.665 146.735 279.203
199.16 253.205 223.734
219.622 201.833 256.203
248.709 219.676 202.921
-54.8416 139.173 356.215
-0.00126165 158.778 350.032
-152.335 93.7218 350.609
-106.9 117.094 358.087
-0.0956804 47.0396 386.909
-54.6969 80.9659 374.259
-53.0409 27.1684 388.975
-292.198 -26.1812 238.258
-269.177 2.69937 273.936
-199.706 -59.4392 331.43
-236.444 -29.7013 306.754
-229.266 -87.5601 296.778
-238.193 32.9706 306.878
-202.921 61.6193 331.087
0.820361 -158.605 367.626
-48.8572 -139.81 369.29
-47.1884 -185.838 343.421
-50.6531 -35.868 392.541
-49.6721 -87.8008 386.58
0.693316 -59.1131 399.477
-145.947 -143.083 333.574
-102.229 -117.131 364.778
-149.083 -92.666 353.589
-156.547 31.1038 359.983
-155.764 -32.9012 362.605
-105.261 -2.44718 383.042
-319.811 -37.773 146.044
-312.377 -40.7415 190.16
-323.485 -39.5217 42.6717
-327.032 -39.4538 92.5354
-289.122 -127.754 148.593
-311.318 -85.3109 121.618
-297.693 -129.001 95.0025
-307.422 -48.9613 -196.292
-316.194 -48.4634 -145.113
-295.586 -131.198 -105.236
-309.897 -91.223 -129.03
-292.855 -134.286 -156.498
-323.332 -41.765 -96.0665
-320.599 -39.0978 -35.8357
-205.935 -273.826 28.9382
-233.883 -246.699 0.933086
-204.648 -275.513 -29.094
-278.624 -178.159 60.3848
-258.472 -213.57 31.1641
-254.463 -209.578 87.7522
-253.174 -204.306 -95.7703
-257.802 -213.772 -27.9545
-276.683 -174.801 -63.0735
-311.567 -87.3244 4.7644
-296.261 -136.168 -33.3304
-297.898 -135.472 35.4409
-271.648 -0.703395 -281.523
-292.836 -30.5005 -244.024
-203.965 60.4739 -340.859
-239.718 30.3238 -314.39
-235.016 -91.9527 -304.893
-240.53 -31.4114 -314.867
-204.55 -61.2019 -340.865
-1.25929 156.79 -368.545
-54.303 140.188 -375.94
-55.8555 33.7834 -405.299
-55.3562 87.5599 -396.081
-0.96841 56.1094 -404.321
-106.181 118.477 -374.287
-153.251 94.2168 -363.694
-53.5384 -188.476 -348.314
-54.9457 -141.59 -375.257
-0.422773 -158.441 -368.174
-154.076 -95.1804 -363.645
-107.071 -119.883 -373.988
-151.541 -147.716 -342.785
-0.565845 -55.3274 -403.309
-55.5615 -87.4396 -394.469
[...]
POINT_DATA 642
SCALARS Mean_Curvature double 1
LOOKUP_TABLE default
0.00734656
0.00731339
0.00613268
0.00673366
0.00940116
0.00534144
0.00469348
0.00524714
0.00669481
0.010893
0.00874669
0.00667671
0.0103925
0.00587021
0.0053907
0.00535362
0.00509663
0.00870621
0.00760547
0.00612056
0.00365071
0.00186199
0.00552
0.00979815
0.00597102
0.00544528
0.00445198
0.00403922
0.0030354
0.00630449
0.0032599
0.00657143
0.00451927
0.00622858
0.00455146
0.00435918
0.00989398
-0.000906414
0.00224967
0.00655894
-0.00149327
0.00244017
0.00498172
0.00522715
0.00794961
0.00645216
0.00531121
0.010356
0.00618344
0.00540341
0.0056007
0.00977052
0.00687027
0.00564793
0.00482491
0.00628796
0.0093744
0.00818466
0.00186977
-0.0043638
0.00524589
0.00129769
0.00654602
0.00326729
0.00496754
0.00709537
0.00249386
0.00637652
0.00597355
0.00342118
0.00824971
0.00564023
0.0034061
0.00787867
0.008872
0.00415948
0.00047635
0.00545092
0.0056553
0.00634302
0.00578334
0.00791067
0.00603378
0.00438693
0.00497918
0.002023
0.00606599
0.00601201
0.0081174
0.0061356
0.00588686
0.00331967
0.00630579
0.00643899
-0.00295027
0.0064511
0.00464687
0.00405063
0.00738101
0.00520044
0.00522817
0.00648614
0.00662613
0.00565395
0.00408089
0.00595558
0.00713786
0.000200861
0.00777058
0.00651546
0.00774886
0.00709624
0.00500944
0.0041217
0.00496611
0.0064038
0.00653754
0.00516063
0.00479122
0.00601326
0.00526808
0.00361765
0.00741452
0.00517634
0.00615215
0.00791357
0.00339581
0.00511271
0.00679148
0.00661332
0.0060794
0.00701111
0.00797781
0.00529926
0.00795275
-0.000551535
0.0049372
0.00585293
0.0062855
0.00809145
0.00848024
0.00636412
0.00554026
0.00811969
-0.00143149
0.00522504
0.0054671
0.0058391
0.00652245
0.00523091
0.00384144
0.00628991
0.00648179
0.00608448
0.00429103
0.0083964
0.00453365
0.00647778
0.00636186
0.00424148
0.00831365
0.00364624
0.00603331
0.00605485
0.00593358
0.00869964
0.00979221
0.00697361
0.0071651
0.00939632
0.00496682
0.00722941
0.00515845
0.00978639
0.00558417
0.00554642
0.00623016
0.00789918
0.00477653
0.0044582
0.00645438
0.00525067
0.00404196
0.00567864
0.00564351
0.0060798
0.0056105
0.0052567
0.00554288
0.00481565
0.00550411
0.00533547
0.00631296
0.00679673
0.00679628
0.00851439
0.00679007
0.00628246
0.00658678
0.00624769
0.00515433
0.00565834
0.00647276
0.00570654
0.00654579
0.0059732
0.00650375
0.00627381
0.00605078
0.00617495
0.00578056
0.00623261
0.00661663
0.00820292
0.00641012
0.00637855
0.0063943
0.00823079
0.00499543
0.0046665
0.00438484
0.00421602
0.00579554
-0.00721674
0.00709511
0.00515401
0.00536477
0.00576321
-0.0098197
0.00412331
0.00363552
0.00464479
0.00485761
0.00408512
0.0034264
0.00639278
0.0068673
0.00858369
0.0100664
0.00613426
0.00490097
0.00273186
0.00198636
0.00404742
-0.00491772
0.00371359
0.00815286
0.00576127
0.0102135
0.00496586
0.0063868
0.00624936
0.00636402
0.00587058
0.00617091
0.00631632
0.00611032
0.00775797
0.00572475
0.00893399
0.0072583
0.00561317
0.00733998
0.00447519
0.00589047
0.00657558
0.005958
0.00779073
0.00658667
0.00706424
0.00557197
-0.0109417
0.00635404
0.00572528
0.00579482
-0.000210149
0.00454876
-0.00858415
0.00730201
0.00335857
0.00721207
0.00610307
0.0119711
0.0107838
0.00662717
0.00511644
0.0066337
0.00307421
0.00358498
0.00236173
0.00450554
0.00558719
0.00667149
0.0062761
0.00518824
0.00820911
0.00686056
0.0088064
0.00827942
0.00345727
0.0050183
0.00613036
0.00574455
0.00586473
0.00546518
0.00561732
0.00765906
0.00466377
0.00459173
0.00563466
0.00579989
0.00974486
0.00488541
0.0054127
0.00610678
0.00561776
0.00605886
0.00547995
0.00338137
0.00203658
0.00612555
0.00616711
0.00390463
0.00212924
0.00563875
0.00581015
0.00456534
0.0059651
0.00614369
0.00566264
0.00559764
0.00628922
0.00817166
0.00539034
0.00535164
0.00408268
0.00513239
0.0103215
0.00631966
0.00605975
0.00615518
0.00474194
0.00634891
0.00696559
0.00168042
0.00819863
0.00274178
0.00751411
0.00266613
0.00413118
0.00400793
0.00579394
0.00408364
0.00354199
0.00636815
0.00635506
0.00947127
0.00308557
0.00377061
0.0048977
0.00466381
0.00530998
0.00405646
0.00420011
0.000679051
0.00494293
0.0026673
0.00162997
0.00348004
0.00307334
0.00754564
0.00721036
0.00599883
0.00517597
0.00575996
0.00577203
0.00526062
0.00492123
0.00655407
0.00592889
0.00662221
0.00509745
0.00655908
0.00639109
0.00604788
0.00613675
0.00421192
0.00594054
0.00647579
0.00653017
0.00457887
0.00559382
0.00587966
0.00583606
0.00681507
0.00661724
0.007183
0.00394326
0.00796456
0.0064571
0.00660996
0.00626729
0.00615643
0.00381297
-0.00941139
0.00654938
0.00443647
0.0111788
0.00416682
0.00935495
0.00715189
0.00930691
0.00701134
0.00611249
0.00629457
0.00644331
0.00550257
0.00926253
0.0080888
0.0084319
0.00885271
0.00623353
0.00473206
0.00514309
0.00421844
0.00398858
0.0047321
0.00415742
0.00509154
0.00499453
0.00439456
0.00674551
0.00780077
0.00895133
0.00645091
0.00687902
0.00640741
0.00282396
0.00630485
0.004077
0.00699583
0.0051498
0.00602087
0.00450012
0.00567941
0.00433316
0.00612154
0.00614874
0.00616504
0.0044699
0.0062876
0.00460195
0.00417226
0.00658152
0.00475302
0.00416569
0.00843475
0.00551768
0.00709102
0.00613418
0.00677239
0.00439336
0.00454904
0.004098
0.0049728
0.0045737
0.00679068
0.00391673
0.00395242
0.00721428
0.00564244
0.0086732
0.00498551
0.00419967
0.00503674
0.00438112
0.00444033
0.005594
0.00541392
0.00499727
0.00561951
0.00473759
0.00558804
0.00674466
0.00626978
0.00446242
0.00465439
0.00605339
0.00654039
0.00508056
0.00460788
0.00605776
0.00581345
0.00567666
0.00516139
0.00477699
-0.00167357
0.00298064
0.0088297
-0.00216529
0.00414537
0.0064454
0.00685635
0.00666289
0.0059671
0.00518263
-6.5211e-05
0.0050444
0.00389073
0.00432218
-0.000807802
0.00609892
0.00586355
0.00618026
0.00630635
0.00667343
0.00650344
0.007849
0.00753335
0.0100553
0.00695024
0.0103281
0.0118664
0.00582875
0.00640347
0.00586287
0.00598407
0.00904948
0.00631594
0.011043
0.0055191
0.00455375
0.00573593
0.005402
0.00337225
7.10109e-05
0.00355679
0.00193846
0.00985863
0.00139178
0.00535068
-0.00103911
0.00462241
0.00471516
0.00656479
0.00302508
0.00534715
0.00419392
0.00384148
0.00511706
0.00119803
0.00283704
0.00595067
0.00636162
0.0052558
0.00576769
0.00361468
0.00635616
0.00441202
0.00557246
0.00656933
0.00689225
0.00290395
0.00432757
0.00167064
0.00610299
0.00467049
0.00723983
0.0059244
0.00807592
0.00568093
0.00410939
0.00474869
0.00449519
0.00366419
0.00581546
0.00612724
0.00638922
0.00632725
0.00450578
0.0071354
0.00494836
0.00755905
0.00579757
0.00601781
0.00504394
0.00637069
0.0052931
0.00680721
0.00811416
0.00681016
0.00635353
0.00601316
0.00510015
0.00415148
0.00104526
0.00305134
0.000164338
0.00912768
0.00600635
0.00640223
0.00846276
0.0076661
0.0102771
0.00984599
0.00622257
0.00395217
0.00701248
0.00513653
0.00514526
0.00701072
0.00574703
0.00591917
0.00447649
0.0065451
0.00701028
0.00433993
0.00698659
0.00701253
0.00475623
0.00590949
0.00541861
0.00476434
0.00544341
0.00122142
0.0036902
0.0057896
0.00700713
0.00726978
0.00269808
0.00506142
0.00458145
0.00745047
-0.00668195
0.00547534
0.00602229
0.00616868
0.0082033
-0.0110915
0.00430844
0.00217802
0.00492322
SCALARS CoVolArea double 1
LOOKUP_TABLE default
1775.01
1820.15
1917.93
1918.05
2070.84
2340.5
2332.06
2347.04
2000.85
1902.86
1855.48
1873.16
2388.86
2947.46
2959.88
3003
2502.25
2212.99
2176.24
2977.61
2934.68
3163.3
3052.3
2422.32
2861.23
3049.43
2588.75
2693.27
3339.94
3017.7
2883.58
2981.94
2764.79
2883.88
2828.53
2814.65
2349.36
3130.09
3085.73
2982.44
3050.03
3183.04
2323.7
2953.45
2398.38
2700.8
3076.26
2344.07
2815.86
3129.94
2889.94
2685.52
2240.68
2864.27
3144.98
2340.28
2724.34
2446.98
3538.85
3787.72
3384.73
3785.19
2639.7
2753.23
2720.86
2347.82
2877.78
2808.34
2890.7
2401.1
2678.12
2687.67
3230.48
2297.52
2852.77
2665.49
2338.8
2993.99
2361.29
2883.9
3126.74
2514.84
3040.06
2877.29
3198.33
3318.72
2661.31
3080.14
2739.8
3154.38
2793.35
2819.26
2351.38
2237.3
3265.74
2377.9
2782.06
2752.63
3163.54
2730.66
3045.62
3244.49
2829.68
3289.05
3116.62
2961.08
2848.03
3282.78
2341.21
2778.69
2784.1
2311.57
2465.76
2933.66
2586.29
2631.5
2776.42
2444.59
2678.81
2900.68
2852.46
2892.55
2394.39
2650.05
2894.44
2338.76
2873.05
2544.11
2701.53
2420.4
2547.24
2662.8
2745.08
3211.15
2649.05
3219.51
2495.84
2873.2
2840.39
2096.57
2624.42
2794.19
2673.71
2405.27
3440.25
2799.82
2506.82
3176.27
3081.36
3226.75
2878.09
2818.97
2702.2
2874.01
2718.9
2697.99
3315.56
3306.39
3306.44
2668.7
3018.41
3228.3
2256.98
2363.2
2271.94
2714.89
2344.1
2201.92
2596.99
2507.61
3032.84
2536.26
2646.55
2195.25
3036.83
2760.6
2711.98
2375.64
2730.07
2889.3
2749.66
2889.35
2891.6
3080.48
2859.56
2766.7
2783.9
2882.16
3087.88
3429.57
3458.48
3477.52
2371.51
2129.8
2909.61
2443.32
2255.7
2350.88
2586.19
2779.4
2853.32
3103.96
2859.04
2815.94
2835.89
3068.47
2193.87
2417.67
2297
2617.56
2413.91
2319.76
2646.4
2492
2951.16
3328.07
3345.96
3046.87
3012.64
2925.21
2901.62
2920.18
2733.52
3799.78
2972.23
2865.45
2882.65
3214.04
3743.39
2648.65
3024.38
2945.24
2759.89
2832.09
2852.08
2413.56
2540.59
2338.65
2343.23
2591.48
2535.43
3699.3
3580.03
3395.61
3804.76
2813.16
2249.13
2838.75
2696.62
2678.49
2396.78
2755.96
2750.57
3000.84
2767.53
2792.28
2625.78
2596.11
2350.43
2433.86
2382.95
2471.38
2360.52
2313.19
2762.04
2583.71
2943
2910.04
3155.56
2846.34
2445.37
4100.8
2817.2
2355.32
2393.27
2501.91
2454.72
3747.99
2518.42
2667.01
2243.35
3082.81
2085.6
2093.83
2437.01
2223.4
2438.95
2309.08
3210.21
3650.97
3435.5
2943.92
2417.14
2260.01
3070.52
2587.25
2287.98
2443.71
2763.61
2925.03
2916.63
3070.77
2862.14
2800.52
2893.41
3113.09
2503.74
2785.54
2632.04
2851.37
2681.33
2314.87
2864.12
2842.8
3057.13
3481.18
3433.86
3409.02
3151.16
3122.7
3088.63
2931.34
3095.34
3128.36
3188.97
2505.37
2747.52
3004.75
2766.52
2657.3
2779.73
3055.06
2631.52
2842.59
2663.55
3120.71
2864.73
2748.68
2697.74
2872.22
3027.96
3503.49
3450.15
3517.34
2429.88
2254.73
2854.38
2477.34
2446.51
2532.58
2770.42
2314.65
2382.53
2820.59
2370.9
2153.29
2372.08
3120.09
2366.51
2402.14
2352.7
2671.62
2379.81
2455.68
2921.07
2627.91
2955.66
3652.72
3488.29
3212.46
2734.21
2397.82
3135.09
2835.23
2805.41
2848.14
3167.38
2917.91
2928.11
3318.57
2990.06
3067.86
2904.6
3161.59
2813.68
3001.11
2948.66
3205.33
2953.79
2818.6
3119.89
3075.23
3351.41
3594.16
3646.39
3607.9
2802.78
2898.78
2586.03
2638.58
2786.72
2769.15
3053.51
3029.7
4068.78
2365.08
2954.85
2731.68
2846.12
2245.58
2541.5
2453.45
2378.56
3021.7
2668.45
2779.11
2254.14
2343.05
2426.01
2941.82
2868.67
3269.98
2393.55
2552.49
2448.11
2901.2
2593.19
2527.15
2584.82
2604.93
2907.29
2447.44
2441.25
2223.03
2856.85
2559.32
2653.01
2553.99
2478.55
2826.16
2542.52
2777.28
2648.06
2918.87
2713.81
2676.28
2768.3
2750.94
2911.45
3213.9
3183.16
3254.72
2556.18
2351.18
2918.63
2658.56
2274.92
2483.29
2555.16
2548.94
2625.63
2917.57
2672.5
2653.14
2667.52
2914.47
2312.95
2505.76
2409.93
2536.28
2437.54
2225.77
2561.1
2627.07
2894.4
3269.07
3262.05
3161.29
2440.57
2325.58
2634.23
2455.69
2689.42
2442.97
2814.1
2324.56
2430.3
2891.97
2467.95
2760.79
2418.8
2603.96
2683.69
2908.07
2690.85
3129.55
3184.2
2805.62
2687.01
3111.66
3179.49
3010.43
3100.24
3086.09
2490.44
2338.61
3287.68
2844.88
2860.33
2907.58
3076.6
2839.46
2773.58
3043.06
2799.37
2808.26
2628.5
2944.88
2336.39
2417.99
2543.45
2469.31
2155.47
2323.48
2787.96
2672.06
3031.55
3205.96
3123.05
2966.23
2405.35
3022.87
2426.24
2423.9
2743.45
2575.87
2386.53
3202.99
2480.67
2735.45
2556.4
3305.8
2471.58
2352.74
2769.89
2571.53
2424.72
2473.29
2945.69
3511.69
3630.62
3139.41
2843.53
3065.15
2935.3
2873.23
3148.73
2771.86
3197.02
2865.91
2747.2
2990.99
3186.47
3249.44
3197.28
2973.63
3187.52
3404.43
3491.26
3490.11
2472.86
2876.31
2572.17
2537.14
2817.74
2729.68
2861.05
2671.9
2635.5
2859.98
2460.88
2678.51
2382.59
2564.26
2843.73
3155.65
3100.99
3074.05
2734.64
2826.84
2551.59
2782.71
3038.11
2716.36
2685
3002.01
2861.65
2991.31
2442.06
3001.11
2647.8
2294.51
2364.36
2949.52
2750.17
3172.8
2930.24
3171.65
2963.94
2961.8
3171.34
3052.89
3388.44
3109
2953.75
3154.01
3066.5
3147.6
2946.74
3086.86
3380.68
3707.99
3759.9
3709.41
2581.28
3108.43
2449.85
2344.46
2413.36
2510.32
3215.73
2357.38
2642.57
3654.5
2531.07
2461.67
2385.14
2812.87
4028.41
3483.61
3822.97
3046.04
SCALARS SignedDistance double 1
LOOKUP_TABLE default
235.37
231.105
218.517
209.049
169.674
171.606
169.909
176.242
212.053
203.057
220.445
208.786
218.008
164.917
168.814
166.718
227.08
230.568
233.078
168.612
245.446
253.987
163.414
209.416
176.22
166.129
242.928
228.388
149.223
162.831
236.513
157.956
218.626
169.385
199.457
203.66
191.776
210.36
202.251
157.943
232.211
243.968
224.527
187.315
203.894
175.996
180.922
213.529
161.351
166.485
167.702
197.433
230.386
161.402
163.603
228.119
196.901
199.672
262.972
260.729
260.285
259.466
202.852
236.789
202.961
239.04
264.094
163.822
195.023
227.201
212.3
189.294
246.19
247.147
266.264
238.732
230.682
180.788
217.71
168.32
161.8
206.319
173.463
175.893
168.729
175.619
188.695
166.826
153.735
158.805
169.74
243.261
223.894
227.043
247.666
225.095
235.892
227.261
159.588
186.707
152.76
145.693
157.991
146.565
152.558
187.321
161.966
258.454
230.782
178.383
200.098
221.304
216.016
207.183
205.962
180.458
200.164
213.777
188.36
189.442
167.73
202.674
199.022
190.773
197.179
205.075
205.303
211.957
191.472
202.228
211.302
196.041
191.034
194.406
192.132
219.95
217.064
159.845
186.247
222.816
201.078
178.453
226.617
239.362
242.135
230.961
224.855
156.384
161.096
168.372
214.203
194.027
207.169
186.571
231.541
206.398
156.779
146.689
146.635
229.914
257.295
239.647
230.035
213.852
219.938
203.559
209.84
220.853
184.368
196.91
176.726
191.285
189.561
209.464
170.919
177.858
168.326
214.348
193.342
195.197
164.977
165.998
172.052
166.378
163.685
162.48
164.588
165.124
165.99
182.348
171.745
173.075
216.233
232.65
179.308
199.173
228.918
213.502
212.8
164.962
161.584
163.753
159.979
161.534
159.991
163.763
229.57
213.39
215.632
211.743
212.107
227.23
180.366
196.951
178.331
174.528
174.494
196.984
243.598
245.714
242.017
242.195
244.118
259.657
249.427
243.631
241.926
243.962
255.201
237.887
239.67
240.72
188.939
204.842
189.025
235.78
223.076
219.001
219.21
222.706
234.633
262.978
251.636
255.508
260.486
244.835
234.912
247.144
264.43
254.966
244.279
170.497
180.569
179.267
177.29
163.799
196.126
215.735
221.915
213.381
205.751
229.989
221.186
236.224
177.192
198.993
187.862
219.799
201.4
224.913
241.884
259.712
253.208
236.827
232.592
228.159
234.768
258.801
252.1
260.208
246.017
254.887
228.059
226.256
229.324
227.388
244.342
235.055
246.194
262.267
255.088
244.361
208.046
224.37
172.272
190.185
212.652
201.688
194.905
172.015
165.479
161.32
162.388
162.572
161.709
163.091
206.967
189.459
188.214
186.696
186.981
205.906
168.212
175.581
166.622
167.063
164.748
174.467
173.954
174.874
163.581
168.908
172.351
174.183
170.67
197.756
183.395
170.565
175.302
182.012
173.045
164.507
159.732
161.686
169.791
162.554
158.161
157.088
171.811
161.974
165.09
164.206
162.087
161.925
225.72
218.158
249.51
239.798
226.36
232.63
236.278
222.117
233.341
248.287
239.835
234.54
251.028
252.689
222.41
226.913
222.577
233.939
230.922
226.628
236.656
231.48
239.624
244.218
241.738
241.191
189.108
206.635
162.425
173.175
172.226
172.912
160.579
162.897
157.598
147.382
148.311
147.733
152.397
154.48
164.912
155.028
159.023
151.201
149.422
157.961
149.464
149.692
146.849
150.258
143.902
149.865
181.524
171.23
210.855
192.808
156.554
171.525
169.634
239.236
253.076
234.895
243.497
253.931
238.185
229.65
197.51
202.651
214.853
175.047
185.555
165.241
228.848
212.19
222.433
212.005
216.936
190.194
212.448
210.313
208.248
212.647
213.062
219.52
203.242
207.188
202.575
189.788
199.73
209.797
184.034
190.621
173.534
215.796
207.224
210.978
179.622
178.471
168.601
196.229
188.471
194.745
167.529
177.919
179.234
205.772
193.935
200.481
205.005
204.256
202.131
203.727
194.199
201.195
197.573
181.079
187.165
199.781
194.952
198.347
193.208
197.868
212.575
211.655
216.867
199.845
205.537
197.66
208.523
208.084
205.32
202.043
203.066
201.82
201.362
206.572
192.51
195.99
199.726
195.75
193.908
216.041
209.214
199.564
203.053
208.589
201.347
195.06
180.73
192.827
180.766
196.113
200.511
205.421
206.423
202.596
200.663
190.71
192.356
190.329
210.395
212.368
210.289
207.638
222.879
215.891
227.898
164.552
174.117
169.475
170.603
156.403
188.728
205.602
215.954
204.154
197.655
223.237
215.28
227.905
165.251
185.928
175.081
208.708
189.919
216.396
216.761
227.673
221.568
220.862
225.744
220.506
225.645
243.666
244.605
252.139
232.029
237.541
218.712
213.992
226.094
221.41
236.253
230.991
236.263
234.182
236.695
233.238
160.3
159.501
159.591
156.716
162.216
175.692
164.192
168.493
167.712
162.075
173.836
170.099
174.017
169.341
163.431
154.843
160.998
159.76
217.711
208.538
213.861
220.222
220.667
180.214
184.22
181.289
192.187
201.296
207.618
220.973
216.544
198.087
190.803
206.871
199.544
213.819
172.903
204.135
187.162
169.757
171.937
220.33
236.756
228.747
218.991
222.646
210.546
180.902
193.259
217.997
227.003
212.572
220.893
193.732
180.733
154.071
166.074
166.074
154.07
154.636
147.516
149.9
150.318
147.925
159.162
147.935
150.795
150.69
146.748
148.756
147.185
148.75
215.193
237.438
227.717
218.489
221.341
224.974
244.556
235.108
243.51
251.001
235.517
224.825
229.959
248.125
254.701
245.376
254.294
235.702
