# vtk DataFile Version 4.2
vtk output
ASCII
DATASET POLYDATA
POINTS 642 double
-115.876 215.696 60.9079
122.492 217.908 59.2886
-105.57 -216.516 -3.09433
117.257 -222.953 -5.21359
2.29523 -145.638 276.345
0.0268911 173.412 250.174
-0.466401 -147.098 -276.37
-2.57652 140.375 -275.364
206.123 -0.456058 -193.911
218.543 3.50772 181.338
-196.183 -2.77087 -192.7
-216.538 22.0544 177.806
-199.024 142.948 126.526
-151.257 93.3675 254.245
-87.4614 249.787 161.03
91.3963 249.619 162.019
0.107626 254.978 58.074
88.4128 173.651 -183.833
-76.6601 175.283 -180.298
-144.299 86.1788 -269.368
-169.151 105.04 -129.386
-195.583 -5.04715 23.6991
152.459 98.732 253.887
208.438 146.267 127.044
-137.662 -82.8531 256.891
0.383983 -17.2366 313.209
-172.927 -109.371 -129.069
-173.939 -115.446 102.071
-1.39441 1.25607 -331.642
-148.19 -92.3043 -270.355
179.571 110.044 -139.343
154.245 91.9577 -273.268
186.723 -118.933 101.189
146.918 -82.8407 262.237
75.9801 -205.903 147.453
-70.2215 -202.609 146.973
2.62772 -275.222 -5.32331
-67.2722 -202.451 -158.681
75.5301 -210.497 -146.27
154.331 -92.0661 -273.191
169.29 -108.536 -122.322
208.596 -2.38107 22.7283
-162.163 186.966 95.4225
-160.833 204.345 140.935
-108.968 242.762 113.036
-202.243 51.5202 217.509
-193.985 124.859 186.053
-219.098 74.4527 160.234
-47.066 220.913 219.659
-124.158 181.718 215.603
-85.771 135.432 262.135
-43.3945 272.106 112.742
-62.4413 246.044 61.3703
48.9245 220.414 219.666
-0.063083 263.328 169.923
67.5396 245.23 59.2935
44.3671 271.521 112.657
115.684 244.131 111.229
-16.2508 198.557 -51.4456
-84.0504 151.093 -69.3268
88.4887 159.698 -74.9147
21.7451 201.022 -50.0404
-51.4789 171.196 -228.209
-2.07353 180.993 -177.444
58.3718 170.824 -227.25
-134.188 144.924 -160.945
-155.899 157.86 -23.2916
-79.6842 121.861 -286.443
-114.568 150.366 -227.007
-193.669 57.305 -157.668
-169.177 101.744 -202.774
-188.473 40.1886 -231.227
-179.548 131.602 57.869
-203.41 -2.35679 -113.666
-198.245 68.1762 -74.8341
-207.203 79.1243 93.5369
-213.011 18.5304 119.958
168.411 206.098 142.89
171.263 190.495 93.2709
89.8078 136.982 262.149
130.828 183.549 218.594
219.039 90.7559 150.523
199.67 133.401 187.556
200.349 47.9871 219.528
-87.4868 42.2658 291.601
-0.125738 76.3038 285.056
-190.404 -35.178 218.71
-155.017 1.57325 268.332
2.30232 -86.3295 314.659
-79.5805 -51.9903 303.739
-71.3201 -121.212 275.802
-196.1 -50.8835 74.6947
-198.317 -47.368 157.255
-194.434 -65.4255 -167.261
-187.819 -49.1581 -77.3439
-146.153 -173.344 47.8738
-171.459 -130.263 4.64534
-141.663 -173.955 -42.8446
-157.006 -1.17916 -287.024
-190.621 -46.352 -231.442
-3.37537 81.025 -319.851
-85.3034 49.9958 -322.722
-83.1443 -128.129 -287.411
-86.963 -49.7964 -320.327
-1.30062 -83.4189 -317.154
125.272 155.976 -229.438
89.0351 124.11 -285.731
166.34 163 -26.7499
145.546 148.183 -169.758
200.657 50.9567 -232.725
185.296 109.17 -205.799
203.671 65.9318 -169.61
156.077 -179.333 43.4522
139.751 -171.58 128.255
102.16 -221.384 69.0894
197.849 -39.4762 225.161
177.021 -97.8768 196.05
208.133 -50.3407 157.786
39.2561 -177.388 222.261
113.173 -147.944 220.671
74.2062 -121.082 277.508
36.276 -248.333 60.0919
59.2517 -260.119 -7.33552
-36.8143 -175.428 222.405
2.58199 -217.817 156.871
-50.1898 -257.29 -6.08567
-30.3217 -246.179 59.9485
-94.5758 -216.7 69.9899
38.2913 -260.64 -74.0981
97.4735 -232.936 -71.536
-87.0017 -226.221 -72.6632
-30.5842 -258.677 -74.0023
52.2677 -175.38 -235.261
1.48442 -232.214 -139.895
-58.0599 -177.421 -233.096
132.661 -163.526 -147.835
152.167 -183.28 -41.0428
85.0503 -125.595 -286.155
126.297 -157.456 -229.961
202.519 -62.9324 -178.107
186.002 -108.019 -209.438
201.145 -51.8043 -232.349
182.66 -138.553 2.51129
213.806 0.255465 -115.842
200.32 -48.9839 -68.4838
209.378 -60.2972 71.7041
223.323 10.2715 110.352
85.5063 -51.112 305.983
159.077 -5.4129 274.677
91.4169 38.8 293.608
-132.231 -165.702 129
-107.466 -146.139 219.46
-169.804 -97.1051 191.251
-120.794 -159.004 -230.087
-135.655 -150.394 -157.982
-176.052 -108.876 -204.498
160.899 0.00763516 -283.96
89.1716 -52.9485 -319.364
88.8263 53.0492 -319.28
216.53 81.1755 90.2114
204.049 64.6954 -73.5091
187.855 136.877 54.9129
-138.934 203.956 75.3044
-138.775 216.718 106.448
-113.535 230.779 85.863
-185.062 173.024 132.943
-163.714 196.067 123.926
-182.979 165.694 115.686
-101.947 251.231 132.874
-135.76 226.273 128.719
-127.502 231.173 151.014
-217.296 33.7969 193.747
-221.186 63.5316 183.184
-223.017 48.7261 170.361
-175.018 110.422 223.432
-200.036 86.87 204.859
-179.019 71.9852 239.329
-209.123 112.054 141.49
-213.642 99.5391 168.172
-203.639 137.406 149.185
-24.0533 199.019 239.271
-66.1414 182.633 241.068
-43.9279 156.391 255.204
-105.956 219.876 190.196
-87.2943 204.473 218.467
-67.6544 237.722 193.549
-119.487 114.754 262.044
-106.201 160.428 242.153
-139.878 138.315 237.775
-180.395 168.948 162.372
-162.327 155.089 203.921
-145.478 197.152 177.634
-84.9305 248.902 87.4537
-91.0222 232.725 61.0509
-65.9328 268.525 133.391
-75.6398 261.153 113.949
-32.9481 253.195 60.082
-52.7842 261.574 89.1053
-22.2964 266.615 88.5814
24.8356 198.881 239.307
-0.0245349 224.107 221.055
46.918 260.574 168.364
24.9122 245.997 197.362
70.8185 237.416 193.868
-24.5779 246.027 197.369
-45.8593 260.956 168.171
97.7743 232.714 58.1143
91.2769 248.97 86.404
120.963 232.198 84.8683
21.8902 266.565 88.1461
55.8382 260.848 88.3542
34.1916 252.867 58.4018
107.136 252.122 132.615
80.4959 260.954 112.898
68.3377 267.818 133.341
-24.5176 277.41 136.776
24.3538 277.16 136.926
-0.451496 274.448 113.545
-76.0522 223.087 34.8957
-102.101 207.51 33.9094
-15.4063 236.315 24.8728
-42.4826 233.72 31.5283
-82.8032 171.064 -161.952
-38.7354 185.142 -63.4528
-51.7794 183.441 -148.689
103.422 210.24 27.3777
85.4177 220.406 28.9509
61.2511 183.407 -146.868
59.4231 178.399 -60.0984
95.3328 172.989 -157.855
46.5409 233.469 29.3252
17.5641 236.723 23.5791
-28.8709 159.003 -252.23
-0.854962 171.193 -228.336
29.0928 159.209 -250.65
-47.8638 180.73 -178.12
-29.4309 175.252 -205.233
-67.0723 174.496 -204.095
77.6551 173.28 -207.603
30.2725 174.3 -206.607
53.3949 176.974 -180.677
1.92552 201.86 -48.5369
22.3382 189.003 -132.694
-22.8793 188.038 -134.507
-138.297 147.301 -38.8564
-135.248 185.314 38.5925
-107.11 162.499 -175.736
-119.864 151.972 -149.464
-156.061 140.424 -91.9455
-156.089 135.468 -113.693
-153.218 129.092 -139.605
-43.8687 132.622 -283.318
-66.6852 152.624 -257.911
-131.622 122.37 -250.611
-100.521 139.656 -257.402
-113.003 105.919 -281.818
-83.7688 164.869 -229.372
-94.9776 166.301 -203.32
-196.616 30.9789 -177.583
-190.924 51.4016 -200.484
-194.313 17.8138 -213.21
-170.207 103.763 -167.601
-182.164 79.6821 -185.364
-186.548 78.5199 -141.24
-170.607 64.2674 -251.245
-180.68 74.8329 -218.411
-163.778 97.4306 -234.767
-126.162 150.505 -194.405
-146.239 128.25 -215.905
-151.404 129.077 -182.175
-153.492 174.799 51.0481
-147.435 116.816 -42.7755
-156.573 167.235 14.4709
-173.274 160.861 76.967
-191.387 140.178 98.4627
-200.635 -2.00929 -147.933
-203.245 32.5154 -130.074
-184.573 41.4521 -34.7536
-199.462 34.0242 -106.194
-192.733 -18.1335 -78.4525
-198.206 55.7049 -113.659
-194.513 63.216 -97.8606
-218.12 51.6052 154.807
-215.817 26.9516 160.407
-204.926 113.338 115.45
-212.735 80.2082 135.972
-209.935 9.89504 80.3482
-212.6 47.1784 109.897
-205.997 40.5003 69.0166
-199.686 80.0925 -2.42358
-193.326 81.6419 30.2321
-196.44 105.832 73.1598
146.777 219.407 104.122
147.487 206.672 74.9992
133.013 231.508 152.814
142.785 228.75 127.377
192.009 169.762 112.624
172.34 199.373 121.306
193.996 176.072 134.049
46.1915 156.434 255.001
70.3807 182.38 241.775
144.575 143.618 239.668
111.701 162.484 244.331
122.039 119.47 262.719
92.6715 204.172 219.91
111.831 220.017 192.185
218.119 43.4767 168.737
216.315 70.4369 184.273
214.764 22.2634 198.038
212.247 143.349 150.914
216.264 112.598 166.756
217.986 121.449 138.066
179.148 74.2925 238.907
200.986 96.0404 204.545
178.665 118.635 223.85
152.926 198.789 181.402
169.269 160.1 206.889
188.585 172.441 166.326
-50.2936 109.316 273.82
-0.0455761 128.563 267.16
-122.707 73.3402 277.352
-91.6206 90.5729 278.761
-0.293823 25.3594 303.123
-49.0171 55.8521 290.081
-44.7154 10.7097 305.503
-206.98 -7.81073 196.104
-197.938 8.63495 219.241
-148.303 -42.1291 266.161
-174.657 -18.5245 246.842
-166.292 -58.8348 239.112
-177.917 29.3705 245.219
-157.029 49.6717 264.375
2.24136 -119.829 298.09
-32.2764 -105.411 297.996
-29.4897 -135.414 277.861
-37.7755 -35.6413 311.57
-33.5427 -70.5494 310.47
1.60434 -55.2699 321.184
-106.168 -103.932 269.397
-76.73 -88.2872 293.794
-111.302 -69.177 284.485
-122.919 22.2374 285.519
-118.763 -26.2354 290.582
-84.2991 -7.3321 305.05
-209.13 -13.862 137.506
-207.867 -12.979 171.349
-198.76 -20.3902 54.7285
-209.352 -17.4071 95.6016
-186.879 -79.3764 133.833
-201.074 -48.5295 114.046
-186.808 -85.8881 88.3008
-196.957 -39.5068 -179.65
-202.365 -34.5967 -135.114
-179.649 -88.2067 -107.498
-195.947 -56.2297 -131.931
-185.988 -87.0392 -154.93
-201.442 -24.8674 -103.197
-196.836 -27.3468 -33.6007
-128.42 -193.508 23.3834
-145.623 -174.455 2.9761
-124.866 -197.212 -21.7785
-173.634 -126.112 54.1645
-160.734 -151.249 28.057
-160.897 -147.028 71.7671
-158.4 -139.207 -83.53
-159.96 -151.574 -19.9417
-170.057 -122.135 -55.1628
-192.14 -58.3159 8.93435
-180.273 -98.3671 -28.0584
-182.139 -96.4911 36.2877
-192.323 -2.30349 -236.102
-194.372 -24.1388 -213.178
-152.805 43.707 -281.435
-175.783 20.1443 -259.539
-174.448 -69.9948 -251.697
-177.461 -23.9244 -259.818
-154.314 -46.432 -280.995
-3.1936 113.897 -299.992
-46.1299 102.52 -307.864
-48.6444 27.3841 -331.603
-47.394 66.6735 -325.257
-2.35135 44.9339 -330.795
-84.0774 87.9645 -308.611
-117.367 70.3707 -300.399
-45.8828 -138.951 -283.804
-47.9815 -107.376 -306.196
-0.764851 -119.431 -299.141
-119.97 -73.8401 -300.093
-86.9658 -92.6031 -307.61
-116.683 -112.039 -282.992
-1.34966 -43.124 -329.113
-48.1891 -67.0059 -322.152
-48.8038 -24.8537 -331.314
-123.825 23.5527 -308.902
[...]
POINT_DATA 642
SCALARS Mean_Curvature double 1
LOOKUP_TABLE default
0.00750263
0.00741286
0.00693702
0.00874759
0.0195886
0.0026963
0.00628981
0.00597753
-0.00172387
0.0137918
0.000724892
0.0147037
0.0151308
0.00928047
0.0107717
0.0101642
0.00657739
0.00689107
0.0155384
0.0098774
-0.00203058
-0.00357545
0.00820528
0.0132133
0.00971103
0.00519511
0.00679037
0.00517804
0.00185364
0.0105675
-0.00346009
0.0115859
0.0072544
0.0107181
0.00657132
0.00651051
0.0275676
0.00396186
0.00975369
0.0111147
-0.00318238
-0.00112991
0.00621535
0.0240462
0.00803358
0.0122943
0.00738089
0.0181748
0.010456
0.00782757
0.00866365
0.015558
0.00899671
0.00880126
0.00603112
0.00725454
0.0133032
0.010203
0.00912174
-0.0142507
-0.00934694
0.0101874
0.0161985
0.00165382
0.014315
0.0123329
0.028987
0.0114802
0.0148779
0.00635545
0.0098326
0.0172542
-0.00441972
0.0129906
0.0762045
0.0054014
0.00334649
0.0183377
0.00763498
0.00722152
0.00894417
0.00331507
0.0104354
0.00624002
0.00488741
0.000841339
0.0135237
0.0105872
0.0175757
0.0111255
0.0100105
0.00130708
0.00321465
0.00939456
-0.00746043
0.00931675
0.00648823
0.00425214
0.0130387
0.0165248
0.00806308
0.0121859
0.0124682
0.00843097
0.00505881
0.0174304
0.0119396
-0.0747005
0.0065628
0.0199728
0.0172517
0.00685091
0.00714562
0.00595963
0.00774918
0.0146322
0.0063197
0.00322938
0.00445128
0.00729463
0.00808682
0.00315216
0.0136055
0.00462013
0.0109079
0.0145677
0.0021323
0.00861663
0.013073
0.0116757
0.00909274
0.0141594
0.012226
0.00747761
0.00996445
0.00167648
0.00674267
0.00819818
0.0177149
0.00771505
0.0260068
0.0202082
0.00862042
0.0134821
0.00152956
0.00605246
0.0113576
0.00982379
0.0107695
0.0043747
0.00559683
0.00815651
0.0104226
0.019071
0.00143312
0.0143038
0.00594931
0.0105187
0.009811
0.0044506
0.019342
-0.00261716
0.00794221
0.00573522
0.00966805
0.0270116
0.00536229
0.00191219
0.0216951
0.0160557
0.0167035
0.0233803
0.0261191
0.0366861
0.00761685
0.00701553
0.0108229
0.00744413
0.0198695
0.0222933
0.0110108
0.00794663
0.00157513
0.0078825
0.0089063
0.00929983
0.00930261
0.00818882
0.00883265
0.0106583
0.00762325
0.00669535
0.0102092
0.00898291
0.0222703
0.00955861
0.00870415
0.00870389
0.00771607
0.0106188
0.0073073
0.00956747
0.0105761
0.00834516
0.0107723
0.0104339
0.00903887
0.00968688
0.0092757
0.00762565
0.00653452
0.00789861
0.0204609
0.0103968
0.0192323
0.0220773
0.0216903
0.00795002
0.00286295
0.002304
0.00526573
0.00279498
0.00229051
-0.00156817
0.0150806
0.0043306
0.00444188
0.0110209
-0.00659013
0.00775396
0.00151634
0.00672762
0.00761723
0.0128707
0.00684988
0.00709959
-0.000566602
0.0103795
0.00769328
0.000165421
-0.00196963
0.00315418
0.00344529
0.00355232
-0.0137898
-0.00377283
0.013073
0.00323642
0.0798863
-0.0770929
0.0103008
0.00789646
0.0127129
0.0120234
0.0113923
0.0105171
0.0179283
0.0112622
0.00446585
0.00842557
0.00689617
0.00471716
0.00548203
0.00893321
0.0119066
0.0136518
0.0156492
0.0124524
0.0129972
0.0102507
-0.0171631
-0.0193395
0.0451447
0.00917594
0.00606583
4.56083e-05
0.0155452
-0.0103333
0.000903697
-0.0154491
0.0274605
-0.0218211
0.000482161
-0.00129508
0.0064526
-0.00124859
0.010128
0.00449569
0.00276253
0.0422315
-0.02849
0.012715
0.00775746
0.00789069
0.0130152
0.0173326
0.00589423
0.0100061
0.021132
0.000721677
0.00739547
0.0105782
0.0100285
0.0111574
0.00840306
0.00808378
0.00142573
0.0156535
0.0129898
0.0232889
0.0173543
0.0187339
0.00715406
0.00782944
0.00953863
0.00797561
0.00986016
0.012022
0.00221722
0.00131018
0.0117778
0.00752027
0.00408786
-0.000135855
0.00561232
0.0165739
0.00702918
0.00932697
0.0104219
0.00857683
0.00517301
0.0121997
0.0173276
0.00758804
0.00761792
0.00431284
0.007612
0.0215664
0.0111203
0.0108895
0.0104213
0.00711485
0.010726
0.0129294
0.00419151
0.00343543
0.000898295
0.0115712
0.0025946
0.00714515
0.00376363
0.0023251
0.0147773
-0.00106417
0.00597774
0.00572945
0.032152
0.0204848
0.00411208
0.00662878
0.00584658
0.00847965
0.00439141
0.00623823
0.00298838
0.00767889
0.0044257
0.00238267
0.00311834
0.000424268
0.0204845
0.00323571
0.00950778
0.00761036
0.0120456
0.00949872
0.00679008
0.00689387
0.00993627
0.00679149
0.0112594
0.00814134
0.0121543
0.0109564
0.00784981
0.0087944
0.0061669
0.0103641
0.0123562
0.0114085
0.00622582
0.0068083
0.00781195
0.00891844
0.0123899
0.0112758
0.010047
0.00420998
0.0154194
0.0223401
0.012045
0.0126156
0.0116059
-0.00319338
-0.0156312
0.0191535
-0.0386455
0.107723
0.0043108
0.00638986
0.00722676
0.0153002
0.0038906
0.0151589
0.018749
0.0129462
0.00456464
0.0119445
0.00565412
0.0147222
0.0111837
0.0174873
0.00669624
0.00796133
0.00510043
0.00568318
0.00573715
0.00462851
0.00754973
0.00689864
0.00649687
0.0205788
0.00964187
0.00682952
0.0117856
0.0116595
0.0122653
0.00405925
0.00605278
0.0036829
0.0106568
0.00661916
0.00918103
0.00522253
0.00675846
0.00509651
0.0104543
0.0103789
0.0104701
0.00443072
0.00738732
0.00501997
0.00314068
0.0103696
0.00645853
0.00634019
0.0178974
0.00698894
0.0128449
0.00748122
0.0100469
0.00625208
0.00554272
0.00430008
0.00751316
0.00606743
0.00993191
0.00261115
0.0034049
0.0125865
0.00755015
0.0184354
0.00675476
0.00749692
0.00722115
0.00511183
0.00548291
0.0105133
0.00664831
0.0063179
0.00983696
0.00494477
0.00808265
0.0124932
0.0107083
0.00449018
0.00437022
0.00998153
0.0110041
0.00586187
0.00416381
0.011381
0.00933302
0.00480261
0.00813431
0.00862077
-0.0040582
-0.0127224
0.0203569
-0.0119785
0.0141082
0.0115232
0.0134003
0.0124073
0.00767778
0.00731186
0.00342693
0.00631785
0.005663
0.00554562
-0.00530301
0.00930671
0.0100162
0.0103216
0.00956609
0.0118679
0.0129033
0.0174015
0.00554985
0.0184372
0.00708176
0.00238779
0.0143334
0.00294453
0.0121262
0.0251975
0.0162321
0.00937445
0.0231071
0.0072206
0.00797296
0.006525
0.00959511
0.00883424
0.00363262
-2.61638e-05
0.0144049
0.0114247
0.0259634
-0.0164397
0.00743325
-0.00534783
0.00791267
0.00238216
0.00833505
0.00706775
0.00248697
-0.00016437
0.00762752
0.0035565
0.000307337
-0.00038484
0.00917266
0.0110368
0.0088739
0.0107227
0.00180781
0.0128647
0.00530346
0.008342
0.0110811
0.0131846
0.00185248
0.00341673
-0.000611976
0.00680814
0.00928519
0.0146048
0.00987275
0.0152035
0.00998485
0.00578719
0.0059616
0.00578533
0.00590266
0.0098379
0.0103418
0.0112584
0.00745453
0.00437216
0.0117752
0.00340646
0.00683612
0.0116733
0.00990377
0.00507783
0.00945386
0.00464315
0.0125956
0.0110849
0.0202154
0.0104374
0.0109963
0.00565639
0.00344326
0.00339755
0.00751528
-0.0125158
0.0130198
0.0167064
0.0165944
0.0116168
0.00690143
0.0103312
0.00902607
0.0192337
0.0136892
0.0122979
0.00632334
0.0064442
0.0123702
0.00928876
0.00821038
0.00463948
0.0104862
0.0142794
0.00512669
0.0141628
0.013095
0.00632018
0.00886
0.00785581
0.00554735
0.0079463
0.000308741
0.00249631
0.0103472
0.0114586
0.00379272
0.00975146
0.00694809
0.0143413
0.00864614
-0.00855827
-0.0165065
0.00678142
0.0111673
0.0707726
-0.0199376
-0.00530519
-0.0295063
0.00928436
SCALARS CoVolArea double 1
LOOKUP_TABLE default
837.792
893.22
1011.19
934.317
879.647
1519.53
1323.2
1412.47
1127.31
721.782
1020.55
553.471
768.183
1581.76
1472.54
1561.29
1263.12
909.853
757.193
1532.53
2197.15
2824.58
1762.06
782.534
1451.83
1886.1
1552.42
1591.93
2246.89
1597.51
2221.53
1490.57
1611.17
1410.86
1657.46
1662.24
731.61
1991.34
1872.81
1509.51
2615.78
2932.14
1159.01
1148.41
920.775
1345.05
1677.02
651.724
1528.36
1806.64
1741.4
927.06
1019.02
1620.38
1645.82
1167.98
1007.35
941.509
2105.21
5080.15
3287.51
2827.63
1119.51
1873.76
1217.48
903.387
896.552
1428.17
1168.5
1130.98
1056.09
1111.67
3081.69
1040.37
1342.07
1666.44
1304.82
1270.39
1107.4
1749.31
1740.44
1145.43
1519.08
1629.59
1934.29
2792.04
1242.76
1647.51
1264.85
1703.18
1474.41
1884.87
1260.58
932.426
2557.22
1200.74
1617.68
1741.53
1684.93
1139.42
1852.62
1747.76
1447.84
1864.35
2031.03
1138.38
1507.5
1703.65
985.882
1197.45
958.017
1020.54
1311.55
1746.99
1452.88
1118.34
1439.44
1338.42
1510.97
1552.51
1583.41
1645.85
1099.5
1482.3
1566.9
1047.22
1623.08
1402.43
1207.45
1150.67
1335.49
1151.92
1753.15
2182.5
1484.28
2257.31
1298.12
1560.33
1200.46
792.026
722.512
1185.34
1435.97
1207.88
2615.78
1741.4
1389.74
1706.16
1605.38
1985.51
1705.27
1432.87
1275.76
1125.09
1821.11
897.354
1996.5
1908.64
1898.11
1517.08
1146.47
3342.2
1108.06
1021.97
967.023
859.201
825.982
878.027
955.248
854.083
1410.37
909.042
936.28
486.574
1703.01
1423.33
1429.68
809.758
1096.96
1105.51
1543.64
1674.01
1930.32
1735.44
1600.02
1506.46
1517.35
1635.63
1741.69
1675.81
2017.19
1915.01
979.466
930.499
1124.67
862.441
1057.69
932.492
1101.22
1600.27
1553.4
1610.87
1588.2
1594.47
1542.13
1538.78
958.507
1038.56
966.666
1162.3
1049.1
1158.3
1048.15
932.601
1215.05
1374.1
1416.58
1142.6
2793.71
2710.61
1704.33
2000.37
2344.34
3814.62
1634.51
2362.93
2224.89
2338.47
3606.51
1900.68
2385.51
1749.75
1487.23
1393.54
1652.72
1154.43
1260.52
842.436
888.801
1364.07
1508.39
2177.81
2502.51
2134.59
3662.18
1686.97
805.921
2562.48
1426.62
1223.96
975.142
1492.56
1303.77
1412.02
1301.43
1429.73
1015.24
877.651
1263.23
1032.64
964.689
1170.63
1057.17
1135.91
1330.34
1019.62
1273.71
1045.81
1255
1140.55
1089.46
4863.78
2029.89
1318.16
1124.17
1458.59
1119.97
4109.93
1709.43
2330.32
762.062
2335.4
871.519
912.668
1135.2
1098.27
1408.23
1368
2748.03
2858.43
2281.46
1579.8
1003.45
1082.13
1508.86
957.877
915.497
906.576
958.724
2011.95
1730.13
1654.36
1575.55
1522.41
1645.5
1773.16
1266.51
1369.68
1175.98
1039.21
1114.35
732.932
1707.8
1538.58
1681.19
1898.03
1864.85
1625.48
2365.62
2488.98
1691.2
1805.94
2356.6
2311.2
2024.43
994.393
1393.38
1561.5
1456.54
1330.21
1491.1
1631.04
1199.73
1484.71
1327.24
1737.33
1491.99
1369.32
1343.77
1550.51
1554.57
1939.17
1816.75
1975.24
1420.46
1012.95
1818.14
1349.96
1484.17
1500.54
1722.07
1236.6
1069.04
2094.08
1320.45
1078.44
1095.37
1889.43
1261.61
1285.28
1297.6
1495.24
1237.15
1321.03
2002.27
1523.3
1864.52
2837.89
2713.82
2195.05
1129.73
981.795
1683.79
1405.76
1389.31
1427.57
1746
1770.88
1593.05
1997.71
1656.95
1930.24
1499.14
1681.29
1563.84
1756.64
1797.11
1761.08
1602.37
1456.27
2084.59
1882.58
2088.92
1938.89
2034.37
1973.49
1425.44
1774.74
812.829
975.261
1373.83
1277.66
1460.27
2236.95
4190.15
921.151
1930.43
1382.43
2434.73
842.247
1075.59
868.269
1285.1
1327.31
964.858
1328.13
1100.07
815.53
990.861
974.702
1020.46
1250.49
1233.32
1384.4
1315.57
1751.5
1464.7
1447.63
1438.85
1431.66
1696.99
898.461
1007.71
915.533
1342.85
1119.9
1224.78
1503.38
1313.48
1686.37
1223.82
1526.17
1294.6
1715.79
1535.24
1598.1
1448.66
1440.57
1434.99
1896.92
1675.72
1909.2
1397.08
1150.7
1720.53
1555.21
847.514
1231.56
1031.81
1241.77
1374.63
1687.85
1501.94
1599.18
1467.04
1671.12
1158.55
1341.64
1312.62
1015.32
1172.97
790.828
1420.22
1507.99
1676.75
1876.46
1863.08
1674.43
1161.47
1114.54
1087.4
1119.11
1487.2
1113.95
1367.96
1205.73
1207.96
1445.65
1162.78
1814.78
1085.55
1040.58
1374
2111.64
1417.67
2023.54
2881.44
2005.36
1353.63
2598.41
1813.35
1306.98
1404.09
1393.62
1266.45
1165.3
2057.62
1804.41
2043.77
2022.07
2440.81
1592.38
1397.22
1477.25
1399.34
1445.5
1330.54
1526.54
1163.67
745.947
1047.07
1364.17
579.93
1577.38
1344.1
861.15
1286.63
1511.57
1134.49
1408.5
1183.93
2073.19
1160
1234.32
1564.45
1584.44
1069.92
2109.62
1231.07
2487.06
1565.87
2860.36
1360.2
1248.96
1559.71
1483.31
1449.49
1439.81
1962.34
2673.17
2697.89
1995.79
1461.38
1563.03
1642.5
1488.67
1805.7
1348.95
1910.38
1614.4
1334.74
1444.85
2451.76
2172.75
2463.33
1885.81
1864.94
1661.76
1896.37
1902.34
1276.53
1700.18
1409.96
1374.82
1662.36
1426.83
1373.82
1295.97
1409.31
1665.61
1019.77
1523.02
1123.74
1120.19
1352.2
1788.33
1533.1
1705.43
1306.56
1424.31
1016.22
1328.53
1448.34
1600.09
1673.99
2133.26
1975.59
2306.19
924.959
1296.63
977.976
794.341
1026.44
1363.69
1115.7
1142.16
1452.29
1729.75
1674.2
1661.53
1722.62
1848.78
2173.5
1951.04
1614.13
1636.62
1888.91
1618.1
1574.22
1872.6
2140.53
2194.97
2318.13
2199.06
1491.79
2415.56
1302.12
1063.57
1030.62
1284.8
2771.13
953.069
1703.98
3525.13
1114.29
1170.63
1253.42
1962.01
5294.24
1877.62
3363.64
1717.8
SCALARS SignedDistance double 1
LOOKUP_TABLE default
116.508
114.878
105.294
100.34
83.2077
85.1402
84.1447
89.1498
104.774
103.22
108.833
111.03
111.627
77.5299
84.7338
82.5053
114.289
114.53
120.792
83.9647
126.115
123.437
77.2146
107.226
85.9782
80.8095
126.071
111.8
71.7621
79.9437
118.661
76.5094
108.296
82.14
94.8423
97.2799
93.7
114.859
103.12
76.5842
118.499
120.943
112.369
103.494
103.546
89.2291
93.1522
112.715
75.9087
78.6107
81.5236
102.947
115.5
76.0516
79.6272
114.103
102.196
101.874
148.16
144.179
146.197
148.16
111.855
124.99
111.51
122.338
157.224
80.1483
105.123
113.846
108.668
102.016
121.643
127.835
156.242
119.011
112.759
97.3807
109.464
82.1484
75.8283
103.746
86.3443
87.9813
83.5652
84.2989
96.9294
79.726
73.208
75.4679
81.4181
120.803
109.056
113.061
132.029
109.586
114.388
109.55
79.7356
102.894
73.3046
68.8173
76.1735
70.1494
72.7144
102.622
81.5971
158.786
114.31
98.863
106.812
110.217
103.679
99.2016
97.4801
92.841
97.8993
104.947
91.3763
92.5393
80.579
97.9352
95.9784
93.3637
94.7227
99.6152
99.7596
100.749
91.6641
97.0208
102.293
95.6585
101.839
93.2115
103.893
119.64
104.06
77.8859
104.288
109.03
108.993
99.4283
110.614
124.237
131.325
112.146
112.666
75.6198
76.3433
83.7447
102.975
95.2308
104.698
102.77
121.026
108.329
76.0439
72.8789
72.5148
113.42
147.042
118.646
115.163
107.316
110.817
108.557
106.523
110.278
98.9365
102.897
94.5397
104.995
107.659
113.543
82.0818
88.9617
80.0394
110.54
109.153
107.04
79.7922
80.151
83.8118
78.715
76.9579
76.35
77.7142
78.0865
77.9258
93.8323
82.0834
84.2155
109.354
115.888
97.5748
102.063
115.509
108.255
108.188
79.7849
76.1146
79.6788
75.6257
76.1282
75.6561
79.71
114.916
107.84
108.831
106.816
107.183
113.872
96.4435
101.19
96.615
96.3799
96.0688
101.952
120.603
121.102
122.611
121.534
124.16
149.898
137.435
121.098
120.276
132.834
143.787
120.542
118.984
122.411
100.107
111.888
99.9999
124.698
116.17
115.469
114.201
115.236
117.9
147.775
144.909
147.012
149.45
122.834
119.686
124.732
159.128
143.092
128.028
85.9352
95.0096
92.1489
90.4968
79.6777
107.106
112.553
109.247
107.46
106.892
115.339
110.383
120.577
92.08
105.423
100.787
113.895
106.927
115.695
122.497
142.516
140.89
118.066
115.723
114.139
123.411
139.526
130.485
136.599
131.632
138.392
113.425
112.691
114.02
111.743
121.623
114.545
122.316
150.05
131.263
122.18
104.997
112.455
89.1399
99.5901
106.785
102.857
103.316
83.6422
80.3054
75.1103
77.9935
77.2486
76.0227
76.856
103.066
102.77
99.3209
102.387
100.687
107.731
80.4291
88.1097
79.8487
80.6391
77.2748
88.8213
83.6097
83.7007
77.2936
82.9901
83.9909
84.714
83.5728
105.397
95.1938
82.6075
85.4971
90.6085
85.006
78.9667
77.1259
76.9224
82.208
79.4937
76.7914
78.5517
82.5971
76.3322
78.7166
78.2844
77.1002
78.5995
109.465
107.884
123.214
119.613
110.788
115.718
115.318
109.617
119.197
128.641
119.427
116.305
131.411
131.753
106.508
108.842
106.749
115.052
111.304
109.526
124.031
111.747
121.301
118.841
117.184
117.293
104.661
106.971
80.1095
90.2212
89.1099
91.243
80.0235
79.9917
77.0245
71.7031
71.3239
70.8713
72.484
73.8333
81.2717
74.3094
76.4651
70.9981
70.1162
75.7794
71.6365
72.5723
71.4026
72.484
68.8853
72.2556
95.8001
85.5378
111.709
108.203
75.2524
88.0353
86.4342
119.66
140.174
119.661
132.543
149.516
118.972
112.907
103.718
105.587
106.676
93.5962
100.936
84.2448
113.167
108.39
111.011
111.069
111.307
103.462
101.401
100.057
99.5704
103.648
102.585
106.493
96.7682
98.9063
96.2922
100.395
101.874
103.498
92.5372
97.4045
86.0391
103.638
100.946
102.107
88.5413
87.1204
81.8633
94.3537
91.6359
93.6878
80.3975
86.8189
88.009
100.038
94.9983
97.0098
98.8796
98.4369
97.2436
97.3679
94.2167
96.9116
95.238
89.3691
91.2025
95.1718
94.3799
95.5251
93.3001
94.6292
103.283
102.329
104.198
96.5434
99.1733
95.9734
99.8633
99.3761
98.4511
97.9243
98.6903
98.151
96.2428
98.9421
93.3697
93.7625
95.1302
93.3589
91.7631
104.171
101.246
95.2306
98.4103
100.822
97.3766
94.864
92.7078
101.229
92.9098
95.0033
108.865
115.601
119.162
112.853
101.2
93.209
91.2905
89.8311
101.696
101.73
113.563
99.8448
108.173
104.203
118.577
81.1347
88.2644
86.6775
87.2287
75.2241
103.419
119.043
106.89
107.088
103.752
109.645
109.201
110.104
84.6358
105.047
95.2428
115.194
106.883
111.464
103.892
110.749
106.648
106.524
110.986
109.339
114.77
123.412
127.94
130.66
115.546
122.925
108.952
104.64
111.037
109.209
115.381
113.77
116.272
115.338
114.501
115.096
76.6428
75.604
75.3742
76.1225
79.0022
88.6603
78.2998
81.4187
82.1969
77.5221
83.4841
82.7686
84.5706
83.2099
77.5728
73.2985
77.0588
79.6147
104.906
99.6908
102.498
105.697
107.403
88.4044
90.4151
88.7954
94.5129
97.2232
106.767
107.428
108.233
101.62
95.3868
100.465
98.5814
103.963
88.8583
112.1
103.29
85.5666
88.0525
106.363
122.585
117.506
108.584
119.498
107.823
98.0223
104.537
110.744
113.893
111.343
112.395
106.882
98.809
75.3779
84.4695
84.4307
75.3706
73.9984
71.0625
72.5982
72.3702
69.0224
76.9248
69.0224
73.4878
72.1414
70.9433
70.4519
70.897
70.4712
105.245
115.669
113.811
108.871
109.777
115.491
130.024
123.241
128.337
138.028
120.136
111.994
115.398
140.32
143.279
125.031
138.692
116.695
