# vtk DataFile Version 4.2
vtk output
ASCII
DATASET POLYDATA
POINTS 642 double
-0.806362 1.30758 0.0048418
0.808305 1.30928 0.00456498
-0.797015 -1.29492 -0.00125728
0.799772 -1.29807 -0.00108356
0.000314448 -0.81532 1.32488
0.000211898 0.817609 1.32157
-6.57259e-05 -0.820917 -1.33426
0.000258094 0.820875 -1.33392
1.31954 0.00017707 -0.822896
1.31301 0.000933328 0.815929
-1.31468 -0.000329469 -0.820427
-1.31089 0.00171971 0.814288
-1.2482 0.773218 0.480198
-0.776835 0.480244 1.25853
-0.479803 1.25903 0.77849
0.480543 1.25957 0.778983
6.45e-06 1.54372 0.00522709
0.479336 1.2499 -0.779827
-0.477261 1.24771 -0.777991
-0.783032 0.483432 -1.2716
-1.23815 0.765858 -0.479442
-1.51527 0.0019556 0.00105734
0.777996 0.480871 1.26007
1.25153 0.775421 0.481254
-0.77508 -0.47866 1.2586
0.000379817 -0.00134186 1.56094
-1.23689 -0.764148 -0.482058
-1.2294 -0.759002 0.474985
-0.000173524 0.000129914 -1.57656
-0.783638 -0.484125 -1.27196
1.24467 0.769623 -0.482536
0.785219 0.484881 -1.27347
1.23312 -0.761395 0.47615
0.777609 -0.479742 1.26163
0.473338 -1.23949 0.770413
-0.472181 -1.23807 0.769639
0.000243984 -1.53515 -0.00105776
-0.476542 -1.24501 -0.776048
0.476228 -1.24513 -0.775431
0.785032 -0.484543 -1.27331
1.23665 -0.763409 -0.481337
1.51771 0.00197213 0.000795652
-1.06419 1.08903 0.247189
-0.910271 1.06801 0.660757
-0.675128 1.33976 0.398232
-1.09362 0.244825 1.07376
-1.06609 0.659515 0.912825
-1.33225 0.394729 0.676379
-0.244932 1.07635 1.09843
-0.660229 0.913983 1.07035
-0.396574 0.67815 1.34234
-0.252263 1.47964 0.411039
-0.42832 1.48164 0.00521815
0.245401 1.07659 1.0988
9.41029e-05 1.32511 0.819403
0.428902 1.48184 0.00511953
0.252454 1.47965 0.411099
0.67628 1.34067 0.398536
-0.248305 1.45554 -0.402522
-0.665671 1.31761 -0.391054
0.667561 1.31923 -0.392211
0.248704 1.45536 -0.402603
-0.245622 1.07443 -1.10305
0.000316104 1.31203 -0.817762
0.246801 1.07544 -1.10395
-0.905435 1.0594 -0.661407
-1.05541 1.07871 -0.24082
-0.39997 0.682526 -1.35696
-0.662554 0.914604 -1.07713
-1.32824 0.392679 -0.679076
-1.06842 0.659844 -0.918796
-1.10009 0.245611 -1.08329
-1.29911 0.805422 0.00380028
-1.46551 0.000338593 -0.43236
-1.44761 0.401458 -0.250867
-1.45426 0.404383 0.25402
-1.46755 0.00299578 0.43155
0.91254 1.06979 0.66202
1.06718 1.09129 0.247494
0.397417 0.678774 1.34359
0.661659 0.915174 1.07182
1.33379 0.395875 0.677284
1.0684 0.661168 0.914469
1.09502 0.244904 1.07528
-0.408996 0.252083 1.48106
0.000247044 0.431825 1.49335
-1.09122 -0.242798 1.07285
-0.81687 5.97117e-05 1.32416
0.000385519 -0.434424 1.50107
-0.408832 -0.25344 1.48382
-0.395449 -0.67677 1.34475
-1.44139 -0.396546 0.250819
-1.32251 -0.388675 0.67418
-1.32979 -0.393534 -0.680731
-1.44066 -0.397894 -0.25304
-1.04686 -1.07105 0.240588
-1.28564 -0.795863 -0.00112456
-1.04878 -1.07287 -0.243996
-0.824835 1.47373e-05 -1.33874
-1.10074 -0.246215 -1.08359
-8.65152e-05 0.437142 -1.51287
-0.413765 0.25544 -1.49968
-0.400366 -0.683165 -1.35739
-0.413647 -0.255299 -1.49891
-3.83825e-05 -0.437121 -1.51232
0.665188 0.91727 -1.07961
0.401067 0.683616 -1.35797
1.05936 1.08143 -0.242251
0.909999 1.06333 -0.664327
1.10387 0.246824 -1.08566
1.0738 0.663102 -0.922013
1.33564 0.395535 -0.682508
1.0505 -1.07435 0.241122
0.898631 -1.05193 0.654895
0.664625 -1.31831 0.390361
1.09452 -0.243978 1.07601
1.06188 -0.654397 0.912346
1.32586 -0.390024 0.676132
0.24327 -1.06589 1.0947
0.657055 -0.906697 1.06848
0.396533 -0.677382 1.3462
0.248157 -1.45565 0.402037
0.425127 -1.47231 -0.00113919
-0.242577 -1.06533 1.09411
0.000290509 -1.3043 0.810521
-0.423913 -1.47089 -0.00124303
-0.247343 -1.45476 0.40177
-0.662635 -1.31586 0.38977
0.24915 -1.46115 -0.4051
0.666732 -1.32289 -0.393223
-0.66539 -1.32089 -0.393689
-0.248678 -1.46065 -0.405178
0.245849 -1.07256 -1.10296
-0.000103287 -1.30992 -0.814359
-0.246216 -1.07334 -1.10342
0.903437 -1.05607 -0.660672
1.05183 -1.07594 -0.243343
0.400758 -0.683097 -1.3576
0.664064 -0.914985 -1.07886
1.33397 -0.394089 -0.683043
1.07265 -0.661482 -0.921865
1.10372 -0.246605 -1.08563
1.28998 -0.7988 -0.00064516
1.4696 0.000920888 -0.434387
1.44454 -0.398581 -0.253207
1.4452 -0.398205 0.251414
1.46965 0.00217463 0.43205
0.410119 -0.253722 1.48591
0.818904 -0.000399169 1.32719
0.41002 0.252092 1.4828
-0.896067 -1.04957 0.653612
-0.655331 -0.905388 1.06677
-1.0584 -0.652586 0.909566
-0.663668 -0.915381 -1.07843
-0.904702 -1.05774 -0.662505
-1.07039 -0.661163 -0.920278
0.826173 3.39379e-05 -1.33954
0.414092 -0.255558 -1.4991
0.414094 0.255662 -1.49922
1.45678 0.405881 0.253807
1.4524 0.403382 -0.252637
1.30339 0.808047 0.00322177
-0.941167 1.21286 0.124268
-0.882008 1.22853 0.32983
-0.750109 1.33683 0.198595
-1.09387 0.931363 0.576533
-1.00041 1.08962 0.459165
-1.16736 0.941838 0.366473
-0.584216 1.31319 0.592559
-0.800001 1.21701 0.536785
-0.703159 1.17867 0.728551
-1.2176 0.121221 0.950177
-1.22759 0.327178 0.886242
-1.33476 0.195462 0.754406
-0.932865 0.576541 1.09994
-1.08968 0.457667 1.00509
-0.945968 0.36531 1.17741
-1.30314 0.588433 0.584441
-1.21232 0.534197 0.8014
-1.17246 0.72536 0.70355
-0.120668 0.953231 1.22463
-0.327966 0.888766 1.23433
-0.195427 0.756718 1.34427
-0.57642 1.10083 0.935481
-0.458293 1.00705 1.09416
-0.365382 1.17904 0.948981
-0.591541 0.585585 1.3139
-0.535886 0.803279 1.2192
-0.727419 0.704717 1.17933
-1.00137 0.875235 0.797171
-0.875185 0.797229 1.005
-0.796074 1.00464 0.877112
-0.555967 1.43062 0.206109
-0.628058 1.40608 0.00511551
-0.371425 1.3863 0.602465
-0.468428 1.42429 0.411046
-0.217843 1.52813 0.00523438
-0.342383 1.49792 0.209456
-0.127092 1.53226 0.209451
0.121083 0.953351 1.22485
0.000152144 1.09276 1.1101
0.24446 1.30841 0.80946
0.125689 1.21447 0.968038
0.365963 1.17941 0.949433
-0.12541 1.21438 0.967913
-0.244142 1.30824 0.809276
0.629264 1.40703 0.00490302
0.556803 1.43121 0.206125
0.751649 1.33815 0.198645
0.127148 1.53214 0.209453
0.342699 1.49793 0.209464
0.217998 1.52798 0.00520982
0.585142 1.31391 0.593028
0.468977 1.4246 0.411194
0.371838 1.38654 0.602672
-0.127993 1.42179 0.623067
0.128153 1.42184 0.623126
3.37507e-05 1.50007 0.416599
-0.551011 1.41702 -0.195911
-0.744109 1.32476 -0.189085
-0.125855 1.51737 -0.199094
-0.339116 1.48347 -0.199087
-0.578333 1.29575 -0.590174
-0.461202 1.40052 -0.403072
-0.367333 1.36685 -0.598836
0.74585 1.32635 -0.189784
0.552151 1.41769 -0.19635
0.368338 1.36684 -0.599376
0.462245 1.40055 -0.403487
0.580303 1.29715 -0.591498
0.339587 1.48344 -0.199207
0.125958 1.51728 -0.199115
-0.12132 0.954224 -1.23286
0.000426386 1.09028 -1.11422
0.122152 0.954646 -1.2332
-0.242942 1.29596 -0.808052
-0.125216 1.20733 -0.968757
-0.365107 1.17315 -0.950642
0.366726 1.17494 -0.952182
0.126151 1.20773 -0.969157
0.243981 1.29652 -0.808814
4.36231e-05 1.4756 -0.407849
0.126943 1.40059 -0.618436
-0.126616 1.40118 -0.618485
-0.872355 1.2122 -0.323204
-0.936764 1.2063 -0.115572
-0.699499 1.16861 -0.728774
-0.79248 1.20147 -0.534589
-1.15639 0.932145 -0.363126
-0.991175 1.07693 -0.45661
-1.08682 0.923656 -0.576886
-0.197125 0.760803 -1.35837
-0.330009 0.891021 -1.2442
-0.731918 0.70764 -1.18972
-0.539283 0.806242 -1.22981
-0.596552 0.589623 -1.32813
-0.459754 1.00659 -1.1001
-0.576285 1.09674 -0.938389
-1.33426 0.194003 -0.758723
-1.23069 0.327217 -0.892621
-1.22287 0.120562 -0.957714
-1.16906 0.722125 -0.706369
-1.21243 0.533437 -0.806131
-1.29623 0.584318 -0.585573
-0.952696 0.367365 -1.18883
-1.09438 0.458898 -1.01301
-0.937962 0.578756 -1.10924
-0.795993 1.00168 -0.880728
-0.878001 0.798072 -1.01166
-1.00034 0.872472 -0.800675
-1.07445 1.09454 0.00410189
-1.27813 0.792032 -0.240591
-1.18958 0.950703 -0.121216
-1.1955 0.955491 0.128463
-1.28988 0.800028 0.246002
-1.40124 -0.00020088 -0.636218
-1.41533 0.200134 -0.559577
-1.49785 0.202537 -0.125992
-1.4718 0.202704 -0.343315
-1.50226 0.00109979 -0.219217
-1.40113 0.402813 -0.468812
-1.35954 0.590509 -0.370196
-1.42173 0.202862 0.5589
-1.40307 0.00247042 0.633477
-1.36913 0.59618 0.372416
-1.4093 0.406335 0.4695
-1.50508 0.00274324 0.220098
-1.4774 0.205314 0.344604
-1.50234 0.203963 0.129315
-1.38984 0.609786 -0.124854
-1.46641 0.407667 0.00241807
-1.39554 0.613291 0.130529
0.884016 1.23018 0.330213
0.943684 1.21495 0.124226
0.704581 1.17982 0.729466
0.801613 1.21828 0.537494
1.17067 0.944095 0.367224
1.0029 1.09148 0.460013
1.09694 0.933551 0.577888
0.195979 0.756949 1.34474
0.328667 0.889222 1.23511
0.728834 0.705866 1.18098
0.536979 0.804188 1.22061
0.59254 0.586304 1.31539
0.459186 1.00771 1.09507
0.57755 1.10172 0.936435
1.33553 0.195462 0.755217
1.22902 0.327807 0.887369
1.21906 0.120842 0.951565
1.17539 0.727399 0.705041
1.21457 0.535705 0.802746
1.30591 0.590332 0.585539
0.947275 0.365713 1.17896
1.09138 0.458651 1.00652
0.934534 0.57771 1.10157
0.797943 1.00616 0.878552
0.877171 0.798808 1.00674
1.00397 0.877198 0.798819
-0.202917 0.55929 1.43611
0.00022267 0.635216 1.41813
-0.601215 0.371743 1.38634
-0.409284 0.469501 1.42565
0.000304248 0.218613 1.54217
-0.206094 0.343269 1.50334
-0.205972 0.126568 1.54
-1.21555 -0.118652 0.949362
-1.10414 0.000806562 1.08951
-0.806379 -0.243696 1.3076
-0.963509 -0.12467 1.2121
-0.943752 -0.363522 1.17673
-0.964183 0.125589 1.21218
-0.807143 0.244156 1.30719
0.000344652 -0.636203 1.42507
-0.202396 -0.560398 1.44209
-0.19464 -0.755195 1.34784
-0.205809 -0.128797 1.54196
-0.20579 -0.345491 1.5088
0.00041616 -0.221511 1.54718
-0.590206 -0.584168 1.31508
-0.408692 -0.470054 1.42917
-0.600653 -0.371804 1.38814
-0.621573 0.127764 1.42203
-0.621487 -0.128378 1.42297
-0.414534 -0.00072073 1.50317
-1.4133 -0.196887 0.556907
-1.32992 -0.191326 0.753207
-1.49645 -0.198381 0.127553
-1.46988 -0.198896 0.342614
-1.28837 -0.578695 0.580851
-1.39538 -0.398388 0.466344
-1.35153 -0.585306 0.368165
-1.33517 -0.194744 -0.759404
-1.41515 -0.200164 -0.560491
-1.35534 -0.588463 -0.372985
-1.3995 -0.40209 -0.470908
-1.29705 -0.584679 -0.587948
-1.4698 -0.200978 -0.344452
-1.49449 -0.198865 -0.127329
-0.92751 -1.1963 0.117867
-1.06186 -1.08212 -0.00112874
-0.928354 -1.19751 -0.120424
-1.27108 -0.786496 0.240617
[...]
POINT_DATA 642
SCALARS Mean_Curvature double 1
LOOKUP_TABLE default
1.26248
1.26305
1.23996
1.25358
1.31096
1.24429
1.2504
1.23233
1.3314
1.294
1.33984
1.27367
1.28051
1.22513
1.22465
1.21878
1.23473
1.30173
1.27896
1.24137
1.1954
1.10444
1.21457
1.29222
1.24386
1.24754
1.27062
1.17175
1.20087
1.23933
1.22391
1.24087
1.1679
1.25027
1.18808
1.18842
1.27687
1.11039
1.13258
1.24527
1.0954
1.05762
1.26829
1.2128
1.2944
1.2352
1.21865
1.23672
1.23492
1.21687
1.21377
1.30047
1.25493
1.22815
1.21918
1.2453
1.29574
1.28544
1.04151
0.881054
0.918258
1.03324
1.24091
1.23058
1.23879
1.25551
1.09122
1.24023
1.23887
1.23862
1.25867
1.24792
1.18583
1.20125
1.18007
1.22258
1.19615
1.22041
1.26719
1.2277
1.22374
1.25149
1.22714
1.21173
1.20992
1.14248
1.24426
1.23146
1.26339
1.22921
1.24167
1.16838
1.28724
1.29338
1.05318
1.18898
1.13783
1.14137
1.238
1.24214
1.20944
1.24279
1.24544
1.21977
1.19553
1.24142
1.24808
1.08067
1.3028
1.24151
1.25604
1.30954
1.19052
1.18298
1.19331
1.25757
1.26737
1.28828
1.24192
1.24692
1.23731
1.19252
1.26052
1.24288
1.20677
1.26709
1.19161
1.19118
1.23297
1.22072
1.20111
1.23637
1.26979
1.15856
1.28195
1.10699
1.18078
1.24437
1.26837
1.35909
1.27758
1.24382
1.16708
1.20947
1.05092
1.17543
1.19689
1.2312
1.24391
1.22205
1.1872
1.25047
1.25325
1.25888
1.3091
1.26739
1.21469
1.23061
1.22912
1.22356
1.18242
1.18861
1.26162
1.2876
1.2847
1.21026
1.29518
1.28764
1.22306
1.23606
1.2198
1.28391
1.23476
1.27788
1.2238
1.22647
1.22899
1.2296
1.2211
1.21258
1.24629
1.22189
1.21773
1.22247
1.22344
1.22877
1.21669
1.21426
1.21868
1.21419
1.21887
1.21787
1.28327
1.25846
1.22888
1.29303
1.25411
1.2862
1.29074
1.24287
1.23054
1.2233
1.22984
1.22154
1.23221
1.2281
1.25488
1.27679
1.28238
1.28387
1.27654
1.24293
1.2195
1.28324
1.22255
1.22443
1.22319
1.29151
1.18844
1.18288
1.18458
1.19346
1.23807
0.92981
1.22783
1.18336
1.18297
1.18388
0.90401
1.22488
1.18056
1.1804
1.22777
1.19837
1.21882
1.27687
1.21921
1.24501
1.26083
1.21155
1.27941
1.06866
1.12615
1.17372
0.995425
1.18908
1.2597
1.22948
1.14408
1.20026
1.24185
1.25224
1.23918
1.23776
1.23876
1.2397
1.23986
1.25064
1.30928
1.27845
1.27374
1.25227
1.3053
1.20756
1.24078
1.24861
1.24148
1.26478
1.24531
1.29422
1.20936
0.909957
1.1428
1.23673
1.26461
1.20525
1.18334
0.962647
1.20912
1.1681
1.19876
1.18069
1.37385
1.32915
1.28133
1.31306
1.17548
1.28189
1.15536
1.09822
1.14179
1.22335
1.28216
1.26297
1.21931
1.23237
1.28492
1.28388
1.22851
1.2132
1.22099
1.22548
1.22294
1.21653
1.22103
1.2204
1.25067
1.22188
1.24143
1.22621
1.22816
1.2437
1.20901
1.22084
1.2256
1.22327
1.22804
1.22506
1.18368
1.1674
1.2216
1.21695
1.19514
1.17657
1.23742
1.25646
1.23388
1.23999
1.23723
1.2399
1.23104
1.22725
1.2848
1.25277
1.27202
1.22182
1.23512
1.27287
1.24345
1.23523
1.23998
1.22013
1.23649
1.24001
1.24582
1.28492
1.1571
1.20443
1.23
1.19103
1.17752
1.32377
1.21385
1.20781
1.24618
1.2951
1.23046
1.02841
1.20013
1.17474
1.19403
1.15452
1.17321
1.16944
1.07333
1.14233
1.08965
1.06403
1.09658
1.13396
1.23969
1.26759
1.2467
1.2395
1.2352
1.22481
1.23164
1.21833
1.24555
1.24119
1.24281
1.20799
1.24044
1.24477
1.26132
1.2408
1.2206
1.23222
1.23303
1.24135
1.19749
1.22136
1.23315
1.24464
1.23572
1.22949
1.25948
1.23282
1.25506
1.24589
1.2417
1.24243
1.24073
1.19069
0.917483
1.27181
1.20422
1.17723
1.22303
1.30665
1.26343
1.27448
1.33092
1.24147
1.24555
1.23667
1.27362
1.30473
1.307
1.26643
1.29621
1.2456
1.21195
1.19649
1.21325
1.17699
1.18392
1.17665
1.18657
1.18719
1.18752
1.26809
1.2763
1.30416
1.25783
1.26481
1.25413
1.20967
1.2799
1.23118
1.28587
1.24677
1.27438
1.21798
1.24016
1.20786
1.24102
1.24426
1.2496
1.23345
1.25831
1.22764
1.21357
1.25609
1.18628
1.1871
1.27007
1.23807
1.25879
1.28561
1.26518
1.19182
1.22307
1.20993
1.22248
1.19243
1.25499
1.21086
1.20702
1.26439
1.24264
1.27676
1.18624
1.18591
1.18835
1.19001
1.19075
1.21251
1.23595
1.23332
1.24397
1.23442
1.18623
1.22886
1.20536
1.21431
1.22598
1.19953
1.2233
1.16907
1.23839
1.2506
1.25867
1.24497
1.2563
1.15568
1.11275
1.19805
1.2772
1.12056
1.14589
1.2321
1.21121
1.2103
1.20685
1.2183
1.10664
1.17185
1.13563
1.15491
1.12164
1.25066
1.24958
1.25267
1.2546
1.24701
1.27037
1.2914
1.35393
1.28213
1.26519
1.40274
1.34889
1.34517
1.23986
1.25312
1.25108
1.31227
1.26984
1.36854
1.19866
1.13596
1.17755
1.18371
1.16138
1.20398
1.2073
1.08476
1.23821
1.02606
1.24284
1.06176
1.25779
1.31217
1.17772
1.1889
1.19686
1.21725
1.09993
1.1217
1.10834
1.13698
1.25544
1.24349
1.22941
1.24076
1.22971
1.2417
1.21013
1.22909
1.24801
1.25298
1.17638
1.22616
1.16798
1.21404
1.20437
1.24698
1.24034
1.25814
1.19425
1.18959
1.18525
1.18128
1.18166
1.24823
1.24898
1.24835
1.24557
1.22431
1.25802
1.24325
1.26202
1.24704
1.24773
1.23448
1.25482
1.2383
1.25788
1.29124
1.26916
1.25083
1.2454
1.16886
1.30342
1.0931
1.13375
1.19741
1.28084
1.24507
1.24918
1.32591
1.32336
1.29937
1.34076
1.25776
1.22188
1.23847
1.22819
1.22751
1.23714
1.2275
1.21523
1.20755
1.24035
1.24036
1.22008
1.23814
1.24106
1.2083
1.21353
1.22724
1.20882
1.22665
1.25322
1.16675
1.19113
1.30474
1.29903
1.19121
1.18209
1.20031
1.21288
0.998493
1.21306
1.26955
1.24005
1.14552
0.883249
1.12804
1.08814
1.22676
SCALARS CoVolArea double 1
LOOKUP_TABLE default
0.037756
0.0378533
0.0373067
0.0373881
0.0381886
0.0383488
0.038661
0.0387073
0.0381846
0.0379074
0.0380131
0.0378064
0.0526959
0.0533199
0.0533379
0.0534023
0.0527707
0.0529368
0.0528243
0.0538811
0.0526081
0.0521614
0.0534464
0.052834
0.053152
0.0535401
0.0523012
0.0520037
0.0543539
0.0539283
0.0528528
0.0540295
0.0522168
0.0533023
0.0525415
0.0524496
0.0522306
0.0529668
0.0529942
0.0539855
0.0524906
0.0523751
0.0495581
0.0554848
0.0498789
0.0500312
0.0555045
0.0496503
0.050306
0.0556983
0.0503155
0.0554846
0.0496364
0.0503426
0.0558119
0.0497018
0.0555141
0.0499692
0.0551882
0.0498362
0.0499409
0.0552586
0.0503852
0.0553419
0.050439
0.0550717
0.0495727
0.0508307
0.0558326
0.0496579
0.0555519
0.0504509
0.0548049
0.0492909
0.0546882
0.0545686
0.0491194
0.0556068
0.0497198
0.0503669
0.0557847
0.0497842
0.055629
0.0501931
0.055845
0.0504622
0.0498847
0.0556934
0.05041
0.0558634
0.0501883
0.0542679
0.0492436
0.0495767
0.0544591
0.0488595
0.0542404
0.0491717
0.0564541
0.0504931
0.0511022
0.0566289
0.0508393
0.0566588
0.0511107
0.0560196
0.0508997
0.0498099
0.0552815
0.0506697
0.0558455
0.0498793
0.0490253
0.054738
0.0491979
0.0500305
0.0550747
0.0493982
0.0498358
0.0552571
0.0502726
0.054647
0.0491809
0.0497904
0.0548898
0.0491023
0.0545971
0.049078
0.0548305
0.0493718
0.0493618
0.0548102
0.0503364
0.0553961
0.0503219
0.055182
0.0491969
0.0508563
0.0558162
0.0496671
0.0556252
0.0506409
0.0543623
0.0495151
0.0546785
0.0544289
0.0493031
0.0559497
0.0558266
0.0559173
0.0545538
0.0551134
0.0548894
0.0558249
0.054992
0.0555757
0.0565723
0.056687
0.0566972
0.0547605
0.0549237
0.0550396
0.0473096
0.0499476
0.0474066
0.0546195
0.050661
0.0496725
0.0502028
0.0508532
0.0549466
0.0475947
0.0501103
0.047383
0.0549344
0.0509224
0.0502423
0.0497548
0.0507813
0.0546649
0.0480335
0.0505222
0.0480597
0.0550277
0.0511561
0.0503823
0.0503707
0.0511533
0.0550129
0.0611357
0.0612575
0.0612664
0.049964
0.0473503
0.0549747
0.0508449
0.049765
0.0506727
0.0546035
0.0480506
0.0505496
0.0551298
0.0512243
0.0504334
0.0512058
0.0550956
0.0474353
0.0500366
0.0475064
0.0546192
0.0507183
0.0498009
0.0502759
0.050904
0.055021
0.0613566
0.0613729
0.0611527
0.0499369
0.0474361
0.0544366
0.0505668
0.049822
0.0506962
0.0544922
0.0475592
0.0500155
0.0545866
0.0507792
0.0499238
0.0506331
0.0544629
0.0483428
0.0506448
0.0483684
0.0545838
0.0510066
0.0501618
0.0502423
0.0510349
0.0546485
0.060798
0.0608595
0.0608151
0.0499482
0.04734
0.054466
0.050556
0.0496453
0.0504564
0.0543133
0.0485223
0.0508468
0.0554116
0.0515142
0.0509153
0.0512549
0.0548112
0.0475242
0.0502646
0.0479076
0.0544462
0.0507531
0.0496488
0.0507315
0.0511793
0.0552986
0.0610579
0.0613923
0.0609133
0.0497063
0.0542883
0.0503719
0.0502976
0.0541088
0.0473336
0.0496852
0.0539629
0.0501451
0.0492603
0.0502633
0.0541753
0.0495419
0.0471221
0.054099
0.0502105
0.0491387
0.0499812
0.053863
0.0603248
0.0601717
0.0602105
0.0500756
0.0474459
0.0550406
0.0509604
0.0498314
0.050802
0.0547578
0.0480857
0.0505663
0.0551105
0.0512171
0.0504541
0.0512171
0.0551089
0.047522
0.0502599
0.0477477
0.0547891
0.0509018
0.0498703
0.050388
0.0510609
0.0550603
0.0613791
0.0613754
0.0612672
0.0506151
0.0481256
0.0550933
0.0512226
0.0505442
0.0512973
0.0552166
0.0475059
0.0502088
0.0549616
0.0509642
0.0500743
0.0510121
0.0550278
0.0480154
0.0505531
0.0478996
0.0552322
0.0512964
0.050541
0.0502361
0.0512002
0.0550479
0.0614477
0.0614385
0.0615269
0.0493816
0.0472093
0.0536909
0.0498639
0.0491705
0.049877
0.0535945
0.0475083
0.0496008
0.0538217
0.0500854
0.0494555
0.0500186
0.0537883
0.0466818
0.0491119
0.0467935
0.0535202
0.0496823
0.0489881
0.0493667
0.049866
0.0537887
0.0598783
0.0598864
0.0597457
0.0507497
0.0479226
0.0557109
0.0516142
0.0507836
0.0516386
0.0557511
0.0486624
0.0512142
0.0560288
0.0519923
0.0512739
0.0518733
0.0558008
0.0485007
0.0512262
0.0486476
0.05584
0.0519005
0.0509449
0.0512841
0.0520168
0.0560422
0.0622971
0.0624129
0.0623197
0.0509155
0.0485641
0.0549659
0.0513622
0.0510137
0.051626
0.055588
0.0475179
0.0501518
0.0545483
0.0506804
0.0498802
0.0507182
0.0546273
0.0481308
0.0505167
0.0477457
0.0555259
0.0514307
0.0509154
0.0498707
0.051015
0.0547157
0.0612957
0.0612022
0.0616631
0.0468118
0.0493282
0.0468767
0.0539783
0.0500279
0.049172
0.0494204
0.050117
0.0541582
0.0476413
0.049941
0.0473258
0.054735
0.0507328
0.0502234
0.0493699
0.0504021
0.0541025
0.0477306
0.0502803
0.0479357
0.0543738
0.0507305
0.0497551
0.0503592
0.0509551
0.0548129
0.0604596
0.0607879
0.0605642
0.0493821
0.0469043
0.0540907
0.0501148
0.0492944
0.0500553
0.0538923
0.0477097
0.0500184
0.0541869
0.0504982
0.0496876
0.0505205
0.0542342
0.0468124
0.0492814
0.046756
0.0538656
0.049985
0.0492464
0.0493152
0.0500284
0.0540209
0.060326
0.0602993
0.0601854
0.049453
0.0469406
0.0540136
0.0501446
0.0497453
0.0502756
0.0544036
0.0468831
0.0493969
0.0544086
0.0502579
0.0497178
0.0500949
0.0539918
0.0482647
0.050567
0.0482622
0.054699
0.0510599
0.0502208
0.0502019
0.0510492
0.0547061
0.0604068
0.0606736
0.0606706
0.0495173
0.0468669
0.0546447
0.0504628
0.0494443
0.0503493
0.0543225
0.0485138
0.0508177
0.055477
0.0515249
0.0509684
0.0512136
0.0548709
0.0476696
0.050418
0.0481067
0.0544355
0.0507937
0.049599
0.0508812
0.0513419
0.0554251
0.0611229
0.0614333
0.060957
0.0492258
0.0539355
0.0499349
0.0498311
0.0537066
0.0475228
0.0497616
0.0539827
0.050233
0.0495185
0.0502739
0.0540787
0.0495174
0.0472568
0.0537945
0.0500439
0.049318
0.0500146
0.0538578
0.0600761
0.0600375
0.0599084
0.0505985
0.0551775
0.0512918
0.0513391
0.0552706
0.0503619
0.0551689
0.0511612
0.0511057
0.0551039
0.0506507
0.0552557
0.0513396
0.0512916
0.0552028
0.0615576
0.0615575
0.0616021
0.0491756
0.0540169
0.0499705
0.0498507
0.0537697
0.0502131
0.0546594
0.0508434
0.0506385
0.0542517
0.0497976
0.0538905
0.0502287
0.0505763
0.0545664
0.060384
0.0605995
0.0602475
0.0508103
0.0548242
0.051211
0.0515192
0.0554495
0.0495109
0.054158
0.050288
0.0503967
0.0545073
0.0502888
0.0553565
0.0512338
0.050732
0.0543177
0.0610154
0.0608303
0.0614162
0.0509374
0.0558318
0.0517707
0.0517789
0.0558469
0.0512443
0.0560716
0.0520337
0.0519185
0.0558756
0.05126
0.0558956
0.0519384
0.0520377
0.0560735
0.0623867
0.0624724
0.0623931
0.049727
0.054059
0.0501998
0.0503804
0.0542496
0.0498886
0.0544344
0.0504717
0.0503808
0.0541858
0.0498954
0.0542879
0.0504888
0.050598
0.0545555
0.0603881
0.0606046
0.0604253
SCALARS SignedDistance double 1
LOOKUP_TABLE default
2.17302
2.14709
2.13907
2.0857
1.84012
1.8649
1.81329
1.84954
2.0262
1.98334
2.07203
2.02501
2.04771
1.83768
1.84706
1.83693
2.12117
2.12363
2.14553
1.80725
2.25869
2.32918
1.82843
2.00267
1.88676
1.82546
2.23338
2.19225
1.69322
1.77846
2.2062
1.75244
2.13997
1.8463
2.03952
2.0622
1.97613
2.05553
2.02096
1.75216
2.19517
2.2659
2.10822
1.9276
1.98009
1.88685
1.9104
2.01632
1.8169
1.84653
1.85018
1.9332
2.13535
1.81656
1.8216
2.12636
1.93273
1.95922
2.30987
2.32746
2.30159
2.29903
1.97085
2.17118
1.97215
2.18495
2.31646
1.78251
1.94228
2.14617
2.01774
1.91
2.25929
2.24987
2.34011
2.21293
2.18967
1.89262
2.06839
1.84356
1.8202
2.00046
1.87174
1.8874
1.8465
1.89997
1.94334
1.84109
1.76392
1.79935
1.85675
2.26863
2.12482
2.1257
2.31439
2.1802
2.24985
2.19429
1.7673
1.89584
1.72996
1.68002
1.75095
1.68726
1.72165
1.8987
1.76458
2.28354
2.13779
1.85221
1.94794
2.08671
2.13381
2.08266
2.08025
1.89524
1.99922
2.07941
1.95423
1.95554
1.84195
2.0558
2.02309
1.96613
2.01979
2.05249
2.06994
2.11422
1.97856
2.04033
2.09319
1.99991
1.92698
1.98415
1.92399
2.10607
2.13168
1.75788
1.89445
2.09148
1.94678
1.85216
2.1895
2.20404
2.24591
2.20504
2.14353
1.78195
1.8071
1.83958
2.12077
1.98131
2.04146
1.89815
2.14679
1.97925
1.74362
1.67872
1.67883
2.16627
2.29021
2.2153
2.14087
2.04155
2.07877
1.97921
2.00583
2.07607
1.89555
1.94089
1.88303
1.95161
1.94194
2.00518
1.86582
1.89637
1.85359
2.03569
1.95847
1.96941
1.83249
1.84069
1.86971
1.84299
1.83096
1.82126
1.8366
1.83973
1.84482
1.91762
1.87168
1.87554
2.05239
2.15256
1.87115
1.95044
2.12459
2.0327
2.02533
1.83269
1.81751
1.82248
1.80737
1.81655
1.80726
1.82262
2.13501
2.03848
2.05454
2.02409
2.02871
2.12077
1.8808
1.94168
1.86761
1.85237
1.85241
1.93178
2.23729
2.25327
2.21624
2.22491
2.24372
2.31911
2.25674
2.23096
2.22194
2.23989
2.30159
2.21568
2.21563
2.21123
1.91026
1.99074
1.91073
2.15435
2.07203
2.04849
2.03645
2.07241
2.15487
2.30208
2.26752
2.27249
2.32427
2.24595
2.1569
2.26244
2.32677
2.29327
2.22197
1.81619
1.86721
1.86487
1.8534
1.78278
1.94463
2.03591
2.10292
2.02418
1.98374
2.1433
2.08258
2.19774
1.85086
1.95595
1.904
2.05791
1.97001
2.09882
2.21568
2.34898
2.28854
2.18433
2.15535
2.16734
2.19304
2.3596
2.28899
2.34303
2.24028
2.29687
2.09757
2.10469
2.13079
2.11946
2.25799
2.20118
2.27903
2.33298
2.30893
2.23426
2.00961
2.1075
1.85982
1.9147
2.03268
1.96842
1.93718
1.87012
1.83667
1.81892
1.82177
1.82362
1.81961
1.82525
2.00459
1.9398
1.93371
1.92214
1.92604
1.98826
1.85164
1.8822
1.84178
1.84272
1.83434
1.87406
1.88687
1.89651
1.83005
1.85124
1.87102
1.88515
1.85016
1.97992
1.91924
1.85744
1.8819
1.91398
1.87522
1.83429
1.79335
1.81152
1.85247
1.80919
1.79191
1.76887
1.8656
1.81764
1.83116
1.83043
1.81579
1.81029
2.15847
2.07133
2.30026
2.22881
2.17147
2.20179
2.23172
2.09477
2.18948
2.27793
2.22874
2.17501
2.28214
2.32385
2.17025
2.19622
2.16613
2.23017
2.22035
2.19442
2.22748
2.22249
2.25497
2.30685
2.28287
2.27549
1.90694
1.98406
1.77111
1.8277
1.82723
1.83164
1.76308
1.78343
1.74947
1.67548
1.69971
1.69584
1.72101
1.73035
1.7828
1.72872
1.75772
1.71498
1.70352
1.75199
1.70702
1.7007
1.68245
1.70408
1.67344
1.71432
1.85947
1.8187
2.00298
1.92103
1.74269
1.81954
1.81277
2.21535
2.29558
2.16839
2.24481
2.27695
2.22201
2.12094
1.93839
1.9583
2.04966
1.83834
1.88626
1.78995
2.14208
2.01144
2.07955
2.00747
2.03596
1.90969
2.11381
2.10418
2.0888
2.11168
2.11452
2.14827
2.06377
2.08502
2.05762
1.93494
1.98035
2.02551
1.91502
1.94203
1.86456
2.11978
2.03632
2.0838
1.89478
1.89615
1.84085
2.00853
1.95335
2.00318
1.83961
1.89294
1.89726
2.05479
1.9725
2.02835
2.06678
2.05613
2.05499
2.06628
1.99254
2.04126
2.01717
1.9035
1.94181
2.03997
1.9998
2.02032
1.99182
2.02859
2.09921
2.10146
2.13284
2.02706
2.06299
2.00817
2.09251
2.09097
2.0725
2.04923
2.05552
2.04654
2.03485
2.0683
1.97978
2.00364
2.02415
2.00369
1.98994
2.12194
2.07705
2.01913
2.04273
2.06962
2.02977
1.99031
1.86799
1.94267
1.86819
1.99191
1.99633
2.00003
1.99761
2.00227
2.01011
1.97217
1.97863
1.96914
2.0883
2.10581
2.06113
2.06892
2.16136
2.11773
2.15228
1.78257
1.83554
1.81147
1.81526
1.74168
1.90781
1.99213
2.05113
1.95812
1.93838
2.08336
2.01174
2.14849
1.78982
1.88595
1.8378
2.00179
1.9077
2.03375
2.13507
2.19226
2.15994
2.16066
2.18338
2.12165
2.14744
2.23802
2.24206
2.28023
2.19452
2.23287
2.11215
2.07082
2.16853
2.1507
2.21435
2.18699
2.23892
2.22263
2.22924
2.22201
1.79932
1.79895
1.80226
1.78068
1.80598
1.87771
1.83096
1.84705
1.83734
1.80965
1.88724
1.85064
1.88557
1.84853
1.82834
1.77592
1.80702
1.79106
2.14537
2.08947
2.1224
2.15737
2.15552
1.9095
1.92855
1.91373
1.97173
2.03314
2.02701
2.12797
2.08064
1.99011
1.95845
2.05975
2.00753
2.09248
1.82689
1.98753
1.89926
1.81393
1.82633
2.14919
2.18893
2.18414
2.12842
2.10477
2.00262
1.8682
1.9253
2.0504
2.11041
2.01152
2.05689
1.92769
1.86558
1.72856
1.79238
1.7924
1.72861
1.72865
1.69348
1.70235
1.70345
1.69528
1.75443
1.69545
1.70508
1.70953
1.68904
1.69692
1.69123
1.69694
2.08945
2.22791
2.15554
2.08126
2.08492
2.14617
2.24696
2.1911
2.23941
2.30021
2.17819
2.11008
2.14139
2.24923
2.30616
2.2553
2.28464
2.18825
