# vtk DataFile Version 4.2
vtk output
ASCII
DATASET POLYDATA
POINTS 642 double
-106.704 203.655 68.1649
113.856 205.822 66.5115
-95.4014 -204.983 -3.28507
107.972 -211.634 -5.67156
2.54582 -136.998 268.158
0.0310983 168.803 238.631
-0.49071 -138.673 -268.157
-2.76836 131.213 -267.098
190.887 -0.440534 -192.578
203.615 4.24791 179.69
-180.384 -2.86641 -191.137
-200.933 25.8864 178.086
-184.426 137.032 129.793
-145.135 89.5918 245.613
-82.9197 240.338 156.72
87.3285 240.098 157.688
0.304535 240.191 65.0952
85.0245 157.632 -182.631
-71.6151 159.315 -179.704
-136.703 81.1718 -262.111
-154.621 96.517 -129.409
-177.7 -5.77974 25.7785
146.346 95.6014 244.993
194.412 140.528 130.023
-129.828 -77.6721 249.039
0.404713 -19.3889 301.583
-157.912 -101.548 -129.255
-159.423 -108.384 100.4
-1.50195 1.41244 -321.156
-141.084 -88.1093 -262.993
165.396 102.1 -140.043
147.766 87.5243 -265.991
173.122 -111.598 99.4487
139.966 -77.4451 254.587
71.116 -194.096 142.106
-64.6402 -190.728 141.674
3.10475 -261.649 -6.21647
-59.5804 -191.122 -154.672
70.4885 -199.264 -139.6
147.934 -87.6983 -265.842
154.028 -100.34 -121.47
191.363 -3.04469 25.0037
-149.83 177.547 99.6505
-150.492 194.59 140.171
-100.94 230.727 116.161
-192.829 50.3748 210.483
-184.225 119.89 180.752
-203.032 72.3651 162.846
-44.9419 213.638 211.679
-118.535 175.058 208.197
-83.7226 130.681 251.525
-40.5847 258.145 116.042
-57.6212 232.155 68.9934
47.018 213.088 211.677
-0.0796084 253.518 164.879
63.2788 231.15 66.6094
41.7684 257.53 115.803
108.47 231.876 114.124
-12.306 180.281 -46.0345
-76.4554 133.102 -66.3356
79.1593 140.394 -73.2369
18.2218 182.973 -44.619
-50.1677 156.277 -223.546
-2.29531 164.643 -174.264
57.7013 155.699 -222.934
-124.474 131.016 -160.529
-144.602 149.26 -16.9915
-76.5747 114.75 -278.259
-107.087 138.612 -222.394
-178.543 52.4397 -156.186
-156.079 93.5443 -200.848
-175.146 37.2003 -226.867
-164.233 124.484 62.1927
-185.802 -2.71962 -116.14
-182.906 60.8778 -74.6947
-190.542 76.6818 96.5473
-196.73 19.6193 121.164
159.132 196.687 141.408
159.625 181.03 97.4446
88.2247 132.322 251.268
125.909 176.913 211.291
203.969 89.924 149.635
190.245 129.358 182.097
190.397 46.2795 213.093
-85.5279 39.2973 279.996
-0.131425 72.5982 273.315
-179.119 -31.2742 212.836
-147.84 1.90587 259.393
2.55632 -83.1092 304.504
-76.3463 -50.2533 293.367
-67.3047 -114.407 267.2
-179.08 -46.6335 76.2892
-183.422 -41.8765 156.215
-178.727 -61.1203 -167.308
-170.424 -43.4999 -77.9147
-133.476 -163.817 46.7019
-156.122 -123.986 5.08959
-129.014 -164.621 -40.9746
-149.185 -1.36817 -279.151
-177.059 -44.4756 -227.015
-3.72244 76.819 -310.141
-82.3535 47.7381 -313.43
-80.3939 -121.736 -279.134
-84.2435 -47.5707 -310.698
-1.39422 -79.7398 -307.208
119.211 144.327 -224.959
87.0044 116.915 -277.119
154.79 151.444 -22.0915
136.638 134.751 -169.571
188.085 49.2056 -227.805
172.786 100.787 -204.421
188.398 61.3632 -169.469
144.258 -170.255 41.5762
130.07 -161.744 124.252
95.0778 -209.495 65.8507
187.009 -35.8518 219.541
165.774 -90.0298 192.376
193.85 -45.304 156.246
36.5251 -166.125 215.647
106.481 -137.914 214.729
70.509 -114.158 268.937
33.3488 -235.088 55.6095
53.8154 -247.307 -8.29311
-33.6722 -163.874 215.906
2.90479 -205.226 151.298
-43.6153 -244.478 -6.82833
-26.6331 -232.744 55.5267
-86.7463 -204.712 67.0644
35.3098 -248.175 -71.1527
89.3879 -221.986 -68.5836
-77.8969 -214.853 -69.9073
-26.4029 -245.939 -71.1134
50.6532 -162.719 -230.192
1.69636 -221.266 -132.143
-57.4886 -164.686 -227.637
120.251 -153.515 -145.744
140.05 -174.527 -38.7771
82.4043 -118.909 -277.741
120.316 -146.672 -225.139
187.467 -57.946 -179.039
173.155 -99.2221 -209.666
188.423 -50.2275 -227.429
167.86 -132.934 2.89007
196.77 0.37383 -118.352
184.152 -43.7231 -68.1657
193.525 -56.6425 72.6641
207.312 11.3765 111.349
82.9584 -49.2983 295.479
152.192 -6.00201 265.977
89.8091 35.4055 282.034
-121.945 -155.613 125.163
-100.297 -135.9 213.691
-157.622 -89.1289 187.696
-113.75 -148.202 -225.805
-125.299 -137.816 -156.282
-162.94 -100.859 -203.201
153.746 0.00783581 -275.864
86.6657 -50.9855 -309.334
86.2746 51.1041 -309.251
200.565 78.5566 93.1872
189.472 66.5324 -74.2495
172.901 130.35 59.3442
-127.956 192.975 80.8137
-128.462 205.969 110.217
-104.732 218.636 90.8634
-172.349 164.546 134.619
-152.18 186.497 127.481
-169.787 157.892 120.035
-95.1272 239.288 132.742
-126.282 215.208 130.451
-120.206 221.519 147.974
-204.251 35.3552 189.4
-207.822 61.5272 180.104
-206.763 49.7725 172.156
-166.914 105.838 216.268
-190.643 83.1546 198.872
-171.069 69.3287 231.495
-193.502 108.759 143.775
-199.384 95.1741 166.045
-190.085 132.068 148.224
-23.1162 193.2 229.558
-63.9398 176.944 231.324
-43.0313 151.771 243.907
-100.747 212.044 183.855
-83.4109 197.549 210.588
-64.2779 229.319 187.177
-115.472 110.357 252.437
-102.285 154.702 233.212
-134.065 132.977 229.663
-170.953 162.318 158.424
-154.644 149.077 197.334
-138.312 189.811 172.086
-78.4872 235.759 92.6675
-83.9629 219.681 68.6366
-61.5798 256.001 132.724
-69.9731 248.113 117.22
-30.4057 238.615 67.4922
-48.9634 247.66 94.5135
-20.9978 252.125 93.8399
23.9792 193.056 229.599
-0.0281916 216.764 212.791
44.9192 250.9 163.549
23.9322 237.325 190.714
67.7935 228.89 187.473
-23.5556 237.358 190.722
-43.7379 251.347 163.313
91.3397 219.398 65.4458
85.6017 235.657 91.5044
112.903 219.91 89.8291
20.6847 252.167 93.2066
52.4213 246.822 93.5838
31.9525 238.278 65.4962
101.161 240.26 132.028
75.62 247.718 115.875
64.483 255.178 132.515
-23.3301 264.643 135.504
23.1238 264.326 135.657
-0.494957 260.167 116.922
-69.3567 209.501 43.3739
-94.1347 194.427 42.2005
-13.3756 220.998 33.0601
-38.0924 219.028 39.8068
-75.7431 155.356 -163.432
-29.8053 169.648 -60.4024
-47.481 166.216 -148.022
95.6311 197.116 35.7395
79.3833 206.459 37.2529
57.9576 166.534 -145.398
51.2112 162.499 -56.345
89.6264 157.504 -158.274
42.5348 218.869 37.3286
16.1846 221.342 31.5953
-28.4032 147.638 -245.464
-0.938369 156.02 -223.889
28.5948 147.92 -243.894
-46.261 164.328 -175.656
-29.2428 158.932 -202.206
-64.311 158.523 -201.459
76.0741 156.874 -205.762
29.8135 157.82 -204.053
52.2625 160.718 -177.913
2.96434 183.234 -42.693
21.6076 171.371 -129.972
-21.7405 169.662 -132.203
-139.52 134.772 -34.9006
-125.458 172.513 44.4795
-99.4632 147.376 -176.546
-113.107 135.938 -150.309
-142.461 133.693 -91.7714
-141.631 129.315 -113.106
-140.502 119.87 -137.427
-42.8109 124.25 -274.776
-64.505 142.578 -250.843
-124.289 114.536 -244.487
-95.6138 130.897 -250.664
-107.516 99.915 -274.065
-79.4147 151.616 -224.486
-88.887 151.823 -201.206
-180.943 29.0388 -175.851
-175.915 47.5634 -198.607
-178.949 16.5137 -211.246
-156.39 95.0264 -166.838
-167.74 73.0186 -183.981
-171.954 70.7414 -140.821
-160.704 60.2247 -245.054
-167.08 69.0906 -215.243
-152.854 90.4192 -229.806
-116.978 137.522 -192.926
-135.677 118.096 -212.465
-139.365 118.122 -181.065
-142.028 163.104 54.9992
-131.067 111.661 -41.6994
-143.038 155.344 18.8751
-159.166 152.807 81.5523
-176.742 133.724 103.197
-184.629 -2.08307 -146.711
-186.592 30.5246 -130.04
-167.867 43.1619 -35.3306
-182.053 33.62 -108.635
-177.479 -25.7374 -80.7491
-181.998 51.3483 -113.294
-184.767 56.0665 -98.2075
-201.811 51.9778 157.892
-199.661 29.628 161.942
-189.219 109.608 118.604
-196.77 78.3565 138.527
-192.788 10.7023 83.5582
-196.161 46.3345 112.126
-188.732 39.5686 72.2823
-179.9 79.9079 -1.1359
-177.41 84.5613 30.2628
-180.261 100.563 76.7744
137.211 208.481 107.808
137.29 195.598 80.5865
126.553 222.071 149.495
134.172 217.711 128.292
179.234 162.116 116.301
161.477 189.769 123.883
182.059 167.853 134.95
45.4257 151.862 243.698
68.624 176.639 231.928
139.19 138.793 231.461
108.428 156.872 235.25
118.4 115.548 252.995
89.419 197.146 212.091
107.228 212.009 185.97
203.118 42.989 167.47
202.225 69.2309 180.374
201.393 21.4584 193.891
199.456 138.259 149.312
202.791 110.227 163.399
202.784 118.395 139.119
171.146 71.8583 230.976
191.099 93.5629 198.397
170.753 115.016 216.456
146.351 191.238 176.018
162.182 154.476 200.382
179.7 165.839 162.364
-49.9064 105.262 262.323
-0.0451299 124.52 255.618
-119.036 70.4872 267.272
-89.988 86.8457 267.405
-0.306245 22.1255 291.468
-48.4026 52.221 278.288
-43.7843 7.92984 293.808
-193.006 -4.05687 192.294
-187.263 10.1017 212.405
-140.67 -39.3947 257.567
-165.58 -16.6212 239.066
-156.879 -54.1899 231.876
-169.012 29.2215 236.962
-150.433 48.2083 255.45
2.48454 -113.965 288.703
-29.7043 -100.295 288.408
-26.7417 -127.702 269.343
-36.0879 -36.0994 300.182
-31.0801 -68.2833 299.868
1.76759 -55.1934 310.033
-100.204 -98.0163 261.122
-73.0302 -84.0581 284.266
-105.709 -65.6624 275.268
-118.432 20.9389 275.3
-113.409 -25.2555 280.779
-81.5979 -8.37589 294.171
-193.578 -10.632 137.171
-192.729 -8.90092 170.708
-181.075 -17.8716 57.0264
-192.57 -14.2516 97.5032
-172.257 -72.7701 132.622
-185.312 -43.3537 114.169
-171.014 -80.4316 88.2919
-181.074 -38.2425 -178.381
-185.96 -32.1877 -135.465
-163.085 -82.6354 -108.472
-179.974 -50.7911 -133.512
-170.793 -80.2746 -156.067
-183.594 -23.0778 -106.072
-178.824 -26.8404 -32.8484
-117.212 -182.815 22.8153
-132.973 -164.935 3.34462
-113.363 -186.778 -20.752
-158.371 -119.583 53.784
-146.768 -143.246 27.8433
-147.417 -138.933 70.0389
-144.309 -130.734 -81.7756
-145.926 -143.632 -18.7931
-154.358 -115.546 -54.0512
-175.421 -54.7606 9.41727
-163.933 -93.602 -27.2084
-165.677 -91.6969 36.6317
-178.328 -2.6435 -231.578
-178.881 -23.6363 -211.429
-145.002 41.1784 -273.719
-165.746 18.6203 -252.897
-165.021 -66.8959 -245.372
-167.448 -23.0164 -253.05
-146.643 -44.3898 -273.106
-3.49343 107.162 -290.807
-45.1384 96.5872 -298.646
-47.7977 26.4873 -321.241
-46.4138 63.5278 -315.486
-2.57369 43.3196 -320.574
-80.9503 83.2687 -299.807
-111.993 66.7221 -292.001
-44.9799 -131.397 -275.224
-47.2144 -102.264 -296.799
-0.793815 -113.557 -289.852
-114.991 -70.7852 -291.632
-84.2646 -88.6238 -298.643
-111.609 -106.744 -275.166
-1.46609 -41.3542 -318.824
-47.3127 -63.9971 -312.022
-47.9693 -23.6363 -321.027
-118.358 22.2077 -300.106
[...]
POINT_DATA 642
SCALARS Mean_Curvature double 1
LOOKUP_TABLE default
0.00709552
0.00684611
0.00692346
0.00895205
0.0223639
0.000844709
0.0065525
0.00617601
-0.00203981
0.0121205
0.000127016
0.00600697
0.0133598
0.0101624
0.0142964
0.0131082
0.00704268
0.00832371
0.0189825
0.0112384
-0.00524713
-0.00430694
0.00872833
0.0114708
0.0106818
0.00498729
0.00829696
0.00520835
0.00161783
0.0120221
-0.00672999
0.0131656
0.00752862
0.0121137
0.00716112
0.00710396
0.0340723
0.00610622
0.0129897
0.0123454
-0.00307973
-0.00211267
0.0067621
0.0308306
0.00751398
0.0153315
0.009869
0.0115534
0.0115753
0.00828018
0.00901783
0.0149156
0.00908419
0.00969592
0.00746865
0.00708025
0.0122567
0.00982823
0.010014
-0.0154453
-0.0147501
0.0134894
0.0156114
0.00265025
0.0143474
0.0148486
0.13075
0.0129553
0.0155441
0.00833421
0.00963349
0.019247
-0.007004
0.0117187
-0.0204108
0.00560326
0.00434225
0.022454
0.00820907
0.00673681
0.0097311
0.00193581
0.0133579
0.00865115
0.00427487
0.000747716
0.0167253
0.0119569
0.0205203
0.0125649
0.0111297
0.000673271
0.00310657
0.011015
-0.00941433
0.00917066
0.00680301
0.0045415
0.0144368
0.0177933
0.00893751
0.0138676
0.0139185
0.00899229
0.00540829
0.0210965
0.0123697
0.0772456
0.00768695
0.0228718
0.0177406
0.00757272
0.00763291
0.00656648
0.0086145
0.0179123
0.00636714
0.00292178
0.00432417
0.00724572
0.00876803
0.00295574
0.0151095
0.0041764
0.012227
0.0161359
0.00131342
0.00979676
0.0152671
0.0131204
0.00962318
0.0160702
0.0116813
0.00794991
0.00871664
0.00223597
0.00735596
0.00854774
0.0218927
0.00897531
0.026416
0.0233554
0.0095682
0.012889
0.00242863
0.0063799
0.0122255
0.010966
0.0118812
0.00342742
0.00620116
0.00818666
0.0104324
0.0232544
0.00319865
0.0144803
0.00627277
0.0108734
0.0100146
0.00438752
-0.049829
-0.00699916
0.00785777
0.00614403
0.0105913
0.0307213
0.00119501
0.000888052
0.0251386
0.0141989
0.0221338
0.034315
0.0385324
0.0331354
0.00772503
0.0095349
0.0119259
0.00277359
0.0250692
0.0291356
0.0123757
0.00864684
0.000819964
0.00855853
0.0098359
0.00997235
0.0105979
0.00922556
0.00975747
0.0152448
0.00795729
0.00814133
0.0113476
0.00905681
0.0274454
0.00804447
0.00878439
0.00951497
0.00803069
0.0119805
0.00784407
0.0120472
0.011412
0.00875211
0.0116231
0.0130516
0.00926179
0.0106593
0.0100621
0.00835635
0.00669305
0.0081523
0.0242592
0.00961483
0.023172
0.0278261
0.0270544
0.00522858
0.00278709
0.00185875
0.00581409
0.00299972
0.00195942
1.50267e-05
0.0191951
0.00341588
0.00410047
0.012367
-0.00420957
0.00979209
0.0017758
0.00764206
0.0106574
0.0121116
0.0104028
0.00887526
-0.00271936
0.00944817
0.00408724
-0.00226605
-0.00146679
0.00205833
0.00349567
0.00167315
-0.0231002
-0.00827105
0.0127332
-0.00023387
0.0121045
0.0785622
-0.0044832
0.00791969
0.0159859
0.0151514
0.0144029
0.0116497
0.0202725
0.0125599
0.0047635
0.00833914
0.00489915
0.00429152
0.00530636
0.00965975
0.0153199
0.0131383
0.0175218
0.0138963
0.0134971
0.0106758
0.0131394
-0.0231666
-0.00893691
0.00960016
0.00597022
0.00104054
0.0178183
-0.0123437
-0.00384533
-0.0245155
-0.0125295
0.0353473
-0.00020989
-0.00230842
0.00717087
-0.000565619
0.0106583
0.00525115
0.00159437
0.042025
-0.0187556
0.0141558
0.00790928
0.00765001
0.0168726
0.0181514
0.0056098
0.00859194
0.0234741
5.28625e-05
0.00778197
0.0118583
0.0111778
0.0131402
0.00941404
0.00876116
-7.77904e-05
0.0156926
0.0142232
0.0293278
0.0194687
0.018212
0.0077785
0.0103903
0.0101469
0.00912008
0.0108498
0.0158521
0.00209449
0.00138877
0.0137689
0.00702726
0.00414035
-0.000516231
0.00529495
0.0183742
0.00927503
0.0101905
0.0117695
0.00954963
0.0043412
0.0139867
0.0199469
0.00830259
0.00823929
0.00435241
0.00829833
0.023918
0.0125254
0.0123891
0.0115725
0.00818791
0.011885
0.0144556
0.00549717
0.00287267
0.000388056
0.0118822
0.00272832
0.00764634
0.00419576
0.00233621
0.0184905
-0.00166073
0.00555301
0.00544332
0.0468787
0.0274268
0.00443503
0.00709264
0.00616628
0.00868118
0.00494375
0.00723318
0.00335048
0.00874488
0.00407784
0.00302915
0.00329608
-0.00027316
0.0218279
0.000424888
0.0104467
0.00971635
0.0162635
0.0120085
0.00696331
0.00736272
0.010542
0.00664447
0.0124665
0.00889339
0.0137216
0.0121189
0.00801096
0.00944449
0.00684984
0.011699
0.0140828
0.0125674
0.00664557
0.00675477
0.00808788
0.00958803
0.0137954
0.0125301
0.0125277
0.0044148
0.0142925
0.0255477
0.0137229
0.0163141
0.0146207
-0.00477797
-0.0182676
-0.00680429
0.0226104
0.0624562
0.00141293
0.00659082
0.00408893
0.015077
0.00413846
0.018353
0.0218011
0.0169105
0.00433342
0.0115704
0.00492054
0.0134416
0.0102278
0.0202281
0.00727125
0.00877476
0.00542377
0.00607034
0.00593895
0.00506515
0.0082398
0.00736093
0.00716279
0.0220107
0.00824918
0.00665573
0.0124002
0.0110213
0.0146304
0.00505178
0.00644979
0.00372059
0.0109528
0.00681666
0.00994779
0.00557694
0.00684197
0.005258
0.0116463
0.0113951
0.0114339
0.00436464
0.00744182
0.00517726
0.00260975
0.0111696
0.00675424
0.00716176
0.0204586
0.00738183
0.0145061
0.00720587
0.0111372
0.00682651
0.00572361
0.00452986
0.00820111
0.00646449
0.0103785
0.00202026
0.00322528
0.01414
0.00834128
0.0210609
0.00710066
0.00892433
0.00779859
0.0052549
0.00559243
0.0123011
0.00686398
0.00660893
0.0112146
0.00483355
0.00908576
0.0140989
0.0119449
0.00446481
0.00416682
0.0116003
0.0118034
0.00573649
0.00390345
0.013381
0.0119354
0.00300562
0.0106652
0.00946959
-0.00388327
-0.0170232
0.0259773
-0.01372
0.0186894
0.0125
0.0155043
0.0141482
0.00753345
0.00787286
0.00516317
0.00682428
0.00598619
0.00601143
-0.00672415
0.00978299
0.0123014
0.0132643
0.011259
0.0131047
0.0141869
0.0208666
0.00632659
0.0191104
0.00397017
0.00176862
0.0119653
0.0032049
0.0161592
0.0301393
0.0223289
0.00897846
0.0274367
0.00569901
0.00857143
0.00694232
0.0107789
0.00976967
0.00369148
0.000786314
0.0179398
0.0150098
0.0352997
-0.0198361
0.00850279
-0.00639824
0.00867592
0.00263832
0.00838616
0.00795386
0.00191362
-0.00119381
0.0085647
0.00269159
0.000931255
-0.00150602
0.0100755
0.0123461
0.0102421
0.0122525
0.00135326
0.0166992
0.0054092
0.00896652
0.0122726
0.0149464
0.00182295
0.00323139
-0.000953881
0.00608281
0.0114112
0.0168654
0.0113122
0.016392
0.0110131
0.00626489
0.0061943
0.00630568
0.00641179
0.0108493
0.0112864
0.01246
0.00709639
0.00453753
0.0106949
0.00354318
0.00564592
0.0130073
0.0109672
0.00516178
0.0100468
0.00471948
0.0148661
0.0103722
0.0266586
0.0127268
0.014379
0.00569682
0.00390133
0.0038634
0.0086743
-0.0160563
0.013276
0.0201143
0.0175244
0.0121952
0.00689914
0.00799625
0.00822121
0.0210883
0.0162548
0.0132907
0.00823451
0.00834862
0.0134207
0.0103843
0.00876196
0.00449837
0.0112968
0.0166105
0.00545891
0.0165052
0.0146235
0.00692861
0.00948777
0.00860147
0.00572064
0.00870142
0.00103807
0.00136045
0.0107377
0.0135158
0.002996
0.0123658
0.010526
0.0225145
0.00669809
-0.00941397
-0.00288844
0.00668265
0.012271
0.0240917
-0.0249921
-0.0286528
0.0408347
0.0105242
SCALARS CoVolArea double 1
LOOKUP_TABLE default
755.51
814.754
912.864
824.486
741.222
1434.29
1187.8
1279.38
1066.71
617.817
962.786
437.228
629.885
1407.48
1245
1342.54
1129.22
797.167
621.395
1330.8
2207.98
2880.23
1591.64
637.028
1275.7
1758.1
1425.71
1460.7
2111.64
1395.64
2181.19
1284.09
1471.4
1223.17
1514.04
1521.17
558.096
1811.36
1681.8
1305.79
2618.87
2996.5
1067.42
894.287
779.09
1136.05
1446.81
507.779
1367.42
1642.4
1604.32
747.021
902.583
1462.81
1420.94
1053.95
829.34
787.684
1815.85
5688.15
3627.45
2547.17
940.543
1808.95
1028.55
752.181
671.46
1248.56
949.803
980.739
898.655
917.138
2769.3
914.981
1034.19
1591.59
1191.73
1030.96
998.384
1623.28
1565.16
1014.39
1293.78
1436.88
1788.24
2744.18
1050.75
1465.95
1078.95
1513.3
1305.27
1801.15
1160.67
797.399
2457.84
1069.62
1485.87
1610.76
1492.69
933.875
1694.53
1553.46
1272.41
1681.1
1890.63
896.972
1336.41
1540.27
853.751
980.02
764.807
882.198
1176.97
1602.48
1315.38
927.805
1304.26
1223.61
1379.51
1403.68
1420.85
1494.38
957.933
1356.8
1404.61
910.397
1472.31
1263.47
1031.06
1007.29
1199.02
974.93
1676.33
2054.07
1361.68
2132.36
1158.07
1395.62
984.303
664.625
539.312
956.492
1303.61
1080.28
2457.83
1628.09
1259.61
1512.25
1418.95
1844.62
1562.97
1283.02
1126.93
901.894
1757.81
720.642
1821.93
1731.38
1717.19
1428.14
1112.15
3047.07
1011.65
903.85
835.64
646.418
696.948
779.889
747.396
678.903
1159.65
677.023
688.23
345.026
1538.2
1213.84
1271.94
671.899
850.401
853.644
1399.56
1523.09
1828.91
1547.17
1443.24
1344.25
1356.87
1475.88
1572.69
1389.46
1824.3
1673.31
840.337
821.238
884.57
703.626
939.389
796.99
962.287
1458.33
1390.06
1388.32
1427
1436.38
1379
1312.35
841.646
899.121
833.575
1024.81
917.177
1039.05
837.666
770.039
977.545
1100.77
1145.36
944.639
2847.29
2855.36
1559.93
1843.98
2377.01
3787.78
1375.64
2463.02
2206.62
2134.67
3527.61
1853.12
2257.72
1579.9
1292.04
1212.03
1449.63
1029.45
1169.81
703.346
782.387
1294.78
1433.44
1961.86
2348.47
1978.18
3616.46
1483.9
692.476
2517.46
1368.84
892.218
887.431
1331.12
1103.43
1190.42
1095.39
1248.35
813.518
703.553
1142.76
900.233
845.977
1075.31
933.622
1016.73
1125.41
849.227
1056.31
863.272
1036.01
988.68
979.247
4668.33
1819.29
1201.02
1035.07
1312.17
962.921
4275.55
1632.05
2428.61
588.592
2355.88
802.013
842.34
1035.14
1032.61
1297.31
1280.91
2846.29
2610.34
2141.57
1387.26
867.564
987.481
1273.41
768.509
798.767
755.002
747.686
1919.3
1585.1
1473.55
1413.29
1360.24
1488.35
1590.89
1156.72
1175.34
987.771
802.162
908.74
584.98
1556.64
1346.08
1506.31
1667.83
1656.39
1355.81
2287.62
2433.9
1511.92
1679.56
2287.46
2232.32
1897.83
804.869
1192.11
1380.1
1285.83
1157.65
1332.51
1447.68
1022.17
1308.7
1162.27
1565.97
1313.97
1200.79
1173.33
1378.06
1366.9
1733.19
1604.56
1780.62
1309.48
917.107
1694.35
1220.35
1384.02
1379.95
1608.51
1127.58
905.116
2053.97
1219.42
986.13
891.088
1600.92
1136.91
1158.49
1181.03
1364.84
1106.21
1185.87
1863.2
1382.31
1729.33
2719.79
2652.04
2095.11
928.404
866.621
1489.4
1200.05
1175.55
1221.13
1554.62
1625.57
1425.03
1832.35
1485.26
1783
1318.64
1488.89
1404.37
1598.86
1645.77
1572.09
1428.6
1277.57
1957.41
1734.06
1933.83
1723.38
1826.46
1761.22
1226.19
1621.63
651.646
768.154
1187.99
1065.89
1223.61
2118.93
4251.97
829.858
1731.3
1289.89
2405.24
738.295
940.17
718.858
1182.22
1083.38
756.219
1115.57
1005.05
679.341
892.2
797.313
869.585
998.878
1097.82
1244.68
1183.87
1611.75
1330.62
1318.77
1298.23
1289.56
1547.06
725.143
870.177
801.218
1167.49
965.233
1043.87
1373.67
1198.91
1557.25
1075.98
1379.82
1131.28
1575.3
1404.77
1472.22
1279.92
1284.27
1259.65
1751.52
1513.92
1754.6
1264.88
1019.83
1575.61
1422.84
691.52
1090.37
859.375
1096.12
1234.07
1536.47
1363.37
1479.31
1322.59
1519.92
1039.33
1208.81
1189.01
845.497
1030.03
638.366
1281.22
1370.39
1528.1
1705.74
1691.71
1489.86
1018.76
981.969
904.09
966.347
1316.67
961.426
1185.33
1087.81
1077.77
1244.49
1015.82
1715.93
937.471
857.124
1210.72
2061.69
1260.48
1892.52
2913.98
1954.09
1132.52
2559.87
1573.48
1100.78
1193.16
1187.77
1129.72
1034.37
1836.66
1658.93
1950.42
1914.09
2418.24
1429.88
1221.56
1242.63
1210.1
1273.08
1179.26
1326.35
1049.9
592.215
906.625
1322.03
462.544
1541.92
1122.36
637.465
1023.21
1298.25
887.383
1285.65
1043.24
1976.73
1010.95
1094.6
1433.14
1445.86
903.89
1890.86
1037.3
2581.77
1438.34
2842.12
1237.75
1145.02
1424.47
1351.04
1363.54
1333.03
1840.86
2600.67
2560.36
1887.83
1282.7
1368.14
1469.54
1307.99
1640.23
1144.85
1740.59
1450.62
1149.96
1247.56
2383.78
2059.24
2396.35
1766.98
1690.07
1439.39
1691.75
1707.46
1137.62
1558.46
1269.85
1234.66
1520.54
1274.24
1197.55
1133.51
1278.31
1531.44
876.574
1403.05
1011.26
953.927
1172.71
1636.22
1360.13
1556.11
1123.89
1279.57
819.41
1122.94
1212.17
1464.9
1552.06
2004.13
1883.5
2314.61
781.971
1054.86
780.342
659.526
912.24
1246.42
982.492
906.806
1228.68
1540.53
1473.77
1461.05
1530.9
1692.29
2022.74
1805.01
1445.31
1441.76
1735.09
1419.68
1397.16
1712.5
1983.72
1996.75
2134.57
2001.28
1375.65
2453.17
1176.76
937.243
917.899
1121.74
2730.99
779.21
1714.23
3793.29
986.578
1078.05
1105.36
1674.14
5136.91
1984.57
3344.58
1610.48
SCALARS SignedDistance double 1
LOOKUP_TABLE default
99.1904
97.8595
89.4625
85.1978
71.1084
72.6074
72.2578
76.9705
89.2316
88.0045
92.7192
94.875
95.2192
65.2428
74.0217
71.764
97.7267
98.1626
104.348
71.8117
109.889
104.8
65.2676
91.5497
72.9973
68.8811
109.699
95.2373
60.9886
68.2134
102.486
65.0954
92.7063
70.0152
80.3944
82.347
79.8233
102.186
89.2477
65.2291
102.184
103.601
95.9704
89.6018
88.2113
77.7369
82.0808
96.3241
64.0101
66.2905
69.3959
88.0789
98.6641
64.2459
68.1962
97.3048
87.3871
87.0088
130.826
127.322
129.683
131.364
96.7183
109.61
96.1622
105.427
141.916
68.0543
90.5614
97.6897
92.8393
87.9124
104.173
110.128
141.672
101.879
95.9935
84.2605
93.4242
69.823
64.1942
88.3727
74.7843
76.1499
71.4686
71.5765
84.5151
67.4572
62.0373
63.8018
69.1023
103.365
92.7372
96.3066
117.301
93.3805
97.6048
93.1313
68.5195
89.18
62.0343
58.1145
64.6331
59.7216
61.5587
88.9065
69.8529
145.092
97.8134
86.1738
91.4166
93.8615
87.9499
84.0532
82.5105
80.207
82.9927
89.5107
77.6362
78.5513
68.5656
83.3344
81.4823
79.4172
80.2329
84.7133
85.4031
85.4485
77.7032
82.2207
86.8557
81.6818
89.0694
79.144
90.9542
105.261
88.2833
66.1536
92.4835
92.7137
92.9326
86.6688
94.3641
107.15
116.649
95.428
96.455
64.3843
64.6597
71.7712
87.3649
80.9704
89.5781
90.1403
105.529
92.473
64.598
62.4676
62.0352
96.6532
135.286
101.612
98.2268
91.3531
94.542
93.0028
90.5573
93.6773
85.1801
87.8452
82.9001
92.5803
95.2366
97.0653
69.8629
77.4792
67.7578
93.9738
95.0561
92.7703
68.2235
68.3611
71.2486
66.6163
64.9714
64.5229
65.8794
66.0886
65.5965
82.8361
69.6773
72.4209
93.3338
98.7921
84.5293
87.1324
98.7782
92.3709
92.4891
68.2139
64.2422
68.5987
63.8705
64.6336
63.903
68.684
97.9522
92.1568
92.9694
91.1059
91.5109
97.2883
83.1875
86.3288
83.8181
84.3209
83.8856
87.0228
103.09
103.291
105.021
104.065
106.897
134.645
121.516
103.393
102.654
117.156
127.894
104.079
101.642
105.091
87.6504
96.4885
87.9274
109.151
99.5043
99.1705
97.4545
98.4091
101.628
130.246
129.65
130.845
140.063
105.688
102.344
107.395
146.541
132.135
113.575
73.7188
83.1009
80.2888
78.2407
67.6062
92.7216
96.5152
93.2656
91.3685
91.2404
98.6539
93.9175
103.97
80.3243
90.2564
87.1921
97.6013
91.5227
99.1434
106.072
127.9
122.757
101.019
98.6975
98.2302
107.109
125.216
113.514
121.942
115.807
127.306
96.5939
96.1778
97.0781
95.0356
103.969
97.5611
104.731
132.498
117.392
104.874
89.5106
95.9931
77.8335
85.368
90.9512
87.5973
88.6152
71.0947
68.669
63.4365
66.5911
65.2948
64.1986
65.0334
87.6627
89.8042
85.737
89.2968
87.1949
92.125
68.1829
76.4825
67.8132
68.8865
65.3998
77.9637
70.963
71.0633
65.2712
70.7248
71.6265
72.619
71.1853
90.8006
83.5379
70.238
73.0888
77.6475
72.6484
67.2022
65.4494
65.1717
70.08
67.81
65.7117
67.4322
69.9856
64.5728
66.423
66.208
65.3502
66.9641
93.0728
91.627
105.286
102.188
94.6262
98.9847
98.2388
93.467
102.855
112.347
102.006
99.1715
113.67
114.323
90.2439
92.371
90.4704
98.3294
94.5324
93.1901
108.581
94.8602
104.787
101.787
99.6183
99.8302
90.495
91.1851
68.2867
78.5462
77.9054
79.9929
68.5136
68.1403
65.604
61.0616
60.3544
60.3727
61.2411
62.544
69.217
62.8652
64.8116
59.9145
59.097
64.1457
60.7575
62.0111
60.8364
61.4814
58.8489
61.2685
83.573
73.4035
95.5272
94.2743
63.3965
76.5236
74.7017
102.938
125.371
104.897
122.22
138.511
102.127
96.0351
88.4853
90.2626
90.9335
81.85
87.3526
72.9235
96.3374
92.279
94.329
94.5866
94.7397
89.6848
85.8971
84.7089
84.3536
88.588
87.212
90.5331
82.0757
83.7984
81.4487
86.2832
86.9721
88.026
79.545
83.4235
74.0016
87.8397
86.0955
86.6554
75.615
74.1241
69.6282
80.0914
77.8137
79.694
68.1509
73.9334
75.2199
85.043
80.5531
82.4164
84.0978
83.6595
82.793
82.7035
80.0765
82.2546
80.7802
76.3036
77.4676
80.6858
80.3329
81.1018
79.3691
80.1488
87.9216
86.9756
88.3403
81.7581
84.0988
81.5938
84.5806
84.7716
83.3871
83.3096
83.8755
83.6205
81.6133
84.0026
79.5468
79.6806
80.3252
78.9224
77.2996
88.4798
86.0248
80.5657
83.7534
85.5015
82.6557
80.6748
80.3362
88.1589
80.5387
80.7706
96.9218
101.746
106.283
102.434
87.1934
79.8948
77.1219
76.0353
86.4227
86.2558
100.343
84.7694
92.1701
88.4961
102.811
69.102
76.5598
75.3803
75.9733
63.3937
91.6763
105.358
90.9609
91.4469
88.4841
92.9629
92.6372
93.3727
73.5786
91.0267
84.2575
100.258
93.0909
95.1056
87.9836
94.2687
90.6325
90.7445
94.9033
93.9263
98.8881
106.273
110.8
114.32
99.1643
106.542
93.3731
89.1108
94.6171
93.7728
98.4454
97.2008
99.3393
98.4201
97.9482
98.1583
64.9217
63.9541
63.4853
65.242
67.3219
76.5036
66.3315
69.4082
70.2065
65.6843
70.8545
70.3941
72.498
70.9353
65.5024
61.852
65.2891
68.2162
89.1313
84.6181
86.8754
89.7138
91.5224
75.3755
76.8788
75.7844
80.5357
82.6644
91.0295
91.5111
92.2278
87.6871
81.6473
85.2065
84.1998
88.3349
77.6001
97.4118
91.7828
74.3581
76.6727
90.3693
106.41
101.982
92.7987
105.324
92.3075
85.7755
89.5392
94.4578
97.0771
95.2041
95.8489
92.0766
85.9169
64.239
73.4237
73.3739
64.2263
62.6077
60.3775
62.1116
61.3702
58.1418
65.3941
58.1319
62.7099
61.1677
60.4445
59.5389
60.2206
59.561
89.6748
98.3571
97.3274
92.8449
93.3631
99.8229
114.491
107.314
111.793
123.202
104.688
95.6101
98.8821
123.6
131.881
111.764
131.565
99.602
