# vtk DataFile Version 4.2
vtk output
ASCII
DATASET POLYDATA
POINTS 642 double
-141.22 249.234 43.1086
146.495 251.471 41.7174
-133.028 -248.632 -2.4994
142.368 -254.46 -3.98264
1.64953 -168.186 299.783
0.0259891 186.707 280.95
-0.399681 -169.255 -299.854
-1.99875 164.271 -298.949
247.653 -0.44976 -198.53
258.47 1.94099 188.513
-239.225 -2.34661 -197.863
-257.331 13.4475 183.312
-238.263 160.02 121.774
-168.063 103.754 278.51
-99.3875 275.319 174.414
102.321 275.439 175.315
-0.171613 295.832 41.1777
98.3335 217.244 -187.924
-90.2273 218.111 -184.238
-164.243 99.3161 -290.445
-208.648 129.629 -128.799
-244.715 -3.27936 18.0843
169.128 107.568 278.617
245.96 162.995 122.98
-158.368 -96.4013 279.561
0.343976 -12.0746 345.15
-213.273 -131.519 -129.313
-212.997 -135.642 107.63
-1.08743 0.882694 -360.487
-167.094 -103.628 -291.553
217.897 133.766 -136.801
171.654 103.749 -294.142
223.231 -139.438 107.019
165.495 -96.8209 284.353
89.2744 -238.445 162.601
-85.1404 -235.446 162.037
1.63529 -312.333 -3.40725
-85.5368 -234.396 -170.286
88.9059 -241.625 -163.372
171.663 -103.792 -294.133
210.275 -131.084 -124.895
255.598 -0.98872 16.9646
-195.449 213.431 85.6078
-186.425 229.191 147.736
-130.161 276.076 107.818
-227.993 55.3859 237.791
-219.947 139.174 202.199
-261.736 81.9294 159.303
-52.8724 241.325 241.704
-139.487 200.184 236.331
-91.944 148.698 290.911
-50.8412 309.834 107.927
-75.6452 284.702 42.9808
54.1997 240.964 241.726
-0.0338413 290.456 184.767
79.2721 284.296 41.6156
51.3903 309.316 108.037
134.916 277.693 106.778
-28.4972 245.523 -65.0545
-105.854 199.398 -77.3726
112.149 210.166 -81.1022
32.4663 247.054 -63.7098
-55.4737 207.301 -244.194
-1.37845 224.776 -186.917
60.5704 207.282 -243.04
-161.855 182.074 -162.002
-191.314 172.435 -33.1862
-88.3746 140.504 -309.714
-133.357 179.154 -242.373
-234.904 70.2495 -162.932
-203.833 123.512 -211.098
-221.059 48.0784 -246.197
-220.78 151.477 44.2087
-251.054 -1.51001 -109.491
-239.9 75.0498 -71.7415
-252.588 86.0533 86.1122
-257.591 15.1372 117.874
191.778 230.471 150.384
202.786 216.935 83.8586
94.9266 150.052 291.608
144.489 201.923 239.012
259.614 93.9378 155.637
224.971 145.509 203.897
227.109 53.059 239.013
-93.5698 49.9372 323.144
-0.0991212 86.5808 317.417
-219.451 -44.6651 236.942
-174.271 0.903999 293.558
1.65603 -95.2461 342.679
-88.5064 -56.8996 332.431
-82.0401 -139.145 300.327
-242.092 -63.2027 71.5382
-239.106 -62.2837 161.291
-237.249 -76.7814 -168.908
-233.971 -63.4946 -75.8077
-180.205 -200.138 51.5763
-213.072 -148.653 3.53128
-175.982 -200.393 -48.0179
-177.472 -0.763436 -309.38
-223.042 -51.9083 -246.613
-2.47439 92.0048 -346.904
-93.4318 56.0157 -348.56
-90.9067 -145.031 -310.767
-94.538 -55.7605 -346.794
-1.02759 -93.3238 -344.715
140.991 183.881 -244.892
95.0824 142.637 -309.721
203.851 177.108 -35.3789
170.898 184.926 -169.366
230.429 55.7499 -248.658
217.445 130.529 -213.761
245.361 77.7634 -171.334
188.043 -205.13 48.7725
165.912 -199.081 139.864
121.456 -254.488 78.211
225.975 -48.1223 242.657
207.361 -119.293 207.751
246.933 -64.4942 162.964
46.6477 -207.79 241.224
131.028 -174.811 238.179
84.1719 -139.236 301.864
44.2354 -284.839 72.2772
73.6876 -295.573 -5.13154
-45.0512 -206.47 241.13
1.80756 -252.364 172.674
-67.2735 -292.909 -4.29661
-40.0437 -282.968 71.9562
-115.655 -250.236 78.4697
46.2863 -295.328 -82.6819
118.977 -263.81 -80.088
-111.022 -258.05 -80.643
-41.0927 -293.658 -82.4486
56.5674 -207.714 -250.636
1.0253 -262.733 -160.925
-60.1279 -209.71 -249.486
163.272 -191.628 -154.125
185.028 -208.167 -47.1817
92.4611 -143.288 -309.877
141.107 -183.559 -245.497
244.035 -75.9353 -176.963
219.183 -130.584 -214.851
230.796 -56.1089 -248.355
222.863 -155.454 1.69977
259.834 0.100036 -111.716
243.722 -62.747 -69.1243
252.803 -70.7051 69.8873
266.809 7.45347 109.492
92.8082 -56.2922 334.802
177.649 -3.92445 299.139
96.5939 47.5437 325.01
-159.928 -193.964 140.154
-126.61 -173.439 236.7
-201.715 -118.507 203.06
-137.772 -185.052 -244.988
-164.094 -184.694 -162.852
-210.424 -129.851 -212.19
179.929 0.00608726 -306.873
96.176 -58.1498 -346.465
95.9408 58.2198 -346.416
260.194 88.4468 83.224
250.139 75.6549 -71.159
228.063 155.779 41.1793
-168.871 234.417 62.2634
-166.378 246.876 98.5689
-137.285 264.505 74.8115
-218.105 195.877 133.81
-194.532 223.179 118.568
-218.84 188.11 106.677
-119.071 282.327 137.555
-160.142 256.395 128.75
-145.366 255.809 162.017
-248.926 32.148 209.494
-252.26 69.643 196.072
-265.443 48.0731 172.352
-197.023 123.05 243.746
-225.99 97.2682 223.043
-200.685 79.535 261.446
-250.941 123.22 139.653
-247.351 111.768 178.558
-236.441 152.708 156.59
-26.747 215.86 265.703
-72.5028 198.852 267.624
-46.72 169.597 285.919
-120.058 241.727 208.009
-97.8947 223.841 240.366
-76.8123 261.13 211.361
-131.039 126.947 288.555
-117.222 176.418 266.906
-155.866 153.087 260.538
-205.055 186.917 175.611
-183.23 171.809 222.511
-165.042 217.672 194.036
-102.396 285.247 75.9412
-110.449 269.192 42.7405
-76.7204 300.652 139.023
-90.6029 296.803 108.971
-39.6366 293.568 42.2837
-63.2837 299.946 77.0869
-25.7244 306.437 76.838
27.3216 215.749 265.732
-0.0114043 244.729 243.804
52.3821 287.223 182.721
27.6148 270.076 215.887
79.0847 261.014 211.671
-27.3794 270.103 215.888
-51.6259 287.479 182.621
115.542 269.754 40.5999
106.872 285.667 75.1989
142.866 266.192 73.9883
25.255 306.197 76.7257
65.3292 299.429 76.7119
40.2926 293.249 41.273
122.439 282.869 137.973
93.713 296.88 108.522
78.1827 300.169 139.164
-27.5681 309.661 143.579
27.5005 309.549 143.692
-0.322098 313.143 108.782
-94.1559 260.687 12.8598
-124.614 243.251 12.1596
-20.5561 278.424 4.53593
-54.4933 273.973 10.2989
-101.631 214.087 -159.606
-61.466 226.47 -72.4991
-63.7025 228.616 -151.752
125.678 246.098 6.19753
101.405 259.096 7.64993
70.7712 228.132 -151.434
77.7106 221.518 -70.5177
110.95 215.466 -157.904
57.5862 273.644 8.66224
21.5473 278.812 3.73174
-30.2021 187.653 -273.092
-0.630928 207.925 -244.416
30.4994 187.555 -271.569
-52.0684 224.581 -186.255
-30.2923 218.785 -215.827
-75.302 216.167 -213.949
82.9099 216.656 -215.826
31.536 218.137 -216.147
56.6202 221.573 -188.689
0.357616 250.137 -63.3218
24.9375 234.633 -141.177
-26.0385 235.27 -142.132
-150.488 189.825 -51.9987
-162.552 219.578 22.1025
-128.103 203.128 -176.475
-141.492 194.452 -146.978
-187.429 164.848 -93.1624
-175.745 171.865 -117.862
-188.031 159.532 -142.08
-47.0146 154.364 -307.44
-72.9255 178.357 -279.125
-150.592 142.414 -269.464
-113.653 162.357 -277.783
-127.653 121.768 -304.018
-95.25 196.869 -245.487
-111.753 204.088 -212.594
-239.22 36.3843 -183.153
-231.287 61.8038 -207.895
-234.894 21.8492 -221.65
-207.835 127.414 -171.121
-221.368 97.4408 -190.895
-226.57 99.2663 -143.46
-195.889 74.6379 -270.267
-215.521 89.7177 -230.536
-190.434 114.681 -250.792
-150.753 184.561 -201.718
-173.525 154.34 -228.76
-183.82 158.171 -187.427
-186.94 204.404 38.9861
-191.621 135.747 -46.2701
-191.861 180.319 7.56619
-211.246 183.634 64.6517
-231.322 158.499 87.2786
-244.09 -1.85294 -152.872
-247.655 37.9158 -132.911
-232.626 41.496 -34.5852
-247.226 37.6999 -100.106
-242.755 -9.27417 -72.248
-242.847 69.5331 -113.907
-235.122 86.7605 -97.6896
-262.995 51.1859 148.372
-259.928 19.313 158.19
-247.875 124.183 108.459
-256.528 85.9578 129.885
-256.79 7.84467 73.1415
-257.792 49.3852 104.949
-253.003 43.9159 60.563
-232.971 91.6717 -8.41689
-240.375 84.3529 24.9998
-240.534 120.049 62.5251
172.501 249.751 96.8644
175.516 237.226 61.8232
149.558 256.369 164.028
165.044 258.316 128.928
226.47 191.683 105.321
201.201 226.109 117.996
224.885 198.364 136.048
48.5339 169.551 285.758
75.5978 198.688 268.376
159.531 157.152 262.532
121.197 178.096 269.076
132.811 130.487 289.491
101.791 223.838 241.662
124.45 242.228 209.662
258.757 45.3465 174.659
250.142 74.5726 197.064
248.121 24.8808 212.317
243.506 157.686 159.115
249.306 120.441 178.561
258.094 130.973 138.984
200.893 81.2225 261.29
227.471 103.687 222.997
200.11 129.034 244.648
170.822 219.578 197.115
188.71 175.868 225.304
211.929 190.352 179.177
-51.6092 120.613 305.426
-0.0318973 139.847 298.911
-133.554 81.1579 305.255
-96.8473 100.777 309.514
-0.224906 34.0487 335.17
-50.8601 65.6847 322.305
-47.5844 17.7014 337.586
-242.104 -16.4033 210.119
-225.911 5.70224 239.377
-168.631 -49.1725 290.545
-198.94 -23.2297 269.053
-191.244 -70.6288 260.252
-201.671 30.3331 268.396
-174.846 54.0183 289.461
1.6145 -135.302 324.359
-39.0155 -119.043 324.885
-36.682 -155.62 302.216
-42.6281 -35.0833 342.719
-40.0407 -77.0112 339.493
1.21378 -56.1135 351.436
-121.978 -119.559 293.175
-86.7241 -99.6583 320.54
-126.223 -78.5115 310.441
-135.623 25.7364 313.862
-133.231 -28.8375 317.873
-92.0674 -4.99212 334.902
-251.729 -22.8872 139.544
-249.142 -24.2854 175.464
-246.917 -27.4634 49.0427
-255.007 -26.0281 92.4032
-226.503 -97.7714 138.213
-243.819 -62.7764 115.404
-229.837 -101.764 89.5794
-240.144 -42.8678 -184.223
-246.649 -40.4482 -136.886
-224.57 -104.226 -105.69
-239.78 -70.4576 -129.134
-227.521 -105.426 -153.39
-249.262 -30.4615 -98.1251
-245.268 -30.0683 -34.831
-158.659 -223.661 25.1652
-179.937 -201.409 2.04572
-156.02 -226.553 -24.5578
-214.627 -145.127 55.8536
-198.662 -174.243 28.8742
-197.321 -170.243 77.2031
-195.642 -163.31 -88.2092
-197.962 -174.521 -22.9801
-211.88 -141.216 -58.1362
-237.911 -68.886 7.5031
-225.049 -112.131 -30.1586
-226.996 -110.541 35.5628
-226.171 -1.51769 -251.64
-235.405 -26.1331 -221.409
-173.316 50.431 -303.491
-201.559 24.2709 -279.619
-198.621 -78.4456 -270.964
-202.851 -26.6944 -280.028
-174.447 -52.1446 -303.355
-2.37851 131.334 -325.793
-49.0756 117.866 -333.617
-51.1977 29.8503 -359.949
-50.2837 75.013 -352.278
-1.77361 49.2825 -358.848
-92.6376 100.266 -333.325
-131.618 79.9601 -324.107
-48.5662 -158.841 -308.017
-50.3773 -120.993 -332.398
-0.655934 -134.979 -325.181
-133.362 -82.1684 -323.941
-94.5674 -103.33 -332.69
-130.369 -126.19 -305.249
-1.02822 -47.9064 -357.46
-50.8058 -75.073 -349.851
-51.2999 -28.0563 -359.509
[...]
POINT_DATA 642
SCALARS Mean_Curvature double 1
LOOKUP_TABLE default
0.00805683
0.0081335
0.00674633
0.00800202
0.0142451
0.00488473
0.00549077
0.00578756
0.001222
0.0158093
0.00366014
0.0151208
0.0152611
0.00756577
0.00659269
0.00661559
0.0057731
0.00613913
0.0105883
0.0079266
0.00181137
-0.00086729
0.00689147
0.0135398
0.00778805
0.00549508
0.00463837
0.00484624
0.00242148
0.008399
0.000926123
0.00896935
0.00617564
0.00835769
0.00547433
0.00535176
0.0172696
0.000156381
0.00487201
0.00887994
-0.00267563
0.00104106
0.00534818
0.0130964
0.00892492
0.00903542
0.00556834
0.0187212
0.00823063
0.00665418
0.00729199
0.0140888
0.00839114
0.00713095
0.00500378
0.00720854
0.0128767
0.0101455
0.00590195
-0.010512
0.00400982
0.00542426
0.0115738
0.000235293
0.00900944
0.00911455
-0.0248485
0.00878811
0.0104176
0.00355835
0.00984592
0.0101996
0.001641
0.0116615
0.0180713
0.00507781
0.00117663
0.0109451
0.00662771
0.00744654
0.00737049
0.00760918
0.00757862
0.00491795
0.00549401
0.00129209
0.00843954
0.00811562
0.0124088
0.00850686
0.00784917
0.00233133
0.00433623
0.00736662
-0.00530812
0.00861069
0.0055377
0.00398757
0.0102294
0.00966526
0.0065608
0.00912379
0.00940156
0.00708897
0.00447685
0.0101373
0.00997407
0.0391858
0.0064779
0.0114707
0.013198
0.00638636
0.00609766
0.00491679
0.00621795
0.00931884
0.00676272
0.00406656
0.00474102
0.00702786
0.00662761
0.00346214
0.0105229
0.00525918
0.00840349
0.0112831
0.00297554
0.00666575
0.00966757
0.00908442
0.00777936
0.0103461
0.0107777
0.00656432
0.00987544
-0.000161894
0.00571788
0.00718624
0.0096213
0.00672948
0.0187617
0.0110806
0.00696723
0.0121859
-0.000713015
0.00566342
0.00885895
0.007754
0.00862926
0.0055038
0.00456631
0.00768616
0.00901675
0.0101494
0.000702063
0.0127868
0.00519404
0.00894556
0.00855318
0.00432343
0.0167931
0.00183724
0.0074204
0.00585998
0.00770804
0.0173681
0.0105991
0.00531736
0.014116
0.0146855
0.00810482
0.0110515
0.00952061
0.0255207
0.00682174
0.00600698
0.00841931
0.0122809
0.0105691
0.0100746
0.00863866
0.00654157
0.00309301
0.00688455
0.00719155
0.00785386
0.00724462
0.00656108
0.0070882
0.00542709
0.00677622
0.00585166
0.00809029
0.0083766
0.0132226
0.0105863
0.00809023
0.00747116
0.00731238
0.00831284
0.00619474
0.00687871
0.00865375
0.00718203
0.00878826
0.00749766
0.00810879
0.00790971
0.00766414
0.00679259
0.0062844
0.00726624
0.0128271
0.0104885
0.011845
0.0124074
0.0124025
0.0101728
0.00357365
0.00347567
0.00447524
0.00302812
0.00377551
-0.00520782
0.00962523
0.00534516
0.00515129
0.0083989
-0.0114566
0.00469522
0.00190895
0.00515849
0.00500612
0.00803808
0.00350183
0.00475119
0.00668707
0.0118644
0.0139373
0.00686828
-0.000649279
0.00365231
0.00269624
0.0049192
-0.00158008
0.00236208
0.0115404
0.00499871
0.0321592
0.00444473
0.00893841
0.00743748
0.00877561
0.00769921
0.00801969
0.00841009
0.010971
0.0102597
0.00421569
0.00969768
0.0103154
0.00498632
0.00656411
0.00661448
0.00768012
0.0122926
0.00952371
0.00973819
0.0113137
0.0088708
0.0103652
-0.0137449
0.0148848
0.00655289
0.00591438
-0.00116355
0.00950634
-0.00977858
0.00578557
-0.00446431
0.0130217
0.00626962
0.00697023
0.00509169
0.00588406
0.00027402
0.0088111
0.00305972
0.00352468
0.000801786
0.00689494
0.00714445
0.0075464
0.00761724
0.00737084
0.0133519
0.00689545
0.0108863
0.0148225
0.00223139
0.00621844
0.00822769
0.0076481
0.00806825
0.00684307
0.00692237
0.00656375
0.00909295
0.00764601
0.0121487
0.0104682
0.0170064
0.00585912
0.006213
0.00796281
0.00668177
0.0079642
0.00709616
0.00269834
0.00138514
0.00848376
0.00751187
0.00399828
0.000719228
0.00598857
0.010836
0.0050033
0.0076541
0.00817653
0.00710017
0.00600551
0.00895758
0.0124516
0.00646834
0.00643637
0.00424471
0.00616116
0.0161959
0.00858007
0.00828609
0.00819219
0.00561981
0.00849902
0.009816
0.00182196
0.00665961
0.00157757
0.0102216
0.00220067
0.00584015
0.00362557
0.00321102
0.00832777
0.000960729
0.00673719
0.00630693
0.016055
0.00961321
0.00374379
0.00572565
0.00525136
0.00715295
0.00391935
0.00487137
0.00181889
0.00604745
0.00393669
0.00145973
0.00337488
0.00194909
0.0138368
0.00890449
0.0077394
0.0058223
0.0074727
0.00683249
0.00625489
0.00588689
0.00842925
0.006721
0.00892798
0.00648899
0.00916714
0.00861845
0.00714262
0.00755999
0.00500409
0.00796624
0.00919471
0.00895584
0.00537921
0.0064525
0.00707287
0.00746222
0.00949002
0.00890787
0.00824309
0.0040338
0.0142303
0.0125415
0.00910687
0.00849196
0.00802448
0.00141147
-0.0108225
0.00838229
0.00584816
0.012782
0.00431626
0.0078115
0.0112315
0.0143112
0.00465874
0.00891383
0.0123009
0.00867645
0.00461468
0.0122129
0.00746155
0.0137853
0.0117171
0.0114718
0.0056452
0.00647488
0.00458359
0.00475593
0.00527921
0.00417839
0.00629045
0.00597936
0.00531981
0.0133059
0.0109254
0.00846715
0.00913943
0.010283
0.00889413
0.00287376
0.00575651
0.00380178
0.00918323
0.00604008
0.00764192
0.00473017
0.00646906
0.00467414
0.00818053
0.00824682
0.00829834
0.00444836
0.00730852
0.00472888
0.00387564
0.00861715
0.00562468
0.00499675
0.0129426
0.00628796
0.00977496
0.00729955
0.0083636
0.00522338
0.00504279
0.00401446
0.00611507
0.00533376
0.00862358
0.00346049
0.00373737
0.00984318
0.00650198
0.0133567
0.00594408
0.00533904
0.00613267
0.00479672
0.00505026
0.00765796
0.00609128
0.00563751
0.00746149
0.0049625
0.00657055
0.0095078
0.00832037
0.00451469
0.00470039
0.00765877
0.00885816
0.00583487
0.00461291
0.00833744
0.00731657
0.0057598
0.00623873
0.00687026
-0.00400717
-0.00350142
0.0135354
-0.00767964
0.00791389
0.00895268
0.00976982
0.00928069
0.00726796
0.00624732
0.000756836
0.00555245
0.00479947
0.00489693
-0.00302399
0.00784912
0.00775886
0.00771412
0.00803675
0.00923113
0.0087868
0.0124382
0.0055144
0.0168589
0.0111142
0.00644714
0.0164179
0.00314736
0.00836275
0.0138137
0.00812861
0.0106788
0.013194
0.0109629
0.00674506
0.00552926
0.00753296
0.00702671
0.0033788
-0.000954942
0.00797045
0.0058065
0.0151251
-0.00775643
0.00611767
-0.00296916
0.00622934
0.00259191
0.007938
0.00460118
0.00394826
0.00209443
0.00561076
0.00487822
1.74588e-05
0.00162005
0.0075664
0.00859597
0.00679137
0.00789465
0.00273174
0.00857481
0.00496527
0.0068938
0.00884653
0.00979097
0.00217111
0.00393872
0.000196631
0.00719175
0.00624848
0.0106106
0.00757328
0.0119381
0.00776546
0.00485915
0.00541865
0.00500033
0.00467361
0.00775691
0.0082211
0.00876719
0.00746866
0.00428361
0.0113448
0.00374845
0.0086498
0.00825913
0.00795479
0.00507145
0.00812196
0.00492913
0.00967746
0.0114128
0.0105511
0.00824973
0.00757706
0.00547991
0.00280136
0.00244237
0.005245
-0.00579992
0.0119959
0.00911242
0.0130221
0.0104909
0.00754786
0.0133581
0.0109533
0.0130088
0.00662587
0.00984871
0.00541696
0.00545926
0.00985992
0.00737906
0.007128
0.00463282
0.00867763
0.010192
0.00461713
0.0101111
0.0100563
0.00538456
0.00744047
0.00654342
0.00520306
0.00660198
-0.000445302
0.00259035
0.0086174
0.00819704
0.00588432
0.00528003
0.00543776
0.00821932
0.00851612
-0.00810571
0.0120596
0.00650601
0.00747099
-0.0150826
-0.0167826
0.00777408
0.00141964
0.00545039
SCALARS CoVolArea double 1
LOOKUP_TABLE default
1121.14
1169.6
1313.22
1269.04
1301.22
1794.26
1694.1
1753.52
1366.33
1097.02
1238.96
998.292
1286.45
2081.06
2058.07
2125.83
1671.18
1282.5
1199.27
2077.38
2405.09
2854.75
2238.83
1312.97
1962.33
2282.59
1906.13
1975.54
2638.62
2133.25
2392.92
2051.15
2020.74
1951.49
2072.56
2069.63
1285.98
2452.52
2350.77
2058.5
2686.63
2902.71
1502.84
1860.84
1406.97
1863.26
2231.84
1215.75
1995.32
2280
2149.78
1530.1
1404.21
2073.02
2228.05
1539.44
1597.8
1451.84
2780.91
4171.33
3076.05
3342.64
1682.44
2098.84
1793.59
1360.13
1923.51
1934.7
1817.46
1584.43
1592
1704.55
2959.4
1459.6
1834.3
1959.49
1636.48
1940.94
1496.66
2141.71
2242.73
1590
2107.93
2119.68
2378.1
2947.54
1778.63
2169.05
1806.08
2240.5
1957.77
2173.12
1593.55
1352.66
2827.4
1603.29
2018.09
2108.66
2225.41
1752.37
2294.39
2302.44
1953.26
2388.9
2427.49
1848.44
1995.25
2696.42
1375.2
1815.85
1600.03
1443.55
1711.37
2165.39
1852.43
1680.01
1876.17
1696.13
1910.93
2013.27
2047.6
2085.39
1539.81
1875.87
2040.5
1479.87
2063.46
1805.07
1733.91
1585.97
1753.64
1683.76
2054.66
2545.12
1872.74
2610.69
1713.57
2036.37
1808.18
1193.54
1371.28
1825.27
1850.92
1613.35
2972.63
2089.16
1778.1
2252.75
2143.05
2418.81
2115.35
1902.9
1754.13
1777.78
2060.37
1506.41
2478.39
2422.24
2418.18
1889.34
2009.48
2942.36
1464.84
1441.66
1393.39
1538.39
1310.17
1271.53
1574.67
1436.83
2063.69
1556.89
1622.72
1050.47
2175.31
1942.61
1886.74
1333.07
1766.07
1815.47
1971.73
2111.92
2252.94
2234.8
2054.07
1962.36
1978.86
2090.79
2229.64
2391.56
2536.5
2524.96
1434.96
1304.04
1811.22
1398.13
1439.99
1389.42
1575.24
2019.76
2025.98
2190.41
2046.92
2037
2008.8
2131.87
1350.47
1493.19
1403
1627.86
1490.02
1532.31
1658.36
1468.78
1885.28
2134.59
2167.56
1798.69
2761.03
2613.56
2138.11
2370.64
2382.65
3815.86
2215.11
2404.8
2397.5
2734.77
3722.02
2126.84
2638.37
2200.91
1987.63
1951.75
2140.84
1541.87
1638.57
1326.14
1327.56
1711.63
1775.25
2801.38
2919.78
2607.7
3809.27
2335.7
1236.12
2446.38
1744.25
1895.32
1471.47
1946.95
1856.55
2023.18
1863.63
1933.25
1620.91
1456.16
1614.26
1481.52
1410.35
1572.54
1470.23
1529.21
1886.97
1572.16
1905.64
1673.13
1943.94
1694.46
1612.11
4354.56
2036.44
1617.7
1494.17
1843.94
1609.59
3718
1857.9
2306.69
1284.99
2542.04
1179.52
1220.31
1518.8
1395.24
1761.19
1649.27
2806.5
3084.05
2589.44
2045.89
1465.39
1444.04
2127.16
1549.84
1346.06
1423.83
1618.65
2313.32
2155.06
2172.55
2043.64
1988.93
2097.96
2267.18
1651.14
1913.28
1726.28
1734.33
1713.34
1257.39
2125.55
2042.86
2176.56
2503.08
2439.7
2332.01
2619.25
2679.93
2202.98
2197.38
2587.13
2573.85
2420.96
1562.98
1910.76
2085.18
1932.48
1816.03
1949.23
2153.38
1720.11
1984.29
1809.85
2237.01
1998.67
1867.41
1837.16
2037.64
2093.87
2517.51
2419.5
2536.75
1742.18
1382.4
2178.97
1745.82
1794.71
1855.87
2071.87
1566.62
1541.66
2284.78
1656.43
1393.25
1571.53
2435.35
1638.74
1664.85
1650.76
1895.31
1628.59
1720.02
2362.78
1923.97
2256.41
3146.39
2945.21
2517
1742.06
1423.92
2219.51
1958.92
1948.94
1978.12
2270.47
2187.24
2080.87
2477.57
2148.68
2347.73
2018.01
2228.79
2017.68
2210.66
2222.15
2296.66
2100.98
1958.25
2455.27
2314.38
2543.36
2553.17
2629.42
2578.9
1953.64
2182.8
1396.64
1605.05
1896.68
1850.01
2083.67
2821.51
4395.6
1412.84
2446.04
1727.62
2397.79
1239.51
1568.79
1392.43
1616.45
1994.84
1603.35
1892.92
1457.23
1299.71
1415.71
1629.98
1607.55
2014.84
1635.88
1794.21
1707.51
2157.48
1858.78
1825.15
1846.35
1846.31
2127.12
1453.05
1480.35
1318.36
1878.56
1617.72
1749.23
1871.62
1684.69
2070.11
1680.39
1966.3
1780.06
2131.81
1937.31
1971.18
1932.13
1906.46
1960.54
2339.85
2184.48
2371.32
1795.13
1556.37
2143.28
1941.34
1336.85
1660.89
1559.64
1693.32
1803.51
2125.46
1910.8
1958.67
1890.1
2112.03
1538.88
1740.33
1686.45
1539.41
1605.92
1276.62
1824.67
1902.6
2108.96
2371.92
2361.96
2206.86
1598.66
1524.77
1635.96
1582.09
1943.37
1574.15
1893.84
1576.04
1617.41
1993.55
1612.58
2135.94
1542.51
1593.43
1844.08
2338.49
1870.84
2412.01
2900.61
2227.84
1882.2
2735.74
2378.69
1916.59
2018.33
2000.66
1683.7
1564.78
2577.09
2194.17
2325.64
2338.14
2597.2
2049.86
1895.9
2084.95
1917.41
1941.44
1777.86
2057.42
1523.77
1295.31
1552.48
1623.64
1045.59
1743.69
1914.87
1552.14
1992.73
2128.46
1871.3
1882.9
1605.6
2386.54
1602.7
1647.57
1967.05
1940.28
1541.51
2575.69
1701.62
2416.21
1914
2966.89
1732.1
1587.28
1975.06
1866.23
1750.71
1777.72
2306.64
2933.06
3051.84
2358.28
1970.75
2117.84
2123.13
2001.06
2288.34
1898.59
2383.79
2067.8
1853.43
2011.79
2682.04
2533.06
2692.82
2259.96
2353.67
2303.74
2481.21
2476.49
1693.21
2112.17
1819.99
1785.24
2068.43
1887.01
1902.74
1785.05
1823.53
2070.97
1505.56
1897.81
1519.38
1632.5
1887.21
2249.46
2069.54
2161.16
1826.17
1907.32
1576.12
1878.47
2071.63
1996.54
2002.19
2460.27
2269.58
2454.62
1420.48
1966.1
1597.81
1267.68
1421.51
1848.17
1602.86
1883.72
2050.27
2259.33
2176.21
2167.74
2257.11
2292.29
2612.13
2372.5
2105.35
2198.57
2322.55
2186.22
2083.11
2322.7
2592.04
2755.74
2845.75
2758.6
1845.71
2613.58
1691.76
1475.22
1449.64
1735.38
2827.2
1463.91
1989.87
3480.56
1670.14
1551.75
1594.52
1956.91
4357.65
2606.61
3407.82
2179.87
SCALARS SignedDistance double 1
LOOKUP_TABLE default
163.33
160.666
148.804
142.051
116.665
117.865
117.283
122.943
147.11
143.832
152.713
151.829
155.047
110.901
115.932
113.988
158.767
160.336
165.337
116.624
172.191
174.025
110.091
148.813
120.791
113.559
171.004
156.991
101.397
111.671
164.286
107.779
150.724
115.896
134.915
138.09
131.472
150.515
140.895
107.788
162.961
168.347
156.709
137.648
144.059
122.051
125.699
155.392
108.528
112.129
114.539
141.532
160.866
108.635
111.404
159.104
140.779
141.419
193.537
189.079
192.116
191.307
148.368
167.492
148.353
168.8
193.826
112.479
140.789
157.659
150.8
136.12
170.09
175.087
194.822
165.651
158.329
130.337
152.338
115.542
108.623
145.037
119.197
121.696
116.521
119.441
132.14
113.103
104.058
107.219
115.493
168.203
153.762
157.979
174.206
154.061
161.013
154.754
110.562
135.611
103.817
98.2751
107.538
99.2456
103.245
135.554
112.8
196.493
160.262
129.095
145.311
154.097
146.742
140.529
139.164
126.462
138.082
147.158
128.795
130.125
114.144
138.082
135.634
131.028
134.087
140.402
140.021
143.422
129.556
137.332
144.211
133.621
135.286
132.039
137.047
157.77
147.526
109.55
134.483
153.692
148.893
129.388
155.037
169.744
171.938
157.992
156.415
106.382
108.941
116.719
145.637
133.709
144.694
134.46
163.819
149.379
107.107
100.803
100.586
158.783
189.278
165.787
160.588
149.803
154.254
148.085
148.641
154.499
133.53
141.519
124.503
137.441
137.136
154.841
116.079
122.595
113.664
153.947
142.468
141.474
112.32
112.798
117.857
112.14
110.195
109.284
110.785
111.201
111.532
126.503
116.361
118.064
151.883
162.03
130.119
141.471
160.408
150.223
150.015
112.296
108.8
111.521
107.89
108.718
107.913
111.514
160.213
149.915
151.308
148.707
148.974
158.695
129.946
139.932
129.037
126.967
126.841
140.805
168.53
169.684
169.481
168.639
170.876
191.466
180.006
169.169
167.846
175.323
186.162
165.604
166.111
168.654
134.224
149.031
134.072
167.428
160.511
157.73
158.348
159.88
163.484
193.28
185.541
189.265
190.124
169.926
165.796
172.734
194.811
182.831
173.409
118.805
127.579
125.796
123.884
112.223
141.858
154.727
153.007
150.221
148.11
160.631
154.597
165.817
124.821
144.409
134.206
156.339
146.322
159.57
168.706
185.891
177.269
164.664
161.728
157.619
166.925
183.834
178.048
183.741
176.663
182.87
158.995
157.681
159.65
157.059
169.37
161.145
170.29
186.268
177.766
169.963
146.083
156.711
119.851
136.387
149.189
142.92
140.777
117.692
112.438
107.961
109.807
109.582
108.879
109.834
144.913
135.372
133.726
135.356
134.108
148.236
113.931
121.012
112.906
113.543
110.844
120.723
118.204
118.594
110.124
116.045
117.873
118.799
117.238
142.252
128.635
116.392
120.079
125.783
118.83
111.659
108.959
109.529
115.907
111.425
107.285
108.812
117.071
109.361
111.858
111.101
109.667
110.456
154.149
151.77
171.858
166.626
154.984
161.126
162.029
153.641
163.704
174.239
166.325
162.759
178.243
178.752
150.956
154.19
151.222
160.68
157.123
154.48
166.798
157.696
166.582
166.607
165.128
165.023
138.957
148.652
111.782
122.171
120.685
122.504
110.932
112.034
108.213
100.813
100.856
99.9029
103.237
104.898
113.56
105.446
108.291
101.837
100.434
107.369
101.331
101.974
100.363
102.315
97.5546
102.09
128.896
118.711
153.017
140.662
106.539
119.93
118.104
165.66
183.42
164.619
172.229
185.182
165.076
159.308
143.389
145.939
149.211
124.238
135.767
114.929
158.58
151.006
155.689
153.208
154.967
139.136
144.01
142.337
141.207
145.045
144.988
149.924
137.595
140.407
137.014
135.629
141.435
145.626
127.883
134.099
119.877
146.723
142.367
144.207
123.672
122.356
115.311
133.535
129.096
132.445
114.021
122.007
123.347
140.785
133.818
136.815
139.472
139.142
137.301
138.095
132.703
137.01
134.526
124.905
128.432
135.398
132.963
135.025
131.623
134.281
145.358
144.288
147.64
136.36
140.156
135.366
141.487
141.067
139.351
137.987
138.673
137.95
136.529
140.049
131.312
132.969
135.291
132.477
130.955
147.149
142.858
135.419
138.309
142.454
137.517
133.37
126.398
135.513
126.496
133.77
143.116
150.11
153.141
145.987
139.154
129.801
129.861
128.324
143.363
144.217
149.934
141.308
152.328
147.332
160.561
113.323
121.184
117.994
119.018
106.445
134.926
153.434
149.963
148.147
143.544
155.083
153.033
155.868
115.041
137.606
124.712
153.224
139.923
154.502
147.259
155.756
150.867
150.4
155.154
152.057
157.938
169.776
173.566
177.789
160.571
167.351
151.492
147.054
155.776
152.119
162.147
159.078
162.376
161.239
161.279
160.85
108.862
107.732
107.694
106.615
111.099
121.711
111.291
114.788
114.944
110.036
118.062
116.473
118.617
116.509
110.245
104.543
109.149
110.359
147.845
141.551
145.258
149.663
150.791
123.777
126.664
124.624
132.411
137.372
147.805
151.34
151.33
139.131
132.527
141.657
138.058
146.735
120.75
149.215
134.227
117.833
119.981
150.226
166.867
160.064
151.197
159.645
149.399
129.26
141.594
154.057
158.884
153.196
156.459
142.596
130.042
105.576
115.743
115.734
105.574
105.027
100.395
101.82
102.077
99.4559
108.621
99.4585
103.046
102.177
99.8141
100.49
99.9616
100.502
147.771
162.76
158.374
151.978
153.978
157.694
173.98
166.649
173.168
180.218
164.684
156.571
160.406
174.699
183.765
171.553
181.295
163.329
