# vtk DataFile Version 4.2
vtk output
ASCII
DATASET POLYDATA
POINTS 642 double
-0.425975 0.715245 0.0252715
0.436555 0.719616 0.0235827
-0.404132 -0.686093 -0.0114323
0.414974 -0.692736 -0.0104694
0.00347303 -0.43441 0.762998
0.00231745 0.473321 0.761857
0.000815636 -0.459674 -0.810764
0.00357591 0.462228 -0.809444
0.707194 0.00495439 -0.508148
0.701219 0.0147738 0.48006
-0.691592 0.00168525 -0.501377
-0.690998 0.0188208 0.475152
-0.661546 0.431963 0.291819
-0.434227 0.276355 0.727435
-0.264407 0.719338 0.457479
0.270326 0.721202 0.459083
0.00190503 0.847223 0.0294815
0.267467 0.676377 -0.470322
-0.25722 0.673567 -0.466324
-0.437601 0.269333 -0.770561
-0.649783 0.411583 -0.290406
-0.783015 0.0143732 0.00163798
0.439841 0.277748 0.731386
0.672444 0.438253 0.292423
-0.416912 -0.250717 0.725168
0.00324694 -0.00287929 0.901423
-0.637328 -0.397374 -0.304848
-0.633118 -0.389339 0.276359
0.0011583 0.000681003 -0.960087
-0.439293 -0.270822 -0.77272
0.664831 0.418296 -0.298247
0.452221 0.276548 -0.777834
0.645778 -0.396308 0.278702
0.426354 -0.253479 0.731743
0.249664 -0.654443 0.438268
-0.241589 -0.650829 0.436552
0.00332504 -0.818566 -0.0114964
-0.252788 -0.668124 -0.468224
0.257961 -0.671754 -0.466509
0.450157 -0.272023 -0.778516
0.65029 -0.401999 -0.305029
0.799418 0.0139358 -0.00148668
-0.558332 0.605026 0.158477
-0.495003 0.603676 0.390876
-0.364663 0.74605 0.241014
-0.602333 0.142065 0.617753
-0.584963 0.375811 0.532242
-0.705527 0.221369 0.402992
-0.131338 0.617218 0.642051
-0.367363 0.524965 0.620629
-0.216038 0.394234 0.774771
-0.13611 0.826733 0.255903
-0.234098 0.809456 0.0286839
0.136077 0.617893 0.643262
0.00179458 0.759944 0.48194
0.240737 0.811909 0.0278591
0.140337 0.827682 0.256128
0.373086 0.749687 0.241418
-0.131883 0.789075 -0.224891
-0.35647 0.714166 -0.214529
0.3673 0.718288 -0.21846
0.137952 0.791237 -0.226342
-0.130612 0.585879 -0.67043
0.00323275 0.709854 -0.490479
0.139159 0.586459 -0.67176
-0.480536 0.569342 -0.397022
-0.550342 0.589083 -0.126439
-0.220088 0.388592 -0.824965
-0.362849 0.500676 -0.650398
-0.698865 0.205377 -0.418965
-0.572033 0.355577 -0.555523
-0.598661 0.129193 -0.650182
-0.678247 0.441878 0.0167578
-0.758533 0.00690634 -0.279945
-0.75059 0.220674 -0.153093
-0.755928 0.230675 0.162599
-0.759682 0.0201545 0.269245
0.504557 0.608299 0.393134
0.570031 0.610816 0.15762
0.221408 0.395208 0.776827
0.374321 0.527847 0.624081
0.715329 0.224843 0.404862
0.592834 0.380715 0.535603
0.608337 0.141015 0.622385
-0.229508 0.144193 0.854477
0.00251978 0.254711 0.859314
-0.588332 -0.112633 0.615149
-0.451091 0.00718156 0.763675
0.0036692 -0.245838 0.864523
-0.223626 -0.138786 0.856453
-0.203195 -0.364366 0.775333
-0.74307 -0.19499 0.150775
-0.687477 -0.181305 0.398736
-0.692241 -0.197745 -0.425827
-0.743213 -0.201584 -0.165363
-0.531361 -0.567066 0.128144
-0.65993 -0.415713 -0.00905211
-0.533845 -0.571302 -0.151406
-0.465896 -0.000487278 -0.812856
-0.597993 -0.129485 -0.651671
0.00221476 0.260118 -0.918131
-0.239759 0.147246 -0.912702
-0.222478 -0.389102 -0.826767
-0.240382 -0.147369 -0.911969
0.00121325 -0.259424 -0.917387
0.375243 0.504841 -0.65531
0.229338 0.392275 -0.827854
0.563881 0.594386 -0.13151
0.494982 0.574551 -0.403712
0.614969 0.135214 -0.657331
0.588057 0.362655 -0.562955
0.714465 0.211843 -0.426797
0.54331 -0.574606 0.129123
0.471714 -0.553429 0.375696
0.348776 -0.700442 0.208293
0.597531 -0.117016 0.622068
0.564002 -0.336273 0.530963
0.698921 -0.186578 0.403064
0.126974 -0.557872 0.633879
0.35089 -0.475907 0.616998
0.210736 -0.365579 0.778509
0.130932 -0.772768 0.2179
0.227383 -0.783706 -0.0112245
-0.119991 -0.556382 0.632328
0.00344244 -0.688023 0.459844
-0.218758 -0.779758 -0.0119909
-0.123355 -0.770597 0.217319
-0.33912 -0.694997 0.207258
0.132647 -0.78622 -0.240872
0.352481 -0.710504 -0.230644
-0.343203 -0.704477 -0.232626
-0.126567 -0.783978 -0.241616
0.134342 -0.578923 -0.672134
0.00118593 -0.710008 -0.487486
-0.132796 -0.579678 -0.672444
0.480583 -0.562511 -0.405257
0.545779 -0.579035 -0.149378
0.226996 -0.388955 -0.828725
0.369269 -0.495146 -0.656789
0.706068 -0.197969 -0.431073
0.578795 -0.350444 -0.565677
0.612005 -0.128998 -0.657853
0.67364 -0.423147 -0.00804067
0.774373 0.00916931 -0.285609
0.759153 -0.204838 -0.166442
0.757517 -0.200891 0.151203
0.772407 0.0174537 0.269908
0.231281 -0.139924 0.860442
0.458298 0.00423381 0.770137
0.235423 0.143229 0.85743
-0.461247 -0.547386 0.373071
-0.342057 -0.472636 0.612921
-0.553571 -0.331647 0.525295
-0.362417 -0.495602 -0.654711
-0.470988 -0.557749 -0.406762
-0.567808 -0.35038 -0.561575
0.478143 0.00145185 -0.81828
0.245691 -0.147842 -0.913916
0.246272 0.14991 -0.914245
0.769481 0.235026 0.160143
0.766509 0.225865 -0.159275
0.69189 0.448484 0.0129353
-0.491871 0.669814 0.0887637
-0.468728 0.681901 0.205264
-0.400478 0.735521 0.12937
-0.588254 0.522588 0.344196
-0.534001 0.608908 0.278179
-0.615801 0.525572 0.226493
-0.319852 0.742025 0.350305
-0.432453 0.683636 0.320521
-0.385116 0.670799 0.428766
-0.656083 0.0761313 0.545458
-0.662311 0.187662 0.515709
-0.703981 0.11441 0.445106
-0.517754 0.33012 0.638221
-0.599776 0.261602 0.583444
-0.527736 0.209428 0.679263
-0.691892 0.328421 0.35163
-0.654321 0.301862 0.46999
-0.632715 0.409558 0.414752
-0.0609548 0.545799 0.712037
-0.178799 0.512682 0.714491
-0.100768 0.44049 0.774159
-0.318915 0.632115 0.544618
-0.253125 0.579296 0.635756
-0.19982 0.675768 0.556236
-0.328313 0.33923 0.759932
-0.297497 0.463379 0.705614
-0.406231 0.40417 0.682877
-0.548243 0.497427 0.467371
-0.485057 0.456041 0.583783
-0.43973 0.574291 0.511971
-0.299498 0.788035 0.139896
-0.339761 0.76613 0.0272259
-0.203353 0.784374 0.360657
-0.253838 0.79486 0.253415
-0.119638 0.837094 0.0294213
-0.185176 0.826764 0.144524
-0.0672268 0.846906 0.144937
0.0655435 0.546094 0.712634
0.00209716 0.628009 0.647512
0.139268 0.750085 0.476653
0.0716151 0.697811 0.566706
0.204954 0.676897 0.557809
-0.0675767 0.697443 0.566162
-0.135025 0.749291 0.475804
0.348641 0.769648 0.0259785
0.307022 0.790963 0.139582
0.410066 0.739604 0.128728
0.0709622 0.847555 0.144896
0.190437 0.828397 0.144381
0.124274 0.83842 0.0289833
0.327014 0.744928 0.351544
0.260045 0.797128 0.253817
0.208404 0.785843 0.361461
-0.0692222 0.806609 0.372479
0.0727912 0.806886 0.372719
0.00166713 0.838929 0.259426
-0.295515 0.770656 -0.0911516
-0.396082 0.720616 -0.0836711
-0.0658042 0.827796 -0.0932018
-0.182239 0.80785 -0.0936035
-0.310521 0.69869 -0.345279
-0.247139 0.759042 -0.224877
-0.196936 0.736055 -0.353168
0.406733 0.724864 -0.0862813
0.304106 0.774069 -0.0931277
0.205289 0.739228 -0.3562
0.255573 0.762408 -0.227636
0.321655 0.703128 -0.350011
0.18844 0.810235 -0.0948543
0.0703929 0.828774 -0.0936829
-0.0608181 0.52521 -0.750647
0.00380701 0.595703 -0.675959
0.0686834 0.525854 -0.751341
-0.131401 0.700103 -0.48429
-0.0659116 0.655414 -0.585365
-0.196589 0.635853 -0.575738
0.205866 0.637068 -0.578353
0.0733782 0.655709 -0.586221
0.139146 0.701508 -0.486337
0.00249254 0.801015 -0.228076
0.0725114 0.75675 -0.36517
-0.0663911 0.755277 -0.364065
-0.460082 0.657442 -0.176139
-0.48861 0.661367 -0.0440378
-0.373874 0.629907 -0.436934
-0.420505 0.646609 -0.313434
-0.603495 0.505105 -0.210337
-0.520147 0.579789 -0.266887
-0.573351 0.495663 -0.347159
-0.102494 0.432333 -0.823985
-0.180035 0.495112 -0.754555
-0.405062 0.390505 -0.720213
-0.298363 0.448486 -0.745207
-0.333137 0.333799 -0.807434
-0.251277 0.551589 -0.66562
-0.312269 0.595658 -0.56498
-0.701297 0.0982114 -0.467185
-0.65466 0.172193 -0.540888
-0.654078 0.0606879 -0.574947
-0.618499 0.387253 -0.428276
-0.642991 0.284143 -0.490202
-0.68185 0.310416 -0.360107
-0.52713 0.199472 -0.716575
-0.590155 0.246367 -0.611326
-0.511973 0.315773 -0.670657
-0.428164 0.541315 -0.530623
-0.47592 0.433822 -0.610727
-0.532972 0.46933 -0.483609
-0.561248 0.601424 0.0214355
-0.668381 0.430096 -0.138834
-0.621175 0.519825 -0.0572623
-0.625604 0.527024 0.0926237
-0.675929 0.443032 0.160979
-0.729122 0.00374108 -0.402166
-0.738265 0.108344 -0.350548
-0.775821 0.11775 -0.0765748
-0.762279 0.114017 -0.217576
-0.775805 0.0104045 -0.144311
-0.731331 0.216816 -0.291226
-0.708548 0.319127 -0.225616
-0.740589 0.123523 0.33834
-0.728695 0.0203316 0.382877
-0.717006 0.334458 0.232257
-0.736851 0.231361 0.287442
-0.777817 0.018046 0.142337
-0.766188 0.125726 0.216237
-0.777995 0.122587 0.0850599
-0.723347 0.3341 -0.0679242
-0.760646 0.229114 0.00908771
-0.726744 0.340488 0.09098
0.479114 0.686749 0.205262
0.503159 0.674873 0.087345
0.393037 0.674072 0.430952
0.441699 0.687895 0.32184
0.627384 0.531793 0.226431
0.54478 0.614327 0.279071
0.598725 0.528311 0.345903
0.105679 0.440924 0.775118
0.184103 0.513636 0.716225
0.412618 0.407064 0.686611
0.303511 0.465355 0.708592
0.333907 0.340767 0.763253
0.259112 0.581077 0.638392
0.325513 0.634236 0.547068
0.713949 0.113316 0.448665
0.669108 0.188792 0.518968
0.664316 0.0733319 0.550659
0.642174 0.41547 0.416964
0.66249 0.30665 0.472593
0.702069 0.334284 0.352657
0.533403 0.209889 0.683591
0.605552 0.264105 0.586665
0.524194 0.333344 0.642082
0.447741 0.577808 0.514957
0.49285 0.460298 0.587634
0.557278 0.502452 0.47034
-0.111272 0.325927 0.82665
0.00237411 0.375194 0.813755
-0.338034 0.214789 0.80035
-0.228674 0.271559 0.822221
0.00283683 0.127178 0.889471
-0.11471 0.198197 0.866619
-0.113397 0.0705091 0.88895
-0.649476 -0.0425136 0.544598
-0.600257 0.0136756 0.625695
-0.440223 -0.126245 0.75354
-0.526754 -0.0567775 0.69755
-0.510602 -0.182783 0.676257
-0.532379 0.0781082 0.697978
-0.449594 0.143626 0.754412
0.00357639 -0.351324 0.81853
-0.103909 -0.307255 0.830472
-0.0930218 -0.406077 0.775741
-0.111261 -0.0727279 0.890485
-0.109348 -0.192947 0.870235
0.00357519 -0.129158 0.892902
-0.31246 -0.312389 0.758818
-0.218353 -0.255982 0.824429
-0.327018 -0.199518 0.80034
-0.34685 0.0755323 0.820936
-0.342787 -0.066941 0.820989
-0.230346 0.000748317 0.868154
-0.732611 -0.0830405 0.33529
-0.695045 -0.0756777 0.443667
-0.772253 -0.0896271 0.0781422
-0.75931 -0.0872291 0.210866
[...]
POINT_DATA 642
SCALARS Mean_Curvature double 1
LOOKUP_TABLE default
1.96745
1.95968
1.96865
2.0202
2.53901
1.97364
2.43126
2.346
2.05939
2.19415
2.07188
2.18521
2.25861
2.19959
2.46376
2.4062
1.96612
2.07564
2.10465
2.57212
1.99091
1.63138
2.15925
2.27096
2.4188
2.15257
1.71214
1.87626
2.09716
2.70707
2.0048
2.64608
1.92949
2.5244
2.03958
2.03789
2.29874
2.02304
2.00097
2.78264
1.8021
1.64041
2.08757
2.44205
2.31781
2.57841
2.40299
2.27085
2.21723
2.1429
2.0769
2.41191
1.99753
2.19901
2.35394
1.94283
2.35324
2.31618
1.60444
1.6073
1.53817
1.60022
2.11368
1.94047
2.07826
2.04361
1.67958
2.46298
2.31096
2.10758
2.16608
2.27754
1.78873
2.00669
1.48251
1.91657
2.01272
2.44763
2.1264
2.0512
2.18876
2.12511
2.46635
2.4521
2.07715
1.88256
2.47331
2.30128
2.47354
2.31676
2.43482
1.74295
2.03984
2.12449
1.65961
1.91416
1.77577
1.84218
2.54804
2.33811
2.13669
2.3146
2.52677
2.22078
2.09764
2.36271
2.44967
1.68686
2.07586
2.33896
2.29204
2.09232
1.92757
1.99308
2.01275
2.52891
2.18138
1.99101
2.17096
2.18797
2.41946
2.04446
2.17697
2.16277
2.09835
2.15992
2.03661
2.00108
2.17898
2.07259
1.99497
2.19615
1.98093
2.01214
2.179
1.91137
1.90095
2.41674
2.5267
2.12357
2.36699
2.3929
1.80876
1.95596
1.67971
1.79226
1.9556
2.36504
2.32334
2.06059
1.9821
2.19287
2.16035
2.54598
1.84197
2.35507
2.48274
2.23805
2.222
1.86825
1.46511
1.79626
2.0253
2.21206
2.14069
2.38035
2.28168
2.17355
2.4613
2.37608
2.4876
2.49947
2.70391
2.22473
2.23108
2.49173
2.30417
2.24034
2.39969
2.46103
2.21724
2.13653
1.97629
2.20753
2.16022
2.20638
2.16229
2.13347
2.15961
2.45328
2.20036
2.28142
2.18674
1.99014
2.5269
2.37673
1.98351
2.21076
2.17735
2.20947
2.199
2.38297
2.19852
2.17714
2.20888
2.40418
1.95974
2.15546
2.13764
2.16018
2.14578
1.94413
2.449
2.34338
2.47136
2.55631
2.50961
2.33914
1.7892
1.7936
1.78408
1.78423
1.90774
1.60125
1.80048
1.77056
1.75349
1.82082
1.57373
1.9578
1.753
1.78052
2.29705
2.04144
2.28808
2.02992
2.05804
2.16996
2.02764
1.96947
1.96139
1.61531
1.73964
1.66401
1.65939
1.82105
2.0893
1.85275
1.40251
1.60793
2.00281
2.34598
2.43356
2.39831
2.43789
2.52122
2.27104
2.21818
2.12395
2.11239
2.12035
2.07166
2.11245
2.05905
2.44937
2.20967
2.35721
2.19389
2.2951
2.11838
1.87005
1.61586
1.72264
1.93917
2.02221
2.09395
2.08907
1.59377
1.80525
1.60326
2.04669
1.80404
2.05269
2.04727
2.09352
2.09544
1.84322
1.97162
1.77833
1.65964
1.70063
1.86028
2.23536
2.0434
2.44784
2.39131
2.21058
2.31852
2.40897
1.96455
2.12298
2.19813
2.20063
2.2079
2.17616
2.19751
2.10656
2.2318
2.32908
2.50085
2.31802
2.23279
2.22752
2.45735
2.2561
2.30187
2.24952
2.49833
1.93963
1.91511
2.24486
2.05852
1.98552
1.93852
2.11558
2.33448
2.50616
2.37559
2.42549
2.41318
2.27633
2.29991
2.5926
2.4167
2.45687
2.23257
2.31821
2.44329
2.44792
2.40895
2.39831
2.22793
2.30337
2.32729
2.05508
2.11587
1.65302
1.91375
1.94782
1.92942
1.80674
2.12116
2.0941
1.66247
1.84475
2.05699
1.61626
1.68684
1.91604
1.85468
1.90328
1.84068
1.8283
1.88352
1.79878
1.80835
1.76532
1.65604
1.67889
1.70202
2.30012
2.13063
2.58843
2.52325
2.5584
2.5275
2.6264
2.20334
2.24185
2.18623
2.17983
2.13072
2.33845
2.40857
2.41744
2.25431
2.24299
2.39997
2.31886
2.60854
2.07132
2.13925
2.1912
2.41038
2.27407
2.33001
2.40647
2.32213
2.11631
2.22417
2.59637
2.58539
2.58436
1.82143
1.63636
2.04038
1.81663
1.42653
1.93867
2.08279
2.11787
2.1353
2.09556
2.57727
2.39867
2.62596
2.06041
2.1443
2.10825
2.18418
2.17672
2.36282
1.96609
1.98159
2.0075
1.96564
1.94594
1.88536
2.01904
1.99272
2.02021
2.36461
2.22703
2.17805
2.33721
2.27285
2.56814
1.94906
2.07373
1.94979
2.32421
2.3107
2.4898
2.06643
2.17097
2.07562
2.46138
2.35464
2.36493
1.99918
2.2046
2.0423
2.02893
2.08101
2.03303
2.02743
2.26113
2.10603
2.20382
2.32984
2.21289
2.06007
2.0992
2.07088
2.11036
2.06026
2.03982
2.01197
1.97538
2.22375
2.09802
2.27533
2.00604
2.02259
2.03214
2.03882
2.0435
2.0836
2.09963
2.03424
2.21995
2.15401
2.05055
2.15529
2.08857
1.97364
2.06473
2.11107
2.10835
2.03239
2.17311
2.24899
2.37953
1.83293
2.38909
2.01355
1.92351
1.89362
1.87127
1.94266
2.04415
2.16571
2.12327
2.09042
1.96009
1.96601
1.96403
1.98636
1.84413
1.90628
1.86041
2.39621
2.57027
2.76609
2.64777
2.59785
2.35701
1.79732
2.12819
2.16814
2.13226
1.9409
2.18671
1.90163
2.73547
2.47158
2.70716
1.78782
2.53575
1.86587
1.90967
1.79815
1.86449
1.88329
1.82418
2.09865
2.07548
1.75722
1.68723
1.69152
1.65901
1.69561
2.00051
2.09454
1.86116
1.90444
1.75015
1.77587
1.68093
1.68164
1.6778
1.67872
2.45963
2.43266
2.41052
2.38692
2.21618
2.53436
2.17568
2.30601
2.46103
2.4966
1.9271
2.09487
1.92557
2.0331
2.19971
2.40169
2.30484
2.35175
1.97294
2.0099
1.96961
1.92569
1.94429
2.3289
2.34904
2.36825
2.1759
2.05899
2.22014
1.98241
2.06453
2.3312
2.32462
2.03723
2.20333
2.00631
2.55909
1.89571
2.56125
2.71597
2.66742
1.90397
1.76948
1.84569
1.92655
1.94551
2.19408
2.53692
2.41568
2.20246
2.13115
2.19286
2.20135
2.47434
2.30301
2.61927
2.54213
2.53075
2.60276
2.23578
2.14799
2.12249
2.24819
2.35082
2.20902
2.34375
2.34323
2.11796
2.13088
2.25075
2.103
2.24462
2.04605
1.74673
1.88232
2.04595
2.03407
2.08697
1.87172
2.03892
1.74953
1.60465
1.88954
2.01425
1.96064
1.73682
1.62336
1.73276
1.69181
1.84277
SCALARS CoVolArea double 1
LOOKUP_TABLE default
0.0108428
0.0110082
0.0103898
0.010378
0.0100628
0.0114081
0.0112383
0.0114543
0.0104955
0.0100918
0.0103046
0.0097895
0.0168076
0.0182243
0.0177585
0.0179665
0.0181103
0.0185118
0.0182854
0.0182113
0.018467
0.0186661
0.0184815
0.0170216
0.0170359
0.0184939
0.0177369
0.0175116
0.0202207
0.0179806
0.0185171
0.01852
0.0177719
0.0170734
0.0174879
0.0173456
0.0163561
0.018077
0.0184517
0.0182041
0.0182867
0.0192467
0.0159079
0.0180148
0.0156497
0.0157309
0.0182032
0.0150906
0.0170463
0.0190744
0.017437
0.0177426
0.0165321
0.0171284
0.0186795
0.0168129
0.0179173
0.0158951
0.0204019
0.0180248
0.0184006
0.0206786
0.0169877
0.0196682
0.0170546
0.0187671
0.0175012
0.0173701
0.0186086
0.0161442
0.0181737
0.0160423
0.0190963
0.0165007
0.0193737
0.0181619
0.0156652
0.0181879
0.0161037
0.0175042
0.0191593
0.0157398
0.0183989
0.0161694
0.0194303
0.0180058
0.0153821
0.0184063
0.0160484
0.0185441
0.0157298
0.0188494
0.0154115
0.0155982
0.0193636
0.0162119
0.0190745
0.0166369
0.0192009
0.0158161
0.0182789
0.0201365
0.0171351
0.020252
0.018259
0.0186551
0.0175149
0.0177047
0.0188185
0.0163216
0.0181437
0.0162385
0.0163103
0.018248
0.0159817
0.01547
0.0176088
0.0156889
0.0157679
0.0178332
0.0158198
0.0177293
0.0154053
0.0156889
0.0180445
0.0153213
0.017661
0.0158785
0.0179273
0.016203
0.0161686
0.0178274
0.0171019
0.0193471
0.0168328
0.0188112
0.016649
0.0173264
0.018355
0.0158969
0.0175164
0.0160821
0.0192266
0.0169736
0.0198453
0.01921
0.0162715
0.0185325
0.0184938
0.0194911
0.0180135
0.0176286
0.0174229
0.0179419
0.0182647
0.0173227
0.0197255
0.0205317
0.0206038
0.0187398
0.0198056
0.0194132
0.0144394
0.0155612
0.0141687
0.0174636
0.0161229
0.0160644
0.0162798
0.0162368
0.0180704
0.0135194
0.0151873
0.0133032
0.0184092
0.0164431
0.0167447
0.0157206
0.0160252
0.0174764
0.0153303
0.017105
0.0156166
0.0186084
0.0175674
0.0172373
0.0176194
0.0177133
0.0188525
0.0199275
0.0205008
0.0203685
0.0157265
0.0147293
0.0177879
0.0161577
0.017014
0.0163746
0.0177814
0.0153621
0.0169172
0.0184821
0.0174484
0.0173783
0.0173888
0.0183426
0.0149805
0.0159843
0.0143811
0.0178818
0.0166086
0.0172057
0.0165214
0.0164047
0.018
0.0198299
0.0199216
0.0195354
0.0174129
0.0155747
0.0195971
0.0180911
0.017945
0.0186611
0.0196292
0.0158742
0.0177545
0.0199777
0.0190431
0.0182682
0.0183883
0.0197176
0.0153819
0.0170248
0.0154205
0.0191266
0.0176206
0.0172136
0.0173309
0.0176941
0.0193441
0.0224377
0.02219
0.0220151
0.017595
0.0152683
0.0185799
0.0179184
0.0179538
0.0178717
0.0186841
0.0155907
0.0169506
0.0185138
0.0174214
0.0175735
0.0172485
0.0184086
0.0141904
0.0157796
0.0140708
0.0182
0.0165748
0.0168813
0.0168245
0.0165499
0.0181799
0.0201961
0.0200947
0.0201011
0.016592
0.0195364
0.0178589
0.016847
0.0177509
0.0142736
0.0161392
0.0192575
0.0173874
0.017612
0.0171128
0.0190733
0.0150042
0.0134645
0.0174048
0.015807
0.0168924
0.0162933
0.0186729
0.0212914
0.0209735
0.0203174
0.0157786
0.0146271
0.0182786
0.0164666
0.0162558
0.0163214
0.0176187
0.0156586
0.0171673
0.0189737
0.0177746
0.0177445
0.0176642
0.0187639
0.0139445
0.0157555
0.0139605
0.0176577
0.0164035
0.016081
0.0170997
0.0168256
0.0186447
0.020499
0.0206134
0.0200473
0.0176516
0.0159111
0.0189679
0.0180088
0.018112
0.0182651
0.0192077
0.0134847
0.0154094
0.0178142
0.0163174
0.0159838
0.0165842
0.0184855
0.0139256
0.0157366
0.0138447
0.0186577
0.0167933
0.016934
0.0161728
0.0165488
0.017897
0.020697
0.0202684
0.0207785
0.015401
0.0134697
0.018949
0.0167097
0.0162084
0.0164713
0.018261
0.0139465
0.0159203
0.0186454
0.0167964
0.0162259
0.0173168
0.019328
0.0143102
0.0162692
0.0144615
0.018451
0.0170442
0.0166967
0.0171874
0.0173051
0.0188777
0.0213475
0.0212332
0.0209212
0.0158641
0.0139387
0.0188671
0.0169808
0.0165877
0.0169325
0.018845
0.0159334
0.0177085
0.0204053
0.0187142
0.0190204
0.018201
0.0192991
0.0153398
0.0176282
0.0157599
0.0193105
0.0181896
0.0173576
0.0190704
0.0187973
0.0204736
0.0215722
0.0221821
0.0216338
0.0170232
0.0156801
0.0184864
0.0172987
0.0177888
0.0175109
0.0186575
0.0155127
0.0179182
0.0186494
0.0180105
0.0180384
0.0181772
0.0187303
0.0143165
0.0158929
0.0143888
0.0183275
0.0166563
0.0171342
0.0169159
0.0165367
0.0181134
0.0202205
0.0200453
0.020123
0.0143307
0.0159663
0.0141197
0.0180895
0.0167755
0.0168742
0.0165209
0.0166702
0.0179899
0.0137047
0.0152084
0.0137301
0.0173047
0.0158772
0.015996
0.0165027
0.0160711
0.0177904
0.0138136
0.0155545
0.0138787
0.0178471
0.016335
0.0164131
0.0162699
0.0162531
0.0174671
0.0196911
0.0193952
0.0197369
0.0155275
0.0139223
0.017862
0.0163576
0.0155857
0.0159342
0.0170116
0.0137848
0.0155345
0.0178139
0.0163673
0.0162947
0.016406
0.0178916
0.0138919
0.0154488
0.014072
0.01697
0.0158472
0.0155047
0.0163904
0.0162615
0.0177626
0.0196838
0.019643
0.0192837
0.0155556
0.0141812
0.0170998
0.0159772
0.0170622
0.016522
0.0184512
0.0142016
0.0155101
0.0182981
0.0164348
0.0168886
0.0158822
0.017045
0.0151937
0.0170294
0.0151034
0.0190987
0.0179653
0.0176197
0.017189
0.0178105
0.0188848
0.0195148
0.0202996
0.0203728
0.01628
0.0144228
0.0187429
0.0172506
0.017464
0.0173828
0.0185548
0.0154531
0.0168232
0.0182276
0.0172467
0.0175548
0.0172578
0.0186306
0.014201
0.0155234
0.014197
0.0177504
0.0160062
0.0166633
0.0168282
0.0161803
0.0178092
0.0200962
0.0195553
0.0197127
0.0162752
0.0192036
0.0173605
0.0171323
0.0186475
0.0145826
0.0163496
0.0198176
0.0178661
0.0181497
0.0173114
0.0191992
0.0157901
0.0139761
0.0185411
0.0168207
0.0174974
0.017191
0.0194485
0.0215793
0.0217015
0.0211732
0.0157588
0.01792
0.0166003
0.016794
0.0186488
0.0156647
0.018748
0.0168493
0.0163945
0.0178129
0.0177132
0.0192306
0.0183291
0.0181152
0.0191558
0.0202455
0.0207683
0.0207482
0.0158616
0.0177935
0.0165147
0.0166014
0.017834
0.015454
0.0173355
0.0161038
0.0161783
0.01765
0.0150486
0.0175114
0.0158544
0.0157955
0.0172262
0.0194822
0.0191906
0.0194173
0.0165835
0.0180459
0.0168384
0.0169853
0.017999
0.0162794
0.0180038
0.0171348
0.0170395
0.0182519
0.0153231
0.0176262
0.0160196
0.0158132
0.0173421
0.0195093
0.019231
0.019243
0.0162163
0.0191959
0.0173117
0.0174129
0.0193614
0.0177445
0.0207182
0.0189329
0.0183611
0.0195597
0.0178803
0.0197234
0.0184854
0.0189745
0.0207268
0.0221048
0.0226777
0.0221697
0.0157787
0.0192879
0.0169928
0.0164368
0.0177932
0.0164412
0.0193455
0.0173707
0.017821
0.0197881
0.0167948
0.0180265
0.0170637
0.0180593
0.019789
0.0215164
0.0217299
0.0207662
SCALARS SignedDistance double 1
LOOKUP_TABLE default
1.55117
1.53289
1.41136
1.35877
1.19596
1.21471
1.23356
1.28555
1.41707
1.35599
1.45303
1.39712
1.44637
1.14179
1.19953
1.18365
1.51473
1.56788
1.59317
1.23434
1.65152
1.61412
1.14325
1.40752
1.22709
1.17489
1.55649
1.47584
1.06575
1.19614
1.61236
1.16865
1.4322
1.19308
1.31379
1.33705
1.26366
1.37927
1.32969
1.17319
1.49698
1.56341
1.4945
1.31908
1.39557
1.26447
1.27313
1.4173
1.13422
1.15538
1.19243
1.35966
1.53209
1.1368
1.1613
1.5177
1.35479
1.37575
1.67184
1.68038
1.66695
1.66145
1.4252
1.6073
1.42615
1.60794
1.65046
1.20357
1.38896
1.52291
1.44285
1.34647
1.60144
1.61595
1.67668
1.55648
1.50672
1.27948
1.46516
1.1947
1.12777
1.37301
1.23122
1.25679
1.20309
1.23216
1.31217
1.15739
1.08409
1.11771
1.18591
1.55548
1.45077
1.50156
1.57553
1.44925
1.51726
1.46274
1.19048
1.34186
1.1087
1.03891
1.15449
1.06053
1.0757
1.36057
1.20719
1.63266
1.56964
1.30824
1.40144
1.48092
1.40028
1.35988
1.3411
1.27437
1.33974
1.40402
1.26996
1.28252
1.17626
1.33147
1.3106
1.28277
1.30531
1.3482
1.34113
1.37354
1.26072
1.3341
1.38901
1.29651
1.37896
1.28956
1.38152
1.41457
1.4079
1.16315
1.36927
1.47767
1.40719
1.30861
1.47264
1.58501
1.51974
1.49591
1.47395
1.11748
1.12493
1.2056
1.39705
1.3086
1.38153
1.3585
1.48062
1.41409
1.15109
1.06493
1.06537
1.50368
1.64248
1.56762
1.52309
1.44282
1.48106
1.38268
1.41066
1.46946
1.30083
1.3523
1.25673
1.35426
1.34723
1.41166
1.18804
1.25379
1.16786
1.42585
1.35221
1.35841
1.1946
1.18632
1.21152
1.1563
1.14183
1.12761
1.15466
1.15635
1.1489
1.27875
1.1899
1.20881
1.46084
1.5409
1.27382
1.36958
1.52376
1.44876
1.44123
1.19521
1.13935
1.16293
1.11739
1.13035
1.11681
1.16132
1.52491
1.44661
1.46168
1.43496
1.4389
1.51245
1.28127
1.35877
1.26893
1.26081
1.25765
1.35192
1.6095
1.61297
1.59356
1.60384
1.68633
1.67917
1.70154
1.59694
1.59413
1.68258
1.66604
1.65667
1.58902
1.58856
1.35746
1.43597
1.35821
1.60252
1.52025
1.50279
1.49002
1.5137
1.58726
1.66712
1.69842
1.70642
1.66737
1.60038
1.59594
1.68967
1.69222
1.69762
1.62673
1.25175
1.32369
1.29912
1.29003
1.19293
1.39492
1.48866
1.47771
1.42666
1.40451
1.54448
1.47927
1.58244
1.29068
1.38372
1.34226
1.49976
1.41157
1.51971
1.57492
1.66917
1.62577
1.55007
1.52784
1.52638
1.56644
1.64646
1.66424
1.64267
1.62115
1.68216
1.46383
1.44216
1.50441
1.48636
1.57294
1.53264
1.59563
1.64671
1.62304
1.58002
1.4167
1.50034
1.22561
1.32292
1.43348
1.3755
1.34219
1.21257
1.18824
1.12397
1.15745
1.1582
1.13283
1.13656
1.36993
1.31857
1.31345
1.31885
1.31134
1.38538
1.17478
1.25423
1.16502
1.17277
1.14167
1.23744
1.22265
1.22544
1.15485
1.20059
1.22691
1.22277
1.20842
1.35604
1.29267
1.18761
1.22299
1.26583
1.22097
1.16563
1.1349
1.13949
1.19278
1.15058
1.12805
1.14189
1.1948
1.12652
1.14928
1.15076
1.13163
1.15529
1.47781
1.41617
1.58637
1.54477
1.47421
1.51355
1.5133
1.46979
1.55435
1.57491
1.59173
1.54933
1.62066
1.5999
1.42936
1.45693
1.43168
1.50702
1.48236
1.45988
1.50495
1.48645
1.52878
1.56393
1.54822
1.54447
1.34827
1.4038
1.19265
1.27388
1.26219
1.27423
1.18406
1.19174
1.14875
1.05312
1.07442
1.06627
1.09125
1.10894
1.20126
1.10341
1.14263
1.06646
1.04872
1.14676
1.08774
1.07738
1.05663
1.08476
1.02814
1.08723
1.32611
1.25338
1.45752
1.38966
1.15188
1.27771
1.26012
1.58177
1.65285
1.58842
1.66828
1.66947
1.65556
1.55994
1.3695
1.38919
1.43709
1.29269
1.34123
1.23509
1.5414
1.43973
1.50435
1.45996
1.47886
1.36862
1.3752
1.36651
1.3534
1.39687
1.38798
1.42531
1.33149
1.35404
1.33103
1.31625
1.34728
1.38354
1.26989
1.30378
1.22949
1.41008
1.37023
1.38182
1.23275
1.23236
1.18489
1.30607
1.27217
1.2981
1.17154
1.23139
1.24252
1.35724
1.30802
1.32852
1.33894
1.33827
1.32689
1.32972
1.27988
1.32565
1.30236
1.24365
1.2636
1.31704
1.29758
1.31373
1.2899
1.30887
1.38547
1.37727
1.40197
1.31776
1.35014
1.30276
1.36097
1.35241
1.34193
1.32934
1.33528
1.32965
1.31636
1.34859
1.26083
1.28341
1.3173
1.29035
1.27395
1.40354
1.36832
1.31742
1.34343
1.37491
1.32338
1.2771
1.30399
1.37327
1.3042
1.29548
1.34018
1.36154
1.39956
1.35273
1.32322
1.26214
1.26349
1.24923
1.37464
1.37586
1.37208
1.36512
1.44911
1.40994
1.45574
1.20104
1.27736
1.26527
1.26807
1.14632
1.37842
1.39852
1.43713
1.38744
1.36794
1.4957
1.43829
1.5264
1.23823
1.34674
1.30066
1.43297
1.38146
1.46566
1.40285
1.4792
1.43551
1.43192
1.468
1.49254
1.52451
1.52698
1.56403
1.58483
1.5602
1.5263
1.44749
1.40905
1.46347
1.44929
1.52053
1.48545
1.53001
1.49765
1.49251
1.50277
1.12645
1.11664
1.11934
1.12519
1.15234
1.25034
1.14951
1.18326
1.18372
1.13576
1.22375
1.20921
1.22405
1.20291
1.15842
1.08823
1.14831
1.1582
1.40745
1.36438
1.38919
1.42232
1.43609
1.24585
1.26885
1.25142
1.29393
1.33136
1.38822
1.43119
1.41894
1.35057
1.30616
1.35762
1.34093
1.39139
1.27292
1.4407
1.36744
1.25398
1.26517
1.42895
1.52093
1.46987
1.42731
1.434
1.41537
1.30851
1.36151
1.45593
1.50961
1.46207
1.48289
1.37759
1.31243
1.14395
1.23664
1.23738
1.14487
1.10375
1.06134
1.07819
1.07107
1.03067
1.151
1.03446
1.09644
1.07652
1.05823
1.05204
1.07432
1.05251
1.42481
1.5415
1.48869
1.44049
1.45934
1.52643
1.64367
1.5799
1.62471
1.60416
1.55154
1.4895
1.51947
1.60159
1.64437
1.57585
1.61149
1.53361
