# vtk DataFile Version 4.2
vtk output
ASCII
DATASET POLYDATA
POINTS 642 double
-89.6159 181.064 82.8445
97.8193 183.17 81.3715
-75.9764 -183.35 -3.56685
90.228 -190.432 -6.50242
3.02288 -119.901 253.372
0.0479734 160.6 216.3
-0.541016 -122.209 -253.599
-3.06232 112.926 -252.5
161.933 -0.411641 -190.249
175.093 5.88561 177.5
-150.33 -3.00954 -188.438
-171.547 33.5699 183.111
-156.739 126.345 137.704
-133.59 82.5081 229.637
-73.4597 221.443 150.194
79.1793 221.255 150.866
0.897099 212.493 79.843
78.9087 127.052 -180.564
-62.1533 128.386 -179.847
-121.669 71.2999 -249.633
-127.056 80.5324 -128.567
-144.163 -9.09855 28.6746
134.685 89.7887 228.281
167.724 130.352 137.669
-114.474 -67.4087 234.999
0.471301 -23.8009 279.614
-128.744 -86.8165 -130.128
-131.501 -95.5371 97.8497
-1.69433 1.71867 -301.321
-127.148 -80.0446 -250.171
138.609 87.1989 -140.484
135.302 78.9493 -253.188
146.784 -97.9212 96.8593
126.485 -66.7034 241.076
61.9379 -171.874 132.265
-53.8715 -168.457 131.971
4.23377 -235.862 -8.26034
-42.3876 -172.236 -148.924
60.2092 -178.207 -126.102
135.74 -79.346 -252.802
124.478 -84.5408 -119.932
158.443 -4.47176 29.4508
-126.189 160.051 108.438
-129.694 175.361 142.672
-85.4855 208.386 123.663
-174.165 49.1259 198.474
-163.458 110.572 172.275
-172.834 69.6523 171.074
-40.9299 200.23 196.746
-107.908 162.599 194.386
-80.1798 121.848 231.147
-35.2325 231.895 124.526
-48.6 206.233 84.84
43.4198 199.547 196.672
-0.128638 234.584 156.378
55.2749 204.816 81.7531
36.8966 231.148 123.807
94.6586 208.939 121.43
-11.6287 143.117 -35.1814
-65.6528 97.4014 -59.5073
60.8965 103.073 -70.7659
13.246 145.444 -32.9311
-48.0862 125.902 -217.223
-2.51113 132.035 -169.286
56.5818 125.122 -217.776
-107.323 103.338 -159.714
-132.494 139.196 -13.7754
-70.8216 100.658 -263.328
-92.4662 114.826 -216.074
-149.771 43.3285 -153.817
-130.893 77.7856 -198.555
-148.126 31.6407 -220.886
-134.285 112.009 69.2688
-153.493 -3.29149 -117.496
-152.109 56.4748 -76.063
-158.755 72.1113 102.032
-165.906 21.4112 124.308
140.38 178.146 141.46
137.411 163.399 106.371
85.6789 123.684 230.454
116.822 164.549 197.748
175.283 88.3497 148.806
170.967 122.247 172.952
170.274 43.3728 202.49
-82.3452 33.3082 257.697
-0.130637 65.7479 251.199
-155.782 -22.8775 203.405
-133.988 2.69079 243.005
3.03382 -77.2588 285.446
-70.2791 -47.101 273.786
-59.5436 -101.089 251.63
-146.392 -39.1668 79.9673
-155.285 -31.3139 154.756
-148.873 -52.6649 -168.331
-136.424 -30.4268 -78.7967
-109.021 -146.215 44.7331
-126.761 -112.801 6.02213
-104.728 -147.572 -37.314
-133.815 -1.76975 -265.058
-149.092 -41.5095 -221.22
-4.38073 68.5362 -292.015
-76.8195 43.4106 -296.068
-75.3862 -109.375 -264.016
-79.2154 -43.3137 -292.493
-1.5505 -72.748 -288.604
107.675 119.744 -219.414
83.5182 102.558 -261.192
134.842 131.034 -11.6739
120.238 109.139 -168.968
161.535 46.0843 -220.97
148.511 84.3937 -204.148
159.413 52.3088 -169.704
121.573 -153.7 38.0989
111.383 -143.461 117.033
81.6385 -187.353 59.8153
164.783 -27.9251 210.392
144.206 -75.387 186.113
166.425 -36.0509 153.849
31.3442 -144.622 203.597
93.5937 -118.738 204.208
63.3762 -100.422 253.225
27.8021 -210.043 47.0469
43.3312 -223.268 -10.3716
-27.4824 -141.723 204.102
3.5767 -181.465 141.008
-30.6472 -220.522 -8.35973
-19.3959 -207.146 47.0292
-71.5924 -182.253 61.7176
29.6076 -224.485 -65.8469
73.317 -201.441 -63.1972
-60.1134 -193.692 -64.8899
-17.9174 -221.818 -66.0623
47.6314 -136.823 -221.996
2.15603 -200.923 -117.207
-56.6302 -138.669 -218.715
94.0867 -134.913 -141.979
116.888 -158.522 -34.3718
77.509 -106.032 -262.316
107.397 -123.096 -218.418
159.177 -48.1355 -181.319
148.689 -82.4089 -213.386
161.55 -47.3552 -220.985
139.155 -123.12 3.7956
164.303 0.704844 -123.957
153.097 -32.8841 -67.2472
163.5 -49.9737 74.7989
176.753 13.5509 114.359
78.372 -46.1304 275.547
138.995 -7.12903 249.97
87.3437 28.6334 259.836
-102.079 -136.894 118.252
-86.5063 -116.226 203.593
-133.655 -74.0535 182.165
-98.9232 -125.243 -220.809
-105.485 -113.111 -152.848
-137.781 -85.3253 -202.797
139.868 0.00718454 -261.126
82.0491 -47.1269 -289.989
81.5638 47.2796 -289.96
170.175 73.8049 98.8675
163.392 59.9459 -76.5017
144.08 118.076 66.5694
-107.262 172.289 92.252
-108.669 186.096 118.509
-88.0243 196.007 101.816
-147.923 148.908 141.339
-130.147 169.319 136.375
-144.734 143.772 129.21
-81.4039 216.299 135.677
-107.652 194.933 136.587
-104.636 201.624 145.11
-175.793 40.3905 186.466
-178.128 59.2331 180.263
-176.239 53.0111 179.335
-151.581 97.1902 203.227
-172.081 76.3344 189.429
-156.174 64.5984 217.078
-164.038 103.482 149.626
-169.617 88.2084 166.465
-161.993 122.857 150.051
-21.4225 182.711 210.908
-59.937 166.475 212.525
-41.4789 143.382 222.391
-90.858 197.462 172.465
-76.1011 184.761 195.919
-57.8462 213.679 175.455
-108.328 102.151 234.304
-95.0819 143.996 216.291
-123.155 122.976 214.656
-150.953 149.172 153.539
-139.928 137.902 185.32
-124.509 175.902 162.904
-66.3434 211.213 104.108
-70.8159 195.405 84.318
-52.8108 231.116 134.744
-59.1581 223.79 125.482
-25.4212 211.348 83.0111
-41.8569 221.559 106.255
-18.3888 224.91 105.233
22.4305 182.556 210.952
-0.0314505 203.227 197.264
40.9882 232.077 155.533
22.0626 221.134 178.338
62.0241 212.818 175.567
-21.6105 221.17 178.344
-39.5412 232.697 155.224
79.3363 194.577 80.7628
74.9923 210.728 102.7
97.6703 196.907 100.739
18.4287 225.117 104.075
46.0863 220.459 104.902
27.7478 210.97 80.2887
89.3085 217.041 133.86
66.472 222.738 123.497
56.9451 229.971 134.041
-21.0402 238.648 136.263
20.7519 238.235 136.349
-0.549878 233.463 125.789
-56.6614 183.788 60.0711
-79.9894 169.011 57.8902
-9.33537 192.207 50.0367
-29.9342 191.079 56.3734
-62.5473 125.301 -166.92
-17.0269 143.739 -53.6127
-40.3703 131.038 -147.508
81.6507 172.02 52.3731
67.621 180.32 53.768
52.504 132.792 -143.274
33.4503 132.293 -49.5944
79.1516 127.259 -159.738
35.2187 191.309 53.2917
13.8416 192.271 48.417
-27.5142 122.988 -234.545
-1.07624 125.397 -218.262
27.6579 123.2 -233.084
-42.8447 131.824 -172.523
-28.945 127.684 -197.235
-59.5955 127.46 -197.662
73.4748 125.405 -203.163
29.0007 126.257 -199.867
50.1733 129.544 -173.25
5.96248 145.544 -30.2374
20.9972 134.96 -125.813
-19.9972 132.044 -128.921
-132.915 134.414 -34.2482
-107.25 147.497 52.6242
-85.1685 118.413 -179.403
-102.809 104.775 -150.899
-123.258 116.859 -91.712
-120.564 112.203 -108.393
-116.503 103.531 -133.014
-40.9323 107.511 -259.245
-60.4703 120.995 -238.737
-108.929 98.0924 -234.31
-85.7251 112.646 -239.26
-96.8788 88.1743 -260.177
-71.4197 124.274 -217.648
-77.6537 123.489 -198.947
-150.984 25.4105 -172.998
-147.29 40.2896 -195.888
-149.433 14.3652 -208.522
-130.158 78.506 -165.746
-140.437 60.1049 -182.064
-144.613 55.9329 -139.341
-139.627 51.7151 -234.825
-140.538 57.8553 -211.209
-130.329 76.1138 -222.5
-99.5028 112.177 -191.862
-115.078 98.2054 -208.133
-116.519 96.8272 -179.757
-125.1 138.967 60.186
-99.9595 105.27 -40.4743
-130.114 139.802 29.5216
-131.733 138.151 90.1585
-148.893 121.775 112.953
-153.898 -2.34039 -145.612
-154.378 27.3097 -131.295
-136.71 47.8987 -37.3457
-148.936 33.2571 -112.576
-160.538 -13.2913 -80.8885
-151.31 47.228 -112.381
-151.652 51.6029 -97.744
-170.751 52.8153 163.525
-168.744 34.1502 165.27
-159.614 102.749 125.379
-166.422 75.1631 143.454
-160.162 12.3824 90.4978
-165.014 44.6581 117.044
-155.64 39.1995 78.1324
-153.602 72.3431 1.77335
-151.81 77.7992 33.8353
-149.896 88.8463 82.7882
118.977 188.159 116.209
118.158 174.72 92.3708
113.103 202.92 145.276
117.239 196.884 132.696
154.856 148.36 124.421
140.636 172.194 130.779
158.771 152.7 139.616
44.0375 143.551 222.198
65.4925 166.06 212.779
129.258 129.904 216.197
102.616 146.346 217.809
111.996 108.181 234.369
83.4281 184.147 197.466
98.5383 197.012 174.7
174.657 41.9039 165.594
173.513 67.6782 175.227
174.317 20.3308 188.485
172.97 129.242 149.463
175.243 106.907 159.522
173.741 112.993 142.915
156.036 67.405 216.425
170.906 89.5544 188.21
155.736 108.505 202.886
133.613 176.821 166.766
148.814 144.11 188.588
161.184 152.758 156.72
-49.1995 97.6919 240.517
-0.0294049 116.957 233.813
-112.588 65.0351 248.159
-87.4322 79.8319 245.733
-0.293034 15.9612 269.35
-47.2322 45.2868 255.711
-42.1794 2.28164 271.641
-165.033 3.70319 187.772
-164.931 14.0033 200.841
-125.832 -33.899 241.889
-148.056 -12.6261 225.315
-138.244 -44.698 219.274
-151.688 29.4192 221.721
-137.607 45.6672 238.745
2.94674 -102.475 271.286
-24.6462 -90.3429 270.577
-21.3413 -112.394 253.889
-33.0934 -37.3834 278.504
-26.3234 -64.2261 279.611
2.1226 -55.4228 288.574
-88.5831 -86.4499 246.28
-65.983 -75.9775 266.657
-94.9004 -58.8527 258.328
-110.209 18.4125 256.006
-103.175 -23.3396 262.471
-76.7424 -10.686 273.584
-164.147 -4.60081 137.356
-163.995 -1.38905 170.339
-147.402 -12.8675 61.1866
-160.593 -8.28363 102.315
-144.122 -60.4436 130.954
-155.107 -33.6701 115.534
-140.929 -70.7141 88.9795
-150.809 -35.5561 -176.52
-154.478 -27.1571 -137.442
-131.26 -72.5725 -110.963
-149.869 -40.1448 -137.252
-142.061 -67.3319 -159.073
-153.015 -14.824 -106.88
-151.373 -17.9293 -33.4644
-95.6468 -163.168 21.7631
-108.792 -147.475 4.06358
-91.3979 -167.473 -18.747
-128.731 -107.918 53.4419
-120.058 -128.822 27.4765
-121.44 -124.361 67.194
-115.72 -114.936 -78.2264
-119.004 -129.502 -16.3833
-123.506 -103.303 -51.6458
-143.882 -48.1029 10.1743
-132.988 -84.846 -25.2734
-134.365 -83.083 37.3093
-149.791 -3.25915 -225.604
-149.254 -22.8494 -209.179
-129.601 36.2974 -259.917
-144.573 15.6792 -241.856
-144.704 -60.7296 -234.783
-145.866 -21.4219 -241.682
-131.377 -40.6914 -258.833
-4.01972 93.7892 -273.858
-43.4233 84.7886 -281.543
-46.3252 24.8094 -301.543
-44.7037 57.4164 -297.093
-3.01796 40.2182 -301.19
-75.0973 74.1396 -283.644
-101.605 59.6293 -276.631
-43.3473 -116.611 -259.577
-45.9233 -92.3944 -279.269
-0.833465 -102.134 -272.672
-105.488 -65.0432 -276.068
-79.2941 -81.0325 -281.966
-101.926 -96.5857 -260.998
-1.67001 -37.9896 -299.464
-45.7685 -58.228 -292.695
-46.4724 -21.2384 -301.511
-107.663 19.5889 -283.743
[...]
POINT_DATA 642
SCALARS Mean_Curvature double 1
LOOKUP_TABLE default
0.00628486
0.00565606
0.00659178
0.00901439
0.029919
-0.00450923
0.0104508
0.0103221
-0.00199287
0.00928284
-0.000535464
-0.0300502
0.0104219
0.0125441
0.0276679
0.0246034
0.00832698
0.0128671
0.0298303
0.0180152
-0.015155
-0.00899643
0.00954232
0.00568296
0.013233
0.0045941
0.0130176
0.00505689
0.001085
0.0194547
-0.0164708
0.0205637
0.00749531
0.0169711
0.00884096
0.00883617
0.0571552
-0.0327483
0.0260097
0.0186727
-0.00298402
-0.00234861
0.00977863
0.0518379
0.0079151
0.0326567
0.0208698
-0.00984412
0.0147957
0.00913686
0.00894733
0.0119234
0.00876017
0.0124639
0.0152814
0.0063302
0.00878598
0.00940931
-0.083893
-0.0209971
-0.0209457
0.0227212
0.00740584
0.00428083
0.00747114
0.029734
0.0846162
0.0177569
0.0156319
0.0160166
0.00946722
0.0207151
-0.0173045
0.00251522
0.0434361
0.00747876
0.00681152
0.0343563
0.0114134
0.00505717
0.0121564
0.00238095
0.0248233
0.0194815
0.00181704
0.000890007
0.0228389
0.0159916
0.0300964
0.0164094
0.0144628
-0.00124478
0.00355523
0.0160889
-0.0183677
0.00754287
0.00668395
0.00581333
0.0198939
0.0139242
0.0115437
0.0185083
0.0182944
0.0102206
0.00657407
0.0289344
0.0135849
-0.0642398
0.0143072
0.02284
0.0156589
0.00977823
0.00874373
0.00822715
0.0111402
0.0238404
0.00730109
0.00188148
0.00430961
0.0073043
0.00993099
0.00196234
0.018942
0.00307374
0.0158211
0.0199988
-0.00230912
0.0126723
0.0212861
0.014964
0.0105043
0.0212124
0.00836075
0.00934608
0.00381757
0.00136724
0.00916519
0.00986877
0.0292472
0.0130985
0.0145715
0.0232495
0.0101613
0.00797327
0.00291422
0.00779384
0.0137136
0.0143428
0.0148798
9.53607e-05
0.00783584
0.00842291
0.00912318
0.0279285
0.00859522
0.0152902
0.00803445
0.01053
0.00945351
0.00626529
0.00418681
-0.0145799
0.00635684
0.0080277
0.0126039
0.0255383
-0.00784023
0.00192516
0.029118
0.00227219
0.0397808
0.0820537
0.0867568
-0.00204119
0.00840669
0.026433
0.0155041
-0.0024545
0.0305884
0.0407922
0.0157443
0.00964866
-0.000735079
0.0121961
0.012753
0.0123105
0.0147437
0.0123248
0.0124461
0.0335987
0.00984271
0.0166588
0.014277
0.00890492
0.0399379
0.00445426
0.00833108
0.0117296
0.0089264
0.015396
0.00955566
0.0228441
0.0137311
0.00966871
0.0138178
0.0243915
0.00929403
0.0132272
0.0117265
0.0106634
0.00701651
0.00858298
0.0316445
0.00752332
0.031076
0.0436089
0.0410999
-0.00332241
0.00223115
-9.33563e-05
0.00709581
0.00603851
0.00476061
0.0430713
0.00319097
0.00120644
0.00333196
0.0161466
0.0018673
0.0142986
0.00411757
0.0095422
0.0181042
0.00418482
0.0194826
0.0135548
-0.00283544
0.0087019
-0.0011012
-0.00393754
0.00116709
-0.0048426
0.00178266
-0.0048594
-0.0288722
-0.0242386
0.00983856
-0.000146308
0.0632176
-0.0173017
0.00551744
0.00919937
0.0249654
0.0215728
0.0245111
0.016001
0.023773
0.0182253
0.00491759
0.0103854
0.00181475
0.00360104
0.00546477
0.00775881
0.0223582
0.0106843
0.0186041
0.0175677
0.0151926
0.016029
-0.0392157
-0.0316654
0.0450044
0.0142675
0.00491144
0.00281945
0.0192335
-0.019653
-0.0185435
0.0331251
0.0327129
0.0206018
0.00101717
-0.00404533
0.00959604
0.0014558
0.0119918
0.00667714
-0.00232351
0.0481199
-0.0170046
0.00929182
0.0091516
0.00749593
0.0289363
0.0153088
0.00684611
0.00425501
0.0241731
-0.00117255
0.00757994
0.0158643
0.0136003
0.0185446
0.0127963
0.0118229
-1.55346e-07
0.00485584
0.00967706
0.0430213
0.0168863
0.0178736
0.0105944
0.0217043
0.0124269
0.0143736
0.0145756
0.0283822
0.00192269
0.0016562
0.0195348
0.00512365
0.00424441
-0.00153285
0.0043365
0.0184156
0.0179133
0.0126015
0.0181162
0.0129001
0.00228416
0.0183713
0.0272711
0.010582
0.00975074
0.00436601
0.00988485
0.0284621
0.0167314
0.0169541
0.0150305
0.0119356
0.0150853
0.0183876
0.00913734
0.00422643
0.00508682
0.0118289
0.00245195
0.00860469
0.00617585
0.00286234
0.0253794
-0.00219577
0.00373861
0.00523922
-0.0053881
0.00834241
0.00561565
0.00825788
0.00722279
0.00729727
0.00756547
0.0107679
0.00144192
0.0124299
0.00149809
0.00135054
0.00465517
-0.00162098
0.0179495
-0.0028575
0.0144491
0.0159388
0.0283542
0.018945
0.00850676
0.00845186
0.0117033
0.00588369
0.0156536
0.0105548
0.018373
0.0151058
0.00945395
0.0111448
0.00864159
0.0155034
0.0186172
0.0164709
0.00776068
0.00590926
0.0086388
0.0110111
0.0169999
0.0159715
0.0206554
0.00733864
0.0124049
0.0240421
0.0199615
0.0300556
0.0233343
-0.0104729
-0.0254752
-0.000675531
0.0291141
0.103226
-0.00127198
0.00936263
-0.000992493
0.0156545
0.00557738
0.0261401
0.0271621
0.0296087
0.00364498
0.0122076
0.0049918
0.00987356
0.0112073
0.0244392
0.00894938
0.0109895
0.00641073
0.00654184
0.00646812
0.00677993
0.010489
0.00859211
0.00913039
0.0206747
0.00461481
0.00802241
0.0110695
0.0076971
0.0219305
0.00904868
0.00773452
0.00401064
0.0102442
0.00720228
0.0119887
0.00666286
0.00701613
0.00537212
0.0154989
0.0136938
0.012465
0.00418228
0.00814667
0.00552666
0.000537504
0.0131105
0.00679167
0.00985335
0.0270127
0.00896179
0.0196735
0.00531056
0.0148202
0.0083405
0.00576403
0.0051815
0.00991207
0.00739356
0.0108751
6.68136e-05
0.00307628
0.0186336
0.011728
0.0275437
0.00796508
0.0133785
0.00908724
0.00571681
0.00606977
0.0181593
0.00750359
0.00751899
0.0157648
0.0046521
0.0126502
0.0192046
0.0156265
0.00434396
0.00356339
0.019416
0.0131326
0.00481562
0.00299062
0.0208134
0.0195038
-0.00230694
0.0177134
0.0131356
-0.0060091
-0.0253825
-0.112529
-0.0186491
0.0456592
0.0133886
0.0225255
0.0191929
0.00692228
0.00936863
0.00935339
0.00861351
0.00627127
0.007457
-0.00939317
0.0116068
0.0229989
0.0265226
0.0194066
0.0167115
0.0129434
0.0337939
0.00946331
0.0244108
-0.000939054
0.00235843
0.00796277
0.00415447
0.0329581
0.0385143
0.0389873
0.0129316
0.032995
0.00549448
0.0101216
0.00760886
0.0151779
0.013233
0.00332796
0.00324651
0.0274476
0.00896476
0.0311042
-0.0282472
0.0135717
-0.00804281
0.00993869
0.00372266
0.00834906
0.00891366
0.000482097
-0.00335072
0.0111567
0.00101015
0.00211193
-0.00384105
0.0130083
0.015863
0.0149021
0.0161841
0.00014053
0.0286556
0.00536828
0.0117257
0.0171801
0.0202999
0.0018711
0.00300018
-0.00188914
0.0036371
0.0181942
0.0237181
0.0163348
0.0178929
0.01363
0.00740752
0.00704976
0.00789534
0.00742496
0.0130778
0.0128648
0.0145773
0.00596687
0.00508691
0.00708072
0.00434161
0.00311047
0.0138488
0.0141054
0.00572939
0.0113934
0.00548419
0.0224804
-0.0106076
0.0540552
0.0242624
0.0253976
0.00585222
0.00528803
0.00626324
0.0117184
-0.0238432
0.0139516
0.0246156
0.0199623
0.0147259
0.00773314
0.00364302
0.00838476
0.0217726
0.015712
0.0161628
0.0163981
0.0165772
0.0166787
0.0133948
0.0101848
0.00365548
0.0132177
0.0231958
0.00659112
0.0233521
0.0181628
0.00872172
0.0108371
0.0108806
0.00619267
0.0109741
0.00331377
-0.000643711
0.0101478
0.0183269
0.00212438
0.016863
0.0219899
0.00142679
-0.00360672
-0.0143264
-0.0237618
0.0058935
0.017809
0.0501139
-0.0341223
-0.0772121
0.0520692
0.00570603
SCALARS CoVolArea double 1
LOOKUP_TABLE default
630.749
687.548
739.571
631.639
506.777
1296.72
909.808
984.294
958.373
469.671
859.394
308.597
443.533
1088.54
795.982
905.946
890.871
598.707
395.307
945.578
1942.83
2899
1270.85
437.958
955.745
1539.6
1181.46
1223.33
1864.77
994.006
1844.56
883.098
1220.21
886.236
1251.75
1261.47
281.992
1466.5
1240.12
896.731
2655.87
3250.88
921.25
456.177
565.393
687.924
955.226
355.485
1076.38
1330.41
1365.88
480.938
714.309
1173.92
964.563
863.309
563.049
550.807
1439.71
6950.74
4819.04
1813.75
677.763
1683.1
753.513
455.868
629.325
906.706
590.265
717.665
660.866
612.459
2737.95
749.272
783.233
1374.32
979.549
607.556
805.045
1414.35
1237.5
816.434
852.6
1046.3
1539.37
2658.59
707.283
1130.36
749.916
1162.73
995.817
1684.57
991.179
562.651
2573.59
843.714
1259.96
1361.57
1123.62
613.865
1396.08
1201.05
945.507
1349.41
1628.13
507.505
1009.05
979.332
597.648
622.008
480.751
660.804
935.338
1336.74
1062.94
604.71
1080.64
1021.66
1149.04
1148.52
1122.28
1216.11
718.754
1144.33
1112.61
681.933
1200.19
1007.79
718.777
756.214
964.822
669.264
1621.62
1825.66
1195.13
1908.56
905.995
1082.6
604.386
437.575
298.866
581.567
1081.64
885.976
2132.89
1427.32
1034.22
1153.05
1078.46
1610.74
1296.85
1030.32
887.574
533.795
1659.4
459.15
1467.27
1416.88
1391.93
1272.55
823.635
2600.05
905.684
726.09
618.87
340.665
531.152
652.252
414.516
426.647
683.371
283.31
269.074
204.503
1209.94
763.165
966.774
501.141
423.146
441.119
1144.16
1249.89
1662.02
1160.17
1156.52
1029.3
1064.43
1181.84
1262.66
828.233
1413.7
1165.77
612.089
655.657
476.89
465.99
743.879
582.051
742.841
1205.14
1093.84
942.473
1118.06
1127.4
1069
863.101
658.451
670.53
616.571
804.482
704.518
831.573
485.6
522.45
566.415
618.4
663.159
647.002
3038.25
3043.7
1408.72
1529.29
2579.7
3794.2
837.149
2884.58
2255.44
1613.25
3244.65
1800.82
1910.15
1254.21
914.964
958.703
1034.41
810.982
1048.15
490.952
653.102
1232.33
1294.6
1790.16
2101.08
1866.21
3642.7
1330.48
532.559
2557.99
1539.67
336.108
675.331
1014.28
734.809
787.607
710.023
900.639
491.114
435.92
922.241
687.017
683.145
941.749
739.053
819.472
752.013
586.981
692.267
584.657
689.616
729.214
860.646
4668.33
1877.48
961.437
933.056
1077.2
759.186
4192.64
1427.29
2378.4
405.943
2166.09
714.752
760.71
878.276
955.748
1134.52
1135.53
2815.36
2636.27
1746.4
1204.61
656.754
829.879
820.233
473.023
627.689
532.388
423.55
1770.33
1326.35
1142.83
1121.06
1065.3
1199.85
1223.24
995.882
870.847
690.748
418.894
580.563
373.323
1246.29
967.475
1164.22
1202.17
1243.39
840.555
2161.37
2346.89
1181.68
1471.63
2175.3
2111.98
1687.57
498.227
780.041
1046.13
955.001
838.651
1025.07
1109.32
707.217
982.375
867.976
1259.23
988.135
906.958
866.904
1056.56
1024.73
1345.81
1212.77
1427.5
1092.64
788.6
1511.3
1007.96
1207.13
1163.97
1411.88
920.665
647.464
2053.23
1131.15
832.396
811.161
1499.6
916.344
929.015
971.18
1142.63
872.895
945.232
1598.37
1126.93
1491.55
2731.27
2607.56
1934.07
624.232
716.83
1110.04
817.78
770.313
833.531
1173.94
1348.17
1121.03
1534.69
1173
1511.22
991.628
1132.46
1094.16
1310.46
1358.12
1218.96
1114.87
933.483
1728.37
1468.04
1657.62
1327.85
1449.57
1370.99
842.022
1291.56
427.814
452.619
835.147
668.208
770.48
1752.3
4360
598.505
1041.75
818.262
2424.47
574.193
760.554
499.131
992.348
651.044
428.195
714.486
854.541
479.347
745.327
546.977
630.517
600.362
854.546
990.887
947.588
1357.89
1087.94
1085.74
1041.29
1030.45
1268.05
463.606
664.702
624.265
875.978
722.314
723.717
1130.11
1004.5
1319.98
826.228
1124.49
845.616
1321.23
1179.97
1245.77
972.173
1010.57
957.655
1492.8
1240.5
1475.51
1030.84
796.14
1313.76
1181
434.587
844.215
564.095
851.253
989.33
1259.53
1114.28
1265.43
1061.81
1246.63
841.317
971.953
970.428
557.385
778.387
389.886
1028.71
1114.83
1258.4
1393.8
1381.15
1150.5
772.41
755.15
585.537
699.525
985.353
691.754
851.71
887.448
859.534
855.911
764.723
1605.41
685.516
541.674
902.715
2079.24
961.154
1656.82
3123.71
1890.9
635.954
2582.62
1030.04
739.077
817.255
823.71
890.965
805.491
1344.23
1380.81
1790.2
1728.26
2435.85
1110.12
886.641
783.705
840.72
946.228
915.613
889.831
835.375
370.211
715.482
1301.95
305.047
1486.25
695.846
303.035
553.768
899.99
491.012
1126.28
793.253
1820.29
747.608
844.165
1207.57
1171.5
610.832
1330.36
596.596
2906.5
1196.23
2840.77
1023.53
953.927
1193.93
1114.73
1248.22
1155.12
1619.96
2507.33
2300.26
1716.54
953.982
1009.26
1139.22
975.613
1344.17
760.914
1416.22
1120.77
801.966
888.191
2278.27
1872.69
2297.53
1574.83
1358.96
1040.94
1316.3
1366.56
892.852
1297.33
1015.83
981.069
1256.85
1010.8
892.189
854.14
1060.86
1292.73
664.595
1195.96
844.847
683.155
863.046
1362.85
1065.67
1289.97
778.307
1088.01
466.718
724.157
767.672
1217.52
1291.16
1726.75
1738.69
2542.53
566.252
634.013
472.237
449.347
720.418
1142.04
773.335
546.522
847.237
1170.39
1061.88
1053.01
1157.18
1401.78
1752.25
1542.11
1145.74
1091.73
1443.23
1059.4
1077.84
1414.9
1699.5
1629.96
1800.9
1634.3
1151.83
2605.38
979.385
727.365
751.433
871.129
2689.21
550.796
1747.23
4397.6
760.225
960.819
835.582
1082.03
4469.06
1782.07
3116.53
1334.88
SCALARS SignedDistance double 1
LOOKUP_TABLE default
65.9612
65.3134
59.4252
56.4836
47.9305
49.2455
49.7549
53.6687
59.6919
58.9119
62.0589
63.2544
63.4198
42.3348
52.6097
50.5444
65.7679
66.9143
72.2546
49.1054
80.432
69.9031
43.2741
60.9782
48.7203
46.1733
78.8912
63.5745
40.61
46.6307
73.0325
43.7033
62.7967
46.8355
52.726
54.2789
53.253
80.3016
62.7519
44.1489
70.0655
70.5931
64.3207
60.8897
58.371
57.6383
60.5517
64.4787
41.5022
43.519
46.5016
58.5241
66.1718
41.907
48.8839
65.2207
58.1575
57.777
95.8345
94.7973
97.7768
96.08
65.7856
79.3096
65.0039
73.1448
126.986
46.2812
61.0184
67.0376
62.0276
59.7664
70.8397
79.4454
117.662
69.2526
63.8341
57.6049
62.7501
46.5728
41.9207
59.1063
54.4713
54.8785
48.5722
47.1751
58.8636
44.4136
40.5529
42.508
45.4791
69.8545
61.6507
64.3705
90.275
62.3857
66.0047
62.0288
47.4334
60.7751
40.9274
37.8569
42.7603
39.7612
40.9315
61.0877
47.5427
113.032
66.701
59.2507
61.0603
62.8059
58.3054
56.1024
53.8569
56.0361
54.8736
60.5325
51.4245
51.844
45.7181
55.4531
53.8557
53.0354
53.318
56.2905
57.6783
56.8968
53.301
55.5633
57.9123
54.7101
62.6304
52.2251
65.0251
76.62
58.3602
44.2262
66.8099
61.2603
61.3646
59.273
64.7576
74.2903
89.5717
63.3761
65.2886
42.9525
42.2778
48.3709
58.1892
53.6491
60.3817
62.8904
75.7108
61.4743
43.2345
42.5038
42.0896
64.8178
113.621
69.6549
65.7098
60.8219
63.1656
61.9026
59.9603
62.1264
57.0719
58.1773
57.8574
64.3737
66.2083
64.7195
47.0157
56.8804
44.8808
62.3145
65.2024
63.6655
46.8976
46.8567
47.5385
43.9068
42.0044
42.2994
43.5323
43.9123
42.703
59.8155
46.3269
51.1913
62.519
65.9779
57.812
57.5895
66.5313
62.0582
62.1178
46.9369
41.8298
48.635
41.7063
43.1124
41.7419
48.7246
65.557
61.6362
62.2333
61.0717
61.3647
65.3076
56.1139
57.5031
57.4609
58.8299
58.2623
57.7879
69.4903
69.4038
70.7105
70.4413
74.8414
109.407
89.3613
69.2763
68.8439
86.4361
97.7283
73.9212
67.9343
71.2869
62.6922
65.2809
62.9148
78.5658
67.5737
67.3516
65.2976
66.1559
71.2631
94.2874
98.5566
97.9058
135.826
74.5867
68.8527
75.3725
125.745
110.347
88.7033
50.6877
60.5615
56.4352
55.7497
44.7394
64.05
65.3954
62.7135
60.7871
61.1442
66.8235
62.3677
73.3215
57.0727
60.384
59.1468
66.0788
61.1365
67.2324
78.354
103.656
99.8716
68.4372
66.2703
67.651
75.634
100.921
82.6646
107.933
89.1292
100.484
64.9583
64.9876
64.5159
63.9423
70.2334
65.1805
71.3068
105.379
91.0788
72.7691
59.6034
64.2478
54.705
57.0327
60.3387
58.0281
59.2539
47.4391
47.0293
40.9986
44.7765
44.1742
41.8411
42.6398
58.4696
60.5896
58.1068
61.6496
59.3085
61.6746
45.3001
55.644
44.9884
46.9289
42.5035
55.8386
47.5871
47.1286
43.7758
47.1578
48.3671
49.3689
47.7387
62.412
60.2167
46.7849
49.3536
53.0056
49.1518
45.1796
43.3765
42.9526
47.1083
45.5427
44.8706
46.0805
45.9706
41.6253
43.6909
44.1225
42.8921
44.6061
62.087
61.7361
71.0587
68.653
64.1035
66.6409
66.4755
62.5884
71.2507
82.0912
68.8065
66.3387
85.4187
91.1163
59.5778
61.0081
59.7265
66.8514
63.0018
62.5293
78.1981
62.9215
72.9437
69.6314
66.6134
66.6758
61.4924
60.9658
45.7763
56.0177
56.1251
57.3392
46.8798
45.6517
43.6051
40.831
39.9509
40.4612
39.6738
40.864
46.9561
41.1219
42.7633
38.4675
38.269
42.337
40.0459
41.606
40.7903
40.7616
39.6098
40.8539
60.9838
50.4483
64.0159
64.6841
41.931
56.2988
53.5303
70.7904
105.421
77.4015
94.4637
108.065
70.9598
63.7792
59.1826
60.3457
60.7249
56.6274
59.6404
52.6137
64.4688
61.0977
62.56
62.8036
62.7523
60.8587
56.426
55.6776
55.8647
60.0136
57.8259
60.7007
53.9999
55.3887
53.2553
57.8011
58.3617
58.4077
53.7687
56.0923
50.9277
58.1215
57.5884
57.3456
51.166
49.5466
46.574
52.9407
51.5749
53.2771
44.7127
49.6075
50.865
56.6422
53.0952
54.8703
56.3677
55.6124
55.5927
55.709
53.1671
54.4453
53.5192
51.6099
51.2673
52.8777
53.8356
53.8899
52.9449
53.0076
58.8681
58.0188
58.367
54.1855
55.5808
53.8573
56.0411
56.8275
55.5786
55.4437
55.5342
55.9177
53.8638
55.7348
53.4195
52.5457
52.6066
52.6578
50.4286
58.8683
57.284
52.8032
55.8215
56.5045
54.6793
53.9325
57.9853
61.0847
58.2799
53.8288
69.7967
75.2707
82.2639
79.8086
61.1057
54.2172
50.0722
50.0314
57.2447
56.8766
74.5192
55.9539
62.0175
58.431
71.2508
46.8829
55.3368
55.4189
56.5289
42.102
66.5146
76.8186
60.3713
60.8926
59.1626
61.1269
60.8799
61.7805
54.0785
61.6642
60.4394
70.5407
63.4249
63.3825
58.1314
62.9684
60.142
60.7449
64.4142
64.2768
67.9661
74.1355
77.8632
91.4814
67.7279
75.3684
63.402
59.6001
63.1122
63.9655
66.4008
65.4616
67.0731
65.9056
67.0237
65.9233
42.5265
41.8355
41.8619
44.3991
45.1872
54.9357
43.7615
46.7476
47.7943
42.8422
47.4671
47.1325
49.258
47.2598
43.9632
40.5376
43.6232
46.0434
59.3031
55.8088
57.3871
59.3664
61.2073
50.8471
51.3389
50.8603
53.5166
54.7889
60.7489
61.2263
61.6613
59.9194
55.0009
56.3979
56.5307
58.494
56.9292
69.0078
66.4443
53.8025
55.287
59.9134
75.5727
73.8938
62.9014
75.3001
62.0234
59.3016
60.0065
62.9739
64.7403
63.5089
63.9179
61.8788
58.8068
43.4208
52.9477
52.8902
43.3692
41.0128
40.1633
41.7145
40.2539
37.3279
43.0996
37.3333
41.5242
40.8412
40.5297
38.835
40.1667
38.853
60.0492
65.7417
65.5885
62.4388
61.8768
70.279
92.2299
79.4284
81.6581
98.9778
74.8768
64.0985
67.2633
92.1124
119.464
89.8591
103.37
67.3433
