# vtk DataFile Version 4.2
vtk output
ASCII
DATASET POLYDATA
POINTS 642 double
-88.2835 179.273 84.0505
96.5664 181.383 82.6185
-74.4283 -181.641 -3.58269
88.8123 -188.76 -6.56399
3.06027 -118.499 252.247
0.049986 159.974 214.492
-0.545576 -120.851 -252.531
-3.07997 111.381 -251.431
159.625 -0.410743 -190.072
172.816 6.02605 177.359
-147.933 -3.02229 -188.235
-169.279 34.1548 183.817
-154.534 125.52 138.394
-132.688 81.9582 228.397
-72.6276 219.83 149.816
78.4912 219.673 150.439
0.959721 210.316 81.1038
78.4437 124.602 -180.423
-61.4304 125.873 -179.93
-120.41 70.4781 -248.731
-124.807 79.3328 -128.473
-141.644 -9.82404 28.8266
133.762 89.3343 226.961
165.602 129.582 138.361
-113.221 -66.5644 233.941
0.479182 -24.1665 277.868
-126.364 -85.6249 -130.236
-129.255 -94.5502 97.688
-1.70899 1.74223 -299.746
-125.99 -79.3862 -249.239
136.491 86.024 -140.419
134.295 78.255 -252.249
144.651 -96.8427 96.6993
125.392 -65.817 240.075
61.2155 -170.12 131.501
-53.004 -166.702 131.221
4.339 -233.81 -8.44542
-41.8269 -172.181 -149.037
59.3168 -176.551 -124.985
134.759 -78.6737 -251.841
122.089 -83.2605 -119.813
155.803 -4.59829 29.7849
-124.299 158.677 109.156
-128.001 173.824 143.124
-84.2538 206.646 124.332
-172.533 49.1112 197.638
-161.558 109.822 171.74
-170.466 69.525 171.871
-40.616 199.202 195.579
-107.069 161.623 193.305
-79.919 121.157 229.509
-34.8105 229.839 125.301
-47.8956 204.198 86.178
43.1366 198.503 195.493
-0.133993 233.024 155.795
54.644 202.744 83.0292
36.5163 229.074 124.533
93.5613 207.144 122.099
-12.6543 140.273 -34.4217
-65.0442 94.4835 -58.8657
59.4313 100.013 -70.585
13.0592 142.226 -31.8933
-47.9486 123.402 -216.866
-2.50952 129.296 -168.992
56.5012 122.624 -217.535
-106.144 101.021 -159.586
-128.932 136.722 -13.0826
-70.3746 99.4947 -262.192
-91.3005 112.866 -215.723
-147.462 42.6166 -153.659
-128.882 76.5256 -198.435
-145.896 31.2074 -220.533
-131.821 111.131 69.7333
-150.946 -3.32135 -117.472
-150.21 55.0141 -75.7474
-156.206 71.7386 102.508
-163.464 21.5352 124.614
138.832 176.646 141.659
135.639 162.02 107.144
85.4988 123.009 228.789
116.118 163.58 196.689
172.998 88.2013 148.771
169.28 121.713 172.317
168.482 43.1567 201.732
-82.1273 32.8074 255.903
-0.129556 65.2208 249.456
-153.793 -22.1485 202.785
-132.876 2.76049 241.741
3.06987 -76.8214 283.949
-69.8022 -46.8624 272.233
-58.9174 -100.003 250.443
-143.76 -38.6102 80.2925
-153.054 -30.4624 154.667
-146.502 -51.9755 -168.463
-133.691 -29.1642 -78.8483
-107.053 -144.846 44.5882
-124.381 -111.948 6.10494
-102.776 -146.266 -37.0067
-132.539 -1.80411 -263.998
-146.778 -41.3141 -220.914
-4.43116 67.8628 -290.594
-76.387 43.068 -294.711
-75.0013 -108.378 -262.861
-78.8256 -42.9758 -291.05
-1.56147 -72.1876 -287.123
106.781 117.659 -219.159
83.2613 101.374 -259.977
133.718 130.346 -10.3785
118.972 107.09 -168.905
159.302 45.8506 -220.597
146.57 83.0768 -204.244
157.11 51.5746 -169.737
119.753 -152.428 37.8247
109.869 -142.031 116.482
80.5749 -185.624 59.3398
162.907 -27.2324 209.771
142.48 -74.248 185.646
164.212 -35.3349 153.691
30.9336 -142.905 202.667
92.5612 -117.214 203.412
62.8002 -99.2901 252.01
27.3626 -208.059 46.3644
42.4898 -221.37 -10.5544
-26.9751 -139.949 203.19
3.63186 -179.593 140.206
-29.5875 -218.637 -8.48798
-18.8063 -205.103 46.3467
-70.3688 -180.483 61.3014
29.147 -222.55 -65.4343
71.9887 -199.815 -62.7807
-58.6672 -192.029 -64.4992
-17.2082 -219.888 -65.6904
47.4067 -134.653 -221.448
2.19289 -199.339 -116.003
-56.605 -136.523 -218.065
91.8205 -133.445 -141.688
115.036 -157.29 -34.0119
77.1265 -105.009 -261.144
106.274 -121.021 -218.083
156.95 -47.3362 -181.519
146.766 -81.0871 -213.839
159.306 -47.1326 -220.678
136.813 -122.394 3.87915
161.744 0.717621 -124.322
150.637 -31.9197 -67.1475
161.119 -49.462 74.9812
174.307 13.7274 114.666
78.0241 -45.9004 273.96
137.94 -7.21638 248.731
87.1865 28.0759 258.059
-100.471 -135.43 117.724
-85.3988 -114.652 202.834
-131.697 -72.8696 181.795
-97.6742 -123.292 -220.635
-103.878 -111.059 -152.559
-135.78 -84.0789 -202.861
138.746 0.00697299 -260.017
81.6925 -46.8109 -288.427
81.2 46.965 -288.405
167.746 73.4402 99.2891
162.617 60.1787 -76.4817
141.755 117.098 67.052
-105.644 170.634 93.2005
-107.084 184.548 119.23
-86.7006 194.232 102.772
-145.992 147.719 142.08
-128.391 168.017 137.168
-142.736 142.687 129.962
-80.2753 214.49 136.101
-106.143 193.396 137.228
-103.305 199.961 145.117
-173.393 40.9158 186.695
-175.635 59.2015 180.733
-173.867 53.325 180.09
-150.373 96.5139 202.252
-170.434 75.7845 188.829
-155.016 64.2527 215.974
-161.707 103.086 150.109
-167.165 87.7557 166.78
-159.673 122.184 150.393
-21.2901 181.894 209.37
-59.6263 165.65 210.979
-41.3572 142.734 220.674
-90.0742 196.319 171.62
-75.53 183.773 194.771
-57.3331 212.45 174.556
-107.794 101.509 232.867
-94.5284 143.155 214.946
-122.299 122.187 213.487
-149.177 148.085 153.374
-138.732 137.026 184.405
-123.342 174.745 162.268
-65.3892 209.286 105.112
-69.7918 193.497 85.6375
-52.0959 229.098 135.122
-58.3047 221.887 126.232
-25.0154 209.205 84.3319
-41.3033 219.504 107.277
-18.1683 222.767 106.224
22.3092 181.737 209.414
-0.031467 202.187 196.043
40.6623 230.526 154.995
21.9132 219.868 177.381
61.5634 211.545 174.643
-21.4562 219.905 177.385
-39.1902 231.163 154.683
78.3987 192.63 82.0613
74.1615 208.768 103.679
96.4661 195.097 101.694
18.2503 222.983 105.015
45.5934 218.379 105.882
27.4193 208.823 81.5433
88.3442 215.183 134.194
65.7594 220.772 124.193
56.344 227.918 134.373
-20.862 236.496 136.551
20.5674 236.08 136.625
-0.551549 231.378 126.613
-55.6532 181.73 61.4186
-78.9237 166.947 59.1299
-9.01956 189.937 51.4693
-29.3156 188.834 57.7245
-61.5385 122.863 -167.205
-18.3152 140.598 -52.149
-40.0265 128.069 -147.431
80.597 170.003 53.7302
66.6651 178.258 55.1226
52.1514 129.964 -143.156
31.9203 129.895 -49.1045
78.3608 124.764 -159.9
34.6687 189.129 54.6048
13.6805 189.974 49.865
-27.4391 120.804 -233.829
-1.08526 122.897 -217.962
27.5817 120.996 -232.386
-42.5504 129.118 -172.409
-28.917 125.181 -196.884
-59.2502 124.952 -197.426
73.2837 122.89 -202.974
28.9416 123.732 -199.558
50.0114 127.019 -172.944
6.18267 142.365 -29.1302
21.0206 131.823 -125.561
-19.9176 128.856 -128.732
-129.279 133.893 -31.6308
-105.815 145.448 53.0981
-84.0503 116.097 -179.691
-102.268 102.268 -150.827
-120.504 115.48 -91.5465
-118.582 111.241 -107.794
-114.591 102.365 -132.645
-40.7829 106.119 -258.076
-60.1559 119.064 -237.87
-107.603 96.6679 -233.604
-84.8949 111.057 -238.446
-96.0216 87.219 -259.144
-70.8174 121.968 -217.251
-76.7939 121.193 -198.856
-148.584 25.1252 -172.797
-145.013 39.7162 -195.706
-147.072 14.2107 -208.332
-128.072 77.2037 -165.669
-138.275 59.0625 -181.945
-142.419 54.7266 -139.255
-137.783 50.9851 -234.126
-138.401 56.9449 -210.985
-128.461 74.9404 -222.063
-98.1189 110.12 -191.877
-113.422 96.5989 -207.911
-114.712 95.0948 -179.689
-124.24 136.924 60.5062
-97.6181 105.177 -40.422
-127.81 137.194 30.228
-129.465 137.09 90.7657
-146.671 120.84 113.77
-151.43 -2.37227 -145.592
-151.778 27.0684 -131.456
-134.307 48.3997 -37.5727
-146.266 33.2635 -112.849
-157.707 -11.7981 -80.8741
-148.725 46.7822 -112.442
-149.213 50.4605 -97.5315
-168.26 52.8882 163.939
-166.26 34.4723 165.561
-157.276 102.211 125.965
-163.993 74.9351 143.855
-157.556 12.5249 91.095
-162.538 44.5204 117.472
-152.979 39.1932 78.5987
-150.207 72.6545 1.92038
-148.974 78.2779 33.8375
-147.422 87.8789 83.2882
117.527 186.57 116.951
116.651 173.074 93.3813
111.957 201.316 145.11
115.867 195.259 133.202
152.916 147.315 125.115
138.974 170.842 131.428
156.9 151.542 140.161
43.9242 142.907 220.484
65.2539 165.23 211.204
128.491 129.213 214.994
102.183 145.514 216.399
111.518 107.598 232.869
82.9694 183.145 196.321
97.8492 195.828 173.848
172.394 41.7966 165.448
171.177 67.6002 174.968
172.094 20.2691 188.203
170.749 128.568 149.676
172.975 106.714 159.382
171.434 112.564 143.294
154.84 67.0654 215.319
169.095 89.2745 187.48
154.542 108.019 201.854
132.57 175.659 166.111
147.755 143.31 187.7
159.579 151.685 156.429
-49.1394 97.0938 238.771
-0.0269498 116.363 232.083
-112.105 64.5989 246.628
-87.2618 79.2814 244.004
-0.289126 15.4709 267.581
-47.1346 44.7349 253.898
-42.0597 1.80902 269.875
-162.744 4.34983 187.573
-162.964 14.3984 200.047
-124.626 -33.4389 240.682
-146.636 -12.2789 224.304
-136.695 -43.8945 218.355
-150.288 29.4721 220.553
-136.569 45.4819 237.426
2.98285 -101.537 269.926
-24.2344 -89.5387 269.184
-20.9003 -111.129 252.708
-32.8696 -37.5086 276.773
-25.9424 -63.923 277.979
2.15416 -55.4644 286.842
-87.6398 -85.5091 245.16
-65.4264 -75.3403 265.295
-94.0253 -58.302 257.011
-109.575 18.2045 254.475
-102.36 -23.1845 261.035
-76.3734 -10.8899 271.95
-161.798 -4.12417 137.425
-161.691 -0.80041 170.347
-144.718 -12.4129 61.4605
-158.043 -7.81144 102.769
-141.854 -59.4758 130.863
-152.686 -32.9098 115.715
-138.504 -69.972 89.0747
-148.395 -35.3169 -176.405
-151.964 -26.7291 -137.627
-128.673 -71.7846 -111.208
-147.499 -39.2714 -137.572
-139.784 -66.2905 -159.364
-150.637 -13.9723 -106.844
-149.114 -17.0377 -33.5162
-93.9119 -161.65 21.6748
-106.861 -146.128 4.12105
-89.6452 -165.97 -18.5822
-126.314 -107.034 53.4372
-117.92 -127.731 27.445
-119.341 -123.257 66.995
-113.308 -113.697 -77.9237
-116.846 -128.449 -16.17
-120.982 -102.326 -51.421
-141.389 -47.536 10.2182
-130.532 -84.1495 -25.0919
-131.874 -82.4175 37.3584
-147.444 -3.30238 -225.279
-146.891 -22.787 -209.02
-128.336 35.9085 -258.896
-142.705 15.4426 -241.093
-142.879 -60.218 -234.044
-143.942 -21.303 -240.899
-130.109 -40.4153 -257.767
-4.05665 92.6908 -272.54
-43.2973 83.8171 -280.206
-46.2154 24.6772 -299.973
-44.5785 56.9222 -295.635
-3.05485 39.9687 -299.646
-74.6373 73.3998 -282.388
-100.767 59.0563 -275.444
-43.2152 -115.407 -258.396
-45.8297 -91.6094 -277.903
-0.836002 -101.213 -271.332
-104.74 -64.5968 -274.874
-78.9135 -80.4351 -280.674
-101.156 -95.7735 -259.931
-1.68462 -37.7231 -297.937
-45.6532 -57.7699 -291.155
-46.3563 -21.0425 -299.958
-106.797 19.3795 -282.466
[...]
POINT_DATA 642
SCALARS Mean_Curvature double 1
LOOKUP_TABLE default
0.00630847
0.00555077
0.00654603
0.00898813
0.0307308
-0.00500449
0.0112654
0.0110988
-0.0019812
0.00908033
-0.000569891
-0.0337656
0.0103321
0.0128054
0.0292581
0.0260606
0.00845521
0.0133707
0.0311357
0.0188693
-0.0159004
-0.0111367
0.00958324
0.00522598
0.0134977
0.00457122
0.0135327
0.00505911
0.00103467
0.0204968
-0.0167863
0.0216156
0.00743722
0.01756
0.00902347
0.00899833
0.0601836
-0.0573976
0.0280234
0.0196795
-0.00300577
-0.00165127
0.0104802
0.0539558
0.00814633
0.0354638
0.0222008
-0.0108819
0.0152315
0.00924675
0.00887223
0.0118186
0.00871394
0.0128505
0.0164475
0.00623321
0.00863988
0.00949382
-0.0721259
-0.0219448
-0.021279
0.0233
0.0064227
0.00434369
0.00659052
0.0314531
0.0686939
0.0183569
0.0156822
0.0170795
0.00949065
0.0206905
-0.0183682
0.0022332
0.126154
0.0078217
0.00708598
0.0355458
0.0119057
0.00488846
0.0124399
0.00261869
0.026161
0.0204424
0.00151419
0.000941349
0.0230853
0.0164371
0.0312642
0.0167897
0.014834
-0.00145001
0.0036463
0.0166908
-0.01905
0.00730262
0.00648198
0.00598319
0.0206261
0.0131961
0.0118399
0.0190118
0.0188288
0.0103163
0.00665416
0.0295528
0.0138626
-0.115815
0.0146948
0.0222557
0.0153092
0.0100563
0.00883719
0.00838205
0.0114637
0.0241123
0.0074478
0.00172155
0.00432069
0.00735111
0.0100175
0.00186233
0.0193123
0.002963
0.016198
0.0203502
-0.00279455
0.012936
0.021715
0.0149734
0.0105481
0.0217071
0.00800611
0.00946857
0.0014357
0.00104809
0.00937261
0.0101557
0.0296682
0.0136468
0.0127027
0.0226851
0.00998554
0.00765671
0.00258499
0.0079893
0.013797
0.0147234
0.0151992
-0.000264129
0.00798142
0.00847903
0.00891865
0.027557
0.00903637
0.0154704
0.00841719
0.0103975
0.00931272
0.00682456
-0.138554
-0.0151162
0.00616525
0.00821014
0.0127546
0.023462
-0.00826985
0.00222682
0.0289843
0.000772637
0.0419783
0.0895143
0.0932349
-0.00497066
0.00869566
0.0289823
0.0160574
-0.00205189
0.0292691
0.0412233
0.0159229
0.00958262
-0.000827912
0.0128121
0.0131329
0.0126248
0.0152214
0.0126906
0.0127255
0.0360142
0.010188
0.017821
0.0145363
0.00886101
0.0408048
0.00431649
0.00823154
0.0118965
0.00899351
0.0155842
0.00982918
0.0243736
0.0140271
0.00977382
0.014088
0.0260049
0.00926647
0.0134665
0.011842
0.0108794
0.00700574
0.00861553
0.0320521
0.00749291
0.0313598
0.0450185
0.0422708
-0.00404506
0.00208161
-0.000661134
0.00711296
0.0057879
0.00513839
0.0420328
0.00242484
0.00102668
0.00323862
0.0165815
0.00258643
0.0146787
0.00457248
0.00961145
0.0185176
0.00337324
0.0200489
0.0138128
-0.00256605
0.00871926
-0.00136894
-0.00388
0.00149083
-0.00667829
0.00142346
-0.00560658
0.0315946
-0.0237541
0.00946992
-0.000476426
0.0513888
0.0794957
0.000692074
0.00954423
0.0256855
0.0219409
0.025605
0.0166577
0.0238668
0.0190498
0.00487707
0.0107724
0.00165466
0.003602
0.00551568
0.00752376
0.0227293
0.0104428
0.0185451
0.0179098
0.0154565
0.0172677
-0.0362274
-0.0329128
0.0474417
0.0139065
0.00474126
0.00293551
0.019244
-0.0202147
-0.020228
0.032154
0.0563264
-0.0106043
0.00111694
-0.004336
0.00993487
0.00157613
0.0122761
0.0068113
-0.00231151
0.0419572
-0.0143141
0.0101227
0.0093282
0.00751239
0.0303348
0.0146379
0.00713632
0.00390962
0.0236837
-0.00123517
0.00739977
0.0163105
0.0137839
0.0190692
0.0132512
0.0122609
0.00015531
0.00346966
0.00889967
0.0439497
0.0161494
0.0180612
0.0112081
0.0227238
0.012896
0.0150956
0.0151164
0.0298658
0.0018931
0.00169025
0.0201145
0.00492147
0.0042404
-0.00163344
0.00423332
0.0181318
0.0189083
0.0128596
0.019068
0.0132699
0.00220757
0.0187768
0.0280284
0.0108789
0.00989228
0.00436484
0.00999402
0.0287723
0.0172142
0.0175208
0.0153887
0.0123847
0.0154478
0.018782
0.00948448
0.00445531
0.00609193
0.0117854
0.00237705
0.00870472
0.00635399
0.00292353
0.0261377
-0.00226358
0.00361116
0.00525918
-0.00150357
0.0123636
0.0057558
0.00836825
0.00734943
0.00696431
0.00799877
0.0111979
0.00106441
0.0129136
0.00113818
0.00127572
0.00483525
-0.00168388
0.0171849
-0.00293097
0.0150942
0.0163463
0.0293663
0.0194202
0.00886143
0.00856247
0.0117849
0.00578161
0.015968
0.0106978
0.0188649
0.0154035
0.00983039
0.0113295
0.00882611
0.0159487
0.0190837
0.0170384
0.00788692
0.00579071
0.00867781
0.0111395
0.0172903
0.0163236
0.0213392
0.00793763
0.0125482
0.0231918
0.0208627
0.0314666
0.0241891
-0.011516
-0.0260954
0.00649993
0.0237246
0.107578
-0.00148212
0.00977208
-0.00120827
0.0158748
0.00575858
0.026859
0.0274738
0.0309433
0.00343993
0.0124061
0.00507887
0.00965516
0.0116192
0.0246683
0.00914864
0.0112123
0.00651124
0.00654056
0.00653979
0.00701808
0.0107548
0.00870168
0.00937384
0.0203908
0.00428055
0.00830095
0.010772
0.00734574
0.0225603
0.00957841
0.00786724
0.00405609
0.0100803
0.00723035
0.0121706
0.00680041
0.00704573
0.00533747
0.0160031
0.0138432
0.0123873
0.00415449
0.00827361
0.00555472
0.000289829
0.0133008
0.00673655
0.0100877
0.0276255
0.00913135
0.0203425
0.00504573
0.0152674
0.00851833
0.00572813
0.00524372
0.0100954
0.0074689
0.0108733
-0.00017915
0.00308483
0.0190242
0.0122139
0.0282636
0.00806625
0.0139039
0.00918822
0.00576903
0.00613792
0.0188505
0.00760825
0.00760799
0.0163236
0.004761
0.0131078
0.019718
0.0160679
0.00432775
0.00349417
0.0223832
0.0132175
0.00412732
0.00295207
0.0216797
0.0199867
-0.00272888
0.0181173
0.0136284
-0.0063898
-0.0260511
-0.0250703
-0.0201998
0.0268096
0.0133797
0.0233986
0.0197764
0.00687214
0.0095285
0.00947278
0.00882313
0.00621878
0.00764174
-0.00950772
0.0119687
0.0243036
0.028151
0.020385
0.0172542
0.012537
0.0350362
0.00984031
0.0252709
-0.00115725
0.00248567
0.00786575
0.00423503
0.0349176
0.0388096
0.0406682
0.0141263
0.0329236
0.00577147
0.010259
0.00768095
0.0157718
0.0137413
0.00317636
0.00347501
0.0283555
-0.000872932
0.00483422
-0.0283802
0.0142019
-0.00814921
0.0100371
0.00384752
0.00834866
0.00886763
0.000358715
-0.00353155
0.0114742
0.000887113
0.00207747
-0.00400251
0.0134083
0.0162586
0.0154098
0.0165696
1.17977e-05
0.0298291
0.00533129
0.0122355
0.0179069
0.0209921
0.00186105
0.0029908
-0.00198663
0.0033945
0.0189359
0.0244699
0.0168994
0.0179394
0.0138759
0.00753344
0.00715343
0.00808947
0.00751623
0.0132091
0.0129684
0.014669
0.00587991
0.00515135
0.00681039
0.00444224
0.00291731
0.0137171
0.0144526
0.00580542
0.0115042
0.0056099
0.0231167
-0.0358891
0.059439
0.02588
0.0264627
0.00589628
0.00548933
0.00649965
0.012025
-0.0247007
0.0140331
0.0247613
0.0203499
0.015039
0.00787278
0.00328841
0.00853999
0.021599
0.015149
0.0166012
0.0172261
0.0174082
0.0171557
0.0137149
0.010323
0.003548
0.0133933
0.0238836
0.00671375
0.0240845
0.0185049
0.00890552
0.0109527
0.0111148
0.00624531
0.0112049
0.00356382
-0.00175421
0.00999446
0.0187141
0.00213842
0.0171702
0.00667595
0.00677651
-0.00460532
-0.0152004
-0.00542037
0.00576492
0.0193964
-0.0573063
-0.0347904
0.049046
0.0549636
-0.00647954
SCALARS CoVolArea double 1
LOOKUP_TABLE default
622.177
678.381
726.3
617.024
489.917
1286.89
885.699
957.623
948.654
460.242
850.748
303.584
432.334
1063.68
759.95
870.412
872.878
583.525
379.685
915.133
1908.22
2893.48
1245.11
426.051
931.069
1523.53
1161.84
1205.14
1845.6
961.036
1806.26
850.836
1201.01
860.768
1231.38
1241.2
263.39
1502.24
1196.09
862.652
2659.9
3275.81
909.21
425.606
551.174
650.003
913.898
349.891
1053.94
1304.5
1348.34
464.147
701.316
1151.37
926.816
849.406
546.103
535.02
1484.21
6873.2
4946.56
1745.16
661.782
1672.78
737.7
430.085
585.724
879.372
565.231
695.662
645.053
592.6
2671.03
737.242
786.612
1359.72
963.091
576.83
789.51
1399.62
1211.13
803.457
817.431
1013.76
1521.4
2651.76
682.229
1103.77
725.329
1135.48
971.877
1678.84
978.322
545.233
2595.5
826.935
1243.77
1341.47
1093.56
593.495
1372.35
1174.14
919.398
1324.17
1607.43
481.553
982.277
1022.41
575.726
598.349
462.761
644.513
916.655
1316.01
1043.18
582.041
1064.49
1006.34
1131.65
1129.63
1099.04
1194.34
701.253
1128.77
1090.33
665.455
1179.41
987.86
695.222
737.508
947.751
646.714
1624.24
1810.81
1189.78
1892.45
886.518
1056.8
577.399
420.241
286.104
556.837
1066.01
873.395
2114.75
1411.95
1017.74
1125.04
1051.76
1594.28
1275.68
1011.85
871.027
509.513
1652.16
442.216
1436.5
1393.42
1367.33
1259.74
821.096
2578.83
903.727
714.255
603.462
323.183
522.5
645.37
392.831
411.61
646.642
256.443
241.485
200.373
1181.06
724.8
940.578
492.023
394.448
414.687
1124.78
1229.02
1650.08
1126.73
1134.05
1002.99
1041.93
1158.99
1238.13
784.201
1376.38
1122.15
595.631
644.921
448.897
450.571
730.249
567.01
727.353
1185.82
1070.88
906.016
1092.53
1101.49
1043.58
826.791
646.082
654.097
601.019
788.662
689.332
816.032
461.621
506.316
537.583
583.887
628.406
627.813
2984.29
2996.23
1417.7
1512.31
2574.23
3726.8
832.658
2929.84
2265.35
1561.96
3211.11
1799.23
1874.5
1231.1
885.79
944.872
1001.01
796.821
1039.83
476.516
646.018
1229.56
1283.24
1821.68
2089.67
1888.59
3573.33
1298.29
523.188
2556.71
1460.6
319.587
658.542
987.919
706.918
757.37
680.364
872.688
469.401
417.959
905.221
671.51
673.112
933.201
724.587
805.132
724.351
569.651
667.036
566.132
666.084
708.772
842.749
4542.44
1766.94
930.337
928.752
1060.5
744.895
4201.49
1405.19
2344.3
389.054
2163.61
709.808
756.981
865.866
950.466
1122.25
1124.38
2846.83
2608.7
1731.4
1186.51
642.246
819.059
784.645
453.875
616.565
518.296
403.036
1759.83
1306.89
1116.93
1098.89
1042.77
1177.27
1191.92
985.528
852.001
671.726
393.717
559.203
360.027
1218.72
936.443
1135.28
1163.23
1208.67
800.654
2152.45
2340.5
1156.09
1457.12
2167.3
2104.23
1672.63
477.606
745.896
1019.79
927.863
814.031
998.894
1082.87
683.523
956.735
845.724
1235.98
963.016
885.345
843.599
1031.19
998.239
1315.19
1182.17
1400.39
1074.8
780.86
1492.85
993.57
1193.63
1147.56
1397.42
904.168
628.174
2059.61
1128.76
821.139
800.215
1481.96
899.527
911.068
954.761
1126.7
855.074
926.985
1578.33
1107.71
1474.56
2739.35
2611.02
1923.67
605.676
708.241
1078.99
788.964
739.232
803.999
1142.05
1324.81
1097.43
1512.01
1149.01
1490.09
966.38
1104.21
1068.17
1287.98
1334.38
1190.83
1091
905.33
1710.85
1447.94
1636.75
1296.93
1420.84
1340.35
811.792
1261.71
413.835
433.073
807.028
637.776
735.434
1742.37
4420.97
579.967
996.603
806.457
2420.67
562.07
750.427
484.992
977.035
619.835
406.855
683.874
842.985
466.156
735.476
530.817
612.816
573.934
835.871
971.235
929.443
1338.37
1069.22
1067.77
1021.3
1010.3
1245.94
447.002
651.371
612.05
855.537
706.054
700.01
1110.76
989.937
1301.22
808.19
1105.42
824.372
1301.54
1163.26
1228.39
948.422
990.159
935.668
1472.94
1220.52
1453.8
1013.04
779.624
1293.73
1162.16
416.44
825.75
542.441
833.664
971.07
1238.06
1095.23
1249.05
1041.84
1225.74
827.12
953.858
953.814
536.549
759.38
372.559
1009.3
1094.78
1237.69
1369.52
1357.15
1123.99
754.083
738.482
562.011
679.4
958.731
671.297
825.795
872.702
843.782
825.777
746.401
1610.94
667.067
518.58
878.53
2089.99
937.704
1638.39
3154.21
1886.05
657.853
2612.82
1013.09
712.137
789.26
796.352
873.028
788.239
1300.37
1359.36
1778.5
1715.03
2440.54
1083.07
859.681
747.492
810.702
919.564
896.453
848.702
817.79
356.042
704.32
1302.43
295.452
1481.45
662.704
282.679
520.158
868.317
465.358
1117.17
774.112
1809.5
727.871
825.01
1191.12
1150.45
590.472
1303.94
577.542
2941.08
1179.37
2843.32
1007.63
938.38
1177.07
1096.96
1242.54
1142.42
1604.73
2503.56
2285.72
1704.84
928.37
981.279
1112.56
949.856
1321.78
731.384
1389.63
1092.43
774.585
860.459
2271.02
1859.54
2291.34
1561.62
1332.63
1010.75
1287.09
1341.34
874.397
1276.8
996.197
961.489
1236.03
991.407
869.741
833.733
1045.23
1274.38
651.208
1180.5
834.119
664.704
840.457
1341.57
1044.03
1269.46
751.053
1122.58
441.684
692.714
733.715
1198.06
1268.11
1702.38
1729.05
2594.01
551.799
604.237
451.893
434.623
705.818
1144.98
758.03
523.552
821.656
1139.46
1027.74
1019.65
1126.33
1378.83
1731.7
1522.17
1123.26
1065.03
1419.35
1031.7
1053.5
1391.69
1677.72
1600.99
1775.2
1605.2
1133.19
2609.56
966.57
712.253
740.082
854.935
2655.77
534.873
1767.59
4472.87
739.864
954.99
814.451
1075.12
4389.86
1760.75
3067.41
1314.68
SCALARS SignedDistance double 1
LOOKUP_TABLE default
63.3702
62.7168
57.0588
54.2222
46.0698
47.4242
47.9405
51.7471
57.3379
56.5897
59.6138
60.7289
60.8994
40.4632
50.8506
48.8032
63.2135
64.4107
69.771
47.1919
78.212
67.2961
41.4034
58.5649
46.7943
44.3793
76.4781
61.0461
38.9916
44.7904
70.8017
41.9145
60.387
44.9734
50.5966
52.0458
51.1189
79.8461
60.603
42.3916
67.4227
67.9648
61.7836
58.494
55.9618
55.9917
58.6646
61.9148
39.7836
41.6701
44.6767
56.1281
63.5758
40.1856
47.2951
62.6386
55.7673
55.3824
93.2367
92.2119
95.2411
93.0031
63.2338
76.7747
62.4529
70.5874
122.511
44.5068
58.5406
64.5836
59.542
57.4958
68.1885
77.1796
116.556
66.6488
61.2482
55.3603
60.2323
44.7274
40.2577
56.7753
52.7651
53.2823
46.6834
45.2134
56.6812
42.5575
38.8279
40.8139
43.5975
67.1919
59.1996
61.7674
88.2809
59.9001
63.5633
59.5077
45.6823
58.4186
39.2085
36.225
41.0576
38.1698
39.3702
58.7176
45.8784
111.466
64.1993
56.9794
58.5665
60.3186
55.9373
53.9087
51.5613
53.9836
52.682
58.2573
49.3666
49.7006
43.8886
53.2015
51.657
50.9488
51.1415
54.0175
55.4537
54.6349
51.3727
53.4579
55.6234
52.5554
60.4205
50.1438
62.9952
74.202
56.0586
42.6052
64.4906
58.8345
58.7804
56.9885
62.3747
71.7309
87.6065
60.8019
62.7643
41.2472
40.4817
46.4943
55.889
51.5167
58.0445
60.5598
73.2366
58.9623
41.6361
40.8773
40.4736
62.2978
112.49
67.1537
63.1058
58.3797
60.688
59.3213
57.5263
59.681
54.6909
55.7552
55.685
61.8135
63.6259
62.1169
45.2893
55.3963
43.1461
59.8408
62.6759
61.2091
45.3188
45.2101
45.6396
42.1145
40.2636
40.6148
41.8196
42.1472
40.8535
57.7185
44.4402
49.6915
60.0234
63.3722
55.5227
55.2939
63.9602
59.5927
59.6691
45.3587
39.9918
46.9725
40.0351
41.3901
40.0709
47.0614
62.9465
59.24
59.7794
58.6534
58.9251
62.7452
53.8787
55.135
55.2435
56.642
56.0852
55.481
66.8162
66.6864
67.9229
67.7395
72.3652
106.203
86.7361
66.5443
66.12
83.8953
95.5992
71.4331
65.1882
68.5337
60.4767
62.7271
60.6794
76.0216
65.0168
64.7899
62.7268
63.5757
68.8272
91.1956
95.8729
95.1205
132.851
72.1581
66.1727
73.0069
123.039
108.845
87.0482
48.8931
58.6091
54.3337
53.8793
42.9928
61.7014
62.8083
60.2667
58.3154
58.7355
64.3388
59.8787
70.9163
55.0327
57.9983
56.8653
63.5273
58.6946
64.7177
76.5499
102.19
96.5567
65.8647
63.6648
65.1934
73.1074
99.205
80.2656
105.656
86.8782
98.1936
62.4734
62.5153
61.9818
61.4759
67.519
62.5745
68.6387
102.721
88.5778
70.1794
57.1665
61.6879
52.7035
54.748
57.8623
55.6775
56.8878
45.5449
45.3548
39.3334
43.0135
42.4513
40.0906
40.8953
56.1605
58.2138
55.8419
59.3674
56.9913
59.226
43.5374
54.0453
43.2168
45.1144
40.7569
53.9157
45.77
45.2407
42.0567
45.2962
46.5049
47.477
45.876
60.1057
58.2375
44.9277
47.4089
51.0959
47.2434
43.3764
41.6561
41.2236
45.2563
43.7658
43.2217
44.37
44.1546
39.8242
41.9128
42.3212
41.1584
42.8236
59.6784
59.3882
68.3563
65.9555
61.5938
64.0686
64.0035
60.1167
68.7309
79.7711
66.1227
63.7072
83.3607
89.4204
57.1047
58.4663
57.2532
64.3653
60.5386
60.0974
75.6315
60.4166
70.2961
67.2095
63.9682
64.0231
59.1009
58.5551
44.0266
54.1276
54.2816
55.3929
45.2101
43.8873
41.8261
39.2181
38.3145
38.876
38.0702
39.2108
45.2744
39.3343
41.0629
36.7613
36.5685
40.7255
38.3942
39.9618
39.1945
39.0655
38.0644
39.2212
58.9707
48.624
61.4551
62.195
40.2847
54.6457
51.6342
68.2305
104.659
75.3086
92.1542
105.635
68.4929
61.2234
56.8418
57.9257
58.2954
54.4447
57.3089
50.7925
61.9118
58.5922
60.0689
60.2994
60.1958
58.4855
54.1118
53.4768
53.6286
57.7379
55.4809
58.3557
51.8254
53.1381
51.0142
55.4601
56.0511
56.0309
51.651
53.8826
49.1347
55.7562
55.3201
55.0288
49.1441
47.6622
44.7521
50.8411
49.4651
51.2072
42.8456
47.7107
48.9289
54.4044
50.874
52.6934
54.197
53.3803
53.3981
53.6427
51.0155
52.261
51.3372
49.6286
49.2346
50.7048
51.7419
51.7073
50.8335
50.8496
56.5543
55.7358
56.0172
51.9858
53.2821
51.5965
53.6951
54.6545
53.2942
53.2328
53.2764
53.6995
51.7012
53.5011
51.3418
50.533
50.3942
50.6147
48.2799
56.5111
54.999
50.5815
53.5922
54.1595
52.4667
51.8232
56.0549
58.807
56.3441
51.7193
67.2722
73.3311
82.2283
77.9378
59.0031
52.1476
47.898
47.9593
54.8933
54.5277
72.3128
53.7387
59.5842
56.0187
68.6258
45.2079
53.6192
53.6187
54.9647
40.4773
64.3462
74.352
57.9108
58.4017
56.8222
58.5558
58.3195
59.2928
52.3068
59.2064
58.254
68.0519
60.9733
60.9354
55.777
60.4381
57.7331
58.3564
62.0273
61.875
65.4438
71.8869
75.4277
91.2843
65.2485
72.9293
60.9904
57.2488
60.64
61.5547
63.7998
62.9332
64.4983
63.3529
64.5481
63.3246
40.7374
40.0858
40.2219
42.7281
43.4314
53.0739
41.942
44.9504
46.0743
40.9435
45.6525
45.2869
47.3718
45.3896
42.229
38.8412
41.9448
44.2511
56.8962
53.491
55.046
56.9747
58.8074
48.9736
49.2786
48.9415
51.388
52.5569
58.3279
58.8113
59.2331
57.6408
52.8375
54.0784
54.3139
56.1947
55.2397
67.0206
64.2543
52.1163
53.395
57.5066
73.0405
71.7328
60.4502
72.5517
59.5733
57.0213
57.5821
60.4679
62.1042
60.914
61.3633
59.3256
56.5365
41.8556
51.273
51.2182
41.7981
39.237
38.5592
40.0803
38.5406
35.6444
41.2917
35.6436
39.7736
39.2269
38.9442
37.204
38.5871
37.2218
57.686
63.1966
63.0344
59.9996
59.386
67.9046
90.1273
77.3244
79.3008
97.2474
72.479
61.6069
64.7588
89.6747
119.279
89.8055
103.007
64.7547
