# vtk DataFile Version 4.2
vtk output
ASCII
DATASET POLYDATA
POINTS 642 double
-0.282906 0.500755 0.0361489
0.298687 0.506094 0.0336838
-0.266445 -0.47552 -0.0176902
0.282783 -0.483721 -0.016504
0.00674807 -0.300865 0.59239
0.00396612 0.376777 0.609118
0.00217941 -0.316289 -0.650179
0.00640807 0.32059 -0.646589
0.48467 0.00815586 -0.409779
0.481487 0.0244982 0.373035
-0.463572 0.00382819 -0.401703
-0.463552 0.0286964 0.365978
-0.441337 0.312442 0.234299
-0.314562 0.217211 0.570096
-0.182331 0.529806 0.364434
0.193262 0.532386 0.366197
0.00473435 0.593438 0.0428902
0.187582 0.461803 -0.367478
-0.171243 0.457749 -0.362999
-0.298461 0.185579 -0.613826
-0.4311 0.283325 -0.228109
-0.523262 0.0183296 0.00030373
0.327971 0.220635 0.580872
0.458901 0.320051 0.235087
-0.284139 -0.163445 0.554905
0.00541634 0.00134613 0.717039
-0.424054 -0.270351 -0.247965
-0.423146 -0.261482 0.209924
0.00344766 -0.000133338 -0.82745
-0.298252 -0.185572 -0.618475
0.451556 0.290449 -0.237043
0.318919 0.192811 -0.623195
0.441556 -0.269848 0.212717
0.301407 -0.169246 0.56794
0.172438 -0.449233 0.328706
-0.158837 -0.444767 0.326486
0.00621 -0.568995 -0.0192146
-0.166327 -0.461296 -0.370314
0.177001 -0.467362 -0.368668
0.311728 -0.183137 -0.622678
0.443177 -0.276198 -0.247545
0.54678 0.0178791 -0.00336871
-0.370671 0.429843 0.135389
-0.334793 0.43717 0.310408
-0.244114 0.529853 0.200053
-0.409816 0.11448 0.470859
-0.39965 0.279985 0.412552
-0.472554 0.167321 0.315176
-0.0947296 0.480212 0.515308
-0.264541 0.401983 0.490416
-0.160726 0.31388 0.617304
-0.0900884 0.588171 0.214658
-0.156229 0.565332 0.041574
0.102926 0.480586 0.516538
0.00371232 0.564998 0.385743
0.168507 0.569145 0.040045
0.0993454 0.590075 0.214778
0.257951 0.534641 0.200374
-0.0858193 0.543405 -0.161976
-0.23696 0.491674 -0.154357
0.252985 0.496215 -0.159288
0.0980627 0.545805 -0.163891
-0.086073 0.400399 -0.53017
0.00644253 0.483831 -0.382477
0.100605 0.402455 -0.53248
-0.320423 0.388607 -0.309891
-0.365155 0.41082 -0.0878346
-0.15045 0.270392 -0.660627
-0.245089 0.342203 -0.513445
-0.467314 0.14145 -0.335789
-0.38487 0.243651 -0.440072
-0.404708 0.0885934 -0.515827
-0.451065 0.313446 0.0217813
-0.504262 0.00931244 -0.229257
-0.499851 0.15734 -0.121702
-0.50353 0.170984 0.132648
-0.506908 0.0272316 0.213135
0.350342 0.443961 0.313684
0.387658 0.436592 0.134203
0.170213 0.315479 0.620679
0.278264 0.408286 0.498238
0.490768 0.171105 0.318599
0.414466 0.286882 0.418514
0.425914 0.113579 0.481189
-0.171605 0.117094 0.6766
0.00435736 0.202414 0.672082
-0.397522 -0.0620295 0.467827
-0.317104 0.0175826 0.588824
0.00651466 -0.17785 0.685087
-0.161291 -0.0963767 0.677186
-0.135626 -0.247687 0.596983
-0.497084 -0.125604 0.11601
-0.460168 -0.110343 0.307516
-0.461683 -0.129976 -0.344625
-0.4973 -0.134 -0.137399
-0.352781 -0.391511 0.0907286
-0.440597 -0.284615 -0.0136104
-0.354077 -0.396297 -0.124922
-0.319237 -0.000817936 -0.65281
-0.402203 -0.0861597 -0.518219
0.0052689 0.188377 -0.759557
-0.173698 0.105569 -0.760381
-0.152656 -0.269262 -0.665923
-0.176217 -0.108898 -0.765773
0.0026073 -0.19132 -0.767148
0.264005 0.347341 -0.519656
0.16574 0.273019 -0.663842
0.3834 0.416546 -0.0938755
0.339927 0.394551 -0.317505
0.425225 0.0953621 -0.524575
0.405431 0.250855 -0.448696
0.488772 0.148456 -0.344854
0.370446 -0.400867 0.0919405
0.323105 -0.38001 0.283578
0.239313 -0.486319 0.149468
0.41414 -0.0676452 0.478754
0.387038 -0.222829 0.407387
0.478205 -0.116768 0.312975
0.0893464 -0.378655 0.483317
0.242892 -0.322364 0.471701
0.152171 -0.256132 0.610574
0.0917575 -0.534524 0.156004
0.157165 -0.545564 -0.0183486
-0.0763389 -0.376044 0.480382
0.00622789 -0.470891 0.343776
-0.142765 -0.540307 -0.0191839
-0.0785902 -0.531993 0.15544
-0.224025 -0.47948 0.148288
0.0924843 -0.550146 -0.193301
0.240669 -0.496715 -0.184058
-0.226012 -0.489139 -0.186409
-0.0808074 -0.547126 -0.1942
0.0927367 -0.394794 -0.532689
0.00361753 -0.496022 -0.385236
-0.087239 -0.393945 -0.532514
0.32761 -0.389302 -0.32325
0.371379 -0.405507 -0.12245
0.159776 -0.267013 -0.666091
0.251593 -0.33292 -0.519919
0.481017 -0.129374 -0.349965
0.39307 -0.2343 -0.452347
0.420948 -0.083608 -0.525726
0.459978 -0.293197 -0.0124064
0.526702 0.0120116 -0.235453
0.519769 -0.137477 -0.138538
0.518487 -0.132249 0.116423
0.52745 0.0245009 0.214169
0.175532 -0.0991907 0.685491
0.33495 0.0132909 0.606189
0.180677 0.114217 0.67447
-0.307111 -0.372397 0.280283
-0.227856 -0.316705 0.464716
-0.370785 -0.216616 0.399916
-0.24104 -0.333772 -0.519058
-0.312143 -0.382086 -0.325142
-0.377829 -0.235294 -0.448609
0.337604 0.00332185 -0.661932
0.186125 -0.107365 -0.767134
0.188579 0.110244 -0.768908
0.525242 0.175787 0.129841
0.521909 0.162777 -0.128687
0.470797 0.320578 0.0171341
-0.325917 0.472326 0.0831748
-0.312239 0.483918 0.172185
-0.266748 0.517725 0.115314
-0.394383 0.377124 0.274397
-0.356776 0.435753 0.226126
-0.409803 0.376392 0.18604
-0.216342 0.534328 0.282265
-0.290754 0.490338 0.258846
-0.263096 0.489394 0.340361
-0.442043 0.0680198 0.416703
-0.44561 0.14536 0.396555
-0.471883 0.0933479 0.345217
-0.361977 0.25146 0.494106
-0.408735 0.198779 0.447845
-0.367974 0.163836 0.521915
-0.462631 0.241259 0.278037
-0.441026 0.225179 0.365029
-0.425822 0.300015 0.325358
-0.0429386 0.43042 0.571746
-0.131945 0.40462 0.57187
-0.0731534 0.351564 0.61813
-0.224853 0.475234 0.430732
-0.184318 0.448854 0.507389
-0.142312 0.514854 0.445595
-0.243096 0.26862 0.602452
-0.219685 0.36359 0.561736
-0.294887 0.313181 0.538018
-0.373357 0.364893 0.365973
-0.340067 0.343319 0.455941
-0.304986 0.425637 0.40217
-0.199854 0.554393 0.125691
-0.226902 0.534959 0.03917
-0.137367 0.566106 0.292093
-0.169926 0.565003 0.211451
-0.0786111 0.58544 0.0428229
-0.122981 0.582026 0.130732
-0.0426651 0.597028 0.131597
0.0508415 0.430868 0.572653
0.0037331 0.489348 0.519916
0.101304 0.556385 0.38093
0.0541521 0.532492 0.454034
0.150397 0.512783 0.444833
-0.0466338 0.532334 0.453639
-0.0929417 0.555487 0.380325
0.24124 0.539686 0.0371301
0.212841 0.558613 0.124932
0.28167 0.522904 0.114204
0.0516675 0.598234 0.13139
0.133666 0.584977 0.130222
0.0889187 0.587723 0.041957
0.228912 0.538387 0.283715
0.181443 0.568387 0.211723
0.147372 0.568392 0.292906
-0.0452882 0.584097 0.301845
0.0533025 0.584974 0.302138
0.00406743 0.597973 0.217715
-0.196644 0.534751 -0.0533475
-0.263398 0.500917 -0.0479491
-0.0411106 0.57545 -0.0542083
-0.12041 0.560813 -0.0547493
-0.205921 0.475381 -0.262491
-0.16381 0.522098 -0.162206
-0.129788 0.50123 -0.26885
0.279228 0.505968 -0.0515673
0.21077 0.539139 -0.0562933
0.144111 0.5043 -0.272117
0.17797 0.525867 -0.165768
0.222295 0.479546 -0.267603
0.132467 0.564074 -0.0567217
0.0517136 0.576768 -0.054967
-0.0378454 0.361025 -0.597011
0.00666871 0.408004 -0.534962
0.0513029 0.361821 -0.597964
-0.0861022 0.47625 -0.37727
-0.0413516 0.446829 -0.460189
-0.130798 0.432659 -0.452434
0.146425 0.435871 -0.455936
0.0549342 0.448103 -0.461467
0.100176 0.47872 -0.379661
0.00568985 0.552241 -0.164524
0.0537684 0.516546 -0.278622
-0.0411804 0.515351 -0.277526
-0.305473 0.454919 -0.125545
-0.323659 0.462724 -0.018918
-0.249307 0.428664 -0.340321
-0.27914 0.441697 -0.238613
-0.401156 0.350516 -0.159821
-0.345836 0.399091 -0.20341
-0.381403 0.339334 -0.271593
-0.0672857 0.300843 -0.659072
-0.121192 0.34082 -0.599351
-0.275223 0.26813 -0.571289
-0.203038 0.308762 -0.59179
-0.228674 0.23166 -0.646066
-0.169255 0.376945 -0.525585
-0.209471 0.405619 -0.443676
-0.469706 0.0682179 -0.374858
-0.440487 0.118422 -0.430681
-0.440713 0.0423905 -0.457244
-0.413611 0.265579 -0.33916
-0.43153 0.195008 -0.389952
-0.45455 0.213561 -0.287161
-0.357575 0.136708 -0.568861
-0.398392 0.169023 -0.485077
-0.346219 0.216533 -0.531616
-0.287251 0.368995 -0.417299
-0.320774 0.296626 -0.482543
-0.357124 0.320752 -0.381427
-0.372219 0.423582 0.0299306
-0.444447 0.300977 -0.104441
-0.41268 0.365265 -0.0350615
-0.415527 0.374141 0.0835893
-0.449538 0.317445 0.135136
-0.48636 0.00609245 -0.326147
-0.491748 0.0770396 -0.283654
-0.517617 0.0882348 -0.0612991
-0.507187 0.0830551 -0.176875
-0.517735 0.0131952 -0.119185
-0.485758 0.151234 -0.234019
-0.470668 0.222537 -0.178384
-0.494709 0.0992977 0.266294
-0.487134 0.0288748 0.299154
-0.477362 0.243835 0.188061
-0.491492 0.173251 0.228827
-0.51905 0.0235589 0.113864
-0.510787 0.0993572 0.173144
-0.518919 0.0948047 0.0694325
-0.481486 0.237287 -0.0492755
-0.506904 0.166939 0.0106127
-0.483664 0.245358 0.0784087
0.327917 0.489846 0.172044
0.342345 0.478271 0.0811967
0.276851 0.494517 0.343528
0.305573 0.496064 0.260527
0.427174 0.38384 0.185837
0.373052 0.442594 0.227208
0.410762 0.384586 0.27664
0.0815254 0.352343 0.619738
0.141187 0.40641 0.574928
0.308379 0.319247 0.547271
0.230955 0.367471 0.567666
0.254384 0.271604 0.609522
0.194984 0.451618 0.51154
0.237014 0.478758 0.43469
0.490339 0.0923175 0.350826
0.462793 0.147072 0.403509
0.459364 0.0649896 0.425427
0.441769 0.30738 0.328652
0.45744 0.231113 0.369798
0.480329 0.247937 0.279838
0.382538 0.165362 0.533092
0.423897 0.202824 0.455685
0.375325 0.256771 0.502426
0.319602 0.432143 0.407817
0.353919 0.350133 0.463008
0.388488 0.372137 0.370645
-0.082656 0.260838 0.655573
0.00411416 0.29908 0.641293
-0.250109 0.172202 0.631329
-0.171513 0.217398 0.652581
0.00482953 0.101461 0.69679
-0.0846597 0.157533 0.67946
-0.0836618 0.0584458 0.704393
-0.437366 -0.0126777 0.415584
-0.407182 0.0253252 0.476216
-0.304642 -0.0773003 0.578716
-0.360734 -0.0252494 0.531937
-0.346612 -0.112855 0.514921
-0.368146 0.0698403 0.533793
-0.320239 0.11732 0.584213
0.00671752 -0.248889 0.641282
-0.0699476 -0.216772 0.651825
-0.0585936 -0.278793 0.598833
-0.0804576 -0.0502817 0.707263
-0.0770551 -0.138544 0.690298
0.00607083 -0.0940279 0.710479
-0.21227 -0.209453 0.583152
-0.152653 -0.177925 0.645931
-0.22991 -0.134328 0.623324
-0.253591 0.0658667 0.645142
-0.246267 -0.0398389 0.642827
-0.169593 0.00707204 0.686411
-0.489554 -0.0430407 0.261343
-0.465636 -0.0357548 0.342378
-0.516584 -0.0527375 0.0600947
-0.50699 -0.048444 0.165529
[...]
POINT_DATA 642
SCALARS Mean_Curvature double 1
LOOKUP_TABLE default
2.52105
2.51063
2.57609
2.67168
3.02883
2.42588
2.93029
2.75395
2.95888
2.92806
2.91658
2.86035
2.81203
3.32012
3.74399
3.81077
2.52485
2.76982
2.73365
3.1585
2.23628
2.12846
5.14508
2.73263
3.33318
2.7056
2.23262
2.41769
3.68016
3.49932
2.46647
3.36487
2.44533
3.10785
2.76713
2.77272
3.17601
2.75643
2.83687
3.62537
2.305
2.12252
2.63403
3.25215
2.98384
3.22407
3.2818
2.8951
2.96145
3.55375
2.65237
3.07487
2.52292
2.88024
3.30305
2.50239
2.95191
2.9601
2.10946
2.15559
2.15734
2.14526
2.85886
2.47594
2.79269
2.70278
2.20417
3.03779
3.09568
2.85854
2.92855
2.88836
2.28131
2.17331
2.04689
2.37512
2.5873
3.31773
2.64717
2.46245
5.05894
2.85143
3.19288
2.9852
2.60722
2.37145
3.06859
3.82902
5.72023
5.63333
3.19021
2.19296
2.67918
2.83475
2.23953
2.48356
2.25031
2.45117
3.00831
2.82062
2.4794
4.86836
3.52426
5.1115
3.79481
3.18302
2.89167
2.19353
2.81272
2.7837
2.98953
2.88249
2.58311
2.68399
2.73108
3.03021
2.63976
2.56907
2.87025
2.84208
2.89899
2.73689
2.92411
2.85133
2.86131
2.8089
2.75059
2.70819
2.98359
2.70957
2.61838
3.0397
2.17188
3.13752
2.23062
2.55972
2.53677
3.40984
2.46543
2.6987
2.79153
2.90028
2.20162
1.99999
2.2556
2.21302
2.32086
5.07809
3.90448
2.32562
2.61534
2.81254
2.73783
3.03635
2.48627
2.98255
2.84643
4.14976
4.76485
2.38882
2.01956
2.31359
2.58157
2.81792
2.71972
3.0366
2.91006
2.70181
3.32182
3.10876
3.43634
2.90856
2.89645
2.8534
3.69106
3.34362
4.12387
2.92913
3.16485
3.17462
2.45937
2.61248
2.47771
3.66312
3.18264
3.65377
2.93534
2.9206
4.02934
3.47133
3.74304
3.59447
2.77141
2.53818
3.43567
3.0754
2.51395
2.7764
2.75827
2.4213
2.8283
3.63336
5.75448
3.31419
5.84215
3.7957
2.51696
2.71752
2.70104
2.75601
2.70213
2.51859
3.30965
2.97853
3.27628
3.34791
3.30879
3.03143
2.3172
2.33605
2.32069
2.29735
1.92449
2.12178
1.802
2.33046
2.31969
1.81821
2.13983
2.09258
2.3249
2.33438
2.85697
2.76239
2.76365
2.56511
2.66007
2.81888
2.79308
2.67419
2.5976
2.12785
1.77916
1.76637
2.18713
2.3622
2.75481
1.88463
2.04985
1.90839
2.62898
2.79576
3.03966
3.19702
3.28669
3.40329
3.11965
2.93952
2.92374
2.9629
2.93411
2.80775
2.90166
2.76546
2.9228
2.96969
2.99981
2.88546
2.98341
2.83984
2.40024
2.13291
2.24253
2.44609
2.50113
2.79832
2.78106
2.07059
1.95017
2.09313
2.50928
1.89651
2.73917
2.81369
2.57066
2.67132
2.21113
2.46728
2.20159
2.14588
2.1636
2.31068
2.83192
2.58113
3.46232
3.13739
2.70489
2.96818
3.0683
2.40826
2.46609
4.99185
2.53902
2.50793
2.94778
3.56183
2.80529
2.77781
2.83691
3.04114
2.99466
2.74805
2.9471
2.94242
2.99975
3.59288
3.72614
3.42183
2.4212
2.42741
3.00993
2.65408
2.31217
2.45837
2.53852
2.9622
3.1474
3.61315
3.43543
3.23281
3.44844
3.66079
2.87881
3.5487
2.95874
2.74139
5.47746
2.30405
3.2001
3.85487
3.62959
3.12841
2.97309
2.85621
2.64118
2.86305
2.12951
2.31666
2.47706
2.38266
2.35649
2.90288
2.68204
2.16953
2.11697
2.21445
2.20433
2.18768
2.52352
2.44402
2.50012
2.30698
2.43029
2.53513
2.40298
2.41203
2.24087
2.2095
2.14613
2.16044
2.74636
2.91423
3.06211
2.87432
3.12082
2.87809
3.1075
2.71098
2.78516
4.32042
4.38872
4.40973
3.1783
3.2095
3.08922
2.76672
2.75252
3.25812
4.73673
3.59635
4.20132
4.1797
4.41974
3.12619
5.04328
3.08404
2.72857
2.70925
2.99821
2.97468
3.21863
3.04189
3.20464
2.35818
2.18233
2.75487
1.8784
1.96829
1.98667
2.86927
2.9343
2.97479
2.95069
3.18927
2.93997
3.18
2.78487
2.92619
2.84846
3.00289
2.92197
3.11927
2.62553
2.67175
2.68183
2.53529
2.5889
2.50499
2.72298
2.67872
2.74896
3.05462
2.81508
2.74457
3.06281
2.89888
3.11694
2.55796
2.63748
2.65467
3.11779
2.95639
2.88109
2.7511
2.87467
2.76469
3.00078
2.99524
3.17256
2.66466
2.75621
2.72718
2.70741
2.72056
2.72559
2.75259
3.10755
2.77785
2.93392
3.03405
2.85878
2.81584
2.82571
2.77691
2.84874
2.84698
2.6446
2.66488
2.60418
2.9893
2.73301
3.10933
2.68982
2.74946
2.72666
2.73841
2.73306
2.77948
2.84735
2.68412
3.03142
2.98529
2.84652
2.89764
3.03382
2.57306
2.69153
3.02635
2.78
2.71185
2.93878
3.14933
2.5145
2.16488
2.7471
3.02122
2.70858
2.54642
2.5249
2.74195
3.10655
2.96977
3.06421
2.92982
2.6172
2.60738
2.62666
2.61687
2.3961
2.53484
2.46494
3.15073
2.71153
3.28894
3.02014
3.53333
2.26164
2.41323
2.90975
2.97572
2.93051
2.18005
2.76223
2.10454
3.08958
3.01428
3.11167
2.37398
2.71537
2.26012
2.56322
2.27138
2.53132
2.57591
2.31937
2.81474
2.45367
2.33378
2.28005
2.17264
2.1096
2.15505
2.38482
2.70074
2.37056
2.40942
2.26951
2.33176
2.13691
2.17543
2.22127
2.13428
3.62703
3.07084
5.04297
5.26876
2.8925
3.06388
3.58834
3.25498
3.32587
3.48119
2.33827
2.43314
2.35442
2.43649
2.59701
5.85583
3.9612
2.46123
2.62542
2.70197
2.62954
2.57745
2.52421
2.95097
3.11998
3.03231
2.85461
2.73125
2.83551
2.58404
2.68685
2.87703
3.02342
2.72719
2.77518
2.71029
3.11618
2.33547
2.60828
3.31603
3.38968
2.52164
2.37187
2.48674
2.55501
2.56007
2.96891
3.20401
3.00015
2.90856
2.50119
2.28773
2.44022
3.06464
2.71722
3.0379
2.85273
2.83299
3.05104
3.12057
4.30651
3.96719
3.66043
3.90951
2.71425
3.92599
2.99712
4.37213
4.40009
4.35478
4.65829
4.59749
2.59621
2.27603
2.33349
2.5354
2.53384
2.79379
1.87096
2.60568
1.96217
2.05318
2.4015
2.50287
2.45032
2.24413
2.12208
2.22202
2.16637
2.37538
SCALARS CoVolArea double 1
LOOKUP_TABLE default
0.00575475
0.00589199
0.00548878
0.00546381
0.0049391
0.00621942
0.00598355
0.0061398
0.00547494
0.00516145
0.00532085
0.00488898
0.00903076
0.00987099
0.00941146
0.00964242
0.0102644
0.0105836
0.0104027
0.00993997
0.0105955
0.0109697
0.0103141
0.0093018
0.0089224
0.0104917
0.0102055
0.00995371
0.0129704
0.0096096
0.010663
0.01007
0.0101849
0.00898968
0.00963682
0.00953283
0.00877327
0.0101153
0.0104273
0.00978371
0.0106669
0.0114665
0.00866189
0.00945715
0.00827368
0.0080165
0.00948399
0.00793068
0.00946655
0.0104012
0.00991682
0.00945322
0.00920324
0.00957092
0.0100576
0.00945193
0.00962961
0.00849431
0.0120381
0.0104179
0.0106764
0.0122283
0.00944772
0.011414
0.00955952
0.0106222
0.0100932
0.0096917
0.0101762
0.00888128
0.0099457
0.00860777
0.0109698
0.00936989
0.0113259
0.0102696
0.00866251
0.00966217
0.00883999
0.0100687
0.0106352
0.00854251
0.00982478
0.00855334
0.0109667
0.0105076
0.00795295
0.00971655
0.0085478
0.0100748
0.00819658
0.0109546
0.00839217
0.0085922
0.0113889
0.00914694
0.0111479
0.0094704
0.01056
0.00839857
0.011148
0.0120621
0.00943971
0.0121426
0.0111779
0.0102167
0.00982808
0.0102603
0.0106414
0.00878016
0.00988256
0.00899925
0.00922049
0.0102019
0.00880993
0.00811101
0.00961322
0.00868581
0.00839066
0.00962978
0.00829515
0.00968962
0.00831712
0.00833447
0.00985676
0.00827537
0.00964138
0.00874066
0.00978714
0.00897053
0.00896106
0.00971211
0.00959803
0.0108441
0.00931971
0.0107464
0.00948115
0.00964765
0.0100858
0.00891047
0.00961479
0.00861822
0.0113076
0.00976141
0.0118046
0.0113157
0.00922929
0.010117
0.00995978
0.0111539
0.0100203
0.00946978
0.00942276
0.00966422
0.0102842
0.00932864
0.0110854
0.0125381
0.012573
0.010816
0.0116964
0.0112645
0.00776679
0.00827639
0.00750063
0.00921797
0.00857811
0.00872842
0.00856207
0.00855028
0.00951
0.00678354
0.00775335
0.00681139
0.00972704
0.00846407
0.00875577
0.0083778
0.00831956
0.00915514
0.00846262
0.00959365
0.00875263
0.010006
0.00972326
0.00940006
0.0098843
0.00991787
0.0103038
0.010418
0.0108885
0.0107779
0.00844834
0.00799812
0.00936607
0.00856925
0.00959993
0.00890477
0.00973616
0.00850614
0.00940104
0.00995652
0.00963526
0.0095679
0.00956751
0.00980059
0.00821617
0.00868498
0.00768668
0.00983093
0.00912439
0.00976855
0.00879534
0.00880486
0.00958615
0.0104838
0.0105841
0.0104504
0.00991073
0.00868517
0.0114019
0.0104529
0.0103877
0.0109067
0.0114593
0.00891926
0.0101863
0.0116878
0.0111754
0.0105889
0.010691
0.0114969
0.00838987
0.00951552
0.00844129
0.0110136
0.00999368
0.00966946
0.00982559
0.0100786
0.0111859
0.0132647
0.0130616
0.0129489
0.0101096
0.00847275
0.0104893
0.0103302
0.01046
0.0103482
0.0106337
0.00857781
0.00931691
0.0100679
0.00954545
0.00973182
0.00950721
0.0102144
0.00755926
0.00850389
0.00740252
0.0101525
0.00910075
0.00950701
0.0091108
0.00897337
0.00985613
0.0111505
0.0109463
0.0111305
0.00929789
0.0113765
0.0103117
0.00944758
0.00986855
0.00769298
0.00895919
0.0113121
0.0100544
0.0103398
0.00973441
0.0110384
0.00805409
0.00706743
0.00957813
0.00861255
0.00972318
0.00912069
0.0108107
0.0123866
0.0121843
0.0115616
0.00846452
0.00792967
0.00974446
0.00876059
0.00892918
0.0087633
0.00941866
0.00882293
0.0097104
0.0106023
0.0100982
0.0101437
0.00989074
0.0102337
0.00736796
0.00836428
0.00722908
0.00943291
0.00879087
0.0087874
0.00927144
0.00899045
0.0101467
0.011015
0.0111643
0.0106433
0.0101694
0.00903461
0.0105046
0.0102892
0.0105328
0.0105833
0.0109272
0.00684385
0.00785236
0.00931813
0.00844532
0.00833717
0.00859894
0.0098808
0.00706748
0.00822018
0.00700679
0.0103689
0.00908352
0.00934144
0.00849885
0.00877297
0.00946341
0.0112546
0.010843
0.0114699
0.00840982
0.00701852
0.0110945
0.00950611
0.0090877
0.00928642
0.0104971
0.00742024
0.00886673
0.0108616
0.00962316
0.00917913
0.0100503
0.0114033
0.00782882
0.00919983
0.00794272
0.0106723
0.00981311
0.00953473
0.0099396
0.0100137
0.0110284
0.0125758
0.0124865
0.0122331
0.00843516
0.00730929
0.010357
0.00915332
0.00882176
0.00907479
0.01025
0.00901541
0.0102912
0.0127804
0.0115017
0.0121295
0.0105508
0.0108968
0.00836288
0.0102303
0.00890907
0.0108345
0.0105121
0.00944489
0.0122037
0.0115692
0.0128393
0.0123722
0.0133885
0.0123993
0.00941985
0.00867
0.0103252
0.00961392
0.00986227
0.00961383
0.0100827
0.00866868
0.0103288
0.0106181
0.0104295
0.0105487
0.010473
0.0105923
0.00758913
0.00859944
0.00773523
0.00984696
0.00899355
0.00924963
0.00957408
0.00909244
0.0101095
0.0111743
0.0110785
0.0109105
0.00783091
0.00885692
0.00760974
0.0102232
0.00946383
0.00968574
0.00916307
0.00929732
0.00996851
0.00709113
0.00812747
0.00729347
0.00921509
0.00848969
0.00842024
0.00936686
0.00884432
0.00996974
0.00705511
0.00813623
0.00703844
0.00976761
0.0087755
0.0089476
0.00861245
0.00861602
0.00928539
0.0109049
0.0104961
0.0108436
0.00843093
0.00743002
0.00982971
0.00899067
0.00840179
0.00865359
0.00918435
0.00703303
0.00820246
0.00974267
0.00884838
0.00886259
0.00887513
0.00979933
0.00743105
0.0083886
0.00759063
0.00915637
0.00859984
0.00835085
0.009069
0.00892527
0.00975733
0.0107643
0.0107342
0.0104802
0.00843664
0.00765471
0.00920393
0.00865324
0.00957435
0.00908567
0.0102573
0.00769039
0.00842752
0.0101256
0.00903356
0.00944062
0.00859764
0.00916576
0.00829241
0.00951767
0.00819172
0.0107411
0.0101655
0.00999375
0.00961108
0.010019
0.0105494
0.0105874
0.0111799
0.0112478
0.00909894
0.00790157
0.0106357
0.00975508
0.0101541
0.00994747
0.0106882
0.00848986
0.0092595
0.00976064
0.0093971
0.00963517
0.00960988
0.0105128
0.0076563
0.00840821
0.00752121
0.0101032
0.00888882
0.00961629
0.0090067
0.00871067
0.00949636
0.0112914
0.0106541
0.0111065
0.0092013
0.0113013
0.0100718
0.00989557
0.0108627
0.00795847
0.00924035
0.0118137
0.0104915
0.0107727
0.0100784
0.0113304
0.00881265
0.00751918
0.0107721
0.00964231
0.0102865
0.00998459
0.0115519
0.0128099
0.0129223
0.012499
0.00825468
0.00954446
0.008858
0.00910394
0.0104122
0.00817524
0.0102992
0.00898583
0.00862075
0.00942205
0.0102701
0.011018
0.010695
0.0104864
0.0108376
0.0109819
0.01151
0.0115771
0.00878569
0.00982373
0.00918387
0.00932929
0.010012
0.00805501
0.00916046
0.00849106
0.0086586
0.00962273
0.00792305
0.00971936
0.00861536
0.00835117
0.00910443
0.0106473
0.0103159
0.0106747
0.00899118
0.00999845
0.00918684
0.00910277
0.00953712
0.00910661
0.01022
0.00976313
0.0096006
0.0102309
0.00819201
0.00932056
0.00853149
0.0086166
0.0096514
0.0107259
0.0105821
0.0102924
0.00869604
0.0105933
0.0093806
0.00946502
0.0107556
0.0103734
0.0132055
0.0117863
0.0107094
0.011102
0.0104666
0.011282
0.0108381
0.0117888
0.013158
0.0129697
0.0140008
0.0130316
0.00871141
0.0113707
0.00975329
0.00919649
0.00999422
0.00923058
0.0112687
0.00997075
0.0104261
0.0117721
0.00948304
0.0101631
0.00965961
0.0105043
0.0115971
0.012673
0.0127601
0.0119914
SCALARS SignedDistance double 1
LOOKUP_TABLE default
1.33894
1.32655
1.15819
1.10407
1.00156
1.00667
1.11009
1.15467
1.25094
1.15266
1.27734
1.17501
1.25121
1.01494
1.06762
1.05709
1.31761
1.42745
1.44584
1.08734
1.46665
1.3617
1.04552
1.2086
1.04564
1
1.31955
1.23
1.07133
1.05774
1.44347
1.03831
1.19612
1.00604
1.05562
1.08447
1.02982
1.17114
1.1155
1.07246
1.26802
1.3292
1.28699
1.15539
1.22102
1.10305
1.10089
1.21074
1.02506
1.0007
1.01205
1.20182
1.33144
1.02452
1.01963
1.31581
1.18619
1.20614
1.44475
1.44663
1.43941
1.44063
1.29024
1.44561
1.27594
1.44755
1.41466
1.09182
1.25612
1.35451
1.27668
1.1598
1.36519
1.41957
1.42414
1.32681
1.2894
1.12546
1.26733
1.00949
1.01776
1.1733
1.06248
1.06548
1.00515
1.00005
1.11443
1.00495
1.05078
1.04547
1.00622
1.30633
1.23276
1.32703
1.33218
1.20454
1.27401
1.21904
1.04758
1.14972
1.00521
1.05834
1.08163
1.07397
1.03367
1.22458
1.09265
1.40402
1.42194
1.11893
1.24209
1.31744
1.16038
1.12462
1.07769
1.08356
1.10107
1.17976
1.04597
1.04825
1.00059
1.0823
1.076
1.0509
1.07061
1.11284
1.09177
1.124
1.02253
1.09578
1.14637
1.06901
1.16152
1.09633
1.19199
1.18728
1.16884
1.08509
1.18981
1.30513
1.22876
1.12175
1.23514
1.38797
1.27875
1.26145
1.2369
1.0454
1.0198
1.00069
1.15451
1.06955
1.15478
1.21528
1.25503
1.24162
1.01656
1.06586
1.07332
1.27778
1.4009
1.3429
1.31292
1.25091
1.28542
1.20543
1.22365
1.26617
1.14958
1.1815
1.10486
1.14189
1.14621
1.19276
1.04309
1.10161
1.05095
1.23703
1.16659
1.18393
1.00401
1.01166
1.00027
1.00676
1.01816
1.00054
1.02872
1.02092
1.01503
1.13175
1.03563
1.06645
1.27492
1.33488
1.13651
1.20826
1.32438
1.26874
1.25829
1.0037
1.02028
1.03616
1.00971
1.00307
1.00645
1.04458
1.32193
1.26007
1.27095
1.25326
1.25042
1.31349
1.13513
1.19331
1.12387
1.12036
1.11252
1.18829
1.39094
1.38968
1.38258
1.3883
1.495
1.44844
1.49789
1.37944
1.38029
1.49287
1.44142
1.48519
1.37713
1.38101
1.21938
1.29497
1.21487
1.44596
1.37148
1.36556
1.34874
1.36554
1.43367
1.44649
1.50223
1.50146
1.43304
1.37508
1.44317
1.48904
1.45126
1.47245
1.4619
1.12718
1.19681
1.16484
1.17107
1.07121
1.27321
1.35162
1.30707
1.25448
1.22198
1.37885
1.3113
1.41447
1.1127
1.20846
1.17832
1.34907
1.25751
1.3582
1.3508
1.42505
1.38974
1.32696
1.30824
1.35136
1.39673
1.39334
1.43056
1.39395
1.44268
1.45403
1.25199
1.22855
1.29197
1.27489
1.33141
1.30966
1.35248
1.40097
1.37768
1.34449
1.23362
1.29798
1.08289
1.16173
1.23849
1.20061
1.17381
1.00002
1.00963
1.02795
1.01779
1.02261
1.02351
1.00067
1.15863
1.11037
1.10655
1.14188
1.12298
1.18479
1.01633
1.06363
1.00496
1.02429
1.01189
1.09584
1.01488
1.00942
1.02909
1.00143
1.02154
1.00469
1.01733
1.14019
1.10041
1.02254
1.05154
1.0826
1.05217
1.00799
1.0005
1.0174
1.00069
1.009
1.04918
1.01374
1.00671
1.0136
1.00288
1.02975
1.0268
1.01078
1.26013
1.20366
1.33093
1.3124
1.24564
1.28359
1.27051
1.29781
1.3806
1.32313
1.37141
1.35982
1.38454
1.35636
1.17594
1.20665
1.17789
1.26942
1.24312
1.22811
1.27311
1.24481
1.28638
1.31649
1.28797
1.28554
1.15172
1.21764
1.04167
1.10161
1.10282
1.10123
1.04214
1.08159
1.04436
1.08025
1.04448
1.05259
1.00008
1.00505
1.09372
1.00021
1.03445
1.0001
1.00205
1.05167
1.04836
1.05341
1.05393
1.02278
1.08172
1.02758
1.17947
1.12678
1.32757
1.25166
1.05042
1.14724
1.12318
1.36378
1.42422
1.4334
1.46168
1.4391
1.48195
1.42015
1.19096
1.21503
1.27704
1.1433
1.17053
1.08672
1.38032
1.2747
1.34588
1.32046
1.3278
1.22464
1.12296
1.11868
1.09292
1.16512
1.14418
1.19611
1.07494
1.10378
1.07792
1.11963
1.14307
1.18014
1.06133
1.09161
1.04179
1.18032
1.13244
1.1474
1.01505
1.00381
1.00052
1.05094
1.03882
1.04508
1.00261
1.01045
1.03855
1.11831
1.08621
1.07578
1.08112
1.08878
1.07647
1.07254
1.0405
1.08684
1.06146
1.01898
1.03383
1.06519
1.04436
1.06232
1.03647
1.06578
1.13759
1.12288
1.14649
1.08572
1.10392
1.07443
1.10533
1.09696
1.08412
1.07111
1.07701
1.08563
1.0772
1.10099
1.02256
1.03222
1.08936
1.06582
1.0367
1.1542
1.12766
1.10278
1.10977
1.15061
1.09597
1.04296
1.15719
1.16921
1.16196
1.09147
1.16045
1.15699
1.19718
1.16955
1.13033
1.0185
1.02332
1
1.13083
1.12469
1.14501
1.12728
1.21526
1.17898
1.23189
1.10158
1.15098
1.14854
1.14171
1.06945
1.17091
1.17825
1.26993
1.21446
1.1882
1.27745
1.26133
1.30955
1.08031
1.171
1.14923
1.21199
1.20986
1.24696
1.1613
1.24718
1.21161
1.21127
1.23741
1.32788
1.35157
1.29703
1.33737
1.35143
1.32914
1.28656
1.21496
1.20371
1.22827
1.21088
1.28497
1.25005
1.29468
1.24259
1.24223
1.25114
1.02209
1.00667
1.02037
1.04322
1.00738
1.0637
1.04625
1.01444
1.0191
1.00316
1.01634
1.01764
1.00718
1.00201
1.02414
1.03813
1.01843
1.01
1.16489
1.1175
1.13379
1.17471
1.19586
1.01613
1.06324
1.03565
1.0608
1.08005
1.1706
1.19823
1.19838
1.14197
1.10722
1.10856
1.10564
1.15646
1.16171
1.23166
1.21314
1.14305
1.13493
1.18308
1.29119
1.2375
1.19351
1.21144
1.23381
1.15138
1.18387
1.27899
1.32605
1.26692
1.29605
1.22029
1.12025
1.00897
1.0696
1.07117
1.01131
1.01057
1.04744
1.0476
1.00213
1.00109
1.04637
1.0143
1.00414
1.04194
1.05182
1.04774
1.07095
1.05391
1.21513
1.31099
1.25346
1.2231
1.24103
1.36876
1.43479
1.41359
1.39954
1.36535
1.33563
1.27383
1.30468
1.37495
1.40963
1.34628
1.37956
1.30966
