# vtk DataFile Version 4.2
vtk output
ASCII
DATASET POLYDATA
POINTS 642 double
-0.0265703 0.0774323 0.0805416
0.0651952 0.0801528 0.0800245
-0.0320304 -0.137023 0.0162206
0.0719453 -0.140483 0.0174024
0.0192044 -0.0695234 0.234445
0.018691 0.059563 0.233449
0.021477 -0.0681288 -0.146778
0.0216094 -0.0336632 -0.14003
0.0639091 -0.043863 -0.117212
0.112171 -0.00154734 0.189437
-0.0192452 -0.0438116 -0.11253
-0.071268 0.000527624 0.184966
-0.0591473 0.0563648 0.148185
-0.0275491 0.038077 0.229934
-0.00731457 0.0856362 0.188865
0.0448878 0.0868298 0.189756
0.0183291 0.0926875 0.0897626
0.0360433 0.0028892 -0.0879393
0.00511152 0.00300936 -0.0858195
0.00756045 -0.0385619 -0.1388
-0.0327561 0.00404489 -0.0499842
-0.080532 -0.0192033 0.0342217
0.0655604 0.0378968 0.232169
0.0999232 0.0595593 0.150401
-0.0329649 -0.0391652 0.230493
0.0189406 -4.50738e-05 0.254464
-0.04248 -0.0844066 -0.0742888
-0.0758436 -0.0832832 0.118292
0.0217965 -0.0490104 -0.149801
0.00552518 -0.0590897 -0.144082
0.074327 0.00471317 -0.0549857
0.0359386 -0.0384199 -0.140598
0.117564 -0.0888359 0.12122
0.0709029 -0.0408686 0.232603
0.0539639 -0.128255 0.158176
-0.0157319 -0.126132 0.156691
0.0198842 -0.15265 0.0158435
0.00069697 -0.107394 -0.103515
0.040844 -0.10936 -0.102175
0.0382793 -0.0596708 -0.145669
0.0871431 -0.0885113 -0.0749907
0.126633 -0.0200539 0.032986
-0.0434271 0.0732446 0.116025
-0.0337404 0.0759222 0.174574
-0.0200699 0.0891574 0.143547
-0.0522761 0.0201983 0.212695
-0.0459601 0.0505445 0.199151
-0.068911 0.0294609 0.171793
0.00641709 0.0739228 0.217068
-0.0179081 0.0660896 0.213814
-0.00239216 0.0515108 0.235591
0.00422021 0.0968434 0.151191
-0.00670019 0.0878364 0.0872436
0.0309141 0.0742474 0.217626
0.0184423 0.0888086 0.193718
0.0440763 0.0895497 0.0869882
0.0325432 0.0977779 0.151606
0.0580124 0.091493 0.144508
0.00689915 0.0565307 -0.00373256
-0.0135715 0.0499662 -0.00326967
0.0526133 0.0509488 -0.00581118
0.0313044 0.0569712 -0.00466065
0.0162098 -0.0224238 -0.126223
0.020522 0.00255837 -0.0909591
0.0264188 -0.0224476 -0.126935
-0.0116053 0.00413589 -0.0726009
-0.0359974 0.0481248 0.0195342
0.0154005 -0.0363455 -0.141249
0.00673055 -0.0245682 -0.124504
-0.0248409 -0.026456 -0.0929949
-0.00673966 -0.0255573 -0.114088
-0.00372237 -0.0407894 -0.130083
-0.0586728 0.0444341 0.0610626
-0.0475598 -0.0357795 -0.064228
-0.0586817 -0.00134101 -0.0140875
-0.0781358 0.0243853 0.102414
-0.0855179 -0.00475155 0.131098
0.0724017 0.0782075 0.176632
0.0831029 0.0767053 0.116751
0.0400603 0.0515988 0.236549
0.055906 0.066909 0.215475
0.110364 0.0305273 0.17535
0.0849911 0.0520726 0.202033
0.0913245 0.0191138 0.216361
-0.0058469 0.0207528 0.248071
0.0187639 0.0352722 0.247742
-0.0568563 -0.0178504 0.211758
-0.0332433 0.00192822 0.23644
0.0191861 -0.0368353 0.249704
-0.00642274 -0.0196315 0.249356
-0.00516089 -0.0572693 0.237053
-0.0880387 -0.0493702 0.0819839
-0.0788365 -0.0358563 0.162875
-0.0295596 -0.0581893 -0.102426
-0.0650236 -0.0588415 -0.0321428
-0.0560503 -0.120986 0.0616787
-0.0698126 -0.0940948 0.0190149
-0.0435621 -0.116673 -0.0263923
0.00711808 -0.0482733 -0.143806
-0.00547244 -0.0529971 -0.133514
0.0217711 -0.0418462 -0.146781
0.0157423 -0.0447815 -0.147105
0.0140636 -0.0637316 -0.147263
0.0152814 -0.0533091 -0.149066
0.0217024 -0.0573456 -0.150058
0.0360892 -0.0245836 -0.12647
0.0279986 -0.0363068 -0.142034
0.0760285 0.0501481 0.0165178
0.05275 0.0040774 -0.0765223
0.0474859 -0.040596 -0.133371
0.0495881 -0.0253937 -0.117692
0.0682971 -0.0260051 -0.0980296
0.0965924 -0.126308 0.0630723
0.088348 -0.11462 0.144662
0.0677134 -0.143895 0.0842821
0.0954898 -0.0204663 0.215493
0.0979045 -0.064253 0.194348
0.120505 -0.0398652 0.167207
0.0350088 -0.097956 0.209948
0.0656155 -0.0855325 0.20873
0.0433865 -0.0580626 0.238117
0.0367224 -0.153149 0.0859546
0.0473713 -0.149773 0.016439
0.00325692 -0.097068 0.209226
0.019176 -0.131889 0.162502
-0.00774514 -0.148315 0.0157962
0.00206511 -0.151921 0.0855569
-0.0286923 -0.140768 0.0833955
0.0330974 -0.137498 -0.0458227
0.0571794 -0.132001 -0.0442202
-0.0168383 -0.129609 -0.0461853
0.00714836 -0.136933 -0.046805
0.0280092 -0.0832225 -0.13662
0.0206333 -0.110558 -0.104635
0.0143796 -0.0825672 -0.136687
0.062862 -0.103024 -0.0945945
0.0852387 -0.121435 -0.0247435
0.0292885 -0.0641973 -0.147841
0.0408135 -0.0780416 -0.13658
0.075567 -0.0595099 -0.106861
0.0569978 -0.0706888 -0.128355
0.0497688 -0.0534408 -0.13684
0.113711 -0.0998299 0.0202157
0.0932484 -0.0357514 -0.0687624
0.111319 -0.0617016 -0.0330508
0.133232 -0.0538517 0.0837504
0.129799 -0.00628802 0.133911
0.0445842 -0.0204978 0.249807
0.0710051 0.000161667 0.23862
0.0436779 0.01997 0.248867
-0.0491321 -0.110401 0.142333
-0.0273721 -0.0833504 0.206559
-0.0587834 -0.0606823 0.190636
0.00240176 -0.076558 -0.135966
-0.0201692 -0.0993573 -0.0953604
-0.0124731 -0.0688916 -0.125586
0.0366638 -0.0483242 -0.145647
0.0283689 -0.0534478 -0.149757
0.0278724 -0.0447391 -0.147826
0.122088 0.0264741 0.102901
0.102344 -3.81548e-05 -0.018094
0.100492 0.0476182 0.0596329
-0.0345593 0.0768799 0.0976767
-0.0321267 0.0824752 0.132121
-0.0245496 0.085207 0.112634
-0.046956 0.0674474 0.162993
-0.0398454 0.0763256 0.148981
-0.051726 0.0663973 0.132871
-0.014106 0.0889402 0.168676
-0.0268877 0.0838255 0.160907
-0.0203045 0.0819029 0.182994
-0.0630846 0.0100266 0.199361
-0.0611245 0.025885 0.19486
-0.0709512 0.0141934 0.179916
-0.0372314 0.0447837 0.216486
-0.0494619 0.0362153 0.207392
-0.0404036 0.0295581 0.222747
-0.0649572 0.0437393 0.161224
-0.0579637 0.0412252 0.187041
-0.0535969 0.0546645 0.176699
0.0130627 0.0665495 0.226788
0.00176372 0.0637629 0.226987
0.00932692 0.0563837 0.235109
-0.0125055 0.0769789 0.20246
-0.00558442 0.0709164 0.216029
-0.000332543 0.0803583 0.204841
-0.014695 0.0454193 0.234064
-0.0105598 0.0591089 0.225988
-0.0230156 0.0530277 0.223079
-0.0403081 0.064525 0.188197
-0.0320105 0.0593554 0.208125
-0.0261815 0.0720133 0.196746
-0.0136027 0.0909426 0.118975
-0.0177815 0.0828884 0.0841108
-0.00193514 0.0924135 0.172252
-0.0080271 0.093806 0.148982
0.00536646 0.0911774 0.0891702
-0.00142795 0.0951167 0.122662
0.011041 0.0974393 0.124011
0.0242695 0.0666454 0.227057
0.0185874 0.0748318 0.217856
0.0316427 0.0884799 0.192867
0.024951 0.0823301 0.206588
0.0377866 0.0811236 0.205464
0.0121166 0.0820682 0.206351
0.00543795 0.0878222 0.192484
0.055809 0.0852225 0.0837559
0.0511641 0.0930711 0.119293
0.0628293 0.0879155 0.112929
0.0255165 0.0979604 0.124102
0.0383599 0.0965014 0.122902
0.0314949 0.092098 0.0890242
0.0518092 0.0906784 0.169793
0.0453047 0.0954837 0.149705
0.0390782 0.0935548 0.172954
0.0114118 0.0943208 0.175174
0.0253536 0.0947195 0.175427
0.0182742 0.098314 0.152655
-0.0114331 0.0730927 0.0448102
-0.0216835 0.0685925 0.0451118
0.0117079 0.079541 0.0469377
-5.27395e-05 0.0770284 0.0458042
-0.00333265 0.0239988 -0.0494338
-0.00345291 0.0531829 -0.00489235
0.00516941 0.0259074 -0.0505775
0.060328 0.0707235 0.0436442
0.04947 0.0747624 0.0436398
0.0346255 0.0259459 -0.0522635
0.0420587 0.053903 -0.00668426
0.0433613 0.0240079 -0.0520984
0.0375359 0.0781239 0.0450599
0.025437 0.0799551 0.0466613
0.0194861 -0.0294314 -0.13535
0.0212947 -0.0223433 -0.126983
0.0235179 -0.0294318 -0.135621
0.0127626 0.00259639 -0.0894946
0.0177871 -0.0118989 -0.112293
0.0116597 -0.0121227 -0.110879
0.0303788 -0.0121991 -0.112207
0.0241765 -0.0119231 -0.112752
0.0283338 0.00254544 -0.090584
0.0190266 0.0576123 -0.00433981
0.0248589 0.0260649 -0.0536421
0.014805 0.0260377 -0.0530747
-0.024628 0.0491823 0.00636538
-0.0321144 0.0661745 0.0546957
-0.00279778 0.00361615 -0.0802255
-0.0130384 0.0243067 -0.0425129
-0.035938 0.0258175 -0.0170479
-0.0240408 0.0251443 -0.031551
-0.0216045 0.00449603 -0.0624127
0.0187701 -0.0350162 -0.140992
0.0156455 -0.0304882 -0.135588
0.00733136 -0.0326484 -0.133542
0.011595 -0.0316316 -0.135086
0.0117762 -0.0374943 -0.140585
0.0114779 -0.0234197 -0.125742
0.00594826 -0.0131625 -0.109562
-0.0215579 -0.0366349 -0.105312
-0.012613 -0.0350017 -0.115765
-0.0112983 -0.0422404 -0.122113
-0.0181412 -0.0135234 -0.0885217
-0.0150293 -0.0255841 -0.104819
-0.0287423 -0.0132622 -0.0750675
0.00246004 -0.039615 -0.135437
-0.00473455 -0.034084 -0.124086
0.00159295 -0.0334836 -0.12977
-0.0010008 -0.013101 -0.104765
0.00058049 -0.0251115 -0.120532
-0.00905061 -0.0131399 -0.0977622
-0.0423578 0.0648608 0.0725393
-0.0485824 0.0263147 0.0030584
-0.0475928 0.0474869 0.0392739
-0.052585 0.0609126 0.0921768
-0.061528 0.0539154 0.110602
-0.0306094 -0.0409816 -0.0948703
-0.0355936 -0.0298465 -0.0799521
-0.0709112 -0.00863979 0.00913476
-0.0541348 -0.0199526 -0.0412941
-0.0661706 -0.0282092 -0.020379
-0.0407731 -0.0152486 -0.059767
-0.0453597 0.00246802 -0.0341492
-0.0783883 0.0140256 0.153736
-0.0788417 -0.00113748 0.163916
-0.0698537 0.0422342 0.128583
-0.0752521 0.0290819 0.141865
-0.0872686 -0.0108262 0.0876103
-0.0832878 0.0105345 0.116913
-0.0820859 0.00315286 0.0701486
-0.0612744 0.0221176 0.0234909
-0.0730104 0.0143495 0.0467193
-0.06959 0.0362881 0.0823779
0.0708649 0.0854381 0.133138
0.0736397 0.0800313 0.0976601
0.0583901 0.083584 0.184518
0.0652428 0.0861951 0.162435
0.0919798 0.0698968 0.13437
0.0790399 0.0793317 0.150765
0.0864886 0.0703433 0.165278
0.0281366 0.056455 0.235549
0.0357854 0.0640202 0.227778
0.0610059 0.053524 0.225047
0.0483809 0.0594983 0.227328
0.0525747 0.0454354 0.235579
0.0432894 0.0714839 0.217131
0.0504254 0.0780261 0.203706
0.112288 0.0134223 0.184118
0.101206 0.0258019 0.198892
0.102962 0.00836229 0.203664
0.0934383 0.0570798 0.179582
0.0980284 0.042748 0.190405
0.106162 0.0461697 0.164065
0.0787284 0.0290212 0.225801
0.0885736 0.0366134 0.210754
0.0755891 0.04535 0.219247
0.0644622 0.0734935 0.198692
0.0703324 0.0605916 0.210421
0.0791692 0.0665679 0.190685
0.00755671 0.0437736 0.242832
0.018722 0.0496088 0.240616
-0.0171768 0.0301825 0.240309
-0.0048127 0.0371926 0.242808
0.0188338 0.018425 0.252544
0.00664072 0.0278829 0.249203
0.00645367 0.0104704 0.252828
-0.065564 -0.00754075 0.198408
[...]
POINT_DATA 642
SCALARS Mean_Curvature double 1
LOOKUP_TABLE default
5.36536
4.33018
8.13746
7.95322
10.3848
14.0276
17.0567
22.7295
7.55728
7.78309
7.98313
8.10953
8.22879
10.932
11.6216
11.4851
6.81427
9.68619
9.8796
19.174
7.00241
4.49575
10.5955
8.37298
9.2797
13.2459
4.93618
7.08709
29.2236
22.4396
6.69604
19.2652
7.19072
9.59012
8.48947
8.40806
9.53036
11.9966
11.6289
22.5184
6.43557
6.25572
8.68941
10.0468
9.91752
9.52597
10.0465
7.97106
12.3709
11.4347
12.4288
10.6193
9.40794
12.0665
11.8032
9.79356
10.627
9.94524
7.90462
7.55775
7.31077
7.74049
14.6602
10.2011
14.5578
8.68079
6.22099
23.5138
13.6002
7.62573
10.0836
12.4299
4.46234
5.35882
5.32282
6.52364
6.46116
10.1918
8.48309
13.3618
11.3432
8.16558
9.7566
9.26234
12.1086
15.0978
9.03987
9.6614
11.3543
10.3549
9.82805
6.26082
7.21538
6.41995
5.0481
7.58732
7.51471
8.59233
19.9189
11.7489
34.3624
31.6212
21.0677
24.5802
23.6772
13.5185
23.6586
5.84374
8.45045
12.203
10.1923
7.19428
7.61527
7.93722
7.87105
8.78135
8.29522
7.31684
9.6936
9.11392
9.98684
8.97432
8.81725
9.41249
9.08891
8.42674
8.41597
8.09002
8.80932
8.85234
9.09225
9.09566
12.441
11.8901
15.6341
10.4269
8.41495
20.1974
15.9351
6.1426
9.65209
11.5994
7.44411
5.28292
7.57443
6.51171
6.54381
11.4315
10.1405
13.2977
7.73725
8.75759
8.07552
14.9725
9.79395
9.27355
20.8408
25.1577
33.1075
6.63561
4.68907
5.12404
9.58656
9.45918
9.92837
9.2493
9.18713
8.19319
10.8497
10.1502
10.9517
8.80182
8.97118
8.03145
10.7289
9.90109
10.2006
8.3049
8.98679
9.23196
12.6682
12.3121
13.4251
11.5739
11.9277
12.1307
11.4998
11.7157
11.2575
10.1117
10.8723
10.9063
9.26232
5.27708
11.1549
10.365
9.67983
7.67715
6.49394
12.6802
12.2524
11.6005
12.0192
11.85
12.3048
12.0543
9.36427
8.60268
9.50164
6.31525
6.89887
8.78439
10.8207
10.4146
10.9308
11.1677
10.9837
10.6808
6.86827
6.46283
6.98809
7.07888
8.65211
7.81427
8.87694
6.2488
6.77958
8.68089
7.64704
8.37395
6.91374
6.89669
18.562
14.7036
18.5306
10.0661
11.8536
11.5911
11.5385
11.8241
10.0338
7.78863
8.77232
8.86588
6.9427
5.93554
9.46501
8.24598
6.55061
7.41141
7.81504
23.689
18.6382
16.5721
17.948
21.9618
14.3731
11.0768
7.7713
9.14744
9.69078
8.3704
8.72748
7.31199
15.8167
11.3813
14.1527
10.3113
11.9474
9.39959
5.20346
5.79134
5.44826
7.32036
7.7501
6.74046
6.49387
4.36578
5.41513
4.73337
6.32965
6.15203
6.96709
6.97443
7.37463
7.23251
6.60271
6.73021
6.13742
5.08118
3.64101
7.76761
9.3802
9.3347
11.1175
10.2232
8.37939
9.44939
9.24248
14.3369
12.3996
10.8343
11.7509
11.8298
11.8218
11.5828
7.86028
8.6703
8.49506
9.16121
8.95948
8.47257
9.87269
9.36983
10.1527
10.9615
10.5922
10.0605
14.2045
15.3549
10.7584
12.2977
14.1984
14.2588
13.4731
8.57468
9.16251
9.53177
9.38705
9.21718
9.5771
10.0784
10.5827
10.2374
10.1535
12.3234
10.7984
12.254
9.50542
9.84413
9.59879
10.1902
9.75856
11.3109
6.38373
7.65194
6.62376
6.10685
6.91509
6.25368
6.49406
7.27552
5.71538
4.98224
4.95141
5.49419
4.66412
3.44975
7.88354
7.82841
8.25533
7.1819
7.56572
7.33579
7.91737
7.96963
7.26535
5.90523
5.86372
7.02835
12.4819
9.50085
20.8794
16.2544
14.4061
15.5794
20.8085
27.6298
29.3969
33.523
35.5444
37.9746
28.6603
25.6952
19.338
22.2336
19.9622
24.2429
23.6974
21.9899
26.3567
24.7927
27.0003
26.0532
23.3178
22.4916
18.6369
23.698
11.0592
14.3523
22.3711
18.0316
16.3066
5.48928
6.66828
7.54715
7.24905
6.24626
7.97894
9.15811
9.3982
9.10602
7.40321
13.9258
11.3789
15.7547
6.92204
8.51934
8.02085
10.2707
9.19121
12.0402
7.82552
7.67956
7.97493
7.74487
7.62175
7.4227
8.04966
7.75426
8.11101
8.2968
7.96706
7.50392
8.99062
8.44012
9.24774
7.14887
7.80706
7.74778
10.1262
9.87353
10.3533
8.64916
9.38353
9.00454
9.86472
9.71449
9.47571
8.08209
8.72778
8.29606
8.3918
8.21893
8.55536
8.35555
9.76673
8.95898
9.39334
10.023
9.74663
8.68046
9.20952
8.88039
9.40987
8.99832
8.24916
8.31035
8.06154
9.04268
8.55404
8.68584
8.06975
8.26757
8.35894
9.03025
8.78
9.00202
8.46166
8.11571
9.29359
8.9016
9.66042
8.83643
9.60431
8.52977
8.58425
10.5256
9.16159
10.5527
8.59803
8.79303
13.6808
13.0141
16.3453
11.8714
14.3607
14.2296
14.0794
14.3534
11.9429
8.92731
10.4115
10.1617
8.73
7.96295
11.0834
9.49897
8.89268
9.24527
9.71657
17.6892
16.4602
18.4432
19.0076
21.6587
15.8708
13.7449
6.8267
8.27876
9.01507
7.6507
7.70012
5.70253
19.1897
10.7589
18.0927
12.6794
15.6109
11.9867
7.77642
8.08862
7.85966
7.53617
7.22419
6.35895
5.63449
6.43299
4.40684
4.05768
5.00152
3.76058
6.8102
7.22959
6.72923
6.44879
6.12545
6.18301
6.23445
7.21739
6.59404
7.013
10.7051
10.1002
10.3306
11.6985
12.6032
9.08634
10.4441
9.77578
9.52383
9.81489
15.0796
13.5398
14.4922
13.8065
11.6797
10.7046
11.3578
12.4818
7.84202
8.03314
7.79055
7.51884
7.50295
9.72349
8.96397
9.37844
9.16755
8.53788
8.19576
7.35754
7.73513
8.5658
8.76729
8.0709
8.35352
7.71879
19.0379
13.2495
15.7717
18.1221
17.0333
8.89276
6.60847
9.8512
10.3688
11.2825
8.74722
11.7836
10.5774
7.71975
6.88391
9.81552
7.33659
9.86741
12.0353
22.7575
15.4238
16.1362
21.5952
21.5373
27.5786
24.788
23.5716
24.1118
29.5367
26.4114
29.1774
35.97
37.7631
21.1244
26.0175
27.0474
7.31362
6.2357
6.59412
7.58824
7.35925
6.16449
5.79598
5.9471
4.97921
3.4775
5.08209
7.71534
7.08161
5.16016
5.6271
6.46823
4.08352
7.32903
SCALARS CoVolArea double 1
LOOKUP_TABLE default
0.000675526
0.000723739
0.000845106
0.000826386
0.000553785
0.000408823
0.000182523
0.000142463
0.000402363
0.000768399
0.000368485
0.000683179
0.00125024
0.000923824
0.000785865
0.000815774
0.00124922
0.000857789
0.000845247
0.000284346
0.00122235
0.00201206
0.000979957
0.00137813
0.00116589
0.00101962
0.00149433
0.00203036
0.000145503
0.000335333
0.00128303
0.000279705
0.00217792
0.00116614
0.0016622
0.00165409
0.00124083
0.00107932
0.00109909
0.000355285
0.0016846
0.00231109
0.00112837
0.000992915
0.000905418
0.000950038
0.00102293
0.00113288
0.000643346
0.00084851
0.00076292
0.000961234
0.00110349
0.000664563
0.000772637
0.00115932
0.000987731
0.000959032
0.00140148
0.00122768
0.00129033
0.001434
0.000410221
0.00091431
0.000412858
0.000966426
0.00130671
0.000223588
0.000468995
0.000781192
0.000592984
0.000387951
0.00165456
0.00120542
0.00169438
0.00175373
0.00156118
0.00104078
0.00122279
0.000794828
0.000877271
0.00131354
0.00110593
0.00105081
0.00101839
0.000906257
0.00111336
0.00106904
0.000866536
0.00102667
0.000985245
0.00223973
0.00151605
0.000878451
0.00193259
0.0017473
0.00217243
0.00156477
0.00026369
0.000424508
0.000157162
0.000176724
0.000273455
0.000190073
0.000181715
0.00046316
0.000222844
0.00140376
0.000976024
0.000400861
0.000588625
0.000824756
0.00178927
0.0019594
0.00155187
0.00115784
0.00167601
0.00166415
0.0012078
0.00150068
0.000980933
0.00161066
0.00120764
0.00121307
0.00164907
0.00122811
0.00161304
0.00154914
0.00116351
0.00121951
0.00125122
0.00119322
0.000614564
0.00106727
0.000591822
0.00135803
0.00160178
0.000290023
0.000708653
0.00100367
0.000843729
0.000460852
0.00234171
0.00136694
0.00219933
0.00250815
0.00182676
0.00102652
0.00108624
0.00106291
0.00189967
0.00148296
0.00161553
0.000654589
0.00127086
0.000752594
0.000272702
0.000197824
0.000176979
0.00201637
0.00189997
0.00183863
0.000959227
0.000975103
0.000867991
0.00111326
0.00102771
0.00118347
0.000830589
0.000912314
0.000875708
0.000880679
0.000989501
0.000963578
0.000953863
0.000955514
0.000926259
0.00118287
0.00104248
0.00111793
0.000555111
0.000675902
0.000617715
0.000806207
0.000711257
0.000689754
0.000828521
0.00076416
0.0008881
0.00109495
0.00101011
0.000980136
0.000963577
0.000942073
0.000849522
0.000897064
0.0011636
0.00100981
0.00109848
0.000562986
0.000623909
0.000787646
0.00067818
0.000719836
0.000665768
0.000768794
0.00100102
0.00101792
0.000925762
0.00111454
0.00105122
0.0011975
0.000868926
0.000939959
0.000877835
0.000921661
0.000932624
0.00105284
0.00119832
0.00104737
0.00139761
0.00127597
0.0010779
0.00127414
0.00116543
0.00111733
0.00126405
0.0011948
0.00132601
0.00111014
0.00132496
0.00141597
0.000262648
0.000411213
0.0002636
0.000886926
0.000589694
0.000579541
0.000584589
0.000593072
0.000899081
0.00154449
0.0013251
0.00131167
0.00122862
0.0010596
0.000882335
0.00111514
0.00131918
0.00119288
0.00107525
0.000194394
0.000292896
0.000356325
0.000308151
0.000240302
0.000415988
0.000630204
0.000580421
0.000529385
0.000417566
0.000868913
0.000655536
0.000963714
0.000323126
0.000452028
0.000405506
0.000733098
0.000557582
0.000819084
0.00124609
0.00157722
0.00144234
0.00134758
0.00148142
0.000728872
0.000959912
0.00189591
0.00141032
0.00166284
0.00116369
0.00145411
0.00129743
0.00113109
0.00148859
0.00137388
0.00185459
0.00161297
0.00195493
0.00189029
0.00204221
0.00186197
0.00104343
0.00103362
0.000910988
0.000962734
0.00128887
0.00109771
0.00119203
0.000632455
0.000698331
0.000928023
0.000792082
0.000869609
0.000741154
0.000838017
0.00111851
0.00112829
0.000980124
0.00121556
0.00116951
0.00133427
0.00101062
0.00106435
0.00102754
0.00101451
0.00105868
0.00115355
0.000818362
0.000678984
0.000963443
0.000876977
0.000989788
0.000948525
0.00104209
0.000959057
0.000995519
0.00111236
0.00104636
0.0011374
0.000978756
0.0010034
0.000749953
0.000881846
0.000807592
0.0010134
0.000914746
0.000922208
0.00106577
0.000962129
0.00107949
0.0011133
0.00114659
0.00112025
0.00152363
0.00111663
0.00217819
0.00186061
0.00179007
0.00184178
0.0021713
0.000614815
0.0010193
0.00171981
0.00131274
0.0011477
0.0015001
0.00204528
0.00134972
0.00164907
0.00127679
0.0021907
0.00191716
0.00193239
0.00160395
0.00181538
0.00192336
0.00244138
0.00231815
0.00248444
0.000377598
0.000434873
0.000260187
0.000307751
0.000369458
0.000323349
0.000284652
0.000163127
0.000176031
0.000152205
0.000154814
0.00014125
0.000185835
0.000219121
0.000242958
0.00020594
0.000197232
0.000245271
0.000211722
0.000288719
0.00015493
0.000172693
0.000158845
0.000225794
0.000187748
0.000235591
0.000293654
0.000195056
0.000630319
0.000416037
0.000236362
0.000305174
0.000348741
0.00114268
0.00130501
0.00109837
0.00124332
0.0013993
0.00115271
0.000890441
0.000444537
0.000548935
0.000623751
0.000398806
0.00045437
0.000324248
0.00100847
0.000666936
0.000880107
0.000727923
0.000815842
0.000548117
0.00134846
0.00163136
0.00124822
0.00207679
0.00187798
0.00203544
0.00164415
0.00174993
0.0018064
0.00103329
0.00134544
0.00123685
0.00138809
0.00135102
0.00115327
0.00194203
0.00162692
0.00196717
0.000894304
0.00106342
0.000802398
0.00162685
0.001301
0.00142811
0.00106015
0.00116992
0.00132695
0.00202808
0.00172143
0.00190475
0.00134907
0.00109441
0.00170016
0.00153206
0.00119191
0.00135568
0.00141621
0.000894813
0.00116879
0.00165338
0.00139679
0.00144036
0.00138634
0.00164211
0.00112383
0.00136393
0.00126281
0.00142291
0.00136535
0.00120967
0.00162837
0.00152954
0.00169436
0.00182814
0.00183026
0.00172468
0.00116067
0.00110957
0.00117924
0.00114115
0.00116722
0.00114534
0.00115615
0.00114114
0.00119696
0.00117561
0.00118103
0.00118092
0.00116987
0.00119664
0.000365097
0.000600654
0.000358093
0.00107363
0.000843809
0.000862815
0.000825786
0.000832088
0.00106725
0.00124969
0.00123338
0.00122193
0.00136521
0.00127007
0.00121146
0.00131218
0.00171577
0.00149453
0.00150823
0.000251103
0.000413475
0.000492915
0.000433851
0.000306603
0.000634443
0.000960371
0.000688177
0.000660269
0.000474687
0.0012466
0.000886829
0.00132377
0.000396449
0.000589453
0.000548246
0.0011113
0.000821271
0.00121582
0.00168603
0.00211
0.00191214
0.00201977
0.00235956
0.000811777
0.00116404
0.00232342
0.00172412
0.00190473
0.00151748
0.00196327
0.00173256
0.00130514
0.00237374
0.00205903
0.00215218
0.00214032
0.00247783
0.0025722
0.00272543
0.0027191
0.000874028
0.00106651
0.000955001
0.000916371
0.00102386
0.00106057
0.00105553
0.00104312
0.00107432
0.0011076
0.000842822
0.00106427
0.000977822
0.000922981
0.0010155
0.0011402
0.00114164
0.00113829
0.00161269
0.0017715
0.00171693
0.00182017
0.00198013
0.001061
0.00131418
0.00116601
0.00130232
0.00161112
0.00125758
0.00185831
0.00152738
0.00130211
0.00136256
0.00185765
0.00168171
0.00195639
0.000391945
0.000900983
0.000592711
0.000404939
0.000457073
0.00136986
0.00137016
0.00143861
0.00129857
0.00116576
0.000591973
0.000501667
0.000532805
0.000781318
0.00109645
0.00102483
0.00109419
0.000746412
0.000401462
0.000297375
0.000341675
0.000318561
0.000262743
0.000213194
0.000162252
0.000178422
0.000222958
0.000255472
0.000176417
0.000217301
0.000184827
0.000155226
0.000153181
0.000242779
0.000191623
0.000228915
0.00152899
0.00225389
0.00189144
0.00159806
0.00168427
0.00105582
0.00158122
0.00126777
0.00158729
0.00216503
0.00135575
0.00164607
0.00148063
0.00157525
0.00172041
0.00232392
0.00211588
0.00210191
SCALARS SignedDistance double 1
LOOKUP_TABLE default
1.02682
1.03206
1.11845
1.14136
1.26824
1.21788
1.01429
1.03834
1.00071
1.12528
1.01188
1.11098
1.07463
1.18156
1.11977
1.12391
1.04338
1.03065
1.03339
1.02096
1.00829
1.03701
1.19965
1.07618
1.19144
1.28682
1.01747
1.08971
1.00168
1.00056
1.01094
1.02134
1.10025
1.22479
1.19587
1.17819
1.19685
1.05999
1.08371
1.00119
1.02077
1.03958
1.04835
1.09797
1.06966
1.14348
1.12656
1.09454
1.17134
1.15668
1.2096
1.07727
1.03941
1.1767
1.13163
1.04034
1.07866
1.07327
1.00005
1.00369
1.00399
1.00014
1.04699
1.03087
1.04718
1.02603
1.00589
1.03131
1.03925
1.00053
1.02234
1.02043
1.01967
1.00209
1.00438
1.04909
1.06845
1.10181
1.05121
1.22053
1.16492
1.10203
1.13536
1.16411
1.23562
1.26361
1.14818
1.18725
1.28207
1.23771
1.23726
1.0664
1.10795
1.00059
1.00619
1.10798
1.06209
1.06019
1.00162
1.00872
1.01745
1.00686
1.00367
1.00192
1.00719
1.04036
1.03185
1.0093
1.02677
1.0086
1.02206
1.00013
1.12137
1.14859
1.16963
1.17735
1.16135
1.11516
1.24114
1.20733
1.25692
1.21211
1.17956
1.22924
1.22639
1.15542
1.19752
1.15379
1.14655
1.11911
1.08376
1.12502
1.04336
1.09378
1.02247
1.04584
1.08718
1.0106
1.03479
1.00009
1.01594
1.0046
1.08153
1.00107
1.03311
1.06647
1.07056
1.27685
1.22236
1.26135
1.12569
1.19234
1.14709
1
1.0271
1.00009
1.00034
1.0052
1.00711
1.05023
1.00565
1.02755
1.03477
1.05947
1.0477
1.08589
1.07359
1.06071
1.09325
1.08416
1.10912
1.12591
1.11983
1.10298
1.15373
1.1383
1.16171
1.0849
1.11075
1.09861
1.19633
1.19191
1.21566
1.13889
1.16538
1.1467
1.19672
1.18347
1.17166
1.11324
1.14377
1.1275
1.05599
1.0323
1.0992
1.0753
1.041
1.06226
1.06454
1.20251
1.17828
1.12975
1.15607
1.15042
1.1519
1.12672
1.03789
1.06166
1.05323
1.0673
1.06425
1.04253
1.09752
1.07737
1.10078
1.10283
1.10536
1.0797
1.01761
1.01382
1.01804
1.0184
1.01959
1.00225
1.01851
1.01863
1.01912
1.01556
1.00171
1.01832
1.01792
1.01854
1.04344
1.04794
1.04363
1.03312
1.04298
1.0407
1.04117
1.04236
1.0302
1.00038
1.01191
1.01628
1.00416
1.01389
1.03123
1.01219
1.00001
1.00051
1.0189
1.03556
1.04074
1.03111
1.03639
1.02621
1.04396
1.03633
1.00692
1.01875
1.01961
1.00534
1.00912
1.00052
1.02043
1.0276
1.0292
1.02758
1.03275
1.01366
1.02063
1.0019
1.01041
1.03085
1.04529
1.00017
1.00104
1.01469
1.00384
1.01221
1.00097
1.00011
1.07722
1.08998
1.06037
1.0697
1.0549
1.06075
1.04285
1.01106
1.0232
1.03154
1.06305
1.03942
1.11386
1.08734
1.06304
1.07573
1.08857
1.22367
1.19877
1.18332
1.19386
1.21236
1.17242
1.14547
1.11351
1.1331
1.14411
1.10358
1.11888
1.08934
1.18348
1.15166
1.16821
1.13319
1.15192
1.11934
1.23508
1.23902
1.20787
1.22443
1.27966
1.25386
1.26425
1.12829
1.14589
1.18806
1.16605
1.16796
1.1645
1.18528
1.27528
1.26037
1.25473
1.26366
1.26119
1.28689
1.21586
1.23798
1.2138
1.21252
1.21226
1.23986
1.08575
1.10955
1.05407
1.0641
1.10772
1.08645
1.08034
1.00624
1.00349
1.01109
1.00994
1.00722
1.00566
1.02491
1.11737
1.09093
1.09277
1.08072
1.08781
1.09453
1.02833
1.05762
1.01534
1.04374
1.03065
1.06399
1.01322
1.01522
1.00923
1.00939
1.0035
1.00611
1.00129
1.02932
1.0242
1.00002
1.01191
1.00539
1.01917
1.01429
1.0091
1.00524
1.00875
1.00063
1.00255
1.00043
1.00476
1.00428
1.00237
1.00059
1.00063
1.00035
1.04128
1.03583
1.03781
1.04462
1.02697
1.03721
1.03214
1.0192
1.0052
1.02094
1.00434
1.00172
1.01506
1.02993
1.00222
1.01052
1.00272
1.02569
1.01945
1.01511
1.0009
1.00986
1.00645
1.03005
1.0178
1.03406
1.13526
1.14478
1.15764
1.12475
1.12693
1.10475
1.17997
1.15411
1.1715
1.14935
1.14621
1.12123
1.19466
1.17138
1.20155
1.10896
1.14002
1.13136
1.26202
1.24969
1.26762
1.20027
1.2263
1.21895
1.24375
1.23492
1.21657
1.15289
1.18462
1.17559
1.18048
1.15972
1.20297
1.19421
1.19312
1.19965
1.21487
1.25111
1.24861
1.2028
1.22505
1.20394
1.23692
1.2164
1.13518
1.16029
1.13939
1.20195
1.18208
1.17609
1.16366
1.17611
1.18824
1.22406
1.21134
1.22086
1.15129
1.13134
1.17614
1.16491
1.10529
1.13591
1.11713
1.10185
1.11976
1.09309
1.1038
1.07369
1.14081
1.16173
1.02431
1.03839
1.01692
1.0935
1.06946
1.06577
1.03557
1.05541
1.07696
1.14746
1.11257
1.1264
1.10031
1.11815
1.06747
1.08585
1.05544
1.06823
1.02825
1.01444
1.02075
1.01264
1.01631
1.00484
1.03907
1.05933
1.00173
1.0065
1.00333
1.00455
1.00726
1.0066
1.00292
1.00933
1.00953
1.04331
1.02518
1.01893
1.11028
1.052
1.0833
1.10176
1.08919
1.00007
1.00379
1.03344
1.0139
1.01295
1.01278
1.02527
1.09357
1.0985
1.07683
1.0856
1.04718
1.06475
1.05379
1.05693
1.06095
1.0747
1.27695
1.25006
1.26643
1.2832
1.28705
1.17228
1.21259
1.19462
1.20186
1.22837
1.24668
1.28305
1.26993
1.24229
1.23054
1.25168
1.24415
1.27399
1.13015
1.15247
1.13828
1.11443
1.10634
1.23653
1.19413
1.21585
1.21087
1.18289
1.12812
1.11975
1.13039
1.14905
1.17035
1.15906
1.1692
1.13755
1.00842
1.01565
1.00684
1.0023
1
1.06861
1.01781
1.04149
1.05663
1.04367
1.00786
1.00003
1.0033
1.00001
1.00007
1.007
1.00291
1
1.00125
1.00145
1.00117
1.00179
1.0085
1.0089
1.00387
1.00714
1.00746
1.00495
1.02435
1.0147
1.01947
1.01204
1.00002
1.00252
1.00164
1.00075
1.08334
1.03038
1.05865
1.07457
1.06451
1.0005
1.00155
1.00055
1.00485
1.01528
1.02394
1.04899
1.03408
1.01428
1.00091
1.03401
1.01937
1.03739
