# vtk DataFile Version 4.2
vtk output
ASCII
DATASET POLYDATA
POINTS 642 double
-nan(ind) -nan(ind) -nan(ind)
-nan(ind) -nan(ind) -nan(ind)
-nan(ind) -nan(ind) -nan(ind)
-nan(ind) -nan(ind) -nan(ind)
-nan(ind) -nan(ind) -nan(ind)
-nan(ind) -nan(ind) -nan(ind)
-nan(ind) -nan(ind) -nan(ind)
-nan(ind) -nan(ind) -nan(ind)
-nan(ind) -nan(ind) -nan(ind)
-nan(ind) -nan(ind) -nan(ind)
-nan(ind) -nan(ind) -nan(ind)
-nan(ind) -nan(ind) -nan(ind)
-nan(ind) -nan(ind) -nan(ind)
-nan(ind) -nan(ind) -nan(ind)
-nan(ind) -nan(ind) -nan(ind)
-nan(ind) -nan(ind) -nan(ind)
-nan(ind) -nan(ind) -nan(ind)
-nan(ind) -nan(ind) -nan(ind)
-nan(ind) -nan(ind) -nan(ind)
-nan(ind) -nan(ind) -nan(ind)
-nan(ind) -nan(ind) -nan(ind)
-nan(ind) -nan(ind) -nan(ind)
-nan(ind) -nan(ind) -nan(ind)
-nan(ind) -nan(ind) -nan(ind)
-nan(ind) -nan(ind) -nan(ind)
-nan(ind) -nan(ind) -nan(ind)
-nan(ind) -nan(ind) -nan(ind)
-nan(ind) -nan(ind) -nan(ind)
-nan(ind) -nan(ind) -nan(ind)
-nan(ind) -nan(ind) -nan(ind)
-nan(ind) -nan(ind) -nan(ind)
-nan(ind) -nan(ind) -nan(ind)
-nan(ind) -nan(ind) -nan(ind)
-nan(ind) -nan(ind) -nan(ind)
-nan(ind) -nan(ind) -nan(ind)
-nan(ind) -nan(ind) -nan(ind)
-nan(ind) -nan(ind) -nan(ind)
-nan(ind) -nan(ind) -nan(ind)
-nan(ind) -nan(ind) -nan(ind)
-nan(ind) -nan(ind) -nan(ind)
-nan(ind) -nan(ind) -nan(ind)
-nan(ind) -nan(ind) -nan(ind)
-nan(ind) -nan(ind) -nan(ind)
-nan(ind) -nan(ind) -nan(ind)
-nan(ind) -nan(ind) -nan(ind)
-nan(ind) -nan(ind) -nan(ind)
-nan(ind) -nan(ind) -nan(ind)
-nan(ind) -nan(ind) -nan(ind)
-nan(ind) -nan(ind) -nan(ind)
-nan(ind) -nan(ind) -nan(ind)
-nan(ind) -nan(ind) -nan(ind)
-nan(ind) -nan(ind) -nan(ind)
-nan(ind) -nan(ind) -nan(ind)
-nan(ind) -nan(ind) -nan(ind)
-nan(ind) -nan(ind) -nan(ind)
-nan(ind) -nan(ind) -nan(ind)
-nan(ind) -nan(ind) -nan(ind)
-nan(ind) -nan(ind) -nan(ind)
-nan(ind) -nan(ind) -nan(ind)
-nan(ind) -nan(ind) -nan(ind)
-nan(ind) -nan(ind) -nan(ind)
-nan(ind) -nan(ind) -nan(ind)
-nan(ind) -nan(ind) -nan(ind)
-nan(ind) -nan(ind) -nan(ind)
-nan(ind) -nan(ind) -nan(ind)
-nan(ind) -nan(ind) -nan(ind)
-nan(ind) -nan(ind) -nan(ind)
-nan(ind) -nan(ind) -nan(ind)
-nan(ind) -nan(ind) -nan(ind)
-nan(ind) -nan(ind) -nan(ind)
-nan(ind) -nan(ind) -nan(ind)
-nan(ind) -nan(ind) -nan(ind)
-nan(ind) -nan(ind) -nan(ind)
-nan(ind) -nan(ind) -nan(ind)
-nan(ind) -nan(ind) -nan(ind)
-nan(ind) -nan(ind) -nan(ind)
-nan(ind) -nan(ind) -nan(ind)
-nan(ind) -nan(ind) -nan(ind)
-nan(ind) -nan(ind) -nan(ind)
-nan(ind) -nan(ind) -nan(ind)
-nan(ind) -nan(ind) -nan(ind)
-nan(ind) -nan(ind) -nan(ind)
-nan(ind) -nan(ind) -nan(ind)
-nan(ind) -nan(ind) -nan(ind)
-nan(ind) -nan(ind) -nan(ind)
-nan(ind) -nan(ind) -nan(ind)
-nan(ind) -nan(ind) -nan(ind)
-nan(ind) -nan(ind) -nan(ind)
-nan(ind) -nan(ind) -nan(ind)
-nan(ind) -nan(ind) -nan(ind)
-nan(ind) -nan(ind) -nan(ind)
-nan(ind) -nan(ind) -nan(ind)
-nan(ind) -nan(ind) -nan(ind)
-nan(ind) -nan(ind) -nan(ind)
-nan(ind) -nan(ind) -nan(ind)
-nan(ind) -nan(ind) -nan(ind)
-nan(ind) -nan(ind) -nan(ind)
-nan(ind) -nan(ind) -nan(ind)
-nan(ind) -nan(ind) -nan(ind)
-nan(ind) -nan(ind) -nan(ind)
-nan(ind) -nan(ind) -nan(ind)
-nan(ind) -nan(ind) -nan(ind)
-nan(ind) -nan(ind) -nan(ind)
-nan(ind) -nan(ind) -nan(ind)
-nan(ind) -nan(ind) -nan(ind)
-nan(ind) -nan(ind) -nan(ind)
-nan(ind) -nan(ind) -nan(ind)
-nan(ind) -nan(ind) -nan(ind)
-nan(ind) -nan(ind) -nan(ind)
-nan(ind) -nan(ind) -nan(ind)
-nan(ind) -nan(ind) -nan(ind)
-nan(ind) -nan(ind) -nan(ind)
-nan(ind) -nan(ind) -nan(ind)
-nan(ind) -nan(ind) -nan(ind)
-nan(ind) -nan(ind) -nan(ind)
-nan(ind) -nan(ind) -nan(ind)
-nan(ind) -nan(ind) -nan(ind)
-nan(ind) -nan(ind) -nan(ind)
-nan(ind) -nan(ind) -nan(ind)
-nan(ind) -nan(ind) -nan(ind)
-nan(ind) -nan(ind) -nan(ind)
-nan(ind) -nan(ind) -nan(ind)
-nan(ind) -nan(ind) -nan(ind)
-nan(ind) -nan(ind) -nan(ind)
-nan(ind) -nan(ind) -nan(ind)
-nan(ind) -nan(ind) -nan(ind)
-nan(ind) -nan(ind) -nan(ind)
-nan(ind) -nan(ind) -nan(ind)
-nan(ind) -nan(ind) -nan(ind)
-nan(ind) -nan(ind) -nan(ind)
-nan(ind) -nan(ind) -nan(ind)
-nan(ind) -nan(ind) -nan(ind)
-nan(ind) -nan(ind) -nan(ind)
-nan(ind) -nan(ind) -nan(ind)
-nan(ind) -nan(ind) -nan(ind)
-nan(ind) -nan(ind) -nan(ind)
-nan(ind) -nan(ind) -nan(ind)
-nan(ind) -nan(ind) -nan(ind)
-nan(ind) -nan(ind) -nan(ind)
-nan(ind) -nan(ind) -nan(ind)
-nan(ind) -nan(ind) -nan(ind)
-nan(ind) -nan(ind) -nan(ind)
-nan(ind) -nan(ind) -nan(ind)
-nan(ind) -nan(ind) -nan(ind)
-nan(ind) -nan(ind) -nan(ind)
-nan(ind) -nan(ind) -nan(ind)
-nan(ind) -nan(ind) -nan(ind)
-nan(ind) -nan(ind) -nan(ind)
-nan(ind) -nan(ind) -nan(ind)
-nan(ind) -nan(ind) -nan(ind)
-nan(ind) -nan(ind) -nan(ind)
-nan(ind) -nan(ind) -nan(ind)
-nan(ind) -nan(ind) -nan(ind)
-nan(ind) -nan(ind) -nan(ind)
-nan(ind) -nan(ind) -nan(ind)
-nan(ind) -nan(ind) -nan(ind)
-nan(ind) -nan(ind) -nan(ind)
-nan(ind) -nan(ind) -nan(ind)
-nan(ind) -nan(ind) -nan(ind)
-nan(ind) -nan(ind) -nan(ind)
-nan(ind) -nan(ind) -nan(ind)
-nan(ind) -nan(ind) -nan(ind)
-nan(ind) -nan(ind) -nan(ind)
-nan(ind) -nan(ind) -nan(ind)
-nan(ind) -nan(ind) -nan(ind)
-nan(ind) -nan(ind) -nan(ind)
-nan(ind) -nan(ind) -nan(ind)
-nan(ind) -nan(ind) -nan(ind)
-nan(ind) -nan(ind) -nan(ind)
-nan(ind) -nan(ind) -nan(ind)
-nan(ind) -nan(ind) -nan(ind)
-nan(ind) -nan(ind) -nan(ind)
-nan(ind) -nan(ind) -nan(ind)
-nan(ind) -nan(ind) -nan(ind)
-nan(ind) -nan(ind) -nan(ind)
-nan(ind) -nan(ind) -nan(ind)
-nan(ind) -nan(ind) -nan(ind)
-nan(ind) -nan(ind) -nan(ind)
-nan(ind) -nan(ind) -nan(ind)
-nan(ind) -nan(ind) -nan(ind)
-nan(ind) -nan(ind) -nan(ind)
-nan(ind) -nan(ind) -nan(ind)
-nan(ind) -nan(ind) -nan(ind)
-nan(ind) -nan(ind) -nan(ind)
-nan(ind) -nan(ind) -nan(ind)
-nan(ind) -nan(ind) -nan(ind)
-nan(ind) -nan(ind) -nan(ind)
-nan(ind) -nan(ind) -nan(ind)
-nan(ind) -nan(ind) -nan(ind)
-nan(ind) -nan(ind) -nan(ind)
-nan(ind) -nan(ind) -nan(ind)
-nan(ind) -nan(ind) -nan(ind)
-nan(ind) -nan(ind) -nan(ind)
-nan(ind) -nan(ind) -nan(ind)
-nan(ind) -nan(ind) -nan(ind)
-nan(ind) -nan(ind) -nan(ind)
-nan(ind) -nan(ind) -nan(ind)
-nan(ind) -nan(ind) -nan(ind)
-nan(ind) -nan(ind) -nan(ind)
-nan(ind) -nan(ind) -nan(ind)
-nan(ind) -nan(ind) -nan(ind)
-nan(ind) -nan(ind) -nan(ind)
-nan(ind) -nan(ind) -nan(ind)
-nan(ind) -nan(ind) -nan(ind)
-nan(ind) -nan(ind) -nan(ind)
-nan(ind) -nan(ind) -nan(ind)
-nan(ind) -nan(ind) -nan(ind)
-nan(ind) -nan(ind) -nan(ind)
-nan(ind) -nan(ind) -nan(ind)
-nan(ind) -nan(ind) -nan(ind)
-nan(ind) -nan(ind) -nan(ind)
-nan(ind) -nan(ind) -nan(ind)
-nan(ind) -nan(ind) -nan(ind)
-nan(ind) -nan(ind) -nan(ind)
-nan(ind) -nan(ind) -nan(ind)
-nan(ind) -nan(ind) -nan(ind)
-nan(ind) -nan(ind) -nan(ind)
-nan(ind) -nan(ind) -nan(ind)
-nan(ind) -nan(ind) -nan(ind)
-nan(ind) -nan(ind) -nan(ind)
-nan(ind) -nan(ind) -nan(ind)
-nan(ind) -nan(ind) -nan(ind)
-nan(ind) -nan(ind) -nan(ind)
-nan(ind) -nan(ind) -nan(ind)
-nan(ind) -nan(ind) -nan(ind)
-nan(ind) -nan(ind) -nan(ind)
-nan(ind) -nan(ind) -nan(ind)
-nan(ind) -nan(ind) -nan(ind)
-nan(ind) -nan(ind) -nan(ind)
-nan(ind) -nan(ind) -nan(ind)
-nan(ind) -nan(ind) -nan(ind)
-nan(ind) -nan(ind) -nan(ind)
-nan(ind) -nan(ind) -nan(ind)
-nan(ind) -nan(ind) -nan(ind)
-nan(ind) -nan(ind) -nan(ind)
-nan(ind) -nan(ind) -nan(ind)
-nan(ind) -nan(ind) -nan(ind)
-nan(ind) -nan(ind) -nan(ind)
-nan(ind) -nan(ind) -nan(ind)
-nan(ind) -nan(ind) -nan(ind)
-nan(ind) -nan(ind) -nan(ind)
-nan(ind) -nan(ind) -nan(ind)
-nan(ind) -nan(ind) -nan(ind)
-nan(ind) -nan(ind) -nan(ind)
-nan(ind) -nan(ind) -nan(ind)
-nan(ind) -nan(ind) -nan(ind)
-nan(ind) -nan(ind) -nan(ind)
-nan(ind) -nan(ind) -nan(ind)
-nan(ind) -nan(ind) -nan(ind)
-nan(ind) -nan(ind) -nan(ind)
-nan(ind) -nan(ind) -nan(ind)
-nan(ind) -nan(ind) -nan(ind)
-nan(ind) -nan(ind) -nan(ind)
-nan(ind) -nan(ind) -nan(ind)
-nan(ind) -nan(ind) -nan(ind)
-nan(ind) -nan(ind) -nan(ind)
-nan(ind) -nan(ind) -nan(ind)
-nan(ind) -nan(ind) -nan(ind)
-nan(ind) -nan(ind) -nan(ind)
-nan(ind) -nan(ind) -nan(ind)
-nan(ind) -nan(ind) -nan(ind)
-nan(ind) -nan(ind) -nan(ind)
-nan(ind) -nan(ind) -nan(ind)
-nan(ind) -nan(ind) -nan(ind)
-nan(ind) -nan(ind) -nan(ind)
-nan(ind) -nan(ind) -nan(ind)
-nan(ind) -nan(ind) -nan(ind)
-nan(ind) -nan(ind) -nan(ind)
-nan(ind) -nan(ind) -nan(ind)
-nan(ind) -nan(ind) -nan(ind)
-nan(ind) -nan(ind) -nan(ind)
-nan(ind) -nan(ind) -nan(ind)
-nan(ind) -nan(ind) -nan(ind)
-nan(ind) -nan(ind) -nan(ind)
-nan(ind) -nan(ind) -nan(ind)
-nan(ind) -nan(ind) -nan(ind)
-nan(ind) -nan(ind) -nan(ind)
-nan(ind) -nan(ind) -nan(ind)
-nan(ind) -nan(ind) -nan(ind)
-nan(ind) -nan(ind) -nan(ind)
-nan(ind) -nan(ind) -nan(ind)
-nan(ind) -nan(ind) -nan(ind)
-nan(ind) -nan(ind) -nan(ind)
-nan(ind) -nan(ind) -nan(ind)
-nan(ind) -nan(ind) -nan(ind)
-nan(ind) -nan(ind) -nan(ind)
-nan(ind) -nan(ind) -nan(ind)
-nan(ind) -nan(ind) -nan(ind)
-nan(ind) -nan(ind) -nan(ind)
-nan(ind) -nan(ind) -nan(ind)
-nan(ind) -nan(ind) -nan(ind)
-nan(ind) -nan(ind) -nan(ind)
-nan(ind) -nan(ind) -nan(ind)
-nan(ind) -nan(ind) -nan(ind)
-nan(ind) -nan(ind) -nan(ind)
-nan(ind) -nan(ind) -nan(ind)
-nan(ind) -nan(ind) -nan(ind)
-nan(ind) -nan(ind) -nan(ind)
-nan(ind) -nan(ind) -nan(ind)
-nan(ind) -nan(ind) -nan(ind)
-nan(ind) -nan(ind) -nan(ind)
-nan(ind) -nan(ind) -nan(ind)
-nan(ind) -nan(ind) -nan(ind)
-nan(ind) -nan(ind) -nan(ind)
-nan(ind) -nan(ind) -nan(ind)
-nan(ind) -nan(ind) -nan(ind)
-nan(ind) -nan(ind) -nan(ind)
-nan(ind) -nan(ind) -nan(ind)
-nan(ind) -nan(ind) -nan(ind)
-nan(ind) -nan(ind) -nan(ind)
-nan(ind) -nan(ind) -nan(ind)
-nan(ind) -nan(ind) -nan(ind)
-nan(ind) -nan(ind) -nan(ind)
-nan(ind) -nan(ind) -nan(ind)
-nan(ind) -nan(ind) -nan(ind)
-nan(ind) -nan(ind) -nan(ind)
-nan(ind) -nan(ind) -nan(ind)
-nan(ind) -nan(ind) -nan(ind)
-nan(ind) -nan(ind) -nan(ind)
-nan(ind) -nan(ind) -nan(ind)
-nan(ind) -nan(ind) -nan(ind)
-nan(ind) -nan(ind) -nan(ind)
-nan(ind) -nan(ind) -nan(ind)
-nan(ind) -nan(ind) -nan(ind)
-nan(ind) -nan(ind) -nan(ind)
-nan(ind) -nan(ind) -nan(ind)
-nan(ind) -nan(ind) -nan(ind)
-nan(ind) -nan(ind) -nan(ind)
-nan(ind) -nan(ind) -nan(ind)
-nan(ind) -nan(ind) -nan(ind)
[...]
POINT_DATA 642
SCALARS Mean_Curvature double 1
LOOKUP_TABLE default
37.0749
37.5439
41.9398
39.286
34.1696
77.2063
197.231
161.239
83.7542
46.4885
73.4385
46.6571
42.428
70.1211
65.4579
66.0623
39.0765
47.6033
46.4864
146.744
34.4624
30.4322
67.2879
43.4733
54.1505
52.8386
55.4109
36.2299
-nan(ind)
192.201
36.4462
158.931
37.3614
50.5472
33.5051
39.0816
33.5663
76.1843
69.3473
194.756
54.216
31.3511
39.0802
55.5212
47.9701
57.9069
59.0507
45.4168
76.0371
70.911
74.9558
52.8103
38.3748
75.9269
68.825
38.6121
53.1349
48.6925
34.7014
33.7202
34.1129
34.7781
94.0059
48.8255
96.6367
40.6355
32.3422
163.206
86.1115
50.5445
69.2242
107.486
31.8214
41.0218
32.0997
32.101
35.0362
56.7494
39.795
73.1053
70.4493
46.0114
59.5415
56.9073
65.6681
67.3771
51.5539
63.5053
40.7223
53.8015
43.8218
31.919
39.2805
65.7065
37.9833
38.091
36.6789
46.1748
189.497
125.005
-nan(ind)
-nan(ind)
214.13
-nan(ind)
-nan(ind)
91.9601
169.763
32.6562
43.495
120.613
77.003
56.6975
38.1687
39.9949
35.8977
50.2093
43.6445
39.6889
32.3507
42.0188
38.9276
28.9645
34.5246
36.0603
29.8382
38.0302
31.7436
38.2029
42.0773
45.0937
50.5819
45.1743
134.806
69.9584
141.627
67.826
44.1296
213.674
132.635
72.2811
111.214
137.436
37.1745
44.2623
38.2796
33.1511
35.8067
47.8448
59.1473
60.8371
40.4778
46.1155
44.0162
141.908
73.1909
108.04
201.511
-nan(ind)
-nan(ind)
33.151
33.2059
32.3017
37.8629
43.9775
40.83
49.1161
46.7235
40.6734
56.7148
52.1923
61.3243
51.6225
52.403
46.4172
65.9273
59.0446
64.2913
44.0368
51.9907
50.8834
77.9433
76.6791
76.184
68.7699
74.3715
71.9673
73.1422
74.633
71.2884
57.8198
65.8374
64.2834
42.8924
37.8496
60.0501
50.7666
38.8035
44.2963
45.1705
77.898
76.792
68.0244
73.5667
72.1967
73.5863
67.6897
38.0884
43.2901
41.3342
45.2109
44.5605
38.8427
57.5378
51.3528
60.6555
61.6801
61.9234
53.5235
34.7163
33.9601
35.2431
35.0366
36.3136
34.2725
36.9541
34.1968
34.9383
37.2005
34.4979
37.6242
35.0896
35.2072
129.172
94.8469
130.485
47.3613
66.9777
65.0451
68.2859
68.0568
48.6737
34.8041
38.0491
37.6606
32.9124
33.4534
44.6367
34.6435
32.4968
33.3369
37.6303
103.486
127.43
116.042
124.472
159.008
91.5226
61.569
62.0335
74.001
88.063
46.8328
59.2709
41.1597
128.596
88.2227
103.146
58.9523
78.9024
52.9349
33.9378
31.8944
31.9366
34.4764
35.355
54.8406
44.1713
31.1013
35.043
33.3765
37.4338
33.0524
39.4754
41.014
36.5554
38.0146
30.6604
33.3437
29.9113
31.0342
30.2394
31.7001
44.7662
38.3119
62.1565
53.1815
41.6207
47.8693
50.3649
75.4359
75.9143
69.7399
73.3676
70.3592
74.0297
69.0097
46.5554
52.2809
50.9943
51.933
52.5419
44.9659
62.9676
58.8002
65.4484
64.757
65.8526
58.8582
72.1033
73.3589
69.9247
71.1565
59.7474
65.8274
58.8686
49.0427
55.4021
59.0011
57.8469
53.5462
61.5293
67.3158
36.5543
41.0802
37.2996
52.1403
46.1247
46.3407
51.4734
48.5646
55.9869
65.9927
61.1794
59.7421
37.0147
42.721
30.7219
32.4586
37.1385
34.8535
33.8494
70.1343
51.0864
46.238
48.7002
60.7822
39.352
32.603
39.6164
40.0226
43.5842
35.1225
37.2428
36.9834
50.5135
41.138
43.2245
32.4872
37.2779
33.6163
121.32
93.5652
172.606
148.604
160.737
159.637
197.21
-nan(ind)
198.169
-nan(ind)
-nan(ind)
-nan(ind)
154.926
171.384
213.587
119.869
-nan(ind)
205.948
156.126
212.155
-nan(ind)
-nan(ind)
-nan(ind)
167.544
-nan(ind)
182.528
132.027
166.48
64.3822
96.1885
168.523
131.908
125.395
33.755
33.2565
39.4997
34.5446
32.9409
35.3349
46.3513
100.128
83.4428
70.3757
113.481
99.0112
141.925
45.0082
66.0477
51.2397
62.4171
57.6199
85.9668
38.5739
37.8787
36.8958
39.0203
38.5087
37.6513
35.0881
38.6792
39.0594
48.2698
44.7119
42.7088
48.3062
46.8293
51.7729
38.0392
41.7796
39.7484
32.3367
34.9907
35.1791
37.46
36.488
32.3955
45.1166
40.6008
46.4021
41.3322
44.8105
41.9972
33.9807
37.0653
30.1299
31.7927
33.1021
31.2389
30.4405
33.7812
31.9854
33.9118
32.8197
37.9962
30.2916
29.431
40.7692
37.4601
39.0505
31.8868
34.3885
35.4067
38.8544
35.5054
34.3731
27.5148
29.2807
28.921
38.8417
40.8227
36.5062
37.1
53.2548
43.3151
52.1592
45.111
43.1997
57.0474
48.1145
59.6008
40.484
38.1033
175.911
137.148
180.471
68.5754
97.4665
96.2475
103.693
101.094
72.815
42.7698
53.8569
51.5119
45.9059
41.4017
69.8958
53.9761
48.6481
52.9612
62.9366
154.589
176.792
168.721
177.133
209.485
135.658
96.9482
79.1444
102.406
105.859
77.4629
91.5506
63.3867
169.634
128.276
152.684
94.4647
124.768
88.0097
39.4239
42.572
40.7634
37.7895
36.1906
62.0322
56.0916
33.3649
40.9582
34.652
50.6086
45.8324
37.6268
41.413
35.2512
35.9873
31.7557
33.4127
31.7196
37.0873
33.1953
34.487
38.4328
49.1153
43.0086
43.1962
48.7435
53.9798
63.5084
59.4712
55.6043
54.8086
70.6106
55.6868
63.4424
67.838
65.3982
54.0871
59.7695
53.7806
38.3951
41.4308
39.4773
38.5936
38.6602
38.5944
50.0955
46.2004
41.7814
42.5608
45.0881
39.2793
41.7504
47.6491
49.5691
43.0992
45.68
41.5414
185.757
104.991
145.574
186.052
174.614
50.1021
65.3752
56.8074
60.1005
76.8743
91.685
150.784
119.845
85.0144
76.2361
100.794
90.2683
128.976
135.641
205.671
172.896
163.542
185.746
230.548
-nan(ind)
-nan(ind)
201.043
206.923
32.6847
192.736
105.222
-nan(ind)
-nan(ind)
191.281
-nan(ind)
182.311
40.1244
31.1928
34.2744
38.8769
37.4452
49.5325
34.5001
40.4349
37.0914
32.0001
34.3168
36.1086
35.0241
32.1925
32.4487
31.0814
31.5015
32.6057
SCALARS CoVolArea double 1
LOOKUP_TABLE default
4.63912e-05
4.91428e-05
4.28669e-05
4.11534e-05
1.50032e-05
6.30856e-06
0
0
7.87074e-06
3.09455e-05
8.07438e-06
2.83366e-05
6.22143e-05
1.92257e-05
2.08338e-05
2.13235e-05
7.89383e-05
3.61973e-05
3.65437e-05
1.44384e-06
8.05085e-05
0.000163501
1.98355e-05
6.68757e-05
3.37865e-05
1.72972e-05
5.8807e-05
0.00012873
0
1.29297e-06
8.18641e-05
1.2981e-06
0.00013342
3.29132e-05
7.87689e-05
7.98918e-05
5.87003e-05
2.16411e-05
2.21847e-05
1.25328e-06
6.32569e-05
0.0001829
6.6501e-05
3.36359e-05
3.96213e-05
2.79448e-05
3.03591e-05
5.01493e-05
1.21069e-05
1.84735e-05
1.25967e-05
3.70159e-05
7.14615e-05
1.24137e-05
1.89059e-05
7.45129e-05
3.7793e-05
4.12913e-05
0.000108561
9.73807e-05
0.000101484
0.000110758
5.45068e-06
3.78319e-05
5.35671e-06
4.93874e-05
0.000108291
2.75909e-07
7.2027e-06
2.93673e-05
1.35249e-05
4.47451e-06
0.00013366
6.46642e-05
0.000132821
0.000128573
0.00010051
3.43237e-05
7.0855e-05
1.28421e-05
1.86842e-05
5.65727e-05
3.18696e-05
3.00291e-05
1.742e-05
1.33691e-05
3.79055e-05
2.48314e-05
1.87268e-05
2.14181e-05
2.66115e-05
0.00016754
8.12912e-05
2.50263e-05
0.000122273
0.000105382
0.000141309
7.55644e-05
2.63118e-07
4.17092e-06
0
0
2.53709e-07
0
0
6.66161e-06
2.64346e-07
0.000115203
4.80536e-05
4.08901e-06
1.23022e-05
2.88038e-05
0.000104502
0.000102354
8.37588e-05
3.83247e-05
7.1401e-05
8.65038e-05
4.27824e-05
5.58053e-05
2.59375e-05
8.28802e-05
5.77633e-05
4.36058e-05
7.59966e-05
5.92342e-05
8.37951e-05
8.51772e-05
4.25087e-05
4.71266e-05
4.82576e-05
4.33479e-05
4.85389e-06
2.06819e-05
4.67395e-06
3.33981e-05
7.53857e-05
2.63253e-07
6.04971e-06
2.58885e-05
1.08185e-05
3.95526e-06
0.000145961
6.89293e-05
0.000132745
0.000181792
0.000114958
2.10581e-05
2.45776e-05
1.7783e-05
0.000102125
5.67328e-05
7.1177e-05
5.77533e-06
3.18677e-05
1.05953e-05
2.44651e-07
0
0
0.000145497
0.000145075
0.000146845
6.15269e-05
4.83317e-05
4.87524e-05
4.5083e-05
4.57769e-05
6.38652e-05
2.78941e-05
3.46503e-05
2.56175e-05
3.09133e-05
3.48131e-05
4.10526e-05
2.31395e-05
2.78537e-05
2.27318e-05
5.49677e-05
3.76404e-05
4.22194e-05
9.30828e-06
1.17156e-05
9.65516e-06
1.90778e-05
1.40715e-05
1.50885e-05
1.50542e-05
1.41941e-05
1.85497e-05
3.42525e-05
2.52106e-05
2.60919e-05
5.07764e-05
6.25167e-05
2.63886e-05
3.63503e-05
7.4074e-05
5.12013e-05
5.4355e-05
9.39134e-06
1.15229e-05
1.96085e-05
1.41838e-05
1.55826e-05
1.39687e-05
1.92716e-05
6.57529e-05
5.30514e-05
5.12987e-05
5.50186e-05
5.29214e-05
7.59304e-05
2.86807e-05
3.76292e-05
2.69859e-05
2.76209e-05
2.78519e-05
3.9904e-05
9.22566e-05
8.19607e-05
0.00010592
9.72934e-05
7.07416e-05
9.9609e-05
7.42538e-05
8.68246e-05
9.67587e-05
7.5448e-05
0.000103073
7.18226e-05
0.000100663
0.000107187
1.68991e-06
5.36891e-06
1.67453e-06
3.74251e-05
1.37776e-05
1.42073e-05
1.38971e-05
1.37057e-05
3.74434e-05
0.000119143
8.33926e-05
8.28214e-05
9.98266e-05
8.2821e-05
4.04735e-05
7.70798e-05
0.000103522
8.78323e-05
6.21154e-05
2.44182e-07
2.08074e-06
3.35153e-06
2.27573e-06
5.96289e-07
5.7232e-06
1.66835e-05
1.63917e-05
1.11853e-05
6.74089e-06
3.64464e-05
1.92021e-05
4.86292e-05
2.7053e-06
7.04557e-06
4.75813e-06
2.17468e-05
1.01537e-05
2.85132e-05
9.3774e-05
0.000129327
0.000119523
9.55003e-05
9.76872e-05
2.55234e-05
4.44955e-05
0.000153959
9.4187e-05
0.00011978
6.88154e-05
0.000106398
7.0361e-05
5.79372e-05
9.13434e-05
7.85924e-05
0.000143119
0.000110737
0.000158566
0.000158127
0.000170165
0.000143964
5.07795e-05
6.54431e-05
2.60814e-05
3.57541e-05
6.80706e-05
4.77364e-05
4.69372e-05
9.77273e-06
1.19309e-05
1.8901e-05
1.44021e-05
1.53804e-05
1.44466e-05
1.94699e-05
4.63353e-05
3.85845e-05
3.34439e-05
4.45762e-05
4.10022e-05
6.03622e-05
2.41209e-05
3.01373e-05
2.42606e-05
2.63479e-05
2.57307e-05
3.50672e-05
1.24282e-05
1.00464e-05
1.78687e-05
1.43658e-05
1.52975e-05
1.46513e-05
1.72876e-05
3.59905e-05
3.0795e-05
2.85347e-05
2.9229e-05
3.53872e-05
2.52304e-05
2.16404e-05
1.8197e-05
2.08542e-05
2.1647e-05
1.86505e-05
1.9103e-05
1.76112e-05
2.94933e-05
2.28005e-05
2.625e-05
2.19264e-05
2.4843e-05
2.08693e-05
9.01734e-05
5.25345e-05
0.000172371
0.000133523
0.000106711
0.000120809
0.000150176
1.51872e-05
4.09644e-05
8.69718e-05
5.9169e-05
3.83506e-05
8.8307e-05
0.000152777
7.49662e-05
9.33057e-05
6.40364e-05
0.000149083
0.000120832
0.000122741
7.16007e-05
0.00010234
0.000104688
0.000182027
0.000151129
0.000178892
3.68713e-06
6.47123e-06
5.59556e-07
1.88471e-06
2.46983e-06
1.83962e-06
5.31313e-07
0
0
0
0
0
0
0
0
0
0
0
0
5.33349e-07
0
0
0
0
0
0
2.01735e-06
2.41212e-07
1.59281e-05
5.4707e-06
5.45719e-07
2.13371e-06
3.03531e-06
8.85691e-05
0.000104983
6.1185e-05
8.98932e-05
0.000107978
7.82501e-05
3.95002e-05
6.3369e-06
1.04198e-05
1.60241e-05
4.24841e-06
6.35859e-06
2.43419e-06
4.82613e-05
1.7945e-05
3.47574e-05
2.03858e-05
2.66905e-05
9.20836e-06
7.29348e-05
9.13581e-05
6.57959e-05
0.000116748
0.00010796
0.000124906
8.56856e-05
9.52279e-05
8.89951e-05
3.76884e-05
5.55343e-05
5.65129e-05
4.7644e-05
5.05611e-05
3.4894e-05
0.000111988
7.62087e-05
0.000102964
2.73381e-05
3.24234e-05
2.12496e-05
6.94367e-05
4.66648e-05
5.90072e-05
2.8597e-05
3.62032e-05
4.27845e-05
9.73258e-05
6.76632e-05
8.52689e-05
6.93839e-05
5.31202e-05
8.58685e-05
8.03227e-05
5.64847e-05
6.85512e-05
7.10786e-05
2.75634e-05
4.14541e-05
7.75349e-05
5.72812e-05
6.06324e-05
5.64191e-05
7.6056e-05
5.52328e-05
7.11699e-05
6.78702e-05
7.16955e-05
6.97496e-05
5.75892e-05
8.64372e-05
8.1376e-05
8.68267e-05
9.10093e-05
9.16724e-05
8.83852e-05
5.09322e-05
5.03055e-05
5.05412e-05
4.93525e-05
3.45596e-05
4.27377e-05
3.28221e-05
5.22452e-05
5.26663e-05
3.29895e-05
4.37322e-05
3.46073e-05
5.0602e-05
5.12801e-05
1.34665e-06
4.7455e-06
1.32032e-06
2.11415e-05
1.03933e-05
1.09227e-05
1.04416e-05
1.02288e-05
2.08595e-05
4.53391e-05
3.43092e-05
3.41469e-05
5.69198e-05
6.23305e-05
2.60929e-05
4.21807e-05
7.41197e-05
5.45534e-05
4.46735e-05
0
1.70853e-06
2.87652e-06
2.05893e-06
5.34785e-07
5.04446e-06
1.28571e-05
1.51865e-05
9.687e-06
6.19869e-06
2.87486e-05
1.58319e-05
4.11739e-05
2.34267e-06
5.87691e-06
3.94606e-06
1.65473e-05
8.17191e-06
2.17656e-05
9.23163e-05
0.000109991
0.00010379
0.000122517
0.00015458
2.59877e-05
4.31514e-05
0.000167171
9.63226e-05
0.000131995
6.42127e-05
9.44951e-05
9.97523e-05
6.50744e-05
0.00015865
0.000131017
0.00016268
0.000149729
0.000190637
0.00016032
0.000195669
0.000188354
2.04094e-05
2.5344e-05
2.21816e-05
1.89538e-05
1.87015e-05
3.18844e-05
2.21332e-05
2.61493e-05
2.92076e-05
2.7719e-05
1.2613e-05
1.74791e-05
1.48996e-05
1.4748e-05
1.83032e-05
2.41445e-05
2.19014e-05
2.08229e-05
9.25873e-05
8.93621e-05
9.56183e-05
0.00010775
0.000114988
3.3002e-05
4.36353e-05
3.70586e-05
4.78412e-05
7.04398e-05
5.34778e-05
0.000100634
7.39447e-05
5.02464e-05
4.82458e-05
8.56221e-05
6.82752e-05
9.70459e-05
1.63127e-06
1.21723e-05
4.75725e-06
1.98242e-06
2.8452e-06
5.77016e-05
4.21034e-05
5.33895e-05
4.17472e-05
2.51763e-05
9.86229e-06
3.99608e-06
6.01706e-06
1.55139e-05
2.70897e-05
1.57195e-05
2.06559e-05
7.93723e-06
3.43156e-06
5.0085e-07
1.71358e-06
1.73026e-06
5.09101e-07
0
0
0
0
0
0
0
0
0
0
0
0
0
8.09636e-05
0.000179441
0.000127466
8.94693e-05
0.00010137
4.57478e-05
0.000112507
7.15164e-05
0.00010153
0.000171333
0.00010103
0.000106782
0.000103623
0.000129256
0.000138832
0.000190361
0.00017414
0.000160317
SCALARS SignedDistance double 1
LOOKUP_TABLE default
1.12647
1.12844
1.14723
1.15173
1.18836
1.1704
1.10272
1.09823
1.1016
1.16275
1.10067
1.15924
1.14368
1.16759
1.15527
1.15849
1.13161
1.09774
1.09714
1.09844
1.10286
1.12595
1.1712
1.14615
1.17794
1.18132
1.11428
1.158
1.09998
1.10104
1.10282
1.09942
1.16212
1.18163
1.18336
1.17957
1.15545
1.11507
1.11756
1.10221
1.11759
1.12741
1.13464
1.15024
1.14224
1.16414
1.15788
1.15224
1.16431
1.16198
1.16946
1.14599
1.12882
1.16716
1.15888
1.13121
1.14911
1.14505
1.10862
1.10824
1.10918
1.11007
1.09702
1.09699
1.09738
1.09871
1.11296
1.09834
1.0971
1.10021
1.09773
1.09886
1.12298
1.10679
1.11177
1.13542
1.1466
1.15328
1.13684
1.17306
1.1654
1.15514
1.1611
1.1678
1.17495
1.17567
1.16894
1.17292
1.18578
1.18054
1.18445
1.14285
1.15965
1.10444
1.11777
1.15321
1.13651
1.13179
1.09959
1.10048
1.09916
1.09932
1.10178
1.10033
1.10102
1.09797
1.09877
1.11376
1.09893
1.09982
1.09844
1.10066
1.15816
1.1745
1.16914
1.17276
1.17497
1.16311
1.19032
1.18452
1.18811
1.17431
1.15514
1.18659
1.18573
1.15162
1.17083
1.1649
1.13734
1.13528
1.13143
1.13467
1.10646
1.11665
1.10571
1.11712
1.13665
1.10239
1.10587
1.10591
1.10529
1.10162
1.14143
1.10777
1.12087
1.146
1.14912
1.18424
1.17672
1.17869
1.17041
1.18086
1.17126
1.10433
1.11403
1.10373
1.10063
1.10078
1.09972
1.13701
1.11229
1.1241
1.13022
1.13881
1.13409
1.14711
1.14317
1.13913
1.1493
1.14661
1.15294
1.16172
1.15872
1.15613
1.16319
1.16118
1.16609
1.14808
1.15519
1.15142
1.16781
1.16695
1.17003
1.15881
1.16316
1.16025
1.16868
1.16603
1.16493
1.1542
1.16014
1.1567
1.13622
1.12752
1.15111
1.14441
1.13019
1.13802
1.13951
1.1691
1.16571
1.16028
1.16322
1.16359
1.16174
1.15725
1.12969
1.13884
1.13649
1.14116
1.14084
1.1328
1.15238
1.14739
1.1543
1.1531
1.15473
1.14781
1.11817
1.11801
1.12005
1.11894
1.10063
1.10804
1.10045
1.1195
1.11986
1.10125
1.1092
1.10118
1.12088
1.12131
1.09772
1.09716
1.09786
1.09689
1.09655
1.09649
1.09716
1.09678
1.09743
1.10925
1.10079
1.10033
1.11012
1.12015
1.0977
1.10188
1.10719
1.10411
1.10038
1.09829
1.09771
1.09781
1.09775
1.09838
1.09702
1.09659
1.10028
1.09894
1.09954
1.09883
1.09859
1.10091
1.09857
1.09823
1.09793
1.09691
1.09728
1.0976
1.12442
1.11148
1.11747
1.12931
1.13424
1.1024
1.10282
1.1182
1.10884
1.11498
1.10411
1.10661
1.14944
1.15414
1.13978
1.14456
1.13747
1.14083
1.13073
1.11664
1.12324
1.1292
1.14137
1.13229
1.1561
1.14955
1.14147
1.14589
1.14991
1.1722
1.1705
1.16845
1.16954
1.17227
1.16662
1.16212
1.15938
1.16211
1.16536
1.15435
1.15827
1.15071
1.16976
1.16461
1.16668
1.15995
1.16349
1.15733
1.17263
1.17277
1.17138
1.17215
1.17857
1.1755
1.17828
1.16385
1.16669
1.17554
1.17142
1.17367
1.16881
1.1702
1.18748
1.18524
1.18675
1.1811
1.18328
1.18375
1.18155
1.18257
1.17956
1.17417
1.17698
1.17786
1.15319
1.1595
1.13436
1.14483
1.15913
1.15231
1.1509
1.10202
1.1052
1.11541
1.10946
1.10829
1.11159
1.12132
1.15001
1.14259
1.14049
1.14821
1.14532
1.15613
1.1226
1.13378
1.1246
1.13003
1.12678
1.13944
1.0996
1.10041
1.09901
1.0992
1.10073
1.0999
1.10024
1.09869
1.09879
1.09966
1.09925
1.09957
1.09886
1.09891
1.10224
1.10132
1.10179
1.1006
1.10092
1.10139
1.10045
1.10064
1.10013
1.09942
1.09979
1.09997
1.09813
1.09848
1.09734
1.09773
1.09907
1.09846
1.09875
1.12159
1.11094
1.10043
1.10435
1.10758
1.10224
1.09811
1.10047
1.09972
1.10101
1.09885
1.09909
1.09954
1.10099
1.09916
1.0991
1.09754
1.09806
1.09809
1.15482
1.16425
1.1598
1.16869
1.16753
1.16093
1.1772
1.17297
1.17939
1.16759
1.16874
1.16299
1.17902
1.17427
1.17744
1.16275
1.16939
1.16925
1.18965
1.18946
1.18946
1.18469
1.18765
1.18772
1.18518
1.18669
1.18347
1.17523
1.18018
1.18047
1.16262
1.15342
1.18015
1.1722
1.15663
1.16477
1.16547
1.18787
1.18886
1.18295
1.18677
1.18402
1.18912
1.18666
1.14938
1.15869
1.1554
1.16336
1.16131
1.15364
1.17319
1.16834
1.17638
1.18209
1.17953
1.17345
1.14544
1.14452
1.14693
1.14665
1.126
1.13612
1.12699
1.14023
1.14176
1.12425
1.13287
1.12277
1.14356
1.14533
1.10395
1.10614
1.10371
1.11748
1.11065
1.11099
1.10929
1.11005
1.11579
1.13614
1.12529
1.12648
1.13566
1.14528
1.11733
1.12576
1.12704
1.12606
1.11719
1.10253
1.10386
1.10352
1.10376
1.10231
1.10638
1.11028
1.10313
1.10296
1.10147
1.10963
1.10548
1.11045
1.1019
1.10301
1.10318
1.1099
1.10549
1.10965
1.14771
1.1292
1.13886
1.15044
1.15288
1.10329
1.10649
1.12374
1.11344
1.11634
1.11154
1.11867
1.1563
1.15729
1.15471
1.15543
1.13933
1.14734
1.1365
1.13114
1.13342
1.14365
1.18822
1.18322
1.18626
1.18634
1.18412
1.17048
1.17395
1.17261
1.17526
1.17929
1.17522
1.18124
1.17836
1.17582
1.17506
1.18071
1.17793
1.1816
1.15962
1.17546
1.16865
1.16294
1.16447
1.18576
1.17983
1.18307
1.18399
1.18096
1.16504
1.16544
1.16576
1.1705
1.17532
1.1767
1.17649
1.17139
1.10317
1.1083
1.105
1.10265
1.10222
1.13125
1.11394
1.12194
1.12207
1.11448
1.10173
1.10188
1.10172
1.10394
1.1075
1.1078
1.1075
1.10392
1.10064
1.10134
1.10099
1.10022
1.10001
1.10158
1.10033
1.10087
1.10145
1.10139
1.09899
1.09958
1.09928
1.09945
1.09985
1.10069
1.10021
1.1001
1.15215
1.13207
1.14279
1.14687
1.14182
1.10337
1.10667
1.1042
1.10932
1.11913
1.12597
1.1361
1.13102
1.11839
1.11196
1.12423
1.11731
1.13053
