# vtk DataFile Version 4.2
vtk output
ASCII
DATASET POLYDATA
POINTS 642 double
-0.378578 0.643655 0.0284306
0.390745 0.648476 0.0264163
-0.35761 -0.614705 -0.0134171
0.369988 -0.621779 -0.0123863
0.00415509 -0.386484 0.697491
0.0027698 0.43386 0.697772
0.00122468 -0.413762 -0.754127
0.00434886 0.416236 -0.751896
0.632491 0.00603888 -0.473798
0.626928 0.0177669 0.44231
-0.615265 0.00242655 -0.466579
-0.61455 0.022042 0.437119
-0.588323 0.391693 0.271534
-0.393097 0.253893 0.66774
-0.237633 0.655299 0.422818
0.244922 0.65767 0.424545
0.00265347 0.762765 0.0332626
0.241117 0.605602 -0.435007
-0.228955 0.60202 -0.430774
-0.392406 0.242082 -0.715659
-0.577169 0.368977 -0.269122
-0.69572 0.0159536 0.00125326
0.399504 0.255189 0.671522
0.600916 0.398402 0.27194
-0.372347 -0.221394 0.663928
0.00379389 -0.00173375 0.824753
-0.565729 -0.354422 -0.285398
-0.562286 -0.345878 0.253608
0.00159799 0.000749677 -0.914169
-0.393702 -0.243248 -0.718503
0.593907 0.375967 -0.277387
0.408956 0.249531 -0.72353
0.576544 -0.353322 0.255994
0.382639 -0.224116 0.670238
0.22325 -0.584693 0.400237
-0.213688 -0.580861 0.398464
0.00412264 -0.734006 -0.0138538
-0.22432 -0.598799 -0.434598
0.230974 -0.603013 -0.432843
0.405909 -0.243965 -0.72435
0.580253 -0.359296 -0.285296
0.714285 0.0154877 -0.0021813
-0.495945 0.546469 0.149909
-0.442546 0.54785 0.361873
-0.325151 0.673949 0.225644
-0.539085 0.132069 0.566205
-0.52401 0.34286 0.489752
-0.627515 0.202755 0.372369
-0.118165 0.565173 0.590591
-0.332185 0.48052 0.570729
-0.195181 0.361628 0.709804
-0.121212 0.747256 0.240213
-0.208693 0.728052 0.0323671
0.12388 0.565886 0.59179
0.00229341 0.693302 0.4453
0.216949 0.731064 0.0312742
0.126743 0.748484 0.240398
0.335147 0.678073 0.225966
-0.11682 0.707216 -0.203784
-0.316894 0.639916 -0.194184
0.329513 0.644698 -0.198622
0.124709 0.709734 -0.205482
-0.116176 0.525122 -0.621887
0.00412394 0.635122 -0.453347
0.126277 0.525773 -0.62326
-0.427453 0.509359 -0.367133
-0.488598 0.529683 -0.113417
-0.19774 0.350731 -0.767266
-0.324239 0.448586 -0.60283
-0.621699 0.183971 -0.390159
-0.509811 0.318386 -0.515332
-0.533893 0.115486 -0.602754
-0.602338 0.398857 0.0183172
-0.673349 0.00792278 -0.262625
-0.666599 0.199573 -0.142371
-0.671332 0.210649 0.152268
-0.674799 0.0226446 0.250095
0.453741 0.55317 0.364166
0.509168 0.55266 0.148826
0.201441 0.362587 0.711764
0.340269 0.483633 0.574167
0.639857 0.206321 0.374417
0.53334 0.348217 0.493145
0.546701 0.130715 0.5711
-0.207808 0.132638 0.782087
0.00297902 0.234149 0.786312
-0.524616 -0.0956988 0.563386
-0.406633 0.00980649 0.700537
0.00430886 -0.220633 0.790419
-0.200985 -0.123537 0.783992
-0.180122 -0.324422 0.70928
-0.660238 -0.171302 0.138994
-0.611042 -0.157061 0.367328
-0.614953 -0.174778 -0.397768
-0.660494 -0.17855 -0.155775
-0.470937 -0.507586 0.115346
-0.586075 -0.371292 -0.0105184
-0.473182 -0.512097 -0.142171
-0.418635 -0.000583232 -0.756424
-0.532409 -0.114956 -0.604422
0.00296934 0.238992 -0.863464
-0.222213 0.135953 -0.86663
-0.20063 -0.35159 -0.770715
-0.224054 -0.137029 -0.869638
0.00151257 -0.238137 -0.86181
0.338338 0.452589 -0.607816
0.208738 0.354222 -0.770272
0.503558 0.535282 -0.118908
0.44349 0.515001 -0.374154
0.551307 0.121806 -0.610233
0.526898 0.325354 -0.523022
0.638952 0.190642 -0.398418
0.484494 -0.515664 0.116366
0.421197 -0.49448 0.343819
0.311484 -0.627685 0.18799
0.535235 -0.100461 0.57056
0.50372 -0.297555 0.487404
0.62426 -0.162772 0.371799
0.113746 -0.496475 0.580253
0.313797 -0.423266 0.565071
0.188973 -0.325713 0.712479
0.117449 -0.69195 0.196668
0.20356 -0.702891 -0.0134301
-0.105315 -0.494824 0.578596
0.00419139 -0.61437 0.419637
-0.193312 -0.698564 -0.0142321
-0.108325 -0.689702 0.196103
-0.300286 -0.621899 0.186947
0.118957 -0.706145 -0.224084
0.314676 -0.638047 -0.214286
-0.303891 -0.631598 -0.216437
-0.111363 -0.703712 -0.224911
0.120649 -0.517834 -0.62388
0.00178855 -0.637966 -0.452143
-0.118054 -0.518099 -0.623921
0.429057 -0.503861 -0.377017
0.486609 -0.520248 -0.139976
0.20631 -0.351563 -0.773034
0.330399 -0.441059 -0.60928
0.630382 -0.174688 -0.403106
0.516486 -0.311503 -0.526381
0.547968 -0.113953 -0.611098
0.601347 -0.379083 -0.00947113
0.690741 0.0103336 -0.268443
0.678294 -0.181861 -0.1569
0.676625 -0.177513 0.139309
0.689538 0.0198727 0.250686
0.209853 -0.124786 0.787839
0.414822 0.00642097 0.70712
0.214707 0.131505 0.785059
-0.409219 -0.487989 0.341104
-0.303571 -0.4197 0.560843
-0.491961 -0.292558 0.481644
-0.322649 -0.442041 -0.607642
-0.417859 -0.498412 -0.378708
-0.504258 -0.311781 -0.522193
0.433356 0.00191786 -0.763109
0.227852 -0.135565 -0.862201
0.230757 0.139271 -0.870338
0.687267 0.215184 0.149527
0.684429 0.204947 -0.148914
0.617803 0.405764 0.0140921
-0.436702 0.60392 0.0861857
-0.417028 0.615767 0.192955
-0.356377 0.662811 0.12361
-0.52432 0.473713 0.319329
-0.475493 0.550948 0.259361
-0.547331 0.475555 0.212006
-0.286149 0.672717 0.325132
-0.385996 0.619051 0.297973
-0.345307 0.609913 0.396441
-0.584478 0.0729675 0.500232
-0.589728 0.17278 0.473768
-0.626014 0.106945 0.410326
-0.46735 0.302768 0.587168
-0.537324 0.239759 0.535911
-0.476595 0.193269 0.624359
-0.615611 0.298856 0.325918
-0.58349 0.275499 0.43311
-0.564241 0.372401 0.383145
-0.0542012 0.499487 0.653005
-0.161282 0.46964 0.655187
-0.0902057 0.404046 0.708914
-0.287924 0.578108 0.502171
-0.228801 0.530584 0.584632
-0.180111 0.617974 0.512894
-0.297275 0.311237 0.696791
-0.26923 0.424606 0.647501
-0.367735 0.370288 0.627236
-0.491113 0.452736 0.431244
-0.437919 0.417416 0.537858
-0.395841 0.523994 0.472149
-0.266841 0.710119 0.13403
-0.302681 0.688945 0.0306644
-0.181967 0.711525 0.33509
-0.226489 0.718302 0.237576
-0.106396 0.753277 0.0332248
-0.164938 0.745228 0.138728
-0.0593476 0.76369 0.139243
0.0597183 0.499795 0.653589
0.0025647 0.57516 0.595439
0.126709 0.684463 0.440636
0.0655183 0.638297 0.522281
0.186311 0.619177 0.514434
-0.0605102 0.637905 0.52174
-0.12139 0.683605 0.439817
0.313204 0.692999 0.0291028
0.275931 0.713523 0.133542
0.36755 0.667345 0.122758
0.0644442 0.764536 0.139146
0.171663 0.747282 0.138455
0.11257 0.754985 0.0326265
0.294843 0.676176 0.326405
0.234157 0.720976 0.237919
0.188341 0.713346 0.335913
-0.0615627 0.73208 0.345908
0.0662562 0.732531 0.346172
0.00226871 0.758619 0.243515
-0.262979 0.691992 -0.0787051
-0.352172 0.647318 -0.0717803
-0.0578332 0.743854 -0.0804689
-0.162033 0.725564 -0.0808793
-0.275719 0.62378 -0.316793
-0.219692 0.679981 -0.203787
-0.174736 0.657247 -0.324221
0.364476 0.652083 -0.074823
0.273281 0.696008 -0.0810957
0.184976 0.660904 -0.327475
0.229941 0.68393 -0.20696
0.288727 0.62888 -0.321869
0.169934 0.728461 -0.0824402
0.0640891 0.745037 -0.0810711
-0.0533679 0.471308 -0.696745
0.00455123 0.534146 -0.627053
0.0627225 0.471803 -0.697367
-0.11668 0.625964 -0.447479
-0.0580498 0.586779 -0.542189
-0.175124 0.568952 -0.533243
0.186214 0.570825 -0.536111
0.067157 0.587435 -0.543188
0.126255 0.627971 -0.44969
0.00340948 0.718284 -0.206792
0.0662104 0.676668 -0.335584
-0.0581896 0.675102 -0.334435
-0.408627 0.589882 -0.159063
-0.433684 0.595157 -0.0357644
-0.33264 0.563123 -0.403705
-0.373323 0.578047 -0.287799
-0.536129 0.453631 -0.193164
-0.461939 0.519403 -0.245208
-0.509895 0.443904 -0.321356
-0.0911078 0.389993 -0.765781
-0.160893 0.444637 -0.700097
-0.362654 0.350443 -0.668251
-0.267388 0.402959 -0.691643
-0.299545 0.300969 -0.750948
-0.224557 0.494377 -0.617077
-0.278519 0.533018 -0.523076
-0.623917 0.0880588 -0.435074
-0.583186 0.15415 -0.502374
-0.582676 0.0544234 -0.53355
-0.550462 0.34685 -0.397485
-0.572596 0.254429 -0.455364
-0.606273 0.278153 -0.334989
-0.471002 0.178584 -0.664419
-0.526246 0.220535 -0.567068
-0.457 0.282842 -0.621877
-0.381581 0.484295 -0.491438
-0.424582 0.388422 -0.5661
-0.474655 0.420061 -0.448296
-0.498268 0.542047 0.0239773
-0.593619 0.386946 -0.127194
-0.551627 0.468207 -0.0498588
-0.555556 0.475841 0.0891859
-0.600377 0.400854 0.151833
-0.647848 0.0046404 -0.375917
-0.655972 0.0979548 -0.32749
-0.689137 0.108012 -0.0713278
-0.676502 0.103767 -0.203618
-0.689134 0.0115976 -0.13577
-0.649613 0.195035 -0.271622
-0.628772 0.28679 -0.209421
-0.658132 0.115261 0.313462
-0.647572 0.0232026 0.354065
-0.636967 0.303963 0.216852
-0.654749 0.211708 0.267128
-0.690797 0.0201045 0.132726
-0.680515 0.116914 0.201465
-0.690976 0.113383 0.0797497
-0.642376 0.301711 -0.0616082
-0.675551 0.208345 0.00960428
-0.645351 0.308562 0.0865669
0.42898 0.621078 0.192809
0.449518 0.609364 0.0845014
0.354826 0.613899 0.398764
0.396861 0.62392 0.299278
0.560504 0.482237 0.211724
0.487866 0.556928 0.260144
0.536397 0.480021 0.320941
0.0960144 0.404487 0.709847
0.167533 0.470629 0.656851
0.375083 0.373321 0.630847
0.276152 0.426578 0.65024
0.303669 0.312672 0.699826
0.235812 0.532425 0.587187
0.295794 0.580614 0.504731
0.638463 0.105725 0.414158
0.599585 0.174003 0.47771
0.595033 0.0698586 0.505876
0.575297 0.37874 0.385273
0.59376 0.28062 0.435835
0.627711 0.304958 0.326849
0.483385 0.193607 0.628879
0.544411 0.242317 0.539079
0.4749 0.306235 0.591089
0.40531 0.528073 0.475274
0.447089 0.422194 0.541913
0.501668 0.458342 0.434265
-0.100374 0.299186 0.756603
0.00282076 0.344801 0.744671
-0.306232 0.197459 0.733177
-0.207145 0.249213 0.752832
0.00333318 0.117026 0.813777
-0.103638 0.181989 0.793065
-0.102187 0.0651189 0.813351
-0.578342 -0.0324786 0.499399
-0.536151 0.0171489 0.573125
-0.395004 -0.110226 0.690424
-0.471887 -0.0467357 0.638977
-0.456056 -0.159468 0.619263
-0.478701 0.0744782 0.640063
-0.406236 0.133331 0.69196
0.00423962 -0.314051 0.748163
-0.0919629 -0.274753 0.759827
-0.0812775 -0.361675 0.709262
-0.0997992 -0.0646421 0.814753
-0.0975354 -0.172836 0.796028
0.00417709 -0.116 0.816237
-0.278409 -0.277459 0.694466
-0.195245 -0.228557 0.755059
-0.293312 -0.177065 0.733018
-0.313613 0.0708166 0.752139
-0.308706 -0.0579631 0.751844
-0.207927 0.00230574 0.794578
-0.650917 -0.0693626 0.309916
-0.617996 -0.0620232 0.40864
-0.686239 -0.0769045 0.0720786
-0.67443 -0.0739099 0.195446
-0.592539 -0.252188 0.315566
[...]
POINT_DATA 642
SCALARS Mean_Curvature double 1
LOOKUP_TABLE default
2.11923
2.10852
2.13294
2.19557
2.73121
2.1384
2.73833
2.62783
2.32997
2.36775
2.32917
2.34138
2.42519
2.43466
2.82695
2.7726
2.1194
2.2815
2.30008
2.76605
2.12875
1.76789
2.37992
2.41616
2.71217
2.38009
1.87741
2.02528
2.2674
2.95624
2.18774
3.05695
2.07023
2.83987
2.2391
2.23644
2.53377
2.23606
2.2225
3.26246
1.95447
1.77962
2.24275
2.68199
2.52334
3.02478
2.76054
2.38761
2.54276
2.36092
2.24753
2.62999
2.14648
2.50815
2.80081
2.09014
2.5524
2.5231
1.74868
1.76537
1.70702
1.75236
2.33902
2.11558
2.18984
2.23104
1.81918
2.89694
2.56329
2.32128
2.36423
2.41676
1.92148
2.12526
1.64485
2.04896
2.18564
2.72159
2.28387
2.22026
2.43656
2.29932
2.82954
2.72911
2.25077
2.04812
2.66154
2.60224
2.79542
2.59279
2.77368
1.86481
2.22935
2.32534
1.80975
2.06756
1.92173
2.00075
2.93061
2.48063
2.35488
2.56033
3.06505
2.39882
2.25599
2.48051
2.86559
1.82527
2.27944
2.4964
2.47088
2.31635
2.09907
2.18273
2.20279
2.69552
2.34087
2.16365
2.38591
2.39583
2.72069
2.23397
2.38002
2.36474
2.31453
2.34539
2.22862
2.19315
2.39461
2.24978
2.16439
2.41443
1.92461
2.24656
2.22737
2.074
2.07048
3.00152
2.61295
2.31831
2.47432
2.51213
1.94971
1.97187
1.83002
1.91259
2.05483
2.6359
2.59755
2.22335
2.16152
2.38778
2.29388
2.73481
2.01546
2.51906
2.9731
2.3886
2.38382
2.00985
1.62897
1.93791
2.17879
2.39131
2.30803
2.59482
2.4734
2.33296
2.73302
2.60116
2.77321
2.56098
2.79964
2.28639
2.62957
3.04027
2.75177
2.45177
2.53845
2.64209
2.31637
2.29136
2.14729
2.55275
2.39526
2.46895
2.4144
2.37014
2.38502
2.81972
2.48487
2.7121
2.36252
2.1433
2.81723
2.60083
2.13059
2.38435
2.34812
2.30802
2.53654
2.8136
2.43102
2.41565
2.44484
2.85241
2.10921
2.32149
2.30218
2.33534
2.30517
2.094
2.73092
2.55798
2.74887
2.81422
2.74539
2.55506
1.93551
1.94316
1.92983
1.92445
2.04036
1.7505
1.807
1.92106
1.90356
1.86299
1.72896
2.1786
1.90343
1.931
2.39797
2.24659
2.38998
2.19852
2.26186
2.39725
2.2724
2.19974
2.16153
1.76378
1.71603
1.63234
1.80751
1.96738
2.28014
1.86782
1.58792
1.595
2.19492
2.71552
2.54913
2.65306
2.64412
2.86572
2.52711
2.43229
2.35104
2.35241
2.2745
2.27706
2.33552
2.25988
2.61327
2.38032
2.56395
2.38673
2.48804
2.31332
2.01241
1.76008
1.86147
2.07687
2.15676
2.29951
2.28892
1.7269
1.79749
1.74682
2.23492
1.77034
2.25819
2.25925
2.24912
2.25683
1.95154
2.12673
1.89508
1.79379
1.827
1.98258
2.42119
2.19475
2.77528
2.63177
2.37304
2.52771
2.64123
2.13399
2.26618
2.43247
2.40446
2.44233
2.47867
2.49396
2.25725
2.37616
2.49152
2.67833
2.48594
2.40839
2.61841
2.71949
2.65121
2.68362
2.6137
2.8591
2.10238
2.08301
2.49837
2.22873
2.14408
2.10986
2.3142
2.49169
2.7114
2.70984
2.84902
2.72243
2.62362
2.52225
3.03126
2.71678
2.7673
2.48346
2.58429
2.63244
2.78958
2.73533
2.73347
2.50809
2.56679
2.58485
2.23001
2.31001
1.78279
2.04608
2.09486
2.06531
1.95607
2.35496
2.28382
1.799
1.85015
2.17469
1.76779
1.82764
2.08034
2.01139
2.06349
1.97834
1.98531
2.05538
1.95953
1.96386
1.91135
1.80216
1.80443
1.82466
2.43316
2.28392
2.91721
2.67646
2.81083
2.67825
2.98929
2.62564
2.62902
2.36506
2.34151
2.32823
2.81502
2.93612
2.82459
2.65952
2.69749
3.01986
2.65992
3.16696
2.23291
2.30941
2.4113
2.88444
2.50839
2.80012
2.52228
2.69262
2.38686
2.35792
3.10867
2.7432
2.88252
1.96631
1.79039
2.23562
1.77603
1.52341
2.03559
2.30027
2.26574
2.3036
2.35081
2.74456
2.56484
2.87241
2.26572
2.34472
2.30869
2.41077
2.37771
2.54469
2.14257
2.16573
2.18867
2.1355
2.11911
2.05119
2.20986
2.17816
2.21552
2.51882
2.39754
2.38877
2.52584
2.48
2.78722
2.14361
2.19946
2.13089
2.5297
2.51627
2.7982
2.25629
2.37927
2.26953
2.83791
2.55876
2.55498
2.16969
2.41282
2.22407
2.2124
2.25933
2.22597
2.22087
2.48769
2.29135
2.40722
2.52728
2.43169
2.26236
2.29763
2.26707
2.31256
2.26423
2.20569
2.18887
2.14614
2.43238
2.274
2.50198
2.19226
2.2187
2.22231
2.22809
2.23035
2.27505
2.3023
2.21514
2.44977
2.36901
2.26393
2.366
2.31993
2.13712
2.24263
2.34062
2.29746
2.22893
2.38382
2.48689
2.54328
1.88964
2.53313
2.24835
2.16218
2.11797
2.12224
2.18901
2.28488
2.37821
2.35998
2.31468
2.13569
2.13937
2.1512
2.16752
2.00816
2.07257
2.02776
2.79763
2.86084
3.0426
2.93125
3.22835
2.29006
2.00443
2.3592
2.38966
2.28074
2.00936
2.37436
1.92635
2.94157
2.57311
2.90537
1.93933
2.64638
1.92256
2.07905
1.94528
2.03589
2.05678
1.9759
2.31516
2.27041
1.92368
1.86496
1.83957
1.72686
1.83001
2.10945
2.30343
2.00539
2.04114
1.8951
1.92547
1.81464
1.81825
1.81927
1.80302
2.77509
2.77071
2.72352
2.64621
2.46246
2.75518
2.40948
2.65181
2.90796
2.97417
2.08859
2.28567
2.09484
2.20044
2.45336
2.73837
2.60242
2.57695
2.1561
2.19949
2.14687
2.09702
2.10421
2.53604
2.55372
2.57445
2.37241
2.24646
2.36855
2.16885
2.22219
2.50476
2.56952
2.22004
2.37687
2.1905
2.84317
1.93141
2.70351
3.0358
2.91041
2.0683
1.94546
2.0106
2.09528
2.12683
2.35955
2.79367
2.57973
2.38507
2.28023
2.22841
2.33454
2.66767
2.44534
3.048
2.71458
2.69728
3.03353
2.62259
2.36964
2.28333
2.60593
2.96783
2.59431
2.89166
2.791
2.28863
2.3286
2.58414
2.26065
2.58236
2.24748
1.8938
1.99071
2.19796
2.16991
2.30019
1.8611
2.23752
1.75144
1.73442
2.02711
2.14158
2.093
1.87431
1.7711
1.87236
1.83205
1.9878
SCALARS CoVolArea double 1
LOOKUP_TABLE default
0.00892023
0.0090792
0.00852393
0.00850639
0.00806
0.0094307
0.00918408
0.00938818
0.00856596
0.00818398
0.00838654
0.00788899
0.0138946
0.0151843
0.0146747
0.0148884
0.0152367
0.0156117
0.0153771
0.0150547
0.0155768
0.0158506
0.0154381
0.0141248
0.0139866
0.0154728
0.0149582
0.0147152
0.0172038
0.0147672
0.0156318
0.0152999
0.0149657
0.0140044
0.014571
0.0144408
0.0135159
0.015133
0.0154995
0.01498
0.0154658
0.0164106
0.0132094
0.0148328
0.0128886
0.0128423
0.0149777
0.0123779
0.0142394
0.0159113
0.0146583
0.0146451
0.0138282
0.0143209
0.0154762
0.0141098
0.0148249
0.0131285
0.0173664
0.0152428
0.0155985
0.0176259
0.0141727
0.0166444
0.0142529
0.0157633
0.0147967
0.0144439
0.0154533
0.0134341
0.0150969
0.0132066
0.0161129
0.0138535
0.0164233
0.0152369
0.0130495
0.0150056
0.0133962
0.0147258
0.0159969
0.0130286
0.0151914
0.013292
0.0162992
0.0152237
0.0125709
0.0151994
0.0131499
0.0153331
0.0128617
0.0159462
0.0127775
0.0129638
0.0164453
0.0135939
0.016168
0.0139916
0.0158567
0.0129688
0.0154109
0.016916
0.0141818
0.0170199
0.0153957
0.015481
0.0145738
0.0149842
0.0158063
0.01344
0.0150344
0.0135383
0.013684
0.0152611
0.0133112
0.0126644
0.0146019
0.0130615
0.0129881
0.0147501
0.0129361
0.0147324
0.0127517
0.012917
0.0149962
0.0126797
0.0146703
0.0132192
0.0149061
0.013514
0.0134881
0.0148108
0.0142836
0.0162279
0.0140072
0.0158203
0.0139978
0.0143989
0.015217
0.0132732
0.0144996
0.0132094
0.016322
0.0142974
0.0169068
0.016311
0.0136489
0.0153079
0.015282
0.0163627
0.0150443
0.0145639
0.014419
0.0147886
0.015295
0.0142798
0.0163576
0.0173278
0.0173899
0.0158158
0.016841
0.0164243
0.0119383
0.0128329
0.0116589
0.0143788
0.0133031
0.0133293
0.0134041
0.013366
0.0149015
0.0109317
0.0123642
0.0108122
0.015245
0.0134847
0.0138257
0.0129608
0.0131261
0.0143583
0.0127451
0.014318
0.0130414
0.015458
0.0146925
0.0143578
0.0147875
0.0148533
0.0157365
0.0164006
0.0169826
0.0168456
0.0130087
0.0122164
0.0146459
0.0133216
0.0142938
0.0135983
0.0147967
0.0127763
0.0141132
0.0153204
0.0145464
0.0145013
0.0144861
0.0151756
0.0124653
0.0132666
0.0118657
0.0148989
0.0138353
0.0144859
0.0136452
0.0135701
0.014864
0.0163374
0.0164334
0.016139
0.0146636
0.0130235
0.0166233
0.0153106
0.0151728
0.0158377
0.0166355
0.0133108
0.0149992
0.0169644
0.0162026
0.0154801
0.0156018
0.0167404
0.0127155
0.0142198
0.0127554
0.0161426
0.0148091
0.0144257
0.0145693
0.0148925
0.016361
0.0191132
0.018862
0.0187006
0.0148511
0.012747
0.015589
0.0151317
0.0152289
0.0151218
0.0157267
0.0128915
0.0140612
0.0153228
0.0144512
0.0145941
0.014356
0.0153672
0.0116782
0.0130365
0.0115194
0.0152191
0.0137869
0.014152
0.013879
0.0136903
0.0150308
0.0168313
0.0166646
0.0167688
0.0138999
0.0165553
0.0151034
0.0141129
0.0148224
0.0117851
0.0134569
0.016349
0.0146829
0.0149496
0.0143822
0.0161182
0.0123838
0.0110306
0.0144839
0.0131115
0.0142486
0.0136253
0.0157798
0.0180266
0.0177459
0.0170828
0.0130397
0.0121178
0.0151123
0.0135884
0.0135197
0.0134926
0.0145396
0.0130837
0.0143801
0.0158548
0.0149119
0.0149088
0.0147892
0.0156171
0.011437
0.0129542
0.011378
0.0145613
0.0135342
0.0133416
0.0141839
0.0138863
0.0154847
0.0169807
0.0171025
0.0165312
0.0148771
0.013333
0.0158622
0.0151636
0.0152902
0.0154214
0.0161146
0.0109369
0.0125529
0.014648
0.0133787
0.0131142
0.0136304
0.0153349
0.0112602
0.0128462
0.0112056
0.0155174
0.0138407
0.0140304
0.0132766
0.0135926
0.0147239
0.017212
0.0167527
0.0172955
0.0127783
0.0110099
0.0160694
0.0140411
0.0135622
0.0138029
0.0153956
0.0114636
0.0132829
0.0157828
0.0141381
0.0136009
0.0146439
0.0164347
0.011878
0.0136506
0.0120188
0.0155871
0.0143811
0.0140532
0.0145273
0.0146265
0.0160006
0.0181394
0.0180313
0.0177326
0.0130102
0.0113934
0.0155884
0.0139685
0.0136031
0.0139033
0.0155284
0.0132388
0.0148153
0.0172815
0.015795
0.0161584
0.0152282
0.0160533
0.01264
0.0147273
0.013072
0.0160292
0.0151935
0.0143306
0.0162107
0.0158726
0.0173479
0.017963
0.0186506
0.018011
0.014133
0.0129759
0.0154668
0.0144173
0.0147737
0.0145145
0.0154053
0.0129768
0.0151445
0.0156929
0.0152371
0.0153095
0.0153649
0.0157417
0.0117425
0.0131363
0.011871
0.0151031
0.013748
0.0141198
0.0141985
0.013749
0.0151405
0.0168558
0.0167052
0.0166494
0.0118912
0.013319
0.0116685
0.0151722
0.0140675
0.0142223
0.0137919
0.013935
0.01501
0.0111617
0.0125181
0.0112752
0.0142385
0.0130757
0.0131197
0.0138523
0.0133565
0.0148758
0.0112177
0.0127302
0.0112327
0.0148327
0.0134933
0.0136294
0.0133533
0.0133587
0.0143678
0.01641
0.0160455
0.0164157
0.0128716
0.0114722
0.0148763
0.0136156
0.0128996
0.0132139
0.0140819
0.0111925
0.0127644
0.0148095
0.0135566
0.0135219
0.0135915
0.0148808
0.0114523
0.0128043
0.011631
0.0140441
0.0131366
0.0128265
0.013673
0.0135292
0.0147852
0.0163611
0.0163234
0.0159949
0.0128926
0.0117245
0.0141512
0.0132446
0.0142993
0.0137616
0.0154296
0.0117516
0.0128579
0.0152765
0.0136827
0.0141335
0.0131596
0.0141003
0.0125492
0.0142132
0.0124519
0.0160309
0.0150903
0.0147987
0.0143779
0.0149363
0.015818
0.0161955
0.0169311
0.017006
0.01361
0.0119765
0.0157469
0.014478
0.014772
0.0146344
0.015633
0.0127625
0.0139424
0.014989
0.0142601
0.0145476
0.0143689
0.0156083
0.0117141
0.0128106
0.0116346
0.0148761
0.0133074
0.0140355
0.0138119
0.0133092
0.0146098
0.0167981
0.0161589
0.0164737
0.0136528
0.0163012
0.0146785
0.014467
0.0157824
0.0120816
0.0136961
0.0168988
0.0151561
0.0154514
0.0146372
0.0163042
0.0131755
0.0115246
0.0156752
0.0141582
0.0148517
0.01453
0.0165619
0.0183696
0.0184936
0.0179912
0.0128583
0.0147251
0.0136255
0.0138316
0.0155049
0.0128126
0.015596
0.0138969
0.0134536
0.0146315
0.0149387
0.0161381
0.0154849
0.01527
0.0160482
0.016719
0.0172828
0.0172649
0.0132255
0.0148304
0.0137931
0.0139064
0.014932
0.0126413
0.0142535
0.0132267
0.0133513
0.0146532
0.0123479
0.0146073
0.0131372
0.0129864
0.0141674
0.0161814
0.0158551
0.0161521
0.013683
0.0150274
0.0139424
0.0139769
0.0147576
0.0136158
0.0151187
0.0144158
0.0142863
0.0152675
0.0126071
0.014441
0.013156
0.0130899
0.0144586
0.0161909
0.0159681
0.0158234
0.0133258
0.0158649
0.0142474
0.0143516
0.0160375
0.0148584
0.0176021
0.0160221
0.015396
0.0162983
0.0149787
0.0164569
0.0155036
0.0160516
0.0176067
0.0184949
0.0191647
0.0185584
0.0131262
0.0163895
0.0143121
0.0137348
0.0148877
0.0137531
0.0163787
0.0146381
0.0150996
0.016864
0.0140954
0.0151059
0.0143263
0.0152992
0.0167967
0.0182815
0.0184476
0.0175336
SCALARS SignedDistance double 1
LOOKUP_TABLE default
1.48016
1.46365
1.32587
1.2732
1.12419
1.13665
1.18876
1.24076
1.35327
1.28227
1.38737
1.32024
1.38077
1.05619
1.14279
1.12435
1.44813
1.51654
1.54035
1.17976
1.59036
1.52881
1.06192
1.34188
1.15978
1.10099
1.47638
1.39279
1.00449
1.14246
1.5532
1.12754
1.35213
1.12933
1.22698
1.25127
1.18205
1.30498
1.25207
1.13659
1.4178
1.48347
1.42547
1.26168
1.3359
1.22055
1.21489
1.34566
1.07244
1.07268
1.11645
1.30458
1.46514
1.07374
1.11132
1.44978
1.29712
1.31747
1.59624
1.60266
1.59131
1.58749
1.37487
1.55121
1.36526
1.54941
1.57166
1.16697
1.33855
1.46017
1.38089
1.27892
1.52269
1.55154
1.5918
1.47958
1.43146
1.22302
1.39902
1.11883
1.04802
1.29955
1.17427
1.19267
1.13114
1.15365
1.24628
1.08033
1.0143
1.03959
1.11906
1.47197
1.37495
1.43681
1.49181
1.36662
1.43461
1.37826
1.14457
1.277
1.03983
1.00137
1.11805
1.00304
1.0014
1.30247
1.17066
1.55604
1.51421
1.24657
1.3421
1.41888
1.31632
1.27808
1.25315
1.21009
1.26269
1.32791
1.18908
1.20484
1.1061
1.24644
1.22869
1.20134
1.22218
1.26778
1.25263
1.2882
1.18071
1.25498
1.30685
1.21643
1.31234
1.21157
1.33012
1.33451
1.32479
1.1302
1.31922
1.41495
1.34441
1.24292
1.39505
1.52238
1.43608
1.41545
1.39713
1.04342
1.04016
1.13377
1.31468
1.23115
1.30326
1.30893
1.4018
1.35191
1.10738
1.00163
1.00142
1.42656
1.56127
1.49169
1.45281
1.37838
1.41564
1.32263
1.34766
1.40198
1.24564
1.2931
1.20055
1.28524
1.28914
1.33322
1.13138
1.20935
1.11295
1.35926
1.28351
1.29745
1.12477
1.11294
1.13498
1.09006
1.06711
1.05066
1.08853
1.08072
1.06372
1.22471
1.11734
1.15578
1.39841
1.47224
1.2218
1.31345
1.45705
1.38802
1.37926
1.12542
1.07787
1.10983
1.03193
1.0531
1.03156
1.10809
1.4568
1.3839
1.39782
1.37279
1.37568
1.44429
1.22711
1.30198
1.21557
1.20823
1.20185
1.29417
1.53685
1.5384
1.52284
1.53206
1.62885
1.60278
1.63665
1.52411
1.52245
1.62226
1.5915
1.60403
1.5176
1.51868
1.30388
1.383
1.30452
1.54776
1.46764
1.4544
1.4376
1.45977
1.53255
1.59346
1.63668
1.64304
1.58909
1.52503
1.54038
1.62632
1.61279
1.6312
1.56657
1.2108
1.27371
1.24894
1.24017
1.14499
1.3471
1.43748
1.41359
1.36151
1.33275
1.48312
1.41711
1.52036
1.23244
1.31817
1.28396
1.44457
1.35533
1.46049
1.50008
1.58725
1.54675
1.47576
1.45499
1.46197
1.50421
1.56117
1.59336
1.55863
1.5589
1.61614
1.38992
1.36681
1.43402
1.41377
1.49334
1.45707
1.51448
1.56433
1.54072
1.50208
1.35499
1.43264
1.17011
1.26585
1.36861
1.31519
1.2841
1.13603
1.11494
1.04223
1.08413
1.09184
1.06667
1.06347
1.29375
1.24891
1.24412
1.26003
1.24229
1.31816
1.11588
1.19158
1.11048
1.11226
1.07265
1.18339
1.14948
1.1463
1.08226
1.1257
1.15625
1.14803
1.13847
1.28335
1.22948
1.12014
1.16767
1.20377
1.15974
1.09162
1.07718
1.0589
1.1268
1.07404
1.05293
1.0724
1.12842
1.03946
1.07727
1.08048
1.05224
1.08697
1.40272
1.34049
1.50016
1.46678
1.39498
1.43579
1.42947
1.40531
1.49149
1.48963
1.51502
1.48397
1.54081
1.51704
1.34312
1.37101
1.34544
1.4264
1.39839
1.37806
1.42367
1.4021
1.44718
1.4791
1.46087
1.45738
1.28265
1.33174
1.14324
1.21733
1.2119
1.21755
1.13848
1.15208
1.10482
1.01183
1.00849
1.00544
1.05075
1.06952
1.16034
1.05561
1.10169
1.02773
1.00221
1.11173
1.02487
1.00917
1.00017
1.03981
1.00657
1.04027
1.27591
1.2124
1.4054
1.33233
1.11872
1.23159
1.21322
1.50863
1.57665
1.53081
1.61108
1.59648
1.60023
1.50759
1.29915
1.32137
1.37551
1.23832
1.28329
1.18345
1.48053
1.3777
1.44504
1.40623
1.42215
1.31319
1.28929
1.28052
1.26608
1.31747
1.30379
1.34428
1.24424
1.26847
1.24432
1.24529
1.27439
1.31342
1.1955
1.23171
1.16539
1.33206
1.28845
1.29845
1.153
1.1539
1.12073
1.22107
1.19137
1.21426
1.10729
1.15486
1.16597
1.27326
1.23388
1.2437
1.25293
1.25446
1.24203
1.24144
1.19766
1.2431
1.21948
1.16527
1.18581
1.22933
1.2128
1.22913
1.20512
1.22224
1.30191
1.29148
1.31559
1.23676
1.26668
1.22312
1.27497
1.26418
1.25526
1.24344
1.2494
1.24706
1.23371
1.26498
1.17803
1.19885
1.23739
1.21348
1.19079
1.31951
1.28702
1.23909
1.26379
1.2979
1.24379
1.19601
1.25377
1.31223
1.2524
1.21713
1.27112
1.28992
1.33072
1.28419
1.24825
1.17981
1.17887
1.16276
1.29155
1.29059
1.29432
1.28423
1.36899
1.32835
1.37635
1.1602
1.24126
1.22621
1.2308
1.12015
1.32035
1.32404
1.37387
1.3215
1.29734
1.42311
1.37407
1.45701
1.19084
1.28275
1.25188
1.35664
1.32817
1.39091
1.31858
1.39941
1.35415
1.35123
1.3892
1.43082
1.46269
1.44781
1.48589
1.50545
1.48003
1.4447
1.37056
1.33762
1.3823
1.36797
1.43989
1.4042
1.45107
1.41164
1.40638
1.41843
1.04738
1.04867
1.0408
1.05332
1.07543
1.18813
1.0671
1.11913
1.12996
1.07858
1.15057
1.13786
1.14931
1.12804
1.0861
1.01358
1.08361
1.08973
1.32274
1.27937
1.30262
1.33683
1.3535
1.16936
1.19354
1.17583
1.21394
1.24727
1.31324
1.35196
1.34089
1.28052
1.23814
1.27304
1.26316
1.3086
1.23534
1.37434
1.32178
1.21665
1.2179
1.3454
1.44226
1.38794
1.34667
1.35761
1.34686
1.25375
1.30052
1.39061
1.44537
1.39852
1.42001
1.32229
1.24842
1.10033
1.18177
1.18278
1.10154
1.0556
1.00059
1.01011
1.01634
1.00326
1.10679
1.00038
1.05466
1.00944
1.0004
1.00059
1.00866
1.0004
1.35352
1.46179
1.40905
1.36691
1.386
1.46716
1.58157
1.51969
1.5572
1.52362
1.47914
1.41719
1.44763
1.52542
1.56569
1.49782
1.53353
1.45734
