# vtk DataFile Version 4.2
vtk output
ASCII
DATASET POLYDATA
POINTS 642 double
-102.673 198.362 71.4945
110.067 200.5 69.8462
-90.879 -199.906 -3.36195
103.844 -206.653 -5.87168
2.65768 -133.093 264.612
0.0338873 166.823 233.474
-0.50168 -134.881 -264.598
-2.84775 127.063 -263.528
184.133 -0.432571 -192.015
196.974 4.60507 179.088
-173.378 -2.90156 -190.479
-194.001 27.6661 178.693
-177.957 134.476 131.473
-142.425 87.923 241.83
-80.8368 236.084 154.966
85.4886 235.817 155.9
0.414283 233.677 68.3639
83.5583 150.518 -182.118
-69.376 152.174 -179.586
-133.289 78.9232 -259.032
-148.229 92.6724 -129.319
-169.794 -6.11647 26.649
143.632 94.2314 241.079
188.175 138.064 131.594
-126.313 -75.3355 245.658
0.416264 -20.3839 296.444
-151.191 -98.1137 -129.391
-152.952 -105.318 99.7288
-1.5483 1.48383 -316.519
-137.904 -86.2478 -259.849
159.095 98.6342 -140.331
144.881 85.544 -262.865
167.041 -108.379 98.7557
136.85 -74.9955 251.294
68.9631 -188.881 139.771
-62.1494 -185.5 139.367
3.33938 -255.632 -6.64998
-55.9277 -186.216 -152.958
68.1972 -194.316 -136.552
145.1 -85.7592 -262.674
147.205 -96.6924 -121.104
183.71 -3.36639 26.0406
-144.339 173.421 101.627
-145.752 190.161 140.25
-97.3488 225.442 117.742
-188.634 49.9497 207.497
-179.76 117.728 178.563
-195.926 71.57 164.405
-44.0017 210.454 208.164
-116.05 172.132 204.951
-82.8544 128.596 246.8
-39.3332 251.969 117.778
-55.4952 226.05 72.5292
46.1757 209.877 208.151
-0.0885656 249.169 162.749
61.4006 224.958 69.9945
40.6205 251.336 117.45
105.253 226.475 115.627
-10.837 171.872 -43.5096
-73.3461 124.961 -64.9194
74.9414 131.774 -72.5939
16.7905 174.644 -42.0837
-49.626 149.399 -221.761
-2.37586 157.263 -172.945
57.4236 148.743 -221.364
-120.259 124.737 -160.367
-141.019 146.767 -18.0847
-75.2181 111.553 -274.707
-103.711 133.226 -220.612
-171.84 50.2838 -155.59
-150.232 89.8868 -200.167
-169.02 35.8838 -225.195
-157.368 121.411 64.0989
-178.043 -2.88133 -117.077
-176.451 60.7046 -75.3165
-183.144 75.6197 97.9049
-189.522 20.0729 121.79
154.882 192.428 141.051
154.455 176.873 99.4076
87.5787 130.282 246.431
123.751 173.994 208.089
197.279 89.5767 149.363
185.977 127.638 179.807
185.946 45.5645 210.439
-84.718 37.9458 274.831
-0.132888 70.9717 268.127
-173.936 -29.4429 210.41
-144.633 2.07209 255.496
2.66988 -81.7031 300.025
-74.9219 -49.4985 288.791
-65.5088 -111.345 263.466
-171.501 -44.8136 77.0731
-176.834 -39.4303 155.816
-171.761 -59.1801 -167.438
-162.572 -40.8304 -78.1582
-127.819 -159.65 46.2139
-149.311 -121.292 5.29453
-123.384 -160.553 -40.1404
-145.677 -1.45711 -275.753
-170.76 -43.7034 -225.336
-3.87724 74.9225 -305.878
-81.0512 46.7295 -309.339
-79.2005 -118.883 -275.536
-83.0517 -46.5792 -306.439
-1.43362 -78.1082 -302.837
116.506 138.884 -223.288
86.1473 113.655 -273.342
152.362 148.184 -21.5059
132.751 128.8 -169.426
182.182 48.4487 -225.879
167.158 97.001 -204.091
181.632 59.2896 -169.478
138.99 -166.302 40.7555
125.755 -157.432 122.523
91.9377 -204.271 64.4296
182.036 -34.13 217.21
160.766 -86.574 190.84
187.494 -43.104 155.623
35.3135 -161.117 212.774
103.494 -133.45 212.186
68.8565 -111.023 265.197
32.0503 -229.231 53.6171
51.385 -241.661 -8.74644
-32.255 -158.728 213.089
3.05522 -199.661 148.865
-40.6436 -238.839 -7.17233
-24.9718 -226.779 53.5553
-83.2425 -199.432 65.7935
33.9917 -242.709 -69.891
85.7356 -217.171 -67.3019
-73.8111 -209.871 -68.7135
-24.4896 -240.313 -69.8788
49.9309 -156.904 -228.082
1.79825 -216.455 -128.688
-57.2635 -158.834 -225.358
114.49 -149.137 -144.845
134.665 -170.717 -37.7646
81.2499 -115.927 -274.077
117.509 -141.58 -223.235
180.822 -55.6948 -179.519
167.42 -95.2871 -210.168
182.424 -49.5388 -225.532
161.269 -130.547 3.07711
189.193 0.442069 -119.618
176.928 -41.3231 -67.9951
186.505 -55.0517 73.1293
200.201 11.8761 111.917
81.8558 -48.5206 290.828
149.128 -6.26683 262.177
89.1576 33.8632 276.876
-117.358 -151.195 123.507
-97.0948 -131.325 211.232
-152.128 -85.5905 186.261
-110.454 -143.133 -224.219
-120.709 -132.186 -155.513
-157.078 -97.2621 -202.881
150.546 0.00783443 -272.338
85.5692 -50.1025 -304.861
85.1566 50.2298 -304.784
193.484 77.4192 94.5076
186.149 62.5576 -75.2879
166.287 127.335 61.1878
-123.097 188.14 83.3817
-123.868 201.267 112.022
-100.827 213.303 93.2466
-166.655 160.815 135.761
-147.046 182.358 129.326
-163.939 154.514 122.096
-92.0106 233.93 133.033
-122 210.358 131.549
-116.78 217.064 146.899
-198.031 36.2736 187.934
-201.347 60.7468 179.284
-199.554 50.3872 173.403
-163.315 103.806 213.136
-186.482 81.5487 196.415
-167.55 68.1778 228.062
-186.592 107.436 145.019
-192.704 93.352 165.567
-183.775 129.795 148.212
-22.7132 190.697 225.258
-62.9898 174.474 227.003
-42.6555 149.768 238.894
-98.4282 208.595 181.095
-81.6919 194.514 207.125
-62.7759 225.627 184.384
-113.74 108.42 248.187
-100.571 152.181 229.256
-131.503 130.63 226.117
-166.59 159.328 156.914
-151.234 146.438 194.463
-135.141 186.587 169.763
-75.6383 229.982 95.151
-80.8563 213.957 72.1483
-59.5835 250.31 132.772
-67.4432 242.368 118.925
-29.2616 232.199 70.9393
-47.2854 241.534 97.0764
-20.4096 245.733 96.3314
23.6114 190.551 225.301
-0.0293927 213.558 209.152
44.0224 246.583 161.52
23.4972 233.507 187.786
66.4483 225.121 184.658
-23.1016 233.54 187.795
-42.7839 247.063 161.264
88.511 213.553 68.8529
83.0993 229.787 93.9415
109.332 214.496 92.2006
20.1549 245.817 95.5934
50.9234 240.636 96.0622
30.963 231.854 68.7899
98.4472 234.9 132.084
73.4658 241.861 117.435
62.7392 249.422 132.469
-22.7952 258.775 135.26
22.5694 258.43 135.408
-0.511972 253.866 118.715
-66.3869 203.497 47.2064
-90.6988 188.586 45.8888
-12.4502 214.236 36.8439
-36.1578 212.519 43.5746
-72.6148 148.391 -164.179
-25.7543 162.75 -59.1494
-45.63 158.343 -147.827
92.262 191.287 39.5411
76.6761 200.321 41.0195
56.5656 158.898 -144.811
47.301 155.443 -54.7081
87.1249 150.588 -158.532
40.781 212.416 40.962
15.598 214.535 35.3153
-28.1986 142.292 -242.65
-0.974215 149.049 -222.242
28.3771 142.592 -241.093
-45.516 156.94 -174.701
-29.1724 151.667 -200.963
-63.1461 151.351 -200.434
75.4267 149.558 -205.083
29.6149 150.481 -203.017
51.7672 153.5 -176.733
3.53576 174.745 -39.9757
21.3525 163.282 -128.865
-21.2673 161.245 -131.292
-140.73 132.415 -34.0866
-121.132 166.774 46.8682
-96.0949 140.637 -177.068
-110.323 128.742 -150.614
-138.317 128.807 -93.3576
-135.913 124.126 -112.072
-134.831 115.71 -136.512
-42.3617 120.454 -271.052
-63.5534 137.918 -247.861
-120.89 110.901 -241.919
-93.3927 126.879 -247.837
-105.057 97.2156 -270.707
-77.499 145.494 -222.586
-86.2165 145.306 -200.477
-173.978 28.1841 -175.133
-169.244 45.8614 -197.887
-172.092 15.9745 -210.519
-150.264 91.1646 -166.552
-161.347 70.0336 -183.459
-165.567 67.3213 -140.474
-156.084 58.3433 -242.461
-160.948 66.5039 -214.077
-147.792 87.1842 -227.827
-112.896 131.687 -192.471
-130.922 113.515 -211.192
-134.023 113.219 -180.668
-137.097 157.783 56.6499
-123.769 109.524 -41.336
-140.958 154.267 20.1355
-152.864 149.291 83.656
-170.251 130.905 105.387
-177.5 -2.12569 -146.31
-179.14 29.6989 -130.197
-160.498 44.0361 -35.7022
-174.344 33.5274 -109.699
-175.988 -28.3662 -81.2897
-175.007 50.4307 -112.886
-177.405 57.1373 -98.7535
-194.586 52.1607 159.266
-192.483 30.7569 162.677
-182.276 107.986 120.095
-189.704 77.5689 139.668
-185.189 11.0746 85.0797
-188.888 45.9508 113.195
-181.053 39.2502 73.7347
-174.237 77.0018 -0.192082
-172.018 86.5579 30.0948
-173.095 98.1201 78.4038
132.959 203.685 109.61
132.795 190.707 83.193
123.563 217.759 148.221
130.284 212.817 128.998
173.558 158.813 118.075
156.636 185.584 125.264
176.676 164.238 135.683
45.0988 149.88 238.686
67.8725 174.141 227.537
136.824 136.678 227.852
107.02 154.401 231.212
116.848 113.826 248.689
87.993 194.062 208.645
105.19 208.479 183.261
196.47 42.7686 167.001
195.684 68.7714 178.865
195.25 21.1391 192.318
193.522 136.065 148.942
196.565 109.303 162.166
196.009 117.103 139.813
167.597 70.7953 227.503
186.666 92.5513 195.857
167.237 113.445 213.215
143.42 187.892 173.725
159.046 152.01 197.545
175.604 162.854 160.783
-49.7427 103.484 257.243
-0.0435283 122.74 250.517
-117.474 69.2241 262.832
-89.3245 85.1985 262.358
-0.308063 20.6901 286.317
-48.1336 50.6063 273.047
-43.3917 6.65749 288.634
-186.634 -2.30943 190.907
-182.37 10.8574 209.512
-137.245 -38.1495 253.822
-161.522 -15.7381 235.711
-152.631 -52.0603 228.781
-165.028 29.2036 233.351
-147.479 47.5851 251.527
2.59329 -111.323 284.581
-28.5429 -97.9977 284.197
-25.5011 -124.209 265.641
-35.362 -36.3501 295.132
-29.9779 -67.3034 295.165
1.84468 -55.2015 305.065
-97.5239 -95.3522 257.54
-71.3819 -82.1697 280.086
-103.211 -64.0905 271.249
-116.48 20.36 270.796
-111.025 -24.8143 276.466
-80.4306 -8.87509 289.357
-186.698 -9.21259 137.11
-186.04 -7.12366 170.537
-173.23 -16.751 58.0561
-185.121 -12.8548 98.4815
-165.746 -69.8682 132.156
-178.295 -41.0731 114.347
-164.021 -78.0906 88.3694
-174.023 -37.658 -177.881
-178.636 -31.0683 -135.829
-155.712 -80.2307 -108.97
-172.913 -48.3529 -134.317
-164.072 -77.2698 -156.667
-175.817 -21.935 -107.083
-171.206 -25.9569 -32.6861
-112.214 -178.145 22.5712
-127.35 -160.783 3.51081
-108.25 -182.21 -20.2924
-151.552 -116.774 53.6585
-140.556 -139.78 27.7571
-141.407 -135.43 69.3214
-137.892 -127.016 -80.9787
-139.675 -140.21 -18.2661
-147.298 -112.676 -53.5391
-168.009 -53.2532 9.62957
-156.706 -91.5343 -26.8035
-158.375 -89.6329 36.7913
-171.869 -2.79535 -229.861
-171.982 -23.441 -210.815
-141.479 40.0452 -270.374
-161.123 17.943 -250.124
-160.611 -65.4924 -242.708
-162.787 -22.6318 -250.204
-143.17 -43.4992 -269.669
-3.6233 104.116 -286.797
-44.7166 93.8954 -294.6
-47.4384 26.0925 -316.648
-45.9957 62.1197 -311.183
-2.67449 42.6004 -316.049
-79.5691 81.1567 -295.957
-109.59 65.0846 -288.342
-44.5922 -128 -271.48
-46.8935 -99.9746 -292.664
-0.804733 -110.918 -285.782
-112.772 -69.4335 -287.931
-83.0822 -86.8506 -294.701
-109.354 -104.385 -271.766
-1.5163 -40.568 -314.283
-46.938 -62.6539 -307.519
-47.6111 -23.0874 -316.471
-115.898 21.6032 -296.245
[...]
POINT_DATA 642
SCALARS Mean_Curvature double 1
LOOKUP_TABLE default
0.00691323
0.00657298
0.00688593
0.00902308
0.0238276
-0.000197179
0.00674032
0.00647204
-0.00207665
0.0113788
-7.32729e-05
-0.000304339
0.0124129
0.0106243
0.0164853
0.0149278
0.00729039
0.00912746
0.0208812
0.0122499
-0.00802298
-0.00249627
0.0089636
0.0103086
0.0112211
0.00488058
0.00914387
0.00518303
0.00150568
0.0130756
-0.00737717
0.0141651
0.00760126
0.0128705
0.00746837
0.00743608
0.0378142
0.0071408
0.0149072
0.0131311
-0.00302489
-0.00257339
0.00710402
0.0346748
0.00733238
0.0175109
0.0116405
0.00696079
0.0121524
0.00850454
0.0091165
0.0143167
0.00907218
0.0101638
0.00854945
0.00697541
0.0115221
0.00964051
0.00954981
-0.0163426
-0.0166848
0.0153459
0.0145757
0.00309794
0.0136331
0.0161394
-0.140022
0.0138207
0.0156635
0.00941606
0.00956056
0.0198704
-0.00847681
0.0100196
0.0457393
0.00596127
0.00482583
0.0246812
0.00866013
0.00642685
0.0101551
0.00162622
0.0152613
0.0105083
0.00387805
0.000724681
0.0183294
0.0127049
0.0221637
0.0133402
0.0117322
0.000321274
0.003114
0.0119349
-0.0107413
0.00898901
0.00691136
0.00472711
0.0152507
0.0177617
0.00941791
0.0147477
0.0146944
0.00926029
0.00562468
0.0228921
0.0125369
-0.0961355
0.00838449
0.0237318
0.0176373
0.00798477
0.00786506
0.00690603
0.00905842
0.0194695
0.00648209
0.00276799
0.00428371
0.00722392
0.00904787
0.0028089
0.015874
0.0039563
0.0129296
0.0169104
0.000762785
0.0103844
0.016583
0.0137555
0.00987775
0.017062
0.0111451
0.00819468
0.00786638
0.00237073
0.00770063
0.00873885
0.023848
0.00969431
0.0254836
0.0242337
0.0100293
0.0122148
0.00277414
0.0065932
0.0125987
0.0115779
0.012454
0.00283772
0.0065335
0.0081866
0.01031
0.0250504
0.00428093
0.0145314
0.0064594
0.010954
0.0100315
0.00449784
0.0847461
-0.00860431
0.00778977
0.00647508
0.0110404
0.0317546
-0.00100252
0.000696775
0.0266335
0.0125579
0.0251481
0.0411913
0.0459203
0.0280745
0.00769494
0.0116585
0.0124711
0.00055453
0.0275594
0.0323894
0.0131071
0.00901817
0.000441862
0.00897873
0.0103221
0.0103339
0.0112979
0.00975955
0.0102801
0.0180766
0.00814836
0.00927078
0.0119598
0.00904136
0.0301833
0.00711107
0.00876728
0.0100027
0.00820952
0.0127247
0.00813962
0.0136444
0.0118105
0.00892707
0.0120161
0.0147199
0.00935852
0.0111325
0.0104188
0.00879552
0.00678757
0.00825541
0.02609
0.00914537
0.025121
0.0309148
0.0298911
0.00356808
0.00275737
0.00165015
0.00612122
0.00326214
0.00199854
0.000958609
0.0215399
0.00292094
0.00394947
0.0130528
-0.00307208
0.0108092
0.00201743
0.00810443
0.0123116
0.0110025
0.0123777
0.00984171
-0.00327865
0.00910149
0.00257944
-0.00304985
-0.00106167
0.00135003
0.00339758
0.000496972
-0.0283319
-0.0121844
0.0123142
-2.71753e-05
0.0678797
0.00425634
0.00817921
0.00797036
0.0178849
0.0166434
0.0162267
0.0122829
0.0211992
0.0134315
0.00487975
0.00850623
0.00404109
0.00413668
0.00525708
0.0088006
0.0170054
0.0126978
0.0181335
0.0146359
0.0137521
0.0111157
-0.0233003
-0.0245727
0.0491648
0.0122019
0.00593012
0.00158082
0.0184866
-0.0130695
-0.00634698
-0.0282604
-0.00638563
0.0200789
-0.000110165
-0.00258586
0.00758817
-8.04509e-05
0.0109224
0.0056106
0.000931922
-0.0525747
-0.0547011
0.0141159
0.00804425
0.00761003
0.0189955
0.0182079
0.00564999
0.00776796
0.0242884
-0.000264566
0.00793406
0.012534
0.0117328
0.0142449
0.00996793
0.00918473
-0.000415709
0.0145134
0.0141246
0.0323752
0.0198613
0.0179113
0.00805839
0.0123655
0.0104028
0.00990544
0.0114053
0.0180153
0.00206231
0.00143253
0.0148938
0.006688
0.00417914
-0.000716127
0.0051186
0.018918
0.010732
0.0106223
0.0125893
0.0101252
0.00389026
0.014869
0.0213311
0.00869702
0.00853561
0.0043634
0.00864975
0.0250053
0.0132609
0.0131723
0.012215
0.00884199
0.0124757
0.0152225
0.00618156
0.00291149
0.00020827
0.0119569
0.00275743
0.0078532
0.00452679
0.00240155
0.020283
-0.00185043
0.00537981
0.00534535
0.00971006
0.0081702
0.00462884
0.00732731
0.00634774
0.00867024
0.00529782
0.00780039
0.00332699
0.009361
0.0037476
0.00325643
0.0034888
-0.000603433
0.0218075
-0.000681977
0.0109873
0.0110531
0.0186137
0.0135171
0.00707562
0.00762272
0.0107881
0.00653195
0.0131144
0.0092483
0.0145375
0.0127103
0.00811507
0.00976871
0.00721721
0.012394
0.014966
0.0131958
0.0068611
0.00665656
0.00821713
0.00990905
0.0144726
0.0131977
0.0140917
0.00462362
0.0135967
0.0263861
0.0147369
0.018714
0.0163012
-0.00539713
-0.0192504
-0.00347921
0.064948
-0.0433845
0.000918248
0.00685364
0.00265099
0.0149849
0.00434862
0.0199136
0.0232178
0.0192597
0.00438683
0.0114727
0.00473886
0.0126032
0.00996943
0.0213937
0.00756862
0.00922558
0.0056024
0.00623565
0.00601586
0.00534935
0.00860623
0.00760796
0.00750768
0.0221898
0.0075087
0.00672315
0.0124685
0.0104792
0.0160167
0.00567515
0.006664
0.00375263
0.0109863
0.00690103
0.0103321
0.00576278
0.00687904
0.00532091
0.0123142
0.011893
0.0118587
0.00432825
0.00749712
0.00526572
0.0022807
0.0115675
0.00685786
0.00765812
0.021775
0.00761968
0.0154122
0.00696712
0.0117647
0.0071001
0.00578209
0.00466409
0.00854094
0.0066706
0.010551
0.00169812
0.00316721
0.0150297
0.00884281
0.0223465
0.00728765
0.00969026
0.00810628
0.00533059
0.00565233
0.0133161
0.00694608
0.00677007
0.01198
0.00471087
0.00969697
0.0149952
0.0126102
0.00443818
0.00405584
0.0125877
0.0121464
0.00561659
0.003736
0.0145801
0.0135906
0.00189899
0.0122314
0.00999194
-0.0039666
-0.0189766
0.030105
-0.0148001
0.0217658
0.0128797
0.0166776
0.0150403
0.0074053
0.00815093
0.00607402
0.0071034
0.006127
0.00626812
-0.00741135
0.010024
0.0138934
0.0152835
0.0124716
0.0137651
0.0144058
0.0231263
0.00684345
0.0196995
0.00257683
0.00172373
0.0108251
0.00336851
0.0188642
0.0324351
0.0255337
0.00896446
0.0292893
0.00521074
0.00891245
0.00710824
0.0114129
0.0102409
0.00369992
0.00124653
0.0198081
0.0170968
0.0415625
-0.0214209
0.00917504
-0.00683673
0.0089988
0.0028178
0.00837909
0.0083039
0.00162925
-0.00167652
0.00905206
0.00227816
0.00123991
-0.00204518
0.0105682
0.0130177
0.0110652
0.0130345
0.00112098
0.0189599
0.00543884
0.00927719
0.0129702
0.0159124
0.0018357
0.00316252
-0.00113038
0.00561236
0.0126612
0.0181045
0.0121637
0.0168584
0.0115275
0.00648671
0.00632587
0.00659454
0.00665057
0.0113432
0.0117171
0.0130181
0.00687569
0.00463047
0.00997364
0.0036552
0.00506805
0.0134748
0.0115302
0.00523405
0.0103252
0.00481297
0.0163198
0.0100927
0.0302851
0.0143113
0.0163898
0.00571021
0.00415682
0.00420677
0.00929458
-0.0179156
0.0133858
0.0214766
0.0179915
0.0125635
0.00696206
0.00686738
0.0080181
0.0216831
0.0169701
0.0137692
0.00962173
0.00973526
0.0139526
0.0109523
0.00904609
0.00437748
0.0116689
0.0178515
0.00565491
0.0177741
0.0153303
0.0072704
0.00978346
0.00900458
0.00581165
0.00910672
0.00144925
0.000824418
0.0107921
0.0145635
0.00267589
0.0136718
-0.0162261
0.0292347
0.00311944
-0.0119519
-0.000701346
0.00658682
0.0135622
-0.0661942
-0.0263063
-0.0220742
0.0311074
0.0103218
SCALARS CoVolArea double 1
LOOKUP_TABLE default
722.458
782.496
871.044
777.778
682.987
1399.47
1126.15
1216.38
1042.04
577.692
938.704
396.129
577.939
1331.68
1141.77
1242.87
1071.85
749.447
564.733
1240.92
2108
2907.39
1516.66
581.695
1199.4
1704.29
1369.17
1403.94
2052.93
1304.13
2171.31
1191.68
1411.14
1142.09
1451.68
1459.74
487.07
1729.95
1591.26
1213.42
2624.37
3040.76
1029.67
785.281
722.881
1037.49
1338.28
457.771
1297.88
1570.36
1545.96
675.766
854.809
1394.27
1317.95
1006.63
758.456
725.865
1680.7
6007.43
3838.68
2401.25
869.343
1780.59
952.977
683.605
661.455
1169.21
858.852
920.452
836.249
837.577
2817.8
861.04
1017.99
1557.84
1141.8
927.436
951.629
1570.87
1488.45
962.029
1191.98
1348.75
1726.71
2723.88
967.319
1386.83
999.109
1430.29
1231.57
1768.06
1119.19
739.988
2429.11
1014.25
1430.12
1552.9
1407.61
849.659
1624.82
1469.08
1195.91
1601.59
1828.95
796.879
1260.99
1507.53
794.017
888.375
688.672
824.454
1119.09
1539.57
1255.6
847.125
1248.36
1174.78
1323.59
1341.04
1349.97
1428.48
898.679
1304.26
1334.56
853.401
1407.15
1202.86
955.771
946.18
1141.45
899.985
1650.9
1998.23
1312.41
2078.14
1097.79
1323.44
891.036
610.092
470.014
860.071
1248.24
1029.9
2382.54
1579.73
1204.25
1427.34
1338.15
1785.82
1500.63
1220.37
1065.89
808.039
1733.1
651.027
1743.03
1655.14
1638.93
1392.66
1054.67
2940.83
972.479
857.158
781.281
562.031
648.81
742.861
661.17
609.956
1047.57
577.931
581.943
296.842
1464.8
1115.03
1202.44
621.636
743.544
747.259
1338.02
1457.8
1787.05
1461.1
1375.18
1272.15
1287.15
1406.14
1499.33
1259.26
1735.56
1561.14
783.142
777.552
782.343
640.622
890.316
742.148
906.283
1397.52
1319.44
1286.91
1355.8
1365.87
1307.21
1209.54
794.35
841.729
778.972
969.068
863.433
988.554
748.662
704.843
875.548
982.48
1027.61
865.74
2883.47
2929.96
1501.72
1768.5
2403.17
3771.55
1247.98
2533.04
2207.71
2030.35
3480.76
1837.96
2190.73
1503.48
1203.91
1140.59
1355.31
975.717
1136.68
648.113
744.354
1273.33
1401.38
1876.2
2282.68
1918.44
3658.7
1419.25
648.78
2504.37
1418.84
763.734
829.579
1259.01
1015.65
1093.59
1004.48
1167.77
730.648
633.816
1090.1
846.433
801.039
1038.4
884.842
970.209
1035.45
780.564
964.612
790.614
946.816
925.318
940.566
4705.07
1919.46
1165.33
1000.76
1249.25
907.03
4509.68
1680.04
2496.4
561.489
2277.47
776.917
817.458
994.804
1009.7
1252.39
1244.09
2907.74
2517.18
2110.85
1295.72
813.157
946.15
1167.71
691.266
752.831
695.372
661.996
1881.49
1522.71
1394.93
1343.08
1289.87
1419.95
1508.29
1113.46
1094.39
909.873
703.318
823.403
527.636
1488.22
1259.45
1428.53
1562.81
1562.69
1234.88
2255.65
2411.79
1433.76
1627.09
2259.19
2200.64
1845.15
726.231
1099.55
1301.17
1209.85
1081.98
1262.55
1367.64
945.881
1231.63
1091.22
1492.13
1236.41
1128.91
1099.65
1302.37
1285.45
1642.5
1511.87
1696.26
1259.92
881.262
1644.74
1166.29
1341.38
1327.99
1560.45
1079.26
836.84
2042.81
1182.46
948.039
825.028
1488.62
1083.7
1103.87
1131.03
1309.89
1050.03
1127.83
1800.57
1320.89
1671.12
2679.68
2630.04
2053.24
846.957
823.902
1402.45
1109.12
1079.91
1129.48
1468.46
1561.85
1352.5
1760.91
1410.73
1718.66
1240.49
1404.92
1333.67
1530.34
1579.16
1489.3
1353.35
1198.37
1902.49
1669.97
1867.15
1629.61
1736.22
1668.86
1136.88
1550.51
590.284
684.169
1106.04
972.172
1117.6
2072.58
4289.06
781.395
1576.94
1218.65
2379.81
697.46
889.143
660.233
1137.78
977.519
670.696
1020.84
968.766
626.039
854.226
729.953
809.941
895.69
1039.51
1184.22
1127.2
1551.16
1272.66
1263.07
1237.16
1227.94
1481.42
655.617
815.769
755.57
1094.19
902.365
966.104
1316.64
1151.18
1501.24
1013.97
1317.55
1061.58
1514.67
1349.7
1417.98
1206.64
1217.64
1185.33
1689.37
1446.26
1688.06
1208.38
964.777
1512.92
1365.45
626.825
1030.46
786.669
1035.14
1174.41
1470.67
1303.63
1427.92
1260.17
1454.52
989.835
1151.81
1136.22
774.169
969.061
575.413
1220.98
1310.09
1463.71
1631.63
1617.61
1409.5
958.42
926.131
826.216
901.525
1240.26
896.401
1106.2
1038.38
1023.43
1155.12
953.936
1677.64
875.215
779.505
1138.81
2050.07
1191.08
1836.13
2940.87
1936.25
1026
2548.43
1458.79
1012.81
1102.45
1099.67
1071.62
978.777
1731.29
1593.85
1910.92
1868.13
2415.1
1357.45
1144.03
1136.4
1125.49
1197.5
1114.73
1233.87
1000.38
532.502
853.113
1311.24
418.808
1528.51
1022.52
547.45
908.147
1205.15
784.648
1240.11
983.024
1937.07
947.112
1034.47
1377.7
1382.35
831.936
1777.98
942.217
2641.04
1381.16
2837.64
1185.53
1100.45
1367.57
1293.99
1330.88
1288.57
1787.44
2573.08
2497.76
1843.99
1204.73
1283.17
1392.93
1229.1
1568.9
1054.2
1665.57
1376.72
1068.36
1162
2356.49
2012.22
2369.85
1718.07
1612.94
1343.49
1602.71
1624.21
1078.3
1496.78
1209.24
1174.11
1458.47
1209.55
1122.66
1064.68
1223.91
1474.06
819.95
1352.42
966.985
884.944
1096.49
1570.94
1287.47
1492.26
1043.53
1223.33
734.338
1030.65
1106.95
1406.38
1495.32
1943.82
1846.24
2336.18
725.386
950.58
699.995
605.66
865.223
1206.93
929.598
811.559
1132.38
1456.24
1381.21
1368.8
1445.47
1623.85
1957.69
1741.84
1372.81
1357.75
1667.42
1333.7
1320.57
1642.25
1915.74
1910.21
2054.95
1914.88
1324.57
2485.36
1125.78
885.189
874.917
1052.58
2770.91
691.818
1697.52
3919.1
935.626
1044.14
1051.07
1622.53
5037.68
1972.27
3271.13
1546.95
SCALARS SignedDistance double 1
LOOKUP_TABLE default
91.4154
90.2605
82.4186
78.4507
65.6113
67.0867
66.8262
71.4044
82.3419
81.2324
85.5722
87.5757
87.8093
60.0538
69.1532
66.9623
90.3295
90.8926
97.0062
66.6206
102.748
96.5243
60.1639
84.4936
67.3766
63.5862
102.591
87.8363
56.2245
63.295
95.3945
59.9276
85.7668
64.4796
73.9254
75.6431
73.644
96.6512
83.1745
60.0956
94.8135
95.91
88.5668
83.1326
81.3615
72.5354
77.1794
88.9863
58.8235
60.9786
64.0763
81.3344
91.1415
59.0752
63.7563
89.8275
80.6966
80.2127
122.889
119.73
122.236
123.602
89.7272
102.711
89.0872
97.8936
138.061
62.9152
83.7429
90.4438
85.6572
81.3861
96.3344
102.384
137.11
94.2663
88.5334
78.3041
86.3606
64.3816
58.9252
81.5485
69.8135
70.8232
66.1397
65.9215
78.7992
62.0815
57.0654
58.8274
63.4963
95.5469
85.4746
88.9391
110.81
86.0876
90.0963
85.8153
63.3719
82.7973
57.0802
53.4239
59.3371
55.0522
56.5839
82.6057
64.7748
139.414
90.445
80.202
84.5479
86.6956
81.0998
77.5053
75.7748
74.772
76.5088
82.6988
71.5006
72.2514
63.1985
76.876
74.9834
73.2465
74.0116
78.0916
78.9636
78.7846
71.6474
76.0491
80.0565
75.4068
83.1619
72.8245
85.0073
98.794
81.3231
61.0277
86.8293
85.4821
85.7117
80.5789
87.2808
99.4883
110.19
87.9769
89.2265
59.398
59.339
66.433
80.4391
74.6024
82.9011
84.1794
98.5926
85.3612
59.7211
57.858
57.4059
89.2209
131.486
94.1485
90.6468
84.2355
87.2544
85.8645
83.4975
86.3855
78.8161
81.0686
77.3965
86.6543
89.1347
89.594
64.4585
72.361
62.4422
86.5872
88.4045
86.2722
63.0098
63.0989
65.6995
61.1967
59.6082
59.2448
60.6718
60.9558
60.106
77.7417
64.0357
67.1327
86.0674
91.1196
78.6201
80.3028
91.3101
85.2624
85.4382
63.0003
58.938
64.0443
58.766
59.5712
58.8002
64.1309
90.3752
85.0823
85.7953
84.1156
84.4699
89.8698
77.1787
79.7272
77.9164
78.6963
78.2072
80.2797
95.2573
95.3035
97.1177
96.2561
99.5011
127.994
114.253
95.4326
94.7291
110.115
120.736
97.2002
93.8501
97.3157
82.2394
89.3977
82.5368
102.177
92.0817
91.7982
89.9811
90.911
94.5547
122.227
122.723
123.47
138.708
98.1848
94.6094
99.7699
140.765
125.542
107.291
68.4531
77.6856
75.0311
72.6903
62.3221
86.0068
89.4666
86.1631
84.3039
84.2516
91.2184
86.6182
96.7998
75.2463
83.3485
80.9515
90.4047
84.5192
91.764
98.7344
121.699
119.674
93.4022
91.0857
91.144
99.8285
119.157
106.06
119.455
109.551
121.893
89.1624
88.8738
89.5172
87.7459
96.1465
90.0467
96.9209
124.095
111.952
97.2206
82.4955
88.5841
72.6848
78.8618
83.7509
80.7029
81.9018
65.555
63.4418
58.1743
61.5732
60.3389
58.9972
59.7307
80.839
83.5007
79.4559
83.1436
80.9452
85.1131
62.8605
71.2438
62.5154
63.8373
59.974
72.9907
65.3525
65.4617
60.0373
65.2247
66.1699
67.3109
65.6688
84.2886
78.2014
64.7558
67.3747
72.0244
67.1353
61.9794
60.3989
60.0563
64.6784
62.627
60.8229
62.4769
64.5174
59.2952
61.0793
61.0959
60.0884
61.7627
85.7632
84.3787
97.2892
94.4236
87.4677
91.5142
90.6072
86.2874
95.538
105.158
94.1388
91.4972
105.957
106.983
83.1266
85.0088
83.3319
90.8731
87.2328
85.9188
101.714
87.5135
97.3876
94.225
91.9035
92.1184
83.9435
84.1508
63.1834
73.1969
73.1022
74.7791
63.5285
62.9032
60.4638
56.3445
55.4935
55.7247
56.1848
57.4413
64.159
57.8586
59.7559
55.0224
54.3142
59.0998
55.9336
57.378
56.1573
56.732
54.3876
56.4279
78.445
68.0063
88.3023
87.7099
58.6065
71.1819
69.9498
95.4486
119.48
98.4318
115.434
131.414
94.9335
88.4503
81.6754
83.3637
83.924
76.2799
81.0034
68.5106
88.8662
84.984
86.9835
87.3119
87.252
83.1662
78.9852
77.7604
77.7481
81.9097
80.3383
83.5889
75.5092
77.1361
74.9551
79.8223
80.3304
81.1702
73.7515
77.1301
68.4365
80.7631
79.4184
79.8256
69.8965
68.4166
64.2337
73.8251
71.7295
73.4951
62.646
68.1874
69.3554
78.3766
74.2154
75.9553
77.5933
77.0904
76.4157
76.1516
73.7956
75.708
74.4347
70.5536
71.4245
74.2803
74.1837
74.6952
73.2442
73.7995
81.1405
80.2211
81.3232
75.274
77.4664
75.2168
77.9808
78.2894
76.9302
76.8058
77.2695
77.1804
75.145
77.3655
73.4389
73.4026
73.7871
72.6334
70.8383
81.5713
79.3255
73.9538
77.1367
78.656
76.1828
74.3767
75.1828
82.1145
75.49
74.4966
91.248
96.276
100.487
97.2251
81.1108
73.9853
70.7522
69.8628
79.7799
79.3803
94.3715
78.1202
85.0039
81.588
95.7592
64.0629
71.206
70.8729
70.8833
58.6242
86.168
99.1003
83.8665
84.4297
81.6647
85.5288
85.1547
85.9924
69.3497
84.3891
79.2671
93.5313
86.4931
87.6891
81.106
87.0306
83.4789
83.6547
87.7432
87.066
91.766
98.6649
103.068
107.57
91.8622
99.2326
86.4422
82.2278
87.3139
86.8783
90.9666
89.7866
91.8175
90.7851
90.7554
90.67
59.7969
58.7168
58.1905
60.418
62.1485
71.7242
60.9478
64.0615
65.0226
60.2584
65.2247
64.9599
67.2007
65.4064
60.3332
56.7596
60.0033
63.107
82.2254
77.8685
80.0153
82.6334
84.5181
69.6716
71.0273
70.0035
74.2478
76.1761
83.9523
84.4124
85.1031
81.3864
75.5663
78.5002
77.8564
81.3295
72.4373
90.7719
86.3103
69.2075
71.9983
83.2227
99.3039
95.3308
85.8294
98.8956
85.3238
80.0189
82.6599
87.1251
89.576
87.8731
88.4035
85.2976
79.8728
59.487
68.3564
68.3054
59.4714
57.628
55.6504
57.5072
56.4687
53.1848
60.1308
53.1695
57.8597
56.4132
55.7959
54.6252
55.506
54.6484
82.77
90.6667
89.9702
85.7598
86.0521
92.8406
109.223
100.292
104.527
116.953
97.6115
88.3221
91.5577
116.802
127.452
106.425
125.704
92.1331
