# vtk DataFile Version 4.2
vtk output
ASCII
DATASET POLYDATA
POINTS 642 double
-91.7271 183.89 80.9519
99.8037 185.994 79.4228
-78.4193 -186.05 -3.53949
92.4617 -193.074 -6.40344
2.9635 -122.101 255.164
0.0450639 161.594 219.142
-0.533957 -124.329 -255.318
-3.03268 115.323 -254.22
165.572 -0.413767 -190.53
178.682 5.66636 177.73
-154.109 -2.99062 -188.762
-175.162 32.6251 182.104
-160.216 127.653 136.627
-135.021 83.3824 231.605
-74.7438 223.947 150.844
80.2504 223.718 151.582
0.80349 215.937 77.8813
79.6501 130.912 -180.796
-63.3073 132.325 -179.736
-123.633 72.5836 -251.089
-130.577 82.4362 -128.716
-148.256 -8.19991 28.4225
136.148 90.5097 230.372
171.07 131.577 136.595
-116.442 -68.7324 236.688
0.459869 -23.2276 282.368
-132.473 -88.6837 -129.972
-135.038 -97.1066 98.1192
-1.67104 1.68095 -303.807
-128.955 -81.0762 -251.675
141.946 89.0586 -140.561
136.884 80.0409 -254.698
150.137 -99.6252 97.127
128.203 -68.0928 242.682
63.08 -174.644 133.476
-55.2376 -171.234 133.162
4.07264 -239.1 -7.9753
-44.6172 -173.588 -148.959
61.5861 -180.828 -127.855
137.283 -80.4046 -254.35
128.236 -86.5538 -120.12
162.6 -4.28005 28.906
-129.171 162.224 107.307
-132.36 177.792 142.036
-87.4306 211.145 122.626
-176.67 49.1819 199.845
-166.363 111.754 173.177
-176.581 69.8823 169.846
-41.427 201.866 198.592
-109.235 164.146 196.1
-80.5979 122.942 233.726
-35.9003 235.151 123.327
-49.7164 209.452 82.7518
43.8676 201.205 198.534
-0.120708 237.022 157.335
56.2726 208.093 79.7602
37.4996 234.431 122.681
96.3928 211.784 120.396
-10.1263 147.583 -36.3191
-66.654 101.987 -60.488
63.2058 107.844 -71.0492
13.6384 150.444 -34.5321
-48.3117 129.828 -217.828
-2.5066 136.303 -169.79
56.7117 129.051 -218.204
-109.275 106.948 -159.887
-137.062 142.239 -17.9191
-71.5318 102.484 -265.143
-94.3104 117.903 -216.674
-153.404 44.4554 -154.079
-134.067 79.7735 -198.761
-151.625 32.3269 -221.475
-138.158 113.398 68.501
-157.487 -3.24171 -117.541
-157.001 56.829 -75.8416
-162.77 72.699 101.302
-169.765 21.2097 123.843
142.808 180.508 141.211
140.209 165.586 105.17
85.9688 124.754 233.08
117.937 166.08 199.423
178.887 88.5725 148.87
173.57 123.1 173.99
173.027 43.7186 203.716
-82.7009 34.091 260.523
-0.131959 66.5866 253.955
-158.882 -24.0104 204.431
-135.741 2.58294 245.014
2.97604 -77.9605 287.816
-71.0337 -47.4821 276.239
-60.5302 -102.797 253.523
-150.532 -40.0561 79.4627
-158.806 -32.6537 154.904
-152.617 -53.7476 -168.137
-140.725 -32.349 -78.7121
-112.123 -148.385 44.9644
-130.499 -114.159 5.89479
-107.805 -149.651 -37.7921
-135.806 -1.71633 -266.752
-152.723 -41.8298 -221.747
-4.29996 69.5963 -294.267
-77.5054 43.9526 -298.22
-75.9987 -110.946 -265.861
-79.8342 -43.848 -294.773
-1.53273 -73.6305 -290.937
109.1 123.001 -219.872
83.9286 104.407 -263.125
136.485 132.524 -12.547
122.251 112.368 -169.063
165.029 46.4575 -221.611
151.575 86.4712 -204.027
163.049 53.4643 -169.655
124.441 -155.723 38.5319
113.761 -145.726 117.911
83.3214 -190.095 60.5666
167.706 -28.9989 211.407
146.925 -77.1928 186.857
169.904 -37.1868 154.109
31.9925 -147.328 205.073
95.2221 -121.147 205.476
64.2823 -102.196 255.154
28.4959 -213.177 48.1245
44.6575 -226.267 -10.0892
-28.2775 -144.519 205.548
3.48964 -184.429 142.279
-32.3107 -223.502 -8.15916
-20.3222 -210.369 48.1044
-73.5168 -185.051 62.3766
30.3326 -227.52 -66.5012
75.397 -204.009 -63.8582
-62.3856 -196.322 -65.5078
-19.0261 -224.858 -66.6596
47.9929 -140.213 -222.892
2.09639 -203.436 -119.104
-56.7196 -142.071 -219.716
97.6044 -137.232 -142.44
119.804 -160.477 -34.9357
78.1136 -107.647 -264.186
109.145 -126.313 -219.02
162.695 -49.3893 -181.006
151.735 -84.5042 -212.709
165.067 -47.7062 -221.534
142.832 -124.286 3.66704
168.364 0.672368 -123.305
156.992 -34.3559 -67.3942
167.259 -50.7876 74.5135
180.607 13.2733 113.896
78.9267 -46.5012 278.051
140.661 -6.99004 251.939
87.604 29.5074 262.636
-104.606 -139.212 119.093
-88.2497 -118.707 204.802
-136.726 -75.9269 182.77
-100.876 -128.293 -221.154
-108.006 -116.315 -153.3
-140.941 -87.2903 -202.721
141.628 0.00743271 -262.898
82.6157 -47.6229 -292.447
82.1421 47.7725 -292.406
174.003 74.3834 98.1608
167.508 60.9622 -76.2669
147.75 119.577 65.753
-109.827 174.896 90.7651
-111.166 188.548 117.389
-90.1144 198.815 100.334
-150.98 150.807 140.231
-132.916 171.393 135.14
-147.881 145.494 128.025
-83.1768 219.17 135.064
-110.027 197.387 135.617
-106.713 204.231 145.182
-179.57 39.5993 186.267
-182.054 59.3352 179.663
-180.001 52.5271 178.187
-153.488 98.262 204.791
-174.598 77.1963 190.435
-158.01 65.1553 218.835
-167.718 104.108 148.856
-173.477 88.9522 166.05
-165.639 123.935 149.564
-21.6321 184.006 213.311
-60.43 167.778 214.943
-41.6698 144.409 225.099
-92.0952 199.269 173.822
-77.0056 186.328 197.733
-58.6542 215.62 176.886
-109.182 103.166 236.57
-95.9627 145.327 218.413
-124.512 124.223 216.511
-153.694 150.877 153.882
-141.805 139.289 186.781
-126.316 177.701 163.942
-67.8546 214.263 102.554
-72.4398 198.421 82.2574
-53.936 234.296 134.216
-60.5071 226.8 124.321
-26.0588 214.736 80.9537
-42.7349 224.812 104.669
-18.732 228.3 103.696
22.6225 183.852 213.355
-0.0313534 204.887 199.2
41.4973 234.502 156.421
22.2977 223.135 179.857
62.7507 214.829 177.035
-21.8538 223.171 179.864
-40.0881 235.097 156.119
80.8224 197.658 78.737
76.3065 213.825 101.184
99.573 199.769 99.2592
18.7104 228.49 102.615
46.8683 223.748 103.379
28.2687 214.365 78.3326
90.8242 219.974 133.392
67.6032 225.849 122.419
57.8953 233.203 133.584
-21.3239 242.022 135.884
21.0456 241.618 135.987
-0.546194 236.765 124.519
-58.2579 187.027 57.949
-81.6836 172.259 55.9363
-9.84355 195.794 47.7962
-30.924 194.611 54.2508
-64.156 129.118 -166.463
-14.4853 146.317 -56.7064
-41.0186 135.667 -147.605
83.3347 175.195 50.2391
69.1229 183.58 51.6418
53.0944 137.202 -143.477
35.8176 136.071 -50.3877
80.4177 131.162 -159.498
36.1 194.755 51.2314
14.1058 195.903 46.1682
-27.6304 126.364 -235.732
-1.06129 129.33 -218.774
27.7773 126.606 -234.245
-43.306 136.052 -172.751
-28.9862 131.626 -197.805
-60.1489 131.407 -198.055
73.7799 129.37 -203.462
29.0961 130.236 -200.361
50.4303 133.509 -173.761
5.55474 150.492 -31.9397
20.9884 139.824 -126.24
-20.156 137.013 -129.238
-136.69 134.026 -34.1202
-109.487 150.709 51.8779
-86.9404 122.065 -178.965
-103.766 108.728 -150.975
-125.816 119.95 -91.9127
-123.252 114.624 -109.544
-119.491 105.374 -133.623
-41.1664 109.683 -261.114
-60.9686 123.963 -240.14
-110.991 100.304 -235.461
-87.0221 115.107 -240.577
-98.225 89.6718 -261.831
-72.3847 127.875 -218.319
-79.0237 127.099 -199.113
-154.764 25.8613 -173.323
-150.884 41.1969 -196.183
-153.156 14.6131 -208.824
-133.45 80.5656 -165.871
-143.849 61.7444 -182.26
-148.062 57.8274 -139.495
-142.484 52.8522 -235.969
-143.904 59.2877 -211.588
-133.258 77.9582 -223.234
-101.69 115.408 -191.869
-117.688 100.733 -208.518
-119.375 99.5459 -179.873
-126.508 142.15 59.7409
-103.721 105.554 -40.5609
-132.96 144.218 27.8939
-135.275 139.883 89.1718
-152.396 123.257 111.677
-157.783 -2.29449 -145.666
-158.465 27.6881 -131.059
-140.498 47.1265 -37.0095
-153.132 33.2724 -112.145
-164.662 -15.8112 -80.9327
-155.329 47.8698 -112.336
-155.895 52.9339 -97.9667
-174.673 52.7023 162.862
-172.654 33.6299 164.822
-163.307 103.6 124.472
-170.249 75.5329 142.826
-164.269 12.1592 89.5681
-168.922 44.8733 116.379
-159.829 39.2019 77.4053
-156.646 71.7963 1.56568
-156.554 78.1675 33.5552
-153.772 90.3703 82.0011
121.269 190.678 115.059
120.542 177.325 90.7983
114.888 205.428 145.599
119.398 199.463 131.944
157.919 150.026 123.337
143.259 174.342 129.781
161.72 154.544 138.808
44.214 144.571 224.903
65.8727 167.373 215.245
130.474 130.998 218.094
103.31 147.66 220.026
112.761 109.102 236.731
84.1588 185.74 199.279
99.6262 198.882 176.06
178.227 42.0656 165.824
177.192 67.8138 175.678
177.81 20.4362 188.972
176.445 130.318 149.188
178.806 107.232 159.796
177.384 113.665 142.335
157.922 67.9466 218.191
173.685 90.0105 189.39
157.618 109.285 204.532
135.246 178.648 167.83
150.484 145.379 190.007
163.671 154.442 157.238
-49.292 98.6363 243.267
-0.0328462 117.897 236.544
-113.361 65.7234 250.572
-87.711 80.7035 248.459
-0.298166 16.7358 272.137
-47.384 46.158 258.565
-42.3705 3.02015 274.425
-168.631 2.69217 188.133
-167.969 13.4075 202.144
-127.725 -34.6167 243.806
-150.286 -13.1629 226.94
-140.658 -45.9475 220.75
-153.896 29.349 223.587
-139.242 45.9656 240.832
2.88952 -103.944 273.438
-25.2927 -91.6073 272.782
-22.0337 -114.375 255.771
-33.4514 -37.1925 281.233
-26.9242 -64.7117 282.177
2.07402 -55.3648 291.298
-90.0627 -87.9248 248.064
-66.8627 -76.9858 268.819
-96.2757 -59.7189 260.416
-111.217 18.7381 258.424
-104.46 -23.5834 264.742
-77.3301 -10.3706 276.163
-167.848 -5.35319 137.265
-167.624 -2.32015 170.338
-151.638 -13.5501 60.7254
-164.615 -9.02956 101.62
-147.694 -61.9763 131.113
-158.919 -34.8724 115.272
-144.744 -71.8942 88.8417
-154.616 -35.9244 -176.712
-158.439 -27.8243 -137.16
-135.311 -73.8129 -110.593
-153.619 -41.5162 -136.752
-145.657 -68.9698 -158.631
-156.709 -16.1502 -106.967
-154.754 -19.3453 -33.3623
-98.3796 -165.579 21.8995
-111.841 -149.617 3.9727
-94.1634 -169.857 -19.0052
-132.523 -109.327 53.4564
-123.424 -130.562 27.5247
-124.743 -126.123 67.5172
-119.481 -116.897 -78.6956
-122.401 -131.188 -16.712
-127.472 -104.842 -51.9876
-147.807 -48.988 10.1038
-136.868 -85.9412 -25.55
-138.296 -84.1369 37.2291
-153.479 -3.18879 -226.158
-152.981 -22.9462 -209.428
-131.58 36.9102 -261.554
-147.458 16.0528 -243.103
-147.51 -61.5308 -235.986
-148.835 -21.6126 -242.966
-133.355 -41.1333 -260.54
-3.95951 95.51 -275.946
-43.6253 86.3128 -283.662
-46.5005 25.0183 -304.02
-44.905 58.1942 -299.395
-2.96028 40.6109 -303.624
-75.8238 75.3007 -285.631
-102.922 60.5304 -278.516
-43.553 -118.495 -261.46
-46.0738 -93.6369 -281.437
-0.829334 -103.582 -274.791
-106.671 -65.7516 -277.968
-79.9009 -81.9798 -284.02
-103.139 -97.8623 -262.701
-1.64637 -38.4105 -301.878
-45.953 -58.9518 -295.124
-46.656 -21.5461 -303.962
-109.025 19.9199 -285.768
[...]
POINT_DATA 642
SCALARS Mean_Curvature double 1
LOOKUP_TABLE default
0.00630466
0.00580525
0.00666254
0.00904837
0.0287349
-0.00374481
0.0094258
0.00927819
-0.00201361
0.00959654
-0.000476152
-0.0244705
0.0106104
0.0121677
0.0253431
0.0225141
0.00813207
0.0121229
0.0279567
0.0167827
-0.0140803
-0.00630018
0.00948165
0.00641216
0.0128554
0.00463211
0.0122407
0.00506504
0.00116135
0.0179969
-0.0164736
0.0190996
0.00756987
0.0161112
0.00856724
0.00858393
0.05289
0.00424455
0.023352
0.0173252
-0.00295517
-0.00309711
0.00891841
0.048576
0.00762283
0.0289074
0.0189272
-0.00768924
0.0141903
0.00899925
0.00904045
0.01221
0.00882899
0.0119206
0.0136868
0.00647397
0.00912909
0.00935594
-0.0272362
-0.0194946
-0.0204114
0.0215857
0.00889765
0.00414646
0.00881884
0.0272748
-0.0197258
0.0169354
0.0156064
0.0145125
0.00946672
0.0207153
-0.0156637
0.00310396
0.131629
0.00725033
0.00641434
0.0325386
0.0107581
0.0053132
0.011736
0.00206184
0.0228603
0.0179193
0.00226075
0.000825428
0.0223203
0.0153301
0.0284301
0.015837
0.0139315
-0.000942335
0.00342687
0.0152268
-0.0171898
0.00789284
0.00691406
0.00558158
0.0188545
0.0149582
0.0111203
0.0177707
0.0175544
0.0100659
0.00643615
0.0279659
0.0132285
-0.127193
0.0137429
0.0235364
0.0161585
0.00939258
0.00859839
0.00798639
0.0107003
0.0233049
0.00709074
0.00209301
0.00429267
0.00725175
0.00979691
0.00212283
0.0183837
0.00323817
0.0152646
0.0194489
-0.00161346
0.0122659
0.0205699
0.0148932
0.0104194
0.0204487
0.00890946
0.00913295
0.00521514
0.00178559
0.00885195
0.00952044
0.0285246
0.0123318
0.0172915
0.0239375
0.0103476
0.00864398
0.00313076
0.00752233
0.0135634
0.0137854
0.014413
0.000630779
0.00760598
0.00834341
0.00939953
0.0280648
0.00787094
0.0150494
0.00753661
0.0106958
0.00963586
0.00555211
-0.143057
-0.0122342
0.00670776
0.00774486
0.0123368
0.0281626
-0.00700117
0.00148497
0.0291705
0.00448965
0.0366555
0.0721612
0.0775112
0.00315964
0.00806712
0.0229298
0.014747
-0.00276952
0.0315993
0.0398889
0.0153995
0.00968361
-0.000570036
0.0113706
0.0122098
0.0118678
0.01403
0.0117894
0.0120383
0.0301762
0.00939252
0.0149954
0.0138825
0.00895871
0.0384448
0.00471248
0.00845541
0.0114638
0.00881351
0.0150423
0.0092164
0.0207261
0.0133032
0.00952608
0.013424
0.022159
0.00933801
0.0128282
0.0115178
0.0103289
0.0070185
0.00852794
0.0308825
0.00767868
0.0303887
0.0413503
0.0391804
-0.0021535
0.00259449
0.000449024
0.00705783
0.00648875
0.00344907
-0.0226123
0.032271
0.00148427
0.00346083
0.0155263
0.000820627
0.013709
0.00353762
0.00936865
0.0173224
0.00547396
0.0184652
0.0130163
-0.00317126
0.00869806
-0.00064241
-0.00397313
0.00069549
-0.00204728
0.00225307
-0.00372004
-0.0265497
-0.0216549
0.0104091
-0.00105219
0.0343011
0.131497
-0.00183271
0.00875319
0.023784
0.0209161
0.0228866
0.0150733
0.0235349
0.0170898
0.00495991
0.00987456
0.00209298
0.00364756
0.00537177
0.00800621
0.0216618
0.0110545
0.0186587
0.0170353
0.0148198
0.0145114
-0.0462895
-0.0304615
0.0429159
0.0152122
0.00515605
0.00265032
0.0192196
-0.0189921
-0.0162874
0.034281
0.0307908
-0.00230237
0.00083231
-0.00366191
0.00911509
0.00124889
0.0116794
0.00648096
-0.00240632
-0.00205184
0.0464259
-0.00425674
0.00891529
0.00748542
0.026908
0.0161792
0.00647387
0.00481762
0.0246985
-0.00105534
0.00779021
0.0151919
0.0133089
0.0177526
0.0121625
0.0112151
-0.000213792
0.00694072
0.0108181
0.0414201
0.0178799
0.0176835
0.00980825
0.0200653
0.0118278
0.0133604
0.0138283
0.0262342
0.00196072
0.00160723
0.0186619
0.0054263
0.00424671
-0.0013822
0.00448976
0.0187768
0.0164484
0.0122207
0.0168039
0.0123225
0.00248871
0.0177482
0.0261151
0.0101624
0.00954032
0.00436867
0.00969736
0.0279407
0.0159967
0.0161472
0.0144946
0.0112879
0.0145569
0.017791
0.00859727
0.00390949
0.0036937
0.0118883
0.00256359
0.00844952
0.00589242
0.00276842
0.0243255
-0.00211987
0.0040042
0.00522329
-0.0109611
0.00222781
0.00541449
0.00810198
0.00703881
0.00772565
0.0069664
0.0101556
0.00195791
0.0117227
0.00203274
0.00155904
0.00439901
-0.00149168
0.0190161
-0.00268363
0.0135581
0.0152241
0.0267011
0.0181284
0.00804174
0.00828146
0.0115755
0.00602771
0.0151827
0.0103285
0.0176165
0.0146654
0.00897066
0.0108865
0.00835472
0.0148643
0.0179251
0.0156699
0.007578
0.00607541
0.00857438
0.0108214
0.0165521
0.0154497
0.019494
0.00655525
0.0123249
0.025133
0.0187312
0.0279217
0.0220127
-0.00914338
-0.0232378
-0.00332848
0.0364142
0.110617
-0.000651452
0.00879323
-0.000580621
0.0153768
0.0053138
0.0250286
0.0266383
0.0275847
0.00400262
0.0119488
0.00489825
0.0102258
0.0106789
0.0240625
0.00867094
0.010647
0.00624718
0.00652946
0.00637162
0.00644091
0.0100901
0.00842388
0.00878184
0.0211276
0.00513476
0.00765314
0.0114766
0.00823683
0.0209053
0.00830278
0.0075367
0.00394856
0.0104855
0.00714214
0.0117033
0.00646941
0.00698087
0.00540276
0.0148048
0.0134309
0.0125138
0.00421781
0.00797674
0.00548251
0.000899316
0.012829
0.00686275
0.00947189
0.0260729
0.00869609
0.0187397
0.00568938
0.0141706
0.00808086
0.00580074
0.00509055
0.00964459
0.0072774
0.0108597
0.00042024
0.00305914
0.018017
0.0110567
0.0265077
0.00782904
0.0125992
0.00893829
0.00563564
0.00596906
0.0171544
0.00734884
0.00737818
0.0149608
0.00453909
0.0119976
0.0184295
0.0149948
0.00436877
0.0036622
0.0171641
0.0129899
0.00517195
0.00308117
0.019539
0.0185964
-0.00160699
0.0168857
0.0124256
-0.0054793
-0.0243604
0.0323066
-0.0178601
0.0401244
0.0133733
0.0212816
0.0183461
0.00700654
0.00914402
0.00893685
0.00829731
0.00632553
0.00719607
-0.00917357
0.0111264
0.0210891
0.0241169
0.0179652
0.0159854
0.0134753
0.0318018
0.00892319
0.0232394
-0.00053146
0.00219826
0.00820866
0.0040122
0.0300145
0.037886
0.0364433
0.0115208
0.0329024
0.00513998
0.00989372
0.00750879
0.0143411
0.0125322
0.00350748
0.00287953
0.026033
0.0185505
0.0553117
-0.0271662
0.012547
-0.00786973
0.00978792
0.00353773
0.00833979
0.0089296
0.000682511
-0.0030711
0.0107256
0.00120694
0.00204336
-0.00356825
0.0124476
0.0152872
0.0141381
0.0156046
0.000330785
0.0268121
0.00541823
0.0110623
0.0161632
0.0193567
0.0018788
0.00301761
-0.00174352
0.00400371
0.0170976
0.0226058
0.015498
0.0177906
0.0132547
0.00722593
0.00689462
0.00761038
0.00728293
0.0128273
0.0127006
0.0144037
0.00611016
0.00499303
0.00753713
0.00419505
0.00342524
0.0139812
0.0135951
0.00562377
0.0112189
0.00531243
0.0214336
0.0158696
0.0467726
0.0219956
0.0237278
0.00579116
0.0050258
0.00588264
0.0112593
-0.0229279
0.0138259
0.0242953
0.0194811
0.0142776
0.00754851
0.00411274
0.00816955
0.0220005
0.0164043
0.015562
0.0151377
0.0153052
0.016013
0.0129342
0.00997509
0.00380668
0.0129461
0.0221765
0.00641955
0.0222723
0.0176473
0.00844261
0.0106564
0.0105321
0.00611523
0.0106296
0.00294334
0.000475327
0.0103397
0.0177009
0.00212375
0.0163797
0.027191
-0.00795818
-0.0011692
-0.0125099
0.00342559
0.00605753
0.0157729
-0.0943265
-0.0334784
-0.0361536
-0.0487849
0.0141111
SCALARS CoVolArea double 1
LOOKUP_TABLE default
644.391
702.37
760.617
654.891
533.959
1312.53
947.08
1025.38
973.132
485.133
872.765
318.011
462.128
1127.86
852.947
961.905
919.66
622.863
420.899
993.776
1956.52
2908.58
1311.29
457.816
994.895
1565.34
1212.38
1252.26
1895.14
1045.76
1903.35
933.986
1250.75
926.925
1284.01
1293.58
312.427
1490.59
1305.92
950.047
2649.68
3214.78
939.201
506.085
588.569
747.392
1020.12
366.039
1111.96
1370.71
1394.02
508.72
735.482
1209.58
1023.79
885.592
591.058
576.585
1329.29
6892.62
4627.78
1920.84
704.493
1699.55
780.421
496.362
659.842
949.821
630.905
751.916
686.629
645.221
2786.64
767.82
857.31
1404.27
1005.72
657.181
829.41
1438.2
1278.84
837.644
908.297
1097.29
1568.33
2669.3
747.758
1172.27
789.219
1205.93
1033.81
1694.92
1011.56
590.481
2538.88
870.52
1286.2
1393.16
1170.79
647.67
1433.53
1243.89
986.631
1389.63
1660.87
550.157
1050.95
1045.24
631.521
661.071
510.485
686.413
964.926
1369.57
1094.2
641.52
1106.56
1046.05
1176.74
1178.73
1159.1
1250.55
746.795
1169.26
1148.06
708.425
1233.28
1039.36
756.422
786.136
992.371
705.433
1619.88
1851.96
1201.1
1934.9
936.857
1122.84
648.314
465.146
320.896
622.326
1107.03
908.229
2168.8
1451.73
1060.71
1197.45
1120.65
1637.4
1330.22
1059.93
914.426
574.191
1671.12
486.94
1514.79
1454.48
1431.21
1290.77
814.753
2605.18
909.576
745.351
643.72
370.452
546.129
663.948
450.395
451.928
741.972
327.354
314.935
212.968
1254.26
823.266
1007.13
516.629
470.671
485.207
1175.1
1283.14
1681.26
1211.96
1191.97
1070.22
1100.19
1218.06
1301.26
898.308
1470.85
1233.66
638.515
673.317
522.758
491.313
766.096
606.34
767.752
1235.93
1130.2
999.828
1157.81
1167.67
1108.65
920.393
678.648
696.919
641.58
829.827
728.915
856.385
524.873
548.95
613.413
674.414
719.482
678.592
3069.68
3050.67
1399.87
1538.17
2542.51
3746.07
824.398
2815.86
2242.28
1690.67
3293.96
1804.55
1963.55
1293.24
961.582
982.504
1087.42
835.304
1061.4
514.411
665.034
1236.94
1312.43
1755.8
2124.06
1842.1
3683.98
1342.04
548.462
2555.87
1531.85
399.78
705.728
1055.45
779.473
836.052
757.347
944.659
526.66
465.206
949.206
711.769
699.704
955.347
762.02
842.732
796.544
615.362
733.349
614.872
727.92
760.965
907.332
4699.92
1985.36
1011.68
941.044
1103.54
781.721
4290.17
1492.33
2430.25
435.323
2178.47
723.042
767.455
897.686
963.903
1153.17
1153.1
2818.67
2590.75
1817.11
1224.21
680.25
847.794
876.723
504.647
645.93
555.672
457.646
1787.27
1357.46
1183.69
1156.39
1101.2
1235.52
1271.88
1012.8
902.345
722.244
460.497
615.85
395.28
1288.66
1016.23
1209.15
1263.02
1297.41
904.142
2175.74
2356.99
1222.35
1495.18
2188.17
2124.8
1711.7
531.984
833.725
1087.7
997.538
877.787
1065.56
1151.2
745.006
1022.88
903.461
1296.29
1028.03
941.654
903.984
1096.61
1066.73
1394.21
1261.22
1470.58
1120.63
801.453
1537.23
1031.54
1228.59
1190.12
1435.13
946.591
677.676
2045.23
1135.41
850.405
824.646
1518.17
943.076
957.354
997.102
1168.42
901.213
974.294
1630.52
1157.64
1519.18
2717.52
2604.29
1951.14
655.387
731.224
1158.73
864.023
819.971
880.809
1223.7
1384.33
1158.38
1570.79
1211.15
1544.75
1031.65
1176.95
1134.59
1346.02
1395.07
1263.23
1152.89
977.574
1756.23
1500.12
1690.89
1376.73
1495.35
1419.36
889.988
1337.36
450.834
485.279
879.548
716.871
826.419
1789.74
4328.75
624.244
1154.06
904.276
2435.04
593.488
777.693
522.363
1016.34
701.523
463.412
763.411
873.04
500.8
760.683
573.377
658.448
643.771
884.193
1022.03
976.38
1388.9
1117.63
1114.25
1072.96
1062.36
1302.88
491.051
686.605
644.024
909.134
748.913
761.774
1160.65
1027.68
1349.55
855.264
1154.96
879.599
1352.41
1206.67
1273.38
1009.91
1043.24
993.06
1524.32
1272.53
1509.83
1059.16
822.558
1345.63
1210.86
463.926
873.686
598.823
879.601
1018.5
1293.58
1144.57
1291.45
1093.58
1279.88
864.184
1000.7
996.856
590.939
808.666
417.982
1059.57
1146.53
1291.31
1432.24
1419.21
1192.47
801.684
781.861
623.265
731.59
1027.34
724.368
892.821
911.039
884.862
906.077
794.204
1604.54
715.088
578.761
941.065
2065.99
998.773
1685.91
3081.37
1898.26
678.185
2551.66
1096.08
782.207
862.452
867.443
919.553
832.968
1412.14
1415.15
1808.99
1749.71
2429.34
1152.08
929.124
841.207
887.99
987.968
946.616
952.234
862.905
393.502
734.202
1301.5
320.931
1493.56
748.539
337.133
608.29
950.033
533.572
1141.58
823.63
1837.89
779.153
874.63
1234.06
1205.38
644.432
1397.9
644.769
2855.6
1224.81
2837.94
1048.99
978.269
1220.98
1143.14
1259.06
1175.63
1645.55
2514.79
2328.23
1735.63
994.519
1053.6
1181.12
1016.47
1379.89
807.943
1457.78
1164.67
845.29
932.269
2290.01
1893.96
2307.8
1596.34
1400.56
1089.11
1362.64
1406.98
922.28
1329.77
1046.97
1012.12
1289.7
1041.92
928.181
886.923
1086.01
1321.84
686.771
1220.62
862.489
713.295
899.345
1396.52
1100.33
1322.48
821.806
1092
508.441
774.318
821.948
1248.26
1326.76
1764.51
1754.79
2482.46
589.761
682.375
505.607
473.088
743.536
1143.89
797.701
584.573
889.452
1218.55
1115.46
1105.58
1205.42
1437.97
1784.99
1573.93
1181.65
1134.22
1480.53
1103.43
1116.57
1451.72
1734.13
1675.65
1841.74
1680.17
1180.93
2576.12
1001.07
751.98
770.292
897.499
2682.1
571.323
1744.09
4305.19
781.838
972.055
867.51
1169.77
4516.81
1738.35
3011.44
1342.86
SCALARS SignedDistance double 1
LOOKUP_TABLE default
70.1831
69.3796
63.215
60.1086
50.8478
52.1332
52.5806
56.6485
63.4047
62.5741
65.9149
67.2577
67.3946
45.2561
55.309
53.2315
69.8173
70.8572
76.3595
52.0698
83.9033
74.1107
46.1156
64.7728
51.8707
49.0117
82.7137
67.5788
43.1644
49.4753
76.525
46.4811
66.586
49.732
56.1946
57.777
56.6087
82.3679
66.0822
46.8787
74.2401
74.761
68.3369
64.6469
62.1214
60.1696
63.4489
68.5486
44.3259
46.4264
49.3766
62.3268
70.2863
44.6327
51.3668
69.2784
61.9059
61.5059
99.9872
98.8369
101.839
100.823
69.791
83.267
69.0146
77.2171
132.053
49.0617
64.8818
70.8777
65.9893
63.3273
75.0202
83.0021
121.683
73.3985
67.9044
61.0884
66.6731
49.4828
44.5407
62.7838
57.1049
57.3356
51.5503
50.2654
62.2543
47.3053
43.2665
45.181
48.4142
74.0515
65.5086
68.4512
93.4191
66.3301
69.8571
65.9881
50.1544
64.4719
43.6231
40.4228
45.424
42.2682
43.3976
64.7604
50.3115
116.08
70.6121
62.8035
64.9348
66.763
62.0033
59.5717
57.5104
59.2277
58.4433
64.1302
54.6966
55.2101
48.5727
58.9941
57.3018
56.3218
56.7382
59.8403
61.1946
60.4279
56.3169
58.9307
61.5152
58.0723
66.0833
55.6699
68.2369
80.3727
62.1344
47.0514
70.362
65.2707
65.393
62.8508
68.4994
78.3663
92.7193
67.4265
69.2493
45.648
45.0921
51.3346
61.8282
56.992
64.0577
66.4814
79.5422
65.3742
45.8403
45.05
44.6209
68.8043
116.099
73.6785
69.8508
64.7173
67.0454
65.9222
63.8066
66.0339
60.7721
61.9629
61.2872
68.3231
70.2322
68.8171
49.7303
59.3218
47.5908
66.2362
69.1558
67.5047
49.3767
49.4624
50.528
46.7088
44.8298
44.9623
46.2544
46.6731
45.5906
63.0117
49.2605
53.5134
66.4062
70.0669
61.3709
61.2304
70.5856
65.9101
65.9466
49.4154
44.7105
51.2274
44.4105
45.7351
44.4469
51.3169
69.6547
65.388
66.0543
64.8586
65.185
69.3386
59.6623
61.2064
60.9249
62.2205
61.6506
61.4508
73.7002
73.6627
75.088
74.6926
78.8882
111.91
93.5485
73.5952
73.1174
90.4103
101.44
77.8046
72.2418
75.6042
66.1143
69.2961
66.3666
82.5536
71.6021
71.3827
69.3511
70.2228
75.1011
99.0556
102.702
102.262
137.231
78.378
73.062
79.1555
128.175
112.816
91.5254
53.4778
63.567
59.6526
58.6241
47.4324
67.7154
69.4384
66.569
64.6748
64.9415
70.8346
66.254
77.1807
60.2255
64.1311
62.8761
70.0321
64.9302
71.279
81.1613
106.12
104.954
72.5206
70.354
71.5149
79.5863
103.63
86.4118
111.277
92.545
103.973
68.8945
68.8954
68.5703
67.8363
74.5152
69.2776
75.5088
108.217
96.0476
76.8231
63.4333
68.3323
57.7929
60.6551
64.2356
61.7649
62.9833
50.4212
49.6798
43.603
47.5361
46.8701
44.575
45.3552
62.1129
64.369
61.6641
65.2394
62.944
65.5498
48.0455
58.1132
47.7486
49.765
45.2175
58.793
50.466
50.1264
46.4822
50.1005
51.2888
52.3691
50.6733
66.0419
63.2771
49.6814
52.3832
55.9751
52.1784
47.9891
46.0575
45.76
49.9936
48.3455
47.4736
48.787
48.7813
44.5617
46.4645
46.9378
45.7039
47.4232
65.8787
65.4353
75.3355
72.9047
68.064
70.7203
70.3713
66.4835
75.2102
85.8571
73.0069
70.4635
88.596
93.6313
63.4465
64.9867
63.5989
70.7756
66.8612
66.3461
82.2016
66.8482
77.0074
73.5872
70.7834
70.8529
65.2472
64.7684
48.4894
58.9368
58.9561
60.3406
49.5122
48.3997
46.3753
43.3747
42.5191
42.9617
42.1775
43.5299
49.592
43.9233
45.3957
41.2526
40.9378
44.9154
42.6481
44.1993
43.3077
43.4113
42.0413
43.4
64.0648
53.2856
68.0417
68.5808
44.7536
58.8334
56.4383
74.8584
106.972
80.7222
98.1588
111.831
74.8814
67.7871
62.8744
64.1519
64.5486
59.9858
63.2957
55.4066
68.4656
65.0127
66.5636
66.7261
66.7718
64.7333
60.166
59.342
59.3755
63.6018
61.5346
64.3887
57.412
58.9071
56.7712
61.4807
61.9943
62.163
57.0857
59.5647
53.7915
61.8522
61.1483
61.0177
54.3605
52.5343
49.417
56.3902
54.8909
56.5439
47.7133
52.5875
53.9001
60.1676
56.5689
58.3712
59.8029
59.12
59.0616
58.969
56.5442
57.8719
56.9586
54.7368
54.5838
56.4043
57.15
57.3268
56.2754
56.4218
62.5147
61.6438
62.0436
57.6604
59.1839
57.403
59.7212
60.2552
59.1772
58.9363
59.0923
59.4151
57.2835
59.2423
56.6939
55.9949
56.1246
55.873
53.7914
62.5798
60.8701
56.2505
59.3069
60.1611
58.2261
57.2498
60.9621
64.6455
61.2597
57.0927
73.8194
78.5419
84.2851
82.5334
64.454
57.4751
53.4744
53.279
60.9255
60.6029
77.8737
59.5336
65.8453
62.2579
75.3906
49.5043
57.9892
58.1515
58.9418
44.8577
69.8799
80.6787
64.2447
64.8055
62.8543
65.2015
64.8772
65.6604
56.7718
65.5311
63.7546
74.4019
67.4515
67.3389
61.8043
66.9467
63.9347
64.4914
68.1925
68.0469
71.9132
77.9323
81.8999
92.5694
71.607
79.2584
67.2138
63.3091
67.0159
67.7555
70.5124
69.4542
71.1268
69.9516
70.9239
70.0222
45.3414
44.6688
44.432
47.0297
47.9607
57.8147
46.6045
49.5495
50.4757
45.8136
50.3424
50.0417
52.2495
50.2124
46.6877
43.1941
46.2612
48.88
63.0768
59.4441
61.0521
63.1747
65.0582
53.8019
54.5549
53.973
56.8656
58.2916
64.5662
65.0293
65.5121
63.5183
58.3785
60.0186
60.021
62.2904
59.531
72.5242
69.8589
56.3957
58.165
63.7284
79.4963
77.269
66.7061
79.3495
65.8766
62.813
63.8185
66.9599
68.8392
67.6012
67.8948
65.8401
62.3629
45.8969
55.5273
55.4659
45.8653
43.796
42.6943
44.2958
42.9431
39.9808
45.9267
39.9889
44.2601
43.3877
43.0308
41.3871
42.6619
41.4051
63.7759
69.7762
69.6126
66.2741
65.8026
73.9961
95.5338
82.7597
85.3708
101.818
78.6543
68.0833
71.2116
95.2164
119.916
90.6422
103.663
71.4624
