# vtk DataFile Version 4.2
vtk output
ASCII
DATASET POLYDATA
POINTS 642 double
-174.111 294.063 24.7502
177.825 296.123 23.8048
-167.844 -291.743 -1.68759
174.381 -296.648 -2.54834
0.96614 -195.646 332.042
0.0315961 205.353 320.081
-0.295949 -196.32 -332.155
-1.26261 193.204 -331.356
300.259 -0.312425 -209.017
306.766 0.603047 203.587
-293.994 -1.54733 -208.433
-304.567 6.34344 199.233
-286.223 183.383 123.804
-189.991 117.333 311.174
-114.709 309.22 193.725
116.533 309.534 194.351
-0.221022 349.473 23.8266
112.701 272.644 -197.298
-107.453 271.547 -194.507
-188.922 115.451 -319.704
-259.875 161.368 -130.145
-308.965 -1.59088 11.2895
190.834 119.621 311.61
291.777 185.889 125.274
-184.099 -112.98 311.047
0.28029 -6.90649 387.049
-264.641 -161.803 -131.422
-262.691 -163.419 116.71
-0.695885 0.516648 -398.439
-190.77 -118.026 -320.743
267.643 164.954 -135.458
193.783 118.449 -322.871
269.778 -166.901 116.505
188.957 -113.691 315.011
106.45 -281.195 183.432
-103.882 -278.737 182.824
0.834061 -360.785 -1.77263
-105.725 -277.383 -187.325
106.09 -282.874 -184.612
193.781 -118.471 -322.874
261.862 -161.032 -129.044
316.794 0.0275951 10.4177
-237.448 249.076 77.4851
-215.519 258.906 161.895
-155.735 319.046 107.692
-261.348 61.3526 265.337
-253.411 158.37 224.847
-311.167 94.0073 168.287
-60.3859 268.822 270.798
-159.275 224.697 264.222
-101.021 166.456 328.253
-59.857 356.843 108.93
-92.5265 335.95 24.3746
61.1712 268.615 270.839
-0.014646 326.277 205.077
94.5822 335.851 23.6926
60.0958 356.457 109.054
158.532 320.433 107.466
-44.2711 303.431 -81.7326
-134.497 261.057 -88.8303
140.094 270.731 -91.703
46.8625 303.892 -80.7095
-61.3306 247.568 -269.459
-0.639066 281.153 -201.368
64.3726 247.518 -268.7
-197.78 227.986 -168.271
-225.726 220.187 -45.7528
-99.7905 163.129 -341.469
-155.361 212.088 -266.222
-288.299 86.506 -172.283
-245.565 149.875 -228.065
-258.422 57.4516 -270.082
-273.831 178.616 27.6524
-311.628 -0.884918 -109.943
-301.027 88.8052 -69.7733
-311.25 95.6546 79.5888
-315.747 10.1319 117.423
219.451 260.443 164.327
242.702 252.177 76.5521
102.956 167.58 329.406
162.562 226.238 266.44
309.43 100.804 167.86
257.381 162.466 226.594
261.004 60.0776 266.038
-102.619 59.1469 363.888
-0.0553776 100.044 360.042
-255.652 -55.4099 263.756
-198.697 0.390097 327.676
0.965195 -106.826 379.787
-100.162 -63.4506 370.372
-95.4976 -161.297 333.919
-301.353 -80.1622 69.9747
-291.697 -81.4629 170.061
-291.885 -90.9736 -175.181
-293.624 -81.1867 -74.2976
-223.361 -236.369 57.4131
-266.723 -174.816 2.28319
-220.097 -236.419 -55.1673
-202.541 -0.400294 -339.896
-259.777 -59.4321 -270.555
-1.48392 105.298 -382.965
-104.043 63.4985 -382.991
-101.345 -165.912 -342.488
-104.617 -63.2551 -381.799
-0.669557 -105.798 -381.319
160.231 215.599 -268.818
103.776 164.736 -341.885
231.69 219.75 -47.1215
204.458 231.434 -173.124
264.735 62.052 -272.838
254.676 154.96 -230.846
298.576 92.1701 -177.307
229.055 -240.377 56.1169
199.435 -235.772 156.347
146.347 -298.608 90.6691
260.803 -57.7454 268.318
245.572 -146.118 226.554
296.836 -83.0513 172.298
56.016 -246.307 267.769
153.414 -208.364 263.391
96.8629 -161.544 335.177
54.3382 -332.945 87.9102
91.4711 -342.556 -2.98141
-55.1322 -245.52 267.501
1.03148 -297.392 194.413
-87.6517 -340.331 -2.48058
-51.8812 -331.428 87.5202
-142.44 -295.098 90.4518
56.1084 -341.269 -94.6343
145.758 -305.455 -92.0453
-140.468 -300.861 -91.9896
-53.1605 -339.843 -94.3417
62.2971 -247.578 -273.831
0.600671 -303.52 -187.963
-64.0301 -249.055 -273.579
199.164 -229.993 -164.474
227.197 -242.369 -55.2354
102.379 -164.938 -341.938
160.071 -215.074 -269.359
297.938 -91.6304 -179.977
256.092 -155.301 -230.838
264.872 -62.1429 -272.73
274.565 -179.989 0.969162
318.366 0.0726562 -111.903
300.374 -80.2833 -70.1365
309.437 -85.1058 69.5167
322.725 4.38323 111.982
102.84 -63.1737 372.569
201.333 -2.34066 332.147
104.616 57.8403 365.519
-195.187 -231.79 156.103
-150.479 -207.318 261.911
-240.996 -145.091 222.517
-158.215 -215.97 -268.73
-200.389 -229.112 -171.203
-250.479 -154.357 -229.205
203.686 0.0037383 -338.042
105.547 -64.6878 -381.57
105.418 64.7322 -381.572
316.922 98.1669 77.4846
308.514 89.8457 -70.3831
279.66 182.136 25.2638
-206.99 274.982 50.0031
-200.552 286.891 93.9927
-167.034 308.97 65.826
-256.685 224.007 142.804
-232.084 258.468 119.855
-264.158 218.57 101.988
-138.719 319.997 149.063
-188.677 293.731 136.138
-167.444 287.599 179.602
-287.796 32.908 233.754
-290.335 78.8481 217.519
-313.193 50.5002 185.293
-225.214 139.645 271.558
-259.737 110.711 248.173
-228.576 89.739 291.57
-300.233 140.431 145.963
-285.458 127.475 196.614
-274.748 173.109 172.027
-30.3857 239.219 299.838
-81.2884 221.036 302.068
-51.0034 187.799 325.452
-138.154 270.983 231.928
-111.582 249.834 269.488
-88.4762 292.282 235.313
-146.792 143.04 323.579
-131.945 197.74 299.678
-176.765 172.594 291.18
-237.048 211.268 195.714
-210.099 194.017 247.946
-190.005 245.099 216.434
-124.321 332.787 66.6338
-135.464 317.827 24.2577
-88.9788 339.671 150.836
-108.53 341.949 109.622
-47.8573 346.7 24.1979
-76.6351 349.835 67.4122
-30.0442 357.949 67.3172
30.7414 239.143 299.86
-0.000412209 272.532 273.677
59.4547 322.464 202.655
31.1463 301.933 240.633
89.8212 292.305 235.583
-31.0087 301.952 240.63
-59.015 322.602 202.617
138.661 318.726 23.091
126.912 333.384 66.2592
170.609 310.671 65.3407
29.6866 357.604 67.3417
77.6977 349.484 67.3016
48.0881 346.373 23.7382
140.602 320.363 149.601
110.145 342.073 109.582
89.8012 339.459 150.997
-31.2579 348.99 156.298
31.2529 348.946 156.356
-0.174504 361.248 110.095
-116.965 310.865 -13.0545
-154.568 290.482 -13.2233
-26.5183 333.495 -18.4765
-69.7796 326.82 -14.546
-124.876 269.885 -160.785
-87.5355 281.63 -85.6467
-78.8381 286.054 -157.828
155.771 292.999 -17.7585
121.429 310.456 -17.0046
83.4026 285.257 -157.995
97.1758 280.136 -85.1377
130.796 271.005 -160.476
71.7502 326.543 -15.7352
26.8233 333.733 -18.8793
-32.3287 222.359 -302.9
-0.356191 248.959 -270.495
32.6045 222.099 -301.625
-58.0926 280.424 -199.957
-32.2198 270.09 -235.366
-86.6075 264.963 -232.576
91.2025 266.819 -233.719
33.2419 269.697 -235.149
61.187 278.912 -201.444
-0.15278 309.764 -81.5039
28.863 292.119 -153.422
-29.8343 293.63 -153.897
-180.972 242.506 -66.3004
-199.875 262.992 1.31448
-155.1 253.573 -183.859
-170.854 248.143 -147.29
-237.776 200.337 -95.8396
-213.472 220.094 -121.92
-232.943 198.083 -147.904
-51.5724 180.514 -340.151
-81.588 209.496 -308.809
-174.145 166.833 -296.871
-130.265 190.103 -306.567
-145.975 141.147 -334.606
-109.501 233.272 -270.528
-132.839 248.585 -231.232
-293.911 43.8122 -193.138
-280.565 74.8966 -223.051
-282.236 27.3538 -239.292
-255.802 157.248 -179.652
-270.668 119.37 -202.63
-278.349 124.806 -149.834
-226.756 87.3254 -297.722
-254.968 106.737 -251.369
-221.814 135.07 -275.557
-181.235 225.51 -217.673
-204.706 184.123 -250.078
-223.861 193.86 -199.63
-230.772 242.412 23.4435
-249.221 163.846 -52.2414
-244.681 210.173 -7.77367
-259.561 214.992 51.823
-282.657 183.709 77.5504
-300.594 -1.52487 -161.585
-303.875 44.7843 -140.789
-296.347 44.6442 -34.5737
-308.654 43.9102 -96.487
-307.829 -4.36948 -66.4465
-299.349 86.4608 -118.675
-288.883 115.961 -98.9615
-320.677 52.6341 147.531
-316.419 10.6745 162.021
-302.867 140.055 104.09
-313.093 95.7186 126.898
-317.614 5.41056 67.1264
-317.005 52.3873 100.797
-314.068 48.6399 51.6396
-289.193 121.217 -17.7001
-302.562 95.2584 15.4773
-297.479 139.282 51.3812
204.598 289.441 93.2775
211.582 277.598 49.5818
170.449 288.633 181.278
191.553 294.944 136.925
269.69 221.362 102.057
236.415 260.578 120.525
261.353 226.137 145.123
52.1731 187.746 325.376
83.1654 221.004 302.719
179.326 175.367 293.083
134.456 199.047 301.581
147.951 145.329 324.646
113.968 250.078 270.553
140.947 271.683 233.225
309.221 49.5113 188.068
290.116 81.7265 217.734
287.816 28.942 235.014
280.237 176.815 174.409
288.254 132.633 197.415
305.399 145.378 146.931
228.811 90.7455 291.65
261.221 114.545 248.457
227.553 143.399 272.749
193.967 246.988 218.737
213.964 197.009 250.408
241.991 214.233 198.397
-54.1348 135.72 346.86
-0.00588717 155.209 340.61
-148.801 91.4086 342.217
-104.921 114.098 349.189
-0.117194 44.7545 377.347
-53.8939 78.2122 364.67
-51.9642 25.5742 379.517
-283.202 -24.6089 232.717
-261.329 3.14338 267.428
-194.106 -57.6249 323.771
-229.663 -28.5897 299.66
-222.42 -84.583 289.864
-231.59 32.4101 299.693
-197.791 60.1825 323.331
0.94455 -154.434 359.576
-47.1311 -136.072 361.021
-45.3465 -180.445 335.685
-49.175 -35.599 383.374
-47.9742 -85.7928 377.86
0.780098 -58.4293 390.655
-141.646 -138.876 325.976
-99.4217 -113.98 356.536
-144.963 -90.1276 345.536
-152.673 30.1381 351.441
-151.674 -32.1563 354.295
-102.788 -2.82681 374.157
-307.329 -35.0358 144.494
-301.147 -37.9682 186.784
-309.452 -37.2598 43.5688
-313.886 -37.0382 92.0795
-277.673 -122.221 146.344
-298.974 -81.2161 120.148
-285.31 -123.874 93.7203
-295.309 -47.7412 -193.539
-303.496 -47.0473 -143.221
-282.612 -126.154 -105.062
-297.045 -87.5622 -128.618
-281.021 -129.056 -155.356
-309.846 -39.5881 -96.0139
-306.847 -37.1314 -35.6586
-197.329 -264.456 28.1593
-224.048 -238.197 1.09739
-195.824 -266.341 -28.242
-266.954 -171.888 59.3882
-247.552 -206.137 30.6454
-244.041 -202.184 85.655
-242.732 -196.58 -94.3425
-246.871 -206.365 -27.0131
-264.905 -168.377 -62.1334
-297.991 -83.8353 5.29201
-283.213 -131.561 -32.756
-284.933 -130.689 35.3536
-263.623 -0.824014 -275.681
-283.109 -29.6749 -239.269
-198.501 58.6939 -333.834
-232.907 29.2691 -307.822
-228.487 -89.485 -298.482
-233.798 -30.5448 -308.3
-199.174 -59.5577 -333.829
-1.4412 152.298 -360.574
-53.3033 136.256 -368.073
-54.9509 33.0652 -396.956
-54.3868 85.3181 -387.976
-1.10208 54.865 -395.904
-103.713 115.253 -366.655
-149.368 91.6869 -356.293
-52.5667 -183.204 -340.794
-54.0472 -137.904 -367.307
-0.46794 -154.24 -360.169
-150.328 -92.8243 -356.229
-104.755 -116.898 -366.31
-147.712 -143.853 -335.738
-0.642801 -53.985 -394.826
-54.6398 -85.2165 -386.231
[...]
POINT_DATA 642
SCALARS Mean_Curvature double 1
LOOKUP_TABLE default
0.00755026
0.00753177
0.00625716
0.00695801
0.0100759
0.00534394
0.00478764
0.00533891
0.00609809
0.0120782
0.00816675
0.007675
0.0112518
0.00611755
0.00550932
0.00548382
0.00520026
0.00849987
0.00793429
0.00639452
0.00338515
0.00151523
0.00572268
0.0105009
0.0062392
0.00549221
0.00430283
0.0041855
0.00294465
0.00661379
0.00289604
0.00691977
0.00474398
0.00653217
0.00467317
0.00448659
0.010835
-0.00100696
0.00243975
0.00690261
-0.00175108
0.00230964
0.00501296
0.00599053
0.00824109
0.00683106
0.00540403
0.0117583
0.00647996
0.00559137
0.00585287
0.0105133
0.00716358
0.00586504
0.00486205
0.00649244
0.0100235
0.00859025
0.00249935
-0.00517128
0.00573724
0.00187143
0.00698726
0.0025429
0.00512888
0.00745849
0.00268449
0.00671345
0.00637991
0.00324823
0.00878643
0.00598196
0.00310661
0.00859544
0.0097919
0.00426325
0.000302279
0.00600006
0.00580362
0.006599
0.00601889
0.00824821
0.00627311
0.00448071
0.00511701
0.00189324
0.00635221
0.00630052
0.0087016
0.00646144
0.00615955
0.00314867
0.00606867
0.00658392
-0.00345234
0.00681889
0.00476093
0.00402571
0.00780704
0.00553955
0.00541811
0.00685056
0.00701576
0.00587033
0.00413056
0.00630868
0.00759311
0.00039098
0.00773113
0.00694869
0.00852415
0.00703661
0.00517145
0.00421881
0.005134
0.00676147
0.00670542
0.00501569
0.00481741
0.00621765
0.00545738
0.00359441
0.00786774
0.00524478
0.00646949
0.00841587
0.00334007
0.00531706
0.00719593
0.00697656
0.00634044
0.00745343
0.00842393
0.00553696
0.00827318
-0.000676651
0.00505037
0.00607199
0.00656077
0.00789245
0.00993085
0.00676124
0.00574849
0.00886157
-0.001517
0.00531517
0.00597953
0.00610997
0.00683248
0.00536038
0.00391517
0.00654923
0.00684617
0.00641066
0.00353903
0.00934881
0.00462338
0.00685313
0.00670632
0.00423778
0.00920428
0.00337829
0.00626273
0.00609702
0.00617954
0.00988167
0.0102664
0.00697103
0.0080887
0.0103027
0.0050834
0.0076204
0.00534044
0.0116601
0.00578782
0.00568312
0.00653822
0.00885631
0.00515274
0.00477439
0.00678064
0.00542587
0.00396458
0.00589054
0.00586739
0.00634973
0.00583287
0.00543922
0.00575871
0.00485413
0.00570347
0.00544925
0.00656986
0.00709968
0.00755121
0.00897025
0.00704761
0.00648824
0.00676301
0.00655451
0.0053032
0.00582384
0.00680104
0.00593054
0.00688273
0.00618207
0.00678485
0.0065235
0.00628905
0.00630897
0.00590088
0.00643195
0.00737757
0.00865575
0.00706544
0.00700407
0.00702574
0.00870334
0.00478576
0.00443515
0.00433342
0.00397487
0.00551902
-0.00731312
0.00732628
0.00516087
0.0053611
0.00607063
-0.0105589
0.00401461
0.00331049
0.00463732
0.00490041
0.00424738
0.00341353
0.00597684
0.00753885
0.00948047
0.0113158
0.00689371
0.0040114
0.00289551
0.00201932
0.00420162
-0.00439329
0.00343959
0.00869011
0.00554982
0.0116414
0.00484913
0.00667007
0.00647683
0.00669616
0.0061015
0.00645067
0.00662424
0.00651497
0.00845553
0.00543514
0.00938163
0.0081412
0.00554814
0.00734999
0.00470299
0.0061347
0.00737051
0.00625434
0.00808864
0.00730183
0.00735571
0.00586097
-0.0116586
0.00680058
0.0058707
0.00584847
-0.000560206
0.0051335
-0.00900204
0.00727707
0.0023743
0.00794791
0.00621835
0.0120018
0.0106614
0.00661129
0.00448886
0.00702894
0.00288539
0.00354403
0.00235139
0.00471364
0.00575102
0.00687346
0.00651578
0.00533233
0.00898913
0.0069963
0.00928067
0.00922305
0.0033195
0.00517239
0.00642561
0.00599502
0.00614427
0.0056691
0.00582768
0.00808557
0.00494881
0.00478883
0.00617932
0.00621332
0.01098
0.00501752
0.00556143
0.00639036
0.00579509
0.00633912
0.00564854
0.00327501
0.0018972
0.00642958
0.00643819
0.00391941
0.00189275
0.00574102
0.00621417
0.00463735
0.00621869
0.00643455
0.00587516
0.0057263
0.00665742
0.00876499
0.00555176
0.00551896
0.00411374
0.00527074
0.0111912
0.0066436
0.00637099
0.00644764
0.00484695
0.00666306
0.0073719
0.00142531
0.00839945
0.00251386
0.00802021
0.00248381
0.00439315
0.00395297
0.00537528
0.00450141
0.00316666
0.00653306
0.00645119
0.0102022
0.00385535
0.00375256
0.00501878
0.00475534
0.00557575
0.00403043
0.00426656
0.000828263
0.00508204
0.00285513
0.00153719
0.00351204
0.00294817
0.00812082
0.00798752
0.00625932
0.00529911
0.0059897
0.00595228
0.00542515
0.00506093
0.00685104
0.00610058
0.00695992
0.00527943
0.00692968
0.00670888
0.00624289
0.00636579
0.00430569
0.00621607
0.00685219
0.00687977
0.00468247
0.00575429
0.00609015
0.00608393
0.00719336
0.0069578
0.00744415
0.00394792
0.0089644
0.00696113
0.00695953
0.00657635
0.00641934
0.00345947
-0.00977586
0.00666199
0.00440067
0.013074
0.00402993
0.00947012
0.00806465
0.0101968
0.0067266
0.00638452
0.00693257
0.0067539
0.00533962
0.00999525
0.0082082
0.00925756
0.00955022
0.00683013
0.00485968
0.00532558
0.00426935
0.00407897
0.00482741
0.00415654
0.00526856
0.00514517
0.00451347
0.00733142
0.0085232
0.0091163
0.00682112
0.00734684
0.0067487
0.00274402
0.00625801
0.00403639
0.00735051
0.00529628
0.00627439
0.0045289
0.00583815
0.0043769
0.00641564
0.00645371
0.00646752
0.00446338
0.00651587
0.00461494
0.00415362
0.00690004
0.00487789
0.0042622
0.00907173
0.00565777
0.00747518
0.00635815
0.0070381
0.00450367
0.00461401
0.00407037
0.00511912
0.00468434
0.00709278
0.00387227
0.00394595
0.00760074
0.00578918
0.00933284
0.00513573
0.00432087
0.00519747
0.00445431
0.0045304
0.00585801
0.00553094
0.00509311
0.00585847
0.0047978
0.00572857
0.00714697
0.0065523
0.00448794
0.00469759
0.0062808
0.00688414
0.00526672
0.00464906
0.00635493
0.00605809
0.00576683
0.00533928
0.00508664
-0.00226984
0.00239687
0.00955777
-0.00307456
0.00455819
0.00679647
0.00724832
0.00702781
0.00619161
0.00534517
-0.000118677
0.00512611
0.00402759
0.00442284
-0.00125764
0.00636695
0.00614279
0.00644257
0.00660026
0.00704084
0.00674928
0.00849782
0.00730608
0.0113736
0.00783238
0.0101476
0.0129263
0.00530762
0.00669749
0.00642379
0.00619769
0.00953989
0.00687013
0.0114543
0.00570601
0.00470065
0.00598929
0.0056235
0.00335108
-0.000296508
0.00400424
0.00236893
0.0104808
0.000177037
0.00545182
-0.00133
0.00479228
0.0042859
0.00686353
0.00316518
0.00521562
0.00393289
0.00403941
0.00516261
0.000948451
0.00269901
0.00619465
0.00667895
0.00546182
0.00604666
0.00351015
0.00666998
0.00449989
0.00576237
0.00690512
0.00729889
0.00276738
0.00428808
0.00140861
0.00634931
0.00483176
0.00770829
0.0061486
0.00864594
0.00595237
0.00419848
0.00486327
0.00457034
0.00376887
0.00608933
0.00642356
0.00672969
0.00656453
0.00447961
0.00784525
0.00475925
0.00798426
0.00608464
0.00629967
0.00506581
0.00666971
0.0052987
0.00722645
0.00871743
0.00717013
0.00666055
0.00625328
0.00517255
0.00381952
0.00124896
0.00339212
-0.000769497
0.00977256
0.00626982
0.00715626
0.00883801
0.00778632
0.0112098
0.0103342
0.00687806
0.00401159
0.00743836
0.00522107
0.00523337
0.00743702
0.00597869
0.00612258
0.00451514
0.00687557
0.00743274
0.00437607
0.00740242
0.00744349
0.00484401
0.00614583
0.00558905
0.00484087
0.00561824
0.000744726
0.00348046
0.00624319
0.00708203
0.00726799
0.0028734
0.00520045
0.00495102
0.00768406
-0.00705228
0.00572183
0.00613576
0.00639465
0.00913405
-0.0122705
0.00461364
0.00224467
0.00494636
SCALARS CoVolArea double 1
LOOKUP_TABLE default
1638.24
1684.4
1794.38
1787.71
1922.56
2230.71
2210.19
2231.17
1864.49
1743.19
1718.25
1706.66
2171.98
2781.67
2792.48
2839.72
2330.72
2009.72
1972.62
2807.1
2824.06
3084.94
2896.73
2204.6
2688.72
2896.83
2445.69
2549.12
3203.66
2850.04
2771.52
2806.23
2618.35
2706.82
2679.34
2667.06
2141.33
3006.41
2949.43
2807.22
2961.41
3106.53
2152.1
2757.74
2203.2
2540.18
2915.3
2130.42
2658.54
2964.76
2746.06
2463.91
2066.29
2712.38
2973.5
2173.83
2508.03
2253.75
3420.89
3812.11
3321.44
3716.7
2462.64
2602.12
2552.65
2142.99
2725.88
2642.22
2691.71
2238.6
2465.14
2507.46
3147.96
2129.94
2678.18
2513.37
2190.15
2802.4
2184.8
2738.36
2956.59
2332.07
2865.05
2734.61
3038.48
3236.58
2495.36
2905.51
2563.58
2981.03
2633.91
2682.13
2190.71
2053.65
3176.92
2223.2
2629.36
2627.13
2984.64
2553.25
2902.45
3067.15
2663.67
3118.56
2983.79
2760.79
2685.58
3177.93
2134.12
2605.1
2562.2
2132.62
2315.15
2780.98
2441.06
2453.55
2593.69
2289.32
2525.8
2724.71
2698.52
2732.78
2224.27
2495.09
2727.58
2166.59
2712.74
2397.72
2512.46
2254.14
2390.68
2471.19
2601.32
3077.95
2491.76
3100.22
2340.21
2713.6
2643.05
1903.6
2386.37
2621.26
2507.45
2247.39
3353.18
2652.84
2360.56
3001.77
2901.95
3069.03
2725.35
2636.93
2513.02
2669.37
2569.34
2471.24
3154.98
3138.89
3138.5
2506.22
2850.25
3138.98
2093.64
2175.36
2094
2498.07
2139.71
2009.91
2410.06
2306.14
2856.43
2360.74
2463.68
1976.76
2868.83
2604.23
2552.35
2178.13
2559.8
2697.38
2598.57
2739.09
2763.29
2916.91
2704.25
2611.04
2629.6
2730.07
2922.61
3240.51
3278.03
3297.69
2183.31
1956.81
2709.98
2241.57
2086.05
2157.04
2381.63
2631.77
2694.87
2933.49
2701.93
2665.09
2676.07
2893.93
2020.02
2232.67
2117.23
2417.14
2227.49
2156.13
2465.93
2295.26
2757.02
3111.22
3131.53
2807.67
2939.55
2846.87
2752.69
2814.48
2641.33
3796.23
2833.89
2766.39
2777.2
3118.1
3738.33
2536.17
2940.49
2801.27
2613.71
2673.72
2717.6
2226.1
2360.98
2140.71
2142.66
2416.64
2362.73
3545.83
3451.69
3242.79
3782.51
2708.03
2036.49
2741.07
2549.68
2531.94
2208
2599.66
2582.6
2819.32
2598.21
2628.96
2439.81
2375.92
2194.43
2242.84
2191.28
2282.7
2177.11
2154.26
2599.88
2392.53
2751.82
2668.31
2929.33
2615.18
2286.09
4120.56
2689.86
2197.71
2202.25
2368.63
2291.82
3721.96
2377.11
2571.24
2057.46
2967.73
1885.64
1902.78
2242.96
2042.41
2302.18
2163.41
3121.07
3536.89
3286.85
2760.97
2227.48
2091.98
2897.02
2393.63
2097.69
2245.6
2551.49
2801.11
2768.94
2899.13
2705.1
2645.37
2740.33
2949.85
2332.49
2621.96
2463.96
2648.93
2503.01
2110.7
2720.98
2691.46
2887.14
3296.02
3242.89
3211.61
3041.19
3027.62
2919.55
2787.58
2988.1
3013.91
3036.36
2330.75
2588.01
2828.4
2605.39
2495.57
2618.69
2882.94
2458.22
2679.28
2499.83
2950.91
2700.41
2580.39
2533.41
2713.2
2850.05
3315.89
3254.53
3329.76
2283.18
2073.21
2717.62
2332.68
2309.6
2394.91
2627.12
2153.33
2217.45
2698.95
2221.65
1987.52
2214.25
2997.17
2219.97
2252.76
2209.1
2515.18
2228.29
2310.24
2815.44
2490.66
2818.61
3550.79
3371.24
3066.28
2553.71
2205.82
2960.66
2670.81
2647.13
2684.85
2996.31
2777.12
2767.09
3157.87
2830.82
2929.95
2737.34
2985.56
2661.29
2850.02
2809.73
3033.91
2792.57
2655.6
2990.67
2929.18
3196.07
3398.36
3454.53
3414.02
2641.54
2759.77
2356.36
2449.8
2618.56
2596.59
2873.46
2959.04
4090.35
2168.26
2850.57
2575.88
2744.58
2027.85
2357.64
2248.16
2216.06
2834.78
2474.65
2614.47
2086.06
2134.73
2214.42
2689.36
2618.77
3042.73
2242.63
2402.27
2300.31
2753.43
2447.05
2387.11
2439.73
2455.45
2753.17
2259.97
2251.93
2036.98
2668.06
2376.84
2481.6
2416.3
2314.21
2671.45
2373.66
2619.12
2481.46
2761.46
2559.15
2535.33
2608.85
2587.44
2728.05
3036.87
2984.55
3077.63
2403.99
2191.59
2765.48
2515.78
2090.31
2319.46
2359.36
2381.26
2462.33
2761.75
2521.33
2512.98
2514.14
2756.67
2155.49
2352.21
2264.02
2339.7
2271.48
2037.96
2416.18
2483.12
2739.77
3093.09
3085.76
2974.7
2272.8
2164.86
2440.44
2283.31
2547.09
2271.22
2637.28
2171.94
2266.74
2722.22
2298.69
2635.03
2245.16
2407.63
2522.38
2784.53
2531.81
2988.47
3108.41
2681.95
2537.07
3023.56
3034.4
2798.55
2892.58
2877.14
2329.02
2183.25
3160.62
2718.22
2753.02
2794.07
2968.68
2689.13
2605.13
2862.92
2630.86
2643.4
2459.08
2776.73
2165.27
2202.4
2357.67
2279.79
1928.18
2184.69
2625.64
2471.97
2845.23
3001.41
2888.86
2745.75
2245.85
2894.19
2263.31
2268.88
2587.77
2444.28
2218.97
3087.5
2328.15
2645.1
2423.49
3226.66
2319.98
2192.59
2611.64
2430.23
2282.87
2329.46
2816.3
3389.57
3516.39
2977.41
2678.16
2885.86
2780.99
2708.24
2982.55
2608.77
3040.68
2711.77
2576.57
2805.11
3080.87
3105.34
3091.45
2833.24
3028.3
3196.69
3298.89
3296.44
2318.31
2723.98
2423.62
2388.73
2667.49
2566.14
2676.11
2500.73
2473.65
2700.63
2275.03
2516.09
2206.53
2385.8
2659.59
2972.5
2896.99
2887.7
2560.64
2649.2
2364.37
2611.56
2858.44
2575.85
2536.68
2895.28
2740.56
2869.98
2240.46
2813.55
2455.87
2087.51
2163.3
2726.98
2511.6
2934.17
2772.39
2998.35
2814.19
2811.18
2997.92
2907.77
3238.87
2967.61
2792.95
2974.47
2924.29
2967.11
2784.2
2941.55
3229.39
3527.65
3585.5
3529.25
2430.82
3000.76
2296.02
2166.87
2211.84
2357.7
3120.65
2184.59
2508.56
3605.54
2369.85
2269.82
2219.72
2667.14
4046.57
3330.58
3727.56
2868.99
SCALARS SignedDistance double 1
LOOKUP_TABLE default
222.388
218.476
205.693
196.699
159.954
161.685
160.245
166.481
200.563
192.766
208.397
198.691
206.943
154.908
158.905
156.825
214.794
218.274
220.938
159.07
232.106
239.404
153.553
198.64
166.101
156.483
229.787
215.338
140.391
153.412
223.423
148.803
206.12
159.507
187.549
191.532
180.674
199.067
190.847
148.793
219.352
230.06
212.398
178.06
193.32
165.983
170.617
203.544
151.565
156.385
157.928
187.624
217.913
151.626
153.849
215.733
187.031
189.276
250.376
247.273
247.428
246.901
192.915
224.146
192.948
226.469
250.957
154.449
185
214.55
201.725
179.625
232.397
234.166
253.134
225.459
217.423
171.149
205.993
158.672
151.974
195.616
163.463
165.916
159.032
165.243
178.264
156.88
144.539
149.271
159.782
229.423
211.237
214.652
233.866
211.996
222.073
213.902
150.566
177.337
143.706
136.819
148.781
137.749
143.43
177.728
152.703
246.019
218.297
169.03
190.488
209.307
203.179
194.876
193.637
170.652
189.017
201.697
177.481
178.657
157.925
190.749
187.355
179.869
185.546
193.214
193.232
199.315
180.085
190.3
199.056
184.549
180.562
182.933
181.914
208.455
204.224
150.574
176.578
210.502
192.082
169.138
213.493
226.802
228.922
217.612
212.384
147.026
151.438
158.761
201.612
183.013
195.717
176.882
219.224
196.774
147.655
137.92
137.864
217.032
244.737
226.266
217.603
202.452
208.185
193.798
199.123
209.132
175.253
187.099
166.75
181.177
179.463
199.999
160.798
167.576
158.165
203.969
183.36
184.856
155.237
156.172
162.098
156.348
153.875
152.614
154.605
155.088
155.888
171.993
161.526
162.922
204.78
220.002
170.118
188.997
216.612
202.17
201.631
155.224
151.798
154.126
150.444
151.684
150.458
154.135
217.183
202.077
204.093
200.514
200.8
214.895
171.183
186.859
169.095
165.583
165.541
187.062
229.89
231.878
228.889
228.841
230.936
246.786
236.634
230.124
228.515
231.333
242.372
224.595
226.331
227.643
178.846
194.583
178.847
223.353
212.456
208.583
209.047
212.07
221.934
250.273
239.266
243.258
247.812
231.171
222.632
233.658
251.576
241.748
231.502
161.076
170.884
169.51
167.479
154.37
186.152
205.223
209.536
202.381
195.934
217.505
209.374
223.488
167.612
189.043
177.92
208.562
191.321
213.341
228.7
245.899
239.354
223.831
219.874
215.235
222.339
244.753
238.657
246.072
233.458
241.65
215.975
214.16
216.953
214.814
230.671
221.571
232.244
248.415
241.054
230.956
197.049
212.215
162.438
180.506
201.407
191.341
185.31
162.037
155.728
151.51
152.555
152.707
152.012
153.208
196.37
179.329
178.071
177.092
176.98
195.773
158.209
165.517
156.62
157.147
154.741
164.451
163.676
164.499
153.636
159.126
162.344
163.968
160.875
187.287
173.312
160.684
165.123
171.685
163.044
154.782
150.433
152.116
160.01
153.181
148.903
148.206
161.821
152.35
155.172
154.449
152.44
152.403
212.574
206.465
235.312
226.485
213.272
219.568
222.705
209.778
220.605
234.706
226.46
221.614
237.738
239.07
209.213
213.499
209.427
220.405
217.376
213.33
223.691
217.92
226.137
229.922
227.648
227.167
179.666
196.815
153.191
163.834
162.639
163.696
151.406
153.618
148.559
138.816
139.632
138.928
143.305
145.305
155.494
145.954
149.745
142.057
140.287
148.652
140.589
140.917
138.283
141.445
135.282
141.078
171.988
161.688
200.912
183.187
147.39
162.087
160.158
225.832
240.842
222.221
230.462
241.273
224.847
217.235
188.325
192.665
202.979
165.658
176.403
155.848
216.201
201.67
210.711
201.495
206.3
180.764
199.834
197.841
195.918
200.134
200.484
206.737
191.109
194.846
190.53
179.718
189.222
198.375
173.724
180.22
163.756
203.163
195.454
198.752
169.36
168.189
158.916
184.685
177.627
183.302
157.635
167.598
168.992
193.874
182.992
188.837
192.922
192.266
190.146
191.614
182.935
189.419
185.996
170.742
176.428
187.886
183.559
186.716
181.873
186.124
200.213
199.288
204.162
188.193
193.56
186.276
196.193
195.8
193.121
190.233
191.183
190.042
189.448
194.348
181.21
184.407
187.921
184.048
182.236
203.388
196.996
187.705
191.168
196.399
189.637
183.698
170.768
182.192
170.808
184.676
189.857
195.293
196.573
192.28
189.263
179.365
180.895
178.932
198.078
199.834
199.001
195.388
209.942
203.292
215.484
155.156
164.454
159.996
161.175
147.248
178.738
195.886
204.244
194.734
188.491
211.222
204.699
214.913
155.865
176.882
165.727
198.735
180.482
205.598
203.984
214.429
208.468
207.788
212.719
207.971
213.292
230.014
231.66
238.422
219.008
224.43
206.432
201.833
213.264
208.729
222.759
217.844
222.665
220.715
222.795
219.922
150.87
149.953
150.108
147.54
152.878
165.725
154.378
158.564
158.001
152.463
163.55
160.251
163.794
159.684
153.578
145.605
151.503
150.507
204.772
196.278
201.178
207.235
207.729
169.837
173.687
170.892
181.27
189.608
196.909
208.252
204.919
187.24
180.155
194.97
188.34
201.692
163.353
194.114
177.285
160.259
162.346
207.475
224.045
216.106
206.54
211.344
199.929
171.304
183.737
206.818
214.929
202.256
209.655
184.178
171.212
145
156.89
156.889
144.998
145.543
138.825
141.043
141.327
138.963
149.922
138.972
141.824
141.78
138.076
139.849
138.43
139.847
202.909
223.806
215.143
206.476
209.335
212.589
231.615
222.503
230.687
237.763
222.744
212.554
217.485
234.693
242.189
231.883
240.97
222.619
