# vtk DataFile Version 4.2
vtk output
ASCII
DATASET POLYDATA
POINTS 642 double
-1.00839 1.63161 0
1.00839 1.63161 0
-1.00839 -1.63161 0
1.00839 -1.63161 0
0 -1.00839 1.63161
0 1.00839 1.63161
0 -1.00839 -1.63161
0 1.00839 -1.63161
1.63161 0 -1.00839
1.63161 0 1.00839
-1.63161 0 -1.00839
-1.63161 0 1.00839
-1.55176 0.959038 0.592718
-0.959038 0.592718 1.55176
-0.592718 1.55176 0.959038
0.592718 1.55176 0.959038
0 1.91808 0
0.592718 1.55176 -0.959038
-0.592718 1.55176 -0.959038
-0.959038 0.592718 -1.55176
-1.55176 0.959038 -0.592718
-1.91808 0 0
0.959038 0.592718 1.55176
1.55176 0.959038 0.592718
-0.959038 -0.592718 1.55176
0 0 1.91808
-1.55176 -0.959038 -0.592718
-1.55176 -0.959038 0.592718
0 0 -1.91808
-0.959038 -0.592718 -1.55176
1.55176 0.959038 -0.592718
0.959038 0.592718 -1.55176
1.55176 -0.959038 0.592718
0.959038 -0.592718 1.55176
0.592718 -1.55176 0.959038
-0.592718 -1.55176 0.959038
0 -1.91808 0
-0.592718 -1.55176 -0.959038
0.592718 -1.55176 -0.959038
0.959038 -0.592718 -1.55176
1.55176 -0.959038 -0.592718
1.91808 0 0
-1.33072 1.34658 0.308085
-1.12742 1.32 0.815806
-0.832231 1.65466 0.498492
-1.34658 0.308085 1.33072
-1.32 0.815806 1.12742
-1.65466 0.498492 0.832231
-0.308085 1.33072 1.34658
-0.815806 1.12742 1.32
-0.498492 0.832231 1.65466
-0.31161 1.8242 0.504196
-0.524146 1.84507 0
0.308085 1.33072 1.34658
0 1.63161 1.00839
0.524146 1.84507 0
0.31161 1.8242 0.504196
0.832231 1.65466 0.498492
-0.31161 1.8242 -0.504196
-0.832231 1.65466 -0.498492
0.832231 1.65466 -0.498492
0.31161 1.8242 -0.504196
-0.308085 1.33072 -1.34658
0 1.63161 -1.00839
0.308085 1.33072 -1.34658
-1.12742 1.32 -0.815806
-1.33072 1.34658 -0.308085
-0.498492 0.832231 -1.65466
-0.815806 1.12742 -1.32
-1.65466 0.498492 -0.832231
-1.32 0.815806 -1.12742
-1.34658 0.308085 -1.33072
-1.63161 1.00839 0
-1.84507 0 -0.524146
-1.8242 0.504196 -0.31161
-1.8242 0.504196 0.31161
-1.84507 0 0.524146
1.12742 1.32 0.815806
1.33072 1.34658 0.308085
0.498492 0.832231 1.65466
0.815806 1.12742 1.32
1.65466 0.498492 0.832231
1.32 0.815806 1.12742
1.34658 0.308085 1.33072
-0.504196 0.31161 1.8242
0 0.524146 1.84507
-1.34658 -0.308085 1.33072
-1.00839 0 1.63161
0 -0.524146 1.84507
-0.504196 -0.31161 1.8242
-0.498492 -0.832231 1.65466
-1.8242 -0.504196 0.31161
-1.65466 -0.498492 0.832231
-1.65466 -0.498492 -0.832231
-1.8242 -0.504196 -0.31161
-1.33072 -1.34658 0.308085
-1.63161 -1.00839 0
-1.33072 -1.34658 -0.308085
-1.00839 0 -1.63161
-1.34658 -0.308085 -1.33072
0 0.524146 -1.84507
-0.504196 0.31161 -1.8242
-0.498492 -0.832231 -1.65466
-0.504196 -0.31161 -1.8242
0 -0.524146 -1.84507
0.815806 1.12742 -1.32
0.498492 0.832231 -1.65466
1.33072 1.34658 -0.308085
1.12742 1.32 -0.815806
1.34658 0.308085 -1.33072
1.32 0.815806 -1.12742
1.65466 0.498492 -0.832231
1.33072 -1.34658 0.308085
1.12742 -1.32 0.815806
0.832231 -1.65466 0.498492
1.34658 -0.308085 1.33072
1.32 -0.815806 1.12742
1.65466 -0.498492 0.832231
0.308085 -1.33072 1.34658
0.815806 -1.12742 1.32
0.498492 -0.832231 1.65466
0.31161 -1.8242 0.504196
0.524146 -1.84507 0
-0.308085 -1.33072 1.34658
0 -1.63161 1.00839
-0.524146 -1.84507 0
-0.31161 -1.8242 0.504196
-0.832231 -1.65466 0.498492
0.31161 -1.8242 -0.504196
0.832231 -1.65466 -0.498492
-0.832231 -1.65466 -0.498492
-0.31161 -1.8242 -0.504196
0.308085 -1.33072 -1.34658
0 -1.63161 -1.00839
-0.308085 -1.33072 -1.34658
1.12742 -1.32 -0.815806
1.33072 -1.34658 -0.308085
0.498492 -0.832231 -1.65466
0.815806 -1.12742 -1.32
1.65466 -0.498492 -0.832231
1.32 -0.815806 -1.12742
1.34658 -0.308085 -1.33072
1.63161 -1.00839 0
1.84507 0 -0.524146
1.8242 -0.504196 -0.31161
1.8242 -0.504196 0.31161
1.84507 0 0.524146
0.504196 -0.31161 1.8242
1.00839 0 1.63161
0.504196 0.31161 1.8242
-1.12742 -1.32 0.815806
-0.815806 -1.12742 1.32
-1.32 -0.815806 1.12742
-0.815806 -1.12742 -1.32
-1.12742 -1.32 -0.815806
-1.32 -0.815806 -1.12742
1.00839 0 -1.63161
0.504196 -0.31161 -1.8242
0.504196 0.31161 -1.8242
1.8242 0.504196 0.31161
1.8242 0.504196 -0.31161
1.63161 1.00839 0
-1.18085 1.50347 0.15553
-1.0957 1.52036 0.408594
-0.929195 1.659 0.251652
-1.35628 1.15372 0.713041
-1.24178 1.34708 0.567759
-1.45515 1.16394 0.454749
-0.719352 1.61869 0.7358
-0.98996 1.50272 0.663947
-0.870788 1.45378 0.898484
-1.50347 0.15553 1.18085
-1.52036 0.408594 1.0957
-1.659 0.251652 0.929195
-1.15372 0.713041 1.35628
-1.34708 0.567759 1.24178
-1.16394 0.454749 1.45515
-1.61869 0.7358 0.719352
-1.50272 0.663947 0.98996
-1.45378 0.898484 0.870788
-0.15553 1.18085 1.50347
-0.408594 1.0957 1.52036
-0.251652 0.929195 1.659
-0.713041 1.35628 1.15372
-0.567759 1.24178 1.34708
-0.454749 1.45515 1.16394
-0.7358 0.719352 1.61869
-0.663947 0.98996 1.50272
-0.898484 0.870788 1.45378
-1.24018 1.08228 0.984693
-1.08228 0.984693 1.24018
-0.984693 1.24018 1.08228
-0.68711 1.77289 0.252525
-0.773666 1.75512 0
-0.4578 1.70902 0.740736
-0.577837 1.75743 0.506531
-0.264603 1.89974 0
-0.422201 1.85361 0.254706
-0.157747 1.89446 0.25524
0.15553 1.18085 1.50347
0 1.34823 1.36429
0.300053 1.61152 0.995977
0.155636 1.49649 1.18967
0.454749 1.45515 1.16394
-0.155636 1.49649 1.18967
-0.300053 1.61152 0.995977
0.773666 1.75512 0
0.68711 1.77289 0.252525
0.929195 1.659 0.251652
0.157747 1.89446 0.25524
0.422201 1.85361 0.254706
0.264603 1.89974 0
0.719352 1.61869 0.7358
0.577837 1.75743 0.506531
0.4578 1.70902 0.740736
-0.157903 1.75117 0.766476
0.157903 1.75117 0.766476
0 1.84876 0.510984
-0.68711 1.77289 -0.252525
-0.929195 1.659 -0.251652
-0.157747 1.89446 -0.25524
-0.422201 1.85361 -0.254706
-0.719352 1.61869 -0.7358
-0.577837 1.75743 -0.506531
-0.4578 1.70902 -0.740736
0.929195 1.659 -0.251652
0.68711 1.77289 -0.252525
0.4578 1.70902 -0.740736
0.577837 1.75743 -0.506531
0.719352 1.61869 -0.7358
0.422201 1.85361 -0.254706
0.157747 1.89446 -0.25524
-0.15553 1.18085 -1.50347
0 1.34823 -1.36429
0.15553 1.18085 -1.50347
-0.300053 1.61152 -0.995977
-0.155636 1.49649 -1.18967
-0.454749 1.45515 -1.16394
0.454749 1.45515 -1.16394
0.155636 1.49649 -1.18967
0.300053 1.61152 -0.995977
0 1.84876 -0.510984
0.157903 1.75117 -0.766476
-0.157903 1.75117 -0.766476
-1.0957 1.52036 -0.408594
-1.18085 1.50347 -0.15553
-0.870788 1.45378 -0.898484
-0.98996 1.50272 -0.663947
-1.45515 1.16394 -0.454749
-1.24178 1.34708 -0.567759
-1.35628 1.15372 -0.713041
-0.251652 0.929195 -1.659
-0.408594 1.0957 -1.52036
-0.898484 0.870788 -1.45378
-0.663947 0.98996 -1.50272
-0.7358 0.719352 -1.61869
-0.567759 1.24178 -1.34708
-0.713041 1.35628 -1.15372
-1.659 0.251652 -0.929195
-1.52036 0.408594 -1.0957
-1.50347 0.15553 -1.18085
-1.45378 0.898484 -0.870788
-1.50272 0.663947 -0.98996
-1.61869 0.7358 -0.719352
-1.16394 0.454749 -1.45515
-1.34708 0.567759 -1.24178
-1.15372 0.713041 -1.35628
-0.984693 1.24018 -1.08228
-1.08228 0.984693 -1.24018
-1.24018 1.08228 -0.984693
-1.34823 1.36429 0
-1.61152 0.995977 -0.300053
-1.49649 1.18967 -0.155636
-1.49649 1.18967 0.155636
-1.61152 0.995977 0.300053
-1.75512 0 -0.773666
-1.77289 0.252525 -0.68711
-1.89446 0.25524 -0.157747
-1.85361 0.254706 -0.422201
-1.89974 0 -0.264603
-1.75743 0.506531 -0.577837
-1.70902 0.740736 -0.4578
-1.77289 0.252525 0.68711
-1.75512 0 0.773666
-1.70902 0.740736 0.4578
-1.75743 0.506531 0.577837
-1.89974 0 0.264603
-1.85361 0.254706 0.422201
-1.89446 0.25524 0.157747
-1.75117 0.766476 -0.157903
-1.84876 0.510984 0
-1.75117 0.766476 0.157903
1.0957 1.52036 0.408594
1.18085 1.50347 0.15553
0.870788 1.45378 0.898484
0.98996 1.50272 0.663947
1.45515 1.16394 0.454749
1.24178 1.34708 0.567759
1.35628 1.15372 0.713041
0.251652 0.929195 1.659
0.408594 1.0957 1.52036
0.898484 0.870788 1.45378
0.663947 0.98996 1.50272
0.7358 0.719352 1.61869
0.567759 1.24178 1.34708
0.713041 1.35628 1.15372
1.659 0.251652 0.929195
1.52036 0.408594 1.0957
1.50347 0.15553 1.18085
1.45378 0.898484 0.870788
1.50272 0.663947 0.98996
1.61869 0.7358 0.719352
1.16394 0.454749 1.45515
1.34708 0.567759 1.24178
1.15372 0.713041 1.35628
0.984693 1.24018 1.08228
1.08228 0.984693 1.24018
1.24018 1.08228 0.984693
-0.252525 0.68711 1.77289
0 0.773666 1.75512
-0.740736 0.4578 1.70902
-0.506531 0.577837 1.75743
0 0.264603 1.89974
-0.254706 0.422201 1.85361
-0.25524 0.157747 1.89446
-1.50347 -0.15553 1.18085
-1.36429 0 1.34823
-0.995977 -0.300053 1.61152
-1.18967 -0.155636 1.49649
-1.16394 -0.454749 1.45515
-1.18967 0.155636 1.49649
-0.995977 0.300053 1.61152
0 -0.773666 1.75512
-0.252525 -0.68711 1.77289
-0.251652 -0.929195 1.659
-0.25524 -0.157747 1.89446
-0.254706 -0.422201 1.85361
0 -0.264603 1.89974
-0.7358 -0.719352 1.61869
-0.506531 -0.577837 1.75743
-0.740736 -0.4578 1.70902
-0.766476 0.157903 1.75117
-0.766476 -0.157903 1.75117
-0.510984 0 1.84876
-1.77289 -0.252525 0.68711
-1.659 -0.251652 0.929195
-1.89446 -0.25524 0.157747
-1.85361 -0.254706 0.422201
-1.61869 -0.7358 0.719352
-1.75743 -0.506531 0.577837
-1.70902 -0.740736 0.4578
-1.659 -0.251652 -0.929195
-1.77289 -0.252525 -0.68711
-1.70902 -0.740736 -0.4578
-1.75743 -0.506531 -0.577837
-1.61869 -0.7358 -0.719352
-1.85361 -0.254706 -0.422201
-1.89446 -0.25524 -0.157747
-1.18085 -1.50347 0.15553
-1.34823 -1.36429 0
-1.18085 -1.50347 -0.15553
-1.61152 -0.995977 0.300053
-1.49649 -1.18967 0.155636
-1.45515 -1.16394 0.454749
-1.45515 -1.16394 -0.454749
-1.49649 -1.18967 -0.155636
-1.61152 -0.995977 -0.300053
-1.84876 -0.510984 0
-1.75117 -0.766476 -0.157903
-1.75117 -0.766476 0.157903
-1.36429 0 -1.34823
-1.50347 -0.15553 -1.18085
-0.995977 0.300053 -1.61152
-1.18967 0.155636 -1.49649
-1.16394 -0.454749 -1.45515
-1.18967 -0.155636 -1.49649
-0.995977 -0.300053 -1.61152
0 0.773666 -1.75512
-0.252525 0.68711 -1.77289
-0.25524 0.157747 -1.89446
-0.254706 0.422201 -1.85361
0 0.264603 -1.89974
-0.506531 0.577837 -1.75743
-0.740736 0.4578 -1.70902
-0.251652 -0.929195 -1.659
-0.252525 -0.68711 -1.77289
0 -0.773666 -1.75512
-0.740736 -0.4578 -1.70902
-0.506531 -0.577837 -1.75743
-0.7358 -0.719352 -1.61869
0 -0.264603 -1.89974
-0.254706 -0.422201 -1.85361
-0.25524 -0.157747 -1.89446
-0.766476 0.157903 -1.75117
-0.510984 0 -1.84876
-0.766476 -0.157903 -1.75117
[...]
POINT_DATA 642
SCALARS SignedDistance double 1
LOOKUP_TABLE default
2.44051
2.41337
2.43782
2.38311
2.11005
2.13847
2.07387
2.10728
2.27009
2.25194
2.31889
2.29415
2.31188
2.11643
2.12302
2.11296
2.38103
2.36859
2.39471
2.06368
2.52559
2.62274
2.10522
2.26385
2.15982
2.0878
2.49564
2.48831
1.95108
2.03789
2.4621
2.01181
2.43511
2.1174
2.33003
2.35314
2.26337
2.33006
2.30594
2.0117
2.47045
2.56437
2.36916
2.20238
2.236
2.16189
2.18731
2.28718
2.09383
2.12537
2.12565
2.18889
2.39527
2.09281
2.09674
2.38745
2.18848
2.21629
2.58443
2.59893
2.56726
2.57518
2.22522
2.42091
2.22293
2.44054
2.59693
2.04044
2.19693
2.40491
2.26918
2.16011
2.53332
2.52663
2.61505
2.48363
2.46606
2.16602
2.32799
2.11576
2.09838
2.26624
2.14803
2.1603
2.11767
2.17363
2.21501
2.11616
2.03264
2.07242
2.12942
2.56213
2.39693
2.37909
2.60432
2.48524
2.55711
2.49615
2.02291
2.14655
1.98681
1.94012
2.01164
1.94831
1.98217
2.15117
2.02065
2.55939
2.38202
2.10249
2.19661
2.33229
2.43594
2.37491
2.37853
2.16359
2.26925
2.34852
2.22969
2.22894
2.11309
2.34891
2.31155
2.24183
2.30713
2.3394
2.36331
2.41382
2.26932
2.332
2.38315
2.28898
2.18611
2.27101
2.18063
2.37961
2.43046
2.01591
2.14879
2.33433
2.19648
2.10249
2.49221
2.47734
2.54893
2.4995
2.42487
2.05239
2.07926
2.10731
2.41424
2.25607
2.31581
2.15343
2.39618
2.22994
2.00253
1.94015
1.94018
2.43717
2.56129
2.48564
2.40379
2.29994
2.3355
2.25261
2.2654
2.33619
2.1662
2.21089
2.15886
2.21755
2.21554
2.27305
2.14428
2.17301
2.13131
2.30399
2.23216
2.24337
2.10702
2.11609
2.14187
2.12103
2.10891
2.09892
2.11469
2.11801
2.1242
2.1948
2.15078
2.15371
2.30912
2.41534
2.1419
2.20706
2.38302
2.28742
2.27818
2.10702
2.09339
2.098
2.08446
2.09383
2.08446
2.09846
2.39802
2.29588
2.31124
2.27774
2.28424
2.38061
2.15163
2.19903
2.13826
2.12298
2.12298
2.18605
2.50801
2.52895
2.48387
2.49243
2.49899
2.59454
2.51386
2.50536
2.49294
2.50103
2.57644
2.4698
2.48487
2.47989
2.16631
2.24576
2.16686
2.40147
2.3246
2.3023
2.28551
2.3247
2.3995
2.57712
2.53246
2.53246
2.60367
2.52106
2.40985
2.5205
2.59418
2.55508
2.47971
2.06829
2.12319
2.12123
2.11034
2.04113
2.19982
2.28849
2.35219
2.27343
2.23124
2.39668
2.33007
2.46233
2.10405
2.20763
2.15834
2.30981
2.22371
2.3471
2.48584
2.63201
2.56622
2.45132
2.42002
2.4338
2.46441
2.65485
2.56419
2.62393
2.51146
2.5693
2.35313
2.36906
2.39321
2.37754
2.54608
2.4664
2.56315
2.61596
2.59136
2.5051
2.26813
2.36876
2.13519
2.18414
2.29138
2.22836
2.20754
2.14127
2.11064
2.09741
2.09853
2.10009
2.09664
2.10286
2.27299
2.21041
2.20275
2.19499
2.19818
2.25663
2.12674
2.15627
2.11897
2.12032
2.11312
2.15034
2.15989
2.17174
2.10718
2.12465
2.13833
2.15508
2.11526
2.25025
2.19147
2.13075
2.15572
2.18612
2.14627
2.11203
2.0612
2.08049
2.12186
2.07472
2.06059
2.03389
2.13929
2.09061
2.10446
2.10454
2.08944
2.08096
2.43198
2.3417
2.59278
2.5152
2.45261
2.48849
2.52579
2.34077
2.45668
2.55123
2.49741
2.43151
2.55928
2.63072
2.47256
2.50115
2.46756
2.53544
2.5245
2.49679
2.52584
2.52838
2.55827
2.61601
2.58935
2.5793
2.15704
2.23043
2.02725
2.08104
2.08268
2.08518
2.02181
2.03898
2.00352
1.93095
1.95475
1.95394
1.98015
1.98866
2.03782
1.98655
2.01713
1.977
1.96614
2.0133
1.96441
1.95878
1.94009
1.96279
1.93271
1.97291
2.11018
2.0718
2.25183
2.17286
2.00237
2.07518
2.06936
2.48769
2.57146
2.41616
2.50151
2.53693
2.47726
2.36547
2.18296
2.20473
2.29153
2.09314
2.13739
2.04571
2.39172
2.25431
2.32179
2.25546
2.27939
2.16144
2.41511
2.40446
2.38702
2.40462
2.41254
2.44641
2.35961
2.38224
2.34912
2.20277
2.24749
2.29297
2.1852
2.21053
2.13428
2.40248
2.30504
2.36173
2.16621
2.16735
2.1101
2.28869
2.22801
2.2857
2.11135
2.16495
2.16881
2.33328
2.24458
2.3079
2.36096
2.34746
2.34983
2.3626
2.28004
2.33141
2.30608
2.1748
2.21421
2.32922
2.28014
2.30291
2.27234
2.31733
2.3898
2.39561
2.43173
2.31526
2.35246
2.29437
2.38893
2.38811
2.36795
2.34149
2.34813
2.33743
2.32442
2.3609
2.26896
2.29214
2.31465
2.29483
2.28058
2.41582
2.36722
2.30764
2.33164
2.35712
2.31781
2.27866
2.12642
2.20106
2.12642
2.27868
2.26514
2.26142
2.25428
2.26847
2.29431
2.26131
2.26813
2.25939
2.38218
2.40466
2.34115
2.36011
2.4582
2.41086
2.421
2.04034
2.09331
2.06867
2.07211
2.00169
2.16344
2.24549
2.29153
2.20472
2.18296
2.32166
2.25427
2.39763
2.04569
2.13737
2.09302
2.25369
2.16087
2.2789
2.43634
2.49253
2.46187
2.4638
2.48365
2.38436
2.4126
2.54287
2.51575
2.57365
2.46139
2.51948
2.38443
2.33538
2.46393
2.4362
2.5002
2.46989
2.53707
2.52561
2.53585
2.52262
2.06833
2.07068
2.07344
2.0489
2.06847
2.14855
2.10546
2.11988
2.10834
2.08152
2.15983
2.11519
2.15507
2.11985
2.10311
2.04838
2.07778
2.05826
2.44805
2.3816
2.42097
2.45783
2.45014
2.18147
2.20211
2.18704
2.24687
2.31342
2.2984
2.40717
2.35418
2.26257
2.23167
2.34046
2.28242
2.37318
2.08476
2.24122
2.15575
2.07254
2.08423
2.44427
2.44279
2.47659
2.41693
2.3601
2.25111
2.12379
2.1775
2.29568
2.35603
2.26315
2.3024
2.18137
2.11679
1.98835
2.04645
2.04645
1.98835
1.98931
1.95244
1.96314
1.96387
1.95761
2.01068
1.95769
1.96506
1.96801
1.94837
1.95696
1.95025
1.95695
2.35313
2.51221
2.43454
2.33995
2.34463
2.40976
2.51263
2.45502
2.51146
2.59459
2.44525
2.37206
2.40554
2.52235
2.58205
2.53863
2.56553
2.45646
SCALARS CoVolArea double 1
LOOKUP_TABLE default
0.0556931
0.0556931
0.0556931
0.0556931
0.0556931
0.0556931
0.0556931
0.0556931
0.0556931
0.0556931
0.0556931
0.0556931
0.0721452
0.0721452
0.0721452
0.0721452
0.0721452
0.0721452
0.0721452
0.0721452
0.0721452
0.0721452
0.0721452
0.0721452
0.0721452
0.0721452
0.0721452
0.0721452
0.0721452
0.0721452
0.0721452
0.0721452
0.0721452
0.0721452
0.0721452
0.0721452
0.0721452
0.0721452
0.0721452
0.0721452
0.0721452
0.0721452
0.0684252
0.0755257
0.0684252
0.0684252
0.0755257
0.0684252
0.0684252
0.0755257
0.0684252
0.0755257
0.0684252
0.0684252
0.0755257
0.0684252
0.0755257
0.0684252
0.0755257
0.0684252
0.0684252
0.0755257
0.0684252
0.0755257
0.0684252
0.0755257
0.0684252
0.0684252
0.0755257
0.0684252
0.0755257
0.0684252
0.0755257
0.0684252
0.0755257
0.0755257
0.0684252
0.0755257
0.0684252
0.0684252
0.0755257
0.0684252
0.0755257
0.0684252
0.0755257
0.0684252
0.0684252
0.0755257
0.0684252
0.0755257
0.0684252
0.0755257
0.0684252
0.0684252
0.0755257
0.0684252
0.0755257
0.0684252
0.0755257
0.0684252
0.0684252
0.0755257
0.0684252
0.0755257
0.0684252
0.0755257
0.0684252
0.0684252
0.0755257
0.0684252
0.0755257
0.0684252
0.0684252
0.0755257
0.0684252
0.0684252
0.0755257
0.0684252
0.0684252
0.0755257
0.0684252
0.0755257
0.0684252
0.0684252
0.0755257
0.0684252
0.0755257
0.0684252
0.0755257
0.0684252
0.0684252
0.0755257
0.0684252
0.0755257
0.0684252
0.0755257
0.0684252
0.0684252
0.0755257
0.0684252
0.0755257
0.0684252
0.0755257
0.0684252
0.0755257
0.0755257
0.0684252
0.0755257
0.0755257
0.0755257
0.0755257
0.0755257
0.0755257
0.0755257
0.0755257
0.0755257
0.0755257
0.0755257
0.0755257
0.0755257
0.0755257
0.0755257
0.0672026
0.0690479
0.0672026
0.0746471
0.0693683
0.0679699
0.0679699
0.0693683
0.0746471
0.0672026
0.0690479
0.0672026
0.0746471
0.0693683
0.0679699
0.0679699
0.0693683
0.0746471
0.0672026
0.0690479
0.0672026
0.0746471
0.0693683
0.0679699
0.0679699
0.0693683
0.0746471
0.0834457
0.0834457
0.0834457
0.0690479
0.0672026
0.0746471
0.0693683
0.0679699
0.0693683
0.0746471
0.0672026
0.0690479
0.0746471
0.0693683
0.0679699
0.0693683
0.0746471
0.0672026
0.0690479
0.0672026
0.0746471
0.0693683
0.0679699
0.0679699
0.0693683
0.0746471
0.0834457
0.0834457
0.0834457
0.0690479
0.0672026
0.0746471
0.0693683
0.0679699
0.0693683
0.0746471
0.0672026
0.0690479
0.0746471
0.0693683
0.0679699
0.0693683
0.0746471
0.0672026
0.0690479
0.0672026
0.0746471
0.0693683
0.0679699
0.0679699
0.0693683
0.0746471
0.0834457
0.0834457
0.0834457
0.0690479
0.0672026
0.0746471
0.0693683
0.0679699
0.0693683
0.0746471
0.0672026
0.0690479
0.0746471
0.0693683
0.0679699
0.0693683
0.0746471
0.0672026
0.0690479
0.0672026
0.0746471
0.0693683
0.0679699
0.0679699
0.0693683
0.0746471
0.0834457
0.0834457
0.0834457
0.0690479
0.0746471
0.0693683
0.0693683
0.0746471
0.0672026
0.0690479
0.0746471
0.0693683
0.0679699
0.0693683
0.0746471
0.0690479
0.0672026
0.0746471
0.0693683
0.0679699
0.0693683
0.0746471
0.0834457
0.0834457
0.0834457
0.0690479
0.0672026
0.0746471
0.0693683
0.0679699
0.0693683
0.0746471
0.0672026
0.0690479
0.0746471
0.0693683
0.0679699
0.0693683
0.0746471
0.0672026
0.0690479
0.0672026
0.0746471
0.0693683
0.0679699
0.0679699
0.0693683
0.0746471
0.0834457
0.0834457
0.0834457
0.0690479
0.0672026
0.0746471
0.0693683
0.0679699
0.0693683
0.0746471
0.0672026
0.0690479
0.0746471
0.0693683
0.0679699
0.0693683
0.0746471
0.0672026
0.0690479
0.0672026
0.0746471
0.0693683
0.0679699
0.0679699
0.0693683
0.0746471
0.0834457
0.0834457
0.0834457
0.0690479
0.0672026
0.0746471
0.0693683
0.0679699
0.0693683
0.0746471
0.0672026
0.0690479
0.0746471
0.0693683
0.0679699
0.0693683
0.0746471
0.0672026
0.0690479
0.0672026
0.0746471
0.0693683
0.0679699
0.0679699
0.0693683
0.0746471
0.0834457
0.0834457
0.0834457
0.0690479
0.0672026
0.0746471
0.0693683
0.0679699
0.0693683
0.0746471
0.0672026
0.0690479
0.0746471
0.0693683
0.0679699
0.0693683
0.0746471
0.0672026
0.0690479
0.0672026
0.0746471
0.0693683
0.0679699
0.0679699
0.0693683
0.0746471
0.0834457
0.0834457
0.0834457
0.0690479
0.0672026
0.0746471
0.0693683
0.0679699
0.0693683
0.0746471
0.0672026
0.0690479
0.0746471
0.0693683
0.0679699
0.0693683
0.0746471
0.0672026
0.0690479
0.0672026
0.0746471
0.0693683
0.0679699
0.0679699
0.0693683
0.0746471
0.0834457
0.0834457
0.0834457
0.0672026
0.0690479
0.0672026
0.0746471
0.0693683
0.0679699
0.0679699
0.0693683
0.0746471
0.0672026
0.0690479
0.0672026
0.0746471
0.0693683
0.0679699
0.0679699
0.0693683
0.0746471
0.0672026
0.0690479
0.0672026
0.0746471
0.0693683
0.0679699
0.0679699
0.0693683
0.0746471
0.0834457
0.0834457
0.0834457
0.0690479
0.0672026
0.0746471
0.0693683
0.0679699
0.0693683
0.0746471
0.0672026
0.0690479
0.0746471
0.0693683
0.0679699
0.0693683
0.0746471
0.0672026
0.0690479
0.0672026
0.0746471
0.0693683
0.0679699
0.0679699
0.0693683
0.0746471
0.0834457
0.0834457
0.0834457
0.0690479
0.0672026
0.0746471
0.0693683
0.0679699
0.0693683
0.0746471
0.0672026
0.0690479
0.0746471
0.0693683
0.0679699
0.0693683
0.0746471
0.0672026
0.0690479
0.0672026
0.0746471
0.0693683
0.0679699
0.0679699
0.0693683
0.0746471
0.0834457
0.0834457
0.0834457
0.0690479
0.0672026
0.0746471
0.0693683
0.0679699
0.0693683
0.0746471
0.0672026
0.0690479
0.0746471
0.0693683
0.0679699
0.0693683
0.0746471
0.0672026
0.0690479
0.0672026
0.0746471
0.0693683
0.0679699
0.0679699
0.0693683
0.0746471
0.0834457
0.0834457
0.0834457
0.0690479
0.0746471
0.0693683
0.0693683
0.0746471
0.0672026
0.0690479
0.0746471
0.0693683
0.0679699
0.0693683
0.0746471
0.0690479
0.0672026
0.0746471
0.0693683
0.0679699
0.0693683
0.0746471
0.0834457
0.0834457
0.0834457
0.0690479
0.0746471
0.0693683
0.0693683
0.0746471
0.0690479
0.0746471
0.0693683
0.0693683
0.0746471
0.0690479
0.0746471
0.0693683
0.0693683
0.0746471
0.0834457
0.0834457
0.0834457
0.0690479
0.0746471
0.0693683
0.0693683
0.0746471
0.0690479
0.0746471
0.0693683
0.0693683
0.0746471
0.0690479
0.0746471
0.0693683
0.0693683
0.0746471
0.0834457
0.0834457
0.0834457
0.0690479
0.0746471
0.0693683
0.0693683
0.0746471
0.0690479
0.0746471
0.0693683
0.0693683
0.0746471
0.0690479
0.0746471
0.0693683
0.0693683
0.0746471
0.0834457
0.0834457
0.0834457
0.0690479
0.0746471
0.0693683
0.0693683
0.0746471
0.0690479
0.0746471
0.0693683
0.0693683
0.0746471
0.0690479
0.0746471
0.0693683
0.0693683
0.0746471
0.0834457
0.0834457
0.0834457
0.0690479
0.0746471
0.0693683
0.0693683
0.0746471
0.0690479
0.0746471
0.0693683
0.0693683
0.0746471
0.0690479
0.0746471
0.0693683
0.0693683
0.0746471
0.0834457
0.0834457
0.0834457
SCALARS Mean_Curvature double 1
LOOKUP_TABLE default
1.19183
1.19183
1.19183
1.19183
1.19183
1.19183
1.19183
1.19183
1.19183
1.19183
1.19183
1.19183
1.03815
1.03815
1.03815
1.03815
1.03815
1.03815
1.03815
1.03815
1.03815
1.03815
1.03815
1.03815
1.03815
1.03815
1.03815
1.03815
1.03815
1.03815
1.03815
1.03815
1.03815
1.03815
1.03815
1.03815
1.03815
1.03815
1.03815
1.03815
1.03815
1.03815
1.03808
1.04266
1.03808
1.03808
1.04266
1.03808
1.03808
1.04266
1.03808
1.04266
1.03808
1.03808
1.04266
1.03808
1.04266
1.03808
1.04266
1.03808
1.03808
1.04266
1.03808
1.04266
1.03808
1.04266
1.03808
1.03808
1.04266
1.03808
1.04266
1.03808
1.04266
1.03808
1.04266
1.04266
1.03808
1.04266
1.03808
1.03808
1.04266
1.03808
1.04266
1.03808
1.04266
1.03808
1.03808
1.04266
1.03808
1.04266
1.03808
1.04266
1.03808
1.03808
1.04266
1.03808
1.04266
1.03808
1.04266
1.03808
1.03808
1.04266
1.03808
1.04266
1.03808
1.04266
1.03808
1.03808
1.04266
1.03808
1.04266
1.03808
1.03808
1.04266
1.03808
1.03808
1.04266
1.03808
1.03808
1.04266
1.03808
1.04266
1.03808
1.03808
1.04266
1.03808
1.04266
1.03808
1.04266
1.03808
1.03808
1.04266
1.03808
1.04266
1.03808
1.04266
1.03808
1.03808
1.04266
1.03808
1.04266
1.03808
1.04266
1.03808
1.04266
1.04266
1.03808
1.04266
1.04266
1.04266
1.04266
1.04266
1.04266
1.04266
1.04266
1.04266
1.04266
1.04266
1.04266
1.04266
1.04266
1.04266
1.03998
1.04216
1.03998
1.04103
1.04027
1.04001
1.04001
1.04027
1.04103
1.03998
1.04216
1.03998
1.04103
1.04027
1.04001
1.04001
1.04027
1.04103
1.03998
1.04216
1.03998
1.04103
1.04027
1.04001
1.04001
1.04027
1.04103
1.04063
1.04063
1.04063
1.04216
1.03998
1.04103
1.04027
1.04001
1.04027
1.04103
1.03998
1.04216
1.04103
1.04027
1.04001
1.04027
1.04103
1.03998
1.04216
1.03998
1.04103
1.04027
1.04001
1.04001
1.04027
1.04103
1.04063
1.04063
1.04063
1.04216
1.03998
1.04103
1.04027
1.04001
1.04027
1.04103
1.03998
1.04216
1.04103
1.04027
1.04001
1.04027
1.04103
1.03998
1.04216
1.03998
1.04103
1.04027
1.04001
1.04001
1.04027
1.04103
1.04063
1.04063
1.04063
1.04216
1.03998
1.04103
1.04027
1.04001
1.04027
1.04103
1.03998
1.04216
1.04103
1.04027
1.04001
1.04027
1.04103
1.03998
1.04216
1.03998
1.04103
1.04027
1.04001
1.04001
1.04027
1.04103
1.04063
1.04063
1.04063
1.04216
1.04103
1.04027
1.04027
1.04103
1.03998
1.04216
1.04103
1.04027
1.04001
1.04027
1.04103
1.04216
1.03998
1.04103
1.04027
1.04001
1.04027
1.04103
1.04063
1.04063
1.04063
1.04216
1.03998
1.04103
1.04027
1.04001
1.04027
1.04103
1.03998
1.04216
1.04103
1.04027
1.04001
1.04027
1.04103
1.03998
1.04216
1.03998
1.04103
1.04027
1.04001
1.04001
1.04027
1.04103
1.04063
1.04063
1.04063
1.04216
1.03998
1.04103
1.04027
1.04001
1.04027
1.04103
1.03998
1.04216
1.04103
1.04027
1.04001
1.04027
1.04103
1.03998
1.04216
1.03998
1.04103
1.04027
1.04001
1.04001
1.04027
1.04103
1.04063
1.04063
1.04063
1.04216
1.03998
1.04103
1.04027
1.04001
1.04027
1.04103
1.03998
1.04216
1.04103
1.04027
1.04001
1.04027
1.04103
1.03998
1.04216
1.03998
1.04103
1.04027
1.04001
1.04001
1.04027
1.04103
1.04063
1.04063
1.04063
1.04216
1.03998
1.04103
1.04027
1.04001
1.04027
1.04103
1.03998
1.04216
1.04103
1.04027
1.04001
1.04027
1.04103
1.03998
1.04216
1.03998
1.04103
1.04027
1.04001
1.04001
1.04027
1.04103
1.04063
1.04063
1.04063
1.04216
1.03998
1.04103
1.04027
1.04001
1.04027
1.04103
1.03998
1.04216
1.04103
1.04027
1.04001
1.04027
1.04103
1.03998
1.04216
1.03998
1.04103
1.04027
1.04001
1.04001
1.04027
1.04103
1.04063
1.04063
1.04063
1.03998
1.04216
1.03998
1.04103
1.04027
1.04001
1.04001
1.04027
1.04103
1.03998
1.04216
1.03998
1.04103
1.04027
1.04001
1.04001
1.04027
1.04103
1.03998
1.04216
1.03998
1.04103
1.04027
1.04001
1.04001
1.04027
1.04103
1.04063
1.04063
1.04063
1.04216
1.03998
1.04103
1.04027
1.04001
1.04027
1.04103
1.03998
1.04216
1.04103
1.04027
1.04001
1.04027
1.04103
1.03998
1.04216
1.03998
1.04103
1.04027
1.04001
1.04001
1.04027
1.04103
1.04063
1.04063
1.04063
1.04216
1.03998
1.04103
1.04027
1.04001
1.04027
1.04103
1.03998
1.04216
1.04103
1.04027
1.04001
1.04027
1.04103
1.03998
1.04216
1.03998
1.04103
1.04027
1.04001
1.04001
1.04027
1.04103
1.04063
1.04063
1.04063
1.04216
1.03998
1.04103
1.04027
1.04001
1.04027
1.04103
1.03998
1.04216
1.04103
1.04027
1.04001
1.04027
1.04103
1.03998
1.04216
1.03998
1.04103
1.04027
1.04001
1.04001
1.04027
1.04103
1.04063
1.04063
1.04063
1.04216
1.04103
1.04027
1.04027
1.04103
1.03998
1.04216
1.04103
1.04027
1.04001
1.04027
1.04103
1.04216
1.03998
1.04103
1.04027
1.04001
1.04027
1.04103
1.04063
1.04063
1.04063
1.04216
1.04103
1.04027
1.04027
1.04103
1.04216
1.04103
1.04027
1.04027
1.04103
1.04216
1.04103
1.04027
1.04027
1.04103
1.04063
1.04063
1.04063
1.04216
1.04103
1.04027
1.04027
1.04103
1.04216
1.04103
1.04027
1.04027
1.04103
1.04216
1.04103
1.04027
1.04027
1.04103
1.04063
1.04063
1.04063
1.04216
1.04103
1.04027
1.04027
1.04103
1.04216
1.04103
1.04027
1.04027
1.04103
1.04216
1.04103
1.04027
1.04027
1.04103
1.04063
1.04063
1.04063
1.04216
1.04103
1.04027
1.04027
1.04103
1.04216
1.04103
1.04027
1.04027
1.04103
1.04216
1.04103
1.04027
1.04027
1.04103
1.04063
1.04063
1.04063
1.04216
1.04103
1.04027
1.04027
1.04103
1.04216
1.04103
1.04027
1.04027
1.04103
1.04216
1.04103
1.04027
1.04027
1.04103
1.04063
1.04063
1.04063
