# vtk DataFile Version 4.2
vtk output
ASCII
DATASET POLYDATA
POINTS 642 double
-194.431 322.736 16.0155
197.244 324.582 15.371
-189.168 -319.629 -1.20985
194.137 -323.854 -1.77585
0.635198 -212.072 353.136
0.0306962 217.843 344.492
-0.222337 -212.545 -353.259
-0.862217 210.372 -352.551
331.439 -0.201414 -218.802
334.728 0.115216 215.259
-326.73 -1.03069 -218.132
-332.26 3.73417 211.986
-314.401 198.264 128.432
-203.826 125.905 332.255
-124.151 330.917 206.35
125.416 331.274 206.82
-0.17837 383.256 15.5084
122.101 305.398 -206.229
-118.204 303.428 -203.971
-203.846 125.112 -338.952
-291.936 181.006 -132.689
-349.465 -0.839331 7.61037
204.519 127.472 332.773
318.795 200.436 129.814
-199.741 -122.941 331.744
0.224201 -4.48601 413.558
-296.372 -181.388 -134.116
-293.477 -181.523 123.387
-0.478956 0.341846 -422.582
-205.198 -126.87 -339.879
298.735 184.338 -136.554
207.428 127.347 -341.69
298.903 -184.575 123.447
203.412 -123.707 335.122
117.158 -308.256 197.197
-115.337 -306.202 196.593
0.512076 -391.463 -1.09589
-117.227 -304.993 -199.443
116.883 -309.193 -198.157
207.426 -127.362 -341.694
293.58 -180.285 -132.486
355.47 0.301509 6.96281
-262.976 271.849 75.1514
-233.259 277.625 172.452
-170.692 345.416 110.595
-282.121 65.4395 283.311
-274.355 170.557 239.784
-339.052 101.919 177.184
-65.0673 286.564 289.303
-171.642 240.384 282.228
-107.224 177.869 351.836
-65.1462 385.135 112.363
-102.837 368.388 15.664
65.5909 286.434 289.346
-0.00809017 349.081 218.177
104.152 368.374 15.2788
65.2787 384.85 112.453
172.585 346.534 110.651
-53.412 339.243 -92.0833
-152.161 298.436 -96.6091
156.769 306.494 -99.1953
55.2692 339.423 -91.4035
-65.3279 271.264 -286.998
-0.333788 315.563 -212.654
67.3574 271.299 -286.576
-219.92 255.409 -175.001
-250.917 248.641 -53.5821
-106.956 176.575 -362.143
-168.787 231.674 -282.953
-321.474 96.5139 -179.831
-269.408 165.015 -241.121
-280.688 63.0219 -286.763
-307.015 196.242 18.9038
-348.881 -0.650998 -113.068
-338.956 97.4803 -70.1845
-347.863 102.331 77.322
-352.408 7.0589 118.768
236.487 279.29 174.5
267.035 274.514 74.6846
108.616 178.81 352.999
174.063 241.749 284.115
338.484 106.409 177.456
277.566 173.594 241.455
281.947 64.6141 283.794
-108.817 64.6002 389.513
-0.0308605 108.497 387.169
-277.85 -61.5392 281.688
-213.804 0.2065 349.736
0.635435 -114.043 403.494
-107.504 -67.622 394.628
-103.713 -174.692 355.823
-338.567 -91.1087 70.4505
-324.036 -93.1574 177.908
-325.116 -99.756 -181.626
-331.662 -92.0099 -74.005
-250.094 -259.948 61.634
-300.313 -192.326 1.61327
-247.563 -259.903 -60.0138
-217.597 -0.248082 -359.757
-281.653 -64.2644 -287.186
-0.987785 113.215 -406.076
-110.704 68.0102 -405.063
-108.033 -178.512 -363.061
-111.037 -67.8044 -404.153
-0.466351 -113.417 -404.736
172.335 234.518 -285.326
109.621 177.767 -362.62
254.64 248.463 -54.7197
225.468 259.211 -178.663
285.464 66.1832 -289.302
276.13 168.896 -243.864
330.792 100.922 -183.571
254.622 -263.358 60.9824
220.296 -259.221 167.518
161.872 -326.879 98.8282
282.095 -63.2732 285.509
268.697 -162.117 240.123
327.757 -94.3746 179.991
61.7361 -269.884 285.511
167.131 -228.656 280.486
104.693 -174.976 356.884
60.5117 -363.61 97.6139
102.1 -372.581 -1.96374
-61.1558 -269.319 285.212
0.667991 -325.723 208.749
-99.5022 -370.701 -1.62044
-58.8672 -362.339 97.2512
-158.956 -323.904 98.4684
61.9945 -370.569 -102.485
162.009 -332.337 -99.9592
-158.104 -328.517 -99.6547
-60.0621 -369.381 -102.215
66.1052 -271.6 -290.069
0.399367 -329.775 -204.75
-67.1713 -272.802 -290.15
220.611 -254.895 -172.705
253.394 -264.795 -60.4118
108.757 -177.878 -362.675
172.196 -234.188 -285.69
330.835 -100.897 -185.097
276.809 -169.015 -243.573
285.51 -66.2119 -289.267
306.871 -196.55 0.641574
354.409 0.0837811 -114.734
336.7 -91.2902 -71.2398
345.089 -94.6309 70.4518
357.58 2.85984 115.348
109.387 -67.4972 396.573
216.004 -1.55956 353.472
110.263 63.783 390.953
-217.002 -256 167.032
-164.977 -227.752 279.148
-264.818 -161.024 236.725
-170.919 -234.686 -285.16
-222.549 -256.614 -178.272
-272.96 -168.161 -242.21
218.178 0.0024944 -358.278
111.624 -68.7493 -403.925
111.541 68.7836 -403.943
352.379 104.641 75.8423
344.803 98.5657 -71.1484
311.91 199.192 17.0924
-230.284 300.826 44.9516
-220.957 312.02 94.1196
-184.925 336.964 62.9871
-279.003 241.055 150.939
-254.156 280.051 124.081
-291.451 237.86 102.658
-150.152 343.013 157.836
-205.246 316.228 143.204
-181.34 308.174 191.654
-311.812 34.1107 249.894
-314.405 85.0345 232.256
-340.4 53.04 196.408
-242.748 150.161 289.746
-280.845 119.202 264.666
-245.972 96.2842 311.174
-328.499 151.647 153.169
-309.361 137.729 209.556
-298.514 186.415 183.533
-32.7072 254.553 321.247
-87.0041 235.507 323.785
-54.0185 199.78 350.159
-149.359 289.743 247.407
-120.117 266.58 288.118
-95.6382 312.2 250.789
-156.967 153.261 345.963
-141.349 211.413 320.617
-189.953 185.006 310.968
-256.891 226.997 209.012
-226.797 208.189 264.607
-205.518 262.734 230.955
-137.484 362.493 63.7119
-150.821 348.751 15.6141
-96.1818 363.739 159.643
-118.932 369.389 112.917
-52.8018 380.145 15.6429
-84.6901 380.814 64.407
-32.691 389.776 64.3628
32.951 254.497 321.265
0.00184602 290.485 292.619
63.8605 344.908 215.563
33.3642 322.241 256.53
96.5395 312.271 251.019
-33.2735 322.254 256.528
-63.5716 344.994 215.543
153.038 349.659 14.9159
139.197 363.074 63.5125
187.476 338.509 62.7127
32.4337 389.442 64.3974
85.3295 380.54 64.3709
52.8928 379.829 15.3949
151.487 343.46 158.333
119.942 369.496 112.974
96.7506 363.655 159.78
-33.5429 373.55 165.565
33.5511 373.524 165.599
-0.106365 390.113 113.731
-130.878 343.118 -27.5425
-173.628 320.63 -27.3583
-29.9766 368.283 -31.2665
-79.0706 360.439 -28.5242
-138.982 304.49 -164.092
-102.247 317.921 -94.6919
-88.1185 321.821 -162.954
174.885 322.781 -30.7843
133.876 343.205 -30.5295
91.2725 320.991 -162.969
108.572 317.921 -94.8281
143.18 305.732 -163.972
80.4126 360.235 -29.4454
30.0973 368.435 -31.5293
-33.9296 243.084 -322.6
-0.214222 273.257 -288.671
34.1365 242.784 -321.516
-62.3311 314.197 -210.96
-33.7402 298.813 -250.06
-93.6723 292.431 -246.554
96.7901 294.238 -247.594
34.475 298.458 -249.775
64.4238 313.365 -211.911
-0.154932 346.462 -92.7223
31.4687 328.087 -161.689
-32.1311 329.672 -162.088
-201.369 274.739 -74.7754
-223.333 290.584 -10.2115
-171.649 283.593 -191.845
-189.738 280.967 -149.762
-269.085 222.27 -98.8091
-237.408 249.637 -125.492
-260.565 221.59 -153.648
-54.6525 195.957 -361.356
-87.2515 228.112 -328.365
-188.507 181.489 -315.106
-140.484 206.728 -325.591
-157.133 152.71 -354.632
-118.382 254.911 -287.924
-145.154 273.753 -245.109
-327.276 48.6936 -201.624
-308.983 82.616 -235.177
-308.848 30.5306 -252.949
-284.933 175.367 -187.446
-300.131 132.419 -212.687
-310.646 140.18 -155.69
-245.38 94.9452 -315.935
-277.877 116.613 -266.472
-240.711 147.284 -292.577
-199.4 249.339 -230.391
-222.935 201.432 -265.299
-247.729 215.077 -210.11
-257.791 266.764 15.6989
-285.308 182.92 -56.8582
-276.941 230.442 -16.7035
-289.273 235.421 46.277
-314.248 200.157 74.3996
-336.065 -1.21038 -168.283
-338.781 49.1799 -147.305
-337.035 48.0036 -34.9424
-346.844 48.3572 -96.513
-348.69 -2.59116 -64.4773
-334.235 96.65 -123.638
-322.566 133.659 -101.307
-355.113 54.6853 151.211
-350.294 6.64367 168.026
-336.302 151.019 104.438
-347.639 103.151 128.658
-355.809 3.99295 65.2244
-354.3 54.6152 99.8672
-352.528 51.862 47.2957
-324.678 138.707 -23.366
-341.331 102.438 10.6041
-332.887 151.846 46.4378
223.908 314.166 93.8705
233.778 303.164 44.6434
183.568 309.237 192.951
207.235 317.208 143.969
295.719 240.148 103.142
257.314 281.723 124.924
282.778 243.041 152.972
54.8191 199.75 350.134
88.2816 235.56 324.35
191.929 187.11 312.701
143.164 212.52 322.275
157.86 154.912 346.989
121.767 266.903 289.014
151.34 290.46 248.486
338.26 52.6165 198.451
314.601 86.9604 232.343
311.932 31.5746 250.715
302.897 189.377 185.539
312.098 141.279 210.507
332.78 155.183 154.382
246.198 96.9586 311.332
282.143 121.818 265.118
244.639 152.835 290.954
208.508 264.45 232.855
229.8 210.58 266.769
260.778 229.546 211.208
-56.2434 145.442 373.098
0.00511328 165.318 367.042
-158.776 97.8958 365.805
-110.608 122.5 374.148
-0.0617216 51.0257 404.203
-56.2581 85.8578 391.589
-55.0552 29.8862 406.039
-308.269 -28.8345 248.544
-283.213 2.00572 285.831
-209.688 -62.6412 345.378
-248.555 -31.6317 319.711
-241.464 -92.7997 309.437
-249.996 34.0493 319.95
-212.151 64.2432 345.183
0.621575 -166.017 382.236
-51.8784 -146.466 384.295
-50.4112 -195.404 357.523
-53.3066 -36.4731 409.089
-52.6485 -91.4347 402.35
0.548147 -60.4774 415.388
-153.597 -150.553 347.438
-107.241 -122.751 379.748
-156.434 -97.1839 368.239
-163.546 32.8196 375.449
-163.084 -34.2453 377.676
-109.761 -1.84581 399.11
-342.244 -42.6336 149.334
-332.112 -45.4225 196.847
-348.735 -43.614 41.3643
-350.631 -43.7382 93.7995
-309.685 -137.717 153.067
-333.498 -92.6198 124.629
-319.92 -138.339 97.6204
-328.829 -51.2833 -201.889
-338.993 -51.0058 -148.915
-318.846 -140.356 -105.895
-332.977 -97.6875 -130.31
-313.917 -143.603 -159.231
-347.524 -45.7056 -96.607
-345.371 -42.8738 -36.1967
-221.362 -290.879 30.427
-251.531 -262.214 0.678686
-220.427 -292.237 -30.6589
-299.585 -189.653 62.3655
-278.086 -227.176 32.2064
-273.171 -223.064 91.708
-271.89 -218.426 -98.4266
-277.449 -227.321 -29.6912
-297.81 -186.629 -64.827
-336.085 -93.7059 3.81519
-319.74 -144.689 -34.3612
-321.215 -144.302 35.7325
-285.877 -0.516151 -292.317
-309.687 -31.994 -253.075
-213.646 63.6112 -353.672
-251.79 32.166 -326.407
-246.64 -96.3813 -316.634
-252.47 -32.9662 -326.864
-214.092 -64.1357 -353.696
-0.961706 164.701 -383.023
-56.1441 147.111 -390.208
-57.5367 35.0716 -420.353
-57.141 91.5324 -410.743
-0.74697 58.3403 -419.554
-110.612 124.176 -388.165
-160.157 98.6862 -377.164
-55.3512 -197.809 -361.986
-56.6249 -148.132 -389.658
-0.34219 -165.903 -382.707
-160.772 -99.3843 -377.132
-111.266 -125.21 -387.937
-158.382 -154.586 -355.636
-0.438412 -57.7211 -418.661
-57.2727 -91.3921 -409.361
-57.5364 -34.3517 -419.832
[...]
POINT_DATA 642
SCALARS Mean_Curvature double 1
LOOKUP_TABLE default
0.00692185
0.00687739
0.0059023
0.0063438
0.00834592
0.00527815
0.00455998
0.00508834
0.0071257
0.00897676
0.00919611
0.00559449
0.00903309
0.00547102
0.00519411
0.00513406
0.00491043
0.0085119
0.00711877
0.00567766
0.00405158
0.00234508
0.00518976
0.00864572
0.00554764
0.00532067
0.00474756
0.00379502
0.00318278
0.00580775
0.00382567
0.00602144
0.00419193
0.00574686
0.00436164
0.00417392
0.00848452
-0.000619565
0.00204265
0.0060136
-0.000869268
0.00259282
0.00491233
0.00443844
0.00737192
0.00587868
0.00508535
0.0081609
0.00571414
0.00509796
0.00520077
0.00854603
0.00634426
0.00529638
0.00472961
0.00589808
0.00827818
0.00744922
0.000981286
-0.00325508
0.00403089
0.000562433
0.00597049
0.00431619
0.00485016
0.00646684
0.00198074
0.00583982
0.00543202
0.00381747
0.0070325
0.00520337
0.0038857
0.0066797
0.00753515
0.00403559
0.00106225
0.00483944
0.00539317
0.00587909
0.00539978
0.00706048
0.00562602
0.0042484
0.00473711
0.0022541
0.00561155
0.00556577
0.00721662
0.00563534
0.00544905
0.00359648
0.0065207
0.00616573
-0.00196073
0.00587185
0.00447127
0.00409723
0.00669484
0.00479905
0.00493637
0.00592863
0.00601843
0.00530651
0.00400946
0.00547258
0.0064263
-0.000375967
0.00761336
0.00592015
0.00652076
0.00702056
0.00475069
0.00398473
0.00470138
0.00585738
0.00614617
0.00531986
0.00471247
0.00565093
0.00496085
0.00365224
0.00668985
0.00501576
0.00565325
0.0071138
0.00348277
0.00480133
0.00615934
0.00602791
0.00565931
0.00633236
0.00721702
0.00489982
0.00732275
-2.37037e-05
0.00474726
0.00548337
0.00584147
0.00818713
0.00650611
0.00583789
0.0052093
0.00687539
-0.00107748
0.00504742
0.00470448
0.00541577
0.00601925
0.00499875
0.00375661
0.00584217
0.00589992
0.00561478
0.00541164
0.00675971
0.00438452
0.00591738
0.00584037
0.00424791
0.00706557
0.00404797
0.00564756
0.00589918
0.00554719
0.00685574
0.00885646
0.00679477
0.00586995
0.00792816
0.00481373
0.00661108
0.00495403
0.00731249
0.00525399
0.00526735
0.00574515
0.00636276
0.00450235
0.00425972
0.00593312
0.00497081
0.0041188
0.00532777
0.00528562
0.00564531
0.00526123
0.00497368
0.0051938
0.00472663
0.00518083
0.00511724
0.00589183
0.00626133
0.0058006
0.00768456
0.00633345
0.00591669
0.00622726
0.00576041
0.00491021
0.00537455
0.00594224
0.00534359
0.00600057
0.00562124
0.00602226
0.00586299
0.00566035
0.00589713
0.00553782
0.00587415
0.00559031
0.00739958
0.00553269
0.00555393
0.00556109
0.00739647
0.00525178
0.00497179
0.00448977
0.00458789
0.00610326
-0.00659224
0.00674002
0.00514266
0.00530669
0.00534069
-0.00809247
0.00447801
0.00412235
0.00467493
0.00475578
0.00398246
0.00345799
0.00687811
0.00569768
0.00708273
0.00809639
0.00490903
0.00597103
0.00245171
0.00203912
0.00385316
-0.00517439
0.00414549
0.00728978
0.00606659
0.00828663
0.00509267
0.00595832
0.00585586
0.00584681
0.0054891
0.00572168
0.00582664
0.00561266
0.00653903
0.00610897
0.00783663
0.00590141
0.00560936
0.00721544
0.00421694
0.00550159
0.00568398
0.00551383
0.00713724
0.00572309
0.00663879
0.00519809
-0.0095095
0.00577018
0.00546065
0.00563899
0.000569014
0.00377268
-0.00759283
0.00716709
0.00467332
0.00613555
0.00585913
0.0112793
0.0102162
0.00648258
0.00585952
0.00593761
0.00352462
0.00367358
0.00236821
0.00423931
0.00534702
0.00628428
0.00585789
0.00496983
0.00699284
0.00654627
0.00796213
0.00677927
0.00364321
0.00477769
0.0056581
0.00535832
0.00544055
0.00514395
0.00527431
0.00645523
0.00444893
0.0044346
0.00506343
0.00529951
0.00783882
0.00467031
0.0051509
0.00566017
0.00531119
0.00561433
0.00520904
0.00353489
0.00229546
0.00564922
0.00572202
0.00387864
0.00250889
0.00542631
0.00529888
0.00444628
0.00555432
0.00568285
0.00531222
0.00533561
0.00573327
0.00725281
0.00511656
0.00508325
0.00403122
0.00489659
0.00894459
0.00581299
0.00557908
0.00569404
0.00457238
0.00584084
0.00633133
0.00234743
0.00748683
0.00314404
0.00663239
0.00305946
0.00372467
0.00407452
0.00631334
0.00363217
0.00411462
0.00603255
0.00609402
0.00836767
0.00205982
0.00380026
0.00469618
0.00451155
0.00489944
0.00408676
0.00410526
0.000499537
0.00474047
0.00240442
0.00182752
0.00339151
0.00324936
0.00677467
0.00595603
0.00557311
0.00495937
0.00539462
0.00545562
0.00499074
0.00469594
0.00605625
0.00560922
0.00607102
0.00481915
0.0059944
0.00587726
0.00571091
0.00574166
0.00408169
0.00549953
0.005907
0.00597929
0.00442038
0.00530804
0.00551564
0.00543994
0.00621681
0.00607223
0.00667587
0.00393961
0.00649381
0.00582958
0.00605253
0.00577737
0.00571686
0.00438483
-0.00834432
0.00637003
0.00455003
0.0088023
0.00449884
0.00882013
0.00582295
0.00779054
0.00728876
0.00566791
0.00559914
0.00593451
0.00570466
0.00800327
0.00766899
0.00715662
0.00761609
0.00555577
0.00453671
0.00485834
0.00413596
0.0038656
0.00456264
0.0041509
0.00481991
0.00474791
0.00422418
0.00596963
0.00672404
0.00840136
0.00588231
0.00616639
0.00587999
0.00303204
0.00624356
0.00413397
0.00640783
0.0049036
0.00561183
0.00444864
0.00538721
0.00426123
0.0056582
0.00567115
0.00568284
0.00447902
0.00587737
0.00456662
0.00417452
0.00605913
0.00454836
0.00403847
0.00744508
0.00527657
0.00647691
0.00574599
0.00631197
0.00422998
0.00444955
0.00413388
0.00475385
0.00440039
0.00627874
0.00397184
0.00393981
0.00659301
0.00538448
0.00763618
0.00474401
0.00403713
0.00477705
0.00425899
0.00429611
0.00519401
0.00519492
0.00483655
0.00524634
0.00462297
0.00535485
0.00612785
0.00581579
0.00440255
0.00455856
0.00568331
0.00599936
0.00471914
0.00451033
0.00559704
0.00541529
0.00545114
0.00487743
0.00430745
-0.000592707
0.0037385
0.00786917
-0.000713033
0.00359781
0.00590191
0.00624035
0.00608589
0.00557864
0.00492006
0.000153797
0.00486908
0.00366034
0.00411379
1.32909e-05
0.00566897
0.00542904
0.00573434
0.00582514
0.00609263
0.00604005
0.00702876
0.00770983
0.00787482
0.00570487
0.0101477
0.00997575
0.00657264
0.00591398
0.00532775
0.00561673
0.00808281
0.00568783
0.0100466
0.00520973
0.00430668
0.00533945
0.00505875
0.00342333
0.000857166
0.00305661
0.00140366
0.00885465
0.00313217
0.00519818
-0.000513722
0.00441698
0.00539543
0.00600983
0.00290425
0.00545294
0.00454144
0.00359614
0.00496627
0.00164313
0.00303909
0.00555111
0.00585678
0.00494444
0.00534578
0.00374645
0.00586774
0.00428408
0.00525643
0.00602594
0.00625447
0.00312468
0.00435684
0.00210313
0.00567844
0.00443629
0.00650797
0.00555673
0.00718833
0.00526061
0.00398991
0.00455681
0.00436605
0.00354826
0.00538899
0.0056551
0.00585591
0.00590311
0.0045256
0.00613771
0.00519025
0.00673058
0.00537873
0.00557359
0.00496955
0.00587777
0.00521639
0.00615679
0.00718631
0.00621192
0.00585911
0.00560723
0.00496217
0.00480371
0.000773233
0.00250029
0.00178599
0.00775608
0.0055958
0.00559538
0.00785013
0.00729387
0.00855007
0.0088206
0.00549771
0.00394088
0.00634878
0.00496666
0.00497127
0.00634688
0.00536757
0.00556372
0.00438684
0.00602308
0.0063362
0.00426785
0.00632086
0.00635247
0.00459559
0.00551759
0.00513662
0.0046164
0.00515515
0.00213178
0.00401973
0.00508415
0.00692671
0.00707086
0.00262172
0.00481743
0.00413882
0.0069879
-0.00586776
0.00519374
0.00577521
0.00577647
0.0070169
-0.00901054
0.00394204
0.00206884
0.00489995
SCALARS CoVolArea double 1
LOOKUP_TABLE default
2040.57
2083.12
2155.56
2165.98
2344.24
2549.05
2557.65
2564.02
2264.4
2196.28
2125.91
2175.96
2788.09
3254.17
3266.58
3302.71
2832.82
2607.21
2566.24
3291.33
3155.77
3329.49
3340.73
2822.75
3180.35
3336.77
2872.02
2969.76
3594.12
3326.32
3115.12
3303.7
3042.32
3209.25
3110.86
3094.8
2735.62
3360.86
3338.19
3303.85
3236.25
3347.87
2653.46
3303.72
2759
2999.36
3378.16
2728.2
3106.79
3437.89
3158.49
3090.15
2576.47
3145.69
3460.41
2660.77
3119.96
2802.33
3741.33
3783.61
3503.2
3911.96
2959.59
3060.75
3023.99
2741.71
3134.63
3113.24
3252.01
2711.11
3068.98
3012.07
3412.69
2614.47
3164.92
2967.94
2629.55
3339.51
2696.42
3155.79
3442.15
2849.47
3363.14
3142.9
3496.6
3484.55
2966.54
3403.17
3061.48
3473.37
3087.51
3089.23
2663.4
2589.36
3443.7
2672.05
3072.83
2989.31
3492.32
3048.64
3309.94
3568.54
3133.7
3601.82
3363.71
3320.18
3146.47
3458.87
2743.43
3090.35
3182.52
2654.04
2752.13
3224.29
2861.44
2956.03
3122.59
2744.73
2967.65
3231.51
3137.01
3195.24
2715.05
2942.86
3207.77
2664.2
3176.98
2821.62
3054.8
2734.5
2840.74
3021.17
3020.93
3466.11
2947.98
3447.47
2790.37
3166.74
3205.61
2471.72
3055.2
3103.2
2991.19
2704.73
3608.42
3085.15
2788.3
3496.68
3412.23
3521.53
3170.03
3161.07
3058.09
3245.81
3022.97
3106.45
3612.72
3614.24
3614.85
2985.6
3314.43
3423.71
2571.63
2717.41
2608.59
3103.16
2721.06
2564.75
2931.97
2872.11
3353.85
2852.41
2973.88
2589.09
3349.74
3052.6
3008.04
2733.27
3036.42
3234.32
3030.94
3168.83
3135.28
3385.95
3147.81
3056.24
3069.67
3164.61
3394.82
3774.53
3796.02
3811.31
2724.97
2464
3268.06
2812.64
2582.57
2714.69
2970.55
3054.62
3146.12
3416.97
3150.93
3096.85
3132.51
3388.49
2526.65
2764.61
2635.44
2994.63
2764.43
2635.43
2970.87
2852.28
3300.74
3718.74
3732.65
3483.67
3174.72
3088.66
3182.75
3125.48
2931.59
3826.72
3234.76
3059.63
3091.64
3409.14
3770.62
2874.25
3198.65
3217.78
3032.75
3117.32
3104.86
2782.07
2872.06
2699.69
2709.63
2913.44
2879.73
3967.49
3828.05
3686.85
3851.85
3015.99
2655.8
3040.67
2955.41
2946.07
2760.12
3045.5
3060.04
3333.03
3078.41
3092.44
2961.49
2995.27
2654.75
2789.51
2734.18
2835.11
2709.33
2618.57
3059.06
2931.39
3288.73
3355.57
3566.3
3280.05
2747.02
4099.29
3051.27
2663.57
2763.62
2762.63
2759.86
3821.68
2792.68
2870.55
2589.27
3309.71
2471.6
2460.31
2810.5
2575.27
2702.78
2601.41
3393.29
3873.28
3709.35
3297.4
2771.09
2582.25
3387.3
2937.56
2644.65
2807.65
3145.07
3161.42
3191.77
3387.81
3152.87
3087.16
3177.5
3417.15
2817.2
3083.09
2935.79
3214.57
3004.19
2687.18
3131.18
3124.3
3372.44
3823.74
3787.54
3768.44
3364.09
3310.76
3401.05
3200.6
3304.8
3349.46
3476.5
2823.91
3043.76
3330.8
3065.93
2957.29
3078.91
3372.99
2949.33
3143.1
2965.8
3434.85
3166.51
3057.87
3000.81
3165.51
3355.62
3849.54
3809.9
3863.84
2717.89
2598.85
3118.38
2753.82
2714.97
2799.57
3048.21
2630.01
2695.08
3068.91
2662.19
2480.95
2672
3347.89
2646.69
2689.1
2629.79
2970.87
2670.22
2731.32
3120.72
2886.89
3215.63
3854.52
3721.7
3498.84
3058.07
2748.98
3455.86
3137.88
3095.55
3148.79
3482.33
3179.43
3223.67
3614.65
3281.9
3323.07
3210.47
3483.82
3095.14
3279.93
3206.11
3519.33
3249.29
3117.41
3361.07
3345.39
3638.68
3951.74
3997.2
3962.31
3101.74
3158
3002.29
2977.6
3094.3
3085.67
3383.06
3181.02
4046.84
2744.73
3155.57
2999.3
3051.97
2666.52
2874.31
2828.09
2694.44
3359.98
3015.26
3080.54
2580.77
2728.45
2828.47
3401.28
3328.78
3676.33
2680.02
2836.97
2728.9
3182.86
2870.83
2794.21
2858.65
2887.25
3199.44
2788.7
2792.98
2575.66
3205.71
2896.6
2967.67
2819.12
2794.19
3124.32
2856.9
3072.05
2955.31
3218.13
3005.65
2944.32
3062.37
3054.45
3250.69
3552.12
3556.14
3591.78
2845.22
2654.1
3208.53
2930.18
2619.72
2793.06
2921.57
2861.26
2932.94
3211.99
2958.66
2921.05
2956.92
3212.13
2613.86
2798.06
2688.78
2904.57
2751.94
2577.1
2834.83
2900.81
3186.72
3600.5
3593.94
3512.01
2757.42
2630.64
2994.68
2779.36
2955.58
2766.08
3142.42
2617.23
2740.84
3205.76
2786.14
3001.86
2745.3
2969.15
2981.57
3151.03
2985.88
3395.81
3348.44
3047.05
2966.12
3295.32
3445.85
3404.51
3484.37
3472.75
2796.23
2634.18
3521.76
3085.45
3067.18
3126.13
3294.64
3116.62
3084.31
3374.27
3110.05
3110.56
2947.33
3257.5
2665.47
2807.13
2877.37
2840.66
2579.46
2609.7
3085.99
3025.72
3367.69
3582.58
3549.17
3379.75
2708.03
3270.02
2733.88
2719.08
3040.34
2834.58
2705.11
3419.66
2769.64
2930
2818.1
3472.16
2765.05
2660.62
3069.85
2842.63
2700.81
2752.67
3196.32
3752.39
3852.43
3452.98
3147.01
3394.06
3219.95
3175.88
3457.17
3071.96
3487.86
3152.41
3061.64
3331.97
3392.16
3523.07
3403.83
3236.95
3482.49
3784.18
3845.69
3847.19
2765.49
3166.56
2853.38
2818.31
3105.68
3033.45
3203.41
2988.73
2940.41
3164.25
2804.05
2993.61
2716.17
2892.79
3184.77
3504.8
3483.44
3431.1
3054.88
3157.88
2897.29
3097.12
3367.39
2979.49
2982.91
3207.46
3095.83
3237.82
2812.31
3339.19
2991.75
2680.4
2753.27
3367.41
3202.21
3600.55
3214.86
3489.82
3242.25
3241.21
3489.66
3320.96
3665.94
3371.07
3248.88
3481.7
3329.82
3476.88
3244.26
3355.05
3660.74
4039.55
4081.77
4040.69
2868.82
3324.71
2746.6
2682.71
2799.49
2801.6
3414.14
2681.51
2900.54
3765.26
2831.99
2831.61
2703.93
3071.77
4040.62
3763.16
4017.28
3388.48
SCALARS SignedDistance double 1
LOOKUP_TABLE default
258.295
253.541
241.625
231.296
187.172
189.582
187.293
193.814
232.106
221.081
241.539
227.378
237.523
182.95
186.602
184.39
248.862
252.041
254.381
185.792
269.363
280.146
181.21
228.238
194.611
183.461
266.438
251.948
165.196
179.785
259.898
174.646
241.21
187.161
220.818
225.41
211.826
230.678
222.799
174.629
255.572
269.029
246.044
205.328
222.575
194.357
199.532
230.922
179.021
184.588
185.707
215.066
252.335
178.963
181.089
250.002
214.605
217.95
285.864
285.756
283.121
282.369
220.935
259.122
221.25
261.174
287.612
180.81
213.234
249.895
230.691
206.879
270.919
270.349
289.795
262.411
254.541
198.434
238.432
185.797
179.517
224.94
191.607
194.267
186.24
194.335
207.42
184.65
170.266
176.159
187.627
268.214
246.398
248.892
272.822
248.723
260.833
251.383
175.806
204.011
168.994
161.605
174.854
162.435
168.966
204.768
178.58
280.819
252.796
195.161
216.899
242.394
239.077
229.33
228.213
198.463
220.085
235.487
207.952
208.963
185.459
224.209
219.981
210.404
218.116
226.453
227.087
234.711
212.09
223.846
233.593
216.868
209.651
215.168
210.33
241.21
240.145
176.575
203.814
244.344
217.432
195.191
250.515
261.787
266.203
255.13
247.219
173.293
178.409
185.65
236.979
213.792
227.504
204.259
253.642
223.637
173.274
162.466
162.414
252.934
279.873
263.461
252.171
234.048
240.734
220.78
228.773
241.581
201.106
214.391
194.714
209.388
207.818
226.679
189.216
196.329
186.555
232.954
211.719
213.94
182.489
183.818
190.093
184.411
181.587
180.264
182.528
183.131
184.124
200.982
190.201
191.495
236.597
255.052
195.93
217.268
250.692
233.447
232.513
182.479
179.208
181.354
177.445
179.215
177.454
181.384
251.629
233.552
235.995
231.579
232.056
249.064
197.352
214.981
194.967
190.824
190.805
214.559
267.927
270.389
265.485
266.111
267.768
283.389
272.269
267.675
265.877
266.804
279.569
261.466
263.62
264.13
206.969
223.384
207.2
257.655
241.875
237.335
236.819
241.507
256.895
285.889
274.007
277.582
283.916
269.179
256.437
271.065
287.532
278.629
267.062
187.494
198.141
196.981
194.967
180.817
214.14
233.881
243.838
232.41
223.519
251.941
242.213
259.271
194.577
216.868
205.603
239.363
219.54
245.672
265.378
283.931
278.014
259.887
255.059
251.373
257.139
284.325
276.141
285.607
268.627
278.519
249.054
247.278
251.275
249.482
268.838
259.186
271.232
287.12
280.184
268.341
227.61
245.883
189.961
207.505
232.573
220.145
211.984
190.09
183.191
179.093
179.951
180.174
179.433
180.908
225.045
207.727
206.442
204.751
205.049
223.811
186.24
193.772
184.562
184.989
182.724
192.535
192.488
193.685
181.327
186.653
190.455
192.613
188.283
216.449
201.84
188.557
193.579
200.62
191.074
182.428
176.679
178.921
187.675
179.468
175.037
173.127
190.03
179.637
182.789
181.963
179.548
179.175
249.235
238.685
274.992
263.605
249.939
256.121
260.715
243.831
256.299
272.794
263.765
257.311
274.817
277.302
246.176
251.062
246.249
258.244
255.48
250.649
260.162
256.085
263.987
270.151
267.151
266.425
205.992
224.272
179.097
190.179
189.424
189.73
177.171
179.72
173.84
162.84
164.05
163.626
168.802
170.818
181.825
171.429
175.951
167.544
165.786
174.672
165.489
165.582
162.321
166.298
159.412
165.791
198.759
188.56
228.207
210.366
173.076
188.639
186.701
263.149
276.807
257.216
266.954
276.733
261.938
251.202
214.513
219.958
235.723
192.134
202.578
182.002
251.1
230.67
242.875
230.253
235.673
207.45
235.303
232.954
230.574
235.174
235.658
242.676
225.136
229.398
224.347
207.895
218.478
229.848
202.42
209.144
191.448
238.649
228.037
232.893
198.01
196.968
186.289
216.94
207.957
215.389
185.291
196.412
197.673
227.194
213.489
221.538
226.797
225.866
223.712
225.688
214.674
222.594
218.473
199.583
206.439
221.147
215.468
219.206
213.611
218.967
234.77
233.952
239.749
220.862
227.209
218.243
230.881
230.5
227.195
223.397
224.559
223.086
222.83
228.63
212.925
216.967
221.27
216.879
214.789
238.852
231.149
220.751
224.639
230.426
222.563
215.561
198.599
211.794
198.622
216.808
220.377
224.233
224.67
222.237
221.148
211.138
213.089
210.97
232.603
235.05
231.055
229.718
246.302
238.698
249.773
181.465
191.553
186.539
187.734
172.919
206.647
223.374
236.502
220.662
214.608
244.105
233.603
251.045
182.005
202.787
192.137
226.491
207.198
235.301
239.887
251.64
245.11
244.378
249.311
242.997
247.906
268.299
267.764
276.894
255.564
261.252
240.692
235.666
249.177
244.459
260.415
254.671
260.782
258.559
261.873
257.348
177.369
176.67
177.018
173.475
179.092
193.648
181.968
186.356
185.236
179.338
192.392
187.814
192.467
186.786
181.048
171.778
178.351
176.426
240.903
230.857
236.659
243.608
243.921
198.83
203.145
200.024
211.791
222.343
227.106
243.57
237.206
217.428
209.95
228.28
219.572
235.649
190.087
222.203
204.895
187.035
189.179
243.497
259.441
251.663
241.324
244.155
228.797
198.259
210.654
238.059
248.183
230.416
240.586
211.201
197.757
170.448
182.872
182.872
170.446
171.093
163.227
165.973
166.472
164.054
175.8
164.066
166.924
166.784
162.477
164.874
162.999
164.863
237.109
261.875
250.209
239.944
242.507
247.275
267.811
257.634
266.607
275.107
258.332
246.469
252.126
272.072
277.658
269.571
278.251
259.016
