# vtk DataFile Version 4.2
vtk output
ASCII
DATASET POLYDATA
POINTS 642 double
-0.956674 1.54808 0.000269932
0.957012 1.54856 0.000255432
-0.954306 -1.54437 -5.32585e-05
0.954962 -1.54536 -5.24974e-05
1.37641e-05 -0.959426 1.55264
8.88223e-06 0.958957 1.55153
-5.43296e-06 -0.960576 -1.5545
9.26832e-06 0.960427 -1.55427
1.5523 1.61525e-06 -0.959688
1.55019 2.57973e-05 0.958249
-1.55122 -2.04541e-05 -0.95905
-1.5495 7.16546e-05 0.957811
-1.47442 0.911312 0.563303
-0.912569 0.563999 1.47663
-0.564046 1.47683 0.91274
0.56412 1.47695 0.912827
-2.29158e-06 1.82276 0.00026113
0.563791 1.47576 -0.912416
-0.563444 1.475 -0.911931
-0.914467 0.56515 -1.47985
-1.47189 0.909693 -0.562554
-1.814 7.88859e-05 7.311e-05
0.91278 0.56413 1.47696
1.47548 0.911974 0.563703
-0.912482 -0.563936 1.47662
1.86815e-05 -7.73462e-05 1.82711
-1.47272 -0.910139 -0.562999
-1.46926 -0.907997 0.561461
-1.37885e-05 8.75491e-06 -1.83048
-0.914544 -0.565217 -1.47994
1.47404 0.911008 -0.563408
0.914839 0.565387 -1.48037
1.47017 -0.90857 0.5618
0.913053 -0.564261 1.47749
0.562275 -1.47207 0.909995
-0.562108 -1.4717 0.909771
8.74041e-06 -1.82073 -4.24524e-05
-0.562876 -1.47344 -0.910958
0.562741 -1.47319 -0.910764
0.914833 -0.565377 -1.48036
1.47215 -0.909769 -0.56276
1.81398 8.12675e-05 6.83769e-05
-1.26311 1.28121 0.29151
-1.07206 1.25529 0.775842
-0.792806 1.57464 0.4721
-1.2825 0.291639 1.26459
-1.25519 0.775786 1.07217
-1.57264 0.471443 0.791998
-0.291817 1.26544 1.28344
-0.776181 1.07271 1.25596
-0.472028 0.792907 1.57467
-0.296617 1.73663 0.480071
-0.500404 1.75246 0.000267838
0.291844 1.26548 1.28349
2.67462e-06 1.55319 0.959921
0.500422 1.75245 0.000261646
0.296618 1.7366 0.480067
0.792922 1.57481 0.472154
-0.295153 1.72796 -0.477586
-0.788708 1.56627 -0.469606
0.789363 1.56749 -0.470016
0.295166 1.72789 -0.477581
-0.291917 1.26559 -1.28389
1.81644e-05 1.55023 -0.958419
0.292044 1.26594 -1.28424
-1.07108 1.254 -0.775343
-1.25937 1.27736 -0.290448
-0.473094 0.794635 -1.57838
-0.776916 1.0736 -1.25726
-1.57263 0.471417 -0.792246
-1.25635 0.776455 -1.07331
-1.28455 0.292088 -1.26676
-1.54657 0.955954 0.000223604
-1.74819 -3.31025e-07 -0.499605
-1.72749 0.477527 -0.295277
-1.73035 0.478359 0.295862
-1.74976 0.000144088 0.499978
1.07259 1.25586 0.776204
1.26375 1.28183 0.291645
0.472161 0.793095 1.57504
0.776477 1.07308 1.25639
1.57319 0.471645 0.792283
1.25582 0.776188 1.07268
1.28273 0.29168 1.26483
-0.479878 0.296519 1.73623
1.03878e-05 0.500932 1.75432
-1.28209 -0.291497 1.26425
-0.959666 -2.94537e-06 1.5529
1.76277e-05 -0.501836 1.75735
-0.480087 -0.296729 1.73715
-0.472144 -0.793147 1.57537
-1.72594 -0.476941 0.295071
-1.57067 -0.470729 0.791151
-1.57342 -0.471683 -0.792655
-1.72596 -0.477037 -0.295198
-1.25782 -1.27584 0.290172
-1.54229 -0.953271 -3.88202e-05
-1.25807 -1.27609 -0.290356
-0.961835 5.08042e-06 -1.55652
-1.28463 -0.292126 -1.26681
-1.11132e-05 0.502494 -1.75979
-0.481245 0.297378 -1.74121
-0.473157 -0.794753 -1.57855
-0.481146 -0.297313 -1.74084
-4.83416e-06 -0.502432 -1.75953
0.777418 1.07425 -1.25799
0.473225 0.794822 -1.57869
1.26015 1.27808 -0.29066
1.07243 1.25552 -0.776304
1.28527 0.292267 -1.2674
1.2575 0.777173 -1.07424
1.57474 0.472082 -0.79328
1.25875 -1.27677 0.290368
1.06898 -1.25156 0.77373
0.789649 -1.56832 0.470149
1.28304 -0.291733 1.26518
1.25471 -0.775371 1.07188
1.57179 -0.471077 0.791736
0.291444 -1.2637 1.282
0.775617 -1.0718 1.25519
0.472281 -0.793322 1.57573
0.29544 -1.72969 0.478038
0.49966 -1.74993 -5.08177e-05
-0.291387 -1.26355 1.28184
1.17686e-05 -1.54824 0.957073
-0.499526 -1.74959 -5.30415e-05
-0.295373 -1.72945 0.477971
-0.789268 -1.56763 0.469949
0.295744 -1.73146 -0.478597
0.790359 -1.56976 -0.470636
-0.790031 -1.56914 -0.470507
-0.295706 -1.73134 -0.478571
0.291943 -1.26556 -1.28396
-5.75237e-06 -1.54919 -0.957652
-0.292004 -1.26578 -1.28417
1.07048 -1.2532 -0.774912
1.25913 -1.27716 -0.290541
0.473194 -0.794774 -1.57861
0.777315 -1.07407 -1.25787
1.57508 -0.472163 -0.79351
1.25746 -0.777109 -1.07422
1.28527 -0.292265 -1.2674
1.54369 -0.954153 -2.42304e-05
1.74932 3.29108e-05 -0.499989
1.72573 -0.476947 -0.295135
1.72692 -0.477246 0.295237
1.74938 9.30029e-05 0.499881
0.480285 -0.296823 1.73775
0.960217 -2.8684e-05 1.55379
0.48006 0.296596 1.73679
-1.06844 -1.25096 0.773363
-0.775309 -1.07142 1.25474
-1.25375 -0.774797 1.07107
-0.777236 -1.07401 -1.25775
-1.07181 -1.25479 -0.775947
-1.25691 -0.776818 -1.07377
0.961934 4.96254e-07 -1.55661
0.481191 -0.297344 -1.74093
0.481194 0.29735 -1.74095
1.73095 0.478584 0.295934
1.72894 0.477959 -0.295578
1.54769 0.956642 0.000199771
-1.11987 1.4296 0.146348
-1.04176 1.44611 0.387885
-0.884237 1.57712 0.236839
-1.28941 1.09654 0.677631
-1.18052 1.28124 0.539551
-1.3822 1.1075 0.431411
-0.685189 1.54055 0.698668
-0.94163 1.42945 0.63105
-0.828054 1.38327 0.854825
-1.43123 0.146325 1.12137
-1.44582 0.387702 1.04177
-1.5766 0.236611 0.884168
-1.09735 0.678111 1.29055
-1.28148 0.539604 1.18095
-1.10864 0.431743 1.38383
-1.53833 0.697679 0.684386
-1.42864 0.630681 0.941287
-1.38198 0.854052 0.827456
-0.146405 1.12226 1.43247
-0.388034 1.04265 1.44716
-0.236825 0.885043 1.57833
-0.678271 1.2909 1.09772
-0.539916 1.18165 1.28234
-0.431896 1.38438 1.10914
-0.698675 0.685277 1.54064
-0.631266 0.942124 1.43006
-0.854863 0.8282 1.38343
-1.17926 1.02915 0.936372
-1.02947 0.936665 1.17978
-0.936635 1.17979 1.02957
-0.654124 1.68601 0.239875
-0.737299 1.66593 0.000268355
-0.43593 1.62646 0.705267
-0.550257 1.67273 0.481777
-0.253127 1.80517 0.000267294
-0.402142 1.76343 0.242384
-0.149979 1.8027 0.242709
0.146424 1.12229 1.4325
5.31737e-06 1.28285 1.29932
0.28597 1.53396 0.948148
0.147984 1.42436 1.13296
0.431941 1.38445 1.10921
-0.147974 1.42435 1.13295
-0.285957 1.53394 0.948135
0.737438 1.66617 0.000255676
0.654188 1.68611 0.239885
0.884457 1.57745 0.236881
0.149972 1.80264 0.242701
0.402138 1.76336 0.242375
0.253115 1.80505 0.000265638
0.685299 1.54074 0.69876
0.550276 1.67274 0.481782
0.43595 1.62648 0.705283
-0.150321 1.66694 0.729639
0.150325 1.66694 0.729641
-2.68068e-07 1.7601 0.486521
-0.652298 1.68126 -0.238749
-0.881793 1.5727 -0.235753
-0.149561 1.79761 -0.241582
-0.401016 1.75849 -0.241257
-0.683506 1.53653 -0.697195
-0.547251 1.6635 -0.479093
-0.434684 1.62153 -0.703426
0.882109 1.57321 -0.235862
0.652431 1.68149 -0.23881
0.43481 1.62181 -0.703572
0.547392 1.66376 -0.479196
0.684006 1.53751 -0.697666
0.401024 1.75842 -0.241258
0.149557 1.79754 -0.241576
-0.146552 1.12313 -1.4339
1.99648e-05 1.28269 -1.29947
0.146596 1.12318 -1.43396
-0.285558 1.53145 -0.946913
-0.147873 1.42306 -1.13222
-0.431739 1.38359 -1.1088
0.431969 1.38418 -1.10927
0.147929 1.42317 -1.13231
0.285675 1.53182 -0.947158
2.69056e-06 1.75175 -0.484123
0.149859 1.6612 -0.727395
-0.149839 1.66125 -0.727406
-1.03732 1.43978 -0.386104
-1.11796 1.42712 -0.145658
-0.827428 1.38203 -0.854373
-0.939496 1.42597 -0.629828
-1.37843 1.10445 -0.430305
-1.17771 1.27802 -0.538405
-1.28812 1.09536 -0.677185
-0.237344 0.88684 -1.58187
-0.388592 1.04397 -1.44932
-0.856273 0.829499 -1.38584
-0.6323 0.943568 -1.43253
-0.700228 0.686763 -1.54422
-0.540296 1.1823 -1.28333
-0.678274 1.29072 -1.09784
-1.57765 0.236721 -0.884983
-1.44732 0.388079 -1.04302
-1.43295 0.14646 -1.12287
-1.3822 0.854139 -0.827821
-1.42961 0.631083 -0.942133
-1.53718 0.697124 -0.684119
-1.1107 0.432532 -1.38655
-1.28318 0.54029 -1.18266
-1.09901 0.679107 -1.29265
-0.936815 1.17989 -1.02992
-1.03049 0.937524 -1.1811
-1.17959 1.02935 -0.936822
-1.27845 1.29503 0.000223738
-1.52425 0.942248 -0.284252
-1.41761 1.12773 -0.147164
-1.42008 1.12968 0.147783
-1.53003 0.945825 0.285473
-1.66565 -2.35909e-05 -0.737656
-1.68208 0.239133 -0.653062
-1.79077 0.240979 -0.149087
-1.75593 0.241196 -0.400785
-1.79769 3.41218e-05 -0.252339
-1.66663 0.479963 -0.548645
-1.6194 0.702182 -0.434355
-1.68429 0.239526 0.653718
-1.66589 0.00010817 0.737562
-1.62297 0.703803 0.435244
-1.66965 0.480871 0.549499
-1.79864 0.000130172 0.25251
-1.75897 0.241703 0.401465
-1.79399 0.241462 0.149536
-1.65789 0.725711 -0.149476
-1.75049 0.483905 0.000144521
-1.66069 0.726998 0.150015
1.0421 1.44653 0.388
1.12037 1.43018 0.146398
0.828303 1.38363 0.855056
0.941943 1.42987 0.631246
1.383 1.10812 0.431657
1.18107 1.28179 0.539794
1.29024 1.09722 0.678059
0.236864 0.885106 1.57845
0.388109 1.04278 1.44736
0.855187 0.828507 1.38392
0.631476 0.942403 1.43049
0.698863 0.685455 1.54103
0.540034 1.18185 1.28256
0.678442 1.29117 1.09796
1.57682 0.236636 0.884301
1.44612 0.387798 1.04198
1.4314 0.146312 1.12152
1.38283 0.854592 0.827951
1.42928 0.630994 0.941702
1.53919 0.698103 0.684762
1.10885 0.431825 1.3841
1.28186 0.539784 1.1813
1.09774 0.678368 1.291
0.937042 1.18026 1.02999
1.02996 0.937107 1.18032
1.17993 1.02972 0.93689
-0.239758 0.654322 1.68637
8.90201e-06 0.738402 1.6682
-0.705176 0.435902 1.62631
-0.48161 0.550165 1.67237
1.40691e-05 0.253447 1.80805
-0.242236 0.402159 1.76363
-0.242665 0.150003 1.80388
-1.43066 -0.146176 1.12096
-1.29817 3.18091e-05 1.28181
-0.94788 -0.285902 1.5337
-1.13224 -0.147878 1.42359
-1.10836 -0.431606 1.38357
-1.13234 0.147917 1.42369
-0.947843 0.28589 1.53356
1.5053e-05 -0.739479 1.67085
-0.239977 -0.655084 1.68846
-0.236926 -0.885525 1.57948
-0.242709 -0.15016 1.80439
-0.242444 -0.402673 1.76559
2.0853e-05 -0.253842 1.8099
-0.698737 -0.685346 1.54097
-0.481843 -0.550509 1.67347
-0.705357 -0.436043 1.62688
-0.729563 0.150296 1.66688
-0.729694 -0.150364 1.66723
-0.48651 -3.98897e-05 1.76045
-1.68207 -0.238999 0.652944
-1.57559 -0.236325 0.883671
-1.79206 -0.240975 0.149299
-1.75569 -0.241 0.40071
-1.53497 -0.696021 0.683062
-1.66527 -0.479442 0.54816
-1.61733 -0.701218 0.433797
-1.57803 -0.236818 -0.88519
-1.68276 -0.239258 -0.653359
-1.61965 -0.702296 -0.434609
-1.66727 -0.480156 -0.548971
-1.53831 -0.697646 -0.684684
-1.75583 -0.24114 -0.400839
-1.79041 -0.240791 -0.149148
-1.11585 -1.42453 0.145593
-1.2748 -1.29136 -3.69666e-05
-1.11606 -1.4248 -0.145713
-1.52385 -0.941947 0.284246
-1.41496 -1.12558 0.14706
-1.37621 -1.10264 0.429559
[...]
POINT_DATA 642
SCALARS Mean_Curvature double 1
LOOKUP_TABLE default
1.19183
1.19183
1.19183
1.19183
1.19183
1.19183
1.19183
1.19183
1.19183
1.19183
1.19183
1.19183
1.03815
1.03815
1.03815
1.03815
1.03815
1.03815
1.03815
1.03815
1.03815
1.03815
1.03815
1.03815
1.03815
1.03815
1.03815
1.03815
1.03815
1.03815
1.03815
1.03815
1.03815
1.03815
1.03815
1.03815
1.03815
1.03815
1.03815
1.03815
1.03815
1.03815
1.03808
1.04266
1.03808
1.03808
1.04266
1.03808
1.03808
1.04266
1.03808
1.04266
1.03808
1.03808
1.04266
1.03808
1.04266
1.03808
1.04266
1.03808
1.03808
1.04266
1.03808
1.04266
1.03808
1.04266
1.03808
1.03808
1.04266
1.03808
1.04266
1.03808
1.04266
1.03808
1.04266
1.04266
1.03808
1.04266
1.03808
1.03808
1.04266
1.03808
1.04266
1.03808
1.04266
1.03808
1.03808
1.04266
1.03808
1.04266
1.03808
1.04266
1.03808
1.03808
1.04266
1.03808
1.04266
1.03808
1.04266
1.03808
1.03808
1.04266
1.03808
1.04266
1.03808
1.04266
1.03808
1.03808
1.04266
1.03808
1.04266
1.03808
1.03808
1.04266
1.03808
1.03808
1.04266
1.03808
1.03808
1.04266
1.03808
1.04266
1.03808
1.03808
1.04266
1.03808
1.04266
1.03808
1.04266
1.03808
1.03808
1.04266
1.03808
1.04266
1.03808
1.04266
1.03808
1.03808
1.04266
1.03808
1.04266
1.03808
1.04266
1.03808
1.04266
1.04266
1.03808
1.04266
1.04266
1.04266
1.04266
1.04266
1.04266
1.04266
1.04266
1.04266
1.04266
1.04266
1.04266
1.04266
1.04266
1.04266
1.03998
1.04216
1.03998
1.04103
1.04027
1.04001
1.04001
1.04027
1.04103
1.03998
1.04216
1.03998
1.04103
1.04027
1.04001
1.04001
1.04027
1.04103
1.03998
1.04216
1.03998
1.04103
1.04027
1.04001
1.04001
1.04027
1.04103
1.04063
1.04063
1.04063
1.04216
1.03998
1.04103
1.04027
1.04001
1.04027
1.04103
1.03998
1.04216
1.04103
1.04027
1.04001
1.04027
1.04103
1.03998
1.04216
1.03998
1.04103
1.04027
1.04001
1.04001
1.04027
1.04103
1.04063
1.04063
1.04063
1.04216
1.03998
1.04103
1.04027
1.04001
1.04027
1.04103
1.03998
1.04216
1.04103
1.04027
1.04001
1.04027
1.04103
1.03998
1.04216
1.03998
1.04103
1.04027
1.04001
1.04001
1.04027
1.04103
1.04063
1.04063
1.04063
1.04216
1.03998
1.04103
1.04027
1.04001
1.04027
1.04103
1.03998
1.04216
1.04103
1.04027
1.04001
1.04027
1.04103
1.03998
1.04216
1.03998
1.04103
1.04027
1.04001
1.04001
1.04027
1.04103
1.04063
1.04063
1.04063
1.04216
1.04103
1.04027
1.04027
1.04103
1.03998
1.04216
1.04103
1.04027
1.04001
1.04027
1.04103
1.04216
1.03998
1.04103
1.04027
1.04001
1.04027
1.04103
1.04063
1.04063
1.04063
1.04216
1.03998
1.04103
1.04027
1.04001
1.04027
1.04103
1.03998
1.04216
1.04103
1.04027
1.04001
1.04027
1.04103
1.03998
1.04216
1.03998
1.04103
1.04027
1.04001
1.04001
1.04027
1.04103
1.04063
1.04063
1.04063
1.04216
1.03998
1.04103
1.04027
1.04001
1.04027
1.04103
1.03998
1.04216
1.04103
1.04027
1.04001
1.04027
1.04103
1.03998
1.04216
1.03998
1.04103
1.04027
1.04001
1.04001
1.04027
1.04103
1.04063
1.04063
1.04063
1.04216
1.03998
1.04103
1.04027
1.04001
1.04027
1.04103
1.03998
1.04216
1.04103
1.04027
1.04001
1.04027
1.04103
1.03998
1.04216
1.03998
1.04103
1.04027
1.04001
1.04001
1.04027
1.04103
1.04063
1.04063
1.04063
1.04216
1.03998
1.04103
1.04027
1.04001
1.04027
1.04103
1.03998
1.04216
1.04103
1.04027
1.04001
1.04027
1.04103
1.03998
1.04216
1.03998
1.04103
1.04027
1.04001
1.04001
1.04027
1.04103
1.04063
1.04063
1.04063
1.04216
1.03998
1.04103
1.04027
1.04001
1.04027
1.04103
1.03998
1.04216
1.04103
1.04027
1.04001
1.04027
1.04103
1.03998
1.04216
1.03998
1.04103
1.04027
1.04001
1.04001
1.04027
1.04103
1.04063
1.04063
1.04063
1.03998
1.04216
1.03998
1.04103
1.04027
1.04001
1.04001
1.04027
1.04103
1.03998
1.04216
1.03998
1.04103
1.04027
1.04001
1.04001
1.04027
1.04103
1.03998
1.04216
1.03998
1.04103
1.04027
1.04001
1.04001
1.04027
1.04103
1.04063
1.04063
1.04063
1.04216
1.03998
1.04103
1.04027
1.04001
1.04027
1.04103
1.03998
1.04216
1.04103
1.04027
1.04001
1.04027
1.04103
1.03998
1.04216
1.03998
1.04103
1.04027
1.04001
1.04001
1.04027
1.04103
1.04063
1.04063
1.04063
1.04216
1.03998
1.04103
1.04027
1.04001
1.04027
1.04103
1.03998
1.04216
1.04103
1.04027
1.04001
1.04027
1.04103
1.03998
1.04216
1.03998
1.04103
1.04027
1.04001
1.04001
1.04027
1.04103
1.04063
1.04063
1.04063
1.04216
1.03998
1.04103
1.04027
1.04001
1.04027
1.04103
1.03998
1.04216
1.04103
1.04027
1.04001
1.04027
1.04103
1.03998
1.04216
1.03998
1.04103
1.04027
1.04001
1.04001
1.04027
1.04103
1.04063
1.04063
1.04063
1.04216
1.04103
1.04027
1.04027
1.04103
1.03998
1.04216
1.04103
1.04027
1.04001
1.04027
1.04103
1.04216
1.03998
1.04103
1.04027
1.04001
1.04027
1.04103
1.04063
1.04063
1.04063
1.04216
1.04103
1.04027
1.04027
1.04103
1.04216
1.04103
1.04027
1.04027
1.04103
1.04216
1.04103
1.04027
1.04027
1.04103
1.04063
1.04063
1.04063
1.04216
1.04103
1.04027
1.04027
1.04103
1.04216
1.04103
1.04027
1.04027
1.04103
1.04216
1.04103
1.04027
1.04027
1.04103
1.04063
1.04063
1.04063
1.04216
1.04103
1.04027
1.04027
1.04103
1.04216
1.04103
1.04027
1.04027
1.04103
1.04216
1.04103
1.04027
1.04027
1.04103
1.04063
1.04063
1.04063
1.04216
1.04103
1.04027
1.04027
1.04103
1.04216
1.04103
1.04027
1.04027
1.04103
1.04216
1.04103
1.04027
1.04027
1.04103
1.04063
1.04063
1.04063
1.04216
1.04103
1.04027
1.04027
1.04103
1.04216
1.04103
1.04027
1.04027
1.04103
1.04216
1.04103
1.04027
1.04027
1.04103
1.04063
1.04063
1.04063
SCALARS CoVolArea double 1
LOOKUP_TABLE default
0.0556931
0.0556931
0.0556931
0.0556931
0.0556931
0.0556931
0.0556931
0.0556931
0.0556931
0.0556931
0.0556931
0.0556931
0.0721452
0.0721452
0.0721452
0.0721452
0.0721452
0.0721452
0.0721452
0.0721452
0.0721452
0.0721452
0.0721452
0.0721452
0.0721452
0.0721452
0.0721452
0.0721452
0.0721452
0.0721452
0.0721452
0.0721452
0.0721452
0.0721452
0.0721452
0.0721452
0.0721452
0.0721452
0.0721452
0.0721452
0.0721452
0.0721452
0.0684252
0.0755257
0.0684252
0.0684252
0.0755257
0.0684252
0.0684252
0.0755257
0.0684252
0.0755257
0.0684252
0.0684252
0.0755257
0.0684252
0.0755257
0.0684252
0.0755257
0.0684252
0.0684252
0.0755257
0.0684252
0.0755257
0.0684252
0.0755257
0.0684252
0.0684252
0.0755257
0.0684252
0.0755257
0.0684252
0.0755257
0.0684252
0.0755257
0.0755257
0.0684252
0.0755257
0.0684252
0.0684252
0.0755257
0.0684252
0.0755257
0.0684252
0.0755257
0.0684252
0.0684252
0.0755257
0.0684252
0.0755257
0.0684252
0.0755257
0.0684252
0.0684252
0.0755257
0.0684252
0.0755257
0.0684252
0.0755257
0.0684252
0.0684252
0.0755257
0.0684252
0.0755257
0.0684252
0.0755257
0.0684252
0.0684252
0.0755257
0.0684252
0.0755257
0.0684252
0.0684252
0.0755257
0.0684252
0.0684252
0.0755257
0.0684252
0.0684252
0.0755257
0.0684252
0.0755257
0.0684252
0.0684252
0.0755257
0.0684252
0.0755257
0.0684252
0.0755257
0.0684252
0.0684252
0.0755257
0.0684252
0.0755257
0.0684252
0.0755257
0.0684252
0.0684252
0.0755257
0.0684252
0.0755257
0.0684252
0.0755257
0.0684252
0.0755257
0.0755257
0.0684252
0.0755257
0.0755257
0.0755257
0.0755257
0.0755257
0.0755257
0.0755257
0.0755257
0.0755257
0.0755257
0.0755257
0.0755257
0.0755257
0.0755257
0.0755257
0.0672026
0.0690479
0.0672026
0.0746471
0.0693683
0.0679699
0.0679699
0.0693683
0.0746471
0.0672026
0.0690479
0.0672026
0.0746471
0.0693683
0.0679699
0.0679699
0.0693683
0.0746471
0.0672026
0.0690479
0.0672026
0.0746471
0.0693683
0.0679699
0.0679699
0.0693683
0.0746471
0.0834457
0.0834457
0.0834457
0.0690479
0.0672026
0.0746471
0.0693683
0.0679699
0.0693683
0.0746471
0.0672026
0.0690479
0.0746471
0.0693683
0.0679699
0.0693683
0.0746471
0.0672026
0.0690479
0.0672026
0.0746471
0.0693683
0.0679699
0.0679699
0.0693683
0.0746471
0.0834457
0.0834457
0.0834457
0.0690479
0.0672026
0.0746471
0.0693683
0.0679699
0.0693683
0.0746471
0.0672026
0.0690479
0.0746471
0.0693683
0.0679699
0.0693683
0.0746471
0.0672026
0.0690479
0.0672026
0.0746471
0.0693683
0.0679699
0.0679699
0.0693683
0.0746471
0.0834457
0.0834457
0.0834457
0.0690479
0.0672026
0.0746471
0.0693683
0.0679699
0.0693683
0.0746471
0.0672026
0.0690479
0.0746471
0.0693683
0.0679699
0.0693683
0.0746471
0.0672026
0.0690479
0.0672026
0.0746471
0.0693683
0.0679699
0.0679699
0.0693683
0.0746471
0.0834457
0.0834457
0.0834457
0.0690479
0.0746471
0.0693683
0.0693683
0.0746471
0.0672026
0.0690479
0.0746471
0.0693683
0.0679699
0.0693683
0.0746471
0.0690479
0.0672026
0.0746471
0.0693683
0.0679699
0.0693683
0.0746471
0.0834457
0.0834457
0.0834457
0.0690479
0.0672026
0.0746471
0.0693683
0.0679699
0.0693683
0.0746471
0.0672026
0.0690479
0.0746471
0.0693683
0.0679699
0.0693683
0.0746471
0.0672026
0.0690479
0.0672026
0.0746471
0.0693683
0.0679699
0.0679699
0.0693683
0.0746471
0.0834457
0.0834457
0.0834457
0.0690479
0.0672026
0.0746471
0.0693683
0.0679699
0.0693683
0.0746471
0.0672026
0.0690479
0.0746471
0.0693683
0.0679699
0.0693683
0.0746471
0.0672026
0.0690479
0.0672026
0.0746471
0.0693683
0.0679699
0.0679699
0.0693683
0.0746471
0.0834457
0.0834457
0.0834457
0.0690479
0.0672026
0.0746471
0.0693683
0.0679699
0.0693683
0.0746471
0.0672026
0.0690479
0.0746471
0.0693683
0.0679699
0.0693683
0.0746471
0.0672026
0.0690479
0.0672026
0.0746471
0.0693683
0.0679699
0.0679699
0.0693683
0.0746471
0.0834457
0.0834457
0.0834457
0.0690479
0.0672026
0.0746471
0.0693683
0.0679699
0.0693683
0.0746471
0.0672026
0.0690479
0.0746471
0.0693683
0.0679699
0.0693683
0.0746471
0.0672026
0.0690479
0.0672026
0.0746471
0.0693683
0.0679699
0.0679699
0.0693683
0.0746471
0.0834457
0.0834457
0.0834457
0.0690479
0.0672026
0.0746471
0.0693683
0.0679699
0.0693683
0.0746471
0.0672026
0.0690479
0.0746471
0.0693683
0.0679699
0.0693683
0.0746471
0.0672026
0.0690479
0.0672026
0.0746471
0.0693683
0.0679699
0.0679699
0.0693683
0.0746471
0.0834457
0.0834457
0.0834457
0.0672026
0.0690479
0.0672026
0.0746471
0.0693683
0.0679699
0.0679699
0.0693683
0.0746471
0.0672026
0.0690479
0.0672026
0.0746471
0.0693683
0.0679699
0.0679699
0.0693683
0.0746471
0.0672026
0.0690479
0.0672026
0.0746471
0.0693683
0.0679699
0.0679699
0.0693683
0.0746471
0.0834457
0.0834457
0.0834457
0.0690479
0.0672026
0.0746471
0.0693683
0.0679699
0.0693683
0.0746471
0.0672026
0.0690479
0.0746471
0.0693683
0.0679699
0.0693683
0.0746471
0.0672026
0.0690479
0.0672026
0.0746471
0.0693683
0.0679699
0.0679699
0.0693683
0.0746471
0.0834457
0.0834457
0.0834457
0.0690479
0.0672026
0.0746471
0.0693683
0.0679699
0.0693683
0.0746471
0.0672026
0.0690479
0.0746471
0.0693683
0.0679699
0.0693683
0.0746471
0.0672026
0.0690479
0.0672026
0.0746471
0.0693683
0.0679699
0.0679699
0.0693683
0.0746471
0.0834457
0.0834457
0.0834457
0.0690479
0.0672026
0.0746471
0.0693683
0.0679699
0.0693683
0.0746471
0.0672026
0.0690479
0.0746471
0.0693683
0.0679699
0.0693683
0.0746471
0.0672026
0.0690479
0.0672026
0.0746471
0.0693683
0.0679699
0.0679699
0.0693683
0.0746471
0.0834457
0.0834457
0.0834457
0.0690479
0.0746471
0.0693683
0.0693683
0.0746471
0.0672026
0.0690479
0.0746471
0.0693683
0.0679699
0.0693683
0.0746471
0.0690479
0.0672026
0.0746471
0.0693683
0.0679699
0.0693683
0.0746471
0.0834457
0.0834457
0.0834457
0.0690479
0.0746471
0.0693683
0.0693683
0.0746471
0.0690479
0.0746471
0.0693683
0.0693683
0.0746471
0.0690479
0.0746471
0.0693683
0.0693683
0.0746471
0.0834457
0.0834457
0.0834457
0.0690479
0.0746471
0.0693683
0.0693683
0.0746471
0.0690479
0.0746471
0.0693683
0.0693683
0.0746471
0.0690479
0.0746471
0.0693683
0.0693683
0.0746471
0.0834457
0.0834457
0.0834457
0.0690479
0.0746471
0.0693683
0.0693683
0.0746471
0.0690479
0.0746471
0.0693683
0.0693683
0.0746471
0.0690479
0.0746471
0.0693683
0.0693683
0.0746471
0.0834457
0.0834457
0.0834457
0.0690479
0.0746471
0.0693683
0.0693683
0.0746471
0.0690479
0.0746471
0.0693683
0.0693683
0.0746471
0.0690479
0.0746471
0.0693683
0.0693683
0.0746471
0.0834457
0.0834457
0.0834457
0.0690479
0.0746471
0.0693683
0.0693683
0.0746471
0.0690479
0.0746471
0.0693683
0.0693683
0.0746471
0.0690479
0.0746471
0.0693683
0.0693683
0.0746471
0.0834457
0.0834457
0.0834457
SCALARS SignedDistance double 1
LOOKUP_TABLE default
2.44051
2.41337
2.43782
2.38311
2.11005
2.13847
2.07387
2.10728
2.27009
2.25194
2.31889
2.29415
2.31188
2.11643
2.12302
2.11296
2.38103
2.36859
2.39471
2.06368
2.52559
2.62274
2.10522
2.26385
2.15982
2.0878
2.49564
2.48831
1.95108
2.03789
2.4621
2.01181
2.43511
2.1174
2.33003
2.35314
2.26337
2.33006
2.30594
2.0117
2.47045
2.56437
2.36916
2.20238
2.236
2.16189
2.18731
2.28718
2.09383
2.12537
2.12565
2.18889
2.39527
2.09281
2.09674
2.38745
2.18848
2.21629
2.58443
2.59893
2.56726
2.57518
2.22522
2.42091
2.22293
2.44054
2.59693
2.04044
2.19693
2.40491
2.26918
2.16011
2.53332
2.52663
2.61505
2.48363
2.46606
2.16602
2.32799
2.11576
2.09838
2.26624
2.14803
2.1603
2.11767
2.17363
2.21501
2.11616
2.03264
2.07242
2.12942
2.56213
2.39693
2.37909
2.60432
2.48524
2.55711
2.49615
2.02291
2.14655
1.98681
1.94012
2.01164
1.94831
1.98217
2.15117
2.02065
2.55939
2.38202
2.10249
2.19661
2.33229
2.43594
2.37491
2.37853
2.16359
2.26925
2.34852
2.22969
2.22894
2.11309
2.34891
2.31155
2.24183
2.30713
2.3394
2.36331
2.41382
2.26932
2.332
2.38315
2.28898
2.18611
2.27101
2.18063
2.37961
2.43046
2.01591
2.14879
2.33433
2.19648
2.10249
2.49221
2.47734
2.54893
2.4995
2.42487
2.05239
2.07926
2.10731
2.41424
2.25607
2.31581
2.15343
2.39618
2.22994
2.00253
1.94015
1.94018
2.43717
2.56129
2.48564
2.40379
2.29994
2.3355
2.25261
2.2654
2.33619
2.1662
2.21089
2.15886
2.21755
2.21554
2.27305
2.14428
2.17301
2.13131
2.30399
2.23216
2.24337
2.10702
2.11609
2.14187
2.12103
2.10891
2.09892
2.11469
2.11801
2.1242
2.1948
2.15078
2.15371
2.30912
2.41534
2.1419
2.20706
2.38302
2.28742
2.27818
2.10702
2.09339
2.098
2.08446
2.09383
2.08446
2.09846
2.39802
2.29588
2.31124
2.27774
2.28424
2.38061
2.15163
2.19903
2.13826
2.12298
2.12298
2.18605
2.50801
2.52895
2.48387
2.49243
2.49899
2.59454
2.51386
2.50536
2.49294
2.50103
2.57644
2.4698
2.48487
2.47989
2.16631
2.24576
2.16686
2.40147
2.3246
2.3023
2.28551
2.3247
2.3995
2.57712
2.53246
2.53246
2.60367
2.52106
2.40985
2.5205
2.59418
2.55508
2.47971
2.06829
2.12319
2.12123
2.11034
2.04113
2.19982
2.28849
2.35219
2.27343
2.23124
2.39668
2.33007
2.46233
2.10405
2.20763
2.15834
2.30981
2.22371
2.3471
2.48584
2.63201
2.56622
2.45132
2.42002
2.4338
2.46441
2.65485
2.56419
2.62393
2.51146
2.5693
2.35313
2.36906
2.39321
2.37754
2.54608
2.4664
2.56315
2.61596
2.59136
2.5051
2.26813
2.36876
2.13519
2.18414
2.29138
2.22836
2.20754
2.14127
2.11064
2.09741
2.09853
2.10009
2.09664
2.10286
2.27299
2.21041
2.20275
2.19499
2.19818
2.25663
2.12674
2.15627
2.11897
2.12032
2.11312
2.15034
2.15989
2.17174
2.10718
2.12465
2.13833
2.15508
2.11526
2.25025
2.19147
2.13075
2.15572
2.18612
2.14627
2.11203
2.0612
2.08049
2.12186
2.07472
2.06059
2.03389
2.13929
2.09061
2.10446
2.10454
2.08944
2.08096
2.43198
2.3417
2.59278
2.5152
2.45261
2.48849
2.52579
2.34077
2.45668
2.55123
2.49741
2.43151
2.55928
2.63072
2.47256
2.50115
2.46756
2.53544
2.5245
2.49679
2.52584
2.52838
2.55827
2.61601
2.58935
2.5793
2.15704
2.23043
2.02725
2.08104
2.08268
2.08518
2.02181
2.03898
2.00352
1.93095
1.95475
1.95394
1.98015
1.98866
2.03782
1.98655
2.01713
1.977
1.96614
2.0133
1.96441
1.95878
1.94009
1.96279
1.93271
1.97291
2.11018
2.0718
2.25183
2.17286
2.00237
2.07518
2.06936
2.48769
2.57146
2.41616
2.50151
2.53693
2.47726
2.36547
2.18296
2.20473
2.29153
2.09314
2.13739
2.04571
2.39172
2.25431
2.32179
2.25546
2.27939
2.16144
2.41511
2.40446
2.38702
2.40462
2.41254
2.44641
2.35961
2.38224
2.34912
2.20277
2.24749
2.29297
2.1852
2.21053
2.13428
2.40248
2.30504
2.36173
2.16621
2.16735
2.1101
2.28869
2.22801
2.2857
2.11135
2.16495
2.16881
2.33328
2.24458
2.3079
2.36096
2.34746
2.34983
2.3626
2.28004
2.33141
2.30608
2.1748
2.21421
2.32922
2.28014
2.30291
2.27234
2.31733
2.3898
2.39561
2.43173
2.31526
2.35246
2.29437
2.38893
2.38811
2.36795
2.34149
2.34813
2.33743
2.32442
2.3609
2.26896
2.29214
2.31465
2.29483
2.28058
2.41582
2.36722
2.30764
2.33164
2.35712
2.31781
2.27866
2.12642
2.20106
2.12642
2.27868
2.26514
2.26142
2.25428
2.26847
2.29431
2.26131
2.26813
2.25939
2.38218
2.40466
2.34115
2.36011
2.4582
2.41086
2.421
2.04034
2.09331
2.06867
2.07211
2.00169
2.16344
2.24549
2.29153
2.20472
2.18296
2.32166
2.25427
2.39763
2.04569
2.13737
2.09302
2.25369
2.16087
2.2789
2.43634
2.49253
2.46187
2.4638
2.48365
2.38436
2.4126
2.54287
2.51575
2.57365
2.46139
2.51948
2.38443
2.33538
2.46393
2.4362
2.5002
2.46989
2.53707
2.52561
2.53585
2.52262
2.06833
2.07068
2.07344
2.0489
2.06847
2.14855
2.10546
2.11988
2.10834
2.08152
2.15983
2.11519
2.15507
2.11985
2.10311
2.04838
2.07778
2.05826
2.44805
2.3816
2.42097
2.45783
2.45014
2.18147
2.20211
2.18704
2.24687
2.31342
2.2984
2.40717
2.35418
2.26257
2.23167
2.34046
2.28242
2.37318
2.08476
2.24122
2.15575
2.07254
2.08423
2.44427
2.44279
2.47659
2.41693
2.3601
2.25111
2.12379
2.1775
2.29568
2.35603
2.26315
2.3024
2.18137
2.11679
1.98835
2.04645
2.04645
1.98835
1.98931
1.95244
1.96314
1.96387
1.95761
2.01068
1.95769
1.96506
1.96801
1.94837
1.95696
1.95025
1.95695
2.35313
2.51221
2.43454
2.33995
2.34463
2.40976
2.51263
2.45502
2.51146
2.59459
2.44525
2.37206
2.40554
2.52235
2.58205
2.53863
2.56553
2.45646
