# vtk DataFile Version 4.2
vtk output
ASCII
DATASET POLYDATA
POINTS 642 double
0.00487363 0.0174876 0.0746049
0.0368161 0.0184579 0.0743518
0.00464065 -0.0638366 0.0383678
0.0373135 -0.0643863 0.0388237
0.020703 -0.027651 0.121787
0.0206271 0.0097667 0.125512
0.0219121 -0.0453728 -0.0166619
0.021961 -0.0385561 -0.0162488
0.0323468 -0.0392681 -0.0114516
0.0497427 -0.00875496 0.112911
0.0111853 -0.0391319 -0.0104672
-0.00761263 -0.00819338 0.111901
-0.00484376 0.0105812 0.101086
0.00805589 0.00394072 0.124794
0.0130963 0.0187065 0.114758
0.0282326 0.019046 0.114947
0.0205175 0.0231352 0.079218
0.0263218 -0.0227889 -0.00271167
0.0167012 -0.0225595 -0.00188539
0.0190986 -0.0394975 -0.0160964
0.00332929 -0.0185895 0.0124276
-0.0147904 -0.0221653 0.0495614
0.0332871 0.00391101 0.125121
0.047056 0.0116722 0.1017
0.00602398 -0.0191834 0.123028
0.0206403 -0.00675 0.128764
0.00322738 -0.0495803 0.0022597
-0.0114548 -0.0414264 0.0838076
0.0220139 -0.0420057 -0.0171924
0.0189306 -0.0437279 -0.016511
0.0394622 -0.0186704 0.0102467
0.0247846 -0.0395391 -0.0162989
0.0538395 -0.0430128 0.0843964
0.0351749 -0.0195313 0.123101
0.0315248 -0.052192 0.0960555
0.00974081 -0.0520863 0.0959682
0.0210341 -0.0678482 0.0379587
0.0165971 -0.0549508 -0.00669267
0.0264842 -0.0553555 -0.00621757
0.0249829 -0.0437974 -0.0166094
0.0401243 -0.0504088 0.00229447
0.0589148 -0.0225095 0.0487836
-0.000423265 0.0164811 0.0892761
0.00468272 0.0164074 0.1104
0.00823463 0.0213748 0.100182
-1.44954e-05 -0.00134004 0.120427
0.00162281 0.00808854 0.117313
-0.00726759 0.00141043 0.108537
0.0173161 0.0142319 0.122007
0.0105037 0.0122317 0.121248
0.0151078 0.00754503 0.125976
0.0161217 0.0235069 0.103057
0.0118821 0.0213828 0.0779602
0.0239445 0.014316 0.122103
0.0205783 0.0193792 0.11612
0.029389 0.0219817 0.0778444
0.0249718 0.0237891 0.103175
0.0331832 0.0221138 0.100455
0.0165663 0.00521879 0.0355801
0.00928843 0.00281242 0.0355046
0.0327364 0.00304516 0.0343028
0.0251849 0.00533023 0.0351443
0.0206532 -0.0347421 -0.0139494
0.0215291 -0.0233324 -0.00379437
0.0230489 -0.0347979 -0.014096
0.0110469 -0.020666 0.0031192
0.00110377 0.00369793 0.0458422
0.0207496 -0.0392118 -0.0164103
0.0183524 -0.0351081 -0.0136133
0.00815413 -0.0327967 -0.00460847
0.0144497 -0.0343405 -0.0110531
0.0161817 -0.0394158 -0.0146449
-0.00711526 0.00444888 0.0645013
-0.00020326 -0.0339839 0.00603817
-0.0064146 -0.0181065 0.0282218
-0.0135168 -0.00174126 0.0818533
-0.0151425 -0.0117987 0.092491
0.036893 0.0170895 0.110909
0.0423891 0.0176958 0.0894728
0.0261958 0.00756836 0.126092
0.0308942 0.0124514 0.121542
0.0496192 0.00182168 0.109432
0.0399985 0.00856757 0.117931
0.0416112 -0.00159855 0.121132
0.0142497 -0.00104373 0.128128
0.020623 0.00293934 0.128122
-0.00178157 -0.0133936 0.119164
0.00638788 -0.00656517 0.125647
0.0206953 -0.0173109 0.126555
0.0139688 -0.0124569 0.127416
0.014053 -0.0240488 0.12333
-0.0169787 -0.0311858 0.0699208
-0.0113955 -0.0217351 0.103147
0.0080174 -0.0426464 -0.00738916
-0.0067822 -0.0403851 0.0189339
-0.00415733 -0.0574613 0.0581737
-0.00905312 -0.050531 0.0404349
0.00153644 -0.0586885 0.0208905
0.0192182 -0.0416789 -0.0166322
0.0160655 -0.0422871 -0.0150684
0.0220083 -0.0406098 -0.0169711
0.0209316 -0.0411652 -0.0169934
0.0205991 -0.044582 -0.0168034
0.0208754 -0.0427407 -0.0171091
0.0219839 -0.0434481 -0.017152
0.0253165 -0.0352424 -0.0140206
0.0231991 -0.0392374 -0.0164958
0.0411906 0.00433061 0.0444032
0.0318055 -0.0209828 0.00151034
0.0275231 -0.0394903 -0.0151354
0.0289869 -0.0345219 -0.0119521
0.0350843 -0.0329362 -0.00615917
0.0461404 -0.05869 0.0584485
0.0430126 -0.0496583 0.0921146
0.0363421 -0.0626063 0.0666494
0.0432119 -0.0140636 0.119789
0.0449479 -0.0294605 0.11186
0.0537433 -0.0228934 0.10411
0.0252419 -0.0380929 0.114118
0.0343149 -0.034798 0.114733
0.0272478 -0.0241191 0.123226
0.0262952 -0.064727 0.0670028
0.0295427 -0.0669755 0.0382599
0.0160913 -0.0380603 0.1142
0.0207126 -0.0526653 0.0973371
0.0124412 -0.0668428 0.0379989
0.0153482 -0.0646662 0.0669524
0.00526895 -0.0621132 0.0665493
0.0249204 -0.063999 0.0132317
0.0319171 -0.0624914 0.0139401
0.0104705 -0.0620705 0.0131235
0.0174793 -0.0638845 0.0128598
0.0231508 -0.0484628 -0.0148945
0.0215111 -0.0555951 -0.00696268
0.0204349 -0.0483475 -0.0149416
0.0322787 -0.0540171 -0.00399572
0.0409453 -0.0596049 0.0216677
0.0233033 -0.0446375 -0.0168242
0.0257227 -0.0474027 -0.0149438
0.0355693 -0.0429393 -0.00827446
0.0295437 -0.0459381 -0.0134469
0.0276959 -0.0423871 -0.0154475
0.0520027 -0.0519829 0.0408169
0.0437457 -0.0341522 0.00452039
0.0506123 -0.0411475 0.0186214
0.0606482 -0.0326551 0.0702103
0.0585667 -0.0122591 0.0931557
0.0273701 -0.0126673 0.127289
0.0348528 -0.00700924 0.125849
0.0270513 -0.00123112 0.128155
-0.00149656 -0.0487879 0.0918062
0.00688191 -0.0345403 0.114684
-0.00349104 -0.0286272 0.111276
0.0179989 -0.0471855 -0.0149594
0.0109073 -0.0533521 -0.00446938
0.0141412 -0.0456925 -0.0131463
0.0247165 -0.0417125 -0.0167734
0.0231297 -0.0427589 -0.017145
0.0230801 -0.0411724 -0.0170426
0.0569894 -0.000943612 0.0818196
0.0497898 -0.017841 0.0263585
0.0499502 0.00561583 0.063765
0.00229447 0.0176218 0.0818773
0.00393925 0.0194628 0.0958033
0.00607956 0.0205327 0.088281
-4.56242e-05 0.0140551 0.106498
0.00184083 0.0171807 0.10184
-0.00281951 0.0140908 0.0956586
0.0106771 0.0205 0.108715
0.00646397 0.0192352 0.106101
0.00909822 0.0178861 0.113033
-0.0041375 -0.0047371 0.116524
-0.00358112 0.000357295 0.11563
-0.0076644 -0.00367956 0.110746
0.00488057 0.00607638 0.121767
0.000766974 0.00360765 0.119334
0.00405255 0.00152234 0.123083
-0.0063282 0.00623403 0.105346
-0.00279457 0.00530876 0.113644
-0.00173382 0.00972716 0.11071
0.0191466 0.0118579 0.124156
0.0161394 0.0111086 0.124215
0.018193 0.00886386 0.125859
0.0118295 0.0156991 0.118428
0.0140109 0.0134672 0.121775
0.0153345 0.0165237 0.119047
0.0117598 0.0059261 0.125682
0.012782 0.00989123 0.124015
0.00923306 0.0083001 0.123369
0.00304551 0.0125682 0.114377
0.00622988 0.0105051 0.119803
0.00767103 0.0145169 0.116877
0.00990513 0.022423 0.0910086
0.00799584 0.0195544 0.0764019
0.0144561 0.0213658 0.109885
0.0122235 0.0226604 0.102225
0.0160609 0.0225941 0.0789163
0.0140113 0.0237575 0.0925912
0.0181318 0.0244964 0.0931842
0.022106 0.0118822 0.124197
0.0206121 0.0144489 0.122173
0.0243569 0.0193442 0.115861
0.0223796 0.0169959 0.119463
0.0259652 0.0167387 0.119157
0.018823 0.0169237 0.11942
0.0168496 0.0191556 0.115787
0.0334912 0.0203782 0.0762326
0.0314114 0.0231408 0.0910952
0.035461 0.0214649 0.0883455
0.0228801 0.0246676 0.0932116
0.0271135 0.0242168 0.0926628
0.0250409 0.0229141 0.0788525
0.0306766 0.0210112 0.108995
0.0290107 0.0231758 0.102429
0.0267553 0.0216964 0.110058
0.0184851 0.0217929 0.1108
0.0226301 0.0219071 0.110861
0.0205179 0.0239016 0.103573
0.00996643 0.0147708 0.0586704
0.00630382 0.0130787 0.0585966
0.0181918 0.0172854 0.0598945
0.0140193 0.0162953 0.0592873
0.0132416 -0.0109297 0.0131707
0.0128988 0.00388704 0.0349102
0.0161723 -0.0103323 0.0126881
0.0354588 0.0138297 0.057922
0.0315891 0.0153547 0.0581379
0.0262644 -0.0104307 0.01191
0.0289896 0.00405601 0.0340647
0.0292516 -0.0110977 0.0119408
0.0273443 0.0166762 0.058952
0.0230533 0.0174288 0.0597708
0.0214981 -0.0372651 -0.015598
0.0218528 -0.0347928 -0.0141045
0.0223518 -0.0372809 -0.0156389
0.0191363 -0.0231476 -0.00325257
0.0208784 -0.0303904 -0.0105809
0.0192174 -0.0302946 -0.0101917
0.0242232 -0.0304252 -0.0105711
0.0225738 -0.0304351 -0.0107098
0.0239199 -0.023264 -0.00366859
0.0208513 0.00557894 0.0353415
0.0229241 -0.0105438 0.011324
0.0194879 -0.0105167 0.0115856
0.00527057 0.00322327 0.0398662
0.00259363 0.0125821 0.0627649
0.0140902 -0.0216894 0.000190294
0.00979662 -0.0101869 0.0162773
0.00142834 -0.00760088 0.0279244
0.0058051 -0.0089515 0.021262
0.00744373 -0.0195151 0.00721654
0.0214073 -0.038918 -0.0163757
0.0206866 -0.0375272 -0.0156418
0.0188364 -0.0378376 -0.015328
0.0198113 -0.0377395 -0.0155701
0.0200148 -0.0393988 -0.0163292
0.0195246 -0.0349447 -0.0138612
0.0176328 -0.0304391 -0.00982505
0.00999692 -0.0367274 -0.00850725
0.0130622 -0.0370071 -0.0114633
0.0138606 -0.0392768 -0.01294
0.00977772 -0.0282969 -0.00299983
0.0116654 -0.0335112 -0.00841177
0.00583902 -0.0269906 0.00197845
0.0178645 -0.0394966 -0.0155916
0.0155615 -0.0374056 -0.013478
0.0173753 -0.0377164 -0.0146535
0.0155341 -0.029866 -0.00838418
0.0166691 -0.0348463 -0.0126996
0.0129252 -0.0291113 -0.00615868
-0.000959557 0.012741 0.0705933
-0.00332791 -0.00602654 0.0371468
-0.00315168 0.00458248 0.0547966
-0.00434782 0.011798 0.0789365
-0.0071197 0.00955545 0.0864093
0.00682991 -0.0373696 -0.00519537
0.00420465 -0.0329395 2.7898e-06
-0.0111501 -0.0194832 0.0384941
-0.0037024 -0.0269711 0.0157491
-0.0083884 -0.0287626 0.0246384
0.00131598 -0.0264886 0.00803987
-0.00135037 -0.0180081 0.0193558
-0.0115261 -0.00422966 0.101794
-0.0112567 -0.00935513 0.104891
-0.00951252 0.00553586 0.0932494
-0.0109097 0.000956334 0.0979099
-0.0171202 -0.0160263 0.0739893
-0.0148956 -0.00654761 0.0873725
-0.0156029 -0.0113952 0.0667814
-0.00810856 -0.00639132 0.0463183
-0.0124612 -0.00815366 0.0566183
-0.0108521 0.00215467 0.0736487
0.0377131 0.0204461 0.0960981
0.039518 0.0187446 0.0818146
0.0323468 0.0183669 0.113382
0.035053 0.0199557 0.106506
0.0449183 0.0152954 0.0960889
0.0399084 0.0181475 0.102345
0.0418584 0.0149771 0.107102
0.0230745 0.00888101 0.125914
0.025159 0.011173 0.124332
0.032131 0.00843986 0.123686
0.0285666 0.00999253 0.124215
0.0295753 0.00593616 0.125873
0.0273343 0.013615 0.121965
0.0295771 0.0159874 0.118667
0.0499493 -0.00384667 0.11175
0.045471 0.000397468 0.116542
0.0459584 -0.00516593 0.117439
0.0435993 0.010505 0.111425
0.0447025 0.00582615 0.114437
0.0486367 0.00707798 0.106092
0.0373523 0.00141106 0.123609
0.0408574 0.00377034 0.120023
0.0365508 0.0062612 0.122276
0.0337998 0.0149328 0.117285
0.0352204 0.010861 0.120247
0.0385546 0.0131813 0.114946
0.0177517 0.0052956 0.127307
0.020626 0.00691343 0.126883
0.0111374 0.00160791 0.126831
[...]
POINT_DATA 642
SCALARS Mean_Curvature double 1
LOOKUP_TABLE default
12.7772
12.8234
13.5624
13.3197
18.7008
23.304
49.4493
46.1872
17.6893
14.1051
16.4887
14.1966
13.6177
20.3099
19.3964
19.4138
13.2422
15.0181
15.0499
39.577
9.05966
10.435
20.083
13.9979
17.1126
20.0622
16.7667
12.2139
92.6384
51.3995
8.54203
41.8101
12.2791
16.8274
13.4546
13.3107
12.1496
21.015
18.3844
52.8054
16.5397
10.8971
13.1542
16.8782
15.5527
17.0637
17.3382
14.0396
21.904
20.3107
22.7433
16.8915
13.1475
21.8125
20.0599
13.2467
16.9642
15.7198
13.8063
13.1681
13.1029
13.7901
27.9391
16.212
27.6278
12.3331
11.8775
48.5095
25.7149
13.8826
19.5918
25.2559
11.0886
12.3776
11.7982
11.1217
11.7722
17.1604
13.3091
22.752
20.416
14.2421
17.4377
16.6636
21.9487
22.9389
15.9329
19.1482
19.8926
19.9167
17.2341
11.023
12.5128
17.3294
12.8078
12.6484
11.9307
14.5024
50.1704
27.7525
73.5716
73.2877
55.3414
76.2968
69.8685
25.1375
48.7921
11.6476
11.8694
28.3776
19.4208
11.9719
12.7797
13.2472
12.463
15.2266
14.1612
12.6551
16.557
15.2142
18.1486
14.2532
12.4681
15.6221
15.1882
13.1349
13.0673
12.7387
12.3048
14.5354
16.0752
14.3542
29.6458
17.9706
33.0927
19.6611
14.5912
54.2136
32.8605
22.179
30.2918
33.7449
12.6547
15.1679
12.5911
11.3822
11.877
19.1391
18.4608
21.3223
13.0922
14.7126
14.0599
36.514
20.6106
29.0196
57.3127
74.4887
76.5627
11.3593
11.5725
11.0884
13.0016
14.4663
13.7824
15.2963
14.9737
13.3926
17.4966
16.342
18.325
15.4944
15.6537
14.0906
18.9788
17.2669
18.6858
13.9176
15.6354
15.5898
22.7376
22.4259
23.2188
19.9419
21.3803
20.7847
21.7026
21.6835
20.448
17.2201
18.8911
18.7256
14.2734
12.9214
18.326
16.3487
13.2698
14.4573
14.5864
22.703
21.9686
19.8536
21.0561
20.6967
21.1259
19.9183
13.0634
14.2424
13.8175
14.592
14.4695
13.2744
17.6304
16.4751
18.3667
18.6639
18.6634
17.0813
12.4143
12.1958
12.6171
12.5333
10.7485
13.5789
11.4844
12.1308
12.3777
11.4028
13.5311
10.6071
12.5209
12.6043
36.7186
27.9251
36.5431
15.7796
21.2202
20.7496
20.5019
21.2202
15.8776
13.8835
11.6318
11.6759
12.4683
11.9485
13.8671
10.1887
12.3619
10.1816
10.8286
48.442
36.9027
32.5415
35.7924
45.6036
27.3108
19.7842
15.787
18.021
19.4806
13.7837
16.3298
12.1728
32.406
22.2907
27.5784
18.3624
23.0409
16.2265
11.8673
12.2376
11.3273
11.9699
12.0721
14.2238
10.5173
10.8821
12.9509
11.7704
10.2727
12.0515
12.8291
12.9672
12.2257
12.5635
10.7478
11.51
10.3456
11.0642
10.4532
11.0864
14.6545
13.0436
18.4944
16.5998
13.7104
15.2903
15.6521
23.2789
22.3575
20.4415
21.7617
21.762
21.3365
20.0008
14.161
15.5373
15.1114
15.8772
15.7856
14.2291
18.3589
17.1279
18.8899
18.916
19.0596
17.4516
23.195
23.5312
21.2488
22.5879
21.1956
22.4883
21.3492
15.0179
16.6194
18.449
17.5811
16.6916
18.1719
19.8641
19.2258
18.8632
18.0698
20.8002
19.6505
20.4078
17.2998
18.4487
18.5808
20.5244
19.7159
21.0119
11.8266
13.2864
10.7259
11.162
12.0501
11.4351
11.457
14.752
14.179
14.6661
14.8461
17.0964
13.344
11.003
12.9859
12.986
13.8669
12.0044
12.3672
12.4134
15.8388
12.9962
13.6407
11.0172
11.9678
11.4674
27.2521
20.1592
46.1884
36.2699
38.2465
38.0409
51.4612
58.0125
62.4078
87.5509
77.1501
87.7977
61.4763
55.5001
52.7211
64.5312
60.4081
63.133
59.7484
53.0888
85.2802
70.554
87.1901
63.3986
78.683
65.6588
36.519
48.3558
19.3182
26.8069
46.7268
35.5673
32.8169
11.8897
12.2743
10.1219
9.29059
11.4396
9.56299
13.6642
21.7704
18.5723
13.836
28.9132
23.6894
35.6645
11.1254
15.5327
13.119
17.8229
15.6719
22.7256
13.0434
12.6637
12.7073
12.7858
12.6387
12.5343
12.6853
12.7082
13.4302
14.5553
13.8911
13.3104
15.5352
14.6635
16.1234
12.2025
13.3602
12.9766
17.8594
17.4718
18.9722
14.2634
15.3988
14.9326
17.4783
16.5513
16.1811
13.7071
14.8125
14.0931
12.5691
12.971
13.5317
12.3981
11.8858
12.7683
13.236
17.4202
16.6194
13.8792
15.3177
14.0449
15.8373
15.0363
13.4028
12.8327
12.9171
12.9284
12.6736
12.5861
12.7597
12.6626
12.6493
15.0607
14.4127
14.4216
13.2231
13.687
11.7821
12.0436
15.9393
13.4156
14.4256
14.4039
14.3196
17.2848
15.6658
18.2316
13.6833
12.608
39.3461
30.9353
40.5629
17.3056
23.3558
22.6697
26.5826
24.8742
19.3142
12.8699
15.4273
14.1059
14.9209
13.7663
19.7131
16.3862
15.4862
16.1814
18.7575
51.6207
40.5093
42.9346
42.691
55.3348
30.7735
24.3041
22.5228
28.0872
23.5288
22.5358
26.6369
19.0554
48.017
34.6072
39.9454
25.4395
33.0413
24.7138
13.2933
14.0549
13.5695
12.7578
12.2865
20.4054
17.9689
11.2577
13.4226
11.8066
15.7939
14.2642
12.0926
13.0385
11.9085
11.7527
10.9452
11.3551
10.8586
12.3694
11.368
11.8706
19.9294
18.2273
18.7569
19.8839
15.8892
16.0259
19.4128
17.5909
16.798
17.4504
23.1716
18.5463
21.7087
22.5248
21.2276
19.128
20.1905
19.906
12.7607
13.2212
12.7611
12.6139
12.7762
16.2389
15.8615
16.0326
14.964
13.9131
14.1237
12.7935
13.3773
15.006
15.6346
13.6968
14.4632
13.3573
43.2795
27.7736
35.5543
46.2332
48.9221
15.7076
18.8486
17.7082
18.465
21.365
19.7741
40.7951
27.5755
21.4676
21.0791
25.8673
23.7558
35.2508
32.0323
59.2476
45.839
42.0296
51.0834
64.4626
88.5666
68.4835
65.793
63.8321
62.7983
58.7426
63.0436
78.3812
90.1045
71.1775
82.9244
68.9403
12.948
11.0055
11.5276
12.7985
12.4606
16.2755
12.2733
10.9326
13.0048
11.0203
11.858
12.2216
12.0435
11.1861
12.1897
10.8465
10.7768
11.3898
SCALARS CoVolArea double 1
LOOKUP_TABLE default
0.000297838
0.000317547
0.000328904
0.000319782
0.000167677
9.32985e-05
2.20113e-05
1.67393e-05
0.00010302
0.000275585
9.60072e-05
0.000249828
0.000487025
0.000249209
0.000234705
0.000242066
0.000533547
0.000272366
0.000269355
3.85929e-05
0.0005013
0.000946221
0.000257174
0.000531012
0.000366876
0.00024077
0.000531999
0.000875289
1.17928e-05
4.39748e-05
0.000524898
3.71763e-05
0.000923971
0.000357233
0.000632852
0.000636072
0.000465788
0.00028913
0.000295698
4.4987e-05
0.000593746
0.00107608
0.000467906
0.000330187
0.000333304
0.000301039
0.000323653
0.000424033
0.000163971
0.000232842
0.000181514
0.000336366
0.000475394
0.000168483
0.000222529
0.000497819
0.000344901
0.000351015
0.000627368
0.000557807
0.000585324
0.000641577
7.58739e-05
0.000284171
7.60651e-05
0.000339891
0.000614433
2.57759e-05
9.39059e-05
0.000251223
0.00014659
7.27661e-05
0.000776962
0.000471197
0.000775307
0.000794292
0.000676538
0.000341894
0.00050383
0.000185093
0.000237182
0.000484262
0.000343844
0.000324959
0.000245799
0.00019887
0.000376106
0.000304771
0.000235344
0.000275305
0.000298515
0.00102524
0.000614571
0.000266544
0.000825999
0.000733745
0.000940694
0.000602095
3.10882e-05
7.75135e-05
1.36871e-05
1.6025e-05
3.17426e-05
1.76732e-05
1.68969e-05
9.18023e-05
2.54475e-05
0.000658843
0.000341768
7.30833e-05
0.000143743
0.00026434
0.000742604
0.000778405
0.000621033
0.000381314
0.000613989
0.000662594
0.000408815
0.000518111
0.00029287
0.000630298
0.000456957
0.000413596
0.000620956
0.000466578
0.000633662
0.000624976
0.000397373
0.000428551
0.000438742
0.000406693
0.000108097
0.00028064
0.00010396
0.000401244
0.000612135
3.34736e-05
0.000128977
0.000298138
0.000185539
8.06118e-05
0.000999249
0.000527542
0.000926053
0.00113463
0.000783235
0.000268749
0.00029933
0.000248881
0.000766746
0.000521838
0.000605431
0.000120428
0.000376302
0.000169706
3.10632e-05
1.81138e-05
1.57206e-05
0.000907426
0.000863778
0.000860058
0.000411381
0.000377248
0.000352994
0.000398976
0.000381627
0.000474646
0.000274408
0.00031733
0.000273289
0.000300788
0.000337724
0.000355809
0.000276411
0.000300867
0.000270593
0.000450064
0.000358794
0.000390703
0.000133103
0.000165243
0.000142154
0.000229305
0.000186103
0.000188963
0.000208166
0.000194064
0.00023952
0.000353153
0.000295635
0.000294321
0.00038246
0.000409554
0.000271466
0.000320318
0.00049827
0.000395391
0.000426487
0.000134397
0.00015737
0.000228645
0.000181755
0.000196064
0.000178734
0.000223821
0.000433276
0.000402557
0.000374689
0.000432422
0.000410701
0.00051194
0.000285068
0.000334241
0.000279397
0.000290037
0.000293123
0.000366159
0.000549842
0.00048422
0.000637466
0.000583436
0.000428945
0.000573674
0.000454821
0.00051563
0.000579069
0.000465601
0.000596482
0.000440726
0.000605205
0.00064563
3.76743e-05
7.55612e-05
3.7727e-05
0.000278248
0.000141088
0.00014184
0.000142414
0.000141655
0.00028151
0.000690184
0.000514035
0.000509132
0.000567867
0.00049098
0.000291206
0.000459353
0.00059363
0.000513447
0.000407144
2.22247e-05
4.20384e-05
5.73155e-05
4.55557e-05
2.92451e-05
7.84765e-05
0.000160609
0.000166746
0.00013099
9.3192e-05
0.000284853
0.000184886
0.000350367
5.09437e-05
9.55532e-05
7.36538e-05
0.000198721
0.000122298
0.000242366
0.000569632
0.000733538
0.000682725
0.000601615
0.000643093
0.000234903
0.000345797
0.000887529
0.000602389
0.000741244
0.000463378
0.00063695
0.000526366
0.000449693
0.000629637
0.000567405
0.000857892
0.000714188
0.000919892
0.000894463
0.000968928
0.000859919
0.000400999
0.000441089
0.000281442
0.000331814
0.000512503
0.000403703
0.000421932
0.000143927
0.000168613
0.000245163
0.000197525
0.000212686
0.000191878
0.000235924
0.000405972
0.000377876
0.000327673
0.000418684
0.000395809
0.000501059
0.000287596
0.000328276
0.000291583
0.000300601
0.000304669
0.000366622
0.000184344
0.000150342
0.000244637
0.000207199
0.000221818
0.000214616
0.000244864
0.000337022
0.000322844
0.000331973
0.000324868
0.000369819
0.000292983
0.000275847
0.000216007
0.000251066
0.000243502
0.00025257
0.000244453
0.000233574
0.000327451
0.000274742
0.00031326
0.000291529
0.000314956
0.000282974
0.000640895
0.000429773
0.00101633
0.000839636
0.000755535
0.00080534
0.000966666
0.000171993
0.000355237
0.000674968
0.000487259
0.000378749
0.000617757
0.000931102
0.000546443
0.00067409
0.000496395
0.000967024
0.000819592
0.000831049
0.000600634
0.000742938
0.000778061
0.0011136
0.00100494
0.00111953
6.70486e-05
9.56398e-05
3.17526e-05
4.49052e-05
5.62442e-05
4.67082e-05
3.42791e-05
1.62258e-05
1.69214e-05
1.26144e-05
1.33219e-05
1.14387e-05
1.83245e-05
2.34579e-05
2.84364e-05
2.07555e-05
2.06631e-05
2.62401e-05
2.14071e-05
3.45514e-05
1.3196e-05
1.56517e-05
1.3478e-05
2.28274e-05
1.68117e-05
2.39045e-05
4.18922e-05
2.22065e-05
0.000159574
7.79271e-05
2.83381e-05
4.4672e-05
5.53019e-05
0.000528158
0.000602078
0.000414433
0.000533853
0.000628377
0.000473505
0.000292574
9.67262e-05
0.000133549
0.000177598
7.11488e-05
9.41814e-05
4.97888e-05
0.000365466
0.000186342
0.000286917
0.000195843
0.000239679
0.000118783
0.000541167
0.000664317
0.000494108
0.000850765
0.000774786
0.000862983
0.000649755
0.000705041
0.000699589
0.000355173
0.000487162
0.0004673
0.000463873
0.000469007
0.000364693
0.000805611
0.000620514
0.000784184
0.000284958
0.000338105
0.000240294
0.000594236
0.000442309
0.00051458
0.000318516
0.000373775
0.000431366
0.00077962
0.000609002
0.000710533
0.000527149
0.000417942
0.00066287
0.000604676
0.000448007
0.00052472
0.000545736
0.000286207
0.00039603
0.000627161
0.000502008
0.000523867
0.000496581
0.000619449
0.000431148
0.000536146
0.000503454
0.000549292
0.000530887
0.000455994
0.000649512
0.000607594
0.000664911
0.000708742
0.000711275
0.000673623
0.000426297
0.000414308
0.000426822
0.000415312
0.000369121
0.000395537
0.000357901
0.000427099
0.000439998
0.000361901
0.000406413
0.000371164
0.000426132
0.000433363
5.21635e-05
0.000105727
5.10859e-05
0.000284645
0.000182273
0.000188895
0.000180626
0.000179606
0.000282006
0.000425201
0.000377598
0.000374838
0.00049607
0.000490845
0.000336799
0.000430789
0.000637246
0.000518302
0.000482865
2.93947e-05
5.82212e-05
7.29941e-05
6.11396e-05
3.60436e-05
0.000111768
0.000216194
0.000188396
0.000151317
0.000101247
0.000358816
0.000225641
0.00043065
5.75187e-05
0.000113044
8.98832e-05
0.000263204
0.000160548
0.000313361
0.000682294
0.000842584
0.000773617
0.000852258
0.0010268
0.000258494
0.000399396
0.0010436
0.000700672
0.000839233
0.000556036
0.000760903
0.000718412
0.000510938
0.00104205
0.000887818
0.000987731
0.00095584
0.00114432
0.00109761
0.00122592
0.00120815
0.00024654
0.000301157
0.000267568
0.000242092
0.000251331
0.000334994
0.000280779
0.000303011
0.000323662
0.00032049
0.000186849
0.000245703
0.000217355
0.000212015
0.000249381
0.000303209
0.000288564
0.000279353
0.000663302
0.00069534
0.000699744
0.000761095
0.000824966
0.000341127
0.000437348
0.000379367
0.000448901
0.000596872
0.000465185
0.000755381
0.000594902
0.000463053
0.000467096
0.000705501
0.00060843
0.000767137
5.52202e-05
0.000203089
0.000104624
5.76679e-05
6.94207e-05
0.0004986
0.000441682
0.000500229
0.000425121
0.000323293
0.000140118
8.5456e-05
0.000106366
0.000203956
0.000320026
0.000244304
0.000285199
0.000148972
6.86551e-05
3.45178e-05
4.72233e-05
4.48545e-05
3.11537e-05
2.14289e-05
1.36195e-05
1.60793e-05
2.23273e-05
2.67342e-05
1.68406e-05
2.27556e-05
1.79597e-05
1.32163e-05
1.25209e-05
2.40082e-05
1.6806e-05
2.25374e-05
0.000612543
0.0010526
0.000830884
0.000653257
0.000706636
0.000377947
0.000690146
0.000502519
0.000671477
0.00100469
0.000617732
0.000710069
0.00065803
0.000743824
0.000797747
0.00109538
0.000996128
0.000965587
SCALARS SignedDistance double 1
LOOKUP_TABLE default
1.08635
1.08972
1.14262
1.16355
1.26379
1.20419
1.04593
1.02871
1.04411
1.15839
1.04057
1.15143
1.11851
1.18993
1.15281
1.1567
1.09752
1.01902
1.01887
1.0297
1.03578
1.08387
1.19675
1.12324
1.21424
1.24653
1.06478
1.147
1.03188
1.03553
1.03316
1.031
1.14975
1.22327
1.22241
1.20985
1.18159
1.08145
1.09129
1.04161
1.08004
1.0869
1.10056
1.13883
1.11997
1.17101
1.15625
1.13613
1.18157
1.17356
1.19972
1.12821
1.09115
1.18649
1.16299
1.09417
1.13216
1.12344
1.0523
1.0519
1.05169
1.0533
1.03052
1.01922
1.03083
1.02012
1.06019
1.0284
1.03191
1.03908
1.03407
1.03417
1.07502
1.04817
1.05564
1.09897
1.12007
1.14425
1.10607
1.20563
1.17832
1.14096
1.16272
1.17922
1.21925
1.22594
1.18071
1.20271
1.25923
1.2351
1.24284
1.11415
1.14949
1.04758
1.06831
1.14519
1.10677
1.10079
1.03102
1.03642
1.02933
1.02936
1.03941
1.03278
1.037
1.03141
1.02932
1.0637
1.01879
1.03591
1.03382
1.03817
1.16184
1.18744
1.19317
1.19006
1.19084
1.15465
1.25191
1.22687
1.25112
1.21521
1.17521
1.24281
1.24189
1.16208
1.20548
1.1795
1.13874
1.12957
1.11189
1.12955
1.06255
1.09331
1.05718
1.0861
1.12509
1.04393
1.05814
1.0562
1.05688
1.04185
1.12484
1.04909
1.07932
1.1181
1.12227
1.24378
1.21248
1.22675
1.17616
1.21975
1.18481
1.04833
1.07155
1.04613
1.03422
1.03557
1.03105
1.09926
1.05484
1.07833
1.09245
1.11134
1.1024
1.12873
1.12027
1.10936
1.13682
1.13025
1.14687
1.1605
1.15397
1.14435
1.1735
1.16411
1.18094
1.12758
1.14613
1.138
1.19395
1.19061
1.20253
1.16378
1.17761
1.16781
1.19579
1.18689
1.18247
1.14787
1.16606
1.15753
1.10677
1.08865
1.14108
1.1246
1.09408
1.1108
1.11449
1.19891
1.18638
1.16239
1.17709
1.1721
1.17238
1.15818
1.09153
1.11025
1.10568
1.1186
1.11458
1.09745
1.14044
1.12823
1.14493
1.14617
1.15043
1.13288
1.0727
1.07236
1.07627
1.07404
1.02344
1.05111
1.02196
1.07466
1.07506
1.0207
1.05141
1.02128
1.07649
1.07907
1.02898
1.03054
1.02934
1.01906
1.02736
1.02731
1.0277
1.02781
1.01929
1.05336
1.01967
1.01992
1.05688
1.07419
1.01876
1.02913
1.04559
1.03804
1.02761
1.02841
1.02891
1.03019
1.02929
1.02879
1.03093
1.02788
1.0399
1.03697
1.03795
1.03116
1.03597
1.03279
1.03139
1.03503
1.03214
1.02832
1.03284
1.02932
1.07951
1.05417
1.06642
1.08765
1.09739
1.04276
1.04124
1.06878
1.05185
1.06401
1.04118
1.04491
1.12742
1.13707
1.10893
1.11838
1.10251
1.10937
1.09021
1.06392
1.07613
1.08606
1.1163
1.09783
1.15069
1.13422
1.11463
1.12583
1.13439
1.20831
1.19592
1.18777
1.19216
1.20186
1.18242
1.16799
1.15029
1.16087
1.16835
1.14357
1.15205
1.13204
1.18934
1.17136
1.1809
1.1622
1.1721
1.15403
1.21265
1.2139
1.20475
1.20947
1.23729
1.22391
1.23325
1.16452
1.17615
1.20882
1.19266
1.19771
1.187
1.19661
1.26212
1.25152
1.25479
1.24193
1.24788
1.25442
1.22967
1.23911
1.22604
1.21255
1.21972
1.22761
1.13375
1.15031
1.09892
1.11644
1.1496
1.13192
1.13127
1.04335
1.04681
1.06593
1.05386
1.05515
1.05711
1.07563
1.14405
1.12428
1.12361
1.12882
1.12597
1.14427
1.08048
1.10178
1.08188
1.09225
1.08613
1.11082
1.03472
1.0395
1.03002
1.03171
1.0352
1.03296
1.03281
1.02874
1.02855
1.03035
1.02924
1.03036
1.02862
1.02901
1.04256
1.03786
1.04107
1.03381
1.03546
1.03707
1.03403
1.03452
1.03218
1.02988
1.03071
1.03145
1.02941
1.02916
1.02813
1.03083
1.02989
1.02973
1.03061
1.07867
1.05679
1.02407
1.03474
1.04524
1.02619
1.01879
1.04033
1.0383
1.04152
1.03247
1.03521
1.03292
1.03226
1.03531
1.03038
1.02833
1.02899
1.0329
1.16397
1.17906
1.17827
1.16762
1.17215
1.15518
1.20511
1.18967
1.20703
1.17291
1.1737
1.15722
1.20831
1.19109
1.20696
1.15237
1.17227
1.17082
1.26464
1.25415
1.26311
1.22483
1.23958
1.23839
1.23781
1.24149
1.22681
1.18903
1.21048
1.20813
1.18721
1.16898
1.21915
1.20446
1.18113
1.19582
1.20335
1.25631
1.25573
1.22577
1.24224
1.22717
1.25225
1.23706
1.15203
1.17319
1.16046
1.19549
1.18486
1.172
1.19443
1.193
1.20877
1.23448
1.22476
1.21937
1.15274
1.14858
1.1627
1.15779
1.10972
1.13374
1.11437
1.1287
1.13701
1.10372
1.12034
1.09551
1.14642
1.15567
1.05293
1.06118
1.05
1.09405
1.07838
1.07583
1.06883
1.07397
1.0872
1.13847
1.11134
1.11774
1.12831
1.14686
1.0886
1.1067
1.10109
1.10509
1.08436
1.04581
1.05154
1.04818
1.04964
1.04252
1.06027
1.07238
1.04867
1.04876
1.04333
1.06838
1.05715
1.06663
1.04132
1.04775
1.04744
1.0702
1.05733
1.06872
1.14658
1.10109
1.12359
1.14359
1.14017
1.04618
1.05158
1.08186
1.06227
1.06498
1.06239
1.07942
1.13858
1.14245
1.13511
1.13385
1.1022
1.11773
1.10158
1.10208
1.10372
1.12264
1.25994
1.23487
1.24777
1.25625
1.24989
1.18507
1.20519
1.19637
1.20257
1.21902
1.21903
1.24081
1.23101
1.21619
1.21184
1.22852
1.2206
1.23578
1.16366
1.19335
1.17712
1.15988
1.16044
1.24667
1.21975
1.23474
1.23101
1.21373
1.16591
1.16835
1.16686
1.18301
1.20042
1.19787
1.2048
1.18248
1.04603
1.06337
1.05247
1.04248
1.03997
1.10549
1.06779
1.08363
1.08917
1.07615
1.04226
1.0389
1.03989
1.04692
1.055
1.05926
1.0562
1.04593
1.03814
1.03729
1.03722
1.03446
1.03219
1.04055
1.03397
1.03671
1.039
1.03799
1.02958
1.03069
1.02995
1.0305
1.03183
1.0346
1.03286
1.03221
1.1311
1.08977
1.10996
1.12081
1.1117
1.04161
1.04272
1.03876
1.05043
1.07023
1.08465
1.10126
1.09228
1.07051
1.0551
1.07797
1.06663
1.08762
