# vtk DataFile Version 4.2
vtk output
ASCII
DATASET POLYDATA
POINTS 642 double
-117.134 217.35 59.9468
123.68 219.567 58.3343
-106.954 -218.1 -3.06675
118.521 -224.507 -5.15091
2.26133 -146.799 277.48
0.0265041 174.055 251.74
-0.463128 -148.233 -277.508
-2.54919 141.605 -276.508
208.203 -0.457676 -194.102
220.574 3.41389 181.6
-198.339 -2.75563 -192.923
-218.654 21.5562 177.877
-201.013 143.771 126.141
-152.095 93.8853 255.437
-88.0687 251.066 161.65
91.9456 250.909 162.638
0.0855679 257.005 57.152
88.8843 175.834 -184.004
-77.3465 177.451 -180.414
-145.323 86.8539 -270.383
-171.133 106.227 -129.362
-198.03 -4.94752 23.4129
153.293 99.1643 255.109
210.345 147.069 126.7
-138.721 -83.5511 257.985
0.381574 -16.9533 314.799
-174.966 -110.451 -129.056
-175.911 -116.425 102.315
-1.37944 1.23539 -333.077
-149.151 -92.8752 -271.382
181.498 111.179 -139.226
155.124 92.5573 -274.278
188.568 -119.942 101.445
147.859 -83.5637 263.301
76.6445 -207.519 148.191
-70.9788 -204.239 147.706
2.56766 -277.075 -5.2101
-68.2735 -204.02 -159.239
76.2088 -212.038 -147.16
155.201 -92.6591 -274.209
171.361 -109.654 -122.441
210.947 -2.29736 22.4249
-163.842 188.263 94.8684
-162.205 205.65 141.128
-110.055 244.416 112.659
-203.526 51.6917 218.491
-195.302 125.551 186.813
-221.286 74.7674 159.976
-47.3563 221.915 220.753
-124.926 182.633 216.623
-86.0604 136.087 263.58
-43.7757 274.012 112.358
-63.1011 247.952 60.3669
49.1858 221.423 220.761
-0.0611544 264.673 170.634
68.1233 247.164 58.3294
44.7219 273.43 112.289
116.663 245.808 110.887
-16.8284 200.993 -52.1599
-85.1109 153.512 -69.7234
89.7366 162.309 -75.1698
22.2495 203.421 -50.7557
-51.6657 173.165 -228.908
-2.04027 183.203 -177.895
58.4684 172.82 -227.915
-135.545 146.814 -160.963
-156.39 160.12 -24.0675
-80.1131 122.82 -287.576
-115.568 151.921 -227.692
-195.733 57.9652 -157.889
-170.951 102.856 -203.081
-190.235 40.5963 -231.879
-181.628 132.58 57.2596
-205.811 -2.30711 -113.354
-199.018 70.1679 -74.5562
-209.476 79.4628 93.1315
-215.236 18.3751 119.814
169.646 207.362 143.158
172.85 191.797 92.7264
90.0371 137.625 263.631
131.503 184.459 219.597
221.092 90.8789 150.68
200.946 133.973 188.331
201.701 48.2286 220.446
-87.767 42.6635 293.182
-0.124745 76.8129 286.664
-191.905 -35.6879 219.549
-155.992 1.53197 269.568
2.26816 -86.7726 316.05
-80.0242 -52.2308 305.161
-71.864 -122.13 276.994
-198.415 -51.4769 74.4958
-200.353 -48.1156 157.412
-196.58 -66.0066 -167.282
-190.164 -49.904 -77.265
-147.874 -174.656 48.0415
-173.548 -131.14 4.58635
-143.386 -175.246 -43.0998
-158.058 -1.15488 -288.113
-192.399 -46.6195 -232.107
-3.32838 81.5918 -321.187
-85.7078 50.3023 -323.999
-83.5243 -128.994 -288.553
-87.3369 -50.0987 -321.644
-1.28746 -83.92 -318.519
126.09 157.499 -230.114
89.3212 125.075 -286.915
166.7 162.804 -26.7063
146.788 150.024 -169.726
202.293 51.1983 -233.447
186.98 110.296 -206.056
205.759 66.5448 -169.648
157.686 -180.59 43.7114
141.069 -172.935 128.812
103.126 -223.016 69.5353
199.297 -39.9471 225.965
178.552 -98.9521 196.576
210.08 -51.0358 158.01
39.6284 -178.921 223.178
114.081 -149.307 221.503
74.7084 -122.014 278.693
36.6755 -250.147 60.7033
59.9881 -261.876 -7.21162
-37.2377 -176.999 223.308
2.53957 -219.541 157.642
-51.0738 -259.049 -5.98796
-30.8197 -248.012 60.5502
-95.6397 -218.35 70.3968
38.6978 -262.356 -74.51
98.5686 -234.449 -71.9472
-88.2321 -227.786 -73.0462
-31.1406 -260.419 -74.4066
52.4854 -177.064 -235.98
1.45757 -233.719 -140.951
-58.1445 -179.115 -233.869
134.295 -164.904 -148.128
153.817 -184.491 -41.3506
85.4149 -126.5 -287.316
127.082 -158.862 -230.666
204.581 -63.6034 -177.998
187.739 -109.206 -209.505
202.792 -52.0202 -233.074
184.679 -139.347 2.46362
216.126 0.242504 -115.54
202.514 -49.6898 -68.5216
211.545 -60.803 71.5836
225.506 10.1231 110.245
85.8602 -51.3647 307.419
160.013 -5.33389 275.875
91.6499 39.2549 295.184
-133.629 -167.092 129.535
-108.439 -147.528 220.272
-171.446 -98.1916 191.77
-121.715 -160.415 -230.735
-137.072 -152.106 -158.213
-177.827 -109.959 -204.74
161.868 0.0075873 -285.079
89.5168 -53.2138 -320.728
89.1775 53.3125 -320.645
218.71 81.537 89.8117
206.372 65.0476 -73.3909
189.895 137.753 54.2494
-140.435 205.462 74.5818
-140.177 218.201 105.968
-114.734 232.446 85.2208
-186.777 174.183 132.806
-165.282 197.396 123.508
-184.78 166.779 115.13
-102.854 252.841 132.969
-137.033 227.79 128.561
-128.456 232.453 151.482
-218.985 33.634 194.423
-222.891 63.8205 183.703
-225.223 48.6195 170.227
-176.125 111.05 224.422
-201.324 87.3848 205.716
-180.107 72.3541 240.412
-211.253 112.539 141.242
-215.499 100.15 168.557
-205.422 138.154 149.407
-24.1838 199.83 240.595
-66.4482 183.422 242.399
-44.0558 157.032 256.746
-106.665 220.952 191.071
-87.8247 205.426 219.55
-68.1142 238.877 194.426
-120.046 115.357 263.359
-106.742 161.216 243.38
-140.674 139.047 238.894
-181.652 169.844 162.958
-163.374 155.914 204.829
-146.457 198.161 178.418
-85.8101 250.706 86.7837
-91.99 234.52 60.0514
-66.5103 270.201 133.555
-76.4071 262.938 113.565
-33.2912 255.195 59.1087
-53.3086 263.483 88.4078
-22.4713 268.599 87.9027
24.9551 199.693 240.631
-0.0239299 225.119 222.186
47.191 261.898 169.047
25.0465 247.189 198.277
71.2311 238.584 194.746
-24.7178 247.22 198.283
-46.1484 262.273 168.859
98.6574 234.545 57.1518
92.0544 250.794 85.7499
122.064 233.884 84.2324
22.056 268.538 87.4905
56.3082 262.77 87.6796
34.4974 254.868 57.4685
107.936 253.717 132.764
81.1625 262.762 112.551
68.8541 269.507 133.522
-24.6771 279.106 137.015
24.5189 278.865 137.164
-0.445213 276.4 113.155
-76.9647 224.948 33.756
-103.205 209.292 32.7875
-15.6774 238.412 23.7892
-43.0837 235.728 30.4206
-83.7635 173.211 -161.775
-39.9301 187.239 -63.885
-52.3741 185.753 -148.803
104.503 212.03 26.261
86.2338 222.32 27.8387
61.7127 185.681 -147.081
60.4768 180.568 -60.6153
96.117 175.104 -157.816
47.0911 235.467 28.2523
17.7573 238.825 22.5206
-28.9349 160.496 -253.194
-0.84351 173.197 -229.017
29.1613 160.688 -251.614
-48.0768 182.948 -178.483
-29.4609 177.471 -205.674
-67.4622 176.652 -204.491
77.8851 175.506 -207.895
30.3359 176.539 -206.986
53.5515 179.197 -181.062
1.80724 204.354 -49.3102
22.4511 191.358 -133.086
-23.039 190.49 -134.845
-138.41 149.334 -39.5303
-136.588 187.051 37.7761
-108.158 164.557 -175.667
-120.878 154.131 -149.319
-155.999 142.824 -91.4166
-155.692 136.072 -113.725
-154.955 130.508 -139.816
-44.0176 133.748 -284.499
-66.987 153.961 -258.912
-132.597 123.409 -251.481
-101.185 140.828 -258.359
-113.747 106.732 -282.896
-84.3608 166.613 -230.094
-95.8149 168.255 -203.661
-198.752 31.2449 -177.831
-192.969 51.9255 -200.771
-196.397 17.9999 -213.52
-172.092 104.958 -167.72
-184.134 80.5855 -185.578
-188.551 79.579 -141.293
-171.919 64.8031 -252.125
-182.506 75.606 -218.901
-165.214 98.3554 -235.49
-127.412 152.258 -194.656
-147.66 129.613 -216.434
-153.045 130.563 -182.352
-155.042 176.388 50.5317
-149.665 117.636 -42.9448
-157.362 169.369 13.6851
-175.192 161.969 76.3577
-193.386 141.069 97.8388
-202.814 -2.00106 -148.13
-205.502 32.7915 -130.121
-186.924 41.3319 -34.72
-201.847 34.1265 -105.849
-195.151 -17.4092 -78.1214
-200.433 56.3973 -113.665
-196.032 64.5891 -98.0988
-220.351 51.5603 154.4
-218.021 26.5752 160.217
-207.074 113.856 115.042
-214.919 80.4694 135.628
-212.277 9.78785 79.9337
-214.849 47.2916 109.611
-208.351 40.6488 68.5724
-201.939 79.3486 -2.65263
-195.512 81.2976 30.2242
-198.648 106.539 72.6661
148.08 220.909 103.66
148.886 208.187 74.266
133.87 232.773 153.307
143.942 230.252 127.322
193.748 170.824 112.16
173.812 200.696 121.013
195.602 177.197 134.003
46.2997 157.069 256.543
70.6274 183.175 243.115
145.314 144.281 240.794
112.158 163.255 245.569
122.551 120.01 264.051
93.1197 205.14 220.984
112.46 221.115 193.042
220.166 43.5465 168.94
218.164 70.6171 184.849
216.539 22.3809 198.661
213.928 144.055 151.205
218.04 112.948 167.266
220.048 121.883 137.979
180.242 74.6297 240.003
202.327 96.3969 205.42
179.745 119.138 224.87
153.825 199.824 182.158
170.237 160.874 207.787
189.77 173.332 166.903
-50.3493 109.874 275.394
-0.045345 129.118 268.739
-123.223 73.7302 278.736
-91.8568 91.0825 280.307
-0.291389 25.7997 304.718
-49.1026 56.3466 291.689
-44.8476 11.0798 307.102
-208.843 -8.30024 196.691
-199.365 8.45619 220.201
-149.337 -42.4956 267.351
-175.885 -18.7752 247.919
-167.565 -59.4545 240.126
-179.123 29.4009 246.356
-157.925 49.8773 265.603
2.20846 -120.621 299.383
-32.6232 -106.104 299.316
-29.8601 -136.452 279.042
-38.0107 -35.5899 313.126
-33.876 -70.8641 311.917
1.58307 -55.2903 322.702
-106.975 -104.732 270.547
-77.2331 -88.8616 295.105
-112.061 -69.6532 285.759
-123.54 22.4143 286.923
-119.492 -26.3676 291.928
-84.6746 -7.19808 306.537
-211.256 -14.3061 137.571
-209.937 -13.5419 171.468
-201.172 -20.7351 54.4208
-211.641 -17.8384 95.3738
-188.869 -80.2845 134.015
-203.219 -49.2387 114.057
-188.964 -86.6502 88.3217
-199.123 -39.6755 -179.838
-204.594 -34.9132 -135.114
-181.903 -88.9813 -107.38
-198.132 -56.9637 -131.74
-188.064 -87.9611 -154.798
-203.869 -25.1086 -102.843
-199.289 -27.4171 -33.6918
-129.944 -194.984 23.4636
-147.346 -175.77 2.92667
-126.433 -198.65 -21.9179
-175.707 -127.024 54.2267
-162.638 -152.362 28.089
-162.731 -148.152 72.0145
-160.299 -140.379 -83.7667
-161.871 -152.681 -20.0958
-172.18 -123.05 -55.3121
-194.422 -58.8172 8.86748
-182.508 -99.0294 -28.1695
-184.386 -97.1606 36.243
-194.167 -2.25834 -236.781
-196.477 -24.2157 -213.463
-153.86 44.0503 -282.507
-177.121 20.3525 -260.483
-175.695 -70.4142 -252.593
-178.787 -24.0532 -260.775
-155.349 -46.7145 -282.088
-3.1523 114.801 -301.258
-46.2693 103.316 -309.132
-48.7639 27.5069 -333.018
-47.5316 67.0996 -326.598
-2.32146 45.1534 -332.192
-84.5052 88.5978 -309.825
-118.093 70.8625 -301.558
-46.0092 -139.973 -284.99
-48.0912 -108.07 -307.489
-0.76042 -120.225 -300.42
-120.647 -74.2572 -301.26
-87.3388 -93.145 -308.846
-117.374 -112.758 -284.076
-1.33356 -43.3649 -330.522
-48.3122 -67.4145 -323.534
-48.9209 -25.0178 -332.72
-124.564 23.7345 -310.114
[...]
POINT_DATA 642
SCALARS Mean_Curvature double 1
LOOKUP_TABLE default
0.00754578
0.00747597
0.00693539
0.00871216
0.0192465
0.00289803
0.00625355
0.00597282
-0.00164933
0.0139939
0.000824868
0.0153649
0.0152868
0.00917587
0.010402
0.0098547
0.00652202
0.00672711
0.0151567
0.00973966
-0.00119585
-0.00343691
0.00813363
0.0133666
0.00959098
0.00521908
0.00663143
0.00516618
0.00188447
0.0104209
-0.00256452
0.0114071
0.00720761
0.0105607
0.00649797
0.00643978
0.026837
0.00369601
0.00939145
0.0109735
-0.00318351
-0.000998469
0.00616189
0.0232867
0.00811052
0.0120084
0.00716496
0.0186837
0.0103189
0.00776629
0.00860423
0.0155767
0.00897658
0.00869239
0.00590776
0.00727137
0.0133813
0.0102337
0.00894744
-0.0141147
-0.00855672
0.00982294
0.0161254
0.00152534
0.0141747
0.0116436
-0.0284408
0.0113071
0.0147267
0.0061285
0.00985198
0.0169284
-0.00363592
0.0130115
-0.0772996
0.00540687
0.0032185
0.0178563
0.00757476
0.00726587
0.00884093
0.00354525
0.0101579
0.00604233
0.00494802
0.000858146
0.0131321
0.0104288
0.0172314
0.0109569
0.00987448
0.00137784
0.00324224
0.0092282
-0.00727086
0.00931213
0.00643356
0.00422422
0.012863
0.016247
0.00796512
0.0119879
0.0122825
0.00835589
0.00501951
0.0169656
0.0118614
-0.0815874
0.00632577
0.0195187
0.0171246
0.00678473
0.00708507
0.00588858
0.00764245
0.0142369
0.0063317
0.00327238
0.00446861
0.00729442
0.00799731
0.00317431
0.0134187
0.00467216
0.0107507
0.0143704
0.0022098
0.00848498
0.0128346
0.0115073
0.00901962
0.0139256
0.0122271
0.00742099
0.0100613
0.00158944
0.00666899
0.00814582
0.0171801
0.00758349
0.0257794
0.0197096
0.0085112
0.0134969
0.00140749
0.00601846
0.0112361
0.00968926
0.0106307
0.00447309
0.00552891
0.00814881
0.0103945
0.018517
0.00127967
0.0142735
0.00590789
0.0104563
0.00976907
0.00445242
0.0354561
-0.00172695
0.00795513
0.00571233
0.0095461
0.0264593
0.00582883
0.00209371
0.021243
0.0161553
0.0160755
0.0222553
0.0247843
0.0365613
0.00758922
0.00682988
0.0106878
0.00796896
0.0192417
0.0214686
0.0108482
0.00786149
0.00167027
0.00781207
0.00879376
0.00921713
0.00915514
0.00807212
0.0087235
0.0101737
0.00757894
0.00658061
0.0100714
0.00896995
0.0216615
0.00970344
0.00868197
0.00861879
0.0076819
0.0104588
0.00723836
0.00932757
0.0104707
0.00828777
0.0106634
0.0101792
0.00900158
0.00956816
0.00917646
0.00755012
0.00651763
0.00786208
0.0199908
0.0104709
0.0187476
0.0214034
0.0210547
0.00822024
0.00287959
0.00237184
0.0052052
0.00278802
0.00235194
-0.00175329
0.0146455
0.00441573
0.00448641
0.0108516
-0.00689587
0.00751677
0.00150277
0.00661921
0.00729845
0.0128097
0.00646657
0.0068908
-0.000201764
0.0105078
0.00816834
0.00054216
-0.00198798
0.00324927
0.00342068
0.00372962
-0.0136224
-0.00348835
0.0130545
0.00386482
0.0885637
-0.0676655
0.017584
0.00789154
0.0123741
0.0116555
0.011086
0.0103927
0.0175765
0.0111501
0.00442743
0.00847659
0.00715881
0.00473229
0.00552346
0.00886835
0.0115176
0.0136694
0.0153517
0.0122696
0.0129285
0.0101853
-0.0174462
-0.0179669
0.0562853
0.00911375
0.00607267
-6.19692e-05
0.0151919
-0.00960465
0.00193483
-0.0146473
0.0248964
-0.00770618
0.00068193
-0.00109059
0.0063771
-0.00128677
0.0100596
0.00440078
0.00293173
0.0467732
-0.0294091
0.0127027
0.00775091
0.00790362
0.0125779
0.0171639
0.00594429
0.010136
0.0208001
0.000809692
0.00733823
0.010419
0.00988739
0.0109377
0.00829322
0.00800664
0.00167883
0.0154652
0.0127391
0.0225444
0.016996
0.0187697
0.00707684
0.00761377
0.00945962
0.00787642
0.00974292
0.0115966
0.00223813
0.00130266
0.0115505
0.00755913
0.00408276
-8.95085e-05
0.0056478
0.0163095
0.00680665
0.00922614
0.0102677
0.0084785
0.00526051
0.0119812
0.0170149
0.00750825
0.00754467
0.00430718
0.00752661
0.0212604
0.010954
0.0107107
0.0102838
0.00700201
0.010584
0.0127388
0.00403437
0.00356167
0.000949585
0.0115181
0.00257386
0.00707612
0.00372973
0.00233726
0.0143317
-0.000976953
0.00603673
0.00576196
0.0305762
0.0196017
0.00407793
0.00657191
0.00580789
0.00843261
0.0043423
0.00613186
0.0029283
0.007563
0.00443912
0.00230592
0.00311519
0.000516044
0.0202053
0.003624
0.00940639
0.00741077
0.011598
0.00924015
0.00677601
0.00683235
0.00985387
0.00680219
0.0111151
0.00804386
0.0119648
0.0108072
0.00782534
0.00872018
0.00608482
0.0102029
0.0121535
0.0112649
0.0061742
0.00680221
0.0077758
0.00883729
0.0122091
0.011129
0.00982209
0.00420335
0.0155149
0.0218227
0.0118615
0.0122476
0.0112865
-0.00267258
-0.0149475
0.0200316
-0.0390669
0.0979603
0.00460336
0.00638412
0.00761306
0.0153164
0.00387995
0.0147581
0.0183527
0.0125476
0.00456989
0.0119884
0.00574349
0.0148155
0.0112786
0.0171171
0.00662937
0.00786548
0.00506642
0.0056317
0.00571142
0.00458632
0.00746842
0.00684269
0.0064209
0.0202888
0.00979377
0.00688538
0.0116692
0.0116885
0.012
0.00395518
0.00600386
0.00368481
0.010599
0.00659169
0.00909226
0.00518472
0.00674819
0.0050718
0.010307
0.0102527
0.0103419
0.00443474
0.00738909
0.00499991
0.00319975
0.0102668
0.00641517
0.00624599
0.017587
0.00694279
0.0126498
0.0074961
0.00992723
0.00618045
0.0055163
0.00427632
0.00742645
0.0060219
0.00986688
0.00267821
0.00342521
0.012407
0.00747275
0.0181117
0.00670982
0.00732703
0.00715568
0.0050927
0.00546681
0.0103122
0.00662108
0.00628014
0.00967829
0.00494483
0.007973
0.012304
0.010561
0.00449374
0.00439384
0.00980101
0.0108946
0.00587318
0.00419753
0.0111599
0.00910383
0.0049454
0.00790742
0.00851557
-0.00407079
-0.0121542
0.019813
-0.0117476
0.0136309
0.0113876
0.0131559
0.0121943
0.00768117
0.0072482
0.00321798
0.0062581
0.00561602
0.00549279
-0.00513439
0.00923975
0.00980426
0.0100533
0.00941603
0.0117206
0.0126693
0.0170507
0.00547997
0.0183864
0.00747009
0.0025211
0.0145961
0.00292527
0.0117524
0.0245483
0.0155318
0.00945124
0.0225307
0.007446
0.00789601
0.00647145
0.00945884
0.0087178
0.00361784
-0.000115473
0.0139785
0.0110245
0.0250354
-0.0159807
0.00732747
-0.0052111
0.00781304
0.00236031
0.00832405
0.00693828
0.00256157
-3.13995e-05
0.00751042
0.00365656
0.000245127
-0.000246041
0.00906611
0.0108806
0.00872485
0.0105398
0.00186295
0.0124694
0.00528437
0.00826082
0.0109521
0.0129686
0.00186195
0.00344495
-0.000569603
0.00687289
0.00905506
0.0143433
0.00971365
0.015033
0.00985605
0.00572615
0.00593146
0.00572424
0.00583429
0.00971406
0.0102196
0.0111076
0.00748243
0.00435297
0.0118658
0.00339915
0.00698146
0.0114737
0.00978414
0.00507578
0.00937408
0.00464256
0.0123672
0.0111667
0.0194691
0.0102226
0.0106624
0.00564883
0.00337255
0.00334533
0.0073774
-0.0120943
0.0129793
0.0162239
0.0164638
0.0115449
0.0069262
0.0106107
0.00914627
0.0189469
0.0132858
0.0121688
0.00616622
0.00628617
0.0122359
0.0091635
0.008143
0.0046481
0.0103844
0.0139995
0.005086
0.0138846
0.0129038
0.00625325
0.00877835
0.00776896
0.0055272
0.00785777
0.000228507
0.00250741
0.0102763
0.0112144
0.00390195
0.00944573
0.00601956
0.0138683
0.00868051
-0.00853804
-0.00667435
0.00677042
0.0105139
-0.00882748
-0.0189412
0.015426
-0.0211719
0.00825822
SCALARS CoVolArea double 1
LOOKUP_TABLE default
849.901
905.068
1025.08
949.819
899.268
1531.86
1341.5
1429.92
1136.41
737.43
1029.04
571.703
789.366
1605.95
1502.99
1590.54
1281.94
925.905
776.649
1559.92
2223.76
2821.67
1785.49
804.584
1476.34
1904.29
1569.72
1610.2
2265.68
1624.64
2255.92
1518.59
1630.67
1436.93
1677.35
1681.79
756.651
2015.49
1897.86
1536.96
2616.46
2925.94
1172.44
1183.69
941.708
1372.33
1707.03
674.504
1550.76
1829.35
1760.69
953.583
1035.88
1642.22
1675.88
1184.38
1033.47
964.007
2142.98
5010.61
3256.45
2861.24
1145.6
1882.94
1244.82
924
898.999
1452.86
1199.55
1152.7
1079.33
1139.57
3144.24
1058.88
1314.37
1676.72
1320.39
1303.55
1123.73
1767.32
1764.67
1164.68
1549.35
1655.28
1954.97
2798.86
1269.21
1672.67
1290.81
1729.4
1497.82
1897.23
1275
951.514
2571.23
1219.32
1636.31
1759.48
1711.28
1168.78
1874.33
1774.68
1472.14
1889.76
2050.37
1172.64
1531.08
1702.62
1001.63
1227.89
986.523
1040.05
1330.39
1767.04
1471.96
1145.17
1458.92
1354.66
1529.53
1573.67
1605.9
1666.87
1119.66
1500.21
1589.53
1066.8
1644.08
1421.7
1232.24
1170.9
1354.83
1176.89
1765.27
2200.07
1501.94
2274.56
1317.7
1583.13
1230.4
810.007
750.202
1217.31
1454.86
1226.3
2636.07
1757.37
1408.04
1732.9
1631.27
2005.56
1724.94
1454.26
1297.24
1156.52
1830.59
923.569
2020.19
1933.35
1923.24
1532.81
1176.92
3305.29
1121.99
1039.58
985.961
890.269
845.786
893.233
984.754
879.918
1444.2
941.278
970.652
509.172
1725.69
1450.73
1451.51
831.147
1130.89
1140.75
1563.84
1695.01
1944.9
1760.68
1621.79
1528.69
1539.62
1657.73
1765.18
1713.93
2043.06
1946.94
999.587
946.54
1158.21
885.841
1074.68
952.302
1121.6
1620.14
1576.12
1640.7
1610.41
1616.09
1564.66
1569.21
975.554
1058.71
985.952
1182.4
1068.32
1175.21
1077.71
956.384
1248.05
1411.88
1453.99
1171.64
2788.62
2695.57
1724.93
2020.56
2343.13
3817.17
1667.44
2356.17
2229.51
2363.23
3615.16
1909.44
2400.87
1772.66
1513.38
1420
1679.34
1171.96
1274.8
863.026
905.62
1375.95
1519.15
2208.55
2523.76
2157.32
3588.2
1685.47
823.406
2531.89
1495.32
1227.17
1004.52
1514.63
1331.32
1442.46
1329.61
1454.52
1044.09
903.164
1279.87
1051.98
982.798
1186.99
1075.28
1152.14
1358.37
1044.42
1304.24
1073.2
1286.62
1163.9
1097.45
4934.92
2083.27
1334.56
1137.99
1478.46
1143.31
4053
1703.14
2322.21
784.662
2313.46
882.565
923.883
1150.22
1108.94
1424.35
1380.46
2737.57
2874.3
2271.41
1601.56
1023.46
1096.73
1540.64
985.164
933.247
929.054
989.19
2025.38
1750.4
1679.41
1598.1
1544.92
1667.29
1797.78
1282.79
1396.91
1202.66
1072.71
1143.44
755.108
1728.32
1564.53
1705.19
1928.91
1893.18
1661.85
2376.89
2497.09
1716.01
1823.99
2366.65
2322.73
2042.52
1021.36
1420.11
1586.69
1479.83
1353.96
1512.99
1656.4
1224.56
1509.01
1350.28
1761.23
1516.63
1392.98
1367.49
1574.26
1580.62
1967.49
1846.08
2002.27
1435.64
1027.7
1835.52
1368.4
1498.32
1517.37
1738.15
1251.67
1091.9
2100.94
1335.31
1091.84
1120.95
1922.86
1279.17
1303.03
1313.97
1513.72
1255.51
1339.93
2020.98
1542.8
1883.36
2854.07
2723.32
2209.35
1158.71
999.547
1710.26
1433.77
1418.14
1455.6
1771.96
1790.98
1616.47
2020.73
1680.77
1950.58
1524.22
1707.9
1585.77
1778.55
1817.94
1787.17
1626.5
1480.76
2102.31
1903.27
2110.57
1968.74
2063.2
2002.89
1452.39
1795.15
837.251
1005.06
1399.38
1306.53
1492.23
2232.98
4122.01
951.673
1927.78
1441.61
2410.08
858.28
1096.17
890.506
1299.63
1360.9
994.76
1356.93
1115.08
835.847
1007.62
1002.09
1044.29
1286.52
1252.28
1403.86
1334
1770.93
1483.4
1465.59
1458.37
1451.42
1717.72
923.712
1028.06
932.441
1367.79
1142.32
1249.99
1521.23
1329.93
1704.36
1244.85
1546.79
1317.55
1735.41
1553.75
1615.7
1472.04
1462.54
1459.7
1917.4
1698.83
1930.86
1415.66
1169.29
1740.7
1573.61
869.846
1251.5
1056.25
1262.51
1394.48
1708.86
1521.3
1616
1487.18
1692.18
1175.66
1360.28
1330.02
1039.46
1193.09
812.744
1439.55
1526.98
1697.43
1900.18
1886.95
1700.03
1181.67
1133.37
1113.22
1140.67
1510.3
1135.44
1393.33
1222.53
1226.56
1473.07
1183.61
1829.27
1106.59
1066.49
1396.53
2120.16
1439.34
2041.81
2878.96
2013.57
1382.18
2604.14
1844.31
1335.92
1433.51
1422.45
1285.76
1183.79
2086.2
1824.1
2056.94
2037.19
2445.48
1614.65
1421.34
1508.69
1425.05
1469.35
1351.69
1553.35
1179.64
768.992
1068.29
1371.99
598.096
1583
1373.85
893.492
1322.67
1541.15
1169.54
1427.45
1203.68
2087.14
1180.88
1253.85
1583.05
1602.86
1092.89
2136.6
1255.98
2477.25
1583.17
2863.74
1377.44
1263.71
1578.9
1501.72
1462.38
1455.08
1979.03
2684.1
2716.23
2011.54
1486.1
1589.97
1666.18
1513.64
1828.76
1376.75
1933.66
1636.65
1360.1
1472.21
2461.72
2189.02
2473.22
1902.88
1888.95
1692.71
1924.7
1929.64
1296.07
1719.85
1429.49
1394.36
1681.95
1448.38
1398.67
1318.9
1428.09
1684.47
1040.92
1540.05
1140.45
1143.91
1377.49
1809.7
1557.7
1726.45
1331.69
1445.72
1043.48
1356.29
1480.32
1618.93
1690.22
2150.3
1988.88
2308.38
946.147
1330.02
1006.52
814.285
1043.09
1382.49
1135.59
1176.24
1483
1755.61
1700.68
1688.09
1748.81
1870.4
2194.51
1971.35
1637.71
1663.73
1910.08
1645.62
1598.82
1894.64
2162.31
2222.34
2343.61
2226.37
1507.96
2420.24
1320.16
1081.8
1048.06
1307.25
2764.03
977.491
1713.38
3513.59
1119.66
1185.71
1274.56
1953.22
5227.1
1897.13
3325.09
1740.56
SCALARS SignedDistance double 1
LOOKUP_TABLE default
118.849
117.199
107.473
102.429
84.9196
86.7393
85.8464
90.8691
106.896
105.289
111.033
113.192
113.83
79.1987
86.1671
83.9854
116.545
116.761
123.079
85.5672
128.369
125.978
78.8373
109.38
87.7043
82.4423
128.334
114.047
73.2363
81.5357
120.9
78.0379
110.434
83.8771
96.8554
99.3127
95.5917
116.635
104.97
78.1054
120.747
123.309
114.643
105.343
105.636
90.7807
94.6795
114.922
77.5263
80.2652
83.1815
104.945
117.817
77.6686
81.2008
116.383
104.19
103.882
150.477
146.272
148.452
150.394
113.849
127.079
113.532
124.715
158.199
81.7593
107.023
116.033
110.769
103.873
124.053
130.24
156.284
121.35
115.044
99.113
111.642
83.8279
77.3837
105.84
87.9722
89.5978
85.2212
86.0588
98.6
81.3798
74.7178
77.0651
83.1516
123.174
111.282
115.34
134.066
111.847
116.669
111.824
81.2141
104.689
74.8467
70.2834
77.6942
71.5703
74.2315
104.391
83.1456
158.836
116.646
100.512
108.856
112.444
105.807
101.257
99.526
94.5436
99.9229
107.06
93.2485
94.4214
82.2615
99.9372
97.9497
95.2452
96.6931
101.678
101.731
102.904
93.5671
99.0433
104.36
97.5562
103.551
95.1707
105.613
121.586
106.197
79.4405
105.807
111.294
111.161
101.064
112.816
126.563
133.341
114.419
114.871
77.1574
77.9715
85.3869
105.117
97.1803
106.722
104.444
123.165
110.467
77.5926
74.2961
73.9432
115.708
149.114
121.016
117.461
109.489
113.006
110.66
108.682
112.509
100.737
104.896
96.0711
106.706
109.235
115.76
83.8031
90.5295
81.7222
112.786
110.988
108.893
81.3534
81.7597
85.5285
80.3576
78.5803
78.0113
79.3817
79.7491
79.6033
95.2824
83.7598
85.8343
111.498
118.242
99.3003
104.104
117.761
110.396
110.297
81.3464
77.7376
81.2616
77.2528
77.752
77.2826
81.2953
117.204
109.983
110.996
108.928
109.304
116.107
98.2065
103.186
98.3096
97.9672
97.6724
103.961
123.022
123.503
124.99
123.904
126.499
151.991
139.577
123.537
122.667
134.959
145.922
122.787
121.338
124.751
101.834
113.918
101.731
126.809
118.435
117.656
116.472
117.522
120.173
150.12
146.962
149.181
151.12
125.199
122.059
127.153
160.888
143.805
130.182
87.5835
96.5929
93.8863
92.1066
81.3198
108.985
114.705
111.425
109.649
109.013
117.613
112.621
122.891
93.7472
107.445
102.556
116.07
108.99
117.915
124.733
144.638
142.632
120.419
118.029
116.307
125.618
141.655
132.872
138.84
133.875
140.332
115.726
114.948
116.321
114.018
124.023
116.875
124.715
151.806
133.201
124.554
107.116
114.705
90.7301
101.503
108.907
104.926
105.297
85.3576
81.8869
76.679
79.5492
78.8833
77.6799
78.473
105.17
104.48
101.117
104.083
102.484
109.843
82.1123
89.6844
81.5197
82.2865
78.9826
90.4312
85.3345
85.4273
78.9252
84.6365
85.6929
86.375
85.2649
107.371
96.7609
84.3188
87.1665
92.3783
86.664
80.5787
78.7171
78.5569
83.9071
81.0897
78.3096
80.0685
84.3451
77.9753
80.3566
79.9137
78.7465
80.1879
111.693
110.093
125.631
121.976
112.989
118.01
117.638
111.826
121.465
130.862
121.772
118.64
133.82
134.123
108.703
111.135
108.949
117.322
113.593
111.793
126.131
114.047
123.552
121.169
119.592
119.682
106.525
109.113
81.7069
91.7845
90.6973
92.7363
81.5918
81.561
78.5753
73.1566
72.811
72.3067
74.0016
75.361
82.8745
75.8912
78.0518
72.5093
71.6357
77.3181
73.1174
74.0253
72.8467
73.9786
70.2501
73.7427
97.4188
87.2253
113.902
110.01
76.8228
89.5558
87.9818
121.95
142.321
121.871
133.643
151.613
121.289
115.265
105.779
107.683
108.818
95.1828
102.784
85.7419
115.433
110.54
113.26
113.261
113.568
105.321
103.536
102.205
101.639
105.714
104.708
108.655
98.8308
100.985
98.3379
102.27
103.891
105.63
94.295
99.291
87.6619
105.769
102.981
104.206
90.298
88.8904
83.5533
96.3147
93.5229
95.6015
82.0538
88.5957
89.7699
102.067
96.9745
99.0064
100.908
100.484
99.2199
99.3622
96.1472
98.9088
97.2057
91.1525
93.0747
97.1659
96.3048
97.4947
95.2111
96.6259
105.377
104.42
106.352
98.5431
101.243
97.9732
101.924
101.408
100.499
99.8946
100.676
100.138
98.2529
101.009
95.2629
95.6855
97.1519
95.3103
93.7256
106.307
103.333
97.259
100.402
102.899
99.3971
96.8022
94.3611
102.958
94.5617
96.9418
110.571
117.654
120.891
114.452
103.082
95.0271
93.191
91.7179
103.755
103.855
115.383
101.865
110.341
106.353
120.67
82.7335
89.8226
88.195
88.7305
76.7884
104.96
120.859
109.058
109.226
105.819
111.931
111.416
112.39
86.1137
106.843
96.74
117.181
108.716
113.703
106.018
112.993
108.88
108.751
113.182
111.44
116.918
125.745
130.244
132.983
117.821
125.185
111.085
106.759
113.302
111.309
117.702
116.029
118.584
117.621
116.839
117.411
78.2549
77.2306
76.9759
77.6137
80.6013
90.2965
79.9304
83.0967
83.8417
79.0821
85.207
84.462
86.2288
84.8691
79.2088
74.8448
78.6529
81.1609
107.035
101.805
104.603
107.873
109.539
90.1903
92.2536
90.6355
96.3901
99.2072
108.881
109.621
110.41
103.515
97.2804
102.543
100.577
106.088
90.3656
114.043
104.784
87.1199
89.6337
108.562
124.804
119.607
110.701
121.515
109.913
99.6646
106.528
112.94
116.195
113.531
114.685
108.82
100.487
76.8922
85.9402
85.9032
76.8854
75.5752
72.5253
74.04
73.8772
70.5246
78.5084
70.529
75.0003
73.6421
72.3786
71.9375
72.3577
71.9563
107.371
118.029
116.05
111.048
112.013
117.614
132.211
125.395
130.578
140.076
122.316
114.268
117.64
140.649
145.054
127.256
139.514
119.037
