# vtk DataFile Version 4.2
vtk output
ASCII
DATASET POLYDATA
POINTS 642 double
-0.520094 0.858966 0.0196578
0.527845 0.862453 0.0185104
-0.498956 -0.832019 -0.00795006
0.507162 -0.837817 -0.00711472
0.00231429 -0.529762 0.897285
0.00155274 0.555068 0.89459
0.000253885 -0.548653 -0.93137
0.0023222 0.550997 -0.931203
0.857955 0.00304682 -0.580389
0.851621 0.00955456 0.558496
-0.845413 0.00044584 -0.574664
-0.845019 0.0128705 0.554304
-0.807474 0.51385 0.334604
-0.517743 0.32399 0.852596
-0.317445 0.849045 0.531364
0.321372 0.85035 0.532739
0.000904587 1.01645 0.0227865
0.319394 0.81613 -0.542764
-0.312356 0.814781 -0.539469
-0.525421 0.322896 -0.887876
-0.79458 0.49722 -0.334411
-0.959836 0.0109059 0.00208259
0.521927 0.325306 0.85626
0.815699 0.519171 0.335551
-0.505753 -0.308423 0.851504
0.00228623 -0.00378722 1.05917
-0.781973 -0.484904 -0.345143
-0.777135 -0.478211 0.323067
0.000394398 0.000524986 -1.10485
-0.527045 -0.324486 -0.888914
0.806833 0.503331 -0.341271
0.535478 0.32846 -0.892977
0.787059 -0.484127 0.325277
0.513105 -0.310735 0.857405
0.303746 -0.796494 0.516698
-0.298117 -0.793334 0.515143
0.00208071 -0.991266 -0.00756672
-0.309091 -0.808705 -0.53877
0.311936 -0.81103 -0.537069
0.533925 -0.325216 -0.892478
0.792744 -0.489275 -0.345872
0.972127 0.010639 -0.000224397
-0.682876 0.722852 0.177364
-0.598511 0.716298 0.452665
-0.442476 0.890767 0.274933
-0.724886 0.164026 0.723797
-0.703793 0.442788 0.620435
-0.862335 0.260626 0.466894
-0.158383 0.725569 0.749837
-0.438719 0.617348 0.72604
-0.258906 0.461884 0.909439
-0.165235 0.986119 0.290242
-0.283543 0.972657 0.0221938
0.16153 0.726148 0.750925
0.00106818 0.895094 0.55968
0.2877 0.974131 0.0217543
0.167633 0.986694 0.290498
0.448293 0.89349 0.275423
-0.161043 0.951874 -0.267229
-0.43419 0.861835 -0.255804
0.44165 0.864278 -0.258721
0.164456 0.953018 -0.268161
-0.159078 0.706817 -0.772167
0.00199472 0.857534 -0.567005
0.165187 0.707967 -0.773703
-0.586084 0.68902 -0.45884
-0.674031 0.708188 -0.1531
-0.263764 0.461348 -0.948103
-0.438578 0.603715 -0.74995
-0.853755 0.249209 -0.479206
-0.69628 0.430427 -0.639945
-0.727501 0.157346 -0.751071
-0.830591 0.529028 0.0136554
-0.930448 0.00467581 -0.315628
-0.919988 0.263426 -0.17535
-0.926532 0.271527 0.183887
-0.931503 0.0151748 0.308245
0.605416 0.719789 0.454772
0.691908 0.727763 0.176938
0.262686 0.462786 0.911417
0.443768 0.61972 0.729072
0.867741 0.263675 0.468382
0.70966 0.446866 0.623556
0.729092 0.163475 0.727893
-0.273406 0.169031 1.0038
0.00173134 0.297346 1.00993
-0.714525 -0.145929 0.722368
-0.54109 0.00354391 0.896278
0.00252739 -0.29483 1.01682
-0.269368 -0.168342 1.00626
-0.249809 -0.443208 0.910999
-0.91128 -0.243558 0.174635
-0.842242 -0.231087 0.463436
-0.848459 -0.244771 -0.484441
-0.911296 -0.248834 -0.185335
-0.65483 -0.688428 0.154431
-0.810175 -0.506543 -0.00647323
-0.657492 -0.691981 -0.171296
-0.556631 -0.000357771 -0.935406
-0.727884 -0.158599 -0.752075
0.00112385 0.304399 -1.0565
-0.282759 0.173699 -1.04968
-0.265435 -0.461745 -0.948651
-0.283182 -0.173737 -1.04903
0.000565153 -0.303929 -1.05569
0.448461 0.609019 -0.755104
0.270051 0.464767 -0.950719
0.684964 0.712876 -0.15726
0.597418 0.693453 -0.46469
0.740676 0.162271 -0.756941
0.710323 0.437523 -0.646618
0.866602 0.25512 -0.485988
0.664061 -0.69491 0.155353
0.574882 -0.673753 0.441396
0.425106 -0.849122 0.2504
0.721809 -0.14951 0.728676
0.685999 -0.414594 0.620713
0.850908 -0.235407 0.467434
0.154398 -0.682353 0.744078
0.426047 -0.582212 0.723949
0.25516 -0.444369 0.914072
0.158837 -0.937727 0.261547
0.275868 -0.948988 -0.00749313
-0.14977 -0.681091 0.742716
0.00223618 -0.837928 0.542772
-0.269914 -0.945757 -0.00814603
-0.153774 -0.935808 0.260993
-0.418001 -0.844328 0.24941
0.160618 -0.949127 -0.276998
0.429117 -0.858166 -0.265865
-0.422499 -0.853099 -0.267493
-0.15692 -0.947526 -0.277621
0.161567 -0.70138 -0.773445
0.000358305 -0.855963 -0.561896
-0.161295 -0.701934 -0.773448
0.58482 -0.682388 -0.464362
0.666843 -0.698932 -0.169517
0.268026 -0.461303 -0.949613
0.444471 -0.601111 -0.755013
0.85941 -0.245421 -0.489307
0.704087 -0.429085 -0.648418
0.738901 -0.158748 -0.757186
0.821018 -0.513048 -0.0054216
0.943284 0.00672203 -0.320767
0.923697 -0.251761 -0.186167
0.922248 -0.248589 0.175301
0.940839 0.0127568 0.30901
0.274916 -0.169155 1.01008
0.546582 0.00138739 0.902093
0.277673 0.168365 1.00667
-0.566933 -0.668577 0.438995
-0.419553 -0.579465 0.720316
-0.677987 -0.410904 0.615628
-0.439872 -0.601625 -0.753388
-0.577633 -0.678271 -0.46509
-0.694678 -0.427984 -0.644301
0.564694 0.000817326 -0.938995
0.286496 -0.174299 -1.05065
0.286889 0.175689 -1.05117
0.936093 0.275404 0.182064
0.93229 0.268061 -0.180588
0.841136 0.534824 0.0107291
-0.602065 0.802099 0.0953025
-0.571296 0.814857 0.232334
-0.487666 0.881586 0.143011
-0.714644 0.621441 0.396985
-0.649997 0.725699 0.318629
-0.752298 0.626568 0.257505
-0.386124 0.881262 0.404693
-0.524174 0.813534 0.369129
-0.463841 0.793728 0.49773
-0.797945 0.0840395 0.639735
-0.804769 0.219118 0.602405
-0.861654 0.130959 0.51774
-0.618995 0.387663 0.746038
-0.720564 0.306657 0.681095
-0.630616 0.24468 0.795547
-0.844357 0.389389 0.40543
-0.794631 0.356554 0.547222
-0.767994 0.485293 0.481234
-0.0749131 0.641985 0.834164
-0.21468 0.601956 0.837645
-0.122697 0.515871 0.909261
-0.381698 0.743932 0.635469
-0.302837 0.680812 0.743555
-0.239868 0.795425 0.648318
-0.391574 0.397568 0.890973
-0.355124 0.543941 0.826792
-0.484402 0.475038 0.7997
-0.660228 0.587705 0.543237
-0.580488 0.536875 0.681993
-0.526924 0.67681 0.596304
-0.36368 0.94436 0.153573
-0.412513 0.921112 0.0211567
-0.245389 0.930833 0.415696
-0.307551 0.948389 0.288141
-0.145072 1.00505 0.0227071
-0.224701 0.990249 0.158014
-0.0824003 1.01384 0.158232
0.077956 0.642243 0.834722
0.00134219 0.737902 0.756449
0.164684 0.883642 0.553344
0.0843111 0.82072 0.6606
0.243306 0.796358 0.649699
-0.0817806 0.820418 0.660129
-0.162044 0.883033 0.552608
0.418621 0.923625 0.0203837
0.368692 0.946448 0.153481
0.494524 0.8848 0.142686
0.0842964 1.01416 0.158255
0.227831 0.99123 0.158027
0.147559 1.00572 0.0224991
0.390888 0.883252 0.405805
0.311507 0.94994 0.288572
0.2485 0.93178 0.416401
-0.0841034 0.956447 0.429622
0.0861292 0.956691 0.429868
0.000861979 1.00022 0.294225
-0.359356 0.927911 -0.11597
-0.482873 0.86738 -0.107796
-0.0810564 0.995491 -0.11847
-0.221579 0.972262 -0.118844
-0.377975 0.845559 -0.40298
-0.300678 0.916023 -0.267248
-0.239911 0.891598 -0.411827
0.49048 0.8705 -0.109655
0.36508 0.930019 -0.117254
0.245215 0.89301 -0.414108
0.306103 0.917739 -0.269149
0.385507 0.847747 -0.406616
0.225239 0.973546 -0.119571
0.0833515 0.99601 -0.118742
-0.075549 0.631549 -0.864075
0.0026257 0.718495 -0.778725
0.0809187 0.632328 -0.864755
-0.159729 0.846569 -0.560138
-0.0809541 0.791134 -0.674826
-0.238506 0.768065 -0.663651
0.245021 0.768849 -0.665889
0.0860327 0.791166 -0.675508
0.164753 0.84677 -0.561712
0.00122188 0.965528 -0.270799
0.0853496 0.914972 -0.425275
-0.0819514 0.914256 -0.424462
-0.562416 0.79254 -0.210835
-0.598413 0.79405 -0.0607107
-0.455127 0.762191 -0.505421
-0.513688 0.782711 -0.365798
-0.738382 0.60848 -0.245735
-0.63685 0.701119 -0.31157
-0.7 0.599513 -0.400586
-0.124979 0.513673 -0.947668
-0.217543 0.594032 -0.869291
-0.488273 0.469893 -0.830357
-0.359092 0.538044 -0.858639
-0.398434 0.39743 -0.928458
-0.303683 0.664761 -0.767192
-0.378489 0.719579 -0.652043
-0.857034 0.119533 -0.534537
-0.798105 0.209192 -0.622085
-0.797643 0.0740791 -0.662974
-0.754462 0.468548 -0.492563
-0.783949 0.34432 -0.563236
-0.833187 0.375792 -0.412468
-0.637047 0.24126 -0.827455
-0.717816 0.298728 -0.704941
-0.620368 0.38145 -0.773479
-0.520288 0.654762 -0.61219
-0.577433 0.524299 -0.70427
-0.649177 0.568013 -0.557248
-0.687271 0.720889 0.0167329
-0.81819 0.517293 -0.162734
-0.760518 0.62387 -0.0723598
-0.76584 0.630423 0.100232
-0.82729 0.528633 0.180252
-0.89318 0.00201373 -0.456765
-0.904001 0.129599 -0.398683
-0.951093 0.137443 -0.087601
-0.935689 0.134801 -0.246557
-0.951193 0.00768005 -0.161854
-0.895536 0.260982 -0.332068
-0.869192 0.38465 -0.259274
-0.907171 0.140913 0.389743
-0.893053 0.0147948 0.442153
-0.877634 0.396633 0.264401
-0.90225 0.271908 0.329616
-0.953978 0.0137342 0.161557
-0.93923 0.143817 0.246503
-0.95395 0.141297 0.0957417
-0.886317 0.399769 -0.0809778
-0.932412 0.271293 0.00783341
-0.890533 0.405392 0.100122
0.578946 0.81877 0.23256
0.610634 0.80637 0.0943604
0.469266 0.795945 0.49958
0.530722 0.816707 0.370415
0.761221 0.631777 0.257845
0.658051 0.73003 0.319685
0.722514 0.626053 0.398794
0.126068 0.516265 0.910176
0.218365 0.602818 0.839316
0.489141 0.477533 0.803137
0.359513 0.545767 0.829719
0.395652 0.399024 0.894197
0.306982 0.682167 0.745735
0.3864 0.745707 0.637689
0.866801 0.13019 0.520445
0.808736 0.220318 0.605265
0.802893 0.0819901 0.643963
0.774997 0.490215 0.483475
0.799958 0.360523 0.549582
0.851449 0.39448 0.40662
0.634962 0.245324 0.799592
0.725279 0.309109 0.684552
0.623936 0.390469 0.749648
0.532931 0.679804 0.599146
0.586216 0.540309 0.685334
0.667153 0.591921 0.546133
-0.133458 0.381407 0.971341
0.00161063 0.43786 0.956766
-0.402261 0.251409 0.939215
-0.272464 0.318301 0.965663
0.00197963 0.148815 1.04521
-0.137086 0.232298 1.01821
-0.136025 0.0827972 1.04441
-0.791609 -0.0623788 0.638842
-0.726346 0.00820294 0.734494
-0.530729 -0.15702 0.884623
-0.634985 -0.0753595 0.818508
-0.618669 -0.228575 0.793988
-0.639042 0.0873979 0.818793
-0.537338 0.166397 0.885216
0.00242324 -0.424224 0.962868
-0.128178 -0.371486 0.976554
-0.117076 -0.493983 0.912169
-0.134472 -0.0877276 1.04643
-0.133246 -0.232122 1.02311
0.00250073 -0.153981 1.05017
-0.380652 -0.381119 0.891065
-0.265275 -0.310295 0.968652
-0.394801 -0.243525 0.940014
-0.414108 0.0866465 0.963668
-0.411448 -0.0836167 0.964189
-0.27556 -0.00101069 1.01965
-0.898067 -0.111005 0.387417
-0.850949 -0.103739 0.516205
-0.946728 -0.11588 0.090214
-0.931225 -0.11453 0.242191
-0.817727 -0.356486 0.39894
-0.884437 -0.241616 0.323557
-0.853862 -0.365716 0.253454
[...]
POINT_DATA 642
SCALARS Mean_Curvature double 1
LOOKUP_TABLE default
1.72445
1.72403
1.70984
1.7475
2.08683
1.74759
1.89987
1.84277
1.76607
1.95394
1.77079
1.98758
1.95838
1.83625
1.89644
1.87682
1.72267
1.72803
1.79196
1.97446
1.69217
1.42555
1.81647
1.97944
1.96704
1.81266
1.48581
1.64235
1.77806
2.00882
1.71026
1.98109
1.67741
2.01018
1.72923
1.72973
1.93958
1.69376
1.68456
2.00419
1.53027
1.42515
1.82318
2.02935
1.97198
1.98888
1.86854
2.06219
1.84664
1.80547
1.78699
2.04046
1.75105
1.83282
1.85971
1.71301
2.00755
1.96509
1.39421
1.31506
1.22429
1.38595
1.9434
1.66424
1.92884
1.7644
1.47122
1.91662
1.9657
1.77181
1.90237
2.05328
1.58157
1.73436
1.32036
1.69773
1.72571
2.00997
1.84855
1.77742
1.82981
1.84487
1.89848
1.877
1.78877
1.61834
1.98626
1.8932
2.01416
1.91051
1.97561
1.53385
1.76034
1.82129
1.42992
1.66391
1.54325
1.59819
1.95974
2.10844
1.80186
1.92058
1.95604
1.86679
1.78449
2.04776
1.94852
1.48222
1.77763
2.10299
2.02968
1.76148
1.66195
1.69912
1.71796
2.04399
1.86593
1.76623
1.84552
1.87522
1.96936
1.74443
1.85922
1.84785
1.77059
1.85718
1.73821
1.70755
1.82449
1.76457
1.72424
1.85208
1.95171
1.68098
2.00227
1.62401
1.6323
1.91199
2.16666
1.80249
2.14582
2.13179
1.57263
1.7224
1.44941
1.56775
1.73287
1.9254
1.92033
1.79559
1.69574
1.88658
1.88528
2.16448
1.56181
2.05684
1.89318
1.90534
1.89072
1.65241
1.30262
1.58601
1.77369
1.9071
1.85949
2.01775
1.95356
1.89038
2.03679
2.00189
1.95249
2.05402
2.07939
2.1806
1.84563
1.88872
1.87615
1.95532
2.06562
1.99281
1.85798
1.80494
1.71661
1.83431
1.81631
1.84825
1.80206
1.79179
1.81263
1.85454
1.82745
1.83028
1.89037
1.74131
2.0654
2.00832
1.74638
1.91204
1.89592
1.85155
1.83556
1.87114
1.84667
1.83044
1.85367
1.88532
1.72317
1.87119
1.85847
1.87666
1.87283
1.71223
2.01415
1.98243
2.02604
2.06979
2.05899
1.99241
1.56568
1.56521
1.56619
1.57087
1.68535
1.36259
1.66603
1.55259
1.53822
1.65599
1.32047
1.67053
1.53834
1.55923
1.85929
1.88035
1.84959
1.74233
1.7107
1.82497
1.76717
1.69215
1.64558
1.40618
1.59431
1.59437
1.42521
1.59679
1.7951
1.66206
1.26949
1.56393
1.72195
1.86969
1.93549
2.01122
1.95316
1.93977
1.97722
1.86664
1.76935
1.82696
1.90841
1.76465
1.78759
1.74303
2.05122
1.95808
2.05762
1.88752
1.93855
1.83825
1.64703
1.34694
1.51472
1.713
1.78817
1.76387
1.76877
1.38542
1.72204
1.36395
1.74048
1.68637
1.796
1.76491
1.82767
1.83561
1.63594
1.70735
1.5801
1.45309
1.50696
1.65605
1.91784
1.78952
1.92287
1.99707
1.91329
1.96567
2.02629
1.70708
1.81028
1.83597
1.83842
1.821
1.81714
1.83133
1.84278
2.01893
2.0011
2.04663
2.02008
1.97912
1.83538
1.87977
1.85879
1.85587
1.85832
1.9145
1.67035
1.64826
1.83849
1.78329
1.71702
1.665
1.80401
2.0656
1.95733
1.93946
1.9406
1.95735
1.86498
1.90436
2.07308
1.97692
2.01246
1.85835
1.91195
2.04995
1.97687
1.9571
1.95236
1.84786
1.90616
1.90613
1.75525
1.86573
1.46007
1.68355
1.68637
1.69234
1.57697
1.77178
1.78198
1.43303
1.76286
1.80472
1.49896
1.45255
1.65785
1.60928
1.65249
1.60027
1.5856
1.61985
1.55955
1.57077
1.53433
1.43413
1.47958
1.50338
2.07216
1.91876
1.98092
2.0204
2.09238
2.00505
1.97474
1.82133
1.86481
1.85303
1.85806
1.80441
1.91326
1.94722
1.9159
1.87435
1.85241
1.93443
1.91117
1.97728
1.76771
1.8207
1.85103
1.95057
1.89752
1.90314
1.92337
1.84674
1.87959
2.05257
1.95238
1.98351
2.03808
1.604
1.37553
1.75797
1.65527
1.39524
1.68055
1.76175
1.90985
1.94827
1.73616
2.10207
2.09342
2.06203
1.75128
1.90568
1.82829
1.90664
1.89151
2.06871
1.69412
1.69906
1.72554
1.68002
1.67468
1.62969
1.71835
1.7038
1.71749
2.08936
1.96799
1.88382
2.01025
2.01674
2.03265
1.65908
1.84103
1.70203
1.98701
1.94083
2.0307
1.76387
1.85354
1.76493
1.98181
1.9568
1.97964
1.74432
1.88397
1.7603
1.74496
1.79754
1.72822
1.72706
1.91494
1.80928
1.87784
1.98102
1.87537
1.74488
1.78743
1.76219
1.79201
1.74439
1.77278
1.73276
1.70561
1.88887
1.80761
1.92695
1.7123
1.72237
1.72967
1.73759
1.73964
1.78032
1.7923
1.74941
1.8756
1.82959
1.73108
1.80311
1.75971
1.71109
1.77588
1.77201
1.80211
1.72138
1.84495
1.89294
1.91689
1.80499
1.92305
1.68421
1.57521
1.54963
1.54443
1.58213
1.70564
1.83449
1.77835
1.76187
1.68995
1.69621
1.66956
1.68866
1.57686
1.62787
1.57211
1.90705
1.94111
2.07032
1.9929
1.97474
2.08443
1.56658
1.77953
1.98177
1.92022
1.82152
1.94755
1.74344
2.08498
2.1978
2.20845
1.79508
2.21648
1.90335
1.6485
1.55125
1.60516
1.62368
1.58541
1.75701
1.76208
1.48919
1.3998
1.45023
1.63393
1.46678
1.78184
1.78709
1.63647
1.66261
1.54095
1.55862
1.45582
1.47347
1.46364
1.49115
2.00273
1.97708
1.95291
1.95556
1.84758
1.97191
1.82381
1.89355
1.97414
2.00149
1.6606
1.78524
1.6532
1.76503
1.80806
1.95748
1.88802
1.97813
1.68809
1.71382
1.68969
1.65852
1.67816
1.94916
1.96484
1.96498
1.86803
1.76484
1.97734
1.70664
1.85272
1.96666
1.95398
1.76188
1.88562
1.74242
1.99494
1.95463
2.13805
2.015
2.08007
1.64821
1.51565
1.5959
1.65495
1.63793
1.96044
2.17046
2.07023
1.95454
1.8931
2.02401
1.97438
2.12924
2.0747
1.96676
1.98887
1.98021
1.9524
1.86396
1.81211
1.80735
1.89098
1.9321
1.82674
1.91436
1.93773
1.79466
1.80386
1.8633
1.79647
1.85695
1.72287
1.52813
1.68961
1.7973
1.81524
1.75759
1.68852
1.73071
1.70339
1.39671
1.67004
1.79869
1.73809
1.53385
1.32235
1.51585
1.47383
1.62637
SCALARS CoVolArea double 1
LOOKUP_TABLE default
0.0154675
0.0156369
0.0149346
0.0149344
0.0149696
0.0161472
0.0161231
0.0163443
0.0152065
0.0148089
0.0150083
0.0145264
0.0236456
0.0251526
0.0248053
0.0249934
0.0247048
0.0250988
0.0249301
0.0253996
0.0250596
0.0250928
0.0254096
0.0238283
0.0241163
0.0254134
0.0241528
0.0239997
0.0270939
0.0252913
0.0251191
0.0257539
0.0242756
0.024203
0.0242446
0.0240861
0.0230535
0.0248627
0.0251871
0.025476
0.0248187
0.0256702
0.0222189
0.0253674
0.0221273
0.0224308
0.0255857
0.0215809
0.0235022
0.0262774
0.0238238
0.0249779
0.0227795
0.0235855
0.0260161
0.0230322
0.0251319
0.0223684
0.0272258
0.0243099
0.0246617
0.0274992
0.023476
0.0265281
0.0235277
0.0256735
0.0236622
0.0240028
0.0258866
0.0224581
0.0253388
0.022727
0.0259419
0.022656
0.0261251
0.0249773
0.0218226
0.0255336
0.022435
0.0238895
0.02637
0.0221544
0.0257495
0.0228254
0.0265932
0.0243688
0.022004
0.0257615
0.0227815
0.025925
0.022429
0.0255343
0.0216481
0.0218403
0.0260484
0.0223051
0.0257452
0.0227626
0.0267675
0.0225765
0.0248058
0.0274541
0.0238277
0.0275898
0.0247993
0.0260011
0.0241616
0.0239057
0.0257424
0.0230795
0.0254257
0.0225375
0.0224159
0.0251852
0.022222
0.0220957
0.0246899
0.0219056
0.0222813
0.0250332
0.0225443
0.024731
0.0216622
0.0221925
0.0251237
0.0215647
0.0246537
0.0220995
0.0249385
0.0224628
0.0224258
0.0248524
0.0235872
0.0264333
0.0233485
0.0257963
0.022787
0.0239593
0.0256435
0.0220929
0.0247531
0.0228543
0.0258814
0.0231462
0.0265256
0.0258606
0.0224034
0.0259492
0.0258711
0.0266606
0.0249219
0.0248017
0.0244944
0.0253418
0.0251745
0.024567
0.027241
0.0278091
0.0278787
0.0255113
0.0265519
0.026263
0.0203638
0.0219822
0.0201423
0.0246538
0.0227197
0.0224562
0.022934
0.0229257
0.0253442
0.019768
0.0218793
0.0193921
0.0256122
0.0232491
0.0233952
0.0222365
0.0228195
0.0247359
0.0213963
0.0235365
0.0216491
0.0257877
0.0241415
0.0237932
0.024079
0.0242544
0.0259549
0.0280229
0.0285082
0.0284147
0.0221042
0.0206438
0.0250614
0.0227874
0.0232601
0.0228472
0.0247322
0.0214295
0.0233954
0.0257183
0.0240806
0.0239267
0.024024
0.025593
0.0208776
0.0223433
0.0203548
0.0248213
0.0230572
0.0234326
0.0231595
0.0230143
0.0252504
0.0279312
0.028011
0.0274803
0.0236803
0.0214944
0.0263236
0.0243874
0.0242167
0.0250075
0.0264116
0.0217862
0.0239892
0.0267408
0.0253634
0.0245055
0.0246614
0.0264369
0.0215969
0.0235098
0.0216352
0.0259274
0.0240494
0.0235951
0.0236624
0.0240995
0.0261069
0.0299115
0.0296923
0.0295181
0.0238524
0.0211545
0.0254431
0.0242592
0.0241109
0.0241346
0.0254583
0.0218306
0.0235765
0.025844
0.0241963
0.0243006
0.0239002
0.0254085
0.0201857
0.0222491
0.0202185
0.0250817
0.0230606
0.0231674
0.0236313
0.0232491
0.0254918
0.0279835
0.0280673
0.0278265
0.0228209
0.0263065
0.0241298
0.0231789
0.0245852
0.0202079
0.0224131
0.0259059
0.0236201
0.0236885
0.0234202
0.0258401
0.0212711
0.0193718
0.0242677
0.0221848
0.0229987
0.0225398
0.0253417
0.0287664
0.0283965
0.0278181
0.0222134
0.0205661
0.0255352
0.0231548
0.0226531
0.0229303
0.024802
0.0216904
0.0236022
0.0260851
0.0243246
0.0242092
0.0242423
0.0259346
0.0199898
0.0223646
0.0201661
0.0248776
0.0231143
0.0225267
0.0237302
0.0235775
0.0258372
0.0285405
0.0286226
0.0281339
0.0240352
0.0219317
0.0260681
0.0245194
0.0245408
0.0247614
0.0262868
0.0196571
0.0221065
0.0251191
0.0231113
0.0226595
0.0233637
0.0256877
0.0202754
0.0224892
0.0201509
0.0258684
0.0236067
0.023609
0.0228874
0.023383
0.0252198
0.0286918
0.0283565
0.0287742
0.0216121
0.0194426
0.0255488
0.0229137
0.0223849
0.0226964
0.0248921
0.0199214
0.0221245
0.0252375
0.0229913
0.022369
0.0234797
0.0259226
0.0200903
0.0223689
0.0202565
0.025058
0.0231913
0.0228077
0.0232881
0.0234683
0.0254719
0.028684
0.0285673
0.0282509
0.0226321
0.0201037
0.0263084
0.0239407
0.0235114
0.0239358
0.0263544
0.022155
0.0243
0.0275339
0.0253586
0.0255257
0.0249314
0.0266409
0.0216027
0.0242507
0.0219937
0.0267128
0.0249642
0.0241773
0.0255806
0.0254594
0.0276069
0.029753
0.0302309
0.0298357
0.0236584
0.0219269
0.0254644
0.0239595
0.0245395
0.024328
0.0260777
0.0214203
0.0242024
0.0254532
0.024318
0.0242294
0.0245212
0.0255608
0.0205013
0.0224158
0.020384
0.0257642
0.0234698
0.0240117
0.0231895
0.0230726
0.0250279
0.0280422
0.0278378
0.0282203
0.0201251
0.0221629
0.0199651
0.0248681
0.0230579
0.0229976
0.0228424
0.0230214
0.0249051
0.0198566
0.021643
0.019676
0.0245126
0.022511
0.0227067
0.022682
0.0224859
0.0246069
0.0200344
0.0221983
0.0201971
0.0248567
0.0229656
0.0228692
0.0230224
0.0230049
0.0247126
0.0273687
0.0272611
0.02749
0.0217884
0.0197843
0.0247968
0.0227535
0.0219029
0.0223242
0.0239089
0.02
0.0220575
0.0247924
0.0229141
0.0227379
0.0229572
0.0248779
0.0197376
0.0216911
0.0198983
0.0238621
0.0222236
0.0218147
0.0226944
0.0226423
0.0246859
0.0274258
0.0273808
0.0269926
0.021822
0.0200323
0.0240191
0.0223783
0.0234122
0.022927
0.0253901
0.0200436
0.0217698
0.0252675
0.0228498
0.0232494
0.0222822
0.0239653
0.0213791
0.0235322
0.0213096
0.0260728
0.0245044
0.0240342
0.0236407
0.024354
0.0258835
0.0272474
0.0280616
0.0281171
0.0225071
0.0202249
0.0256644
0.0236597
0.0236435
0.0237329
0.0253819
0.0216895
0.0234346
0.0256672
0.0240498
0.0243081
0.0238921
0.0255945
0.0201586
0.022012
0.0203739
0.0245851
0.0224578
0.0228196
0.0237505
0.0230044
0.0252914
0.027867
0.0276123
0.0274523
0.0223799
0.0258484
0.0235265
0.0232787
0.0252501
0.0205102
0.0225376
0.0264165
0.0240449
0.0242646
0.0234978
0.0258498
0.0219648
0.0198732
0.0251647
0.0230194
0.0235571
0.0233424
0.0260177
0.0289073
0.029003
0.0284724
0.0225304
0.0252919
0.0234686
0.023627
0.0258748
0.022349
0.0259486
0.0236225
0.0232104
0.0251659
0.0240949
0.0263187
0.0248279
0.0246247
0.0262574
0.0283755
0.0287778
0.0287693
0.0220382
0.0246836
0.0228433
0.0228628
0.0245866
0.0220818
0.0245441
0.0228294
0.0227907
0.0246364
0.0215022
0.0243113
0.0222745
0.0224241
0.0244032
0.0272043
0.0270295
0.0270683
0.023258
0.025123
0.023555
0.0238682
0.0254842
0.0224944
0.024698
0.0234051
0.023408
0.0252006
0.0218274
0.0250977
0.0228287
0.0222957
0.0241359
0.0273639
0.0269526
0.0273515
0.0230145
0.0266503
0.0243056
0.0243902
0.02679
0.0243407
0.0278228
0.0255709
0.0250801
0.02689
0.0244772
0.0270426
0.0252113
0.0256107
0.0278294
0.0302203
0.0306574
0.0302777
0.0220403
0.025917
0.0232187
0.0227765
0.0246036
0.0226988
0.0261142
0.0236587
0.0240613
0.0264314
0.0230453
0.0248416
0.0234084
0.0243527
0.0265792
0.028911
0.0292103
0.0282364
SCALARS SignedDistance double 1
LOOKUP_TABLE default
1.69566
1.67441
1.58584
1.53315
1.34062
1.37162
1.34705
1.39569
1.56333
1.5074
1.60165
1.55078
1.58286
1.31062
1.33394
1.32271
1.6531
1.68436
1.71015
1.34614
1.78591
1.78731
1.30744
1.54167
1.37688
1.33035
1.72205
1.64641
1.21417
1.30728
1.74374
1.28092
1.59715
1.33844
1.49068
1.513
1.43325
1.53719
1.49232
1.27803
1.66161
1.7284
1.63656
1.44709
1.52452
1.39105
1.40499
1.55906
1.2964
1.32154
1.3469
1.48261
1.66968
1.29809
1.30779
1.6574
1.48075
1.50329
1.82331
1.83551
1.81825
1.81117
1.54666
1.72872
1.54795
1.73618
1.80983
1.31464
1.50652
1.6617
1.57615
1.4783
1.75955
1.75671
1.84267
1.71239
1.66456
1.4095
1.60242
1.34895
1.29456
1.52428
1.36264
1.38646
1.35306
1.39262
1.44658
1.32134
1.25045
1.28176
1.34272
1.7258
1.61181
1.6455
1.75243
1.62048
1.68966
1.63672
1.30581
1.47043
1.25395
1.18996
1.27141
1.20233
1.23224
1.4724
1.31541
1.78777
1.69404
1.4319
1.52619
1.61905
1.57405
1.53265
1.52004
1.406
1.49519
1.56696
1.43563
1.44462
1.33134
1.50587
1.48019
1.44809
1.47772
1.51498
1.5178
1.55224
1.4306
1.49913
1.55674
1.46152
1.49208
1.45365
1.49271
1.58043
1.57946
1.28558
1.46902
1.61781
1.53188
1.43054
1.63895
1.72115
1.69251
1.66289
1.62941
1.2743
1.29103
1.3547
1.56945
1.46968
1.53612
1.46597
1.64404
1.54324
1.27077
1.20572
1.20614
1.66192
1.79977
1.72246
1.66626
1.57809
1.61681
1.51287
1.54418
1.60815
1.42723
1.48139
1.38521
1.47922
1.4584
1.55666
1.34579
1.38696
1.32989
1.56832
1.48288
1.48461
1.33263
1.33326
1.36993
1.31998
1.3077
1.29577
1.31513
1.31812
1.31724
1.4084
1.35037
1.35874
1.59312
1.68179
1.39824
1.49559
1.66115
1.57809
1.57239
1.3332
1.29957
1.30747
1.28533
1.29255
1.28486
1.30614
1.66483
1.57876
1.59511
1.5676
1.57131
1.65242
1.4081
1.48518
1.39422
1.38088
1.38087
1.47964
1.75666
1.76353
1.73861
1.74892
1.80778
1.83244
1.82196
1.74486
1.74033
1.8014
1.81666
1.77425
1.73498
1.73261
1.46435
1.55918
1.46526
1.72041
1.63861
1.618
1.61479
1.63884
1.70915
1.81631
1.82283
1.83389
1.82472
1.75273
1.71834
1.81611
1.85142
1.83457
1.759
1.36336
1.42419
1.41634
1.39883
1.3115
1.51184
1.60439
1.61929
1.57063
1.54803
1.67931
1.61828
1.71902
1.40819
1.51871
1.46554
1.62159
1.53278
1.65009
1.72663
1.83385
1.78486
1.69993
1.67507
1.66918
1.70576
1.81932
1.80428
1.81415
1.75835
1.81933
1.62133
1.60557
1.65098
1.63633
1.7341
1.68912
1.75881
1.81313
1.78899
1.73682
1.54857
1.63931
1.35845
1.45081
1.56853
1.50633
1.47137
1.37088
1.33411
1.29137
1.30953
1.3081
1.29859
1.30197
1.52364
1.46146
1.45258
1.4425
1.44837
1.52657
1.33528
1.38197
1.32419
1.32471
1.30844
1.36758
1.38011
1.38523
1.30842
1.35413
1.37755
1.38196
1.35885
1.49973
1.42293
1.34418
1.37159
1.4101
1.36967
1.32138
1.28764
1.30171
1.34649
1.30883
1.28545
1.28435
1.35019
1.29632
1.31262
1.31414
1.2975
1.30587
1.63532
1.57665
1.75994
1.70459
1.63744
1.67407
1.68616
1.61335
1.69507
1.74783
1.73496
1.69181
1.78426
1.77059
1.60642
1.63303
1.60779
1.67516
1.65742
1.63433
1.67489
1.66097
1.69945
1.74144
1.72408
1.71959
1.47768
1.54797
1.30715
1.3832
1.37921
1.38362
1.29637
1.31945
1.28236
1.19993
1.22395
1.21537
1.23622
1.24987
1.31746
1.24754
1.27913
1.22057
1.20663
1.26953
1.23217
1.22024
1.20615
1.22478
1.18425
1.2328
1.42708
1.36518
1.582
1.50389
1.26827
1.37226
1.36458
1.73013
1.80611
1.71681
1.79443
1.81749
1.77678
1.68111
1.51017
1.52847
1.57807
1.40131
1.46222
1.34139
1.67603
1.57583
1.63629
1.58364
1.60542
1.48701
1.55192
1.54315
1.53064
1.56356
1.56121
1.59688
1.50851
1.5297
1.50684
1.45759
1.49735
1.53585
1.41978
1.45552
1.36465
1.57873
1.53103
1.55394
1.39025
1.38857
1.33592
1.47716
1.43719
1.46888
1.32662
1.38482
1.39303
1.5275
1.46597
1.49898
1.51435
1.50995
1.50229
1.5085
1.44989
1.49636
1.47365
1.39875
1.42735
1.49288
1.46828
1.48549
1.46012
1.48358
1.55607
1.55125
1.57832
1.48616
1.52016
1.46991
1.53732
1.53154
1.5183
1.50301
1.50782
1.50144
1.4873
1.51984
1.43291
1.45586
1.48538
1.45808
1.44625
1.57514
1.53626
1.48352
1.50773
1.53834
1.49021
1.44702
1.41179
1.50027
1.41205
1.45974
1.49408
1.51552
1.54621
1.50532
1.48393
1.42996
1.43602
1.42382
1.54478
1.55047
1.53542
1.53207
1.61675
1.57791
1.62206
1.31735
1.37658
1.35881
1.36054
1.26382
1.478
1.54978
1.57819
1.53028
1.5091
1.63782
1.578
1.67193
1.33943
1.46591
1.40251
1.58213
1.4895
1.61036
1.57667
1.64615
1.60593
1.60316
1.63508
1.6308
1.66184
1.69164
1.72603
1.748
1.70694
1.69437
1.60252
1.5638
1.6305
1.61419
1.68639
1.65549
1.69393
1.67155
1.66842
1.67393
1.28907
1.28131
1.2848
1.27625
1.30997
1.38034
1.31481
1.3373
1.33196
1.29391
1.38113
1.35942
1.38309
1.35627
1.31231
1.25746
1.29899
1.3038
1.58165
1.53873
1.56537
1.59852
1.60596
1.40063
1.42084
1.40375
1.45699
1.50239
1.53959
1.59836
1.57894
1.49404
1.4556
1.52907
1.49752
1.56224
1.37384
1.56806
1.46596
1.35099
1.37101
1.60128
1.68495
1.63933
1.59337
1.5938
1.55743
1.42788
1.48888
1.59629
1.64887
1.58641
1.61469
1.4967
1.43842
1.25736
1.34226
1.34273
1.25811
1.24787
1.21272
1.22113
1.22101
1.19684
1.28478
1.19874
1.23321
1.22859
1.20774
1.20787
1.21634
1.20819
1.57775
1.70544
1.64728
1.59122
1.60872
1.66263
1.7764
1.71418
1.76287
1.76893
1.6985
1.6355
1.66516
1.75621
1.80339
1.73654
1.77152
1.6905
