# vtk DataFile Version 4.2
vtk output
ASCII
DATASET POLYDATA
POINTS 642 double
-129.711 233.938 50.7888
135.577 236.184 49.2761
-120.663 -233.981 -2.77777
131.05 -240.091 -4.531
1.93142 -158.155 288.999
0.024839 180.574 267.133
-0.430533 -159.384 -289.051
-2.26598 153.645 -288.108
228.89 -0.463536 -196.188
240.611 2.57241 184.739
-219.776 -2.5698 -195.315
-239.331 16.9837 179.836
-220.675 152.143 123.156
-160.446 99.0442 267.419
-94.015 263.72 168.115
97.3768 263.715 169.077
-0.0830052 277.27 48.4299
93.7066 197.532 -185.854
-84.1316 198.876 -182.033
-155.334 93.4539 -280.714
-190.794 118.435 -128.963
-222.434 -4.02103 20.5957
161.582 103.517 267.344
229.171 155.266 124.097
-149.109 -90.3682 269.102
0.360782 -14.2792 330.659
-195.113 -121.347 -129.069
-195.417 -126.348 104.943
-1.22786 1.0406 -347.392
-158.62 -98.5277 -281.8
200.566 122.914 -137.885
163.818 98.465 -284.538
206.807 -130.077 104.201
157.154 -90.6185 274.153
83.2591 -223.665 155.646
-78.4434 -220.516 155.113
2.03232 -295.524 -4.18892
-77.6924 -219.807 -164.905
82.8883 -227.455 -155.784
163.844 -98.5249 -284.513
191.854 -120.825 -123.677
234.325 -1.54751 19.4957
-180.468 201.322 89.6999
-175.307 218.256 143.991
-120.716 260.956 109.577
-216.333 53.5371 228.485
-208.263 132.592 194.684
-242.798 78.2545 158.663
-50.244 231.993 231.683
-132.558 191.779 226.86
-89.0547 142.651 277.919
-47.5209 292.881 109.386
-69.6747 267.087 50.8655
51.7989 231.568 231.697
-0.0448944 278.118 177.913
73.9497 266.522 49.1974
48.2361 292.331 109.439
126.311 262.523 108.183
-22.8299 224.665 -59.0407
-95.8723 177.492 -73.6638
101.765 187.818 -78.0426
27.4759 226.657 -57.6565
-53.6034 191.784 -236.498
-1.69411 205.012 -182.516
59.5038 191.677 -235.336
-149.272 165.445 -161.169
-174.733 171.542 -30.1254
-84.4194 132.213 -299.036
-125.175 166.696 -235.042
-216.244 64.4524 -160.338
-188.381 113.792 -206.766
-206.947 44.589 -238.967
-202.182 142.39 50.5287
-229.591 -1.85192 -110.841
-218.288 70.3008 -73.1265
-232.064 82.8837 89.2306
-237.394 16.7448 118.621
181.527 219.662 146.497
188.586 204.869 87.7236
92.4767 144.081 278.323
138.27 193.563 229.684
241.41 92.2908 152.79
213.568 139.877 196.316
215.102 50.7143 229.988
-90.7 46.5347 308.886
-0.112671 81.9098 302.717
-206.49 -40.5317 228.331
-165.613 1.16978 282.009
1.93818 -91.1996 329.934
-84.457 -54.6563 319.388
-77.2301 -131.135 289.058
-221.34 -57.52 72.7549
-220.638 -55.5415 159.218
-217.913 -71.708 -167.835
-213.26 -57.1383 -76.4853
-164.889 -187.879 49.8108
-194.281 -140.116 4.01907
-160.487 -188.271 -45.6536
-168.355 -0.934045 -299.12
-209.098 -49.3571 -239.308
-2.87054 87.1289 -334.58
-89.7439 53.3196 -336.789
-87.3567 -137.483 -300.069
-91.0838 -53.0809 -334.767
-1.15324 -88.8728 -332.175
134.044 171.845 -237.463
92.2644 134.442 -298.776
183.505 173.587 -31.5092
159.331 168.338 -169.334
217.598 53.5929 -241.092
203.314 121.171 -209.456
226.525 72.5143 -170.291
173.626 -193.289 46.3284
154.119 -186.538 134.492
112.733 -239.396 74.0304
213.439 -44.3901 234.406
193.709 -109.641 202.143
229.409 -58.0343 160.437
43.318 -194.103 232.48
123.023 -162.756 230.033
79.6806 -131.136 290.675
40.6446 -268.257 66.7751
67.2303 -279.44 -6.06138
-41.3804 -192.522 232.482
2.1386 -236.709 165.419
-59.6984 -276.684 -5.06348
-35.7055 -266.271 66.5238
-106.165 -234.926 74.5442
42.7099 -279.544 -78.7151
109.347 -249.682 -76.1361
-100.305 -243.513 -76.9481
-36.4913 -277.785 -78.5372
54.6282 -193.37 -243.43
1.2136 -248.82 -151.426
-59.0898 -195.447 -241.85
149.927 -178.793 -151.155
170.193 -196.731 -44.4049
89.0773 -135.39 -299.014
134.56 -172.145 -238.112
225.189 -70.1599 -177.186
204.626 -120.719 -211.399
218.074 -54.1543 -240.751
204.709 -147.548 2.0337
239.101 0.146904 -113.088
224.193 -56.5995 -68.8536
233.119 -65.9183 70.5475
247.175 8.68692 109.557
89.4488 -53.9216 321.733
169.284 -4.5713 287.951
94.1227 43.6765 310.82
-147.461 -181.063 134.987
-118.031 -161.215 228.643
-187.491 -108.907 197.344
-130.397 -173.733 -237.792
-151.203 -169.147 -160.557
-195.183 -120.544 -207.987
171.408 0.00689655 -296.369
92.9794 -55.8193 -334.228
92.6983 55.9026 -334.164
240.421 85.1457 86.1148
229.466 70.5128 -72.0587
209.961 146.983 47.3431
-155.354 220.537 67.7965
-154.007 233.108 101.672
-126.602 249.15 79.351
-203.505 185.646 132.547
-180.746 210.805 120.223
-202.661 177.79 110.181
-111.583 268.543 134.788
-149.389 242.856 127.953
-137.508 244.807 156.651
-235.01 32.5272 201.873
-238.821 66.7993 189.708
-246.774 48.0025 170.293
-187.099 117.316 234.423
-214.241 92.566 214.619
-190.9 76.0745 251.308
-232.289 117.809 139.662
-232.931 106.272 173.282
-222.271 145.73 152.557
-25.5093 208.089 253.762
-69.568 191.402 255.615
-45.3965 163.525 272.052
-113.696 231.753 199.875
-93.0994 214.994 230.388
-72.6834 250.467 203.235
-125.726 121.402 276.509
-112.188 169.128 255.65
-148.611 146.368 250.132
-193.927 178.719 169.253
-173.782 164.191 213.988
-156.226 208.327 186.476
-94.528 268.727 80.6669
-101.649 252.55 50.5873
-72.0321 286.456 135.935
-83.9416 280.708 110.537
-36.6524 275.205 49.9116
-58.5361 282.536 82.0212
-24.1872 288.385 81.6735
26.1742 207.965 253.793
-0.0172337 235.299 233.478
49.9075 275.109 176.061
26.3874 259.119 207.441
75.3428 250.279 203.552
-26.1106 259.148 207.445
-49.0203 275.42 175.927
107.478 252.884 48.0802
99.8109 269.015 79.784
132.987 250.743 78.4375
23.7202 288.22 81.4479
61.0135 281.933 81.4982
37.5377 274.887 48.6285
115.695 269.243 134.998
87.7716 280.703 109.849
73.8517 285.869 136.022
-26.2216 295.434 140.038
26.115 295.271 140.17
-0.380807 295.75 110.18
-86.0118 243.567 22.6309
-114.328 227.032 21.8009
-18.2948 259.327 13.4128
-49.0651 255.722 19.6778
-93.2138 194.588 -160.345
-51.4795 207.856 -68.3054
-58.3177 208.392 -150.18
115.453 229.859 15.4853
94.2526 241.479 17.052
66.4025 208.043 -149.31
70.1151 202.096 -65.7907
103.912 196.19 -157.675
52.5833 255.405 17.8154
19.7215 259.751 12.3963
-29.5796 174.943 -263.29
-0.730634 192.151 -236.579
29.849 174.962 -261.713
-50.1591 204.83 -182.354
-29.8302 199.359 -210.538
-71.4791 197.712 -208.971
80.3668 197.377 -211.451
30.9657 198.596 -211.271
55.1384 201.371 -184.973
0.880848 228.658 -56.7758
23.6891 214.288 -137.191
-24.6294 214.301 -138.477
-142.496 170.514 -46.3003
-150.071 204.183 29.5935
-118.602 184.89 -175.587
-131.53 175.357 -147.881
-169.723 154.68 -91.926
-163.297 154.591 -116.353
-172.257 145.72 -140.937
-45.5482 144.717 -296.391
-70.0507 166.956 -269.272
-142.11 133.501 -260.577
-107.746 152.256 -268.281
-121.081 114.698 -293.802
-90.1504 183.07 -237.802
-104.165 187.329 -207.752
-219.966 33.9125 -180.464
-213.191 57.1216 -204.086
-216.859 19.9499 -217.222
-190.837 116.78 -169.22
-203.695 89.4847 -188.048
-208.471 89.9983 -142.139
-184.646 70.0169 -261.317
-200.226 83.1487 -224.482
-178.827 107.148 -243.151
-139.736 169.408 -197.815
-161.491 142.851 -222.395
-169.272 145.166 -184.597
-171.51 191.312 44.656
-171.655 126.941 -44.6671
-172.74 174.951 10.3923
-194.159 173.15 70.1237
-213.261 150.075 91.9825
-224.443 -1.92733 -150.401
-227.725 35.5017 -131.168
-210.772 41.1609 -34.6523
-225.648 35.8535 -102.498
-219.949 -12.2272 -74.9135
-222.768 63.3552 -113.412
-216.247 76.3776 -97.9613
-242.63 51.2341 150.76
-239.956 22.7616 158.716
-228.446 119.14 111.299
-236.683 83.2027 132.376
-235.583 8.75071 76.1219
-237.286 48.3961 106.997
-231.734 42.324 64.2366
-214.657 79.661 -5.17962
-218.542 80.9859 28.5744
-220.593 113.565 67.3318
160.951 235.955 99.636
162.824 223.33 67.4003
142.189 245.189 158.641
155.196 245.074 127.582
210.965 181.601 108.102
188.309 213.967 118.845
211.232 188.352 134.436
47.4258 163.51 271.867
73.1626 191.203 256.376
152.72 150.962 252.098
116.814 170.982 257.877
127.812 125.453 277.348
97.6293 214.867 231.755
118.729 232.116 201.674
240.472 44.3529 171.463
235.622 72.5753 190.988
233.561 23.6279 205.443
229.889 151.148 154.853
234.936 116.704 172.849
240.285 126.453 137.894
191.079 78.0357 251.035
215.583 100.124 214.47
190.444 124.245 235.134
162.742 210.148 189.873
179.906 168.667 216.865
201.421 182.208 173.058
-50.9556 115.464 291.089
-0.0400353 134.688 284.496
-128.519 77.6138 292.564
-94.358 96.1534 295.632
-0.260325 30.1522 320.629
-49.9859 61.2489 307.693
-46.2282 14.6422 323.041
-226.763 -12.8269 203.266
-213.366 6.88399 230.047
-159.52 -46.0544 279.363
-188.024 -21.1751 258.838
-180.067 -65.4312 250.469
-191.011 29.8125 257.797
-166.803 51.9944 277.978
1.88863 -128.394 312.37
-36.0193 -112.936 312.6
-33.4826 -146.612 291.013
-40.3979 -35.2172 328.608
-37.1451 -74.0477 326.332
1.38247 -55.6201 337.766
-114.906 -112.58 282.228
-82.2192 -94.5437 308.305
-119.532 -74.3347 298.568
-129.811 24.164 300.971
-126.713 -27.6697 305.434
-88.4883 -5.96609 321.362
-232.429 -18.7631 138.437
-230.515 -19.1786 173.125
-225.134 -24.2097 51.4821
-234.373 -22.1301 93.506
-208.611 -89.3885 136.038
-224.515 -56.3195 114.508
-210.39 -94.4242 88.7804
-220.639 -41.3365 -181.93
-226.677 -37.9168 -135.66
-204.266 -96.8479 -106.368
-219.899 -64.1371 -130.14
-208.728 -97.1178 -153.793
-227.801 -27.7207 -99.9364
-223.507 -28.4843 -34.4045
-145.033 -209.858 24.3087
-164.446 -189.047 2.44997
-141.971 -213.125 -23.3
-196.18 -136.324 54.9745
-181.53 -163.647 28.4538
-180.896 -159.559 74.619
-178.936 -152.222 -86.1
-180.811 -163.936 -21.6097
-193.104 -132.374 -56.7887
-217.143 -63.9709 8.17966
-204.777 -105.77 -29.2319
-206.72 -104.014 35.8419
-211.623 -1.84061 -244.172
-217.161 -25.1113 -217.007
-164.172 47.4241 -293.349
-190.143 22.4217 -270.28
-187.838 -74.6011 -261.924
-191.613 -25.3971 -270.645
-165.471 -49.5475 -293.103
-2.74262 123.6 -313.993
-47.7033 111.065 -321.865
-50.0014 28.7318 -347.108
-48.9426 71.2871 -340
-2.02982 47.3241 -346.121
-88.7622 94.7897 -322.025
-125.239 75.685 -313.245
-47.3097 -149.973 -296.928
-49.2421 -114.9 -320.461
-0.710313 -128.031 -313.288
-127.337 -78.4057 -313.019
-91.0928 -98.5046 -321.241
-124.206 -119.842 -295.02
-1.17283 -45.752 -344.589
-49.5821 -71.4491 -337.292
-50.1304 -26.6266 -346.727
-131.808 25.5127 -322.279
[...]
POINT_DATA 642
SCALARS Mean_Curvature double 1
LOOKUP_TABLE default
0.0079243
0.00795026
0.00686494
0.00835168
0.0163385
0.00425474
0.00585697
0.00594212
-0.000448631
0.0154654
0.00209973
0.0172718
0.0159129
0.00825115
0.00774977
0.00763927
0.00607917
0.00583115
0.0123015
0.00865735
0.000988934
-0.00203749
0.00742909
0.0140151
0.00853847
0.00540107
0.00534818
0.00502199
0.0021766
0.00925571
-2.40656e-05
0.00997686
0.00669411
0.00926377
0.00589542
0.00579449
0.020988
0.00154195
0.0065982
0.00980032
-0.00300575
0.000195275
0.00566753
0.0171566
0.00869487
0.0101073
0.00588489
0.0201699
0.00909976
0.00713622
0.00793654
0.0151216
0.00872973
0.00776319
0.00520439
0.00732374
0.0134953
0.0103607
0.00729905
-0.0124924
-0.000981774
0.00704792
0.0141334
0.000490238
0.0117434
0.00979907
0.0738628
0.00984201
0.0126884
0.00440906
0.0099558
0.0132493
0.000471816
0.0125296
0.0260278
0.00535973
0.00204927
0.0137907
0.00702007
0.0074892
0.00798685
0.00589674
0.00836851
0.00510936
0.00535986
0.00107057
0.0100547
0.00905972
0.0143389
0.00952842
0.00868718
0.00194499
0.00371709
0.00801683
-0.00593985
0.00906594
0.00593924
0.00405016
0.0113531
0.0127179
0.00714284
0.0103028
0.0106264
0.00764429
0.00468495
0.0128885
0.010893
0.0521715
0.00602576
0.0148878
0.0152709
0.00640326
0.00652456
0.00531175
0.00679932
0.0111081
0.00654952
0.00369889
0.00463117
0.00721224
0.0071987
0.00336074
0.0117557
0.00506638
0.0093798
0.012618
0.0027105
0.0073937
0.0109433
0.0100927
0.00836071
0.0118525
0.0117102
0.0069441
0.0103409
0.000696626
0.00608624
0.00760819
0.0124784
0.00681931
0.022365
0.0146409
0.00758425
0.0130837
0.000240336
0.00578296
0.00999816
0.00855657
0.00948395
0.00518307
0.00495698
0.00797686
0.00978394
0.01346
0.000456771
0.0136336
0.00549667
0.00970124
0.00919121
0.00440189
0.0229752
0.000470847
0.00774848
0.00571051
0.00848261
0.021289
0.00918903
0.00391277
0.0172112
0.0159636
0.0109802
0.0144561
0.0148406
0.0316731
0.0072057
0.00609815
0.00937257
0.0114498
0.0140966
0.0145344
0.00955563
0.00709302
0.00251132
0.00727821
0.00784278
0.00849933
0.00800571
0.00716785
0.00775134
0.00675359
0.00717092
0.00606826
0.00887174
0.00873035
0.0166266
0.0105565
0.00839826
0.00792442
0.00744107
0.00919322
0.00663268
0.00767293
0.00947014
0.00771877
0.00962785
0.00840105
0.00856091
0.00858783
0.00830055
0.00702604
0.00636604
0.00754422
0.0158465
0.0107502
0.0146513
0.0158976
0.0157996
0.0098645
0.0031753
0.00303274
0.00473848
0.00283133
0.0030444
-0.00364531
0.0114546
0.00505793
0.00485292
0.00939827
-0.00959548
0.00567316
0.00158705
0.00571308
0.00539919
0.0107254
0.00407953
0.00529199
0.00377531
0.0115813
0.0121189
0.00432169
-0.00163847
0.00368357
0.00306739
0.00474373
-0.00673761
-0.000272471
0.0124509
0.00494704
0.00653836
0.00770706
0.0111099
0.00770921
0.0100398
0.00896229
0.0090126
0.00926355
0.013883
0.0104822
0.00416741
0.00917507
0.00934635
0.00481554
0.00602985
0.00766737
0.00883578
0.0133618
0.0121177
0.0107127
0.0122036
0.00946925
0.0157656
-0.013928
-0.0205103
0.00694391
0.00597912
-0.000834944
0.0118826
-0.00957234
0.00460952
-0.00846467
0.0161206
0.00638107
0.00367598
0.00179696
0.00587387
-0.000930768
0.00940634
0.0035788
0.00360194
-0.00404656
0.0101844
0.00853701
0.00767829
0.0077957
0.00922964
0.0151975
0.00649167
0.010884
0.0174889
0.00162436
0.00672618
0.00911768
0.00860451
0.00920034
0.00741897
0.00738546
0.00436622
0.012449
0.00995075
0.0162109
0.0133032
0.0184146
0.00633222
0.0065072
0.00863253
0.00712595
0.00873676
0.00855881
0.00247291
0.00129452
0.00968818
0.00767716
0.00404349
0.000331527
0.00589976
0.013489
0.00544761
0.00833219
0.00904987
0.007663
0.00582689
0.0101814
0.0143535
0.00689873
0.00688698
0.00426538
0.00674439
0.0184391
0.00957776
0.00925145
0.00906847
0.00613812
0.00937853
0.0110574
0.00268601
0.0051344
0.00131762
0.0108864
0.00234602
0.00642391
0.00358077
0.00265024
0.0106995
5.10235e-06
0.00648348
0.00608546
0.0205873
0.0132159
0.00384119
0.00608207
0.00548277
0.00780411
0.00401258
0.00532326
0.00229803
0.0066261
0.00429616
0.00171073
0.00321858
0.0013542
0.0169338
0.00704646
0.00845741
0.00626425
0.00865205
0.00755148
0.00653808
0.00628274
0.00907739
0.00681969
0.00986429
0.00715797
0.0103231
0.00954842
0.0074657
0.00807202
0.00543253
0.00887791
0.0104136
0.00994288
0.00572439
0.00665933
0.00741674
0.00807548
0.0106208
0.00984476
0.00861248
0.00411597
0.0155072
0.0165037
0.0102612
0.00979424
0.00904037
-0.00100491
-0.0133468
0.0107414
0.00641905
0.0140491
0.00473716
0.00689335
0.0104528
0.0151546
0.00407313
0.011273
0.0148628
0.00985603
0.00453474
0.012306
0.00665557
0.0148199
0.011794
0.0138266
0.00605185
0.00705333
0.00476877
0.00514771
0.00546398
0.00429198
0.00679851
0.00634783
0.0057645
0.0167204
0.0107774
0.00769371
0.0102831
0.0113021
0.0100823
0.00322657
0.00574089
0.0037272
0.00989656
0.00630702
0.00826298
0.0048945
0.00663686
0.00483129
0.00906172
0.00909888
0.00919399
0.00444708
0.00739388
0.00483151
0.00364772
0.0093505
0.00596815
0.00545839
0.0148958
0.00654775
0.0109886
0.00748711
0.00898083
0.0056054
0.00525977
0.00409355
0.00666366
0.00563693
0.00921065
0.00317228
0.00360978
0.0109097
0.00688916
0.0153441
0.00628263
0.00605602
0.00658756
0.00492319
0.00526332
0.0087015
0.00632643
0.00592472
0.0083396
0.00497169
0.00710565
0.0106767
0.00924028
0.00450736
0.00457667
0.00845036
0.00980766
0.00588406
0.00446514
0.0094272
0.00780594
0.00567694
0.00663348
0.00762294
-0.00420252
-0.00715736
0.0157196
-0.00952858
0.0100263
0.0100707
0.0111312
0.0104396
0.00755414
0.00667156
0.00158792
0.00579983
0.0051654
0.00510467
-0.00383793
0.00848674
0.00850845
0.00836169
0.00858272
0.010329
0.0103347
0.0143328
0.0052009
0.0179006
0.0103613
0.00440953
0.0162891
0.00286383
0.00934986
0.0184508
0.0105116
0.01027
0.0171701
0.00957384
0.00723434
0.00594233
0.00832436
0.00774054
0.00347036
-0.000750184
0.0103799
0.00782146
0.0184846
-0.0115066
0.00655853
-0.0039324
0.00693097
0.00232006
0.0081841
0.00557942
0.00329731
0.00118639
0.0064388
0.00443704
-5.42591e-05
0.000902375
0.00820603
0.00956664
0.00753641
0.00897808
0.00235419
0.00977235
0.00511792
0.00747375
0.00975372
0.0111041
0.00200081
0.00372484
-0.000175746
0.00721054
0.00728875
0.012124
0.00841174
0.0133548
0.00867769
0.00522743
0.00564398
0.00526688
0.00519098
0.00859344
0.00908235
0.00977241
0.00759278
0.00427101
0.0120278
0.00349677
0.00813171
0.00961365
0.00874842
0.00505728
0.00868101
0.00474555
0.0107809
0.0116971
0.013616
0.00895723
0.00845002
0.00556951
0.00291414
0.00288475
0.0061559
-0.00843308
0.0125289
0.0119077
0.0149281
0.0109748
0.00723814
0.0126879
0.0103081
0.015872
0.00931249
0.0109059
0.00552128
0.00559969
0.0109342
0.00811884
0.00756049
0.00466939
0.00944393
0.011705
0.00478749
0.0116057
0.0112716
0.00571745
0.00802983
0.00703235
0.00535903
0.00710353
-0.000324008
0.00246209
0.00945806
0.0092781
0.00496897
0.00693925
0.00526063
0.0103449
0.00869286
-0.00831401
0.014475
0.00663735
0.00801228
-0.015423
-0.0173744
0.0107549
-0.000609844
0.00599981
SCALARS CoVolArea double 1
LOOKUP_TABLE default
980.896
1033.59
1169.95
1110.98
1103.21
1662.86
1524.19
1599.31
1242.31
911.397
1125.9
778.91
1028.51
1850.93
1798.25
1874.75
1477.56
1098.12
984.264
1830.82
2309.54
2822.7
2020.65
1050.78
1725.95
2094.66
1743.06
1796.88
2457.01
1891.42
2337
1796.77
1830.23
1702.07
1879.95
1880.66
1021.81
2248.93
2139.05
1808.85
2639.16
2892.39
1329
1538
1170.05
1633.75
1990.53
935.59
1779.09
2060.46
1959.27
1239.77
1217.01
1864.01
1968.24
1359.5
1314.21
1206.08
2496.21
4466.52
3079.94
3145.65
1419.68
1983.82
1528.24
1138.75
1592.74
1701.74
1518.41
1375.61
1331.44
1429.28
3068.61
1258.44
1470.06
1806.29
1479.64
1636.62
1305.71
1956.1
2010.67
1373.44
1844.96
1903.67
2169.59
2871.6
1534.49
1928.17
1555.69
1993.94
1735.07
2031.93
1430.58
1151.63
2707.87
1413.01
1829.61
1939.99
1976.76
1470.63
2092.28
2047.29
1719.58
2147.19
2245.37
1523.15
1770.03
2244.93
1178.99
1534.69
1292.88
1242.66
1524.17
1971.23
1666.66
1420.2
1666.04
1525
1722.24
1794.95
1833.64
1881.12
1330.89
1688.53
1820.59
1273.42
1858.66
1617.99
1487.7
1380.74
1556.3
1434.83
1904.16
2377.61
1687.98
2448.81
1519.04
1815.63
1530.59
999.529
1055.45
1536.72
1653.44
1420.28
2822.85
1923.86
1596.51
2002.21
1894.58
2214.54
1924.94
1679.29
1525.18
1477.12
1938.03
1209.96
2257.26
2184.93
2178.48
1710.01
1652.42
3049.96
1286.96
1234.26
1187.77
1218.65
1069.35
1071.31
1288.35
1157.9
1773.93
1264.69
1314.51
769.684
1955.81
1713.56
1674.15
1073.73
1467.67
1495.07
1771.85
1909.02
2099.04
2008.83
1843.64
1752.44
1765.78
1881.21
2003.95
2079.01
2299.13
2254.75
1214.84
1121.11
1497.7
1139.23
1255.47
1166.81
1343.38
1824.21
1807.39
1931.53
1835.07
1833.47
1793.01
1866.58
1159.45
1273.97
1192.2
1400.52
1275.68
1353.03
1378.6
1211.54
1580.29
1789.98
1827.6
1483.59
2758.31
2605.25
1936.91
2210.61
2350.47
3826.13
1970.84
2344.41
2299.86
2577.2
3682.55
2012.5
2534.7
1997.77
1766.66
1695.17
1930.36
1355.25
1443.37
1088.69
1102.9
1526.33
1638.56
2519.32
2733.43
2390.93
3678.05
2055.98
1020.76
2418.05
1692.09
1592.29
1250.96
1737.09
1606.42
1746.23
1609.83
1702.78
1341.61
1177.28
1449.18
1261.95
1187.49
1375.2
1269.62
1340.01
1636.33
1308.78
1615.06
1370.36
1619.03
1424.21
1376.04
4630.89
2127.61
1475.37
1305.3
1671.97
1384.28
3769.02
1731.16
2286.51
1039.66
2430.75
1016.03
1058.43
1325.11
1238.94
1594.66
1513.21
2728.42
2940.33
2287.72
1819.56
1240.6
1265.2
1851.7
1271.62
1132.38
1173.26
1308.78
2168.54
1957.67
1933.62
1827.5
1773.65
1888.83
2042.27
1461.5
1669.6
1474.87
1415
1439.69
1000.1
1933.52
1818.41
1947.58
2231.55
2176.54
2017.49
2497.1
2585.81
1967.22
2012.64
2474.94
2446.73
2232.61
1299.93
1679.73
1842.9
1713.78
1592.99
1736.08
1912.96
1478.65
1754.52
1585.84
2005.3
1765.75
1635.75
1609.02
1813.89
1845.03
2252.44
2142.49
2277.25
1590.3
1196.15
2011.85
1560.08
1646.5
1689.95
1905.98
1408.03
1323.73
2184.77
1494.29
1237.68
1360.46
2212.12
1461.08
1486.27
1483.82
1706.29
1444.84
1533.92
2202.91
1739.69
2075.15
3010.18
2829.98
2361.42
1459.25
1201.81
1974.61
1710.69
1699.87
1731.63
2030.85
1995.03
1855.23
2255.36
1922.28
2155.96
1778.9
1977
1807.99
2001.15
2027.54
2050.61
1871.33
1727.49
2283.22
2114.36
2332.13
2270.73
2355.21
2300.36
1717.14
1996.58
1109.19
1313.77
1656.72
1592.4
1805.29
2498.22
4156.73
1194.74
2166.97
1644.75
2343.19
1039
1325.94
1135.29
1454.55
1695
1305.81
1639.95
1282.48
1060.46
1202.08
1307.88
1315.79
1659.95
1447.39
1603.15
1523.83
1969.05
1674.94
1649.28
1657.28
1653.42
1928.05
1191
1250.11
1118.85
1626.99
1380.53
1507
1701.44
1505.21
1889.6
1464.61
1759.97
1553.7
1937.08
1747.01
1796.52
1709.2
1688.79
1714.78
2130.27
1942.03
2154.28
1607.87
1363.92
1946.62
1761.51
1104.6
1458.47
1310.83
1479.62
1601.01
1922.63
1719.86
1789.63
1693.11
1907.13
1356.72
1552.86
1510.33
1291.69
1401.9
1044.71
1636.75
1719.7
1908.33
2141.95
2130.46
1960.39
1392.09
1330.33
1379.55
1364.21
1737.82
1357.84
1650.9
1399.35
1422.31
1745.4
1400.48
1982.97
1326.35
1334.51
1625.63
2222.67
1659.91
2230.27
2876.24
2112.6
1651.18
2667.62
2134.55
1632.98
1733.59
1718
1486.55
1376.12
2353.84
2018.26
2193.3
2191.81
2511
1839.25
1665.52
1814.21
1681.16
1711.86
1568.72
1817.22
1348.62
1024.4
1304.01
1478.9
808.133
1652.89
1662.09
1230.68
1678.17
1842.37
1529.8
1643.9
1407.64
2235.78
1395.74
1454.4
1776.88
1781.07
1324.66
2380.17
1492.92
2416.72
1755.15
2908.51
1556.3
1421.54
1778.96
1688.9
1603
1616.2
2147.52
2805.07
2894.27
2181.8
1736.31
1862.67
1903.48
1765.78
2064.34
1651.47
2167.08
1859.33
1615.24
1750.21
2569.7
2360.98
2580.72
2082.47
2129.96
2007.45
2211.67
2209.52
1497.84
1920.51
1629.14
1594.21
1880.47
1671.34
1655.3
1556.14
1626.17
1879.85
1270.41
1718.79
1324.48
1391.33
1637.78
2031.49
1815.26
1945.14
1586.41
1675.48
1318.74
1630.25
1793.55
1811.97
1850.69
2314.76
2129.25
2362.81
1178.07
1663.62
1306.66
1034.02
1225.41
1602.21
1358.51
1534.87
1784.56
2015.85
1954.69
1943.89
2011.88
2088.67
2408.81
2177.82
1878.19
1939.43
2123.53
1924.73
1848.7
2116.51
2383.58
2498.34
2602.28
2501.77
1676.27
2509.63
1507.97
1276.03
1241.75
1530.74
2776.13
1227.81
1843.11
3474.9
1416.76
1359.58
1437.53
2005.83
4690.86
2305.5
3340.99
1970.81
SCALARS SignedDistance double 1
LOOKUP_TABLE default
142.263
140.102
129.084
123.116
101.467
102.855
102.208
107.642
127.991
125.686
132.892
133.93
135.815
95.6987
101.322
99.5131
138.828
139.582
145.454
101.884
151.281
151.179
95.021
130.314
104.984
98.7004
150.659
136.578
87.944
97.3558
143.528
93.7518
131.541
100.522
116.841
119.552
114.381
134.183
123.825
93.7731
142.799
146.887
136.829
122.821
126.002
107.075
110.472
136.579
93.7096
96.8605
99.5444
124.371
140.575
93.8237
96.7156
138.859
123.611
123.864
173.232
167.96
170.991
172.087
132.676
148.121
132.59
147.992
181.537
97.9129
125.394
137.816
131.834
121.392
148.137
153.871
174.716
144.621
137.727
115.851
133.141
100.406
93.8556
126.526
104.292
106.448
101.741
103.549
116.261
98.0041
89.925
92.8731
99.896
146.767
133.593
137.813
154.752
133.967
139.91
134.282
96.6171
121.524
89.9953
84.7908
93.3809
85.869
89.2699
121.213
98.7428
180.71
139.527
115.945
128.537
134.35
127.198
121.768
120.328
111.094
120.009
128.045
111.877
113.194
98.8975
119.906
117.711
114.025
116.138
121.951
121.642
124.135
112.436
119.125
125.274
116.419
120.136
114.384
122.212
140.726
127.819
95.2977
120.861
133.607
131.686
116.407
134.812
149.349
153.404
137.237
136.721
92.4587
94.1774
101.78
126.283
116.324
126.8
120.335
144.382
131.156
93.0216
88.1788
87.9134
138.337
170.134
144.495
140.144
130.795
134.793
130.747
129.912
134.645
118.399
124.491
111.188
122.87
123.909
136.994
100.51
107.244
98.2991
134.807
128.11
126.26
97.6416
97.9858
102.415
97.0631
95.0387
94.3683
95.9043
96.2688
96.2079
111.237
100.838
102.764
132.807
141.286
115.798
124
140.269
131.378
131.259
97.6224
93.9566
96.9144
93.172
93.8155
93.1979
96.907
139.886
131.054
132.285
129.913
130.166
138.59
115.14
122.635
114.648
113.397
113.218
123.56
146.901
147.734
148.444
147.359
149.761
172.647
160.737
147.502
146.405
156.09
167.263
144.968
144.866
147.852
118.685
133.079
118.431
148.041
140.759
138.983
138.757
140.008
142.843
172.985
167.127
170.32
170.357
148.553
145.121
151.042
177.05
162.682
152.755
103.948
112.829
110.434
108.786
97.5131
126.642
135.625
133.053
131.144
129.818
140.232
134.666
145.424
109.866
127.398
119.344
137.468
129.021
139.975
147.614
165.961
158.471
143.587
141.041
137.836
147.346
163.449
156.603
162.114
156.388
162.346
138.444
137.423
139.03
136.604
147.852
140.021
148.606
165.09
155.504
148.357
127.733
136.807
106.108
120.113
130.21
125.109
124.276
102.24
97.8513
93.2335
95.0594
94.9804
93.9366
94.8921
126.055
120.648
118.242
120.943
119.565
130.376
98.7375
106.081
97.8881
98.5617
95.7247
106.309
102.484
102.74
95.1252
101.059
102.552
103.168
102.034
126.193
113.428
101.078
104.346
109.855
103.509
96.8822
94.5354
94.8094
100.546
96.9653
93.2908
95.1243
101.53
94.5112
96.7273
96.1066
94.9467
95.9776
133.816
131.912
149.777
145.428
134.942
140.673
140.911
133.763
143.733
153.499
145.125
141.889
157.301
157.619
130.791
133.658
131.043
140.038
136.358
134.092
147.308
136.894
146.032
144.699
143.455
143.475
124.147
130.149
97.4466
107.779
106.017
108.342
97.052
97.5745
94.2078
87.6258
87.5501
86.6145
89.2692
90.8128
98.981
91.3482
93.8795
87.8573
86.6675
93.123
87.8875
88.5894
87.2334
88.6973
84.4458
88.4934
113.904
103.701
134.964
126.803
92.3341
105.417
103.701
144.817
163.876
144.224
152.523
168.197
144.253
138.42
125.892
128.209
130.05
110.052
120.475
100.758
138.135
132.111
135.673
134.706
135.586
123.466
124.691
123.202
122.321
126.242
125.753
130.257
119.135
121.613
118.59
120.18
123.759
126.703
111.974
117.726
104.65
127.257
123.649
125.078
107.778
106.421
100.153
115.715
112.181
114.824
98.8375
105.982
107.406
122.271
116.417
118.75
121.008
120.69
119.031
119.53
115.262
118.842
116.739
108.835
111.614
117.164
115.458
117.043
114.226
116.325
126.289
125.273
127.947
118.419
121.59
117.653
122.613
122.186
120.79
119.776
120.514
119.954
118.103
121.415
114.086
115.248
117.025
114.632
112.954
127.659
124.035
117.222
120.262
123.514
119.313
115.985
111.1
119.741
111.239
116.219
127.161
134.011
137.884
130.181
121.985
113.121
112.435
110.901
124.462
124.954
133.338
122.522
132.304
127.878
141.584
98.7922
106.263
103.689
104.521
92.2564
120.735
138.292
130.55
129.985
125.997
134.623
133.571
135.106
100.964
123.664
110.925
136.434
125.759
135.405
127.587
135.239
130.781
130.492
135.134
132.6
138.451
148.856
153.103
156.353
140.2
147.588
132.258
127.858
135.619
132.42
140.918
138.549
141.534
140.454
140.106
140.149
94.3048
93.183
93.124
92.5524
96.5343
106.573
96.5025
99.5663
100.107
95.2076
102.34
101.24
102.999
101.419
95.337
90.2391
94.4008
96.445
128.382
122.619
125.838
129.721
131.092
107.728
110.336
108.375
115.344
119.233
129.574
131.434
132
122.35
115.629
122.986
120.346
127.331
106.294
132.969
120.362
103.265
105.25
130.378
146.84
140.742
131.791
141.386
130.822
115.148
125.404
134.825
138.722
134.714
136.843
127.23
116.241
91.907
101.547
101.529
91.904
90.9725
87.1092
88.4822
88.7013
85.5558
94.371
85.5536
89.8116
88.537
86.6825
86.8444
86.7925
86.8616
128.521
141.462
138.285
132.579
134.056
138.644
154.05
147.13
152.965
160.849
144.473
136.584
140.086
157.034
164.653
150.387
160.54
142.265
