# vtk DataFile Version 4.2
vtk output
ASCII
DATASET POLYDATA
POINTS 642 double
-139.476 246.906 44.23
144.84 249.148 42.8187
-131.164 -246.402 -2.54213
140.659 -252.273 -4.0643
1.69084 -166.684 298.133
0.0257093 185.767 278.867
-0.404496 -167.776 -298.201
-2.0393 162.682 -297.29
244.819 -0.453089 -198.141
255.795 2.02894 187.885
-236.287 -2.38328 -197.448
-254.663 13.9447 182.697
-235.626 158.815 121.904
-166.909 103.04 276.821
-98.575 273.555 173.44
101.572 273.659 174.353
-0.161472 293.016 42.2348
97.6183 214.266 -187.579
-89.3093 215.217 -183.859
-162.907 98.4379 -288.955
-205.945 127.935 -128.807
-241.338 -3.38592 18.4611
167.985 106.949 276.902
243.443 161.812 123.077
-156.977 -95.4972 277.958
0.346533 -12.3945 342.952
-210.535 -129.965 -129.261
-210.346 -134.22 107.206
-1.10875 0.905398 -358.5
-165.82 -102.859 -290.062
215.274 132.117 -136.952
170.472 102.955 -292.674
220.753 -138.013 106.574
164.237 -95.8931 282.789
88.3647 -236.204 161.538
-84.1322 -233.179 160.978
1.69047 -309.786 -3.5176
-84.3835 -232.171 -169.455
87.9975 -239.473 -162.236
170.483 -103 -292.663
207.497 -129.522 -124.704
252.376 -1.06604 17.3398
-193.192 211.585 86.1872
-184.787 227.565 147.115
-128.748 273.788 108.021
-226.227 55.0966 236.372
-218.181 138.171 201.046
-258.919 81.3467 159.103
-52.4746 239.903 240.183
-138.439 198.907 234.888
-91.4969 147.778 288.946
-50.3441 307.283 108.077
-74.7436 282.026 44.1272
53.835 239.532 240.204
-0.0353119 288.581 183.718
78.4654 281.597 42.7188
50.9161 306.761 108.182
133.625 275.402 106.929
-27.6358 242.398 -64.1548
-104.339 196.084 -76.8011
110.607 206.832 -80.6152
31.699 244.002 -62.8028
-55.1841 205.02 -242.985
-1.42533 221.783 -186.237
60.4008 204.995 -241.824
-159.949 179.577 -161.831
-191.291 172.469 -33.1385
-87.7741 139.263 -308.082
-132.146 177.314 -241.227
-232.079 69.3775 -162.518
-201.519 122.056 -210.383
-218.975 47.5597 -245.06
-217.974 150.079 45.157
-247.815 -1.55713 -109.64
-236.642 74.3203 -71.9312
-249.483 85.5697 86.5553
-254.531 15.3874 117.968
190.257 228.855 149.754
200.645 215.1 84.4003
94.5425 149.142 289.601
143.545 200.654 237.592
256.881 93.6641 155.149
223.252 144.646 202.737
225.297 52.6992 237.631
-93.1246 49.4293 320.988
-0.101289 85.8723 315.186
-217.502 -44.0538 235.606
-172.966 0.940799 291.798
1.69755 -94.6329 340.742
-87.893 -56.5584 330.451
-81.3156 -137.942 298.603
-238.955 -62.3328 71.7
-236.312 -61.264 160.948
-234.329 -76.0193 -168.71
-230.849 -62.5433 -75.9074
-177.897 -198.269 51.2998
-210.231 -147.339 3.6034
-173.64 -198.543 -47.6568
-176.105 -0.787635 -307.812
-220.989 -51.5202 -245.468
-2.53286 91.276 -345.03
-92.8725 55.6102 -346.769
-90.366 -143.898 -309.135
-94.0125 -55.3568 -344.967
-1.04676 -92.653 -342.809
139.955 182.108 -243.731
94.6474 141.413 -308.053
201.252 177.487 -34.9138
169.14 182.422 -169.327
228.539 55.425 -247.482
215.349 129.143 -213.043
242.515 76.9783 -171.145
185.866 -203.321 48.3986
164.131 -197.172 139.038
120.137 -252.193 77.5725
224.094 -47.5731 241.379
205.303 -117.839 206.869
244.284 -63.5126 162.56
46.1455 -205.727 239.883
129.824 -172.999 236.924
83.4941 -138.021 300.154
43.6938 -282.323 71.4461
72.7188 -293.122 -5.26567
-44.5011 -204.369 239.803
1.85564 -249.992 171.565
-66.1427 -290.442 -4.40836
-39.3937 -280.434 71.1339
-114.223 -247.906 77.8666
45.7504 -292.932 -82.0742
117.53 -261.657 -79.4821
-109.416 -255.836 -80.075
-40.4117 -291.251 -81.8483
56.2735 -205.565 -249.518
1.05219 -260.615 -159.489
-59.9606 -207.582 -248.309
161.304 -189.681 -153.662
182.786 -206.418 -46.7608
91.9459 -142.104 -308.22
140.119 -181.853 -244.342
241.179 -75.0724 -176.961
217.036 -129.133 -214.237
228.921 -55.8107 -247.172
220.121 -154.233 1.7472
256.706 0.1053 -111.873
240.775 -61.8229 -69.0834
249.82 -69.9725 69.9695
263.842 7.63526 109.469
92.2945 -55.9316 332.821
176.386 -4.01934 297.433
96.2074 46.9675 322.864
-158.048 -192 139.359
-125.321 -171.603 235.455
-199.582 -117.064 202.157
-136.672 -183.366 -243.854
-162.144 -182.338 -162.49
-208.156 -128.464 -211.484
178.648 0.0062141 -305.269
95.6894 -57.7989 -344.613
95.4476 57.8709 -344.562
257.2 87.9456 83.6322
247.026 74.8836 -71.2732
225.333 154.423 42.1017
-166.83 232.306 63.0604
-164.519 244.781 98.9879
-135.677 262.172 75.4505
-215.935 194.343 133.54
-192.465 221.301 118.741
-216.4 186.533 107.143
-117.964 280.27 137.081
-158.544 254.361 128.556
-144.191 254.15 161.173
-246.84 32.1748 208.301
-250.261 69.2027 195.066
-262.686 48.0283 171.932
-195.523 122.18 242.321
-224.211 96.5583 221.754
-199.206 79.0074 259.899
-248.159 122.37 139.569
-245.239 110.944 177.716
-234.344 151.647 155.921
-26.5584 214.671 263.898
-72.0535 197.714 265.807
-46.5135 168.668 283.823
-119.098 240.21 206.772
-97.1689 222.493 238.848
-76.1888 259.508 210.123
-130.228 126.106 286.728
-116.457 175.31 265.197
-154.767 152.067 258.952
-203.368 185.666 174.618
-181.803 170.652 221.21
-163.712 216.252 192.882
-101.211 282.742 76.6055
-109.118 266.659 43.8817
-76.0291 298.534 138.511
-89.608 294.376 109.139
-39.1892 290.781 43.3937
-62.5667 297.308 77.7803
-25.4928 303.703 77.5188
27.1462 214.558 263.928
-0.0122323 243.292 242.237
52.0067 285.38 181.698
27.4286 268.412 214.602
78.5175 259.382 210.434
-27.1873 268.439 214.603
-51.2312 285.644 181.594
114.32 267.191 41.6852
105.805 283.144 75.8422
141.376 263.849 74.6121
25.0217 303.473 77.3922
64.6746 296.778 77.3852
39.8767 290.463 42.3449
121.435 280.833 137.476
92.8192 294.442 108.658
77.5389 298.033 138.646
-27.3669 307.533 143.004
27.294 307.414 143.12
-0.330859 310.528 108.92
-92.9292 258.083 14.3169
-123.05 240.788 13.5946
-20.2208 275.529 5.84833
-53.6733 271.205 11.6956
-100.369 211.134 -159.682
-59.9738 223.623 -71.8476
-62.8907 225.569 -151.496
124.116 243.638 7.57349
100.331 256.419 9.04911
70.1054 225.101 -151.11
76.6208 218.588 -69.8013
109.89 212.542 -157.849
56.8292 270.877 10.0284
21.2696 275.924 5.01412
-30.1044 185.755 -271.583
-0.645913 205.607 -243.179
30.3985 185.67 -270.049
-51.7748 221.597 -185.64
-30.2144 215.887 -214.971
-74.7166 213.422 -213.141
82.5097 213.786 -215.093
31.4495 215.221 -215.345
56.3934 218.516 -188.113
0.4208 246.917 -62.3413
24.743 231.572 -140.561
-25.8281 232.126 -141.56
-149.007 186.973 -51.1944
-160.606 217.288 23.2662
-126.666 200.386 -176.282
-139.973 191.573 -147.084
-184.756 163.029 -93.0468
-173.793 169.27 -117.676
-185.643 157.454 -141.885
-46.788 152.922 -305.753
-72.485 176.654 -277.614
-149.317 141.078 -268.088
-112.764 160.846 -276.324
-126.665 120.709 -302.456
-94.485 194.833 -244.285
-110.608 201.589 -211.795
-236.306 36.0065 -182.725
-228.572 61.0984 -207.268
-232.207 21.5567 -220.914
-205.267 125.812 -170.799
-218.703 96.2451 -190.425
-223.831 97.8761 -143.228
-194.205 73.9452 -268.884
-213.263 88.7448 -229.569
-188.715 113.564 -249.6
-149.098 182.295 -201.066
-171.744 152.64 -227.75
-181.634 156.22 -186.95
-184.604 202.425 39.8881
-188.595 134.375 -46.0111
-188.951 179.138 8.18434
-208.667 182.029 65.459
-228.591 157.211 87.9493
-241.114 -1.86521 -152.477
-244.652 37.5526 -132.606
-229.306 41.4177 -34.5956
-243.965 37.4084 -100.428
-239.308 -9.65583 -72.6324
-239.822 68.6085 -113.787
-232.271 85.1933 -97.7069
-259.909 51.1759 148.667
-256.907 19.827 158.21
-244.937 123.404 108.85
-253.523 85.5214 130.224
-253.58 7.97975 73.5631
-254.682 49.2353 105.24
-249.783 43.6741 61.1005
-230.075 89.9782 -7.92834
-237.076 83.8076 25.5473
-237.517 119.06 63.2234
170.764 247.658 97.2303
173.595 235.116 62.6258
148.451 254.68 163.187
163.576 256.328 128.665
224.135 190.143 105.685
199.269 224.271 118.06
222.852 196.859 135.74
48.3609 168.625 283.658
75.2219 197.545 266.563
158.498 156.21 260.947
120.524 177.013 267.377
132.043 129.72 287.65
101.158 222.473 240.156
123.583 240.691 208.445
256.006 45.1771 174.118
248.012 74.258 196.118
245.959 24.6829 211.239
241.486 156.693 158.423
247.178 119.86 177.663
255.442 130.269 138.752
199.411 80.7354 259.726
225.678 103.14 221.694
198.651 128.301 243.198
169.599 218.146 196.006
187.377 174.772 224.015
210.34 189.113 178.225
-51.5032 119.83 303.251
-0.0332508 139.06 296.725
-132.78 80.6202 303.326
-96.4585 100.076 307.415
-0.230537 33.4636 332.965
-50.7225 65.0145 320.087
-47.3732 17.2492 335.382
-239.836 -15.8933 209.041
-224.017 5.86908 237.945
-167.261 -48.7074 288.839
-197.294 -22.9255 267.489
-189.564 -69.8553 258.751
-200.065 30.2463 266.78
-173.631 53.707 287.712
1.6548 -134.265 322.533
-38.5677 -118.125 323.014
-36.2036 -154.269 300.502
-42.2878 -35.0917 340.581
-39.6068 -76.5588 337.495
1.23865 -56.0275 349.367
-120.915 -118.512 291.5
-86.0449 -98.8883 318.677
-125.215 -77.8834 308.629
-134.737 25.4995 311.902
-132.248 -28.6615 315.982
-91.5194 -5.13127 332.848
-248.803 -22.2581 139.358
-246.332 -23.518 175.055
-243.62 -26.9648 49.3959
-251.887 -25.4391 92.5351
-223.797 -96.4969 137.863
-240.901 -61.7991 115.241
-226.897 -100.639 89.4359
-237.196 -42.6325 -183.849
-243.632 -40.0757 -136.662
-221.502 -103.099 -105.778
-236.766 -69.5134 -129.26
-224.679 -104.17 -153.418
-246.029 -30.0257 -98.3567
-241.988 -29.7928 -34.7753
-156.602 -221.556 25.0296
-177.597 -199.522 2.10483
-153.899 -224.505 -24.367
-211.845 -143.775 55.7088
-196.073 -172.62 28.8046
-194.84 -168.609 76.7992
-193.125 -161.613 -87.8901
-195.371 -172.9 -22.7723
-209.049 -139.855 -57.9312
-234.76 -68.1301 7.60926
-221.98 -111.155 -30.0195
-223.93 -109.535 35.599
-224.045 -1.56318 -250.476
-232.688 -25.9675 -220.671
-171.946 49.9804 -301.941
-199.852 23.9942 -278.185
-197.003 -77.8622 -269.57
-201.169 -26.4951 -278.588
-173.103 -51.7515 -301.791
-2.43271 130.179 -323.995
-48.8643 116.852 -331.83
-51.0126 29.6807 -358.004
-50.0776 74.4539 -350.415
-1.81181 48.9866 -356.916
-92.051 99.4464 -331.603
-130.659 79.3193 -322.449
-48.3713 -157.512 -306.326
-50.2003 -120.078 -330.583
-0.66466 -133.935 -323.369
-132.454 -81.5998 -322.275
-94.0386 -102.603 -330.948
-129.44 -125.236 -303.687
-1.04991 -47.5815 -355.507
-50.6165 -74.5273 -347.946
-51.1189 -27.8418 -357.571
-137.282 26.8492 -331.801
[...]
POINT_DATA 642
SCALARS Mean_Curvature double 1
LOOKUP_TABLE default
0.00806059
0.00813218
0.00676589
0.00805802
0.0145343
0.00481658
0.00554196
0.0058099
0.000945702
0.015834
0.00340777
0.0155392
0.0154194
0.00766079
0.0067199
0.00673567
0.0058148
0.0060464
0.0108058
0.00802622
0.00171333
-0.0010328
0.00696515
0.0136494
0.00789106
0.00548431
0.0047239
0.0048738
0.00238634
0.00851745
0.00079473
0.00910798
0.00625471
0.0084812
0.00553447
0.00541353
0.0177619
0.000322846
0.0050968
0.00900978
-0.00273849
0.000928898
0.0053936
0.0136477
0.00891072
0.00917606
0.00559181
0.0190214
0.0083522
0.00672194
0.00738606
0.0142659
0.00845175
0.00721882
0.00502239
0.00723218
0.0129985
0.0101933
0.00612987
-0.0108271
0.003457
0.00564862
0.0119408
0.00022603
0.00938556
0.00920939
-0.0507783
0.00893325
0.0107409
0.00365493
0.00986509
0.010615
0.00154453
0.0118056
0.0189126
0.00512587
0.00129432
0.0113354
0.00668533
0.00746505
0.00745986
0.00740043
0.0076768
0.00492892
0.00548921
0.00125867
0.00862602
0.00824497
0.0126712
0.00864975
0.00796438
0.0022791
0.00423789
0.00744349
-0.00538767
0.00868975
0.00559256
0.00399416
0.0103862
0.0100801
0.00663928
0.00928371
0.0095716
0.00716732
0.00450263
0.0104991
0.0101112
0.0438555
0.00639901
0.011927
0.0135093
0.0063693
0.00615749
0.00496882
0.00629616
0.00954619
0.00673417
0.00401037
0.00472741
0.00706369
0.00670722
0.00345052
0.0106987
0.00523894
0.00853797
0.0114701
0.00294322
0.00676554
0.00984327
0.00922655
0.00786592
0.0105576
0.0109265
0.00662017
0.00998254
-3.28617e-05
0.00576679
0.00725037
0.00997064
0.00671553
0.0193021
0.0115395
0.00705313
0.0123384
-0.000578841
0.00568048
0.00903003
0.0078657
0.00874774
0.00547174
0.00461833
0.00773714
0.00914025
0.0105558
0.000613341
0.0129291
0.00523496
0.00906001
0.00865145
0.00433534
0.0175162
0.00166544
0.00748329
0.00583417
0.00781278
0.0179071
0.0104606
0.00513108
0.0145475
0.0149059
0.00845928
0.0114207
0.0101496
0.0264472
0.00687938
0.00600635
0.00855436
0.0122724
0.0110522
0.0106291
0.00876531
0.00661885
0.00301456
0.00694232
0.00727943
0.00794665
0.00735057
0.00664399
0.00717971
0.00555665
0.00683716
0.00587637
0.00819713
0.0084353
0.0136793
0.010615
0.00813955
0.00753047
0.0073307
0.0084337
0.00625384
0.00696947
0.00877387
0.00725778
0.00891158
0.00760392
0.00818125
0.00800158
0.00775534
0.00682029
0.00629596
0.00730889
0.0132408
0.0105496
0.0122221
0.0128605
0.0128469
0.0101765
0.00351086
0.00342246
0.00450737
0.00299144
0.00366596
-0.0050252
0.00986232
0.00532808
0.00511443
0.00854076
-0.0112512
0.00480652
0.0018489
0.00522626
0.00503937
0.00841282
0.00354992
0.00477964
0.00634315
0.0118819
0.0137838
0.00658084
-0.000836049
0.00367012
0.00274962
0.00492061
-0.00186345
0.00214254
0.0116897
0.0049921
0.0189223
0.00498179
0.00915329
0.00747906
0.0089332
0.00784425
0.00814322
0.00853062
0.0113665
0.0102968
0.00418721
0.00963801
0.0102335
0.00495607
0.00648405
0.00676271
0.007812
0.0124972
0.00987374
0.00986546
0.0114783
0.00895825
0.0119376
-0.0137865
-0.00683228
0.00658957
0.00592314
-0.00113674
0.00983187
-0.00976654
0.00563085
-0.00499081
0.0134209
0.00625459
0.00648349
0.00460286
0.00585789
5.62437e-05
0.00890277
0.00312276
0.003534
0.000491157
0.00716218
0.00728462
0.00757145
0.00765962
0.00760085
0.0136199
0.00684518
0.0109168
0.0152015
0.00214661
0.00629424
0.0083551
0.00777187
0.00821893
0.00692139
0.00698759
0.00628227
0.00956843
0.00794383
0.0126754
0.0108508
0.0172733
0.00592546
0.00623786
0.00806144
0.00673816
0.00806959
0.00726094
0.00266424
0.00136706
0.00863971
0.00754856
0.00400684
0.000656918
0.00598295
0.0112329
0.00504184
0.00775033
0.00829719
0.00718357
0.00599304
0.00912565
0.0127107
0.00652869
0.00649968
0.00424834
0.0062375
0.0165177
0.00871497
0.00841964
0.00831072
0.005684
0.00862271
0.00998737
0.0019262
0.00644218
0.00153686
0.0103266
0.00221561
0.0059284
0.00361324
0.00311192
0.00864341
0.000821772
0.0067084
0.00627542
0.0165884
0.0100726
0.00375361
0.00577437
0.00528429
0.00725373
0.00392511
0.00492723
0.00188496
0.00612368
0.00399399
0.00148357
0.00335253
0.00186841
0.0143008
0.00870695
0.0078422
0.00586304
0.00760484
0.00690417
0.0063031
0.0059428
0.00852576
0.00674179
0.00906105
0.00657999
0.00932463
0.00874775
0.00719029
0.00763239
0.00505974
0.00808865
0.0093634
0.00909546
0.00542932
0.00648688
0.00712541
0.00754967
0.00964678
0.00903794
0.00828085
0.00404383
0.0144674
0.0130787
0.00926051
0.00864159
0.00815809
0.000919378
-0.0114021
0.00859872
0.0065016
0.00786572
0.00437731
0.00765846
0.0112059
0.0144789
0.00455162
0.0092003
0.0126611
0.00882506
0.00459626
0.012255
0.00735444
0.0139869
0.0117574
0.0117975
0.00569988
0.00655565
0.00460883
0.00481224
0.00530381
0.00419016
0.00635912
0.00603405
0.00538082
0.0137808
0.01095
0.00836521
0.00930368
0.0104491
0.00905004
0.00291667
0.00574233
0.00378949
0.00929012
0.0060821
0.00773096
0.00474847
0.00649573
0.00469554
0.00830149
0.00836647
0.00842181
0.00444832
0.00732957
0.00474077
0.00384743
0.00872126
0.00567329
0.00505634
0.0132113
0.00632373
0.00994095
0.00733569
0.00844807
0.00527435
0.00507427
0.00402036
0.00618978
0.00537577
0.00871197
0.00342562
0.00371819
0.00999378
0.00655026
0.0136345
0.00599476
0.00542816
0.00619538
0.00481489
0.0050833
0.00779642
0.00612291
0.00567856
0.00757743
0.00496701
0.00663835
0.00966871
0.00844195
0.00451346
0.00468653
0.00775929
0.00899524
0.00584933
0.00459189
0.008483
0.00738308
0.00576439
0.00628671
0.00698388
-0.00406738
-0.00397724
0.0137798
-0.00795966
0.00819741
0.00911082
0.00995589
0.00943904
0.00731818
0.00630519
0.000855487
0.00558168
0.00485091
0.00492045
-0.00312539
0.00794159
0.00785716
0.00780181
0.00810949
0.00938036
0.0089932
0.01267
0.00544008
0.0170543
0.0110982
0.0061417
0.0164703
0.00308464
0.00848662
0.0144581
0.00838208
0.0106506
0.0137402
0.01079
0.00681377
0.00558509
0.00764131
0.00712406
0.00338892
-0.000940788
0.00829359
0.00607038
0.0155331
-0.0082952
0.00616879
-0.00309814
0.00633079
0.00253331
0.00798088
0.00472675
0.00385367
0.00196787
0.00572664
0.00482659
-7.95664e-06
0.00152648
0.00765626
0.00873164
0.00689194
0.00803724
0.00267887
0.0087258
0.00499125
0.00697238
0.00897702
0.0099688
0.00214324
0.00390995
0.000136742
0.00721032
0.00637729
0.0108162
0.00768382
0.0121438
0.00789456
0.00490887
0.00544943
0.00503617
0.00474605
0.00787385
0.00834635
0.00890559
0.00749823
0.00427744
0.0114802
0.00370249
0.00860245
0.00844228
0.00806402
0.00506949
0.00820264
0.00489927
0.00982958
0.0115072
0.0109214
0.00834214
0.00768194
0.0054942
0.00280217
0.00251071
0.00536835
-0.00614637
0.0120854
0.00945369
0.0133384
0.0105681
0.00750427
0.0133238
0.0108851
0.0134337
0.00697142
0.0100003
0.00541657
0.0054628
0.0100134
0.00747898
0.00718936
0.00464057
0.00879164
0.0103936
0.00464136
0.0103097
0.0102305
0.00542764
0.00752456
0.00661123
0.00522596
0.00667159
-0.000449413
0.00256044
0.00874738
0.00832523
0.00575361
0.00549935
0.00541597
0.00849675
0.0085483
-0.00814048
0.0127067
0.00652699
0.00752073
-0.0204307
-0.0169153
0.00810169
0.00123163
0.00551161
SCALARS CoVolArea double 1
LOOKUP_TABLE default
1097.99
1147.17
1290.78
1244.39
1270.54
1773.66
1668.07
1729.92
1345.79
1067.32
1220.11
963.683
1245.22
2045.78
2019.12
2088.12
1640.8
1252.52
1164.98
2039.96
2385.48
2848.14
2205.5
1271.21
1925.97
2253.25
1880.94
1947.89
2610.64
2096.55
2380.8
2012.46
1991.35
1913.23
2042.85
2040.47
1244.71
2422.12
2318.92
2020.43
2677.72
2898.85
1474.24
1812.17
1369.49
1828.64
2195.91
1171.33
1962.08
2246.16
2120.37
1484.59
1374.47
2040.94
2188.88
1510.86
1553.4
1413.24
2740.16
4204.85
3068.67
3316
1642.13
2079.65
1753.26
1324.73
1924.93
1898.99
1771.85
1552.37
1550.8
1662.51
2962.64
1427.98
1783.39
1935.11
1611.76
1894.95
1465.78
2112.8
2207.06
1555.62
2068.32
2087.38
2345.76
2935.34
1741.51
2132.07
1767.64
2202.81
1923.63
2150.58
1567.46
1320.93
2809.55
1573.63
1988.77
2082.81
2187.24
1709.64
2263.53
2263.39
1917.37
2351.86
2399.58
1799.21
1960.62
2675.32
1343.04
1773.41
1552.13
1411.98
1682.32
2135.42
1823.74
1640.23
1843.01
1669.13
1881.53
1979.2
2014.79
2053.84
1507.17
1846.54
2006.6
1447.48
2031.82
1776.18
1695.81
1554
1722.93
1645.26
2030.53
2519.31
1843.83
2586.07
1683.37
2002.38
1765.8
1162.63
1321.63
1781.93
1819.99
1583.12
2951
2063.2
1749.98
2214.48
2104.89
2387.06
2085.92
1867.92
1718.21
1731.85
2040.16
1459.67
2444.46
2385.84
2381.46
1861.14
1958.51
2951.45
1436.07
1408.5
1360.92
1489.11
1271.69
1239.03
1530.99
1393.41
2020.46
1513.01
1576.61
1005.89
2141.35
1908.26
1853.9
1291.93
1721.63
1767.31
1940.84
2080.7
2228.83
2200.4
2021.67
1930.09
1946.17
2058.66
2194.96
2345.2
2500.05
2484.41
1400.18
1274.88
1763.65
1357.44
1410.77
1354.08
1538.34
1989.58
1992.41
2151.38
2014.33
2005.73
1975.59
2091.84
1320.08
1458.61
1369.71
1591.71
1456.03
1503.98
1615.84
1428.52
1839.07
2082.47
2116.15
1749.36
2758.79
2606.46
2107.25
2347.01
2376.06
3818.06
2179.83
2390.97
2381.2
2712.7
3717.73
2108.49
2623.36
2170.1
1954.57
1912.87
2109.75
1512.15
1606.59
1288.32
1290.99
1680.85
1752.49
2759.06
2891.77
2574.84
3846.19
2336.35
1201.32
2437.44
1716.64
1871.27
1436.81
1914.62
1818.69
1981.27
1825.25
1898.01
1578.32
1412.26
1588.32
1446.56
1374.56
1541.05
1438.34
1499.65
1849.21
1531.2
1861.4
1625.52
1893.74
1651.66
1575.5
4377.54
2024.51
1593.28
1463.57
1817.94
1575.15
3723.11
1836.39
2300.8
1246.97
2523.58
1151.99
1193.23
1487.49
1369.18
1735.31
1627.53
2793.28
3061.82
2547.55
2011.46
1429.8
1415.03
2085.88
1506.92
1311.8
1384.39
1570.9
2290.54
2124.64
2135.92
2010.45
1955.9
2065.82
2232.84
1620.69
1876.68
1688.1
1685.78
1671.88
1216.62
2096
2009.13
2141.29
2462.03
2399.39
2284.85
2599.95
2664.82
2166.83
2168.66
2569.29
2553.74
2391.53
1522.87
1875.85
2047.94
1898.9
1781.87
1916.27
2116.55
1682.96
1949.09
1775.35
2201.35
1963.03
1831.72
1802.11
2003.4
2055.69
2476.98
2377.11
2496.9
1718.22
1352.25
2153.15
1717.08
1771.38
1830.16
2045.92
1541.33
1508.19
2268.24
1630.79
1368.16
1539.45
2403.09
1611.07
1637.03
1624.66
1865.85
1600.02
1691.25
2338.84
1895.71
2228.53
3125.96
2926.7
2492.33
1699.11
1388.18
2182.06
1921.55
1911.62
1941.04
2233.82
2157.73
2046.23
2443.4
2114.01
2318.37
1981.38
2190.26
1985.43
2178.51
2192.39
2259.03
2065.83
1922.91
2428.76
2283.62
2510.81
2509.96
2587.4
2536.27
1917.96
2154.23
1351.02
1560.66
1859.95
1811.09
2041.85
2777.56
4375.08
1378.69
2422.23
1732.28
2385.16
1206.74
1530.37
1351.66
1590.47
1949.78
1557.76
1854.85
1429.34
1261.47
1381.08
1578.99
1560.84
1960.61
1606.63
1764.65
1678.99
2128.42
1830.32
1797.94
1817.2
1816.52
2096.45
1412.45
1443.91
1286.3
1839.59
1580.7
1712.08
1845.37
1656.23
2041.95
1646.8
1934.33
1745.13
2101.59
1907.61
1944.07
1897.94
1872.82
1922.54
2307.08
2146.5
2337.57
1765.99
1526.29
2112.9
1913.51
1300.6
1629.36
1520.96
1660.03
1771.95
2094.2
1881.23
1932.34
1859.65
2080.4
1510.22
1711.16
1659.02
1500.83
1574.14
1240.29
1795.67
1874.37
2078.01
2336.45
2326.28
2168.93
1566.45
1494.4
1596.32
1548.22
1912.24
1540.53
1856.54
1548.29
1586.83
1955.93
1579.59
2112.07
1508.81
1553.37
1810.41
2319.77
1838.3
2383.87
2895.39
2208.8
1847.47
2724.59
2342.55
1872.91
1974.59
1957.09
1652.95
1535.36
2544.23
2167.5
2305.07
2315.66
2582.64
2017.54
1860.48
2044.24
1881.33
1906.13
1745.33
2020.65
1495.73
1252.22
1513.16
1598.78
1006.93
1728.06
1877.07
1503.09
1945.81
2084.4
1819.01
1844.34
1574.84
2362.77
1570.64
1617.62
1937.41
1916.05
1508.22
2547.16
1670.04
2413.21
1889.65
2957
1704.62
1560.67
1944.52
1838.88
1727.12
1752.32
2282.08
2912.67
3028.13
2330.25
1934.84
2078.79
2089.61
1965.07
2253.83
1861.3
2350.65
2035.75
1816.95
1971.66
2664.16
2506.07
2674.97
2232.28
2319.47
2258.31
2439.87
2435.36
1662.91
2082.53
1790.51
1755.73
2039.43
1853.61
1864.48
1749.64
1792.64
2041.17
1468.57
1869.61
1488.26
1595.12
1848.74
2215.4
2029.85
2127.31
1789.38
1871.01
1536.66
1840.8
2029.89
1968.05
1978.55
2438.3
2247.54
2438.55
1382.03
1920.54
1553.06
1230.34
1389.83
1808.46
1563.3
1829.94
2010.66
2221.99
2142.99
2134.16
2219.55
2261.13
2580.84
2342.61
2070.5
2158.88
2292.11
2146.2
2047.23
2291.21
2560.04
2716.38
2808.4
2719.33
1818.9
2596.86
1663.13
1443.61
1416.2
1704.22
2817.66
1427.72
1966.33
3478.19
1635.55
1520.54
1569.16
1981.32
4396.95
2563.72
3395.96
2147.28
SCALARS SignedDistance double 1
LOOKUP_TABLE default
160.182
157.535
145.8
139.21
114.406
115.575
115.053
120.655
144.224
141.116
149.72
149.185
152.14
108.59
113.731
111.812
155.761
157.21
162.315
114.337
169.051
170.572
107.813
146.03
118.391
111.306
167.927
153.897
99.3562
109.456
161.109
105.635
147.829
113.6
132.197
135.297
128.883
148.02
138.35
105.642
159.95
165.098
153.748
135.445
141.373
119.739
123.4
152.617
106.31
109.798
112.246
138.978
157.812
106.418
109.175
156.029
138.225
138.778
190.493
185.783
188.883
188.418
146.06
164.551
146.041
165.653
192.295
110.29
138.475
154.67
147.951
133.95
166.774
171.903
191.796
162.482
155.21
128.156
149.41
113.249
106.37
142.26
116.935
119.37
114.31
117.035
129.675
110.761
101.932
105.041
113.183
165.017
150.703
154.909
171.15
151.033
157.792
151.648
108.434
133.537
101.688
96.2279
105.363
97.217
101.124
133.461
110.685
195.37
157.184
127
142.839
151.094
143.745
137.683
136.311
124.175
135.32
144.255
126.234
127.572
111.88
135.332
132.938
128.46
131.384
137.613
137.234
140.526
126.943
134.557
141.33
131.02
132.879
129.378
134.652
155.189
144.556
107.406
132.462
150.64
146.391
127.367
151.996
166.671
169.016
154.857
153.446
104.265
106.705
114.459
142.674
131.077
141.972
132.375
160.853
146.707
104.947
98.8915
98.6668
155.692
186.391
162.57
157.522
146.939
151.333
145.526
145.854
151.48
131.273
138.959
122.505
135.124
135.038
152.232
113.762
120.224
111.369
151.109
140.342
139.23
110.026
110.557
115.512
109.796
107.914
106.974
108.555
108.933
109.255
124.175
113.995
115.67
149.022
158.926
127.921
138.835
157.388
147.362
147.207
110.002
106.53
109.261
105.681
106.437
105.703
109.253
157.157
147.054
148.486
145.892
146.139
155.663
127.734
137.346
126.85
124.936
124.803
138.232
165.242
166.354
166.321
165.424
167.707
188.588
177.033
165.907
164.613
172.405
183.279
162.486
162.903
165.518
131.911
146.686
131.741
164.494
157.568
154.944
155.435
156.918
160.361
190.233
182.746
186.412
187.065
166.64
162.713
169.492
191.83
179.713
170.248
116.544
125.301
123.499
121.545
109.968
139.624
151.895
149.98
147.361
145.388
157.577
151.615
162.774
122.599
141.887
131.873
153.525
143.769
156.669
165.474
182.822
174.075
161.512
158.621
154.584
163.977
180.712
174.811
180.455
173.616
179.791
155.891
154.635
156.545
153.971
166.118
157.945
167.015
182.984
174.401
166.698
143.332
153.705
117.767
133.938
146.342
140.277
138.357
115.344
110.237
105.708
107.551
107.311
106.64
107.538
142.071
133.106
131.392
133.22
131.952
145.585
111.657
118.699
110.675
111.256
108.482
118.493
115.814
116.194
107.799
113.776
115.551
116.432
114.939
139.866
126.297
114.03
117.717
123.406
116.489
109.381
106.763
107.266
113.622
109.233
105.096
106.739
114.659
107.113
109.563
108.823
107.398
108.245
151.056
148.777
168.512
163.433
151.93
158.029
158.844
150.638
160.693
171.079
163.142
159.588
175.094
175.56
147.919
151.047
148.194
157.544
153.94
151.422
163.815
154.51
163.475
163.293
161.839
161.754
136.77
145.9
109.595
119.954
118.493
120.317
108.807
109.855
106.051
98.8153
98.847
97.852
101.099
102.768
111.337
103.278
106.099
99.6914
98.3487
105.194
99.2989
99.9417
98.3723
100.239
95.5747
100.021
126.576
116.402
150.31
138.632
104.333
117.661
115.959
162.496
180.475
161.541
169.199
182.457
161.939
156.142
140.798
143.315
146.322
122.088
133.533
112.82
155.464
148.137
152.645
150.421
152.077
136.826
141.065
139.445
138.312
142.165
142.045
146.913
134.773
137.56
134.221
133.335
138.793
142.782
125.496
131.651
117.565
143.792
139.518
141.31
121.276
119.962
113.008
130.838
126.514
129.781
111.707
119.614
120.893
137.967
131.196
134.064
136.674
136.347
134.536
135.296
130.052
134.265
131.806
122.502
125.892
132.627
130.307
132.299
128.98
131.555
142.469
141.394
144.662
133.627
137.332
132.697
138.632
138.192
136.513
135.252
135.927
135.223
133.761
137.187
128.701
130.282
132.505
129.759
128.25
144.205
140.015
132.666
135.497
139.637
134.766
130.742
124.04
133.06
124.166
131.099
140.58
148.036
150.834
143.514
136.577
127.184
127.231
125.69
140.52
141.287
147.415
138.488
149.28
144.382
157.75
111.111
118.906
115.86
116.761
104.245
132.61
151.154
147.035
145.457
140.947
152.028
150.104
152.74
112.943
135.583
122.594
150.671
137.845
151.644
144.272
152.666
147.848
147.401
152.112
149.11
155
166.616
170.473
174.546
157.466
164.325
148.579
144.149
152.715
149.145
158.931
155.968
159.22
158.133
158.074
157.705
106.637
105.501
105.495
104.453
108.886
119.445
109.004
112.499
112.722
107.773
115.673
114.168
116.252
114.225
107.932
102.385
106.912
108.255
144.922
138.657
142.33
146.689
147.779
121.366
124.24
122.176
129.843
134.597
145.094
148.33
148.412
136.543
130.014
138.809
135.346
143.817
118.556
146.825
131.974
115.613
117.779
147.2
163.808
157.148
148.29
157.093
146.583
127.029
139.23
151.168
155.858
150.447
153.488
140.321
127.839
103.465
113.562
113.552
103.463
102.866
98.3812
99.7925
100.04
97.374
106.494
97.3762
101.039
100.111
97.8135
98.4201
97.9567
98.4328
144.857
159.536
155.344
149.053
150.983
154.8
170.931
163.712
170.107
177.253
161.604
153.555
157.31
171.845
180.824
168.358
178.157
160.154
