# vtk DataFile Version 4.2
vtk output
ASCII
DATASET POLYDATA
POINTS 642 double
-156.445 269.759 33.9547
160.981 271.94 32.754
-149.216 -268.321 -2.1223
157.221 -273.746 -3.29284
1.31063 -181.077 314.443
0.0290719 195.112 299.056
-0.354894 -181.953 -314.535
-1.64859 177.887 -313.676
272.241 -0.402139 -202.591
281.339 1.25847 194.785
-264.763 -1.99502 -202.042
-279.866 9.64176 189.792
-260.882 170.707 121.725
-178.163 110.006 293.431
-106.483 290.85 183.155
108.879 291.083 183.934
-0.22226 320.528 32.5407
104.79 243.103 -191.528
-98.2056 243.126 -188.248
-175.778 106.879 -303.711
-232.284 144.351 -129.046
-274.3 -2.42526 14.8518
179.13 113.055 293.725
267.552 173.477 123.132
-170.379 -104.172 293.838
0.319034 -9.48227 364.42
-237.097 -145.31 -130
-236.046 -148.273 111.577
-0.902381 0.699498 -377.922
-178.131 -110.317 -304.808
240.848 148.187 -135.781
181.928 110.616 -307.19
244.772 -151.999 111.149
176.396 -104.759 298.264
97.2156 -258.107 172.047
-93.8678 -255.337 171.455
1.21342 -334.634 -2.55249
-95.2155 -254.076 -177.832
96.8317 -260.547 -173.195
181.928 -110.647 -307.19
234.3 -144.81 -126.667
283.778 -0.418708 13.8062
-215.014 229.735 81.181
-200.181 243.054 153.771
-142.241 296.021 106.926
-243.419 58.0367 250.339
-235.382 147.997 212.471
-285.471 87.3248 162.387
-56.3455 253.886 255.066
-148.632 211.419 249.071
-95.9969 156.82 308.113
-55.0977 331.84 107.556
-83.491 308.243 33.6612
57.403 253.601 255.098
-0.0232698 306.903 194.044
86.3367 308.011 32.6411
55.4766 331.376 107.692
146.011 297.583 106.311
-35.9265 272.492 -72.8148
-119.17 228.214 -82.52
125.269 238.63 -85.6921
39.2052 273.409 -71.5661
-58.0882 226.402 -255.307
-0.997066 250.898 -193.148
62.1816 226.371 -254.295
-178.494 203.594 -164.187
-204.663 195.017 -38.9092
-93.6335 151.137 -324.164
-143.657 194.704 -252.876
-259.569 77.8011 -166.876
-223.6 135.979 -218.175
-238.658 52.4843 -256.681
-245.279 163.849 36.2115
-279.188 -1.16418 -108.952
-268.2 81.4099 -70.4386
-279.691 90.3611 82.6657
-284.379 12.869 117.337
204.73 244.374 156.388
221.365 233.105 79.795
98.4644 158.076 309.098
152.787 213.08 251.549
283.079 96.7184 160.662
239.966 153.202 214.216
242.844 56.2567 251.281
-97.6068 54.2773 341.953
-0.0791099 92.786 336.998
-236.309 -49.805 249.002
-185.607 0.626815 309.131
1.31326 -100.601 359.707
-93.8757 -59.9037 349.829
-88.3097 -149.507 315.612
-269.452 -70.9265 70.4633
-263.481 -71.1799 164.778
-262.654 -83.3774 -171.2
-261.361 -71.736 -74.9999
-200.246 -216.665 54.1314
-237.861 -160.436 2.92779
-196.393 -216.793 -51.2383
-189.223 -0.574722 -323.274
-240.354 -55.3294 -257.148
-1.98836 98.2562 -363.422
-98.3277 59.517 -364.338
-95.6826 -154.798 -325.226
-99.1625 -59.2568 -362.857
-0.859651 -99.1352 -361.498
149.881 198.816 -255.473
98.9917 153.073 -324.43
213.299 194.108 -40.4905
186.343 206.645 -170.347
246.501 58.6049 -259.388
235.167 142.2 -220.913
270.125 84.5091 -173.499
207.02 -221.171 52.0998
181.431 -215.893 147.272
132.965 -274.697 83.8737
242.208 -52.7223 254.185
225.191 -131.86 215.954
270.04 -73.0928 166.853
51.0056 -225.701 253.202
141.451 -190.482 249.485
90.0611 -149.683 317.024
48.9347 -306.926 79.5154
82.0258 -317.118 -4.0519
-49.7799 -224.659 253.009
1.41826 -273.12 182.535
-76.917 -314.634 -3.38784
-45.6167 -305.215 79.1422
-128.087 -270.766 83.8689
50.8916 -316.4 -88.0989
131.475 -282.828 -85.4958
-124.825 -277.595 -85.7398
-46.8435 -314.824 -87.8206
59.1665 -226.304 -260.872
0.811287 -281.392 -173.441
-61.7485 -228.048 -260.183
180.144 -209.032 -158.509
204.555 -223.701 -50.8744
96.9991 -153.451 -324.512
149.775 -198.249 -256.079
269.005 -83.3262 -177.612
237.048 -142.598 -221.356
246.759 -58.7962 -259.18
246.769 -166.461 1.32551
287.016 0.073857 -111.08
269.66 -70.831 -69.5152
278.9 -77.2258 69.4353
292.676 5.94536 110.172
97.3691 -59.4616 352.168
188.63 -3.14282 314.211
100.138 52.4371 343.733
-176.283 -211.282 147.301
-137.751 -189.283 247.964
-220.076 -130.95 211.501
-147.244 -199.501 -255.453
-181.007 -205.256 -166.318
-229.601 -141.579 -219.284
191.007 0.0049745 -321.076
100.464 -61.19 -362.65
100.282 61.2448 -362.621
286.376 92.8674 80.1035
277.19 82.2856 -70.4823
251.889 167.811 33.4279
-186.597 253.013 55.9441
-182.396 265.284 95.6767
-151.19 284.968 69.9447
-236.476 209.059 137.16
-212.244 239.565 118.155
-239.995 202.064 103.554
-128.417 299.962 142.355
-173.693 273.904 131.38
-155.541 270.332 169.791
-266.974 32.2594 220.367
-269.707 73.7051 205.475
-288.457 48.8796 177.331
-210.076 130.681 256.389
-241.562 103.463 234.47
-213.587 84.2011 275.167
-274.484 130.972 141.558
-265.125 118.929 186.413
-254.335 162.041 163.147
-28.4134 226.459 281.467
-76.4973 208.945 283.503
-48.6116 177.856 304.198
-128.44 255.121 218.937
-104.223 235.724 253.713
-82.2317 275.408 222.297
-138.224 134.339 304.619
-123.969 186.182 281.935
-165.49 162.044 274.533
-219.863 198.035 184.663
-195.674 181.997 234.067
-176.609 230.211 204.26
-112.646 307.184 70.8883
-122.053 291.496 33.4754
-82.5482 318.857 144.041
-99.094 317.853 108.432
-43.488 318.027 33.2468
-69.5103 323.015 71.8211
-27.7335 330.292 71.6613
28.8803 226.364 281.493
-0.00516996 257.427 257.541
55.6566 303.405 191.805
29.2433 284.697 227.211
84.0427 275.37 222.596
-29.0569 284.72 227.21
-55.0585 303.6 191.74
126.226 292.27 31.8087
116.176 307.722 70.3252
155.788 286.704 69.2694
27.3009 329.983 71.639
71.0534 322.586 71.5949
43.9105 317.703 32.5274
130.99 300.364 142.886
101.42 317.975 108.218
83.6637 318.514 144.208
-29.2956 327.982 149.072
29.2647 327.912 149.159
-0.248928 335.688 108.54
-104.786 283.642 0.496058
-138.364 264.91 0.0128313
-23.3905 303.778 -6.50176
-61.6093 298.255 -1.54377
-112.502 239.887 -159.531
-74.0963 251.809 -78.431
-70.7437 255.178 -154.263
139.471 267.657 -5.35975
110.701 282.649 -4.18369
76.6103 254.534 -154.333
87.0112 248.226 -77.1109
120.152 241.07 -158.701
64.1715 297.931 -2.9609
23.984 304.099 -7.08494
-31.1162 203.944 -286.581
-0.501811 227.349 -255.855
31.4211 203.748 -285.163
-54.7341 250.539 -192.052
-31.0879 243.35 -224.121
-80.4876 239.429 -221.822
86.5995 240.852 -223.235
32.3011 242.85 -224.09
58.6538 248.226 -194.068
-0.00496688 277.919 -71.7817
26.7022 261.231 -146.701
-27.8305 262.422 -147.356
-164.122 214.249 -58.7187
-179.753 239.532 12.1459
-140.626 226.776 -179.021
-154.908 219.43 -146.565
-210.69 181.373 -94.1033
-193.039 194.326 -119.533
-208.856 177.503 -144.26
-49.0579 166.69 -322.357
-76.8523 192.967 -292.58
-161.582 153.861 -281.823
-121.368 175.357 -290.812
-136.197 130.866 -317.911
-101.846 214.041 -256.509
-121.647 225.287 -220.456
-264.606 39.7486 -187.279
-254.579 67.9207 -214.145
-257.612 24.4294 -229.007
-230.15 141.306 -174.475
-244.427 107.734 -195.633
-250.491 111.23 -145.943
-210.339 80.5855 -282.661
-234.409 97.87 -239.604
-205.127 124.236 -261.742
-165.016 203.915 -208.279
-188.445 168.585 -238.128
-202.634 174.945 -192.321
-207.28 221.809 31.3366
-218.149 148.254 -48.7852
-216.538 193.481 0.522691
-233.672 197.893 58.1333
-255.119 169.951 82.0747
-270.142 -1.72613 -156.614
-273.73 41.079 -136.099
-261.838 42.573 -34.5207
-275.651 40.4122 -97.8642
-272.75 -6.57567 -69.2081
-269.085 77.4705 -115.56
-259.966 100.363 -97.8998
-289.882 51.555 146.867
-286.228 15.0301 158.977
-273.442 131.245 105.693
-282.755 90.1035 127.646
-284.845 6.69346 69.9031
-285.052 50.7178 102.696
-281.157 46.0523 56.1481
-258.766 105.706 -12.7053
-269.134 89.2988 20.3629
-266.871 128.805 56.888
187.511 268.076 94.4471
192.243 255.771 55.4817
159.198 271.173 171.715
177.561 275.448 131.987
246.666 205.288 102.979
217.77 242.116 118.344
242.152 211.341 139.558
50.127 177.796 304.074
78.9887 208.833 284.21
168.618 165.475 276.517
127.207 187.677 284.009
139.676 137.268 305.654
107.367 235.853 254.906
132.049 255.744 220.417
282.484 47.0808 180.187
268.678 77.6132 206.023
266.686 26.71 222.308
260.708 166.416 165.715
267.495 125.777 186.861
280.576 137.384 141.893
213.814 85.5523 275.135
243.105 108.576 234.567
212.812 135.55 257.465
181.501 232.158 206.952
200.368 185.544 236.731
225.826 201.293 187.818
-52.6499 127.523 324.488
-0.0193902 146.825 318.085
-140.473 85.8771 322.225
-100.413 106.914 327.833
-0.174197 39.0834 354.53
-52.1536 71.5107 341.773
-49.5169 21.4936 356.885
-261.394 -20.4848 220.077
-242.344 4.39432 252.112
-180.494 -53.1525 305.675
-213.219 -25.7913 282.952
-205.773 -77.22 273.65
-215.582 31.1967 282.679
-185.45 56.8065 304.932
1.2825 -144.247 340.467
-42.8474 -126.983 341.406
-40.7732 -167.245 317.435
-45.6321 -35.1713 361.437
-43.7719 -81.0202 357.08
1.00507 -57.0253 369.516
-131.16 -128.594 308.077
-92.6176 -106.321 336.979
-134.949 -83.9346 326.458
-143.437 27.7878 331.099
-141.785 -30.371 334.547
-96.9417 -3.88882 352.937
-277.357 -28.4527 141.472
-273.483 -30.8348 179.866
-275.759 -31.9084 46.2218
-282.233 -31.1501 91.7555
-250.133 -108.99 141.598
-269.294 -71.3112 117.216
-255.485 -111.795 91.162
-265.784 -45.0082 -187.958
-272.934 -43.5793 -139.352
-251.386 -114.219 -105.139
-266.169 -78.5244 -128.441
-252.315 -116.376 -153.686
-277.34 -34.507 -96.6472
-273.783 -32.9322 -35.2442
-176.566 -242.275 26.4458
-200.344 -218.147 1.56515
-174.477 -244.681 -26.2381
-238.844 -157.213 57.2988
-221.262 -188.694 29.5821
-218.938 -184.758 80.9176
-217.495 -178.406 -91.0095
-220.57 -188.96 -24.813
-236.468 -153.43 -59.9488
-265.537 -75.6468 6.52322
-251.883 -120.873 -31.3653
-253.76 -119.586 35.3496
-243.959 -1.1623 -262.291
-258.343 -27.7041 -228.838
-185.114 54.3107 -317.279
-216.237 26.6373 -292.402
-212.564 -83.5437 -283.423
-217.33 -28.4617 -292.858
-186.025 -55.5782 -317.227
-1.92255 141.213 -341.68
-50.9767 126.538 -349.384
-52.8715 31.3348 -376.988
-52.1305 79.8318 -368.652
-1.45018 51.8647 -375.844
-97.7575 107.307 -348.545
-139.905 85.4671 -338.786
-50.3419 -170.265 -322.975
-52 -128.898 -348.394
-0.573544 -143.982 -341.177
-141.249 -87.1169 -338.681
-99.2335 -109.642 -348.068
-138.426 -134.432 -319.114
-0.843224 -50.7288 -374.604
-52.5175 -79.7998 -366.565
-52.94 -29.9034 -376.492
-146.595 29.1006 -348.604
[...]
POINT_DATA 642
SCALARS Mean_Curvature double 1
LOOKUP_TABLE default
0.00792596
0.00796004
0.00653938
0.00751781
0.0120444
0.00523059
0.00509981
0.00557833
0.00370867
0.0146667
0.00593044
0.0113468
0.0134909
0.00681101
0.00590459
0.00592349
0.0054756
0.00728246
0.00911547
0.00715054
0.00261014
0.000402934
0.00628894
0.0122606
0.00698252
0.00553827
0.00422235
0.00455852
0.00269285
0.0074862
0.00189396
0.00790154
0.00545103
0.00739926
0.00504709
0.00488004
0.0137394
-0.000690201
0.00338416
0.00786218
-0.00222979
0.00179863
0.00510478
0.00899319
0.0087911
0.00792297
0.0055084
0.0155739
0.0073182
0.00611086
0.00655336
0.012422
0.00785664
0.00647299
0.00490425
0.00693925
0.0116149
0.00953147
0.00404011
-0.00774766
0.00593025
0.00349846
0.00881032
0.000901848
0.00638944
0.00833441
0.00252433
0.00768601
0.00801869
0.0030944
0.00954357
0.00742789
0.00233261
0.0103247
0.0129827
0.00464735
0.00043233
0.00807139
0.00619306
0.00713888
0.00667935
0.00851841
0.00690761
0.00474299
0.00539378
0.00157658
0.00721869
0.00714873
0.0104417
0.00742434
0.00696328
0.00272478
0.00521475
0.00692696
-0.00453338
0.00782245
0.00511855
0.00398293
0.00899227
0.00694038
0.00597023
0.00792744
0.00814178
0.00647056
0.00429465
0.00769245
0.00881658
-0.000229981
0.00721341
0.00854179
0.0107172
0.00669037
0.00562835
0.00453542
0.00563766
0.00785134
0.00689701
0.00456477
0.00481422
0.00668863
0.00601111
0.00353624
0.00915711
0.00532311
0.00738483
0.00981058
0.00318022
0.00593312
0.00835695
0.00799006
0.00704671
0.00877927
0.00958842
0.0061014
0.00905724
-0.000716588
0.00536818
0.00664348
0.00758999
0.00718494
0.0143126
0.00826867
0.00632201
0.0107022
-0.00139994
0.00550809
0.00743182
0.00689486
0.00770413
0.00557025
0.00419499
0.00718277
0.00791513
0.00769428
0.00187381
0.011392
0.0048887
0.00794799
0.00768408
0.00425374
0.0122605
0.00263195
0.00685575
0.00604818
0.00689303
0.0133542
0.0109996
0.00648702
0.0108792
0.0126612
0.00597957
0.00888569
0.00631667
0.0180779
0.00631918
0.0059549
0.0074345
0.0112059
0.00713668
0.00661109
0.00768288
0.00594838
0.00362329
0.00642639
0.00649638
0.00709454
0.00648241
0.00596566
0.00638658
0.00496954
0.006246
0.00567395
0.00729054
0.00781903
0.0100082
0.0100128
0.00763607
0.00700033
0.00710782
0.00740666
0.00573076
0.00627543
0.00771005
0.00655598
0.00781772
0.00676397
0.00749017
0.00719489
0.00694988
0.00657811
0.00614759
0.00689284
0.00979927
0.00974273
0.00916563
0.009294
0.00932206
0.00970712
0.00411537
0.00393104
0.00431189
0.00339696
0.00464702
-0.00633825
0.00812582
0.00527399
0.00529126
0.00715286
-0.0115761
0.0041266
0.00251027
0.00477221
0.00496962
0.00544837
0.00340867
0.00500404
0.00827418
0.0111839
0.0137693
0.00799133
0.00140163
0.0033471
0.00230612
0.00466609
-0.00313249
0.00289302
0.0101841
0.00514705
0.0171358
0.00465225
0.00758134
0.00701926
0.00766631
0.00678166
0.00720436
0.00748605
0.00822367
0.00971043
0.00467465
0.00992092
0.0100308
0.00527631
0.00712641
0.00553644
0.00683088
0.0100205
0.00738558
0.00885305
0.00949862
0.00817316
0.0070585
-0.0130483
0.00857088
0.00623739
0.00588939
-0.00110432
0.00710236
-0.00963234
0.00680802
-0.000781814
0.0102093
0.0063722
0.010415
0.00864915
0.00626871
0.0023638
0.0079855
0.00274527
0.00349377
0.00207557
0.00549096
0.00630907
0.00729154
0.00710786
0.0060168
0.0111657
0.00712137
0.0103327
0.0119009
0.00284644
0.0056451
0.00728064
0.00675501
0.00701226
0.00622894
0.00638473
0.0080335
0.00630459
0.00580539
0.00854593
0.0078733
0.0142609
0.00540505
0.00594393
0.00716242
0.00624069
0.00712352
0.00619898
0.0029842
0.00158655
0.00737348
0.00707253
0.00394855
0.00127697
0.00593264
0.00803309
0.00479323
0.00691429
0.00726374
0.00647027
0.00596491
0.0077235
0.0104924
0.00600941
0.00596222
0.00419298
0.00565674
0.0136375
0.00756607
0.00725608
0.00728701
0.00517935
0.00755145
0.00853089
0.00128875
0.00802906
0.0019816
0.00924336
0.00220164
0.00512167
0.00377747
0.00419765
0.00609968
0.00209537
0.00677894
0.00647924
0.0126275
0.00641776
0.00371747
0.00535346
0.00500078
0.00634237
0.00394246
0.00450414
0.00129805
0.00551133
0.00340097
0.00139508
0.00350728
0.00251943
0.0104928
0.00938602
0.00697886
0.00556955
0.00665571
0.00637889
0.00585824
0.00545716
0.00765245
0.00647477
0.00789748
0.00582884
0.00798121
0.00763369
0.00672219
0.00697245
0.00460796
0.00704607
0.00795059
0.00786868
0.00499694
0.00613389
0.00661228
0.00675666
0.00829392
0.00789377
0.00796058
0.00397095
0.0118227
0.00899618
0.00796082
0.00748216
0.00714995
0.00259782
-0.0103412
0.00721028
0.00445995
0.020745
0.00400142
0.0090035
0.0103674
0.0124922
0.00569504
0.00727585
0.00942114
0.00765689
0.00489614
0.0114897
0.0081051
0.011661
0.0109868
0.00899055
0.00523035
0.00585962
0.00441357
0.00437184
0.00506503
0.00414169
0.00575776
0.00556056
0.00487904
0.0097613
0.0101358
0.00908198
0.00791321
0.00878882
0.00773354
0.00268412
0.00598063
0.00392173
0.00828821
0.00568557
0.00694781
0.00460569
0.00620798
0.00451073
0.00725757
0.00731203
0.00734113
0.0044481
0.00701374
0.00465322
0.00405347
0.00776122
0.00524139
0.00457149
0.0109103
0.00598668
0.00856042
0.0068983
0.00770968
0.00484069
0.00480917
0.00401706
0.00557148
0.0049963
0.00788293
0.00370352
0.00386767
0.00867602
0.00615524
0.0112346
0.00553882
0.00474049
0.00565609
0.00463671
0.00478288
0.00667123
0.00582599
0.00535354
0.00659199
0.00490255
0.00611046
0.00828304
0.00738273
0.00452332
0.00475312
0.00692193
0.00784219
0.005628
0.0046989
0.00725431
0.00673769
0.00581664
0.00584043
0.00597309
-0.00342934
-7.03434e-06
0.0114453
-0.00543964
0.00598798
0.00780386
0.00841328
0.00809456
0.00676787
0.00579009
9.58031e-05
0.00533521
0.00440319
0.00467352
-0.0022276
0.00710039
0.00694045
0.00710142
0.00737943
0.00808435
0.00753433
0.0104001
0.00636779
0.0146195
0.0101526
0.0087304
0.0152487
0.00398076
0.00751702
0.00918352
0.00685293
0.0105146
0.00930274
0.0117884
0.00621344
0.00509349
0.00671931
0.00628252
0.00333757
-0.000864466
0.00568374
0.00387889
0.0124318
-0.00356324
0.0057541
-0.00207786
0.005426
0.00328593
0.00750734
0.00374157
0.00467031
0.00308135
0.00473538
0.00515469
0.000373876
0.00224508
0.00687503
0.00759889
0.00605574
0.00688365
0.00314592
0.00755348
0.00473792
0.00629974
0.00785269
0.00847174
0.0024371
0.00413559
0.000752268
0.00688362
0.00541412
0.0090604
0.0067864
0.0102826
0.0067786
0.00449421
0.00515498
0.00476409
0.00415456
0.00688503
0.00728239
0.0077011
0.00710845
0.00437198
0.00982049
0.00420626
0.00868589
0.00700822
0.00709552
0.00508313
0.00743537
0.00516876
0.0084299
0.0103368
0.00841451
0.00748694
0.00688443
0.00534105
0.00312137
0.00183812
0.00434656
-0.0033883
0.0111025
0.00721795
0.0099884
0.0097806
0.00781494
0.0129624
0.0110734
0.00954054
0.00465257
0.00863296
0.005383
0.0054082
0.00863451
0.0066426
0.00663428
0.00456939
0.00777275
0.00870135
0.00447862
0.00864748
0.0086998
0.00507411
0.00678085
0.00603488
0.00502235
0.00607887
-0.000128215
0.00295798
0.00747861
0.00745844
0.00680764
0.003784
0.00545772
0.00631431
0.00817764
-0.00772633
0.00691021
0.00634661
0.00696938
0.0128337
-0.0149815
0.00581127
0.00220956
0.00509703
SCALARS CoVolArea double 1
LOOKUP_TABLE default
1341.4
1388.68
1521.56
1495.95
1579.02
1984.81
1926.91
1966.19
1571.97
1377.87
1431.75
1315.85
1674.07
2396.66
2396.08
2453.85
1954.9
1579.85
1527.06
2408.33
2586.84
2936.63
2535.76
1703.95
2288.65
2552.29
2138.19
2227.52
2890.86
2458.18
2545.65
2393.98
2286.37
2292.87
2341.54
2333.96
1664.46
2711.59
2627.04
2397.24
2789.1
2967.57
1777.78
2280.65
1756.22
2168.8
2543.43
1625.2
2293.5
2585.5
2415.74
1946.76
1686.24
2360.48
2569.95
1810.28
2003.92
1807.12
3103.79
3945.8
3177.6
3536.87
2039.04
2297.07
2145.32
1694.85
2321.69
2253.86
2218.34
1873.74
1975.24
2074.38
3004.89
1752.74
2244.03
2191.78
1870.57
2340.48
1792.77
2405.91
2563.07
1913.35
2454.44
2401.03
2671.9
3066.35
2105.69
2500.37
2149.26
2575.72
2262.78
2388.13
1844.57
1651.96
2983.16
1875.61
2286.61
2340.49
2567.32
2124.11
2569.17
2649.73
2274.34
2719.2
2677.33
2274.05
2306.12
2890.49
1691.01
2183.63
2034.39
1739.38
1976.86
2437.34
2112.84
2032.61
2186.55
1950.01
2180.92
2326.24
2340.88
2371.76
1840.2
2146.73
2346.57
1779.76
2350.65
2067.16
2079.82
1879.39
2034.69
2033.39
2286.3
2779.95
2140.89
2829.57
1989.49
2341.39
2184.86
1490.73
1825.96
2198.3
2136.99
1891.73
3151.44
2331.54
2034.27
2592.6
2484.75
2707.78
2383.56
2225.16
2086.29
2184.31
2264.79
1936.67
2782.56
2746.87
2744.92
2153.39
2421.85
2984.26
1735.23
1756.67
1696.89
1977.44
1672.15
1585.14
1959.3
1829.38
2433.65
1933.89
2017.39
1463.2
2483.63
2242.84
2184.01
1711.96
2142.21
2229.48
2251.28
2392.77
2475.86
2541.14
2345.46
2252.55
2271.66
2378.2
2540.73
2787.67
2865.99
2878.25
1760.2
1581.32
2227.14
1772.7
1715.88
1721.8
1923.43
2292.73
2326.92
2531.25
2340.01
2318.02
2307.48
2481.48
1637.68
1815.54
1713.58
1968.68
1809.44
1799.14
2031.03
1837.22
2288.69
2588.06
2614.89
2249.5
2811.4
2698.14
2413.47
2573.15
2470.19
3799.31
2506.73
2555.53
2554.29
2910.33
3733.7
2299.1
2767.46
2472.35
2274.05
2288.4
2406.24
1827.61
1949
1681.63
1679.78
2014.01
2008.67
3158.64
3162.19
2895.47
3751.81
2478.79
1573.09
2553.06
2166.3
2183.38
1791.5
2238.68
2188.22
2389.1
2199.6
2247.46
1995.59
1862.16
1859.51
1811.31
1750.38
1872.99
1772.49
1801.56
2215.27
1942.03
2294.3
2112.41
2392.38
2094.75
1922.26
4215.95
2373.05
1859.97
1790.77
2075.59
1916.63
3697.67
2073.15
2394.52
1629.51
2721.01
1463.31
1496.66
1822.64
1658.85
1998.18
1860.62
2936.58
3283.93
2925.86
2357.9
1797.8
1722.11
2483.63
1933.48
1670.5
1787.54
2044.43
2525.2
2429.34
2500.1
2341.11
2284.69
2386.32
2573.79
1943.24
2235.57
2063.27
2158.73
2076.74
1635.35
2391.83
2338.47
2494.6
2863.91
2800.67
2739.81
2800.42
2825.45
2526.2
2459.15
2756.88
2762.83
2691.42
1915.99
2217.95
2419.23
2233.89
2121.49
2247.78
2482.48
2053.09
2298.27
2119.83
2557.46
2316.13
2188.14
2150.88
2342.72
2435.08
2878.52
2797.27
2893.77
1969.8
1674.51
2414.63
2006.23
2014.13
2091.19
2312.32
1810.77
1842.69
2451.25
1897.75
1638.52
1857.9
2702.3
1893.01
1921.18
1892.62
2166.29
1890.88
1981.33
2570.29
2177.34
2507.19
3326.41
3123.36
2750.54
2117.86
1764.1
2553.85
2284.91
2271.43
2301.62
2597.76
2452
2390.68
2783.87
2457.53
2609.97
2344.13
2572
2307.19
2498.66
2487.31
2631.32
2414.33
2273.64
2694.25
2590.58
2836.2
2937.17
3003.63
2958
2266.32
2440.31
1820.69
1994.24
2223.8
2190.83
2447.17
2833.15
4180.35
1737.46
2614.82
2149.83
2537.11
1564
1922.72
1771.22
1867.58
2385.07
2005.67
2224.76
1723.1
1661.72
1751.77
2100.75
2047.93
2491.01
1902.99
2062.95
1968.19
2420.94
2118.09
2072.78
2109.97
2116.39
2404.61
1818
1819.05
1625.06
2231.4
1955.41
2080.44
2110.5
1953.71
2330.62
1987.36
2256.58
2094.74
2408.33
2210.32
2219.06
2237.44
2210.61
2303.88
2643.08
2535.31
2680.95
2062.31
1834
2418.87
2194.6
1669.4
1950.16
1913.18
1997.81
2093.16
2408.08
2180.2
2200.77
2166.44
2398.24
1805.98
2008.32
1938.75
1892.6
1897.9
1611.34
2087.21
2158.99
2388.98
2692.55
2684.11
2548.93
1894.58
1804.7
1994.73
1891.67
2217.48
1881.62
2228.04
1834.12
1900.59
2325.24
1914.87
2354.72
1851.84
1956.33
2148.07
2522.66
2165.54
2667.73
2970.58
2416.04
2182.81
2848.79
2685.91
2310.69
2411.08
2393.4
1966.48
1835.44
2853.31
2429.77
2513.6
2540.12
2746.34
2338.56
2214.15
2440.33
2239
2258.01
2076.35
2383.55
1793.91
1697.02
1914.68
1884.53
1420.81
1911.87
2242.17
1980.72
2393.03
2522.71
2334.89
2252.43
1887.11
2607.61
1894.57
1920.9
2239.2
2159.28
1841.66
2815.33
1981.99
2483.85
2135.31
3069.34
1986.71
1843.24
2255.05
2114.58
1975.99
2015.01
2530
3126.77
3260.31
2623.18
2290.94
2465.69
2420.9
2321.45
2599.12
2224.35
2679.46
2356.2
2179.37
2370.22
2851.75
2782.82
2862.24
2513.39
2658.33
2708.52
2850.39
2845.7
1969.23
2381.83
2087.37
2052.72
2331.93
2189.77
2248.6
2105.1
2108.5
2345.65
1846.57
2162.37
1814.71
1970.42
2233.5
2564.38
2433.98
2475.64
2156.14
2238.13
1929.65
2211.12
2433.71
2254.43
2225.84
2655.08
2474.06
2621.37
1779.38
2360.19
1992.91
1621.54
1730.65
2227
1986.58
2362.93
2388.86
2593.12
2466.45
2460.79
2592.16
2570.14
2893.24
2640.15
2416.5
2551.4
2594.02
2541.56
2401.81
2602.76
2878.7
3105.57
3179.51
3107.73
2097.8
2774.84
1955.28
1773.01
1771.66
2013.21
2936.24
1787.54
2212.84
3519.93
1994.55
1853.81
1858.28
2287.9
4163.03
2955.73
3533.78
2479.33
SCALARS SignedDistance double 1
LOOKUP_TABLE default
190.84
187.631
174.984
167.204
136.622
137.98
137.076
143.04
172.128
167.026
178.709
173.964
179.607
131.169
135.592
133.692
184.89
187.422
191.398
136.19
199.87
204.225
130.081
172.302
141.638
133.32
198.135
183.958
119.311
130.98
191.659
126.788
176.136
135.973
159.199
162.694
154.124
172.602
163.913
126.784
188.885
196.768
182.689
156.391
167.227
142.182
146.24
178.512
128.347
132.453
134.495
163.348
187.561
128.425
130.804
185.517
162.632
163.89
219.899
217.891
218.311
216.937
168.899
193.301
168.791
195.8
219.475
131.893
160.954
183.838
174.96
156.217
198.965
202.636
221.735
193.301
185.586
149.262
177.448
135.428
128.57
168.861
139.592
141.983
136.011
140.501
153.302
133.247
122.645
126.537
135.8
196.265
180.449
184.491
201.306
180.698
189.074
181.99
129.002
154.814
122.246
116.057
126.669
116.97
121.745
154.817
131.3
216.362
187.385
147.384
166.417
179.932
172.74
165.552
164.187
146.846
161.823
172.402
151.254
152.576
134.219
162.255
159.503
153.545
157.774
164.75
164.415
169.081
152.879
161.656
169.493
157.094
155.99
155.413
157.574
180.815
173.655
128.477
153.596
180.254
169.766
147.588
181.937
196.306
197.809
185.437
182.317
124.988
128.47
136.026
171.391
156.505
168.337
153.736
189.637
172.193
125.774
117.561
117.429
185.8
214.902
193.87
187.085
174.446
179.42
169.699
172.465
180.14
153.128
163.097
143.453
157.361
155.778
176.436
136.616
143.079
134.173
177.759
160.808
160.763
132.032
132.662
138.203
132.416
130.196
129.235
131.012
131.451
131.916
147.39
137.122
138.629
176.625
189.106
148.862
163.916
186.685
174.601
174.206
132.016
128.548
130.982
127.444
128.469
127.463
130.989
186.819
174.22
175.963
172.966
173.223
184.938
149.151
161.988
147.76
144.519
144.439
162.669
196.936
198.507
197.088
196.468
198.77
217.144
206.067
197.471
196.019
201.061
212.252
192.814
193.989
196.018
154.807
169.979
154.708
193.002
185.421
182.011
182.846
184.937
190.69
219.708
210.101
214.128
216.633
198.313
192.401
201.072
220.924
210.06
200.467
138.368
147.318
145.95
143.978
131.638
162.107
178.77
179.311
174.981
171.088
187.183
180.304
192.582
144.594
165.565
154.256
180.673
167.668
184.801
196.64
213.13
205.864
192.207
188.832
184.189
192.512
211.542
206.149
212.401
202.996
210.013
185.82
184.123
186.417
183.892
197.684
189.066
198.868
214.946
207.078
198.283
169.935
182.563
139.278
157.146
173.705
165.705
161.729
138.085
132.343
128.046
129.417
129.524
128.7
129.664
169.397
155.214
154.028
154.174
153.667
170.905
134.3
141.476
133.052
133.495
130.939
140.783
139.106
139.659
130.198
135.891
138.332
139.547
137.325
162.587
149.075
136.817
140.846
146.911
139.181
131.461
127.989
129.153
136.268
130.623
126.457
126.95
137.638
129.123
131.865
130.956
129.352
129.792
181.146
177.485
201.162
194.369
181.838
188.133
190.05
179.751
189.978
202.06
194.17
190.14
205.609
206.537
177.753
181.493
178.035
188.18
184.839
181.514
192.899
185.411
193.959
195.579
193.924
193.66
157.484
171.842
130.918
141.31
140.066
141.418
129.503
131.216
126.883
118.31
118.741
117.866
121.815
123.607
132.937
124.097
127.315
120.343
118.936
126.448
119.37
119.905
117.806
120.268
114.839
120.017
148.805
138.572
175.704
160.15
125.374
139.372
137.503
193.499
209.895
191.457
199.011
210.924
192.727
186.481
165.089
167.983
174.222
143.158
154.444
133.803
185.391
175.161
181.542
176.272
179.416
158.538
169.676
167.787
166.375
170.422
170.538
176.063
162.142
165.451
161.636
155.805
163.96
170.248
149.105
155.458
140.09
172.728
166.92
169.475
144.763
143.486
135.448
157.081
151.537
155.775
134.149
143.035
144.386
165.255
156.629
160.779
164.042
163.59
161.499
162.637
155.892
161.142
158.291
146.058
150.611
159.478
156.254
158.814
154.743
158.062
170.639
169.611
173.751
160.243
164.769
158.85
166.668
166.139
164.102
161.998
162.778
161.92
160.925
165.031
154.222
156.675
159.451
156.315
154.45
173.084
167.803
159.535
162.781
167.367
161.453
156.491
146.847
156.857
146.911
157.219
164.165
171.234
173.213
166.87
162.151
152.666
153.424
151.649
168.467
169.788
172.206
166.177
178.845
173.132
185.723
132.647
141.106
137.347
138.44
125.248
154.951
173.056
175.329
170.583
165.275
181.489
177.791
183.249
133.844
155.426
143.369
174.599
158.458
178.74
173.344
182.78
177.4
176.757
181.623
177.845
183.561
197.377
200.357
206.002
187.472
193.47
176.827
172.408
182.332
178.089
190.197
186.322
190.047
188.533
189.593
188.019
128.207
127.223
127.264
125.522
130.469
141.956
131.001
134.939
134.747
129.608
138.962
136.592
139.364
136.466
130.256
123.333
128.517
128.712
173.963
166.747
170.994
176.178
177.04
145.056
148.389
145.936
155.042
161.445
170.815
177.658
176.418
161.377
154.528
166.25
161.36
172.102
140.358
170.261
153.766
137.431
139.44
176.606
193.34
185.722
176.692
182.876
173.349
148.416
161.23
178.998
185.139
176.625
181.68
161.856
148.791
123.699
134.654
134.651
123.698
123.662
118.065
119.853
120.123
117.436
127.727
117.441
120.756
120.399
117.384
118.593
117.598
118.599
173.242
190.985
184.721
177.348
179.914
183.015
200.532
192.513
199.776
206.443
191.617
182.664
186.945
202.221
210.355
199.408
208.859
190.819
