# vtk DataFile Version 4.2
vtk output
ASCII
DATASET POLYDATA
POINTS 642 double
-189.094 315.126 18.1189
192.138 317.036 17.3971
-183.571 -312.194 -1.33207
188.938 -316.606 -1.96936
0.715305 -207.781 347.501
0.0313936 214.484 338.044
-0.241972 -208.303 -347.623
-0.962056 205.898 -346.888
323.373 -0.22894 -215.997
327.47 0.206593 212.047
-318.242 -1.16305 -215.342
-324.996 4.31617 208.469
-307.076 194.322 127.016
-200.162 123.635 326.64
-121.669 325.149 202.984
123.071 325.5 203.492
-0.192083 374.326 17.5173
119.615 296.955 -203.651
-115.362 295.132 -201.245
-199.937 122.59 -333.802
-283.475 175.832 -131.876
-338.749 -1.01441 8.52285
200.896 125.376 327.145
311.764 196.586 128.435
-195.637 -120.335 326.208
0.23982 -5.06762 406.536
-288.024 -176.187 -133.283
-285.361 -176.695 121.548
-0.533263 0.384242 -416.173
-201.412 -124.545 -334.763
290.538 179.233 -136.096
203.835 125.016 -336.659
291.201 -179.875 121.54
199.606 -121.096 329.747
114.333 -301.087 193.505
-112.329 -298.922 192.896
0.586573 -383.328 -1.25372
-114.252 -297.658 -196.132
114.032 -302.205 -194.538
203.833 -125.032 -336.663
285.221 -175.154 -131.484
345.224 0.251672 7.81769
-256.293 265.813 75.5683
-228.553 272.625 169.565
-166.812 338.493 109.645
-276.637 64.3383 278.505
-268.829 167.323 235.778
-331.841 99.8265 174.67
-63.8324 281.838 284.392
-168.375 236.213 277.431
-105.55 174.832 345.583
-63.7714 377.729 111.298
-100.137 359.807 17.7517
64.4198 281.691 284.436
-0.00951233 343.028 214.686
101.629 359.777 17.2978
63.9273 377.417 111.398
168.921 339.685 109.644
-51.0738 329.758 -89.3403
-147.477 288.615 -94.5011
152.401 297.199 -97.1802
53.1097 329.978 -88.5613
-64.2485 265.078 -282.277
-0.404598 306.581 -209.484
66.5237 265.086 -281.769
-214.111 248.263 -173.023
-244.233 241.177 -51.5316
-105.063 173.071 -356.626
-165.263 226.56 -278.433
-312.745 93.8823 -177.694
-263.281 161.118 -237.545
-274.869 61.5725 -282.266
-298.252 191.539 21.08
-339.084 -0.7073 -112.054
-328.971 95.1759 -69.9538
-338.208 100.505 77.778
-342.707 7.84359 118.262
231.974 274.276 171.727
260.658 268.603 74.989
107.077 175.823 346.76
171.012 237.63 279.409
330.987 104.865 174.821
272.241 170.62 237.481
276.425 63.4063 279.041
-107.143 63.1789 382.721
-0.0368228 106.264 379.967
-272.013 -59.9545 276.876
-209.823 0.246865 343.858
0.715008 -112.14 397.194
-105.562 -66.5151 388.18
-101.558 -171.185 349.977
-328.724 -88.2025 70.2149
-315.555 -90.1071 175.661
-316.432 -97.4395 -179.732
-321.554 -89.1641 -74.0141
-243.042 -253.65 60.4774
-291.433 -187.622 1.78168
-240.316 -253.631 -58.7024
-213.66 -0.28368 -354.458
-275.93 -62.9862 -282.704
-1.10909 111.149 -399.93
-108.943 66.8296 -399.19
-106.257 -175.213 -357.574
-109.334 -66.6129 -398.212
-0.517641 -111.417 -398.512
169.135 229.576 -280.882
108.048 174.368 -357.091
248.501 240.975 -52.7406
219.939 252.001 -176.962
280.023 65.0828 -284.879
270.564 165.288 -240.305
322.391 98.6207 -181.725
247.87 -257.221 59.6761
214.792 -252.996 164.501
157.775 -319.363 96.6469
276.499 -61.8393 280.895
262.647 -157.953 236.419
319.62 -91.4205 177.813
60.2368 -263.696 280.742
163.525 -223.346 275.877
102.633 -171.462 351.091
58.8927 -355.465 95.0568
99.3278 -364.603 -2.2101
-59.5849 -263.079 280.445
0.755241 -318.229 204.907
-96.4343 -362.626 -1.82798
-57.052 -354.127 94.683
-154.61 -316.241 96.3146
60.4565 -362.787 -100.387
157.75 -325.176 -97.8392
-153.499 -321.15 -97.5891
-58.2813 -361.533 -100.108
65.0788 -265.328 -285.665
0.448255 -322.785 -200.325
-66.2946 -266.604 -285.677
214.966 -248.24 -170.377
246.486 -258.797 -59.0316
107.059 -174.499 -357.149
168.983 -229.188 -281.297
322.257 -98.4878 -183.498
271.413 -165.455 -240.056
280.086 -65.123 -284.83
298.334 -192.093 0.720031
344.926 0.0812131 -113.807
327.031 -88.3801 -70.8984
335.655 -92.0785 70.1156
348.379 3.23 114.332
107.639 -66.3543 390.198
212.137 -1.74982 347.791
108.726 62.2442 384.212
-211.255 -249.572 164.069
-161.176 -222.407 274.494
-258.575 -156.871 232.841
-167.57 -229.785 -280.735
-216.748 -249.401 -176.255
-267.165 -164.593 -238.646
214.373 0.00279799 -352.882
110.001 -67.6755 -397.975
109.907 67.7124 -397.991
343.026 102.891 76.1285
335.224 96.26 -70.8561
303.399 194.645 19.1075
-224.178 293.975 46.0968
-215.64 305.39 93.8846
-180.255 329.567 63.5441
-273.203 236.573 148.665
-248.418 274.391 122.77
-284.329 232.764 102.244
-147.165 336.925 155.433
-200.943 310.323 141.213
-177.678 302.703 188.428
-305.482 33.7521 245.58
-308.038 83.3902 228.305
-333.31 52.3083 193.325
-238.121 147.373 284.886
-275.275 116.954 260.25
-241.377 94.545 305.94
-321.168 148.675 151.094
-303.005 134.996 206.043
-292.22 182.851 180.397
-32.0915 250.453 315.584
-85.4812 231.643 318.032
-53.1985 196.572 343.629
-146.409 284.755 243.279
-117.865 262.121 283.167
-93.7561 306.907 246.665
-154.259 150.55 340.013
-138.852 207.776 315.052
-186.461 181.713 305.698
-251.661 222.806 205.457
-222.391 204.425 260.153
-201.425 258.044 227.079
-134.051 354.658 64.2856
-146.794 340.56 17.6862
-94.2911 357.358 157.232
-116.238 362.195 111.878
-51.5085 371.305 17.7013
-82.5883 372.658 64.9951
-31.9964 381.41 64.9389
32.3631 250.392 315.602
0.00152265 285.703 287.595
62.6966 338.948 212.122
32.7778 316.847 252.3
94.765 306.968 246.907
-32.6757 316.862 252.298
-62.3712 339.047 212.099
149.253 341.477 16.8775
135.975 355.251 64.0453
183.06 331.164 63.2171
31.7125 381.068 64.9739
83.3264 372.365 64.9443
51.6293 370.986 17.4055
148.624 337.344 155.942
117.388 362.306 111.919
94.9219 357.245 157.377
-32.9365 367.033 163.041
32.9427 367.004 163.08
-0.122377 382.562 112.616
-127.223 334.539 -23.8654
-168.573 312.624 -23.7617
-29.079 359.069 -28.0081
-76.6437 351.514 -24.9651
-135.277 295.392 -163.016
-98.4513 308.194 -92.2403
-85.6857 312.398 -161.477
169.831 314.877 -27.4841
130.581 334.517 -27.1096
89.1986 311.564 -161.546
105.561 307.853 -92.2276
139.899 296.585 -162.874
78.1418 351.29 -25.9561
29.237 359.242 -28.3029
-33.4871 237.675 -317.325
-0.247901 266.908 -283.778
33.7147 237.383 -316.188
-61.1786 305.403 -207.861
-33.3166 291.412 -246.018
-91.8032 285.353 -242.717
95.2846 287.207 -243.774
34.1281 291.05 -245.742
63.5316 304.424 -208.946
-0.164099 336.78 -89.7646
30.7715 318.579 -159.443
-31.5222 320.169 -159.855
-195.817 266.144 -72.5295
-217.129 283.262 -7.28233
-167.313 275.788 -189.501
-184.719 272.359 -148.935
-260.85 216.477 -97.9255
-231.071 241.874 -124.453
-253.314 215.423 -151.974
-53.8235 191.938 -355.702
-85.7416 223.253 -323.132
-184.737 177.659 -310.216
-137.796 202.386 -320.494
-154.205 149.693 -349.279
-116.038 249.258 -283.242
-141.959 267.256 -241.319
-318.558 47.3902 -199.201
-301.67 80.6282 -231.82
-301.976 29.7116 -249.186
-277.326 170.632 -185.201
-292.467 129.02 -209.841
-302.128 136.156 -154.002
-240.503 92.9532 -311.053
-271.88 114.026 -262.34
-235.764 144.092 -287.998
-194.697 243.186 -226.886
-218.148 196.906 -261.139
-241.499 209.55 -207.15
-250.685 260.295 17.5951
-275.799 177.81 -55.5834
-268.464 225.009 -14.4326
-281.47 229.975 47.554
-305.956 195.772 75.0152
-326.694 -1.30121 -166.405
-329.57 48.0067 -145.481
-326.231 47.0262 -34.8035
-336.777 47.1471 -96.3384
-337.903 -2.99661 -64.8595
-325.042 93.9806 -122.2
-313.657 129.035 -100.573
-346.184 54.0703 149.966
-341.507 7.5967 166.218
-327.563 148.054 104.124
-338.614 101.109 127.928
-345.711 4.35924 65.5907
-344.443 53.9883 99.959
-342.347 50.984 48.3445
-315.297 134.13 -21.8906
-331.1 100.507 11.8064
-323.558 148.487 47.589
218.864 307.652 93.5286
227.95 296.397 45.7544
180.104 303.769 189.824
203.138 311.349 141.997
288.92 235.184 102.65
251.864 276.169 123.598
277.192 238.597 150.785
54.0915 196.535 343.591
86.9052 231.676 318.622
188.584 183.984 307.483
140.838 208.936 316.78
155.216 152.359 341.058
119.694 262.428 284.108
148.59 285.474 244.416
330.813 51.7758 195.613
308.159 85.5454 228.409
305.587 30.8766 246.495
296.905 186.011 182.513
305.819 138.941 206.983
325.669 152.551 152.276
241.608 95.3001 306.084
276.629 119.864 260.666
240.128 150.311 286.1
204.661 259.814 229.082
225.613 206.971 262.401
255.814 225.472 207.777
-55.6467 142.854 366.144
0.00280605 162.609 360.034
-156.114 96.177 359.539
-109.06 120.273 367.531
-0.0748937 49.4055 397.073
-55.5979 83.8552 384.446
-54.2151 28.7911 399.011
-301.677 -27.7688 244.269
-277.449 2.27552 280.908
-205.595 -61.333 339.614
-243.586 -30.848 314.352
-236.462 -90.6608 304.195
-245.152 33.5953 314.551
-208.352 63.1578 339.361
0.699621 -162.98 376.203
-50.6484 -143.738 378.102
-49.0988 -191.488 351.692
-52.2164 -36.206 402.272
-51.4358 -89.9362 395.848
0.60616 -59.896 408.835
-150.462 -147.494 341.704
-105.184 -120.445 373.565
-153.419 -95.3325 362.187
-160.661 32.117 369.07
-160.078 -33.6916 371.457
-107.902 -2.08103 392.486
-333.021 -40.6477 147.898
-324.065 -43.545 194.008
-338.345 -41.9284 41.8545
-340.93 -41.9853 93.2121
-301.23 -133.618 151.158
-324.377 -89.6225 123.333
-310.783 -134.481 96.4953
-320.094 -50.3084 -199.488
-329.621 -49.9586 -147.289
-309.286 -136.574 -105.567
-323.49 -95.0453 -129.697
-305.291 -139.786 -158.001
-337.582 -44.084 -96.3161
-335.171 -41.2885 -36.0393
-215.024 -283.833 29.8014
-244.277 -255.797 0.777165
-213.95 -285.322 -30.0097
-290.966 -184.893 61.5214
-270.021 -221.543 31.7608
-265.479 -217.488 90.0519
-264.199 -212.584 -97.3179
-269.369 -221.712 -28.9698
-289.126 -181.722 -64.0945
-325.981 -91.0645 4.20422
-310.079 -141.147 -33.9372
-311.623 -140.636 35.5911
-280.054 -0.588641 -287.838
-302.844 -31.3775 -249.28
-209.684 62.33 -348.372
-246.849 31.4164 -321.431
-241.878 -94.562 -311.773
-247.582 -32.3274 -321.899
-210.184 -62.9323 -348.389
-1.07944 161.47 -377.044
-55.3804 144.286 -384.321
-56.8368 34.5422 -414.152
-56.4004 89.9069 -404.697
-0.834993 57.4236 -413.273
-108.791 121.847 -382.433
-157.328 96.8603 -371.6
-54.5956 -193.993 -356.34
-55.9245 -145.454 -383.719
-0.37511 -162.847 -376.705
-158.025 -97.6607 -371.562
-109.537 -123.025 -382.179
-155.575 -151.771 -350.322
-0.489062 -56.7397 -412.331
-56.5605 -89.773 -403.222
[...]
POINT_DATA 642
SCALARS Mean_Curvature double 1
LOOKUP_TABLE default
0.00710167
0.00706249
0.00599796
0.00650159
0.00875686
0.00531087
0.0046101
0.00515142
0.00704617
0.00970997
0.00910187
0.00594116
0.00956334
0.00562838
0.00527702
0.0052253
0.00498774
0.00866941
0.00731086
0.00585097
0.00389863
0.00216574
0.00531967
0.0091012
0.00571561
0.00537798
0.00461831
0.00389188
0.00312447
0.00600197
0.00360878
0.0062375
0.00431641
0.00593441
0.004435
0.00424363
0.00902562
-0.000774622
0.00210674
0.00622819
-0.00115091
0.00254048
0.00494435
0.00468262
0.00761886
0.00609916
0.00518425
0.00901997
0.00589826
0.00521921
0.00535404
0.00903029
0.00656098
0.00543564
0.0047742
0.0060615
0.00871548
0.00775258
0.00130977
-0.00368158
0.00451164
0.000831806
0.0061806
0.00394147
0.00488213
0.00671791
0.00220581
0.00604743
0.00562817
0.00364573
0.00754258
0.00536397
0.00369989
0.00715507
0.00804762
0.00407861
0.000785056
0.0050416
0.00549962
0.00606365
0.00555179
0.00744328
0.00578961
0.00430008
0.00483291
0.00215979
0.0057881
0.00574038
0.00756786
0.00582881
0.00562317
0.00348821
0.00646438
0.00628004
-0.0023826
0.00609829
0.00453701
0.00407808
0.00696706
0.00493875
0.00505043
0.00614463
0.00625121
0.00544352
0.00403752
0.00565331
0.0066996
-0.000117317
0.00771268
0.0061453
0.00700031
0.00708037
0.00485133
0.00403462
0.00480384
0.00607047
0.00631481
0.00526726
0.00474923
0.00579869
0.00508342
0.00363916
0.00697621
0.00508587
0.00584743
0.00742956
0.00344935
0.00492207
0.00640626
0.00625563
0.00582376
0.00659702
0.0075258
0.00506221
0.00758625
-0.000296025
0.00482274
0.00562813
0.00601898
0.00819067
0.00720835
0.00603486
0.00534077
0.00737019
-0.00125214
0.00512148
0.00499356
0.00558099
0.00621924
0.00509397
0.0037852
0.00602242
0.00612473
0.00579528
0.0049939
0.0073883
0.00444401
0.00613342
0.00604264
0.0042452
0.00753328
0.00389693
0.00580285
0.00597378
0.00570014
0.00757502
0.00924704
0.00689015
0.00633769
0.00850774
0.0048753
0.00685512
0.00502894
0.00820034
0.005387
0.00538379
0.00593406
0.00695732
0.00456297
0.0043032
0.00614061
0.00507991
0.00409631
0.00546687
0.00542681
0.00581648
0.00540026
0.00508571
0.0053299
0.00476595
0.00530861
0.00520943
0.00605827
0.00647704
0.00616244
0.00802564
0.00652078
0.00606737
0.00638068
0.00595406
0.00500482
0.00549009
0.00615138
0.0054864
0.00621567
0.00576318
0.00621632
0.00602696
0.00581667
0.00601665
0.00564175
0.00602206
0.00595932
0.00772526
0.00585312
0.00585432
0.00586445
0.00773374
0.0051618
0.00486958
0.00444227
0.00443959
0.00600446
-0.00687906
0.00687196
0.00515271
0.00533731
0.00549017
-0.00882847
0.00432202
0.00393465
0.00465725
0.00479871
0.00400626
0.00344115
0.00672522
0.00615972
0.00767054
0.00885442
0.00537879
0.00561135
0.00255847
0.0019956
0.00391463
-0.0051828
0.00398204
0.00763166
0.00596065
0.00899886
0.00505462
0.00612378
0.00601622
0.00605121
0.00564529
0.00589708
0.00602022
0.00579708
0.00700733
0.00597516
0.00832931
0.0064106
0.00563572
0.00728473
0.00430303
0.00565874
0.00597924
0.00568556
0.00744219
0.00601906
0.00679651
0.00533446
-0.0101232
0.00598372
0.00556876
0.00571378
0.000228813
0.00405214
-0.00803807
0.00724641
0.00420093
0.00654334
0.0059637
0.0116423
0.0105511
0.00656431
0.00560977
0.00622025
0.00332796
0.00363632
0.00236333
0.00433436
0.00543913
0.00644648
0.00602667
0.00505781
0.00746375
0.0066852
0.00830615
0.00736642
0.00357645
0.00487057
0.00584175
0.00551084
0.00560732
0.0052705
0.00540967
0.00696029
0.00451187
0.00448187
0.00525424
0.0054711
0.00857059
0.00475481
0.0052561
0.00583745
0.0054363
0.0057891
0.00531376
0.00347787
0.00218804
0.00583681
0.00589893
0.00388746
0.00236054
0.00551805
0.00548807
0.00449474
0.00571791
0.00586389
0.00544831
0.0054465
0.0059476
0.00760888
0.0052278
0.00519012
0.00405265
0.00499002
0.00948431
0.00601023
0.00576339
0.00587613
0.00463857
0.00604042
0.00657977
0.00204892
0.00782236
0.00298136
0.00698956
0.00288819
0.00388073
0.00405277
0.00614341
0.00377482
0.00389458
0.00617618
0.00621728
0.00879673
0.00243026
0.00378845
0.00477571
0.00457185
0.00505778
0.00407893
0.00414052
0.000557573
0.00481907
0.00250222
0.0017417
0.00343256
0.00318465
0.00705988
0.00643318
0.00574045
0.00504665
0.00554325
0.0055845
0.00509676
0.00478383
0.00625541
0.00574197
0.00628805
0.00492726
0.0062145
0.00608009
0.0058487
0.00590036
0.00412972
0.0056721
0.00612819
0.00619742
0.004482
0.005424
0.00566299
0.00559605
0.00645139
0.00628724
0.00689145
0.00394212
0.0070468
0.00605313
0.00627436
0.00596927
0.00589301
0.00416133
-0.00882943
0.00644743
0.00449566
0.00964813
0.00435803
0.00908249
0.00630537
0.00840368
0.00721304
0.00583898
0.00583756
0.00613634
0.00564217
0.00849121
0.00787295
0.00765227
0.00810323
0.00578884
0.00461292
0.00497102
0.00416782
0.00391066
0.00463083
0.00415633
0.00492651
0.00484526
0.00428897
0.0062522
0.00713305
0.0086701
0.00610553
0.00643998
0.00608554
0.00293865
0.00629285
0.00411216
0.00664223
0.00500171
0.005774
0.00447134
0.00550787
0.00428949
0.0058389
0.00585731
0.00587126
0.00447795
0.00604583
0.00458288
0.00417827
0.00626577
0.00462962
0.00408494
0.00782914
0.00537356
0.00671933
0.00590311
0.00649933
0.0042928
0.00448861
0.00412206
0.00483821
0.00446861
0.00648428
0.00395393
0.00394814
0.00683907
0.00548854
0.00803987
0.0048386
0.00409469
0.004881
0.00430781
0.00435249
0.00534824
0.00528588
0.00490088
0.00539222
0.00467074
0.00545187
0.00636848
0.00599566
0.0044297
0.0046016
0.00583383
0.00621015
0.00487519
0.00455085
0.0057771
0.00557037
0.00555453
0.00498637
0.00448954
-0.00104387
0.00346922
0.00824645
-0.00129129
0.00379987
0.00611384
0.0064794
0.00631025
0.00573607
0.0050247
4.07894e-05
0.00495139
0.00375626
0.00420557
-0.000329621
0.00583968
0.00560098
0.00591365
0.0060155
0.00632271
0.00622978
0.00733004
0.00767551
0.00873642
0.00615082
0.0102925
0.0107448
0.00630555
0.00610938
0.00550142
0.00576252
0.00848906
0.00590615
0.0104946
0.00533389
0.00440548
0.00549352
0.00519198
0.00339909
0.00052277
0.00321768
0.00158814
0.00925531
0.00248272
0.00525738
-0.000735897
0.0044879
0.00514498
0.00624033
0.00293528
0.00542871
0.00441633
0.00368149
0.00503738
0.0014623
0.00296289
0.00571032
0.00605764
0.00506337
0.00550692
0.00370007
0.00606261
0.0043347
0.00538132
0.00623862
0.00650311
0.00303857
0.00435112
0.00193141
0.00585035
0.00452563
0.00679278
0.005702
0.00753457
0.00542358
0.00403321
0.00463405
0.00441793
0.00358496
0.00555458
0.00583843
0.00606357
0.00607622
0.00452307
0.00650138
0.00510924
0.007079
0.00554188
0.00574943
0.00500428
0.00607483
0.00525898
0.0064127
0.00754126
0.00644712
0.00605392
0.00577294
0.00502077
0.00453844
0.000868832
0.00271395
0.00113427
0.00834677
0.00575642
0.00585873
0.0081019
0.00747038
0.0092586
0.00926293
0.00573885
0.0039386
0.00660796
0.00503908
0.00504505
0.00660605
0.00551738
0.00570822
0.00442497
0.00622977
0.00659796
0.00429928
0.00657966
0.00660982
0.00466056
0.00567349
0.00524973
0.00467782
0.00527061
0.00176726
0.00389332
0.0053564
0.00695736
0.00717973
0.00261921
0.00491337
0.00429176
0.00718322
-0.00622676
0.00529083
0.00588256
0.00593478
0.007443
-0.00985893
0.0040686
0.00210828
0.00490896
SCALARS CoVolArea double 1
LOOKUP_TABLE default
1928.36
1972.03
2055.37
2061.85
2230.77
2461.54
2463.81
2473.38
2153.33
2074.65
2011.2
2050.96
2622.69
3126.67
3139.42
3178.37
2693.45
2441.15
2402.25
3161.17
3061.17
3257.12
3220.7
2656.91
3047.71
3216.61
2751.25
2853.21
3488.14
3198.27
3015.1
3170.47
2925.83
3074.32
2992.46
2977.17
2574.95
3264.33
3233.01
3170.7
3155.34
3275.81
2514.68
3159.69
2609.35
2874.99
3251.88
2570.48
2985.87
3309.52
3046.46
2922.9
2435.01
3028.63
3329.5
2525.75
2956.33
2655.09
3658.89
3779.16
3452.99
3858.49
2827.72
2928.89
2899.03
2575.97
3030.93
2986.88
3102.81
2580.74
2907.09
2878.54
3332.44
2481.63
3036.42
2838.96
2506.26
3197.09
2555.92
3042.35
3310.95
2711.11
3228.8
3032.04
3372.2
3413.44
2839.83
3268.89
2928.46
3340.98
2965.34
2974.45
2531.55
2441.41
3367.26
2548.49
2950.6
2890.1
3356.03
2917.92
3200.12
3434.46
3007.81
3472.22
3260.75
3172.52
3022.76
3387.72
2573.61
2962.12
3018.8
2510.1
2631.84
3102.12
2746
2821.79
2977.59
2618.05
2846.72
3093.22
3018.74
3068.25
2580.88
2820.25
3076.74
2527.91
3049.44
2705.16
2907.43
2602.97
2718.16
2871.62
2904.87
3358.75
2822.68
3351.23
2666.94
3045
3053.88
2313.35
2877.69
2976.25
2857.68
2579.05
3536.97
2964.41
2669.5
3363.83
3274.85
3398.53
3047.15
3018.09
2909.36
3092.33
2892.49
2938.34
3489.19
3486.58
3486.99
2851.32
3193.14
3337.98
2439.03
2569.38
2467.66
2943.78
2564.78
2413.07
2794.25
2721.88
3221.02
2722.03
2839.29
2427.22
3219.37
2930.69
2884.86
2585.86
2910.05
3092.18
2913.77
3052.4
3033.02
3258.52
3027.83
2935.66
2950.82
3047
3267.02
3631.64
3655.15
3672.25
2577.42
2323.08
3120.56
2659.84
2444.8
2562.89
2810.12
2939.91
3024.46
3287.13
3029.42
2979.8
3009.08
3255.81
2386.75
2619.84
2494.02
2837.15
2618.05
2502.32
2837.3
2703.17
3156.74
3557.82
3573.32
3303.12
3103.19
3017.72
3064.84
3038.23
2845.09
3811.84
3124.08
2977.01
3002.4
3324.9
3755.47
2777.57
3122.94
3103.32
2918.84
2999.73
2999.05
2625.75
2734.55
2550.48
2558.28
2779.97
2733.24
3858.08
3723.08
3564.27
3830.72
2930.19
2485.13
2953.42
2849.34
2835.02
2606.97
2925.1
2931.54
3195.38
2949.48
2967.98
2823.12
2830.75
2525.98
2641.63
2588.91
2681.8
2563.08
2489.8
2935.93
2787.81
3146.08
3171.02
3396.71
3099.05
2620.5
4094.43
2953.81
2532.94
2607.28
2651.89
2632.29
3786.92
2676.81
2782.03
2445.12
3213.19
2309.3
2306.56
2653.27
2426.76
2591.29
2476.38
3314.14
3778.93
3595.18
3148.09
2623.67
2446.64
3256.1
2793.13
2495.92
2656.91
2988.23
3062.05
3077.09
3256.08
3031.97
2968.06
3059.26
3290.44
2687.46
2960.06
2810.43
3065.2
2870.94
2533.4
3019.78
3006.89
3241.25
3681.25
3640.45
3619.75
3274.09
3230.69
3271.21
3088.14
3216.03
3256.1
3356.2
2692.08
2920.38
3195.31
2941.27
2832.44
2954.36
3240.88
2817.67
3018.43
2840.26
3304.28
3041.38
2929.72
2874.95
3043.68
3219.62
3705.8
3660.66
3719.86
2595.64
2454.85
3006.83
2637.32
2600.99
2686.55
2930.68
2496.61
2563.95
2962
2538.71
2341.67
2546.02
3252.75
2528.76
2568.11
2512.8
2844.9
2547.87
2615.63
3036.8
2778.33
3106.4
3768.26
3621.94
3377.27
2924.84
2603.87
3322.83
3012.23
2975.22
3023.96
3351.66
3070.53
3101.17
3491.77
3161
3216.95
3083.87
3350.4
2978.19
3164.12
3098.98
3389.28
3126.88
2993.65
3260.47
3233.08
3519.3
3803.83
3852.03
3815.66
2977.34
3049.91
2830.9
2838.14
2967.02
2954.5
3246.53
3114.89
4052.57
2584.61
3070.5
2890.34
2963.37
2489.33
2737.08
2673.37
2561.02
3220.35
2872.83
2955.67
2442.7
2568.49
2659.82
3211.73
3138.15
3509.43
2559.77
2717.64
2611
3064.39
2754.23
2681.89
2743.92
2768.94
3076.84
2647.64
2646.67
2428
3060.82
2756.51
2837.23
2707.21
2661.31
2998.53
2725.97
2949.21
2827.76
3092.47
2883.48
2831.76
2940.24
2928.13
3109.7
3409.87
3400.33
3450.2
2723.89
2527.01
3086.95
2816.04
2475.95
2663.26
2768.65
2731.16
2804.44
3088.59
2838.68
2808.34
2835.72
3087.45
2487.33
2675.27
2571.46
2750.82
2620.14
2430.55
2720.09
2785.78
3064.17
3461.75
3455.02
3365.31
2624.73
2502.64
2844.56
2644.11
2844.4
2630.97
3005.75
2493.98
2610.55
3075.28
2653.13
2900.26
2608.8
2817.07
2857.85
3047.92
2863.15
3284.24
3276.49
2944.76
2849.84
3215.84
3335.25
3240.37
3324.7
3312.02
2668.06
2510.04
3424.2
2984.3
2979.78
3033.78
3201.11
3001.53
2955.36
3236.9
2981.13
2985.35
2814.11
3127.26
2527.02
2647.18
2740.03
2683.56
2403.16
2486.38
2962.38
2881.11
3228.98
3426.3
3373.15
3207.27
2581.01
3165.75
2605.01
2595.02
2915.5
2724.63
2571.32
3328.79
2648.36
2845.08
2706.75
3399.7
2641.02
2530.88
2944
2728.32
2583.97
2634.42
3090.25
3649.93
3758.31
3320.49
3021.22
3257.75
3101.71
3050.45
3328.81
2947.34
3366.67
3033.08
2931.12
3190.68
3305.04
3408.27
3316.3
3126.93
3359.77
3627.03
3698.57
3698.95
2642.76
3044.53
2735.42
2700.32
2984.36
2907
3061.08
2857.02
2812.86
3036.3
2661.56
2860.43
2576.45
2756.48
3042.96
3358.1
3323.76
3280.84
2922.1
3019.88
2753.83
2966.78
3230.92
2869.58
2855.45
3120.68
2996.86
3131.82
2659.22
3199.75
2850.34
2519.84
2589.25
3192.99
3013.08
3424.85
3097.42
3357.96
3126.32
3124.91
3357.75
3209.56
3550.46
3262.03
3126.57
3346.17
3220.29
3340.71
3121.07
3243.64
3544.28
3902.04
3948.1
3903.29
2747.83
3232.07
2621.28
2540.71
2637.18
2679
3328.25
2545.96
2791.7
3715.94
2706.38
2675.75
2569.52
2965.18
4028.64
3646.99
3933.73
3243.79
SCALARS SignedDistance double 1
LOOKUP_TABLE default
248.93
244.407
232.097
222.14
179.996
182.133
180.166
186.597
223.955
213.72
232.956
219.656
229.589
175.457
179.281
177.102
239.948
243.329
245.667
178.7
259.541
269.394
173.817
220.553
187.076
176.332
256.798
242.265
158.611
172.812
250.358
167.847
231.94
179.753
212.025
216.452
203.564
222.23
214.349
167.832
245.919
258.714
237.22
197.878
214.934
186.815
191.825
223.846
171.711
177.15
178.265
207.837
243.378
171.695
173.925
241.044
207.353
210.462
276.454
275.718
273.987
272.934
213.558
250.013
213.796
252.112
277.932
173.716
205.74
240.601
223.226
199.677
260.803
260.831
280.139
252.702
244.719
191.183
229.926
178.6
172.218
217.362
184.112
186.724
179.035
186.619
199.677
177.301
163.459
169.003
180.267
257.942
237.168
239.967
262.373
238.943
250.528
241.393
169.089
196.922
162.307
155.051
167.869
155.897
162.208
197.67
171.679
271.647
243.856
188.274
210.062
233.801
229.58
220.134
218.981
191.081
211.901
226.538
199.912
200.929
178.145
215.341
211.355
202.353
209.469
217.667
218.119
225.328
203.608
214.875
224.411
208.315
201.996
206.618
202.839
232.343
230.655
169.624
196.659
235.589
210.755
188.318
240.717
252.585
256.251
245.185
238.029
166.337
171.267
178.56
227.578
205.607
219.055
197.053
244.519
216.627
166.464
155.975
155.923
243.471
270.58
253.73
243.093
225.793
232.278
213.767
221.072
233.134
194.188
207.185
187.367
201.875
200.335
219.474
181.692
188.619
179.007
225.314
204.019
206.194
175.3
176.476
182.653
176.97
174.238
172.881
175.166
175.709
176.601
193.26
182.58
183.915
228.27
245.879
189.096
209.833
241.796
225.308
224.459
175.289
171.891
174.112
170.298
171.865
170.308
174.119
242.633
225.33
227.677
223.472
223.909
240.14
190.355
207.555
188.122
184.03
184.003
207.367
257.955
260.267
255.846
256.26
258.099
273.611
262.902
257.794
255.991
257.315
269.471
251.822
253.767
254.513
199.504
215.794
199.653
248.737
234.029
229.874
229.633
233.67
247.832
276.463
264.789
268.496
274.14
259.182
247.707
261.23
278.038
268.893
257.674
180.487
190.994
189.76
187.72
173.886
206.776
226.489
234.858
224.708
216.127
242.949
233.611
249.85
187.473
209.441
198.183
231.457
211.953
237.06
255.783
274.08
267.8
250.422
245.888
241.831
247.905
273.789
266.264
275.174
259.354
268.767
240.532
238.746
242.32
240.477
258.774
249.282
260.942
276.916
269.883
258.52
219.608
237.022
182.7
200.376
224.49
212.601
204.937
182.637
175.898
171.749
172.726
172.949
172.173
173.564
217.676
200.238
198.846
197.238
197.552
216.469
178.769
186.224
177.145
177.66
175.293
184.996
184.849
185.936
174.038
179.347
182.983
185.023
181.034
208.743
194.298
181.162
185.999
192.929
183.606
175.065
169.732
171.804
180.37
172.5
168.017
166.519
182.513
172.352
175.539
174.608
172.306
172.077
239.584
230.307
264.53
253.833
240.235
246.428
250.684
234.991
246.867
262.727
253.96
248.034
265.048
267.155
236.362
241.092
236.483
248.183
245.402
240.764
250.402
245.981
253.956
259.447
256.683
256.041
198.936
216.962
172.245
183.219
182.37
182.864
170.363
172.818
167.073
156.473
157.527
157.077
162.064
164.046
174.842
164.613
169.017
160.752
159.066
167.878
158.883
159.009
155.945
159.703
153.037
159.239
191.749
181.457
221.089
203.134
166.327
181.679
179.673
253.38
266.94
248.136
257.352
267.327
252.149
242.389
207.474
212.932
227.218
185.031
195.536
175.071
242.023
223.151
234.575
222.79
228.069
200.31
225.94
223.671
221.359
225.913
226.359
233.17
216.151
220.244
215.388
200.352
210.793
221.678
194.861
201.462
184.105
229.276
219.525
223.88
190.42
189.383
179.051
208.443
199.983
206.873
177.951
188.741
190.094
218.374
205.431
212.891
217.799
216.958
214.812
216.651
206.238
213.781
209.873
191.934
198.508
212.366
207.024
210.621
205.208
210.293
225.626
224.787
230.304
212.219
218.255
209.728
221.679
221.258
218.207
214.606
215.697
214.326
213.945
219.515
204.513
208.338
212.463
208.212
206.184
229.455
222.145
212.047
215.785
221.492
213.799
207.118
191.217
203.899
191.241
208.335
212.043
216.331
216.94
214.057
212.753
202.733
204.492
202.41
223.435
225.747
222.479
220.626
236.704
229.323
240.73
174.488
184.442
179.511
180.763
166.171
199.254
215.861
228.133
213.812
207.583
235.579
226.21
241.602
175.076
195.799
185.043
219.028
200.046
227.613
230.4
241.757
235.357
234.638
239.58
233.759
238.762
258.151
258.257
266.712
245.912
251.439
231.668
226.784
239.698
234.974
250.493
244.926
250.682
248.496
251.506
247.422
170.307
169.638
169.865
166.514
172.136
186.267
174.672
178.969
178.009
172.185
184.742
180.521
184.868
179.608
173.81
164.81
171.207
169.567
231.368
221.691
227.249
233.926
234.338
191.19
195.343
192.229
203.77
213.714
219.133
234.336
228.689
209.486
202.147
219.478
211.356
226.696
183.05
214.584
197.521
180.015
182.088
233.966
250.109
242.219
232.086
235.138
221.409
191.018
203.384
229.868
239.516
223.137
232.575
203.922
190.648
163.726
176.033
176.033
163.725
164.252
156.744
159.308
159.833
157.351
168.916
157.361
160.297
160.118
155.967
158.26
156.483
158.25
228.125
251.835
240.974
231.165
233.878
238.105
258.24
248.393
257.087
265.137
248.986
237.571
243.086
262.232
268.134
259.628
268.422
249.477
