# vtk DataFile Version 4.2
vtk output
ASCII
DATASET POLYDATA
POINTS 642 double
-162.772 278.4 30.4849
167.01 280.545 29.3727
-155.902 -276.631 -1.96537
163.37 -281.876 -3.01901
1.18126 -186.334 320.67
0.0302291 198.718 306.577
-0.334586 -187.135 -320.77
-1.50712 183.423 -319.931
282.353 -0.373374 -204.667
290.579 1.00725 197.769
-275.293 -1.8375 -204.121
-288.857 8.33188 192.973
-270.061 175.217 122.23
-182.384 112.62 299.73
-109.433 297.387 186.897
111.616 297.654 187.621
-0.227504 330.853 29.2606
107.578 253.754 -193.384
-101.513 253.381 -190.289
-180.511 109.972 -309.362
-242.139 150.446 -129.332
-286.665 -2.10738 13.547
183.308 115.381 300.084
276.322 177.894 123.678
-175.312 -107.347 299.919
0.306463 -8.50789 372.484
-246.961 -151.154 -130.424
-245.588 -153.635 113.346
-0.827023 0.630547 -385.228
-182.676 -113.084 -310.447
250.421 154.185 -135.546
186.181 113.437 -312.74
253.707 -157.289 112.996
180.899 -107.987 304.183
100.518 -266.338 176.069
-97.4648 -263.674 175.468
1.06534 -343.956 -2.24965
-99.0504 -262.353 -181.131
100.139 -268.494 -177.267
186.18 -113.464 -312.742
244.191 -150.575 -127.47
295.548 -0.23422 12.5569
-223.078 236.611 79.6784
-205.693 248.709 156.549
-147.132 304.28 106.993
-249.835 59.1976 255.651
-241.823 151.694 216.846
-294.882 89.6847 164.26
-57.7902 259.186 260.667
-152.436 216.141 254.448
-97.7567 160.242 315.296
-56.8229 340.852 107.848
-86.7357 318.117 30.1483
58.7452 258.93 260.702
-0.0198142 313.799 197.961
89.2825 317.938 29.2583
57.1454 340.415 107.983
150.534 305.79 106.532
-38.9465 283.599 -76.0133
-124.7 240.064 -84.7397
130.625 250.235 -87.7727
41.9792 284.321 -74.8329
-59.223 234.059 -260.227
-0.857886 261.747 -195.945
62.924 234.011 -259.295
-185.404 212.396 -165.459
-212.045 204.135 -41.3653
-95.832 155.47 -330.294
-147.852 200.975 -257.507
-269.843 80.9215 -168.702
-231.586 141.027 -221.528
-245.785 54.2758 -261.336
-255.482 169.084 33.0518
-290.823 -1.052 -109.113
-279.938 84.0487 -70.093
-290.968 92.2123 81.4506
-295.568 11.8946 117.272
210.016 250.116 159.124
229.03 239.898 78.455
100.026 161.454 316.359
156.268 217.764 256.838
292.622 98.0795 163.093
246.196 156.478 218.598
249.355 57.6127 256.498
-99.3615 56.0384 349.785
-0.0705327 95.3768 345.203
-243.251 -51.8497 254.196
-190.296 0.532659 315.709
1.18215 -102.827 366.852
-96.1189 -61.1665 357.136
-90.8915 -153.751 322.093
-280.841 -74.2011 70.1939
-273.594 -74.8695 166.51
-273.156 -86.0998 -172.458
-272.843 -75.1304 -74.7122
-208.529 -223.65 55.267
-248.174 -165.498 2.69034
-204.873 -223.744 -52.6188
-194.025 -0.507195 -329.162
-247.36 -56.7821 -261.811
-1.8001 100.801 -370.372
-100.369 60.952 -370.972
-97.6953 -158.801 -331.345
-101.104 -60.6951 -369.598
-0.790577 -101.529 -368.549
153.566 204.866 -260.123
100.675 157.299 -330.631
219.582 203.39 -42.8519
192.808 215.58 -171.129
253.059 59.8194 -264.092
242.264 146.853 -224.291
280.355 87.2671 -174.694
214.901 -227.972 53.5178
187.872 -222.963 150.459
137.75 -283.197 86.2776
248.888 -54.5529 259.158
232.525 -137.006 219.619
279.631 -76.6652 168.679
52.8047 -233.098 258.332
145.746 -196.917 254.365
92.4988 -153.957 323.452
50.875 -316.186 82.5196
85.4343 -326.168 -3.64733
-51.7111 -232.154 258.107
1.27205 -281.783 186.732
-80.8125 -323.769 -3.04526
-47.8829 -314.543 82.1354
-133.231 -279.41 86.1857
52.7735 -325.249 -90.4086
136.612 -290.857 -87.8067
-130.467 -285.85 -87.9352
-49.1445 -323.72 -90.1208
60.2711 -233.959 -265.382
0.731628 -289.251 -178.638
-62.5171 -235.603 -264.861
187.022 -216.464 -160.531
212.658 -230.303 -52.4243
98.9101 -157.597 -330.694
153.429 -204.293 -260.721
279.383 -86.3304 -178.246
244.035 -147.27 -224.549
253.272 -59.9675 -263.923
256.706 -171.214 1.18933
298.257 0.0709004 -111.189
280.579 -74.2056 -69.7106
289.795 -80.0064 69.3887
303.423 5.36196 110.698
99.3055 -60.7871 359.436
193.179 -2.84264 320.574
101.696 54.4025 351.517
-183.055 -218.572 150.385
-142.329 -195.778 252.849
-227.602 -136.047 215.297
-151.164 -205.42 -260.079
-187.971 -213.798 -167.949
-237.24 -146.253 -222.657
195.564 0.00452027 -327.091
102.269 -62.4436 -369.395
102.107 62.4938 -369.377
297.289 94.7387 79.041
288.401 85.0018 -70.3642
261.812 172.894 30.3964
-193.918 260.828 53.6483
-188.947 272.993 94.8722
-156.898 293.53 68.2864
-243.829 214.443 138.994
-219.431 246.352 118.519
-248.697 207.942 102.748
-132.161 307.167 144.64
-179.138 281.055 132.904
-159.783 276.451 173.218
-274.437 32.4431 225.084
-277.045 75.5054 209.675
-297.513 49.3907 179.962
-215.491 133.874 261.755
-248.055 106.046 239.315
-218.947 86.1688 280.978
-283.868 134.315 142.897
-272.389 121.948 189.943
-261.645 165.962 166.187
-29.1146 230.968 288.026
-78.1939 213.225 290.126
-49.4437 181.369 311.794
-131.917 260.756 223.543
-106.854 240.734 259.322
-84.4725 281.411 226.916
-141.265 137.439 311.365
-126.807 190.291 288.248
-169.513 165.801 280.442
-226.02 202.735 188.566
-200.836 186.273 238.976
-181.401 235.497 208.577
-116.852 316.331 69.1727
-126.863 300.87 29.9875
-84.8834 326.33 146.371
-102.521 326.519 108.655
-45.063 328.256 29.8312
-72.0748 332.612 70.0392
-28.5627 340.197 69.9064
29.5402 230.881 288.051
-0.00315718 262.787 263.29
57.015 310.186 195.651
29.9228 290.833 231.98
86.1081 281.398 227.206
-29.7549 290.854 231.979
-56.4767 310.359 195.597
130.673 301.701 28.5089
120.026 316.897 68.6807
161.114 295.263 67.6784
28.1542 339.87 69.9064
73.4331 332.213 69.861
45.4079 327.93 29.2138
134.46 307.542 145.182
104.57 326.643 108.514
85.8832 326.036 146.539
-30.001 335.507 151.565
29.9811 335.448 151.641
-0.220796 344.908 108.895
-109.164 293.311 -4.45093
-144.133 274.006 -4.83148
-24.5274 314.376 -10.8862
-64.5433 308.426 -6.28576
-116.956 250.619 -159.815
-79.061 262.467 -80.985
-73.6458 266.217 -155.461
145.273 276.683 -9.92283
114.544 292.543 -8.88883
79.0386 265.504 -155.598
90.7381 259.641 -79.9644
123.962 251.76 -159.222
66.8921 308.116 -7.62419
25.0002 314.666 -11.3969
-31.5313 210.589 -292.34
-0.448617 235.155 -260.94
31.8298 210.365 -290.971
-55.9012 261.269 -194.72
-31.4715 253.146 -227.968
-82.6751 248.764 -225.5
88.2161 250.412 -226.788
32.629 252.694 -227.849
59.5363 259.265 -196.545
-0.0812681 289.351 -75.2683
27.4644 272.27 -149.069
-28.5544 273.61 -149.642
-170.058 224.406 -61.4641
-186.936 247.886 8.17595
-145.816 236.448 -180.526
-160.57 229.738 -146.673
-220.374 188.176 -94.6381
-200.314 203.579 -120.321
-217.491 184.896 -145.424
-49.9411 171.693 -328.667
-78.5276 198.932 -298.313
-166.098 158.538 -287.128
-124.559 180.676 -296.375
-139.712 134.578 -323.817
-104.578 220.98 -261.381
-125.7 233.794 -224.144
-275.123 41.1841 -189.23
-264.019 70.4385 -217.141
-266.644 25.4943 -232.504
-239.367 147.034 -176.166
-253.889 111.937 -197.951
-260.449 116.122 -147.212
-216.253 83.0159 -287.973
-241.896 101.102 -243.671
-211.142 128.145 -266.571
-170.864 211.752 -211.441
-194.355 174.233 -242.272
-210.305 181.781 -194.741
-215.7 229.131 28.3858
-229.24 153.715 -49.9592
-226.644 199.349 -2.48816
-242.953 203.946 55.7171
-264.987 174.819 80.265
-281.012 -1.66145 -158.314
-284.522 42.3983 -137.667
-274.113 43.2179 -34.5193
-287.459 41.6234 -97.2214
-285.265 -5.69554 -68.1172
-279.931 80.7111 -116.538
-270.297 105.971 -98.1775
-300.982 51.8613 146.814
-297.094 13.3855 159.81
-284.011 134.322 104.914
-293.637 92.0149 127.137
-296.543 6.22838 68.7882
-296.449 51.2952 101.918
-292.901 46.9615 54.458
-269.619 111.316 -14.496
-281.086 91.4096 18.5459
-277.817 132.514 54.7889
193.668 275.715 93.8352
199.174 263.547 53.1927
163.214 277.383 175.069
182.627 282.466 133.606
254.96 211.014 102.436
224.511 248.741 118.926
249.111 216.663 141.39
50.8341 181.31 311.688
80.4551 213.142 290.815
172.431 168.988 282.405
129.769 191.716 290.266
142.603 140.13 312.422
109.714 240.909 260.472
135.223 261.414 224.957
292.184 47.9115 182.855
276.375 79.0242 210.082
274.297 27.503 226.741
267.711 170.092 168.71
274.949 128.15 190.538
289.606 140.183 143.517
219.179 87.3905 280.989
249.592 110.675 239.481
218.085 138.324 262.883
185.951 237.436 211.124
205.223 189.617 241.573
231.603 205.893 191.544
-53.146 130.434 332.462
-0.0142763 149.788 326.111
-143.42 87.85 329.343
-101.982 109.478 335.46
-0.153224 41.1362 362.652
-52.7452 73.9171 349.928
-50.3676 22.9921 364.952
-269.226 -22.0207 224.472
-249.148 3.91664 257.53
-185.383 -54.7697 312.087
-219.117 -26.8126 288.861
-211.752 -79.8858 279.372
-221.324 31.6069 288.713
-189.86 57.9984 311.461
1.15555 -147.912 347.25
-44.4004 -130.249 348.371
-42.4311 -172.001 323.896
-46.8946 -35.2866 369.257
-45.2924 -82.7147 364.472
0.922321 -57.4863 377.058
-134.93 -132.294 314.408
-95.0565 -109.07 343.92
-138.545 -86.1624 333.226
-146.722 28.632 338.333
-145.327 -31.0085 341.565
-99.0123 -3.48369 360.495
-288.057 -30.7985 142.447
-283.467 -33.4545 182.128
-287.789 -33.8026 45.1938
-293.551 -33.2656 91.7423
-259.973 -113.702 143.19
-279.899 -74.858 118.165
-266.148 -116.067 91.9896
-276.387 -45.9528 -189.79
-283.857 -44.8339 -140.619
-262.545 -118.45 -105.037
-277.19 -81.7946 -128.377
-262.601 -120.919 -154.112
-288.966 -36.2878 -96.294
-285.606 -34.3367 -35.3949
-183.996 -250.142 27.0311
-208.823 -225.245 1.38594
-182.125 -252.355 -26.9475
-248.896 -162.386 57.9952
-230.661 -194.854 29.9319
-227.915 -190.923 82.5604
-226.537 -184.831 -92.188
-229.971 -195.111 -25.5897
-246.65 -158.686 -60.7188
-277.101 -78.5375 6.09196
-263.07 -124.629 -31.8637
-264.897 -123.485 35.3185
-251.069 -1.03327 -266.96
-267.44 -28.4017 -232.383
-189.939 55.8936 -323.136
-222.243 27.5939 -297.851
-218.29 -85.6671 -288.742
-223.262 -29.2055 -298.319
-190.761 -57.0034 -323.105
-1.74378 145.222 -348.385
-51.7953 130.055 -356.025
-53.5986 31.9534 -384.107
-52.9242 81.8076 -375.528
-1.32183 52.9379 -382.981
-99.8878 110.178 -354.974
-143.31 87.7136 -344.995
-51.1181 -174.932 -329.296
-52.7127 -132.139 -355.117
-0.536653 -147.672 -347.917
-144.506 -89.1637 -344.906
-101.198 -112.249 -354.551
-141.758 -137.822 -325.002
-0.769361 -51.8965 -381.799
-53.2604 -81.7465 -373.569
[...]
POINT_DATA 642
SCALARS Mean_Curvature double 1
LOOKUP_TABLE default
0.00781678
0.00783015
0.00644268
0.0073153
0.0112785
0.00530609
0.00497283
0.00549187
0.00466904
0.0138233
0.00682063
0.00987184
0.0126784
0.0065471
0.00574418
0.00574504
0.00537084
0.0077917
0.0086323
0.00686561
0.00290988
0.000846993
0.00607431
0.0116391
0.00669487
0.00553201
0.00419681
0.00442405
0.00278917
0.00715809
0.00227264
0.00752796
0.0051681
0.00706155
0.0049038
0.00472738
0.0125808
-0.000906413
0.00297865
0.00749898
-0.00206855
0.00201878
0.00506341
0.00769301
0.00862825
0.00750543
0.00549079
0.0141675
0.00699398
0.0059156
0.00628279
0.0117229
0.007618
0.00623763
0.00489276
0.00678986
0.0110468
0.00921159
0.00343386
-0.00673991
0.00600397
0.00283915
0.00799002
0.00143019
0.00573611
0.00801886
0.00282783
0.00730619
0.00728516
0.00309106
0.00933385
0.00673709
0.00261663
0.00971921
0.0116227
0.00448811
0.000291789
0.00719829
0.00604468
0.00695818
0.00643005
0.00852268
0.00667204
0.00464495
0.00530751
0.0016912
0.00687543
0.00681615
0.00976089
0.00704894
0.0066528
0.00287549
0.00555721
0.00680576
-0.00416701
0.00745693
0.00497724
0.00399485
0.00853863
0.00627491
0.00575964
0.00750986
0.00769956
0.00624384
0.00423198
0.00705861
0.0083617
0.000306026
0.0074624
0.00782023
0.00985508
0.00683974
0.00545473
0.0044066
0.00544085
0.00741356
0.00686964
0.00473902
0.00482662
0.00652272
0.00579784
0.00355824
0.00866359
0.00531147
0.00703157
0.009279
0.00324328
0.00568914
0.00790605
0.00760331
0.00677769
0.00825277
0.0091613
0.00589762
0.00876494
-0.000757592
0.00524664
0.00642965
0.0071176
0.00745631
0.0126002
0.00758387
0.00609916
0.0100435
-0.00150493
0.00544179
0.00688199
0.0065899
0.00737238
0.0055192
0.00407674
0.00695856
0.00750087
0.00709707
0.0024333
0.0107053
0.00478395
0.00753707
0.00732086
0.00424229
0.0109816
0.0029128
0.00663506
0.00609021
0.0066137
0.0119939
0.0108426
0.00675709
0.00977382
0.011804
0.00552379
0.00835765
0.00580019
0.0154647
0.00611564
0.00587384
0.00708931
0.0103867
0.00622164
0.00573603
0.00733455
0.00574351
0.00377264
0.0062287
0.00625226
0.00681545
0.00622958
0.00576207
0.00614541
0.00492043
0.00603906
0.00560142
0.00700814
0.00756897
0.00900951
0.00966009
0.00743273
0.00681704
0.00699643
0.00707675
0.00556832
0.0060912
0.00736523
0.00632242
0.00746287
0.00652928
0.00723065
0.00693751
0.00669459
0.00648783
0.00607047
0.00673203
0.00881806
0.00935945
0.00831927
0.00833417
0.00836243
0.00938316
0.00435418
0.00410245
0.00429722
0.00358429
0.00497249
-0.00673426
0.00775228
0.00521731
0.00531442
0.00668928
-0.0112424
0.00402954
0.00278857
0.00469128
0.00496161
0.00482651
0.00341358
0.00529794
0.00824686
0.0106858
0.0130621
0.00780568
0.00237826
0.00317947
0.00217649
0.00449742
-0.00362656
0.00307634
0.00961634
0.00526622
0.0146956
0.00472687
0.00720193
0.00682661
0.00729482
0.00650756
0.0069324
0.00715584
0.00744791
0.00935749
0.00493658
0.00981779
0.00948888
0.00538885
0.00725604
0.00518675
0.00655419
0.00900601
0.00689197
0.00857167
0.00866351
0.00787595
0.00651233
-0.0126132
0.00776312
0.00610226
0.00588386
-0.000961969
0.00630146
-0.00946446
0.00705448
0.000475518
0.00930753
0.00634641
0.0112864
0.0096551
0.00643566
0.00320771
0.00764176
0.00273684
0.00350332
0.00224609
0.00515314
0.00607357
0.00715741
0.00689237
0.00569387
0.010339
0.00711765
0.00998336
0.0108671
0.00304025
0.00545763
0.00694921
0.00645425
0.00666912
0.00601209
0.00617535
0.00823875
0.00568516
0.0053498
0.00749287
0.00714431
0.0130673
0.00525315
0.00580717
0.00686587
0.00607701
0.00682255
0.00596608
0.00309343
0.00169039
0.00700076
0.00685463
0.00393814
0.00150319
0.00587474
0.00720293
0.00473931
0.00665118
0.00694083
0.00624309
0.00589409
0.00730459
0.00981474
0.00583607
0.0057951
0.00416473
0.00550358
0.0127016
0.00720463
0.00690968
0.00696796
0.00504152
0.00720925
0.00808404
0.00125397
0.0083119
0.00216779
0.00881052
0.0022717
0.00484715
0.00384474
0.00463389
0.00541878
0.00249807
0.006725
0.00649931
0.0116167
0.0053783
0.00372672
0.00522394
0.00490928
0.00604616
0.00397432
0.00440126
0.00111112
0.00533976
0.00319253
0.00142786
0.00352585
0.00269713
0.00944991
0.00905871
0.00670477
0.00548405
0.00639091
0.00623264
0.00569806
0.00530215
0.00735205
0.00634846
0.007536
0.00561042
0.00757522
0.00727672
0.00654729
0.00674402
0.00448261
0.00671649
0.00752768
0.00749148
0.00487128
0.00599861
0.00642299
0.00649954
0.00786766
0.00753517
0.00780412
0.0039588
0.010749
0.0080841
0.00757263
0.00714252
0.00685609
0.00290817
-0.0101796
0.00694683
0.00441483
0.0172971
0.00396071
0.00930667
0.00961374
0.0116496
0.00610915
0.00689281
0.00840069
0.00730127
0.00504879
0.0110129
0.00821783
0.0107483
0.0105239
0.00812821
0.00508572
0.00564976
0.00435742
0.00425654
0.00497738
0.00414761
0.00556918
0.0054055
0.00472972
0.00868903
0.00960959
0.00917501
0.00748559
0.00822423
0.0073499
0.00268037
0.00609703
0.00396475
0.00793887
0.00554233
0.00669435
0.00457492
0.00608327
0.00445413
0.00692872
0.00697932
0.00700838
0.00445331
0.00684664
0.00463797
0.00410023
0.00743804
0.00509905
0.00444404
0.0101967
0.0058682
0.00814215
0.00670696
0.00746242
0.00470557
0.00473133
0.00403018
0.00539084
0.00487582
0.00759058
0.00377583
0.00390605
0.00826425
0.00602014
0.0104976
0.00538616
0.00456121
0.005483
0.00457134
0.00468622
0.00634742
0.00571985
0.00525438
0.0062989
0.00487046
0.00595701
0.00784815
0.00705734
0.0045156
0.00474398
0.00667746
0.00747531
0.00552215
0.0046899
0.00689717
0.00648388
0.00582683
0.0056547
0.00563078
-0.00304623
0.000994573
0.0107423
-0.00455907
0.00539233
0.00741542
0.00795627
0.00768056
0.00655597
0.00562097
-5.15506e-05
0.0052617
0.00426005
0.0045812
-0.00189758
0.00681941
0.00663403
0.00685587
0.00710437
0.00768318
0.00721547
0.00964395
0.00674539
0.0134862
0.00937716
0.00940977
0.0144839
0.00443864
0.00720454
0.00790858
0.00658746
0.0102444
0.00820811
0.0118037
0.00602148
0.00494489
0.0064349
0.00602183
0.00333779
-0.000717544
0.00497693
0.00325428
0.0116325
-0.00208293
0.00563079
-0.00179033
0.00515781
0.00363046
0.00729024
0.00349346
0.00490313
0.00342427
0.00444808
0.00518713
0.000569625
0.00243311
0.00661671
0.00724872
0.00581916
0.00655418
0.00329426
0.00720669
0.00464584
0.00609279
0.00749288
0.00801268
0.00255366
0.00419732
0.000988605
0.006709
0.00516929
0.0085305
0.00653329
0.00966002
0.00644878
0.00437276
0.0050488
0.00469068
0.0039939
0.00657948
0.00695282
0.00731986
0.00692729
0.00441117
0.00908369
0.0044115
0.00851781
0.00662643
0.00679183
0.00508515
0.00715257
0.00523704
0.0079657
0.00977096
0.00787394
0.00719036
0.00664034
0.00528144
0.00336211
0.0016106
0.00399036
-0.00242389
0.0106507
0.00680725
0.00883727
0.00944192
0.00784919
0.0124564
0.0108935
0.0084025
0.00429798
0.00818305
0.00533443
0.00535417
0.00818306
0.00638359
0.0064456
0.00455255
0.00743994
0.00819067
0.004439
0.00814715
0.00821364
0.00498221
0.0065405
0.00586502
0.00495548
0.00590333
0.000127795
0.00314212
0.00701867
0.00728493
0.00704965
0.00336747
0.00539023
0.00574177
0.00801074
-0.00751888
0.00633781
0.00627883
0.00676025
0.0111802
-0.0140624
0.00529028
0.00228101
0.00502097
SCALARS CoVolArea double 1
LOOKUP_TABLE default
1442.39
1489.42
1615.19
1596.74
1699.49
2069.73
2026.61
2058.69
1670.48
1504.58
1526.79
1453.7
1847.3
2532.07
2537
2590.9
2083.36
1723.22
1678.67
2549.08
2667.63
2983.13
2662.76
1878.31
2429.15
2671.68
2242.71
2338.64
3000.23
2596.47
2619.95
2539.64
2401.95
2438.81
2459.02
2449.64
1830.77
2817.22
2741.67
2541.86
2844.19
3009.76
1905.06
2452.33
1911.69
2299.23
2674.39
1803.57
2421.75
2718.1
2531.23
2128.43
1815.59
2484.07
2713.05
1934.21
2180.93
1963.28
3223.2
3884.09
3226.7
3604.52
2189.65
2396.7
2291.22
1847.78
2473.72
2390.72
2386.6
2000.22
2145.79
2229.03
3046.73
1883.26
2402.52
2299.84
1978.67
2505.88
1927.35
2521.76
2701.16
2058.67
2599.85
2519.08
2799.96
3122.97
2243.58
2642.71
2295.67
2718.69
2393.41
2487.59
1961.6
1788.87
3049.95
1996.01
2405.25
2440.64
2714.2
2277.88
2686.54
2797.39
2411.75
2860.16
2784.8
2448.95
2439.79
3000.31
1840.18
2335.08
2221.34
1873.78
2093.99
2556.54
2226.85
2181.86
2326.57
2065.74
2300.4
2464.52
2466.65
2497.16
1973.32
2267.21
2479.55
1913.44
2476.41
2181.92
2230.78
2009.21
2158.44
2186.06
2393.59
2883.09
2261.55
2924
2111.07
2472.44
2345.86
1629.83
2023.42
2350.79
2264.68
2014.97
3223.19
2441.29
2147.09
2737.15
2631.46
2833.92
2501.78
2367.94
2234.02
2356.34
2365.09
2124.87
2913.45
2885.26
2883.94
2273.55
2579.94
3029.32
1857.82
1900.41
1833.57
2162.92
1834.51
1730.26
2120.35
1998
2585.02
2087.7
2178.21
1644.01
2618.14
2369.93
2313.04
1876.54
2293.4
2398.16
2372.71
2514.1
2575.13
2672.74
2471.27
2378.08
2397.49
2501.75
2674.73
2949.73
3009.65
3026.42
1906.28
1708.91
2400.06
1936.99
1841.98
1871.86
2081.16
2411.24
2456.25
2673.98
2466.75
2439.53
2436.61
2627.89
1768.44
1959.75
1852.88
2123.01
1953.52
1920.83
2186.49
1997.94
2456.3
2775.54
2799.94
2445.65
2848.99
2744.69
2531.86
2657.79
2522.99
3796.37
2623.54
2626.35
2628.59
2981.64
3734.12
2378.57
2825.03
2587.6
2393.95
2426.86
2516.19
1961.51
2091.68
1841.53
1840.46
2153.62
2124.95
3300.17
3263.53
3017
3757.49
2556.68
1730.38
2612.27
2310.73
2307.64
1934.56
2365.17
2327.81
2542.07
2340.82
2381.93
2153.45
2041.93
1972.77
1960.38
1903.81
2012.03
1910.8
1922.99
2352.1
2101.14
2457.37
2306.34
2582.87
2274.53
2049.92
4174.59
2490.26
1973.92
1929.76
2176.52
2048.27
3700.41
2175.64
2448.77
1779.25
2804.43
1603.68
1632.12
1964.87
1786.94
2103.07
1961.33
2998.14
3371.31
3056.66
2496.29
1946.6
1848.69
2631.1
2096.74
1817.67
1947.7
2224.77
2620.19
2548.16
2640.52
2469
2411.61
2510.55
2705.62
2077.43
2372.29
2205.67
2334.52
2228.69
1801.93
2507.06
2463.16
2632.18
3016.44
2955.93
2908.29
2882.69
2893.52
2664.67
2573.69
2835.24
2848.68
2811.04
2063.63
2348.24
2562.98
2364.03
2252.78
2377.56
2623.41
2195.84
2432.51
2253.34
2695.58
2451.65
2326.14
2285.45
2473.17
2581.23
3032.61
2958.53
3047.09
2075.47
1810.27
2519
2119.77
2114.48
2195.66
2420.24
1925.8
1973.28
2532.78
2007.96
1755.18
1981.79
2808.45
2005.87
2035.38
2001.19
2286.67
2007.28
2095.66
2656.94
2286.81
2615.82
3403.95
3206.72
2857.74
2273.96
1917.77
2697.1
2421.55
2405.2
2437.29
2738.05
2566.05
2523.36
2915.44
2589.31
2722.44
2483.11
2718.18
2431.68
2622.24
2600.69
2773.64
2547.93
2408.46
2797.87
2709.51
2962.53
3100.32
3162.99
3119.21
2398.6
2552.07
2008.2
2156.95
2363.24
2334.43
2598.72
2870.11
4139.81
1884.65
2696.91
2314.06
2605.39
1719.45
2076.63
1938.31
1985.2
2546.18
2173.69
2363.3
1846.07
1825.33
1908.84
2307.29
2245.97
2689.01
2020.69
2180.78
2083.21
2536.3
2232.13
2181.66
2224.82
2234.37
2525.77
1974.25
1969.58
1766
2384.46
2102.89
2221.95
2215.96
2076.73
2447.52
2122.02
2383.19
2230.56
2530.51
2331.19
2328.51
2368.19
2342.54
2452.59
2778.68
2691.03
2818.07
2180.54
1957.55
2539.37
2305.91
1815.88
2078.11
2068.49
2131.46
2221.18
2531.23
2298.57
2308.43
2287.34
2523.05
1926.11
2127.13
2050.91
2048.07
2027.2
1759.49
2201.73
2271.41
2511.1
2832.16
2824.2
2697.51
2025.62
1929.15
2150.63
2027.84
2333.55
2016.97
2371.74
1950.15
2026.96
2465.56
2048.16
2451.53
1988.36
2114.13
2279.5
2610.48
2293.73
2779.46
3012.82
2505.57
2308.48
2905.48
2810.9
2481.49
2580.22
2563.13
2091.88
1955.6
2964.05
2530.6
2596.41
2628.14
2819.83
2462.06
2351.47
2589.8
2376.83
2393.82
2208.75
2522.02
1919.82
1874.49
2071.89
2015.14
1594.61
1999.54
2378.4
2157.69
2555.78
2691.52
2531.24
2421.92
2011.36
2706.46
2022.65
2041.37
2359.7
2256.52
1972.59
2912.42
2102.67
2531.97
2233.73
3120.62
2100.98
1961.99
2378.63
2223.74
2080.11
2122.45
2628.63
3215.95
3349.43
2744.07
2427.58
2614.02
2547.84
2458.01
2733.5
2360.76
2806.27
2480.82
2319.13
2523.54
2929.66
2894.17
2940.12
2624.76
2788.57
2881
3008.35
3004.32
2090.43
2500.37
2204.27
2169.59
2447.93
2321.45
2398.44
2243.76
2234.99
2468
1996.3
2282.91
1949.25
2116.42
2382.98
2705.01
2594.81
2617.06
2298.3
2382.23
2082.2
2352.47
2584.61
2366.65
2330.04
2738.77
2565.53
2703.42
1939.58
2522.8
2158.39
1782.14
1876.53
2399.34
2165.42
2566.1
2526.97
2736.02
2589.01
2584.36
2735.31
2688.97
3014.48
2755.18
2549.35
2701.13
2710.22
2692.22
2537.09
2722.17
3001.91
3254.53
3322.44
3256.46
2212.02
2850.53
2072.6
1908.16
1921.27
2133.12
2995.09
1926.69
2314.21
3545.58
2127.48
1994.77
1981.38
2431.05
4109.89
3091.97
3597.38
2613.01
SCALARS SignedDistance double 1
LOOKUP_TABLE default
202.199
198.696
185.937
177.722
144.952
146.377
145.359
151.424
182.401
176.385
189.413
182.768
189.531
139.618
143.932
141.953
195.615
198.64
201.969
144.465
211.414
216.81
138.392
181.903
150.371
141.585
209.479
195.161
126.817
139.022
203.057
134.567
186.793
144.394
169.269
172.999
163.589
181.96
173.395
134.56
199.624
208.63
193.4
164.176
176.681
150.689
154.872
187.584
136.61
141.039
142.824
172.142
198.459
136.673
139.085
196.323
171.464
173.117
230.844
228.061
228.495
227.654
177.359
204.374
177.301
206.755
230.679
139.907
169.492
194.868
184.691
164.441
210.914
213.97
232.956
204.829
196.952
157.101
187.682
143.731
136.888
178.54
147.968
150.518
144.201
149.312
162.272
141.656
130.366
134.612
144.381
208.09
191.455
195.342
212.756
191.833
200.871
193.364
136.647
162.718
129.863
123.418
134.498
124.359
129.435
162.871
138.873
226.86
198.566
155.095
175.173
190.492
183.541
175.955
174.714
155.286
171.635
182.874
160.622
161.876
142.732
172.412
169.431
162.945
167.685
174.929
174.646
179.883
162.611
171.957
180.024
166.869
164.85
165.197
166.315
190.619
184.545
136.276
161.632
191.148
177.968
155.246
193.099
207.251
208.774
196.946
193.067
132.801
136.712
144.106
182.129
166.006
178.171
161.904
200.251
181.193
133.563
124.617
124.541
196.995
225.562
205.463
198.104
184.557
189.746
178.379
182.159
190.643
161.069
171.794
151.713
165.944
164.124
184.98
145.161
151.911
142.831
187.351
168.484
169.108
140.31
140.99
146.709
140.984
138.572
137.599
139.432
139.864
140.498
156.124
145.801
147.294
186.688
200.191
156.507
172.926
197.439
184.533
184.069
140.291
136.861
139.256
135.596
136.76
135.613
139.261
197.654
184.273
186.084
182.867
183.131
195.69
157.092
170.939
155.423
151.811
151.755
171.508
208.797
210.418
208.478
208.07
210.223
227.909
216.915
209.16
207.65
211.852
223.367
204.227
205.583
207.33
163.426
178.611
163.317
203.85
195.334
191.752
192.502
194.895
201.944
230.655
220.424
224.477
227.769
210.096
203.285
212.757
231.872
221.359
211.586
146.402
155.728
154.267
152.461
139.857
170.496
188.46
190.174
184.966
180.204
198.098
190.803
203.599
152.731
173.876
162.774
190.726
176.144
195.106
208.108
224.728
217.794
203.565
200.02
195.273
203.108
223.307
217.789
224.345
213.947
221.334
196.759
194.984
197.443
195.037
209.48
200.685
210.783
226.918
219.249
209.995
179.757
193.222
147.507
165.542
183.658
174.988
170.281
146.612
140.618
136.316
137.606
137.751
136.915
138.179
179.253
163.876
162.662
162.303
161.801
179.963
142.925
150.135
141.482
141.941
139.534
149.144
147.83
148.519
138.447
144.164
146.901
148.232
145.743
171.502
157.676
145.302
149.464
155.807
147.652
139.801
136.022
137.275
144.718
138.669
134.468
134.53
146.241
137.435
140.216
139.302
137.512
137.862
192.367
187.924
213.374
205.838
193.046
199.353
201.678
190.54
200.927
213.683
205.77
201.516
217.122
218.099
188.954
192.892
189.222
199.719
196.439
192.854
203.79
196.998
205.381
207.846
205.943
205.616
165.489
181.019
138.944
149.35
148.03
149.356
137.378
139.189
134.545
125.622
126.212
125.374
129.521
131.258
140.938
131.847
135.342
127.918
126.56
134.412
126.931
127.399
125.103
127.838
122.039
127.546
157.078
146.794
184.829
168.315
133.181
147.412
145.502
205.113
221.151
202.469
210.279
221.73
204.291
197.64
173.629
176.768
184.487
151.17
162.012
141.656
196.507
184.789
192.143
185.522
189.263
166.292
180.421
178.53
176.932
181.043
181.18
187.007
172.522
175.953
171.9
164.339
173.082
180.395
157.92
164.34
148.563
183.544
177.201
179.907
153.577
152.336
143.795
166.975
160.813
165.591
142.502
151.871
153.223
175.459
166.111
170.766
174.349
173.82
171.694
173.01
165.544
171.248
168.187
154.888
159.838
169.586
165.998
168.73
164.43
168.103
181.214
180.218
184.638
170.241
175.026
168.65
177.141
176.723
174.405
172.087
172.896
171.941
171.09
175.523
163.827
166.589
169.632
166.256
164.398
183.852
178.238
169.625
172.899
177.742
171.504
166.185
155.461
165.984
155.521
166.945
173.266
179.411
181.517
175.694
171.8
162.196
163.164
161.314
179.064
180.5
181.683
176.672
189.896
183.899
196.354
140.628
149.408
145.347
146.496
133.049
163.467
181.098
185.753
179.472
173.814
192.304
187.608
194.544
141.683
162.789
151.327
183.279
166.074
188.502
184.276
194.056
188.462
187.734
192.707
188.602
194.199
208.97
211.559
217.459
198.744
204.544
187.406
182.943
193.422
189.066
201.846
197.573
201.687
199.979
201.448
199.383
136.229
135.319
135.449
133.397
138.485
150.366
139.336
143.376
143.095
137.787
147.688
145.045
148.051
144.768
138.494
131.311
136.753
136.351
184.925
177.208
181.725
187.245
187.982
153.946
157.471
154.851
164.402
171.528
180.275
188.554
186.72
170.671
163.666
176.546
171.031
182.733
148.527
178.725
162.198
145.549
147.538
187.608
204.352
196.591
187.292
192.991
182.963
156.572
169.128
189.003
195.92
186.017
191.813
169.682
156.89
131.309
142.548
142.545
131.308
131.414
125.46
127.409
127.626
125.071
135.613
125.075
128.099
128.033
124.75
126.213
124.999
126.215
183.851
202.715
195.625
187.813
190.547
193.574
211.656
203.243
210.823
217.544
202.792
193.465
197.966
213.851
221.731
211.025
220.315
202.24
