# vtk DataFile Version 4.2
vtk output
ASCII
DATASET POLYDATA
POINTS 642 double
-132.836 238.078 48.6384
138.539 240.326 47.1559
-124.036 -237.945 -2.70319
134.134 -243.978 -4.38002
1.85284 -160.907 291.902
0.0249636 182.223 270.904
-0.422349 -162.09 -291.957
-2.19371 156.563 -291.027
234 -0.461692 -196.774
245.508 2.38876 185.677
-225.071 -2.51392 -195.966
-244.312 15.9631 180.638
-225.493 154.263 122.656
-162.515 100.323 270.417
-95.4772 266.862 169.794
98.7203 266.895 170.743
-0.11244 282.307 46.395
94.9414 202.897 -186.372
-85.7963 204.132 -182.563
-157.776 95.0619 -283.333
-195.649 121.476 -128.895
-228.485 -3.81035 19.9079
163.632 104.61 270.395
233.772 157.346 123.68
-151.643 -92.0233 271.915
0.35617 -13.6585 334.592
-200.065 -124.089 -129.113
-200.213 -128.852 105.647
-1.18983 0.99578 -350.945
-160.938 -99.9193 -284.43
205.279 125.852 -137.572
165.956 99.9111 -287.127
211.286 -132.61 104.939
159.429 -92.3218 276.894
84.8955 -227.677 157.522
-80.2728 -224.564 156.978
1.91647 -300.09 -3.96368
-79.8838 -223.752 -166.344
84.5276 -231.294 -157.866
165.977 -99.9652 -287.108
196.879 -123.602 -123.999
240.107 -1.38428 18.7953
-184.556 204.593 88.5272
-178.4 221.275 144.92
-123.309 265.065 109.001
-219.504 54.0254 231
-211.445 134.369 196.701
-248.018 79.2105 158.673
-50.9585 234.515 234.4
-134.443 194.056 229.421
-89.8253 144.288 281.455
-48.4321 297.513 108.878
-71.3004 271.859 48.65
52.4494 234.107 234.416
-0.0415623 281.459 179.756
75.395 271.34 47.0677
49.0983 296.971 108.951
128.669 266.656 107.704
-24.3601 230.39 -60.6938
-98.5793 183.447 -74.6574
104.637 193.973 -78.8367
28.8135 232.26 -59.318
-54.1021 196.118 -238.522
-1.60731 210.383 -183.693
59.782 196.053 -237.354
-152.69 169.997 -161.327
-180.689 172.987 -31.31
-85.492 134.49 -301.916
-127.449 170.168 -236.983
-221.317 66.0373 -161.01
-192.621 116.457 -207.853
-210.867 45.5514 -240.864
-207.255 144.823 48.8019
-235.442 -1.75183 -110.388
-224.186 71.5619 -72.7224
-237.646 83.7401 88.3379
-242.881 16.3188 118.388
184.363 222.634 147.486
192.459 208.135 86.6067
93.1219 145.695 281.941
139.957 195.831 232.208
246.392 92.7017 153.475
216.679 141.39 198.356
218.379 51.3446 232.417
-91.4627 47.4705 312.765
-0.109184 83.1773 306.705
-210.037 -41.679 230.62
-167.977 1.09202 285.13
1.85965 -92.2982 333.387
-85.557 -55.2634 322.925
-78.5426 -133.326 292.092
-226.989 -59.0492 72.3897
-225.661 -57.3759 159.738
-223.18 -73.0971 -168.073
-218.915 -58.8847 -76.2969
-169.068 -191.191 50.2763
-199.397 -142.404 3.88384
-164.705 -191.542 -46.2915
-170.856 -0.885036 -301.889
-212.981 -50.0465 -241.228
-2.7606 88.4695 -337.919
-90.7448 54.0567 -339.975
-88.3167 -139.552 -302.958
-92.0186 -53.8122 -338.027
-1.11935 -90.0874 -335.571
135.957 175.196 -239.423
93.0173 136.697 -301.736
189.352 175.633 -32.7426
162.463 172.856 -169.294
221.17 54.1816 -243.098
207.224 123.765 -210.52
231.654 73.957 -170.528
177.554 -196.483 46.987
157.332 -189.933 135.933
115.107 -243.483 75.1585
216.871 -45.4293 236.601
197.435 -112.276 203.616
234.179 -59.7841 161.092
44.226 -197.836 234.831
125.212 -166.052 232.213
80.9042 -133.355 293.69
41.6236 -272.756 68.2735
68.9988 -283.813 -5.79819
-42.3871 -196.331 234.805
2.04545 -240.96 167.374
-61.7831 -281.079 -4.84819
-36.8951 -270.801 68.0007
-108.753 -239.068 75.5975
43.6903 -283.824 -79.7818
111.982 -253.501 -77.1984
-103.244 -247.444 -77.9391
-37.7664 -282.093 -79.5875
55.1557 -197.31 -245.35
1.15972 -252.585 -154.011
-59.3559 -199.375 -243.893
153.632 -182.269 -151.941
174.232 -199.813 -45.1593
89.9927 -137.556 -301.948
136.347 -175.283 -240.06
230.307 -71.7477 -177.072
208.669 -123.465 -212.189
221.616 -54.6826 -242.765
209.653 -149.658 1.93797
244.753 0.131081 -112.636
229.518 -58.2817 -68.928
238.466 -67.2072 70.3408
252.52 8.34418 109.488
90.354 -54.5629 325.282
171.564 -4.39072 290.974
94.7749 44.7421 314.68
-150.861 -184.553 136.373
-120.377 -164.56 230.792
-191.389 -111.531 198.838
-132.431 -176.856 -239.676
-154.712 -173.374 -161.161
-199.382 -123.106 -209.018
173.739 0.00668524 -299.205
93.844 -56.4559 -337.556
93.576 56.5356 -337.496
245.795 86.0411 85.2837
235.113 71.9205 -71.7802
214.897 149.336 45.6525
-159.036 224.295 66.2309
-157.392 236.835 100.75
-129.52 253.312 78.042
-207.534 188.449 132.763
-184.524 214.16 119.651
-207.072 180.571 109.131
-113.66 272.337 135.45
-152.358 246.559 128.053
-139.668 247.81 158.057
-238.836 32.3735 203.882
-242.543 67.559 191.37
-251.952 47.9667 170.679
-189.8 118.871 236.934
-217.437 93.8483 216.889
-193.562 77.0087 254.043
-237.42 119.228 139.527
-236.97 107.778 174.644
-226.211 147.622 153.56
-25.8436 210.181 257.014
-70.3577 193.411 258.881
-45.7467 165.161 275.826
-115.43 234.453 202.077
-94.4034 217.386 233.09
-73.8092 253.356 205.434
-127.159 122.906 279.777
-113.551 171.103 258.703
-150.581 148.189 252.943
-196.95 180.933 170.93
-176.354 166.255 216.288
-158.632 210.86 188.516
-96.6749 273.209 79.3037
-104.042 257.053 48.3825
-73.3366 290.366 136.701
-85.7725 285.095 110.004
-37.4705 280.184 47.7688
-59.8289 287.264 80.5971
-24.6069 293.29 80.2799
26.4833 210.06 257.044
-0.0155759 237.848 236.28
50.5796 278.391 177.849
26.7202 262.088 209.726
76.3597 253.188 205.749
-26.4551 262.116 209.729
-49.7289 278.687 177.725
109.668 257.455 45.9741
101.732 273.538 78.4586
135.68 254.935 77.151
24.1358 293.103 80.0898
62.1842 286.684 80.1181
38.2882 279.868 46.5645
117.556 272.99 135.73
89.3949 285.117 109.386
75.0485 289.806 136.807
-26.5919 299.345 140.936
26.4968 299.197 141.064
-0.364694 300.503 109.684
-88.2356 248.204 19.9407
-117.112 231.431 19.1431
-18.9206 264.513 10.95
-50.5427 260.676 17.0927
-95.5204 199.886 -160.089
-54.2352 212.9 -69.4256
-59.7862 213.916 -150.58
118.209 234.271 12.9137
96.2101 246.252 14.4585
67.5828 213.521 -149.882
72.2802 207.398 -67.0759
105.832 201.42 -157.705
53.9438 260.354 15.2963
20.2155 264.931 9.99384
-29.7436 178.434 -265.909
-0.70335 196.557 -238.629
30.0221 178.411 -264.339
-50.6724 210.207 -183.378
-29.9436 204.703 -211.891
-72.5065 202.802 -210.238
81.0337 202.688 -212.53
31.1206 203.969 -212.498
55.5376 206.863 -185.964
0.712518 234.548 -58.5731
24.0194 219.854 -138.255
-25.0171 220.054 -139.442
-144.279 175.837 -47.9206
-153.408 208.409 27.5835
-121.186 189.874 -175.738
-134.219 180.566 -147.59
-174.539 157.242 -92.3031
-166.543 159.338 -116.828
-176.541 149.491 -141.22
-45.9399 147.37 -299.375
-70.8246 170.095 -271.921
-144.427 135.943 -262.939
-109.361 155.032 -270.832
-122.878 116.638 -296.554
-91.5471 186.905 -239.828
-106.23 191.94 -208.964
-225.202 34.5793 -181.164
-218.145 58.3995 -205.044
-221.826 20.4572 -218.324
-195.465 119.682 -169.684
-208.513 91.6605 -188.763
-213.392 92.5373 -142.447
-187.727 71.282 -263.7
-204.47 84.9664 -226.046
-182.047 109.235 -245.173
-142.751 173.57 -198.781
-164.82 146.03 -224.048
-173.25 148.727 -185.292
-175.696 194.886 43.1507
-177.081 129.273 -45.0783
-177.918 176.116 9.72927
-198.817 175.971 68.61
-218.175 152.344 90.6415
-229.785 -1.90854 -151.039
-233.166 36.1619 -131.575
-216.696 41.2095 -34.635
-231.522 36.3365 -101.784
-226.152 -11.3107 -74.1606
-228.249 65.0512 -113.475
-221.389 79.207 -97.851
-248.16 51.195 150.012
-245.387 21.8146 158.484
-233.732 120.487 110.469
-242.076 83.9232 131.644
-241.349 8.50113 75.2659
-242.852 48.6653 106.41
-237.516 42.7556 63.2092
-219.338 83.1841 -6.06543
-224.488 81.8249 27.6269
-226.017 115.317 65.9811
164.108 239.698 98.7992
166.275 227.097 65.8205
144.207 248.235 160.063
157.909 248.699 127.853
215.199 184.32 107.259
191.843 217.266 118.512
214.996 191.09 134.771
47.719 165.135 275.648
73.8129 193.222 259.643
154.568 152.636 254.924
117.992 172.907 260.918
129.154 126.814 280.646
98.7551 217.294 234.438
120.283 234.856 203.834
245.467 44.5947 172.243
239.685 73.0996 192.599
237.596 23.9566 207.254
233.659 152.919 155.935
238.923 117.695 174.349
245.191 127.65 138.085
193.751 78.8942 253.804
218.829 101.082 216.769
193.077 125.534 237.704
164.94 212.706 191.823
182.3 170.616 219.144
204.283 184.413 174.679
-51.1227 116.858 294.981
-0.0380463 136.081 288.408
-129.869 78.576 296.003
-95.0159 97.409 299.411
-0.251181 31.2185 324.576
-50.2159 62.4567 311.657
-46.5877 15.4907 326.992
-231.021 -13.8489 205.061
-216.789 6.54266 232.553
-162.011 -46.9128 282.381
-191.001 -21.7446 261.588
-183.124 -66.865 253.096
-193.922 29.9415 260.661
-168.994 52.5366 281.082
1.81228 -130.287 315.614
-36.8432 -114.607 315.924
-34.3611 -149.08 294.029
-40.9997 -35.1622 332.442
-37.9397 -74.8477 329.904
1.33548 -55.7366 341.485
-116.842 -114.494 285.178
-83.4479 -95.9407 311.613
-121.359 -75.4772 301.775
-131.382 24.5933 304.464
-128.49 -27.9885 308.803
-89.4518 -5.68819 325.037
-237.671 -19.8772 138.709
-235.591 -20.5736 173.678
-231.056 -25.085 50.7948
-239.987 -23.1911 93.1516
-213.48 -91.6586 136.598
-229.77 -58.0747 114.708
-215.683 -96.3967 88.9625
-225.949 -41.7483 -182.514
-232.117 -38.6223 -135.931
-209.793 -98.8372 -106.161
-225.297 -65.8749 -129.826
-213.841 -99.3796 -153.633
-233.662 -28.4327 -99.3748
-229.446 -28.8586 -34.5361
-148.745 -213.585 24.5326
-168.664 -192.383 2.33695
-145.798 -216.751 -23.6415
-201.211 -138.687 55.1952
-186.194 -166.499 28.5592
-185.369 -162.437 75.3016
-183.498 -155.208 -86.6741
-185.482 -166.784 -21.9821
-198.226 -134.742 -57.1538
-222.779 -65.2879 8.00127
-210.288 -107.478 -29.4862
-212.237 -105.761 35.7571
-215.699 -1.74746 -246.146
-222.186 -25.3711 -218.092
-166.68 48.2483 -296.082
-193.283 22.9293 -272.787
-190.787 -75.6419 -264.335
-194.702 -25.7449 -273.165
-167.933 -50.2532 -295.87
-2.64238 125.727 -317.182
-48.0706 112.938 -325.047
-50.3204 29.0355 -350.596
-49.3023 72.308 -343.331
-1.95926 47.8577 -349.574
-89.8161 96.2932 -325.08
-126.984 76.8574 -316.177
-47.6441 -152.406 -299.924
-49.5428 -116.568 -323.694
-0.696308 -129.934 -316.504
-128.981 -79.4306 -315.97
-92.0326 -99.8215 -324.339
-125.888 -121.579 -297.779
-1.13325 -46.3394 -348.081
-49.9085 -72.4386 -340.701
-50.4421 -27.0182 -350.198
-133.572 25.9442 -325.317
[...]
POINT_DATA 642
SCALARS Mean_Curvature double 1
LOOKUP_TABLE default
0.00799305
0.00803934
0.00683975
0.00825501
0.015722
0.00446872
0.0057399
0.0058996
-3.65597e-05
0.0156718
0.00249417
0.0168887
0.0158386
0.00805249
0.00734931
0.00729828
0.00598832
0.00583226
0.0117713
0.00844755
0.00124009
-0.00170256
0.00727024
0.0139598
0.00831944
0.00543214
0.00511626
0.00497767
0.00224554
0.00900996
0.000236265
0.00967967
0.00655342
0.00898843
0.00577303
0.00566376
0.019857
0.00111457
0.00607272
0.00953714
-0.0029367
0.000449672
0.00557318
0.0159456
0.00878947
0.00977857
0.00575126
0.0199279
0.00884312
0.00699646
0.00775833
0.0148768
0.00865119
0.00757525
0.0051223
0.00730352
0.0133765
0.0103326
0.00694062
-0.0119835
0.00061713
0.00654449
0.0134156
0.000343614
0.0109699
0.00960091
0.065727
0.00952602
0.0120718
0.00412614
0.00993105
0.0123498
0.000862208
0.0123155
0.0230871
0.00529296
0.00179166
0.0129533
0.00691159
0.00749657
0.00781267
0.00642686
0.00811299
0.00501622
0.00541941
0.00113062
0.0095254
0.00878547
0.0137603
0.00922979
0.00843457
0.00205846
0.00387527
0.00780602
-0.00572868
0.00896052
0.00582343
0.00402725
0.0110254
0.0118174
0.00697226
0.0099518
0.0102663
0.00748349
0.0046175
0.0120458
0.0106345
0.0485935
0.00611722
0.0138649
0.0147086
0.00636914
0.00640374
0.00519255
0.00662587
0.0105392
0.00661451
0.00380035
0.00466559
0.00717447
0.0070294
0.00339429
0.0114007
0.00513442
0.00909072
0.0122306
0.00279474
0.0071768
0.010567
0.00980297
0.00820151
0.0114127
0.0114875
0.00683989
0.0102824
0.000474852
0.00597138
0.00748788
0.0115544
0.00674835
0.0213915
0.0135465
0.00740541
0.0128717
-3.08332e-05
0.00574701
0.00968742
0.00832192
0.00923401
0.00529704
0.00484111
0.00790889
0.00958726
0.0124001
0.000443908
0.0134179
0.00540767
0.00949634
0.00902098
0.00438176
0.0208996
0.000850998
0.00767649
0.0057469
0.00825419
0.0201339
0.00969652
0.00433795
0.016312
0.0156717
0.0100599
0.0132812
0.0131075
0.0300163
0.00709697
0.0060493
0.00909329
0.0118695
0.0130503
0.0131399
0.00929032
0.00693209
0.00268448
0.00717019
0.0076457
0.00832097
0.00778068
0.00698941
0.00755333
0.00626766
0.00706705
0.00599822
0.00863897
0.00863874
0.0156104
0.0106197
0.00831922
0.00778905
0.00740223
0.00893715
0.00650414
0.00740769
0.00924182
0.00756693
0.00939229
0.00810444
0.00844343
0.00838938
0.00811285
0.00694794
0.00634073
0.00747033
0.0149535
0.0107131
0.0138142
0.0148233
0.0147604
0.0100376
0.00327984
0.00317494
0.00465413
0.00287201
0.00323932
-0.00413895
0.010893
0.00516463
0.00493885
0.00910042
-0.0101602
0.00534985
0.00165505
0.00553798
0.00523815
0.00995939
0.00383207
0.00505301
0.00471406
0.0117573
0.0128024
0.00515831
-0.00142893
0.00369908
0.00296522
0.00484101
-0.00536961
0.000411403
0.0122249
0.00496338
0.00424197
0.00785158
0.0102695
0.00763999
0.00964741
0.00851855
0.00870151
0.00902086
0.0130075
0.0104117
0.00414443
0.00934642
0.00971505
0.004856
0.00617296
0.00736308
0.00842876
0.013144
0.0113634
0.0104124
0.0120036
0.00929685
0.0151237
-0.0138947
-0.0220847
0.00676681
0.00595787
-0.000957057
0.0111817
-0.00965812
0.00496857
-0.00725273
0.0151544
0.00626318
0.00457001
0.00268155
0.00583445
-0.000666689
0.00924642
0.0034137
0.00357947
-0.00163492
0.00873311
0.0080058
0.00764972
0.00776256
0.00863719
0.0146826
0.00661655
0.0109326
0.016723
0.00180064
0.00658596
0.00886126
0.00831296
0.00886073
0.00724403
0.00725432
0.00501916
0.0115369
0.00926638
0.0149579
0.0124602
0.0181222
0.00619067
0.00638661
0.00844081
0.00698488
0.00851276
0.00806612
0.00253422
0.00131171
0.00932105
0.00765168
0.00403393
0.000431445
0.00593652
0.0127641
0.00527359
0.00813875
0.00878562
0.00750407
0.00589782
0.00982116
0.0137924
0.0067762
0.0067527
0.00425921
0.00657144
0.0178009
0.00928981
0.00896782
0.00880473
0.00597116
0.00912478
0.0106947
0.00241254
0.00555753
0.00138835
0.0107128
0.00229654
0.00626554
0.00358257
0.00277772
0.00998287
0.000271895
0.00656279
0.00615213
0.0190827
0.012087
0.00380287
0.00597962
0.00541191
0.00763108
0.00397373
0.00517757
0.00216395
0.00645136
0.0041994
0.00161882
0.00326121
0.00153088
0.0160878
0.00768417
0.00825302
0.00610683
0.00823201
0.00729889
0.00647037
0.00616488
0.00890088
0.00680223
0.0095937
0.00696169
0.00998157
0.00927424
0.00737892
0.00792678
0.0053019
0.0086054
0.0100547
0.00966018
0.0056268
0.00660822
0.00732445
0.00790135
0.0102888
0.00957121
0.00848608
0.00409381
0.0152475
0.0153167
0.00991937
0.00937107
0.00872047
-0.000490748
-0.0128278
0.00981811
0.00680259
0.0106
0.00462015
0.00711702
0.0108149
0.0149905
0.00419963
0.010531
0.0141147
0.00947635
0.00454644
0.0123264
0.00689585
0.0146211
0.0118217
0.0131338
0.0059319
0.00688332
0.00471523
0.00503602
0.0054114
0.00425162
0.00665177
0.0062425
0.00563275
0.0157317
0.0108915
0.00792288
0.00995465
0.0110586
0.00972378
0.00311209
0.00572531
0.00374431
0.00970089
0.00623682
0.00808633
0.00483734
0.00659699
0.00478413
0.00880418
0.00884861
0.00893733
0.00444711
0.00738181
0.00479932
0.00371993
0.00914224
0.00586859
0.00531354
0.014322
0.00647036
0.0106344
0.00744846
0.00879804
0.00549177
0.00519901
0.0040605
0.00650209
0.00554956
0.00904959
0.00326458
0.00364465
0.0106008
0.00676984
0.0147647
0.00618913
0.00583025
0.00645661
0.00488652
0.00520637
0.00838599
0.00625137
0.00584757
0.00807122
0.00497567
0.00694083
0.0103328
0.00896005
0.00450848
0.0046172
0.00820466
0.00954571
0.00587407
0.00450611
0.00909809
0.00765708
0.00573522
0.00650442
0.00742166
-0.004201
-0.00607761
0.0149749
-0.00902834
0.00938129
0.00975485
0.0107268
0.010095
0.00748479
0.00655118
0.00131328
0.00571683
0.00506369
0.00503588
-0.00359159
0.00830927
0.00827599
0.00816066
0.00842587
0.0100094
0.0098733
0.0137468
0.00524061
0.017679
0.0107266
0.00495833
0.0164489
0.00290962
0.00903375
0.0170992
0.00967609
0.0104336
0.0160028
0.0100086
0.00709138
0.00581927
0.00808913
0.00752457
0.00344214
-0.000835716
0.00965509
0.00720436
0.0173943
-0.0104459
0.00641714
-0.00364463
0.00673321
0.00236512
0.00812903
0.0052771
0.00347799
0.00145147
0.00619938
0.00457917
-5.9392e-05
0.00112209
0.00802198
0.00928598
0.0073132
0.00865075
0.00246356
0.00938855
0.00508389
0.00729862
0.00949665
0.0107125
0.00204374
0.00378861
-7.99854e-05
0.0072304
0.00696092
0.0116733
0.00815596
0.012956
0.00841643
0.00511871
0.00557617
0.00518314
0.00504259
0.00835158
0.00883471
0.00947565
0.0075787
0.00426967
0.0118986
0.00355157
0.0083235
0.00921342
0.00851062
0.00505957
0.0085272
0.00478964
0.0104502
0.0117057
0.0126269
0.00874583
0.00815135
0.00554932
0.00285073
0.00276471
0.00588495
-0.00764208
0.0124019
0.0110326
0.0144586
0.0108479
0.00732452
0.0129819
0.0105349
0.0150851
0.00849231
0.0106075
0.00546417
0.00553032
0.01063
0.00790031
0.00743622
0.00466303
0.00923249
0.0112435
0.00473609
0.0111487
0.0109261
0.00561478
0.00786152
0.00688781
0.00531624
0.0069554
-0.000392298
0.00247956
0.0092351
0.00892722
0.00522516
0.00643703
0.00531147
0.00969204
0.00865366
-0.00826107
0.0138669
0.00660501
0.0077915
-0.0173776
-0.0172781
0.00970577
0.000175559
0.00580993
SCALARS CoVolArea double 1
LOOKUP_TABLE default
1016.3
1068.2
1207.76
1152.85
1155.91
1697.49
1569.92
1640.89
1273.31
959.352
1154.04
836.215
1095.13
1912.8
1869.55
1943.54
1528.6
1145.21
1040.07
1897.73
2329.76
2828.65
2079.51
1118.75
1789.34
2144.37
1786.67
1844.56
2505.65
1957.09
2349.43
1865.72
1881.17
1769.09
1931.48
1931.21
1091.6
2304.95
2197.04
1876.36
2649.46
2891.56
1372.89
1625.99
1231.89
1696.53
2057.25
1008.39
1837.09
2119.24
2010.17
1316.17
1265.74
1920.14
2039.17
1406.38
1388.91
1270.68
2577.16
4367.69
3066.04
3204.14
1490.16
2012.47
1600.05
1196.06
1764.89
1764.42
1599.14
1431.74
1399.5
1503.37
3022.35
1311.32
1576.93
1846.07
1520.87
1719.42
1354.92
2005.3
2072.95
1429.84
1916.85
1963.17
2225.06
2891.21
1600.62
1992.87
1622.93
2060.42
1794.94
2068.53
1472.74
1204.35
2740.77
1463.41
1879.66
1985.37
2043.61
1546.93
2146.84
2115.99
1782.32
2212.21
2294.39
1611.43
1830.47
2412.58
1228.76
1611.21
1374.09
1295.56
1573.99
2023.16
1716.31
1490.06
1721.1
1569.88
1772.25
1852.73
1891.15
1935.71
1386.11
1737.96
1879.43
1327.8
1913.39
1667.99
1553.36
1435.16
1608.64
1501.22
1943.05
2422.52
1736.79
2492.58
1570.79
1874.77
1605.53
1049.99
1138.24
1615.6
1705.53
1471.22
2865.27
1967.39
1644.92
2069.8
1961.28
2268.79
1975.81
1738.33
1585.44
1558.12
1968.76
1287.51
2316.75
2248.68
2242.96
1757.16
1754.74
3011.99
1332.56
1287.87
1241.59
1304.07
1131.57
1122.23
1365.56
1231.71
1853.68
1344.65
1399.1
842.58
2014.38
1776.47
1730.94
1141.1
1549.85
1582.66
1825.22
1963.41
2139.62
2070.06
1900.02
1808.81
1823.03
1937.58
2064.5
2165.6
2362.96
2328.87
1272.41
1168.56
1582.71
1207.2
1303.67
1224.78
1403.61
1876.48
1866.06
2002.22
1891.87
1888.13
1850.84
1938.99
1209.1
1331.4
1247.34
1459.62
1331.54
1399.99
1454.32
1279.34
1663.1
1883.68
1920.06
1566.59
2756.26
2598.08
1990.93
2255.12
2356.66
3824.64
2040.01
2354
2323.6
2622.79
3695.23
2041.8
2563.99
2052.97
1827.41
1764.75
1988.91
1403.81
1492.56
1150.26
1159.89
1572.34
1672.65
2596.41
2784.45
2449.73
3750.27
2161.03
1075.9
2417.61
1721.49
1700.12
1309.81
1793.33
1674.46
1821.53
1678.94
1764.92
1416.97
1250.42
1492.72
1318.95
1244.8
1426.34
1321.83
1389.96
1704.71
1378.56
1693.58
1449.84
1705.63
1494.63
1449.83
4531.54
2119.17
1511.46
1353.44
1718.89
1445.03
3750.29
1761.69
2287.45
1104.97
2457.99
1056.26
1098.53
1374.71
1277.76
1638.9
1548.54
2747.09
2978.26
2376.87
1881.24
1299.24
1311.15
1927.27
1345.92
1187.46
1238.95
1391.58
2206.56
2010.5
1997.87
1885.55
1831.51
1944.94
2103.02
1510.44
1736.45
1543.09
1501.37
1513.99
1067.1
1985.04
1879.95
2008.92
2305.54
2247.44
2103.76
2529.08
2610.09
2030.62
2061.69
2504.12
2479.95
2282.4
1370.91
1742.76
1907.9
1772.55
1653.03
1792.99
1977.66
1543.36
1816.36
1645.82
2067.4
1828.49
1697.76
1670.27
1874.16
1911.91
2323.91
2217.11
2346.93
1630.22
1243.74
2056.53
1609.59
1685.45
1734.17
1949.8
1449.3
1382.27
2209.78
1536.7
1277.66
1417.82
2275.47
1508.2
1533.63
1527.96
1756.37
1493.66
1583.58
2246.81
1789.26
2123.76
3047.58
2859.64
2402.02
1535.74
1258.8
2040.65
1778.52
1768.18
1799.03
2095.48
2046.66
1915.83
2314.95
1983.23
2207.61
1843.24
2044.81
1864.24
2057.44
2080.02
2116.92
1933.15
1789.61
2329.27
2167.99
2388.65
2346.81
2428.96
2375.37
1781.74
2046.68
1183.91
1392.36
1721.39
1662.63
1881.53
2586.45
4223.1
1253.2
2257.11
1692.6
2350.86
1089.88
1389.21
1202.21
1496.37
1777.04
1385.71
1709.12
1327.79
1122.32
1256.63
1391.8
1391.06
1755.48
1497.56
1654.13
1572.69
2019.47
1723.97
1696.22
1707.88
1704.97
1981.38
1260.7
1310.18
1170.21
1693.97
1443.25
1572.1
1747
1552.04
1937.43
1521.81
1814.91
1614.19
1988.9
1797.38
1842.99
1769.13
1746.88
1780.34
2185.67
2005.96
2211.92
1657.57
1414.77
1999.15
1809.49
1166.04
1512.15
1376.9
1536.22
1654.67
1976.93
1770.75
1834.49
1745.71
1961.91
1404.58
1602.62
1557.04
1357.36
1456
1105.85
1687
1768.63
1962.01
2203.47
2192.43
2026.46
1446.8
1381.75
1447.98
1422.07
1793.73
1415.3
1716.13
1445.86
1473.75
1812.79
1456.78
2023.4
1383.6
1403.54
1684.11
2252.38
1716.3
2278.72
2880.59
2141.54
1714.59
2685.04
2202.35
1708.9
1809.97
1793.61
1538.76
1426.1
2416.1
2066.05
2228.48
2231.08
2532.08
1895.87
1727.36
1888.31
1744.97
1773.44
1624.34
1882.08
1393.97
1094.69
1368.75
1513.72
868.429
1674.77
1731.58
1317.24
1764.7
1918.96
1621.6
1705.1
1460.25
2275.3
1450.88
1505.84
1827.28
1824.29
1382.96
2435.16
1549.82
2411.71
1797.95
2922.75
1602.78
1464.29
1830.96
1736.37
1641.26
1658.66
2190.11
2838.25
2937.38
2227.75
1799.4
1931.37
1962.8
1829.18
2124.31
1718.87
2225.52
1915.29
1679.35
1820.49
2598.9
2406.31
2609.85
2129.46
2190.31
2087.09
2284.13
2280.97
1549.83
1971.69
1680.12
1645.24
1930.78
1728.78
1721.31
1617.19
1678.24
1930.5
1332.1
1765.81
1374.94
1455.51
1704.45
2089.14
1882.53
2002.15
1650.83
1736.52
1387.97
1697.66
1869.72
1861.3
1890.95
2354.48
2166.16
2384.23
1241.19
1746.16
1384.57
1094.44
1275.68
1665.08
1420.98
1628.03
1857.74
2081.35
2015.55
2005.36
2077.93
2143.53
2463.3
2230.1
1939.21
2009.15
2177.16
1995.13
1911.8
2172.15
2439.57
2567.71
2667.71
2570.99
1720.59
2536.34
1556.71
1327.96
1295.25
1586.15
2787.15
1291.29
1880.86
3473.92
1492.24
1408.56
1478.83
2017.51
4588.63
2392.08
3356.39
2026.34
SCALARS SignedDistance double 1
LOOKUP_TABLE default
148.017
145.707
134.441
128.292
105.658
106.905
106.383
111.802
133.199
130.665
138.29
138.904
141.106
99.8579
105.309
103.47
144.256
145.248
150.901
105.908
156.988
157.397
99.1424
135.358
109.286
102.73
156.18
142.099
91.5944
101.267
149.195
97.5402
136.752
104.667
121.759
124.602
119.029
138.578
128.557
97.556
148.201
152.715
142.282
126.968
130.983
111.092
114.624
141.805
97.7342
101.028
103.567
129.058
146.15
97.8461
100.629
144.363
128.327
128.646
178.804
173.553
176.65
177.354
137.051
153.37
137.003
153.677
186.721
101.839
129.653
143.237
136.98
125.49
154.081
159.682
180.17
150.352
143.329
119.837
138.417
104.506
97.845
131.595
108.38
110.52
105.823
107.867
120.542
102.101
93.785
96.7821
104.213
152.636
139.081
143.307
159.96
139.465
145.598
139.891
100.308
125.447
93.7214
88.4415
97.1514
89.5041
93.023
125.236
102.525
186.214
145.218
119.554
133.24
139.72
132.499
126.837
125.417
115.333
124.925
133.228
116.476
117.819
103.109
124.855
122.59
118.666
121.024
126.91
126.651
129.393
117.085
124.055
130.422
121.097
124.145
119.18
126.206
145.39
133.113
99.155
124.629
139.087
136.541
119.984
140.342
154.926
158.388
142.884
142.089
96.243
98.1482
105.842
131.506
121.085
131.714
124.234
149.621
136.201
96.8075
91.6037
91.3498
143.914
175.36
150.291
145.691
135.966
140.056
135.569
135.012
140.101
122.599
129.23
114.86
126.709
127.339
141.987
104.801
111.389
102.548
140.096
132.092
130.496
101.624
102.016
106.598
101.161
99.1391
98.3144
99.9837
100.314
100.438
115.395
105.083
106.873
138.084
146.932
119.718
128.814
145.77
136.551
136.392
101.606
97.9974
100.768
97.2251
97.7388
97.2497
100.764
145.468
136.21
137.49
135.058
135.31
144.078
119.186
127.341
118.559
117.124
116.961
128.32
152.752
153.67
154.194
153.17
155.539
177.744
165.926
153.403
152.271
161.308
172.439
150.597
150.655
153.517
122.98
137.528
122.745
153.308
146.197
144.158
144.159
145.477
148.455
178.542
172.114
175.499
175.586
154.321
150.839
156.998
181.548
168.079
158.442
107.983
116.8
114.548
112.906
101.518
130.883
140.919
138.424
136.384
134.86
145.825
140.138
150.993
113.964
132.142
123.334
142.613
133.842
145.365
153.334
171.323
163.255
149.34
146.726
143.16
152.702
168.941
162.461
167.963
161.936
167.977
144.037
142.972
144.663
142.177
153.71
145.757
154.507
170.722
161.55
154.223
132.756
142.217
109.848
124.572
135.363
130.063
128.862
106.424
101.828
97.2839
98.8977
98.9305
97.9962
98.9356
131.202
124.422
122.394
124.95
123.597
135.313
102.931
110.108
102.034
102.537
99.7313
110.2
106.73
107.043
99.1572
105.131
106.72
107.403
106.168
130.628
117.444
105.275
108.551
114.241
107.616
100.918
98.3582
98.7685
104.756
100.893
97.0213
98.8426
105.676
98.5733
100.755
100.084
98.9506
99.8761
139.292
137.294
155.769
151.208
140.387
146.248
146.671
139.176
149.189
159.125
150.912
147.555
163.039
163.381
136.255
139.255
136.54
145.655
142.002
139.661
152.554
142.542
151.623
150.658
149.326
149.316
128.256
135.25
101.359
111.648
109.995
112.119
100.868
101.478
98.0351
91.2084
91.1622
90.1623
93.0168
94.6012
102.931
95.1372
97.6963
91.6044
90.4405
97.0435
91.5466
92.2171
90.7985
92.4157
88.0114
92.2022
117.956
107.829
139.938
130.681
96.1539
109.215
107.706
150.393
169.244
149.762
157.858
172.62
149.948
144.069
130.734
133.14
135.276
113.834
124.76
104.677
143.717
137.31
141.166
139.856
140.862
127.869
129.909
128.436
127.468
131.342
130.967
135.605
124.105
126.774
123.6
124.445
128.616
131.872
116.332
122.231
108.749
132.574
128.726
130.305
112.117
110.784
104.325
120.527
116.762
119.614
102.902
110.411
111.678
127.32
121.182
123.63
126.014
125.67
123.999
124.596
119.968
123.765
121.548
113.239
116.191
122.096
120.213
121.903
118.949
121.167
131.492
130.444
133.242
123.303
126.564
122.476
127.77
127.289
125.789
124.724
125.443
124.859
123.111
126.485
118.759
120.067
122
119.49
117.867
132.948
129.159
122.217
125.12
128.686
124.205
120.712
115.293
123.812
115.428
121.053
131.333
138.366
142.051
134.327
126.665
117.604
117.222
115.678
129.567
130.158
137.837
127.585
137.714
133.143
146.716
102.733
110.233
107.658
108.34
96.0687
124.571
142.43
135.843
135.017
130.855
140.255
138.94
140.791
104.853
127.609
114.485
141.056
129.761
140.64
132.875
140.847
136.26
135.874
140.551
137.885
143.76
154.553
158.681
162.194
145.694
152.929
137.491
133.077
141.082
137.788
146.681
144.123
147.202
146.127
145.862
145.757
98.223
97.1374
97.093
96.263
100.485
110.742
100.598
103.735
104.185
99.1644
106.583
105.381
107.226
105.521
99.3455
94.1248
98.4193
100.222
133.681
127.732
131.053
135.203
136.387
112.103
114.827
112.761
120.006
124.146
134.604
136.817
137.279
126.937
120.262
128.07
125.129
132.604
110.126
137.483
124.127
107.17
109.317
135.798
152.306
145.899
137.079
146.412
135.914
118.755
129.942
140.109
144.263
139.865
142.25
131.494
119.933
95.5881
105.303
105.288
95.5851
94.7511
90.7202
92.0906
92.3598
89.3293
98.2995
89.3295
93.4412
92.2465
90.2283
90.5844
90.353
90.6001
133.754
147.253
143.76
137.873
139.489
143.812
159.441
152.467
158.455
166.069
149.894
142.003
145.651
161.707
169.757
156.155
166.114
148.018
