# vtk DataFile Version 4.2
vtk output
ASCII
DATASET POLYDATA
POINTS 642 double
-205.63 338.894 12.0412
207.973 340.586 11.5504
-200.917 -335.514 -0.963411
205.084 -339.321 -1.39369
0.482783 -221.041 365.189
0.0281926 225.084 358.131
-0.181186 -221.418 -365.312
-0.666852 219.694 -364.665
348.07 -0.150486 -225.17
349.875 0.000781419 222.33
-344.262 -0.771143 -224.506
-347.55 2.71107 219.702
-329.64 206.622 131.814
-211.597 130.72 344.236
-129.374 343.2 213.542
130.373 343.557 213.939
-0.146603 402.138 11.6995
127.344 322.727 -212.143
-124.217 320.684 -210.233
-212.038 130.379 -349.988
-309.786 191.915 -134.766
-372.153 -0.526569 5.84083
212.205 131.953 344.763
333.444 208.592 133.093
-208.359 -128.396 343.606
0.189933 -3.38756 428.446
-313.924 -192.409 -136.19
-310.606 -191.827 127.459
-0.372434 0.260826 -436.21
-213.147 -131.758 -350.833
316.002 195.08 -137.948
214.992 132.232 -352.455
315.217 -194.582 127.657
211.436 -129.155 346.635
123.125 -323.46 205.142
-121.657 -321.647 204.555
0.376118 -408.746 -0.806389
-123.408 -320.637 -206.721
122.907 -324.063 -205.932
214.991 -132.243 -352.459
311.236 -191.233 -134.867
377.203 0.360717 5.30758
-276.963 284.64 74.7203
-243.273 288.343 178.75
-178.75 359.964 112.975
-293.707 67.8117 293.602
-286.018 177.432 248.395
-354.016 106.332 182.801
-67.6749 296.65 299.747
-178.549 249.263 292.461
-110.845 184.349 365.122
-68.0072 400.678 114.926
-108.488 386.541 11.7368
68.0759 296.553 299.786
-0.00564028 361.942 225.632
109.471 386.553 11.4744
68.0988 400.446 114.994
180.238 360.929 113.116
-58.155 359.272 -97.8769
-162.031 319.039 -101.194
166.07 326.152 -103.598
59.6467 359.408 -97.4077
-67.6656 284.205 -297.166
-0.205644 334.174 -219.741
69.2247 284.292 -296.906
-232.083 270.285 -179.643
-265.142 264.337 -57.8629
-110.959 183.888 -373.943
-176.187 242.366 -292.707
-339.812 102.042 -184.71
-282.115 173.104 -248.989
-292.877 66.0391 -296.463
-325.523 206.29 14.6452
-369.507 -0.538892 -115.615
-359.997 102.399 -70.9531
-368.216 106.349 76.7107
-372.942 5.49561 120.236
246.067 289.979 180.533
280.399 287.022 74.4607
111.97 185.178 366.226
180.548 250.513 294.151
353.999 109.797 183.24
288.815 179.957 249.976
293.602 67.1873 293.988
-112.442 67.5635 403.941
-0.0197908 113.216 402.488
-290.134 -64.817 292.03
-222.206 0.137174 362.28
0.483809 -118.061 416.896
-111.616 -69.9733 408.361
-108.239 -182.047 368.324
-359.408 -97.2728 71.2102
-341.8 -99.4914 183.051
-343.217 -104.641 -186.081
-353.19 -98.0069 -74.1798
-264.987 -273.424 64.1759
-319.113 -202.449 1.27838
-262.864 -273.327 -62.8635
-225.838 -0.182556 -371.089
-293.661 -66.9694 -296.849
-0.754684 117.529 -419.161
-114.429 70.4798 -417.574
-111.813 -185.426 -374.786
-114.656 -70.2989 -416.799
-0.364657 -117.616 -417.985
179.11 244.855 -294.892
113.014 184.867 -374.431
267.889 264.249 -58.8561
237.069 274.129 -182.792
296.906 68.5324 -298.812
287.72 176.389 -251.627
348.281 105.766 -187.91
268.896 -276.483 63.7945
231.925 -272.454 174.058
170.534 -342.892 103.503
293.871 -66.2518 295.429
281.376 -170.788 248.228
344.884 -100.516 184.94
64.8778 -282.869 295.79
174.72 -239.767 290.441
109.031 -182.335 369.272
63.906 -380.941 103.005
107.88 -389.56 -1.49402
-64.4307 -282.401 295.493
0.503406 -341.597 217.008
-105.848 -387.889 -1.22691
-62.6348 -379.814 102.673
-168.111 -340.233 103.104
65.21 -387.125 -106.977
170.945 -347.617 -104.509
-167.723 -344.239 -104.116
-63.734 -386.076 -106.727
68.328 -284.694 -299.638
0.305537 -344.684 -214.088
-69.1268 -285.739 -299.829
232.509 -269.093 -177.993
267.973 -277.645 -63.3626
112.38 -184.944 -374.477
179.008 -244.643 -295.155
348.642 -105.905 -189.03
288.158 -176.471 -251.342
296.93 -68.5463 -298.794
324.934 -206.155 0.493219
374.378 0.0845282 -117.084
357.324 -97.4454 -72.1035
365.071 -100.106 71.3755
377.024 2.15732 117.788
113.122 -69.9145 410.13
224.162 -1.19489 365.596
113.615 66.9666 405.261
-229.126 -269.66 173.485
-172.953 -238.936 289.216
-277.924 -169.688 245.228
-177.988 -244.95 -294.694
-234.642 -271.649 -182.875
-285.042 -175.628 -250.057
226.181 0.00191354 -369.809
115.092 -71.0196 -416.597
115.029 71.0483 -416.618
372.112 108.451 75.5872
365.045 103.464 -71.9789
329.872 208.903 13.1814
-243.078 315.356 42.9619
-232.036 326.007 95.0519
-194.663 352.596 62.2372
-291.113 250.518 155.986
-266.101 291.934 127.233
-306.303 248.62 104.036
-156.437 355.967 163.102
-214.205 328.665 147.648
-189.059 319.83 198.563
-325.177 34.9553 259.135
-327.899 88.5266 240.731
-355.338 54.7308 203.233
-252.528 156.081 300.153
-292.615 123.972 274.148
-255.687 99.983 322.362
-343.805 157.954 157.905
-322.86 143.528 217.15
-311.79 194.027 190.312
-34.0134 263.334 333.246
-90.2506 243.771 335.987
-55.8043 206.667 363.98
-155.577 300.367 256.228
-124.876 276.091 298.658
-99.5974 323.471 259.592
-162.74 159.017 358.628
-146.657 219.158 332.459
-197.359 192.008 322.217
-267.94 235.945 216.627
-236.102 216.196 274.145
-214.154 272.721 239.251
-144.636 379.016 62.9327
-159.256 366.106 11.7139
-100.161 377.309 164.912
-124.521 384.505 115.444
-55.5081 398.825 11.7561
-89.0696 397.984 63.6097
-34.1478 407.36 63.5885
34.2032 263.288 333.261
0.00215865 300.688 303.288
66.3208 357.575 222.911
34.6046 333.709 265.541
100.293 323.557 259.796
-34.5355 333.719 265.539
-66.1018 357.64 222.898
161.005 366.968 11.2191
145.952 379.559 62.8068
196.721 354.013 62.0627
33.9447 407.052 63.6181
89.5293 397.748 63.5948
55.5504 398.523 11.5919
157.535 356.461 163.561
125.274 384.607 115.52
100.609 377.274 165.03
-34.8335 387.421 171.06
34.8435 387.403 171.084
-0.0770208 405.94 116.391
-138.556 361.39 -34.9447
-184.336 337.671 -34.6066
-31.8429 387.826 -37.8693
-84.139 379.417 -35.7264
-146.77 323.594 -166.847
-109.965 338.476 -99.9361
-93.2181 341.669 -166.389
185.56 339.591 -37.4135
140.868 361.656 -37.3825
95.656 340.891 -166.308
114.883 339.172 -100.358
150.141 324.959 -166.768
85.172 379.253 -36.4907
31.904 387.937 -38.071
-34.9102 254.373 -333.914
-0.152274 286.548 -299.21
35.0711 254.064 -332.948
-64.8192 332.382 -217.901
-34.6901 314.163 -258.968
-97.6413 307.085 -254.989
100.06 308.744 -255.987
35.2688 313.823 -258.675
66.4052 331.852 -218.607
-0.126155 366.894 -98.95
32.9607 348.184 -166.621
-33.4342 349.714 -167
-213.411 292.992 -79.522
-236.469 306.136 -16.0926
-180.738 299.788 -197.313
-200.398 299.003 -151.954
-286.427 234.562 -100.92
-250.841 265.929 -127.953
-275.781 234.526 -157.552
-56.4392 204.323 -373.428
-90.4714 238.252 -339.579
-196.426 189.493 -325.611
-146.138 215.794 -336.522
-163.277 159.004 -366.083
-123.342 266.748 -298.012
-151.832 287.24 -253.406
-345.447 51.4751 -207.167
-324.022 86.6996 -242.585
-323.16 32.2388 -261.265
-300.796 185.246 -192.619
-316.049 139.49 -219.121
-328.6 148.609 -159.597
-255.597 99.1084 -326.419
-290.428 122.024 -275.473
-251.092 153.967 -302.446
-209.086 261.998 -238.054
-232.994 210.897 -274.371
-260.722 226.587 -216.775
-272.742 280.521 12.0431
-305.439 193.911 -59.6836
-294.764 242.113 -21.2801
-305.655 247.034 44.0179
-331.637 209.508 73.5913
-355.825 -1.00659 -172.537
-358.238 51.6916 -151.403
-359.999 50.261 -35.3542
-368.081 50.9901 -97.2743
-371.445 -1.86157 -64.0041
-353.629 102.251 -126.951
-341.439 143.309 -103.134
-373.583 56.1377 154.412
-368.521 4.88075 172.312
-354.549 157.43 105.589
-366.446 107.611 130.788
-377.176 3.24127 64.7653
-375.117 56.049 100.075
-374.102 53.7912 45.3285
-344.538 148.287 -26.4208
-362.941 106.624 8.26128
-352.541 159.043 44.374
234.448 327.897 94.9875
246.013 317.493 42.7309
190.895 320.865 199.663
215.816 329.574 148.351
309.92 250.635 104.62
268.703 293.404 128.058
294.496 252.437 157.83
56.4238 206.652 363.978
91.246 243.861 336.497
199.038 193.777 323.82
148.14 220.15 333.955
163.503 160.358 359.595
126.18 276.434 299.454
157.169 301.064 257.182
353.842 54.476 204.753
328.198 90.0171 240.805
325.32 33.0541 259.791
315.564 196.587 192.089
325.358 146.324 218.087
347.632 160.843 159.126
255.9 100.504 322.539
293.785 126.025 274.654
254.177 158.242 301.323
216.651 274.303 240.935
238.663 218.268 276.112
271.283 238.227 218.571
-57.5964 150.961 387.859
0.00851001 171.138 381.922
-164.464 101.542 379.14
-113.983 127.226 388.202
-0.0378301 54.3606 419.373
-57.7362 90.0492 406.766
-56.8824 32.0994 420.949
-322.154 -30.9857 257.781
-295.363 1.5021 296.378
-218.297 -65.3724 357.701
-259.019 -33.2467 331.186
-251.981 -97.2557 320.683
-260.205 35.0528 331.482
-220.199 66.5647 357.609
0.472991 -172.386 395.094
-54.4252 -152.2 397.5
-53.1267 -203.604 369.988
-55.6035 -37.1162 423.565
-55.1622 -94.6233 416.188
0.433344 -61.7953 429.295
-160.177 -156.967 359.709
-111.57 -127.603 392.94
-162.776 -101.069 381.153
-169.672 34.2914 389.03
-169.426 -35.4223 390.934
-113.725 -1.4012 413.196
-361.719 -46.7484 152.771
-348.854 -49.1851 203.227
-370.729 -47.1791 40.5468
-371.133 -47.4018 95.3408
-327.542 -146.379 157.423
-352.794 -98.9181 127.643
-339.225 -146.57 100.22
-346.949 -53.4368 -207.406
-358.783 -53.24 -152.65
-338.992 -148.41 -106.871
-352.991 -103.21 -132.02
-331.972 -151.6 -162.32
-368.523 -49.1166 -97.5361
-367.019 -46.3366 -36.587
-234.74 -305.929 31.8075
-266.855 -275.951 0.497107
-234.069 -307.032 -32.0598
-317.821 -199.869 64.2885
-295.14 -239.258 33.2262
-289.433 -234.985 95.3456
-288.151 -230.941 -100.866
-294.549 -239.349 -31.2503
-316.17 -197.188 -66.4399
-357.547 -99.3659 3.01213
-340.198 -152.357 -35.2627
-341.523 -152.21 36.1352
-298.08 -0.381999 -301.969
-323.914 -33.3282 -261.445
-221.939 66.2796 -365.013
-262.131 33.7154 -337.075
-256.634 -100.219 -327.063
-262.702 -34.3116 -337.499
-222.283 -66.6633 -365.047
-0.734662 171.433 -395.775
-57.7896 152.994 -402.754
-59.0558 36.1891 -433.518
-58.7372 94.9354 -423.607
-0.575719 60.2756 -432.913
-114.457 129.036 -400.393
-166.097 102.497 -389.045
-56.9942 -205.788 -374.032
-58.1504 -153.745 -402.309
-0.274567 -172.313 -395.501
-166.559 -103.009 -389.023
-114.939 -129.801 -400.213
-164.291 -160.49 -366.996
-0.339823 -59.7834 -432.126
-58.8169 -94.7881 -422.415
[...]
POINT_DATA 642
SCALARS Mean_Curvature double 1
LOOKUP_TABLE default
0.00652657
0.00648131
0.0056949
0.00602095
0.00756618
0.00519134
0.00447555
0.0049587
0.00691471
0.00763049
0.00900839
0.00512019
0.0080254
0.00516455
0.00501697
0.00494489
0.00474653
0.00789735
0.0067622
0.00533459
0.00429971
0.00265422
0.00493461
0.00775188
0.00522615
0.00517589
0.0049782
0.00362188
0.00329398
0.0054267
0.0042099
0.00560003
0.0039844
0.00538263
0.00422847
0.00405191
0.00748911
-0.000187095
0.002012
0.00559437
-0.000175636
0.00267338
0.00482465
0.00417855
0.00684096
0.00546438
0.00487577
0.00653809
0.00536293
0.00486158
0.00491765
0.0076116
0.00590186
0.00502816
0.00461849
0.00555955
0.00742291
0.00683451
0.00044584
-0.00240996
0.0033342
0.000108039
0.00559109
0.0047796
0.00479661
0.00596605
0.00163643
0.00544955
0.0051073
0.00415882
0.00604064
0.00492831
0.00420736
0.0057793
0.00662008
0.00397616
0.0017385
0.00456701
0.00516709
0.00551023
0.00510811
0.00619109
0.00530518
0.00415296
0.00455005
0.00244961
0.00526804
0.00523438
0.00654596
0.00527171
0.00512567
0.0037879
0.00648149
0.00589422
-0.00100262
0.00543788
0.0043461
0.00412703
0.00617078
0.00458168
0.00471219
0.00551858
0.00557845
0.00503862
0.0039538
0.00516341
0.00591057
-0.000579123
0.00727599
0.00551226
0.0056357
0.00678064
0.00455494
0.00390124
0.00451261
0.00545981
0.00577449
0.00538441
0.00461835
0.00534587
0.00473448
0.00367566
0.00613839
0.00485336
0.00528458
0.00649606
0.00354167
0.00458264
0.00569505
0.00559545
0.00534349
0.00583025
0.00661803
0.00458821
0.00676309
0.000647263
0.00459493
0.00519471
0.00549022
0.00797788
0.00546175
0.00547314
0.00495098
0.00592405
-0.000587779
0.00487832
0.00420372
0.00509901
0.0056321
0.00480096
0.00372508
0.00548154
0.0054735
0.00528053
0.006026
0.00570202
0.00427119
0.00551079
0.00545497
0.00425439
0.00623705
0.00430176
0.00533505
0.00570131
0.00525202
0.00556132
0.00804062
0.00650571
0.00510884
0.00680089
0.00469339
0.00612298
0.00482774
0.00598715
0.00499638
0.00502701
0.00537935
0.00537202
0.00445055
0.00421249
0.00553202
0.00475554
0.00413012
0.00505553
0.00501519
0.00531096
0.0049885
0.00475186
0.00493355
0.00464373
0.00492878
0.00490939
0.00555331
0.00582004
0.0051951
0.00699458
0.00594124
0.00559567
0.00588329
0.00538704
0.00472239
0.00513039
0.00553317
0.00506397
0.0055794
0.00532759
0.00563121
0.0055263
0.00535231
0.00562287
0.00530165
0.00556255
0.00498604
0.00674841
0.0049937
0.00506596
0.00506857
0.00671816
0.00540306
0.00513109
0.00459645
0.00488243
0.00619741
-0.00595716
0.00654591
0.00507463
0.00522323
0.00517608
-0.00661885
0.00480115
0.0044724
0.00472783
0.00464675
0.00395755
0.00349316
0.00687851
0.00496063
0.00601829
0.00677416
0.00418975
0.00636225
0.00231473
0.00222818
0.00381483
-0.00489782
0.0044318
0.0066426
0.00621073
0.00706459
0.00514912
0.00563932
0.00552431
0.00545407
0.00519038
0.0053717
0.00544936
0.00530382
0.00570266
0.00626011
0.00673488
0.00511615
0.00546006
0.00699192
0.00410762
0.00519919
0.00521672
0.00520274
0.00638205
0.00524583
0.00634557
0.00496739
-0.00805902
0.00537396
0.00522677
0.00545152
0.00129569
0.00335206
-0.00649381
0.00690897
0.00538043
0.00541057
0.00560885
0.0102526
0.0092752
0.00621432
0.00615253
0.00536986
0.00394647
0.00374704
0.00238636
0.00409402
0.00516471
0.00593406
0.00550903
0.00480158
0.00610095
0.00620982
0.00726136
0.00574269
0.00374463
0.00459605
0.00530829
0.00506339
0.0051242
0.00489966
0.00500797
0.00556334
0.0043694
0.00436322
0.00476871
0.00502301
0.00656656
0.00450487
0.00493279
0.00531596
0.00505267
0.0052745
0.00499609
0.00363509
0.00251897
0.00529458
0.00536916
0.0038662
0.00278955
0.00521669
0.00497441
0.00434801
0.00523778
0.00533216
0.00504331
0.00509072
0.00533837
0.00657546
0.00489903
0.00486742
0.00398466
0.00471623
0.00791261
0.00542979
0.00522857
0.00533919
0.00443977
0.0054563
0.00585545
0.00300901
0.00669373
0.00346063
0.00591334
0.00341903
0.00346591
0.00409463
0.00644799
0.00350487
0.00448085
0.0057133
0.00580751
0.0075431
0.00149005
0.00381778
0.00453673
0.0043901
0.00460579
0.00409295
0.00404263
0.000473156
0.00459534
0.00226261
0.00202146
0.00329958
0.00336498
0.00622719
0.0052182
0.00524948
0.00477522
0.0051084
0.00518438
0.00478399
0.00452646
0.00566435
0.00533047
0.00565458
0.00461293
0.00557272
0.00548779
0.00542318
0.00542581
0.00399613
0.00517172
0.00548593
0.00556306
0.00430087
0.00507007
0.00522324
0.0051364
0.00576396
0.00565233
0.00621218
0.00393261
0.00557429
0.00544925
0.0056312
0.00540497
0.00537517
0.00473502
-0.00723562
0.00616935
0.00466884
0.0073602
0.0047631
0.00812106
0.00510916
0.00659979
0.0072629
0.00534716
0.00521986
0.00554107
0.00574811
0.00709898
0.00712024
0.00622255
0.00673514
0.00516939
0.004394
0.00464591
0.00406947
0.00378805
0.00442276
0.00413048
0.00461011
0.00455608
0.0041097
0.00548457
0.0060104
0.00767957
0.0054691
0.0056531
0.00548853
0.00323036
0.00603618
0.00417476
0.00594431
0.00470678
0.00529219
0.00439195
0.00513617
0.00420601
0.00530507
0.00530979
0.00532299
0.00446741
0.00552921
0.00451777
0.00415708
0.00565184
0.0043972
0.00395326
0.00672245
0.00507248
0.00600334
0.00542783
0.00592677
0.00411387
0.00437105
0.00415001
0.00459441
0.00426813
0.0058676
0.00399495
0.00391337
0.00610842
0.00516992
0.00687758
0.004554
0.00393818
0.00457928
0.00416237
0.00418882
0.00490956
0.00500688
0.00470029
0.0049665
0.00451481
0.00514359
0.00566293
0.00547168
0.00433739
0.00446324
0.00538046
0.00558914
0.00437976
0.00442084
0.00525202
0.00511003
0.00521728
0.00466481
0.00399017
0.000315108
0.0041036
0.00719592
0.000371934
0.00327114
0.00549654
0.00578751
0.00565704
0.00526529
0.00471645
0.00045572
0.00467379
0.00344058
0.00388554
0.000902904
0.0053315
0.00510626
0.00538563
0.00544869
0.00565832
0.00565682
0.00651583
0.00758465
0.0063977
0.00504934
0.00958383
0.00838271
0.00692898
0.00552966
0.00504319
0.00532101
0.00727746
0.00530405
0.00896439
0.0049654
0.00409845
0.00504574
0.00480522
0.0034761
0.00155374
0.00290257
0.00116698
0.00804234
0.00421694
0.00507517
-5.14042e-06
0.00432688
0.00575483
0.00553848
0.00291044
0.0054259
0.00472539
0.00347752
0.0047896
0.00200583
0.00317917
0.0052447
0.0054733
0.00471573
0.00504903
0.00381794
0.0054975
0.00418949
0.00500304
0.00560663
0.00578383
0.00329056
0.00434227
0.00243848
0.00532314
0.004284
0.00596905
0.00526381
0.00653097
0.00495879
0.003919
0.00440163
0.00425793
0.00350913
0.00507192
0.00530038
0.0054583
0.00554685
0.00450352
0.00553159
0.00526124
0.00604422
0.00507204
0.00523893
0.00487415
0.00549296
0.00508712
0.00567847
0.00654796
0.00575024
0.00547411
0.00528893
0.00483392
0.00530949
0.00067403
0.00215499
0.00301044
0.00654205
0.00529009
0.00517609
0.00728644
0.00685461
0.00717345
0.00783965
0.00510691
0.00392609
0.00586084
0.0048041
0.00480703
0.00585913
0.00508051
0.00527052
0.00430493
0.00561595
0.0058376
0.00420458
0.00582676
0.0058588
0.0044661
0.00521315
0.00490784
0.0044867
0.00492232
0.00278247
0.00423435
0.00459125
0.00682625
0.00672817
0.00276834
0.00463617
0.00391884
0.00655505
-0.0049952
0.00502414
0.0055296
0.00545085
0.00621147
-0.00724994
0.00376319
0.00203146
0.00486756
SCALARS CoVolArea double 1
LOOKUP_TABLE default
2291.23
2330.8
2379.06
2396.34
2588.54
2742.25
2761.21
2762.19
2509.85
2457.28
2382.95
2442.63
3142.17
3530.27
3540.9
3571.26
3143.08
2972.58
2928.7
3571.84
3374.02
3501.94
3601.4
3177.66
3467.37
3599.71
3147.64
3230.26
3825.09
3602.32
3348.67
3589.5
3300.66
3499.72
3372.51
3355.33
3083.09
3575.78
3568.38
3589.61
3429.08
3520.44
2960.4
3609.93
3080.29
3269.75
3655.5
3059.29
3368.44
3717.31
3402.9
3446.85
2890.5
3399.5
3743.28
2960.47
3469.53
3117.86
3916.46
3821.74
3622.8
4035.16
3241.22
3362.01
3291.58
3107.51
3350.64
3384.78
3570.28
3000.43
3415.81
3295.6
3607.15
2907.18
3440.5
3262.09
2908.02
3643.47
3004.78
3403.12
3726.6
3145.19
3654.62
3385.57
3767.76
3648.97
3240.39
3693.84
3345.91
3758.99
3351.57
3349.96
2957.69
2914.81
3623.5
2945.76
3344.43
3209.12
3785.38
3325.96
3547.42
3855.72
3403.78
3880.28
3587.8
3633.53
3412.48
3609.32
3120.06
3362.9
3527.31
2971.38
3018.59
3495.62
3116.72
3243.79
3440.59
3027.24
3233.13
3533.95
3393.08
3475.95
3009.13
3212.03
3495.42
2963.43
3459.04
3079.34
3376.09
3023.24
3108.72
3347.21
3277.95
3705.54
3223.4
3665.48
3061.88
3428.83
3533.18
2822.59
3430.43
3372.82
3287.45
2982.87
3773.67
3356.85
3053.89
3782.73
3708.65
3789.8
3443.77
3473.51
3383.03
3572.91
3322.13
3461.73
3880.12
3888.98
3889.86
3288.04
3572.61
3629.11
2866.27
3039.8
2917.05
3439.03
3056.08
2895.01
3223.44
3190.89
3639.69
3131.59
3259.82
2930.4
3633.23
3319.12
3275.02
3046.44
3306.86
3537.22
3285.64
3422.03
3361.1
3663.83
3408.34
3318.14
3327.27
3420.19
3672.47
4082.96
4103.46
4114.53
3045.79
2777.23
3581.23
3139.22
2888.87
3044.21
3318.92
3304.33
3409.19
3697.2
3414.49
3351.38
3399.94
3674.47
2835.5
3079.23
2943.79
3337.11
3082.88
2931.64
3254.49
3171.26
3607.15
4061.22
4072.01
3868.81
3348.96
3258.42
3444.54
3325.12
3137.85
3877.41
3483.65
3249.21
3297.62
3607.67
3825.85
3098.42
3378.68
3472.54
3281.84
3369.84
3337.78
3132.27
3168.41
3018.26
3032.01
3201.43
3209.47
4199.13
4065.72
3960.38
3911.16
3211.09
3030.43
3246.3
3182.24
3189.24
3100.6
3306.01
3337.74
3629.27
3356.42
3360.09
3256.51
3344.19
2942.82
3108.07
3045.17
3175.2
3029.91
2905.77
3324.45
3237.21
3593.32
3749.14
3927.57
3672.98
3026.52
4137.03
3266.08
2957.03
3111.37
3013.71
3040.26
3918.19
3051.92
3079.4
2903.34
3529.62
2827.55
2797
3158.26
2904.44
2953.67
2887.89
3580.77
4088.41
3961.68
3631.54
3090.15
2882.36
3669.91
3244.54
2967.35
3130.65
3477.25
3381.61
3441.43
3672.75
3414.82
3344.82
3434.27
3692.99
3096.34
3347.42
3204.2
3531.65
3288.96
3014.9
3374.2
3380.8
3656.93
4133.02
4106.21
4088.17
3565.98
3493.07
3682.07
3446.51
3504.84
3558.43
3740.21
3107.21
3311.96
3623.87
3336.62
3228.23
3349.13
3658.8
3231.85
3411.79
3236.88
3717.27
3435.82
3333.15
3272.55
3428.87
3648.9
4160.32
4131.51
4175.14
2994.3
2913.21
3369.05
3014.63
2972.96
3054.44
3312.88
2927.44
2985.04
3317.8
2940.95
2794.87
2951.4
3558.72
2909.08
2959.31
2891.7
3251.51
2943.18
2987.55
3308.83
3127.27
3458.68
4054.97
3951.65
3774.38
3341.56
3059.12
3742.21
3409.17
3355.18
3418.43
3763.86
3416.09
3486.99
3879.59
3541.54
3553.01
3481.78
3770.01
3347.93
3530.08
3438.68
3798.59
3512.21
3383.1
3580.48
3588.44
3896.9
4268.38
4308.17
4276.51
3371.57
3393.55
3364.12
3274
3366.97
3367.86
3676.71
3339.73
4055.67
3100.54
3350.13
3229.6
3259.72
3055.75
3166.83
3157.08
2990.94
3658.07
3315.72
3349.04
2888.89
3071.24
3196.87
3803.09
3736.33
4028.75
2946.07
3100.68
2989.89
3446.54
3129.19
3044.06
3111.67
3148.29
3470.74
3089.9
3109.01
2897.83
3518.44
3198.8
3248.29
3069.84
3088.52
3405.21
3140.79
3339.19
3230.34
3496.09
3273.74
3193.53
3326.11
3328.37
3555.4
3867.64
3896.35
3905.06
3113.48
2934.43
3477.31
3183.36
2932.38
3078.69
3254.87
3143.49
3214.1
3484.36
3223.28
3171.34
3223.6
3486.88
2894.2
3070
2949.57
3239.92
3042.23
2895.99
3088.13
3156.03
3457.41
3905.94
3899.74
3834.19
3048.93
2913.09
3320.66
3075.19
3199.53
3061.96
3439.54
2891.41
3028.27
3489.14
3077.13
3228.91
3044.11
3299.28
3248.75
3383.49
3251.59
3642
3520.93
3276.79
3220.7
3482.07
3686.71
3761.11
3829.99
3820.76
3078.06
2908.88
3737.02
3310.87
3264.55
3334.56
3512.62
3365.29
3362.24
3670.05
3387.92
3379.25
3238.17
3541.67
2970.95
3144.57
3169.29
3190.16
2957.33
2894.36
3352.38
3328.49
3664.14
3920.25
3924.16
3754.1
2988.8
3503.89
3017.27
2994.34
3317.81
3083.33
3000.8
3622.61
3038.29
3131.76
3071.62
3646.14
3042.76
2948.63
3348.32
3098.6
2963.09
3018.98
3435.77
3986.79
4067.41
3750.04
3417.6
3687.09
3475.69
3445.62
3735.47
3341.58
3751.75
3411.7
3343.07
3635.53
3588.39
3776.22
3601.2
3477.67
3748.87
4120.8
4163.08
4166.86
3036.59
3437.65
3114.26
3079.61
3376.42
3307.68
3511.33
3273.64
3219.73
3447.9
3111.32
3291.64
3022.82
3186.84
3491.89
3829.4
3831.8
3764.3
3340.38
3459.69
3206.44
3377.47
3661.12
3220.51
3274.83
3402.89
3317.86
3484.21
3137.98
3636.96
3290.83
3025.97
3116.81
3746.2
3613.43
3970.33
3466.82
3773.26
3494.27
3493.7
3773.18
3561.99
3916.47
3607.54
3511.76
3771.68
3567.38
3768.09
3508.59
3595.97
3913.05
4335.69
4370.4
4336.61
3137.59
3538.9
3026.86
2995.55
3157.27
3074.7
3615.92
2979.46
3144.34
3889.03
3106.9
3176.76
3002.66
3301.32
4097.67
4017.97
4211.93
3712.56
SCALARS SignedDistance double 1
LOOKUP_TABLE default
278.022
272.85
261.794
250.765
202.481
205.305
202.528
209.125
248.899
236.792
259.25
243.608
254.227
198.687
202.302
199.97
267.587
269.827
272.927
200.662
290.04
302.836
196.768
244.414
210.629
198.545
286.766
272.609
179.197
194.506
280.032
189.128
261.28
202.596
239.616
244.469
229.383
248.82
241.018
189.109
276.18
290.877
264.455
221.175
238.686
210.418
215.821
246.022
194.483
200.569
201.431
230.204
271.27
194.363
196.537
268.874
229.804
233.827
305.67
305.131
302.32
302.244
236.806
277.982
237.253
280.037
308.118
195.584
229.074
269.348
246.356
222.363
292.246
290.397
310.185
282.9
275.336
214.013
256.208
201.016
195.177
240.804
207.554
210.335
201.555
210.743
223.857
200.347
184.719
191.305
203.421
289.936
265.628
267.479
295.065
269.376
282.64
272.456
189.946
219.302
183.139
175.435
189.426
176.273
183.292
220.165
192.974
300.543
271.427
209.945
231.701
260.298
259.277
248.707
247.683
214.252
237.227
254.323
225.073
225.849
201.04
243.094
238.362
227.556
236.428
245.066
246.136
254.725
230.183
242.688
253.057
235.02
225.869
233.388
226.19
260.235
260.338
191.099
219.306
262.481
232.024
209.961
271.419
281.168
287.534
276.117
266.624
188.047
193.604
200.722
256.883
230.896
245.146
219.768
272.355
238.638
187.68
176.214
176.166
272.856
299.521
284.052
271.121
251.283
258.616
235.984
245.076
259.23
215.686
229.391
210.689
225.298
224.004
241.896
205.255
212.515
202.437
248.9
227.943
230.438
197.948
199.403
205.876
200.282
197.352
195.757
198.289
198.905
200.076
217.413
206.33
207.621
253.941
274.248
210.47
232.851
269.362
250.433
249.33
197.939
194.623
196.761
192.734
194.627
192.733
196.823
270.577
250.757
253.494
248.508
249.088
267.813
212.092
230.507
209.547
205.801
205.789
229.644
289.004
291.738
285.739
286.78
288.048
303.017
292.222
288.426
286.5
286.93
298.781
281.921
284.262
284.347
222.658
239.664
223.016
276.066
258.391
253.676
252.48
258.083
275.614
305.846
293.656
296.909
304.844
290.239
275.004
291.635
307.714
299.134
286.653
202.259
213.499
212.485
210.287
195.643
230.137
250.111
262.591
248.243
238.979
270.566
260.058
279.138
209.743
232.551
221.106
255.765
235.36
263.519
285.633
305.352
299.417
279.641
274.322
271.47
276.672
306.754
297.048
307.593
288.297
299.055
266.658
264.96
269.872
268.254
290.077
280.001
292.972
308.664
301.944
288.888
244.361
264.315
205.701
222.446
249.649
236.078
226.962
205.898
198.698
194.695
195.49
195.749
194.984
196.504
240.57
223.884
222.402
220.473
220.889
239.281
202.007
209.646
200.155
200.79
198.461
208.324
208.755
210.133
197.043
202.141
206.298
208.739
203.618
232.891
218.005
204.305
209.522
216.885
206.811
198.192
191.387
194.081
203.227
194.272
189.936
187.162
205.784
194.977
198.256
197.461
194.881
194.225
269.526
256.099
297.099
284.213
270.449
276.636
281.929
262.103
276.29
294.014
284.32
276.809
295.534
298.894
266.954
272.186
266.943
279.471
276.955
271.636
280.825
277.601
285.369
292.837
289.398
288.541
220.735
239.581
193.753
205.031
204.423
204.415
191.744
194.343
188.046
176.36
177.876
177.531
182.958
185.112
196.592
185.755
190.639
181.851
179.931
189.394
179.508
179.518
176.046
180.251
172.929
179.642
213.756
203.616
243.828
225.79
187.641
203.647
201.569
283.849
298.154
276.249
287.262
296.547
282.436
269.155
229.375
234.47
253.293
206.949
217.498
196.545
270.115
246.321
260.056
245.578
251.503
222.566
255.333
252.826
250.107
254.862
255.456
262.954
244.322
248.861
243.41
223.66
234.9
246.922
218.535
225.274
207.023
258.509
245.942
251.932
214
213.101
201.678
235.026
225.02
233.473
200.749
212.409
213.77
245.847
230.467
239.843
245.929
244.736
242.765
244.855
232.543
241.218
236.684
215.679
223.198
239.837
233.354
237.486
231.412
237.464
254.145
253.52
259.785
239.148
246.103
236.249
250.39
249.996
246.489
242.086
243.365
241.706
241.577
247.879
230.782
235.223
240.044
235.237
233.236
258.746
250.378
239.411
243.309
249.504
241.07
233.465
214.152
228.243
214.166
234.996
237.561
240.725
240.889
239.335
239.21
228.945
231.191
229.003
252.137
254.901
249.409
248.968
266.775
258.545
269.418
196.241
206.839
201.405
202.745
187.474
222.313
239.489
253.952
234.891
229.44
261.646
248.707
270.746
196.546
217.608
206.941
242.206
222.337
251.277
260.126
272.545
265.695
264.946
269.949
262.433
267.37
289.865
287.86
298.369
275.852
282.224
259.923
254.279
269.311
264.619
281.322
275.233
282.22
279.842
283.856
278.439
192.348
191.752
192.118
188.22
193.874
209.405
197.579
201.956
200.565
194.552
208.678
203.244
208.616
201.988
196.688
186.593
193.392
190.958
261.353
250.306
256.594
264.064
264.215
215.043
219.632
216.23
228.896
240.635
244.116
263.105
255.195
234.366
226.776
246.849
237.036
254.558
205.195
238.476
220.459
202.109
204.315
263.803
278.99
271.763
260.894
262.299
244.008
213.386
225.941
254.848
266.098
245.989
257.013
226.465
212.642
184.789
197.571
197.571
184.788
185.495
177.06
180.105
180.466
178.147
190.382
178.161
180.874
180.939
176.343
178.879
176.842
178.866
255.956
283.048
269.669
258.292
260.481
266.9
287.964
277.157
286.714
296.394
278.008
264.972
271.146
292.723
298.216
290.646
299.07
279.067
