# vtk DataFile Version 4.2
vtk output
ASCII
DATASET POLYDATA
POINTS 642 double
-148.541 259.057 38.5648
153.458 261.275 37.2597
-140.834 -258.051 -2.31864
149.523 -263.689 -3.64561
1.48169 -174.431 306.775
0.0274123 190.704 289.666
-0.378828 -175.404 -306.856
-1.82914 170.874 -305.973
259.517 -0.430939 -200.329
269.579 1.5962 191.358
-251.537 -2.18365 -199.739
-268.335 11.4984 186.197
-249.233 165.126 121.515
-172.914 106.755 285.648
-102.798 282.754 178.567
105.468 282.932 179.411
-0.203712 307.684 36.8919
101.392 229.717 -189.517
-94.0704 230.198 -186.008
-169.822 102.978 -296.77
-220.003 136.722 -128.844
-258.919 -2.85223 16.5159
173.932 110.188 285.852
256.433 168.007 122.836
-164.174 -100.165 286.367
0.332737 -10.7833 354.397
-224.746 -138.1 -129.588
-224.104 -141.669 109.473
-0.998015 0.791398 -368.85
-172.424 -106.852 -297.876
228.923 140.701 -136.237
176.604 107.067 -300.365
233.608 -145.452 108.95
170.752 -100.673 290.985
93.0928 -247.877 167.104
-89.3526 -244.986 166.526
1.41992 -323.041 -2.97257
-90.2769 -243.816 -173.85
92.7153 -250.691 -168.11
176.608 -107.103 -300.361
221.877 -137.663 -125.722
269.134 -0.691459 15.4191
-204.889 221.23 83.3366
-193.154 235.926 150.513
-136.025 285.678 107.195
-235.413 56.6346 243.791
-227.361 143.404 207.094
-273.347 84.4624 160.506
-54.5421 247.332 248.11
-143.886 205.569 242.426
-93.8602 152.584 299.173
-52.9071 320.475 107.546
-79.4243 295.984 38.3455
55.7353 247.008 248.138
-0.0282962 298.348 189.204
82.6653 295.67 37.152
53.3679 319.982 107.674
140.291 287.285 106.368
-32.0969 258.551 -68.8036
-112.239 213.29 -79.8128
118.524 223.994 -83.2366
35.7092 259.774 -67.4956
-56.7118 216.647 -249.415
-1.18786 237.342 -189.84
61.3161 216.636 -248.318
-169.86 192.487 -162.897
-196.05 183.297 -35.8349
-90.8989 145.658 -316.613
-138.367 186.739 -247.316
-246.764 73.8932 -164.754
-213.438 129.566 -214.32
-229.631 50.2199 -251.112
-232.559 157.389 40.2962
-264.612 -1.32945 -109.066
-253.534 78.1131 -71.0336
-265.621 88.1035 84.3613
-270.455 14.0632 117.551
198.072 237.195 153.166
211.747 224.681 81.7546
96.5881 153.893 300.026
148.467 207.271 245.01
270.988 95.1869 157.894
232.182 149.174 208.817
234.693 54.5852 244.867
-95.4783 52.0444 332.189
-0.0896867 89.5605 326.809
-227.598 -47.1814 242.663
-179.734 0.76128 301.004
1.4866 -97.8211 350.841
-91.0845 -58.3383 340.769
-85.0667 -144.158 307.623
-255.25 -66.889 70.946
-250.833 -66.5639 162.853
-249.488 -79.9646 -169.883
-247.107 -67.4721 -75.4029
-189.868 -208.039 52.7737
-224.996 -154.251 3.23531
-185.804 -208.226 -49.5507
-183.163 -0.667768 -316.016
-231.48 -53.5432 -251.559
-2.23495 95.0361 -354.814
-95.7838 57.7083 -356.117
-93.1907 -149.752 -317.672
-96.7538 -57.4485 -354.494
-0.946779 -96.1287 -352.757
145.29 191.162 -249.879
96.9372 147.707 -316.759
206.603 182.194 -37.5927
178.305 195.405 -169.687
238.23 57.1148 -253.71
226.093 136.234 -217.015
257.292 81.0302 -172.255
197.177 -212.789 50.3585
173.381 -207.132 143.382
126.994 -264.17 80.9146
233.816 -50.3733 248.119
215.968 -125.369 211.586
258.051 -68.626 164.749
48.7491 -216.426 246.922
136.059 -182.381 243.539
87.01 -144.294 309.103
46.5015 -295.432 75.7616
77.723 -305.897 -4.59262
-47.3415 -215.25 246.778
1.61356 -262.335 177.377
-71.962 -303.317 -3.84452
-42.7462 -293.637 75.4102
-121.645 -260.064 81.0357
48.5162 -305.426 -85.2623
125.015 -272.904 -82.6621
-117.705 -267.399 -83.0626
-43.8988 -303.797 -85.0023
57.809 -216.687 -255.451
0.917843 -271.665 -166.946
-60.8691 -218.564 -254.533
171.451 -199.91 -156.154
194.426 -215.577 -48.9523
94.6334 -148.211 -316.874
145.256 -190.655 -250.474
256.037 -79.5203 -177.129
227.968 -136.506 -217.743
238.542 -57.3793 -253.451
234.363 -160.671 1.51121
272.934 0.0833769 -111.248
256.138 -66.628 -69.3021
265.339 -73.8128 69.6103
279.255 6.71022 109.713
94.9845 -57.8125 343.136
182.939 -3.53804 306.347
98.2615 49.9278 334.019
-167.807 -202.254 143.544
-131.993 -181.099 242.03
-210.601 -124.527 206.997
-142.344 -192.047 -249.895
-172.255 -194.581 -164.445
-219.788 -135.576 -215.404
185.282 0.00555066 -313.661
98.2293 -59.6167 -354.243
98.0205 59.6789 -354.204
272.774 90.5611 81.624
263.17 78.8642 -70.7629
239.516 161.531 37.3756
-177.417 243.324 59.0822
-174.127 255.702 97.0074
-144.004 274.324 72.3131
-227.066 202.261 135.214
-203.124 231.064 118.131
-229.051 194.784 104.962
-123.633 290.874 139.726
-166.746 264.872 129.815
-150.267 262.772 165.668
-257.638 32.1323 214.632
-260.631 71.5463 200.46
-276.743 48.3757 174.475
-203.305 126.711 249.778
-233.472 100.247 228.501
-206.891 81.7661 267.997
-262.435 126.885 140.318
-256.005 115.209 182.224
-245.124 157.182 159.595
-27.5445 220.912 273.283
-74.4079 203.67 275.255
-47.6103 173.536 294.715
-124.092 248.138 213.237
-100.939 229.529 246.761
-79.4249 267.972 216.593
-134.471 130.49 296.253
-120.453 181.093 274.107
-160.487 157.382 267.231
-212.159 192.22 179.886
-189.219 176.691 228.024
-170.614 223.673 198.924
-107.347 295.783 73.3455
-116.035 279.875 38.129
-79.565 309.459 141.321
-94.7305 306.961 108.51
-41.5006 305.303 37.7922
-66.287 311.034 74.379
-26.6934 317.913 74.1777
28.0657 220.809 273.31
-0.00817297 250.802 250.396
53.958 294.986 187.058
28.397 277.085 221.307
81.4684 267.897 216.899
-28.186 277.109 221.307
-53.2802 295.211 186.977
120.676 280.55 36.2205
111.353 296.271 72.6899
149.1 276.043 71.5583
26.2372 317.635 74.1158
68.0811 310.564 74.0814
42.0355 304.983 36.9303
126.594 291.337 140.217
97.442 307.069 108.185
80.8468 309.047 141.481
-28.405 318.522 146.123
28.357 318.433 146.223
-0.286068 324.051 108.458
-99.2863 271.678 6.83157
-131.204 253.632 6.23202
-21.9385 290.596 -0.862527
-57.9262 285.623 4.52489
-106.889 226.49 -159.438
-67.6441 238.567 -75.3032
-67.1001 241.394 -152.895
132.279 256.443 0.538037
105.889 270.381 1.87143
73.5766 240.839 -152.808
82.2347 234.161 -73.6243
115.387 227.762 -158.213
60.7601 285.292 3.00237
22.7168 290.952 -1.55144
-30.6271 195.543 -279.509
-0.568568 217.423 -249.779
30.9323 195.392 -278.034
-53.3265 237.089 -188.942
-30.6501 230.77 -219.636
-77.7796 227.502 -217.555
84.6439 228.495 -219.172
31.9011 230.197 -219.76
57.5848 234.403 -191.189
0.145091 263.565 -67.409
25.7723 247.443 -143.802
-26.9102 248.383 -144.593
-156.948 201.618 -55.2675
-170.808 229.157 17.2472
-134.13 214.566 -177.507
-147.907 206.497 -146.664
-198.614 172.818 -93.5643
-184.021 182.709 -118.636
-198.055 168.212 -143.02
-47.9826 160.348 -314.571
-74.7968 185.441 -285.542
-155.905 147.961 -275.333
-117.375 168.653 -283.989
-131.78 126.176 -310.646
-98.435 205.241 -250.668
-116.537 214.419 -216.184
-251.441 37.9868 -185.045
-242.585 64.7549 -210.728
-245.99 23.0875 -224.988
-218.589 134.116 -172.611
-232.508 102.424 -193.029
-238.069 105.057 -144.552
-202.883 77.5174 -276.155
-224.789 93.7158 -234.767
-197.552 119.31 -255.935
-157.653 193.964 -204.683
-180.84 161.322 -233.152
-192.931 166.296 -189.616
-196.737 212.741 35.2172
-204.353 141.646 -47.4237
-203.828 186.388 4.28416
-222.048 190.437 61.3951
-242.775 163.96 84.6286
-256.602 -1.79661 -154.609
-260.222 39.4371 -134.333
-246.622 41.9281 -34.546
-260.904 38.9681 -98.9033
-257.191 -7.85434 -70.7147
-255.5 73.3791 -114.572
-247.073 93.3205 -97.71
-275.945 51.2993 147.406
-272.597 17.2021 158.353
-260.192 127.521 106.978
-269.146 87.874 128.639
-270.274 7.2849 71.4854
-270.877 50.0189 103.801
-266.531 44.9366 58.3778
-245.298 98.5508 -10.4743
-254.212 86.701 22.7295
-253.202 124.232 59.7108
179.755 258.553 95.5305
183.57 246.119 58.6241
154.193 263.467 167.651
171.129 266.606 130.238
236.228 198.193 104.008
209.234 233.818 117.968
233.289 204.638 137.563
49.2816 173.48 294.57
77.2037 203.528 275.984
163.885 161.131 269.225
124.059 182.679 276.237
136.078 133.729 297.243
104.462 229.592 248.007
128.1 248.708 214.807
270.233 46.1276 177.148
259.065 75.9702 201.222
257.11 25.7419 216.998
251.861 161.87 162.172
258.117 122.944 182.45
269.051 133.998 140.193
207.111 83.2878 267.905
234.996 106.011 228.519
206.222 132.139 250.772
175.956 225.61 201.811
194.315 180.501 230.762
218.611 195.59 183.268
-52.0835 123.921 314.574
-0.0259539 143.178 308.113
-136.849 83.4226 313.39
-98.5246 103.724 318.323
-0.200684 36.4861 344.451
-51.4605 68.4929 331.643
-48.494 19.5595 346.853
-251.478 -18.4427 214.79
-233.832 5.04211 245.451
-174.358 -51.1043 297.771
-205.825 -24.4815 275.681
-198.26 -73.8328 266.63
-208.381 30.7257 275.225
-179.946 55.3442 296.859
1.45031 -139.628 332.068
-40.8751 -122.877 332.787
-38.6682 -161.245 309.477
-44.0662 -35.0906 351.707
-41.8478 -78.9266 347.918
1.11162 -56.5165 360.123
-126.416 -123.93 300.284
-89.566 -102.875 328.408
-130.435 -81.1321 318.098
-139.364 26.7267 322.123
-137.351 -29.5754 325.857
-94.392 -4.43748 343.551
-264.035 -25.5483 140.403
-260.898 -27.473 177.395
-260.775 -29.5807 47.6261
-268.103 -28.4967 91.9807
-237.863 -103.146 139.765
-256.067 -66.8805 116.19
-242.173 -106.543 90.2675
-252.496 -43.8762 -185.909
-259.298 -41.9782 -137.963
-237.457 -108.996 -105.374
-252.453 -74.3757 -128.708
-239.452 -110.696 -153.409
-262.794 -32.3592 -97.298
-259.003 -31.3494 -35.0424
-167.28 -232.559 25.7588
-189.757 -209.401 1.80634
-164.909 -235.215 -25.3621
-226.284 -150.874 56.5082
-209.533 -181.129 29.1918
-207.723 -177.167 78.9471
-206.176 -170.508 -89.5522
-208.839 -181.403 -23.8566
-223.729 -147.015 -59.0022
-251.168 -72.1025 7.04303
-237.943 -116.285 -30.7405
-239.867 -114.831 35.4367
-234.87 -1.33813 -256.653
-246.618 -26.8638 -224.77
-179.025 52.3095 -310.067
-208.667 25.4207 -285.712
-205.359 -80.8948 -276.89
-209.86 -27.5394 -286.146
-180.05 -53.7963 -309.979
-2.15505 136.127 -333.389
-49.9775 122.076 -341.164
-51.9895 30.5635 -368.13
-51.1609 77.3428 -360.125
-1.61568 50.5246 -366.993
-95.1002 103.678 -340.604
-135.621 82.6269 -331.119
-49.4037 -164.373 -315.168
-51.141 -124.815 -340.06
-0.617595 -139.331 -332.834
-137.165 -84.5518 -330.987
-96.8005 -106.374 -340.048
-134.254 -130.172 -311.868
-0.938169 -49.2665 -365.68
-51.6156 -77.3544 -357.868
-52.0753 -28.9502 -367.66
[...]
POINT_DATA 642
SCALARS Mean_Curvature double 1
LOOKUP_TABLE default
0.00801242
0.00808195
0.00665344
0.00777049
0.0131132
0.00508301
0.00527938
0.00568761
0.00242241
0.0154442
0.00475118
0.0132927
0.0144707
0.00718228
0.00617701
0.00620691
0.00561947
0.00664017
0.00980801
0.00754492
0.00220989
-0.000219655
0.00658613
0.0129843
0.00738157
0.00552717
0.00437298
0.00472083
0.00255982
0.00794275
0.00140378
0.00842243
0.00582816
0.0078686
0.00524816
0.00510572
0.0154188
-0.000353437
0.00405703
0.00836238
-0.00245012
0.00145259
0.0052023
0.0109808
0.0089121
0.00847799
0.00552148
0.0172907
0.00776112
0.00638366
0.00691976
0.0133039
0.0081361
0.00679218
0.00494565
0.00709453
0.0123029
0.00988889
0.00495115
-0.00915867
0.00542029
0.00446204
0.0101272
0.000436723
0.00759024
0.00873257
0.000296265
0.00821088
0.00916704
0.00325394
0.00972679
0.00865843
0.00198083
0.0110385
0.0152259
0.00486808
0.000751036
0.00943523
0.00639898
0.0073271
0.00701889
0.00823648
0.00722028
0.00484818
0.00547109
0.0014307
0.00777804
0.00761799
0.0113979
0.00794986
0.00739783
0.00253131
0.00475939
0.00711247
-0.00495385
0.00825224
0.0053239
0.00397775
0.00960157
0.00813692
0.00626066
0.00850913
0.00874825
0.00677758
0.00438258
0.00879073
0.00939811
-0.00385422
0.0068326
0.00982247
0.0119483
0.00650795
0.00586172
0.00471888
0.00592108
0.00850321
0.00685884
0.00430774
0.00478356
0.00687416
0.0063178
0.00350255
0.00982863
0.00531308
0.00788042
0.0105427
0.00308654
0.00628445
0.00899112
0.00852493
0.00741166
0.00953204
0.0101889
0.00634687
0.00943761
-0.000531978
0.00553523
0.00691343
0.00842321
0.00689136
0.0165681
0.00948218
0.00663175
0.0114998
-0.00113607
0.00559047
0.00815559
0.00731663
0.00815995
0.0055777
0.00437173
0.00745256
0.00848508
0.00873949
0.00120877
0.0121471
0.00503706
0.00846509
0.00813751
0.00428062
0.0142849
0.00225621
0.00714875
0.00595605
0.00729341
0.0152863
0.0109441
0.00598467
0.0124536
0.0137303
0.006868
0.00981434
0.00754666
0.0217602
0.00657214
0.00600941
0.00791522
0.0119871
0.00870049
0.00813471
0.00815651
0.00623655
0.0033849
0.00666572
0.00683597
0.00747997
0.00684574
0.00624935
0.00672834
0.00508906
0.00652066
0.0057639
0.00767864
0.00811765
0.0115112
0.0103759
0.00787709
0.00723693
0.00722478
0.00785576
0.00596017
0.00655727
0.00817393
0.00687662
0.00829496
0.00711217
0.00780732
0.00755011
0.00729977
0.00668654
0.00622667
0.00708765
0.0112485
0.010172
0.0104261
0.0107425
0.0107611
0.0100256
0.00383729
0.00370192
0.00436987
0.00319563
0.00421414
-0.00581875
0.00878707
0.00533034
0.0052463
0.00779225
-0.0117923
0.00434543
0.00218511
0.00493106
0.00495755
0.00661382
0.00340262
0.00477798
0.00776447
0.0116328
0.0141721
0.00771087
0.000256141
0.00353569
0.00249256
0.004838
-0.00228678
0.00266236
0.010893
0.00504593
0.0217741
0.00448256
0.00818915
0.00724629
0.00819985
0.00718023
0.00759064
0.00794678
0.00947927
0.0100501
0.00439483
0.00987865
0.0103879
0.00511922
0.00686962
0.00604697
0.00720682
0.0113005
0.00829234
0.00926553
0.0105214
0.00852956
0.00810726
-0.0134764
0.0103601
0.00639993
0.00589364
-0.0011906
0.00825663
-0.0097593
0.00635184
-0.00254283
0.0115393
0.00633499
0.00884015
0.00698392
0.00604681
0.00126099
0.00841801
0.002855
0.00349964
0.00163711
0.00607151
0.006679
0.0074349
0.00738285
0.00659015
0.012264
0.00704908
0.0106823
0.0133283
0.00255884
0.00591748
0.00773899
0.00718408
0.00751149
0.0065252
0.00666553
0.0074665
0.00748248
0.00660724
0.0102136
0.00904817
0.0157383
0.00562386
0.00610116
0.00755702
0.00645794
0.00754556
0.0065795
0.00283831
0.00147377
0.0079029
0.00732123
0.00396673
0.00098753
0.00598257
0.00934999
0.00487659
0.00727941
0.00770124
0.00678058
0.00601075
0.00832006
0.0114455
0.0062346
0.00619428
0.00422377
0.00588867
0.0149096
0.0080641
0.00775753
0.00772665
0.00538466
0.00801839
0.00915498
0.00148326
0.00743682
0.00176119
0.00976365
0.0021706
0.00548385
0.00369092
0.00366451
0.00714067
0.00152516
0.00679826
0.00641325
0.0141911
0.00792567
0.00372127
0.00553391
0.00512478
0.00674421
0.00391958
0.00466905
0.00155595
0.00576586
0.00367526
0.00140074
0.00345408
0.0022515
0.0120776
0.00939732
0.00735414
0.00568838
0.00701222
0.00658844
0.00606617
0.00566523
0.00804609
0.00661579
0.00839987
0.00614462
0.00855875
0.00811064
0.00694007
0.00727228
0.00479449
0.00749044
0.00855171
0.00840715
0.00518093
0.00630101
0.00685146
0.0071115
0.00887882
0.0083949
0.00811726
0.00400236
0.0131367
0.0105625
0.00852323
0.00796079
0.0075521
0.00220243
-0.010375
0.00769654
0.0045665
0.0277476
0.0041184
0.00843426
0.0110319
0.0134979
0.00514726
0.00795409
0.0108505
0.00814528
0.00472852
0.0119435
0.00784041
0.01283
0.0114371
0.0102027
0.00543065
0.00615858
0.0044957
0.00454779
0.00517432
0.00415067
0.00601988
0.00576863
0.00508767
0.0114573
0.0106657
0.00882698
0.00850865
0.00956191
0.00829066
0.00274333
0.00584733
0.00385594
0.00874327
0.00587009
0.00729152
0.00466325
0.00634966
0.0045909
0.00770379
0.00776927
0.00781556
0.00444929
0.0071894
0.00468463
0.00397302
0.00819237
0.00543177
0.00477195
0.0119022
0.00614216
0.00914485
0.0071206
0.00803459
0.00502917
0.00492059
0.00400655
0.00583152
0.00516599
0.00825886
0.00359095
0.00380466
0.00925091
0.00632463
0.0122663
0.00573918
0.00501938
0.00589051
0.00471945
0.00491478
0.00713933
0.00596177
0.00548923
0.0070152
0.00493439
0.00632814
0.00888691
0.00784407
0.00452218
0.00474104
0.0072768
0.00833758
0.00574842
0.00467742
0.00777556
0.00705331
0.00579046
0.00606498
0.00643099
-0.00379885
-0.00167102
0.0125624
-0.00660551
0.0068923
0.0083535
0.00906267
0.00867017
0.00703976
0.00601459
0.000385084
0.00543474
0.00460083
0.0047874
-0.00261949
0.00747546
0.00734842
0.00739819
0.0077294
0.00865378
0.00807778
0.0114938
0.00589325
0.0158929
0.0108629
0.00764114
0.016004
0.00348606
0.00792456
0.0113289
0.00734398
0.0106838
0.0111124
0.0115098
0.00647616
0.00530735
0.00711292
0.00664191
0.0033538
-0.000958672
0.00675854
0.00480179
0.0136634
-0.00563367
0.00593012
-0.00249464
0.0058221
0.00289135
0.00774543
0.00413959
0.00432129
0.00259368
0.00515921
0.00504844
0.000160785
0.00196102
0.00721616
0.00808285
0.00640566
0.00736274
0.00294009
0.00802746
0.00485738
0.00658622
0.00834906
0.00910707
0.0022943
0.00404511
0.00045908
0.00706892
0.00579276
0.00981426
0.00716022
0.0111108
0.00725647
0.00466818
0.00528952
0.00487702
0.00439411
0.00731089
0.00774112
0.00822094
0.00731395
0.00432254
0.0106726
0.0039552
0.0087496
0.00758825
0.0075134
0.00508021
0.00778946
0.00505382
0.00904901
0.0109409
0.00933188
0.007876
0.00719962
0.00541509
0.00290159
0.00214629
0.00479809
-0.00458828
0.0115929
0.00799085
0.0115987
0.0101634
0.00770575
0.0133266
0.0111096
0.0112667
0.00545198
0.00924495
0.00541323
0.00544601
0.00925013
0.00700323
0.00688305
0.00459741
0.00822302
0.00941921
0.00454161
0.00935151
0.00936778
0.00521738
0.00710769
0.00628054
0.00511159
0.00633182
-0.000350828
0.00274709
0.00806832
0.00776964
0.00638462
0.00447213
0.00548715
0.00719234
0.00836652
-0.0079416
0.00816385
0.00642739
0.00723735
0.0165431
-0.0160124
0.00666989
0.00194843
0.00524596
SCALARS CoVolArea double 1
LOOKUP_TABLE default
1223.1
1270.73
1410.55
1375.5
1432.63
1883.51
1804.83
1854.15
1459.47
1227.5
1325.32
1147.99
1467.1
2231.12
2220.81
2283.59
1803.35
1417.32
1350.44
2235.42
2490.63
2888.83
2380.23
1495.46
2117.26
2409.24
2014.76
2094.21
2758.09
2288.34
2461.59
2214.78
2146.42
2113.99
2199.66
2194.46
1464.05
2578.52
2484.01
2219.86
2730.52
2927.19
1629.53
2064.03
1570.23
2009.19
2381.65
1408.4
2136.92
2424.64
2275.61
1726.46
1534.79
2209.58
2392.34
1664.9
1789.25
1618.82
2943.21
4048.69
3121.17
3443.28
1852.95
2187.07
1962.91
1515.33
2117.31
2086.47
2009.74
1721.27
1771.27
1881.93
2969.41
1596.84
2037.86
2066.66
1744.76
2133.54
1634.01
2266.16
2394.77
1740.53
2274.23
2254.89
2516.87
3001.78
1935.26
2326.47
1969.46
2400.26
2102.89
2272.37
1708.98
1491.47
2901.94
1731.26
2144.37
2218.72
2387.87
1931.51
2425.28
2468.04
2105.94
2546.21
2546.2
2054.1
2142.82
2739.33
1519.56
1993.32
1805.68
1581.13
1836.31
2293.75
1975.4
1848.46
2020.78
1814.07
2037.76
2160.32
2187.09
2220.58
1680.79
2002.81
2185.38
1620.26
2199.03
1928.8
1897.26
1723.83
1885.88
1848.83
2161.44
2655.94
1998.16
2714.83
1843.44
2181.22
1987.71
1330.13
1585.68
2005.84
1984.83
1744.03
3060.37
2202.11
1898.8
2414.87
2305.46
2555.2
2241.69
2054.11
1909.78
1972.03
2152.35
1708.83
2622.9
2576.86
2573.94
2012.17
2214.37
2947.18
1590.62
1587.55
1534.86
1747.88
1478.76
1415.83
1759.02
1622.96
2243.09
1739.6
1814.23
1244.28
2320.89
2086.56
2027.36
1511.48
1949.48
2016.05
2103.97
2245.11
2357.37
2380.6
2192.27
2099.94
2117.99
2227.38
2377.35
2583.61
2692.25
2694.78
1586.61
1432.25
2011.14
1574.21
1567.94
1544.02
1736.98
2148.93
2168.94
2354.15
2185.89
2170.28
2150.42
2299.78
1483.73
1643.74
1547.96
1786.22
1638.68
1656.18
1837.31
1642.44
2079.3
2353.09
2383.07
2011.33
2778.23
2649.69
2269.13
2468.49
2417.85
3806.66
2358.31
2473.63
2469.46
2821.66
3731.72
2206.85
2699.93
2330.77
2125.5
2114.34
2269.32
1673.17
1781.31
1491.57
1490.06
1850.14
1879.55
2976.18
3036.66
2745.76
3759.17
2390.83
1390.76
2491.54
1965.53
2029.12
1621.38
2085.04
2015.65
2199.05
2024.86
2082.83
1800.41
1646.48
1727.73
1634.79
1568.07
1711.16
1610.26
1656.88
2045
1747.59
2092.01
1879.37
2157.68
1881.16
1763.82
4279.19
2212.38
1728.42
1630.2
1953.91
1755.73
3703.31
1955.64
2341.21
1447.89
2624.25
1306.29
1344.29
1658.1
1513.99
1872.63
1745.84
2865.91
3178.68
2756.5
2192.85
1620.54
1573.02
2299.24
1732.53
1496.63
1594.64
1821.71
2412.3
2284.97
2328.31
2184.93
2129.5
2234.86
2412.99
1785.89
2067.45
1887.48
1938.51
1887.76
1434.59
2251.73
2184.56
2327.22
2675.91
2611.2
2528.88
2703.49
2746.81
2356.72
2320.82
2665.57
2661.7
2548
1732.3
2057.77
2243.81
2075.5
1961.26
2090.39
2309.96
1878.34
2133.75
1956.94
2389.06
2149.89
2019.64
1986.31
2182.93
2256.19
2689.49
2599.44
2706.4
1847.27
1516.56
2289.84
1868.92
1896.58
1966.47
2184.3
1678.55
1684.34
2359.78
1768.47
1505.19
1707.61
2566.5
1758.11
1785.04
1763.83
2022.47
1751.78
1843.38
2462.74
2044.25
2375.3
3232.27
3027.08
2625.18
1922.72
1581.62
2378.58
2115.55
2104.55
2133.53
2426.15
2312.92
2228.2
2623.07
2295.79
2472.47
2173.4
2392.36
2155.12
2347.54
2348.4
2456.25
2250.25
2108.36
2568.46
2445.49
2682.25
2736.37
2807.77
2759.71
2103.45
2304.72
1595.24
1791.85
2052.53
2013.43
2258.58
2805.64
4254.56
1563.91
2516.42
1913.43
2460.27
1386.89
1735.37
1569.86
1731.68
2183.1
1796.14
2052.46
1579.98
1467.78
1569.84
1851.22
1812.45
2243.52
1761.63
1920.99
1830.18
2281.9
1980.99
1941.89
1971.03
1973.89
2258.26
1626.47
1638.91
1459.99
2045.51
1777.02
1906.95
1984.15
1809.43
2191.96
1824.97
2103.4
1929.24
2261.88
2065.5
2087.81
2077.39
2050.41
2123.11
2481.76
2348.97
2516.82
1920.71
1686.51
2273.44
2060.77
1493.22
1796.82
1726.13
1836.71
1939.61
2259.13
2037.78
2072.26
2020.57
2247.34
1663.52
1866.18
1804.84
1705.6
1743.06
1433.71
1948.76
2023.59
2241.34
2523.59
2514.42
2368.83
1737.63
1656.04
1805.65
1727.85
2074.55
1718.89
2052.61
1696.54
1749.95
2152.18
1754.73
2238.83
1687.9
1765.03
1988.08
2422.52
2010.15
2532.73
2928.96
2313.55
2027.41
2786.77
2528.19
2103.21
2204.71
2186.74
1816.45
1691.78
2712.19
2306.59
2414.14
2433.81
2664.01
2187.22
2046.9
2255.49
2070.46
2091.86
1918.12
2213.35
1647.93
1483.27
1722.99
1739.4
1217.89
1817.27
2072.6
1758.44
2187.12
2316.04
2092.68
2053.46
1738
2489.88
1740.29
1776.25
2094.9
2043.54
1683.54
2692.64
1835.11
2439.87
2018.18
3012.56
1851.15
1705.1
2106.73
1983.39
1854.68
1888.28
2411.89
3022.64
3151.5
2481.15
2123.24
2283.57
2265.11
2153.74
2435.65
2055.05
2524.48
2204.52
2008.42
2182.34
2760.59
2650.01
2771.21
2379.25
2498.77
2496.6
2656.92
2651.84
1823.34
2239.29
1946.27
1911.6
2192.66
2030.13
2066.46
1936.54
1957.17
2199.74
1665.81
2020.78
1656.24
1792.55
2051.44
2396.91
2240.84
2308.03
1982.78
2063.65
1744.03
2037.35
2246.02
2118.49
2105.49
2553.09
2365.28
2529.34
1588.11
2156.42
1787.18
1431.84
1562.83
2023.58
1778.94
2112.32
2214.51
2418.13
2315.44
2308.39
2416.65
2424.57
2745.5
2499.67
2253.48
2366.91
2451.76
2355.83
2235.15
2456.19
2728.24
2922.58
3004.53
2925.09
1962.93
2687.63
1815.36
1613.55
1597.77
1867.49
2873.9
1617.76
2093.33
3495.47
1826.78
1690.45
1714.89
2086.46
4248.69
2779.33
3463.52
2320.35
SCALARS SignedDistance double 1
LOOKUP_TABLE default
176.635
173.728
161.376
154.158
126.266
127.543
126.818
132.588
159.187
155.105
165.251
162.677
167.054
120.525
125.09
123.242
171.393
173.388
177.981
126.024
185.551
188.537
119.612
160.254
130.807
123.043
184.082
169.961
109.99
120.961
177.454
116.914
162.876
125.47
146.588
149.816
142.349
161.043
151.961
116.915
175.178
182.003
169.274
146.756
155.34
131.718
135.379
166.755
118.052
121.876
124.14
152.152
173.784
118.135
120.694
171.877
151.405
152.347
206.223
203.056
205.3
203.565
158.117
179.868
157.945
181.844
205.629
121.636
150.23
170.156
162.469
145.779
183.945
188.394
207.753
178.952
171.427
139.446
164.442
125.125
118.205
156.589
128.996
131.412
125.855
129.561
142.31
122.785
113.014
116.444
125.257
181.638
166.627
170.801
187.153
166.907
174.494
167.851
119.322
144.857
112.688
106.824
116.729
107.761
112.151
144.564
121.624
203.809
173.422
137.984
155.63
166.596
159.151
152.557
151.183
136.142
149.56
159.326
139.561
140.966
123.791
149.674
147.085
141.819
145.421
152.116
151.717
155.738
140.702
148.973
156.231
144.94
145.308
143.233
146.985
168.728
160.057
118.567
143.419
166.526
159.217
138.234
167.907
182.564
184.283
171.158
168.885
115.289
118.329
125.999
158.025
144.67
156.01
143.545
176.181
160.6
116.017
108.851
108.67
171.775
201.606
179.318
173.407
161.652
166.381
158.592
160.229
166.943
143.086
152.054
133.21
147.062
146.016
165.465
125.899
132.502
123.66
165.617
151.331
150.733
121.851
122.313
127.684
122.018
119.707
118.839
120.493
120.912
121.284
136.438
126.39
127.984
163.865
175.06
139.2
152.411
173.119
162.044
161.734
121.831
118.299
120.919
117.241
118.168
117.261
120.919
173.079
161.702
163.26
160.455
160.715
171.385
139.294
150.666
138.104
135.444
135.344
151.434
182.224
183.498
182.787
182.056
184.328
203.8
192.532
182.761
181.394
187.662
198.549
178.622
179.49
181.834
144.157
158.997
143.959
179.742
172.674
169.522
170.347
172.118
176.585
206.021
197.311
201.227
202.788
183.552
178.681
186.395
207.285
195.881
186.439
128.155
136.98
135.335
133.485
121.582
151.559
166.342
165.685
162.257
159.343
173.458
166.975
178.689
134.197
154.823
143.889
168.01
156.823
171.861
182.15
198.853
190.917
177.987
174.848
170.383
179.255
197.052
191.585
197.498
189.336
195.946
171.97
170.441
172.594
169.991
182.984
174.569
184.042
200.039
191.885
183.645
157.68
169.203
129.123
146.422
161.026
154.026
150.964
127.54
121.955
117.662
119.23
119.198
118.273
119.447
156.782
144.909
143.437
144.41
143.515
159.295
123.847
130.915
122.569
123.137
120.577
130.434
128.243
128.689
119.812
125.575
127.677
128.76
126.881
152.124
138.359
126.209
129.997
135.985
128.552
121.249
118.117
118.989
125.743
120.635
116.492
117.522
126.995
118.676
121.408
120.681
119.151
119.736
167.134
164.235
185.936
180
167.862
174.115
175.507
166.223
176.302
187.607
179.675
176.016
191.412
192.119
163.851
167.313
164.128
173.943
170.455
167.507
179.247
171.024
179.71
180.527
178.985
178.779
147.942
159.998
121.1
131.352
129.935
131.547
119.951
121.286
117.211
109.215
109.415
108.528
112.109
113.889
122.853
114.451
117.458
110.738
109.362
116.507
109.976
110.573
108.735
110.927
105.869
110.658
138.454
128.269
164.069
149.968
115.598
129.241
127.498
179.07
196.056
177.543
185.096
197.465
178.453
172.44
154.032
156.724
161.29
133.25
144.943
124.068
171.564
162.825
168.246
164.523
166.865
148.651
156.301
154.528
153.316
157.273
157.205
162.478
149.406
152.482
148.885
145.093
152.374
157.503
138.135
144.243
129.502
159.23
154.216
156.39
133.848
132.576
125.024
144.835
139.887
143.66
123.58
132.109
133.451
152.569
144.833
148.297
151.223
150.852
148.922
149.817
143.854
148.572
145.951
135.089
139.1
146.987
144.138
146.467
142.725
145.703
157.505
156.474
160.153
147.818
152.015
146.594
153.55
153.116
151.249
149.492
150.225
149.446
148.191
152.065
142.3
144.294
146.903
143.917
142.226
159.58
154.877
146.969
150.133
154.362
149.046
144.428
136.319
145.752
136.408
144.969
152.827
159.699
162.825
155.463
150.232
140.79
141.175
139.513
155.408
156.449
160.541
153.171
165.044
159.609
172.614
122.597
130.637
127.357
128.304
115.487
144.606
162.906
162.211
159.168
154.208
167.897
165.165
169.041
124.134
146.283
133.597
163.651
148.894
166.336
159.748
168.657
163.581
163.002
167.867
164.446
170.273
183.047
186.474
191.394
173.542
179.981
163.689
159.249
168.589
164.587
175.646
172.163
175.62
174.324
174.815
173.977
118.212
117.17
117.006
115.71
120.391
131.427
120.805
124.454
124.532
119.439
128.099
126.142
128.576
126.101
119.898
113.542
118.476
119.187
160.252
153.584
157.588
162.439
163.357
134.078
137.187
134.891
143.264
148.976
159.006
163.968
163.494
149.9
143.01
153.52
149.302
159.008
130.014
159.459
143.675
127.17
129.244
162.841
179.595
172.367
163.485
170.583
161.062
138.464
151.224
166.207
171.65
164.686
168.64
151.848
139.139
114.287
124.741
124.735
114.285
114.029
108.875
110.453
110.743
108.128
117.871
108.133
111.549
110.858
108.239
109.11
108.409
109.119
160.014
176.337
171.07
164.214
166.495
169.866
186.733
179.068
185.97
192.744
177.667
169.167
173.265
187.725
196.388
184.962
194.503
176.587
