# vtk DataFile Version 4.2
vtk output
ASCII
DATASET POLYDATA
POINTS 642 double
-131.258 235.986 49.7184
137.042 238.233 48.2204
-122.334 -235.942 -2.74096
132.577 -242.014 -4.4561
1.89236 -159.52 290.433
0.0248793 181.389 269.001
-0.426497 -160.726 -290.487
-2.23027 155.092 -289.55
231.421 -0.462797 -196.474
243.039 2.48034 185.195
-222.398 -2.54262 -195.634
-241.804 16.4729 180.219
-223.063 153.19 122.897
-161.47 99.6772 268.902
-94.7391 265.275 168.943
98.0419 265.289 169.899
-0.0981197 279.763 47.4164
94.3158 200.189 -186.107
-84.9565 201.481 -182.289
-156.545 94.2513 -282.008
-193.198 119.94 -128.927
-225.429 -3.91584 20.2547
162.597 104.058 268.853
231.452 156.294 123.88
-150.365 -91.1891 270.491
0.358486 -13.9699 332.606
-197.566 -122.702 -129.089
-197.793 -127.585 105.289
-1.20905 1.01823 -349.151
-159.769 -99.2171 -283.1
202.899 124.367 -137.729
164.877 99.1818 -285.818
209.026 -131.33 104.564
158.281 -91.4638 275.507
84.0693 -225.651 156.573
-79.3499 -222.519 156.035
1.97419 -297.785 -4.07614
-78.7833 -221.758 -165.615
83.7001 -229.354 -156.817
164.901 -99.2387 -285.796
194.344 -122.199 -123.836
237.187 -1.46563 19.1478
-182.493 202.94 89.1139
-176.845 219.755 144.442
-122.002 262.99 109.283
-217.903 53.7775 229.729
-209.839 133.47 195.679
-245.388 78.7235 158.652
-50.5977 233.24 233.028
-133.491 192.906 228.126
-89.4348 143.461 279.67
-47.9729 295.176 109.123
-70.4797 269.448 49.7619
52.1208 232.824 233.043
-0.043211 279.771 178.824
74.6651 268.906 48.1365
48.6634 294.63 109.187
127.48 264.57 107.937
-23.586 227.505 -59.8611
-97.2115 180.44 -74.1544
103.192 190.873 -78.432
28.1363 229.437 -58.4809
-53.8495 193.943 -237.494
-1.65111 207.671 -183.097
59.6405 193.858 -236.328
-150.964 167.702 -161.241
-177.699 172.358 -30.7373
-84.9502 133.342 -300.46
-126.306 168.424 -235.998
-218.755 65.2379 -160.667
-190.484 115.113 -207.296
-208.896 45.0666 -239.899
-204.695 143.591 49.6733
-232.489 -1.80172 -110.608
-221.21 70.9191 -72.9245
-234.828 83.3073 88.7844
-240.11 16.535 118.503
182.936 221.137 146.98
190.505 206.485 87.1645
92.7941 144.88 280.115
139.105 194.685 230.932
243.879 92.4909 153.121
215.109 140.624 197.324
216.726 51.0257 231.188
-91.0759 46.9991 310.806
-0.110965 82.5371 304.691
-208.248 -41.102 229.459
-166.784 1.13074 283.552
1.89914 -91.7433 331.642
-85.0015 -54.9566 321.138
-77.8803 -132.221 290.557
-224.138 -58.2755 72.5709
-223.125 -56.4498 159.472
-220.522 -72.3967 -167.948
-216.062 -58.0047 -76.3917
-166.959 -189.516 50.0399
-196.815 -141.245 3.95189
-162.576 -189.888 -45.969
-169.596 -0.909519 -300.489
-211.029 -49.6978 -240.252
-2.81592 87.794 -336.232
-90.2393 53.685 -338.365
-87.8315 -138.509 -301.498
-91.5462 -53.4432 -336.38
-1.13649 -89.4747 -333.856
134.994 173.513 -238.427
92.6359 135.561 -300.24
186.401 174.674 -32.135
160.88 170.575 -169.31
219.375 53.8845 -242.08
205.257 122.46 -209.973
229.065 73.2301 -170.404
175.571 -194.868 46.6539
155.711 -188.217 135.204
113.909 -241.418 74.5882
215.14 -44.907 235.488
195.555 -110.946 202.867
231.771 -58.8999 160.759
43.7678 -195.952 233.641
124.108 -164.39 231.109
80.2866 -132.236 292.165
41.1295 -270.483 67.5171
68.107 -281.604 -5.93006
-41.8797 -194.409 233.63
2.09219 -238.813 166.385
-60.733 -278.859 -4.95623
-36.2954 -268.513 67.2549
-107.447 -236.975 75.0644
43.196 -281.662 -79.2421
110.653 -251.571 -76.6608
-101.763 -245.457 -77.4374
-37.1249 -279.917 -79.0559
54.8894 -195.325 -244.377
1.18665 -250.682 -152.706
-59.22 -197.396 -242.859
151.768 -180.511 -151.542
172.193 -198.255 -44.7784
89.5301 -136.464 -300.465
135.446 -173.703 -239.07
227.722 -70.9477 -177.125
206.635 -122.084 -211.775
219.836 -54.4156 -241.743
207.157 -148.589 1.98583
241.901 0.138742 -112.857
226.831 -57.4335 -68.8907
235.766 -66.5552 70.4426
249.822 8.51657 109.518
89.8962 -54.2388 323.489
170.413 -4.48145 289.446
94.4437 44.2054 312.731
-149.146 -182.789 135.671
-119.194 -162.873 229.703
-189.423 -110.207 198.078
-131.408 -175.285 -238.718
-152.94 -171.24 -160.854
-197.267 -121.815 -208.486
172.564 0.00679315 -297.772
93.407 -56.1348 -335.876
93.1325 56.2163 -335.814
243.081 85.5888 85.6991
232.264 71.2103 -71.9177
212.407 148.144 46.5048
-157.177 222.396 67.0157
-155.684 234.952 101.208
-128.048 251.209 78.6959
-205.506 187.036 132.641
-182.62 212.465 119.928
-204.846 179.164 109.652
-112.615 270.426 135.107
-150.864 244.691 127.991
-138.58 246.295 157.341
-236.909 32.4459 202.861
-240.672 67.1743 190.524
-249.347 47.9793 170.467
-188.436 118.085 235.664
-215.824 93.2012 215.741
-192.218 76.5363 252.66
-234.834 118.506 139.582
-234.943 107.019 173.949
-224.232 146.666 153.044
-25.6746 209.123 255.372
-69.9581 192.395 257.232
-45.569 164.334 273.921
-114.555 233.089 200.965
-93.745 216.177 231.724
-73.2412 251.896 204.323
-126.434 122.147 278.126
-112.863 170.105 257.161
-149.586 147.269 251.522
-195.423 179.814 170.078
-175.056 165.212 215.125
-157.418 209.581 187.484
-95.5914 270.945 79.9847
-102.834 254.778 49.4889
-72.6808 288.397 136.307
-84.8499 282.881 110.263
-37.0581 277.669 48.8443
-59.1762 284.876 81.3085
-24.3952 290.813 80.9762
26.3269 209 255.403
-0.0164083 236.559 234.865
50.2402 276.733 176.944
26.5521 260.588 208.571
75.8463 251.719 204.639
-26.2811 260.616 208.574
-49.3712 277.037 176.815
108.562 255.146 47.0307
100.762 271.254 79.1204
134.321 252.818 77.7933
23.9258 290.637 80.7686
61.5928 284.285 80.8075
37.9094 277.352 47.6006
116.619 271.102 135.352
88.5761 282.89 109.61
74.4461 287.823 136.403
-26.4054 297.375 140.476
26.3046 297.22 140.606
-0.372822 298.105 109.923
-87.1136 245.861 21.2959
-115.705 229.209 20.4817
-18.6057 261.894 12.1887
-49.7968 258.174 18.3947
-94.3574 197.21 -160.213
-52.8492 210.356 -68.8589
-59.0451 211.13 -150.376
116.815 232.044 14.2075
95.2229 243.84 15.7644
66.9861 210.757 -149.592
71.197 204.722 -66.4269
104.863 198.778 -157.687
53.2569 257.854 16.5653
19.9658 262.315 11.2023
-29.6604 176.674 -264.581
-0.717088 194.346 -237.587
29.9344 176.672 -263.007
-50.4129 207.493 -182.858
-29.8852 202.01 -211.2
-71.9864 200.238 -209.59
80.6945 200.012 -211.975
31.0425 201.261 -211.869
55.3357 204.09 -185.462
0.79485 231.579 -57.6676
23.8517 217.048 -137.716
-24.8217 217.155 -138.952
-143.345 173.152 -47.1072
-151.721 206.277 28.5989
-119.881 187.36 -175.653
-132.859 177.937 -147.733
-172.109 155.95 -92.112
-164.885 156.948 -116.595
-174.377 147.588 -141.075
-45.7415 146.034 -297.867
-70.4332 168.514 -270.581
-143.258 134.712 -261.741
-108.546 153.633 -269.54
-121.972 115.66 -295.162
-90.8431 184.977 -238.799
-105.187 189.616 -208.342
-222.559 34.2423 -180.808
-215.646 57.7547 -204.553
-219.323 20.2 -217.758
-193.129 118.218 -169.445
-206.081 90.5631 -188.397
-210.907 91.2572 -142.287
-186.174 70.6441 -262.492
-202.335 84.0515 -225.248
-180.428 108.185 -244.146
-141.23 171.473 -198.284
-163.144 144.43 -223.205
-171.244 146.932 -184.934
-173.58 193.084 43.9116
-174.341 128.09 -44.8684
-175.303 175.514 10.0644
-196.467 174.544 69.3722
-215.694 151.196 91.313
-227.088 -1.91814 -150.713
-230.421 35.829 -131.363
-213.703 41.1811 -34.6439
-228.557 36.0908 -102.138
-223.019 -11.7607 -74.5383
-225.484 64.1965 -113.436
-218.793 77.7789 -97.9034
-245.367 51.2124 150.381
-242.644 22.2923 158.594
-231.063 119.805 110.883
-239.353 83.5569 132.009
-238.438 8.62683 75.6938
-240.041 48.5295 106.704
-234.597 42.5376 63.7253
-216.918 81.4433 -5.61945
-221.487 81.3894 28.1107
-223.279 114.431 66.6593
162.516 237.807 99.2139
164.533 225.194 66.6123
143.19 246.698 159.34
156.543 246.871 127.707
213.063 182.945 107.677
190.061 215.599 118.67
213.1 189.709 134.592
47.5702 164.313 273.739
73.4834 192.201 257.994
153.634 151.79 253.496
117.396 171.935 259.383
128.474 126.126 278.98
98.1862 216.068 233.082
119.499 233.472 202.742
242.947 44.4701 171.841
237.646 72.8331 191.782
235.567 23.7896 206.334
231.763 152.024 155.381
236.919 117.192 173.586
242.719 127.042 137.979
192.402 78.4599 252.404
217.192 100.597 215.606
191.747 124.882 236.404
163.831 211.414 190.837
181.091 169.631 217.992
202.839 183.299 173.856
-51.0374 116.153 293.015
-0.0390768 135.377 286.432
-129.185 78.09 294.266
-94.6819 96.775 297.503
-0.255853 30.6807 322.582
-50.0991 61.8471 309.656
-46.4053 15.0639 324.997
-228.88 -13.3377 204.147
-215.062 6.71294 231.285
-160.755 -46.4803 280.855
-189.499 -21.4582 260.197
-181.582 -66.1429 251.766
-192.454 29.8752 259.214
-167.888 52.262 279.513
1.85066 -129.333 313.975
-36.4281 -113.764 314.244
-33.9183 -147.836 292.503
-40.6954 -35.1882 330.506
-37.5392 -74.4432 328.1
1.35909 -55.6761 339.607
-115.866 -113.529 283.686
-82.8279 -95.2358 309.941
-120.438 -74.9011 300.154
-130.588 24.3767 302.699
-127.593 -27.8277 307.1
-88.9644 -5.82724 323.181
-235.024 -19.3141 138.569
-233.029 -19.8696 173.391
-228.066 -24.6422 51.1397
-237.153 -22.6555 93.3254
-211.022 -90.5116 136.312
-227.117 -57.1884 114.603
-213.011 -95.3985 88.8672
-223.269 -41.5401 -182.216
-229.371 -38.2678 -135.788
-207.002 -97.8309 -106.264
-222.571 -64.9993 -129.981
-211.26 -98.2379 -153.709
-230.705 -28.0699 -99.6514
-226.449 -28.6642 -34.4714
-146.872 -211.701 24.4188
-166.535 -190.696 2.39375
-143.866 -214.918 -23.469
-198.672 -137.491 55.082
-183.839 -165.056 28.5051
-183.111 -160.981 74.955
-181.196 -153.697 -86.3844
-183.124 -165.343 -21.794
-195.643 -133.544 -56.9694
-219.932 -64.621 8.09182
-207.506 -106.614 -29.3581
-209.452 -104.876 35.7991
-213.653 -1.79398 -245.143
-219.655 -25.2381 -217.534
-165.416 47.8327 -294.7
-191.701 22.6734 -271.518
-189.299 -75.1158 -263.113
-193.146 -25.5687 -271.889
-166.692 -49.8967 -294.471
-2.69289 124.656 -315.57
-47.8846 111.994 -323.439
-50.1587 28.8821 -348.834
-49.1202 71.7933 -341.648
-1.9948 47.5885 -347.83
-89.284 95.5355 -323.536
-126.104 76.2665 -314.695
-47.4746 -151.18 -298.41
-49.3902 -115.727 -322.06
-0.703454 -128.974 -314.879
-128.152 -78.9133 -314.478
-91.5576 -99.157 -322.773
-125.039 -120.703 -296.384
-1.15322 -46.043 -346.317
-49.7431 -71.9394 -338.98
-50.2841 -26.8208 -348.445
-132.682 25.7267 -323.781
[...]
POINT_DATA 642
SCALARS Mean_Curvature double 1
LOOKUP_TABLE default
0.00795937
0.00799742
0.00685315
0.0083028
0.0160281
0.00436523
0.00579587
0.00592217
-0.000249409
0.0155768
0.00229153
0.0171085
0.0158869
0.00815166
0.0075417
0.00746288
0.00603368
0.00582275
0.012033
0.00855261
0.0011132
-0.00187025
0.00734927
0.0139968
0.0084284
0.00541702
0.00522996
0.00500063
0.00221088
0.00913314
0.000103009
0.00982784
0.00662483
0.00912372
0.00583391
0.00572856
0.020415
0.00132716
0.00633181
0.00966926
-0.00297304
0.000323549
0.0056195
0.0165451
0.00874472
0.00994028
0.00581268
0.0200686
0.0089705
0.00706588
0.00784858
0.0150055
0.00869185
0.00766836
0.00515993
0.00731509
0.0134425
0.0103503
0.00711938
-0.0122457
-0.000170592
0.00679158
0.0137831
0.000410068
0.0113659
0.00969975
0.0694436
0.00968279
0.0123893
0.00426351
0.00994565
0.0127976
0.000666599
0.0124266
0.0244496
0.00532794
0.00192001
0.0133696
0.00696548
0.00749454
0.00789958
0.00616371
0.00823695
0.0050591
0.00539114
0.00110015
0.00978304
0.00892173
0.014046
0.00937812
0.0085589
0.00200186
0.0037941
0.00790892
-0.00583067
0.00901557
0.0058816
0.00403781
0.0111894
0.0122659
0.00705724
0.0101256
0.0104459
0.00756361
0.00465023
0.0124616
0.0107645
0.0502771
0.00606618
0.014372
0.0149959
0.00638325
0.00646439
0.00525184
0.00671207
0.0108155
0.00658217
0.00374942
0.00464878
0.00719469
0.00711308
0.00337788
0.0115777
0.00510162
0.00923395
0.0124245
0.0027533
0.00728407
0.010754
0.00994803
0.00828209
0.0116315
0.0116041
0.00689313
0.0103192
0.000586589
0.00602843
0.00754794
0.0120054
0.00677894
0.0218855
0.0140864
0.00749467
0.012982
0.00010503
0.00576463
0.00984441
0.00843857
0.00935867
0.00524226
0.0048988
0.00794413
0.00968747
0.0129187
0.000446148
0.0135282
0.00545179
0.00959997
0.00910741
0.00439214
0.021898
0.000657214
0.007714
0.0057281
0.00836908
0.0207081
0.00945458
0.00412661
0.0167604
0.015826
0.0105097
0.0138467
0.0139535
0.0308591
0.00715111
0.00607112
0.00923157
0.011677
0.0135693
0.0138284
0.00942257
0.00701196
0.00259851
0.00722422
0.00774345
0.00841175
0.0078922
0.00707822
0.00765114
0.00649884
0.00711995
0.00603273
0.00875383
0.00868517
0.0161144
0.0105934
0.00835983
0.00785568
0.00742136
0.00906464
0.00656822
0.00753683
0.00935592
0.00764419
0.00950995
0.00824929
0.0085027
0.00848787
0.00820626
0.00698565
0.00635272
0.00750771
0.0153973
0.0107358
0.0142294
0.0153525
0.0152729
0.00995996
0.00322589
0.00310523
0.00469535
0.00284981
0.00314035
-0.0038885
0.0111678
0.00511257
0.00489594
0.00924817
-0.00987981
0.0055063
0.00161878
0.00562411
0.00530714
0.0103496
0.00394211
0.00516427
0.00425115
0.0116759
0.0124736
0.0047459
-0.00154048
0.00369352
0.00301709
0.00479777
-0.0060616
6.05036e-05
0.0123413
0.00495552
0.00525856
0.00785821
0.0106573
0.00767635
0.00984131
0.0087309
0.0088534
0.00914237
0.0134385
0.0104444
0.00415301
0.00926215
0.00953926
0.00483503
0.00609979
0.00751559
0.00862234
0.0132617
0.0117414
0.0105606
0.012105
0.00938306
0.0154392
-0.0139133
-0.0212643
0.00684594
0.00596773
-0.000898357
0.0115301
-0.00961791
0.00479064
-0.00785182
0.0156284
0.00630382
0.00411563
0.00223018
0.00584982
-0.00080711
0.00932732
0.00349475
0.00359117
-0.00262318
0.00936335
0.00824891
0.00766502
0.00778009
0.00892691
0.0149421
0.00655523
0.0109123
0.0171057
0.00171277
0.00665618
0.00898848
0.00845855
0.00902885
0.00733011
0.00731972
0.00469229
0.0120023
0.00960752
0.0155748
0.0128794
0.0182792
0.00626025
0.00644263
0.0085358
0.00705436
0.00862514
0.00830468
0.00250328
0.00130223
0.00950243
0.00766664
0.00403889
0.000380703
0.00591921
0.0131302
0.00535592
0.00823521
0.00891702
0.00758323
0.00586479
0.00999974
0.0140727
0.00683783
0.00681852
0.00426219
0.00665759
0.0181204
0.00943438
0.00910842
0.00893619
0.00605348
0.00925099
0.0108755
0.00254775
0.00534325
0.00135309
0.0108012
0.00232059
0.00634543
0.00358041
0.00271092
0.0103367
0.000137334
0.00652399
0.00611964
0.0198108
0.0126402
0.00382142
0.00603064
0.0054465
0.00771886
0.00399188
0.00524868
0.00223138
0.00653804
0.00424809
0.00166271
0.00323974
0.00144323
0.0165152
0.00737497
0.00835528
0.00618276
0.00843113
0.00742094
0.00650517
0.00622369
0.0089895
0.00681196
0.00972878
0.00705965
0.0101516
0.00941083
0.00742249
0.00799968
0.00536749
0.00874109
0.0102325
0.00980133
0.00567559
0.00663455
0.00737124
0.00798835
0.0104538
0.00970723
0.00854663
0.00410559
0.0153893
0.0159036
0.0100895
0.00957939
0.00887432
-0.000759088
-0.0130976
0.0102473
0.00664995
0.0122358
0.00467979
0.00700185
0.0106478
0.0150798
0.00413237
0.0108962
0.0144865
0.00966096
0.00453978
0.0123202
0.00677506
0.0147303
0.0118136
0.0134779
0.00599197
0.00696755
0.00474171
0.00509186
0.00543788
0.00427071
0.00672554
0.00629455
0.00569812
0.0162312
0.0108401
0.00780747
0.0101181
0.0111876
0.00990174
0.00316778
0.00573105
0.00373513
0.00979952
0.0062723
0.00817436
0.00486478
0.00661805
0.00480738
0.00893329
0.00897257
0.00906619
0.0044469
0.0073888
0.00481543
0.00368439
0.00924721
0.00591803
0.0053845
0.0146079
0.006509
0.010811
0.00746981
0.00888857
0.00554835
0.00522955
0.00407596
0.00658243
0.00559361
0.00913035
0.00321878
0.00362799
0.0107543
0.00682963
0.0150529
0.00623565
0.00594109
0.00652236
0.00490483
0.00523526
0.00854188
0.0062878
0.0058865
0.00820348
0.00497436
0.00702171
0.0105033
0.00909883
0.00450786
0.00459705
0.00832537
0.00967827
0.00587909
0.00448613
0.00926052
0.00772943
0.00571145
0.00656625
0.00752359
-0.00420767
-0.00661421
0.0153337
-0.00928174
0.00969844
0.00991367
0.0109271
0.0102656
0.00752043
0.00661159
0.001447
0.00575789
0.00511505
0.00506981
-0.00371356
0.0083983
0.00839087
0.00825628
0.00850566
0.0101692
0.0101017
0.0140355
0.00521593
0.017797
0.010559
0.00467903
0.0163819
0.0028833
0.00918731
0.0177726
0.0100786
0.0103566
0.016584
0.0097952
0.00716347
0.0058803
0.00820484
0.00763068
0.00345624
-0.000795692
0.010014
0.00750881
0.0179252
-0.0109781
0.0064869
-0.00378783
0.00683238
0.00233951
0.00815819
0.00542618
0.00338689
0.00131959
0.00631885
0.00450968
-5.94737e-05
0.00101376
0.00811361
0.00942563
0.0074236
0.00881356
0.00240887
0.00957406
0.00510138
0.00738493
0.00962524
0.0109076
0.00202184
0.00375692
-0.00012867
0.00722294
0.00712201
0.0118968
0.00828197
0.0131562
0.00854668
0.00517288
0.00561052
0.00522348
0.00511718
0.00847252
0.00895786
0.00962324
0.00758789
0.00427002
0.0119702
0.00352272
0.00823173
0.00941259
0.00862814
0.00505775
0.00860531
0.00476664
0.0106152
0.0117113
0.0131087
0.0088516
0.00829193
0.00555982
0.00287644
0.00282631
0.00601909
-0.00803624
0.0124679
0.0114658
0.0147008
0.0109123
0.00728053
0.0128444
0.0104248
0.015483
0.00889754
0.0107572
0.00549049
0.00556264
0.0107825
0.00800901
0.00749824
0.00466663
0.0093386
0.0114713
0.00476083
0.0113741
0.0110988
0.00566538
0.00794578
0.00695928
0.00533796
0.00702867
-0.000361194
0.00246891
0.0093484
0.00909875
0.00509613
0.00668562
0.00528487
0.010014
0.00867456
-0.00828803
0.0141631
0.0066221
0.00789277
-0.0163667
-0.0173325
0.0102033
-0.00018827
0.00590047
SCALARS CoVolArea double 1
LOOKUP_TABLE default
998.234
1050.55
1188.57
1131.61
1129.19
1679.9
1546.79
1619.87
1257.41
934.902
1139.6
807.032
1061.15
1881.49
1833.62
1908.87
1502.69
1121.17
1011.65
1863.94
2319.42
2825.38
2049.75
1084.1
1757.25
2119.15
1764.59
1820.41
2481.02
1923.93
2343.14
1830.9
1855.37
1735.18
1905.39
1905.61
1056.17
2276.73
2167.81
1842.25
2644.02
2891.62
1350.46
1581.57
1200.41
1664.9
2023.7
971.283
1807.73
2089.48
1984.39
1277.34
1240.93
1891.74
2003.4
1382.53
1350.96
1237.84
2536.61
4415.9
3071.78
3175.11
1454.48
1997.78
1563.76
1166.88
1681.61
1732.72
1558.32
1403.35
1364.87
1465.87
3044.33
1284.45
1523.96
1825.8
1499.94
1677.61
1329.85
1980.34
2041.44
1401.13
1880.6
1933.22
2196.94
2881.22
1567.21
1960.13
1588.9
2026.8
1764.65
2049.88
1451.26
1177.55
2724.2
1437.84
1854.28
1962.42
2009.8
1508.35
2119.26
2081.24
1750.57
2179.31
2269.6
1566.81
1799.88
2330.32
1203.32
1572.57
1332.86
1268.7
1548.74
1996.87
1691.16
1454.71
1693.11
1547.07
1746.88
1823.4
1862.05
1908.06
1358.09
1712.86
1849.64
1300.19
1885.67
1642.67
1520.09
1407.55
1582.09
1467.58
1923.22
2399.8
1712.02
2470.45
1544.56
1844.83
1567.64
1024.31
1096.12
1575.79
1679.08
1445.35
2844.02
1945.29
1620.39
2035.63
1927.52
2241.27
1950.05
1708.35
1554.82
1517.14
1953.02
1248.05
2286.67
2216.41
2210.34
1733.21
1703.65
3030.43
1309.31
1260.53
1214.22
1260.78
1099.84
1096.18
1326.5
1194.23
1813.5
1304.32
1356.45
805.417
1984.71
1744.79
1702.17
1106.77
1508.44
1538.47
1798.18
1935.88
2119.02
2039.14
1871.48
1780.29
1794.06
1909.07
2033.85
2122.05
2330.68
2291.52
1243.13
1144.39
1539.76
1172.64
1279.15
1195.27
1372.94
1850
1836.36
1966.57
1863.12
1860.48
1821.57
1902.47
1183.82
1302.2
1219.3
1429.53
1303.11
1376.12
1416.05
1244.89
1621.27
1836.37
1873.37
1524.42
2757.02
2600.92
1963.59
2232.75
2353.31
3825.53
2005.35
2348.55
2311.32
2600.06
3689
2026.83
2549.33
2025.11
1796.81
1729.6
1959.49
1379.1
1467.36
1118.88
1130.72
1548.69
1655.17
2557.5
2758.73
2420.02
3713.01
2107.93
1047.74
2416.99
1709.08
1646.68
1280.12
1764.86
1640.11
1783.51
1644.06
1733.5
1378.85
1213.23
1470.63
1289.92
1215.55
1400.29
1295.25
1364.6
1670.2
1343.13
1653.87
1409.44
1661.71
1458.78
1413.34
4579.89
2125.88
1493.17
1328.83
1695.23
1414.31
3759.13
1745.85
2286.53
1071.86
2443.86
1035.57
1077.93
1349.38
1257.83
1616.47
1530.56
2737.34
2958.9
2332.76
1850.22
1269.4
1287.73
1889.18
1308.26
1159.37
1205.54
1349.62
2187.24
1983.75
1965.36
1856.18
1802.24
1916.55
2072.32
1485.49
1702.76
1508.63
1457.7
1476.45
1032.97
1958.97
1848.94
1977.87
2268.21
2211.59
2060.28
2512.82
2597.71
1998.54
2036.82
2489.27
2463.05
2257.13
1335
1710.98
1875
1742.82
1622.66
1764.16
1944.93
1510.6
1785.08
1615.45
2035.96
1796.76
1666.36
1639.28
1843.68
1878.07
2287.78
2179.37
2311.67
1609.96
1219.43
2033.91
1584.5
1665.66
1711.76
1927.55
1428.3
1352.65
2196.94
1515.13
1257.27
1388.88
2243.78
1484.3
1509.61
1505.56
1730.97
1468.91
1558.42
2224.69
1764.19
2099.16
3028.74
2844.5
2381.37
1497.05
1229.69
2007.26
1744.31
1733.75
1765.04
2062.81
2020.54
1885.16
2284.78
1952.4
2181.49
1810.69
2010.52
1835.78
2028.96
2053.49
2083.38
1901.88
1758.19
2305.95
2140.84
2360.03
2308.34
2391.65
2337.43
1749.17
2021.35
1145.84
1352.6
1688.69
1627.2
1843.08
2541.61
4188.68
1223.71
2212.22
1670.57
2346.24
1063.86
1356.98
1168.12
1475.06
1735.66
1345.25
1674.23
1304.71
1090.78
1228.76
1349.06
1352.66
1707.13
1472.13
1628.3
1547.92
1993.94
1699.13
1672.44
1682.26
1678.86
1954.38
1225.36
1279.61
1144.01
1660.01
1411.41
1539.16
1723.94
1528.22
1913.17
1492.79
1787.06
1583.55
1962.63
1771.82
1819.44
1738.81
1717.44
1747.12
2157.56
1973.5
2182.69
1632.37
1388.96
1972.54
1785.18
1134.86
1484.92
1343.39
1507.5
1627.44
1949.44
1744.96
1811.74
1719.07
1934.17
1380.26
1577.39
1533.35
1324.05
1428.56
1074.8
1661.55
1743.85
1934.83
2172.31
2161.05
1993.02
1419.05
1355.66
1413.31
1392.73
1765.51
1386.16
1683.12
1422.24
1447.63
1778.76
1428.22
2002.87
1354.55
1368.56
1654.5
2237.21
1687.74
2254.17
2878.19
2126.71
1682.66
2676.16
2168.28
1670.45
1771.3
1755.32
1512.27
1400.74
2384.82
2041.92
2210.65
2211.21
2521.21
1867.22
1696.06
1850.95
1712.72
1742.27
1596.15
1849.31
1370.87
1058.87
1335.77
1495.71
837.575
1663.48
1696.58
1273.42
1721.1
1880.17
1575.13
1673.84
1433.58
2255.21
1422.94
1479.77
1801.71
1802.48
1353.47
2407.6
1521.13
2413.77
1776.31
2915.41
1579.2
1442.5
1804.58
1712.34
1621.77
1637.09
2168.55
2821.34
2915.65
2204.36
1767.48
1896.62
1932.81
1797.12
2093.95
1684.87
2195.97
1886.98
1646.92
1784.93
2584.03
2383.29
2595.01
2105.62
2159.79
2046.79
2247.46
2244.79
1523.48
1945.77
1654.3
1619.39
1905.31
1699.66
1687.86
1586.25
1651.8
1904.81
1300.73
1741.92
1349.22
1422.97
1670.67
2059.89
1848.39
1973.21
1618.24
1705.49
1352.95
1663.63
1831.31
1836.31
1870.56
2334.45
2147.41
2373.06
1209.05
1704.5
1345.09
1063.64
1250.02
1632.94
1389.07
1580.81
1820.87
2048.22
1984.9
1974.4
2044.53
2115.79
2435.72
2203.65
1908.33
1973.88
2150.04
1959.52
1879.88
2144.02
2411.24
2532.63
2634.6
2535.98
1698.06
2522.7
1531.99
1301.54
1267.96
1558.16
2781.3
1259.17
1861.58
3474.14
1454.59
1383.53
1457.93
2013.53
4639.51
2348.9
3348.35
1998.21
SCALARS SignedDistance double 1
LOOKUP_TABLE default
145.099
142.887
131.74
125.673
103.544
104.856
104.282
109.674
130.57
128.155
135.565
136.4
138.446
97.764
103.299
101.476
141.522
142.389
148.157
103.886
154.115
154.259
97.0632
132.821
107.122
100.694
153.391
139.313
89.7507
99.2941
146.342
95.6367
134.117
102.528
119.277
122.056
116.681
136.363
126.177
95.6551
145.455
149.774
139.538
124.887
128.48
109.069
112.531
139.177
95.6946
98.9285
101.538
126.688
143.329
95.8071
98.5972
141.574
125.949
126.243
175.996
170.722
173.757
174.7
134.855
150.719
134.79
150.819
184.208
99.8645
127.519
140.504
134.384
123.43
151.082
156.754
177.422
147.462
140.5
117.835
135.764
102.425
95.8363
129.038
106.317
108.47
103.761
105.687
118.387
100.039
91.8361
94.8097
102.04
149.67
136.313
140.538
157.331
136.697
142.729
137.065
98.4523
123.475
91.8437
86.5859
95.2506
87.6688
91.1102
123.216
100.623
183.478
142.338
117.74
130.882
137.011
129.83
124.284
122.835
113.197
122.45
130.612
114.155
115.488
100.989
122.356
120.123
116.327
118.559
124.408
124.134
126.745
114.737
121.573
127.826
118.739
122.125
116.766
124.194
143.048
130.433
97.2151
122.733
136.315
134.11
118.187
137.553
152.108
155.864
140.034
139.381
94.3365
96.1303
103.791
128.875
118.687
129.24
122.247
146.991
133.668
94.886
89.8734
89.6136
141.099
172.729
147.357
142.889
133.366
137.411
133.135
132.44
137.356
120.484
126.85
113.012
124.777
125.614
139.48
102.639
109.301
100.41
137.433
130.09
128.37
99.6177
99.983
104.484
99.0989
97.075
96.3284
97.927
98.2756
98.3077
113.299
102.946
104.804
135.429
144.046
117.747
126.378
143
133.948
133.807
99.5993
95.9578
98.8251
95.1837
95.7541
95.209
98.8194
142.639
133.616
134.872
132.467
132.713
141.313
117.148
124.962
116.59
115.245
115.073
125.922
149.804
150.676
151.296
150.241
152.623
175.175
163.305
150.403
149.313
158.672
169.832
147.75
147.737
150.662
120.816
135.295
120.571
150.649
143.457
141.552
141.438
142.722
145.621
175.742
169.585
172.889
172.932
151.409
147.961
154
179.236
165.333
155.58
105.954
114.803
112.42
110.836
99.5055
128.75
138.256
135.697
133.743
132.32
143.01
137.383
148.189
111.877
129.759
121.332
140.007
131.394
142.636
150.447
168.617
160.834
146.44
143.862
140.472
150.002
166.157
159.501
165.013
159.134
165.143
141.213
140.172
141.817
139.365
150.754
142.853
151.53
167.858
158.495
151.266
130.231
139.496
107.965
122.331
132.758
127.573
126.55
104.309
99.8222
95.245
96.9388
96.9384
95.939
96.8998
128.605
122.527
120.248
122.936
121.57
132.827
100.82
108.079
99.9464
100.536
97.7171
108.24
104.586
104.871
97.1243
103.075
104.617
105.252
104.082
128.399
115.421
103.163
106.427
112.034
105.549
98.8857
96.435
96.7747
102.635
98.911
95.136
96.9658
103.592
96.5278
98.7275
98.066
96.9323
97.909
136.528
134.563
152.745
148.293
137.638
143.431
143.765
136.444
146.436
156.29
147.996
144.697
160.149
160.469
133.501
136.436
133.748
142.821
139.156
136.855
149.908
139.697
148.801
147.65
146.361
146.366
126.194
132.68
99.3899
109.701
107.992
110.218
98.9474
99.4966
96.1089
89.3993
89.3408
88.3706
91.13
92.6892
100.945
93.229
95.7749
89.719
88.5396
95.0726
89.6995
90.3844
88.9981
90.5429
86.2092
90.3347
115.919
105.752
137.439
128.734
94.234
107.307
105.693
147.57
166.539
146.948
155.157
170.381
147.066
141.224
128.297
130.659
132.639
111.844
122.608
102.706
140.907
134.696
138.404
137.272
138.214
125.662
127.282
125.801
124.873
128.765
128.341
132.909
121.6
124.174
121.077
122.293
126.166
129.264
114.131
119.964
106.688
129.893
126.167
127.669
109.929
108.584
102.224
118.074
114.449
117.196
100.858
108.182
109.514
124.773
118.783
121.169
123.478
123.152
121.491
122.04
117.594
121.28
119.122
111.019
113.877
119.609
117.812
119.431
116.564
118.725
128.868
127.834
130.572
120.84
124.057
120.044
125.17
124.71
123.267
122.226
122.956
122.383
120.562
123.93
116.4
117.633
119.475
117.029
115.394
130.27
126.576
119.703
122.674
126.058
121.726
118.327
113.183
121.761
113.32
118.62
129.209
136.116
139.949
132.178
124.263
115.339
114.81
113.27
126.966
127.536
135.571
125.022
134.982
130.492
144.115
100.751
108.227
105.662
106.417
94.1522
122.638
140.347
133.172
132.483
128.41
137.422
136.241
137.927
102.897
125.633
112.604
138.733
127.757
138.004
130.213
138.017
133.484
133.115
137.816
135.216
141.082
151.679
155.863
159.248
142.925
150.222
134.85
130.442
138.324
135.079
143.77
141.309
144.337
143.261
142.956
142.923
96.228
95.1457
95.094
94.3846
98.4919
108.642
98.5351
101.636
102.132
97.1703
104.44
103.292
105.081
103.45
97.3241
92.1665
96.3931
98.3123
131.003
125.144
128.41
132.433
133.719
109.901
112.549
110.52
117.652
121.667
132.072
134.093
134.62
124.623
117.902
125.493
122.716
129.943
108.198
135.216
122.231
105.201
107.271
133.068
149.554
143.303
134.378
143.848
133.349
116.94
127.665
137.446
141.452
137.279
139.534
129.359
118.078
93.7308
103.413
103.397
93.728
92.848
88.8982
90.2666
90.5159
87.4175
96.3209
87.4159
91.6131
90.3749
88.4376
88.6996
88.5541
88.716
131.112
144.329
140.998
135.202
136.745
141.204
156.709
149.779
155.681
163.425
147.165
139.274
142.849
159.32
167.177
153.246
163.3
145.114
