# vtk DataFile Version 4.2
vtk output
ASCII
DATASET POLYDATA
POINTS 642 double
-146.657 256.522 39.7086
151.665 258.745 38.3806
-138.83 -255.62 -2.36533
147.684 -261.307 -3.73138
1.52401 -172.833 304.966
0.0270179 189.668 287.428
-0.384301 -173.83 -305.044
-1.87263 169.185 -304.156
256.47 -0.436523 -199.84
266.74 1.68151 190.595
-248.374 -2.22683 -199.234
-265.534 11.9785 185.41
-246.427 163.806 121.538
-171.665 105.983 283.806
-101.921 280.836 177.489
104.658 281 178.349
-0.196963 304.63 37.971
100.597 226.514 -189.083
-93.0832 227.099 -185.525
-168.392 102.04 -295.133
-217.08 134.9 -128.819
-255.261 -2.95908 16.9172
172.696 109.511 283.987
253.754 166.712 122.833
-162.686 -99.2019 284.605
0.335731 -11.1075 352.015
-221.796 -136.397 -129.508
-221.251 -140.11 108.989
-1.02097 0.814292 -366.695
-171.056 -106.024 -296.24
226.085 138.917 -136.37
175.333 106.216 -298.755
230.942 -143.9 108.443
169.403 -99.6884 289.269
92.1104 -245.446 165.939
-88.2721 -242.528 165.365
1.47297 -320.283 -3.08007
-89.0734 -241.384 -172.922
91.7354 -248.353 -166.895
175.337 -106.254 -298.75
218.902 -135.968 -125.505
265.65 -0.76376 15.812
-202.466 219.216 83.8959
-191.445 234.206 149.774
-134.527 283.209 107.32
-233.504 56.3085 242.241
-225.453 142.314 205.827
-270.394 83.7984 160.143
-54.1125 245.781 246.459
-142.755 204.18 240.852
-93.3613 151.58 297.046
-52.379 317.748 107.606
-78.453 293.074 39.5108
55.3394 245.447 246.485
-0.0296326 296.315 188.058
81.7916 292.738 38.2742
52.8613 317.248 107.731
138.915 284.822 106.44
-31.1748 255.213 -67.843
-110.593 209.721 -79.1788
116.897 220.462 -82.674
34.8736 256.514 -66.5242
-56.39 214.276 -248.05
-1.23579 234.11 -189.076
61.1192 214.266 -246.936
-167.801 189.82 -162.639
-194.225 180.418 -35.1047
-90.2492 144.341 -314.83
-137.09 184.809 -246.025
-243.713 72.9583 -164.272
-210.985 128.019 -213.458
-227.449 49.6738 -249.825
-229.529 155.862 41.2914
-261.129 -1.3733 -109.145
-250.032 77.3256 -71.2016
-262.269 87.5727 84.795
-267.143 14.3428 117.623
196.467 235.474 152.43
209.446 222.683 82.2693
96.1534 152.901 297.862
147.441 205.892 243.461
268.077 94.85 157.283
230.328 148.225 207.544
232.746 54.1904 243.353
-94.9814 51.5061 329.863
-0.0921575 88.7931 324.389
-225.51 -46.5423 241.177
-178.331 0.796247 299.081
1.52941 -97.1585 348.736
-90.4208 -57.9672 338.619
-84.2902 -142.873 305.737
-251.866 -65.9355 71.085
-247.817 -65.463 162.432
-246.343 -79.148 -169.61
-243.722 -66.4513 -75.5046
-187.386 -205.998 52.4601
-221.929 -152.798 3.31042
-183.278 -206.201 -49.1537
-181.707 -0.691477 -314.301
-229.333 -53.1213 -250.265
-2.29556 94.2609 -352.773
-95.1783 57.2744 -354.168
-92.601 -148.542 -315.888
-96.1824 -57.0154 -352.509
-0.967595 -95.409 -350.683
144.191 189.311 -248.579
96.4558 146.413 -314.943
205.546 179.341 -36.9391
176.395 192.714 -169.579
236.241 56.7631 -252.393
223.891 134.783 -216.143
254.227 80.1942 -171.997
194.83 -210.809 49.9481
171.461 -205.055 142.469
125.569 -261.672 80.2155
231.807 -49.8021 246.699
213.759 -123.811 210.58
255.192 -67.562 164.275
48.2096 -214.209 245.445
134.768 -180.44 242.146
86.2809 -142.999 307.232
45.9197 -292.702 74.8659
76.6896 -303.235 -4.72763
-46.7552 -212.997 245.313
1.66226 -259.768 176.161
-70.7649 -300.632 -3.95818
-42.0551 -290.888 74.5214
-120.106 -257.528 80.3702
47.9455 -302.822 -84.5941
123.467 -270.556 -81.9953
-115.995 -264.986 -82.4349
-43.1845 -301.182 -84.3399
57.4883 -214.384 -254.193
0.944592 -269.361 -165.398
-60.6722 -216.295 -253.218
169.357 -197.76 -155.618
192.01 -213.66 -48.4961
94.0731 -146.951 -315.067
144.186 -188.837 -249.173
252.948 -78.6037 -177.061
225.743 -135.008 -216.954
236.566 -57.0492 -252.121
231.406 -159.315 1.55815
269.569 0.086875 -111.339
252.933 -65.6282 -69.255
262.112 -73.0085 69.671
276.055 6.8983 109.637
94.4216 -57.4206 340.99
181.579 -3.63559 304.486
97.8259 49.3201 331.703
-165.783 -200.115 142.664
-130.613 -179.136 240.644
-208.326 -122.985 205.962
-141.173 -190.258 -248.61
-170.159 -192.036 -164.023
-217.403 -134.117 -214.54
183.91 0.00568879 -311.908
97.6995 -59.2402 -352.242
97.4841 59.3044 -352.2
269.537 90.0155 82.018
259.822 78.0425 -70.8521
236.57 160.044 38.3415
-175.223 241.026 59.8752
-172.142 253.427 97.3786
-142.281 271.794 72.9276
-224.784 200.628 134.813
-200.927 229.036 118.2
-226.43 193.06 105.365
-122.472 288.688 139.141
-165.063 262.701 129.504
-149.011 260.98 164.714
-255.404 32.1225 213.292
-258.476 71.0475 199.305
-273.878 48.2813 173.876
-201.691 125.768 248.218
-231.546 99.481 227.09
-205.294 81.1895 266.303
-259.507 125.929 140.1
-253.808 114.327 181.262
-242.907 156.028 158.793
-27.3386 219.604 271.332
-73.9149 202.425 273.291
-47.3777 172.517 292.452
-123.054 246.482 211.887
-100.157 228.062 245.113
-78.7538 266.207 215.242
-133.583 129.577 294.268
-119.619 179.886 272.25
-159.298 156.275 265.503
-210.328 190.848 178.771
-187.679 175.432 226.598
-169.182 222.124 197.661
-106.077 293.07 73.9836
-114.599 277.119 39.2877
-78.8415 307.205 140.708
-93.6764 304.354 108.591
-41.0232 302.279 38.9219
-65.5158 308.181 75.0442
-26.4446 314.96 74.8316
27.8731 219.499 271.36
-0.00896625 249.234 248.698
53.5527 292.985 185.936
28.1957 275.279 219.909
80.855 266.123 215.55
-27.9786 275.304 219.909
-52.8552 293.218 185.851
119.354 277.767 37.3201
110.201 293.542 73.3058
147.499 273.506 72.1547
25.9842 314.692 74.7581
67.3729 307.699 74.7278
41.5877 301.959 38.0232
125.533 289.17 139.617
96.4866 304.455 108.236
80.167 306.775 140.864
-28.1909 316.252 145.45
28.1382 316.158 145.553
-0.295207 321.256 108.503
-97.9698 268.842 8.36808
-129.505 250.956 7.7416
-21.5866 287.461 0.509618
-57.0449 282.622 5.99626
-105.542 223.298 -159.458
-66.0704 235.435 -74.572
-66.2279 238.109 -152.59
130.576 253.78 1.97545
104.739 267.471 3.3427
72.854 237.573 -152.452
81.0796 230.864 -72.8118
114.248 224.596 -158.121
59.9447 282.291 4.4462
22.4155 287.826 -0.207255
-30.5153 193.524 -277.845
-0.58454 215.013 -248.374
30.8193 193.386 -276.358
-52.9988 233.875 -188.234
-30.5534 227.716 -218.623
-77.1392 224.614 -216.595
84.1901 225.484 -218.271
31.8068 227.124 -218.793
57.3345 231.104 -190.533
0.192189 260.124 -66.3616
25.5549 244.152 -143.12
-26.6878 245.021 -143.951
-155.272 198.605 -54.4373
-168.68 226.692 18.4852
-132.581 211.636 -177.207
-146.251 203.404 -146.725
-195.738 170.766 -93.4551
-181.884 179.927 -118.433
-195.478 165.987 -142.759
-47.731 158.82 -312.729
-74.3123 183.63 -283.882
-154.544 146.543 -273.811
-116.42 167.041 -282.382
-130.722 125.048 -308.931
-97.6191 203.112 -249.315
-115.31 211.786 -215.225
-248.299 37.5719 -184.543
-239.695 63.9973 -209.969
-243.165 22.7678 -224.092
-215.826 132.396 -172.206
-229.65 101.148 -192.455
-235.111 103.574 -144.253
-201.094 76.7809 -274.629
-222.438 92.7009 -233.653
-195.732 118.126 -254.59
-155.885 191.562 -203.886
-178.984 159.55 -232
-190.597 164.216 -189.024
-194.219 210.591 36.1729
-201.073 140.107 -47.1168
-200.775 184.756 5.16528
-219.272 188.677 62.2117
-239.83 162.547 85.2845
-253.38 -1.81188 -154.151
-256.995 39.0461 -133.946
-243.013 41.8013 -34.5551
-257.387 38.6352 -99.1902
-253.484 -8.19449 -71.0965
-252.252 72.3952 -114.377
-244 91.6357 -97.6904
-272.615 51.2589 147.612
-269.341 17.737 158.273
-257.027 126.652 107.333
-265.9 87.3677 128.931
-266.804 7.42778 71.8939
-267.507 49.855 104.085
-263.05 44.6731 58.9289
-242.108 96.8099 -9.94403
-250.654 86.09 23.3077
-249.943 123.151 60.4165
177.895 256.286 95.8428
181.5 243.826 59.4205
153.001 261.637 166.705
169.576 264.483 129.871
233.725 196.512 104.312
207.179 231.836 117.939
231.145 203.03 137.141
49.0859 172.462 292.304
76.7862 202.276 274.026
162.762 160.103 267.497
123.317 181.496 274.392
135.231 132.891 295.245
103.773 228.108 246.372
127.16 247.037 213.478
267.292 45.9165 176.476
256.772 75.599 200.125
254.81 25.5164 215.771
249.728 160.791 161.363
255.866 122.289 181.431
266.26 133.21 139.847
205.511 82.7532 266.195
233.062 105.408 227.091
204.651 131.335 249.19
174.635 224.055 200.597
192.872 179.305 229.351
216.89 194.237 182.202
-51.9569 123.067 312.218
-0.0275121 142.317 305.743
-135.995 82.839 311.292
-98.0863 102.965 316.057
-0.206979 35.8619 342.059
-51.3024 67.7715 329.237
-48.2565 19.0877 344.467
-249.085 -17.9325 213.566
-231.799 5.20599 243.88
-172.888 -50.6106 295.903
-204.058 -24.1633 273.967
-196.46 -73.0147 264.977
-206.659 30.6205 273.461
-178.634 55.0003 294.948
1.49175 -138.52 330.078
-40.3998 -121.893 330.747
-38.1605 -159.804 307.599
-43.6949 -35.0823 349.393
-41.3852 -78.4315 345.745
1.13757 -56.4064 357.888
-125.278 -122.81 298.444
-88.8366 -102.05 326.378
-129.355 -80.4606 316.121
-138.399 26.4726 319.992
-136.292 -29.3856 323.797
-93.7904 -4.57573 341.322
-260.866 -24.8608 140.17
-257.882 -26.6589 176.865
-257.208 -29.0323 47.9801
-264.735 -27.8625 92.0694
-234.94 -101.76 139.353
-252.916 -65.8245 115.972
-239 -105.305 90.0774
-249.322 -43.6134 -185.456
-256.046 -41.5895 -137.666
-234.139 -107.762 -105.447
-249.19 -73.3749 -128.801
-236.383 -109.341 -153.383
-259.319 -31.8614 -97.4893
-255.475 -31.0017 -34.9909
-165.064 -230.26 25.6022
-187.232 -207.335 1.8665
-162.625 -232.976 -25.1546
-223.288 -149.384 56.3326
-206.737 -179.346 29.1061
-205.048 -175.376 78.4909
-203.472 -168.645 -89.2063
-206.041 -179.621 -23.6303
-220.686 -145.51 -58.7786
-247.753 -71.2687 7.1635
-234.625 -115.208 -30.5911
-236.556 -113.717 35.4651
-232.66 -1.38272 -255.342
-243.765 -26.6707 -223.866
-177.562 51.8283 -308.365
-206.848 25.1269 -284.134
-203.633 -80.2648 -275.355
-208.065 -27.3209 -284.562
-178.614 -53.3712 -308.266
-2.21185 134.902 -331.427
-49.7433 121 -339.216
-51.7835 30.3798 -366.024
-50.9333 76.7459 -358.102
-1.65591 50.2051 -364.893
-94.4669 102.806 -338.725
-134.595 81.9444 -329.307
-49.1854 -162.957 -313.321
-50.9415 -123.835 -338.083
-0.627703 -138.216 -330.859
-136.189 -83.9394 -329.167
-96.224 -105.592 -338.148
-133.256 -129.151 -310.156
-0.961167 -48.9172 -363.561
-51.4049 -76.769 -355.802
-51.8735 -28.7213 -365.561
-141.251 27.8128 -338.872
-97.9776 0.396869 -359.86
[...]
POINT_DATA 642
SCALARS Mean_Curvature double 1
LOOKUP_TABLE default
0.00802444
0.00810084
0.00667881
0.00782896
0.01339
0.0050419
0.00532829
0.00571364
0.00211057
0.0155741
0.00446762
0.0137663
0.0146886
0.00727941
0.0062688
0.00629743
0.00565716
0.00649774
0.00999212
0.00764117
0.00210832
-0.000379038
0.00666337
0.01314
0.00748275
0.00552105
0.00442617
0.00475563
0.00252566
0.00805694
0.00128396
0.00855793
0.00591927
0.00798873
0.00530198
0.00516617
0.0158647
-0.000246078
0.00424846
0.00849144
-0.00250431
0.0013558
0.00523373
0.011498
0.00892411
0.00861671
0.00552768
0.017678
0.0078758
0.00645178
0.00701218
0.013511
0.00820204
0.00687474
0.00495854
0.00712689
0.0124586
0.00996146
0.00519162
-0.00951112
0.00517673
0.00470792
0.0104825
0.000361557
0.00793096
0.00882929
-0.0012053
0.00835185
0.0094739
0.00331747
0.00976512
0.00902139
0.00189718
0.0112003
0.015873
0.0049225
0.00084923
0.00980425
0.0064555
0.00736369
0.00710568
0.00811154
0.00730411
0.00486996
0.00548256
0.00139529
0.00793409
0.00773996
0.0116453
0.00808573
0.00750824
0.00248228
0.00464971
0.00716797
-0.00504797
0.00834839
0.00537659
0.00397889
0.00975865
0.00849596
0.00633487
0.00865945
0.00890668
0.00685498
0.00440539
0.00910832
0.00954425
-0.00695065
0.00673777
0.010202
0.0122604
0.00647078
0.00592175
0.00476711
0.0059937
0.00869209
0.00683861
0.00424496
0.00477426
0.0069148
0.00639467
0.00349294
0.00999974
0.00530409
0.00800916
0.0107265
0.00306084
0.00637567
0.00915683
0.00866181
0.00750605
0.00972968
0.0103356
0.00640175
0.00954123
-0.00045817
0.00557857
0.00698236
0.00868734
0.00683735
0.0171216
0.0098441
0.0067127
0.0116812
-0.00104644
0.00560946
0.00833371
0.00742462
0.00827594
0.00556775
0.00441805
0.00751442
0.00862323
0.0090555
0.00105559
0.0123153
0.00507558
0.00858853
0.00824472
0.00429005
0.0148596
0.00216201
0.00721793
0.00593333
0.00739686
0.0157945
0.0108854
0.00583244
0.0128606
0.0139807
0.00714711
0.0100915
0.0079628
0.0227008
0.0066349
0.00601108
0.00803717
0.0121075
0.00915431
0.00857928
0.0082751
0.00631134
0.00331616
0.00671969
0.00692478
0.00757452
0.00694141
0.00632456
0.00681672
0.00514758
0.00658625
0.00578575
0.00777914
0.00818757
0.0119191
0.0104439
0.00793253
0.00729544
0.00724857
0.00796815
0.00601811
0.00663271
0.00829273
0.00695475
0.00841711
0.00720357
0.00788397
0.00764009
0.00738917
0.00671227
0.0062431
0.00713322
0.0116335
0.0102624
0.0107657
0.0111373
0.0111516
0.0100809
0.00376946
0.00364336
0.00439169
0.00315075
0.00410476
-0.00568028
0.00898035
0.00534042
0.00522877
0.00794844
-0.0117746
0.00441898
0.00211147
0.00498086
0.00495708
0.0069542
0.00341221
0.00475143
0.00754409
0.011712
0.0141712
0.0075493
6.20433e-06
0.00357148
0.0025419
0.00486812
-0.0020464
0.00260085
0.0110603
0.00502859
0.0234403
0.00442515
0.00836343
0.00729895
0.0083388
0.0072999
0.00769172
0.00806081
0.0098334
0.0101141
0.00434026
0.0098438
0.0104097
0.00508186
0.00679657
0.0061849
0.00731579
0.0115769
0.00856843
0.00937909
0.0107398
0.00861404
0.00847811
-0.0135588
0.0111199
0.00643768
0.00589709
-0.00119524
0.00856009
-0.00977534
0.00621756
-0.00299296
0.0118963
0.006318
0.00839161
0.00652591
0.00599827
0.000999516
0.00852039
0.00289823
0.00350399
0.00147508
0.00624902
0.00678416
0.00746432
0.00744677
0.00676217
0.0125393
0.00701927
0.0107454
0.0136953
0.00247988
0.00599025
0.00785764
0.00729654
0.00764456
0.00660425
0.00673088
0.00727341
0.00784238
0.00684508
0.0106706
0.00938344
0.0160831
0.00567962
0.00613291
0.0076576
0.00651323
0.0076507
0.0066925
0.00280275
0.00144913
0.00804265
0.00737493
0.00397341
0.000918107
0.00598834
0.00970531
0.00490476
0.00737211
0.00781719
0.00685757
0.0060154
0.00847444
0.0116925
0.00629155
0.00625376
0.00423002
0.00595233
0.0152304
0.008191
0.00789007
0.00784078
0.00544002
0.0081369
0.00931681
0.00155518
0.00725807
0.00171207
0.00988403
0.00217316
0.00557359
0.00367196
0.00354292
0.00742468
0.00138156
0.00679241
0.00639144
0.0146202
0.00832472
0.0037237
0.00558134
0.00515506
0.00684601
0.00391722
0.00471519
0.00162242
0.00583291
0.00374456
0.00141031
0.00343605
0.00217929
0.0124997
0.00932035
0.0074475
0.00571905
0.00711497
0.00664468
0.00611344
0.00571867
0.00814241
0.00664554
0.00852951
0.00622783
0.00870839
0.00823501
0.00699311
0.007345
0.00484442
0.00760667
0.00870805
0.00854361
0.00522977
0.00634034
0.00690855
0.00719962
0.00902889
0.00852244
0.0081489
0.00401069
0.0134319
0.0110259
0.00866729
0.0080869
0.0076588
0.00209703
-0.0103508
0.00784807
0.00462415
0.0305309
0.00415909
0.00827895
0.0111285
0.0137208
0.00501744
0.00816798
0.0112159
0.00826852
0.00469375
0.0120261
0.00775435
0.0130913
0.0115236
0.0105148
0.00548326
0.00623624
0.00451644
0.00459584
0.00520211
0.00415513
0.00608672
0.00582063
0.00514274
0.0119119
0.0107555
0.00874521
0.00866301
0.00974995
0.0084385
0.00276947
0.00581992
0.00384095
0.0088553
0.00591359
0.00737869
0.00467911
0.00638188
0.00461135
0.00782244
0.00788611
0.00793565
0.00444969
0.00722416
0.00469535
0.00395078
0.0082995
0.0054799
0.00482634
0.0121574
0.00617964
0.00929736
0.00717018
0.0081158
0.00507667
0.00495038
0.00400621
0.00590022
0.00520808
0.00835172
0.00356002
0.00378844
0.00939739
0.00636725
0.0125347
0.00579011
0.00509516
0.00595014
0.00473934
0.00494834
0.00726417
0.0059957
0.00552472
0.00712473
0.00494193
0.00638642
0.00904044
0.00796119
0.00452084
0.0047327
0.00737074
0.00846322
0.00577251
0.00466531
0.00791298
0.00712299
0.00578026
0.00611132
0.00654177
-0.00385699
-0.00211852
0.0128155
-0.00687646
0.00713384
0.00849773
0.00923371
0.00881927
0.0071
0.00607331
0.000472393
0.00546271
0.0046501
0.00481705
-0.00272007
0.00756976
0.0074529
0.0074706
0.00781128
0.00879777
0.00823972
0.0117403
0.00578723
0.0161623
0.0109728
0.00734773
0.0161377
0.0033863
0.00802495
0.0119338
0.00750938
0.0106989
0.0116141
0.011396
0.0065427
0.00536335
0.00721464
0.00673563
0.00335855
-0.000966215
0.00705
0.00504485
0.0140039
-0.00615715
0.00597457
-0.00260636
0.00592377
0.00280693
0.00779703
0.00424894
0.00422956
0.00246985
0.00527011
0.00501111
0.000118038
0.0018824
0.00730179
0.00820623
0.00650005
0.00749035
0.0028884
0.00815361
0.00488552
0.00666107
0.00847185
0.00927359
0.0022617
0.00401984
0.000390269
0.00710597
0.0058988
0.0100098
0.00725941
0.0113178
0.00738388
0.00471582
0.00532219
0.00490584
0.00446149
0.00741966
0.00785881
0.00835502
0.00735792
0.00431118
0.0108587
0.00389981
0.00873858
0.00774697
0.00762334
0.00507838
0.00787445
0.00502206
0.00920794
0.0110705
0.00960407
0.00797127
0.00728636
0.00543325
0.00286483
0.00222167
0.00490463
-0.00486767
0.0117005
0.00823627
0.0119778
0.0102489
0.00767025
0.0133626
0.0110904
0.011707
0.00570846
0.00939674
0.0054175
0.00545223
0.00940319
0.00709498
0.00694453
0.0046059
0.00833605
0.00960661
0.00455814
0.00953544
0.00953799
0.00525796
0.00719019
0.00634519
0.0051342
0.0063983
-0.000386295
0.0027023
0.00820992
0.00786383
0.00626494
0.00466444
0.0054829
0.00743366
0.00840741
-0.00798725
0.00867016
0.00644645
0.00729826
0.018195
-0.016233
0.00691896
0.00184615
0.00529104
SCALARS CoVolArea double 1
LOOKUP_TABLE default
1196.17
1243.92
1385.02
1347.65
1398.42
1860.13
1776.12
1827.99
1434.46
1193.08
1301.98
1108.87
1419.52
2192.23
2179.04
2243.05
1768.61
1381.22
1310.42
2194.6
2468.32
2879.12
2343.62
1447.46
2077.05
2376.12
1986.34
2063.26
2727.04
2248.26
2442.87
2172.48
2113.74
2071.9
2166.58
2161.96
1417.53
2546.37
2449.8
2178.09
2718.25
2919.67
1595.95
2011.96
1527.35
1971.53
2343.21
1357.99
2100.18
2387.04
2242.88
1675.17
1500.31
2174.16
2350.08
1631.78
1739.27
1575.13
2902.79
4077.66
3108.63
3418.92
1808.9
2163.15
1919.38
1474.39
2066.2
2047.14
1960.19
1685.7
1724.21
1836.19
2964.25
1560.85
1986.86
2038.33
1716.19
2084.08
1597.73
2233.67
2355.3
1700.89
2231.41
2220.13
2480.72
2987.34
1894.86
2285.64
1927.12
2358.92
2065.28
2246.12
1678.36
1454.88
2882.76
1697.8
2111.39
2190.17
2345.74
1885.49
2391.4
2425.19
2066.36
2505.47
2515.42
2001.37
2104.53
2702.21
1481.09
1947.77
1752.13
1544.93
1803.71
2260.32
1943.38
1804.92
1982.76
1783.01
2004.61
2121.88
2150.94
2185.37
1643.91
1969.57
2147.72
1583.46
2163.72
1896.58
1854.72
1687.8
1851.36
1805.82
2133.15
2627.08
1965.28
2687.88
1809.55
2143.64
1941.26
1293.91
1529.69
1959.6
1949.74
1709.83
3038.19
2172.43
1867.33
2372.93
2263.33
2519.65
2208.74
2014.54
1869.01
1921.83
2127.57
1655.87
2585.43
2536.81
2533.62
1979.86
2162.95
2942.25
1557.51
1549.01
1497.67
1693.63
1434.35
1377.52
1711.48
1574.55
2197.25
1692.85
1765.3
1193.48
2282.96
2049.52
1990.76
1464.8
1902.8
1964.72
2069.55
2210.52
2330.02
2342.86
2156.38
2064.22
2081.91
2191.97
2339.02
2534.54
2651.73
2651.13
1546.74
1398.36
1959.69
1528.14
1534.2
1503.3
1694.34
2115.33
2131.86
2312.03
2149.8
2135.68
2113.64
2256.58
1448.58
1604.2
1509.88
1744.48
1599.54
1623.54
1791.22
1597.1
2029.39
2296.94
2327.69
1955.83
2772.57
2639.57
2235.2
2443.47
2407.59
3808.9
2322.13
2455.15
2450.39
2800
3730.28
2185.8
2684.17
2297.28
2090.12
2072.62
2236.5
1638.36
1743.35
1448
1446.95
1813.17
1851.34
2931.71
3006.69
2710.22
3765.18
2372.53
1349.66
2478.83
1912.63
1992.99
1582.14
2049.14
1974.69
2153.82
1983.37
2044.1
1754.14
1596.63
1697.8
1594.39
1526.4
1674.48
1573.3
1623.48
2004.41
1701.97
2043.96
1825.39
2102.29
1832.07
1725.67
4296.57
2170.16
1698.85
1594.04
1925.43
1717.88
3706.16
1929.41
2330.91
1405.48
2602.4
1271.95
1310.81
1621.05
1482
1843.53
1720.15
2850.06
3154.11
2714.67
2154.59
1579.77
1538.95
2255.13
1685.18
1456.89
1549.93
1769.11
2386.32
2251.21
2287.93
2148.28
2093.04
2199.34
2375.21
1750.18
2027.69
1845.87
1885.97
1842.84
1388.14
2218.93
2148.06
2288.06
2631.35
2566.71
2478.39
2681.31
2729.06
2316.87
2288.62
2644.84
2638.57
2514.78
1688.63
2019.87
2202.65
2038.39
1923.62
2053.65
2269.38
1837.29
2095.03
1918.74
2349.59
2110.74
1980.12
1947.63
2145.32
2214.13
2644.97
2552.85
2662.39
1819.5
1480.9
2260.91
1836.88
1869.76
1937.59
2154.83
1648.83
1647.29
2339.61
1738.95
1475.35
1672.35
2533.34
1726.9
1753.59
1734.19
1989.21
1719.58
1811.24
2437.09
2013.05
2344.43
3210.11
3005.36
2596.63
1876.21
1539.93
2337.37
2075.27
2064.66
2093.57
2385.81
2280.3
2190.01
2585.32
2257.7
2440.14
2133.18
2350.02
2119.45
2312.04
2315.71
2414.96
2211.6
2069.48
2539.05
2411.46
2646.17
2688.98
2761.6
2712.94
2064.88
2273.03
1543.13
1743.75
2012.18
1971.36
2213.64
2804.66
4280.44
1524.14
2494.63
1849.52
2443.29
1347.45
1691.77
1523.3
1701.07
2134.8
1746.38
2011.44
1547.51
1423.42
1528.85
1793.28
1758.45
2184.59
1728.82
1887.96
1798.16
2249.51
1949.13
1911.46
1938.59
1940.68
2224.14
1581.45
1597.31
1422.49
2002.07
1735.47
1866.11
1954.82
1776.53
2160.03
1787.23
2067.69
1890.47
2227.92
2031.98
2057.36
2039.75
2012.97
2080.83
2444.57
2305.9
2478.8
1887.9
1652.44
2239.55
2029.64
1452.35
1761.3
1682.68
1799.27
1904.04
2224.36
2004.68
2042.55
1986.59
2212.13
1630.79
1833.28
1773.88
1662.2
1707.2
1392.6
1916.47
1992.07
2206.89
2484.14
2474.78
2326.73
1701.3
1621.68
1761.5
1689.81
2040.72
1681.11
2011.42
1664.91
1715.21
2111.23
1717.59
2211.96
1649.9
1720.36
1950.63
2400.1
1973.88
2501.28
2920.75
2290.64
1990.16
2773.07
2490.06
2054.7
2156.33
2138.37
1781.73
1658.56
2677.87
2277.57
2391.05
2408.97
2645.94
2151.63
2007.71
2211.61
2030.83
2052.83
1881.46
2173.03
1614.98
1433.9
1678.37
1707.87
1172.07
1797.08
2032.14
1705.38
2137.49
2267.4
2035.45
2008.26
1703.43
2462.76
1704.42
1742.68
2061.48
2016.69
1646.63
2662.93
1800.58
2432.14
1991.03
3000.18
1819.95
1673.86
2072.33
1952.87
1827.17
1859.23
2384.46
2998.97
3125.81
2448.74
2083.75
2240.66
2228.38
2114.22
2397.38
2014.79
2488.03
2169
1968.24
2138.14
2739.85
2619.36
2750.51
2348.1
2461.21
2446.66
2611.4
2606.33
1789.41
2206.16
1913.4
1878.7
2160.29
1992.86
2023.88
1897.13
1922.19
2166.05
1623.87
1988.42
1620.1
1750.92
2008.79
2358.29
2196.06
2269.5
1942.15
2022.88
1700.47
1996.32
2201.26
2086.75
2078.22
2529.09
2340.18
2509.08
1544.06
2107.62
1738.3
1388.51
1525.19
1977.18
1732.12
2053.14
2172.53
2376.97
2279.61
2272.21
2375.33
2390.31
2710.87
2466.69
2215.1
2323.36
2418.3
2311.96
2195.82
2421.65
2692.91
2879.43
2963.38
2882.02
1932.06
2667.98
1783.03
1577.1
1558.47
1833.28
2860.86
1577.88
2066.02
3490.9
1785.64
1653.6
1682.55
2032.73
4272.88
2735.9
3448.31
2283.63
SCALARS SignedDistance double 1
LOOKUP_TABLE default
173.187
170.388
158.134
151.043
123.76
125.061
124.327
130.075
156.087
152.225
162.031
159.925
164.001
118.064
122.747
120.794
168.169
170.04
174.744
123.638
182.113
184.805
117.127
157.341
128.257
120.599
180.744
166.637
107.776
118.603
174.064
114.58
159.736
122.965
143.573
146.777
139.551
158.266
149.121
114.583
171.983
178.49
166.052
144.451
152.436
129.251
132.84
163.874
115.595
119.386
121.674
149.45
170.489
115.678
118.306
168.619
148.697
149.549
202.969
199.437
202.133
200.372
155.497
176.682
155.414
178.521
202.431
119.23
147.831
166.945
159.512
143.25
180.383
184.984
204.441
175.539
168.056
137.107
161.366
122.667
115.745
153.634
126.433
128.93
123.45
126.953
139.722
120.317
110.713
114.044
122.745
178.169
163.325
167.516
183.804
163.607
171.038
164.501
117.096
142.45
110.417
104.632
114.34
105.57
109.863
142.13
119.344
201.029
170.061
135.717
153.03
163.387
155.987
149.458
148.112
133.629
146.606
156.196
136.776
138.194
121.325
146.684
144.126
139.047
142.51
149.106
148.695
152.555
137.815
145.943
153.1
142.034
142.74
140.288
144.441
165.887
156.797
116.233
141.016
163.234
156.629
135.978
164.546
179.269
181.088
167.775
165.679
112.995
115.904
123.622
154.828
141.837
153.086
141.098
172.984
157.746
113.75
106.777
106.586
168.42
198.437
175.847
170.082
158.582
163.278
155.897
157.237
163.761
140.653
149.388
130.841
144.598
143.718
162.782
123.309
129.965
121.113
162.654
149.069
148.369
119.415
119.854
125.188
119.499
117.242
116.404
117.996
118.418
118.741
133.825
123.798
125.453
160.81
171.746
136.884
149.633
169.867
159.021
158.735
119.395
115.845
118.515
114.788
115.757
114.808
118.513
169.787
158.702
160.191
157.446
157.714
168.136
136.916
147.936
135.786
133.272
133.165
148.725
178.7
179.954
179.365
178.599
180.864
200.622
189.308
179.216
177.889
184.478
195.326
175.278
176.045
178.444
141.582
156.332
141.363
176.577
169.577
166.492
167.297
169.002
173.217
202.754
194.275
198.152
199.535
180.045
175.35
182.86
204.091
192.555
183.129
125.755
134.587
132.882
131.051
119.181
148.995
163.389
162.429
159.181
156.485
170.139
163.807
175.363
131.713
152.194
141.4
165.053
154.151
168.733
178.728
195.485
187.366
174.562
171.485
167.096
176.086
193.629
188.102
193.951
186.093
192.561
168.642
167.166
169.272
166.67
179.484
171.114
180.51
196.493
188.261
180.145
154.7
166.004
126.691
143.877
158.017
151.199
148.355
125.033
119.468
115.16
116.798
116.727
115.794
116.995
153.737
142.45
140.949
142.082
141.092
156.48
121.318
128.385
120.031
120.669
118.102
127.943
125.66
126.089
117.332
123.12
125.148
126.201
124.395
149.605
135.87
123.678
127.427
133.368
126.06
118.8
115.73
116.543
123.207
118.262
114.121
115.277
124.474
116.299
118.921
118.219
116.722
117.349
163.794
161.044
182.314
176.571
164.544
170.772
172.034
162.99
173.064
184.173
176.258
172.636
188.031
188.679
160.532
163.938
160.813
170.541
167.045
164.149
176.055
167.613
176.309
176.946
175.418
175.238
145.658
157.113
118.728
129.012
127.477
129.242
117.65
118.881
114.916
107.051
107.185
106.307
109.829
111.57
120.489
112.151
115.076
108.448
107.076
114.17
107.743
108.353
106.578
108.728
103.728
108.472
136.019
125.811
161.273
147.502
113.3
126.879
125.052
175.594
192.767
174.249
181.799
194.26
175.04
169.076
151.331
153.985
158.191
130.956
142.623
121.713
168.232
159.812
165.025
161.659
163.816
146.224
153.127
151.406
150.215
154.127
154.075
159.253
146.356
149.395
145.811
142.681
149.596
154.463
135.531
141.629
127.031
156.01
151.186
153.254
131.236
129.964
122.529
141.924
137.116
140.77
121.124
129.49
130.88
149.557
142.022
145.356
148.199
147.833
145.924
146.807
140.987
145.603
143.007
132.462
136.357
144
141.262
143.522
139.867
142.76
154.383
153.339
156.902
144.865
148.967
143.687
150.436
150.026
148.18
146.522
147.243
146.481
145.205
148.969
139.47
141.346
143.948
140.994
139.318
156.395
151.78
144.011
147.095
151.283
146.089
141.567
133.794
143.126
133.884
142.064
150.288
157.176
160.304
152.938
147.399
137.962
138.254
136.623
152.292
153.275
157.768
150.082
161.792
156.442
169.47
120.238
128.193
124.918
125.946
113.192
142.13
160.457
159.067
156.374
151.502
164.581
162.075
165.619
121.787
144.063
131.335
161.013
146.558
163.321
156.507
165.342
160.258
159.694
164.606
161.257
167.106
179.635
183.154
187.896
170.204
176.79
160.55
156.112
165.307
161.383
172.176
168.796
172.209
170.952
171.295
170.653
115.802
114.743
114.619
113.369
117.996
128.894
118.372
121.943
122.078
116.992
125.516
123.649
126.017
123.63
117.425
111.221
116.086
116.914
157.066
150.505
154.4
159.171
160.106
131.437
134.509
132.205
140.466
146
156.15
160.707
160.381
147.152
140.303
150.481
146.406
155.86
127.617
156.831
141.263
124.761
126.795
159.619
176.297
169.16
160.341
167.795
158.086
136.105
148.766
163.114
168.41
161.783
165.561
149.454
136.817
112.07
122.451
122.444
112.068
111.729
106.691
108.212
108.51
105.879
115.508
105.883
109.353
108.607
106.068
106.905
106.23
106.915
156.863
172.843
167.81
161.071
163.291
166.737
183.48
175.851
182.676
189.499
174.283
165.947
169.958
184.321
193.108
181.517
191.113
173.179
